/*--------------------------------*- C++ -*----------------------------------*\
| =========                 |                                                 |
| \\      /  F ield         | OpenFOAM: The Open Source CFD Toolbox           |
|  \\    /   O peration     | Version:                                        |
|   \\  /    A nd           | Website:  www.openfoam.com                      |
|    \\/     M anipulation  |                                                 |
\*---------------------------------------------------------------------------*/
FoamFile
{
    version     2.0;
    format      ascii;
    class       volScalarField;
    location    "38";
    object      p;
}
// * * * * * * * * * * * * * * * * * * * * * * * * * * * * * * * * * * * * * //

dimensions      [0 2 -2 0 0 0 0];


internalField   nonuniform List<scalar> 
1164
(
-0.19476
-0.203171
-0.21843
-0.23575
-0.253083
-0.269898
-0.0908579
-0.101137
-0.122269
-0.143308
-0.165941
-0.185667
-0.204238
-0.219925
-0.234916
-0.255817
0.021702
0.0151077
-0.00448758
-0.0284576
-0.0568345
-0.0843543
-0.111151
-0.133875
-0.155688
-0.179036
0.117474
0.112779
0.0961701
0.0708879
0.0411416
0.00915823
-0.0225788
-0.0513648
-0.0790897
-0.107185
0.178465
0.175382
0.161138
0.138244
0.109573
0.0779541
0.0460695
0.0164424
-0.0122916
-0.0423786
0.205119
0.201845
0.189853
0.170327
0.145426
0.117933
0.0899635
0.0634253
0.0375966
0.00981108
0.207121
0.204343
0.194543
0.178647
0.158387
0.135917
0.112898
0.0908526
0.0695415
0.0466916
0.190134
0.188471
0.181583
0.17029
0.155625
0.138974
0.121586
0.104254
0.0870164
0.069405
0.167904
0.16636
0.161336
0.153459
0.143274
0.131856
0.119854
0.107964
0.0948361
0.0811218
0.144694
0.143427
0.140028
0.134606
0.127636
0.119939
0.11166
0.103663
0.0952348
0.0846687
0.123044
0.122113
0.119837
0.116201
0.111547
0.106439
0.100837
0.0952187
0.0899428
0.0827992
0.104451
0.103731
0.10213
0.0996786
0.0965552
0.0931415
0.0894347
0.0854621
0.0819127
0.0773989
0.0888818
0.0882891
0.0871321
0.0854247
0.0832669
0.0809048
0.0784308
0.0756678
0.0731233
0.0703213
0.0755022
0.0750098
0.0741915
0.0730032
0.0715333
0.0698928
0.0682174
0.0663412
0.0644459
0.0627162
0.0641554
0.0637526
0.0631731
0.0623417
0.0613541
0.0602261
0.0590653
0.0578119
0.0563584
0.0552813
0.0546409
0.054332
0.0539132
0.0533089
0.0526135
0.0518209
0.0509806
0.0501469
0.0490262
0.0483526
0.0466025
0.0463738
0.0460614
0.0455988
0.0450788
0.0445047
0.0438688
0.0433087
0.0424361
0.042011
0.0397347
0.0395717
0.0393401
0.0389764
0.0385777
0.0381561
0.0376609
0.0372742
0.0365801
0.0362987
0.0337062
0.0336013
0.0334405
0.0331704
0.0328635
0.0325587
0.0321707
0.0319107
0.031369
0.0311769
0.0283262
0.0282567
0.028156
0.0279898
0.0277679
0.0275676
0.0272708
0.0271127
0.0267043
0.0265749
0.0237943
0.0237489
0.0236786
0.0235788
0.023423
0.0232965
0.0230579
0.0229527
0.0226205
0.0225312
0.0201556
0.0201255
0.0200561
0.0199608
0.0198321
0.0197276
0.0195295
0.019424
0.0191424
0.019059
0.0169966
0.0169849
0.0169164
0.0168131
0.016687
0.0165838
0.0164127
0.0163087
0.016076
0.0159905
0.0140683
0.0140745
0.0140165
0.0139196
0.0137929
0.0136935
0.0135429
0.0134562
0.0132656
0.0131836
0.0112557
0.0112691
0.0112338
0.0111765
0.0110786
0.0110009
0.010887
0.0108217
0.010677
0.0106099
0.00870674
0.00871859
0.00869809
0.00867636
0.0086211
0.00858962
0.00852367
0.00847729
0.00842929
0.0083488
0.00654666
0.00655596
0.00654481
0.00654487
0.00651643
0.0064989
0.00646246
0.00642748
0.00636175
0.00628528
0.00458105
0.00458669
0.00457947
0.00457763
0.00456059
0.00454362
0.00450752
0.00446745
0.00442947
0.00440584
0.00275871
0.00276178
0.00275206
0.00274287
0.00272519
0.0027181
0.002695
0.00267833
0.00264564
0.00262919
0.000959287
0.000960827
0.000954044
0.000945784
0.000933957
0.000927532
0.000915795
0.000909879
0.000896761
0.000892812
-0.2238
-0.214133
-0.206325
-0.198169
-0.189585
-0.181025
-0.172464
-0.163855
-0.155169
-0.146433
-0.137725
-0.129142
-0.120738
-0.112545
-0.104637
-0.0970673
-0.0898838
-0.0831292
-0.0768409
-0.0710508
-0.0657841
-0.0610611
-0.0569006
-0.0533217
-0.0503478
-0.0480127
-0.046365
-0.0454821
-0.171857
-0.167679
-0.166413
-0.161658
-0.159782
-0.156255
-0.152125
-0.147845
-0.143245
-0.138262
-0.132871
-0.127144
-0.121185
-0.115068
-0.108833
-0.102559
-0.0963218
-0.0901911
-0.0842384
-0.0785248
-0.0731096
-0.0680438
-0.0633699
-0.0591274
-0.0553507
-0.0520723
-0.0493277
-0.0471589
-0.0456211
-0.0447943
-0.106489
-0.108841
-0.111942
-0.112135
-0.115519
-0.11567
-0.115676
-0.11538
-0.11442
-0.112767
-0.110455
-0.107597
-0.10428
-0.100539
-0.0964369
-0.0920628
-0.0874979
-0.0828321
-0.0781427
-0.07351
-0.0690109
-0.0647107
-0.0606707
-0.0569464
-0.0535852
-0.050634
-0.0481378
-0.046148
-0.0447267
-0.0439584
-0.0482328
-0.0559652
-0.062582
-0.0673872
-0.0747599
-0.0777483
-0.0815953
-0.0847077
-0.0868257
-0.0880855
-0.0885571
-0.0883363
-0.0874505
-0.0859228
-0.0838366
-0.0812825
-0.0783522
-0.0751287
-0.0716995
-0.0681622
-0.0645994
-0.0610919
-0.0577153
-0.0545366
-0.0516181
-0.0490176
-0.0467911
-0.044998
-0.0437071
-0.0430054
-0.000212538
-0.0110533
-0.0203322
-0.0287828
-0.0386405
-0.0438665
-0.0510517
-0.0567359
-0.0612596
-0.0649444
-0.0678136
-0.0698845
-0.0711215
-0.0715715
-0.071327
-0.0704684
-0.0690711
-0.0672197
-0.065018
-0.0625577
-0.059929
-0.0572243
-0.0545266
-0.051915
-0.0494616
-0.0472354
-0.0453013
-0.0437268
-0.0425851
-0.0419617
0.0353396
0.0237101
0.0133462
0.00268049
-0.00831952
-0.0152994
-0.024985
-0.0321197
-0.0384406
-0.0440249
-0.0488109
-0.052718
-0.0557062
-0.0578538
-0.059224
-0.0598661
-0.0598533
-0.0592792
-0.058232
-0.056799
-0.0550794
-0.0531653
-0.0511469
-0.049109
-0.0471335
-0.0452969
-0.0436728
-0.0423345
-0.0413561
-0.0408199
0.0582942
0.0473219
0.0370871
0.0259066
0.0150679
0.00696168
-0.00396198
-0.0115054
-0.0189735
-0.0258787
-0.032011
-0.0372399
-0.0415834
-0.0450963
-0.0477859
-0.049698
-0.0509017
-0.0514662
-0.0514629
-0.0509859
-0.0501247
-0.048971
-0.0476146
-0.0461452
-0.0446485
-0.0432064
-0.0418984
-0.0408004
-0.0399884
-0.0395401
0.0711386
0.0611781
0.0515434
0.0407573
0.0309097
0.0226864
0.011918
0.00467578
-0.00350443
-0.0110721
-0.0178412
-0.02383
-0.0290797
-0.0335611
-0.0372578
-0.0401956
-0.0424068
-0.043933
-0.0448493
-0.0452301
-0.0451547
-0.0447084
-0.0439799
-0.0430578
-0.0420268
-0.0409713
-0.0399721
-0.0391077
-0.038454
-0.0380886
0.0763839
0.0674946
0.0588334
0.0491671
0.0405193
0.0327709
0.0229423
0.0162584
0.00780782
0.000314628
-0.00649445
-0.0127562
-0.0184509
-0.0235007
-0.0278699
-0.0315418
-0.034514
-0.0368215
-0.03851
-0.0396301
-0.04025
-0.0404452
-0.040298
-0.0398881
-0.0392999
-0.0386152
-0.0379141
-0.0372746
-0.0367739
-0.0364879
0.0761311
0.0684219
0.0610807
0.0528321
0.0456385
0.0385
0.0298244
0.0237409
0.0155112
0.00866693
0.00215299
-0.00403773
-0.00981772
-0.0150888
-0.0197912
-0.0238898
-0.0273776
-0.0302619
-0.0325508
-0.0342769
-0.0354875
-0.0362467
-0.0366188
-0.0366794
-0.036506
-0.0361749
-0.0357628
-0.0353469
-0.0350008
-0.0347971
0.0721687
0.0658169
0.0599384
0.0531198
0.0473113
0.0409806
0.0335167
0.0280734
0.0204654
0.0144884
0.00841283
0.00249063
-0.00312448
-0.00832926
-0.0130811
-0.0173527
-0.0211243
-0.0243693
-0.0270815
-0.0292667
-0.0309561
-0.0321854
-0.0330077
-0.0334886
-0.0336937
-0.0336942
-0.0335629
-0.0333701
-0.0331839
-0.0330667
0.0663085
0.0612387
0.0566899
0.0511514
0.0464949
0.0411238
0.0348852
0.0301376
0.0233904
0.0182928
0.01263
0.00710809
0.00185841
-0.00307574
-0.00768309
-0.0119324
-0.0157842
-0.0192055
-0.0221675
-0.0246657
-0.0267061
-0.0283046
-0.029503
-0.0303442
-0.0308846
-0.0311877
-0.0313163
-0.0313342
-0.0312999
-0.0312654
0.059681
0.0556928
0.0522402
0.0478104
0.0441058
0.0396026
0.0345505
0.0305255
0.0247189
0.0204214
0.0152007
0.0102038
0.00544805
0.000887044
-0.00346259
-0.00755667
-0.0113513
-0.0147979
-0.0178624
-0.0205377
-0.0228034
-0.0246728
-0.026159
-0.02729
-0.028111
-0.0286704
-0.0290227
-0.0292227
-0.0293195
-0.0293563
0.0529627
0.0498635
0.0472514
0.0437359
0.0408144
0.0370383
0.0330237
0.0296653
0.0247723
0.0212001
0.0164949
0.0121634
0.00794217
0.00379684
-0.000232197
-0.00409334
-0.00773438
-0.0110898
-0.0141499
-0.0168802
-0.0192672
-0.0213077
-0.0229945
-0.0243473
-0.0253899
-0.0261574
-0.026693
-0.0270407
-0.0272439
-0.0273374
0.0465801
0.0441772
0.042177
0.0393897
0.0371109
0.0339539
0.0307744
0.0279733
0.0239029
0.0209817
0.0168531
0.0132317
0.00954358
0.0058136
0.00213567
-0.00144336
-0.00484786
-0.00804592
-0.0110168
-0.0137159
-0.0161381
-0.0182541
-0.0200604
-0.0215612
-0.0227651
-0.0236947
-0.0243786
-0.0248521
-0.0251468
-0.0252912
0.0406655
0.0387865
0.0372513
0.0350354
0.0332749
0.0306653
0.0281367
0.0258113
0.0224594
0.0200974
0.0165553
0.0136024
0.0103863
0.00708057
0.0037804
0.000538342
-0.00258164
-0.00557785
-0.00839175
-0.0110044
-0.0133873
-0.0155114
-0.0173727
-0.0189588
-0.020272
-0.0213231
-0.022129
-0.0227108
-0.023091
-0.0232828
0.0352645
0.0337896
0.0326176
0.0308408
0.02948
0.0273587
0.0253381
0.023432
0.020696
0.0187868
0.015787
0.0133999
0.0105906
0.00771553
0.00481617
0.00195404
-0.000863169
-0.00360715
-0.00622617
-0.0087053
-0.0109929
-0.0130742
-0.0149306
-0.0165471
-0.0179213
-0.0190524
-0.0199456
-0.0206119
-0.0210588
-0.0212903
0.0303892
0.0292176
0.0283328
0.0269036
0.0258601
0.0241462
0.0225564
0.021001
0.0187797
0.0172269
0.0146982
0.0127629
0.0103202
0.00785228
0.00536275
0.00287434
0.000369872
-0.0020902
-0.00449018
-0.00678843
-0.00894351
-0.010938
-0.0127405
-0.014339
-0.0157232
-0.0168848
-0.0178231
-0.0185378
-0.0190274
-0.0192844
0.0260063
0.0250681
0.0244203
0.0232715
0.0224831
0.0211021
0.019878
0.0186089
0.0168134
0.0155467
0.0134224
0.0118503
0.00974147
0.00766384
0.00556469
0.00341087
0.00122376
-0.000956292
-0.00311477
-0.00519924
-0.00719154
-0.00905839
-0.0107713
-0.012314
-0.0136669
-0.0148193
-0.0157617
-0.0164871
-0.0169892
-0.0172532
0.0221081
0.021373
0.0208943
0.0199568
0.0193521
0.0182521
0.0173059
0.0162735
0.0148267
0.0138023
0.0120249
0.0107642
0.00895141
0.00724893
0.00548796
0.00363391
0.00174518
-0.000170044
-0.00207355
-0.00393619
-0.00574104
-0.00744999
-0.00904199
-0.0104929
-0.011782
-0.0128932
-0.0138129
-0.0145308
-0.01503
-0.0152966
0.0186937
0.0181529
0.0177387
0.0169996
0.0164991
0.0156309
0.0148894
0.0140502
0.0128911
0.0120707
0.0105993
0.00960872
0.00806347
0.00670278
0.00521715
0.00364133
0.00202123
0.000365573
-0.00128617
-0.00292528
-0.00452589
-0.00606321
-0.00751649
-0.0088577
-0.010064
-0.0111162
-0.0119989
-0.0126937
-0.0131858
-0.0134481
0.0156797
0.0152588
0.0149177
0.0143444
0.0139495
0.0132388
0.0126699
0.0119854
0.0110619
0.0104048
0.00920146
0.00843014
0.00712909
0.00605524
0.00479585
0.00347251
0.00209751
0.00069275
-0.000723912
-0.00214311
-0.00353843
-0.00489415
-0.00618873
-0.00739714
-0.00849637
-0.00946713
-0.010288
-0.010942
-0.0114066
-0.0116565
0.0129436
0.0125922
0.01235
0.0119085
0.0116215
0.0110404
0.0106122
0.010063
0.00933528
0.00881109
0.00784353
0.00724197
0.00616728
0.00532496
0.00427007
0.00317285
0.00202916
0.00085907
-0.000337149
-0.0015419
-0.00273668
-0.00390663
-0.0050304
-0.00608716
-0.00705835
-0.00792202
-0.00865802
-0.00924831
-0.00966795
-0.0098971
0.0104525
0.0101674
0.0100116
0.00967433
0.00948028
0.00901685
0.00871218
0.00826505
0.00771191
0.00729703
0.00653296
0.006068
0.00519408
0.00454503
0.00367994
0.00279265
0.00187138
0.000918901
-6.60064e-05
-0.00106451
-0.00206385
-0.00304792
-0.00399857
-0.00490015
-0.00573432
-0.00648106
-0.00712266
-0.00763599
-0.00800736
-0.00820541
0.00824513
0.00802225
0.00793308
0.00761212
0.00754476
0.00713106
0.00694664
0.00658023
0.00617091
0.00584943
0.00525709
0.00490709
0.00420955
0.00372333
0.00302895
0.00233953
0.00162327
0.00087045
8.5968e-05
-0.000716209
-0.00152558
-0.00232536
-0.00310153
-0.0038415
-0.0045304
-0.00515403
-0.00569396
-0.00613398
-0.00645172
-0.00662381
0.00621418
0.00605162
0.00600078
0.00575357
0.00569732
0.00540566
0.00526894
0.0049973
0.00470128
0.00446798
0.00402384
0.00378023
0.00324203
0.00290207
0.00236122
0.00185815
0.0013251
0.000754912
0.000160573
-0.000451167
-0.00107154
-0.00168902
-0.00229315
-0.00287233
-0.0034157
-0.00390973
-0.004339
-0.00469058
-0.00494226
-0.00508481
0.00435055
0.00424884
0.00418957
0.00403452
0.00397819
0.00379177
0.00369278
0.00350922
0.00330597
0.00315264
0.002838
0.00268883
0.00229696
0.00208718
0.00169087
0.00135726
0.00098753
0.000587497
0.000170347
-0.00025971
-0.000696139
-0.00113396
-0.00156637
-0.00198394
-0.00237608
-0.00273176
-0.00304186
-0.00329304
-0.0034778
-0.00357855
0.00259085
0.00252926
0.00248895
0.00239659
0.00236327
0.00224777
0.00219777
0.00208305
0.00195989
0.00188327
0.00167767
0.00161851
0.00135675
0.00126707
0.00100697
0.000830495
0.000607713
0.000367318
0.000118211
-0.000137694
-0.000397911
-0.000660013
-0.000919203
-0.00116899
-0.00140262
-0.00161509
-0.00180162
-0.00195532
-0.00207041
-0.00212938
0.000881001
0.000850817
0.000847105
0.00079995
0.000807081
0.000743285
0.000748535
0.000693456
0.00064898
0.00064031
0.000543965
0.00055982
0.000433122
0.000442804
0.000322019
0.00028851
0.000202618
0.000120238
3.68518e-05
-4.86413e-05
-0.000136211
-0.000224399
-0.000311032
-0.000393971
-0.000471694
-0.000542739
-0.000604927
-0.000657071
-0.000694598
-0.000714327
)
;

boundaryField
{
    outlet
    {
        type            fixedValue;
        value           uniform 0;
    }
    upperWall
    {
        type            symmetryPlane;
    }
    lowerWall
    {
        type            symmetryPlane;
    }
    inlet
    {
        type            zeroGradient;
    }
    cylinder
    {
        type            zeroGradient;
    }
    frontAndBack
    {
        type            empty;
    }
    procBoundary3to2
    {
        type            processor;
        value           nonuniform List<scalar> 
43
(
-0.276257
-0.283204
-0.293972
-0.307456
-0.32416
-0.341133
-0.286106
-0.286106
-0.300546
-0.313073
-0.331387
-0.241641
-0.281959
-0.267299
-0.253547
-0.24022
-0.226902
-0.213875
-0.201203
-0.188841
-0.176752
-0.164951
-0.153492
-0.142444
-0.131882
-0.121825
-0.112303
-0.103355
-0.0950038
-0.0872707
-0.0801701
-0.0737125
-0.0679021
-0.0627418
-0.0582336
-0.0543825
-0.0512007
-0.0487125
-0.0469616
-0.0460247
-0.241641
-0.230536
-0.230536
)
;
    }
    procBoundary3to7
    {
        type            processor;
        value           nonuniform List<scalar> 
30
(
-0.198125
-0.0965167
0.0140224
0.110615
0.173799
0.201556
0.205122
0.189265
0.167486
0.144593
0.123135
0.104632
0.0890915
0.0757086
0.0643368
0.0547865
0.0467033
0.0397949
0.0337339
0.0283379
0.023783
0.0201307
0.0169667
0.0140345
0.0112217
0.00867547
0.00652193
0.00456333
0.00274743
0.000955704
)
;
    }
}


// ************************************************************************* //
