/*--------------------------------*- C++ -*----------------------------------*\
| =========                 |                                                 |
| \\      /  F ield         | OpenFOAM: The Open Source CFD Toolbox           |
|  \\    /   O peration     | Version:                                        |
|   \\  /    A nd           | Website:  www.openfoam.com                      |
|    \\/     M anipulation  |                                                 |
\*---------------------------------------------------------------------------*/
FoamFile
{
    version     2.0;
    format      ascii;
    class       volScalarField;
    location    "51";
    object      p;
}
// * * * * * * * * * * * * * * * * * * * * * * * * * * * * * * * * * * * * * //

dimensions      [0 2 -2 0 0 0 0];


internalField   nonuniform List<scalar> 
1147
(
-0.858926
-0.872077
-0.887144
-0.902293
-0.91873
-0.96556
-0.984923
-0.957426
-0.91351
-0.908419
-0.856249
-0.871587
-0.890756
-0.910691
-0.903634
-0.92462
-0.968222
-0.964844
-0.919318
-0.891724
-0.851111
-0.87126
-0.884045
-0.897126
-0.909538
-0.909851
-0.910448
-0.897074
-0.871888
-0.847903
-0.84368
-0.862607
-0.874818
-0.874743
-0.872986
-0.863613
-0.846685
-0.826267
-0.804943
-0.782437
-0.834456
-0.844775
-0.84447
-0.835695
-0.823737
-0.807348
-0.786054
-0.763725
-0.741747
-0.718757
-0.820081
-0.815268
-0.803126
-0.788672
-0.771846
-0.75214
-0.730622
-0.708152
-0.684894
-0.660398
-0.799556
-0.778966
-0.75885
-0.740255
-0.720721
-0.70027
-0.679594
-0.657408
-0.633675
-0.607926
-0.772332
-0.740245
-0.714968
-0.693108
-0.671773
-0.651892
-0.632089
-0.610415
-0.587055
-0.560646
-0.738408
-0.700591
-0.672355
-0.647843
-0.625927
-0.606821
-0.587596
-0.566699
-0.544105
-0.51757
-0.698469
-0.659755
-0.630231
-0.604559
-0.583059
-0.564727
-0.545793
-0.526034
-0.504146
-0.478073
-0.617094
-0.58789
-0.562636
-0.542623
-0.524975
-0.506623
-0.488391
-0.466928
-0.442068
-0.572682
-0.544926
-0.521873
-0.503908
-0.48737
-0.470161
-0.453479
-0.432623
-0.409354
-0.501983
-0.482201
-0.466887
-0.451594
-0.436198
-0.420842
-0.400865
-0.379449
-0.460167
-0.443994
-0.431204
-0.417353
-0.404249
-0.390047
-0.371291
-0.351785
-0.40756
-0.396705
-0.384595
-0.374168
-0.361065
-0.343883
-0.326277
-0.372833
-0.36384
-0.35359
-0.34599
-0.333952
-0.318596
-0.302788
-0.339437
-0.333235
-0.324453
-0.319435
-0.308563
-0.295006
-0.280964
-0.304068
-0.297447
-0.293989
-0.284635
-0.273021
-0.260566
-0.276265
-0.272285
-0.2697
-0.262118
-0.252662
-0.241565
-0.249591
-0.248323
-0.246363
-0.240589
-0.233236
-0.223725
-0.750119
-0.804475
-0.844769
-0.867688
-0.873944
-0.868559
-0.858935
-0.851283
-0.848369
-0.850771
-0.748401
-0.803032
-0.844126
-0.868079
-0.873524
-0.866002
-0.853583
-0.843838
-0.840898
-0.845546
-0.75848
-0.81734
-0.861048
-0.88342
-0.885367
-0.872225
-0.853004
-0.837402
-0.831482
-0.836297
-0.843775
-0.889539
-0.910821
-0.907553
-0.886288
-0.857677
-0.833773
-0.82254
-0.82598
-0.907566
-0.868102
-0.834917
-0.817933
-0.819595
-0.884445
-0.842668
-0.820709
-0.817896
-0.857977
-0.830816
-0.815373
-0.839305
-0.806609
-0.786369
-0.205912
-0.186755
-0.16811
-0.150969
-0.134982
-0.120536
-0.107021
-0.0944576
-0.083007
-0.0725912
-0.0630841
-0.0544101
-0.0465319
-0.0394307
-0.0329455
-0.0270862
-0.0218824
-0.0172094
-0.0130215
-0.00926918
-0.00592356
-0.00297418
-0.000402841
0.00179532
0.00362829
0.00510752
0.00625229
0.00709678
0.00766155
0.00793997
-0.212462
-0.190455
-0.169595
-0.150818
-0.133879
-0.118875
-0.104782
-0.0919531
-0.0804651
-0.0700832
-0.0606315
-0.0519941
-0.0442225
-0.0372581
-0.0308522
-0.0251901
-0.0202026
-0.0157097
-0.0117133
-0.00813934
-0.00496355
-0.00216759
0.000271333
0.00235251
0.00408262
0.00547013
0.00652928
0.00728999
0.00778343
0.00802774
-0.217194
-0.192157
-0.169302
-0.150379
-0.133451
-0.11785
-0.103079
-0.0898722
-0.0782291
-0.0677754
-0.0582972
-0.0497033
-0.0421664
-0.0353342
-0.0289973
-0.0235711
-0.0187272
-0.0143549
-0.0105112
-0.0070795
-0.00405648
-0.00140436
0.000905013
0.00286901
0.00449809
0.00579945
0.00678339
0.00747415
0.00790665
0.00811709
-0.220724
-0.193044
-0.168629
-0.148921
-0.131137
-0.11509
-0.100597
-0.0879472
-0.0765833
-0.0661657
-0.0566293
-0.0481088
-0.0408284
-0.033899
-0.0275925
-0.0223742
-0.0175367
-0.013238
-0.00949619
-0.00615988
-0.00326163
-0.000729173
0.00146442
0.00331999
0.00485653
0.00608137
0.00700241
0.00763898
0.00802555
0.00820759
-0.222017
-0.193948
-0.170494
-0.151366
-0.132584
-0.114882
-0.0994995
-0.0866042
-0.0750978
-0.0646324
-0.0550262
-0.0468631
-0.0397932
-0.0325242
-0.0264316
-0.0213837
-0.016481
-0.0122965
-0.00862683
-0.0053694
-0.00257945
-0.000143305
0.00194905
0.00370879
0.00516409
0.00632251
0.00719109
0.00778629
0.00814015
0.00830063
-0.0538551
-0.0462206
-0.0388744
-0.0311938
-0.0256039
-0.0205247
-0.0155664
-0.0115358
-0.00789227
-0.00471681
-0.00201318
0.000351838
0.00236056
0.0040435
0.00543272
0.00653566
0.00736055
0.0079233
0.00825355
0.00839812
-0.0393018
-0.0619211
-0.0787001
-0.0973857
-0.118349
-0.140606
-0.161127
-0.179182
-0.195923
-0.20968
-0.0381259
-0.0611465
-0.0807397
-0.102174
-0.125026
-0.149281
-0.171794
-0.192322
-0.211167
-0.225979
-0.0371191
-0.0630633
-0.086825
-0.11143
-0.136016
-0.162111
-0.185841
-0.208055
-0.227767
-0.243528
-0.0371791
-0.0668431
-0.0949772
-0.122909
-0.149254
-0.176601
-0.201107
-0.224694
-0.245339
-0.262422
-0.0389484
-0.0719738
-0.104041
-0.13502
-0.163289
-0.191828
-0.217168
-0.242117
-0.263671
-0.282836
-0.0426845
-0.0784326
-0.113738
-0.147346
-0.177874
-0.207889
-0.234404
-0.260938
-0.283671
-0.305005
-0.0481884
-0.0864059
-0.124576
-0.160493
-0.193679
-0.225486
-0.253709
-0.281856
-0.305993
-0.329422
-0.0550935
-0.0960305
-0.136983
-0.17534
-0.211351
-0.245166
-0.275536
-0.305246
-0.330891
-0.356184
-0.0631782
-0.107425
-0.151419
-0.192333
-0.231452
-0.267216
-0.300059
-0.331149
-0.358309
-0.385178
-0.0726471
-0.120844
-0.168327
-0.212088
-0.254319
-0.292219
-0.327511
-0.359881
-0.38873
-0.416717
-0.0842293
-0.136868
-0.188112
-0.235297
-0.280496
-0.320823
-0.358479
-0.392068
-0.422687
-0.451434
-0.0986745
-0.156234
-0.211393
-0.26254
-0.310635
-0.353678
-0.393493
-0.428379
-0.460584
-0.489749
-0.116821
-0.179713
-0.239093
-0.29463
-0.345612
-0.391637
-0.433221
-0.469657
-0.502851
-0.53231
-0.139637
-0.20817
-0.272489
-0.332548
-0.3868
-0.435735
-0.478943
-0.516802
-0.550421
-0.579974
-0.168371
-0.243103
-0.313099
-0.377756
-0.43572
-0.48734
-0.532166
-0.570971
-0.604514
-0.633669
-0.204693
-0.28638
-0.362912
-0.432068
-0.493834
-0.547608
-0.593815
-0.632833
-0.665639
-0.693617
-0.251044
-0.340882
-0.425021
-0.499479
-0.564525
-0.619046
-0.665819
-0.703519
-0.733946
-0.759079
-0.309551
-0.408523
-0.500644
-0.583408
-0.654795
-0.712277
-0.755621
-0.787017
-0.809697
-0.827966
-0.382657
-0.489549
-0.586807
-0.674737
-0.749938
-0.811772
-0.854316
-0.8787
-0.886358
-0.887327
-0.505618
-0.628587
-0.738808
-0.831188
-0.90228
-0.951391
-0.977632
-0.982028
-0.965702
-0.936634
0.0790114
0.0557825
0.0305469
-0.0012017
0.0987967
0.075567
0.0492658
0.02183
-0.00870587
0.143168
0.123306
0.100631
0.0757541
0.047668
0.0192118
-0.00927395
0.194246
0.183469
0.168929
0.150943
0.129685
0.105414
0.0792923
0.0502972
0.0207415
-0.0080125
0.206653
0.195322
0.179886
0.160805
0.138351
0.112549
0.0850201
0.0550449
0.0235994
-0.0072461
0.220514
0.208674
0.192405
0.172203
0.148482
0.12102
0.0916265
0.0600465
0.0261265
-0.00781268
0.235809
0.223351
0.206137
0.184616
0.15937
0.130019
0.0982098
0.0644248
0.0275382
-0.00978077
0.252489
0.239252
0.220888
0.19778
0.170662
0.139134
0.104417
0.06787
0.0278914
-0.012942
0.270491
0.256336
0.236605
0.211626
0.182273
0.148276
0.110163
0.0704288
0.0271797
-0.0171971
0.289764
0.274605
0.253297
0.226154
0.194191
0.15746
0.115693
0.0720587
0.0253203
-0.0229125
0.310284
0.294014
0.270944
0.24136
0.206339
0.166531
0.121066
0.0727851
0.0221081
-0.0305377
0.331992
0.314486
0.289451
0.257162
0.218688
0.175086
0.12595
0.0724885
0.0172681
-0.0405327
0.354821
0.335862
0.308665
0.273347
0.23108
0.182862
0.12954
0.0707168
0.0101087
-0.0534271
0.378617
0.357913
0.328302
0.289641
0.243071
0.189686
0.131029
0.066606
-0.000348421
-0.0700048
0.403066
0.380335
0.347792
0.305587
0.253992
0.194952
0.129699
0.0590293
-0.0152597
-0.0916043
0.427633
0.402674
0.366501
0.320144
0.263138
0.197616
0.12477
0.0466525
-0.035877
-0.119968
0.451308
0.423952
0.383566
0.331881
0.268836
0.19586
0.114744
0.0273954
-0.0640478
-0.15744
0.472609
0.44282
0.397786
0.339598
0.269282
0.187611
0.0973263
-0.000805336
-0.102302
-0.20632
0.48886
0.45611
0.406174
0.340462
0.260789
0.168803
0.066955
-0.04273
-0.155716
-0.27068
0.498318
0.462309
0.40789
0.33354
0.242255
0.136138
0.0170721
-0.10899
-0.241939
-0.374763
0.0292824
0.0633769
0.0428362
0.01579
0.00940629
-0.0025401
-0.0103069
-0.0162807
-0.0210222
-0.0246753
-0.0272854
-0.0288862
-0.02959
-0.0295063
-0.0287161
-0.027335
-0.0255018
-0.0233572
-0.0210241
-0.0185469
-0.0159355
-0.0132327
-0.0105086
-0.00783602
-0.00528023
-0.0028886
-0.000691874
0.00129379
0.00305977
0.00457953
0.0058141
0.00676205
0.00759477
0.00839004
-0.0110212
-0.0190687
-0.0250033
-0.0298587
-0.0337386
-0.0365565
-0.0383094
-0.039048
-0.0388836
-0.0379229
-0.0362424
-0.0339797
-0.031281
-0.0282959
-0.0251858
-0.0220078
-0.0187677
-0.015522
-0.0123366
-0.00927599
-0.00639601
-0.00373345
-0.00131286
0.00085374
0.00276672
0.0044091
0.00573038
0.00671039
0.00747556
0.00817189
-0.0385851
-0.0402861
-0.0437126
-0.0467645
-0.0493492
-0.0510945
-0.0519158
-0.051753
-0.0506566
-0.0487321
-0.0460488
-0.0427605
-0.0390221
-0.0349683
-0.030797
-0.0266382
-0.022534
-0.0185506
-0.0147433
-0.0111616
-0.00784661
-0.00482075
-0.0021003
0.000307982
0.00241451
0.00421656
0.00565969
0.00669713
0.00740507
0.00795451
-0.0649254
-0.066486
-0.0675157
-0.0683367
-0.0688533
-0.0686354
-0.0676634
-0.0658952
-0.0633479
-0.0600737
-0.0561238
-0.0516605
-0.0468245
-0.0417038
-0.0364642
-0.0312961
-0.0263094
-0.0215803
-0.0171519
-0.0130551
-0.00931254
-0.00593078
-0.00291555
-0.000267702
0.00203028
0.00399121
0.0055678
0.00668392
0.00736153
0.00777344
-0.0814123
-0.085412
-0.0860661
-0.0852888
-0.0838805
-0.0816364
-0.0786003
-0.0748487
-0.0705823
-0.0658931
-0.0608152
-0.0554771
-0.0499829
-0.0443764
-0.038726
-0.0331702
-0.02784
-0.0228227
-0.0181596
-0.0138742
-0.00997732
-0.00646593
-0.00333817
-0.000591712
0.00178988
0.00382704
0.00548557
0.00666788
0.00734007
0.00765379
-0.0969543
-0.0984479
-0.0977
-0.0965619
-0.0938005
-0.0898101
-0.0850617
-0.0797331
-0.0740387
-0.068081
-0.0619732
-0.05588
-0.0498931
-0.0440411
-0.0383272
-0.032787
-0.0274965
-0.0225253
-0.0179141
-0.0136877
-0.00985264
-0.00640103
-0.00332429
-0.000615568
0.00173887
0.00376107
0.00543255
0.00665149
0.00733591
0.00759492
-0.115854
-0.114315
-0.110224
-0.106556
-0.101723
-0.09619
-0.0900376
-0.0834057
-0.0765539
-0.0696087
-0.0626895
-0.055936
-0.0494446
-0.0432703
-0.0374187
-0.0318739
-0.0266418
-0.0217491
-0.0172255
-0.0130961
-0.00936567
-0.00602327
-0.0030534
-0.000441151
0.00182905
0.00378046
0.00541115
0.00663487
0.00734124
0.00758502
-0.136082
-0.131476
-0.124092
-0.117912
-0.110629
-0.103243
-0.0956307
-0.0878013
-0.0798921
-0.0719918
-0.0642543
-0.0568357
-0.0498123
-0.0432316
-0.0371075
-0.0314124
-0.0261115
-0.0211951
-0.0166759
-0.0125736
-0.00888984
-0.0056125
-0.00272163
-0.000194487
0.00198976
0.00385684
0.00541997
0.00662251
0.00735141
0.00760881
-0.154194
-0.147797
-0.138195
-0.129288
-0.119309
-0.109826
-0.100455
-0.0913054
-0.0824538
-0.0738831
-0.0656596
-0.0578489
-0.0504876
-0.0436128
-0.0372442
-0.0313584
-0.0259204
-0.0209143
-0.0163424
-0.0122144
-0.00852518
-0.005263
-0.00240739
6.80258e-05
0.00218782
0.00397954
0.00546735
0.00662824
0.00736905
0.0076535
-0.170048
-0.16081
-0.149317
-0.138832
-0.127102
-0.115916
-0.105123
-0.0948019
-0.0849102
-0.0754964
-0.0666676
-0.0584538
-0.0508188
-0.0437432
-0.0372147
-0.0311908
-0.0256478
-0.0205787
-0.0159785
-0.0118413
-0.00815262
-0.0049016
-0.0020694
0.00036884
0.0024369
0.00416114
0.00557085
0.00667174
0.0074032
0.00771152
-0.184679
-0.172521
-0.158543
-0.145313
-0.131629
-0.118939
-0.106938
-0.0956924
-0.0851663
-0.0753605
-0.0662863
-0.0579161
-0.0501696
-0.0430279
-0.0364602
-0.0304075
-0.0248739
-0.0198501
-0.0153132
-0.0112402
-0.00760938
-0.00441145
-0.00162928
0.000756531
0.00276481
0.00441754
0.00574354
0.00676755
0.00746303
0.00777961
-0.195733
-0.180757
-0.165178
-0.150036
-0.134988
-0.12115
-0.108219
-0.0961145
-0.0848602
-0.0745559
-0.0651605
-0.0565769
-0.048713
-0.0415401
-0.0349788
-0.0289751
-0.0235586
-0.0186793
-0.0142906
-0.0103549
-0.00684526
-0.00375278
-0.00106052
0.00124382
0.00317301
0.00474327
0.00597932
0.00691481
0.00755119
0.00785635
)
;

boundaryField
{
    outlet
    {
        type            fixedValue;
        value           nonuniform 0();
    }
    upperWall
    {
        type            symmetryPlane;
    }
    lowerWall
    {
        type            symmetryPlane;
    }
    inlet
    {
        type            zeroGradient;
    }
    cylinder
    {
        type            zeroGradient;
    }
    frontAndBack
    {
        type            empty;
    }
    procBoundary1to0
    {
        type            processor;
        value           nonuniform List<scalar> 
45
(
0.0997698
0.0997698
0.0828972
0.137624
0.119573
0.119573
0.183201
0.173229
0.15985
0.15985
0.0368374
0.0669674
0.0496026
0.0496026
0.0828972
0.0228702
0.0111153
0.00226491
-0.00460212
-0.0103572
-0.0149787
-0.018404
-0.0207274
-0.0221438
-0.0227904
-0.0227343
-0.0220758
-0.0209407
-0.0194433
-0.0176798
-0.0157139
-0.0135743
-0.0112928
-0.00893652
-0.00657881
-0.0042881
-0.00211792
-0.000104166
0.00173281
0.00337644
0.00479378
0.00596077
0.00688848
0.00778013
0.00859661
)
;
    }
    procBoundary1to2
    {
        type            processor;
        value           nonuniform List<scalar> 
63
(
-0.654062
-0.752451
-0.654062
-0.606957
-0.52738
-0.52738
-0.481896
-0.419478
-0.419478
-0.380482
-0.343917
-0.308031
-0.308031
-0.278273
-0.250946
-0.219672
-0.77932
-0.77932
-0.881131
-0.929941
-0.949083
-0.938889
-0.938889
-0.934265
-0.934265
-0.905225
-0.905225
-0.876315
-0.876315
-0.836853
-0.836853
-0.752451
-0.219672
-0.188858
-0.165574
-0.147689
-0.129834
-0.112965
-0.0985864
-0.0860589
-0.0742813
-0.0634709
-0.0634709
-0.0527373
-0.0456754
-0.037502
-0.0299974
-0.0250535
-0.0196717
-0.0148359
-0.0109321
-0.00728683
-0.00420988
-0.00155932
0.000753886
0.00269846
0.00432762
0.00566783
0.00672751
0.00751773
0.00805531
0.00836816
0.00850088
)
;
    }
    procBoundary1to5
    {
        type            processor;
        value           nonuniform List<scalar> 
20
(
-0.690329
-0.687105
-0.692132
0.201039
0.213585
0.227602
0.243176
0.260254
0.278707
0.298417
0.319342
0.341477
0.364798
0.389193
0.414313
0.439627
0.46415
0.486544
0.504449
0.515946
)
;
    }
}


// ************************************************************************* //
