/*--------------------------------*- C++ -*----------------------------------*\
| =========                 |                                                 |
| \\      /  F ield         | OpenFOAM: The Open Source CFD Toolbox           |
|  \\    /   O peration     | Version:                                        |
|   \\  /    A nd           | Website:  www.openfoam.com                      |
|    \\/     M anipulation  |                                                 |
\*---------------------------------------------------------------------------*/
FoamFile
{
    version     2.0;
    format      ascii;
    class       volScalarField;
    location    "72";
    object      p;
}
// * * * * * * * * * * * * * * * * * * * * * * * * * * * * * * * * * * * * * //

dimensions      [0 2 -2 0 0 0 0];


internalField   nonuniform List<scalar> 
1150
(
0.186457
0.196078
0.206309
0.185782
0.194653
0.204041
0.182569
0.190171
0.198353
0.176554
0.182487
0.167781
0.171659
0.156491
0.0576735
0.052825
0.0557181
0.0557119
0.0573885
0.0573542
0.0587809
0.0591553
0.0608584
0.0619543
0.0633652
0.0654097
0.0679317
0.0699508
0.0726302
0.0758281
0.0793888
0.0831667
0.0875848
0.0924637
0.0978753
0.103843
0.110568
0.117853
0.125762
0.134321
0.14362
0.15358
0.164269
0.175694
0.0576712
0.052894
0.0557948
0.0558363
0.0572803
0.0575155
0.0590484
0.0589674
0.0610453
0.0623644
0.0631809
0.065492
0.0684635
0.0700921
0.0727838
0.076137
0.0798026
0.0834935
0.0879312
0.0928359
0.0982795
0.104215
0.110904
0.118113
0.125999
0.134484
0.143748
0.153631
0.164252
0.175515
0.0575989
0.053017
0.0558471
0.0559537
0.0571496
0.057684
0.0592763
0.0588139
0.0612569
0.0626743
0.0630151
0.0656336
0.0689244
0.0701946
0.0729978
0.076418
0.0801145
0.0837465
0.0882054
0.0930446
0.0984734
0.104309
0.11089
0.117933
0.125668
0.13393
0.142952
0.152516
0.162742
0.173404
0.0574618
0.0531891
0.0558805
0.0560595
0.0570061
0.0578562
0.0594533
0.0586576
0.0615254
0.0628435
0.062875
0.0658473
0.0692178
0.0702917
0.0732646
0.0765935
0.0803482
0.0838976
0.0883831
0.0930852
0.0984277
0.104101
0.110489
0.117241
0.124657
0.132501
0.141042
0.149981
0.159482
0.169068
0.0572596
0.0534094
0.0559112
0.0561569
0.0568545
0.0580453
0.0595498
0.0585413
0.0618027
0.0629049
0.0627433
0.0661484
0.0693807
0.0703678
0.0735682
0.0766656
0.0804211
0.0839262
0.0883778
0.0928748
0.0980678
0.1035
0.109603
0.11594
0.122907
0.13014
0.137996
0.146003
0.1544
0.162487
0.0570044
0.0536626
0.0559475
0.0562388
0.056716
0.0582332
0.0595612
0.0584297
0.0621705
0.0628282
0.0627083
0.0664674
0.0694053
0.070527
0.0738639
0.0766618
0.0805462
0.0838699
0.0883716
0.0925224
0.0976276
0.102669
0.108458
0.114201
0.120575
0.126952
0.133831
0.140673
0.147593
0.153764
0.0566997
0.0539459
0.0559712
0.056314
0.0565859
0.058442
0.0594635
0.0584088
0.0624538
0.0626644
0.0627094
0.0668235
0.0692145
0.0707192
0.0740057
0.0765362
0.0804163
0.0836574
0.0880144
0.0919055
0.0966731
0.10146
0.106659
0.11191
0.117383
0.122903
0.128483
0.133655
0.138759
0.142322
0.0563633
0.0542451
0.0560133
0.0563646
0.0564969
0.0586324
0.0592817
0.0584145
0.0627634
0.0624368
0.0628557
0.0670695
0.0691282
0.0710327
0.0741663
0.076474
0.0805757
0.0834005
0.0879312
0.0911238
0.096092
0.0999477
0.105008
0.109029
0.113881
0.117726
0.12212
0.125251
0.128237
0.0560078
0.0545426
0.0560074
0.0564046
0.0564281
0.0588033
0.0590474
0.0584631
0.0628909
0.0622216
0.0630629
0.0671884
0.0687996
0.0712926
0.0738033
0.0763057
0.0800503
0.0829254
0.0871269
0.089963
0.094478
0.0980643
0.102204
0.105684
0.109158
0.112116
0.114097
0.115346
0.11573
0.0556692
0.0548147
0.055984
0.0564189
0.0564081
0.0589547
0.0587906
0.0585928
0.0629628
0.0620762
0.0633816
0.0673343
0.0688595
0.0716803
0.0738462
0.0765402
0.0802953
0.0827731
0.0870513
0.0890741
0.0940649
0.0961767
0.100359
0.101957
0.104769
0.105111
0.105811
0.103591
0.0553534
0.0550444
0.0559549
0.0564407
0.056349
0.0590275
0.0585656
0.0585832
0.062666
0.0619077
0.0635052
0.0671063
0.0684653
0.0715114
0.0729287
0.0761576
0.0790917
0.0818431
0.0853117
0.0867741
0.0916427
0.0926124
0.0961651
0.0966672
0.0985611
0.0980952
0.0966538
0.0931319
0.0550921
0.0552577
0.0559065
0.0564649
0.0562618
0.059062
0.0583984
0.0586477
0.0621991
0.0618413
0.0633355
0.066783
0.0678979
0.0711071
0.0719388
0.0755001
0.0774528
0.0806961
0.0828082
0.0846708
0.0883543
0.0890379
0.0914313
0.0914242
0.0920627
0.0906166
0.0871527
0.0823836
0.0549136
0.0554754
0.0558566
0.0564945
0.0561857
0.0590719
0.058282
0.0587312
0.0618803
0.061806
0.0630193
0.0664824
0.0672527
0.0705691
0.0710676
0.0743866
0.0760454
0.0791452
0.0804669
0.0824755
0.0848776
0.0854595
0.0867255
0.0863104
0.0854755
0.0832689
0.0789581
0.0739726
0.0547873
0.0557079
0.0558322
0.0565218
0.0561505
0.058993
0.0581693
0.0588577
0.0616261
0.06171
0.062777
0.0660067
0.0666257
0.0698002
0.0702201
0.0729038
0.0747763
0.0771698
0.0781198
0.0796644
0.0815092
0.0816897
0.0819824
0.0810867
0.0792995
0.0765875
0.0721297
0.0671317
0.0546899
0.0559169
0.0558662
0.0565308
0.0561576
0.0588084
0.0580992
0.0589465
0.0613856
0.0615254
0.0625892
0.0653693
0.0660614
0.0686714
0.0694324
0.0712714
0.0732751
0.0751667
0.0756047
0.0767114
0.0780718
0.0777405
0.0771286
0.0759955
0.0738211
0.070576
0.0661492
0.0611501
0.054611
0.0560563
0.0559468
0.0564971
0.0562224
0.0585319
0.0580607
0.0589374
0.0611207
0.0612385
0.0623365
0.0646911
0.0655084
0.0673295
0.0686238
0.0697425
0.071368
0.0731655
0.0731008
0.0736618
0.0744174
0.0737965
0.0725441
0.071146
0.0688316
0.0652944
0.0608697
0.0559411
0.0545578
0.0560837
0.0560543
0.0564271
0.0563298
0.0581701
0.058023
0.0588425
0.0607695
0.0609135
0.0619866
0.0639406
0.0649427
0.0659592
0.0675186
0.0683762
0.0693089
0.0709605
0.070576
0.0705898
0.0707925
0.0700781
0.0683204
0.0664526
0.0642204
0.0607353
0.0563527
0.0514478
0.0545285
0.055992
0.0561511
0.0563458
0.0564312
0.0577869
0.0578785
0.0587052
0.0602509
0.0605874
0.0615608
0.063027
0.0643351
0.0646963
0.0660593
0.0670623
0.0673014
0.068453
0.0680152
0.0676367
0.0672896
0.0664542
0.0644405
0.0621699
0.0599522
0.0567481
0.0525258
0.0476811
0.0545159
0.0558225
0.0561845
0.056302
0.0564959
0.0574272
0.0576251
0.0585463
0.0596441
0.0602107
0.0611354
0.0620026
0.0635419
0.0636062
0.0643933
0.0655178
0.0653851
0.0658751
0.0654123
0.0647294
0.0639199
0.062982
0.0609696
0.058419
0.0560683
0.0531615
0.0493165
0.0447249
0.0545045
0.0556334
0.0561271
0.0562329
0.0565146
0.0570982
0.0573277
0.058371
0.0589843
0.0596937
0.0607237
0.0609655
0.0624609
0.0625927
0.0627104
0.0636531
0.0634886
0.0634231
0.0627846
0.0619129
0.0607996
0.0597396
0.0578087
0.0552024
0.0526975
0.04999
0.0466287
0.0424356
0.0544784
0.055451
0.0559891
0.0561332
0.0564794
0.0567803
0.0570035
0.0581637
0.0583232
0.0590145
0.0602478
0.0600247
0.0611409
0.0614695
0.0611823
0.0616537
0.061492
0.061108
0.0602746
0.059284
0.0579602
0.0567451
0.0549479
0.0524554
0.0498632
0.047259
0.0443112
0.0406304
0.0544282
0.0552831
0.0557974
0.0559854
0.0563827
0.0564658
0.0566462
0.0578967
0.0577062
0.0581947
0.0596355
0.059213
0.0596923
0.0601128
0.0597842
0.059737
0.0594169
0.058888
0.0579383
0.0568744
0.0554219
0.0540597
0.0523586
0.0500529
0.0475458
0.0450421
0.042414
0.0392445
0.0543507
0.0551237
0.0555746
0.0557842
0.0562221
0.0561414
0.0562508
0.0575536
0.057156
0.0572902
0.0588134
0.0584637
0.0582871
0.0585324
0.0583836
0.0580401
0.0574302
0.0567431
0.0557462
0.0546704
0.053186
0.0517001
0.050046
0.0479844
0.0456963
0.0433459
0.0409497
0.0381917
0.0542499
0.0549565
0.0553302
0.0555349
0.0559945
0.0558009
0.0558303
0.057116
0.0566437
0.056379
0.0577781
0.0576693
0.0570301
0.0568895
0.0569034
0.0565075
0.0556312
0.0547154
0.0536637
0.0526471
0.0512562
0.049724
0.0480876
0.0462263
0.0441872
0.0420498
0.039879
0.0374764
0.054132
0.0547644
0.0550618
0.0552569
0.0557136
0.0554403
0.0553721
0.0565707
0.0561429
0.0555263
0.0565993
0.0567218
0.0559123
0.0553568
0.055337
0.0550299
0.0540664
0.0529104
0.051751
0.0507869
0.049556
0.0480866
0.0464844
0.0447634
0.0429627
0.0410853
0.0391703
0.0370817
0.0539963
0.0545452
0.0547677
0.0549449
0.0553873
0.0550681
0.0548861
0.0559258
0.0556019
0.05475
0.0553765
0.0555997
0.0548716
0.054013
0.0537824
0.0535639
0.0526686
0.0513572
0.0500754
0.0490909
0.0480329
0.0467485
0.045245
0.0436321
0.0420081
0.0403654
0.038703
0.0369083
0.0538353
0.054299
0.0544506
0.054598
0.0550216
0.0546864
0.054381
0.0551865
0.0549765
0.0540642
0.0542249
0.0543714
0.0537982
0.0528198
0.0523611
0.0521163
0.0513611
0.0500707
0.0486802
0.0476187
0.0466762
0.0456051
0.0442782
0.0427903
0.0413022
0.0398516
0.0384243
0.0369092
0.0536432
0.0540267
0.054124
0.0542188
0.0545916
0.054287
0.0538945
0.0544015
0.0542492
0.0534045
0.0532051
0.0531613
0.0526735
0.0517297
0.0511036
0.0507497
0.050123
0.048963
0.0475573
0.0464099
0.0454995
0.0446102
0.0435081
0.0421994
0.0408505
0.0395497
0.0383052
0.037025
0.0534226
0.0537285
0.0537847
0.0538127
0.0541001
0.0538525
0.0534268
0.053624
0.053442
0.0527331
0.0523221
0.0520501
0.0515504
0.0506742
0.0499842
0.0495439
0.0489613
0.04797
0.0466712
0.04548
0.0445433
0.0437533
0.0428605
0.0417753
0.0405945
0.0394213
0.0383178
0.0372272
0.0531782
0.0534066
0.0534272
0.0533958
0.0535649
0.0533475
0.0529509
0.052917
0.0526305
0.0520114
0.0515065
0.0510592
0.050509
0.0496968
0.0489877
0.0484721
0.0479083
0.0470728
0.0459423
0.0447829
0.0438137
0.0430581
0.0423219
0.0414558
0.0404668
0.0394395
0.0384612
0.0375196
0.0529138
0.053066
0.0530498
0.0529712
0.0530131
0.0527891
0.052439
0.0522571
0.0518513
0.051268
0.0507407
0.0502003
0.0495944
0.0488105
0.0480835
0.0475381
0.0470065
0.0462784
0.0453154
0.0442647
0.0433072
0.0425499
0.0418929
0.0411981
0.0404073
0.039548
0.0386949
0.0378757
0.0526307
0.0527163
0.0526587
0.0525381
0.0524675
0.0522042
0.0518702
0.0516065
0.0511385
0.0505599
0.0500063
0.0494267
0.0488005
0.0480519
0.0473326
0.0467499
0.0462189
0.0455784
0.0447762
0.0438688
0.0429687
0.0422112
0.0415878
0.0410085
0.040384
0.0396916
0.0389755
0.0382768
0.052331
0.0523633
0.0522608
0.0520975
0.0519369
0.051621
0.0512742
0.0509668
0.0504751
0.0498952
0.0493272
0.0487406
0.0481282
0.0474269
0.0467162
0.0460899
0.045554
0.0449895
0.0443163
0.0435488
0.042745
0.0420213
0.0414175
0.0408975
0.040386
0.0398376
0.0392603
0.0386834
0.052017
0.0520065
0.0518621
0.0516546
0.0514252
0.0510695
0.0506966
0.0503474
0.049852
0.0492937
0.0487295
0.0481401
0.0475433
0.0468937
0.046223
0.0455884
0.0450339
0.0445011
0.0439212
0.0432807
0.0425923
0.0419328
0.0413562
0.0408699
0.0404307
0.0399901
0.0395326
0.0390696
0.0516887
0.0516467
0.0514699
0.0512224
0.0509422
0.0505631
0.0501627
0.0497755
0.0492919
0.0487599
0.0482046
0.0476224
0.0470451
0.0464469
0.0458311
0.045215
0.0446471
0.0441255
0.0436064
0.0430609
0.042477
0.0418966
0.0413658
0.0409095
0.0405135
0.0401446
0.0397824
0.0394244
0.051359
0.0512913
0.051093
0.0508177
0.0505028
0.050109
0.0496895
0.0492751
0.0487982
0.0482883
0.0477555
0.0471955
0.046641
0.0460846
0.0455216
0.0449474
0.0443929
0.0438787
0.0433902
0.0429038
0.0423975
0.0418868
0.0414038
0.0409766
0.0406102
0.0402887
0.0399955
0.0397225
0.0510398
0.0509545
0.0507459
0.0504543
0.0501148
0.0497134
0.0492833
0.0488472
0.0483712
0.0478797
0.0473778
0.0468549
0.0463345
0.0458224
0.0453147
0.0447947
0.0442705
0.0437644
0.043285
0.0428245
0.0423641
0.0419035
0.041459
0.0410538
0.0407019
0.040402
0.0401466
0.0399283
0.0507493
0.0506552
0.0504429
0.0501434
0.0497889
0.0493828
0.0489441
0.0484919
0.0480153
0.0475338
0.0470551
0.0465721
0.0460985
0.0456439
0.0452052
0.0447609
0.0443003
0.0438329
0.0433735
0.0429258
0.0424805
0.0420333
0.0415931
0.0411786
0.0408074
0.0404878
0.0402213
0.0400053
0.0505212
0.0504179
0.0502033
0.0499016
0.0495406
0.0491306
0.0486847
0.0482236
0.047749
0.047275
0.046816
0.0463656
0.0459202
0.0454849
0.0450631
0.0446485
0.0442351
0.0438291
0.0434436
0.0430871
0.0427552
0.0424381
0.0421293
0.0418283
0.0415371
0.0412544
0.0409761
0.0406961
0.0503879
0.0502739
0.0500556
0.0497538
0.0493952
0.0489959
0.0485627
0.048112
0.047647
0.0471768
0.0467201
0.0462772
0.0458406
0.0454138
0.0450038
0.0446106
0.0442275
0.0438533
0.0434954
0.0431614
0.0428518
0.0425601
0.0422795
0.0420056
0.0417373
0.0414718
0.0412033
0.0409218
)
;

boundaryField
{
    outlet
    {
        type            fixedValue;
        value           nonuniform 0();
    }
    upperWall
    {
        type            symmetryPlane;
    }
    lowerWall
    {
        type            symmetryPlane;
    }
    inlet
    {
        type            zeroGradient;
    }
    cylinder
    {
        type            zeroGradient;
    }
    frontAndBack
    {
        type            empty;
    }
    procBoundary4to0
    {
        type            processor;
        value           nonuniform List<scalar> 
33
(
0.184895
0.194719
0.205234
0.0576086
0.052809
0.05561
0.0555864
0.057471
0.0571872
0.0584975
0.0593292
0.0606559
0.0614822
0.0635201
0.0653084
0.0673697
0.0697194
0.072417
0.0754117
0.0788415
0.0826592
0.0870433
0.0918252
0.0971396
0.103038
0.109686
0.116912
0.124701
0.133155
0.142345
0.152176
0.16273
0.174063
)
;
    }
    procBoundary4to5
    {
        type            processor;
        value           nonuniform List<scalar> 
45
(
0.217666
0.214699
0.208019
0.18929
0.18929
0.176922
0.158132
0.158132
0.142352
0.142352
0.129132
0.129132
0.11405
0.101634
0.101634
0.0852194
0.0738372
0.0663436
0.0601222
0.0546892
0.0500147
0.0459912
0.0426137
0.0399269
0.0378777
0.0364436
0.0355145
0.0349342
0.0346709
0.0346657
0.0348432
0.0351683
0.0355764
0.0360362
0.0365325
0.0370501
0.0375883
0.0381164
0.0386143
0.0390769
0.0394704
0.039745
0.0398388
0.0404099
0.0406157
)
;
    }
}


// ************************************************************************* //
