/*--------------------------------*- C++ -*----------------------------------*\
| =========                 |                                                 |
| \\      /  F ield         | OpenFOAM: The Open Source CFD Toolbox           |
|  \\    /   O peration     | Version:                                        |
|   \\  /    A nd           | Website:  www.openfoam.com                      |
|    \\/     M anipulation  |                                                 |
\*---------------------------------------------------------------------------*/
FoamFile
{
    version     2.0;
    format      ascii;
    class       volScalarField;
    location    "0.1";
    object      p;
}
// * * * * * * * * * * * * * * * * * * * * * * * * * * * * * * * * * * * * * //

dimensions      [0 2 -2 0 0 0 0];


internalField   nonuniform List<scalar> 
400
(
1.56701
0.997764
0.788547
0.729724
0.696594
0.671226
0.651159
0.634244
0.619243
0.605561
0.59286
0.580918
0.569595
0.558794
0.548447
0.538496
0.528895
0.519596
0.510557
0.501735
1.34742
0.981916
0.809863
0.747923
0.709139
0.679713
0.657225
0.638799
0.622762
0.608335
0.595077
0.582705
0.57104
0.559962
0.549387
0.539249
0.529491
0.520063
0.510918
0.50201
1.18082
0.958447
0.822514
0.759971
0.718422
0.686718
0.662533
0.642909
0.625997
0.610914
0.597151
0.584382
0.572398
0.561059
0.550268
0.539951
0.530045
0.520496
0.511251
0.502263
1.07275
0.933935
0.827103
0.766918
0.725024
0.692514
0.667281
0.646745
0.629104
0.613438
0.599209
0.586063
0.573768
0.562172
0.551168
0.540673
0.530618
0.520946
0.511601
0.502531
0.99658
0.908862
0.826032
0.770939
0.730399
0.698005
0.672148
0.650863
0.632548
0.616304
0.601589
0.588037
0.575401
0.563519
0.552272
0.541571
0.531344
0.521527
0.512061
0.502891
0.94032
0.884446
0.821009
0.772423
0.734442
0.702986
0.677023
0.655244
0.636368
0.619584
0.60438
0.590399
0.577392
0.565189
0.553665
0.542725
0.532293
0.522299
0.512683
0.503387
0.898431
0.862072
0.813598
0.771672
0.736893
0.707019
0.6815
0.659586
0.640354
0.623138
0.607495
0.5931
0.579716
0.567175
0.555351
0.544146
0.53348
0.523283
0.51349
0.504042
0.866786
0.842328
0.805059
0.769268
0.737865
0.709933
0.685285
0.663585
0.644239
0.626751
0.610765
0.596009
0.582274
0.569403
0.557275
0.545794
0.534879
0.524458
0.514468
0.504848
0.842335
0.825245
0.796265
0.765825
0.737674
0.711796
0.68827
0.667048
0.647806
0.63021
0.614
0.598963
0.584928
0.571758
0.559342
0.547591
0.536426
0.525777
0.51558
0.505775
0.823048
0.810632
0.787763
0.76184
0.736662
0.712784
0.690481
0.669902
0.650927
0.633364
0.617042
0.601812
0.587541
0.574117
0.561445
0.549444
0.538042
0.527171
0.516769
0.506779
0.807597
0.79823
0.779868
0.757675
0.735128
0.713105
0.692024
0.672164
0.653557
0.63613
0.619791
0.604445
0.590002
0.576374
0.563486
0.551266
0.539649
0.528572
0.517977
0.507808
0.795095
0.78777
0.772741
0.753582
0.733309
0.712954
0.693031
0.673902
0.655714
0.638487
0.622196
0.606799
0.592239
0.578456
0.565392
0.552986
0.541181
0.529921
0.51915
0.508817
0.784929
0.779005
0.76645
0.749731
0.731389
0.712498
0.69363
0.675203
0.657445
0.64045
0.62425
0.608846
0.594214
0.580318
0.567114
0.554555
0.542592
0.531173
0.520247
0.509768
0.77667
0.771727
0.761014
0.746236
0.729504
0.711872
0.693938
0.676155
0.65881
0.642054
0.625968
0.610587
0.595915
0.581938
0.568626
0.555944
0.543849
0.532297
0.521239
0.510632
0.770009
0.765765
0.756422
0.743168
0.727755
0.711179
0.694048
0.676835
0.659867
0.643341
0.627374
0.612032
0.597343
0.58331
0.569917
0.557137
0.544937
0.533274
0.522105
0.511391
0.764727
0.760982
0.75265
0.740572
0.726213
0.710499
0.694037
0.677309
0.66067
0.64435
0.628497
0.6132
0.598508
0.584438
0.570985
0.55813
0.545845
0.534093
0.522835
0.512033
0.760664
0.757272
0.749673
0.738476
0.72493
0.709893
0.693964
0.67763
0.661262
0.645116
0.629362
0.61411
0.599422
0.585328
0.571831
0.55892
0.546571
0.534751
0.523423
0.512552
0.757705
0.754555
0.747465
0.736896
0.72394
0.709404
0.693874
0.677837
0.661676
0.645666
0.629992
0.614777
0.600097
0.585988
0.572461
0.55951
0.547114
0.535244
0.523865
0.512942
0.755774
0.752774
0.746005
0.735839
0.723269
0.709063
0.693797
0.677959
0.661939
0.646021
0.630402
0.615215
0.600541
0.586423
0.572878
0.559901
0.547475
0.535573
0.52416
0.513203
0.754819
0.751893
0.745279
0.735309
0.72293
0.708887
0.693753
0.678015
0.662066
0.646195
0.630605
0.615431
0.600761
0.58664
0.573086
0.560096
0.547656
0.535737
0.524308
0.513334
)
;

boundaryField
{
    fixedWalls
    {
        type            zeroGradient;
    }
    inlet
    {
        type            zeroGradient;
    }
    outlet
    {
        type            fixedValue;
        value           nonuniform 0();
    }
    frontAndBack
    {
        type            empty;
    }
    procBoundary0to1
    {
        type            processor;
        value           nonuniform List<scalar> 
20
(
0.493092
0.493297
0.493486
0.493689
0.493967
0.494359
0.494884
0.49554
0.496305
0.497142
0.498009
0.498867
0.49968
0.500425
0.501082
0.501639
0.50209
0.502431
0.502658
0.502772
)
;
    }
    procBoundary0to4
    {
        type            processor;
        value           nonuniform List<scalar> 
20
(
0.754819
0.751893
0.745279
0.735309
0.722929
0.708887
0.693753
0.678015
0.662066
0.646195
0.630605
0.615431
0.600761
0.58664
0.573086
0.560097
0.547656
0.535737
0.524308
0.513334
)
;
    }
}


// ************************************************************************* //
