/*--------------------------------*- C++ -*----------------------------------*\
| =========                 |                                                 |
| \\      /  F ield         | OpenFOAM: The Open Source CFD Toolbox           |
|  \\    /   O peration     | Version:                                        |
|   \\  /    A nd           | Website:  www.openfoam.com                      |
|    \\/     M anipulation  |                                                 |
\*---------------------------------------------------------------------------*/
FoamFile
{
    version     2.0;
    format      ascii;
    class       volVectorField;
    location    "0.1";
    object      U;
}
// * * * * * * * * * * * * * * * * * * * * * * * * * * * * * * * * * * * * * //

dimensions      [0 1 -1 0 0 0 0];


internalField   nonuniform List<vector> 
400
(
(0.631188 0.0956142 0)
(0.480559 0.0650354 0)
(0.330312 0.027245 0)
(0.242815 0.0114514 0)
(0.201871 0.00566636 0)
(0.177865 0.00345579 0)
(0.161057 0.00238329 0)
(0.148722 0.00174191 0)
(0.139381 0.00132515 0)
(0.132096 0.00103683 0)
(0.126303 0.00082607 0)
(0.121639 0.000665942 0)
(0.117855 0.000540536 0)
(0.114777 0.00043974 0)
(0.112274 0.000357049 0)
(0.110247 0.000288307 0)
(0.108618 0.000230669 0)
(0.107322 0.000182375 0)
(0.106305 0.000142043 0)
(0.105518 0.000108668 0)
(0.944134 0.199649 0)
(0.926418 0.171986 0)
(0.788185 0.0957961 0)
(0.652636 0.0524916 0)
(0.563309 0.0312254 0)
(0.502856 0.0205366 0)
(0.458584 0.0145633 0)
(0.425193 0.010829 0)
(0.399445 0.00832259 0)
(0.379152 0.00654804 0)
(0.362902 0.00523357 0)
(0.349759 0.00422488 0)
(0.339068 0.00342874 0)
(0.330354 0.00278589 0)
(0.323262 0.00225778 0)
(0.317515 0.00181912 0)
(0.312894 0.00145276 0)
(0.309215 0.00114686 0)
(0.30632 0.000892683 0)
(0.304076 0.000683287 0)
(1.01406 0.179618 0)
(1.08775 0.209446 0)
(1.03628 0.152673 0)
(0.935976 0.105194 0)
(0.846328 0.073051 0)
(0.774252 0.0521243 0)
(0.716329 0.0385078 0)
(0.670042 0.0293223 0)
(0.632979 0.0228667 0)
(0.603026 0.0181588 0)
(0.578611 0.0146066 0)
(0.558598 0.0118457 0)
(0.542143 0.00964621 0)
(0.528608 0.00785866 0)
(0.517501 0.00638391 0)
(0.508432 0.00515569 0)
(0.501079 0.00412825 0)
(0.495174 0.00326945 0)
(0.490486 0.00255506 0)
(0.486813 0.00196591 0)
(1.01855 0.129096 0)
(1.11885 0.196983 0)
(1.13612 0.175684 0)
(1.09254 0.141775 0)
(1.03264 0.110552 0)
(0.97296 0.0853007 0)
(0.918252 0.0662898 0)
(0.870518 0.052192 0)
(0.829912 0.041631 0)
(0.795666 0.0335844 0)
(0.766864 0.0273287 0)
(0.742678 0.022363 0)
(0.722399 0.0183456 0)
(0.705438 0.0150426 0)
(0.69131 0.0122934 0)
(0.679607 0.00998729 0)
(0.669987 0.00804652 0)
(0.66215 0.00641513 0)
(0.655835 0.00505059 0)
(0.650808 0.00391892 0)
(1.01166 0.0884399 0)
(1.10136 0.165602 0)
(1.1529 0.171545 0)
(1.15525 0.155394 0)
(1.13165 0.132768 0)
(1.09659 0.109934 0)
(1.05731 0.0900306 0)
(1.01844 0.0736697 0)
(0.982391 0.0604592 0)
(0.950035 0.0498226 0)
(0.921521 0.0412113 0)
(0.896687 0.0341678 0)
(0.875237 0.0283391 0)
(0.856841 0.0234627 0)
(0.841171 0.0193473 0)
(0.827923 0.0158553 0)
(0.816816 0.012887 0)
(0.807594 0.0103687 0)
(0.800017 0.0082435 0)
(0.793866 0.00646524 0)
(1.00624 0.061185 0)
(1.07386 0.132461 0)
(1.13359 0.153313 0)
(1.16252 0.151598 0)
(1.1678 0.139358 0)
(1.15781 0.12263 0)
(1.13835 0.105462 0)
(1.1141 0.0897085 0)
(1.08835 0.0759162 0)
(1.06302 0.0641039 0)
(1.03913 0.0540759 0)
(1.01722 0.0455679 0)
(0.997472 0.0383227 0)
(0.979929 0.0321218 0)
(0.964522 0.0267909 0)
(0.951131 0.0221963 0)
(0.939613 0.018237 0)
(0.929815 0.0148356 0)
(0.921573 0.0119306 0)
(0.914726 0.00947145 0)
(1.00337 0.0433735 0)
(1.05065 0.104019 0)
(1.10502 0.130692 0)
(1.14428 0.13813 0)
(1.1669 0.134555 0)
(1.17589 0.124561 0)
(1.1743 0.111829 0)
(1.16543 0.0986091 0)
(1.15218 0.0859907 0)
(1.13666 0.0744519 0)
(1.12029 0.0641411 0)
(1.10401 0.0550303 0)
(1.0884 0.0470143 0)
(1.07382 0.0399683 0)
(1.06045 0.0337748 0)
(1.0484 0.0283342 0)
(1.03768 0.0235663 0)
(1.02827 0.0194071 0)
(1.02013 0.0158029 0)
(1.01319 0.012709 0)
(1.00201 0.0317085 0)
(1.03444 0.0816564 0)
(1.07904 0.108946 0)
(1.11875 0.120997 0)
(1.14884 0.123238 0)
(1.16915 0.118834 0)
(1.18043 0.110623 0)
(1.18431 0.10068 0)
(1.1827 0.0902472 0)
(1.1773 0.0800287 0)
(1.16944 0.0703992 0)
(1.16014 0.0615208 0)
(1.15015 0.0534327 0)
(1.14 0.0461142 0)
(1.13006 0.0395205 0)
(1.1206 0.0336023 0)
(1.11178 0.0283153 0)
(1.10373 0.0236217 0)
(1.0965 0.0194866 0)
(1.09012 0.0158808 0)
(1.00135 0.0239348 0)
(1.02394 0.0646654 0)
(1.05903 0.0901218 0)
(1.09472 0.103769 0)
(1.12595 0.10925 0)
(1.15126 0.108725 0)
(1.17007 0.104216 0)
(1.18272 0.0974051 0)
(1.19014 0.0894327 0)
(1.19339 0.0810401 0)
(1.19343 0.0726932 0)
(1.19111 0.0646609 0)
(1.18712 0.0570812 0)
(1.18204 0.0500149 0)
(1.17629 0.0434816 0)
(1.17023 0.0374816 0)
(1.16412 0.032009 0)
(1.15818 0.0270569 0)
(1.15256 0.0226151 0)
(1.14737 0.0186753 0)
(1.00098 0.0185697 0)
(1.01725 0.0517804 0)
(1.04467 0.0745078 0)
(1.07518 0.0880762 0)
(1.1044 0.0949815 0)
(1.13061 0.096775 0)
(1.15274 0.094887 0)
(1.1704 0.0905993 0)
(1.1838 0.0848627 0)
(1.1934 0.078345 0)
(1.19975 0.0715065 0)
(1.20343 0.0646467 0)
(1.20496 0.0579485 0)
(1.20479 0.0515184 0)
(1.20335 0.0454175 0)
(1.20099 0.0396825 0)
(1.19799 0.034338 0)
(1.19462 0.0294042 0)
(1.19108 0.0248948 0)
(1.18755 0.0208233 0)
(1.00075 0.0147022 0)
(1.01293 0.0418534 0)
(1.03461 0.0616843 0)
(1.06031 0.0743656 0)
(1.08645 0.0816025 0)
(1.11144 0.0845764 0)
(1.1342 0.0843373 0)
(1.15404 0.0818587 0)
(1.17075 0.0779028 0)
(1.18439 0.0730303 0)
(1.19519 0.067647 0)
(1.20343 0.0620344 0)
(1.20942 0.0563785 0)
(1.2135 0.0507983 0)
(1.21597 0.0453719 0)
(1.21712 0.0401533 0)
(1.21724 0.0351852 0)
(1.21657 0.0305058 0)
(1.21534 0.0261461 0)
(1.21373 0.0221382 0)
(1.0006 0.0117913 0)
(1.01007 0.0340251 0)
(1.02757 0.0510759 0)
(1.0493 0.0625257 0)
(1.07235 0.0695023 0)
(1.09534 0.0729307 0)
(1.11732 0.0736203 0)
(1.13755 0.0723293 0)
(1.15565 0.0696703 0)
(1.17148 0.0661039 0)
(1.18501 0.0619706 0)
(1.19634 0.0575128 0)
(1.20559 0.0528959 0)
(1.21296 0.04823 0)
(1.21864 0.0435902 0)
(1.22284 0.0390325 0)
(1.22578 0.034604 0)
(1.22766 0.0303504 0)
(1.22869 0.026312 0)
(1.22906 0.0225327 0)
(1.00049 0.00951213 0)
(1.00811 0.027692 0)
(1.02258 0.0421643 0)
(1.0412 0.0522552 0)
(1.06157 0.0586694 0)
(1.0825 0.0621264 0)
(1.10314 0.0632695 0)
(1.12284 0.0627057 0)
(1.14117 0.0609368 0)
(1.15788 0.0583439 0)
(1.17285 0.055209 0)
(1.18602 0.0517336 0)
(1.19742 0.0480547 0)
(1.20712 0.0442629 0)
(1.21522 0.0404203 0)
(1.22184 0.0365741 0)
(1.22712 0.0327663 0)
(1.23122 0.0290408 0)
(1.23431 0.0254397 0)
(1.23654 0.0220117 0)
(1.00041 0.00766249 0)
(1.00674 0.022435 0)
(1.019 0.0345377 0)
(1.03522 0.0432353 0)
(1.05342 0.0489335 0)
(1.07252 0.0521779 0)
(1.09177 0.0534812 0)
(1.11059 0.0533359 0)
(1.12854 0.0521583 0)
(1.14537 0.0502679 0)
(1.16089 0.0478998 0)
(1.17502 0.0452199 0)
(1.18768 0.0423384 0)
(1.19889 0.0393252 0)
(1.20866 0.036226 0)
(1.21706 0.0330749 0)
(1.22416 0.0299039 0)
(1.23007 0.0267493 0)
(1.23489 0.0236489 0)
(1.23875 0.0206505 0)
(1.00036 0.00611149 0)
(1.00577 0.0179594 0)
(1.0164 0.0278816 0)
(1.0308 0.0351893 0)
(1.0473 0.0400893 0)
(1.0649 0.0429813 0)
(1.08291 0.0442678 0)
(1.10079 0.0443452 0)
(1.11815 0.0435576 0)
(1.13472 0.042173 0)
(1.15031 0.0403883 0)
(1.1648 0.0383401 0)
(1.17811 0.0361163 0)
(1.1902 0.0337694 0)
(1.20105 0.03133 0)
(1.21067 0.0288195 0)
(1.2191 0.0262586 0)
(1.22638 0.0236742 0)
(1.23258 0.0210963 0)
(1.23778 0.018568 0)
(1.00032 0.00477093 0)
(1.00508 0.0140527 0)
(1.01452 0.0219553 0)
(1.02754 0.0278911 0)
(1.04273 0.0319449 0)
(1.05915 0.0343985 0)
(1.07615 0.0355588 0)
(1.09322 0.0357367 0)
(1.10997 0.0352101 0)
(1.12615 0.0341991 0)
(1.14156 0.0328662 0)
(1.1561 0.0313231 0)
(1.16967 0.0296396 0)
(1.18222 0.0278543 0)
(1.19371 0.0259866 0)
(1.20412 0.0240478 0)
(1.21346 0.0220492 0)
(1.22173 0.0200084 0)
(1.22896 0.0179468 0)
(1.23521 0.0159008 0)
(1.00029 0.00357889 0)
(1.00459 0.0105571 0)
(1.01317 0.0165707 0)
(1.02519 0.021157 0)
(1.03939 0.0243342 0)
(1.05492 0.0262927 0)
(1.07115 0.027256 0)
(1.08756 0.0274574 0)
(1.10379 0.0271106 0)
(1.11958 0.0263885 0)
(1.13475 0.0254197 0)
(1.14919 0.0242923 0)
(1.16281 0.0230602 0)
(1.17556 0.0217515 0)
(1.1874 0.0203778 0)
(1.19829 0.018944 0)
(1.20822 0.0174547 0)
(1.21717 0.0159199 0)
(1.22514 0.0143537 0)
(1.23216 0.0127847 0)
(1.00027 0.00248983 0)
(1.00426 0.00735125 0)
(1.01225 0.0115762 0)
(1.02355 0.0148344 0)
(1.03705 0.0171155 0)
(1.05195 0.01854 0)
(1.06761 0.0192588 0)
(1.08355 0.0194339 0)
(1.09939 0.0192164 0)
(1.11486 0.0187308 0)
(1.12981 0.0180707 0)
(1.14411 0.0173001 0)
(1.15769 0.0164579 0)
(1.17051 0.0155633 0)
(1.18251 0.0146233 0)
(1.19367 0.0136389 0)
(1.20396 0.0126113 0)
(1.21335 0.0115454 0)
(1.22182 0.0104491 0)
(1.22937 0.00934374 0)
(1.00026 0.00146839 0)
(1.00405 0.00433759 0)
(1.01166 0.00684458 0)
(1.02251 0.00879196 0)
(1.03557 0.010165 0)
(1.05005 0.0110295 0)
(1.06536 0.0114729 0)
(1.08098 0.0115899 0)
(1.09656 0.0114709 0)
(1.11182 0.0111907 0)
(1.1266 0.0108063 0)
(1.14078 0.0103566 0)
(1.15431 0.00986525 0)
(1.16714 0.00934357 0)
(1.17921 0.00879532 0)
(1.19052 0.00822005 0)
(1.20101 0.00761782 0)
(1.21065 0.00699066 0)
(1.21942 0.00634216 0)
(1.22731 0.00568584 0)
(1.00025 0.00048531 0)
(1.00395 0.00143377 0)
(1.01138 0.00226478 0)
(1.02201 0.00291261 0)
(1.03485 0.00337093 0)
(1.04913 0.00366075 0)
(1.06426 0.00381058 0)
(1.07973 0.00385174 0)
(1.09518 0.00381421 0)
(1.11033 0.00372299 0)
(1.12502 0.00359699 0)
(1.13915 0.00344918 0)
(1.15264 0.00328753 0)
(1.16546 0.00311566 0)
(1.17756 0.0029348 0)
(1.18892 0.00274476 0)
(1.1995 0.00254559 0)
(1.20926 0.0023378 0)
(1.21817 0.00212248 0)
(1.22621 0.00190472 0)
)
;

boundaryField
{
    fixedWalls
    {
        type            noSlip;
    }
    inlet
    {
        type            fixedValue;
        value           uniform (1 0 0);
    }
    outlet
    {
        type            zeroGradient;
    }
    frontAndBack
    {
        type            empty;
    }
    procBoundary0to1
    {
        type            processor;
        value           nonuniform List<vector> 
20
(
(0.104922 8.12778e-05 0)
(0.302366 0.000512488 0)
(0.483979 0.00148476 0)
(0.646862 0.00298962 0)
(0.788936 0.00499199 0)
(0.909111 0.00741066 0)
(1.00734 0.0100811 0)
(1.08458 0.0127712 0)
(1.14268 0.0152217 0)
(1.18415 0.0171928 0)
(1.21191 0.0185021 0)
(1.22893 0.019045 0)
(1.23806 0.0187959 0)
(1.24177 0.0177945 0)
(1.24207 0.0161264 0)
(1.24053 0.0139013 0)
(1.23825 0.0112365 0)
(1.23602 0.00824536 0)
(1.2343 0.00503108 0)
(1.23338 0.00168751 0)
)
;
    }
    procBoundary0to4
    {
        type            processor;
        value           nonuniform List<vector> 
20
(
(1.00025 -0.000485308 0)
(1.00395 -0.00143427 0)
(1.01138 -0.00226534 0)
(1.02201 -0.00291323 0)
(1.03485 -0.00337166 0)
(1.04913 -0.00366148 0)
(1.06426 -0.00381105 0)
(1.07973 -0.00385154 0)
(1.09518 -0.00381291 0)
(1.11033 -0.00372042 0)
(1.12502 -0.00359339 0)
(1.13915 -0.00344522 0)
(1.15264 -0.00328386 0)
(1.16546 -0.00311336 0)
(1.17756 -0.00293469 0)
(1.18892 -0.00274743 0)
(1.1995 -0.00255109 0)
(1.20926 -0.00234606 0)
(1.21817 -0.0021332 0)
(1.22621 -0.00191611 0)
)
;
    }
}


// ************************************************************************* //
