/*--------------------------------*- C++ -*----------------------------------*\
| =========                 |                                                 |
| \\      /  F ield         | OpenFOAM: The Open Source CFD Toolbox           |
|  \\    /   O peration     | Version:                                        |
|   \\  /    A nd           | Website:  www.openfoam.com                      |
|    \\/     M anipulation  |                                                 |
\*---------------------------------------------------------------------------*/
FoamFile
{
    version     2.0;
    format      ascii;
    class       volScalarField;
    location    "79.5";
    object      p;
}
// * * * * * * * * * * * * * * * * * * * * * * * * * * * * * * * * * * * * * //

dimensions      [0 2 -2 0 0 0 0];


internalField   nonuniform List<scalar> 
1153
(
-1.17846
-1.19336
-1.17093
-1.14043
-1.07379
-0.990718
-0.904072
-0.818782
-0.737093
-0.659936
-1.20052
-1.20561
-1.19777
-1.1418
-1.0612
-0.971795
-0.882142
-0.796168
-0.715561
-0.640976
-0.572418
-0.508614
-1.24194
-1.20532
-1.20656
-1.13836
-1.04681
-0.952412
-0.86257
-0.779213
-0.702403
-0.631884
-0.567254
-0.507922
-0.453136
-0.401461
-1.30406
-1.26046
-1.20716
-1.12175
-1.02448
-0.930357
-0.842869
-0.762221
-0.688454
-0.621372
-0.55993
-0.503148
-0.450615
-0.402482
-0.357888
-0.316715
-0.279639
-1.31774
-1.30688
-1.20696
-1.09953
-0.99961
-0.9084
-0.8247
-0.747292
-0.675532
-0.60968
-0.55012
-0.496171
-0.446402
-0.400062
-0.358256
-0.320306
-0.285611
-0.254029
-0.225286
-0.198646
-1.28291
-1.29385
-1.18744
-1.07467
-0.974896
-0.886681
-0.806886
-0.733862
-0.666747
-0.604753
-0.547473
-0.495101
-0.447832
-0.404935
-0.36458
-0.32756
-0.293691
-0.262719
-0.234558
-0.208762
-1.23155
-1.23379
-1.15563
-1.05207
-0.955223
-0.868117
-0.789579
-0.718032
-0.652694
-0.593255
-0.539039
-0.489192
-0.443168
-0.400934
-0.362999
-0.327733
-0.295235
-0.265594
-0.238359
-0.212684
-1.22392
-1.1977
-1.12802
-1.02957
-0.935081
-0.848733
-0.770979
-0.700492
-0.635987
-0.576931
-0.523304
-0.475031
-0.431629
-0.392067
-0.355231
-0.322
-0.291804
-0.264165
-0.239043
-0.215348
-1.2539
-1.1899
-1.10546
-1.00619
-0.911865
-0.825325
-0.747832
-0.678803
-0.616951
-0.560995
-0.509784
-0.462949
-0.42052
-0.382486
-0.348387
-0.316506
-0.287118
-0.260508
-0.236058
-0.213142
-1.28853
-1.1879
-1.08529
-0.980318
-0.883893
-0.79649
-0.718665
-0.649846
-0.588718
-0.534328
-0.485679
-0.441607
-0.401449
-0.364606
-0.331123
-0.30153
-0.274742
-0.250088
-0.227589
-0.206408
-1.22652
-1.21124
-1.23458
-1.23678
-1.22655
-1.24997
-1.28292
-1.2172
-1.20886
-1.22984
-1.26178
-1.17941
-1.17023
-1.18477
-1.21091
-1.1418
-1.1285
-1.13077
-1.14503
-1.11788
-1.09946
-1.08922
-1.09118
-1.1053
-1.10914
-1.09073
-1.07495
-1.06941
-1.07756
-1.08687
-1.11262
-1.10085
-1.08702
-1.07992
-1.08
-1.06546
-1.01905
-1.12858
-1.1234
-1.12003
-1.1079
-1.08817
-1.04152
-0.97337
-0.892586
-1.15246
-1.15329
-1.14876
-1.13404
-1.08524
-1.0144
-0.934145
-0.851123
-0.768458
-0.186728
-0.1892
-0.189359
-0.184923
-0.181439
-0.165626
-0.164327
-0.162334
-0.157452
-0.154353
-0.145688
-0.142286
-0.139955
-0.135066
-0.132763
-0.128374
-0.124258
-0.12151
-0.117218
-0.114759
-0.111666
-0.107704
-0.104346
-0.101004
-0.0975029
-0.094555
-0.0968668
-0.0932223
-0.0894005
-0.0866525
-0.082469
-0.0799785
-0.0830225
-0.079759
-0.0759416
-0.0736073
-0.0698728
-0.0679471
-0.0706623
-0.0677768
-0.0643169
-0.0623058
-0.0592814
-0.0573209
-0.0596284
-0.0569573
-0.0540367
-0.05214
-0.0494816
-0.047332
-0.049741
-0.0472562
-0.0448266
-0.0429784
-0.0406609
-0.0387192
-0.0408684
-0.0386263
-0.0365833
-0.0349269
-0.032995
-0.0314025
-0.0329828
-0.0309988
-0.0292599
-0.0278426
-0.0262131
-0.0248823
-0.0259679
-0.0242309
-0.022731
-0.0214915
-0.0200519
-0.0187232
-0.0196858
-0.0181681
-0.0168621
-0.0156769
-0.0143513
-0.0131793
-0.0140897
-0.0127616
-0.0116748
-0.0107233
-0.00976972
-0.00903543
-0.0091337
-0.00799898
-0.00712171
-0.0063564
-0.00546805
-0.00451303
-0.00464957
-0.00364372
-0.00284591
-0.00212609
-0.00129266
-0.000523027
-0.000569125
0.000262135
0.00086858
0.00132984
0.00182582
0.00226935
0.00307415
0.00369823
0.00412913
0.00445402
0.00490286
0.00544096
0.00639226
0.00687387
0.00720082
0.00744473
0.0077861
0.00815982
0.00935638
0.00970856
0.00989421
0.00998858
0.0101479
0.0103768
0.0119339
0.0121867
0.0122736
0.0122802
0.0123552
0.0125264
0.0141645
0.0143617
0.0144059
0.0143689
0.0143794
0.014465
0.0160856
0.0162355
0.0162528
0.0161811
0.0161313
0.0161446
0.0176947
0.0177893
0.017789
0.0177129
0.0176447
0.0176237
0.0190255
0.019063
0.0190403
0.0189601
0.0188698
0.0188058
0.0200975
0.0200656
0.0200053
0.0199153
0.0198199
0.0197489
0.0208832
0.0207974
0.0207096
0.0206183
0.0205311
0.0204622
0.0213624
0.0212624
0.021164
0.021069
0.0209805
0.0209055
0.0216061
0.0215128
0.0214204
0.0213328
0.0212512
0.0211791
-0.0282792
-0.0277943
-0.0278838
-0.0291958
-0.0324579
-0.0380055
-0.0456428
-0.0550077
-0.0659762
-0.0788528
-0.09431
-0.112996
-0.135793
-0.163773
-0.198462
-0.241761
-0.296038
-0.364389
-0.450869
-0.591324
-0.0529107
-0.0531143
-0.0563263
-0.0617385
-0.0689075
-0.0777688
-0.0885045
-0.101259
-0.116187
-0.133479
-0.153635
-0.177553
-0.206364
-0.241354
-0.284107
-0.336783
-0.402331
-0.482562
-0.578581
-0.738777
-0.0702264
-0.0736376
-0.0816556
-0.0922875
-0.104068
-0.116609
-0.130283
-0.145854
-0.164099
-0.185665
-0.211121
-0.240972
-0.275996
-0.317479
-0.367285
-0.427682
-0.502151
-0.592864
-0.697727
-0.879914
-0.0901433
-0.0959836
-0.106911
-0.120999
-0.136479
-0.152656
-0.17006
-0.189408
-0.211408
-0.236721
-0.266076
-0.300389
-0.340687
-0.388145
-0.444614
-0.512646
-0.595967
-0.696662
-0.809564
-1.00331
-0.112105
-0.12052
-0.133546
-0.149597
-0.167144
-0.185622
-0.205551
-0.227871
-0.253128
-0.281989
-0.315274
-0.353891
-0.399024
-0.451993
-0.514445
-0.588736
-0.679605
-0.79112
-0.909439
-1.10989
-0.134004
-0.144658
-0.159827
-0.17711
-0.196071
-0.216658
-0.23942
-0.2651
-0.294253
-0.327013
-0.363929
-0.406104
-0.454942
-0.51187
-0.578566
-0.657033
-0.751679
-0.872913
-0.997646
-1.19607
-0.154311
-0.166944
-0.184124
-0.203508
-0.223748
-0.245687
-0.270042
-0.297692
-0.329107
-0.364799
-0.405127
-0.450888
-0.503519
-0.564564
-0.635601
-0.718112
-0.814649
-0.94073
-1.07014
-1.2597
-0.171577
-0.186568
-0.204777
-0.225278
-0.247321
-0.271319
-0.297815
-0.327484
-0.361114
-0.39916
-0.442192
-0.490904
-0.54638
-0.610193
-0.684096
-0.769509
-0.867776
-0.993602
-1.12812
-1.30028
-0.184907
-0.202863
-0.223344
-0.245286
-0.269126
-0.295168
-0.324296
-0.356749
-0.392836
-0.433117
-0.478093
-0.528652
-0.585921
-0.651447
-0.72694
-0.813889
-0.913319
-1.03265
-1.16373
-1.31746
-0.196854
-0.216215
-0.237624
-0.260543
-0.285864
-0.313693
-0.344096
-0.377845
-0.415676
-0.458115
-0.50574
-0.55905
-0.618992
-0.686851
-0.763796
-0.8511
-0.94985
-1.06275
-1.18322
-1.31257
0.237307
0.250353
0.264838
0.280762
0.298093
0.316814
0.336906
0.358313
0.380966
0.404744
0.429436
0.454715
0.47997
0.504178
0.526119
0.543515
0.554211
0.222969
0.235375
0.249261
0.264402
0.280731
0.298297
0.317144
0.337216
0.358391
0.380522
0.40338
0.426575
0.449553
0.471299
0.490217
0.503333
0.509318
0.204817
0.216195
0.229103
0.243116
0.25809
0.27409
0.291178
0.30929
0.328297
0.347909
0.367932
0.387977
0.407285
0.424611
0.438519
0.445641
0.445564
0.175352
0.183191
0.193284
0.204872
0.217348
0.230495
0.244369
0.259055
0.274501
0.290555
0.306989
0.323279
0.338846
0.353192
0.364957
0.372294
0.371741
0.36271
0.152032
0.158265
0.16694
0.177054
0.187813
0.198892
0.210296
0.22209
0.234236
0.246449
0.25852
0.270252
0.280881
0.289049
0.293467
0.292435
0.282114
0.260254
0.124742
0.125894
0.130317
0.137221
0.14543
0.154048
0.162677
0.171295
0.179941
0.188555
0.196844
0.204172
0.209946
0.213768
0.21493
0.211475
0.201207
0.17896
0.141028
0.103183
0.0983492
0.0975659
0.100515
0.105822
0.111957
0.117954
0.123426
0.128371
0.133001
0.137217
0.140758
0.143146
0.143621
0.14097
0.133951
0.120724
0.0992912
0.0647759
0.010187
0.0771095
0.0690686
0.0663105
0.0680706
0.0720971
0.0763734
0.0798366
0.0821388
0.0833361
0.0836672
0.0831633
0.0814035
0.0775872
0.0709207
0.0605002
0.0450238
0.0224161
-0.00999867
-0.057866
-0.134433
0.0486517
0.0380944
0.0343095
0.0349593
0.0368755
0.0383042
0.0384393
0.0373248
0.0349869
0.03125
0.0258157
0.0183549
0.00836045
-0.00504856
-0.0231433
-0.0476319
-0.0810445
-0.125896
-0.187681
-0.283752
0.0145545
0.00522107
0.00319706
0.00327698
0.00279334
0.000607644
-0.00337231
-0.00876937
-0.0152906
-0.0232007
-0.033077
-0.0457309
-0.0620702
-0.0830088
-0.109843
-0.143965
-0.187966
-0.244789
-0.318408
-0.436879
0.0864115
0.0641208
0.0495792
0.0327987
0.0271269
0.00250951
0.0154524
-0.00382374
0.0078233
-0.00932318
0.00159224
-0.0139459
-0.0032815
-0.0172897
-0.0068749
-0.0195745
-0.00938322
-0.0208887
-0.01083
-0.0212491
-0.011305
-0.0207451
-0.0110345
-0.0194815
-0.0101316
-0.0175478
-0.00865708
-0.0150936
-0.00676961
-0.0122981
-0.00457413
-0.00925773
-0.00216497
-0.00609732
0.000366039
-0.00291342
0.00296848
0.000241304
0.00559158
0.00332876
0.00816089
0.00629933
0.0106032
0.00909785
0.0128702
0.0116797
0.0149387
0.0140178
0.0168148
0.0161126
0.018496
0.0179617
0.0199935
0.0195922
0.021293
0.0210061
0.0223075
0.0221052
0.0229888
0.0228129
0.0240766
0.0237102
0.0243919
0.0239921
-0.027127
-0.055214
-0.0718733
-0.0887985
-0.107661
-0.127874
-0.14504
-0.159539
-0.171602
-0.181261
-0.0274891
-0.056148
-0.0744263
-0.0884315
-0.103448
-0.121031
-0.135335
-0.14748
-0.156661
-0.162841
-0.0303697
-0.0561493
-0.0738756
-0.0856671
-0.0972341
-0.111775
-0.123959
-0.133871
-0.141071
-0.144411
-0.0325985
-0.0553304
-0.0717253
-0.0825433
-0.0917926
-0.103466
-0.113581
-0.121193
-0.126802
-0.127861
-0.0342877
-0.0545198
-0.0690306
-0.0783507
-0.0856215
-0.0944523
-0.102339
-0.108219
-0.112405
-0.112215
-0.0351081
-0.0530747
-0.0653723
-0.072954
-0.0788399
-0.0854856
-0.0916163
-0.0960131
-0.0988373
-0.0983116
-0.0350298
-0.050911
-0.06116
-0.0670563
-0.0717154
-0.0767103
-0.081276
-0.084452
-0.0860812
-0.0853621
-0.0340824
-0.0480412
-0.0564365
-0.0607787
-0.0642505
-0.0680126
-0.0713344
-0.0736229
-0.0742607
-0.0733528
-0.0323518
-0.0445566
-0.0513005
-0.0543241
-0.0567402
-0.0595545
-0.0619596
-0.0635596
-0.063506
-0.0623699
-0.0299051
-0.0405246
-0.0458643
-0.0478103
-0.0493427
-0.051395
-0.0531495
-0.0541913
-0.0537328
-0.052369
-0.0268127
-0.0360444
-0.0402672
-0.0413615
-0.0421926
-0.0436286
-0.0449355
-0.0455546
-0.0448705
-0.0433331
-0.0232474
-0.0312668
-0.0346256
-0.0350771
-0.035346
-0.036303
-0.0372866
-0.0376391
-0.0368222
-0.0352169
-0.0193766
-0.0263096
-0.0290183
-0.0290279
-0.0288667
-0.0294536
-0.0301967
-0.0304068
-0.0295331
-0.0279665
-0.0153204
-0.0212829
-0.0235293
-0.0232784
-0.0228064
-0.0230855
-0.0236434
-0.0237813
-0.0229505
-0.0214771
-0.0112154
-0.0162969
-0.0182105
-0.0178527
-0.0171766
-0.0172017
-0.0175977
-0.0177173
-0.0170039
-0.0156686
-0.00717125
-0.0114424
-0.01311
-0.0127613
-0.0120006
-0.0118218
-0.0120676
-0.012178
-0.0116136
-0.0104818
-0.00326051
-0.00680023
-0.00825716
-0.00799434
-0.0072559
-0.00695597
-0.00706688
-0.00715789
-0.00673545
-0.00581167
0.000472305
-0.0024207
-0.00367996
-0.00352765
-0.00289564
-0.00256773
-0.00258381
-0.00264055
-0.0023053
-0.00154744
0.00398765
0.00164753
0.000575474
0.000630345
0.00111978
0.00140238
0.00142467
0.00139793
0.00168428
0.00229316
0.00724947
0.00537208
0.00446916
0.0044467
0.00479606
0.0049933
0.00500934
0.00499197
0.005249
0.00575559
0.0102233
0.00873544
0.00797339
0.00789511
0.00811758
0.00823145
0.00821438
0.0081957
0.00841843
0.00884769
0.0128928
0.0117347
0.0110911
0.0109702
0.0110802
0.011122
0.0110596
0.0110258
0.011191
0.0115409
0.0152621
0.0143759
0.0138335
0.0136776
0.013692
0.0136707
0.0135625
0.0134975
0.0135916
0.0138594
0.0173318
0.0166646
0.016216
0.0160339
0.0159743
0.0158966
0.0157544
0.0156515
0.0156783
0.0158586
0.0191356
0.0186391
0.0182679
0.0180638
0.0179438
0.0178159
0.017648
0.0175093
0.0174709
0.0175562
0.020695
0.0203432
0.0200421
0.0198239
0.0196477
0.0194647
0.0192595
0.0190807
0.0189788
0.0189752
0.0219104
0.0216897
0.021474
0.0212772
0.021078
0.0208571
0.0206149
0.020392
0.0202262
0.0201373
0.0226615
0.0224969
0.0223279
0.0221599
0.0219782
0.0217734
0.021546
0.0213235
0.0211313
0.0209885
0.023331
0.0229719
0.0226709
0.0224315
0.0222339
0.0220599
0.0218944
0.0217391
0.0215963
0.0214725
0.0235709
0.0231688
0.0228254
0.0225487
0.0223305
0.0221602
0.0220214
0.0219046
0.0217991
0.0217015
)
;

boundaryField
{
    outlet
    {
        type            fixedValue;
        value           nonuniform 0();
    }
    upperWall
    {
        type            symmetryPlane;
    }
    lowerWall
    {
        type            symmetryPlane;
    }
    inlet
    {
        type            zeroGradient;
    }
    cylinder
    {
        type            zeroGradient;
    }
    frontAndBack
    {
        type            empty;
    }
    procBoundary5to1
    {
        type            processor;
        value           nonuniform List<scalar> 
20
(
-1.18235
-1.1598
-1.18242
0.247546
0.260771
0.275522
0.291916
0.309889
0.329274
0.34997
0.37193
0.395157
0.419602
0.445103
0.471325
0.49772
0.523298
0.54668
0.565447
0.577492
)
;
    }
    procBoundary5to4
    {
        type            processor;
        value           nonuniform List<scalar> 
45
(
0.225684
0.212289
0.195478
0.195478
0.170062
0.148761
0.148761
0.126786
0.126786
0.108476
0.108476
0.0915502
0.0726053
0.0726053
0.0582649
0.0423809
0.0304429
0.0216093
0.014305
0.0084071
0.00388182
0.000598299
-0.00170981
-0.00313231
-0.00378474
-0.00380847
-0.00319681
-0.00207219
-0.000570507
0.00123172
0.00325669
0.00542833
0.00766902
0.00988547
0.0119954
0.0139757
0.0158127
0.0175073
0.0190473
0.0204299
0.0216277
0.0225721
0.0232359
0.0244333
0.024767
)
;
    }
    procBoundary5to6
    {
        type            processor;
        value           nonuniform List<scalar> 
63
(
-0.586989
-0.68833
-0.586989
-0.519005
-0.448498
-0.448498
-0.39396
-0.353901
-0.353901
-0.31196
-0.273126
-0.246009
-0.246009
-0.215258
-0.18762
-0.16987
-1.26938
-1.26938
-1.31034
-1.29058
-1.23559
-1.16441
-1.16441
-1.12096
-1.12096
-1.06713
-1.06713
-0.944334
-0.944334
-0.80635
-0.80635
-0.68833
-0.16987
-0.144498
-0.126447
-0.110991
-0.110991
-0.0876746
-0.0748576
-0.0646117
-0.0544797
-0.0448844
-0.0368973
-0.0299563
-0.0237242
-0.0174722
-0.0124039
-0.00858227
-0.00354906
-0.000101552
0.00261196
0.00597102
0.00844067
0.0106205
0.0127534
0.0146147
0.0162376
0.0176644
0.0187838
0.0197127
0.0204132
0.0208443
0.0211162
)
;
    }
}


// ************************************************************************* //
