/*--------------------------------*- C++ -*----------------------------------*\
| =========                 |                                                 |
| \\      /  F ield         | OpenFOAM: The Open Source CFD Toolbox           |
|  \\    /   O peration     | Version:                                        |
|   \\  /    A nd           | Website:  www.openfoam.com                      |
|    \\/     M anipulation  |                                                 |
\*---------------------------------------------------------------------------*/
FoamFile
{
    version     2.0;
    format      ascii;
    class       volScalarField;
    location    "61";
    object      p;
}
// * * * * * * * * * * * * * * * * * * * * * * * * * * * * * * * * * * * * * //

dimensions      [0 2 -2 0 0 0 0];


internalField   nonuniform List<scalar> 
1139
(
-0.356935
-0.328045
-0.299092
-0.269954
-0.270164
-0.240536
-0.239724
-0.211672
-0.192116
-0.208756
-0.183789
-0.164565
-0.177534
-0.155816
-0.138386
-0.147739
-0.128603
-0.11372
-0.105598
-0.116525
-0.10117
-0.0898832
-0.0835117
-0.0829096
-0.0770164
-0.0660292
-0.0631068
-0.765684
-0.817801
-0.801005
-0.753965
-0.687635
-0.619971
-0.881948
-0.853191
-0.787021
-0.69501
-0.602166
-0.517295
-0.949668
-0.91342
-0.830756
-0.715448
-0.594503
-0.495464
-0.428129
-1.01745
-0.976397
-0.878286
-0.744701
-0.605764
-0.494119
-0.42506
-0.419434
-1.07979
-1.03632
-0.927798
-0.780083
-0.633803
-0.508688
-0.458314
-0.438375
-0.44015
-1.1359
-1.09363
-0.976287
-0.819024
-0.670284
-0.555433
-0.49756
-0.462141
-0.439011
-0.41241
-1.17277
-1.13307
-1.01532
-0.857306
-0.714057
-0.609303
-0.534302
-0.47776
-0.430706
-0.390289
-1.18505
-1.14358
-1.03202
-0.888866
-0.756278
-0.647303
-0.552963
-0.474864
-0.413271
-0.366294
-1.18874
-1.14327
-1.03962
-0.907922
-0.775555
-0.650913
-0.541356
-0.452711
-0.387679
-0.338893
-1.18778
-1.13761
-1.03142
-0.894497
-0.749715
-0.61538
-0.50491
-0.420111
-0.355144
-0.30714
-1.1527
-1.094
-0.979031
-0.832495
-0.684437
-0.556556
-0.456266
-0.380081
-0.319277
-0.27373
-1.05018
-0.985886
-0.872266
-0.732404
-0.598523
-0.48819
-0.404167
-0.338037
-0.282832
-0.239008
-0.900121
-0.842488
-0.74107
-0.622583
-0.511267
-0.422271
-0.353933
-0.295529
-0.245876
-0.205659
-0.745281
-0.701254
-0.61519
-0.522205
-0.433437
-0.359333
-0.303904
-0.255918
-0.21008
-0.172678
-0.611668
-0.583454
-0.5137
-0.435297
-0.365014
-0.303971
-0.25649
-0.217871
-0.179413
-0.141774
-0.510921
-0.490193
-0.436645
-0.365668
-0.303497
-0.251407
-0.211411
-0.178838
-0.146168
-0.111547
-0.427153
-0.406769
-0.363005
-0.298006
-0.241194
-0.194224
-0.158829
-0.13523
-0.110847
-0.0905699
-0.372564
-0.346473
-0.309615
-0.253814
-0.199218
-0.154382
-0.120822
-0.104035
-0.0900628
-0.0806985
-0.362639
-0.320033
-0.277563
-0.227269
-0.172367
-0.126867
-0.0932464
-0.0770995
-0.0678439
-0.063975
-0.391492
-0.326045
-0.262424
-0.206949
-0.149317
-0.100955
-0.0667003
-0.0472431
-0.0393137
-0.0391951
-0.462287
-0.370487
-0.275677
-0.200059
-0.134069
-0.0795255
-0.0426012
-0.0197613
-0.0106166
-0.0128028
-0.593316
-0.4643
-0.327328
-0.217463
-0.131623
-0.0646429
-0.0202412
0.00520242
0.0165678
0.012252
-0.753594
-0.592537
-0.411976
-0.259754
-0.14427
-0.0600567
-0.00380747
0.0270383
0.0412587
0.0365652
-0.862966
-0.686481
-0.485362
-0.304645
-0.162736
-0.063254
0.0040777
0.0445618
0.0623763
0.0597734
-0.840027
-0.671626
-0.489206
-0.319642
-0.177499
-0.0707371
0.00392117
0.0559585
0.081795
0.0805925
-0.698633
-0.567108
-0.425339
-0.286009
-0.161209
-0.0641427
-0.000184485
0.0596875
0.0979324
0.100689
-0.52059
-0.43408
-0.335855
-0.231618
-0.132467
-0.0519224
0.0125555
0.061465
0.105163
0.120192
-0.370841
-0.319328
-0.254482
-0.178442
-0.100738
-0.0339389
0.0199162
0.062113
0.101218
0.126824
-0.272445
-0.243862
-0.200498
-0.141033
-0.0767975
-0.0200715
0.0252687
0.0605771
0.091262
0.114828
-0.22105
-0.207598
-0.175541
-0.125238
-0.0675823
-0.0138293
0.0273967
0.05884
0.0823981
0.0997589
-0.206639
-0.204794
-0.181554
-0.135218
-0.0767731
-0.0212432
0.0239361
0.0572861
0.0773603
0.0916964
-0.229568
-0.24152
-0.228983
-0.181253
-0.117899
-0.0521159
0.00296456
0.0442503
0.067169
0.0844299
-0.305371
-0.339457
-0.336534
-0.290414
-0.216088
-0.127055
-0.0555838
0.00663929
0.0410359
0.061763
-0.44747
-0.501726
-0.510987
-0.47172
-0.375109
-0.26146
-0.155399
-0.06352
-0.00190502
0.0350083
-0.601931
-0.671285
-0.694161
-0.655453
-0.55104
-0.420866
-0.274072
-0.146578
-0.0512372
0.00193247
-0.672169
-0.75203
-0.7865
-0.751619
-0.662595
-0.532833
-0.373479
-0.227932
-0.114821
-0.0272554
-0.407477
-0.277944
-0.163655
-0.0452598
-0.0595211
-0.0328558
-0.0142629
0.00334709
0.0201076
0.0336782
0.0448007
0.0547294
0.0630631
0.0698904
0.0757573
0.0808754
0.0849862
0.0886167
0.0915635
0.0941481
0.095853
0.097573
0.0991527
0.0996193
0.100414
0.101012
0.10119
0.101338
0.101387
0.101304
0.101173
0.101025
0.100854
0.100755
-0.061546
-0.0382456
-0.0189054
-0.000685336
0.0155985
0.0289335
0.0405078
0.0507067
0.0592628
0.0664431
0.0726654
0.0780459
0.0824213
0.086338
0.0895338
0.0923275
0.0942231
0.0963659
0.0978358
0.0986029
0.0996642
0.100249
0.100582
0.100846
0.100956
0.100924
0.100839
0.100713
0.100556
0.100466
-0.0464289
-0.0269846
-0.0105928
0.00556485
0.0197898
0.03139
0.042053
0.0513767
0.0591916
0.0658132
0.0717955
0.076883
0.0812182
0.0850561
0.0882836
0.0909848
0.0931381
0.0953452
0.0966729
0.0977919
0.0989169
0.0995145
0.0999901
0.100328
0.10049
0.100511
0.100472
0.10037
0.100236
0.100155
-0.0213093
-0.00273816
0.00914973
0.0223488
0.0322427
0.0413765
0.0499243
0.0572488
0.0634119
0.0688146
0.0738041
0.0780181
0.081868
0.085229
0.0881335
0.090625
0.0928791
0.0947936
0.0960702
0.0973743
0.0983877
0.0990063
0.0995377
0.0998872
0.100066
0.100115
0.100101
0.100013
0.0998972
0.0998225
0.00585152
0.0224454
0.0327006
0.0424078
0.049307
0.0561276
0.0617839
0.06664
0.0707666
0.0745741
0.0780983
0.0812276
0.0842632
0.086902
0.0892195
0.0914358
0.0934331
0.0949103
0.0961562
0.0973939
0.0982114
0.0988069
0.0992889
0.0995874
0.0997354
0.0997729
0.0997479
0.0996541
0.0995441
0.0994692
0.0318041
0.0459712
0.0544746
0.0609238
0.0666884
0.070996
0.0742769
0.0770271
0.0793784
0.0816715
0.0836875
0.0856585
0.0876586
0.0894688
0.0911872
0.0930197
0.0945067
0.0956295
0.0967433
0.0977234
0.0983366
0.098837
0.0991969
0.0994029
0.0994807
0.0994739
0.0994105
0.0992952
0.0991773
0.0990967
0.0537309
0.0667929
0.0731193
0.0789898
0.0828377
0.08447
0.0857487
0.0866331
0.0874812
0.0883445
0.089194
0.0902359
0.0912716
0.0923197
0.0934687
0.0947879
0.0957081
0.0965673
0.0974453
0.0981143
0.0985502
0.0989122
0.0991332
0.0992369
0.0992333
0.0991731
0.0990634
0.0989236
0.0987929
0.0987061
0.0730139
0.0833377
0.0876649
0.0937333
0.0955937
0.0960957
0.0959495
0.0952452
0.0946236
0.0942062
0.0940217
0.0940905
0.0943469
0.09481
0.0954744
0.0962011
0.0967264
0.0973497
0.0979429
0.0983482
0.0986383
0.0988635
0.0989742
0.0989943
0.098927
0.0988248
0.0986802
0.0985255
0.098386
0.0982972
0.0922974
0.0996354
0.102192
0.10557
0.105251
0.104985
0.103786
0.102023
0.100393
0.0990484
0.097977
0.0972601
0.0968969
0.0968392
0.096998
0.0972145
0.0974444
0.0978339
0.0981681
0.0983886
0.0985626
0.0986733
0.0987074
0.0986649
0.0985586
0.0984272
0.0982611
0.0981012
0.0979578
0.0978708
0.111411
0.115826
0.117541
0.118474
0.11603
0.113877
0.110802
0.10787
0.105378
0.103207
0.101366
0.100015
0.0990273
0.0986921
0.0983534
0.0981669
0.0981477
0.098266
0.0983572
0.0984197
0.098476
0.0984824
0.0984414
0.0983348
0.0981932
0.0980259
0.0978367
0.0976657
0.097515
0.0974276
0.130347
0.130848
0.131453
0.130215
0.126776
0.122833
0.118096
0.113824
0.110257
0.10732
0.104937
0.103035
0.101559
0.100611
0.0998742
0.0993437
0.0990646
0.0989031
0.0987661
0.098658
0.0985614
0.0984439
0.0982944
0.0980997
0.0978974
0.0976693
0.0974389
0.0972359
0.0970648
0.096969
0.144479
0.138674
0.140369
0.137579
0.133255
0.128238
0.123055
0.118313
0.114297
0.110874
0.108067
0.105826
0.104069
0.102724
0.101639
0.100815
0.100232
0.0997607
0.0993938
0.0990901
0.0988146
0.0985497
0.0982627
0.0979612
0.0976669
0.0973561
0.0970656
0.0968097
0.0966057
0.0964923
0.134794
0.135694
0.136764
0.135782
0.132865
0.128665
0.124051
0.119979
0.116412
0.113258
0.110547
0.108201
0.106183
0.104515
0.103187
0.102163
0.101323
0.100615
0.100047
0.0995417
0.0990891
0.0986649
0.0982384
0.0978294
0.0974315
0.0970368
0.0966809
0.0963677
0.0961277
0.0959931
0.113453
0.116853
0.120178
0.123618
0.124588
0.123755
0.121716
0.119232
0.116623
0.114102
0.111813
0.109644
0.107678
0.105952
0.104473
0.103216
0.102136
0.10124
0.100486
0.0998095
0.0992112
0.0986462
0.0981057
0.0976023
0.0971142
0.0966535
0.0962423
0.0958854
0.0956172
0.0954654
0.0970257
0.0977247
0.1018
0.108246
0.113244
0.115929
0.116939
0.116886
0.115914
0.114404
0.112473
0.110399
0.108503
0.106758
0.105228
0.103876
0.102658
0.101624
0.100701
0.0998763
0.0991415
0.0984583
0.0978281
0.0972446
0.0966905
0.0961851
0.0957342
0.0953526
0.0950676
0.094906
0.0887697
0.0894549
0.0938927
0.101391
0.108417
0.112475
0.114613
0.115638
0.115487
0.11455
0.112961
0.1113
0.109447
0.107611
0.105952
0.104397
0.103025
0.101855
0.100788
0.0998399
0.0989799
0.0981943
0.0974765
0.0968156
0.0962058
0.0956611
0.0951773
0.0947785
0.0944805
0.094313
0.074968
0.0812972
0.0889137
0.099191
0.107937
0.112745
0.115362
0.116394
0.116255
0.11515
0.113676
0.111977
0.110106
0.108385
0.106688
0.105036
0.103556
0.102199
0.100962
0.0998596
0.0988655
0.0979636
0.0971476
0.096401
0.0957272
0.0951303
0.0946059
0.094181
0.0938635
0.0936872
0.0580624
0.06811
0.0781454
0.0940473
0.106627
0.112417
0.116108
0.117661
0.11767
0.11653
0.115103
0.113161
0.11121
0.109326
0.107415
0.105672
0.104067
0.102578
0.101208
0.099966
0.098832
0.0978016
0.0968713
0.0960256
0.0952733
0.094607
0.0940296
0.0935646
0.093218
0.093027
0.0413976
0.057061
0.070692
0.094072
0.109257
0.114688
0.117733
0.118847
0.11849
0.117306
0.115726
0.113818
0.112085
0.110163
0.108231
0.106388
0.104611
0.102947
0.101421
0.100036
0.0987694
0.0976208
0.0965771
0.0956368
0.0948008
0.0940603
0.0934263
0.0929158
0.0925372
0.0923295
0.0286348
0.0497951
0.0700758
0.0941519
0.107748
0.115236
0.117453
0.118528
0.117977
0.117248
0.11564
0.114016
0.112252
0.110259
0.108426
0.106602
0.104815
0.1031
0.101488
0.0999818
0.0985956
0.0973299
0.0961868
0.0951605
0.0942474
0.093444
0.092762
0.0922125
0.0918087
0.0915879
0.00722771
0.0403952
0.0691827
0.0870444
0.100365
0.110239
0.11491
0.11738
0.11721
0.116707
0.115343
0.11419
0.112399
0.11063
0.108753
0.106776
0.104858
0.103037
0.101334
0.0997375
0.0982606
0.0969066
0.0956826
0.0945789
0.0936005
0.0927465
0.0920245
0.0914454
0.0910244
0.090795
-0.012362
0.0272837
-0.0368487
-0.0122858
0.006609
0.0207554
0.0337223
0.0460595
0.0564967
0.0646772
0.0717021
0.0779363
-0.0412251
-0.0157877
0.00458523
0.0189327
0.0326544
0.0457351
0.0560131
0.0640506
0.0714001
0.0777682
0.0827334
0.086887
0.0905464
0.0934748
0.0958447
0.0977277
0.0993197
0.100463
0.101055
0.102029
0.102319
0.10244
0.102735
0.102741
0.102671
0.102571
0.102402
0.10221
0.102033
0.10192
-0.0399456
-0.0119052
0.00567217
0.0181234
0.0322419
0.0455201
0.0553476
0.063495
0.0711451
0.077377
0.082233
0.0865029
0.0902185
0.0930981
0.0954812
0.097349
0.0990326
0.100018
0.100812
0.101827
0.101896
0.102192
0.102458
0.102414
0.102357
0.102255
0.102084
0.101906
0.101734
0.101625
-0.0469581
-0.0152693
0.00238973
0.0162726
0.0313887
0.0445416
0.0540531
0.0625216
0.0703293
0.076413
0.0812675
0.0856634
0.0893657
0.0922788
0.0947656
0.0967459
0.098454
0.0993958
0.100595
0.101391
0.101461
0.101961
0.102135
0.102092
0.102058
0.101949
0.101777
0.101608
0.101438
0.101332
-0.0480002
-0.0201318
-0.00324978
0.0114285
0.0276995
0.0408925
0.0507031
0.0597586
0.0676965
0.0738722
0.0791074
0.0838002
0.0875861
0.0907615
0.0934517
0.0956916
0.0973692
0.0985952
0.100108
0.100607
0.100992
0.101595
0.101711
0.101742
0.101744
0.101636
0.101476
0.101316
0.101143
0.10104
)
;

boundaryField
{
    outlet
    {
        type            fixedValue;
        value           nonuniform 0();
    }
    upperWall
    {
        type            symmetryPlane;
    }
    lowerWall
    {
        type            symmetryPlane;
    }
    inlet
    {
        type            zeroGradient;
    }
    cylinder
    {
        type            zeroGradient;
    }
    frontAndBack
    {
        type            empty;
    }
    procBoundary2to1
    {
        type            processor;
        value           nonuniform List<scalar> 
63
(
-0.387487
-0.387487
-0.330829
-0.299859
-0.299859
-0.249128
-0.220175
-0.220175
-0.178338
-0.153292
-0.129132
-0.129132
-0.0983536
-0.078197
-0.0591583
-0.0591583
-0.728893
-0.758983
-0.758983
-0.728334
-0.68917
-0.649923
-0.561011
-0.561011
-0.466821
-0.466821
-0.418925
-0.418925
-0.440729
-0.440729
-0.435909
-0.435909
-0.0333665
-0.0113058
0.00823562
0.0230552
0.0359265
0.0474651
0.057427
0.065538
0.0723045
0.0782988
0.0829902
0.0829902
0.0871485
0.090769
0.093748
0.0961223
0.0980348
0.0995494
0.100772
0.101403
0.102209
0.102709
0.102778
0.103024
0.103081
0.103005
0.102895
0.102723
0.102517
0.102331
0.102216
)
;
    }
    procBoundary2to3
    {
        type            processor;
        value           nonuniform List<scalar> 
43
(
-0.596981
-0.6718
-0.712506
-0.699308
-0.635684
-0.543551
-0.543551
-0.335779
-0.247597
-0.171213
-0.0597615
-0.0597615
0.0548852
0.0725613
0.0910452
0.102465
0.112291
0.114874
0.116753
0.115911
0.115147
0.113693
0.112073
0.110524
0.108716
0.106843
0.104912
0.10302
0.101191
0.0994656
0.0978777
0.0964252
0.0951142
0.0939351
0.0928952
0.0919916
0.0912287
0.0906212
0.0901831
0.0899454
-0.0103202
0.0548852
0.0259598
)
;
    }
    procBoundary2to6
    {
        type            processor;
        value           nonuniform List<scalar> 
37
(
-0.746176
-0.804144
-0.8737
-0.944649
-1.00972
-1.067
-1.1138
-1.14337
-1.16041
-1.16976
-1.16991
-1.1339
-1.0322
-0.883476
-0.730181
-0.59932
-0.503109
-0.423356
-0.376274
-0.378216
-0.421479
-0.513014
-0.668335
-0.845819
-0.965817
-0.944177
-0.788845
-0.584801
-0.407353
-0.287438
-0.221663
-0.194941
-0.203601
-0.255177
-0.362717
-0.489645
-0.551708
)
;
    }
}


// ************************************************************************* //
