/*--------------------------------*- C++ -*----------------------------------*\
| =========                 |                                                 |
| \\      /  F ield         | OpenFOAM: The Open Source CFD Toolbox           |
|  \\    /   O peration     | Version:                                        |
|   \\  /    A nd           | Website:  www.openfoam.com                      |
|    \\/     M anipulation  |                                                 |
\*---------------------------------------------------------------------------*/
FoamFile
{
    version     2.0;
    format      ascii;
    class       volVectorField;
    location    "6.4";
    object      U;
}
// * * * * * * * * * * * * * * * * * * * * * * * * * * * * * * * * * * * * * //

dimensions      [0 1 -1 0 0 0 0];


internalField   nonuniform List<vector> 
400
(
(0.0848247 6.42656e-05 0)
(0.0844435 6.15134e-05 0)
(0.0840789 5.89152e-05 0)
(0.0837298 5.64586e-05 0)
(0.0833955 5.41324e-05 0)
(0.0830751 5.19269e-05 0)
(0.0827679 4.9833e-05 0)
(0.0824733 4.78428e-05 0)
(0.0821905 4.5949e-05 0)
(0.081919 4.41452e-05 0)
(0.0816583 4.24254e-05 0)
(0.0814079 4.07842e-05 0)
(0.0811672 3.92168e-05 0)
(0.0809359 3.77186e-05 0)
(0.0807135 3.62857e-05 0)
(0.0804996 3.49141e-05 0)
(0.0802939 3.36006e-05 0)
(0.080096 3.2342e-05 0)
(0.0799055 3.11354e-05 0)
(0.0797223 2.9978e-05 0)
(0.244526 0.000391236 0)
(0.243468 0.000374092 0)
(0.242456 0.000357942 0)
(0.241488 0.000342702 0)
(0.240562 0.000328298 0)
(0.239675 0.000314664 0)
(0.238825 0.000301741 0)
(0.23801 0.000289476 0)
(0.237228 0.000277823 0)
(0.236478 0.000266738 0)
(0.235758 0.000256183 0)
(0.235067 0.000246122 0)
(0.234403 0.000236526 0)
(0.233765 0.000227363 0)
(0.233151 0.000218608 0)
(0.232562 0.000210238 0)
(0.231995 0.000202229 0)
(0.23145 0.000194562 0)
(0.230926 0.000187218 0)
(0.230422 0.00018018 0)
(0.39411 0.00108269 0)
(0.392468 0.00103466 0)
(0.3909 0.000989455 0)
(0.3894 0.000946842 0)
(0.387966 0.000906605 0)
(0.386592 0.000868554 0)
(0.385277 0.000832518 0)
(0.384016 0.000798346 0)
(0.382807 0.000765902 0)
(0.381648 0.000735063 0)
(0.380536 0.000705719 0)
(0.379468 0.000677769 0)
(0.378443 0.000651124 0)
(0.377458 0.000625699 0)
(0.376513 0.000601421 0)
(0.375603 0.000578221 0)
(0.37473 0.000556036 0)
(0.37389 0.000534807 0)
(0.373082 0.000514484 0)
(0.372305 0.000495017 0)
(0.5333 0.00206287 0)
(0.531183 0.00197056 0)
(0.529161 0.00188376 0)
(0.527229 0.00180199 0)
(0.52538 0.00172482 0)
(0.523612 0.00165189 0)
(0.521919 0.00158286 0)
(0.520297 0.00151743 0)
(0.518742 0.00145535 0)
(0.517251 0.00139636 0)
(0.515822 0.00134026 0)
(0.51445 0.00128685 0)
(0.513133 0.00123595 0)
(0.511868 0.0011874 0)
(0.510654 0.00114107 0)
(0.509487 0.0010968 0)
(0.508366 0.00105449 0)
(0.507288 0.00101402 0)
(0.506252 0.00097529 0)
(0.505256 0.000938201 0)
(0.661755 0.00325528 0)
(0.659288 0.00310872 0)
(0.656933 0.00297096 0)
(0.654682 0.00284122 0)
(0.65253 0.00271884 0)
(0.650471 0.00260321 0)
(0.6485 0.00249381 0)
(0.646612 0.00239016 0)
(0.644804 0.00229184 0)
(0.64307 0.00219845 0)
(0.641407 0.00210966 0)
(0.639813 0.00202515 0)
(0.638282 0.00194465 0)
(0.636813 0.00186789 0)
(0.635402 0.00179465 0)
(0.634047 0.0017247 0)
(0.632745 0.00165785 0)
(0.631494 0.00159393 0)
(0.630292 0.00153278 0)
(0.629136 0.00147423 0)
(0.779121 0.00459085 0)
(0.776448 0.00438338 0)
(0.773896 0.00418838 0)
(0.771457 0.00400476 0)
(0.769125 0.00383158 0)
(0.766895 0.00366798 0)
(0.76476 0.00351322 0)
(0.762715 0.00336661 0)
(0.760756 0.00322755 0)
(0.758879 0.0030955 0)
(0.757078 0.00296997 0)
(0.755352 0.00285052 0)
(0.753695 0.00273674 0)
(0.752105 0.00262828 0)
(0.750578 0.0025248 0)
(0.749112 0.002426 0)
(0.747704 0.00233161 0)
(0.746351 0.00224136 0)
(0.745051 0.00215503 0)
(0.743801 0.0020724 0)
(0.885085 0.00599243 0)
(0.882367 0.00572132 0)
(0.87977 0.00546645 0)
(0.877289 0.00522642 0)
(0.874915 0.005 0)
(0.872644 0.00478608 0)
(0.87047 0.00458369 0)
(0.868388 0.00439195 0)
(0.866393 0.00421008 0)
(0.864481 0.00403738 0)
(0.862647 0.0038732 0)
(0.860888 0.00371697 0)
(0.859201 0.00356818 0)
(0.857581 0.00342634 0)
(0.856026 0.00329103 0)
(0.854533 0.00316184 0)
(0.8531 0.00303842 0)
(0.851722 0.00292044 0)
(0.850399 0.00280759 0)
(0.849127 0.00269959 0)
(0.979438 0.00737392 0)
(0.976847 0.00704094 0)
(0.974369 0.00672772 0)
(0.971999 0.00643259 0)
(0.96973 0.00615405 0)
(0.967559 0.0058908 0)
(0.965479 0.00564164 0)
(0.963486 0.00540552 0)
(0.961576 0.0051815 0)
(0.959745 0.00496872 0)
(0.957989 0.00476641 0)
(0.956304 0.00457386 0)
(0.954687 0.00439046 0)
(0.953135 0.0042156 0)
(0.951645 0.00404878 0)
(0.950215 0.00388951 0)
(0.948841 0.00373734 0)
(0.947521 0.00359187 0)
(0.946253 0.00345273 0)
(0.945034 0.00331958 0)
(1.06213 0.00864526 0)
(1.05984 0.00825683 0)
(1.05765 0.0078911 0)
(1.05554 0.00754619 0)
(1.05353 0.00722042 0)
(1.0516 0.00691231 0)
(1.04975 0.00662051 0)
(1.04798 0.00634383 0)
(1.04627 0.00608119 0)
(1.04464 0.00583161 0)
(1.04308 0.00559422 0)
(1.04157 0.00536822 0)
(1.04013 0.00515287 0)
(1.03874 0.00494752 0)
(1.03741 0.00475156 0)
(1.03614 0.00456443 0)
(1.03491 0.00438562 0)
(1.03373 0.00421467 0)
(1.0326 0.00405114 0)
(1.03151 0.00389463 0)
(1.13333 0.00971809 0)
(1.1315 0.00928504 0)
(1.12975 0.00887674 0)
(1.12806 0.00849121 0)
(1.12644 0.00812668 0)
(1.12489 0.00778155 0)
(1.1234 0.00745439 0)
(1.12197 0.00714394 0)
(1.1206 0.00684902 0)
(1.11928 0.00656858 0)
(1.11801 0.00630168 0)
(1.11679 0.00604745 0)
(1.11562 0.00580509 0)
(1.1145 0.00557388 0)
(1.11342 0.00535317 0)
(1.11238 0.00514233 0)
(1.11138 0.00494082 0)
(1.11043 0.00474811 0)
(1.10951 0.00456374 0)
(1.10862 0.00438725 0)
(1.19342 0.0105119 0)
(1.1922 0.0100487 0)
(1.19102 0.00961126 0)
(1.18989 0.00919755 0)
(1.18879 0.00880582 0)
(1.18774 0.00843446 0)
(1.18673 0.00808204 0)
(1.18575 0.00774724 0)
(1.18481 0.00742889 0)
(1.1839 0.00712591 0)
(1.18303 0.00683733 0)
(1.18219 0.00656225 0)
(1.18139 0.00629986 0)
(1.18061 0.0060494 0)
(1.17987 0.00581018 0)
(1.17915 0.00558157 0)
(1.17846 0.00536299 0)
(1.1778 0.00515388 0)
(1.17716 0.00495375 0)
(1.17655 0.00476214 0)
(1.24304 0.01096 0)
(1.24254 0.0104838 0)
(1.24205 0.0100331 0)
(1.24157 0.00960604 0)
(1.2411 0.00920102 0)
(1.24064 0.00881647 0)
(1.2402 0.00845101 0)
(1.23977 0.00810339 0)
(1.23935 0.00777247 0)
(1.23894 0.00745719 0)
(1.23855 0.00715661 0)
(1.23816 0.00686984 0)
(1.2378 0.00659609 0)
(1.23744 0.00633461 0)
(1.2371 0.00608471 0)
(1.23677 0.00584576 0)
(1.23645 0.00561717 0)
(1.23614 0.0053984 0)
(1.23585 0.00518894 0)
(1.23556 0.00498833 0)
(1.28305 0.0110149 0)
(1.28335 0.0105438 0)
(1.28361 0.0100971 0)
(1.28386 0.00967295 0)
(1.28408 0.00926988 0)
(1.28429 0.00888653 0)
(1.28447 0.00852163 0)
(1.28465 0.00817404 0)
(1.28481 0.00784271 0)
(1.28496 0.00752668 0)
(1.2851 0.00722505 0)
(1.28523 0.006937 0)
(1.28535 0.00666178 0)
(1.28547 0.00639869 0)
(1.28558 0.00614707 0)
(1.28568 0.00590632 0)
(1.28578 0.00567588 0)
(1.28588 0.00545522 0)
(1.28597 0.00524387 0)
(1.28605 0.00504135 0)
(1.31449 0.0106515 0)
(1.3156 0.0102039 0)
(1.31665 0.00977831 0)
(1.31765 0.00937337 0)
(1.31859 0.00898779 0)
(1.31949 0.00862038 0)
(1.32034 0.00827007 0)
(1.32115 0.00793587 0)
(1.32193 0.00761686 0)
(1.32266 0.00731218 0)
(1.32337 0.00702105 0)
(1.32404 0.00674275 0)
(1.32468 0.00647658 0)
(1.32529 0.00622192 0)
(1.32588 0.00597819 0)
(1.32645 0.00574482 0)
(1.32699 0.0055213 0)
(1.3275 0.00530715 0)
(1.328 0.00510193 0)
(1.32848 0.0049052 0)
(1.33849 0.00986893 0)
(1.3404 0.00946155 0)
(1.34222 0.00907328 0)
(1.34396 0.00870302 0)
(1.34561 0.00834972 0)
(1.34719 0.00801246 0)
(1.3487 0.00769034 0)
(1.35014 0.00738255 0)
(1.35152 0.00708833 0)
(1.35284 0.00680698 0)
(1.35411 0.00653781 0)
(1.35532 0.00628023 0)
(1.35648 0.00603365 0)
(1.35759 0.00579752 0)
(1.35865 0.00557134 0)
(1.35968 0.00535463 0)
(1.36066 0.00514694 0)
(1.3616 0.00494783 0)
(1.36251 0.00475693 0)
(1.36338 0.00457384 0)
(1.35623 0.00868963 0)
(1.35888 0.00833707 0)
(1.36141 0.00800026 0)
(1.36383 0.00767839 0)
(1.36615 0.00737066 0)
(1.36836 0.00707638 0)
(1.37049 0.00679485 0)
(1.37252 0.00652544 0)
(1.37446 0.00626756 0)
(1.37633 0.00602064 0)
(1.37812 0.00578417 0)
(1.37984 0.00555764 0)
(1.38148 0.00534058 0)
(1.38307 0.00513255 0)
(1.38458 0.00493313 0)
(1.38604 0.00474193 0)
(1.38744 0.00455857 0)
(1.38879 0.00438271 0)
(1.39008 0.00421399 0)
(1.39132 0.00405211 0)
(1.36885 0.00715703 0)
(1.37213 0.00687112 0)
(1.37528 0.00659743 0)
(1.37829 0.00633537 0)
(1.38118 0.0060844 0)
(1.38395 0.00584399 0)
(1.3866 0.00561367 0)
(1.38915 0.00539298 0)
(1.3916 0.00518147 0)
(1.39394 0.00497873 0)
(1.3962 0.00478437 0)
(1.39836 0.00459801 0)
(1.40043 0.00441929 0)
(1.40243 0.00424788 0)
(1.40434 0.00408346 0)
(1.40618 0.00392571 0)
(1.40795 0.00377435 0)
(1.40965 0.00362911 0)
(1.41129 0.00348971 0)
(1.41286 0.00335589 0)
(1.37734 0.00533202 0)
(1.38112 0.00512173 0)
(1.38476 0.00492008 0)
(1.38824 0.00472669 0)
(1.39159 0.00454122 0)
(1.3948 0.00436332 0)
(1.39789 0.00419269 0)
(1.40085 0.004029 0)
(1.40369 0.00387198 0)
(1.40642 0.00372133 0)
(1.40905 0.00357678 0)
(1.41157 0.00343808 0)
(1.41399 0.00330498 0)
(1.41632 0.00317725 0)
(1.41855 0.00305465 0)
(1.4207 0.00293696 0)
(1.42277 0.002824 0)
(1.42476 0.00271557 0)
(1.42667 0.00261145 0)
(1.4285 0.00251146 0)
(1.38252 0.00328896 0)
(1.38665 0.00316042 0)
(1.39062 0.00303701 0)
(1.39444 0.00291853 0)
(1.3981 0.00280478 0)
(1.40162 0.00269558 0)
(1.405 0.00259074 0)
(1.40825 0.0024901 0)
(1.41137 0.00239348 0)
(1.41438 0.00230073 0)
(1.41726 0.00221168 0)
(1.42003 0.00212619 0)
(1.4227 0.00204412 0)
(1.42526 0.00196532 0)
(1.42772 0.00188965 0)
(1.43009 0.001817 0)
(1.43236 0.00174723 0)
(1.43455 0.00168024 0)
(1.43666 0.00161591 0)
(1.43868 0.00155411 0)
(1.38496 0.00111145 0)
(1.38927 0.00106822 0)
(1.39341 0.00102669 0)
(1.3974 0.000986788 0)
(1.40122 0.000948464 0)
(1.4049 0.000911655 0)
(1.40844 0.000876301 0)
(1.41183 0.000842345 0)
(1.4151 0.000809736 0)
(1.41824 0.000778424 0)
(1.42126 0.000748357 0)
(1.42416 0.000719478 0)
(1.42695 0.000691737 0)
(1.42963 0.000665102 0)
(1.43221 0.000639537 0)
(1.43469 0.000614983 0)
(1.43707 0.000591379 0)
(1.43936 0.000568703 0)
(1.44157 0.000546956 0)
(1.44369 0.000526079 0)
)
;

boundaryField
{
    fixedWalls
    {
        type            noSlip;
    }
    inlet
    {
        type            fixedValue;
        value           nonuniform 0();
    }
    outlet
    {
        type            zeroGradient;
    }
    frontAndBack
    {
        type            empty;
    }
    procBoundary2to1
    {
        type            processor;
        value           nonuniform List<vector> 
20
(
(0.0852234 6.7186e-05 0)
(0.245634 0.000409467 0)
(0.39583 0.00113384 0)
(0.535519 0.00216121 0)
(0.664341 0.0034115 0)
(0.781922 0.00481203 0)
(0.887932 0.00628137 0)
(0.982151 0.00772857 0)
(1.06453 0.00905851 0)
(1.13523 0.0101781 0)
(1.19468 0.011003 0)
(1.24355 0.0114639 0)
(1.28273 0.011512 0)
(1.31331 0.0111227 0)
(1.33648 0.0102966 0)
(1.35346 0.00905885 0)
(1.36542 0.00745575 0)
(1.37339 0.00555134 0)
(1.37821 0.00342283 0)
(1.38047 0.00115645 0)
)
;
    }
    procBoundary2to3
    {
        type            processor;
        value           nonuniform List<vector> 
20
(
(0.0795458 2.88677e-05 0)
(0.229936 0.000173433 0)
(0.371557 0.000476362 0)
(0.504298 0.000902673 0)
(0.628025 0.00141816 0)
(0.7426 0.00199328 0)
(0.847905 0.00259619 0)
(0.943863 0.00319211 0)
(1.03046 0.00374479 0)
(1.10777 0.00421825 0)
(1.17596 0.00457862 0)
(1.23529 0.00479613 0)
(1.28613 0.00484726 0)
(1.32894 0.00471658 0)
(1.36422 0.00439823 0)
(1.39251 0.00389679 0)
(1.41437 0.00322746 0)
(1.43027 0.00241547 0)
(1.44063 0.00149476 0)
(1.44573 0.000505987 0)
)
;
    }
    procBoundary2to6
    {
        type            processor;
        value           nonuniform List<vector> 
20
(
(1.38496 -0.00111145 0)
(1.38927 -0.00106822 0)
(1.39341 -0.00102669 0)
(1.3974 -0.000986789 0)
(1.40122 -0.000948465 0)
(1.4049 -0.000911653 0)
(1.40844 -0.000876298 0)
(1.41183 -0.000842347 0)
(1.4151 -0.000809742 0)
(1.41824 -0.000778426 0)
(1.42126 -0.000748349 0)
(1.42416 -0.00071947 0)
(1.42695 -0.000691746 0)
(1.42963 -0.000665118 0)
(1.43221 -0.000639532 0)
(1.43469 -0.000614957 0)
(1.43707 -0.000591375 0)
(1.43936 -0.000568739 0)
(1.44157 -0.00054697 0)
(1.44369 -0.00052604 0)
)
;
    }
}


// ************************************************************************* //
