/*--------------------------------*- C++ -*----------------------------------*\
| =========                 |                                                 |
| \\      /  F ield         | OpenFOAM: The Open Source CFD Toolbox           |
|  \\    /   O peration     | Version:                                        |
|   \\  /    A nd           | Website:  www.openfoam.com                      |
|    \\/     M anipulation  |                                                 |
\*---------------------------------------------------------------------------*/
FoamFile
{
    version     2.0;
    format      ascii;
    class       volVectorField;
    location    "142";
    object      U;
}
// * * * * * * * * * * * * * * * * * * * * * * * * * * * * * * * * * * * * * //

dimensions      [0 1 -1 0 0 0 0];


internalField   nonuniform List<vector> 
1147
(
(-0.0693995 -0.0755329 3.3066e-20)
(-0.0746015 -0.0892127 1.63564e-19)
(-0.138049 -0.0499268 6.06049e-19)
(-0.184311 0.00650352 -8.67337e-19)
(-0.149006 0.0744901 3.19414e-19)
(0.0107318 0.0897737 1.46648e-19)
(0.235908 0.00951849 -8.42511e-20)
(0.605448 -0.0357929 5.32716e-19)
(0.842865 -0.0446895 -1.00369e-19)
(0.971742 -0.114243 -9.47469e-20)
(-0.0597961 -0.0128122 1.93801e-19)
(-0.0439457 0.0453382 8.79433e-19)
(0.17713 0.151672 -3.2946e-19)
(0.669674 0.170985 -4.8844e-20)
(1.0034 0.14362 4.77282e-19)
(1.2046 0.101924 -7.83766e-19)
(1.35585 0.041965 2.71276e-19)
(1.5126 0.0226624 -2.4931e-19)
(1.60166 -0.0255859 1.11362e-19)
(1.66396 -0.0910435 6.91407e-21)
(0.34137 0.198262 -7.62678e-20)
(0.799205 0.251498 -6.40257e-19)
(1.07332 0.277832 1.26104e-19)
(1.30064 0.277307 -8.04171e-20)
(1.48604 0.222082 -1.8469e-19)
(1.58668 0.148359 2.79305e-19)
(1.66748 0.0673666 -1.71249e-19)
(1.69702 0.018926 -1.52706e-19)
(1.71602 -0.0554663 7.20291e-21)
(1.71567 -0.122636 -1.73925e-20)
(1.01802 0.385772 7.37483e-20)
(1.25839 0.394667 2.76341e-19)
(1.4446 0.378218 -8.74405e-20)
(1.5549 0.33047 -8.8625e-21)
(1.63148 0.262227 1.20926e-19)
(1.66572 0.18747 2.29722e-19)
(1.69404 0.11456 3.78974e-19)
(1.68881 0.0505818 -1.32795e-19)
(1.69456 -0.0244618 -1.52824e-19)
(1.67522 -0.0921737 -2.87516e-20)
(1.32162 0.493819 6.91324e-19)
(1.46675 0.469133 -1.69102e-19)
(1.56078 0.418365 8.46849e-20)
(1.60316 0.349711 2.37808e-20)
(1.63575 0.276338 4.7025e-19)
(1.64171 0.202495 -5.79871e-20)
(1.64911 0.132548 -1.74437e-19)
(1.64277 0.0612684 3.47508e-19)
(1.63996 -0.0110299 5.86228e-21)
(1.62006 -0.0818925 6.37615e-20)
(1.43466 0.547584 -4.04286e-19)
(1.52248 0.49563 -1.71831e-19)
(1.55474 0.427189 1.6135e-19)
(1.57711 0.352139 -1.53856e-19)
(1.59336 0.278308 -8.33687e-20)
(1.59233 0.206584 4.57299e-19)
(1.5957 0.138464 -2.90253e-20)
(1.59209 0.0685123 -5.33065e-20)
(1.584 -0.000442192 -3.64587e-20)
(1.56825 -0.0692978 2.62475e-20)
(1.45734 0.566844 1.62996e-20)
(1.49843 0.498753 2.20869e-19)
(1.50827 0.42351 -1.9626e-19)
(1.53285 0.34794 3.0781e-19)
(1.54054 0.276209 -8.03741e-19)
(1.54221 0.206576 -3.12137e-19)
(1.54656 0.139842 -6.24661e-20)
(1.54376 0.0738967 3.98571e-20)
(1.53365 0.00775777 8.79253e-21)
(1.52181 -0.0580001 -1.24352e-20)
(1.43419 0.567048 -7.14635e-20)
(1.44238 0.491587 5.65676e-19)
(1.45539 0.415253 -1.68564e-19)
(1.48543 0.339836 -2.9702e-20)
(1.48632 0.273689 3.48224e-19)
(1.49273 0.203635 1.71501e-19)
(1.50138 0.139204 -1.80684e-19)
(1.49527 0.0782244 8.47147e-20)
(1.48662 0.0125865 -7.23166e-20)
(1.47832 -0.0481809 2.25995e-20)
(1.38698 0.557941 4.96109e-19)
(1.37842 0.479763 4.33313e-19)
(1.40646 0.40352 -3.5253e-19)
(1.43811 0.330521 1.34171e-21)
(1.4319 0.270768 2.14213e-19)
(1.44671 0.199553 -9.41235e-20)
(1.45872 0.138485 6.98093e-20)
(1.44818 0.0823901 2.81537e-20)
(1.44472 0.0170555 -1.05475e-19)
(1.43775 -0.0390233 6.64227e-21)
(1.32546 0.544924 -3.94432e-19)
(1.32193 0.463744 -7.16336e-19)
(1.3607 0.388398 8.73392e-19)
(1.39019 0.321314 -1.75776e-19)
(1.38436 0.264449 -2.28025e-19)
(1.40267 0.195528 -5.14954e-20)
(1.41942 0.135707 1.65323e-19)
(1.4065 0.0864729 -1.60424e-19)
(1.40503 0.0196267 -1.16358e-20)
(1.40404 -0.0301701 -6.00104e-21)
(1.27182 0.445146 3.84572e-19)
(1.31627 0.371417 -3.62438e-19)
(1.3477 0.310469 1.27635e-19)
(1.34259 0.256643 1.3599e-19)
(1.36012 0.189164 -2.80295e-20)
(1.38737 0.133708 5.63327e-20)
(1.36406 0.0876684 4.27708e-20)
(1.37347 0.0239196 6.4166e-20)
(1.36892 -0.0243871 2.67823e-20)
(1.21843 0.425494 3.84158e-21)
(1.28377 0.352317 1.73723e-19)
(1.30408 0.299306 3.76846e-20)
(1.29856 0.247315 -2.44884e-19)
(1.33257 0.181016 -2.10848e-20)
(1.34125 0.130994 -1.54412e-19)
(1.33745 0.088614 -1.45511e-20)
(1.33297 0.0248997 -2.63978e-20)
(1.34086 -0.015287 -1.61638e-20)
(1.23791 0.326408 -1.95021e-19)
(1.26184 0.294219 9.38304e-20)
(1.26737 0.232467 -2.76059e-19)
(1.29142 0.173411 -7.79269e-20)
(1.31288 0.12965 3.78939e-20)
(1.29773 0.0841888 -3.76421e-20)
(1.3076 0.0303833 4.76562e-20)
(1.30422 -0.0120195 1.1985e-21)
(1.1963 0.320052 3.14688e-19)
(1.23083 0.2685 3.65588e-20)
(1.2252 0.232599 1.58943e-19)
(1.26225 0.156011 1.58976e-19)
(1.28205 0.131281 7.97413e-20)
(1.26244 0.0802268 1.48534e-20)
(1.28709 0.0299529 -4.49445e-20)
(1.26861 -0.00309622 9.15844e-21)
(1.18353 0.262583 -7.44681e-20)
(1.1985 0.213095 -7.54172e-20)
(1.23563 0.153633 -1.18491e-19)
(1.24863 0.121415 1.65577e-21)
(1.24089 0.0820952 -3.49202e-21)
(1.26124 0.0267779 1.02462e-20)
(1.24415 0.00359606 7.75876e-21)
(1.14849 0.247884 9.35507e-20)
(1.17458 0.194106 1.41887e-19)
(1.21409 0.152613 -4.00487e-20)
(1.21336 0.107779 -1.13336e-20)
(1.2285 0.0838817 9.73437e-20)
(1.22947 0.0231744 -4.6085e-20)
(1.22774 0.00841847 5.14422e-21)
(1.1297 0.224366 5.83861e-20)
(1.1488 0.186166 -2.4092e-20)
(1.18985 0.137317 3.7246e-20)
(1.18851 0.106449 5.69226e-20)
(1.20487 0.0735055 2.54555e-20)
(1.20716 0.028572 2.97766e-20)
(1.20331 0.00594529 4.745e-21)
(1.12691 0.163371 -1.12622e-19)
(1.1644 0.129717 -5.70135e-22)
(1.16731 0.100495 -1.12487e-19)
(1.17635 0.0656939 1.51451e-20)
(1.19225 0.0315363 -2.99688e-20)
(1.17335 0.00465841 -8.07004e-21)
(1.10408 0.151167 -5.77595e-21)
(1.14036 0.120626 1.02587e-19)
(1.1426 0.0964187 -1.81563e-20)
(1.15855 0.0593286 -2.93253e-21)
(1.16606 0.0324503 -5.76208e-21)
(1.16027 0.00368763 -4.75376e-21)
(1.08156 0.140809 7.52726e-20)
(1.11557 0.105713 -2.08928e-19)
(1.12127 0.0875075 4.82965e-21)
(1.13811 0.0506054 -1.88175e-20)
(1.14745 0.0242384 1.50847e-20)
(1.14229 0.000201092 -1.12309e-21)
(0.0287376 -0.671245 -3.82258e-20)
(0.00639063 -0.636054 -8.88449e-20)
(-0.00652761 -0.554198 -3.14514e-21)
(-0.00781684 -0.432508 -1.35975e-20)
(0.000618085 -0.283643 2.85539e-19)
(0.00637394 -0.135287 -6.80331e-20)
(-0.00327116 -0.0397364 4.95891e-20)
(-0.0265884 -0.0121605 5.38238e-19)
(-0.048395 -0.0270141 4.87285e-19)
(-0.0660919 -0.0518661 -9.57607e-19)
(-0.0229852 -0.692482 4.96993e-20)
(-0.0177062 -0.689731 -9.02846e-20)
(-0.0104145 -0.643378 -2.07704e-19)
(0.0022407 -0.562205 8.01768e-20)
(0.0139097 -0.445858 -4.72666e-19)
(0.0141037 -0.300964 -1.81988e-19)
(-0.00301347 -0.157372 -1.34221e-19)
(-0.0301458 -0.0585987 8.09316e-20)
(-0.0492982 -0.0239327 -2.35747e-19)
(-0.0623839 -0.0251598 3.19418e-19)
(-0.00235009 -0.509473 3.40788e-20)
(0.0379021 -0.50309 5.81606e-20)
(0.0768054 -0.470522 2.68664e-19)
(0.115707 -0.426664 -1.80731e-19)
(0.134401 -0.354869 6.09145e-19)
(0.124243 -0.249363 1.26981e-19)
(0.0936064 -0.125677 4.40552e-19)
(0.043953 -0.0299666 1.95268e-20)
(0.00438735 0.0394119 1.07388e-19)
(0.0623353 0.113768 -5.31875e-20)
(0.0895382 -0.227663 -2.60914e-20)
(0.163504 -0.200304 -1.61759e-19)
(0.226699 -0.183192 6.76741e-20)
(0.264154 -0.14004 -1.39776e-19)
(0.264576 -0.0786951 -5.34247e-19)
(0.211069 0.00414544 1.59745e-19)
(0.145538 0.098117 -3.35798e-19)
(0.282544 0.225825 -1.1171e-18)
(0.68168 0.34207 -3.29495e-19)
(0.381386 0.118295 8.03242e-19)
(0.325621 0.18378 2.57485e-19)
(0.458359 0.319984 -5.428e-19)
(0.83308 0.46017 5.18558e-19)
(1.14361 0.506003 5.33874e-19)
(0.590825 0.427119 -1.46713e-19)
(0.909033 0.561223 -1.52218e-19)
(1.19759 0.613251 -6.11632e-19)
(1.33809 0.58826 -1.26792e-19)
(1.20537 0.718006 1.17793e-19)
(1.33265 0.68557 9.79824e-20)
(1.3858 0.625404 -2.91203e-20)
(1.33181 0.712067 2.58996e-19)
(1.37695 0.637301 1.49879e-19)
(1.34871 0.631885 -8.79647e-19)
(1.12216 0.0062612 -5.14193e-22)
(1.11231 0.000923718 4.19506e-21)
(1.11243 0.00900706 -4.68833e-21)
(1.09929 0.00195784 1.72051e-21)
(1.07817 0.00350578 1.51744e-21)
(1.06465 -0.00189171 -2.53514e-22)
(1.05908 -0.00669599 -1.36213e-21)
(1.05618 -0.0121083 3.87117e-22)
(1.05111 -0.0150433 7.55204e-22)
(1.04494 -0.0151892 -1.14504e-21)
(1.03859 -0.0138457 4.191e-22)
(1.03393 -0.0115155 -6.47755e-23)
(1.03067 -0.00942404 4.69404e-22)
(1.02824 -0.00742323 -4.41652e-22)
(1.02695 -0.00660699 2.06831e-22)
(1.02595 -0.00634162 -1.05861e-22)
(1.02478 -0.00673498 3.46828e-23)
(1.02336 -0.0071373 4.02146e-24)
(1.02189 -0.00744358 -1.1919e-24)
(1.02043 -0.00736753 1.35735e-24)
(1.01909 -0.00708359 -5.82171e-24)
(1.0179 -0.00659761 -1.64598e-23)
(1.01684 -0.00597426 4.32582e-24)
(1.01593 -0.00524354 -4.74266e-23)
(1.01516 -0.00442004 -1.6087e-23)
(1.01449 -0.00357961 3.83343e-23)
(1.01389 -0.00283669 -3.66244e-25)
(1.01344 -0.00178461 -4.06089e-24)
(1.01311 -0.00106981 3.84371e-23)
(1.01295 -0.000527055 -8.97209e-23)
(1.12875 0.0281547 -2.87801e-20)
(1.09252 0.0238214 8.61196e-21)
(1.06573 0.0288811 2.21449e-21)
(1.05144 0.0196525 7.59657e-22)
(1.04762 0.0214943 -2.95351e-22)
(1.04342 0.0179855 -5.58771e-22)
(1.0375 0.0174349 -2.23011e-21)
(1.03454 0.0141196 3.43816e-21)
(1.03517 0.0100118 9.83639e-22)
(1.0366 0.00567284 -3.29075e-21)
(1.03728 0.00210477 1.36732e-22)
(1.03591 -0.000538369 -8.67559e-23)
(1.03318 -0.00237165 3.44729e-22)
(1.02999 -0.00396629 -3.90532e-22)
(1.0266 -0.00530056 -1.57268e-22)
(1.02399 -0.00630772 4.15174e-22)
(1.02205 -0.00705463 2.39401e-23)
(1.02101 -0.00749697 -1.32938e-22)
(1.02026 -0.0076738 9.65693e-23)
(1.01948 -0.0074846 -2.8451e-23)
(1.01862 -0.00711964 3.96212e-23)
(1.01776 -0.00656106 6.06191e-23)
(1.0169 -0.00590847 -2.62364e-24)
(1.01611 -0.00515595 9.28634e-23)
(1.01542 -0.00434067 -5.89209e-24)
(1.01479 -0.00351288 -5.06294e-23)
(1.01423 -0.00278897 4.79522e-23)
(1.0138 -0.0017652 7.18591e-24)
(1.01346 -0.00105979 -9.29751e-23)
(1.01328 -0.00052227 7.03995e-23)
(1.11756 0.0474245 3.07977e-20)
(1.09942 0.0369681 -2.7751e-22)
(1.08731 0.0385208 -1.53719e-20)
(1.07067 0.0264294 1.86774e-21)
(1.05426 0.0219302 -6.84274e-21)
(1.04645 0.0109729 7.47119e-21)
(1.04428 0.00330081 1.42552e-20)
(1.04286 -0.00318381 -8.89609e-21)
(1.03949 -0.00606464 1.13723e-21)
(1.03564 -0.00746356 3.49912e-21)
(1.03141 -0.00764181 -3.52635e-21)
(1.0284 -0.00723406 7.90919e-22)
(1.02628 -0.00650772 5.77041e-22)
(1.02454 -0.0055653 -1.33937e-21)
(1.0239 -0.00547167 2.30828e-22)
(1.02341 -0.00565331 1.40698e-22)
(1.02249 -0.00615337 4.87837e-22)
(1.02161 -0.00664455 -1.78097e-22)
(1.02072 -0.00691641 -4.91085e-23)
(1.0197 -0.00681856 -4.35787e-23)
(1.01871 -0.00656687 1.96787e-23)
(1.01773 -0.00613953 1.00947e-23)
(1.01675 -0.00558485 -8.0031e-25)
(1.01591 -0.00493292 -2.54165e-22)
(1.01519 -0.00417587 2.65254e-22)
(1.01457 -0.00338815 -2.93955e-22)
(1.01406 -0.00270438 -3.78679e-23)
(1.01366 -0.00171158 -9.17406e-23)
(1.01334 -0.00103083 -2.49607e-23)
(1.01316 -0.000512284 1.36252e-22)
(1.10286 0.087489 5.40111e-20)
(1.07563 0.0693689 -3.18834e-20)
(1.05841 0.0603427 -1.30165e-21)
(1.04695 0.0463737 5.59861e-21)
(1.03685 0.0443908 -1.00413e-20)
(1.02624 0.0392274 9.93191e-21)
(1.02063 0.0341541 6.05235e-22)
(1.02139 0.0262966 -9.44272e-21)
(1.02609 0.0178647 9.33236e-21)
(1.03024 0.0109746 1.48652e-22)
(1.03308 0.00551959 -3.11187e-21)
(1.03302 0.00188134 3.90468e-21)
(1.03086 -0.000488437 -1.58152e-21)
(1.02753 -0.00218718 -1.30351e-21)
(1.02423 -0.00360726 9.19107e-22)
(1.02183 -0.00459448 -1.14885e-21)
(1.02 -0.00547142 9.67655e-23)
(1.01956 -0.00624033 1.3339e-22)
(1.01923 -0.00662642 1.95663e-22)
(1.01884 -0.00660999 -2.15658e-23)
(1.01839 -0.00641715 1.03309e-24)
(1.01778 -0.00597704 -6.14934e-23)
(1.01705 -0.00544313 -1.91846e-22)
(1.01635 -0.00480978 2.8359e-22)
(1.01565 -0.00408372 1.3113e-22)
(1.01503 -0.00332865 -1.78656e-22)
(1.0145 -0.00267004 1.43489e-23)
(1.01406 -0.00170135 1.7632e-22)
(1.01372 -0.0010232 1.16409e-22)
(1.01351 -0.000507108 -4.71366e-23)
(1.09006 0.0942388 5.81166e-20)
(1.06512 0.0756994 7.00736e-20)
(1.04955 0.0645992 -3.19658e-20)
(1.04216 0.0417367 -8.10719e-21)
(1.03622 0.0292447 -1.22585e-20)
(1.03219 0.0172121 1.41959e-20)
(1.0292 0.0109595 -1.23256e-20)
(1.02752 0.00595213 3.03121e-22)
(1.02554 0.00358657 7.12304e-21)
(1.02478 0.000827069 -3.82109e-21)
(1.02386 -0.00132555 2.89912e-21)
(1.02372 -0.00335598 -4.09581e-22)
(1.02318 -0.00428244 -2.11531e-22)
(1.0219 -0.00479636 -5.05817e-22)
(1.02201 -0.00554691 3.02902e-22)
(1.02147 -0.00583531 3.6703e-22)
(1.02061 -0.00623081 2.19938e-22)
(1.02042 -0.00670108 -6.72017e-23)
(1.01979 -0.00674694 -7.32838e-23)
(1.01915 -0.00659083 8.75644e-23)
(1.01854 -0.00632349 -4.13243e-23)
(1.01776 -0.00586477 -8.00378e-23)
(1.01693 -0.00532435 1.22164e-22)
(1.01622 -0.00470866 -1.77134e-22)
(1.01549 -0.00398754 -1.88534e-22)
(1.01489 -0.00324543 2.31622e-22)
(1.01436 -0.00260912 -1.83034e-22)
(1.01392 -0.0016611 -1.06524e-22)
(1.01359 -0.000999029 4.20953e-23)
(1.01338 -0.000497277 -2.80993e-22)
(1.02637 0.00768386 -9.66376e-21)
(1.02801 0.00326379 2.98592e-21)
(1.02684 0.000512907 -5.43843e-21)
(1.02425 -0.00144954 2.93923e-21)
(1.02212 -0.00302982 1.62877e-22)
(1.01952 -0.00364195 7.2705e-22)
(1.01821 -0.0046723 -6.2441e-22)
(1.01846 -0.00559638 2.60367e-22)
(1.01816 -0.00593092 -5.06713e-23)
(1.01823 -0.00607312 -6.80264e-23)
(1.01813 -0.00598689 6.77265e-23)
(1.01769 -0.00558864 2.07393e-22)
(1.01715 -0.00513327 1.7302e-22)
(1.01658 -0.00456478 2.50501e-22)
(1.0159 -0.00388984 -4.75962e-22)
(1.01534 -0.00319247 3.29309e-23)
(1.01478 -0.00257847 9.2357e-23)
(1.01432 -0.00165482 3.89758e-22)
(1.01398 -0.000992905 -8.43529e-23)
(1.01374 -0.000490997 -8.1546e-23)
(1.0323 -0.158108 2.16356e-20)
(1.04622 -0.155221 9.38257e-22)
(1.05876 -0.131447 3.02235e-20)
(1.09156 -0.126103 5.36317e-20)
(1.07103 -0.11068 -4.69468e-20)
(1.12303 -0.0965456 1.89744e-20)
(1.11816 -0.0800301 3.94398e-20)
(1.13506 -0.0686092 1.49919e-20)
(1.13563 -0.0418998 -1.93638e-20)
(1.14787 -0.0281705 1.06919e-21)
(1.02918 -0.166844 -2.23908e-20)
(1.04648 -0.173842 -4.76126e-20)
(1.05088 -0.155987 1.32123e-20)
(1.09325 -0.143786 -4.87234e-20)
(1.09204 -0.129545 -1.23134e-20)
(1.10974 -0.114736 7.54023e-20)
(1.13441 -0.0915526 -1.41518e-20)
(1.14567 -0.0749623 -5.19396e-21)
(1.15173 -0.0495356 -5.14409e-21)
(1.1637 -0.0252878 -4.05044e-22)
(1.02518 -0.17342 -2.34704e-20)
(1.05292 -0.184884 3.59182e-20)
(1.05419 -0.172754 2.84874e-20)
(1.0887 -0.15866 -1.66645e-20)
(1.11252 -0.141066 -5.31687e-20)
(1.1267 -0.124916 -1.45977e-20)
(1.13962 -0.103984 -5.34552e-20)
(1.16298 -0.0786116 -2.63695e-20)
(1.1638 -0.0533142 -1.5793e-20)
(1.18583 -0.0277177 2.95403e-21)
(1.02082 -0.185457 -1.3744e-20)
(1.05648 -0.192595 1.80177e-20)
(1.07378 -0.187183 -1.09602e-19)
(1.08831 -0.169442 9.69971e-21)
(1.12407 -0.155 -1.38989e-20)
(1.13885 -0.130491 7.50239e-21)
(1.16647 -0.113889 5.98198e-20)
(1.17136 -0.0855158 -1.42398e-21)
(1.19213 -0.058495 6.60967e-20)
(1.19551 -0.032718 5.88705e-21)
(1.02005 -0.20524 -6.6723e-21)
(1.04988 -0.203651 3.62607e-20)
(1.0911 -0.201154 8.54179e-20)
(1.10042 -0.183328 5.68267e-20)
(1.13867 -0.166921 2.96041e-20)
(1.14715 -0.143554 4.16702e-20)
(1.18465 -0.12119 -1.17424e-20)
(1.18702 -0.0955423 1.9181e-20)
(1.21502 -0.0632864 -3.23218e-21)
(1.21396 -0.0399149 -8.86019e-21)
(1.03056 -0.22821 -1.83373e-20)
(1.04635 -0.221464 -7.25348e-21)
(1.09581 -0.216991 -2.45973e-20)
(1.11288 -0.200284 -9.47372e-20)
(1.15086 -0.182504 2.78838e-20)
(1.16515 -0.156893 -2.81893e-20)
(1.19762 -0.134874 -1.02195e-20)
(1.20633 -0.103202 -2.78917e-20)
(1.23145 -0.0742944 -4.39362e-21)
(1.2375 -0.0425268 1.18402e-20)
(1.03587 -0.252675 1.30036e-20)
(1.05845 -0.244114 -7.08846e-20)
(1.09784 -0.235672 4.48175e-20)
(1.12702 -0.221971 1.25389e-19)
(1.15881 -0.198937 6.06622e-20)
(1.18263 -0.174999 1.00049e-19)
(1.21259 -0.148189 4.91796e-22)
(1.22542 -0.114083 3.15094e-21)
(1.253 -0.0855254 -1.0734e-20)
(1.25728 -0.0463611 1.08884e-20)
(1.03092 -0.275519 5.19853e-20)
(1.06954 -0.270827 -1.55575e-20)
(1.10671 -0.255926 -4.21197e-20)
(1.14295 -0.24514 -1.34344e-20)
(1.17318 -0.219581 -1.11646e-19)
(1.20293 -0.192597 -4.84761e-20)
(1.2307 -0.166619 5.8049e-20)
(1.2468 -0.122511 -6.88824e-20)
(1.27997 -0.10117 5.63381e-20)
(1.27625 -0.0479528 -1.28993e-20)
(1.02536 -0.300123 -5.65533e-20)
(1.07544 -0.299793 4.1819e-20)
(1.11266 -0.279176 -4.61966e-20)
(1.16039 -0.270452 -5.54316e-21)
(1.18657 -0.239486 -9.3912e-20)
(1.23005 -0.216037 2.37678e-20)
(1.24928 -0.181886 -1.00173e-19)
(1.27545 -0.139184 8.15635e-21)
(1.30746 -0.110799 -1.50534e-20)
(1.30195 -0.0582221 -1.65081e-20)
(1.02873 -0.329259 4.99302e-20)
(1.07888 -0.329654 2.70224e-20)
(1.12188 -0.307259 -4.63661e-20)
(1.17323 -0.296034 -4.55813e-20)
(1.20191 -0.262667 1.9928e-19)
(1.25451 -0.237686 3.34283e-20)
(1.27065 -0.20176 2.48831e-20)
(1.30593 -0.15364 -1.33346e-20)
(1.33366 -0.125436 3.92692e-20)
(1.33626 -0.0650295 1.5151e-20)
(1.03699 -0.365181 -1.32747e-19)
(1.08329 -0.361355 -8.39828e-20)
(1.13608 -0.34093 1.6844e-19)
(1.18587 -0.325142 -9.96284e-20)
(1.22088 -0.288274 4.89463e-20)
(1.27558 -0.263354 -1.07043e-19)
(1.29612 -0.22002 -1.92483e-20)
(1.33344 -0.17485 -7.3924e-21)
(1.36403 -0.136048 9.07931e-21)
(1.36778 -0.0782734 -1.53987e-21)
(1.04416 -0.405705 8.44564e-20)
(1.09058 -0.395926 5.71654e-20)
(1.15494 -0.379155 -1.01789e-19)
(1.20264 -0.357873 1.70106e-20)
(1.24657 -0.31882 2.28066e-20)
(1.30006 -0.290834 -1.8425e-20)
(1.32618 -0.242137 1.66e-20)
(1.36631 -0.196302 3.07958e-20)
(1.39504 -0.150401 -1.62962e-20)
(1.40761 -0.0909251 -4.06328e-20)
(1.04643 -0.451012 -1.94898e-21)
(1.09884 -0.43504 -3.24384e-20)
(1.17189 -0.421756 3.42428e-21)
(1.22297 -0.394703 3.18688e-20)
(1.27452 -0.354645 9.19698e-20)
(1.32885 -0.321491 5.3338e-20)
(1.36127 -0.268076 6.85964e-20)
(1.4029 -0.220076 -3.55229e-20)
(1.43227 -0.166617 -5.87964e-20)
(1.45021 -0.105924 4.60213e-20)
(1.04811 -0.499016 4.12435e-21)
(1.11002 -0.480382 3.42867e-20)
(1.18821 -0.466461 -5.08758e-20)
(1.24632 -0.435325 -2.17983e-20)
(1.30517 -0.393655 -2.92081e-19)
(1.36073 -0.354501 -1.16852e-19)
(1.40139 -0.297584 -2.12964e-19)
(1.44327 -0.244647 7.85107e-20)
(1.47456 -0.184811 2.23232e-20)
(1.49791 -0.121397 -3.14592e-20)
(1.04939 -0.553351 -2.63966e-20)
(1.12351 -0.534463 -1.2949e-20)
(1.20409 -0.517726 3.66915e-20)
(1.27156 -0.481654 -1.70214e-19)
(1.33717 -0.437828 -2.61532e-20)
(1.39446 -0.391124 1.27025e-19)
(1.44395 -0.331571 1.90246e-19)
(1.48564 -0.272505 -1.84424e-19)
(1.52028 -0.205539 8.11982e-20)
(1.54726 -0.139934 -1.44075e-21)
(1.05495 -0.614777 -7.94581e-20)
(1.14202 -0.595273 1.66202e-19)
(1.22768 -0.574598 1.29422e-20)
(1.30302 -0.534024 -1.85383e-20)
(1.37718 -0.485483 4.16201e-19)
(1.43613 -0.429494 -2.40068e-19)
(1.49328 -0.367127 -1.69656e-20)
(1.53577 -0.300697 1.08775e-19)
(1.57238 -0.228986 1.33209e-19)
(1.60248 -0.157949 1.41764e-20)
(1.05884 -0.687564 1.01762e-19)
(1.15629 -0.669697 -1.39442e-19)
(1.25339 -0.642839 -1.69184e-19)
(1.33608 -0.598527 2.4532e-19)
(1.42014 -0.545535 -1.24186e-19)
(1.48401 -0.475535 2.12695e-19)
(1.54671 -0.406584 3.93289e-19)
(1.5932 -0.324974 -1.0287e-19)
(1.63079 -0.248698 -1.35883e-19)
(1.66187 -0.171255 -3.81623e-20)
(1.06792 -0.76393 -3.66381e-19)
(1.17266 -0.750868 -1.07417e-19)
(1.27868 -0.721173 -5.86387e-21)
(1.37257 -0.674349 7.03783e-20)
(1.45952 -0.623226 -1.5579e-19)
(1.53672 -0.54707 2.02377e-19)
(1.59821 -0.475156 -2.65568e-19)
(1.65209 -0.380931 5.25315e-20)
(1.68318 -0.295063 -3.81497e-20)
(1.70954 -0.206362 -1.54329e-20)
(1.09822 -0.852294 2.5783e-19)
(1.21569 -0.827396 1.0749e-19)
(1.33569 -0.779128 2.59746e-20)
(1.44722 -0.715447 -8.25832e-20)
(1.53086 -0.640551 1.73121e-19)
(1.62043 -0.550906 -2.27253e-19)
(1.66378 -0.460426 -2.8661e-19)
(1.71585 -0.360565 -1.31235e-20)
(1.71359 -0.265675 1.1047e-20)
(1.71216 -0.170067 9.64479e-20)
(0.834349 -0.841215 1.55324e-19)
(0.928033 -0.821284 -5.77068e-19)
(1.02949 -0.77459 -4.92608e-20)
(1.10734 -0.717052 6.17297e-19)
(1.16804 -0.637087 -6.13173e-19)
(1.21506 -0.553105 2.43285e-19)
(1.22071 -0.456179 -1.65105e-19)
(1.22315 -0.364328 4.68859e-20)
(1.16396 -0.271201 1.07536e-19)
(1.11026 -0.183128 7.13399e-20)
(0.924924 -0.13196 -5.85418e-20)
(0.945063 -0.140727 -3.89343e-20)
(0.967816 -0.153036 1.71244e-20)
(0.993987 -0.141566 1.60529e-21)
(0.908366 -0.128028 -3.49471e-20)
(0.928703 -0.138888 -9.57846e-21)
(0.952052 -0.145998 1.06869e-20)
(0.977517 -0.161877 1.94821e-20)
(1.00229 -0.149105 4.45648e-21)
(0.868076 -0.102978 -4.47708e-20)
(0.885488 -0.119829 1.59811e-20)
(0.905193 -0.137829 2.9812e-20)
(0.927133 -0.151627 8.37549e-20)
(0.952178 -0.155296 -1.19448e-20)
(0.978566 -0.176341 -2.84224e-20)
(1.00245 -0.165001 -4.18942e-21)
(0.821406 -0.0403252 -4.47883e-21)
(0.829784 -0.0661167 4.13572e-20)
(0.841993 -0.0885844 3.85034e-21)
(0.857339 -0.112914 -4.46545e-21)
(0.876277 -0.13127 8.25483e-21)
(0.897942 -0.150298 -3.75054e-20)
(0.921141 -0.167261 -8.06469e-20)
(0.946701 -0.170052 5.802e-20)
(0.973532 -0.191557 1.57868e-20)
(0.999779 -0.186924 6.75689e-21)
(0.805029 -0.0443848 -3.73074e-21)
(0.813793 -0.0729052 9.86883e-21)
(0.826761 -0.0975166 -6.11126e-22)
(0.843394 -0.1243 -1.11625e-20)
(0.863471 -0.144841 5.44543e-20)
(0.88668 -0.164395 1.77705e-20)
(0.911493 -0.185321 4.78223e-21)
(0.938893 -0.187232 7.3531e-21)
(0.966248 -0.208822 6.8658e-21)
(0.997866 -0.209237 -3.68931e-22)
(0.786768 -0.0484558 7.27739e-21)
(0.795937 -0.0801063 2.87633e-20)
(0.80962 -0.107271 4.75208e-21)
(0.827271 -0.136401 1.65134e-20)
(0.848814 -0.159746 -8.23184e-20)
(0.873992 -0.180149 5.6301e-20)
(0.900319 -0.204462 -1.4595e-20)
(0.929665 -0.207451 -1.98507e-20)
(0.958354 -0.225381 3.52876e-22)
(0.993458 -0.231724 -2.92394e-22)
(0.765857 -0.0527943 -6.59452e-21)
(0.775629 -0.0877357 2.85728e-20)
(0.790296 -0.117735 -5.542e-21)
(0.809446 -0.149662 -1.86624e-20)
(0.832104 -0.175843 -5.09174e-21)
(0.859215 -0.197008 -5.23919e-20)
(0.888444 -0.224481 6.71884e-20)
(0.922055 -0.230415 -2.30489e-20)
(0.95343 -0.245078 -1.64245e-21)
(0.983378 -0.252154 -4.39421e-21)
(0.742706 -0.0575085 -4.35892e-22)
(0.753512 -0.0960945 -2.99951e-20)
(0.769183 -0.129114 -1.00516e-19)
(0.790077 -0.163632 8.25469e-21)
(0.815143 -0.19346 -3.80642e-20)
(0.844598 -0.215728 1.92842e-20)
(0.874736 -0.245069 -4.45683e-20)
(0.911379 -0.254895 3.47165e-20)
(0.95407 -0.268231 -6.53882e-21)
(0.97867 -0.275633 2.74333e-21)
(0.716439 -0.0628874 1.09343e-20)
(0.728201 -0.105206 1.66132e-20)
(0.745492 -0.141891 7.64505e-20)
(0.768124 -0.17941 5.72123e-21)
(0.794796 -0.212384 -1.89811e-20)
(0.828396 -0.236654 4.4072e-21)
(0.863764 -0.2678 -4.07096e-20)
(0.897847 -0.281818 1.494e-20)
(0.948515 -0.29337 -8.88034e-21)
(0.983088 -0.303906 -1.69383e-20)
(0.687277 -0.0687715 -1.75958e-20)
(0.700331 -0.11549 -3.68304e-20)
(0.718875 -0.155732 -2.04336e-20)
(0.744586 -0.196899 4.83941e-20)
(0.773924 -0.234129 4.22318e-20)
(0.808395 -0.260011 2.21844e-20)
(0.850241 -0.291697 -3.0473e-20)
(0.88923 -0.312443 -3.91485e-21)
(0.938059 -0.321236 -4.70402e-21)
(0.985485 -0.335147 2.02826e-20)
(0.654334 -0.0752873 1.84457e-20)
(0.668483 -0.126685 7.59653e-21)
(0.688884 -0.171734 2.79605e-20)
(0.716102 -0.216034 -7.65959e-20)
(0.749876 -0.257888 2.09975e-20)
(0.788321 -0.288681 -2.0514e-20)
(0.83186 -0.318106 -6.33851e-20)
(0.877274 -0.345112 -3.28606e-21)
(0.931174 -0.354667 -1.76252e-20)
(0.980281 -0.367723 3.4026e-20)
(0.617769 -0.0823127 -3.63365e-20)
(0.633283 -0.13924 6.01932e-20)
(0.655753 -0.189078 3.81351e-20)
(0.686429 -0.238492 -3.02411e-20)
(0.721774 -0.283053 2.95615e-20)
(0.765147 -0.320232 3.44899e-20)
(0.816041 -0.350618 6.72669e-20)
(0.860585 -0.378815 4.26034e-20)
(0.925025 -0.394268 6.38912e-21)
(0.97398 -0.402142 -3.07987e-20)
(0.57617 -0.090091 2.35058e-20)
(0.593011 -0.153183 2.00759e-20)
(0.617237 -0.20855 -4.02071e-20)
(0.651114 -0.263327 2.01682e-20)
(0.693106 -0.313212 -1.11375e-19)
(0.735154 -0.353839 -1.13934e-20)
(0.796313 -0.389335 -1.40478e-20)
(0.845572 -0.416055 2.38327e-20)
(0.914281 -0.439031 -1.33628e-21)
(0.969497 -0.442355 7.64078e-20)
(0.529917 -0.0984791 -4.17029e-21)
(0.548509 -0.168864 -4.78014e-20)
(0.576038 -0.2309 -1.93015e-20)
(0.610241 -0.290268 8.69702e-20)
(0.66009 -0.346621 1.98849e-19)
(0.709252 -0.392627 -2.90336e-20)
(0.769367 -0.431776 -5.0031e-20)
(0.83321 -0.460585 -6.7887e-21)
(0.900961 -0.485878 1.21288e-20)
(0.968454 -0.489464 1.14238e-20)
(0.47649 -0.108058 -1.52764e-20)
(0.495775 -0.186014 6.43683e-20)
(0.527647 -0.256171 -2.66578e-20)
(0.566162 -0.323423 -3.51604e-20)
(0.614838 -0.382124 -2.10622e-19)
(0.67895 -0.438621 1.06767e-19)
(0.739027 -0.478645 4.78802e-20)
(0.817652 -0.514621 -1.68945e-20)
(0.887354 -0.539215 -8.82365e-21)
(0.966367 -0.546752 -4.67172e-20)
(0.417015 -0.118295 1.09772e-20)
(0.437861 -0.206414 2.62808e-20)
(0.472687 -0.282929 5.10737e-21)
(0.518168 -0.361678 -6.80709e-20)
(0.569865 -0.423317 1.20137e-19)
(0.640437 -0.488509 -1.57273e-19)
(0.708452 -0.53106 1.89618e-20)
(0.795323 -0.574136 4.21642e-21)
(0.877276 -0.597669 3.68662e-20)
(0.966009 -0.610799 1.48376e-19)
(0.347055 -0.129724 1.51088e-20)
(0.367092 -0.228838 7.64804e-21)
(0.408322 -0.315824 5.73222e-20)
(0.457835 -0.404348 -7.57442e-20)
(0.518093 -0.475324 1.36085e-19)
(0.592204 -0.546999 3.39573e-20)
(0.673191 -0.595101 2.42732e-20)
(0.764157 -0.644232 -1.14664e-20)
(0.858973 -0.668641 -1.79046e-20)
(0.959258 -0.685444 -6.01824e-20)
(0.26936 -0.142479 -1.29074e-20)
(0.288309 -0.252794 -4.14271e-20)
(0.33622 -0.352362 -1.38888e-19)
(0.392474 -0.448322 1.16293e-19)
(0.463595 -0.533393 -1.51212e-19)
(0.545558 -0.609024 -3.22599e-20)
(0.636228 -0.66467 -2.56473e-20)
(0.739095 -0.719675 -7.72606e-21)
(0.84532 -0.743554 4.61355e-20)
(0.953743 -0.766962 9.18213e-20)
(0.173527 -0.158069 1.82571e-20)
(0.188051 -0.28619 -5.73392e-21)
(0.242418 -0.401978 1.6375e-20)
(0.304296 -0.510051 4.7467e-20)
(0.384275 -0.612844 1.20604e-19)
(0.48388 -0.696729 -8.98421e-21)
(0.590186 -0.764995 1.27826e-20)
(0.704945 -0.81907 -2.5804e-20)
(0.840668 -0.847466 7.50165e-20)
(0.956126 -0.863179 -2.50147e-20)
(0.0609819 -0.151164 6.94523e-21)
(0.0737282 -0.26917 -3.56478e-20)
(0.116372 -0.377726 3.84307e-20)
(0.166657 -0.483928 1.39202e-20)
(0.232037 -0.582875 -7.65674e-21)
(0.315745 -0.665334 -4.64921e-20)
(0.406795 -0.742001 1.44179e-20)
(0.503434 -0.791782 5.15236e-20)
(0.617404 -0.830373 -1.03157e-19)
(0.714733 -0.845653 1.51542e-19)
(0.973103 -0.109645 -4.36504e-21)
(0.935859 -0.139053 1.14392e-20)
(0.951529 -0.149453 -4.22881e-20)
(0.977708 -0.137129 -1.09202e-20)
(0.995807 -0.105936 0)
(0.999803 -0.105016 0)
(1.00023 -0.0973977 0)
(1.00652 -0.0885419 0)
(1.01502 -0.0795451 0)
(1.02328 -0.0710219 0)
(1.02921 -0.0643453 0)
(1.03132 -0.0586793 0)
(1.03017 -0.0529585 0)
(1.0273 -0.0477841 0)
(1.02431 -0.0428784 0)
(1.02237 -0.0387044 0)
(1.02187 -0.0350558 0)
(1.02189 -0.0314536 0)
(1.02229 -0.0280359 0)
(1.02272 -0.0248966 0)
(1.02269 -0.0221906 0)
(1.02184 -0.0197297 0)
(1.02044 -0.017498 0)
(1.01887 -0.0154373 0)
(1.01752 -0.013557 0)
(1.01635 -0.0117996 0)
(1.01535 -0.0101603 0)
(1.01442 -0.00861444 0)
(1.01356 -0.00715112 0)
(1.01273 -0.00577253 0)
(1.01206 -0.00434353 0)
(1.01157 -0.00252878 0)
(1.01049 -0.00128555 0)
(1.01032 -0.000548709 0)
(1.00309 -0.159819 0)
(1.01454 -0.128704 0)
(1.0214 -0.110068 0)
(1.02431 -0.099407 0)
(1.0304 -0.0901923 0)
(1.03685 -0.0821348 0)
(1.04065 -0.0741737 0)
(1.04102 -0.0666213 0)
(1.03781 -0.0597337 0)
(1.03251 -0.0532571 0)
(1.02714 -0.0475318 0)
(1.02357 -0.0424656 0)
(1.02218 -0.0380372 0)
(1.02251 -0.0340539 0)
(1.02368 -0.0302187 0)
(1.02456 -0.0266569 0)
(1.02485 -0.0234186 0)
(1.02407 -0.0205701 0)
(1.02255 -0.0180502 0)
(1.02068 -0.0158457 0)
(1.01894 -0.013859 0)
(1.01744 -0.0120441 0)
(1.01617 -0.0103339 0)
(1.01506 -0.00872996 0)
(1.01406 -0.00722114 0)
(1.01312 -0.00581168 0)
(1.01236 -0.00439211 0)
(1.01186 -0.00252356 0)
(1.01097 -0.00125619 0)
(1.01082 -0.000555867 0)
(1.03682 -0.1381 -1.11384e-20)
(1.03375 -0.115559 9.38409e-21)
(1.02851 -0.102973 -1.15588e-20)
(1.03046 -0.0903556 1.89983e-20)
(1.03589 -0.0801456 -1.40033e-20)
(1.04211 -0.0715191 -4.89224e-21)
(1.04631 -0.0650055 7.53735e-21)
(1.04713 -0.0597275 4.37161e-21)
(1.04481 -0.0543024 -1.17318e-20)
(1.04055 -0.0488536 1.00615e-20)
(1.03587 -0.0432432 -8.47244e-21)
(1.03245 -0.0380207 6.96448e-21)
(1.03053 -0.0335066 -3.77688e-21)
(1.02941 -0.0293174 5.35313e-23)
(1.02872 -0.0258048 1.99528e-21)
(1.02805 -0.0227626 1.38096e-21)
(1.02706 -0.0203416 -8.12853e-22)
(1.02546 -0.0182086 2.32908e-22)
(1.02346 -0.0163263 -2.06706e-22)
(1.02138 -0.0145497 -9.99794e-23)
(1.01954 -0.0128961 5.69739e-23)
(1.01793 -0.0112982 -1.80117e-22)
(1.01656 -0.00977551 3.78412e-22)
(1.01532 -0.00831254 -4.18617e-22)
(1.01421 -0.00690503 3.1103e-22)
(1.01317 -0.00558625 -2.69599e-23)
(1.01233 -0.00424152 -2.55285e-22)
(1.01182 -0.00240863 1.02261e-22)
(1.0112 -0.0011968 -1.32718e-23)
(1.01107 -0.000551231 1.63497e-22)
(1.05113 -0.123935 1.47125e-20)
(1.04725 -0.105134 1.22588e-20)
(1.0523 -0.0959066 -2.53257e-20)
(1.05776 -0.0870194 3.43663e-20)
(1.06298 -0.0800191 -3.26442e-21)
(1.06559 -0.0737242 -1.15856e-20)
(1.06391 -0.0674516 8.59388e-21)
(1.05955 -0.0605894 -1.88707e-21)
(1.05337 -0.0539879 8.75264e-21)
(1.04645 -0.0476694 -3.89078e-21)
(1.04049 -0.0418948 -1.10255e-20)
(1.03653 -0.0370056 1.40922e-20)
(1.03446 -0.0327345 -7.33133e-21)
(1.03362 -0.0291206 -1.04434e-21)
(1.03325 -0.0258817 4.3937e-21)
(1.03238 -0.023006 -4.58236e-21)
(1.03094 -0.0204615 1.75863e-21)
(1.02875 -0.0182199 2.71688e-22)
(1.0262 -0.0162128 -1.14945e-21)
(1.02362 -0.0143971 2.78822e-22)
(1.02133 -0.0127075 -8.26131e-23)
(1.01936 -0.0111138 -9.56449e-23)
(1.01767 -0.00958754 1.63598e-22)
(1.01619 -0.00812791 9.71156e-23)
(1.01489 -0.00673584 4.40998e-22)