/*--------------------------------*- C++ -*----------------------------------*\
| =========                 |                                                 |
| \\      /  F ield         | OpenFOAM: The Open Source CFD Toolbox           |
|  \\    /   O peration     | Version:                                        |
|   \\  /    A nd           | Website:  www.openfoam.com                      |
|    \\/     M anipulation  |                                                 |
\*---------------------------------------------------------------------------*/
FoamFile
{
    version     2.0;
    format      ascii;
    class       volVectorField;
    location    "115";
    object      U;
}
// * * * * * * * * * * * * * * * * * * * * * * * * * * * * * * * * * * * * * //

dimensions      [0 1 -1 0 0 0 0];


internalField   nonuniform List<vector> 
1150
(
(0.860004 0.0405251 -4.62144e-21)
(0.848822 0.0436027 1.06303e-20)
(0.83647 0.0474411 -5.98095e-21)
(0.865923 0.0615451 -3.05896e-21)
(0.855914 0.0660014 2.51462e-21)
(0.844881 0.0715369 -2.90106e-20)
(0.874489 0.0808189 -5.26835e-21)
(0.866186 0.0864707 3.90954e-20)
(0.856857 0.0935203 -4.87017e-20)
(0.885262 0.100734 1.4465e-21)
(0.879115 0.107696 1.1823e-20)
(0.898877 0.117684 5.90538e-21)
(0.895281 0.125204 9.37999e-20)
(0.913586 0.135513 -2.58392e-20)
(1.00014 -0.00208932 -1.97626e-22)
(1.00539 0.00648322 -5.71841e-23)
(1.00071 0.00888438 3.69532e-23)
(1.00145 0.00170101 -1.53714e-22)
(1.00064 -0.00062917 4.1393e-23)
(1.00033 0.00489043 1.78636e-22)
(0.999315 -0.00325229 -1.63596e-22)
(0.999208 0.0027236 1.09616e-23)
(0.996843 0.00786909 -9.56309e-23)
(0.995512 0.00441499 1.49378e-22)
(0.993276 0.00749988 -1.02835e-22)
(0.991224 0.0117706 3.70699e-23)
(0.988513 0.00777932 -3.48814e-22)
(0.987159 0.00946118 2.83071e-22)
(0.983781 0.00880536 -2.25095e-22)
(0.980623 0.00987858 4.90286e-22)
(0.9772 0.00840763 3.08293e-23)
(0.973295 0.00957682 -1.01114e-21)
(0.968691 0.00974631 1.07512e-21)
(0.96367 0.0113693 -3.17859e-22)
(0.958295 0.0121958 7.55457e-22)
(0.952 0.0143098 -1.90894e-21)
(0.944941 0.0159772 2.53168e-22)
(0.937238 0.0187849 1.19317e-21)
(0.928741 0.0209972 3.27438e-22)
(0.919307 0.0242864 -3.3057e-21)
(0.908961 0.0268492 2.68994e-21)
(0.897755 0.0305701 -1.51643e-22)
(0.885588 0.0334957 5.44288e-22)
(0.872542 0.0376321 2.73395e-21)
(1.00065 -0.00349094 8.46147e-22)
(1.00631 0.00859872 -1.33145e-22)
(0.998496 0.00736714 -5.25204e-22)
(1.00015 0.00319623 2.2162e-22)
(1.00189 -0.00217292 -3.92223e-22)
(1.00016 0.00657421 6.40572e-22)
(1.00052 -0.00463635 -2.50188e-22)
(1.00094 0.00484881 -5.01082e-22)
(0.996976 0.0069046 4.16552e-22)
(0.995208 0.00647114 -7.47448e-22)
(0.993345 0.00759247 3.49894e-22)
(0.990563 0.0134627 -2.46657e-22)
(0.986963 0.00768851 3.96145e-22)
(0.986998 0.0117296 -2.35346e-22)
(0.983511 0.00931865 2.08944e-21)
(0.980514 0.0122235 -3.22694e-21)
(0.977694 0.00968446 2.87261e-21)
(0.974034 0.0128924 2.25515e-21)
(0.970292 0.0119672 -2.85312e-21)
(0.965008 0.0156994 2.90704e-21)
(0.960583 0.0159648 -4.61542e-21)
(0.954096 0.0203371 -1.58546e-21)
(0.94789 0.0218154 -1.18818e-21)
(0.94001 0.0270932 -1.9975e-21)
(0.932133 0.0294806 5.36791e-21)
(0.922781 0.0355743 1.04278e-21)
(0.912878 0.0388067 -2.87855e-21)
(0.902004 0.0457323 6.60192e-21)
(0.890103 0.0496191 3.6339e-22)
(0.87767 0.057456 -7.63095e-21)
(1.00137 -0.00503914 -1.40564e-21)
(1.00688 0.0110265 -2.52659e-22)
(0.996158 0.00598616 -1.73883e-22)
(0.998922 0.00423918 -1.03872e-21)
(1.00331 -0.00370521 1.75079e-22)
(0.999967 0.00812119 -1.4658e-21)
(1.00195 -0.00628646 1.22888e-21)
(1.00241 0.0075205 1.42906e-21)
(0.997012 0.00573126 -1.05794e-21)
(0.994795 0.00855588 -1.56282e-21)
(0.993214 0.00806695 1.39399e-21)
(0.9896 0.0146575 -1.70835e-21)
(0.985517 0.00759277 3.07349e-21)
(0.98692 0.013936 -5.47284e-22)
(0.983215 0.00917254 -1.05677e-21)
(0.98053 0.0143057 1.93589e-21)
(0.978483 0.010268 -6.72431e-21)
(0.974915 0.0157849 9.314e-21)
(0.972122 0.0133854 -1.38925e-21)
(0.966629 0.0192983 -2.73244e-23)
(0.963152 0.0188328 -2.68625e-21)
(0.956453 0.0255617 1.50622e-22)
(0.951205 0.0266153 -5.7871e-21)
(0.943219 0.0343397 1.16096e-20)
(0.936106 0.0367206 1.38731e-21)
(0.926887 0.0456121 -8.60481e-21)
(0.917756 0.049179 3.34286e-21)
(0.907253 0.0593151 -1.90221e-24)
(0.896257 0.0640335 -6.93272e-21)
(0.884538 0.0754902 1.44237e-20)
(1.00235 -0.00652511 9.28232e-22)
(1.00701 0.0135296 6.35764e-22)
(0.993657 0.00489249 3.06711e-22)
(0.997797 0.00475048 2.62206e-21)
(1.00503 -0.00514241 3.45635e-22)
(0.999704 0.00921166 -7.92029e-22)
(1.00366 -0.00768141 1.97714e-23)
(1.00359 0.0102234 -7.59676e-22)
(0.996751 0.00471105 1.471e-21)
(0.994268 0.0108234 -8.24162e-22)
(0.99277 0.00877961 -1.66364e-21)
(0.988283 0.0155429 1.06139e-21)
(0.984502 0.00736387 1.32455e-21)
(0.986752 0.0160935 -2.97429e-21)
(0.983066 0.00870721 6.40288e-21)
(0.980848 0.0161074 -8.68449e-21)
(0.979533 0.0109379 4.36892e-21)
(0.975965 0.0183744 -6.35751e-21)
(0.974146 0.0149518 3.31189e-21)
(0.968545 0.0231047 7.08468e-21)
(0.966069 0.0218986 -9.92456e-21)
(0.959081 0.0310884 1.26932e-20)
(0.9549 0.0317255 -1.40018e-20)
(0.946741 0.0420924 5.70015e-21)
(0.940651 0.0444572 7.23001e-21)
(0.931422 0.0561627 9.29588e-21)
(0.923463 0.0602074 -3.14912e-20)
(0.913388 0.0734508 6.35675e-21)
(0.903674 0.079285 -1.49911e-21)
(0.89319 0.0943078 -4.6144e-21)
(1.00358 -0.00815165 3.9309e-22)
(1.00666 0.0164366 -3.80892e-22)
(0.991029 0.0038428 5.85871e-22)
(0.996891 0.00475926 -9.67528e-22)
(1.00703 -0.00653938 8.71171e-22)
(0.999479 0.0102235 -5.88108e-22)
(1.0056 -0.00930252 6.73999e-23)
(1.00431 0.0137502 -2.64878e-21)
(0.996328 0.00339286 2.15938e-21)
(0.993511 0.0136342 1.6385e-21)
(0.991874 0.00939704 -2.83809e-21)
(0.986644 0.016164 -7.15462e-22)
(0.98405 0.00729363 3.47882e-21)
(0.98677 0.0176365 -2.26992e-21)
(0.982975 0.00797165 8.35252e-22)
(0.981616 0.0176398 -1.01649e-21)
(0.981037 0.0107451 8.78282e-22)
(0.977375 0.0207965 -3.1699e-22)
(0.976582 0.0155822 -8.07092e-22)
(0.970774 0.0264037 1.25446e-20)
(0.969496 0.0242819 -1.09261e-20)
(0.961968 0.0359395 -1.09974e-20)
(0.958988 0.0362021 -2.20721e-21)
(0.950598 0.0490103 3.03912e-20)
(0.945767 0.0514728 1.71607e-20)
(0.936681 0.0657309 -1.71111e-20)
(0.930063 0.0700849 1.137e-20)
(0.920757 0.0863397 -2.25341e-20)
(0.912765 0.0925918 1.22426e-20)
(0.903857 0.11123 -8.4609e-20)
(1.00505 -0.00953151 -2.05748e-21)
(1.00581 0.0192326 8.08123e-22)
(0.988313 0.00308731 -1.39994e-21)
(0.996279 0.00395406 1.28846e-21)
(1.00954 -0.00764016 -1.66544e-21)
(0.999128 0.0105833 8.18718e-22)
(1.00776 -0.0100778 5.38866e-22)
(1.00461 0.0168441 9.21221e-22)
(0.995355 0.00271184 2.8102e-23)
(0.99275 0.0164296 -3.28745e-21)
(0.990331 0.0102277 8.46568e-22)
(0.98503 0.0159157 1.06349e-21)
(0.984328 0.00734909 6.18315e-21)
(0.986588 0.0190459 -6.0459e-21)
(0.983705 0.00697967 2.78426e-21)
(0.98254 0.019399 4.04669e-21)
(0.98266 0.0109749 -4.0436e-21)
(0.979183 0.0230879 -9.19804e-21)
(0.979234 0.0170757 -4.22025e-21)
(0.97322 0.0301998 1.59699e-20)
(0.97284 0.0274518 6.42486e-21)
(0.96526 0.0417455 -3.61521e-21)
(0.963194 0.041308 5.46548e-21)
(0.95462 0.056982 4.67915e-21)
(0.951048 0.0588107 -2.00775e-20)
(0.942161 0.076168 -2.51856e-20)
(0.93734 0.0801401 1.23712e-20)
(0.928449 0.0998835 5.88456e-20)
(0.922882 0.106375 -8.34392e-20)
(0.915569 0.128471 9.22229e-20)
(1.00681 -0.0110721 1.03197e-21)
(1.00421 0.022536 -1.06235e-21)
(0.98574 0.00210643 -1.68316e-21)
(0.996237 0.00271989 1.07217e-21)
(1.01242 -0.00877066 6.93787e-22)
(0.998961 0.0111073 -1.62398e-21)
(1.00996 -0.0111793 1.47224e-21)
(1.00418 0.0211412 1.36613e-21)
(0.994099 0.00113777 -1.81283e-22)
(0.991951 0.0206319 -1.1264e-21)
(0.988374 0.00976674 4.18479e-21)
(0.983183 0.0159982 -3.001e-21)
(0.985858 0.00715249 5.59564e-21)
(0.9867 0.0192923 -9.31543e-21)
(0.984678 0.00608101 1.11655e-20)
(0.984758 0.0206659 -4.74171e-21)
(0.984889 0.00974295 -9.17128e-21)
(0.980827 0.0253621 -5.4183e-21)
(0.982761 0.0169524 -3.60878e-21)
(0.976217 0.0339096 -1.71243e-21)
(0.976666 0.0289056 2.73294e-20)
(0.968294 0.0469326 -2.92438e-20)
(0.967633 0.0453294 5.43726e-22)
(0.958837 0.0640429 1.8946e-20)
(0.956449 0.0652797 -1.63741e-20)
(0.948074 0.0851383 1.02699e-20)
(0.945021 0.0891745 3.82218e-20)
(0.938376 0.110823 -6.54279e-20)
(0.934318 0.117562 4.82898e-20)
(0.930731 0.141915 1.44126e-20)
(1.00909 -0.0121361 3.20451e-23)
(1.00149 0.0255034 8.44617e-22)
(0.98336 0.00141914 1.65232e-21)
(0.996977 0.000289343 1.10432e-21)
(1.01577 -0.00918252 -3.70919e-23)
(0.998521 0.0108646 -2.32865e-21)
(1.01257 -0.010702 -1.29666e-21)
(1.00273 0.0241809 3.65379e-21)
(0.992532 0.00104205 -4.65644e-21)
(0.990616 0.0239074 2.0918e-21)
(0.986687 0.010009 -6.23134e-22)
(0.982044 0.0143028 8.98881e-21)
(0.987649 0.00794396 -1.84488e-21)
(0.986871 0.0190897 -1.89808e-21)
(0.986427 0.00584759 -6.81116e-21)
(0.986499 0.0218405 -5.73158e-21)
(0.988236 0.010793 2.05699e-20)
(0.982755 0.0273841 -7.48915e-21)
(0.985605 0.0190394 -6.89917e-21)
(0.979449 0.0380341 -2.01273e-21)
(0.98048 0.033775 1.71311e-20)
(0.971847 0.0527196 -6.84201e-21)
(0.971534 0.051735 9.71142e-21)
(0.963386 0.0715096 6.20004e-21)
(0.961806 0.0733976 -5.07675e-20)
(0.954719 0.0936762 9.04722e-21)
(0.953055 0.098283 -6.79671e-21)
(0.947887 0.121983 9.52523e-22)
(0.94779 0.127943 3.9034e-20)
(1.01176 -0.0133527 8.71258e-22)
(0.997846 0.029018 -4.22734e-22)
(0.98047 0.000166596 -8.99994e-22)
(0.998781 -0.00224864 1.24699e-21)
(1.01915 -0.00979237 1.32286e-21)
(0.997671 0.0111187 -2.42267e-22)
(1.0155 -0.0106517 -1.52627e-21)
(0.999308 0.0285427 2.07136e-21)
(0.992249 -0.000495681 -9.67904e-22)
(0.986454 0.0290689 2.30562e-22)
(0.985912 0.0075088 9.10122e-22)
(0.981387 0.0141113 -4.92395e-21)
(0.990209 0.00692929 3.09767e-21)
(0.985727 0.0182418 1.42323e-21)
(0.990014 0.00524197 -8.36513e-21)
(0.986707 0.02209 1.06811e-20)
(0.991925 0.00895004 -9.91548e-21)
(0.98549 0.030562 2.0433e-20)
(0.988923 0.0172652 -1.39984e-20)
(0.981912 0.0431743 9.87162e-21)
(0.983946 0.0329661 7.1778e-22)
(0.973822 0.0607545 -3.25889e-20)
(0.976022 0.0526828 9.45085e-21)
(0.964947 0.0814025 4.38764e-21)
(0.968596 0.0759653 1.66823e-20)
(0.957694 0.104647 -1.81716e-20)
(0.964738 0.103014 -1.69877e-21)
(0.955674 0.132027 2.26182e-20)
(0.96249 0.136665 1.43274e-20)
(1.01398 -0.0137415 -9.13756e-22)
(0.995767 0.0318373 2.68284e-22)
(0.976517 -0.0011019 -1.3262e-21)
(1.00255 -0.00650287 2.42224e-22)
(1.02181 -0.00871041 8.61784e-23)
(0.996915 0.0104819 1.49963e-22)
(1.01766 -0.00838618 -4.95245e-22)
(0.99796 0.0311619 6.87978e-22)
(0.988831 0.000782663 -4.34765e-21)
(0.989988 0.0318516 5.89711e-21)
(0.978182 0.00562343 4.81557e-21)
(0.987647 0.0126936 -5.09093e-21)
(0.991321 0.00839562 -8.9555e-21)
(0.988448 0.0167217 1.66142e-20)
(0.988145 0.00732275 -2.0094e-20)
(0.992638 0.0218233 1.45324e-20)
(0.991531 0.0121188 -1.9613e-21)
(0.988501 0.0320619 -1.50253e-20)
(0.993856 0.0229591 1.02046e-20)
(0.985074 0.0474868 1.04815e-20)
(0.987141 0.0421574 9.90638e-21)
(0.977338 0.0650854 -2.53945e-20)
(0.977811 0.0640433 -1.84832e-20)
(0.972224 0.0847276 5.23481e-20)
(0.968328 0.0861397 -3.45157e-20)
(0.972085 0.104051 -4.33513e-22)
(0.9645 0.108423 -1.31972e-20)
(0.977188 0.127269 5.24079e-20)
(1.01933 -0.0147889 0)
(0.989257 0.0356132 0)
(0.980408 -0.0028002 0)
(1.00045 -0.0105645 0)
(1.02664 -0.008268 0)
(0.990991 0.0101816 0)
(1.02327 -0.00730127 0)
(0.991196 0.0343955 0)
(0.993803 -0.00129439 0)
(0.984376 0.0365368 0)
(0.983124 0.00170044 0)
(0.989637 0.0101142 0)
(0.996168 0.0071365 0)
(0.983094 0.0157752 0)
(0.996123 0.00493104 0)
(0.988905 0.0197784 0)
(0.999171 0.010043 0)
(0.987838 0.0322625 0)
(1.00143 0.018093 0)
(0.986291 0.053198 0)
(0.995413 0.0347957 0)
(0.976684 0.0752082 0)
(0.989191 0.0530524 0)
(0.968303 0.0982327 0)
(0.984966 0.0717735 0)
(0.966456 0.117831 0)
(0.991556 0.095888 0)
(0.971717 0.140948 0)
(1.0226 -0.0149352 0)
(0.981083 0.0379275 0)
(0.99255 -0.0030686 0)
(0.992764 -0.0150469 0)
(1.02679 -0.00667798 0)
(0.98527 0.00936772 0)
(1.02237 -0.00562462 0)
(0.984115 0.0359887 0)
(0.999413 0.000546983 0)
(0.972371 0.0382667 0)
(0.996858 5.67646e-05 0)
(0.983662 0.0100433 0)
(0.996911 0.00877887 0)
(0.974638 0.0153038 0)
(1.0025 0.00661116 0)
(0.980163 0.0162473 0)
(1.00234 0.0138161 0)
(0.987532 0.0280986 0)
(1 0.0233684 0)
(0.986143 0.0503096 0)
(0.99291 0.0389438 0)
(0.979471 0.0768181 0)
(0.990485 0.0554052 0)
(0.97003 0.100149 0)
(0.99251 0.0708066 0)
(0.969445 0.11917 0)
(1.00401 0.0929794 0)
(0.980315 0.13731 0)
(1.01869 -0.014772 0)
(0.979722 0.0392875 0)
(1.00535 -0.00343805 0)
(0.986368 -0.0178524 0)
(1.01968 -0.00508757 0)
(0.984816 0.00811666 0)
(1.01031 -0.00357066 0)
(0.985373 0.0374774 0)
(0.996623 0.00245228 0)
(0.972101 0.0376635 0)
(1.00373 -0.00139622 0)
(0.977555 0.0094589 0)
(0.997313 0.0125767 0)
(0.971849 0.0106827 0)
(0.998839 0.00864315 0)
(0.979409 0.0122108 0)
(0.995837 0.0162364 0)
(0.986905 0.0235127 0)
(0.992699 0.0297185 0)
(0.985798 0.0462309 0)
(0.982641 0.0462657 0)
(0.984407 0.072255 0)
(0.981609 0.0621908 0)
(0.981884 0.0946174 0)
(0.986206 0.0749504 0)
(0.985251 0.110278 0)
(0.999988 0.0929369 0)
(0.997262 0.123729 0)
(1.00937 -0.0140443 0)
(0.986512 0.0383957 0)
(1.01417 -0.00222415 0)
(0.983792 -0.0191607 0)
(1.00935 -0.00403238 0)
(0.988245 0.00758216 0)
(0.994954 -0.00142104 0)
(0.99247 0.0364396 0)
(0.993742 0.00553631 0)
(0.982066 0.0350308 0)
(1.00421 0.000598691 0)
(0.976346 0.00757657 0)
(1.00258 0.0165518 0)
(0.976628 0.00713204 0)
(0.99198 0.0121915 0)
(0.983909 0.00847917 0)
(0.986603 0.0191437 0)
(0.985302 0.0201667 0)
(0.986828 0.0341954 0)
(0.986506 0.0461323 0)
(0.977707 0.0494148 0)
(0.986699 0.0694008 0)
(0.979484 0.0636131 0)
(0.98995 0.0921999 0)
(0.985921 0.0731536 0)
(0.996326 0.103728 0)
(1.00081 0.0881555 0)
(1.00812 0.112359 0)
(1.00089 -0.0132256 0)
(0.994472 0.0359349 0)
(1.02065 -0.000176185 0)
(0.982395 -0.0188509 0)
(0.99987 -0.00325661 0)
(0.991879 0.00741373 0)
(0.984178 -3.07311e-05 0)
(0.999111 0.0337272 0)
(0.996284 0.00813483 0)
(0.990908 0.0319896 0)
(1.00639 0.00406622 0)
(0.977883 0.0047312 0)
(1.00833 0.0187553 0)
(0.984708 0.00744755 0)
(0.986809 0.0149648 0)
(0.986748 0.00626108 0)
(0.979908 0.0215625 0)
(0.983579 0.0193047 0)
(0.982865 0.0345355 0)
(0.988479 0.045979 0)
(0.980533 0.050874 0)
(0.991412 0.0688767 0)
(0.983895 0.0617896 0)
(0.996339 0.0895264 0)
(0.992214 0.0706956 0)
(1.00283 0.0963473 0)
(1.00812 0.0829078 0)
(1.01316 0.101327 0)
(0.9958 -0.0122493 0)
(0.999789 0.031748 0)
(1.02657 0.00320225 0)
(0.979493 -0.0167359 0)
(0.992869 -0.00319344 0)
(0.994163 0.00723847 0)
(0.978963 0.000992615 0)
(1.0034 0.0291979 0)
(1.00126 0.0105139 0)
(0.995842 0.0294786 0)
(1.01166 0.00859338 0)
(0.978951 0.00211694 0)
(1.01071 0.0189839 0)
(0.99118 0.0108794 0)
(0.985054 0.0174878 0)
(0.986751 0.0076 0)
(0.976974 0.021788 0)
(0.981805 0.0198312 0)
(0.980862 0.0324539 0)
(0.990161 0.0447885 0)
(0.985279 0.0495166 0)
(0.998124 0.0686139 0)
(0.991719 0.0585229 0)
(1.00376 0.0856654 0)
(1.00164 0.0691823 0)
(1.00941 0.0883359 0)
(1.01666 0.0781518 0)
(1.01823 0.0895543 0)
(0.993371 -0.0112909 0)
(1.00305 0.0262946 0)
(1.02993 0.0076845 0)
(0.977138 -0.0130355 0)
(0.988852 -0.00414182 0)
(0.994811 0.00725329 0)
(0.978636 0.00116952 0)
(1.00552 0.0236053 0)
(1.0052 0.0121155 0)
(0.999043 0.0276077 0)
(1.01642 0.0130048 0)
(0.981819 0.0011953 0)
(1.00767 0.0177844 0)
(0.995046 0.0157273 0)
(0.98713 0.0197641 0)
(0.985703 0.0121322 0)
(0.978939 0.0199733 0)
(0.980181 0.0206298 0)
(0.981552 0.0297107 0)
(0.991074 0.0414948 0)
(0.988725 0.0449433 0)
(1.00335 0.0658907 0)
(1.0004 0.0559419 0)
(1.01049 0.0794988 0)
(1.0115 0.0681102 0)
(1.01659 0.0805605 0)
(1.02533 0.074151 0)
(1.02507 0.0787987 0)
(0.992518 -0.0104156 0)
(1.00524 0.0202652 0)
(1.02879 0.0126978 0)
(0.977782 -0.0082215 0)
(0.987626 -0.00575899 0)
(0.99459 0.00738699 0)
(0.981813 0.00014394 0)
(1.00636 0.0185311 0)
(1.00708 0.012653 0)
(1.00183 0.0258396 0)
(1.01873 0.0174727 0)
(0.9868 0.00238309 0)
(1.0008 0.0166666 0)
(0.996557 0.0196509 0)
(0.991674 0.0209782 0)
(0.986038 0.0180645 0)
(0.9849 0.0185486 0)
(0.980802 0.0214615 0)
(0.983969 0.0260134 0)
(0.99235 0.0382715 0)
(0.991269 0.0391367 0)
(1.00575 0.0602247 0)
(1.00662 0.0529315 0)
(1.01586 0.0711213 0)
(1.01956 0.0656833 0)
(1.02391 0.0732368 0)
(1.03334 0.0703088 0)
(1.03338 0.0702437 0)
(0.993148 -0.00974987 0)
(1.00596 0.0145222 0)
(1.02352 0.0174367 0)
(0.981724 -0.0028994 0)
(0.989286 -0.00778151 0)
(0.993295 0.00761024 0)
(0.987187 -0.00176937 0)
(1.00575 0.0143687 0)
(1.00721 0.0124878 0)
(1.00391 0.0234634 0)
(1.01745 0.0222426 0)
(0.994312 0.00567181 0)
(0.994272 0.0154681 0)
(0.995577 0.0221428 0)
(0.996579 0.0209925 0)
(0.987322 0.0229763 0)
(0.992825 0.0186882 0)
(0.984403 0.0225988 0)
(0.988507 0.0224256 0)
(0.994021 0.0352795 0)
(0.994842 0.0331839 0)
(1.00574 0.0524188 0)
(1.01066 0.0483211 0)
(1.01879 0.0617673 0)
(1.02484 0.061018 0)
(1.02904 0.0651549 0)
(1.03855 0.0658449 0)
(1.04055 0.0625706 0)
(0.995065 -0.00930847 0)
(1.00454 0.0100766 0)
(1.01669 0.0209653 0)
(0.987587 0.0015677 0)
(0.992884 -0.0088684 0)
(0.991796 0.00771281 0)
(0.992437 -0.0043505 0)
(1.00327 0.0116187 0)
(1.00623 0.0117718 0)
(1.00441 0.0208622 0)
(1.01348 0.0258955 0)
(1.00254 0.0100777 0)
(0.991763 0.0164159 0)
(0.993978 0.0226727 0)
(1.00003 0.0200841 0)
(0.989901 0.0254703 0)
(0.998859 0.0191195 0)
(0.989988 0.0243156 0)
(0.994658 0.0198101 0)
(0.996228 0.0324066 0)
(0.999564 0.0284544 0)
(1.00513 0.0441987 0)
(1.01309 0.0424614 0)
(1.01881 0.0521323 0)
(1.02707 0.0536419 0)
(1.03076 0.0565511 0)
(1.03989 0.0588718 0)
(1.04413 0.0557633 0)
(0.997499 -0.00889651 0)
(1.00151 0.00688554 0)
(1.01029 0.0230779 0)
(0.993984 0.00485322 0)
(0.997149 -0.00885601 0)
(0.991248 0.00782168 0)
(0.996254 -0.0065486 0)
(0.999446 0.00987861 0)
(1.00405 0.0108448 0)
(1.00367 0.0180829 0)
(1.00768 0.028073 0)
(1.00893 0.0145504 0)
(0.99385 0.0180598 0)
(0.99458 0.0228811 0)
(1.00222 0.0194085 0)
(0.993585 0.0254033 0)
(1.00303 0.0194129 0)
(0.995118 0.0256535 0)
(1.00113 0.0183105 0)
(0.998971 0.029778 0)
(1.00482 0.0246633 0)
(1.00522 0.0370892 0)
(1.01428 0.0360246 0)
(1.01755 0.0432359 0)
(1.02624 0.0453137 0)
(1.02982 0.0476469 0)
(1.03711 0.0506294 0)
(1.04316 0.0484899 0)
(0.999527 -0.00838126 0)
(0.998317 0.00511655 0)
(1.00572 0.0235163 0)
(0.999163 0.00616134 0)
(1.00032 -0.00739939 0)
(0.992753 0.00806658 0)
(0.998325 -0.008024 0)
(0.996141 0.00942879 0)
(1.00195 0.00964393 0)
(1.00163 0.0156813 0)
(1.00233 0.0279229 0)
(1.01145 0.0172225 0)
(0.998433 0.020841 0)
(0.997332 0.0225597 0)
(1.00374 0.0194623 0)
(0.998805 0.0241042 0)
(1.00582 0.0188666 0)
(1.00007 0.0258777 0)
(1.00613 0.0178822 0)
(1.0026 0.027643 0)
(1.00934 0.0220797 0)
(1.0067 0.0319581 0)
(1.01506 0.0301882 0)
(1.01617 0.0364653 0)
(1.02392 0.0368905 0)
(1.02704 0.0400067 0)
(1.03255 0.0414229 0)
(1.03872 0.0415692 0)
(1.00092 -0.00766894 0)
(0.996136 0.00396323 0)
(1.00194 0.0228943 0)
(1.00287 0.00665498 0)
(1.00188 -0.00581117 0)
(0.995531 0.00850098 0)
(1.00014 -0.00830338 0)
(0.994388 0.00924399 0)
(1.00055 0.00883916 0)
(0.999801 0.0136593 0)
(0.998063 0.0264433 0)
(1.01015 0.0182801 0)
(1.00188 0.0221576 0)
(1.00133 0.0222884 0)
(1.00488 0.0201352 0)
(1.00382 0.0225963 0)
(1.00857 0.0181217 0)
(1.00429 0.0249997 0)
(1.00978 0.0177523 0)
(1.00625 0.0259442 0)
(1.01298 0.0200769 0)
(1.0096 0.0284128 0)
(1.01603 0.0255386 0)
(1.01608 0.0314348 0)
(1.02192 0.0301491 0)
(1.02461 0.0336339 0)
(1.02856 0.0335501 0)
(1.03372 0.0349196 0)
(1.00152 -0.00686182 0)
(0.994666 0.00386623 0)
(0.999707 0.0212778 0)
(1.00563 0.00577594 0)
(1.00149 -0.00381413 0)
(0.998871 0.00864534 0)
(1.00113 -0.00763439 0)
(0.993812 0.00997452 0)
(1.00046 0.00837517 0)
(0.998077 0.0126592 0)
(0.996438 0.0241855 0)
(1.00734 0.0177108 0)
(1.00378 0.0224125 0)
(1.00482 0.020734 0)
(1.00523 0.0206825 0)
(1.0079 0.0210294 0)
(1.01025 0.0174662 0)
(1.0085 0.0233598 0)
(1.01135 0.0174991 0)
(1.00965 0.0246283 0)
(1.01481 0.0185117 0)
(1.01275 0.026063 0)
(1.01718 0.0219818 0)
(1.01674 0.0280583 0)
(1.0211 0.0251007 0)
(1.02276 0.029069 0)
(1.02631 0.0272944 0)
(1.02947 0.0295095 0)
(1.00159 -0.00576907 0)
(0.99411 0.00364325 0)
(0.998672 0.0188949 0)
(1.0073 0.00550558 0)
(1.00034 -0.00227925 0)
(1.00142 0.00853226 0)
(1.00154 -0.00596144 0)
(0.994019 0.010123 0)
(1.00126 0.00848448 0)
(0.997597 0.0119447 0)
(0.99713 0.0216386 0)
(1.00534 0.0167997 0)
(1.0045 0.0212317 0)
(1.00754 0.0190085 0)
(1.00515 0.0202517 0)
(1.01027 0.0201147 0)
(1.0107 0.0168175 0)
(1.01162 0.0216483 0)
(1.01189 0.0168419 0)
(1.01171 0.0232016 0)
(1.01543 0.0173312 0)
(1.01498 0.0238127 0)
(1.01821 0.0194509 0)
(1.0176 0.0249393 0)
(1.02103 0.0216714 0)
(1.02169 0.0252171 0)
(1.02529 0.0229892 0)
(1.02684 0.0249483 0)
(1.00144 -0.00472114 0)
(0.99442 0.00406431 0)
(0.99784 0.0160547 0)
(1.00803 0.00461496 0)
(0.999565 -0.000537346 0)
(1.0029 0.00797097 0)
(1.00157 -0.00391522 0)
(0.995008 0.0104676 0)
(1.00203 0.00836424 0)
(0.99838 0.0118795 0)
(0.998631 0.018976 0)
(1.00474 0.0155266 0)
(1.0046 0.0198876 0)
(1.00911 0.0168633 0)
(1.00515 0.0192638 0)
(1.01108 0.0188216 0)
(1.01057 0.016365 0)
(1.01354 0.0198954 0)
(1.01236 0.0159055 0)
(1.013 0.0215407 0)
(1.01539 0.0162734 0)
(1.01617 0.0216841 0)
(1.01883 0.0173208 0)
(1.01839 0.0221526 0)
(1.02106 0.0188468 0)
(1.02118 0.0221243 0)
(1.02445 0.019644 0)
(1.02528 0.0214688 0)
(1.0008 -0.00359745 0)
(0.995503 0.00424348 0)
(0.998092 0.0130332 0)
(1.00756 0.00435619 0)
(0.998924 0.000797043 0)
(1.00385 0.00747481 0)
(1.00081 -0.0017072 0)
(0.996678 0.0100544 0)
(1.00276 0.00828282 0)
(0.999617 0.0115436 0)
(1.00062 0.0167082 0)
(1.00482 0.0144678 0)
(1.00486 0.0181796 0)
(1.00979 0.0154605 0)
(1.00537 0.0175142 0)
(1.01129 0.0176455 0)
(1.01009 0.0155884 0)
(1.01443 0.0182673 0)
(1.0127 0.0148258 0)
(1.01398 0.0194666 0)
(1.01499 0.0152803 0)
(1.01668 0.0194167 0)
(1.01877 0.0156929 0)
(1.01888 0.0193147 0)
(1.02078 0.0166357 0)
(1.02072 0.019133 0)
(1.02336 0.0171416 0)
(1.02391 0.0184197 0)
(1.0001 -0.0027198 0)
(0.997154 0.00453521 0)
(0.998276 0.0105218 0)
(1.00643 0.00387965 0)
(0.998882 0.00190245 0)
(1.00389 0.00697335 0)
(1.00066 1.23872e-05 0)
(0.998714 0.00960872 0)
(1.00313 0.00802087 0)
(1.00113 0.0111268 0)
(1.0018 0.0149375 0)
(1.00526 0.0134641 0)
(1.00521 0.0165494 0)
(1.00992 0.014281 0)
(1.00614 0.0156954 0)
(1.01116 0.0161073 0)
(1.00993 0.0144802 0)
(1.0145 0.0165279 0)
(1.01305 0.0137093 0)
(1.01455 0.0172409 0)
(1.01473 0.0141792 0)
(1.01654 0.0172906 0)
(1.0182 0.014285 0)
(1.01884 0.0168924 0)
(1.02014 0.0147023 0)
(1.02021 0.0166097 0)
(1.02202 0.0149931 0)
(1.02261 0.0159763 0)
(0.999585 -0.00194457 0)
(0.99834 0.0044843 0)
(0.998659 0.00844501 0)
(1.0056 0.00379112 0)
(0.999137 0.00278872 0)
(1.00344 0.00638536 0)
(1.00074 0.00118406 0)
(1.00025 0.00889461 0)
(1.00334 0.00787108 0)
(1.00261 0.0105265 0)
(1.00259 0.0134781 0)
(1.00571 0.0125256 0)
(1.00571 0.0147837 0)
(1.00981 0.0132649 0)
(1.00702 0.0139179 0)
(1.01091 0.0145472 0)
(1.00994 0.0132595 0)
(1.01407 0.0148519 0)
(1.01309 0.0126142 0)
(1.01479 0.0151421 0)
(1.01449 0.0129912 0)
(1.01626 0.0152162 0)
(1.01739 0.0130348 0)
(1.0185 0.0146959 0)
(1.01937 0.013061 0)
(1.01971 0.0142891 0)
(1.0208 0.013128 0)
(1.0214 0.0137417 0)
(0.999164 -0.00139112 0)
(0.999351 0.00451243 0)
(0.999277 0.00675447 0)
(1.00432 0.00335695 0)
(0.999693 0.00374221 0)
(1.00343 0.0059355 0)
(1.00071 0.00167401 0)
(1.00122 0.0083152 0)
(1.00347 0.00748858 0)
(1.00374 0.00988002 0)
(1.00344 0.0122839 0)
(1.00611 0.0115454 0)
(1.00618 0.0133053 0)
(1.00952 0.0120875 0)
(1.00758 0.0123869 0)
(1.01057 0.0129043 0)
(1.00981 0.011856 0)
(1.01336 0.0131052 0)
(1.01295 0.0112951 0)
(1.01474 0.0131584 0)
(1.01444 0.0115392 0)
(1.01603 0.0132672 0)
(1.01679 0.0116765 0)
(1.01808 0.012864 0)
(1.01873 0.011606 0)
(1.01927 0.0124467 0)
(1.01987 0.0115826 0)
(1.02041 0.012009 0)
(0.998813 -0.000903222 0)
(0.999886 0.00403952 0)
(1.0006 0.00566399 0)
(1.003 0.00330116 0)
(0.999556 0.00398261 0)
(1.00405 0.00566291 0)
(1.00077 0.00222147 0)
(1.0017 0.00742835 0)
(1.00383 0.0069773 0)
(1.00412 0.00891877 0)
(1.00442 0.0110431 0)
(1.00643 0.0107262 0)
(1.00653 0.0119833 0)
(1.00948 0.0111589 0)
(1.00781 0.0110546 0)
(1.01042 0.0114211 0)
(1.00955 0.0103857 0)
(1.01264 0.0113113 0)
(1.01249 0.00978499 0)
(1.01425 0.0110852 0)
(1.01417 0.00989428 0)
(1.01545 0.0112006 0)
(1.01614 0.0101989 0)
(1.01725 0.011099 0)
(1.01796 0.0103049 0)
(1.0185 0.0109127 0)
(1.01902 0.0103904 0)
(1.01942 0.010716 0)
(0.998826 -0.000454405 0)
(0.99998 0.00313429 0)
(1.00131 0.00501275 0)
(1.00245 0.00383203 0)
(0.999385 0.00351502 0)
(1.00431 0.00507993 0)
(1.00137 0.00292028 0)
(1.0021 0.00642677 0)
(1.00414 0.0064641 0)
(1.00428 0.00799677 0)
(1.0049 0.00962833 0)
(1.00659 0.00991558 0)
(1.00661 0.0106588 0)
(1.00943 0.0102838 0)
(1.00805 0.00990563 0)
(1.01041 0.0100563 0)
(1.00957 0.00909787 0)
(1.01201 0.00957646 0)
(1.01202 0.00835453 0)
(1.0135 0.00911911 0)
(1.01363 0.00825259 0)
(1.01455 0.00919131 0)
(1.01514 0.00859747 0)
(1.01597 0.009359 0)
(1.01668 0.00891229 0)
(1.01722 0.00947172 0)
(1.01773 0.00918066 0)
(1.01813 0.00954694 0)
(0.999161 -3.58588e-05 0)
(1.00002 0.00231405 0)
(1.00081 0.00418627 0)
(1.00251 0.00443609 0)
(1.00001 0.00310765 0)
(1.00387 0.00425227 0)
(1.00203 0.00344422 0)
(1.00256 0.00547945 0)
(1.00413 0.00589235 0)
(1.0046 0.00723627 0)
(1.00498 0.00816279 0)
(1.00662 0.00900135 0)
(1.00661 0.00925205 0)
(1.00917 0.00925541 0)
(1.00834 0.00877926 0)
(1.0103 0.00872748 0)
(1.00975 0.0079816 0)
(1.01153 0.00806429 0)
(1.01161 0.00722105 0)
(1.01274 0.00753586 0)
(1.01291 0.00695172 0)
(1.01359 0.00754408 0)
(1.01399 0.00720092 0)
(1.01463 0.00781852 0)
(1.01514 0.00756405 0)
(1.01571 0.00808541 0)
(1.01612 0.00789155 0)
(1.01661 0.00829154 0)
(0.999442 0.000186464 0)
(1.0003 0.00194542 0)
(1.00012 0.00342613 0)
(1.00236 0.00430422 0)
(1.00089 0.002894 0)
(1.00331 0.00362933 0)
(1.00244 0.00348123 0)
(1.00308 0.00477098 0)
(1.00393 0.00527923 0)
(1.00491 0.00644315 0)
(1.00498 0.00693162 0)
(1.00654 0.00786649 0)
(1.00665 0.00788488 0)
(1.00872 0.00803159 0)
(1.00846 0.00758101 0)
(1.00998 0.00746233 0)
(1.00976 0.00690672 0)
(1.01106 0.00684275 0)
(1.01115 0.00626676 0)
(1.01206 0.00637866 0)
(1.01218 0.00596055 0)
(1.01281 0.00631641 0)
(1.01299 0.00607113 0)
(1.01356 0.00651841 0)
(1.01383 0.00633623 0)
(1.01442 0.00674632 0)
(1.01469 0.00658391 0)
(1.01524 0.00691279 0)
(0.999548 0.000245184 0)
(1.00053 0.0018185 0)
(0.999931 0.00281134 0)
(1.00208 0.00366279 0)
(1.00139 0.00275162 0)
(1.00297 0.00318729 0)
(1.00263 0.00316047 0)
(1.0034 0.00418121 0)
(1.00378 0.00460347 0)
(1.00504 0.00557754 0)
(1.00503 0.00589119 0)
(1.00643 0.00661856 0)
(1.00662 0.00660359 0)
(1.00826 0.00672581 0)
(1.00833 0.00637046 0)
(1.00953 0.00626006 0)
(1.00953 0.00583599 0)
(1.01055 0.00577022 0)
(1.01065 0.00535357 0)
(1.01145 0.00541761 0)
(1.01154 0.00509318 0)
(1.01216 0.00531283 0)
(1.01224 0.00510032 0)
(1.0128 0.00539676 0)
(1.01291 0.00523887 0)
(1.01347 0.00551844 0)
(1.0136 0.00537135 0)
(1.01413 0.00559121 0)
(0.999568 0.000228804 0)
(1.0006 0.00165477 0)
(1.0001 0.00236993 0)
(1.00186 0.00296586 0)
(1.00152 0.00245452 0)
(1.00282 0.00278242 0)
(1.00269 0.00271038 0)
(1.00353 0.00355599 0)
(1.00374 0.00391245 0)
(1.005 0.00465846 0)
(1.00505 0.0049132 0)
(1.00629 0.00540379 0)
(1.0065 0.00539532 0)
(1.00785 0.00547411 0)
(1.00802 0.00518899 0)
(1.00904 0.00511455 0)
(1.00913 0.00476992 0)
(1.01001 0.00473123 0)
(1.01014 0.00440592 0)
(1.01086 0.00445092 0)
(1.01096 0.00419578 0)
(1.01156 0.00432726 0)
(1.01164 0.0041514 0)
(1.01216 0.00432929 0)
(1.01223 0.00420252 0)
(1.01271 0.00437262 0)
(1.01278 0.00425899 0)
(1.01322 0.00438958 0)
(0.999592 0.000185053 0)
(1.00057 0.00142846 0)
(1.00025 0.0019454 0)
(1.00173 0.00236024 0)
(1.00154 0.00205252 0)
(1.00272 0.00234863 0)
(1.00267 0.0022234 0)
(1.00355 0.0029068 0)
(1.0037 0.00317604 0)
(1.00486 0.00372744 0)
(1.00501 0.00391224 0)
(1.00611 0.00424976 0)
(1.00633 0.00422275 0)
(1.00746 0.00427895 0)
(1.00767 0.00402452 0)
(1.00857 0.00398653 0)
(1.0087 0.00368928 0)
(1.00948 0.00367394 0)
(1.00961 0.00339196 0)
(1.01028 0.00342068 0)
(1.0104 0.0031963 0)
(1.01097 0.00327658 0)
(1.01106 0.00311892 0)
(1.01155 0.0032296 0)
(1.01161 0.00311856 0)
(1.01205 0.00322947 0)
(1.01208 0.0031394 0)
(1.01246 0.00323153 0)
(0.999623 0.000150143 0)
(1.00053 0.00110771 0)
(1.00033 0.00149255 0)
(1.00163 0.00180098 0)
(1.00151 0.00163061 0)
(1.00258 0.00186665 0)
(1.00261 0.00178063 0)
(1.0035 0.00227398 0)
(1.00361 0.00247592 0)
(1.00467 0.00285695 0)
(1.00489 0.00298427 0)
(1.00589 0.00321461 0)
(1.0061 0.00318935 0)
(1.00707 0.00322539 0)
(1.00729 0.00302583 0)
(1.00811 0.00299699 0)
(1.00825 0.0027727 0)
(1.00894 0.00275237 0)
(1.00907 0.00252304 0)
(1.00968 0.00250162 0)
(1.00981 0.00229075 0)
(1.01037 0.00228161 0)
(1.01049 0.00210194 0)
(1.01097 0.00209523 0)
(1.01105 0.00193391 0)
(1.01147 0.00191887 0)
(1.01152 0.00177356 0)
(1.01187 0.00176017 0)
(0.999653 0.000123488 0)
(1.0005 0.000701984 0)
(1.00039 0.000996173 0)
(1.00158 0.00116314 0)
(1.00152 0.0011035 0)
(1.0025 0.0012122 0)
(1.00257 0.00118297 0)
(1.00344 0.00143073 0)
(1.00352 0.00157434 0)
(1.0045 0.00176794 0)
(1.00477 0.00186018 0)
(1.00572 0.00197612 0)
(1.00591 0.00198366 0)
(1.00676 0.00198867 0)
(1.00698 0.00188163 0)
(1.00775 0.00184385 0)
(1.00789 0.00172303 0)
(1.00847 0.00168969 0)
(1.00852 0.00155676 0)
(1.00901 0.00150764 0)
(1.00906 0.00137304 0)
(1.00951 0.00132391 0)
(1.00954 0.00120299 0)
(1.00989 0.0011517 0)
(1.00988 0.00103533 0)
(1.01021 0.000975434 0)
(1.01025 0.000866478 0)
(1.01065 0.000813687 0)
(0.999671 4.99671e-05 0)
(1.00049 0.000246399 0)
(1.0004 0.000362692 0)
(1.0015 0.000410613 0)
(1.00145 0.000390368 0)
(1.00236 0.000405202 0)
(1.00244 0.000385685 0)
(1.00333 0.000446968 0)
(1.00341 0.000492657 0)
(1.00434 0.000544984 0)
(1.00466 0.000575257 0)
(1.00558 0.000606364 0)
(1.00578 0.000612632 0)
(1.00655 0.000609402 0)
(1.00677 0.000575098 0)
(1.00751 0.000556427 0)