/*--------------------------------*- C++ -*----------------------------------*\
| =========                 |                                                 |
| \\      /  F ield         | OpenFOAM: The Open Source CFD Toolbox           |
|  \\    /   O peration     | Version:                                        |
|   \\  /    A nd           | Website:  www.openfoam.com                      |
|    \\/     M anipulation  |                                                 |
\*---------------------------------------------------------------------------*/
FoamFile
{
    version     2.0;
    format      ascii;
    class       surfaceScalarField;
    location    "12";
    object      phi;
}
// * * * * * * * * * * * * * * * * * * * * * * * * * * * * * * * * * * * * * //

dimensions      [0 3 -1 0 0 0 0];
oriented        oriented;


internalField   nonuniform List<scalar> 
2227
(
0.00301047
0.0453283
-0.0483388
0.00601976
0.0450913
-0.0481005
0.00900015
0.0445316
-0.047512
0.0119527
0.0435422
-0.0464948
0.0148228
0.0422501
-0.0451202
-0.0432442
0.00290226
0.0424261
0.00580627
0.0421872
0.00869698
0.0416409
0.0115492
0.00282133
0.00564443
-0.000806698
0.0538397
-0.00157648
0.0538028
-0.00226912
0.0537256
-0.00284934
0.0536132
-0.0032927
0.0534764
-0.00358421
0.0533245
-0.00371866
0.0531675
-0.0036963
0.0530106
-0.00352361
0.0528603
0.0527139
-0.00320447
0.000222583
0.0536171
0.000421743
0.0536036
0.000580608
0.0535668
0.000686193
0.0535076
0.000731973
0.0534306
0.000730324
0.0533262
0.000703554
0.0531942
0.000696659
0.0530175
0.000753585
0.0528034
0.0525759
0.000891571
-0.000944262
0.0545614
-0.00187557
0.0545349
-0.00276533
0.0544565
-0.00357936
0.0543217
-0.00424846
0.0540997
-0.00470295
0.0537806
-0.00483199
0.0533233
-0.0045409
0.0527264
-0.00372094
0.0519834
0.0511235
-0.00226856
-0.000201495
0.0547629
-0.000346611
0.05468
-0.000379265
0.0544892
-0.000231889
0.0541743
0.000138073
0.0537297
0.000782595
0.0531361
0.00169814
0.0524077
0.00287611
0.0515485
0.00428596
0.0505736
0.0495234
0.00588607
-0.000558966
0.0553218
-0.00106324
0.0551843
-0.0014525
0.0548784
-0.00168669
0.0544085
-0.00173413
0.0537772
-0.00161364
0.0530156
-0.00135005
0.0521441
-0.00100465
0.0512031
-0.000621595
0.0501905
0.049124
-0.000222259
0.000399154
0.0549227
0.00080006
0.0547834
0.00119759
0.0544809
0.00158388
0.0540222
0.00191605
0.053445
0.00218568
0.052746
0.00235237
0.0519774
0.00242378
0.0511317
0.00239992
0.0502144
0.0492131
0.00231091
-0.00043567
0.0553583
-0.000882358
0.0552301
-0.00133913
0.0549377
-0.00181609
0.0544992
-0.00226846
0.0538974
-0.00269262
0.0531702
-0.00298885
0.0522737
-0.00309729
0.0512401
-0.0029035
0.0500206
0.0486352
-0.00232569
7.45415e-05
0.0552838
0.000154937
0.0551497
0.00024899
0.0548436
0.000391858
0.0543563
0.000584351
0.0537049
0.000908247
0.0528463
0.00135549
0.0518264
0.00200715
0.0505885
0.00290612
0.0491216
0.0474564
0.00408497
-0.000445947
0.0557298
-0.000867556
0.0555713
-0.00122786
0.0552039
-0.00149978
0.0546282
-0.00161216
0.0538172
-0.00155996
0.0527941
-0.00125453
0.051521
-0.000732021
0.0500659
-3.17142e-05
0.0484213
0.0465558
0.000868829
0.000101638
0.0556281
0.000236922
0.055436
0.000432421
0.0550084
0.000732435
0.0543282
0.00110935
0.0534403
0.00160164
0.0523018
0.00207953
0.0510431
0.002546
0.0495995
0.00298552
0.0479818
0.0463288
0.00321257
-0.00012018
0.0557483
-0.000227744
0.0555436
-0.000303977
0.0550847
-0.000362834
0.0543871
-0.000372183
0.0534497
-0.000393333
0.0523229
-0.000338988
0.0509888
-0.00026972
0.0495302
-0.000222961
0.047935
0.0461041
1.70296e-06
0.000317896
0.0554304
0.000626104
0.0552354
0.000917338
0.0547934
0.00120302
0.0541014
0.00144603
0.0532067
0.00169508
0.0520739
0.00187509
0.0508087
0.0020842
0.0493211
0.00227999
0.0477392
0.0458938
0.00249033
-8.51863e-05
0.0555156
-0.000179327
0.0553295
-0.000292963
0.0549071
-0.000441052
0.0542495
-0.000592165
0.0533578
-0.000773558
0.0522553
-0.000881343
0.0509165
-0.000919656
0.0493594
-0.000684915
0.0475045
0.0454597
-0.000250864
0.000136096
0.0553795
0.000260703
0.0552049
0.000384497
0.0547833
0.000519131
0.0541148
0.00067823
0.0531987
0.000929113
0.0520044
0.00125205
0.0505936
0.00181135
0.0488001
0.00246327
0.0468526
0.0443919
0.00353109
-0.000123889
0.0555034
-0.000239523
0.0553206
-0.000340228
0.054884
-0.000401397
0.054176
-0.000388932
0.0531862
-0.000291483
0.0519069
2.21515e-06
0.0502999
0.000391949
0.0484104
0.00108055
0.046164
0.0436337
0.00183879
0.000131829
0.0553715
0.000267483
0.0551849
0.000443106
0.0547084
0.000677765
0.0539413
0.00100337
0.0528606
0.00146032
0.05145
0.00200972
0.0497505
0.00273094
0.0476892
0.00345412
0.0454408
0.0427524
0.00433544
1.99674e-05
0.0553516
5.97685e-05
0.0551451
0.000130248
0.0546379
0.000265426
0.0538062
0.000470466
0.0526556
0.000759067
0.0511614
0.00115038
0.0493592
0.00156853
0.047271
0.00207793
0.0449314
0.0423493
0.00248104
0.000288629
0.0550629
0.00058545
0.0548483
0.000921073
0.0543022
0.0013086
0.0534186
0.00176183
0.0522023
0.00228455
0.0506387
0.00282309
0.0488206
0.00343919
0.0466549
0.00393507
0.0444355
0.0417809
0.00450342
0.00023051
0.0548324
0.000470247
0.0546085
0.000721251
0.0540512
0.000998991
0.0531409
0.00129508
0.0519063
0.00160381
0.0503299
0.00192439
0.0485001
0.00223302
0.0463463
0.00257542
0.0440931
0.0414698
0.00288656
0.000432709
0.0543997
0.000862124
0.0541791
0.00130265
0.0536107
0.00175554
0.052688
0.00221908
0.0514427
0.00270577
0.0498432
0.00316736
0.0480385
0.00367178
0.0458419
0.0041204
0.0436445
0.0408409
0.00474928
0.000366272
0.0540334
0.000728657
0.0538167
0.00107984
0.0532595
0.00142728
0.0523406
0.00175802
0.051112
0.00208374
0.0495175
0.00240522
0.047717
0.00274885
0.0454982
0.00320005
0.0431933
0.0403278
0.00371319
0.000511605
0.0535218
0.00100964
0.0533187
0.00150402
0.0527652
0.00199057
0.051854
0.00247651
0.050626
0.00297614
0.0490179
0.00349991
0.0471932
0.00408984
0.0449083
0.00470045
0.0425827
0.0394687
0.00555954
0.000446043
0.0530758
0.000882716
0.052882
0.00130369
0.0523442
0.00171892
0.0514388
0.00212466
0.0502203
0.00253995
0.0486026
0.00296653
0.0467666
0.00347001
0.0444048
0.00407063
0.041982
0.0387719
0.0047674
0.000569696
0.0525061
0.00112628
0.0523255
0.00168009
0.0517904
0.00223354
0.0508853
0.00279938
0.0496545
0.00339938
0.0480026
0.00405246
0.0461136
0.0048028
0.0436545
0.00563797
0.0411469
0.0377242
0.00668565
0.000526968
0.0519791
0.00104742
0.051805
0.00155848
0.0512793
0.00207879
0.050365
0.00261011
0.0491231
0.0031795
0.0474332
0.00378202
0.045511
0.00447467
0.0429618
0.00520794
0.0404136
0.0369312
0.00600093
0.000654212
0.0513249
0.00130292
0.0511563
0.00195512
0.0506271
0.00262261
0.0496975
0.00331068
0.0484351
0.00405706
0.0466868
0.00485966
0.0447084
0.00573422
0.0420873
0.00671602
0.0394318
0.0358928
0.00775447
0.000631995
0.0506929
0.00126756
0.0505207
0.00190225
0.0499924
0.00255827
0.0490415
0.00323128
0.047762
0.00394846
0.0459697
0.00470653
0.0439504
0.00551913
0.0412747
0.0063431
0.0386078
0.0350833
0.00715253
0.000755967
0.049937
0.00152238
0.0497543
0.00230356
0.0492113
0.00310833
0.0482367
0.0039403
0.0469301
0.00482097
0.045089
0.00574547
0.0430259
0.0067022
0.0403179
0.00779062
0.0375194
0.00869652
0.000742578
0.0491944
0.00150684
0.0489901
0.0022836
0.0484345
0.00308247
0.0474379
0.00390578
0.0461068
0.00474779
0.044247
0.00563366
0.04214
0.00650522
0.000855569
0.00174508
0.00266762
0.00361072
0.00459728
0.00560009
-0.00363983
0.0482639
-0.00403882
0.051547
-0.00426376
0.0549228
-0.00423506
0.0584653
-0.00399019
0.0623088
-0.00362072
0.0665256
-0.00320193
0.071119
-0.0027625
0.0760633
-0.0023243
0.081374
-0.0019011
0.087067
-0.00151166
0.0931728
-0.00116772
0.0997118
-0.00087809
0.10671
-0.000642797
0.114191
-0.000456594
0.122181
-0.000310809
0.130714
-0.000195395
0.139827
-0.000102525
0.149562
-2.71689e-05
0.159966
3.35968e-05
0.171087
8.01633e-05
0.18298
0.000112859
0.195696
0.000132318
0.209294
0.000139481
0.223833
0.000135625
0.239379
0.000122281
0.256002
0.000100674
0.273776
7.21707e-05
0.292783
3.82608e-05
0.313106
0.334838
0.000307337
0.0488482
-0.000138142
0.0519925
-0.000240518
0.0550251
-7.59067e-05
0.0583007
0.000167909
0.062065
0.000348857
0.0663446
0.000451394
0.0710164
0.000486052
0.0760286
0.000486331
0.0813737
0.000480331
0.087073
0.000490028
0.0931631
0.000529487
0.0996723
0.000599145
0.106641
0.000688856
0.114101
0.000777622
0.122092
0.000850632
0.130641
0.000895185
0.139782
0.000908362
0.149548
0.000893087
0.159981
0.00085582
0.171125
0.000804069
0.183032
0.000743242
0.195757
0.000675782
0.209361
0.000602279
0.223906
0.00052222
0.239459
0.000434637
0.256089
0.00033908
0.273872
0.000234952
0.292887
0.000122479
0.313218
0.334961
-0.00125965
0.0478393
-0.000141325
0.0508742
0.0007245
0.0541593
0.00120266
0.0578226
0.00139656
0.0618711
0.00147527
0.0662659
0.00153338
0.0709583
0.00156805
0.0759939
0.00156963
0.0813721
0.00149647
0.0871461
0.00135784
0.0933017
0.00116747
0.0998627
0.00096879
0.106839
0.000794904
0.114275
0.000680856
0.122207
0.00063344
0.130689
0.000646795
0.139769
0.000697596
0.149498
0.00075984
0.159919
0.000812356
0.171072
0.000842377
0.183002
0.000844331
0.195755
0.000817575
0.209388
0.00076379
0.22396
0.000685454
0.239537
0.000584951
0.25619
0.00046442
0.273992
0.000325388
0.293026
0.000169026
0.313375
0.33513
0.00665994
0.0470654
0.00704745
0.0504866
0.00683354
0.0543732
0.00614842
0.0585077
0.00525209
0.0627674
0.00435492
0.0671631
0.0035476
0.0717657
0.00292995
0.0766116
0.00253304
0.081769
0.00236292
0.0873163
0.00235108
0.0933136
0.0024153
0.0997985
0.00247505
0.10678
0.00248413
0.114266
0.00241487
0.122276
0.00227998
0.130824
0.00210714
0.139942
0.00192961
0.149675
0.0017673
0.160081
0.00162544
0.171214
0.00149872
0.183128
0.00137768
0.195876
0.00125362
0.209512
0.00112008
0.224094
0.000972867
0.239685
0.00081003
0.256353
0.000630595
0.274172
0.000435557
0.293221
0.00022525
0.313585
0.335355
-0.000463113
0.0473063
-0.000580308
0.0506038
-0.000441394
0.0542343
-0.000109645
0.0581759
0.000305799
0.062352
0.000734637
0.0667343
0.00110085
0.0713994
0.0013035
0.0764089
0.00129803
0.0817745
0.00115024
0.087464
0.000962214
0.0935016
0.000831818
0.0999289
0.000811564
0.1068
0.000895922
0.114181
0.00105717
0.122115
0.0012389
0.130642
0.00139649
0.139784
0.00150225
0.149569
0.00155144
0.160032
0.00155186
0.171214
0.00151364
0.183167
0.00144407
0.195946
0.00134699
0.209609
0.00122392
0.224217
0.00107581
0.239833
0.000903396
0.256525
0.000708546
0.274367
0.000492569
0.293437
0.000256363
0.313821
0.335611
0.00170313
0.047914
0.00100413
0.0513028
0.00040956
0.0548289
0.00012104
0.0584644
0.00015228
0.0623207
0.000352879
0.0665337
0.000653916
0.0710984
0.00108222
0.0759806
0.00162202
0.0812347
0.0021478
0.0869383
0.00254989
0.0930995
0.00277284
0.0997059
0.00281648
0.106756
0.00275192
0.114246
0.00263497
0.122231
0.00251512
0.130762
0.00241027
0.139889
0.00231771
0.149662
0.00222476
0.160125
0.00211924
0.171319
0.00199455
0.183291
0.00184914
0.196091
0.00168362
0.209775
0.00149808
0.224402
0.00129352
0.240037
0.00107142
0.256747
0.000831616
0.274607
0.000573019
0.293695
0.000296092
0.314098
0.335908
-0.0021896
0.047778
-0.00165114
0.0507644
-0.000640588
0.0538183
0.00047034
0.0573535
0.00129672
0.0614943
0.00175843
0.066072
0.0019157
0.0709411
0.00179242
0.0761039
0.00153029
0.0814968
0.00129325
0.0871753
0.00120719
0.0931856
0.00128471
0.0996284
0.0014625
0.106578
0.00165069
0.114058
0.0018066
0.122076
0.00191535
0.130653
0.00198043
0.139824
0.00200942
0.149633
0.00200902
0.160125
0.00197939
0.171349
0.00191716
0.183353
0.00181994
0.196188
0.0016867
0.209908
0.00152116
0.224568
0.001327
0.240231
0.00110645
0.256968
0.000861966
0.274851
0.000595734
0.293962
0.000308188
0.314386
0.336216
0.00476377
0.0470992
0.00517154
0.0503566
0.00493066
0.0540592
0.0041981
0.0580861
0.00344042
0.062252
0.00296693
0.0665454
0.00284743
0.0710606
0.00301508
0.0759363
0.00326169
0.0812502
0.00343558
0.0870014
0.00345975
0.0931614
0.0033738
0.0997144
0.0032554
0.106697
0.003152
0.114161
0.00306677
0.122161
0.00298686
0.130733
0.00289249
0.139918
0.00277932
0.149746
0.00264679
0.160258
0.00249487
0.171501
0.0023253
0.183523
0.00213793
0.196376
0.00193385
0.210112
0.00171215
0.224789
0.00147206
0.240471
0.00121376
0.257226
0.000937522
0.275127
0.000644035
0.294255
0.000332229
0.314698
0.336548
0.00124445
0.0467235
0.00148957
0.0501115
0.00164222
0.0539066
0.00186155
0.0578667
0.00207089
0.0620427
0.00213044
0.0664859
0.00196897
0.0712221
0.00173386
0.0761714
0.00157173
0.0814124
0.00156184
0.0870113
0.00169404
0.0930292
0.00187681
0.0995316
0.00205581
0.106518
0.00219941
0.114018
0.00231131
0.122049
0.00238916
0.130655
0.00243926
0.139868
0.0024542
0.149731
0.00242489
0.160287
0.00235217
0.171573
0.00223878
0.183636
0.00209003
0.196524
0.0019098
0.210292
0.00170176
0.224998
0.0014689
0.240704
0.00121404
0.257481
0.000939363
0.275402
0.000645698
0.294549
0.000332957
0.31501
0.336881
0.00292419
0.0470119
0.0027659
0.0502698
0.00294084
0.0537316
0.00308891
0.0577187
0.00309674
0.0620349
0.00315567
0.066427
0.00339169
0.0709861
0.00365581
0.0759073
0.00382248
0.0812457
0.00386436
0.0869694
0.00380562
0.0930879
0.00372724
0.09961
0.00364217
0.106603
0.00355292
0.114107
0.00345389
0.122148
0.00334404
0.130765
0.00321839
0.139994
0.00307448
0.149875
0.00291528
0.160446
0.00273756
0.171751
0.00253969
0.183834
0.00232216
0.196742
0.00208546
0.210529
0.00183123
0.225252
0.00156157
0.240974
0.00127786
0.257765
0.000980877
0.275699
0.000670117
0.294859
0.000344106
0.315336
0.337225
-0.000145338
0.047159
-0.000363701
0.0504881
-0.000704958
0.0540729
-0.000645933
0.0576596
-0.00011774
0.0615067
0.000434375
0.0658748
0.000816414
0.0706041
0.0011248
0.0755989
0.00145465
0.0809158
0.00182341
0.0866007
0.00217867
0.0927327
0.00246292
0.0993257
0.00266772
0.106398
0.00281158
0.113963
0.0028951
0.122064
0.00291996
0.13074
0.00289848
0.140015
0.00283733
0.149936
0.00273707
0.160546
0.00260259
0.171886
0.00243888
0.183998
0.0022463
0.196935
0.00202721
0.210748
0.00178592
0.225493
0.00152567
0.241234
0.00124951
0.258041
0.000959378
0.275989
0.000655559
0.295163
0.000336876
0.315655
0.337562
0.00236731
0.047282
0.00219945
0.050656
0.00232181
0.0539505
0.00250683
0.0574746
0.00265741
0.0613561
0.00294436
0.0655879
0.00330309
0.0702453
0.00357515
0.0753268
0.0037307
0.0807603
0.00378617
0.0865452
0.00380228
0.0927166
0.00382129
0.0993067
0.00382515
0.106394
0.00380013
0.113988
0.00373416
0.12213
0.00363683
0.130837
0.00350159
0.14015
0.003328
0.15011
0.00312862
0.160746
0.00290832
0.172106
0.00266826
0.184238
0.00241191
0.197191
0.00214338
0.211016
0.00186412
0.225772
0.00157579
0.241523
0.00127978
0.258337
0.000976121
0.276293
0.000663841
0.295476
0.000340324
0.315979
0.337902
-0.000188902
0.04722
0.000380504
0.0500866
0.00109236
0.0532387
0.00175429
0.0568127
0.00223061
0.0608798
0.00244233
0.0653762
0.00254222
0.0701454
0.00265562
0.0752134
0.00280604
0.0806099
0.00294744
0.0864038
0.00306657
0.0925974
0.00313708
0.0992362
0.00318981
0.106341
0.0032272
0.113951
0.00324085
0.122117
0.00322061
0.130858
0.00315837
0.140213
0.00306045
0.150208
0.00292332
0.160883
0.00274743
0.172282
0.00254086
0.184445
0.00230963
0.197422
0.0020587
0.211267
0.0017931
0.226038
0.00151676
0.241799
0.00123194
0.258622
0.00093949
0.276585
0.00063882
0.295776
0.000327421
0.31629
0.33823
0.00431
0.0464411
0.00463324
0.0497634
0.00471537
0.0531565
0.00468713
0.0568409
0.00458485
0.060982
0.00453253
0.0654285
0.00452884
0.0701491
0.0045526
0.0751897
0.0045759
0.0805866
0.00458186
0.0863978
0.00455728
0.092622
0.0044916
0.0993019
0.00438454
0.106448
0.00423414
0.114101
0.00405755
0.122293
0.00386664
0.131048
0.00366166
0.140418
0.00344176
0.150428
0.00320458
0.16112
0.00295218
0.172534
0.00268507
0.184712
0.0024054
0.197702
0.00211804
0.211555
0.00182581
0.22633
0.00153083
0.242094
0.00123439
0.258918
0.000936053
0.276883
0.000633717
0.296079
0.000323622
0.3166
0.338553
0.00215485
0.046125
0.00284908
0.0490691
0.00328552
0.0527201
0.00338426
0.0567422
0.00340704
0.0609593
0.00339892
0.0654366
0.00337794
0.0701701
0.00337824
0.0751894
0.00341283
0.080552
0.0034854
0.0863253
0.00357643
0.092531
0.00365488
0.0992234
0.00370852
0.106395
0.00370869
0.114101
0.00365905
0.122343
0.0035531
0.131154
0.00340472
0.140566
0.00322686
0.150606
0.00302071
0.161326
0.00279233
0.172763
0.00254569
0.184958
0.00228504
0.197962
0.00201436
0.211825
0.00173694
0.226608
0.00145635
0.242375
0.00117414
0.2592
0.000890249
0.277167
0.000602661
0.296366
0.000307544
0.316895
0.338861
0.00487257
0.0455879
0.00491575
0.0490259
0.00486826
0.0527676
0.00483929
0.0567712
0.00486059
0.060938
0.00499556
0.0653016
0.00512526
0.0700404
0.00518321
0.0751314
0.0051386
0.0805966
0.00503051
0.0864334
0.00487663
0.0926849
0.00472245
0.0993776
0.00455948
0.106558
0.00438664
0.114274
0.0042026
0.122527
0.00399293
0.131364
0.00375749
0.140802
0.00349551
0.150868
0.00321407
0.161608
0.00292313
0.173054
0.00262555
0.185256
0.00232609
0.198262
0.00202769
0.212124
0.00173231
0.226903
0.00144129
0.242666
0.00115476
0.259487
0.000871481
0.277451
0.000588043
0.29665
0.000299426
0.317184
0.33916
0.00227589
0.0457931
0.00245058
0.0488513
0.00281427
0.0524039
0.00321272
0.0563727
0.00345783
0.0606929
0.00349631
0.0652631
0.00353585
0.0700009
0.00366335
0.0750039
0.00383601
0.0804239
0.00399264
0.0862767
0.00408306
0.0925944
0.00409665
0.099364
0.00403998
0.106614
0.00393929
0.114374
0.00380744
0.122659
0.00364336
0.131528
0.00345567
0.140989
0.0032383
0.151085
0.00299671
0.161849
0.00273643
0.173314
0.00246342
0.185529
0.0021851
0.19854
0.00190528
0.212404
0.00162724
0.227181
0.00135321
0.24294
0.00108373
0.259756
0.00081774
0.277717
0.000551975
0.296915
0.00028134
0.317454
0.339442
0.00481999
0.0454765
0.00478475
0.0488865
0.00461873
0.0525699
0.0044476
0.0565438
0.00446452
0.0606759
0.00467934
0.0650483
0.00490431
0.0697759
0.00503937
0.0748689
0.00508895
0.0803743
0.00507709
0.0862886
0.00500725
0.0926643
0.00489057
0.0994807
0.00471563
0.106789
0.0045018
0.114588
0.00424899
0.122912
0.0039759
0.131801
0.00369195
0.141273
0.00339492
0.151382
0.00309268
0.162152
0.00278658
0.17362
0.00247987
0.185836
0.00217707
0.198843
0.00188086
0.2127
0.00159373
0.227468
0.00131638
0.243217
0.00104831
0.260024
0.000787751
0.277977
0.000530424
0.297173
0.000270248
0.317715
0.339712
0.00265837
0.0457047
0.00266657
0.0488783
0.00276594
0.0524706
0.00307586
0.0562339
0.00350827
0.0602435
0.00388915
0.0646675
0.00418652
0.0694785
0.00437115
0.0746842
0.00446593
0.0802796
0.00447681
0.0862777
0.00444018
0.0927009
0.00436181
0.0995591
0.00424707
0.106904
0.00409695
0.114738
0.00390138
0.123107
0.00367486
0.132028
0.00342262
0.141525
0.00315253
0.151652
0.00287539
0.162429
0.00259207
0.173903
0.00230788
0.18612
0.00202666
0.199124
0.00175085
0.212976
0.00148302
0.227736
0.00122427
0.243476
0.000974509
0.260274
0.000732229
0.278219
0.000493477
0.297411
0.00025201
0.317956
0.339964
0.00497145
0.0454825
0.00489432
0.0489554
0.00492597
0.0524389
0.00509358
0.0560663
0.00538398
0.0599531
0.00564701
0.0644044
0.00577255
0.069353
0.00575969
0.0746971
0.00565058
0.0803887
0.00547824
0.0864501
0.00526656
0.0929126
0.00502539
0.0998003
0.00476495
0.107165
0.00448945
0.115014
0.00419429
0.123402
0.00388978
0.132332
0.00356945
0.141846
0.0032433
0.151978
0.00291873
0.162753
0.00259848
0.174223
0.00228837
0.18643
0.00198999
0.199423
0.00170473
0.213261
0.00143367
0.228007
0.0011764
0.243733
0.000931718
0.260519
0.000697461
0.278454
0.000469252
0.29764
0.000239992
0.318185
0.340204
0.00372368
0.045472
0.00409482
0.0485843
0.0044553
0.0520784
0.00472925
0.0557924
0.00482837
0.059854
0.00484344
0.0643893
0.00485841
0.069338
0.00485967
0.0746958
0.00484371
0.0804046
0.0047908
0.086503
0.00469254
0.0930108
0.00453334
0.0999595
0.00433468
0.107363
0.00410085
0.115248
0.00384435
0.123659
0.00357414
0.132603
0.00328684
0.142133
0.00299426
0.152271
0.00269819
0.163049
0.00240343
0.174518
0.00211644
0.186717
0.0018394
0.1997
0.00157469
0.213526
0.00132329
0.228258
0.00108498
0.243971
0.000858776
0.260745
0.00064262
0.27867
0.000432785
0.297849
0.000221569
0.318396
0.340425
0.00591634
0.0451152
0.00595017
0.0485505
0.00610207
0.0519265
0.00633273
0.0555617
0.00648614
0.0597006
0.00646848
0.064407
0.00632323
0.0694833
0.00611698
0.0749021
0.00587518
0.0806464
0.00560758
0.0867706
0.00532665
0.0932918
0.00502631
0.10026
0.00470939
0.10768
0.00437286
0.115584
0.00403263
0.123999
0.00369103
0.132944
0.00334875
0.142475
0.00301498
0.152605
0.00268706
0.163377
0.00237079
0.174835
0.00206914
0.187019
0.00178354
0.199985
0.00151567
0.213793
0.00126546
0.228509
0.00103181
0.244205
0.000812837
0.260964
0.000605909
0.278877
0.000407227
0.298048
0.000208184
0.318596
0.340634
0.0050263
0.0448563
0.00560731
0.0479694
0.00595193
0.0515819
0.00599848
0.0555152
0.00583918
0.0598599
0.00563765
0.0646085
0.00548052
0.0696404
0.00537363
0.075009
0.0052525
0.0807676
0.00507435
0.0869487
0.00484722
0.0935189
0.00458669
0.10052
0.00430967
0.107957
0.00401279
0.115881
0.00370846
0.124303
0.00339315
0.133259
0.00307865
0.14279
0.00277085
0.152912
0.00246865
0.163679
0.00217822
0.175125
0.0019005
0.187296
0.00163752
0.200248
0.00139078
0.21404
0.00116029
0.228739
0.000945224
0.24442
0.000743969
0.261165
0.000554054
0.279067
0.000372019
0.29823
0.000190287
0.318777
0.340824
0.00703985
0.0445021
0.00711852
0.0478908
0.00719992
0.0515005
0.00717889
0.0555362
0.0070587
0.0599801
0.00691231
0.0647549
0.00667441
0.0698783
0.00634644
0.0753369
0.00598305
0.0811309
0.00562316
0.0873086
0.00526151
0.0938806
0.00489694
0.100885
0.0045315
0.108323
0.00416552
0.116247
0.00380463
0.124664
0.00344276
0.133621
0.0030921
0.14314
0.00275284
0.153252
0.0024281
0.164004
0.0021233
0.17543
0.00183732
0.187582
0.00157172
0.200514
0.0013263
0.214286
0.00110018
0.228965
0.00089179
0.244628
0.000698859
0.261358
0.000518456
0.279247
0.000346686
0.298402
0.000177184
0.318947
0.341001
0.00627098
0.0442321
0.0066685
0.0474933
0.00681272
0.0513563
0.00677023
0.0555787
0.0065819
0.0601684
0.00632354
0.0650133
0.00604121
0.0701606
0.0057391
0.0756391
0.00541364
0.0814564
0.00509073
0.0876315
0.00477072
0.0942006
0.00444977
0.101206
0.00412557
0.108647
0.00380003
0.116573
0.00347572
0.124989
0.00314918
0.133948
0.00283202
0.143458
0.0025207
0.153563
0.00222329
0.164302
0.00194283
0.17571
0.00167967
0.187845
0.0014359
0.200758
0.00121081
0.214511
0.00100374
0.229172
0.000813037
0.244819
0.000636677
0.261534
0.000471866
0.279412
0.000314867
0.298559
0.000160577
0.319101
0.341162
0.00790957
0.044077
0.00787535
0.0475275
0.00787893
0.0513527
0.00770429
0.0557533
0.00744768
0.060425
0.007116
0.065345
0.00672592
0.0705507
0.00631968
0.0760453
0.00590337
0.0818727
0.00548059
0.0880543
0.00505769
0.0946235
0.00464916
0.101614
0.00425332
0.109043
0.00387072
0.116955
0.00349979
0.12536
0.00314223
0.134305
0.00280159
0.143798
0.00247285
0.153892
0.00216485
0.16461
0.00187703
0.175998
0.00161121
0.188111
0.00136825
0.201001
0.00114682
0.214732
0.00094567
0.229373
0.0007624
0.245002
0.000594533
0.261702
0.000438875
0.279568
0.000291452
0.298706
0.000147448
0.319245
0.341309
0.00731242
0.0439171
0.00740039
0.0474395
0.00721887
0.0515342
0.00701036
0.0559618
0.00674758
0.0606878
0.00642549
0.0656671
0.00607826
0.0708979
0.00571817
0.0764054
0.00535418
0.0822367
0.0049886
0.0884199
0.00461705
0.094995
0.00424874
0.101983
0.00388775
0.109404
0.00353784
0.117305
0.00319656
0.125701
0.00286861
0.134633
0.00255445
0.144112
0.00225365
0.154192
0.00197295
0.16489
0.00170958
0.176261
0.00146693
0.188354
0.00124487
0.201223
0.00104272
0.214934
0.000859337
0.229557
0.00069238
0.245169
0.000539586
0.261855
0.000397889
0.279709
0.000263549
0.298841
0.000132815
0.319376
0.341442
0.00868794
0.00826666
0.00800702
0.00770539
0.00731575
0.00688425
0.00644971
0.00603205
0.00561723
0.00519797
0.00477285
0.00435492
0.00394729
0.00356004
0.00318828
0.00283731
0.00250418
0.00219275
0.00190535
0.00163977
0.00139861
0.00118004
0.000983302
0.000806609
0.000647268
0.000502633
0.000369188
0.000243318
0.000122035
)
;

boundaryField
{
    outlet
    {
        type            calculated;
        value           nonuniform 0();
    }
    upperWall
    {
        type            symmetryPlane;
        value           nonuniform 0();
    }
    lowerWall
    {
        type            symmetryPlane;
        value           uniform 0;
    }
    inlet
    {
        type            calculated;
        value           nonuniform List<scalar> 
40
(
-0.053033
-0.053033
-0.053033
-0.053033
-0.053033
-0.053033
-0.053033
-0.053033
-0.053033
-0.053033
-0.0478286
-0.051148
-0.0546978
-0.058494
-0.0625537
-0.0668951
-0.0715378
-0.0765027
-0.0818122
-0.0874902
-0.0935622
-0.100056
-0.107
-0.114426
-0.122367
-0.13086
-0.139942
-0.149655
-0.160041
-0.171148
-0.183026
-0.195729
-0.209313
-0.22384
-0.239375
-0.255988
-0.273755
-0.292754
-0.313072
-0.3348
)
;
    }
    cylinder
    {
        type            calculated;
        value           nonuniform 0();
    }
    frontAndBack
    {
        type            empty;
        value           nonuniform 0();
    }
    procBoundary0to1
    {
        type            processor;
        value           nonuniform List<scalar> 
45
(
0.0176271
0.0404399
0.0411023
0.04069
0.014339
0.0394603
0.0396047
0.0393641
0.00844998
0.0388353
0.0341774
0.0394464
0.00738831
0.0366363
0.00663781
0.0439257
0.0478608
0.0517939
0.0562635
0.0610774
0.0660986
0.0713324
0.0768231
0.0826515
0.0888391
0.0954201
0.102401
0.109811
0.117692
0.126073
0.134984
0.144446
0.154504
0.165178
0.176527
0.188595
0.201441
0.215131
0.229734
0.245329
0.262
0.279843
0.298967
0.319497
0.341564
)
;
    }
    procBoundary0to4
    {
        type            processor;
        value           nonuniform List<scalar> 
33
(
4.76394e-10
4.45224e-10
3.90319e-10
-9.1698e-10
2.29099e-10
1.24722e-09
-4.6738e-10
1.81042e-09
2.24237e-09
5.47823e-10
1.57807e-09
2.53693e-09
1.65963e-09
1.23086e-09
1.55898e-09
1.45539e-09
1.19463e-09
1.46334e-09
1.36028e-09
1.23651e-09
1.07456e-09
1.06328e-09
9.53629e-10
9.65767e-10
9.27393e-10
9.71453e-10
9.45306e-10
9.42482e-10
8.96105e-10
8.51459e-10
7.93006e-10
7.31476e-10
6.73443e-10
)
;
    }
}


// ************************************************************************* //
