/*--------------------------------*- C++ -*----------------------------------*\
| =========                 |                                                 |
| \\      /  F ield         | OpenFOAM: The Open Source CFD Toolbox           |
|  \\    /   O peration     | Version:                                        |
|   \\  /    A nd           | Website:  www.openfoam.com                      |
|    \\/     M anipulation  |                                                 |
\*---------------------------------------------------------------------------*/
FoamFile
{
    version     2.0;
    format      ascii;
    class       surfaceScalarField;
    location    "58.2";
    object      phi;
}
// * * * * * * * * * * * * * * * * * * * * * * * * * * * * * * * * * * * * * //

dimensions      [0 3 -1 0 0 0 0];
oriented        oriented;


internalField   nonuniform List<scalar> 
2201
(
-0.00291517
-0.00174924
0.00466441
-0.00139279
-0.00152238
-0.000628722
-0.000764067
-0.000254729
-0.000373994
5.19281e-05
-0.000306657
0.000388344
-0.000336416
0.000711973
-0.000323629
0.00152665
-0.000814674
0.00083217
0.000694477
0.00185767
-0.0010255
-0.00219891
-0.00354532
0.00399499
-0.000766931
-0.00295436
2.67634e-05
-0.00155776
0.000455059
-0.000802289
0.000750422
-0.00060202
0.00102972
-0.000615713
-0.000506717
0.00121281
-0.005128
0.00380661
-0.0108376
0.0064041
0.00649263
-0.0154726
0.000404141
-0.00496818
0.00101872
0.00103351
-0.00358372
0.00114812
-0.00167237
0.000912346
-0.000566519
5.78991e-06
0.000304537
-0.00375147
0.00314154
-0.0101409
0.00760226
-0.015826
0.00949169
-0.0187134
0.00929151
0.00902749
-0.0212483
0.00252257
-0.00590934
-0.00158142
0.00251586
-0.00357701
0.00160075
-0.000757261
-0.000372555
0.00140679
-0.00532797
0.00525995
-0.0125829
0.0103964
-0.0178063
0.0128257
-0.0208173
0.0125026
-0.0226381
0.0111123
0.00984428
-0.0234549
0.00350029
-0.00639062
-0.00301901
0.0026763
-0.00275303
4.18297e-06
0.00191486
-0.00565283
0.00706381
-0.0132224
0.0128295
-0.0189944
0.0161684
-0.0218297
0.015661
-0.0232791
0.0139521
-0.0242667
0.0120999
0.0100277
-0.0244502
0.00296115
-0.00589995
-0.00345182
-0.000143351
0.000351472
-0.00599354
0.00776505
-0.0133856
0.0144558
-0.0195011
0.0189451
-0.0225063
0.0191736
-0.0237498
0.0169045
-0.0246567
0.0148591
-0.0250559
0.0124991
0.0101424
-0.0251706
-0.000730912
-0.00284041
-0.00232863
-0.00636906
0.00598962
-0.013381
0.014777
-0.0197733
0.0208482
-0.0232111
0.0223828
-0.0242342
0.0201968
-0.0250391
0.0177093
-0.0255757
0.0153957
-0.0257632
0.0126866
0.010284
-0.0259048
-0.00592035
0.00217322
0.000906723
-0.0128111
0.0128804
-0.0195821
0.021548
-0.0237645
0.0250305
-0.0249481
0.0235664
-0.0254272
0.0206759
-0.0261101
0.0183923
-0.0263299
0.0156154
-0.0265592
0.0129159
0.0103379
-0.026613
-0.0114103
0.00866291
0.0049206
-0.0185706
0.0200408
-0.0237546
0.026732
-0.02561
0.0268859
-0.0258508
0.0238072
-0.0265408
0.0213659
-0.0269263
0.0187778
-0.027132
0.0158211
-0.0273649
0.0131488
0.0103266
-0.0273536
-0.0164223
-0.0228176
0.0264361
-0.0259086
0.0298229
-0.026233
0.0272103
-0.0267088
0.0242831
-0.0274545
0.0221116
-0.0276741
0.0189974
-0.0280342
0.0161812
-0.0281689
0.0132834
0.0103344
-0.0281766
-0.0253657
0.031338
-0.0266138
0.0310711
-0.0266492
0.0272457
-0.0276988
0.0253326
-0.028208
0.0226208
-0.0285509
0.0193402
-0.0289547
0.0165851
-0.0290252
0.0133539
0.0103335
-0.0290244
-0.026525
-0.026652
0.0311981
-0.027415
0.0280087
-0.0286366
0.0265542
-0.028864
0.0228482
-0.0295481
0.0200244
-0.0297224
0.0167594
-0.0299339
0.0135654
0.0102645
-0.0298649
-0.02684
0.0313181
-0.0284778
0.0296464
-0.0292344
0.0273109
-0.0296866
0.0233004
-0.0303893
0.0207271
-0.0305859
0.016956
-0.0307957
0.0137752
0.0102844
-0.0308155
-0.0275182
-0.0294336
0.0315619
-0.0297545
0.0276317
-0.0307462
0.0242921
-0.0311791
0.02116
-0.0316151
0.0173919
-0.0317278
0.0138879
0.0102978
-0.0317413
-0.0301024
0.0331102
-0.030587
0.0281163
-0.0317571
0.0254621
-0.0321626
0.0215656
-0.0325626
0.0177919
-0.0327951
0.0141204
0.0101406
-0.0326378
-0.0306201
0.0338937
-0.0317471
0.0292433
-0.0326785
0.0263936
-0.0331452
0.0220323
-0.033618
0.0182647
-0.0337668
0.0142692
0.0101542
-0.0337804
-0.0314162
-0.0329271
0.0307541
-0.0336075
0.027074
-0.0342124
0.0226372
-0.0347582
0.0188104
-0.0348549
0.0143659
0.0102769
-0.0349776
-0.0339338
0.0322057
-0.0346691
0.0278093
-0.0354185
0.0233866
-0.0358333
0.0192253
-0.0360811
0.0146137
0.0102039
-0.0360081
-0.0350843
0.0335453
-0.0358841
0.0286091
-0.0366684
0.0241709
-0.0369438
0.0195007
-0.0371982
0.0148681
0.0101279
-0.0371222
-0.036307
-0.037075
0.0293771
-0.0377579
0.0248538
-0.0380567
0.0197994
-0.0382972
0.0151087
0.0101402
-0.0383095
-0.0134968
0.000904265
-0.0136921
0.000195225
-0.013089
-0.000603053
-0.0118268
-0.00126217
-0.0102652
-0.00156162
-0.00895953
-0.0013057
-0.00793578
-0.00102375
-0.0068985
-0.00103728
-0.00587227
-0.00102623
-0.00120786
-0.0173446
0.00105276
-0.0165886
-0.000560776
-0.015248
-0.00194368
-0.0134035
-0.00310665
-0.0113223
-0.00364287
-0.00946214
-0.00316581
-0.00799278
-0.0024931
-0.00663183
-0.00239824
-0.00535937
-0.00229869
-0.00257224
-0.0168744
-0.015876
-0.0015592
-0.0140229
-0.00379671
-0.0115542
-0.00557539
-0.00885807
-0.00633899
-0.00645541
-0.00556847
-0.00460127
-0.00434724
-0.00312127
-0.00387824
-0.00212591
-0.00329404
-0.00367943
-0.0162593
-0.0144272
-0.011708
-0.00850588
-0.00534125
-0.00873309
-0.00253033
-0.00715817
-0.000470019
-0.00593854
0.000542942
-0.004307
-0.00471791
-0.00558737
-0.00237796
-0.0103676
5.91506e-05
-0.00837565
0.00152256
-0.00577042
-0.00621436
-0.00214506
-0.00013871
-0.010382
0.00162418
-0.00753331
-0.008042
-0.000334516
0.00157656
-0.00944439
-0.00879406
0.00078854
-0.0070988
0.00929784
0.0510511
-0.0502088
0.00860076
0.0543302
-0.0536331
0.00814573
0.0576479
-0.0571929
0.00773958
0.0614749
-0.0610687
0.00721133
0.0654119
-0.0648836
0.00659175
0.0693858
-0.0687662
0.00596938
0.0736087
-0.0729863
0.00535132
0.0783794
-0.0777613
0.00478492
0.0834814
-0.082915
0.00434376
0.088775
-0.0883338
0.00397811
0.0944374
-0.0940718
0.00362779
0.100552
-0.100202
0.00330138
0.107064
-0.106738
0.00300591
0.114026
-0.113731
0.00273346
0.121513
-0.12124
0.0024905
0.129527
-0.129284
0.00226837
0.138111
-0.137889
0.00206024
0.147308
-0.1471
0.0018666
0.157148
-0.156954
0.00168581
0.167679
-0.167498
0.0015091
0.178961
-0.178784
0.00133668
0.191036
-0.190863
0.00116945
0.203951
-0.203784
0.00100184
0.21778
-0.217612
0.000835831
0.232581
-0.232415
0.000669936
0.248427
-0.248261
0.000502877
0.265403
-0.265236
0.000337164
0.283597
-0.283432
0.000171253
0.303128
-0.302962
0.324085
-0.323914
0.0143018
0.051858
0.0133517
0.0552803
0.0123533
0.0586463
0.0115215
0.0623067
0.0108536
0.0660797
0.0103338
0.0699056
0.0098557
0.0740868
0.00935204
0.0788831
0.00884453
0.0839889
0.00837121
0.0892483
0.00790436
0.0949043
0.00746129
0.100995
0.00707121
0.107454
0.00668808
0.114409
0.00630057
0.1219
0.00592828
0.129899
0.00556008
0.138479
0.00519224
0.147676
0.00482819
0.157512
0.00446206
0.168045
0.00408242
0.179341
0.00369496
0.191423
0.00329636
0.204349
0.00288086
0.218195
0.0024516
0.23301
0.00200275
0.248876
0.00153486
0.265871
0.00104738
0.284085
0.000537685
0.303637
0.324623
0.019019
0.0526384
0.0184219
0.0558774
0.0177379
0.0593304
0.0169079
0.0631367
0.0160561
0.0669315
0.0153094
0.0706523
0.0145793
0.0748169
0.0138509
0.0796114
0.0132432
0.0845967
0.0127127
0.0897788
0.0121239
0.0954931
0.0115387
0.101581
0.0110022
0.107991
0.0104548
0.114957
0.00991544
0.122439
0.00939515
0.13042
0.00886373
0.13901
0.00832265
0.148217
0.00777722
0.158057
0.00721602
0.168606
0.00662908
0.179928
0.00602635
0.192026
0.00539576
0.20498
0.00473495
0.218856
0.00404501
0.2337
0.00331776
0.249603
0.00255408
0.266635
0.00174923
0.28489
0.000899617
0.304487
0.325522
0.0239138
0.0535784
0.0228056
0.0569857
0.0218402
0.0602958
0.0211102
0.0638667
0.0204101
0.0676316
0.0196173
0.0714451
0.018745
0.0756892
0.0180007
0.0803558
0.017409
0.0851883
0.016744
0.0904439
0.0159926
0.0962445
0.0153639
0.102209
0.0147508
0.108604
0.0140683
0.115639
0.0134055
0.123102
0.0127469
0.131078
0.0120623
0.139695
0.0113692
0.14891
0.0106633
0.158763
0.00991808
0.169351
0.00913512
0.180711
0.00832492
0.192836
0.00746585
0.205839
0.0065652
0.219757
0.00561751
0.234648
0.00461622
0.250604
0.00356048
0.267691
0.00244245
0.286008
0.00125766
0.305672
0.32678
0.0285748
0.0279532
0.0270458
0.0260069
0.0251095
0.0241954
0.0231104
0.022193
0.0214928
0.020613
0.0197732
0.0970843
0.0190881
0.102894
0.0183267
0.109365
0.0175378
0.116428
0.0167952
0.123845
0.0160046
0.131869
0.0151721
0.140527
0.0143345
0.149748
0.0134621
0.159635
0.0125285
0.170285
0.0115626
0.181676
0.0105497
0.193849
0.00947284
0.206916
0.00834225
0.220887
0.00714578
0.235844
0.00587964
0.25187
0.00454036
0.26903
0.00311799
0.28743
0.00160718
0.307183
0.328387
0.0237165
0.0228677
0.0218903
0.0209801
0.0200947
0.0191397
0.0181785
0.0172035
0.0161636
0.0150641
0.0139239
0.0127134
0.011428
0.0100728
0.0086349
0.00711064
0.0054948
0.00377577
0.0019477
0.0287872
0.0300659
-0.0272028
-0.0316503
0.0305502
0.0265591
-0.0283221
0.0321477
0.0229925
-0.0245901
0.0337755
0.0192873
-0.0209151
0.0351135
0.0150553
-0.0163933
0.0363162
0.0109458
-0.0121486
0.0371608
0.00670919
-0.00755374
0.0378206
0.00201733
-0.00267717
0.0382305
-0.0026986
0.0022887
-0.00744239
0.00736344
0.0279586
0.0280619
-0.0259546
0.0297461
0.0247715
0.0313441
0.0213945
0.0328659
0.0177655
0.0340616
0.0138597
0.0351716
0.00983579
0.0360586
0.00582215
0.0367015
0.00137444
0.0370032
-0.00300025
-0.00756144
0.0269747
0.0260674
-0.0249803
0.0288582
0.022888
0.0304542
0.0197985
0.0319344
0.0162853
0.0331367
0.0126575
0.0341836
0.00878887
0.0350486
0.00495712
0.0355935
0.000829551
0.0359726
-0.00337936
-0.00759693
0.0260492
0.0241824
-0.0241641
0.0279206
0.0210166
0.0295211
0.0181981
0.0309248
0.0148815
0.0321013
0.011481
0.0331081
0.0077821
0.0339485
0.00411668
0.0345096
0.000268516
0.0347969
-0.00366674
-0.0077776
0.0252444
0.0224303
-0.0234923
0.0269441
0.0193169
0.0285424
0.0165998
0.0299203
0.0135036
0.031055
0.0103462
0.0319847
0.00685247
0.0327406
0.00336079
0.0333549
-0.000345786
0.0336225
-0.0039344
-0.00793551
0.0246516
0.0206504
-0.0228717
0.0261946
0.0177739
0.0276587
0.0151356
0.0289714
0.012191
0.0301141
0.00920359
0.0310003
0.00596627
0.0317134
0.00264764
0.0322173
-0.000849693
0.0326248
-0.0043419
-0.00794853
0.0239809
0.0188392
-0.0221697
0.0255395
0.0162153
0.0269576
0.0137175
0.0281794
0.0109692
0.0292657
0.00811725
0.0301302
0.00510183
0.0308503
0.00192752
0.0313011
-0.00130048
0.0316392
-0.00468005
-0.00805062
0.0232777
0.0170705
-0.021509
0.0247961
0.0146969
0.0262119
0.0123017
0.0274187
0.00976236
0.0284772
0.0070587
0.0293178
0.00426123
0.0299499
0.00129544
0.0304712
-0.00182181
0.0306763
-0.00488515
-0.00818979
0.0226356
0.0153425
-0.0209076
0.0241049
0.0132276
0.025435
0.0109716
0.0266179
0.00857949
0.0275955
0.00608116
0.0284837
0.00337296
0.0290552
0.00072396
0.0295372
-0.0023038
0.0298051
-0.00515302
-0.00824961
0.0220625
0.0136631
-0.0203832
0.0235286
0.0117615
0.0247894
0.0097108
0.0259247
0.00744418
0.0268569
0.00514889
0.0276236
0.00260629
0.0282864
6.11686e-05
0.0286467
-0.0026641
0.0289624
-0.0054687
-0.0083116
0.0215464
0.0120649
-0.0199482
0.0229861
0.0103219
0.0242555
0.00844132
0.025301
0.0063987
0.0262571
0.0041928
0.0269271
0.00193635
0.0275384
-0.000550165
0.0279008
-0.00302652
0.0281317
-0.00569964
-0.0083565
0.0210971
0.0105034
-0.0195356
0.0224605
0.00895847
0.0237102
0.00719166
0.0247462
0.00536267
0.0256027
0.00333633
0.0263185
0.00122048
0.0268103
-0.00104197
0.0271793
-0.00339547
0.0273537
-0.00587406
-0.00835643
0.0206398
0.00900122
-0.0191376
0.0220002
0.00759814
0.0231557
0.00603611
0.0242034
0.00431502
0.0250004
0.00253931
0.0256731
0.000547807
0.0261425
-0.00151138
0.0264677
-0.00372065
0.0266046
-0.00601105
-0.00836482
0.0203024
0.00758384
-0.018885
0.0216142
0.00628634
0.0227363
0.00491402
0.0236956
0.00335564
0.02449
0.00174491
0.0250905
-5.25988e-05
0.0255342
-0.0019551
0.0257989
-0.00398532
0.0259021
-0.00611428
-0.00836757
0.0200805
0.00616432
-0.018661
0.0213265
0.00504036
0.0224174
0.00382312
0.0233088
0.00246418
0.0240437
0.00101004
0.0245947
-0.000603638
0.0249864
-0.00234682
0.0251631
-0.004162
0.0252485
-0.00619961
-0.00828971
0.0198589
0.00476956
-0.0184642
0.0211017
0.00379763
0.0221285
0.00279631
0.0230073
0.0015854
0.0236662
0.00035106
0.024189
-0.00112642
0.0244989
-0.00265674
0.0246331
-0.00429615
0.0246174
-0.00618391
-0.0081225
0.0197536
0.00341854
-0.0184026
0.020963
0.00258827
0.0219052
0.00185414
0.0227022
0.000788359
0.023338
-0.000284713
0.0237554
-0.00154382
0.0239918
-0.00289318
0.0240718
-0.00437615
0.0238838
-0.00599594
-0.00769352
0.0197946
0.00204488
-0.0184209
0.0209445
0.00143834
0.0219448
0.000853776
0.0225659
0.000167321
0.0230412
-0.000760049
0.0232449
-0.00174747
0.0232776
-0.00292589
0.0230652
-0.00416379
0.022597
-0.00552774
-0.00634477
0.0198771
0.000747262
-0.0185794
0.0208805
0.000434901
0.0217603
-2.60584e-05
0.0222541
-0.000326436
0.0223012
-0.000807156
0.0218783
-0.00132459
0.02104
-0.00208752
0.0196976
-0.00282145
0.0182605
-0.00409058
-0.0035569
0.0156313
-0.014884
0.0160662
0.0160401
0.0157137
0.0149065
0.0135819
0.0114944
0.00867298
0.0045824
0.0194631
0.0406817
0.0219922
0.0381978
-0.0407269
0.0245821
0.0354573
-0.0380472
0.0320738
-0.0346945
0.0162117
0.0399366
0.018893
0.0380004
0.0213414
0.0357494
0.0238346
0.032964
0.0299537
0.010332
0.0401121
0.0130622
0.0388585
0.0156927
0.0373061
0.0183023
0.0353908
0.0207395
0.0333122
0.0230219
0.0306817
0.0279954
0.00172206
0.0392495
0.00450873
0.0389103
0.00727674
0.0382885
0.00999485
0.037394
0.0126565
0.0361968
0.0152161
0.0347466
0.0177183
0.0328886
0.0200686
0.0309619
0.0222269
0.0285233
0.0260582
0.00158709
0.0365047
0.00431138
0.036186
0.00701377
0.0355861
0.00966908
0.0347387
0.0122572
0.0336087
0.0147475
0.0322563
0.0171544
0.0304817
0.0194366
0.0286797
0.0215356
0.0264242
0.0241015
0.00145785
0.0338173
0.00412513
0.0335187
0.00675965
0.0329516
0.00935474
0.0321436
0.0118724
0.0310911
0.0142947
0.029834
0.0165998
0.0281766
0.0188212
0.0264583
0.0208772
0.0243683
0.0221069
0.00133219
0.0311892
0.00394166
0.0309092
0.00651112
0.0303821
0.00904254
0.0296122
0.0115028
0.0286308
0.013882
0.0274547
0.0160844
0.0259743
0.0182428
0.0242999
0.020242
0.0223691
0.0201793
0.00121066
0.028615
0.00376912
0.0283508
0.00627849
0.0278727
0.00874109
0.0271496
0.0111466
0.0262253
0.0134954
0.0251059
0.0156372
0.0238325
0.0177185
0.0222185
0.0196651
0.0204226
0.0183354
0.00108865
0.0260931
0.00359736
0.025842
0.00605863
0.0254115
0.00845999
0.0247482
0.010796
0.0238893
0.01312
0.0227819
0.0152606
0.0216919
0.0172609
0.0202182
0.0191357
0.0185477
0.0165635
0.00097113
0.0236152
0.00343511
0.0233781
0.00585575
0.0229908
0.00821292
0.022391
0.0104682
0.021634
0.0127386
0.0205116
0.0149072
0.0195233
0.0168825
0.0182429
0.0186967
0.0167335
0.014877
0.000857951
0.0211759
0.00327855
0.0209575
0.00566543
0.0206039
0.00800449
0.020052
0.0101948
0.0194437
0.0123707
0.0183357
0.0145259
0.0173681
0.0165224
0.0162464
0.0183208
0.0149351
0.0132497
0.000749205
0.0187695
0.00312708
0.0185796
0.00548335
0.0182477
0.00781951
0.0177158
0.00999485
0.0172684
0.0120646
0.0162659
0.0141331
0.0152996
0.0161219
0.0142576
0.0179355
0.0131214
0.0116496
0.000650766
0.0163906
0.00299076
0.0162396
0.00531266
0.0159258
0.00763714
0.0153913
0.00985058
0.0150549
0.0118875
0.014229
0.0138586
0.0133285
0.0157685
0.0123477
0.0175726
0.0113174
0.0100846
0.000555074
0.0140285
0.00287484
0.0139198
0.00516558
0.013635
0.00744693
0.01311
0.00968249
0.0128194
0.011743
0.0121685
0.0136899
0.0113816
0.0155397
0.0104978
0.0173163
0.00954075
0.00851591
0.000474044
0.0116692
0.00278568
0.0116082
0.00506919
0.0113515
0.00730169
0.0108775
0.00950921
0.0106119
0.0115929
0.0100849
0.0135367
0.00943772
0.0153424
0.0086921
0.0170797
0.00780354
0.00693459
0.000391885
0.00930937
0.00270609
0.00929399
0.0050154
0.0090422
0.00724965
0.00864323
0.00940539
0.00845611
0.0114781
0.00801214
0.013445
0.00747082
0.0152336
0.00690354
0.0168978
0.00613926
0.00536825
0.000331553
0.00692017
0.00264839
0.00697716
0.00496373
0.00672687
0.00723133
0.00637562
0.00940215
0.00628529
0.0114772
0.0059371
0.0134094
0.00553862
0.0152591
0.00505379
0.0168599
0.0045385
0.00382556
0.000285374
0.00451023
0.00261446
0.00464807
0.00494221
0.00439912
0.00720373
0.00411411
0.00935111
0.0041379
0.0115205
0.00376767
0.0134081
0.00365111
0.0152932
0.00316863
0.0169282
0.00290355
0.00233281
0.000213105
0.00205565
0.0026928
0.00216837
0.00509852
0.0019934
0.00738325
0.00182938
0.00957926
0.00194189
0.0117278
0.0016191
0.0137023
0.00167664
0.0155241
0.00134688
0.0171904
0.00123717
0.000943797
0.000127388
0.00229576
0.00428916
0.00611854
0.00806043
0.00967953
0.0113562
0.0127031
0.0139402
0.035714
0.00596373
0.00560679
0.0065983
0.00761779
0.0059681
0.0449283
0.00603506
0.0489433
0.00577684
0.0529353
0.00542161
0.0569683
0.00513003
0.0615041
0.00488081
0.0665187
0.00456496
0.0715967
0.00419223
0.0767631
0.00382398
0.0823143
0.00349806
0.0883271
0.00320293
0.0947342
0.00291118
0.101562
0.00262896
0.108826
0.00236325
0.116537
0.0021148
0.124732
0.00188521
0.133451
0.00167235
0.142749
0.00147492
0.15267
0.00129286
0.163254
0.00112546
0.174539
0.000971437
0.186575
0.000830047
0.199414
0.000699726
0.213116
0.000578794
0.227744
0.000466331
0.243367
0.000361188
0.260065
0.000261399
0.277942
0.000157555
0.29712
7.20641e-05
0.317701
0.339804
0.00644355
0.0461025
0.00586373
0.0495232
0.00547783
0.0533212
0.00512072
0.0573255
0.00482357
0.0618013
0.00456924
0.0667731
0.00430835
0.0718576
0.00402204
0.0770494
0.00371368
0.0826227
0.0034112
0.0886296
0.00312084
0.0950245
0.00283262
0.101851
0.00255344
0.109105
0.00229169
0.116798
0.00205073
0.124973
0.00182606
0.133676
0.0016156
0.14296
0.00142018
0.152866
0.00123995
0.163434
0.0010753
0.174704
0.00092527
0.186725
0.00078856
0.199551
0.000663078
0.213241
0.000546851
0.22786
0.000439122
0.243475
0.000338888
0.260165
0.000244916
0.278036
0.000149313
0.297216
6.60475e-05
0.317784
0.33987
-0.031816
0.0462683
-0.0321963
0.0499035
-0.0324161
0.053541
-0.0326888
0.0575982
-0.0329577
0.0620702
-0.0330483
0.0668636
-0.0329056
0.071715
-0.0326452
0.0767889
-0.0323268
0.0823044
-0.0319112
0.088214
-0.0314018
0.0945151
-0.0308032
0.101252
-0.0301069
0.108409
-0.0293121
0.116004
-0.028416
0.124077
-0.0274187
0.132679
-0.0263175
0.141858
-0.0251079
0.151656
-0.0237837
0.16211
-0.02234
0.17326
-0.0207727
0.185157
-0.0190763
0.197855
-0.0172453
0.21141
-0.0152733
0.225888
-0.0131539
0.241355
-0.01088
0.257891
-0.00843972
0.275595
-0.00582345
0.294599
-0.003023
0.314983
0.336847
-0.0285114
0.0464575
-0.0287069
0.0500991
-0.0289791
0.0538131
-0.0292732
0.0578923
-0.0294178
0.0622148
-0.0293775
0.0668232
-0.0292305
0.071568
-0.0290714
0.0766297
-0.0288725
0.0821055
-0.0285916
0.0879331
-0.0282277
0.0941511
-0.027766
0.10079
-0.0271957
0.107839
-0.0265127
0.115321
-0.0257235
0.123288
-0.0248368
0.131792
-0.0238527
0.140874
-0.0227669
0.15057
-0.0215742
0.160917
-0.0202704
0.171956
-0.0188519
0.183739
-0.0173145
0.196317
-0.0156539
0.20975
-0.0138646
0.224099
-0.011941
0.239432
-0.00987736
0.255827
-0.00766371
0.273382
-0.00528815
0.292224
-0.0027428
0.312438
0.334104
-0.0248728
0.0467403
-0.0249236
0.0501498
-0.02488
0.0537695
-0.0249598
0.0579721
-0.0250902
0.0623452
-0.0251673
0.0669003
-0.0251534
0.0715541
-0.0251046
0.076581
-0.0250321
0.082033
-0.0249091
0.0878101
-0.0247064
0.0939484
-0.0243991
0.100483
-0.023975
0.107415
-0.0234375
0.114783
-0.0227949
0.122645
-0.0220505
0.131048
-0.021204
0.140028
-0.0202571
0.149623
-0.0192086
0.159869
-0.0180564
0.170804
-0.016799
0.182481
-0.0154335
0.194952
-0.0139566
0.208273
-0.0123639
0.222506
-0.0106507
0.237719
-0.0088117
0.253988
-0.00683899
0.271409
-0.00472013
0.290105
-0.00244697
0.310165
0.331657
-0.0212663
0.0470914
-0.0217025
0.0505861
-0.022124
0.054191
-0.0224449
0.058293
-0.0225518
0.0624521
-0.0224434
0.0667919
-0.0222618
0.0713724
-0.0221028
0.0764221
-0.0219331
0.0818634
-0.021727
0.0876039
-0.0214842
0.0937056
-0.0211887
0.100188
-0.0208187
0.107044
-0.0203613
0.114326
-0.0198168
0.122101
-0.0191859
0.130417
-0.0184658
0.139308
-0.0176526
0.14881
-0.0167442
0.15896
-0.015742
0.169802
-0.0146462
0.181385
-0.0134563
0.193762
-0.0121694
0.206986
-0.0107816
0.221118
-0.00928876
0.236226
-0.00768594
0.252386
-0.00596644
0.269689
-0.00411839
0.288257
-0.00213384
0.30818
0.329523
-0.0166776
0.0473758
-0.0169318
0.0508403
-0.0171601
0.0544193
-0.0173604
0.0584934
-0.017578
0.0626697
-0.0177664
0.0669804
-0.0179129
0.0715188
-0.0180046
0.0765138
-0.0180353
0.081894
-0.018005
0.0875736
-0.017895
0.0935957
-0.0176995
0.0999921
-0.0174201
0.106765
-0.0170684
0.113974
-0.0166509
0.121683
-0.0161623
0.129928
-0.0155912
0.138737
-0.0149307
0.14815
-0.014181
0.15821
-0.0133435
0.168964
-0.0124181
0.18046
-0.0114066
0.19275
-0.0103129
0.205892
-0.00913622
0.219942
-0.0078717
0.234961
-0.00651425
0.251028
-0.00505781
0.268233
-0.00349142
0.28669
-0.00180783
0.306497
0.327715
-0.0125598
0.047787
-0.0130666
0.0513471
-0.0136874
0.0550401
-0.0142762
0.0590821
-0.0146305
0.063024
-0.014769
0.0671189
-0.014809
0.0715588
-0.0148198
0.0765246
-0.0147858
0.08186
-0.0146902
0.0874779
-0.0145404
0.0934459
-0.0143395
0.0997912
-0.0140849
0.106511
-0.0137793
0.113669
-0.0134228
0.121326
-0.0130152
0.129521
-0.0125553
0.138277
-0.0120373
0.147632
-0.0114515
0.157625
-0.0107928
0.168306
-0.0100603
0.179728
-0.00925503
0.191945
-0.00837455
0.205012
-0.00742006
0.218987
-0.00639422
0.233935
-0.00529325
0.249927
-0.00411143
0.267051
-0.00283869
0.285418
-0.00146905
0.305127
0.326246
-0.00796779
0.0482011
-0.00822239
0.0516017
-0.0084283
0.055246
-0.00870761
0.0593614
-0.00907066
0.0633871
-0.00944043
0.0674887
-0.00974698
0.0718654
-0.0099931
0.0767707
-0.0101827
0.0820496
-0.0103181
0.0876133
-0.0103826
0.0935105
-0.0103688
0.0997773
-0.0102847
0.106426
-0.0101416
0.113525
-0.00994412
0.121129
-0.00969137
0.129268
-0.00938196
0.137967
-0.00901734
0.147267
-0.00859983
0.157207
-0.00812862
0.167834
-0.00760021
0.179199
-0.00701082
0.191356
-0.00635923
0.20436
-0.00564528
0.218273
-0.00487052
0.233161
-0.00403589
0.249093
-0.00313793
0.266153
-0.00216799
0.284448
-0.00112169
0.304081
0.325125
-0.00319627
0.0487202
-0.00378084
0.0521862
-0.00439086
0.055856
-0.00496764
0.0599382
-0.00544583
0.0638653
-0.00584782
0.0678907
-0.00618379
0.0722013
-0.00645204
0.077039
-0.00662912
0.0822267
-0.00672785
0.087712
-0.00676745
0.0935501
-0.00675989
0.0997698
-0.00671395
0.106381
-0.00663372
0.113445
-0.00651981
0.121015
-0.00637242
0.12912
-0.0061888
0.137784
-0.00596795
0.147046
-0.00570902
0.156948
-0.00541173
0.167537
-0.00507563
0.178863
-0.00469973
0.19098
-0.00427869
0.203939
-0.00381176
0.217806
-0.00329886
0.232648
-0.00274079
0.248534
-0.00213637
0.265549
-0.00147876
0.28379
-0.000765596
0.303368
0.324359
0.00150286
0.049506
0.000932497
0.0527566
0.000522145
0.0562664
0.000234889
0.0602254
-0.000148984
0.0642492
-0.000538005
0.0682797
-0.000946782
0.0726101
-0.00135381
0.077446
-0.00175394
0.0826268
-0.00209873
0.0880568
-0.00236526
0.0938166
-0.00256752
0.099972
-0.00272351
0.106537
-0.00283272
0.113554
-0.00289782
0.12108
-0.00292042
0.129143
-0.00290445
0.137768
-0.00285515
0.146997
-0.00277515
0.156868
-0.00266522
0.167427
-0.00252778
0.178726
-0.00236468
0.190817
-0.00217289
0.203747
-0.00195268
0.217586
-0.00170391
0.232399
-0.00142629
0.248257
-0.00111983
0.265242
-0.000779708
0.28345
-0.000404976
0.302993
0.323954
0.00666068
0.00578414
0.00485761
0.00401434
0.00337988
0.00289336
0.00251715
0.00220181
0.0019136
0.00163661
0.00138145
0.00115145
0.000950205
0.000773882
0.000613909
0.000472752
0.000352037
0.000248982
0.000163163
9.21183e-05
3.34725e-05
-1.33949e-05
-4.96068e-05
-7.58185e-05
-9.16995e-05
-9.58379e-05
-8.97587e-05
-7.14994e-05
-4.02821e-05
)
;

boundaryField
{
    outlet
    {
        type            calculated;
        value           nonuniform 0();
    }
    upperWall
    {
        type            symmetryPlane;
        value           nonuniform 0();
    }
    lowerWall
    {
        type            symmetryPlane;
        value           uniform 0;
    }
    inlet
    {
        type            calculated;
        value           nonuniform 0();
    }
    cylinder
    {
        type            calculated;
        value           uniform 0;
    }
    frontAndBack
    {
        type            empty;
        value           nonuniform 0();
    }
    procBoundary1to0
    {
        type            processor;
        value           nonuniform List<scalar> 
45
(
-0.0168087
-0.0426553
-0.0433361
-0.0428952
-0.013493
-0.0415887
-0.0420548
-0.0416969
-0.00754892
-0.0410565
-0.0364295
-0.0416448
-0.00524818
-0.0390387
-0.0046889
-0.0449326
-0.0490103
-0.0526771
-0.0566131
-0.0612125
-0.0662695
-0.0712809
-0.0763903
-0.0819461
-0.0880012
-0.094439
-0.101271
-0.108544
-0.116271
-0.124483
-0.133222
-0.142536
-0.152473
-0.163072
-0.174372
-0.18642
-0.199273
-0.212986
-0.227623
-0.243255
-0.25996
-0.277842
-0.297016
-0.317615
-0.339732
)
;
    }
    procBoundary1to2
    {
        type            processor;
        value           nonuniform List<scalar> 
63
(
0.0160113
0.00907395
0.0204638
0.0232565
0.0346065
0.02672
0.026615
0.0322213
0.0285541
0.0298366
0.0308267
0.0344832
0.0324822
0.0337447
0.0352991
0.0345531
0.000881718
0.017127
-0.00242687
-0.0056288
-0.00829468
-0.00954107
0.0087901
-0.0119358
0.00517013
-0.0133927
0.00193647
-0.011984
0.000502614
-0.0107355
0.00116438
-0.00334258
0.0543807
0.0576073
0.0612031
0.0649056
0.0685289
0.0723593
0.0767742
0.0812731
0.0858885
0.0913236
-0.0246606
0.0980284
0.103743
0.110343
0.117338
0.12473
0.132824
0.141489
0.150723
0.160675
0.171384
0.182817
0.19506
0.208201
0.222243
0.237282
0.253395
0.270646
0.289149
0.309011
0.330335
)
;
    }
    procBoundary1to5
    {
        type            processor;
        value           nonuniform List<scalar> 
20
(
0.0125926
0.0171961
0.0170454
0.00108319
0.00115777
0.00122956
0.0012959
0.00136348
0.00143328
0.00150677
0.0015814
0.00165715
0.0017281
0.00180709
0.00188525
0.00196792
0.00205765
0.00212456
0.00224148
0.00192826
)
;
    }
}


// ************************************************************************* //
