/*--------------------------------*- C++ -*----------------------------------*\
| =========                 |                                                 |
| \\      /  F ield         | OpenFOAM: The Open Source CFD Toolbox           |
|  \\    /   O peration     | Version:                                        |
|   \\  /    A nd           | Website:  www.openfoam.com                      |
|    \\/     M anipulation  |                                                 |
\*---------------------------------------------------------------------------*/
FoamFile
{
    version     2.0;
    format      ascii;
    class       volScalarField;
    location    "23";
    object      p;
}
// * * * * * * * * * * * * * * * * * * * * * * * * * * * * * * * * * * * * * //

dimensions      [0 2 -2 0 0 0 0];


internalField   nonuniform List<scalar> 
1136
(
0.181864
0.199587
0.195216
0.178135
0.155525
0.132747
0.11288
0.0967275
0.0831405
0.0711726
0.0608531
0.0522977
0.0450295
0.0387086
0.0333625
0.0287505
0.024606
0.0210925
0.0181914
0.0155717
0.0131808
0.0112196
0.00948672
0.007814
0.00632058
0.00503993
0.00386738
0.0026271
0.00153407
0.00054815
0.172525
0.192003
0.189806
0.174244
0.152586
0.130563
0.111417
0.0956972
0.0824149
0.070675
0.060498
0.0520335
0.044835
0.0385621
0.0332508
0.0286687
0.0245397
0.021034
0.0181449
0.0155358
0.0131487
0.0111908
0.00946167
0.00779584
0.00630478
0.00502935
0.00385733
0.00261837
0.00153201
0.000546211
0.153175
0.175019
0.175773
0.163674
0.145194
0.125621
0.108082
0.0933312
0.0807084
0.0695009
0.0597074
0.0514745
0.04444
0.0382858
0.0330449
0.0285136
0.0244458
0.0209627
0.0180747
0.0154741
0.0131046
0.0111543
0.00940778
0.00775454
0.00627263
0.00500993
0.00383735
0.00258994
0.00153353
0.00054785
0.126287
0.150473
0.155463
0.14845
0.134439
0.118355
0.103262
0.0900306
0.0783606
0.067867
0.0586048
0.0506992
0.0438779
0.0378773
0.0327397
0.0282805
0.0242977
0.0208637
0.0179903
0.0154001
0.0130552
0.0111216
0.00935118
0.00771008
0.00624269
0.00499054
0.00381758
0.00256173
0.00153306
0.000552921
0.0948091
0.121846
0.132031
0.131048
0.122184
0.110133
0.0978653
0.0863904
0.0758235
0.0661214
0.0574354
0.0499068
0.0433348
0.0374978
0.0324564
0.0280637
0.0241447
0.0207434
0.0178797
0.0153097
0.012981
0.0110578
0.00928823
0.00765984
0.00620507
0.00495199
0.00379138
0.00255138
0.00152715
0.000547986
0.0628687
0.093241
0.108593
0.113761
0.110431
0.102315
0.0926699
0.0828958
0.0734434
0.0644854
0.0562958
0.0490848
0.042745
0.0370978
0.0321764
0.0278705
0.0240276
0.0206654
0.0178087
0.0152565
0.0129498
0.0110184
0.00925395
0.00763834
0.00618796
0.00492488
0.00377113
0.00257071
0.00152254
0.000538942
0.0663794
0.0865173
0.0966727
0.0986301
0.0942973
0.0871364
0.07909
0.0709031
0.0628376
0.0552094
0.0483101
0.0421689
0.0366792
0.0318481
0.027606
0.0238255
0.0204979
0.0176496
0.0151293
0.0128504
0.0109245
0.00917771
0.00757719
0.00614761
0.00489007
0.00374127
0.00257225
0.00151763
0.00053026
0.0420698
0.0661164
0.0802153
0.0866558
0.0861818
0.0814123
0.0748613
0.0678107
0.0606457
0.0536967
0.0472762
0.041473
0.0362296
0.0315573
0.0274189
0.0237141
0.0204269
0.0175938
0.0150813
0.0128172
0.010889
0.00914176
0.00754966
0.00611717
0.00486517
0.0037199
0.00256695
0.00151346
0.000527515
0.0191488
0.0467403
0.0640262
0.0736646
0.0769984
0.0756108
0.0710896
0.0651967
0.0587529
0.0522699
0.0461577
0.0405877
0.03554
0.0310116
0.0269845
0.0233747
0.0201554
0.0173675
0.0148992
0.012672
0.0107667
0.00904115
0.00746576
0.00605838
0.00481819
0.00368077
0.00253661
0.00149946
0.000523256
-0.00790782
0.0241137
0.0460411
0.0594926
0.0658997
0.0670504
0.0652245
0.0613948
0.0563607
0.0507895
0.0452385
0.0400163
0.0351928
0.0308007
0.0268543
0.0232971
0.0201036
0.0173257
0.0148608
0.0126388
0.0107318
0.00900585
0.00743372
0.00603389
0.00480132
0.00365475
0.00251846
0.00150037
0.000516992
0.014537
0.036134
0.0500533
0.0577292
0.0605047
0.0599154
0.0571723
0.053104
0.0483161
0.0433504
0.0385627
0.0340835
0.0299583
0.0262136
0.0228101
0.0197278
0.0170301
0.0146243
0.0124565
0.0105807
0.00888453
0.00733675
0.00596353
0.00475021
0.00360562
0.0024947
0.00148743
0.000511222
0.00422522
0.0259022
0.0403508
0.0488974
0.052745
0.0532983
0.0517037
0.0486574
0.0447351
0.0404851
0.0362891
0.0322849
0.0285296
0.025076
0.0218995
0.0190025
0.0164487
0.0141618
0.0120824
0.0102844
0.0086475
0.00714354
0.00581945
0.00462976
0.00351828
0.00243686
0.00144425
0.000491724
-0.00455151
0.0170403
0.0318041
0.0409947
0.0458979
0.0476797
0.0472279
0.0451366
0.0419939
0.0383668
0.0346538
0.0310246
0.0275583
0.0243254
0.0213197
0.0185542
0.0161011
0.0138827
0.0118674
0.0101103
0.00850799
0.00703487
0.00573987
0.00458026
0.00346894
0.00241117
0.00144158
0.000494014
-0.012562
0.00811643
0.0229634
0.0326355
0.038334
0.0410832
0.0416315
0.0404998
0.0382064
0.0352561
0.0320866
0.0289298
0.0258663
0.0229621
0.0202139
0.017658
0.0153708
0.0132901
0.0113845
0.00972294
0.00819542
0.00677803
0.00554163
0.00441603
0.0033462
0.00232425
0.00137747
0.000463533
-0.0219227
-0.00151871
0.0137436
0.0243125
0.0310196
0.0347599
0.03627
0.0360942
0.0346848
0.032485
0.0299063
0.027209
0.0245089
0.0218989
0.0193909
0.0170256
0.0148836
0.0129024
0.0110831
0.00948883
0.00801141
0.00663683
0.00544023
0.00435133
0.00329226
0.00229721
0.00137733
0.000472493
-0.0268985
-0.00781817
0.00677464
0.017373
0.0245168
0.0288682
0.0310572
0.0315957
0.0309247
0.0294092
0.0273989
0.0251388
0.0227759
0.0204515
0.0181935
0.0160451
0.0140812
0.012241
0.0105387
0.00904501
0.00764407
0.0063309
0.00519771
0.00415576
0.0031417
0.0021873
0.00130047
0.000434186
-0.0344031
-0.0167229
-0.0024177
0.00864172
0.0165514
0.0217721
0.0249173
0.0264309
0.0266519
0.0258819
0.0244905
0.0227678
0.0208616
0.0189128
0.0169616
0.0150588
0.0132866
0.0116047
0.0100439
0.0086653
0.00734788
0.00610007
0.00502656
0.00403353
0.00304978
0.00213256
0.00128175
0.000439185
-0.039914
-0.0227883
-0.0085736
0.00261612
0.0108515
0.0165522
0.0202155
0.0222568
0.0230414
0.0228388
0.0219587
0.0206657
0.0191138
0.0174672
0.0157738
0.0140866
0.0124929
0.0109494
0.00950746
0.00823052
0.00698846
0.00580525
0.0047966
0.00385412
0.00290734
0.00202748
0.00121666
0.000409966
-0.0443717
-0.0283093
-0.0148549
-0.00414719
0.00394446
0.00985859
0.0140529
0.0168082
0.0183337
0.0188052
0.0185294
0.0177839
0.0167161
0.0154901
0.0141504
0.0127541
0.0113999
0.0100511
0.00877596
0.00764501
0.0065142
0.00542089
0.00449967
0.00362895
0.00273573
0.00191247
0.00114863
0.000385035
-0.0480573
-0.0332398
-0.020604
-0.0102618
-0.00202886
0.00437087
0.00914861
0.0124734
0.0145616
0.0155894
0.015831
0.015536
0.0148444
0.0139435
0.0128813
0.0117102
0.010545
0.00935022
0.00820926
0.00719139
0.00614376
0.00512048
0.00426788
0.00345537
0.00260522
0.00182106
0.00110648
0.000381012
-0.0509603
-0.0374238
-0.0256066
-0.0155913
-0.00737473
-0.000838014
0.00417492
0.00781457
0.0102857
0.0117336
0.0124187
0.0125643
0.0122849
0.0117652
0.011035
0.010146
0.00922896
0.00824898
0.00729198
0.00643936
0.00552084
0.00460415
0.00386002
0.00313971
0.00235892
0.00164495
0.000994338
0.00032917
-0.0530328
-0.0407634
-0.0297899
-0.0202715
-0.0122756
-0.00573208
-0.00055826
0.00333081
0.00615201
0.00805795
0.00924862
0.00987847
0.0100274
0.00988579
0.00947685
0.00885235
0.00817279
0.00739058
0.00659907
0.00588711
0.00507596
0.00424957
0.00359372
0.00294634
0.00221783
0.00155463
0.000960623
0.000337747
-0.0543013
-0.043279
-0.0332349
-0.0243097
-0.0166275
-0.0102161
-0.00500866
-0.00091706
0.00223175
0.0045204
0.00610868
0.00712759
0.00762135
0.00778999
0.00765226
0.00726406
0.00680989
0.00623565
0.00561865
0.00506353
0.00437983
0.00366039
0.00311863
0.00257164
0.00191969
0.00133335
0.000817164
0.000268802
-0.0548266
-0.0450248
-0.035927
-0.0276839
-0.0204433
-0.0142419
-0.00904833
-0.00483957
-0.00147368
0.00109943
0.00300584
0.00435249
0.0051642
0.00563428
0.0057792
0.00564851
0.00544461
0.00510365
0.00469533
0.00431753
0.00377051
0.00317104
0.00275053
0.00230406
0.00172456
0.00121039
0.000766925
0.000275039
-0.054674
-0.0460463
-0.0379186
-0.0304091
-0.0236549
-0.0177391
-0.0126633
-0.00843759
-0.00494411
-0.00216706
-1.45598e-05
0.00160943
0.00270763
0.00346483
0.00387943
0.00400191
0.00404284
0.00391727
0.00369847
0.00348973
0.00306622
0.00256774
0.00226417
0.00192151
0.0014179
0.000980218
0.000620119
0.000206092
-0.053942
-0.046428
-0.039234
-0.0324707
-0.0262701
-0.0207196
-0.0158343
-0.0116759
-0.00813982
-0.00523979
-0.00291256
-0.00105337
0.000299196
0.00130671
0.00197143
0.00233321
0.00260457
0.0026766
0.00263257
0.00260131
0.00231559
0.00192784
0.00175867
0.0015436
0.00113372
0.000788599
0.000521815
0.000190752
-0.0527134
-0.0462257
-0.0399331
-0.0339239
-0.0283012
-0.023171
-0.0185531
-0.0145323
-0.0110326
-0.00807754
-0.00563267
-0.00359349
-0.00203665
-0.000812334
7.91663e-05
0.000652017
0.0011354
0.00139717
0.00151638
0.00166463
0.00153789
0.00126778
0.00122878
0.00114451
0.000829648
0.000566984
0.000389969
0.000137408
-0.0510785
-0.0455433
-0.0400918
-0.0348057
-0.0297794
-0.0251095
-0.0208121
-0.0169913
-0.0135889
-0.0106413
-0.00814042
-0.00597755
-0.00426389
-0.00287356
-0.00178153
-0.00101308
-0.000348247
9.40811e-05
0.000375977
0.000698802
0.000733869
0.000584622
0.000671546
0.000714304
0.000498232
0.000326077
0.000244167
9.25557e-05
-0.0491449
-0.0444576
-0.0397819
-0.0351893
-0.0307473
-0.0265539
-0.0226183
-0.0190418
-0.0157988
-0.0129115
-0.0104
-0.00818181
-0.00636527
-0.00483568
-0.00357558
-0.00265085
-0.00182766
-0.00120784
-0.000770503
-0.000295734
-9.5518e-05
-0.000111815
8.84243e-05
0.000256163
0.000149486
7.30528e-05
9.93012e-05
4.83453e-05
-0.0469922
-0.0430634
-0.039095
-0.0351396
-0.0312607
-0.0275415
-0.023987
-0.0206986
-0.0176487
-0.0148696
-0.0124081
-0.0101799
-0.00829602
-0.00667654
-0.00529368
-0.00423011
-0.00327854
-0.00250214
-0.0019051
-0.00128631
-0.000938664
-0.000827717
-0.000514553
-0.000225029
-0.00021159
-0.000177051
-5.02067e-05
-4.03337e-06
-0.0447162
-0.041449
-0.0381086
-0.034737
-0.0313821
-0.0281227
-0.0249561
-0.0219689
-0.0191481
-0.0165222
-0.0141422
-0.0119506
-0.0100468
-0.00836677
-0.00690478
-0.0057473
-0.00467622
-0.00374637
-0.00300288
-0.00227283
-0.00180208
-0.00155289
-0.00112143
-0.000709157
-0.000571617
-0.000439602
-0.000213176
-5.71816e-05
-0.0423926
-0.039697
-0.0369097
-0.0340576
-0.0311858
-0.0283564
-0.0255628
-0.0228909
-0.0203116
-0.0178635
-0.0156102
-0.0134814
-0.0115898
-0.00990515
-0.00840301
-0.00714756
-0.00597372
-0.00493791
-0.004076
-0.00324352
-0.00265546
-0.00226792
-0.00171324
-0.00119421
-0.000951434
-0.000707562
-0.000369949
-0.000109399
-0.040096
-0.0378873
-0.0355748
-0.0331833
-0.0307408
-0.0283054
-0.0258682
-0.0234951
-0.0211661
-0.0189205
-0.016803
-0.0147703
-0.0129421
-0.011268
-0.00972735
-0.00841749
-0.00718835
-0.00607207
-0.00510186
-0.00416657
-0.00347225
-0.00295964
-0.00229875
-0.00168354
-0.00132175
-0.000964512
-0.00052916
-0.000164568
-0.037892
-0.0360887
-0.0341833
-0.0321866
-0.030121
-0.0280405
-0.0259229
-0.0238354
-0.021753
-0.0197013
-0.0177446
-0.0158374
-0.0140759
-0.0124297
-0.0108965
-0.0095639
-0.00829677
-0.00711509
-0.00604404
-0.00502365
-0.00424889
-0.00363118
-0.00286114
-0.00214353
-0.00168333
-0.00122518
-0.000684842
-0.000215627
-0.0358372
-0.0343703
-0.0328026
-0.0311398
-0.0293993
-0.027624
-0.0257938
-0.0239643
-0.0221067
-0.0202526
-0.0184588
-0.0166771
-0.0150014
-0.0134121
-0.0119012
-0.0105603
-0.00927305
-0.00803834
-0.00689742
-0.00582157
-0.00497212
-0.00424566
-0.0033812
-0.00259083
-0.0020319
-0.00146214
-0.000828812
-0.000267075
-0.0339876
-0.0327903
-0.0314986
-0.030113
-0.0286415
-0.0271242
-0.0255419
-0.0239351
-0.0222831
-0.0206093
-0.0189677
-0.0173191
-0.0157369
-0.0142097
-0.0127335
-0.0113952
-0.0101037
-0.00884749
-0.00765644
-0.00652834
-0.00561057
-0.00480058
-0.00386794
-0.00299568
-0.0023351
-0.00168428
-0.000972922
-0.000315269
-0.032392
-0.0314062
-0.0303343
-0.0291692
-0.0279138
-0.0266053
-0.025226
-0.0238062
-0.0223304
-0.020815
-0.0193119
-0.017787
-0.0162929
-0.0148308
-0.013395
-0.0120689
-0.0107904
-0.00952186
-0.00829442
-0.00713507
-0.00615992
-0.0052755
-0.00428564
-0.00335007
-0.00261029
-0.00188227
-0.00109577
-0.000356704
-0.0311013
-0.0302745
-0.0293687
-0.0283713
-0.0272781
-0.0261271
-0.0249068
-0.0236345
-0.0223011
-0.020914
-0.019526
-0.0181069
-0.0166888
-0.0152887
-0.0138947
-0.0125829
-0.011315
-0.0100473
-0.00881267
-0.00762671
-0.00658518
-0.0056503
-0.0046441
-0.00365185
-0.00282245
-0.0020379
-0.00120374
-0.000393972
-0.0301698
-0.0294521
-0.0286604
-0.027779
-0.0267949
-0.025751
-0.0246417
-0.0234712
-0.0222417
-0.0209489
-0.0196452
-0.0183047
-0.0169435
-0.0155943
-0.0142335
-0.012931
-0.0116761
-0.0104171
-0.00918526
-0.00797963
-0.00688415
-0.00592508
-0.00491195
-0.00386051
-0.00297212
-0.00216177
-0.00128748
-0.000419712
-0.0296629
-0.0290031
-0.0282717
-0.0274515
-0.0265242
-0.0255353
-0.0244853
-0.0233699
-0.0221974
-0.0209552
-0.0196969
-0.0184012
-0.0170713
-0.015751
-0.0144097
-0.0131133
-0.0118657
-0.0106116
-0.00938925
-0.00817571
-0.00704219
-0.00606518
-0.00505663
-0.00398674
-0.00305773
-0.00222108
-0.00133108
-0.000435888
)
;

boundaryField
{
    outlet
    {
        type            fixedValue;
        value           uniform 0;
    }
    upperWall
    {
        type            symmetryPlane;
    }
    lowerWall
    {
        type            symmetryPlane;
    }
    inlet
    {
        type            zeroGradient;
    }
    cylinder
    {
        type            zeroGradient;
    }
    frontAndBack
    {
        type            empty;
    }
    procBoundary7to3
    {
        type            processor;
        value           nonuniform List<scalar> 
30
(
0.18186
0.199581
0.195212
0.178132
0.155523
0.132746
0.112879
0.0967274
0.0831408
0.0711731
0.0608537
0.0522983
0.0450301
0.0387091
0.0333629
0.0287509
0.0246063
0.0210927
0.0181916
0.0155717
0.0131808
0.0112196
0.00948668
0.00781396
0.00632054
0.00503991
0.00386736
0.00262709
0.00153407
0.000548151
)
;
    }
    procBoundary7to6
    {
        type            processor;
        value           nonuniform List<scalar> 
42
(
0.13662
0.126048
0.105226
0.0777419
0.0461569
0.0141324
0.032268
0.032268
0.00511408
-0.0203007
-0.0501605
-0.0158123
-0.0158123
-0.0250767
-0.0328415
-0.0387801
-0.0472486
-0.0506448
-0.0556675
-0.0597274
-0.0626639
-0.0646549
-0.0658852
-0.066325
-0.0660382
-0.0651028
-0.0635903
-0.0615957
-0.0592301
-0.0565746
-0.0537326
-0.0507944
-0.047835
-0.0449349
-0.0421537
-0.0395509
-0.0371761
-0.0350728
-0.0332836
-0.0318517
-0.0308267
-0.0302721
)
;
    }
}


// ************************************************************************* //
