/*--------------------------------*- C++ -*----------------------------------*\
| =========                 |                                                 |
| \\      /  F ield         | OpenFOAM: The Open Source CFD Toolbox           |
|  \\    /   O peration     | Version:                                        |
|   \\  /    A nd           | Website:  www.openfoam.com                      |
|    \\/     M anipulation  |                                                 |
\*---------------------------------------------------------------------------*/
FoamFile
{
    version     2.0;
    format      ascii;
    class       volScalarField;
    location    "47.4";
    object      p;
}
// * * * * * * * * * * * * * * * * * * * * * * * * * * * * * * * * * * * * * //

dimensions      [0 2 -2 0 0 0 0];


internalField   nonuniform List<scalar> 
1150
(
0.194178
0.203995
0.214343
0.192886
0.202332
0.212371
0.189254
0.197706
0.2069
0.183447
0.190456
0.175207
0.180563
0.164617
0.0346067
0.028417
0.0310016
0.0318752
0.034466
0.0353321
0.0374367
0.0390112
0.0415064
0.0438524
0.0468627
0.049929
0.0535084
0.0573105
0.0616061
0.0662379
0.0713658
0.0768783
0.0829132
0.089399
0.0964368
0.103957
0.112025
0.12061
0.129759
0.13942
0.149645
0.160344
0.171543
0.183254
0.0346662
0.0285433
0.0310839
0.0319746
0.0345752
0.0354567
0.0375481
0.0391499
0.0416234
0.0439961
0.046984
0.0500687
0.0536342
0.0574335
0.0617279
0.0663553
0.071478
0.0769757
0.0829788
0.0894418
0.0964648
0.103967
0.111992
0.120456
0.129428
0.138866
0.14894
0.159594
0.170769
0.182373
0.0346794
0.0286795
0.0311376
0.0320714
0.034667
0.0355718
0.0376478
0.0392746
0.0417352
0.0441264
0.0471069
0.0501954
0.0537614
0.0575517
0.0618309
0.0664181
0.0714975
0.0769418
0.0828751
0.0891915
0.0960586
0.103423
0.111344
0.119829
0.1288
0.138203
0.148055
0.158169
0.168783
0.17967
0.0346512
0.0288203
0.0311706
0.0321551
0.0347478
0.0356661
0.0377385
0.0393742
0.0418368
0.0442326
0.0472155
0.0503052
0.0538668
0.0576479
0.0619371
0.0665698
0.0716504
0.0770315
0.0830228
0.0893644
0.0962312
0.103423
0.111165
0.119132
0.127687
0.136466
0.1458
0.155363
0.165399
0.17535
0.0345844
0.0289675
0.0311819
0.0322381
0.034807
0.0357533
0.0378165
0.0394601
0.0419266
0.0443158
0.0473116
0.0503767
0.0539416
0.0576775
0.0618868
0.0663799
0.0714682
0.0767886
0.0825891
0.0886742
0.0953227
0.102158
0.109512
0.117008
0.125113
0.133316
0.14208
0.150863
0.160078
0.168832
0.0344879
0.0291106
0.0311813
0.0323243
0.034851
0.0358208
0.0378831
0.0395429
0.0420121
0.0444309
0.0474243
0.0505113
0.0540827
0.0578467
0.0621952
0.0667619
0.0717413
0.0769363
0.0827313
0.088732
0.0952278
0.10165
0.108744
0.115763
0.123386
0.130803
0.138722
0.146246
0.154015
0.160692
0.0343658
0.0292497
0.0311688
0.0323897
0.0348893
0.0358772
0.0379406
0.0395648
0.0420743
0.0444387
0.0474874
0.0505192
0.0540747
0.0577467
0.0618933
0.0662585
0.0712213
0.0764091
0.0820191
0.0875144
0.0936484
0.0996444
0.106256
0.112541
0.119393
0.125744
0.132589
0.138722
0.145104
0.149937
0.0342222
0.0293787
0.0311473
0.032458
0.034914
0.0359366
0.038009
0.039673
0.042175
0.0446242
0.0476375
0.0507429
0.0543133
0.0580744
0.0624328
0.0668454
0.0717807
0.0766825
0.0822194
0.0874743
0.093505
0.0990603
0.105279
0.110804
0.116885
0.122002
0.127488
0.131607
0.135753
0.0340645
0.0294847
0.0311283
0.0325259
0.0349224
0.0359535
0.0380433
0.0396337
0.0421974
0.0445418
0.047612
0.0506291
0.0541529
0.0577282
0.0618334
0.0663592
0.0709895
0.0757015
0.0808365
0.0858815
0.0913348
0.0963439
0.101823
0.106412
0.111517
0.115179
0.119378
0.121407
0.12387
0.0339111
0.0295633
0.0311033
0.0325947
0.0349329
0.0360253
0.0381201
0.0397609
0.0423599
0.0448004
0.0479259
0.0510081
0.0546535
0.0584195
0.0627488
0.066835
0.0716705
0.0761834
0.0813838
0.0860183
0.0913117
0.0956213
0.100579
0.104028
0.107989
0.109852
0.111852
0.111041
0.0337425
0.0296521
0.0310791
0.0326305
0.0348556
0.036003
0.0380443
0.0396557
0.0422411
0.0446149
0.0477528
0.050718
0.054372
0.0578332
0.0619177
0.0659274
0.0703825
0.0748797
0.079271
0.0839392
0.0880607
0.0922796
0.0957389
0.0988304
0.100982
0.102207
0.102067
0.100355
0.0335498
0.0297429
0.0310686
0.0326546
0.0347213
0.0359541
0.0378725
0.0394935
0.0419525
0.0442995
0.0473112
0.0501547
0.0535992
0.0568817
0.0608143
0.0645682
0.0687024
0.0727605
0.0767415
0.0808177
0.0843264
0.0877847
0.0903684
0.0925489
0.0935728
0.0937509
0.0923116
0.0894785
0.0333039
0.029818
0.0310461
0.0326668
0.0345176
0.0359154
0.0375897
0.0393597
0.0415032
0.0440556
0.0466519
0.0497354
0.0527233
0.0561675
0.0595674
0.0631916
0.0669037
0.0704934
0.0741622
0.0774206
0.0805253
0.083008
0.0849674
0.0861418
0.0863378
0.0855697
0.0834347
0.0802668
0.0329831
0.0298876
0.0310124
0.0326815
0.0342754
0.0358966
0.0372752
0.0392432
0.0410419
0.0438027
0.0459399
0.049238
0.0515853
0.0553831
0.0580089
0.0618168
0.0647094
0.0682354
0.0710858
0.0739798
0.0762558
0.0781531
0.079262
0.0797818
0.0791768
0.0779492
0.0754903
0.0725943
0.0326827
0.0299487
0.0310557
0.0326332
0.0341416
0.0357314
0.0370895
0.0389679
0.0407875
0.0432658
0.0455965
0.0483611
0.0509639
0.0539956
0.0567268
0.0598288
0.0625333
0.065462
0.067807
0.0701771
0.0717228
0.0730651
0.0733948
0.0733883
0.0722379
0.0706785
0.0681393
0.0653476
0.0324608
0.0299746
0.0311897
0.0324484
0.0341176
0.035315
0.0369989
0.0384516
0.0406191
0.0424323
0.0451779
0.0470937
0.0501518
0.0522068
0.0553087
0.0574075
0.060268
0.0622028
0.0644481
0.0658846
0.0671344
0.067662
0.0676507
0.0669833
0.0656622
0.0637405
0.0613185
0.0585154
0.0322001
0.029989
0.031263
0.0321992
0.0339714
0.0347932
0.0368092
0.0377947
0.0403166
0.0414872
0.0446005
0.0457725
0.0491014
0.0504229
0.0536487
0.0549574
0.0577837
0.0588732
0.060942
0.0615517
0.0625206
0.0623175
0.0620432
0.0608337
0.0593903
0.0572457
0.0549406
0.0522239
0.0317919
0.0300307
0.0312444
0.0319615
0.0336425
0.0343512
0.0363635
0.0372552
0.0396658
0.0406986
0.0434697
0.0446952
0.0475488
0.0488723
0.0514287
0.0526848
0.0547764
0.0556891
0.0570461
0.0573819
0.0577383
0.0572039
0.0564951
0.055061
0.0533894
0.0512514
0.0490152
0.0465409
0.0311812
0.0302026
0.0311321
0.0317829
0.0331164
0.034002
0.0356577
0.0367901
0.0387127
0.0400115
0.0421345
0.043604
0.0457392
0.0472355
0.0490391
0.0503233
0.0516479
0.0524519
0.0531145
0.0532332
0.05303
0.0522571
0.0511825
0.0496391
0.0478508
0.0458067
0.0436792
0.0414691
0.0303516
0.030563
0.0309856
0.03169
0.0325531
0.0337084
0.0349635
0.036286
0.0378096
0.0392444
0.0409291
0.0423764
0.0440299
0.0453716
0.04666
0.0477626
0.0485338
0.0491
0.0492621
0.0490967
0.0484939
0.0475139
0.0462236
0.0446057
0.0427963
0.0408454
0.0388436
0.0368421
0.0295216
0.0310244
0.0308447
0.0316295
0.0320636
0.0334208
0.0343429
0.0357433
0.0369265
0.0383751
0.039677
0.0410212
0.0422401
0.0433885
0.0442725
0.0450876
0.0454556
0.0456834
0.0454838
0.0450029
0.0441156
0.0429686
0.04153
0.0398668
0.0380837
0.0362143
0.0343406
0.0325171
0.0287935
0.0313394
0.03072
0.0315145
0.0316454
0.0330288
0.0337662
0.0350889
0.0360361
0.0373437
0.0383483
0.0394992
0.0403869
0.0412844
0.0418309
0.0423039
0.0423548
0.0422283
0.0417279
0.0409666
0.0398678
0.0385707
0.0370302
0.0353599
0.033618
0.0318324
0.0300875
0.0284258
0.0281666
0.0314396
0.0306267
0.0313052
0.0312727
0.0325015
0.0331516
0.0342891
0.0350681
0.0361423
0.0369293
0.0378307
0.0384489
0.039044
0.0392987
0.039424
0.0391952
0.0387634
0.0380016
0.0370219
0.0357671
0.0343358
0.0327472
0.0310878
0.0293908
0.0277019
0.0260799
0.0245546
0.0276395
0.0312941
0.0305363
0.0309915
0.030891
0.0318419
0.032443
0.0333545
0.0340036
0.034829
0.0354191
0.0360397
0.0364013
0.0366883
0.036673
0.0364935
0.0360072
0.0353301
0.0343634
0.0332113
0.0318362
0.0303222
0.0287185
0.0270687
0.0254335
0.0238419
0.0223274
0.0209246
0.0272091
0.0308953
0.0303948
0.0306011
0.0304566
0.0310939
0.0316165
0.0323145
0.0328307
0.0334162
0.0338054
0.0341471
0.0342544
0.0342546
0.0339895
0.0335571
0.0328528
0.0319721
0.0308523
0.0295753
0.0281247
0.0265748
0.0249584
0.0233252
0.0217426
0.0202279
0.0188235
0.0175468
0.0268574
0.0302715
0.0301383
0.0301607
0.0299533
0.0302875
0.0306633
0.0311784
0.0315448
0.031902
0.0320869
0.0321737
0.032033
0.0317814
0.031303
0.0306613
0.0297778
0.0287363
0.0275073
0.0261518
0.0246639
0.0230943
0.0214708
0.0198508
0.018293
0.0168364
0.0155288
0.0143738
0.0265544
0.0294924
0.0297141
0.0296646
0.0293732
0.0294465
0.0296331
0.0299523
0.030148
0.0302922
0.0302707
0.0301379
0.0297872
0.0293171
0.0286516
0.0278382
0.0268179
0.0256576
0.0243528
0.0229486
0.0214436
0.0198693
0.0182532
0.0166452
0.0151009
0.0136693
0.0124104
0.0113402
0.026263
0.0286449
0.029097
0.0290708
0.0287075
0.0285721
0.0285539
0.0286565
0.0286555
0.0286044
0.0283874
0.02807
0.0275483
0.0268908
0.0260649
0.0251139
0.0239966
0.0227552
0.0213961
0.0199593
0.0184488
0.0168854
0.0152923
0.0137042
0.0121723
0.0107427
0.00947959
0.00843049
0.0259446
0.0277995
0.0283366
0.028332
0.0279408
0.0276579
0.0274476
0.0273187
0.0271124
0.0268738
0.0264802
0.0260001
0.0253315
0.0245244
0.02357
0.0225139
0.0213283
0.0200317
0.0186352
0.0171768
0.0156713
0.0141303
0.0125692
0.0110098
0.00949398
0.00806623
0.00678706
0.00571487
0.0255753
0.0269703
0.0274628
0.0274478
0.0270694
0.0266877
0.0263117
0.0259633
0.0255619
0.025141
0.0245852
0.0239561
0.0231613
0.0222418
0.0211904
0.020055
0.0188172
0.0174855
0.0160712
0.0146076
0.0131154
0.0116045
0.0100827
0.00856292
0.00707947
0.0056679
0.00438061
0.00327343
0.0251448
0.0261549
0.026531
0.0264747
0.0261063
0.0256476
0.0251352
0.0246025
0.0240275
0.0234367
0.0227336
0.0219682
0.0210697
0.0200637
0.0189418
0.0177486
0.0164748
0.0151283
0.0137147
0.0122618
0.0107927
0.00931802
0.00784431
0.00637937
0.00494516
0.00356966
0.00229389
0.00116359
0.0246476
0.0253456
0.0255757
0.0254514
0.0250602
0.0245311
0.0239137
0.0232438
0.0225257
0.0217859
0.020954
0.0200726
0.0190886
0.0180147
0.0168433
0.0156111
0.0143185
0.012972
0.0115745
0.010148
0.00871348
0.00728419
0.00586623
0.00446401
0.00309264
0.00177284
0.000534883
-0.00058583
0.0240881
0.0245398
0.0246237
0.0244093
0.0239655
0.02337
0.0226688
0.0219016
0.0210753
0.0202162
0.0192793
0.0183009
0.0172447
0.0161168
0.0149114
0.0136578
0.0123619
0.0110289
0.00966126
0.00827389
0.00688465
0.00550648
0.00414668
0.00281044
0.00150911
0.000258024
-0.000920989
-0.00200292
0.0234776
0.0237386
0.0236869
0.0233767
0.022864
0.0222059
0.0214383
0.0205993
0.019693
0.0187444
0.0177268
0.0166711
0.0155574
0.0143896
0.0131647
0.0119053
0.0106191
0.00930983
0.00797957
0.0066382
0.00530034
0.00397736
0.00267788
0.00140799
0.000177428
-0.00100209
-0.00211469
-0.00314218
0.0228335
0.0229481
0.0227814
0.0223824
0.0217995
0.0210832
0.0202607
0.0193633
0.0183974
0.0173841
0.0163097
0.0151996
0.0140465
0.0128547
0.011624
0.0103709
0.009103
0.00782328
0.0065338
0.00524154
0.00395758
0.00269109
0.00145066
0.000243512
-0.000920469
-0.0020308
-0.00307479
-0.0040386
0.0221822
0.022187
0.0219288
0.0214546
0.0208111
0.020042
0.0191718
0.0182247
0.0172133
0.0161553
0.0150452
0.013903
0.0127308
0.0115319
0.0103085
0.00907235
0.00783028
0.0065842
0.00533576
0.00408994
0.00285548
0.00164023
0.000452849
-0.000697955
-0.00180116
-0.00284592
-0.00382115
-0.0047159
0.0215606
0.0214847
0.0211572
0.0206245
0.0199321
0.0191179
0.0182064
0.0172189
0.016173
0.0150845
0.0139534
0.0127962
0.0116208
0.0104303
0.00922773
0.00802047
0.00681447
0.00560923
0.00440513
0.0032051
0.00201635
0.000845664
-0.000298604
-0.00140666
-0.00246569
-0.00346238
-0.00438408
-0.00521963
0.0210122
0.0208795
0.0205031
0.0199284
0.019199
0.0183489
0.0174058
0.0163877
0.0153161
0.0142059
0.0130602
0.0118935
0.0107194
0.009541
0.00836301
0.00719198
0.00603428
0.00488684
0.003746
0.00260918
0.00148002
0.000362413
-0.000736917
-0.00180865
-0.00283881
-0.00381179
-0.00471256
-0.00552788
0.0205895
0.0204197
0.0200111
0.0194087
0.0186548
0.0177811
0.0168174
0.0157794
0.0146909
0.0135672
0.0124119
0.011239
0.010063
0.00888777
0.00771833
0.00656415
0.00543384
0.00432844
0.00324619
0.00218683
0.00115066
0.000134933
-0.000865068
-0.00185333
-0.00282693
-0.00377531
-0.00468044
-0.00552257
0.0203492
0.0201592
0.0197341
0.0191182
0.0183524
0.0174677
0.0164947
0.015448
0.0143519
0.0132216
0.0120596
0.0108805
0.00969986
0.00852346
0.00735637
0.00620935
0.00509253
0.0040085
0.00295578
0.00193466
0.000946537
-8.60257e-06
-0.000934238
-0.00183289
-0.00270621
-0.00355442
-0.00437846
-0.00518
)
;

boundaryField
{
    outlet
    {
        type            fixedValue;
        value           nonuniform 0();
    }
    upperWall
    {
        type            symmetryPlane;
    }
    lowerWall
    {
        type            symmetryPlane;
    }
    inlet
    {
        type            zeroGradient;
    }
    cylinder
    {
        type            zeroGradient;
    }
    frontAndBack
    {
        type            empty;
    }
    procBoundary4to0
    {
        type            processor;
        value           nonuniform List<scalar> 
33
(
0.193591
0.203163
0.213259
0.0345021
0.0283017
0.0308895
0.0317604
0.0343357
0.0351868
0.0373022
0.0388467
0.041356
0.0436737
0.0466976
0.049737
0.0533237
0.0571008
0.061399
0.0659942
0.0711226
0.0765963
0.0826297
0.0890653
0.096095
0.103573
0.111653
0.120227
0.129404
0.13907
0.149301
0.159978
0.171168
0.182835
)
;
    }
    procBoundary4to5
    {
        type            processor;
        value           nonuniform List<scalar> 
45
(
0.225498
0.223236
0.217143
0.198492
0.198492
0.187336
0.168161
0.168161
0.151706
0.151706
0.137534
0.137534
0.122673
0.109826
0.109826
0.0961809
0.0845561
0.075914
0.0686941
0.0619571
0.055602
0.0496518
0.0441721
0.039304
0.0348916
0.030769
0.0268645
0.0231519
0.0196613
0.0164201
0.0133864
0.010469
0.00762709
0.00491577
0.00242196
0.000246497
-0.00153928
-0.00295292
-0.00405975
-0.00490402
-0.00551677
-0.00595812
-0.0062451
-0.00628328
-0.00596046
)
;
    }
}


// ************************************************************************* //
