/*--------------------------------*- C++ -*----------------------------------*\
| =========                 |                                                 |
| \\      /  F ield         | OpenFOAM: The Open Source CFD Toolbox           |
|  \\    /   O peration     | Version:                                        |
|   \\  /    A nd           | Website:  www.openfoam.com                      |
|    \\/     M anipulation  |                                                 |
\*---------------------------------------------------------------------------*/
FoamFile
{
    version     2.0;
    format      ascii;
    class       surfaceScalarField;
    location    "172";
    object      phi;
}
// * * * * * * * * * * * * * * * * * * * * * * * * * * * * * * * * * * * * * //

dimensions      [0 3 -1 0 0 0 0];
oriented        oriented;


internalField   nonuniform List<scalar> 
2194
(
0.0184568
0.0305955
0.0191776
0.0304182
-0.0307753
0.0198345
0.0301184
0.0181618
-0.0307206
0.0209978
0.0295573
0.0185034
-0.0302841
0.0217465
0.0295355
-0.0309113
0.0191305
0.0185386
-0.0297072
0.0224636
0.0289901
-0.0310288
0.0204521
0.0197907
-0.0296539
0.0238488
0.0282688
-0.0309872
0.0217854
0.0212522
-0.0293211
0.0258593
0.0273106
-0.0308658
0.0233301
-0.0326244
0.0230108
0.0214951
-0.0293062
0.0277075
0.027458
-0.0310903
0.0251142
-0.0328848
0.0248052
0.0230866
-0.0283665
0.0267587
0.0293154
-0.0309532
0.0277009
-0.0330605
0.0269125
0.0247956
-0.0037437
-0.00548615
-0.00392576
-0.0059604
9.41077e-05
-0.0065995
0.00296881
-0.00724422
0.00566764
0.00757519
-0.0108364
-0.00405529
-0.011357
0.00061466
-0.0118978
0.00350957
-0.0120775
0.00584741
-0.0120967
0.00759436
0.00813565
-0.0158502
-0.00425991
-0.0160358
0.000800276
-0.0162921
0.00376584
-0.0160625
0.00561784
-0.0161109
0.00764274
-0.0173197
0.00934448
0.0112575
-0.0205114
-0.004643
-0.0203066
0.000595492
-0.0202831
0.00374234
-0.0201516
0.00548633
-0.0207969
0.00828803
-0.0230933
0.0116409
-0.0265166
0.0146808
0.0179522
-0.0250879
-0.00534857
-0.0245425
5.00526e-05
-0.0244728
0.00367264
-0.0246718
0.00568533
-0.0257277
0.00934397
-0.0281454
0.0140586
-0.0306186
0.017154
-0.0318226
0.0191561
0.018122
-0.0297468
-0.00623868
-0.0288154
-0.000881324
-0.028713
0.00357015
-0.0290636
0.00603594
-0.0298686
0.010149
-0.0315122
0.0157022
-0.0325571
0.018199
-0.0322101
0.0188091
-0.0311379
0.0170499
0.01615
-0.0341471
-0.00693303
-0.0327796
-0.00224878
-0.0322617
0.00305218
-0.0324339
0.00620816
-0.0325357
0.0102508
-0.0329571
0.0161236
-0.0328638
0.0181057
-0.031641
0.0175863
-0.0305831
0.0159919
0.0161624
-0.0377689
-0.00703895
-0.0361048
-0.0039129
-0.0345057
0.00145312
-0.0340948
0.00579724
-0.0336877
0.00984366
-0.0329022
0.0153382
-0.0321081
0.0173116
-0.0306498
0.016128
-0.0298965
0.0152386
0.0166841
-0.0402476
-0.00580988
-0.0387661
-0.00539448
-0.0356679
-0.00164507
-0.0341189
0.00424823
-0.0334963
0.00922107
-0.0318374
0.0136792
-0.0305462
0.0160204
-0.0296472
0.015229
-0.0293651
0.0149565
0.0174374
-0.0404475
-0.00267729
-0.0399881
-0.00585389
-0.0363796
-0.00525362
-0.0327961
0.000664741
-0.0315753
0.00800031
-0.0302803
0.0123843
-0.0288565
0.0145966
-0.0286331
0.0150056
-0.0287351
0.0150585
0.0182596
-0.0372635
0.00300798
-0.0386208
-0.00449664
-0.036132
-0.00774239
-0.0319341
-0.00353316
-0.0294152
0.0054814
-0.0286099
0.011579
-0.0275836
0.0135703
-0.0269088
0.0143307
-0.0281645
0.0163142
0.0196306
-0.0308337
0.00878146
-0.0329285
-0.00240181
-0.0319623
-0.00870864
-0.0295175
-0.00597795
-0.0265063
0.00247024
-0.024968
0.0100406
-0.0247791
0.0133814
-0.0260893
0.0156409
-0.0278631
0.018088
0.0207575
-0.0212602
0.0143373
-0.024471
0.000808925
-0.0247044
-0.00847526
-0.022594
-0.00808828
-0.0207343
0.000610483
-0.0213595
0.0106659
-0.0238616
0.0158835
-0.026065
0.0178443
-0.0271346
0.0191577
0.0218917
-0.0125962
0.0200284
-0.0184879
0.0067007
-0.0236177
-0.00334545
-0.0246721
-0.00703396
-0.0223039
-0.00175772
-0.0211201
0.00948211
-0.0226368
0.0174002
-0.0240195
0.019227
-0.0256672
0.0208054
0.023535
-0.00122935
0.0262671
-0.00691084
0.0123822
-0.0119079
0.00165166
-0.0153667
-0.00357524
-0.0163965
-0.00072791
-0.0172312
0.0103168
-0.0203246
0.0204937
-0.0230227
0.0219251
-0.0252256
0.0230083
0.0257674
0.0116537
0.0332259
0.00374359
0.0202923
-0.00444058
0.00983582
-0.0127544
0.00473859
-0.0177119
0.00422956
-0.0180316
0.0106365
-0.0190783
0.0215404
-0.0225352
0.0253819
-0.0250242
0.0254973
0.0275019
0.0378871
0.038112
0.0279171
0.0302624
0.0150539
0.0226989
0.00224104
0.0175515
-0.00811287
0.0145835
-0.0108827
0.0134063
-0.0082594
0.0189171
-0.00861778
0.0257403
-0.00896522
0.0258447
0.0265999
-0.00806325
0.0490667
0.0425119
0.0412448
0.0380843
0.0299744
0.0339694
0.0178274
0.0296985
0.00607309
0.0263378
-0.00303059
0.02251
-0.00451857
0.0204051
-0.00454721
0.025769
-0.00626236
0.0275599
0.0263654
-0.00602777
0.0539561
0.0448939
0.0486599
0.0433805
0.0401398
0.0424895
0.0301275
0.0397108
0.0201163
0.036349
0.00965049
0.0329758
0.00243308
0.0276225
-0.000182121
0.0283842
-0.00266162
0.0300394
0.0274075
-0.00370372
0.0554965
0.0461332
0.0520684
0.0468086
0.0463011
0.0482568
0.0381842
0.0478278
0.0299749
0.0445583
0.0213729
0.0415778
0.012289
0.0367063
0.00712828
0.0335449
0.00184215
0.0353255
0.0304681
-0.00121849
0.0559185
0.0470603
0.0528102
0.0499169
0.0483774
0.0526895
0.041912
0.0542932
0.0347138
0.0517566
0.0278806
0.0484109
0.0199258
0.0446612
0.0136018
0.0398689
0.00772628
0.041201
0.0359978
0.00219657
0.0567018
0.0474766
0.0537516
0.0528671
0.0494394
0.0570018
0.0431257
0.0606069
0.035739
0.0591432
0.0296316
0.0545183
0.0229951
0.0512977
0.018049
0.044815
0.0139467
0.0453033
0.0414651
0.00847937
0.0599187
0.0472832
0.0572462
0.0555396
0.0523485
0.0618995
0.0451973
0.0677581
0.0363752
0.0679653
0.0288249
0.0620687
0.0224113
0.0577113
0.0186567
0.0485696
0.018083
0.045877
0.0444094
0.0151386
0.0685667
0.0460949
0.0663233
0.0577831
0.0609425
0.0672802
0.0532431
0.0754575
0.0428784
0.07833
0.0326156
0.0723315
0.0239136
0.0664132
0.0179329
0.0545503
0.0176177
0.0461922
0.0454786
0.0165485
0.0735556
0.0433435
0.0736234
0.0577153
0.0702688
0.0706348
0.0638921
0.0818343
0.0540881
0.0881341
0.0425906
0.0838289
0.0314745
0.0775293
0.0215086
0.0645162
0.016377
0.0513239
0.0475394
0.0143162
0.0692611
0.0396417
0.0720068
0.0549696
0.0721687
0.0704729
0.0695593
0.0844436
0.0634615
0.0942319
0.0540037
0.0932868
0.0435695
0.0879634
0.03121
0.0768758
0.0201966
0.0623373
0.0524772
0.0152587
0.0493371
0.0354253
0.0542561
0.0500506
0.0585382
0.0661908
0.0609419
0.08204
0.0611611
0.0940127
0.0583312
0.0961167
0.0524395
0.0938551
0.0432148
0.0861005
0.0315518
0.0740003
0.0595818
0.0244472
0.0160909
0.0327759
0.0212956
0.044846
0.0286249
0.0588615
0.0359618
0.0747031
0.0429966
0.0869778
0.0477577
0.0913556
0.0486879
0.0929249
0.0475945
0.0871939
0.0420946
0.0795002
0.06455
0.0371264
-0.0217479
0.0317941
-0.0177333
0.0408313
-0.010752
0.0518802
-0.000734259
0.0646853
0.010594
0.0756496
0.021281
0.0806685
0.0295552
0.0846507
0.0356436
0.0811054
0.0376578
0.0774861
0.0660513
0.0361566
-0.0552894
0.0331313
-0.0531013
0.0386432
-0.0473425
0.0461214
-0.0373305
0.0546734
-0.0247257
0.0630448
-0.0122143
0.0681571
-0.000118351
0.0725548
0.0094856
0.0715015
0.0170967
0.0698749
0.0647821
0.0183659
-0.073022
0.0358307
-0.0729315
0.0385527
-0.0693839
0.0425738
-0.0621846
0.0474741
-0.0517567
0.052617
-0.0399624
0.0563627
-0.0275914
0.0601838
-0.0167806
0.0606907
-0.00700996
0.0601043
0.0596401
-0.00186796
-0.0799415
0.0384151
-0.0805987
0.0392099
-0.0782286
0.0402037
-0.0728734
0.0421189
-0.0653644
0.045108
-0.0562702
0.0472685
-0.0461083
0.050022
-0.0365812
0.0511636
-0.0269817
0.0505047
0.0512337
-0.0185753
-0.0769037
0.0395486
-0.0761872
0.0384933
-0.074303
0.0383195
-0.0707858
0.0386016
-0.0657566
0.0400789
-0.0592829
0.0407948
-0.0515381
0.0422771
-0.0440533
0.0436788
-0.0364891
0.0429405
0.043544
-0.0287994
-0.0809288
0.0387017
-0.0782988
0.0358633
-0.074437
0.0344578
-0.0697566
0.0339212
-0.0640237
0.034346
-0.0583528
0.0351239
-0.0524443
0.0363687
-0.046347
0.0375814
-0.040326
0.0369195
0.0373503
-0.0341323
-0.077536
0.0350964
-0.0738302
0.0321575
-0.0695728
0.0302004
-0.065427
0.0297754
-0.0611438
0.0300628
-0.0565544
0.0305345
-0.0515682
0.0313825
-0.046184
0.0321972
-0.041215
0.0319505
0.0328915
-0.0367561
-0.0821456
-0.0763676
-0.0702789
-0.0640114
-0.0582375
-0.0532966
-0.0493505
0.0274364
-0.04542
0.0282667
-0.0408377
0.0273682
0.0279021
-0.0358483
-0.0420016
-0.0405238
-0.0404281
-0.039832
-0.00651064
0.0418673
-0.0434199
-0.00542485
0.0452778
-0.0463636
-0.00374433
0.0503012
-0.0519817
-0.00222942
0.0554254
-0.0569403
-0.00123859
0.0604316
-0.0614225
-0.000558957
0.0656782
-0.0663579
-3.2526e-05
0.0712641
-0.0717905
0.000353274
0.0771381
-0.0775239
0.000560518
0.0831722
-0.0833794
0.000629893
0.0896104
-0.0896798
0.000742834
0.0963131
-0.096426
0.000746223
0.103209
-0.103212
0.000717755
0.110625
-0.110597
0.000796179
0.118178
-0.118257
0.000765119
0.126096
-0.126065
0.000712306
0.134639
-0.134586
0.000676216
0.143706
-0.14367
0.000590711
0.15349
-0.153404
0.00051132
0.163987
-0.163908
0.000448554
0.175163
-0.175101
0.000386285
0.187111
-0.187049
0.000330678
0.199877
-0.199821
0.00028767
0.213496
-0.213453
0.000242872
0.228039
-0.227994
0.000197544
0.243613
-0.243568
0.000159408
0.260267
-0.260229
0.000117703
0.278093
-0.278051
7.61991e-05
0.29719
-0.297149
3.93506e-05
0.317668
-0.317631
0.339609
-0.33957
-0.00461884
0.0404584
-0.00388109
0.04454
-0.0027996
0.0492197
-0.00174384
0.0543696
-0.000873565
0.0595614
-0.000185306
0.06499
0.000323579
0.0707552
0.000645626
0.0768161
0.000738334
0.0830795
0.000738335
0.0896104
0.000743392
0.096308
0.000626642
0.103325
0.000605895
0.110646
0.000628246
0.118156
0.000589201
0.126135
0.00058711
0.134641
0.000572296
0.143721
0.000518266
0.153544
0.000473616
0.164032
0.000421061
0.175216
0.000366548
0.187166
0.00031933
0.199924
0.000281561
0.213534
0.000238498
0.228082
0.000198352
0.243654
0.000160893
0.260304
0.000119061
0.278134
7.81116e-05
0.297231
4.02456e-05
0.317706
0.339649
-0.00240007
0.0391547
-0.00164995
0.0437899
-0.000999784
0.0485695
-0.000294212
0.053664
0.0001458
0.0591214
0.000466987
0.0646688
0.00072443
0.0704978
0.000914615
0.0766259
0.00101501
0.0829791
0.00107084
0.0895546
0.00104033
0.0963385
0.000972174
0.103394
0.000990107
0.110628
0.000969399
0.118177
0.000907967
0.126196
0.000859225
0.13469
0.000759031
0.143821
0.000652348
0.15365
0.0005635
0.164121
0.000479169
0.1753
0.000406061
0.187239
0.00034939
0.19998
0.000300938
0.213582
0.00025062
0.228132
0.000207952
0.243696
0.000166298
0.260346
0.000122968
0.278178
8.12863e-05
0.297273
4.15759e-05
0.317745
0.339691
-0.000136435
0.0380727
0.000571357
0.0430821
0.000869143
0.0482718
0.0010325
0.0535007
0.00130729
0.0588466
0.00153982
0.0644363
0.0016284
0.0704092
0.00159488
0.0766594
0.00146962
0.0831044
0.00128605
0.0897381
0.00105258
0.096572
0.000877225
0.103569
0.000772669
0.110733
0.000679088
0.11827
0.000649412
0.126226
0.000628087
0.134711
0.000583149
0.143866
0.000537493
0.153696
0.000485927
0.164173
0.000424236
0.175362
0.000370598
0.187293
0.000326943
0.200024
0.00028612
0.213623
0.000243705
0.228174
0.000206426
0.243733
0.00016612
0.260386
0.000124367
0.27822
8.30857e-05
0.297314
4.24351e-05
0.317786
0.339733
0.00270105
0.0375682
0.00316842
0.0426148
0.00324315
0.048197
0.00300952
0.0537343
0.00263134
0.0592248
0.0022652
0.0648024
0.00197636
0.070698
0.00178296
0.0768528
0.001653
0.0832343
0.00150798
0.0898832
0.00137496
0.096705
0.00129349
0.10365
0.00121177
0.110815
0.00114857
0.118334
0.00107904
0.126295
0.000968441
0.134822
0.000832325
0.144002
0.000711792
0.153816
0.000598724
0.164286
0.000501079
0.17546
0.000424825
0.187369
0.000364607
0.200084
0.000308551
0.213679
0.000260187
0.228223
0.000217028
0.243777
0.000172336
0.260431
0.00012939
0.278262
8.66207e-05
0.297357
4.41051e-05
0.317829
0.339778
0.00778462
0.0382629
0.0067526
0.0436468
0.00570408
0.0492455
0.00495402
0.0544843
0.00446701
0.0597118
0.00396794
0.0653015
0.00340857
0.0712574
0.00289404
0.0773673
0.00238672
0.0837416
0.00190447
0.0903654
0.00149667
0.0971128
0.00117434
0.103973
0.000926631
0.111062
0.000779472
0.118481
0.000707336
0.126367
0.000646345
0.134883
0.000598153
0.14405
0.000546678
0.153868
0.000484023
0.164348
0.000423659
0.17552
0.000373892
0.187419
0.000330905
0.200127
0.000288763
0.213721
0.000252388
0.228259
0.000214021
0.243815
0.000172721
0.260472
0.000131401
0.278304
8.8468e-05
0.2974
4.52435e-05
0.317872
0.339823
0.0130762
0.0403253
0.0107839
0.0459392
0.0087741
0.0512553
0.00700335
0.0562551
0.0055736
0.0611415
0.0043979
0.0664772
0.00354216
0.0721131
0.00289614
0.0780134
0.00238525
0.0842525
0.00202341
0.0907272
0.00178178
0.0973544
0.00158162
0.104173
0.00144767
0.111196
0.0013449
0.118583
0.00120637
0.126506
0.00105178
0.135037
0.000891168
0.144211
0.000744546
0.154015
0.00061609
0.164477
0.00051595
0.17562
0.000438313
0.187496
0.000371979
0.200194
0.000315419
0.213778
0.000269453
0.228305
0.000223839
0.243861
0.000179615
0.260516
0.000136439
0.278347
9.18496e-05
0.297445
4.70737e-05
0.317917
0.33987
0.0138508
0.0430231
0.0116038
0.0481862
0.0101055
0.0527535
0.00884135
0.0575193
0.00756651
0.0624164
0.00630595
0.0677377
0.00511978
0.0732993
0.00406983
0.0790633
0.00318521
0.0851372
0.00247154
0.0914409
0.00186899
0.097957
0.00141622
0.104626
0.0010859
0.111527
0.000871537
0.118798
0.000743346
0.126634
0.000660006
0.13512
0.000598521
0.144272
0.000532544
0.154081
0.000470707
0.164539
0.000414891
0.175676
0.000370027
0.187541
0.000327147
0.200236
0.000292396
0.213812
0.000257943
0.22834
0.000219079
0.243899
0.000179865
0.260555
0.000137756
0.278389
9.32412e-05
0.297489
4.81337e-05
0.317962
0.339918
0.0136561
0.0436832
0.0127922
0.04905
0.0112693
0.0542764
0.00955148
0.0592371
0.00777946
0.0641884
0.00619302
0.0693242
0.00486159
0.0746307
0.00373386
0.080191
0.00288533
0.0859857
0.00231421
0.092012
0.00195556
0.0983156
0.00171194
0.104869
0.00156198
0.111676
0.00141664
0.118943
0.00124481
0.126806
0.00106298
0.135302
0.000880846
0.144454
0.000727215
0.154234
0.000603138
0.164663
0.000509825
0.175769
0.000432391
0.187619
0.000367835
0.200301
0.000317659
0.213863
0.000270322
0.228387
0.000226932
0.243943
0.000185091
0.260597
0.000141239
0.278433
9.59204e-05
0.297534
4.96032e-05
0.318008
0.339968
0.0168299
0.042112
0.0171552
0.0487247
0.0153654
0.0560662
0.0128887
0.0617139
0.0103954
0.0666817
0.00812663
0.0715929
0.00628236
0.076475
0.00475842
0.081715
0.00361049
0.0871336
0.00269851
0.092924
0.00200033
0.0990138
0.00151411
0.105356
0.0011486
0.112042
0.000898438
0.119193
0.000748823
0.126956
0.00064475
0.135406
0.000567178
0.144532
0.00049916
0.154302
0.000440053
0.164722
0.000394436
0.175815
0.000354221
0.187659
0.00032198
0.200333
0.000293425
0.213891
0.000259117
0.228421
0.000223942
0.243978
0.000185446
0.260636
0.000142687
0.278476
9.74939e-05
0.29758
5.05753e-05
0.318055
0.340018
0.0239913
0.0425679
0.0210703
0.0516457
0.0169762
0.0601604
0.0130862
0.0656038
0.00986628
0.0699016
0.00747319
0.073986
0.00542186
0.0785263
0.00388946
0.0832474
0.00276868
0.0882544
0.0020739
0.0936188
0.0017052
0.0993825
0.00149507
0.105566
0.00138155
0.112156
0.00126049
0.119314
0.00110228
0.127114
0.000928528
0.13558
0.000766134
0.144694
0.00063797
0.15443
0.000539681
0.16482
0.000467368
0.175887
0.000402836
0.187723
0.00035386
0.200382
0.000308502
0.213936
0.00026624
0.228463
0.000228655
0.244016
0.000188189
0.260676
0.000145187
0.278519
9.97793e-05
0.297625
5.17672e-05
0.318103
0.34007
0.0316187
0.0480756
0.0244001
0.0588643
0.0184483
0.0661122
0.0138525
0.0701996
0.0103206
0.0734336
0.00771244
0.0765941
0.00575904
0.0804797
0.00429063
0.0847158
0.00315946
0.0893856
0.00232495
0.0944533
0.00172614
0.0999813
0.00132982
0.105962
0.00102396
0.112461
0.000818256
0.11952
0.000679797
0.127252
0.000574487
0.135685
0.000499301
0.14477
0.000436814
0.154493
0.000392266
0.164865
0.000359117
0.17592
0.000333822
0.187749
0.000315344
0.200401
0.000290092
0.213962
0.000262022
0.228492
0.000229214
0.244048
0.000190661
0.260715
0.000148335
0.278561
0.000102097
0.297671
5.30828e-05
0.318152
0.340123
0.0263305
0.0579016
0.0183675
0.0668274
0.0132196
0.0712601
0.00965524
0.0737639
0.00732486
0.0757639
0.00505747
0.0788615
0.00337583
0.0821614
0.00211051
0.0859811
0.0012905
0.0902056
0.000865078
0.0948787
0.000717727
0.100129
0.000699826
0.10598
0.000743028
0.112418
0.000739445
0.119524
0.000669131
0.127323
0.00058032
0.135774
0.000498517
0.144851
0.000440998
0.15455
0.000405073
0.1649
0.000372881
0.175952
0.000343478
0.187778
0.000314939
0.200429
0.000284582
0.213992
0.000255442
0.228521
0.00022444
0.244079
0.000188315
0.260751
0.000147978
0.278601
0.000102569
0.297717
5.3585e-05
0.318201
0.340177
0.010885
0.0653826
0.00730338
0.070409
0.00561591
0.0729476
0.00447195
0.0749079
0.00365034
0.0765856
0.00291512
0.0795967
0.00230963
0.0827669
0.00181994
0.0864708
0.00138217
0.0906433
0.00109661
0.0951643
0.000890514
0.100335
0.000762465
0.106108
0.00064759
0.112533
0.000561688
0.11961
0.000491324
0.127393
0.000425323
0.13584
0.000374235
0.144902
0.000333211
0.154591
0.000313027
0.164921
0.000303103
0.175962
0.00030083
0.18778
0.000293989
0.200436
0.000278936
0.214007
0.000257196
0.228542
0.000227232
0.244109
0.000191167
0.260787
0.000150645
0.278642
0.00010419
0.297763
5.45692e-05
0.318251
0.340231
-0.00412523
0.0676398
-0.00348541
0.0697692
-0.00235745
0.0718196
-0.00158027
0.0741307
-0.0017716
0.0767769
-0.00181917
0.0796443
-0.00182353
0.0827712
-0.00190303
0.0865503
-0.00164671
0.090387
-0.00140136
0.0949189
-0.00107093
0.100004
-0.000705448
0.105742
-0.000405454
0.112233
-0.000207312
0.119411
-9.72591e-05
0.127283
-1.64211e-05
0.135759
4.84178e-05
0.144838
0.000117094
0.154523
0.000174288
0.164863
0.000213659
0.175923
0.000234024
0.18776
0.000239436
0.200431
0.000236624
0.21401
0.000225134
0.228554
0.000206406
0.244128
0.00017885
0.260815
0.000143571
0.278677
0.000100753
0.297806
5.3196e-05
0.318298
0.340284
-0.0158145
0.0648791
-0.0121638
0.0661185
-0.00971727
0.0693731
-0.00718141
0.0715948
-0.00504701
0.0746425
-0.0034728
0.0780701
-0.00235484
0.0816533
-0.00157759
0.0857731
-0.00101431
0.0898237
-0.000615492
0.0945201
-0.000285285
0.0996741
-9.52884e-05
0.105552
4.57942e-05
0.112092
0.000137595
0.11932
0.000190103
0.12723
0.000195763
0.135754
0.000189939
0.144843
0.000187858
0.154525
0.000201134
0.16485
0.000224026
0.1759
0.000245294
0.187739
0.000255103
0.200421
0.000251142
0.214014
0.000236798
0.228568
0.000212846
0.244152
0.00018197
0.260845
0.000145086
0.278714
0.000101533
0.29785
5.35011e-05
0.318346
0.340338
-0.0246298
0.0607095
-0.0198712
0.0613598
-0.0168818
0.0663837
-0.0136602
0.0683733
-0.0118287
0.072811
-0.00975014
0.0759915
-0.00823033
0.0801335
-0.0064627
0.0840054
-0.0051231
0.0884841
-0.00400211
0.0933991
-0.0031176
0.0987896
-0.00235541
0.10479
-0.00182192
0.111558
-0.001414
0.118912
-0.00109259
0.126909
-0.000800515
0.135462
-0.000542984
0.144586
-0.000314947
0.154297
-0.000134281
0.16467
-5.78938e-06
0.175772
7.95798e-05
0.187653
0.000132185
0.200368
0.000164197
0.213982
0.000177534
0.228555
0.000175342
0.244154
0.000160031
0.260861
0.000131831
0.278742
9.45516e-05
0.297887
5.03827e-05
0.31839
0.340388
-0.0285821
0.0551593
-0.0235612
0.0563389
-0.0194551
0.0622776
-0.0139697
0.0628879
-0.0112623
0.0701036
-0.00774424
0.0724734
-0.00596425
0.0783535
-0.00434249
0.0823837
-0.00321985
0.0873615
-0.00231788
0.0924971
-0.00155802
0.0980298
-0.00108208
0.104314
-0.000655402
0.111132
-0.000359893
0.118616
-0.000169597
0.126719
-7.29747e-05
0.135365
-1.84921e-05
0.144531
2.68689e-05
0.154251
7.55079e-05
0.164621
0.000130518
0.175717
0.000174443
0.187609
0.000200633
0.200342
0.000207787
0.213975
0.000202758
0.22856
0.000187371
0.24417
0.000164438
0.260884
0.000133249
0.278773
9.50217e-05
0.297925
5.0408e-05
0.318435
0.340439
-0.0327533
0.0511564
-0.0287924
0.052378
-0.025554
0.0590392
-0.0215474
0.0588813
-0.0192411
0.0677973
-0.0152542
0.0684865
-0.0121152
0.0752145
-0.0091888
0.0794572
-0.00707786
0.0852506
-0.00542584
0.0908451
-0.00434667
0.0969506
-0.00350665
0.103474
-0.00295384
0.110579
-0.00249421
0.118157
-0.00203138
0.126256
-0.00156477
0.134898
-0.00112273
0.144089
-0.000750737
0.153879
-0.000457243
0.164327
-0.000247504
0.175507
-9.50722e-05
0.187457
8.29844e-06
0.200239
7.80641e-05
0.213905
0.000118039
0.22852
0.00013459
0.244153
0.000132576
0.260886
0.000114032
0.278792
8.40247e-05
0.297955
4.54995e-05
0.318473
0.340484
-0.0301439
0.045452
-0.0247523
0.0469864
-0.0192074
0.0534943
-0.0149689
0.0546428
-0.0127615
0.0655899
-0.0108867
0.0666116
-0.00888596
0.0732138
-0.00734206
0.0779133
-0.00574552
0.083654
-0.00428975
0.0893894
-0.00308959
0.0957504
-0.00213997
0.102525
-0.00138082
0.10982
-0.000824312
0.1176
-0.00051047
0.125942
-0.000327273
0.134715
-0.000230008
0.143992
-0.000140965
0.15379
-5.93727e-05
0.164246
2.29511e-05
0.175425
8.20562e-05
0.187398
0.000121162
0.2002
0.000140264
0.213886
0.000146924
0.228513
0.000144642
0.244155
0.000132493
0.260898
0.000111743
0.278813
8.17818e-05
0.297985
4.41599e-05
0.318511
0.340528
-0.0362443
0.0418643
-0.0333522
0.0440943
-0.0290479
-0.024749
-0.0182549
-0.0137019
-0.00949498
-0.00698467
-0.00512462
-0.00421348
-0.00366705
-0.00340353
-0.00319686
-0.00296605
-0.00251972
-0.00201349
-0.00148467
-0.00104772
-0.0007015
-0.000446737
-0.00025255
-0.000113003
-1.25638e-05
5.08783e-05
8.35911e-05
9.51206e-05
8.8343e-05
6.75649e-05
3.76578e-05
-0.021564
0.0213247
0.0499793
0.0221023
0.0524029
0.0224913
0.0555627
0.0224059
0.0593827
0.0222539
0.0631351
0.0221754
0.0669802
0.0221227
0.0713834
0.0220903
0.0763542
0.0220681
0.0817106
0.0874297
0.0254677
0.0493071
0.026392
0.0514787
0.0272418
0.0547128
0.0278094
0.0588152
0.0281708
0.0627736
0.0281169
0.0670342
0.0276826
0.0718176
0.0271646
0.0768722
0.0266707
0.0822045
0.0261386
0.0879618
0.0254557
0.0944297
0.0248597
0.101033
0.0241781
0.107742
0.0232514
0.11528
0.022463
0.122897
0.0215704
0.130961
0.0205159
0.139995
0.0194743
0.149485
0.0183463
0.15966
0.0171406
0.17061
0.0158684
0.182262
0.0145175
0.194717
0.0130764
0.20802
0.0115476
0.22221
0.00991466
0.237388
0.00817532
0.253651
0.00632556
0.271032
0.00435124
0.289658
0.00224568
0.309626
0.331034
0.0281666
0.048053
0.0289866
0.0506588
0.0289917
0.0547077
0.0292128
0.0585941
0.029721
0.0622654
0.0300494
0.0667058
0.0301039
0.0717631
0.0300037
0.0769724
0.0297927
0.0824156
0.0294024
0.0883521
0.0288223
0.0950098
0.0282117
0.101643
0.0273496
0.108604
0.0263518
0.116278
0.0254654
0.123783
0.0243566
0.13207
0.0232186
0.141133
0.0220771
0.150627
0.0208084
0.160929
0.0194616
0.171957
0.0180305
0.183693
0.0165008
0.196246
0.0148693
0.209651
0.0131354
0.223944
0.0112807
0.239242
0.00930645
0.255626
0.00720261
0.273136
0.00495597
0.291905
0.00255792
0.312024
0.333592
0.0306663
0.0450876
0.0332423
0.0480827
0.034197
0.0537531
0.0346794
0.0581116
0.0348896
0.0620553
0.0348301
0.0667653
0.0345531
0.0720401
0.034091
0.0774345
0.0335138
0.0829928
0.0328408
0.0890251
0.0321233
0.0957272
0.0314149
0.102352
0.0304304
0.109588
0.0294994
0.117209
0.0284564
0.124826
0.0272089
0.133318
0.0259776
0.142364
0.0246463
0.151958
0.0232009
0.162375
0.0216904
0.173467
0.020086
0.185298
0.0183781
0.197954
0.0165623
0.211467
0.0146309
0.225876
0.0125664
0.241307
0.0103704
0.257822
0.00802679
0.27548
0.00552487
0.294407
0.00285152
0.314697
0.336443
0.030983
0.0327022
0.0344735
0.0356449
0.0362777
0.0366851
0.0369347
0.0368452
0.0364586
0.0358039
0.0351052
0.0342449
0.0332364
0.0321886
0.0309505
0.0296822
0.0283768
0.0269306
0.0253971
0.0237636
0.0220125
0.0201459
0.0181601
0.016042
0.0137808
0.0113739
0.0088029
0.00606072
0.00312674
)
;

boundaryField
{
    outlet
    {
        type            calculated;
        value           nonuniform 0();
    }
    upperWall
    {
        type            symmetryPlane;
        value           nonuniform 0();
    }
    lowerWall
    {
        type            symmetryPlane;
        value           uniform 0;
    }
    inlet
    {
        type            calculated;
        value           nonuniform 0();
    }
    cylinder
    {
        type            calculated;
        value           nonuniform 0();
    }
    frontAndBack
    {
        type            empty;
        value           nonuniform 0();
    }
    procBoundary2to1
    {
        type            processor;
        value           nonuniform List<scalar> 
63
(
-0.0177417
-0.0307869
-0.0313105
-0.031139
-0.0176068
-0.0313303
-0.0310622
-0.0171872
-0.0322626
-0.0322809
-0.0324488
-0.0201102
-0.0340093
-0.0344763
-0.0347694
-0.0206641
0.00317563
-7.14902e-05
0.00038015
-0.00232971
-0.00502293
-0.00702972
-0.00778968
-0.00798837
-0.012244
-0.0081153
-0.020462
-0.0148365
-0.0296322
-0.0185459
-0.0313987
-0.016501
-0.0506399
-0.0531805
-0.0559518
-0.0592974
-0.062983
-0.0669017
-0.0713307
-0.0763217
-0.0816885
-0.0873133
0.0219518
-0.0937469
-0.100437
-0.10706
-0.114353
-0.122109
-0.130069
-0.138941
-0.148444
-0.158532
-0.169404
-0.18099
-0.193366
-0.206579
-0.220682
-0.235755
-0.251912
-0.269183
-0.287684
-0.30752
-0.328788
)
;
    }
    procBoundary2to3
    {
        type            processor;
        value           nonuniform List<scalar> 
43
(
0.0300289
0.0263796
0.0241116
0.0235079
0.024289
0.0255936
0.044738
0.0247
0.0267889
0.0272725
0.027306
0.0243863
0.04919
0.0503439
0.0590958
0.0620587
0.0690069
0.075403
0.081794
0.0884782
0.095204
0.102261
0.109613
0.117369
0.125496
0.134209
0.143463
0.153353
0.1639
0.17517
0.187204
0.20006
0.213785
0.22845
0.244123
0.260886
0.278819
0.298006
0.318541
0.340566
0.039042
-0.0193868
0.0419172
)
;
    }
    procBoundary2to6
    {
        type            processor;
        value           nonuniform List<scalar> 
37
(
0.000639563
0.00566821
0.010966
0.0160548
0.0208945
0.0257935
0.0306369
0.0348414
0.0378748
0.0390186
0.0373149
0.0315783
0.0250602
0.0157044
0.00690502
-0.00500932
-0.0186125
-0.0427733
-0.0534666
-0.0563381
-0.0567358
-0.0568456
-0.0571182
-0.0597253
-0.0673784
-0.0708042
-0.0655593
-0.0451207
-0.0134415
0.0227297
0.0539522
0.0703226
0.0773571
0.0757702
0.0817757
0.0811413
0.0872131
)
;
    }
}


// ************************************************************************* //
