/*--------------------------------*- C++ -*----------------------------------*\
| =========                 |                                                 |
| \\      /  F ield         | OpenFOAM: The Open Source CFD Toolbox           |
|  \\    /   O peration     | Version:                                        |
|   \\  /    A nd           | Website:  www.openfoam.com                      |
|    \\/     M anipulation  |                                                 |
\*---------------------------------------------------------------------------*/
FoamFile
{
    version     2.0;
    format      ascii;
    class       surfaceScalarField;
    location    "40";
    object      phi;
}
// * * * * * * * * * * * * * * * * * * * * * * * * * * * * * * * * * * * * * //

dimensions      [0 3 -1 0 0 0 0];
oriented        oriented;


internalField   nonuniform List<scalar> 
2257
(
-0.0115063
-0.0336795
-0.0159854
-0.0182534
-0.0203112
-0.0057631
-0.0250763
0.00550689
-0.0298451
0.0148959
0.0228029
-0.0183324
-0.0274223
-0.0246027
-0.0119831
-0.0306501
0.000284298
-0.0360389
0.0108957
-0.0409024
0.0197594
-0.0448774
0.0267778
-0.0475039
0.0317928
-0.0485606
0.0347605
-0.0483014
0.0356794
0.0366465
-0.0233063
-0.0191792
-0.0307039
-0.00458551
-0.0372329
0.00681329
-0.0429806
0.0166434
-0.0476637
0.0244425
-0.0506683
0.0297824
-0.0520874
0.0332119
-0.052046
0.0347191
-0.051117
0.0347504
0.0349609
-0.0494313
-0.0235289
-0.00996851
-0.0319484
0.00383403
-0.0389792
0.0138441
-0.0446268
0.0222911
-0.0485628
0.0283785
-0.0508781
0.0320977
-0.0517567
0.0340904
-0.0515641
0.0345266
-0.0506494
0.0338358
0.0329372
-0.0486258
-0.0212693
-0.0013865
-0.0290508
0.0116155
-0.035696
0.0204893
-0.0407993
0.0273943
-0.0442945
0.0318737
-0.0463455
0.0341488
-0.0472443
0.0349892
-0.0473525
0.0346347
-0.046894
0.0333774
0.0318755
-0.0458323
-0.0176564
0.00685839
-0.0239144
0.0178735
-0.0297429
0.0263178
-0.0341799
0.0318314
-0.0373886
0.0350824
-0.0394481
0.0362083
-0.0406417
0.0361828
-0.0412088
0.0352018
-0.0413685
0.033537
0.0316926
-0.0411856
-0.012203
0.0135675
-0.0176474
0.0233179
-0.0226906
0.0313609
-0.026665
0.0358058
-0.0296731
0.0380905
-0.0318271
0.0383624
-0.033335
0.0376907
-0.0344022
0.036269
-0.035232
0.0343668
0.0323386
-0.035878
-0.00825314
0.0195382
-0.0126698
0.0277345
-0.0167365
0.0354277
-0.0202045
0.0392738
-0.0229758
0.0408617
-0.025127
0.0405136
-0.0267905
0.0393542
-0.0281513
0.0376298
-0.0294182
0.0356337
0.0335828
-0.0306624
-0.00472697
0.0244371
-0.00821275
0.0312203
-0.0114481
0.038663
-0.0144212
0.0422469
-0.0169609
0.0434015
-0.0191167
0.0426694
-0.0209642
0.0412017
-0.0226076
0.0392732
-0.024148
0.0371741
0.0351964
-0.0257616
-0.00205475
0.0283406
-0.00483986
0.0340054
-0.00736858
0.0411918
-0.00980004
0.0446784
-0.0119871
0.0455886
-0.0139538
0.0446361
-0.0157342
0.0429821
-0.0174607
0.0409997
-0.0191999
0.0389133
0.0370158
-0.0210193
-0.000193173
0.0314236
-0.00257537
0.0363876
-0.00461547
0.0432319
-0.00660759
0.0466705
-0.00845827
0.0474392
-0.0101904
0.0463682
-0.0118099
0.0446016
-0.0134111
0.0426009
-0.0151246
0.0406267
0.0387929
-0.0169018
0.00088422
0.0339856
-0.00114357
0.0384154
-0.00284084
0.0449291
-0.00448801
0.0483177
-0.00604778
0.048999
-0.00755312
0.0478736
-0.00901301
0.0460615
-0.0104756
0.0440636
-0.0120503
0.0422014
0.0404572
-0.0137145
0.00157923
0.0360538
-0.00016652
0.0401612
-0.00159393
0.0463565
-0.0029265
0.0496502
-0.00417945
0.050252
-0.00540876
0.0491029
-0.00665374
0.0473065
-0.00794845
0.0453583
-0.0093637
0.0436166
0.0419917
-0.0108983
0.00189951
0.0377687
0.000321472
0.0417392
-0.000906396
0.0475844
-0.00196605
0.0507099
-0.00294756
0.0512335
-0.00393738
0.0500927
-0.00498435
0.0483535
-0.00610917
0.0464831
-0.00733861
0.044846
0.04333
-0.00867687
0.00194195
0.0392076
0.000494284
0.0431869
-0.000637726
0.0487164
-0.00155949
0.0516316
-0.0023875
0.0520615
-0.00322351
0.0509287
-0.00411727
0.0492472
-0.00508951
0.0474553
-0.00614792
0.0459045
0.0444769
-0.0072948
0.00177384
0.0404316
0.000474823
0.0444859
-0.000527887
0.0497191
-0.00130357
0.0524073
-0.00196311
0.052721
-0.00260968
0.0515753
-0.00330786
0.0499454
-0.00409871
0.0482462
-0.00499016
0.0467959
0.0454741
-0.00598735
0.00145953
0.0414961
0.000297267
0.0456481
-0.00054391
0.0505603
-0.00111448
0.0529779
-0.00156491
0.0531715
-0.00202766
0.052038
-0.00256416
0.0504819
-0.00320235
0.0488844
-0.00393057
0.0475241
0.0462923
-0.00474878
0.00105543
0.0424262
3.78246e-05
0.0466657
-0.000689811
0.051288
-0.00115444
0.0534425
-0.00151161
0.0535286
-0.00189436
0.0524208
-0.00235212
0.0509397
-0.00290448
0.0494367
-0.00354096
0.0481606
0.0470061
-0.00425483
0.000508956
0.0433171
-0.00038765
0.0475624
-0.000945142
0.0518454
-0.00123512
0.0537325
-0.00140519
0.0536987
-0.00159174
0.0526073
-0.00187047
0.0512184
-0.00229002
0.0498563
-0.00284976
0.0487203
0.0476953
-0.00353891
-4.49087e-05
0.0441619
-0.000843006
0.0483604
-0.00124658
0.052249
-0.00134922
0.0538351
-0.0013325
0.053682
-0.00136655
0.0526414
-0.00155033
0.0514022
-0.00193133
0.0502373
-0.00247833
0.0492673
0.0483663
-0.00314931
-0.000400632
0.0448417
-0.00105956
0.0490194
-0.00142322
0.0526127
-0.00154634
0.0539583
-0.00159892
0.0537345
-0.00172783
0.0527703
-0.00200297
0.0516773
-0.00244404
0.0506783
-0.00300855
0.0498319
0.0489978
-0.00364005
-0.000642643
0.0453056
-0.00107371
0.0494504
-0.00137473
0.0529137
-0.00156749
0.054151
-0.00174024
0.0539073
-0.00195782
0.0529879
-0.00224501
0.0519645
-0.00261862
0.051052
-0.00308617
0.0502994
0.0495515
-0.00363988
-0.000834678
0.0456192
-0.00101642
0.0496322
-0.00111031
0.0530076
-0.00118574
0.0542265
-0.00126729
0.0539888
-0.00136369
0.0530843
-0.00147952
0.0520803
-0.00165094
0.0512234
-0.00193152
0.05058
0.0499885
-0.00236854
-0.00113019
0.0459534
-0.00121612
0.0497181
-0.00107714
0.0528686
-0.000837542
0.0539869
-0.000588575
0.0537399
-0.000419061
0.0529147
-0.000369438
0.0520307
-0.000458108
0.051312
-0.000681254
0.0508031
0.0503554
-0.00104814
-0.00128997
0.0463159
-0.00140639
0.0498345
-0.00128254
0.0527448
-0.00103705
0.0537414
-0.00081357
0.0535164
-0.000758927
0.0528601
-0.000929746
0.0522015
-0.00129312
0.0516754
-0.00176151
0.0512715
0.0508543
-0.00226045
-0.00117117
0.0465467
-0.00122847
0.0498918
-0.00120287
0.0527192
-0.00117796
0.0537165
-0.00122756
0.053566
-0.00141972
0.0530523
-0.00177918
0.052561
-0.00227696
0.0521732
-0.0028481
0.0518427
0.0514337
-0.00342748
-0.000994244
0.0466558
-0.000935254
0.0498328
-0.000910638
0.0526945
-0.00102022
0.053826
-0.00125213
0.0537979
-0.00157106
0.0533712
-0.00196152
0.0529515
-0.00242274
0.0526344
-0.00295099
0.0523709
0.0520314
-0.00354866
-0.000678
0.0466236
-0.000474139
0.049629
-0.000324869
0.0525453
-0.000350011
0.0538512
-0.000503665
0.0539515
-0.000701695
0.0535692
-0.000904923
0.0531547
-0.00113229
0.0528618
-0.00144526
0.0526839
0.0524948
-0.00190872
-0.00062471
0.04664
-0.000398342
0.0494026
-0.00010528
0.0522522
0.000125374
0.0536205
0.000285007
0.0537919
0.000381854
0.0534724
0.00041503
0.0531215
0.000374667
0.0529022
0.000224924
0.0528336
0.052811
-9.12299e-05
-0.000411935
-0.000326821
-0.000121088
8.75775e-05
0.000243636
0.00030027
0.000229444
2.91675e-05
-0.000292685
-0.000741955
-0.0380239
0.0628932
-0.0349659
0.0680462
-0.0320322
0.0729585
-0.029154
0.0780657
-0.0263146
0.083279
-0.0235975
0.0886553
-0.0210962
0.0944107
-0.0188067
0.100655
-0.0166727
0.107266
-0.0146762
0.114178
-0.012836
0.121459
-0.0111664
0.129193
-0.00966326
0.137413
-0.00831527
0.146134
-0.00711202
0.155382
-0.00604452
0.165197
-0.0051032
0.175626
-0.00427738
0.18672
-0.00355648
0.198535
-0.00292983
0.211134
-0.00238621
0.224588
-0.00191504
0.238976
-0.00150572
0.254387
-0.0011476
0.270922
-0.000830053
0.288696
-0.00054184
0.307844
-0.000270398
0.328523
0.350923
-0.0467196
0.053664
-0.0424624
0.056563
-0.0389297
0.0593605
-0.0362965
0.065413
-0.0334143
0.0700763
-0.0305065
0.0751579
-0.0276536
0.080426
-0.0249674
0.0859691
-0.0224746
0.091918
-0.020129
0.0983095
-0.0179114
0.105048
-0.0158453
0.112112
-0.0139488
0.119562
-0.012219
0.127463
-0.0106436
0.135837
-0.009213
0.144703
-0.00792148
0.154091
-0.00676457
0.16404
-0.00573618
0.174598
-0.00482801
0.185812
-0.00403081
0.197738
-0.00333343
0.210437
-0.00272508
0.22398
-0.00219475
0.238446
-0.00173121
0.253923
-0.00132342
0.270514
-0.00095974
0.288332
-0.000627687
0.307512
-0.000313505
0.328208
0.35061
-0.0455084
0.0505467
-0.041497
0.0525515
-0.0389283
0.0567918
-0.0365929
0.0630776
-0.0337131
0.0671966
-0.0309582
0.072403
-0.0283046
0.0777724
-0.0257721
0.0834366
-0.0233282
0.089474
-0.0209881
0.0959694
-0.0187807
0.102841
-0.0167304
0.110061
-0.0148392
0.117671
-0.0130934
0.125717
-0.011481
0.134225
-0.00999967
0.143222
-0.00864984
0.152741
-0.00743079
0.162821
-0.00633677
0.173504
-0.00536107
0.184836
-0.00449552
0.196872
-0.00373262
0.209674
-0.00306301
0.22331
-0.00247569
0.237858
-0.00195916
0.253407
-0.00150174
0.270056
-0.00109143
0.287922
-0.00071509
0.307135
-0.000357933
0.327851
0.350252
-0.04272
0.0474344
-0.0396184
0.0494499
-0.037981
0.0551543
-0.0357617
0.0608583
-0.0330712
0.0645061
-0.0306506
0.0699824
-0.0282627
0.0753846
-0.0259149
0.0810888
-0.0236068
0.0871659
-0.0213946
0.0937573
-0.019302
0.100748
-0.0173404
0.1081
-0.0155042
0.115835
-0.0137793
0.123992
-0.0121638
0.13261
-0.0106632
0.141721
-0.00928358
0.151361
-0.00802517
0.161563
-0.00688514
0.172364
-0.0058589
0.18381
-0.00494082
0.195954
-0.00412342
0.208856
-0.00339791
0.222585
-0.00275587
0.237216
-0.00218765
0.252838
-0.00168186
0.269551
-0.00122533
0.287465
-0.000804176
0.306714
-0.000402085
0.327449
0.34985
-0.0388816
0.0451305
-0.0371231
0.0476914
-0.0360327
0.054064
-0.0338352
0.0586608
-0.0315724
0.0622433
-0.029615
0.068025
-0.0275521
0.0733217
-0.0254122
0.0789489
-0.0233457
0.0850994
-0.0213634
0.091775
-0.0194629
0.0988479
-0.0176438
0.106281
-0.0159004
0.114092
-0.0142348
0.122327
-0.012657
0.131032
-0.0111762
0.14024
-0.0097998
0.149985
-0.00852861
0.160292
-0.00736432
0.1712
-0.00630543
0.182751
-0.00534886
0.194997
-0.00448881
0.207996
-0.00371887
0.221815
-0.00303082
0.236528
-0.00241533
0.252223
-0.00186208
0.268997
-0.00135989
0.286963
-0.00089451
0.306249
-0.000448534
0.327003
0.349401
-0.0344663
0.0437187
-0.0336839
0.046909
-0.0328861
0.0532662
-0.0310465
0.0568211
-0.0293889
0.0605858
-0.0278565
0.0664926
-0.026079
0.0715443
-0.0243313
0.0772011
-0.0226138
0.0833819
-0.020936
0.0900972
-0.0192771
0.097189
-0.0176338
0.104638
-0.0160209
0.112479
-0.0144586
0.120764
-0.0129584
0.129532
-0.011534
0.138816
-0.0101895
0.14864
-0.00893265
0.159035
-0.00776692
0.170034
-0.00669407
0.181678
-0.00571324
0.194017
-0.00482248
0.207106
-0.00401714
0.221009
-0.00329077
0.235802
-0.00263492
0.251567
-0.00204005
0.268402
-0.00149445
0.286418
-0.000984634
0.305739
-0.000493405
0.326512
0.348908
-0.0299816
0.043038
-0.029744
0.0466713
-0.0290689
0.0525911
-0.027663
0.0554153
-0.0266192
0.059542
-0.0254925
0.0653658
-0.0241009
0.0701527
-0.0227507
0.0758509
-0.0214699
0.082101
-0.0201518
0.0887791
-0.0187536
0.0957908
-0.0173127
0.103197
-0.0158698
0.111036
-0.0144458
0.11934
-0.0130611
0.128147
-0.0117217
0.137477
-0.0104397
0.147358
-0.00922319
0.157818
-0.00807878
0.168889
-0.00701112
0.180611
-0.00602314
0.193029
-0.00511491
0.206197
-0.0042844
0.220179
-0.00352735
0.235045
-0.00283762
0.250877
-0.00220651
0.267771
-0.00162291
0.285834
-0.00107307
0.305189
-0.000539872
0.325979
0.348368
-0.0255976
0.042874
-0.0256595
0.0467332
-0.0251325
0.0520641
-0.0241749
0.0544577
-0.0235957
0.0589628
-0.0228481
0.0646183
-0.0219173
0.0692219
-0.0210399
0.0749736
-0.0201224
0.0811834
-0.0190765
0.0877332
-0.0179272
0.0946415
-0.0167127
0.101982
-0.0154636
0.109787
-0.0142105
0.118087
-0.0129661
0.126902
-0.0117419
0.136252
-0.0105485
0.146165
-0.00939662
0.156666
-0.00829599
0.167789
-0.00725428
0.179569
-0.00627679
0.192051
-0.00536623
0.205287
-0.00452309
0.219336
-0.00374512
0.234267
-0.00302781
0.25016
-0.00236402
0.267108
-0.00174434
0.285214
-0.00115607
0.304601
-0.000582398
0.325405
0.347785
-0.0212497
0.0431044
-0.021564
0.0470475
-0.0212925
0.0517927
-0.0208661
0.0540313
-0.0206778
0.0587744
-0.0202737
0.0642142
-0.0197342
0.0686823
-0.0192047
0.0744441
-0.0185615
0.0805403
-0.017763
0.0869347
-0.0168551
0.0937336
-0.0158669
0.100994
-0.0148294
0.108749
-0.0137652
0.117023
-0.012682
0.125819
-0.0115918
0.135162
-0.0105074
0.14508
-0.00944159
0.1556
-0.00840464
0.166752
-0.00740676
0.178571
-0.00645487
0.191099
-0.00555521
0.204387
-0.00471063
0.218491
-0.00392195
0.233478
-0.00318653
0.249425
-0.00249919
0.26642
-0.00185132
0.284566
-0.00123081
0.30398
-0.000621054
0.324795
0.347164
-0.0173879
0.0435906
-0.0178591
0.0475186
-0.0178413
0.0517748
-0.017831
0.054021
-0.0179771
0.0589205
-0.0178407
0.0640778
-0.017581
0.0684226
-0.0172811
0.0741442
-0.0168382
0.0800974
-0.0162633
0.0863597
-0.015585
0.0930554
-0.0148276
0.100236
-0.014012
0.107934
-0.0131421
0.116153
-0.01223
0.124907
-0.0112898
0.134222
-0.0103343
0.144125
-0.0093733
0.15464
-0.00841986
0.165798
-0.00748379
0.177635
-0.00657578
0.190191
-0.00570285
0.203514
-0.00487045
0.217659
-0.0040809
0.232689
-0.00333412
0.248678
-0.00262684
0.265713
-0.00195272
0.283892
-0.00130152
0.303329
-0.00065822
0.324152
0.346506
-0.0143083
0.0441844
-0.0148309
0.0480413
-0.0149688
0.0519127
-0.015182
0.0542342
-0.0154651
0.0592037
-0.0154769
0.0640896
-0.015401
0.0683467
-0.0152688
0.0740121
-0.0150041
0.0798326
-0.0146231
0.0859788
-0.0141805
0.0926128
-0.0136608
0.0997167
-0.0130562
0.107329
-0.0123747
0.115472
-0.0116334
0.124166
-0.0108467
0.133435
-0.0100242
0.143302
-0.00917821
0.153794
-0.00831842
0.164939
-0.00745666
0.176773
-0.00660318
0.189338
-0.00576778
0.202679
-0.00495842
0.216849
-0.00417979
0.23191
-0.00343387
0.247932
-0.00271913
0.264998
-0.00203026
0.283203
-0.00135802
0.302657
-0.000687789
0.323482
0.345818
-0.0115302
0.0448163
-0.0120686
0.0485797
-0.0123141
0.0521582
-0.0126358
0.0545559
-0.0129535
0.0595214
-0.0130862
0.0642223
-0.013168
0.0684286
-0.0132037
0.0740478
-0.013134
0.0797629
-0.0129763
0.085821
-0.0127447
0.0923812
-0.0124276
0.0993996
-0.0120165
0.106918
-0.0115203
0.114975
-0.0109499
0.123595
-0.0103173
0.132803
-0.00963246
0.142617
-0.00890621
0.153067
-0.00814949
0.164182
-0.00737339
0.175997
-0.00658809
0.188552
-0.00580408
0.201895
-0.00502864
0.216074
-0.00426907
0.23115
-0.00352917
0.247192
-0.00280932
0.264278
-0.00210668
0.282501
-0.00141378
0.301964
-0.000718225
0.322786
0.3451
-0.00926836
0.0454078
-0.00974615
0.0490574
-0.0100047
0.0524167
-0.0103682
0.0549194
-0.0107158
0.0598689
-0.0109268
0.0644333
-0.0111436
0.0686453
-0.0113362
0.0742404
-0.0114337
0.0798604
-0.0114454
0.0858328
-0.0113805
0.0923162
-0.0112131
0.0992322
-0.0109599
0.106665
-0.0106174
0.114633
-0.010197
0.123175
-0.0097027
0.132309
-0.00914564
0.14206
-0.00853326
0.152455
-0.0078771
0.163526
-0.0071855
0.175306
-0.00647158
0.187839
-0.00574357
0.201167
-0.0050116
0.215342
-0.00428258
0.230421
-0.00356109
0.246471
-0.00284964
0.263567
-0.00214627
0.281797
-0.0014451
0.301263
-0.000735353
0.322077
0.344365
-0.0077888
0.0459018
-0.00815218
0.0494208
-0.00834278
0.0526073
-0.00865595
0.0552326
-0.00897005
0.0601831
-0.00920041
0.0646637
-0.00949034
0.0689353
-0.009776
0.0745261
-0.00998008
0.0800644
-0.0100989
0.0859517
-0.0101377
0.092355
-0.0100901
0.0991846
-0.00995213
0.106527
-0.00974073
0.114422
-0.00945122
0.122885
-0.00908534
0.131943
-0.00864462
0.14162
-0.00814064
0.151951
-0.00758044
0.162966
-0.00697688
0.174702
-0.00633804
0.1872
-0.00567195
0.200501
-0.00498801
0.214658
-0.00429254
0.229726
-0.00359249
0.24577
-0.00289065
0.262865
-0.00218716
0.281094
-0.00147799
0.300554
-0.000753822
0.321352
0.343611
-0.00640019
0.0463146
-0.00670176
0.0497224
-0.00688577
0.0527913
-0.00718601
0.0555328
-0.00748838
0.0604854
-0.00775264
0.0649279
-0.00809126
0.0692739
-0.00842732
0.0748621
-0.00868733
0.0803245
-0.00887631
0.0861407
-0.00898956
0.0924682
-0.00901832
0.0992134
-0.0089822
0.106491
-0.00887295
0.114312
-0.00868657
0.122699
-0.00842092
0.131677
-0.00808148
0.14128
-0.00767305
0.151542
-0.00720232
0.162495
-0.00668053
0.17418
-0.00611227
0.186631
-0.00550963
0.199898
-0.00487839
0.214027
-0.00422584
0.229073
-0.00355739
0.245102
-0.00287663
0.262184
-0.00218526
0.280403
-0.00148083
0.299849
-0.000756997
0.320629
0.342854
-0.0050586
0.0466245
-0.00528752
0.0499513
-0.00547283
0.0529766
-0.0058145
0.0558745
-0.00616758
0.0608385
-0.00648267
0.065243
-0.00687709
0.0696683
-0.00724687
0.0752319
-0.00754268
0.0806203
-0.00778527
0.0863832
-0.00796303
0.092646
-0.00806722
0.0993175
-0.00810982
0.106533
-0.00808086
0.114283
-0.00797774
0.122596
-0.00779756
0.131497
-0.00754602
0.141029
-0.00722034
0.151217
-0.00683414
0.162109
-0.00638736
0.173733
-0.00588995
0.186134
-0.00534832
0.199356
-0.00476845
0.213447
-0.00415839
0.228463
-0.00352278
0.244466
-0.0028658
0.261527
-0.00218864
0.279725
-0.00148971
0.29915
-0.0007632
0.319902
0.342091
-0.00449678
0.0468664
-0.00467329
0.0501278
-0.0048363
0.0531397
-0.00517603
0.0562142
-0.00551437
0.0611768
-0.005809
0.0655377
-0.00616754
0.0700269
-0.00648926
0.0755536
-0.00674381
0.0808748
-0.00696513
0.0866046
-0.00714211
0.0928229
-0.00726488
0.0994403
-0.00733207
0.106601
-0.0073459
0.114297
-0.00728951
0.122539
-0.00716988
0.131377
-0.00698081
0.14084
-0.00672931
0.150965
-0.00641438
0.161794
-0.00603694
0.173356
-0.00560652
0.185704
-0.00512464
0.198875
-0.00459973
0.212922
-0.00403618
0.2279
-0.00343863
0.243869
-0.00281093
0.2609
-0.00215518
0.27907
-0.00147107
0.298466
-0.000755477
0.319186
0.341335
-0.003814
0.0471415
-0.00406297
0.0503768
-0.0043321
0.0534088
-0.00475573
0.0566378
-0.00512358
0.0615447
-0.00541405
0.0658281
-0.00573984
0.0703526
-0.00599524
0.075809
-0.00618829
0.0810679
-0.00635951
0.0867758
-0.00650399
0.0929674
-0.00661078
0.0995471
-0.00668734
0.106677
-0.00670976
0.11432
-0.0066794
0.122509
-0.00659826
0.131296
-0.00645864
0.1407
-0.00626639
0.150773
-0.00601049
0.161538
-0.00569728
0.173043
-0.00532514
0.185331
-0.00489838
0.198448
-0.00442372
0.212447
-0.00390435
0.22738
-0.00334551
0.24331
-0.00275014
0.260304
-0.00211929
0.278439
-0.00145285
0.2978
-0.000748087
0.318482
0.340587
-0.00344578
0.047438
-0.00373487
0.0506659
-0.00407413
0.053748
-0.00456921
0.0571329
-0.00496342
0.0619389
-0.00523273
0.0660974
-0.00550586
0.0706258
-0.00567213
0.0759753
-0.00578745
0.0811832
-0.00588857
0.0868769
-0.00597776
0.0930566
-0.00604501
0.0996144
-0.00610393
0.106736
-0.00612088
0.114337
-0.00610709
0.122495
-0.00604792
0.131237
-0.00594786
0.1406
-0.00579619
0.150621
-0.00558952
0.161331
-0.00533019
0.172783
-0.00501217
0.185013
-0.00464076
0.198076
-0.0042159
0.212023
-0.00374127
0.226906
-0.00322118
0.24279
-0.00265796
0.259741
-0.00205456
0.277835
-0.0014116
0.297157
-0.000727668
0.317798
0.339859
-0.00385604
0.047654
-0.00404184
0.0508517
-0.00426267
0.0539689
-0.00461028
0.0574805
-0.00488604
0.0622147
-0.00507129
0.0662827
-0.00525105
0.0708055
-0.0053269
0.0760511
-0.00538257
0.0812389
-0.00543739
0.0869317
-0.00548116
0.0931004
-0.00553343
0.0996666
-0.0055727
0.106775
-0.00559538
0.114359
-0.00559494
0.122495
-0.00556047
0.131202
-0.00549057
0.14053
-0.00536998
0.150501
-0.00520494
0.161166
-0.00498638
0.172565
-0.00471419
0.184741
-0.00438844
0.197751
-0.00400794
0.211642
-0.00357612
0.226474
-0.00309448
0.242308
-0.00256583
0.259212
-0.00199178
0.277261
-0.00137316
0.296538
-0.00071006
0.317135
0.339149
-0.00375161
0.0477657
-0.00384268
0.0509428
-0.00393935
0.0540655
-0.00408951
0.0576307
-0.00421996
0.0623451
-0.00437014
0.0664329
-0.00451662
0.070952
-0.00460264
0.0761372
-0.00468534
0.0813216
-0.00476725
0.0870136
-0.00483778
0.0931709
-0.00491791
0.0997468
-0.00498131
0.106839
-0.00503174
0.11441
-0.00505693
0.12252
-0.00505414
0.1312
-0.00501048
0.140486
-0.00492501
0.150415
-0.00479516
0.161036
-0.00461462
0.172384
-0.00438603
0.184513
-0.00410368
0.197468
-0.00376779
0.211306
-0.00337856
0.226085
-0.00293699
0.241867
-0.00244511
0.25872
-0.00190443
0.276721
-0.00131689
0.295951
-0.000682002
0.3165
0.338467
-0.00241857
0.0478157
-0.00250097
0.0510252
-0.00263265
0.0541972
-0.00280383
0.0578019
-0.00298182
0.0625231
-0.00322303
0.0666741
-0.00347913
0.0712081
-0.00369444
0.0763525
-0.00389237
0.0815195
-0.00407171
0.087193
-0.00422725
0.0933264
-0.00436594
0.0998855
-0.00447986
0.106953
-0.00456712
0.114497
-0.0046203
0.122573
-0.00464477
0.131224
-0.0046269
0.140469
-0.0045712
0.15036
-0.00446933
0.160934
-0.00432177
0.172237
-0.00412577
0.184317
-0.0038786
0.197221
-0.00357906
0.211007
-0.00322518
0.225731
-0.00281718
0.241459
-0.00235543
0.258259
-0.00184189
0.276207
-0.00127687
0.295386
-0.000662639
0.315886
0.337805
-0.00106685
0.0478344
-0.00113659
0.0510949
-0.00133163
0.0543923
-0.00165338
0.0581236
-0.00194094
0.0628106
-0.00223158
0.0669647
-0.00257039
0.0715469
-0.00286052
0.0766426
-0.00313329
0.0817923
-0.00337771
0.0874374
-0.00360052
0.0935492
-0.0037812
0.100066
-0.00394198
0.107113
-0.00405614
0.114611
-0.00414211
0.122659
-0.00418842
0.13127
-0.00419689
0.140477
-0.00416657
0.150329
-0.0040916
0.160859
-0.00397402
0.172119
-0.00380834
0.184151
-0.003594
0.197007
-0.00332878
0.210741
-0.0030113
0.225413
-0.00264054
0.241088
-0.00221659
0.257835
-0.00173891
0.275729
-0.00120908
0.294856
-0.000628658
0.315305
0.337176
-0.00231388
0.0478879
-0.00234014
0.0511212
-0.00245109
0.0545032
-0.00268829
0.0583608
-0.00282322
0.0629456
-0.0029014
0.0670429
-0.00304703
0.0716926
-0.00314819
0.0767438
-0.00327047
0.0819146
-0.00340019
0.0875671
-0.00352392
0.093673
-0.00364209
0.100184
-0.00374355
0.107215
-0.00382681
0.114694
-0.00389272
0.122725
-0.00392629
0.131304
-0.00393361
0.140484
-0.00390624
0.150302
-0.00384496
0.160798
-0.00374467
0.172019
-0.00360021
0.184007
-0.00341005
0.196817
-0.00316976
0.210501
-0.00287755
0.225121
-0.00253122
0.240742
-0.00212995
0.257434
-0.00167423
0.275274
-0.00116579
0.294347
-0.000606233
0.314746
0.33657
-0.00348826
0.0479486
-0.00347819
0.0511111
-0.00345533
0.0544803
-0.00346301
0.0583685
-0.00337642
0.062859
-0.00328023
0.0669467
-0.00323779
0.0716501
-0.00318622
0.0766922
-0.00318909
0.0819174
-0.00322434
0.0876024
-0.00327542
0.0937241
-0.00334667
0.100256
-0.00341576
0.107284
-0.00348219
0.114761
-0.00353952
0.122782
-0.00357672
0.131341
-0.0035913
0.140499
-0.003579
0.15029
-0.00353575
0.160755
-0.0034554
0.171939
-0.00333431
0.183885
-0.00316918
0.196652
-0.00295549
0.210287
-0.00269229
0.224858
-0.00237659
0.240426
-0.00200718
0.257064
-0.00158393
0.274851
-0.00110559
0.293869
-0.000576302
0.314216
0.335994
-0.00363069
0.0480307
-0.00366445
0.0511449
-0.00361849
0.0544344
-0.0035087
0.0582587
-0.00333051
0.0626808
-0.0032177
0.0668339
-0.00313205
0.0715645
-0.00305637
0.0766165
-0.00303297
0.081894
-0.00304622
0.0876156
-0.00307129
0.0937491
-0.00313071
0.100315
-0.00318493
0.107338
-0.00325189
0.114828
-0.0033049
0.122835
-0.00335001
0.131386
-0.00337311
0.140522
-0.00337154
0.150288
-0.00334055
0.160724
-0.00327521
0.171873
-0.0031712
0.183781
-0.003024
0.196504
-0.00282956
0.210093
-0.00258574
0.224614
-0.0022886
0.240129
-0.00193756
0.256713
-0.00153081
0.274444
-0.00107082
0.293409
-0.0005587
0.313704
0.335435
-0.00195871
0.0480807
-0.00202763
0.0512138
-0.00206834
0.0544751
-0.00203272
0.0582231
-0.00199613
0.0626442
-0.00206568
0.0669035
-0.00214949
0.0716483
-0.0022496
0.0767166
-0.00237122
0.0820156
-0.00248774
0.0877321
-0.00260895
0.0938703
-0.00272143
0.100427
-0.0028345
0.107451
-0.00293083
0.114924
-0.00301836
0.122923
-0.00308266
0.131451
-0.00312418
0.140564
-0.00314168
0.150306
-0.00312604
0.160708
-0.00307544
0.171823
-0.00298687
0.183693
-0.00285617
0.196374
-0.00268014
0.209917
-0.00245447
0.224389
-0.00217694
0.239851
-0.00184596
0.256382
-0.00146073
0.274059
-0.00102322
0.292972
-0.000534276
0.313215
0.334901
-5.07594e-05
0.0480402
-8.24156e-05
0.0512454
-0.000214209
0.0546069
-0.00037881
0.0583877
-0.000562538
0.0628279
-0.000813544
0.0671545
-0.00109595
0.0719307
-0.00136362
0.0769843
-0.0016362
0.0822882
-0.00188948
0.0879854
-0.00212391
0.0941048
-0.002334
0.100638
-0.00252283
0.10764
-0.00268346
0.115085
-0.00282306
0.123063
-0.00292715
0.131555
-0.00300601
0.140642
-0.00304773
0.150347
-0.00305268
0.160713
-0.00301752
0.171787
-0.00294129
0.183617
-0.00281959
0.196252
-0.00265168
0.209749
-0.00243277
0.22417
-0.00216238
0.239581
-0.00183697
0.256057
-0.0014568
0.273678
-0.001021
0.292536
-0.000534151
0.312728
0.334366
-0.000752396
-0.000804656
-0.000932367
-0.00111539
-0.00127384
-0.00144119
-0.00163231
-0.00179191
-0.00196424
-0.00213657
-0.00228664
-0.00244673
-0.00256623
-0.00270039
-0.00279074
-0.00288223
-0.00294155
-0.00297219
-0.0029724
-0.00293802
-0.00286466
-0.00274863
-0.00258664
-0.00237571
-0.00211301
-0.0017963
-0.00142493
-0.000999013
-0.000522443
)
;

boundaryField
{
    outlet
    {
        type            calculated;
        value           nonuniform List<scalar> 
40
(
0.0467701
0.0493175
0.0520465
0.0534119
0.0536358
0.0534157
0.0531923
0.0531024
0.0531555
0.0532603
0.0480506
0.0512977
0.0547346
0.0585707
0.0629864
0.0673218
0.0721218
0.0771439
0.0824605
0.0881578
0.0942548
0.100798
0.10776
0.115219
0.123153
0.131646
0.140702
0.150378
0.160713
0.171753
0.183543
0.196136
0.209587
0.223959
0.239318
0.25574
0.273307
0.29211
0.312252
0.333844
)
;
    }
    upperWall
    {
        type            symmetryPlane;
        value           nonuniform 0();
    }
    lowerWall
    {
        type            symmetryPlane;
        value           uniform 0;
    }
    inlet
    {
        type            calculated;
        value           nonuniform 0();
    }
    cylinder
    {
        type            calculated;
        value           nonuniform 0();
    }
    frontAndBack
    {
        type            empty;
        value           nonuniform 0();
    }
    procBoundary3to2
    {
        type            processor;
        value           nonuniform List<scalar> 
43
(
0.0383398
0.0227325
0.0100888
-0.000741746
-0.0101272
-0.0180431
-0.0346048
-0.0291663
-0.0337038
-0.0359386
-0.037736
-0.047212
-0.0669215
-0.0711042
-0.0758922
-0.0809439
-0.0861184
-0.0913724
-0.0969121
-0.102945
-0.1094
-0.116174
-0.123299
-0.130862
-0.138916
-0.147482
-0.156585
-0.166265
-0.176568
-0.187546
-0.199256
-0.211761
-0.225132
-0.239447
-0.254796
-0.27128
-0.289013
-0.308132
-0.328794
-0.351193
-0.0563758
0.0420521
-0.0608201
)
;
    }
    procBoundary3to7
    {
        type            processor;
        value           nonuniform List<scalar> 
30
(
0.00684594
0.0120753
0.0150631
0.0143182
0.0126873
0.00941154
0.00549388
0.00228243
-0.000171921
-0.00184873
-0.00288983
-0.00344628
-0.00364739
-0.00361445
-0.00338081
-0.00299788
-0.00252403
-0.0019855
-0.00139985
-0.000799887
-0.000279172
0.000178729
0.000521059
0.00079601
0.000927509
0.000940338
0.000885141
0.000710173
0.000608369
0.00028176
)
;
    }
}


// ************************************************************************* //
