/*--------------------------------*- C++ -*----------------------------------*\
| =========                 |                                                 |
| \\      /  F ield         | OpenFOAM: The Open Source CFD Toolbox           |
|  \\    /   O peration     | Version:                                        |
|   \\  /    A nd           | Website:  www.openfoam.com                      |
|    \\/     M anipulation  |                                                 |
\*---------------------------------------------------------------------------*/
FoamFile
{
    version     2.0;
    format      ascii;
    class       volScalarField;
    location    "0.1";
    object      p;
}
// * * * * * * * * * * * * * * * * * * * * * * * * * * * * * * * * * * * * * //

dimensions      [0 2 -2 0 0 0 0];


internalField   nonuniform List<scalar> 
400
(
0.502772
0.49258
0.482719
0.473149
0.463829
0.45472
0.445788
0.437001
0.428332
0.419757
0.411256
0.402811
0.39441
0.38604
0.377694
0.369365
0.361046
0.352737
0.344433
0.336132
0.502658
0.492481
0.482634
0.473078
0.46377
0.454672
0.445749
0.43697
0.428308
0.419738
0.411241
0.4028
0.394401
0.386034
0.377689
0.369362
0.361045
0.352736
0.344432
0.336132
0.502431
0.492284
0.482466
0.472937
0.463653
0.454576
0.445671
0.436908
0.428259
0.4197
0.411212
0.402778
0.394384
0.386021
0.37768
0.369355
0.361041
0.352733
0.344429
0.336132
0.50209
0.491991
0.482216
0.472727
0.463479
0.454434
0.445556
0.436816
0.428187
0.419644
0.411169
0.402745
0.39436
0.386003
0.377667
0.369346
0.361035
0.352729
0.344426
0.336131
0.50164
0.491603
0.481887
0.472451
0.463251
0.454247
0.445406
0.436696
0.428092
0.419571
0.411113
0.402703
0.394328
0.38598
0.377651
0.369334
0.361027
0.352724
0.344422
0.336129
0.501082
0.491125
0.481482
0.472113
0.462972
0.45402
0.445223
0.436551
0.427979
0.419483
0.411046
0.402653
0.394291
0.385953
0.377632
0.369321
0.361018
0.352718
0.344418
0.336127
0.500425
0.490564
0.481009
0.471719
0.462648
0.453757
0.445012
0.436384
0.427849
0.419383
0.41097
0.402596
0.39425
0.385924
0.377611
0.369306
0.361008
0.352712
0.344414
0.336124
0.499681
0.489931
0.480478
0.471279
0.462288
0.453466
0.44478
0.436202
0.427707
0.419275
0.410889
0.402536
0.394206
0.385892
0.377589
0.369291
0.360998
0.352705
0.344411
0.336121
0.498867
0.489244
0.479905
0.470806
0.461903
0.453156
0.444535
0.43601
0.427559
0.419163
0.410805
0.402474
0.394161
0.385861
0.377567
0.369276
0.360988
0.352699
0.344407
0.336119
0.498009
0.488525
0.479309
0.470318
0.461509
0.452842
0.444288
0.435818
0.427413
0.419052
0.410723
0.402414
0.394118
0.38583
0.377546
0.369263
0.360979
0.352693
0.344404
0.336117
0.497141
0.487803
0.478716
0.469837
0.461123
0.452537
0.444049
0.435635
0.427274
0.418948
0.410646
0.402359
0.394079
0.385803
0.377528
0.369251
0.360971
0.352688
0.344402
0.336115
0.496304
0.487113
0.478155
0.469386
0.460764
0.452256
0.443833
0.43547
0.427149
0.418856
0.410579
0.402311
0.394046
0.38578
0.377513
0.369241
0.360965
0.352685
0.3444
0.336114
0.495538
0.48649
0.477654
0.468987
0.460451
0.452013
0.443647
0.435329
0.427045
0.41878
0.410524
0.402272
0.394019
0.385762
0.377501
0.369233
0.360961
0.352682
0.344399
0.336113
0.494882
0.485962
0.477233
0.468656
0.460194
0.451817
0.443498
0.435219
0.426964
0.418721
0.410483
0.402243
0.393999
0.385749
0.377492
0.369228
0.360958
0.352681
0.344398
0.336112
0.494356
0.485545
0.476907
0.468403
0.460001
0.45167
0.443389
0.435139
0.426905
0.41868
0.410454
0.402223
0.393986
0.385741
0.377487
0.369225
0.360956
0.35268
0.344398
0.336112
0.493964
0.485239
0.476671
0.468224
0.459866
0.45157
0.443316
0.435086
0.426868
0.418653
0.410435
0.402211
0.393978
0.385736
0.377484
0.369223
0.360955
0.352679
0.344398
0.336112
0.493687
0.485028
0.476512
0.468105
0.459779
0.451507
0.44327
0.435054
0.426846
0.418638
0.410425
0.402205
0.393974
0.385733
0.377482
0.369222
0.360954
0.352679
0.344398
0.336112
0.493485
0.484877
0.476402
0.468026
0.459722
0.451468
0.443243
0.435036
0.426834
0.418631
0.410421
0.402202
0.393973
0.385733
0.377482
0.369222
0.360954
0.352679
0.344398
0.336112
0.493297
0.48474
0.476303
0.467957
0.459676
0.451437
0.443225
0.435025
0.426829
0.418629
0.410422
0.402204
0.393975
0.385735
0.377484
0.369224
0.360956
0.35268
0.344399
0.336113
0.493092
0.48459
0.476197
0.467884
0.459627
0.451406
0.443207
0.435017
0.426827
0.418631
0.410425
0.402208
0.39398
0.385739
0.377489
0.369228
0.360959
0.352683
0.344401
0.336115
)
;

boundaryField
{
    fixedWalls
    {
        type            zeroGradient;
    }
    inlet
    {
        type            zeroGradient;
    }
    outlet
    {
        type            fixedValue;
        value           nonuniform 0();
    }
    frontAndBack
    {
        type            empty;
    }
    procBoundary5to1
    {
        type            processor;
        value           nonuniform List<scalar> 
20
(
0.502772
0.49258
0.482719
0.473149
0.463829
0.45472
0.445788
0.437001
0.428332
0.419757
0.411256
0.402811
0.394409
0.38604
0.377694
0.369365
0.361046
0.352737
0.344433
0.336131
)
;
    }
    procBoundary5to4
    {
        type            processor;
        value           nonuniform List<scalar> 
20
(
0.513334
0.513203
0.512943
0.512552
0.512034
0.511392
0.510633
0.509768
0.508817
0.507807
0.506777
0.505773
0.504845
0.504039
0.503385
0.502888
0.502529
0.502261
0.502009
0.501734
)
;
    }
    procBoundary5to6
    {
        type            processor;
        value           nonuniform List<scalar> 
20
(
0.327834
0.327835
0.327836
0.327836
0.327835
0.327834
0.327833
0.327831
0.327829
0.327827
0.327826
0.327825
0.327824
0.327824
0.327824
0.327824
0.327824
0.327824
0.327824
0.327825
)
;
    }
}


// ************************************************************************* //
