/*--------------------------------*- C++ -*----------------------------------*\
| =========                 |                                                 |
| \\      /  F ield         | OpenFOAM: The Open Source CFD Toolbox           |
|  \\    /   O peration     | Version:                                        |
|   \\  /    A nd           | Website:  www.openfoam.com                      |
|    \\/     M anipulation  |                                                 |
\*---------------------------------------------------------------------------*/
FoamFile
{
    version     2.0;
    format      ascii;
    class       surfaceScalarField;
    location    "0.1";
    object      phi;
}
// * * * * * * * * * * * * * * * * * * * * * * * * * * * * * * * * * * * * * //

dimensions      [0 3 -1 0 0 0 0];
oriented        oriented;


internalField   nonuniform List<scalar> 
760
(
3.0913e-05
-1.68505e-07
3.10597e-05
-1.4697e-07
3.11857e-05
-1.26231e-07
3.12924e-05
-1.06794e-07
3.13813e-05
-8.89595e-08
3.14542e-05
-7.29127e-08
3.15131e-05
-5.87658e-08
3.15598e-05
-4.65551e-08
3.15962e-05
-3.62361e-08
3.16242e-05
-2.76903e-08
3.16453e-05
-2.07586e-08
3.16608e-05
-1.52484e-08
3.16721e-05
-1.09559e-08
3.16801e-05
-7.6775e-09
3.16857e-05
-5.23883e-09
3.16894e-05
-3.43875e-09
3.16918e-05
-2.19274e-09
3.16934e-05
-1.29729e-09
3.16942e-05
-6.45649e-10
-4.24825e-10
3.09339e-05
-3.32448e-07
3.10763e-05
-2.89394e-07
3.11982e-05
-2.48135e-07
3.1301e-05
-2.09582e-07
3.13863e-05
-1.74298e-07
3.14561e-05
-1.42648e-07
3.15121e-05
-1.14837e-07
3.15565e-05
-9.08995e-08
3.1591e-05
-7.07166e-08
3.16173e-05
-5.40373e-08
3.16371e-05
-4.05291e-08
3.16516e-05
-2.98022e-08
3.16621e-05
-2.14549e-08
3.16695e-05
-1.50815e-08
3.16746e-05
-1.03368e-08
3.1678e-05
-6.8383e-09
3.16802e-05
-4.39675e-09
3.16816e-05
-2.64094e-09
3.16823e-05
-1.38923e-09
-9.05398e-10
3.09724e-05
-4.87562e-07
3.11061e-05
-4.23078e-07
3.12196e-05
-3.61672e-07
3.13146e-05
-3.04557e-07
3.13928e-05
-2.52517e-07
3.14562e-05
-2.06053e-07
3.15068e-05
-1.65408e-07
3.15464e-05
-1.3057e-07
3.1577e-05
-1.01307e-07
3.16002e-05
-7.72105e-08
3.16174e-05
-5.77585e-08
3.163e-05
-4.23597e-08
3.16389e-05
-3.04138e-08
3.16452e-05
-2.13207e-08
3.16494e-05
-1.45653e-08
3.16522e-05
-9.61257e-09
3.16539e-05
-6.13858e-09
3.1655e-05
-3.68505e-09
3.16556e-05
-1.98507e-09
-1.14175e-09
3.10214e-05
-6.28932e-07
3.11417e-05
-5.43318e-07
3.12425e-05
-4.62457e-07
3.13257e-05
-3.87749e-07
3.13932e-05
-3.20114e-07
3.14473e-05
-2.601e-07
3.14898e-05
-2.07916e-07
3.15227e-05
-1.63436e-07
3.15476e-05
-1.2627e-07
3.15662e-05
-9.58185e-08
3.15798e-05
-7.13535e-08
3.15896e-05
-5.20774e-08
3.15963e-05
-3.71921e-08
3.16009e-05
-2.59181e-08
3.16039e-05
-1.75769e-08
3.16058e-05
-1.15076e-08
3.16069e-05
-7.2479e-09
3.16076e-05
-4.29167e-09
3.16078e-05
-2.27837e-09
-1.14594e-09
3.10688e-05
-7.51127e-07
3.11706e-05
-6.4515e-07
3.12542e-05
-5.46056e-07
3.13217e-05
-4.5529e-07
3.13754e-05
-3.73785e-07
3.14173e-05
-3.02027e-07
3.14495e-05
-2.40093e-07
3.14738e-05
-1.87673e-07
3.14916e-05
-1.44163e-07
3.15046e-05
-1.08741e-07
3.15137e-05
-8.04601e-08
3.15199e-05
-5.8316e-08
3.1524e-05
-4.13219e-08
3.15267e-05
-2.85359e-08
3.15282e-05
-1.9136e-08
3.15291e-05
-1.23584e-08
3.15294e-05
-7.62152e-09
3.15295e-05
-4.38711e-09
3.15295e-05
-2.22845e-09
-9.28135e-10
3.10952e-05
-8.48381e-07
3.11737e-05
-7.23576e-07
3.12358e-05
-6.08227e-07
3.12842e-05
-5.03661e-07
3.13211e-05
-4.10674e-07
3.13486e-05
-3.29566e-07
3.13687e-05
-2.60176e-07
3.1383e-05
-2.01937e-07
3.13928e-05
-1.53984e-07
3.13993e-05
-1.1525e-07
3.14034e-05
-8.45617e-08
3.14058e-05
-6.07186e-08
3.1407e-05
-4.25659e-08
3.14075e-05
-2.90225e-08
3.14076e-05
-1.91515e-08
3.14073e-05
-1.2113e-08
3.14069e-05
-7.23727e-09
3.14065e-05
-3.96491e-09
3.14061e-05
-1.83519e-09
-5.07335e-10
3.10729e-05
-9.15011e-07
3.11233e-05
-7.73982e-07
3.11604e-05
-6.45323e-07
3.11868e-05
-5.30061e-07
3.12048e-05
-4.28695e-07
3.12165e-05
-3.41215e-07
3.12234e-05
-2.67127e-07
3.1227e-05
-2.05546e-07
3.12284e-05
-1.55315e-07
3.12282e-05
-1.15117e-07
3.12272e-05
-8.35592e-08
3.12258e-05
-5.92701e-08
3.12242e-05
-4.09589e-08
3.12226e-05
-2.74397e-08
3.12211e-05
-1.76965e-08
3.12199e-05
-1.08449e-08
3.12188e-05
-6.16357e-09
3.12179e-05
-3.0874e-09
3.12172e-05
-1.14776e-09
7.49675e-11
3.09635e-05
-9.46137e-07
3.09823e-05
-7.92793e-07
3.09918e-05
-6.54855e-07
3.09946e-05
-5.32874e-07
3.09928e-05
-4.26914e-07
3.09882e-05
-3.36541e-07
3.09819e-05
-2.60864e-07
3.0975e-05
-1.9865e-07
3.09681e-05
-1.48443e-07
3.09617e-05
-1.08693e-07
3.0956e-05
-7.78242e-08
3.0951e-05
-5.43287e-08
3.09469e-05
-3.68262e-08
3.09435e-05
-2.40709e-08
3.09409e-05
-1.50098e-08
3.09388e-05
-8.74935e-09
3.09372e-05
-4.55515e-09
3.09359e-05
-1.87738e-09
3.09351e-05
-2.60434e-10
7.49148e-10
3.07172e-05
-9.3864e-07
3.07027e-05
-7.78261e-07
3.0684e-05
-6.36121e-07
3.06633e-05
-5.12162e-07
3.06423e-05
-4.05905e-07
3.06222e-05
-3.16432e-07
3.06037e-05
-2.42432e-07
3.05874e-05
-1.82332e-07
3.05734e-05
-1.34414e-07
3.05616e-05
-9.69377e-08
3.0552e-05
-6.81995e-08
3.05443e-05
-4.66128e-08
3.05382e-05
-3.07632e-08
3.05335e-05
-1.9398e-08
3.053e-05
-1.14727e-08
3.05274e-05
-6.12203e-09
3.05255e-05
-2.63705e-09
3.05241e-05
-5.03748e-10
3.05231e-05
7.03057e-10
1.42642e-09
3.02737e-05
-8.92191e-07
3.02267e-05
-7.31241e-07
3.01814e-05
-5.90764e-07
3.01392e-05
-4.70026e-07
3.01013e-05
-3.67975e-07
3.00681e-05
-2.83208e-07
3.00397e-05
-2.1403e-07
3.00159e-05
-1.58593e-07
2.99965e-05
-1.14983e-07
2.99809e-05
-8.13453e-08
2.99686e-05
-5.59263e-08
2.99592e-05
-3.71302e-08
2.9952e-05
-2.35702e-08
2.99466e-05
-1.40437e-08
2.99427e-05
-7.56158e-09
2.99399e-05
-3.31994e-09
2.99379e-05
-6.71831e-10
2.99366e-05
8.43847e-10
2.99357e-05
1.60738e-09
2.01249e-09
2.95639e-05
-8.10093e-07
2.94884e-05
-6.55712e-07
2.94207e-05
-5.23039e-07
2.93614e-05
-4.10705e-07
2.93105e-05
-3.17129e-07
2.92678e-05
-2.40506e-07
2.92327e-05
-1.7886e-07
2.92042e-05
-1.30169e-07
2.91817e-05
-9.24349e-08
2.91641e-05
-6.37803e-08
2.91507e-05
-4.24933e-08
2.91406e-05
-2.70475e-08
2.91332e-05
-1.61442e-08
2.91278e-05
-8.68396e-09
2.9124e-05
-3.77634e-09
2.91214e-05
-7.06997e-10
2.91197e-05
1.08183e-09
2.91185e-05
1.98588e-09
2.91178e-05
2.32792e-09
2.42553e-09
2.85147e-05
-6.99558e-07
2.84178e-05
-5.58768e-07
2.83344e-05
-4.39617e-07
2.82639e-05
-3.40243e-07
2.82055e-05
-2.58685e-07
2.81578e-05
-1.92885e-07
2.81197e-05
-1.40737e-07
2.80897e-05
-1.00185e-07
2.80666e-05
-6.92741e-08
2.8049e-05
-4.6214e-08
2.80359e-05
-2.94215e-08
2.80264e-05
-1.7515e-08
2.80196e-05
-9.34009e-09
2.80149e-05
-3.94107e-09
2.80116e-05
-5.59744e-10
2.80095e-05
1.40708e-09
2.80082e-05
2.41335e-09
2.80074e-05
2.78365e-09
2.8007e-05
2.7732e-09
2.61332e-09
2.70549e-05
-5.71157e-07
2.69461e-05
-4.49901e-07
2.68553e-05
-3.48798e-07
2.67807e-05
-2.65724e-07
2.67206e-05
-1.9855e-07
2.66729e-05
-1.4517e-07
2.66357e-05
-1.03525e-07
2.66072e-05
-7.1676e-08
2.65857e-05
-4.78388e-08
2.65699e-05
-3.0413e-08
2.65585e-05
-1.80193e-08
2.65505e-05
-9.48057e-09
2.6545e-05
-3.82936e-09
2.65413e-05
-2.80106e-10
2.6539e-05
1.77626e-09
2.65376e-05
2.81933e-09
2.65368e-05
3.19715e-09
2.65364e-05
3.16325e-09
2.65363e-05
2.90116e-09
2.56337e-09
2.51224e-05
-4.37343e-07
2.50121e-05
-3.39593e-07
2.49225e-05
-2.59232e-07
2.48509e-05
-1.9414e-07
2.47947e-05
-1.4227e-07
2.47512e-05
-1.01671e-07
2.47181e-05
-7.05086e-08
2.46936e-05
-4.70942e-08
2.46756e-05
-2.99186e-08
2.46629e-05
-1.76521e-08
2.4654e-05
-9.17155e-09
2.46481e-05
-3.53892e-09
2.46443e-05
4.26526e-12
2.46419e-05
2.06316e-09
2.46406e-05
3.09742e-09
2.46399e-05
3.46286e-09
2.46397e-05
3.41009e-09
2.46398e-05
3.12531e-09
2.464e-05
2.72497e-09
2.30308e-09
2.26706e-05
-3.10344e-07
2.25686e-05
-2.37535e-07
2.24878e-05
-1.78447e-07
2.24249e-05
-1.31219e-07
2.23767e-05
-9.41025e-08
2.23405e-05
-6.54804e-08
2.23139e-05
-4.38692e-08
2.22947e-05
-2.79296e-08
2.22813e-05
-1.64901e-08
2.22722e-05
-8.53566e-09
2.22662e-05
-3.222e-09
2.22626e-05
1.41314e-10
2.22604e-05
2.1057e-09
2.22594e-05
3.10266e-09
2.22591e-05
3.45529e-09
2.22591e-05
3.40654e-09
2.22594e-05
3.12541e-09
2.22598e-05
2.73797e-09
2.22602e-05
2.30682e-09
1.89045e-09
1.96744e-05
-2.00041e-07
1.95879e-05
-1.50996e-07
1.95211e-05
-1.11636e-07
1.94704e-05
-8.05445e-08
1.94327e-05
-5.64147e-08
1.94053e-05
-3.80645e-08
1.93859e-05
-2.44307e-08
1.93725e-05
-1.45618e-08
1.93636e-05
-7.64186e-09
1.93581e-05
-2.97298e-09
1.93548e-05
1.86808e-11
1.93532e-05
1.79382e-09
1.93526e-05
2.71719e-09
1.93526e-05
3.06777e-09
1.9353e-05
3.054e-09
1.93536e-05
2.82542e-09
1.93542e-05
2.48764e-09
1.93548e-05
2.11721e-09
1.93554e-05
1.74107e-09
1.39827e-09
1.61332e-05
-1.1259e-07
1.60661e-05
-8.39262e-08
1.60156e-05
-6.11241e-08
1.59783e-05
-4.32803e-08
1.59515e-05
-2.95776e-08
1.59327e-05
-1.92816e-08
1.592e-05
-1.17438e-08
1.59118e-05
-6.38258e-09
1.59069e-05
-2.71222e-09
1.59042e-05
-3.14129e-10
1.59031e-05
1.14905e-09
1.59029e-05
1.94497e-09
1.59034e-05
2.2853e-09
1.59041e-05
2.32727e-09
1.5905e-05
2.19018e-09
1.59059e-05
1.95376e-09
1.59067e-05
1.67714e-09
1.59074e-05
1.40051e-09
1.5908e-05
1.13251e-09
8.9903e-10
1.20724e-05
-5.03198e-08
1.20256e-05
-3.71375e-08
1.19912e-05
-2.67084e-08
1.19665e-05
-1.85972e-08
1.19493e-05
-1.24135e-08
1.19379e-05
-7.80844e-09
1.19306e-05
-4.47705e-09
1.19264e-05
-2.13935e-09
1.19242e-05
-5.77008e-10
1.19235e-05
4.14264e-10
1.19237e-05
9.87259e-10
1.19243e-05
1.26567e-09
1.19253e-05
1.348e-09
1.19263e-05
1.30455e-09
1.19273e-05
1.19072e-09
1.19282e-05
1.03968e-09
1.1929e-05
8.78819e-10
1.19297e-05
7.25015e-10
1.19302e-05
5.79951e-10
4.57918e-10
7.54301e-06
-1.29825e-08
7.5154e-06
-9.52414e-09
7.49548e-06
-6.78976e-09
7.48155e-06
-4.6665e-09
7.47219e-06
-3.05197e-09
7.46623e-06
-1.85392e-09
7.46275e-06
-9.94551e-10
7.46101e-06
-3.95392e-10
7.46043e-06
-2.75722e-12
7.46061e-06
2.39866e-10
7.46122e-06
3.72854e-10
7.46206e-06
4.28775e-10
7.46297e-06
4.34899e-10
7.46387e-06
4.09249e-10
7.46469e-06
3.67444e-10
7.46541e-06
3.16906e-10
7.46602e-06
2.65364e-10
7.46653e-06
2.17277e-10
7.46694e-06
1.72505e-10
1.35936e-10
2.61741e-06
2.60789e-06
2.6011e-06
2.59643e-06
2.59338e-06
2.59153e-06
2.59053e-06
2.59014e-06
2.59013e-06
2.59037e-06
2.59075e-06
2.59118e-06
2.59161e-06
2.59202e-06
2.59239e-06
2.5927e-06
2.59297e-06
2.59319e-06
2.59336e-06
)
;

boundaryField
{
    fixedWalls
    {
        type            calculated;
        value           uniform 0;
    }
    inlet
    {
        type            calculated;
        value           nonuniform 0();
    }
    outlet
    {
        type            calculated;
        value           nonuniform 0();
    }
    frontAndBack
    {
        type            empty;
        value           nonuniform 0();
    }
    procBoundary5to1
    {
        type            processor;
        value           nonuniform List<scalar> 
20
(
2.7409e-10
2.45492e-10
1.9336e-10
1.32795e-10
6.89373e-11
-1.48524e-12
-8.25808e-11
-1.58244e-10
-2.23143e-10
-2.73967e-10
-3.09113e-10
-3.26107e-10
-3.31544e-10
-3.24661e-10
-3.08359e-10
-2.81249e-10
-2.55145e-10
-2.31515e-10
-1.76708e-10
-1.21509e-10
)
;
    }
    procBoundary5to4
    {
        type            processor;
        value           nonuniform List<scalar> 
20
(
-3.07448e-05
-3.07699e-05
-3.08173e-05
-3.08801e-05
-3.09466e-05
-3.0998e-05
-3.10063e-05
-3.09323e-05
-3.07247e-05
-3.03202e-05
-2.9646e-05
-2.86253e-05
-2.71833e-05
-2.52562e-05
-2.27976e-05
-1.97847e-05
-1.62206e-05
-1.21347e-05
-7.58035e-06
-2.6304e-06
)
;
    }
    procBoundary5to6
    {
        type            processor;
        value           nonuniform List<scalar> 
20
(
3.16947e-05
3.16828e-05
3.16558e-05
3.16079e-05
3.15293e-05
3.14057e-05
3.12167e-05
3.09344e-05
3.05224e-05
2.99351e-05
2.91174e-05
2.80068e-05
2.65363e-05
2.46402e-05
2.22606e-05
1.93559e-05
1.59085e-05
1.19307e-05
7.46726e-06
2.5935e-06
)
;
    }
}


// ************************************************************************* //
