/*--------------------------------*- C++ -*----------------------------------*\
| =========                 |                                                 |
| \\      /  F ield         | OpenFOAM: The Open Source CFD Toolbox           |
|  \\    /   O peration     | Version:                                        |
|   \\  /    A nd           | Website:  www.openfoam.com                      |
|    \\/     M anipulation  |                                                 |
\*---------------------------------------------------------------------------*/
FoamFile
{
    version     2.0;
    format      ascii;
    class       volVectorField;
    location    "16.1";
    object      U;
}
// * * * * * * * * * * * * * * * * * * * * * * * * * * * * * * * * * * * * * //

dimensions      [0 1 -1 0 0 0 0];


internalField   nonuniform List<vector> 
400
(
(0.0795458 2.88677e-05 0)
(0.079376 2.78019e-05 0)
(0.0792125 2.67789e-05 0)
(0.0790551 2.57965e-05 0)
(0.0789034 2.48539e-05 0)
(0.0787574 2.39483e-05 0)
(0.0786167 2.30805e-05 0)
(0.0784811 2.22471e-05 0)
(0.0783505 2.14511e-05 0)
(0.0782245 2.06883e-05 0)
(0.0781031 1.99635e-05 0)
(0.0779859 1.92787e-05 0)
(0.0778729 1.86243e-05 0)
(0.0777635 1.80605e-05 0)
(0.0776579 1.74528e-05 0)
(0.0775545 1.72332e-05 0)
(0.0774558 1.65322e-05 0)
(0.0773526 1.81838e-05 0)
(0.0772619 1.72918e-05 0)
(0.0770874 3.84174e-05 0)
(0.229936 0.000173433 0)
(0.229469 0.000166962 0)
(0.22902 0.000160755 0)
(0.228587 0.000154798 0)
(0.22817 0.000149084 0)
(0.227769 0.000143599 0)
(0.227383 0.000138342 0)
(0.227011 0.000133298 0)
(0.226652 0.000128475 0)
(0.226307 0.000123855 0)
(0.225974 0.000119459 0)
(0.225652 0.000115288 0)
(0.225343 0.000111327 0)
(0.225043 0.000107763 0)
(0.224754 0.000104221 0)
(0.224472 0.000102056 0)
(0.224202 9.87014e-05 0)
(0.223923 0.000102821 0)
(0.223685 9.97142e-05 0)
(0.223286 0.000151887 0)
(0.371557 0.000476362 0)
(0.370838 0.000458478 0)
(0.370146 0.00044133 0)
(0.369481 0.00042488 0)
(0.36884 0.000409104 0)
(0.368223 0.000393967 0)
(0.367628 0.000379458 0)
(0.367056 0.00036554 0)
(0.366505 0.000352228 0)
(0.365974 0.000339477 0)
(0.365463 0.000327334 0)
(0.364969 0.000315786 0)
(0.364494 0.000304846 0)
(0.364034 0.000294804 0)
(0.363591 0.000285142 0)
(0.363159 0.000278058 0)
(0.362748 0.000269659 0)
(0.362321 0.000273396 0)
(0.361972 0.000267607 0)
(0.361407 0.000327874 0)
(0.504298 0.000902673 0)
(0.503377 0.000868622 0)
(0.50249 0.000835981 0)
(0.501638 0.000804678 0)
(0.500817 0.000774664 0)
(0.500027 0.00074587 0)
(0.499266 0.000718275 0)
(0.498534 0.000691806 0)
(0.497829 0.000666485 0)
(0.49715 0.000642228 0)
(0.496496 0.000619119 0)
(0.495866 0.000597099 0)
(0.495258 0.000576261 0)
(0.494671 0.000556901 0)
(0.494107 0.00053854 0)
(0.493554 0.000523793 0)
(0.493034 0.000508255 0)
(0.49249 0.000507194 0)
(0.492062 0.000497396 0)
(0.491363 0.000546622 0)
(0.628025 0.00141816 0)
(0.626956 0.00136444 0)
(0.625928 0.00131295 0)
(0.62494 0.00126359 0)
(0.623988 0.00121626 0)
(0.623073 0.00117087 0)
(0.622192 0.00112737 0)
(0.621344 0.00108565 0)
(0.620528 0.00104573 0)
(0.619742 0.00100748 0)
(0.618985 0.000971038 0)
(0.618256 0.000936242 0)
(0.617553 0.000903354 0)
(0.616874 0.000872481 0)
(0.616223 0.000843506 0)
(0.615584 0.000818681 0)
(0.614989 0.000794469 0)
(0.614358 0.000783975 0)
(0.613882 0.000769141 0)
(0.613083 0.000796045 0)
(0.7426 0.00199328 0)
(0.741445 0.00191748 0)
(0.740334 0.00184485 0)
(0.739266 0.00177523 0)
(0.738239 0.00170849 0)
(0.737251 0.00164449 0)
(0.7363 0.00158316 0)
(0.735384 0.00152433 0)
(0.734504 0.00146806 0)
(0.733656 0.00141411 0)
(0.732839 0.00136272 0)
(0.732053 0.00131354 0)
(0.731296 0.00126714 0)
(0.730564 0.00122314 0)
(0.729864 0.00118229 0)
(0.729175 0.00114533 0)
(0.728539 0.00111164 0)
(0.727856 0.00108765 0)
(0.727361 0.00106784 0)
(0.7265 0.0010666 0)
(0.847905 0.00259619 0)
(0.84673 0.00249715 0)
(0.8456 0.00240226 0)
(0.844514 0.0023113 0)
(0.843469 0.00222412 0)
(0.842464 0.00214052 0)
(0.841497 0.00206042 0)
(0.840567 0.00198358 0)
(0.839672 0.00191009 0)
(0.838811 0.00183957 0)
(0.837981 0.00177246 0)
(0.837183 0.00170805 0)
(0.836415 0.00164744 0)
(0.835672 0.00158935 0)
(0.834962 0.00153612 0)
(0.834263 0.00148552 0)
(0.833624 0.00144234 0)
(0.832927 0.00140178 0)
(0.83244 0.00137785 0)
(0.831563 0.00134625 0)
(0.943863 0.00319211 0)
(0.942738 0.00307 0)
(0.941655 0.00295303 0)
(0.940615 0.0028409 0)
(0.939615 0.00273345 0)
(0.938653 0.00263039 0)
(0.937727 0.00253167 0)
(0.936837 0.00243695 0)
(0.93598 0.00234638 0)
(0.935156 0.00225939 0)
(0.934363 0.00217668 0)
(0.9336 0.00209706 0)
(0.932866 0.00202242 0)
(0.932156 0.00195004 0)
(0.931479 0.00188474 0)
(0.93081 0.0018197 0)
(0.930205 0.00176775 0)
(0.929535 0.00170884 0)
(0.929083 0.00168196 0)
(0.92824 0.00162042 0)
(1.03046 0.00374479 0)
(1.02946 0.00360125 0)
(1.02849 0.00346374 0)
(1.02756 0.00333193 0)
(1.02667 0.00320562 0)
(1.02581 0.00308446 0)
(1.02498 0.00296841 0)
(1.02419 0.00285703 0)
(1.02342 0.00275056 0)
(1.02269 0.00264821 0)
(1.02198 0.00255101 0)
(1.0213 0.00245711 0)
(1.02064 0.00236948 0)
(1.02001 0.00228346 0)
(1.01941 0.0022072 0)
(1.01881 0.00212782 0)
(1.01828 0.00206844 0)
(1.01768 0.00199085 0)
(1.01728 0.0019622 0)
(1.01653 0.00187315 0)
(1.10777 0.00421825 0)
(1.10696 0.00405635 0)
(1.10617 0.00390124 0)
(1.10541 0.00375253 0)
(1.10469 0.00361002 0)
(1.10399 0.00347331 0)
(1.10332 0.00334238 0)
(1.10267 0.00321666 0)
(1.10205 0.00309653 0)
(1.10146 0.00298092 0)
(1.10088 0.00287128 0)
(1.10033 0.00276496 0)
(1.0998 0.00266628 0)
(1.09929 0.00256815 0)
(1.0988 0.00248279 0)
(1.09832 0.00239021 0)
(1.09788 0.00232514 0)
(1.0974 0.0022301 0)
(1.09708 0.00220071 0)
(1.09647 0.00208811 0)
(1.17596 0.00457862 0)
(1.17539 0.00440277 0)
(1.17485 0.00423425 0)
(1.17432 0.00407268 0)
(1.17382 0.00391783 0)
(1.17334 0.00376925 0)
(1.17287 0.00362695 0)
(1.17243 0.00349026 0)
(1.172 0.00335971 0)
(1.17158 0.0032339 0)
(1.17118 0.00311478 0)
(1.1708 0.00299881 0)
(1.17044 0.0028918 0)
(1.17008 0.002784 0)
(1.16974 0.00269205 0)
(1.16941 0.00258843 0)
(1.16911 0.00251975 0)
(1.16878 0.00240994 0)
(1.16857 0.00238068 0)
(1.16815 0.00224964 0)
(1.23529 0.00479613 0)
(1.23503 0.00461191 0)
(1.23477 0.00443535 0)
(1.23453 0.00426601 0)
(1.2343 0.0041037 0)
(1.23407 0.00394792 0)
(1.23385 0.00379873 0)
(1.23365 0.00365535 0)
(1.23345 0.00351847 0)
(1.23326 0.00338638 0)
(1.23307 0.00326154 0)
(1.2329 0.00313949 0)
(1.23272 0.00302756 0)
(1.23256 0.00291337 0)
(1.23241 0.00281783 0)
(1.23226 0.00270637 0)
(1.23212 0.00263633 0)
(1.23197 0.00251572 0)
(1.23187 0.00248734 0)
(1.2317 0.00234385 0)
(1.28613 0.00484726 0)
(1.28621 0.00466117 0)
(1.28628 0.00448276 0)
(1.28636 0.00431161 0)
(1.28643 0.00414753 0)
(1.28649 0.00399001 0)
(1.28656 0.00383915 0)
(1.28662 0.00369407 0)
(1.28668 0.00355565 0)
(1.28674 0.00342188 0)
(1.28679 0.0032957 0)
(1.28685 0.0031718 0)
(1.2869 0.00305889 0)
(1.28695 0.00294228 0)
(1.287 0.00284651 0)
(1.28706 0.00273129 0)
(1.28709 0.00266222 0)
(1.28716 0.00253582 0)
(1.28718 0.00250899 0)
(1.28728 0.00235964 0)
(1.32894 0.00471658 0)
(1.32938 0.00453567 0)
(1.3298 0.00436218 0)
(1.33021 0.00419569 0)
(1.3306 0.00403605 0)
(1.33097 0.00388274 0)
(1.33133 0.00373591 0)
(1.33168 0.00359464 0)
(1.33202 0.0034599 0)
(1.33234 0.0033295 0)
(1.33265 0.00320673 0)
(1.33295 0.0030857 0)
(1.33324 0.00297606 0)
(1.33352 0.00286154 0)
(1.33378 0.00276908 0)
(1.33406 0.0026548 0)
(1.33428 0.00258905 0)
(1.33458 0.00246257 0)
(1.33473 0.00243791 0)
(1.33512 0.00228963 0)
(1.36422 0.00439823 0)
(1.36502 0.00422973 0)
(1.36579 0.00406809 0)
(1.36653 0.00391293 0)
(1.36725 0.00376412 0)
(1.36794 0.00362116 0)
(1.3686 0.00348424 0)
(1.36923 0.00335242 0)
(1.36984 0.00322676 0)
(1.37043 0.00310497 0)
(1.371 0.00299053 0)
(1.37155 0.00287727 0)
(1.37207 0.00277524 0)
(1.37259 0.00266759 0)
(1.37306 0.00258199 0)
(1.37356 0.00247373 0)
(1.37396 0.00241356 0)
(1.3745 0.00229305 0)
(1.37477 0.00227111 0)
(1.37545 0.00213088 0)
(1.39251 0.00389679 0)
(1.39366 0.0037477 0)
(1.39476 0.00360464 0)
(1.39583 0.00346726 0)
(1.39685 0.00333548 0)
(1.39783 0.00320884 0)
(1.39877 0.00308756 0)
(1.39968 0.00297072 0)
(1.40055 0.00285938 0)
(1.4014 0.00275134 0)
(1.4022 0.00265 0)
(1.40299 0.00254935 0)
(1.40373 0.00245912 0)
(1.40447 0.00236309 0)
(1.40514 0.00228773 0)
(1.40586 0.00219058 0)
(1.40643 0.00213809 0)
(1.4072 0.00202956 0)
(1.40758 0.00201086 0)
(1.40854 0.00188536 0)
(1.41437 0.00322746 0)
(1.41582 0.00310414 0)
(1.41722 0.00298578 0)
(1.41856 0.00287208 0)
(1.41985 0.00276299 0)
(1.42109 0.00265813 0)
(1.42229 0.00255771 0)
(1.42344 0.00246093 0)
(1.42455 0.00236871 0)
(1.42561 0.00227913 0)
(1.42663 0.00219523 0)
(1.42763 0.00211168 0)
(1.42857 0.00203707 0)
(1.42951 0.00195709 0)
(1.43035 0.001895 0)
(1.43126 0.00181374 0)
(1.43198 0.0017708 0)
(1.43295 0.0016798 0)
(1.43343 0.00166478 0)
(1.43464 0.00156009 0)
(1.43027 0.00241548 0)
(1.43197 0.00232329 0)
(1.4336 0.00223479 0)
(1.43517 0.00214975 0)
(1.43669 0.00206814 0)
(1.43814 0.00198968 0)
(1.43954 0.00191455 0)
(1.44089 0.00184211 0)
(1.44218 0.0017731 0)
(1.44343 0.00170599 0)
(1.44462 0.00164324 0)
(1.44579 0.00158061 0)
(1.44688 0.00152483 0)
(1.44798 0.00146471 0)
(1.44897 0.00141843 0)
(1.45004 0.00135719 0)
(1.45088 0.00132534 0)
(1.45201 0.00125664 0)
(1.45257 0.00124564 0)
(1.45399 0.00116691 0)
(1.44063 0.00149476 0)
(1.4425 0.00143776 0)
(1.4443 0.00138304 0)
(1.44603 0.00133045 0)
(1.4477 0.00127996 0)
(1.4493 0.0012314 0)
(1.45084 0.00118492 0)
(1.45233 0.00114011 0)
(1.45375 0.00109741 0)
(1.45513 0.00105584 0)
(1.45645 0.00101701 0)
(1.45773 0.00097822 0)
(1.45894 0.000943754 0)
(1.46015 0.000906438 0)
(1.46124 0.000877851 0)
(1.46242 0.000839765 0)
(1.46335 0.000820207 0)
(1.46459 0.000777469 0)
(1.46521 0.000770741 0)
(1.46676 0.000721864 0)
(1.44573 0.000505988 0)
(1.44769 0.000486689 0)
(1.44958 0.000468154 0)
(1.45139 0.000450368 0)
(1.45314 0.000433318 0)
(1.45482 0.000416884 0)
(1.45643 0.000401105 0)
(1.45799 0.000385915 0)
(1.45948 0.00037151 0)
(1.46093 0.000357477 0)
(1.46231 0.000344295 0)
(1.46365 0.000331098 0)
(1.46492 0.000319457 0)
(1.46619 0.000306876 0)
(1.46733 0.000297214 0)
(1.46856 0.000284227 0)
(1.46954 0.000277609 0)
(1.47084 0.00026315 0)
(1.47149 0.000260907 0)
(1.47312 0.000244318 0)
)
;

boundaryField
{
    fixedWalls
    {
        type            noSlip;
    }
    inlet
    {
        type            fixedValue;
        value           nonuniform 0();
    }
    outlet
    {
        type            zeroGradient;
    }
    frontAndBack
    {
        type            empty;
    }
    procBoundary3to2
    {
        type            processor;
        value           nonuniform List<vector> 
20
(
(0.0797223 2.9978e-05 0)
(0.230422 0.00018018 0)
(0.372305 0.000495017 0)
(0.505256 0.000938202 0)
(0.629136 0.00147423 0)
(0.743801 0.0020724 0)
(0.849127 0.00269959 0)
(0.945034 0.00331958 0)
(1.03151 0.00389463 0)
(1.10862 0.00438725 0)
(1.17655 0.00476214 0)
(1.23556 0.00498833 0)
(1.28605 0.00504135 0)
(1.32848 0.0049052 0)
(1.36338 0.00457384 0)
(1.39132 0.00405211 0)
(1.41286 0.0033559 0)
(1.4285 0.00251147 0)
(1.43868 0.00155411 0)
(1.44369 0.000526063 0)
)
;
    }
    procBoundary3to7
    {
        type            processor;
        value           nonuniform List<vector> 
20
(
(1.44573 -0.000505975 0)
(1.44769 -0.000486697 0)
(1.44958 -0.000468192 0)
(1.45139 -0.000450385 0)
(1.45314 -0.000433271 0)
(1.45482 -0.000416837 0)
(1.45643 -0.000401143 0)
(1.45799 -0.000385988 0)
(1.45948 -0.000371494 0)
(1.46093 -0.000357388 0)
(1.46231 -0.000344276 0)
(1.46365 -0.000331187 0)
(1.46492 -0.000319511 0)
(1.46619 -0.000306807 0)
(1.46733 -0.000297137 0)
(1.46856 -0.000284263 0)
(1.46954 -0.000277683 0)
(1.47084 -0.000263148 0)
(1.47149 -0.000260869 0)
(1.47312 -0.000244309 0)
)
;
    }
}


// ************************************************************************* //
