/*--------------------------------*- C++ -*----------------------------------*\
| =========                 |                                                 |
| \\      /  F ield         | OpenFOAM: The Open Source CFD Toolbox           |
|  \\    /   O peration     | Version:                                        |
|   \\  /    A nd           | Website:  www.openfoam.com                      |
|    \\/     M anipulation  |                                                 |
\*---------------------------------------------------------------------------*/
FoamFile
{
    version     2.0;
    format      ascii;
    class       surfaceScalarField;
    location    "46";
    object      phi;
}
// * * * * * * * * * * * * * * * * * * * * * * * * * * * * * * * * * * * * * //

dimensions      [0 3 -1 0 0 0 0];
oriented        oriented;


internalField   nonuniform List<scalar> 
2213
(
-0.000178037
-0.00131438
0.00149242
-0.000488014
-0.00164846
0.00195844
-0.000799799
-0.00100607
0.00131785
-0.0010851
-0.000205806
0.000491108
-0.00137205
0.000283847
3.10362e-06
-0.0015926
0.000361928
-0.000141377
-0.00164363
0.000125913
-7.48882e-05
-0.0012856
-0.000513093
0.000155066
-0.000346923
-0.00130261
0.000363936
-0.00256328
-0.00026397
-0.00105041
-0.000751843
-0.00116059
-0.00128261
-0.000475302
-0.00177589
0.00028747
-0.00215194
0.0006599
-0.00223226
0.000442252
-0.00166506
-0.000441292
-0.000239997
-0.00193815
0.00231059
-0.0038532
0.00547049
-0.00572318
0.00968854
-0.0075756
-0.0095404
-0.000542984
-0.000507429
-0.00135725
-0.000346323
-0.00211313
0.000280579
-0.0025755
0.000749842
-0.00243425
0.000518652
-0.00123767
-0.000754331
0.00117197
-0.00285093
0.00476337
-0.00552955
0.009165
-0.00825483
0.0140573
-0.0106155
0.0194219
-0.0129401
0.0244515
-0.01457
0.0297287
-0.016158
-0.0172201
-0.000618563
0.000111134
-0.00137204
0.000407151
-0.0017946
0.000703137
-0.00151773
0.000472982
-4.1996e-05
-0.000957087
0.00290851
-0.00370484
0.00714881
-0.00709122
0.0120727
-0.0104535
0.0170924
-0.0132745
0.0220645
-0.0155877
0.0263221
-0.0171977
0.0301246
-0.0183725
0.0331704
-0.0192039
0.0356838
-0.0197334
0.0378614
-0.0203978
0.0395054
-0.0207558
-0.0216974
-0.000349893
0.000461027
-0.000699343
0.000756602
-0.000579589
0.000583382
0.000689535
-0.000796142
0.00376803
-0.00403558
0.00825256
-0.00818936
0.0132418
-0.0120804
0.0178886
-0.0151003
0.0218744
-0.0172603
0.0248534
-0.0185666
0.0270024
-0.0193467
0.0284931
-0.0198632
0.0295659
-0.0202767
0.0307226
-0.0208901
0.0318331
-0.0215083
0.0336389
-0.0225616
0.0355727
-0.0236312
0.0381872
-0.0248776
0.0410743
-0.0264177
-0.0277126
-9.4342e-05
0.000555369
-0.000116525
0.000778784
0.000644982
-0.000178124
0.00352127
-0.00367243
0.00807804
-0.00859235
0.0129017
-0.013013
0.0169714
-0.0161502
0.0199473
-0.0180762
0.0217662
-0.0190791
0.0228432
-0.0196436
0.0236618
-0.0201654
0.0245746
-0.0207759
0.0259501
-0.0216523
0.027563
-0.0225031
0.0297462
-0.0236915
0.0319517
-0.0247671
0.0342559
-0.0259353
0.0365223
-0.027144
0.0383198
-0.0282152
-0.0297282
0.0403353
-5.46355e-05
0.000610004
0.000140487
0.000583662
0.00243667
-0.00247431
0.00696499
-0.00820075
0.011599
-0.0132263
0.0150913
-0.0165053
0.0172492
-0.018308
0.0183734
-0.0192004
0.0191007
-0.0198065
0.0199668
-0.0205097
0.0211472
-0.0213458
0.0226709
-0.0222996
0.0241158
-0.0230972
0.025688
-0.0240752
0.0270189
-0.0250225
0.0281939
-0.0259421
0.0292949
-0.0270363
0.0301637
-0.0280128
0.0315736
-0.0296251
-0.030916
0.0327615
-0.000119742
0.000729746
0.000981162
-0.000517242
0.00513741
-0.00663056
0.00959295
-0.0126563
0.0127033
-0.0163367
0.0144121
-0.0182142
0.015305
-0.0192009
0.0160569
-0.0199523
0.0170076
-0.0207572
0.018093
-0.0215952
0.0191786
-0.0224313
0.0199617
-0.0230827
0.0207668
-0.0239023
0.0215765
-0.0248848
0.0224645
-0.0259105
0.023546
-0.0270236
0.0246702
-0.0281605
0.0263439
-0.0296865
0.0278024
-0.0310835
-0.0324105
0.0292968
-0.000276139
0.00100588
0.00267855
-0.00347193
0.00717027
-0.0111223
0.0101548
-0.0156408
0.0117484
-0.0179302
0.0126715
-0.0191373
0.0134502
-0.0199796
0.0142202
-0.0207223
0.0149045
-0.0214414
0.0155051
-0.0221959
0.0159631
-0.0228893
0.0165935
-0.0237131
0.0174371
-0.024746
0.0184273
-0.0258751
0.0194242
-0.0269074
0.0202823
-0.0278817
0.0212895
-0.0291677
0.0219513
-0.0303483
0.0224728
-0.031605
-0.0328619
0.0229242
0.000475454
0.000530431
0.00448644
-0.00748292
0.00748874
-0.0141246
0.00928806
-0.0174402
0.0103301
-0.0189722
0.0110142
-0.0198215
0.0114916
-0.020457
0.0118594
-0.0210901
0.0122702
-0.0218522
0.0127206
-0.0226463
0.0132968
-0.0234655
0.0139135
-0.0243298
0.0145178
-0.0253503
0.0149757
-0.0263329
0.0152601
-0.0271918
0.0156913
-0.0283129
0.0160893
-0.0295657
0.0166583
-0.0309174
0.0172716
-0.0322183
0.0178914
-0.0334817
-0.000530637
-0.00832528
-0.00150118
-0.0108406
-0.0109373
-0.000870944
-0.00745433
-0.00212614
-0.00958544
-0.00351585
-0.00954759
-0.00953245
-0.00104887
-0.00640547
-0.00246499
-0.00816932
-0.00398164
-0.00803093
-0.00790421
-0.0011199
-0.00528557
-0.00255766
-0.00673156
-0.0040615
-0.00652709
-0.00630159
-0.00106687
-0.0042187
-0.00243991
-0.00535852
-0.00388505
-0.00508195
-0.00478932
-0.000893089
-0.00332561
-0.00205684
-0.00419477
-0.0033322
-0.00380659
-0.00469395
-0.00342757
-0.00305653
-0.000731251
-0.00259436
-0.00165101
-0.00327501
-0.00267416
-0.00278344
-0.00379071
-0.00231102
-0.00492165
-0.0019256
-0.00152834
-0.000518618
-0.00207574
-0.00115128
-0.00264234
-0.00188744
-0.00204729
-0.0027513
-0.00144716
-0.00362491
-0.00105199
-0.00442153
-0.000731726
-0.00041965
-0.00035263
-0.00172311
-0.000753854
-0.00224112
-0.00120759
-0.00159355
-0.00180343
-0.000851312
-0.00243464
-0.000420783
-0.00296496
-0.000201405
-0.00331271
-7.19013e-05
7.48246e-06
-0.000230687
-0.00051337
-0.00078907
-0.00114927
-0.00156695
-0.00190974
-0.00205653
-0.00189398
0.0442697
0.0183111
-0.0446893
0.0454235
0.0217704
0.0453219
0.0293984
0.0454026
0.0326808
0.0385428
0.0483657
0.0178081
-0.0478628
0.0482954
0.0218407
0.0501617
0.027532
0.0487213
0.0341211
0.0362004
0.0531094
0.0161719
-0.0514731
0.0522624
0.0226877
0.0541112
0.0256832
0.054567
0.0336654
0.0363969
0.0567198
0.0154945
-0.0560425
0.0577232
0.0216843
0.0573733
0.0260331
0.0602371
0.0308016
0.0382062
0.0607465
0.0158697
-0.0611217
0.0626102
0.0198207
0.0617922
0.0268511
0.0635993
0.0289945
0.0641023
0.0377032
0.0388019
0.0658305
0.0154477
-0.0654086
0.0667047
0.0189465
0.0678083
0.0257475
0.0679946
0.0288081
0.0705665
0.0351313
0.0393093
0.0712907
0.0139101
-0.069753
0.0713989
0.0188383
0.0736203
0.0235261
0.0736085
0.02882
0.0759974
0.0327424
0.0387946
0.0765041
0.0124478
-0.0750419
0.0767727
0.0185698
0.0784256
0.0218732
0.0790831
0.0281625
0.080514
0.0313115
0.0373723
0.082109
0.0115378
-0.0811989
0.0828611
0.0178176
0.0839293
0.0208049
0.0851551
0.0269368
0.086476
0.0299906
0.0355622
0.0884409
0.0108382
-0.0877414
0.089509
0.0167496
0.0904789
0.019835
0.0918745
0.0255411
0.093122
0.0287431
0.034022
0.0952228
0.0101597
-0.0945442
0.0963295
0.0156429
0.0972642
0.0189002
0.0985687
0.0242367
0.0997871
0.0275247
0.0324719
0.102239
0.00949171
-0.101571
0.103305
0.0145763
0.104271
0.0179344
0.105617
0.022891
0.106953
0.0261887
0.0308166
0.109623
0.00879476
-0.108926
0.110681
0.0135186
0.1117
0.0169153
0.113058
0.0215326
0.114399
0.0248485
0.0292091
0.117428
0.00807662
-0.116709
0.118453
0.0124934
0.119476
0.0158918
0.120792
0.0202169
0.122123
0.0235178
0.0276107
0.125665
0.00736508
-0.124954
0.126651
0.0115079
0.127679
0.0148633
0.12898
0.018916
0.130341
0.0221569
0.0259967
0.134394
0.00666621
-0.133695
0.135351
0.0105508
0.136386
0.0138286
0.137674
0.0176281
0.139043
0.0207879
0.0243964
0.143645
0.00598911
-0.142968
0.144567
0.00962831
0.145591
0.0128053
0.146853
0.0163657
0.148218
0.0194226
0.022805
0.153426
0.00534178
-0.152779
0.154313
0.00874218
0.155323
0.0117944
0.156568
0.0151216
0.157937
0.0180535
0.0212129
0.163782
0.00472616
-0.163166
0.164631
0.00789311
0.165628
0.010798
0.166855
0.0138939
0.168228
0.0166809
0.0196205
0.174746
0.00414516
-0.174165
0.175562
0.00707713
0.176546
0.00981402
0.17776
0.0126798
0.179137
0.0153043
0.018024
0.18638
0.0036012
-0.185836
0.187162
0.0062949
0.188132
0.0088442
0.189335
0.0114768
0.190719
0.0139207
0.0164176
0.198734
0.00309518
-0.198228
0.199485
0.00554386
0.200443
0.007886
0.201641
0.010279
0.203037
0.0125249
0.0147943
0.211874
0.00262444
-0.211403
0.212598
0.00481925
0.213549
0.0069358
0.214747
0.00908095
0.21616
0.0111121
0.0131466
0.225873
0.00218578
-0.225434
0.226576
0.00411606
0.227522
0.00598926
0.228727
0.00787614
0.230164
0.00967518
0.0114652
0.240813
0.00177605
-0.240404
0.2415
0.0034289
0.242449
0.00504069
0.243668
0.00665674
0.245138
0.00820601
0.00973958
0.25679
0.00139164
-0.256406
0.257467
0.00275183
0.258425
0.00408352
0.259667
0.00541414
0.261178
0.00669529
0.00795856
0.273914
0.00102744
-0.27355
0.274588
0.00207833
0.275561
0.00311032
0.276836
0.00413892
0.278399
0.00513259
0.00610964
0.292309
0.000678314
-0.29196
0.292986
0.00140114
0.293984
0.00211242
0.295302
0.00282024
0.296929
0.00350578
0.00417857
0.312119
0.000340053
-0.311781
0.312808
0.000712147
0.31384
0.00107985
0.315215
0.00144567
0.31692
0.00180062
0.0021487
0.333513
-0.333173
0.334225
0.335305
0.33675
0.338551
0.0255205
0.0270967
-0.0256147
-0.0270025
0.0234225
0.0262547
-0.0241568
0.0212983
0.0250874
-0.0229631
0.019614
0.0238374
-0.0221531
0.0182401
0.0229761
-0.0216022
0.0168878
0.0224009
-0.0210486
0.0153087
0.0217975
-0.0202184
0.0136006
0.0209211
-0.0192129
0.0120872
0.0200163
-0.018503
0.0107823
0.01943
-0.018125
0.00953864
0.0189704
-0.0177268
0.00826945
0.0184571
-0.0171879
0.00700375
0.0179215
-0.0166558
0.00577973
0.0174678
-0.0162438
0.00461473
0.0171328
-0.0159678
0.00349586
0.0169023
-0.0157834
0.0024025
0.0167161
-0.0156228
0.00133003
0.0166259
-0.0155534
0.000399644
0.0164306
-0.0155002
0.0123081
-0.0119085
0.021471
0.0283836
-0.0227579
0.0200838
0.027642
0.0184531
0.026718
0.0166921
0.0255984
0.0152129
0.0244553
0.0139365
0.0236774
0.0126677
0.0230662
0.0113433
0.0222455
0.0100519
0.0213077
0.00887694
0.0206049
0.00773124
0.0201161
0.00660038
0.019588
0.00551281
0.019009
0.00448584
0.0184948
0.00350646
0.0181121
0.00256092
0.0178478
0.00165537
0.0176217
0.000763597
0.0175176
7.82406e-06
0.0171863
0.0123159
0.0175793
0.0298204
-0.0190161
0.0163122
0.0289091
0.0149558
0.0280744
0.0136007
0.0269535
0.0122703
0.0257856
0.0111275
0.0248202
0.0100311
0.0241626
0.00886791
0.0234087
0.00773676
0.0224389
0.00671374
0.0216279
0.00578456
0.0210453
0.00486577
0.0205068
0.00395627
0.0199185
0.00307927
0.0193718
0.00225356
0.0189379
0.00148172
0.0186196
0.000773949
0.0183295
0.000149726
0.0181419
-0.000285075
0.0176211
0.0120309
0.0135722
0.0311235
-0.0148753
0.0124066
0.0300746
0.0113288
0.0291522
0.0101627
0.0281197
0.00907354
0.0268747
0.00807176
0.025822
0.0071679
0.0250665
0.00626945
0.0243071
0.00536075
0.0233476
0.00451587
0.0224728
0.00371819
0.021843
0.00296029
0.0212647
0.00223556
0.0206433
0.00155882
0.0200485
0.000934403
0.0195623
0.000347894
0.0192061
-0.000216655
0.018894
-0.000658048
0.0185832
-0.000675033
0.0176381
0.0113558
0.00948424
0.0320437
-0.0104044
0.00852283
0.0310361
0.00756781
0.0301072
0.00665192
0.0290356
0.00573697
0.0277897
0.00493943
0.0266195
0.00421291
0.025793
0.00350098
0.0250191
0.00280311
0.0240455
0.00213994
0.023136
0.00153898
0.0224439
0.000978163
0.0218255
0.000453064
0.0211684
-4.8924e-05
0.0205505
-0.000529424
0.0200428
-0.00095943
0.0196362
-0.00129786
0.0192324
-0.00147917
0.0187646
-0.00115214
0.0173111
0.0102037
0.00480136
0.0329379
-0.00569558
0.00407346
0.031764
0.00348637
0.0306943
0.00290467
0.0296172
0.00230818
0.0283862
0.00170243
0.0272253
0.00113629
0.0263592
0.000618855
0.0255365
0.000128416
0.0245359
-0.000319661
0.023584
-0.000737696
0.022862
-0.00112902
0.0222168
-0.00149458
0.0215339
-0.00182207
0.020878
-0.0020924
0.0203131
-0.00231407
0.0198578
-0.00248392
0.0194023
-0.00245016
0.0187308
-0.00169951
0.0165605
0.00850417
0.000509845
0.0335911
-0.00116301
2.52875e-06
0.0322713
-0.000511652
0.0312085
-0.000994307
0.0300999
-0.00141616
0.028808
-0.00178058
0.0275897
-0.00207691
0.0266555
-0.00234191
0.0258015
-0.00259252
0.0247865
-0.00287012
0.0238616
-0.00313363
0.0231255
-0.00334074
0.0224239
-0.00349555
0.0216888
-0.00361526
0.0209977
-0.00372635
0.0204242
-0.00379282
0.0199243
-0.00375921
0.0193687
-0.00344708
0.0184187
-0.00230605
0.0154194
0.00619812
-0.00459364
0.0338243
0.00436038
-0.00482885
0.0325065
-0.00492224
0.0313019
-0.00495965
0.0301373
-0.0050225
0.0288709
-0.00513107
0.0276983
-0.00530465
0.0268291
-0.00542378
0.0259206
-0.00550301
0.0248657
-0.00554216
0.0239008
-0.00554826
0.0231316
-0.00554611
0.0224218
-0.00554157
0.0216842
-0.00554587
0.021002
-0.0054991
0.0203774
-0.00536995
0.0197951
-0.00511178
0.0191105
-0.00447063
0.0177775
-0.00289787
0.0138467
0.00330026
-0.00896121
0.0337125
0.00907302
-0.00890134
0.0324466
-0.008958
0.0313585
-0.00899256
0.0301719
-0.00893687
0.0288152
-0.00890176
0.0276632
-0.00874175
0.0266691
-0.00850665
0.0256855
-0.0082652
0.0246243
-0.00811597
0.0237515
-0.00802758
0.0230432
-0.0078872
0.0222814
-0.00769869
0.0214957
-0.00746408
0.0207674
-0.00724812
0.0201615
-0.00700483
0.0195518
-0.00644909
0.0185548
-0.00501662
0.016345
-0.00242786
0.0112579
0.000872396
-0.014476
0.0147068
-0.0142476
-0.0138065
-0.0132003
-0.0126979
-0.0122266
-0.0118904
-0.0115552
-0.0112607
-0.0109746
-0.0105777
-0.0101485
-0.00974297
-0.00943253
-0.00909254
-0.00851289
-0.00739826
-0.00517782
-0.00140283
0.0356325
0.00123349
0.0330191
0.00111019
0.030475
0.000992239
0.0280021
0.000878367
0.0255978
0.000768437
0.0232578
0.000662653
0.0209754
0.000561528
0.0187451
0.000465174
0.0165596
0.000373807
0.0144117
0.000287714
0.0122891
0.00020677
0.0101791
0.000132006
0.00806748
6.08127e-05
0.00594745
-6.75929e-06
0.00381951
-6.26392e-05
0.00169073
-8.79879e-05
-6.48192e-05
0.0352936
0.00389634
0.0327034
0.00370032
0.0301843
0.00351138
0.0277351
0.00332757
0.0253524
0.00315114
0.0230322
0.00298282
0.0207688
0.00282496
0.0185552
0.0026787
0.0163838
0.00254525
0.0142448
0.00242671
0.0121282
0.00232335
0.0100226
0.00223759
0.00791615
0.00216729
0.00579735
0.00211205
0.00369237
0.00204234
0.00161438
0.00199
0.00154956
0.0347483
0.00653474
0.0321871
0.00626151
0.0297037
0.00599477
0.0272934
0.00573785
0.0249529
0.00549169
0.0226758
0.00525992
0.0204592
0.00504147
0.0182977
0.00484025
0.016187
0.00465592
0.014121
0.00449275
0.0120886
0.00435576
0.0100754
0.00425077
0.00806108
0.0041816
0.00601991
0.00415322
0.00392589
0.00413635
0.00176624
0.00414965
0.0033158
0.0363753
0.00949339
0.0337783
0.00913172
0.0312592
0.00878059
0.0288154
0.00843856
0.0264441
0.00810915
0.024137
0.00779879
0.0218877
0.00750921
0.0196881
0.00724106
0.0175388
0.00698963
0.0154342
0.00676045
0.0133838
0.00654321
0.0113936
0.00634598
0.00945832
0.00618602
0.00755921
0.00608071
0.00565777
0.00605466
0.00370745
0.00608667
0.00166844
0.00618867
0.00498424
0.0351983
0.0120936
0.0326859
0.0116441
0.0302575
0.0112091
0.0279103
0.0107858
0.0256446
0.0103748
0.0234559
0.00998749
0.0213293
0.00963576
0.0192428
0.00932761
0.0171862
0.00904622
0.0151512
0.00879548
0.0131182
0.00857618
0.0111046
0.00835959
0.00913459
0.00815601
0.00722117
0.00799413
0.00535536
0.00792047
0.00349883
0.0079432
0.00158819
0.00809932
0.00657243
0.035917
0.0151968
0.0333736
0.014637
0.0309265
0.0140911
0.0285594
0.0135762
0.0262582
0.013087
0.0240225
0.0126105
0.0218824
0.0121276
0.0198595
0.0116587
0.0179262
0.0112609
0.0160411
0.0109313
0.0142022
0.0106344
0.0123815
0.0103969
0.0105278
0.0102132
0.00866176
0.0100221
0.00681934
0.00983654
0.0050199
0.00971991
0.00324021
0.00972289
0.00143611
0.00990342
0.00800853
0.0366425
0.0183438
0.0341189
0.0177204
0.0317104
0.0170455
0.0294171
0.0163844
0.0272499
0.0157435
0.0251321
0.0152047
0.0230096
0.0147329
0.02086
0.0142773
0.018766
0.0137526
0.0168131
0.0132138
0.0149597
0.0127847
0.0131588
0.0124353
0.0114381
0.0121176
0.00976092
0.0118904
0.00805387
0.0117291
0.00632921
0.0115612
0.00462748
0.0114216
0.00295451
0.0113959
0.00128907
0.0115689
0.0092976
0.0336527
0.0208611
-0.03617
0.0313124
0.0200607
0.028988
0.0193699
0.0267527
0.0186197
0.0246674
0.0178288
0.0228193
0.0170528
0.0211022
0.0164501
0.0193342
0.0160453
0.0174136
0.0156733
0.0154985
0.0151289
0.0137359
0.0145473
0.0120579
0.0141134
0.0104061
0.0137694
0.00881549
0.013481
0.00726955
0.0132751
0.00571131
0.0131194
0.00415363
0.0129793
0.00260716
0.0129423
0.00109486
0.0130812
0.0103925
0.03114
0.0232325
-0.0335113
0.0289862
0.0222145
0.026964
0.0213921
0.0248764
0.0207074
0.0226943
0.0200108
0.0205789
0.0191682
0.0187917
0.0182373
0.0173036
0.0175334
0.0158081
0.0171687
0.0141021
0.0168349
0.0123714
0.016278
0.0107886
0.0156962
0.00930518
0.0152527
0.00784767
0.0149385
0.00640977
0.014713
0.00499084
0.0145384
0.00358526
0.0143849
0.0022009
0.0143267
0.000889825
0.0143922
0.0112823
0.0270632
-0.0294455
0.0251209
0.0235499
0.0221042
0.0205128
0.0186324
0.0166512
0.0149717
0.0136375
0.0123474
0.0108986
0.00940684
0.0080038
0.00669852
0.00544372
0.0041987
0.00296083
0.00173412
0.000626173
0.00644496
0.00773263
0.0307536
0.00738623
0.00904075
0.041189
0.00760528
0.00824278
0.0419869
0.0449505
0.00751916
0.00812565
0.0450677
0.0484162
0.00758957
0.00806735
0.0484745
0.0528595
0.00783965
0.00790411
0.0530227
0.0580469
0.00777947
0.00789167
0.0580593
0.0632913
0.00733031
0.00798281
0.0632002
0.0679384
0.00689171
0.00791337
0.0680078
0.072761
0.00668193
0.00768509
0.0729892
0.0784127
0.0066055
0.00740973
0.0786881
0.08478
0.00651646
0.00712132
0.0850684
0.0916619
0.00635479
0.00680491
0.0919783
0.0990438
0.00611756
0.00644237
0.0994064
0.106959
0.00582088
0.00603891
0.107362
0.115384
0.00548895
0.00562356
0.115799
0.12431
0.00513253
0.00520299
0.12473
0.133755
0.00475937
0.00478194
0.134176
0.143761
0.00437601
0.00436731
0.144176
0.154375
0.00397709
0.00395131
0.154791
0.16563
0.00357559
0.00352817
0.166053
0.177571
0.00318329
0.00311917
0.17798
0.190226
0.00280504
0.00273128
0.190614
0.203648
0.00244064
0.00236347
0.204016
0.217892
0.00208968
0.00201388
0.218242
0.233014
0.00175353
0.00168274
0.233345
0.249081
0.00143269
0.00136953
0.249394
0.266177
0.00112716
0.00107353
0.266473
0.284416
0.000836083
0.000792969
0.284696
0.303932
0.000552644
0.000523263
0.304202
0.324862
0.00026855
0.000253559
0.325132
0.347374
0.347627
0.0419271
-0.0269426
0.0418253
-0.0226561
0.0423148
-0.0195056
0.0423747
-0.0149353
0.0427272
-0.0107569
0.0430986
-0.00606692
0.0432483
-0.00131274
0.0439063
0.00370236
0.0437015
0.00927784
0.0137189
0.0451021
-0.0269771
0.0456692
-0.0232231
0.0457036
-0.0195399
0.0460857
-0.0153174
0.0463743
-0.0110455
0.0467488
-0.00644139
0.0468347
-0.00139865
0.0474354
0.00310161
0.0474152
0.00929809
0.0132713
0.0493578
-0.0278605
0.0497908
-0.0236561
0.0497163
-0.0194655
0.0502611
-0.0158623
0.0503561
-0.0111405
0.0506038
-0.00668901
0.0510582
-0.00185313
0.0510388
0.00312109
0.0519823
0.00835451
0.0137806
0.0542535
-0.0290912
0.0538293
-0.0232319
0.0542274
-0.0198636
0.0542196
-0.0158544
0.0544909
-0.0114118
0.0546358
-0.00683396
0.0550342
-0.00225154
0.0550872
0.00306808
0.0558466
0.00759514
0.0135847
0.0585648
-0.0295967
0.0581141
-0.0227812
0.0586545
-0.0204039
0.0582809
-0.0154808
0.0587655
-0.0118964
0.058869
-0.00693748
0.0591453
-0.00252782
0.0597763
0.00243713
0.0598585
0.00751295
0.0123215
0.0629449
-0.0293414
0.0629044
-0.0227407
0.0630476
-0.0205472
0.0627906
-0.0152238
0.0632556
-0.0123614
0.0632923
-0.00697425
0.063723
-0.00295853
0.0642002
0.00195997
0.0645376
0.00717551
0.0114505
0.0675626
-0.0288961
0.0676239
-0.0228019
0.0674932
-0.0204165
0.0674329
-0.0151635
0.0677614
-0.0126899
0.0677522
-0.00696504
0.0684497
-0.00365604
0.0685184
0.00189127
0.0695861
0.00610779
0.0112836
0.0726472
-0.0285542
0.0726912
-0.0228459
0.0725887
-0.020314
0.0726937
-0.0152686
0.0729078
-0.0129039
0.0730355
-0.00709269
0.0736898
-0.00431037
0.0737942
0.00178681
0.0749027
0.00499934
0.0111444
0.0783883
-0.0282544
0.0784614
-0.022919
0.0783808
-0.0202334
0.0785923
-0.01548
0.0787025
-0.0130141
0.0790369
-0.00742714
0.079466
-0.00473943
0.0799033
0.00134946
0.0806572
0.00424553
0.0106027
0.0847512
-0.0279372
0.084827
-0.0229948
0.084721
-0.0201274
0.0849705
-0.0157296
0.0850079
-0.0130515
0.0854583
-0.00787758
0.0857308
-0.0050119
0.0863967
0.000683615
0.0869108
0.00373142
0.00977209
0.0916332
-0.0275921
0.0916533
-0.0230149
0.0915471
-0.0200212
0.0917626
-0.0159451
0.0917856
-0.0130745
0.09223
-0.00832198
0.0924477
-0.0052296
0.0931701
-3.87803e-05
0.0936229
0.00327858
0.00885076
0.0990001
-0.0271858
0.0989454
-0.0229602
0.0988377
-0.0199135
0.0989693
-0.0160767
0.098994
-0.0130992
0.0993737
-0.00870164
0.0996118
-0.00546775
0.100206
-0.00063306
0.100684
0.00280025
0.00796434
0.106862
-0.0266857
0.106721
-0.0228194
0.106572
-0.0197646
0.106607
-0.0161114
0.1066
-0.0130917
0.106872
-0.00897392
0.107084
-0.00568013
0.107617
-0.00116603
0.108093
0.00232435
0.00713127
0.115229
-0.0261159
0.114978
-0.0225682
0.114754
-0.0195404
0.114694
-0.016051
0.114629
-0.013027
0.114804
-0.00914924
0.114986
-0.00586143
0.115446
-0.00162622
0.115918
0.00185225
0.00633968
0.124094
-0.0254798
0.123716
-0.0221904
0.123398
-0.0192219
0.123244
-0.0158967
0.123116
-0.0128992
0.12321
-0.00924296
0.12335
-0.00600218
0.123749
-0.00202495
0.12421
0.00139171
0.00559557
0.133458
-0.0247616
0.132959
-0.0216913
0.132547
-0.0188096
0.1323
-0.0156496
0.13211
-0.0127094
0.13213
-0.00926276
0.132226
-0.00609858
0.132567
-0.00236545
0.133
0.000958342
0.00490028
0.143365
-0.0239502
0.142751
-0.0210781
0.142244
-0.0183021
0.141901
-0.0153063
0.141643
-0.0124522
0.141589
-0.00920797
0.141637
-0.00614706
0.141919
-0.00264736
0.142319
0.000558612
0.00425113
0.153866
-0.0230251
0.153136
-0.0203474
0.152527
-0.0176933
0.152082
-0.0148614
0.151747
-0.0121176
0.151611
-0.00907209
0.151603
-0.00613852
0.151821
-0.00286523
0.152181
0.000198322
0.00365307
0.164998
-0.0219704
0.164143
-0.0194925
0.163429
-0.0169787
0.16288
-0.0143123
0.162459
-0.0116968
0.162235
-0.00884831
0.16216
-0.00606353
0.16231
-0.00301469
0.162615
-0.000107458
0.00310206
0.176781
-0.0207711
0.175789
-0.0185004
0.174961
-0.0161514
0.174309
-0.0136598
0.173801
-0.0111889
0.17349
-0.00853718
0.173344
-0.00591737
0.173422
-0.00309302
0.173669
-0.000354973
0.00260622
0.189264
-0.0194211
0.188121
-0.0173572
0.187166
-0.0151967
0.186404
-0.0128979
0.185807
-0.0105921
0.185411
-0.00814068
0.185192
-0.00569828
0.185197
-0.00309822
0.185393
-0.000550783
0.00216274
0.202516
-0.0179215
0.201219
-0.0160597
0.200123
-0.0141008
0.199237
-0.012012
0.198538
-0.00989352
0.19805
-0.00765219
0.197755
-0.00540376
0.197691
-0.00303388
0.197834
-0.000694138
0.00176894
0.216592
-0.0162719
0.215143
-0.0146102
0.2139
-0.0128585
0.212879
-0.0109902
0.212064
-0.00907919
0.211475
-0.00706324
0.2111
-0.00502883
0.210966
-0.00289927
0.211056
-0.000784311
0.0014218
0.23154
-0.0144662
0.229938
-0.0130085
0.22855
-0.0114703
0.22739
-0.00983084
0.226455
-0.00814428
0.225761
-0.00636884
0.225301
-0.00456842
0.225094
-0.00269262
0.22513
-0.00082076
0.00111819
0.247426
-0.0124983
0.24567
-0.0112522
0.244136
-0.00993641
0.24284
-0.00853539
0.241785
-0.00708851
0.240984
-0.00556815
0.240436
-0.00402075
0.240157
-0.00241377
0.24014
-0.000803948
0.000855159
0.264338
-0.0103626
0.262424
-0.00933826
0.260744
-0.00825634
0.259314
-0.00710513
0.258138
-0.00591312
0.257232
-0.00466254
0.256598
-0.00338634
0.256248
-0.00206409
0.25618
-0.000735414
0.000629126
0.282386
-0.00805275
0.280311
-0.00726263
0.278482
-0.00642778
0.276917
-0.00553973
0.275622
-0.00461846
0.274613
-0.00365321
0.273893
-0.00266636
0.273474
-0.00164562
0.273356
-0.000617449
0.000435724
0.30171
-0.00556097
0.299466
-0.00501892
0.297485
-0.00444589
0.295781
-0.00383606
0.294365
-0.00320247
0.293251
-0.00253935
0.292445
-0.00186072
0.29196
-0.00115977
0.291795
-0.000452493
0.000270684
0.322453
-0.00288256
0.320036
-0.00260166
0.317895
-0.00230514
0.316049
-0.00198985
0.314509
-0.00166221
0.313289
-0.00131991
0.312398
-0.000969689
0.311847
-0.000608588
0.311639
-0.000244053
0.000128741
0.344745
0.342143
0.339838
0.337848
0.336186
0.334866
0.333896
0.333288
0.333044
)
;

boundaryField
{
    outlet
    {
        type            calculated;
        value           nonuniform 0();
    }
    upperWall
    {
        type            symmetryPlane;
        value           uniform 0;
    }
    lowerWall
    {
        type            symmetryPlane;
        value           nonuniform 0();
    }
    inlet
    {
        type            calculated;
        value           nonuniform 0();
    }
    cylinder
    {
        type            calculated;
        value           uniform 0;
    }
    frontAndBack
    {
        type            empty;
        value           nonuniform 0();
    }
    procBoundary5to1
    {
        type            processor;
        value           nonuniform List<scalar> 
20
(
0.00885591
0.0118112
0.0121033
0.00144921
0.00150322
0.00155183
0.00159457
0.00163588
0.00167727
0.00172095
0.00176513
0.00181168
0.00186013
0.00191582
0.00197807
0.00205076
0.0021268
0.00219057
0.00221677
0.00175555
)
;
    }
    procBoundary5to4
    {
        type            processor;
        value           nonuniform List<scalar> 
45
(
-0.0383152
-0.0379564
-0.0373867
-0.00681784
-0.0390508
-0.0377985
-0.0125751
-0.0385387
-0.0158317
-0.0391546
-0.00531956
-0.0372954
-0.034799
-0.0062877
-0.0318521
-0.041408
-0.0448644
-0.0484866
-0.0531096
-0.0579867
-0.0628422
-0.0674998
-0.0725512
-0.0783363
-0.0846909
-0.0915002
-0.0988066
-0.106662
-0.115052
-0.123953
-0.133382
-0.143378
-0.153976
-0.165229
-0.177179
-0.189848
-0.203284
-0.217541
-0.232678
-0.24876
-0.265872
-0.284125
-0.303649
-0.324578
-0.347105
)
;
    }
    procBoundary5to6
    {
        type            processor;
        value           nonuniform List<scalar> 
63
(
0.00127779
0.000938567
0.00335754
0.00485157
0.0143774
0.0108808
0.0125362
0.0344126
0.0182202
0.0191118
0.019798
0.0414048
0.0222631
0.0235306
0.0247008
0.0440861
-0.00266715
0.0110163
-0.00499966
-0.00560988
-0.00566412
-0.00539732
0.00445226
-0.00608967
0.0026209
-0.0060142
0.0010867
-0.00508858
9.70161e-05
-0.00341721
-0.000132082
-0.00139796
0.0471952
0.0510637
0.0543705
0.0584278
-0.0387121
0.0640126
0.0700591
0.0765121
0.0819363
0.0882861
0.0946622
0.101337
0.108608
0.116006
0.123721
0.131955
0.140643
0.14981
0.159529
0.16982
0.180733
0.192325
0.20466
0.217807
0.231846
0.246863
0.262959
0.280248
0.29886
0.31895
0.3407
)
;
    }
}


// ************************************************************************* //
