/*--------------------------------*- C++ -*----------------------------------*\
| =========                 |                                                 |
| \\      /  F ield         | OpenFOAM: The Open Source CFD Toolbox           |
|  \\    /   O peration     | Version:                                        |
|   \\  /    A nd           | Website:  www.openfoam.com                      |
|    \\/     M anipulation  |                                                 |
\*---------------------------------------------------------------------------*/
FoamFile
{
    version     2.0;
    format      ascii;
    class       volVectorField;
    location    "160";
    object      U;
}
// * * * * * * * * * * * * * * * * * * * * * * * * * * * * * * * * * * * * * //

dimensions      [0 1 -1 0 0 0 0];


internalField   nonuniform List<vector> 
1139
(
(1.43225 0.442876 1.71093e-19)
(1.38744 0.434171 -2.91787e-19)
(1.33431 0.423184 4.46802e-20)
(1.35679 0.369265 1.94521e-19)
(1.29121 0.41689 2.46595e-22)
(1.32288 0.360858 -4.09133e-20)
(1.25656 0.407269 -3.92532e-20)
(1.27545 0.351101 -8.8326e-20)
(1.2823 0.29679 -1.10891e-19)
(1.21298 0.398797 -6.4011e-20)
(1.23718 0.340379 1.77086e-19)
(1.24648 0.288556 1.87824e-19)
(1.17504 0.375907 5.66812e-20)
(1.20055 0.333244 -1.4092e-20)
(1.21939 0.280249 -1.95937e-19)
(1.13998 0.38524 3.09787e-20)
(1.16023 0.303402 -5.97602e-20)
(1.18872 0.273539 7.48933e-20)
(1.20329 0.223385 1.47945e-19)
(1.10968 0.339312 4.28229e-20)
(1.13326 0.302408 -1.72029e-19)
(1.16246 0.254198 -2.72789e-20)
(1.17516 0.214304 -6.04307e-20)
(1.05197 0.36855 6.93361e-20)
(1.10354 0.283027 1.28106e-19)
(1.12115 0.246109 6.49302e-21)
(1.1432 0.209646 -4.07603e-20)
(0.227839 -0.965683 -4.4434e-20)
(0.258223 -0.840648 5.13609e-20)
(0.30376 -0.806639 3.85338e-20)
(0.327666 -0.751077 -2.40576e-19)
(0.289496 -0.67797 -6.01438e-20)
(0.152737 -0.585346 -5.4824e-20)
(0.287485 -0.656823 -5.03959e-22)
(0.362878 -0.632989 -8.50048e-21)
(0.378688 -0.601342 7.81414e-20)
(0.341906 -0.536153 1.74495e-19)
(0.311963 -0.397953 3.8305e-19)
(0.117355 -0.293397 3.48608e-19)
(0.316586 -0.438349 -2.24394e-20)
(0.411804 -0.4168 1.67681e-19)
(0.479696 -0.367843 1.34893e-19)
(0.503248 -0.292216 -1.51525e-19)
(0.379059 -0.22891 -5.30495e-19)
(0.322253 -0.0760923 -8.36247e-22)
(0.677805 0.226772 -2.68114e-19)
(0.38277 -0.178234 3.32198e-20)
(0.513181 -0.136486 -1.19399e-19)
(0.580908 -0.105656 -6.039e-20)
(0.54238 -0.085367 -5.23018e-20)
(0.529213 0.0126259 6.19199e-19)
(0.781438 0.261008 -1.46461e-19)
(1.129 0.471696 -7.52704e-20)
(1.33675 0.534472 -7.39106e-20)
(0.413336 0.0468288 2.24762e-20)
(0.531137 0.0918241 -4.89522e-20)
(0.606648 0.112422 -1.17321e-19)
(0.691808 0.183993 2.9256e-20)
(0.898049 0.35939 -1.28424e-20)
(1.17388 0.545783 -9.37955e-20)
(1.3567 0.61752 -6.29326e-19)
(1.43905 0.606792 -3.22352e-19)
(1.49143 0.575495 -7.96686e-20)
(0.443422 0.262126 -5.78842e-20)
(0.604745 0.344205 7.66041e-21)
(0.77523 0.411931 1.7097e-19)
(0.979048 0.541253 1.09131e-19)
(1.20072 0.665285 -4.1104e-19)
(1.35857 0.720927 2.71713e-19)
(1.42222 0.695226 1.16713e-19)
(1.4541 0.648639 5.30376e-19)
(1.46897 0.589223 2.77342e-19)
(1.4727 0.51234 1.02031e-19)
(0.561949 0.577478 4.19201e-20)
(0.769184 0.696421 1.02505e-19)
(0.983675 0.762474 -3.56226e-20)
(1.1816 0.843508 -2.06314e-19)
(1.32255 0.846814 2.0828e-19)
(1.38484 0.810078 -1.64623e-20)
(1.40309 0.737579 -1.30699e-19)
(1.42048 0.668954 2.56511e-19)
(1.42846 0.588937 -3.90848e-19)
(1.42748 0.512433 1.20928e-19)
(0.67485 0.924857 -4.68372e-20)
(0.896432 1.01512 -4.30709e-20)
(1.09216 1.01348 -2.42889e-19)
(1.23299 1.00834 -1.4369e-20)
(1.30638 0.926234 -3.81361e-20)
(1.33565 0.855664 2.52674e-19)
(1.35593 0.752374 -1.70558e-19)
(1.36598 0.671624 1.56291e-19)
(1.37755 0.582508 2.76276e-20)
(1.37749 0.515804 -3.66984e-19)
(0.743207 1.17057 -3.59502e-20)
(0.935216 1.19848 1.58372e-19)
(1.08399 1.12825 2.70838e-19)
(1.1844 1.07412 2.51247e-19)
(1.24445 0.95165 1.15132e-19)
(1.27435 0.869062 -4.4584e-19)
(1.29136 0.738989 3.77001e-19)
(1.2986 0.672196 -2.69382e-20)
(1.32827 0.579351 -1.0366e-19)
(1.33641 0.509069 2.42021e-19)
(0.732048 1.27126 3.00336e-20)
(0.890133 1.2539 -3.03104e-20)
(1.02333 1.14833 -1.28413e-20)
(1.12049 1.07795 7.56933e-20)
(1.17276 0.94113 -1.24709e-19)
(1.18862 0.855359 1.59111e-19)
(1.2146 0.731171 -9.96786e-20)
(1.25433 0.66443 7.0483e-20)
(1.28096 0.56619 -1.9967e-20)
(1.28064 0.50173 -7.7021e-20)
(0.701409 1.27827 3.02137e-20)
(0.848974 1.24013 -1.0159e-20)
(0.967416 1.13568 -9.28733e-20)
(1.048 1.05134 2.65001e-20)
(1.08803 0.925531 -8.47422e-20)
(1.11998 0.832706 1.861e-19)
(1.16681 0.717638 -2.46899e-19)
(1.20553 0.646463 1.57992e-19)
(1.22076 0.556361 1.25166e-19)
(1.23458 0.490774 1.35629e-19)
(0.677649 1.24649 -2.20305e-20)
(0.807742 1.18901 6.1795e-20)
(0.910575 1.0986 -2.18279e-20)
(0.975839 0.999319 -8.56268e-20)
(1.01434 0.89228 -1.88174e-19)
(1.05353 0.806321 3.87891e-21)
(1.1017 0.700437 3.09558e-20)
(1.14498 0.624113 -1.72346e-20)
(1.17513 0.546888 -5.14666e-20)
(1.18961 0.472927 -7.15911e-20)
(0.627643 1.21344 -1.32737e-20)
(0.74038 1.12428 1.86948e-19)
(0.837 1.05351 -3.93959e-21)
(0.897547 0.973228 -1.07632e-19)
(0.943068 0.875265 1.00753e-19)
(0.994738 0.781929 1.10512e-19)
(1.06134 0.693575 2.32669e-19)
(1.10713 0.597497 -2.9142e-19)
(1.1218 0.519711 -1.66165e-19)
(1.1559 0.46756 1.31784e-19)
(0.611633 1.16005 -4.05124e-20)
(0.702626 1.07256 -1.44713e-20)
(0.804782 0.995821 -2.18154e-19)
(0.858114 0.913533 -3.99549e-20)
(0.900273 0.845438 3.32014e-20)
(0.95462 0.746235 -1.30643e-19)
(0.995543 0.640823 -1.87901e-19)
(1.04402 0.569708 1.27231e-19)
(1.07615 0.496258 2.4372e-19)
(1.11286 0.445092 -1.52167e-19)
(0.52741 1.13332 6.1201e-22)
(0.633509 1.08651 -2.85422e-20)
(0.733337 0.999022 1.67363e-19)
(0.786285 0.879821 1.36681e-19)
(0.822996 0.799355 1.1142e-19)
(0.870848 0.740637 -6.80476e-20)
(0.928656 0.64861 8.59365e-20)
(1.00472 0.539875 4.40987e-20)
(1.05184 0.498397 -2.30204e-19)
(1.08305 0.431467 -8.19055e-20)
(0.583151 1.12458 1.50932e-20)
(0.637183 1.04256 -6.64253e-21)
(0.685027 0.932449 1.03645e-20)
(0.736863 0.847814 -1.1257e-19)
(0.787653 0.751918 -2.60244e-19)
(0.855417 0.650795 1.12849e-19)
(0.906849 0.592628 2.87568e-21)
(0.976523 0.517724 -4.05867e-20)
(1.02683 0.420227 1.88091e-19)
(1.03864 0.398302 -2.77073e-20)
(0.456449 1.17343 -1.76809e-20)
(0.480116 1.03476 1.00027e-20)
(0.549183 0.912206 -1.11309e-20)
(0.64002 0.81454 8.14846e-20)
(0.678174 0.744526 1.77162e-19)
(0.740411 0.671966 -1.1834e-19)
(0.819405 0.582013 8.7301e-21)
(0.898642 0.517851 9.35156e-20)
(0.950698 0.467906 -3.03117e-20)
(0.979726 0.392276 -1.69159e-21)
(0.413616 1.20714 4.21178e-21)
(0.395608 1.08882 2.65377e-20)
(0.433222 0.971863 -1.10679e-20)
(0.524021 0.820517 -3.875e-20)
(0.600226 0.685397 -6.7444e-21)
(0.665938 0.615469 3.08544e-20)
(0.729315 0.574846 3.52553e-20)
(0.818099 0.488178 -4.14388e-20)
(0.895374 0.448045 -4.75734e-20)
(0.944632 0.398566 -2.13558e-21)
(0.344185 1.04217 1.1864e-20)
(0.263458 0.982547 4.55968e-21)
(0.267598 0.915735 -1.52375e-20)
(0.354369 0.828117 -5.09901e-20)
(0.474143 0.688019 -1.32085e-19)
(0.581646 0.561444 -3.69967e-20)
(0.665001 0.510757 4.14675e-20)
(0.749616 0.478414 -2.88403e-20)
(0.828436 0.416069 1.2998e-21)
(0.903176 0.381658 -2.8392e-20)
(0.38295 0.572473 -2.60069e-20)
(0.227106 0.595007 -3.21057e-20)
(0.181299 0.615157 -6.41348e-20)
(0.225789 0.6513 3.48358e-20)
(0.326282 0.626334 8.91189e-20)
(0.459162 0.541547 1.45996e-20)
(0.578748 0.443879 -1.48877e-20)
(0.674952 0.414023 3.30105e-20)
(0.738646 0.383598 -5.37474e-21)
(0.82894 0.368581 3.47117e-20)
(0.435247 0.00181336 1.97769e-20)
(0.243536 0.098823 -2.55916e-20)
(0.155449 0.209279 7.02597e-20)
(0.180392 0.330125 -3.4108e-20)
(0.255103 0.417507 5.96045e-21)
(0.34567 0.456483 4.30354e-20)
(0.463911 0.410745 -2.63117e-20)
(0.597479 0.352099 -1.48261e-20)
(0.680707 0.311493 7.12812e-22)
(0.763495 0.334156 1.65767e-20)
(0.4885 -0.510252 -6.00655e-21)
(0.32321 -0.385816 1.23898e-20)
(0.234869 -0.248342 1.18864e-20)
(0.210191 -0.0805943 4.66106e-20)
(0.238188 0.0790604 -2.54872e-20)
(0.294635 0.206417 -2.50933e-20)
(0.367425 0.280019 -1.12511e-20)
(0.476745 0.283633 2.86362e-21)
(0.597599 0.249319 5.0289e-21)
(0.704773 0.266722 -1.1522e-20)
(0.547152 -0.823495 -3.66226e-21)
(0.406868 -0.695403 8.22999e-21)
(0.331193 -0.551064 -3.82765e-20)
(0.310052 -0.400655 -3.45301e-20)
(0.311572 -0.230584 -1.91794e-21)
(0.312261 -0.0745041 1.1038e-20)
(0.342336 0.0680835 6.03137e-21)
(0.407862 0.149547 2.74548e-21)
(0.530866 0.177697 7.19086e-22)
(0.645909 0.211539 -1.83727e-21)
(0.632853 -0.978412 6.55714e-21)
(0.528745 -0.895187 -2.31566e-20)
(0.450138 -0.776574 3.88526e-21)
(0.404724 -0.64081 1.0381e-21)
(0.393715 -0.482167 8.21264e-21)
(0.394047 -0.336173 -2.85379e-20)
(0.393419 -0.171957 1.61778e-21)
(0.392652 -0.0363374 7.54943e-22)
(0.475023 0.0377791 -1.18978e-20)
(0.578302 0.142937 8.62106e-22)
(0.67445 -0.987641 -3.27355e-21)
(0.614697 -0.936573 2.53774e-20)
(0.570019 -0.853606 -7.36347e-21)
(0.535608 -0.748433 3.26374e-20)
(0.50045 -0.620227 3.03744e-20)
(0.479077 -0.491572 3.74266e-20)
(0.467076 -0.371183 1.67116e-22)
(0.457523 -0.223413 1.8688e-22)
(0.484829 -0.151992 1.99414e-20)
(0.566802 0.00237621 9.27424e-21)
(0.737128 -0.946661 8.49626e-21)
(0.695499 -0.921314 1.4757e-20)
(0.666174 -0.854008 5.45848e-21)
(0.64573 -0.762587 -8.5307e-21)
(0.621668 -0.664744 -1.64545e-20)
(0.598141 -0.545319 -1.108e-20)
(0.563052 -0.468544 7.78248e-22)
(0.53439 -0.325791 1.3059e-21)
(0.51595 -0.283476 -8.9373e-21)
(0.589832 -0.139688 -1.30314e-20)
(0.760123 -0.927555 -9.34927e-22)
(0.760792 -0.92531 -3.87132e-21)
(0.755385 -0.893809 3.09234e-20)
(0.738384 -0.802999 1.73461e-20)
(0.715556 -0.699933 -1.44454e-20)
(0.68924 -0.57027 1.78502e-20)
(0.670698 -0.510137 -1.3853e-21)
(0.630487 -0.396551 2.22424e-21)
(0.60876 -0.365443 1.01719e-22)
(0.64592 -0.266879 5.58512e-21)
(0.750192 -0.947699 -2.40027e-23)
(0.786926 -0.955485 -2.58318e-20)
(0.825829 -0.944179 -2.38852e-21)
(0.864589 -0.860144 -1.05008e-20)
(0.85531 -0.761073 3.30803e-21)
(0.804462 -0.598526 -3.98754e-20)
(0.762658 -0.500845 2.01757e-20)
(0.69864 -0.398173 9.30156e-22)
(0.687541 -0.348476 1.43037e-22)
(0.681391 -0.314011 4.64231e-21)
(0.733393 -1.01403 -4.12543e-21)
(0.792998 -1.03762 -6.37774e-21)
(0.860037 -1.03355 1.72503e-20)
(0.936395 -0.960306 2.95931e-20)
(0.97708 -0.862997 -3.83846e-20)
(0.973065 -0.68732 2.0186e-20)
(0.912778 -0.540052 -2.80912e-21)
(0.835739 -0.395678 -5.73318e-21)
(0.811642 -0.281092 5.63343e-21)
(0.749542 -0.267096 -3.62346e-21)
(0.690916 -1.00168 -4.27277e-21)
(0.803402 -1.04144 5.34885e-20)
(0.925386 -1.08983 -3.05137e-20)
(1.01954 -1.04516 -6.04211e-20)
(1.10093 -0.975579 -4.29577e-20)
(1.10957 -0.818474 4.2191e-20)
(1.06535 -0.648622 -1.98673e-20)
(1.00366 -0.461608 -1.57345e-20)
(0.933767 -0.285821 -1.71784e-20)
(0.836696 -0.221017 -1.26009e-21)
(0.596828 -0.929533 3.86047e-21)
(0.739049 -0.975469 -4.69062e-20)
(0.915637 -1.04061 2.73922e-20)
(1.07736 -1.04041 -3.74992e-20)
(1.22543 -1.01513 5.99155e-20)
(1.27371 -0.936762 1.49871e-20)
(1.28235 -0.783899 7.32199e-20)
(1.17731 -0.634666 1.26297e-20)
(1.08917 -0.420872 2.0613e-20)
(0.950649 -0.264638 1.41465e-20)
(0.581237 -0.647576 7.11884e-22)
(0.747403 -0.697856 2.63361e-20)
(0.933722 -0.769464 -4.83664e-20)
(1.11221 -0.843264 8.88344e-20)
(1.25282 -0.854888 -2.97978e-20)
(1.36783 -0.894253 -7.6119e-20)
(1.39988 -0.807019 -9.46569e-21)
(1.32701 -0.763575 -3.97036e-20)
(1.29517 -0.597851 -1.17247e-20)
(1.09771 -0.456232 -1.32895e-20)
(0.510657 -0.216478 1.03827e-21)
(0.732321 -0.24011 3.92217e-21)
(0.96564 -0.313786 -6.4199e-20)
(1.16812 -0.403537 -2.06889e-20)
(1.3182 -0.487833 7.33851e-20)
(1.45877 -0.584413 -2.12113e-20)
(1.4728 -0.607476 -4.52485e-20)
(1.47745 -0.624849 3.42245e-20)
(1.39936 -0.605241 -1.64207e-20)
(1.23195 -0.535018 -1.70827e-20)
(0.526981 0.283618 4.82e-21)
(0.707765 0.289534 -4.26096e-20)
(0.919773 0.218162 6.6373e-20)
(1.12748 0.152266 1.73855e-20)
(1.31861 0.00749997 2.06369e-20)
(1.48741 -0.106474 -3.1902e-20)
(1.54224 -0.260429 -1.02334e-19)
(1.55878 -0.317838 3.26663e-21)
(1.53297 -0.450007 4.80715e-20)
(1.41921 -0.43993 1.60824e-20)
(0.543915 0.657527 -8.30011e-21)
(0.718389 0.70548 5.44053e-20)
(0.924888 0.66569 4.70227e-20)
(1.1098 0.62124 -7.00881e-20)
(1.26844 0.482781 -8.17655e-20)
(1.40872 0.36901 1.59707e-20)
(1.4741 0.161463 5.12696e-20)
(1.5071 0.0537335 -1.68e-22)
(1.57317 -0.142332 3.55769e-21)
(1.41458 -0.236737 1.4053e-20)
(0.581166 0.81464 3.1974e-21)
(0.688759 0.865108 -2.15022e-20)
(0.81968 0.852414 -2.40193e-20)
(0.980454 0.827047 2.07578e-20)
(1.14773 0.737044 6.09925e-20)
(1.29486 0.648269 1.29142e-19)
(1.38839 0.473196 1.05727e-19)
(1.43193 0.375775 9.91111e-21)
(1.48601 0.202722 -3.76014e-20)
(1.37351 0.0466252 -2.80701e-20)
(1.20131 0.604331 -4.62285e-20)
(1.27735 0.51154 -1.72447e-21)
(1.35614 0.378181 3.33385e-20)
(1.3354 0.247367 -3.5662e-21)
(1.01292 0.349366 0)
(1.01753 0.286199 0)
(1.01409 0.243808 0)
(1.00793 0.203999 0)
(1.00397 0.170934 0)
(1.00394 0.139189 0)
(1.00455 0.112513 0)
(1.00422 0.0901676 0)
(1.00729 0.0703198 0)
(1.01146 0.0530474 0)
(1.01553 0.0383527 0)
(1.01838 0.0271391 0)
(1.01964 0.0190119 0)
(1.01981 0.0127234 0)
(1.01852 0.00867449 0)
(1.01739 0.00578826 0)
(1.01734 0.00299464 0)
(1.01631 0.00094707 0)
(1.01669 -0.000535982 0)
(1.01704 -0.00180898 0)
(1.01666 -0.00238957 0)
(1.01654 -0.00267115 0)
(1.01625 -0.0027981 0)
(1.01579 -0.00268346 0)
(1.01532 -0.0024331 0)
(1.01489 -0.00207019 0)
(1.01438 -0.00175573 0)
(1.01401 -0.0011417 0)
(1.01372 -0.00067991 0)
(1.01349 -0.000363712 0)
(0.990907 0.331931 0)
(0.98393 0.283878 0)
(0.99556 0.235633 0)
(0.994147 0.196916 0)
(0.996653 0.16054 0)
(0.997217 0.127695 0)
(0.994916 0.101809 0)
(0.996323 0.0810417 0)
(1.00094 0.0629376 0)
(1.00847 0.0475103 0)
(1.01453 0.0361359 0)
(1.02048 0.0271012 0)
(1.02294 0.0208394 0)
(1.02437 0.016232 0)
(1.02371 0.0121567 0)
(1.02333 0.00879532 0)
(1.02213 0.00530516 0)
(1.02072 0.00269732 0)
(1.02061 0.00054512 0)
(1.01998 -0.00085326 0)
(1.0192 -0.00167806 0)
(1.01859 -0.00219307 0)
(1.01783 -0.00245738 0)
(1.01703 -0.00247499 0)
(1.01629 -0.00229982 0)
(1.01563 -0.00197693 0)
(1.01498 -0.00169365 0)
(1.01449 -0.00111176 0)
(1.01413 -0.000660413 0)
(1.01386 -0.000351631 0)
(0.95378 0.29779 0)
(0.95346 0.271446 0)
(0.960941 0.228713 0)
(0.962872 0.195735 0)
(0.970334 0.162696 0)
(0.980086 0.130649 0)
(0.988155 0.105974 0)
(0.992966 0.0853743 0)
(1.00007 0.0670522 0)
(1.00671 0.0520311 0)
(1.01414 0.0379401 0)
(1.01886 0.0269208 0)
(1.02184 0.0188546 0)
(1.0221 0.0125488 0)
(1.02079 0.00827917 0)
(1.01996 0.00516781 0)
(1.01839 0.00291353 0)
(1.01824 0.000837413 0)
(1.0185 -0.000683007 0)
(1.01844 -0.00164924 0)
(1.01829 -0.00219171 0)
(1.01798 -0.00245925 0)
(1.01743 -0.0025313 0)
(1.01677 -0.00243032 0)
(1.01611 -0.00222492 0)
(1.01544 -0.0018917 0)
(1.01478 -0.00162193 0)
(1.01427 -0.00107668 0)
(1.01388 -0.000637013 0)
(1.01361 -0.000338114 0)
(0.893663 0.266624 0)
(0.904177 0.248657 0)
(0.919654 0.202353 0)
(0.933289 0.168502 0)
(0.945653 0.136216 0)
(0.956421 0.10971 0)
(0.964163 0.0879265 0)
(0.974759 0.0688414 0)
(0.985024 0.0536302 0)
(0.995908 0.0410849 0)
(1.00606 0.0314091 0)
(1.01521 0.0234716 0)
(1.02021 0.0182521 0)
(1.02326 0.0139488 0)
(1.0248 0.00985207 0)
(1.02418 0.00702812 0)
(1.02304 0.00420732 0)
(1.02249 0.00182073 0)
(1.02186 0.00016532 0)
(1.0212 -0.000899407 0)
(1.02055 -0.00161052 0)
(1.01969 -0.00202675 0)
(1.01875 -0.00222441 0)
(1.01783 -0.00224499 0)
(1.01694 -0.00209218 0)
(1.01611 -0.00179014 0)
(1.01537 -0.00155259 0)
(1.01476 -0.00103744 0)
(1.01433 -0.000612925 0)
(1.01403 -0.00032497 0)
(0.840052 0.247509 0)
(0.852142 0.230298 0)
(0.8809 0.185613 0)
(0.897798 0.157743 0)
(0.918072 0.130267 0)
(0.936984 0.104306 0)
(0.95467 0.0842006 0)
(0.967636 0.0683148 0)
(0.979591 0.0548994 0)
(0.991688 0.0439235 0)
(1.00416 0.0326399 0)
(1.01158 0.0237515 0)
(1.01705 0.0168899 0)
(1.01903 0.0108811 0)
(1.01865 0.00691735 0)
(1.01735 0.00434839 0)
(1.01695 0.00224531 0)
(1.01721 0.000441297 0)
(1.01759 -0.000713579 0)
(1.01807 -0.00155089 0)
(1.0182 -0.00200283 0)
(1.01798 -0.00217105 0)
(1.01754 -0.00221937 0)
(1.01695 -0.00213784 0)
(1.0163 -0.00196848 0)
(1.01561 -0.00167898 0)
(1.01497 -0.00146374 0)
(1.0144 -0.000989795 0)
(1.014 -0.000585257 0)
(1.01372 -0.000310078 0)
(0.795505 0.198442 0)
(0.791675 0.183038 0)
(0.83674 0.131492 0)
(0.859549 0.112451 0)
(0.88381 0.0907218 0)
(0.906603 0.0733227 0)
(0.928549 0.0574882 0)
(0.948125 0.0432935 0)
(0.96361 0.0337233 0)
(0.978129 0.0258823 0)
(0.990931 0.0202468 0)
(1.00325 0.0154862 0)
(1.01098 0.0120054 0)
(1.01726 0.00866712 0)
(1.02021 0.00580306 0)
(1.02094 0.00375862 0)
(1.02114 0.00164971 0)
(1.02083 0.000255869 0)
(1.0207 -0.000692573 0)
(1.02051 -0.00135616 0)
(1.02004 -0.00176797 0)
(1.01935 -0.00200431 0)
(1.01855 -0.00210452 0)
(1.01774 -0.00208297 0)
(1.01693 -0.00192141 0)
(1.01618 -0.00163258 0)
(1.0155 -0.00142758 0)
(1.0149 -0.000968663 0)
(1.01449 -0.000572683 0)
(1.01421 -0.000300834 0)
(0.764137 0.145487 0)
(0.774242 0.1389 0)
(0.820571 0.101299 0)
(0.851333 0.0865362 0)
(0.878471 0.0670588 0)
(0.90265 0.0554032 0)
(0.924894 0.0457989 0)
(0.944254 0.0396857 0)
(0.96224 0.0332064 0)
(0.978946 0.0278716 0)
(0.994469 0.0218969 0)
(1.00386 0.0165486 0)
(1.01137 0.0118523 0)
(1.01414 0.00749654 0)
(1.01407 0.00469868 0)
(1.01395 0.00249656 0)
(1.01405 0.000870922 0)
(1.01477 -0.000318485 0)
(1.0158 -0.00114791 0)
(1.01681 -0.00172325 0)
(1.01727 -0.001979 0)
(1.01734 -0.00202642 0)
(1.01713 -0.00203057 0)
(1.01671 -0.00193866 0)
(1.01615 -0.00178541 0)
(1.01559 -0.00153185 0)
(1.01501 -0.00134845 0)
(1.01448 -0.000928922 0)
(1.0141 -0.000552258 0)
(1.01384 -0.000288258 0)
(0.706664 0.104826 0)
(0.744783 0.0805752 0)
(0.783498 0.0656681 0)
(0.822923 0.0476672 0)
(0.853866 0.0350485 0)
(0.884178 0.0220022 0)
(0.912343 0.0131195 0)
(0.936357 0.00543718 0)
(0.953635 0.00307104 0)
(0.968368 0.0024058 0)
(0.981658 0.00219104 0)
(0.995295 0.0019399 0)
(1.0043 0.00144441 0)
(1.01199 0.000489665 0)
(1.01664 -0.000624654 0)
(1.0188 -0.00149248 0)
(1.01964 -0.00214028 0)
(1.01989 -0.00226013 0)
(1.02019 -0.00228807 0)
(1.02024 -0.00232047 0)
(1.01989 -0.00228157 0)
(1.01931 -0.0022631 0)
(1.01859 -0.00219518 0)
(1.01784 -0.00206569 0)
(1.01705 -0.00186036 0)
(1.01635 -0.00156319 0)
(1.01569 -0.00135987 0)
(1.0151 -0.000936982 0)
(1.01467 -0.000555316 0)
(1.0144 -0.000285016 0)
(0.678175 0.02625 0)
(0.732276 0.00516699 0)
(0.782675 0.00564613 0)
(0.825132 -0.0019513 0)
(0.861111 -0.00266439 0)
(0.887636 0.001933 0)
(0.912781 0.00406912 0)
(0.936774 0.00615787 0)
(0.959112 0.00671282 0)
(0.978696 0.00663238 0)
(0.995263 0.00665456 0)
(1.00454 0.0056611 0)
(1.01174 0.00434345 0)
(1.01368 0.00256021 0)
(1.01362 0.00119659 0)
(1.01364 -0.000104547 0)
(1.01373 -0.000949464 0)
(1.01467 -0.00150296 0)
(1.01589 -0.00188575 0)
(1.01695 -0.00207405 0)
(1.01749 -0.00209266 0)
(1.01759 -0.00201048 0)
(1.01741 -0.00194901 0)
(1.01696 -0.00182373 0)
(1.01639 -0.00167671 0)
(1.01581 -0.00144608 0)
(1.0152 -0.00127608 0)
(1.01466 -0.000895575 0)
(1.01424 -0.000534454 0)
(1.01398 -0.000273653 0)
(0.691712 -0.0799795 0)
(0.716909 -0.0856652 0)
(0.755246 -0.072347 0)
(0.801944 -0.0628568 0)
(0.847966 -0.0542357 0)
(0.88748 -0.0501887 0)
(0.917856 -0.0452781 0)
(0.94068 -0.0385979 0)
(0.955428 -0.0315417 0)
(0.968782 -0.0244163 0)
(0.980327 -0.0190288 0)
(0.993179 -0.0142519 0)
(1.00186 -0.0113017 0)
(1.00989 -0.00955278 0)
(1.0154 -0.00863631 0)
(1.01819 -0.00777025 0)
(1.01957 -0.0066457 0)
(1.02014 -0.00539687 0)
(1.02059 -0.00429553 0)
(1.02061 -0.00356446 0)
(1.02025 -0.00301575 0)
(1.01965 -0.00269141 0)
(1.01892 -0.0023992 0)
(1.01811 -0.00212479 0)
(1.01736 -0.00186458 0)
(1.01663 -0.00153572 0)
(1.01595 -0.00132362 0)
(1.01535 -0.000923996 0)
(1.01488 -0.000546536 0)
(1.0146 -0.000275444 0)
(0.725492 -0.21799 0)
(0.76795 -0.204856 0)
(0.814461 -0.160339 0)
(0.856586 -0.124186 0)
(0.876764 -0.0848772 0)
(0.896338 -0.0565966 0)
(0.920526 -0.0382349 0)
(0.94449 -0.0284583 0)
(0.969117 -0.0208255 0)
(0.98846 -0.0162143 0)
(1.00298 -0.0101628 0)
(1.01056 -0.00693844 0)
(1.01523 -0.00444367 0)
(1.01553 -0.00322201 0)
(1.01469 -0.00283408 0)
(1.01433 -0.00284618 0)
(1.01433 -0.00287972 0)
(1.01522 -0.00278649 0)
(1.01625 -0.00267715 0)
(1.01712 -0.00244776 0)
(1.01757 -0.00225123 0)
(1.01765 -0.00205377 0)
(1.01743 -0.00191827 0)
(1.01696 -0.00177234 0)
(1.01645 -0.00163409 0)
(1.01587 -0.00140218 0)
(1.0153 -0.00124128 0)
(1.01479 -0.000882753 0)
(1.01436 -0.000526902 0)
(1.01411 -0.000266213 0)
(0.740045 -0.27303 0)
(0.805429 -0.252777 0)
(0.852545 -0.210142 0)
(0.886244 -0.167997 0)
(0.922422 -0.138395 0)
(0.939313 -0.114533 0)
(0.949192 -0.0965791 0)
(0.958286 -0.0754107 0)
(0.966197 -0.0607653 0)
(0.975218 -0.047049 0)
(0.984667 -0.0377515 0)
(0.994672 -0.0293487 0)
(1.002 -0.023473 0)
(1.00903 -0.0197214 0)
(1.01426 -0.0166725 0)
(1.0171 -0.0140206 0)
(1.01898 -0.0111981 0)
(1.01983 -0.00861534 0)
(1.02021 -0.00636951 0)
(1.02025 -0.00491055 0)
(1.01989 -0.0038838 0)
(1.01938 -0.00324237 0)
(1.01865 -0.00269707 0)
(1.01796 -0.00228479 0)
(1.01731 -0.00195634 0)
(1.01664 -0.00157241 0)
(1.01604 -0.00134384 0)
(1.01549 -0.000945441 0)
(1.01506 -0.000558318 0)
(1.0148 -0.000275333 0)
(0.794229 -0.208737 0)
(0.888344 -0.183421 0)
(0.947245 -0.152209 0)
(0.957975 -0.113011 0)
(0.941239 -0.0878016 0)
(0.941352 -0.0759662 0)
(0.958232 -0.0640283 0)
(0.976616 -0.056314 0)
(0.995561 -0.0457954 0)
(1.00968 -0.036854 0)
(1.01843 -0.0265316 0)
(1.02217 -0.0191757 0)
(1.02251 -0.013499 0)
(1.02029 -0.00906119 0)
(1.01779 -0.00678731 0)
(1.01685 -0.00539028 0)
(1.01646 -0.00474614 0)
(1.01675 -0.00393455 0)
(1.01723 -0.00338722 0)
(1.01768 -0.00283787 0)
(1.01783 -0.00247663 0)
(1.0177 -0.00218455 0)
(1.01734 -0.00199319 0)
(1.0169 -0.00186115 0)
(1.01636 -0.00170234 0)
(1.01583 -0.00145339 0)
(1.01533 -0.00128562 0)
(1.01486 -0.000920799 0)
(1.01448 -0.000551468 0)
(1.01425 -0.000270634 0)
(0.845319 -0.140409 0)
(0.893681 -0.128792 0)
(0.949616 -0.132877 0)
(0.972588 -0.14546 0)
(0.973123 -0.142359 0)
(0.979426 -0.128867 0)
(0.977441 -0.110913 0)
(0.98052 -0.0889422 0)
(0.98541 -0.0712867 0)
(0.990711 -0.0565925 0)
(0.998313 -0.0458878 0)
(1.00376 -0.0375675 0)
(1.00862 -0.0307763 0)
(1.01266 -0.0267923 0)
(1.0161 -0.0224218 0)
(1.0182 -0.0187588 0)
(1.01986 -0.0145511 0)
(1.02055 -0.0110085 0)
(1.02082 -0.00802002 0)
(1.02062 -0.00606505 0)
(1.02012 -0.00466139 0)
(1.01951 -0.00375408 0)
(1.01881 -0.00303576 0)
(1.01814 -0.00251129 0)
(1.01746 -0.00210225 0)
(1.01682 -0.00168287 0)
(1.01624 -0.00142433 0)
(1.0157 -0.00101031 0)
(1.01528 -0.000599366 0)
(1.01502 -0.000284784 0)
(0.91166 -0.160753 0)
(0.915791 -0.112713 0)
(0.925697 -0.112365 0)
(0.93328 -0.122152 0)
(0.955923 -0.121931 0)
(0.97882 -0.11813 0)
(1.00532 -0.107046 0)
(1.02251 -0.088313 0)
(1.03162 -0.0723737 0)
(1.0379 -0.054585 0)
(1.03813 -0.0409031 0)
(1.03702 -0.0283661 0)
(1.03272 -0.0205564 0)
(1.02824 -0.0131279 0)
(1.02454 -0.00963508 0)
(1.02274 -0.00699903 0)
(1.0215 -0.0058567 0)
(1.02086 -0.00459657 0)
(1.02037 -0.0038197 0)
(1.01982 -0.00303809 0)
(1.01933 -0.0026089 0)
(1.01871 -0.00230729 0)
(1.01808 -0.00212305 0)
(1.0174 -0.00199457 0)
(1.01671 -0.00181534 0)
(1.01612 -0.0015582 0)
(1.01556 -0.00136775 0)
(1.01506 -0.000986708 0)
(1.01466 -0.000594139 0)
(1.01442 -0.000281199 0)
(1.07783 -0.327664 0)
(1.01372 -0.274496 0)
(0.944262 -0.279885 0)
(0.941679 -0.25195 0)
(0.977739 -0.205178 0)
(1.00416 -0.163026 0)
(1.01069 -0.114526 0)
(1.01545 -0.0885978 0)
(1.01822 -0.0626242 0)
(1.01997 -0.0508507 0)
(1.02132 -0.0390161 0)
(1.02029 -0.034695 0)
(1.02039 -0.029523 0)
(1.02003 -0.0276398 0)
(1.02031 -0.0233695 0)
(1.02088 -0.01978 0)
(1.02179 -0.0151492 0)
(1.02223 -0.0115357 0)
(1.02199 -0.00840439 0)
(1.02149 -0.00639149 0)
(1.02079 -0.00492989 0)
(1.02009 -0.00394676 0)
(1.01934 -0.00317491 0)
(1.01858 -0.00259656 0)
(1.01787 -0.00217877 0)
(1.01719 -0.00175751 0)
(1.01656 -0.0014818 0)
(1.016 -0.00106424 0)
(1.01554 -0.000635374 0)
(1.01529 -0.000293088 0)
(1.21337 -0.414325 0)
(1.06936 -0.385627 0)
(0.970669 -0.361954 0)
(1.01138 -0.286205 0)
(1.07943 -0.237497 0)
(1.09776 -0.185847 0)
(1.09522 -0.152685 0)
(1.08338 -0.115471 0)
(1.0732 -0.0903506 0)
(1.06258 -0.063596 0)
(1.053 -0.0471586 0)
(1.04687 -0.0314159 0)
(1.03963 -0.0226044 0)
(1.03436 -0.0137729 0)
(1.03097 -0.0101899 0)
(1.02863 -0.00704117 0)
(1.02684 -0.00589741 0)
(1.02502 -0.00450187 0)
(1.02339 -0.0037064 0)
(1.02183 -0.00294553 0)
(1.02063 -0.00257006 0)
(1.01951 -0.00234748 0)
(1.01854 -0.00218949 0)
(1.0177 -0.00208842 0)
(1.01693 -0.00191086 0)
(1.0163 -0.00163649 0)
(1.01574 -0.00143017 0)
(1.01524 -0.00103881 0)
(1.01484 -0.000627998 0)
(1.01462 -0.000289564 0)
(1.32455 -0.39693 0)
(1.17201 -0.399198 0)
(1.09962 -0.307064 0)
(1.11719 -0.216934 0)
(1.12766 -0.1487 0)
(1.11765 -0.101656 0)
(1.10321 -0.0677124 0)
(1.08702 -0.042941 0)
(1.07587 -0.0283513 0)
(1.06263 -0.0222941 0)
(1.05194 -0.0175731 0)
(1.04043 -0.0196365 0)
(1.03308 -0.0187427 0)
(1.02768 -0.0203588 0)
(1.02393 -0.0178163 0)
(1.02287 -0.0155537 0)
(1.02266 -0.0118992 0)
(1.02273 -0.00927809 0)
(1.02215 -0.00698536 0)
(1.02147 -0.00552896 0)
(1.02068 -0.00441562 0)
(1.01997 -0.00360465 0)
(1.01929 -0.00298033 0)
(1.01861 -0.00249448 0)
(1.01794 -0.00214137 0)
(1.01732 -0.0017648 0)
(1.01674 -0.00149936 0)
(1.01623 -0.00109383 0)
(1.01581 -0.000659286 0)
(1.01557 -0.000296661 0)
(1.33325 -0.286056 0)
(1.26163 -0.275873 0)
(1.24722 -0.217539 0)
(1.25517 -0.167792 0)
(1.24223 -0.132062 0)
(1.20685 -0.110898 0)
(1.1593 -0.0970767 0)
(1.12722 -0.0780356 0)
(1.09291 -0.0619488 0)
(1.07149 -0.0449071 0)
(1.05506 -0.0342235 0)
(1.04613 -0.0226062 0)
(1.03966 -0.0164401 0)
(1.03588 -0.0100658 0)
(1.03461 -0.00785211 0)
(1.03246 -0.0055484 0)
(1.03059 -0.00484757 0)
(1.02793 -0.00382202 0)
(1.02544 -0.00322531 0)
(1.02306 -0.00267135 0)
(1.02127 -0.00242915 0)
(1.01981 -0.00234644 0)
(1.01865 -0.0022488 0)
(1.01773 -0.00217055 0)
(1.01695 -0.00199251 0)
(1.01635 -0.00170569 0)
(1.01584 -0.00148294 0)
(1.01539 -0.00108686 0)
(1.01503 -0.000659963 0)
(1.01483 -0.000295272 0)
(1.36175 0.00359057 0)
(1.32781 0.0261573 0)
(1.30112 0.0334933 0)
(1.29069 0.0350132 0)
(1.22549 0.0417799 0)
(1.18852 0.0302526 0)
(1.15945 0.0407859 0)
(1.14296 0.0268869 0)
(1.11741 0.0258666 0)
(1.0958 0.0163471 0)
(1.07489 0.0103536 0)
(1.05575 0.00327701 0)
(1.04332 -0.00167645 0)
(1.03397 -0.00546532 0)
(1.02715 -0.00584984 0)
(1.02489 -0.00577371 0)
(1.02375 -0.00472612 0)
(1.02344 -0.00417771 0)
(1.02256 -0.00365399 0)
(1.02177 -0.00332277 0)
(1.02098 -0.00300376 0)
(1.02026 -0.00266232 0)
(1.01962 -0.00240297 0)
(1.01891 -0.00215078 0)
(1.01825 -0.00195656 0)
(1.01762 -0.00168747 0)
(1.01705 -0.00146032 0)
(1.01654 -0.00108906 0)
(1.01612 -0.000665335 0)
(1.01589 -0.00029206 0)
(1.317 0.175365 0)
(1.25983 0.152881 0)
(1.26083 0.124062 0)
(1.23342 0.0854895 0)
(1.2127 0.0532799 0)
(1.19562 0.0176412 0)
(1.14248 0.021757 0)
(1.10877 -0.00071702 0)
(1.07571 0.00539621 0)
(1.05887 -0.00564662 0)
(1.04104 -0.00266785 0)
(1.03708 -0.00505331 0)
(1.03302 -0.00397205 0)
(1.03296 -0.00362848 0)
(1.03461 -0.00383096 0)
(1.03371 -0.00352507 0)
(1.0323 -0.00333914 0)
(1.02944 -0.00288288 0)
(1.02664 -0.00254668 0)
(1.02397 -0.00233165 0)
(1.02188 -0.00222379 0)
(1.02027 -0.00225596 0)
(1.019 -0.00219434 0)
(1.01804 -0.00211669 0)
(1.01724 -0.00195466 0)
(1.01661 -0.00167021 0)
(1.0161 -0.00145232 0)
(1.01565 -0.00107742 0)
(1.01527 -0.000657548 0)
(1.01507 -0.000287752 0)
(1.24936 0.274531 0)
(1.22855 0.269725 0)
(1.13494 0.156064 7.7446e-20)
(1.09339 0.141288 -2.46562e-20)
(1.07464 0.130335 1.3209e-20)
(1.06516 0.110485 5.08101e-21)
(1.05743 0.0966236 -4.6611e-21)
(1.05074 0.079753 3.86228e-21)
(1.04555 0.0633 -1.42967e-20)
(1.04234 0.0475641 6.87321e-21)
(1.03763 0.0349996 -6.76286e-21)
(1.03277 0.0264772 -1.66655e-22)
(1.13511 0.190113 2.55359e-22)
(1.11389 0.160612 1.26276e-20)
(1.09504 0.132751 3.02667e-20)
(1.07625 0.105174 -7.62247e-22)
(1.05876 0.0883756 8.03809e-21)
(1.04716 0.0716326 -1.35219e-20)
(1.0408 0.0584155 -8.68883e-21)
(1.03704 0.0473769 1.17485e-20)
(1.03513 0.0377227 -2.76966e-21)
(1.0328 0.0289935 -8.71738e-22)
(1.02962 0.0218278 -5.87185e-22)
(1.02635 0.0161877 1.93071e-22)
(1.02367 0.0120628 -4.75086e-22)
(1.02181 0.0082407 5.67163e-22)
(1.02052 0.00520364 -4.29102e-22)
(1.01952 0.00278195 7.71184e-22)
(1.01835 0.000785785 -1.52641e-21)
(1.0184 -0.00101446 1.04619e-21)
(1.01762 -0.0018788 4.76835e-22)
(1.01693 -0.00250795 -4.45604e-22)
(1.01683 -0.00307375 1.31938e-22)
(1.0163 -0.00319577 3.82213e-22)
(1.01583 -0.00317625 -4.75909e-23)
(1.01542 -0.00302621 -8.17596e-22)
(1.01491 -0.00268143 5.67195e-22)
(1.01447 -0.00225851 -2.02645e-22)
(1.01406 -0.00190023 1.54039e-22)
(1.0137 -0.00119122 -2.86113e-22)
(1.0134 -0.00072434 -3.03644e-22)
(1.01322 -0.000400397 -8.32464e-22)
(1.08528 0.240871 9.90953e-20)
(1.06383 0.21476 -4.78963e-20)
(1.05576 0.188471 -2.06968e-20)
(1.04683 0.158457 1.00131e-20)
(1.03635 0.134963 2.00451e-20)
(1.03027 0.109048 -2.07278e-20)
(1.02684 0.0848561 5.92417e-21)
(1.02492 0.0644609 -6.56366e-21)
(1.02255 0.048606 5.63078e-21)
(1.02225 0.0363978 1.11092e-21)
(1.02245 0.0277535 -2.93543e-21)
(1.02224 0.0221479 6.53133e-23)
(1.02229 0.017821 7.94682e-22)
(1.02139 0.0150258 1.22049e-22)
(1.02105 0.0117217 -2.65243e-22)
(1.0199 0.00897372 1.84265e-22)
(1.01894 0.00556116 3.12792e-22)
(1.01912 0.00238962 1.24576e-21)
(1.01788 0.000518306 -3.25061e-21)
(1.01749 -0.000968922 1.29786e-21)
(1.01736 -0.0020804 4.67756e-23)
(1.01672 -0.00248763 8.90384e-23)
(1.0163 -0.00274337 -1.61455e-23)
(1.01587 -0.00277408 -3.44439e-22)
(1.01531 -0.0025315 7.09017e-22)
(1.01488 -0.00218004 -1.21474e-23)
(1.01444 -0.00185822 1.71061e-22)
(1.01406 -0.00117584 -3.29009e-22)
(1.01377 -0.000712637 4.68915e-22)
(1.01356 -0.000391809 1.4564e-22)
(1.09184 0.247834 -4.42605e-20)
(1.0666 0.210886 -2.41795e-20)