/*--------------------------------*- C++ -*----------------------------------*\
| =========                 |                                                 |
| \\      /  F ield         | OpenFOAM: The Open Source CFD Toolbox           |
|  \\    /   O peration     | Version:                                        |
|   \\  /    A nd           | Website:  www.openfoam.com                      |
|    \\/     M anipulation  |                                                 |
\*---------------------------------------------------------------------------*/
FoamFile
{
    version     2.0;
    format      ascii;
    class       volScalarField;
    location    "182.3";
    object      p;
}
// * * * * * * * * * * * * * * * * * * * * * * * * * * * * * * * * * * * * * //

dimensions      [0 2 -2 0 0 0 0];


internalField   nonuniform List<scalar> 
1139
(
-0.324216
-0.308708
-0.291704
-0.258597
-0.271973
-0.23889
-0.248595
-0.218784
-0.193736
-0.224192
-0.19678
-0.173926
-0.199859
-0.173849
-0.154601
-0.177015
-0.15054
-0.135288
-0.121344
-0.150804
-0.128239
-0.115744
-0.104146
-0.12149
-0.108231
-0.0954703
-0.0885687
-0.709376
-0.774854
-0.753425
-0.725265
-0.685737
-0.637795
-0.846307
-0.816233
-0.773284
-0.711775
-0.639559
-0.544367
-0.919703
-0.88087
-0.823105
-0.745028
-0.64532
-0.518398
-0.414605
-0.991712
-0.946138
-0.875032
-0.781201
-0.656224
-0.518497
-0.387723
-0.337054
-1.05803
-1.00681
-0.926691
-0.818377
-0.680748
-0.531084
-0.407794
-0.36571
-0.359874
-1.11583
-1.067
-0.980343
-0.857149
-0.711719
-0.557392
-0.463823
-0.410482
-0.385362
-0.363825
-1.16193
-1.11846
-1.02696
-0.897984
-0.744138
-0.61146
-0.520543
-0.453399
-0.403518
-0.359107
-1.18854
-1.14653
-1.05539
-0.925483
-0.785395
-0.665965
-0.56414
-0.478991
-0.406371
-0.350826
-1.19946
-1.15656
-1.06779
-0.947168
-0.818956
-0.696028
-0.579732
-0.478047
-0.396566
-0.336067
-1.20854
-1.16185
-1.07311
-0.955359
-0.822811
-0.686728
-0.561246
-0.456693
-0.376783
-0.315546
-1.20585
-1.15604
-1.05917
-0.929859
-0.785245
-0.643459
-0.519819
-0.423886
-0.349859
-0.291542
-1.16137
-1.10576
-0.997815
-0.857832
-0.711918
-0.580103
-0.470706
-0.386136
-0.318541
-0.266432
-1.05553
-0.996806
-0.887871
-0.755495
-0.62522
-0.51354
-0.422122
-0.348666
-0.286903
-0.23854
-0.908869
-0.855206
-0.759822
-0.647647
-0.540651
-0.449293
-0.374442
-0.310852
-0.256213
-0.210722
-0.761107
-0.71667
-0.639886
-0.550034
-0.464505
-0.389277
-0.328597
-0.276056
-0.229745
-0.183492
-0.636159
-0.603677
-0.540803
-0.467858
-0.395908
-0.333235
-0.283015
-0.239077
-0.199889
-0.157452
-0.523121
-0.501275
-0.447727
-0.386339
-0.32525
-0.272111
-0.229836
-0.195743
-0.166241
-0.141201
-0.439043
-0.423045
-0.381371
-0.32687
-0.275522
-0.2306
-0.194045
-0.168817
-0.148812
-0.136
-0.399181
-0.376737
-0.341157
-0.291699
-0.243246
-0.203145
-0.168729
-0.14783
-0.13162
-0.123482
-0.398187
-0.359138
-0.314576
-0.264749
-0.212969
-0.173602
-0.140868
-0.121207
-0.108264
-0.103441
-0.432799
-0.371518
-0.306673
-0.248881
-0.191379
-0.14734
-0.115241
-0.0950415
-0.0841251
-0.0808918
-0.508941
-0.417197
-0.325537
-0.247916
-0.179013
-0.125685
-0.0914208
-0.0710141
-0.0615658
-0.0599104
-0.63876
-0.505829
-0.37612
-0.266905
-0.180266
-0.115145
-0.0723872
-0.0486483
-0.0382747
-0.0390207
-0.791297
-0.614347
-0.444168
-0.302389
-0.191695
-0.111316
-0.0592071
-0.0304689
-0.0184547
-0.0202733
-0.89132
-0.694697
-0.502586
-0.336125
-0.208024
-0.114196
-0.0506132
-0.0132048
0.00300927
0.00092035
-0.873706
-0.683374
-0.499893
-0.340782
-0.222782
-0.12214
-0.052574
-0.0121494
0.0142462
0.0170901
-0.750349
-0.596391
-0.450665
-0.316503
-0.201276
-0.110194
-0.0396399
-0.0179452
0.022422
0.0312602
-0.587043
-0.481721
-0.377057
-0.277098
-0.186085
-0.110621
-0.0525522
-0.0145249
0.0231073
0.0376447
-0.453544
-0.392126
-0.321607
-0.244711
-0.168237
-0.104894
-0.054167
-0.0173315
0.0131333
0.0345852
-0.367994
-0.33408
-0.288426
-0.229103
-0.16384
-0.105555
-0.0586445
-0.0247002
0.00139609
0.0226819
-0.329258
-0.314399
-0.280623
-0.227355
-0.165943
-0.107308
-0.0611501
-0.0269045
-0.004711
0.0109897
-0.326306
-0.326941
-0.307883
-0.260538
-0.192976
-0.125822
-0.0698745
-0.0276279
-0.00510919
0.00927042
-0.365716
-0.384544
-0.379918
-0.333081
-0.262749
-0.182597
-0.109913
-0.0529023
-0.0182586
0.00220149
-0.463925
-0.512457
-0.523186
-0.478489
-0.394276
-0.285907
-0.188246
-0.105665
-0.0497485
-0.0190991
-0.614629
-0.691149
-0.72538
-0.701892
-0.605489
-0.470319
-0.331122
-0.20655
-0.112705
-0.0576853
-0.75424
-0.849033
-0.896278
-0.877748
-0.794144
-0.65622
-0.488704
-0.332976
-0.209294
-0.123571
-0.585471
-0.427735
-0.290029
-0.169792
-0.109045
-0.079921
-0.0608301
-0.0439018
-0.0278169
-0.0151424
-0.00531202
0.00348709
0.0108239
0.0165123
0.0212665
0.0253837
0.0286365
0.0314223
0.0338525
0.0358707
0.0373408
0.0387246
0.0401
0.0405177
0.0413628
0.0419923
0.0422787
0.0425807
0.0427948
0.0428564
0.0429347
0.0429224
0.0427939
0.0428358
-0.114868
-0.0902327
-0.0699952
-0.0515948
-0.0350614
-0.02208
-0.0111275
-0.00164728
0.00609998
0.0123707
0.0175937
0.0220744
0.0256268
0.028827
0.0314352
0.0337399
0.0354007
0.037192
0.0385507
0.0392677
0.0403833
0.0410574
0.0415461
0.0420131
0.0423312
0.0425049
0.0426742
0.0427209
0.042626
0.0426912
-0.104672
-0.0845798
-0.0668417
-0.0498808
-0.0349249
-0.0228145
-0.0122565
-0.00314878
0.00431225
0.0104066
0.0155818
0.0199786
0.0235743
0.0268617
0.0295302
0.0318832
0.0337379
0.0357527
0.0370175
0.038152
0.0393365
0.040095
0.0407826
0.0413802
0.0418109
0.0421099
0.04237
0.0424905
0.0424477
0.0425353
-0.0843518
-0.0657235
-0.0522449
-0.0381042
-0.0266236
-0.0165473
-0.00759356
4.26681e-05
0.00618427
0.0112955
0.0158818
0.0196568
0.0229634
0.025955
0.0285637
0.030724
0.0327681
0.0346679
0.0359424
0.037351
0.038476
0.0393495
0.0401622
0.0408345
0.0413552
0.0417496
0.0420739
0.0422603
0.0422673
0.0423712
-0.0614185
-0.0433079
-0.0325459
-0.0215511
-0.0131471
-0.00551168
0.00115133
0.00670821
0.0111293
0.0150096
0.0185238
0.0213338
0.0240226
0.0264939
0.0287131
0.0306316
0.0326562
0.0342048
0.0356012
0.0369967
0.0380373
0.0389767
0.0398086
0.0404929
0.0410516
0.0414836
0.0418295
0.042055
0.0420911
0.0422017
-0.0392783
-0.0230511
-0.0142575
-0.00585862
0.000881464
0.00647972
0.0110914
0.0146958
0.0175281
0.0201248
0.0223394
0.0242614
0.0262318
0.0280633
0.0297301
0.0314864
0.0331526
0.0344188
0.0358448
0.0370404
0.0380224
0.0389381
0.0397131
0.0403622
0.040903
0.0413178
0.0416466
0.0418791
0.0419203
0.0420284
-0.0198393
-0.00530411
0.00193816
0.00932125
0.0140091
0.0172444
0.0200446
0.0221683
0.0239283
0.0253364
0.0264453
0.0276224
0.0288378
0.0300011
0.0312347
0.0327199
0.0338958
0.0350558
0.0363175
0.0373041
0.0382232
0.0390467
0.0397367
0.0403303
0.0408263
0.0411981
0.0414943
0.0417144
0.0417491
0.0418501
-0.00464276
0.00738407
0.0134658
0.0210532
0.0244697
0.0267449
0.0281232
0.0288296
0.0293257
0.0296533
0.0300102
0.0305015
0.03106
0.0316768
0.0326285
0.0336794
0.0345319
0.0356176
0.0366375
0.0374929
0.0383394
0.039075
0.0397062
0.0402526
0.040715
0.0410527
0.0413271
0.0415347
0.0415696
0.041665
0.0110792
0.0198115
0.02434
0.02973
0.0314344
0.0331061
0.0338188
0.0337807
0.0333867
0.0329272
0.0325526
0.0324036
0.0324816
0.0327772
0.0334206
0.0340908
0.0348301
0.0357928
0.0366373
0.0374347
0.0382137
0.0389036
0.039514
0.0400449
0.0405051
0.0408388
0.0411176
0.0413262
0.0413771
0.0414722
0.0271274
0.0335446
0.037162
0.0398741
0.0395378
0.0397262
0.03879
0.0375513
0.0363776
0.0352857
0.0343087
0.0336632
0.0333415
0.0333459
0.0336843
0.0341337
0.0348064
0.0356401
0.0364065
0.0371807
0.0379298
0.0386105
0.0392249
0.0397673
0.0402347
0.0405849
0.0408818
0.0411006
0.0411759
0.0412738
0.0407582
0.0440445
0.0480863
0.0482599
0.0470139
0.0458623
0.0435629
0.04127
0.0391665
0.0373352
0.035838
0.0348355
0.0341784
0.0339201
0.033993
0.0342967
0.0348409
0.0356049
0.0363019
0.0370286
0.0377369
0.0383993
0.0390018
0.0395492
0.0400041
0.0403621
0.0406631
0.0408853
0.0409753
0.0410731
0.0515269
0.0534539
0.0576457
0.0567048
0.0549299
0.051803
0.0481329
0.0446181
0.0418051
0.0394755
0.0376172
0.0362193
0.0352797
0.0347766
0.0346391
0.0348075
0.0351481
0.035883
0.0364669
0.0371243
0.0377744
0.0383831
0.0389463
0.0394606
0.0398704
0.04021
0.0404862
0.0406955
0.040781
0.0408725
0.0574167
0.0546899
0.0594196
0.0578828
0.056227
0.0532832
0.0496068
0.046146
0.0431696
0.0407469
0.0388219
0.0372986
0.03627
0.0356202
0.0353523
0.0354132
0.0356778
0.0362061
0.0367497
0.0373225
0.0378971
0.0384408
0.0389643
0.0394205
0.039786
0.0400939
0.0403312
0.0405194
0.0405882
0.0406704
0.0449064
0.0501826
0.054505
0.0549921
0.0535701
0.0504755
0.0473167
0.0444877
0.042271
0.0404612
0.038817
0.0372712
0.0364735
0.0359274
0.0357013
0.0357194
0.0359319
0.0363699
0.0368675
0.0373764
0.0379091
0.038416
0.0389032
0.0393088
0.0396586
0.0399423
0.0401546
0.0403297
0.0403875
0.0404636
0.0254341
0.030982
0.0351892
0.039382
0.0420651
0.0423912
0.0413047
0.0403028
0.0394964
0.038669
0.0377115
0.0367185
0.0360646
0.0356051
0.035454
0.0355161
0.0357767
0.0362163
0.0366709
0.0371695
0.0376919
0.0381976
0.0386717
0.0390716
0.0394383
0.0397183
0.0399332
0.0401109
0.040173
0.0402487
0.0158056
0.0172913
0.0201078
0.0253329
0.0301047
0.032782
0.034085
0.0351299
0.0355965
0.0358125
0.0356185
0.0354295
0.0352027
0.0350582
0.0350631
0.0351904
0.0354896
0.0359126
0.0363709
0.0368956
0.0374168
0.0379161
0.0383754
0.0387929
0.0391677
0.0394559
0.0396874
0.0398738
0.0399496
0.0400274
0.00993907
0.0103708
0.0127161
0.0167662
0.0215981
0.0254026
0.0287407
0.0312923
0.0329378
0.0337768
0.0341842
0.0343288
0.0343368
0.0344316
0.0346403
0.0349128
0.0352986
0.0357327
0.0362125
0.0367292
0.0372341
0.0377196
0.0381743
0.0385909
0.0389472
0.0392316
0.0394621
0.0396455
0.0397261
0.0398016
0.000170562
0.00699777
0.00758955
0.00956085
0.014645
0.0195611
0.0240576
0.0276476
0.030169
0.0318488
0.0329528
0.0336065
0.0339982
0.034391
0.0346723
0.0350118
0.0354125
0.0358675
0.0363486
0.0368279
0.0372857
0.0377288
0.0381413
0.038509
0.0388222
0.0390761
0.0392792
0.0394403
0.0395085
0.0395746
-0.0215278
-0.00863352
-0.00889989
-0.00234932
0.00791731
0.0155797
0.0218239
0.0257901
0.0285515
0.0302267
0.0316693
0.0325068
0.0333629
0.0340001
0.0345585
0.0350902
0.0356005
0.0360665
0.0365195
0.0369632
0.0373953
0.0377999
0.0381662
0.0384751
0.0387439
0.0389513
0.0391135
0.0392433
0.0392906
0.0393442
-0.0649757
-0.047122
-0.0377332
-0.0186689
-0.00231298
0.00902974
0.0168778
0.0228236
0.0265016
0.0292649
0.0308804
0.0321212
0.0331008
0.0338076
0.0344517
0.0350745
0.0356291
0.0361424
0.0366089
0.0370401
0.0374235
0.0377799
0.0380948
0.038369
0.038609
0.0387836
0.0389218
0.03903
0.0390643
0.039109
-0.107905
-0.0774099
-0.0469477
-0.0200639
-0.00316885
0.00866977
0.0152058
0.0203419
0.0237588
0.0269042
0.0288579
0.0307585
0.0320533
0.0331318
0.0340609
0.0348144
0.0354337
0.0359716
0.0364537
0.0368815
0.0372665
0.037614
0.0379149
0.0381742
0.0383945
0.0385599
0.038688
0.0387886
0.0388228
0.0388634
-0.136431
-0.0865425
-0.0640391
-0.0438679
-0.0275156
-0.0162774
-0.00646653
0.00327889
0.0116794
0.0179786
0.0230672
0.0276145
-0.0713766
-0.0493052
-0.0311749
-0.0191782
-0.00861871
0.00202234
0.0104776
0.0165016
0.0218066
0.0266054
0.0301871
0.0330331
0.0356132
0.0376502
0.0391897
0.0405026
0.0416026
0.0423461
0.0427287
0.0434069
0.0435579
0.0435993
0.043837
0.0438397
0.0438077
0.0437825
0.0436876
0.0435722
0.0434484
0.0434126
-0.0733766
-0.0498019
-0.0330017
-0.0227423
-0.0115442
0.000293718
0.00870657
0.0147844
0.0206186
0.0255026
0.0290087
0.0320215
0.0347688
0.0367885
0.0384382
0.0398469
0.041048
0.0417521
0.0423363
0.0430871
0.0431254
0.0433398
0.0435837
0.0435656
0.0435872
0.0435697
0.043495
0.0434069
0.0432828
0.0432644
-0.0845199
-0.055089
-0.0375151
-0.026597
-0.013772
-0.00173688
0.0061948
0.0126534
0.018918
0.0237542
0.0273763
0.0306978
0.0335298
0.0356017
0.0374595
0.0390039
0.0402569
0.041002
0.0419352
0.0425485
0.0426556
0.0430893
0.0432859
0.0433044
0.0433814
0.0433612
0.0433169
0.0432499
0.0431188
0.0431194
-0.0910974
-0.062609
-0.0462958
-0.0335649
-0.0189799
-0.0066557
0.00164619
0.00904854
0.0157645
0.0206969
0.0247378
0.0284354
0.0313943
0.0337644
0.035932
0.0376827
0.0390132
0.0400115
0.0412412
0.0416583
0.0420944
0.0426742
0.0428594
0.0429979
0.043136
0.0431337
0.0431394
0.0430927
0.0429559
0.0429763
)
;

boundaryField
{
    outlet
    {
        type            fixedValue;
        value           nonuniform 0();
    }
    upperWall
    {
        type            symmetryPlane;
    }
    lowerWall
    {
        type            symmetryPlane;
    }
    inlet
    {
        type            zeroGradient;
    }
    cylinder
    {
        type            zeroGradient;
    }
    frontAndBack
    {
        type            empty;
    }
    procBoundary2to1
    {
        type            processor;
        value           nonuniform List<scalar> 
63
(
-0.340722
-0.340722
-0.297566
-0.277456
-0.277456
-0.234621
-0.214214
-0.214214
-0.177266
-0.157844
-0.138882
-0.138882
-0.111799
-0.0962649
-0.0813372
-0.0813372
-0.656955
-0.69847
-0.69847
-0.680919
-0.65821
-0.641045
-0.58584
-0.58584
-0.465065
-0.465065
-0.348472
-0.348472
-0.342882
-0.342882
-0.36616
-0.36616
-0.0591467
-0.0421695
-0.0256946
-0.0132775
-0.00330242
0.0057383
0.0135989
0.019757
0.0245477
0.0287133
0.0312217
0.0312217
0.0339878
0.0363771
0.0383661
0.0398737
0.0411212
0.0421233
0.0428627
0.0431928
0.0436863
0.0439472
0.0439284
0.0441
0.0441295
0.0440529
0.0439989
0.0438874
0.0437431
0.0436132
0.0435633
)
;
    }
    procBoundary2to3
    {
        type            processor;
        value           nonuniform List<scalar> 
43
(
-0.786381
-0.890886
-0.947469
-0.935313
-0.887762
-0.750735
-0.750735
-0.5616
-0.437389
-0.337607
-0.195451
-0.195451
-0.0454783
-0.0233445
-0.00722763
0.00446551
0.0132283
0.0192796
0.0232967
0.0259576
0.0280808
0.0299049
0.0312219
0.0325012
0.0335091
0.0343942
0.0351558
0.0358008
0.0363119
0.0367438
0.037109
0.0374379
0.0377207
0.0379666
0.0381758
0.0383309
0.038448
0.0385415
0.0385734
0.0386095
-0.146889
-0.0454783
-0.0780682
)
;
    }
    procBoundary2to6
    {
        type            processor;
        value           nonuniform List<scalar> 
37
(
-0.733051
-0.800586
-0.872984
-0.945358
-1.01271
-1.07304
-1.12203
-1.15882
-1.18162
-1.19388
-1.20182
-1.19443
-1.14436
-1.03778
-0.890999
-0.742298
-0.617015
-0.50674
-0.4291
-0.403163
-0.418312
-0.470379
-0.573924
-0.740912
-0.930739
-1.05306
-1.03007
-0.881979
-0.680884
-0.505585
-0.389674
-0.331381
-0.311102
-0.332375
-0.399371
-0.511824
-0.62681
)
;
    }
}


// ************************************************************************* //
