/*--------------------------------*- C++ -*----------------------------------*\
| =========                 |                                                 |
| \\      /  F ield         | OpenFOAM: The Open Source CFD Toolbox           |
|  \\    /   O peration     | Version:                                        |
|   \\  /    A nd           | Website:  www.openfoam.com                      |
|    \\/     M anipulation  |                                                 |
\*---------------------------------------------------------------------------*/
FoamFile
{
    version     2.0;
    format      ascii;
    class       surfaceScalarField;
    location    "167.4";
    object      phi;
}
// * * * * * * * * * * * * * * * * * * * * * * * * * * * * * * * * * * * * * //

dimensions      [0 3 -1 0 0 0 0];
oriented        oriented;


internalField   nonuniform List<scalar> 
2227
(
0.0481695
0.00320253
-0.0512294
0.0452147
0.00309001
0.00300932
0.0479809
0.00626267
-0.051041
0.0450138
0.00605707
0.00590264
0.0474495
0.00930738
-0.0504942
0.044498
0.00900851
0.0465425
0.0123128
-0.0495479
0.0119331
0.045303
0.0152288
-0.0482189
-0.0464957
0.0538974
-0.0012954
0.0537625
-0.000551119
0.0545722
0.000863788
0.0544636
0.00184807
0.0551824
-0.000397607
0.0550849
0.00106307
0.0556895
-0.000530104
0.0556077
-0.000724254
0.0560557
4.18301e-05
0.056014
0.000112523
0.0562849
-0.000242114
0.0561972
0.00100725
0.0564166
0.000527268
0.0563252
0.000813804
0.0564473
0.000675075
0.0563233
0.000895444
0.0563507
0.00063017
0.0561676
0.000690647
0.056094
0.0005287
0.0558532
0.00059823
0.0556817
0.000478181
0.055359
0.000554465
0.0550781
0.000481531
0.0546608
0.000589244
0.0542647
0.00055875
0.0537419
0.000675798
0.0532255
0.000666047
0.0525935
0.000784476
0.0519622
0.000787091
0.000898874
0.0539011
-0.00216347
0.0537562
-0.000406293
0.0544383
0.000181756
0.054334
0.00195236
0.0550549
-0.00111853
0.0549474
0.0011706
0.0556156
-0.00119832
0.0555032
-0.000611886
0.0559264
-0.000381372
0.0559142
0.000124727
0.0560924
-0.000420306
0.0559891
0.00111059
0.0561958
0.000320578
0.056057
0.000952607
0.0561766
0.000555419
0.0560569
0.00101515
0.0560957
0.00059143
0.0559169
0.00086942
0.0558593
0.00058625
0.0556332
0.00082439
0.055479
0.000632348
0.0551707
0.000862749
0.0549073
0.000744947
0.0545031
0.000993495
0.0541188
0.000943046
0.0536027
0.00119183
0.0530886
0.00118013
0.0524519
0.00142125
0.0518073
0.00143172
0.0016651
0.0538706
-0.00300106
0.0536888
-0.000224479
0.0542081
-0.000337568
0.0541036
0.00205686
0.0547967
-0.00181159
0.054674
0.00129323
0.0553727
-0.00189695
0.0552083
-0.000447546
0.0555951
-0.000768131
0.0555823
0.000137548
0.0556514
-0.000489404
0.0555185
0.00124344
0.0556972
0.000141854
0.0555043
0.00114558
0.0556185
0.000441188
0.05549
0.00114367
0.0555278
0.000553643
0.0553475
0.00104969
0.055299
0.000634775
0.0550761
0.0010473
0.0549313
0.000777142
0.0546275
0.00116653
0.0543689
0.00100357
0.0539688
0.00139355
0.053587
0.00132484
0.0530723
0.00170658
0.0525589
0.00169346
0.0519164
0.00206374
0.0512685
0.00207969
0.00243937
0.0538075
-0.00377551
0.0535569
2.60484e-05
0.0538821
-0.00066276
0.053774
0.002165
0.0544159
-0.00245347
0.0542676
0.00144147
0.0549713
-0.00260064
0.0547208
-0.000197083
0.0550651
-0.00111236
0.0549994
0.000203246
0.0549579
-0.000447979
0.0547933
0.00140809
0.054919
1.61823e-05
0.0546841
0.00138049
0.0547892
0.000336019
0.0546294
0.00130346
0.0546665
0.000516629
0.0544685
0.0012476
0.0544212
0.000682103
0.0541895
0.00127902
0.054042
0.00092461
0.0537351
0.0014735
0.0534722
0.00126642
0.0530651
0.00180066
0.0526816
0.00170828
0.0521582
0.00223008
0.0516429
0.00220873
0.0509892
0.00271743
0.0503321
0.00273677
0.00322361
0.0537108
-0.00445331
0.0533608
0.000376019
0.0534607
-0.000762662
0.0533533
0.00227245
0.0539125
-0.00301266
0.0537445
0.00160945
0.0544014
-0.00325752
0.0540533
0.000151036
0.0543298
-0.00138887
0.0541847
0.000348338
0.0539981
-0.000261414
0.0538108
0.00159536
0.0538615
-3.44845e-05
0.0535986
0.00164341
0.0536845
0.000250121
0.053487
0.00150095
0.0535071
0.000496537
0.0532962
0.00145851
0.0532368
0.000741452
0.0529923
0.00152351
0.0528341
0.00108287
0.0525158
0.00179175
0.0522436
0.00153868
0.0518193
0.0022249
0.0514244
0.00210322
0.0508846
0.00276988
0.0503547
0.00273863
0.0496896
0.00338249
0.0490224
0.00340397
0.00402707
0.0535815
-0.00500177
0.0530998
0.000857666
0.0529511
-0.000613992
0.052844
0.00237958
0.0533048
-0.0034734
0.053099
0.00181518
0.0536823
-0.00384077
0.0531879
0.000645397
0.053403
-0.00160395
0.0531039
0.00064739
0.0528066
3.59061e-05
0.0525806
0.00182139
0.0525537
-7.6188e-06
0.0522633
0.00193383
0.0523388
0.000174676
0.0520677
0.00177204
0.0520856
0.00047863
0.0518069
0.00173718
0.0517661
0.000782242
0.051468
0.00182161
0.0513036
0.00124729
0.0509399
0.00215541
0.0506549
0.00182373
0.0502003
0.00267948
0.0497916
0.00251197
0.0492208
0.00334065
0.0486805
0.00327887
0.0479932
0.0040698
0.0473142
0.00408306
0.00484549
0.0534176
-0.00538635
0.0527715
0.0015037
0.0523573
-0.000199745
0.0522648
0.00247205
0.0525899
-0.00379846
0.0523612
0.00204383
0.0527925
-0.00427205
0.0521634
0.00127453
0.0522579
-0.00169849
0.0518112
0.00109412
0.0513574
0.000489657
0.0511148
0.00206401
0.0509706
0.000136546
0.05074
0.00216447
0.050711
0.000203715
0.0504277
0.00205534
0.050407
0.000499309
0.0500974
0.00204674
0.0499942
0.000885468
0.0496982
0.00211765
0.0494714
0.00147401
0.0491146
0.00251226
0.0487493
0.002189
0.048285
0.00314381
0.0478178
0.00297912
0.0472189
0.00393957
0.0466382
0.00385963
0.0459229
0.00478506
0.0452474
0.0047586
0.0532214
-0.00557474
0.0523671
0.00235795
0.0516859
0.000481452
0.0516217
0.0025363
0.0517865
-0.00396325
0.0515039
0.00232647
0.051759
-0.00452716
0.0509609
0.00207258
0.0509225
-0.00166007
0.0502551
0.00176155
0.0497234
0.0010213
0.0494262
0.00236119
0.0492011
0.000361655
0.048976
0.0023896
0.0488817
0.000298039
0.0484854
0.00245167
0.0484986
0.000486067
0.0480512
0.0024941
0.048009
0.00092771
0.0475193
0.00260738
0.04736
0.00163326
0.0468436
0.00302864
0.0465122
0.00252044
0.0459434
0.00371264
0.0454547
0.00346782
0.0448176
0.00457665
0.0442144
0.00446282
0.0434885
0.00551099
0.00548665
0.0529971
-0.00553887
0.0518907
0.00346434
0.0509201
0.00145207
0.0509345
0.00252188
0.05087
-0.00389867
0.0505421
0.00265433
0.0505276
-0.00451262
0.0496109
0.00298927
0.0493753
-0.00142448
0.0484637
0.00267312
0.0478322
0.00165284
0.0475605
0.00263289
0.0472024
0.000719693
0.0470441
0.00254791
0.0467622
0.000579922
0.0464039
0.00281007
0.0462623
0.000627574
0.0458596
0.00289682
0.0456962
0.00109117
0.0452484
0.00305513
0.0449025
0.00197912
0.0444513
0.00347989
0.0439368
0.00303494
0.0433949
0.00425452
0.0427739
0.00408889
0.0420735
0.00527706
0.0414159
0.00512039
0.040637
0.00628984
0.0527709
-0.00527675
0.0514106
0.00482459
0.0501096
0.00275313
0.0502314
0.00240007
0.0498965
-0.00356378
0.0494167
0.00313409
0.0492136
-0.00430945
0.0480723
0.00413051
0.047682
-0.00103415
0.0466383
0.00371684
0.0457984
0.00249275
0.0454979
0.00293337
0.0451655
0.00105203
0.0449439
0.00276952
0.0444097
0.00111414
0.0440462
0.00317362
0.0438431
0.000830659
0.0432179
0.00352195
0.043182
0.00112707
0.0423744
0.00386281
0.0422464
0.00210705
0.0414077
0.00431864
0.0409969
0.00344574
0.0402087
0.00504268
0.0395688
0.00472885
0.0388445
0.0060013
0.0382319
0.00573297
0.00699355
0.0482253
-0.00567343
0.0477997
0.00525018
0.0470813
0.00347147
0.0478315
0.00164994
0.0479182
-0.00365056
0.0480247
0.00302764
0.0482592
-0.00454399
0.0477963
0.00459346
0.0479074
-0.00114529
0.0474457
0.00417852
0.0470131
0.00292542
0.0470948
0.00285161
0.0471711
0.000975791
0.0472274
0.00271319
0.0469076
0.00143392
0.0470152
0.00306608
0.0469581
0.000887682
0.0467839
0.00369613
0.0471074
0.000803649
0.0465771
0.00439306
0.0472044
0.00147979
0.0465058
0.0050172
0.047003
0.00294855
0.0464454
0.00560024
0.0466933
0.004481
0.0463056
0.00638901
0.04641
0.00562858
0.00706365
0.0513445
-0.00586991
0.0511106
0.00548412
0.0505126
0.00406942
0.0512108
0.000951785
0.0510302
-0.00346994
0.0513013
0.00275651
0.0512339
-0.0044766
0.0511017
0.00472568
0.051
-0.00104367
0.0506245
0.00455402
0.0502244
0.00332562
0.0506946
0.00238141
0.0503498
0.00132052
0.0504889
0.00257407
0.0500431
0.00187973
0.050377
0.00273225
0.0499076
0.00135709
0.0503165
0.00328721
0.0500802
0.00103996
0.0502004
0.00427286
0.0501829
0.00149724
0.0500273
0.00517286
0.0501233
0.00285249
0.0499365
0.00578705
0.0499339
0.00448361
0.0499615
0.00636136
0.0499541
0.00563605
0.00655796
0.0545763
-0.00574834
0.0546926
0.00536775
0.0544035
0.00435854
0.0547405
0.000614757
0.0543704
-0.00309984
0.0546836
0.00244334
0.0543044
-0.0040974
0.0545267
0.00450337
0.0541717
-0.000688651
0.0541138
0.00461197
0.0537845
0.00365492
0.0543395
0.0018264
0.0537954
0.00186462
0.0539585
0.00241097
0.0534407
0.0023975
0.0537978
0.00237515
0.0532825
0.00187243
0.0537102
0.00285949
0.0533839
0.00136626
0.0537251
0.00393161
0.0533889
0.00183352
0.0535406
0.0050211
0.0532897
0.00310339
0.0534866
0.00559019
0.0533486
0.0046216
0.0537258
0.00598417
0.0536714
0.00569042
0.00603726
0.0580652
-0.00531954
0.0586184
0.00481454
0.0586455
0.00433147
0.0585383
0.000721928
0.0580362
-0.00259774
0.0583142
0.00216534
0.0576826
-0.00346576
0.0581894
0.00399652
0.05775
-0.000249224
0.0581372
0.00422482
0.0577906
0.00400147
0.0580857
0.00153134
0.0577216
0.00222869
0.0579353
0.00219724
0.0573505
0.00298234
0.057569
0.00215666
0.0571587
0.00228272
0.0572734
0.00274482
0.057031
0.00160861
0.0572394
0.00372322
0.0570383
0.00203463
0.0571585
0.00490092
0.0569091
0.00335274
0.0572302
0.00526908
0.0571365
0.00471539
0.0576124
0.00550826
0.0576775
0.00562524
0.00552441
0.0618953
-0.00466119
0.0627846
0.00392524
0.0631087
0.00400739
0.0626842
0.00114645
0.0620316
-0.00194519
0.062287
0.00190997
0.0614546
-0.00263333
0.0621362
0.0033149
0.0618032
8.38075e-05
0.0624981
0.00352987
0.0621995
0.00430009
0.0621114
0.00161938
0.0620554
0.00228472
0.0622924
0.00196024
0.0618
0.00347473
0.0617098
0.00224692
0.0613999
0.00259257
0.0611942
0.00295052
0.0610116
0.00179124
0.0610018
0.00373303
0.0609623
0.00207411
0.0612098
0.00465345
0.0610596
0.00350292
0.0614671
0.00486152
0.0614755
0.00470705
0.0619396
0.00504409
0.0621692
0.00539564
0.00506153
0.0660906
-0.00385669
0.0671153
0.00290049
0.0676969
0.00342579
0.0671392
0.00170413
0.0663626
-0.00116854
0.066597
0.00167554
0.0656518
-0.00168816
0.066354
0.00261276
0.0661742
0.000263541
0.0669616
0.00274251
0.0668923
0.00436938
0.0664618
0.00204985
0.0666056
0.00214095
0.0667608
0.00180508
0.0665896
0.00364594
0.0661785
0.00265793
0.0659424
0.00282866
0.0655721
0.00332089
0.0653647
0.00199857
0.0652879
0.00380988
0.0652075
0.00215453
0.0656423
0.00421861
0.0655911
0.00355415
0.0660826
0.00436998
0.0662303
0.00455935
0.066703
0.00457144
0.0670742
0.00502443
0.00463357
0.0707188
-0.00303773
0.0717031
0.00191625
0.0723412
0.00278766
0.0718097
0.0022356
0.0710747
-0.000433481
0.0711946
0.00155561
0.0703722
-0.000865747
0.0709088
0.00207616
0.070841
0.000331297
0.0715198
0.00206375
0.071744
0.00414515
0.0711911
0.00260272
0.0713159
0.00201618
0.0713141
0.00180691
0.0714858
0.00347426
0.0709915
0.00315217
0.0707913
0.00302893
0.0704102
0.00370197
0.0701421
0.00226662
0.0701346
0.00381743
0.0699217
0.00236744
0.070396
0.00374426
0.0704604
0.00348981
0.0709721
0.00385822
0.0712815
0.00424992
0.0717507
0.00410231
0.072222
0.00455308
0.00420383
0.0758139
-0.00234896
0.0766826
0.00104761
0.0771195
0.00235073
0.0766294
0.00272564
0.0761509
4.50929e-05
0.0760938
0.00161268
0.0756297
-0.000401638
0.0759397
0.00176615
0.075852
0.00041898
0.076383
0.00153278
0.0767589
0.0037692
0.0762924
0.00306929
0.0762402
0.00206839
0.0760377
0.00200939
0.0764096
0.00310236
0.0760493
0.00351244
0.0759675
0.0031107
0.0756943
0.00397521
0.0753916
0.00256936
0.0754732
0.00373578
0.0752164
0.00262428
0.0756166
0.00334403
0.075754
0.00335238
0.0762028
0.0034094
0.0766062
0.00384659
0.077058
0.00365054
0.0775856
0.00402545
0.00375876
0.0813465
-0.00188326
0.0821019
0.00029224
0.0822131
0.00223947
0.0816747
0.00326404
0.0815448
0.000174997
0.0813619
0.0017956
0.0812652
-0.000304914
0.0815343
0.00149704
0.0812921
0.000661109
0.0816675
0.00115738
0.0820127
0.00342407
0.0817056
0.00337635
0.0814926
0.00228136
0.0810893
0.00241271
0.0814655
0.00272618
0.0813166
0.00366139
0.0813792
0.00304802
0.081326
0.00402842
0.081102
0.00279337
0.0812508
0.00358695
0.0810759
0.00279925
0.0813613
0.0030586
0.0815457
0.00316798
0.0819023
0.00305282
0.0823349
0.00341395
0.082758
0.00322748
0.0832887
0.00349472
0.00331558
0.0872606
-0.00165371
0.087849
-0.000296112
0.0876117
0.00247678
0.0871306
0.00374509
0.0872328
7.27877e-05
0.0870904
0.001938
0.0872407
-0.000455131
0.0875313
0.00120636
0.087198
0.00099447
0.0873525
0.00100285
0.0875813
0.00319532
0.0874121
0.00354553
0.0871266
0.00256687
0.0866332
0.00290604
0.0868372
0.00252223
0.086892
0.00360659
0.0870562
0.00288379
0.087236
0.00384868
0.0871929
0.00283645
0.0874112
0.00336864
0.08739
0.00282045
0.0875951
0.00285351
0.0878339
0.00292922
0.0881071
0.00277957
0.0885222
0.00299889
0.0888956
0.00285403
0.0893855
0.00300486
0.00289218
0.0935522
-0.00164368
0.0938551
-0.000598972
0.0933317
0.0030002
0.0931462
0.00393059
0.0933413
-0.000122389
0.0932788
0.00200058
0.0935839
-0.00076028
0.0937986
0.000991642
0.0934759
0.00131716
0.0934118
0.00106697
0.0934827
0.00312443
0.0934266
0.00360161
0.0931339
0.00285958
0.092767
0.00327297
0.0927557
0.00253345
0.0929302
0.00343214
0.0931702
0.00264378
0.0934945
0.0035244
0.0936451
0.00268578
0.0939106
0.00310323
0.0940681
0.00266287
0.0942471
0.00267455
0.0945288
0.00264748
0.0947495
0.00255889
0.0951226
0.0026258
0.0954403
0.00253639
0.0958682
0.00257687
0.00251212
0.100175
-0.00176342
0.100126
-0.000549182
0.0995461
0.0035798
0.0997725
0.00370412
0.0999487
-0.000298538
0.0999626
0.00198663
0.100245
-0.00104231
0.100302
0.000934061
0.100053
0.00156658
0.0998054
0.00131441
0.0997754
0.00315444
0.099838
0.00353904
0.0996189
0.00307867
0.0994911
0.00340069
0.0993749
0.00264966
0.0995911
0.00321598
0.0998407
0.00239422
0.100231
0.00313456
0.100491
0.00242507
0.10078
0.00281439
0.101056
0.00238696
0.101233
0.00249792
0.101536
0.00234366
0.101725
0.00237021
0.102048
0.00230316
0.102305
0.00227947
0.102651
0.00223015
0.00219333
0.107172
-0.00193561
0.106829
-0.000205862
0.106302
0.00410674
0.106921
0.0030846
0.10705
-0.000426799
0.107108
0.00192838
0.10728
-0.00121407
0.107135
0.00107902
0.106955
0.00174652
0.106626
0.00164308
0.10656
0.0032209
0.106719
0.00337925
0.106581
0.00321742
0.106745
0.00323612
0.106675
0.00272001
0.106903
0.00298776
0.107117
0.00217991
0.107486
0.00276629
0.107791
0.00211972
0.108055
0.00255002
0.108363
0.00207955
0.108546
0.00231447
0.108835
0.00205503
0.10901
0.00219468
0.109277
0.00203698
0.109482
0.00207349
0.109753
0.0019593
0.00194041
0.114537
-0.00204622
0.114083
0.000248154
0.113782
0.00440724
0.114528
0.00233836
0.114575
-0.000473486
0.11467
0.00183325
0.114661
-0.00120543
0.114417
0.00132334
0.114293
0.00187109
0.113979
0.00195642
0.113952
0.00324779
0.114181
0.00315108
0.114149
0.00324855
0.114461
0.00292495
0.114527
0.00265348
0.114759
0.00275553
0.114928
0.00201124
0.115239
0.00245536
0.115521
0.00183809
0.115756
0.00231413
0.116022
0.00181435
0.116203
0.00213306
0.116451
0.00180723
0.116625
0.00202007
0.116847
0.00181589
0.117026
0.00189379
0.117236
0.00174934
0.00173703
0.122312
-0.00199093
0.121915
0.000645187
0.122036
0.00428597
0.122646
0.00172911
0.122537
-0.000365038
0.122661
0.0017099
0.122423
-0.000968009
0.122211
0.00153588
0.122163
0.00191842
0.121945
0.0021749
0.122052
0.00314028
0.122301
0.00290256
0.122384
0.00316563
0.122689
0.00261933
0.122867
0.00247548
0.123109
0.0025134
0.123229
0.00189187
0.123472
0.00221197
0.123674
0.00163602
0.123892
0.00209688
0.124075
0.00163133
0.124252
0.00195527
0.124442
0.00161742
0.124624
0.00183805
0.124812
0.0016285
0.124987
0.00171828
0.125166
0.00157011
0.00155795
0.130648
-0.00177887
0.130398
0.000894887
0.130867
0.00381755
0.131254
0.00134205
0.13101
-0.000121702
0.131128
0.00159191
0.130742
-0.000581468
0.130621
0.00165689
0.130656
0.00188347
0.130568
0.0022623
0.130791
0.00291809
0.131047
0.00264638
0.131231
0.00298158
0.131463
0.00238753
0.131674
0.00226417
0.131913
0.00227421
0.132001
0.00180443
0.132188
0.00202468
0.132309
0.00151523
0.132511
0.00189463
0.132638
0.00150406
0.132804
0.0017892
0.132945
0.00147644
0.133126
0.00165775
0.133296
0.00145852
0.133475
0.00153897
0.133647
0.00139768
0.00138569
0.139627
-0.00146409
0.139543
0.00097959
0.140208
0.00315185
0.140377
0.00117365
0.140066
0.000188877
0.140155
0.00150337
0.139715
-0.00014134
0.1397
0.00167159
0.139794
0.00178977
0.139835
0.00222085
0.140122
0.00263141
0.140365
0.00240279
0.140637
0.00270963
0.140796
0.00222884
0.140986
0.00207413
0.141196
0.00206393
0.141273
0.0017275
0.141423
0.00187472
0.141484
0.00145415
0.141668
0.00171092
0.141767
0.00140454
0.141937
0.00161982
0.142053
0.00135998
0.142232
0.00147916
0.142391
0.00129986
0.142575
0.00135417
0.142746
0.00122693
0.00121237
0.149324
-0.00113381
0.149363
0.000941106
0.150018
0.00249655
0.150052
0.00113972
0.149761
0.000479668
0.149823
0.00144111
0.149435
0.000247246
0.14949
0.00161665
0.149607
0.00167269
0.149735
0.00209311
0.150025
0.00234107
0.150246
0.00218173
0.150548
0.00240729
0.150682
0.00209486
0.150836
0.00192068
0.151016
0.00188391
0.151101
0.00164192
0.151243
0.00173326
0.151293
0.00140409
0.151458
0.00154604
0.15156
0.0013027
0.151733
0.00144623
0.151853
0.0012403
0.152024
0.00130837
0.152175
0.00114825
0.152355
0.00117453
0.152522
0.00106008
0.0010427
0.159746
-0.000839154
0.159843
0.000844622
0.160391
0.00194882
0.160372
0.00115831
0.160144
0.000707871
0.160198
0.00138673
0.159899
0.000546427
0.159994
0.00152128
0.160126
0.00154115
0.160303
0.00191604
0.160578
0.00206629
0.160769
0.00199019
0.161056
0.00212097
0.161204
0.00194659
0.161336
0.00178892
0.161491
0.00172855
0.161594
0.00153892
0.16174
0.00158722
0.161807
0.00133701
0.161955
0.00139784
0.162061
0.00119671
0.162232
0.00127562
0.16236
0.00111188
0.162525
0.00114345
0.162669
0.00100459
0.162836
0.001007
0.162992
0.000904731
0.000884724
0.170917
-0.000608055
0.171022
0.000739717
0.17142
0.00155089
0.171402
0.00117637
0.171265
0.000844562
0.171325
0.0013269
0.171136
0.000735968
0.171247
0.00140975
0.171378
0.00141059
0.171567
0.00172629
0.171814
0.00181922
0.171997
0.00180744
0.172249
0.00186884
0.172416
0.0017804
0.172554
0.00165083
0.172696
0.00158631
0.172812
0.00142289
0.17296
0.00143882
0.173055
0.00124256
0.173196
0.00125631
0.17331
0.00108336
0.17347
0.00111481
0.173603
0.000979374
0.173759
0.000987228
0.173894
0.000869394
0.174045
0.000856473
0.174183
0.000766335
0.000743512
0.182853
-0.000435062
0.182941
0.000651698
0.18323
0.00126226
0.183247
0.00115915
0.183185
0.000906659
0.183254
0.00125813
0.18315
0.000840128
0.183261
0.00129889
0.183386
0.00128516
0.183576
0.00153627
0.1838
0.00159493
0.183988
0.00161985
0.184214
0.00164328
0.18439
0.00160411
0.184543
0.00149802
0.184682
0.00144733
0.184807
0.00129765
0.184955
0.00129113
0.185068
0.00112922
0.185206
0.00111837
0.18532
0.000968802
0.185468
0.000967319
0.185596
0.000851356
0.185741
0.000842089
0.185866
0.000744245
0.186
0.000722315
0.186121
0.000645229
0.000620278
0.195603
-0.000309486
0.195678
0.00057694
0.195883
0.00105766
0.195934
0.00110745
0.195932
0.000908836
0.196018
0.00117225
0.195985
0.000873478
0.196093
0.00119027
0.196213
0.00116532
0.196396
0.0013538
0.196597
0.00139409
0.196786
0.00143084
0.196994
0.00143529
0.197174
0.00142372
0.197339
0.00133322
0.197488
0.00129831
0.197623
0.00116277
0.197769
0.00114451
0.197893
0.00100579
0.198029
0.000982298
0.198144
0.000853496
0.198279
0.000832822
0.198397
0.000732804
0.198527
0.000712209
0.19864
0.000631319
0.198757
0.00060489
0.198862
0.000540982
0.000515282
0.209222
-0.000218522
0.209287
0.00051237
0.209442
0.000902339
0.209521
0.00102849
0.209558
0.000872242
0.209662
0.00106829
0.209682
0.000853361
0.209798
0.00107398
0.209916
0.00104742
0.210089
0.00118112
0.210271
0.00121164
0.210451
0.00125052
0.210647
0.00124005
0.210827
0.00124323
0.210998
0.00116194
0.211158
0.00113867
0.211301
0.00102016
0.21145
0.000994936
0.211579
0.000876702
0.211715
0.000846093
0.21183
0.000739101
0.211954
0.000708494
0.212063
0.00062426
0.212178
0.00059659
0.212279
0.0005307
0.212381
0.000502783
0.212471
0.000451489
0.000425847
0.223774
-0.000152347
0.223841
0.000444801
0.223967
0.000777118
0.224059
0.000936271
0.22412
0.000811399
0.224236
0.000951547
0.224301
0.000789216
0.224432
0.000942335
0.224555
0.000924935
0.224718
0.00101819
0.224886
0.00104362
0.225054
0.00108175
0.225235
0.0010593
0.225412
0.0010665
0.225582
0.00099211
0.225747
0.000973517
0.225896
0.000871326
0.226048
0.000842493
0.226181
0.000743684
0.226317
0.000710429
0.226432
0.000623984
0.22655
0.000590615
0.226652
0.000522293
0.226756
0.000492852
0.226846
0.000440178
0.226936
0.000413142
0.227016
0.000371504
0.000347593
0.239326
-0.000103144
0.239391
0.000379252
0.239507
0.000661628
0.239616
0.00082703
0.239692
0.000735471
0.239815
0.000828402
0.239905
0.000699365
0.240046
0.000801531
0.240177
0.000793433
0.240335
0.000860326
0.240499
0.000879488
0.240665
0.000916284
0.240835
0.000889483
0.241008
0.000893379
0.241172
0.000827704
0.241338
0.000808218
0.241486
0.000723317
0.241636
0.000692372
0.241767
0.000611994
0.241899
0.000579055
0.242012
0.000510764
0.242123
0.000479348
0.24222
0.000425147
0.242315
0.000397883
0.242399
0.000356081
0.24248
0.000332522
0.242552
0.000299557
0.000278932
0.255952
-6.66027e-05
0.256013
0.000317912
0.256126
0.000548948
0.256244
0.00070872
0.25634
0.000639313
0.256471
0.00069788
0.256577
0.000593136
0.256719
0.000659995
0.256858
0.000654284
0.257013
0.000705483
0.257176
0.000716056
0.257342
0.000750385
0.257508
0.000723616
0.257678
0.000723428
0.257839
0.000666318
0.258001
0.000646426
0.258147
0.000577286
0.258292
0.000547794
0.258419
0.000484828
0.258543
0.000454832
0.258653
0.000401038
0.258758
0.000374012
0.258852
0.000331473
0.258941
0.00030889
0.25902
0.000276326
0.259095
0.000257815
0.259163
0.000231323
0.000215522
0.273727
-3.84774e-05
0.273781
0.000263274
0.27389
0.00044049
0.274023
0.000575683
0.274137
0.000524932
0.274272
0.000562546
0.274388
0.000477225
0.27453
0.00051826
0.274673
0.000510914
0.274829
0.000550296
0.274991
0.000553318
0.27516
0.000581356
0.275326
0.000558193
0.275494
0.000555722
0.275651
0.000508626
0.275807
0.000490244
0.275949
0.000435538
0.276088
0.000409412
0.276214
0.000358585
0.276332
0.000336664
0.276438
0.000295152
0.276538
0.000273473
0.27663
0.000240054
0.276717
0.000221829
0.276797
0.000195824
0.276874
0.000181272
0.276944
0.000161235
0.000149637
0.292728
-1.20086e-05
0.292785
0.000205616
0.292885
0.000340641
0.293024
0.000436359
0.293145
0.00040456
0.293292
0.00041511
0.293416
0.000353237
0.293563
0.00037118
0.293708
0.000366275
0.293868
0.000390105
0.29403
0.0003914
0.294203
0.000408754
0.294365
0.000395637
0.29453
0.00039135
0.294679
0.000359198
0.294827
0.000342426
0.294961
0.000301779
0.295091
0.000278608
0.295209
0.000240843
0.295328
0.000218051
0.295437
0.000186287
0.295543
0.000166619
0.295642
0.000141052
0.29574
0.00012479
0.29583
0.000104984
0.295919
9.25982e-05
0.296002
7.82077e-05
6.9732e-05
0.313062
-1.94307e-06
0.313167
0.000100091
0.313331
0.000176719
0.313545
0.000222493
0.313738
0.000212092
0.31394
0.000212663
0.314108
0.000185093
0.314291
0.000188758
0.314469
0.000188122
0.314661
0.000197643
0.314853
0.000200114
0.315055
0.000206406
0.31525
0.00020049
0.315446
0.000195782
0.315625
0.000180133
0.315797
0.000169706
0.315948
0.000151529
0.316087
0.00013932
0.316205
0.000123084
0.316311
0.000112092
0.3164
9.73611e-05
0.316479
8.71827e-05
0.316545
7.50677e-05
0.316603
6.64494e-05
0.316652
5.67994e-05
0.316694
4.99754e-05
0.31673
4.27325e-05
3.77551e-05
0.334798
0.334898
0.335075
0.335297
0.33551
0.335722
0.335907
0.336096
0.336284
0.336482
0.336682
0.336888
0.337089
0.337285
0.337465
0.337634
0.337786
0.337925
0.338048
0.33816
0.338258
0.338345
0.33842
0.338487
0.338543
0.338593
0.338636
)
;

boundaryField
{
    outlet
    {
        type            calculated;
        value           nonuniform 0();
    }
    upperWall
    {
        type            symmetryPlane;
        value           uniform 0;
    }
    lowerWall
    {
        type            symmetryPlane;
        value           nonuniform 0();
    }
    inlet
    {
        type            calculated;
        value           nonuniform List<scalar> 
40
(
-0.053033
-0.053033
-0.053033
-0.053033
-0.053033
-0.053033
-0.053033
-0.053033
-0.053033
-0.053033
-0.0478286
-0.051148
-0.0546978
-0.058494
-0.0625537
-0.0668951
-0.0715378
-0.0765027
-0.0818122
-0.0874902
-0.0935622
-0.100056
-0.107
-0.114426
-0.122367
-0.13086
-0.139942
-0.149655
-0.160041
-0.171148
-0.183026
-0.195729
-0.209313
-0.22384
-0.239375
-0.255988
-0.273755
-0.292754
-0.313072
-0.3348
)
;
    }
    cylinder
    {
        type            calculated;
        value           nonuniform 0();
    }
    frontAndBack
    {
        type            empty;
        value           nonuniform 0();
    }
    procBoundary4to0
    {
        type            processor;
        value           nonuniform List<scalar> 
33
(
-0.000142614
-0.00013519
-0.000127161
0.000430994
0.000686025
-0.00167349
-0.0017395
-0.000321169
-0.000965561
-7.44725e-05
0.000806008
-0.000489792
-7.08496e-05
-2.87844e-05
-0.00091959
-0.00074667
-0.000722385
-0.000797176
-0.000771393
-0.000657571
-0.000507603
-0.00045506
-0.000357448
-0.00030665
-0.000231752
-0.000200631
-0.00017194
-0.000162679
-0.000152965
-0.000149664
-0.00015254
-0.000155747
-0.000166086
)
;
    }
    procBoundary4to5
    {
        type            processor;
        value           nonuniform List<scalar> 
45
(
0.0423325
0.0421205
0.0416226
0.00877806
0.0436179
0.0424587
0.0147773
0.0436125
0.0181119
0.0444234
0.00566943
0.0427604
0.0399468
0.00617693
0.0375282
0.0463399
0.0504598
0.0541921
0.0581904
0.0626321
0.0675022
0.0726518
0.0780307
0.0837319
0.0898089
0.0962483
0.10297
0.110006
0.11744
0.125345
0.13382
0.142919
0.152691
0.16315
0.174324
0.186245
0.198967
0.21256
0.227094
0.242621
0.259227
0.27701
0.296082
0.316762
0.338674
)
;
    }
}


// ************************************************************************* //
