/*--------------------------------*- C++ -*----------------------------------*\
| =========                 |                                                 |
| \\      /  F ield         | OpenFOAM: The Open Source CFD Toolbox           |
|  \\    /   O peration     | Version:                                        |
|   \\  /    A nd           | Website:  www.openfoam.com                      |
|    \\/     M anipulation  |                                                 |
\*---------------------------------------------------------------------------*/
FoamFile
{
    version     2.0;
    format      ascii;
    class       volScalarField;
    location    "0.3";
    object      p;
}
// * * * * * * * * * * * * * * * * * * * * * * * * * * * * * * * * * * * * * //

dimensions      [0 2 -2 0 0 0 0];


internalField   nonuniform List<scalar> 
400
(
0.273972
0.265979
0.25807
0.250241
0.24249
0.234816
0.227216
0.219688
0.212229
0.204838
0.197511
0.190247
0.183044
0.1759
0.168811
0.161778
0.154794
0.147864
0.140985
0.134132
0.273941
0.26595
0.258042
0.250214
0.242465
0.234792
0.227193
0.219666
0.212208
0.204818
0.197492
0.190229
0.183027
0.175884
0.168796
0.161764
0.154781
0.147851
0.140972
0.134122
0.27388
0.265892
0.257988
0.250162
0.242415
0.234745
0.227149
0.219623
0.212168
0.204779
0.197455
0.190194
0.182994
0.175852
0.168766
0.161735
0.154755
0.147825
0.140948
0.134102
0.273793
0.265809
0.257908
0.250087
0.242344
0.234677
0.227084
0.219562
0.212109
0.204723
0.197402
0.190144
0.182946
0.175806
0.168723
0.161694
0.154716
0.147788
0.140913
0.134071
0.273681
0.265703
0.257808
0.249992
0.242254
0.234592
0.227003
0.219485
0.212035
0.204653
0.197335
0.19008
0.182886
0.175749
0.168669
0.161643
0.154669
0.147743
0.14087
0.134033
0.273551
0.26558
0.257692
0.249882
0.242149
0.234492
0.226908
0.219395
0.21195
0.204572
0.197258
0.190007
0.182816
0.175684
0.168607
0.161585
0.154614
0.147691
0.140821
0.133988
0.273407
0.265444
0.257563
0.24976
0.242034
0.234383
0.226804
0.219296
0.211857
0.204483
0.197174
0.189928
0.182741
0.175613
0.16854
0.161522
0.154554
0.147635
0.140768
0.133939
0.273256
0.265301
0.257428
0.249632
0.241913
0.234269
0.226696
0.219194
0.21176
0.204391
0.197087
0.189845
0.182663
0.175539
0.168471
0.161457
0.154494
0.147579
0.140714
0.13389
0.273102
0.265156
0.257291
0.249504
0.241792
0.234154
0.226588
0.219091
0.211663
0.2043
0.197001
0.189764
0.182587
0.175467
0.168404
0.161393
0.154434
0.147524
0.140662
0.133843
0.272952
0.265015
0.257158
0.249379
0.241674
0.234043
0.226483
0.218993
0.21157
0.204213
0.196919
0.189687
0.182514
0.175399
0.16834
0.161334
0.154379
0.147473
0.140614
0.133799
0.272809
0.264882
0.257033
0.249261
0.241564
0.23394
0.226386
0.218902
0.211484
0.204132
0.196843
0.189616
0.182448
0.175338
0.168283
0.161281
0.15433
0.147427
0.140572
0.133761
0.272678
0.264758
0.256918
0.249153
0.241463
0.233845
0.226298
0.218819
0.211407
0.20406
0.196776
0.189554
0.18239
0.175284
0.168233
0.161235
0.154288
0.147389
0.140536
0.133729
0.272558
0.264647
0.256814
0.249056
0.241372
0.233761
0.226219
0.218746
0.211339
0.203997
0.196718
0.1895
0.182341
0.175238
0.168191
0.161197
0.154253
0.147357
0.140508
0.133703
0.272449
0.264545
0.256719
0.248969
0.241291
0.233685
0.226149
0.218681
0.211279
0.203942
0.196667
0.189453
0.182298
0.1752
0.168156
0.161165
0.154225
0.147331
0.140485
0.133683
0.272348
0.264452
0.256633
0.248888
0.241217
0.233616
0.226086
0.218623
0.211226
0.203893
0.196622
0.189412
0.182261
0.175166
0.168126
0.161138
0.154201
0.14731
0.140466
0.133666
0.272252
0.264363
0.25655
0.248811
0.241146
0.233551
0.226025
0.218567
0.211175
0.203846
0.19658
0.189374
0.182227
0.175136
0.168099
0.161114
0.154179
0.147292
0.14045
0.133652
0.272156
0.264273
0.256466
0.248734
0.241074
0.233484
0.225964
0.218511
0.211123
0.203799
0.196537
0.189335
0.182191
0.175104
0.16807
0.161089
0.154157
0.147272
0.140433
0.133637
0.272052
0.264176
0.256375
0.248649
0.240994
0.23341
0.225895
0.218447
0.211064
0.203745
0.196488
0.18929
0.18215
0.175067
0.168037
0.161059
0.15413
0.147248
0.140412
0.133618
0.271923
0.264055
0.256261
0.248542
0.240894
0.233316
0.225807
0.218365
0.210988
0.203674
0.196422
0.189229
0.182095
0.175015
0.16799
0.161016
0.154091
0.147213
0.140381
0.13359
0.271771
0.263911
0.256125
0.248413
0.240773
0.233202
0.2257
0.218264
0.210894
0.203586
0.19634
0.189153
0.182023
0.17495
0.167929
0.16096
0.15404
0.147167
0.140338
0.133552
)
;

boundaryField
{
    fixedWalls
    {
        type            zeroGradient;
    }
    inlet
    {
        type            zeroGradient;
    }
    outlet
    {
        type            fixedValue;
        value           nonuniform 0();
    }
    frontAndBack
    {
        type            empty;
    }
    procBoundary6to2
    {
        type            processor;
        value           nonuniform List<scalar> 
20
(
0.273972
0.265979
0.25807
0.250241
0.24249
0.234816
0.227216
0.219688
0.212229
0.204837
0.197511
0.190247
0.183044
0.1759
0.168811
0.161778
0.154794
0.147864
0.140985
0.134132
)
;
    }
    procBoundary6to5
    {
        type            processor;
        value           nonuniform List<scalar> 
20
(
0.282054
0.282022
0.281958
0.281865
0.281748
0.28161
0.281457
0.281295
0.281131
0.280971
0.280818
0.280677
0.280548
0.280431
0.280323
0.28022
0.280116
0.280005
0.279869
0.279709
)
;
    }
    procBoundary6to7
    {
        type            processor;
        value           nonuniform List<scalar> 
20
(
0.127328
0.127318
0.127297
0.127267
0.127231
0.12719
0.127147
0.127103
0.127061
0.127022
0.126988
0.126959
0.126937
0.126919
0.126905
0.126893
0.12688
0.126864
0.126839
0.126804
)
;
    }
}


// ************************************************************************* //
