/*--------------------------------*- C++ -*----------------------------------*\
| =========                 |                                                 |
| \\      /  F ield         | OpenFOAM: The Open Source CFD Toolbox           |
|  \\    /   O peration     | Version:                                        |
|   \\  /    A nd           | Website:  www.openfoam.com                      |
|    \\/     M anipulation  |                                                 |
\*---------------------------------------------------------------------------*/
FoamFile
{
    version     2.0;
    format      ascii;
    class       surfaceScalarField;
    location    "0.3";
    object      phi;
}
// * * * * * * * * * * * * * * * * * * * * * * * * * * * * * * * * * * * * * //

dimensions      [0 3 -1 0 0 0 0];
oriented        oriented;


internalField   nonuniform List<scalar> 
760
(
3.46562e-05
-1.06585e-07
3.4758e-05
-1.0173e-07
3.48551e-05
-9.70449e-08
3.49477e-05
-9.249e-08
3.50358e-05
-8.80274e-08
3.51196e-05
-8.36626e-08
3.5199e-05
-7.93953e-08
3.52744e-05
-7.52218e-08
3.53456e-05
-7.11428e-08
3.54129e-05
-6.71535e-08
3.54763e-05
-6.32605e-08
3.55359e-05
-5.94572e-08
3.55919e-05
-5.57586e-08
3.56442e-05
-5.21419e-08
3.56931e-05
-4.86565e-08
3.57386e-05
-4.52262e-08
3.57808e-05
-4.19889e-08
3.58198e-05
-3.87558e-08
3.58558e-05
-3.5663e-08
-3.30295e-08
3.45935e-05
-2.088e-07
3.4691e-05
-1.99274e-07
3.4784e-05
-1.90047e-07
3.48726e-05
-1.81058e-07
3.49568e-05
-1.72277e-07
3.50369e-05
-1.63701e-07
3.51128e-05
-1.55323e-07
3.51847e-05
-1.47136e-07
3.52527e-05
-1.39139e-07
3.53169e-05
-1.31326e-07
3.53773e-05
-1.23703e-07
3.54341e-05
-1.16262e-07
3.54874e-05
-1.09027e-07
3.55372e-05
-1.01962e-07
3.55837e-05
-9.51426e-08
3.56269e-05
-8.8467e-08
3.56671e-05
-8.21135e-08
3.57041e-05
-7.58323e-08
3.57384e-05
-6.98841e-08
-6.45478e-08
3.44606e-05
-3.02382e-07
3.45498e-05
-2.88475e-07
3.46348e-05
-2.74971e-07
3.47155e-05
-2.61825e-07
3.47923e-05
-2.49011e-07
3.48651e-05
-2.36514e-07
3.49341e-05
-2.24318e-07
3.49994e-05
-2.12412e-07
3.5061e-05
-2.00793e-07
3.51191e-05
-1.8945e-07
3.51738e-05
-1.78391e-07
3.52252e-05
-1.67603e-07
3.52732e-05
-1.57117e-07
3.53182e-05
-1.46894e-07
3.53601e-05
-1.37015e-07
3.5399e-05
-1.27385e-07
3.5435e-05
-1.18161e-07
3.54683e-05
-1.09158e-07
3.5499e-05
-1.00583e-07
-9.26207e-08
3.42437e-05
-3.83474e-07
3.43208e-05
-3.65607e-07
3.43941e-05
-3.48251e-07
3.44637e-05
-3.31379e-07
3.45296e-05
-3.14965e-07
3.45921e-05
-2.9898e-07
3.46512e-05
-2.83402e-07
3.4707e-05
-2.68213e-07
3.47596e-05
-2.53403e-07
3.48091e-05
-2.38962e-07
3.48556e-05
-2.24892e-07
3.48992e-05
-2.11182e-07
3.49399e-05
-1.97863e-07
3.49779e-05
-1.84897e-07
3.50133e-05
-1.7236e-07
3.50461e-05
-1.6018e-07
3.50764e-05
-1.48468e-07
3.51044e-05
-1.3714e-07
3.51301e-05
-1.26277e-07
-1.1605e-07
3.39226e-05
-4.48783e-07
3.39845e-05
-4.27532e-07
3.40432e-05
-4.06905e-07
3.40987e-05
-3.86887e-07
3.41512e-05
-3.67449e-07
3.42007e-05
-3.48549e-07
3.42475e-05
-3.30157e-07
3.42915e-05
-3.12248e-07
3.43329e-05
-2.94808e-07
3.43718e-05
-2.7782e-07
3.44082e-05
-2.61287e-07
3.44422e-05
-2.45195e-07
3.44739e-05
-2.29571e-07
3.45034e-05
-2.14387e-07
3.45307e-05
-1.99702e-07
3.4556e-05
-1.85473e-07
3.45793e-05
-1.71766e-07
3.46008e-05
-1.58582e-07
3.46204e-05
-1.45895e-07
-1.33876e-07
3.34726e-05
-4.95797e-07
3.3517e-05
-4.71888e-07
3.35588e-05
-4.4872e-07
3.35982e-05
-4.26275e-07
3.36353e-05
-4.0452e-07
3.36701e-05
-3.83402e-07
3.37028e-05
-3.62882e-07
3.37335e-05
-3.42929e-07
3.37622e-05
-3.23523e-07
3.37891e-05
-3.04644e-07
3.38141e-05
-2.86291e-07
3.38373e-05
-2.68449e-07
3.38589e-05
-2.5114e-07
3.38788e-05
-2.34342e-07
3.38972e-05
-2.18105e-07
3.39142e-05
-2.02402e-07
3.39297e-05
-1.87273e-07
3.39439e-05
-1.72765e-07
3.39568e-05
-1.58789e-07
-1.45522e-07
3.28661e-05
-5.22962e-07
3.28914e-05
-4.97259e-07
3.29151e-05
-4.72402e-07
3.29372e-05
-4.48366e-07
3.29578e-05
-4.25107e-07
3.2977e-05
-4.02565e-07
3.29948e-05
-3.80694e-07
3.30113e-05
-3.59457e-07
3.30266e-05
-3.38829e-07
3.30407e-05
-3.18787e-07
3.30538e-05
-2.99324e-07
3.30658e-05
-2.80427e-07
3.30767e-05
-2.62112e-07
3.30868e-05
-2.44363e-07
3.30959e-05
-2.27217e-07
3.31041e-05
-2.10664e-07
3.31116e-05
-1.94724e-07
3.31183e-05
-1.79465e-07
3.31243e-05
-1.64778e-07
-1.50834e-07
3.2074e-05
-5.29822e-07
3.208e-05
-5.0329e-07
3.20853e-05
-4.77684e-07
3.20899e-05
-4.52968e-07
3.20939e-05
-4.29087e-07
3.20973e-05
-4.05976e-07
3.21002e-05
-3.83584e-07
3.21026e-05
-3.6187e-07
3.21046e-05
-3.40804e-07
3.21061e-05
-3.20362e-07
3.21074e-05
-3.00532e-07
3.21082e-05
-2.81302e-07
3.21088e-05
-2.62682e-07
3.21091e-05
-2.44661e-07
3.21091e-05
-2.27268e-07
3.2109e-05
-2.105e-07
3.21086e-05
-1.94371e-07
3.21081e-05
-1.78944e-07
3.21075e-05
-1.64123e-07
-1.50063e-07
3.10683e-05
-5.17086e-07
3.10557e-05
-4.90734e-07
3.10434e-05
-4.65354e-07
3.10313e-05
-4.40892e-07
3.10195e-05
-4.17289e-07
3.1008e-05
-3.94475e-07
3.09968e-05
-3.72398e-07
3.0986e-05
-3.51014e-07
3.09755e-05
-3.30293e-07
3.09653e-05
-3.10207e-07
3.09555e-05
-2.90742e-07
3.09461e-05
-2.71887e-07
3.09371e-05
-2.53648e-07
3.09284e-05
-2.36018e-07
3.09202e-05
-2.19017e-07
3.09123e-05
-2.02648e-07
3.09049e-05
-1.86923e-07
3.08978e-05
-1.7189e-07
3.08912e-05
-1.57483e-07
-1.43824e-07
2.98235e-05
-4.86596e-07
2.97942e-05
-4.61411e-07
2.9766e-05
-4.37197e-07
2.9739e-05
-4.13889e-07
2.97131e-05
-3.91421e-07
2.96884e-05
-3.69727e-07
2.96647e-05
-3.48756e-07
2.96422e-05
-3.28463e-07
2.96207e-05
-3.08818e-07
2.96003e-05
-2.89792e-07
2.95809e-05
-2.71373e-07
2.95626e-05
-2.53548e-07
2.95453e-05
-2.36321e-07
2.95289e-05
-2.19686e-07
2.95136e-05
-2.0366e-07
2.94992e-05
-1.88247e-07
2.94857e-05
-1.73458e-07
2.94731e-05
-1.59325e-07
2.94615e-05
-1.45822e-07
-1.33014e-07
2.83184e-05
-4.41194e-07
2.8275e-05
-4.18063e-07
2.82337e-05
-3.95858e-07
2.81943e-05
-3.74501e-07
2.81568e-05
-3.53927e-07
2.81211e-05
-3.34079e-07
2.80873e-05
-3.14906e-07
2.80552e-05
-2.96369e-07
2.80248e-05
-2.78436e-07
2.79961e-05
-2.61082e-07
2.7969e-05
-2.44295e-07
2.79435e-05
-2.28062e-07
2.79196e-05
-2.12385e-07
2.78972e-05
-1.97262e-07
2.78762e-05
-1.82703e-07
2.78567e-05
-1.68716e-07
2.78385e-05
-1.55308e-07
2.78217e-05
-1.42502e-07
2.78062e-05
-1.30301e-07
-1.18708e-07
2.6537e-05
-3.84491e-07
2.64831e-05
-3.64137e-07
2.64319e-05
-3.4462e-07
2.63832e-05
-3.25855e-07
2.63371e-05
-3.07785e-07
2.62934e-05
-2.9036e-07
2.6252e-05
-2.73538e-07
2.62129e-05
-2.57282e-07
2.6176e-05
-2.41565e-07
2.61413e-05
-2.26364e-07
2.61087e-05
-2.11667e-07
2.60781e-05
-1.97465e-07
2.60495e-05
-1.83756e-07
2.60227e-05
-1.70542e-07
2.59979e-05
-1.57829e-07
2.59748e-05
-1.45627e-07
2.59534e-05
-1.33937e-07
2.59337e-05
-1.22779e-07
2.59156e-05
-1.12173e-07
-1.02061e-07
2.44695e-05
-3.20586e-07
2.44088e-05
-3.03513e-07
2.43514e-05
-2.87151e-07
2.42969e-05
-2.71419e-07
2.42454e-05
-2.5627e-07
2.41967e-05
-2.41666e-07
2.41507e-05
-2.2757e-07
2.41074e-05
-2.13953e-07
2.40666e-05
-2.00792e-07
2.40283e-05
-1.88068e-07
2.39924e-05
-1.75768e-07
2.39589e-05
-1.63889e-07
2.39275e-05
-1.52426e-07
2.38984e-05
-1.41382e-07
2.38713e-05
-1.30761e-07
2.38463e-05
-1.20575e-07
2.38231e-05
-1.10817e-07
2.38019e-05
-1.01513e-07
2.37824e-05
-9.26787e-08
-8.42189e-08
2.21114e-05
-2.53755e-07
2.20481e-05
-2.40214e-07
2.19881e-05
-2.27236e-07
2.19315e-05
-2.14753e-07
2.18779e-05
-2.02729e-07
2.18274e-05
-1.91138e-07
2.17798e-05
-1.79952e-07
2.1735e-05
-1.69146e-07
2.16929e-05
-1.58702e-07
2.16534e-05
-1.48606e-07
2.16165e-05
-1.38847e-07
2.1582e-05
-1.29422e-07
2.15499e-05
-1.2033e-07
2.15201e-05
-1.11573e-07
2.14925e-05
-1.0315e-07
2.1467e-05
-9.50773e-08
2.14436e-05
-8.73412e-08
2.1422e-05
-7.99752e-08
2.14023e-05
-7.29752e-08
-6.62402e-08
1.94636e-05
-1.88178e-07
1.94015e-05
-1.78158e-07
1.93428e-05
-1.6855e-07
1.92874e-05
-1.593e-07
1.9235e-05
-1.50387e-07
1.91857e-05
-1.41794e-07
1.91393e-05
-1.335e-07
1.90956e-05
-1.25485e-07
1.90546e-05
-1.17737e-07
1.90163e-05
-1.10246e-07
1.89804e-05
-1.03004e-07
1.8947e-05
-9.60093e-08
1.89159e-05
-8.92586e-08
1.88871e-05
-8.27571e-08
1.88605e-05
-7.65029e-08
1.88359e-05
-7.05099e-08
1.88133e-05
-6.47617e-08
1.87927e-05
-5.92955e-08
1.87738e-05
-5.40858e-08
-4.90547e-08
1.6531e-05
-1.27726e-07
1.64738e-05
-1.20971e-07
1.64198e-05
-1.14485e-07
1.63687e-05
-1.08235e-07
1.63205e-05
-1.0221e-07
1.62751e-05
-9.6399e-08
1.62324e-05
-9.0787e-08
1.61923e-05
-8.53624e-08
1.61547e-05
-8.01171e-08
1.61195e-05
-7.50418e-08
1.60866e-05
-7.01328e-08
1.6056e-05
-6.53893e-08
1.60275e-05
-6.08089e-08
1.60012e-05
-5.6396e-08
1.59768e-05
-5.21478e-08
1.59544e-05
-4.80766e-08
1.59338e-05
-4.41669e-08
1.59149e-05
-4.04527e-08
1.58978e-05
-3.68941e-08
-3.34523e-08
1.33213e-05
-7.58479e-08
1.32722e-05
-7.18823e-08
1.32258e-05
-6.80688e-08
1.3182e-05
-6.43909e-08
1.31406e-05
-6.08425e-08
1.31016e-05
-5.74186e-08
1.30649e-05
-5.41108e-08
1.30305e-05
-5.09101e-08
1.29982e-05
-4.78125e-08
1.29679e-05
-4.48138e-08
1.29397e-05
-4.19108e-08
1.29134e-05
-3.91031e-08
1.2889e-05
-3.63891e-08
1.28664e-05
-3.37727e-08
1.28455e-05
-3.12509e-08
1.28263e-05
-2.88327e-08
1.28086e-05
-2.6506e-08
1.27924e-05
-2.42972e-08
1.27777e-05
-2.21654e-08
-2.01058e-08
9.84339e-06
-3.55506e-08
9.80523e-06
-3.37243e-08
9.76913e-06
-3.19647e-08
9.735e-06
-3.02658e-08
9.70278e-06
-2.86262e-08
9.67241e-06
-2.70426e-08
9.64381e-06
-2.55109e-08
9.61693e-06
-2.4028e-08
9.5917e-06
-2.25914e-08
9.56809e-06
-2.11986e-08
9.54603e-06
-1.98485e-08
9.52547e-06
-1.85414e-08
9.50635e-06
-1.72755e-08
9.48863e-06
-1.60539e-08
9.47226e-06
-1.48743e-08
9.45717e-06
-1.37419e-08
9.44331e-06
-1.26489e-08
9.43062e-06
-1.16127e-08
9.41906e-06
-1.06021e-08
-9.62864e-09
6.10624e-06
-9.4697e-09
6.08151e-06
-8.99745e-09
6.05809e-06
-8.54112e-09
6.03593e-06
-8.10041e-09
6.01497e-06
-7.67412e-09
5.99519e-06
-7.26235e-09
5.97655e-06
-6.8637e-09
5.95899e-06
-6.47683e-09
5.94251e-06
-6.10148e-09
5.92704e-06
-5.73696e-09
5.91258e-06
-5.38273e-09
5.89908e-06
-5.03904e-09
5.88651e-06
-4.70522e-09
5.87483e-06
-4.38263e-09
5.86403e-06
-4.06994e-09
5.85406e-06
-3.7694e-09
5.84489e-06
-3.47745e-09
5.83647e-06
-3.20172e-09
5.8288e-06
-2.9279e-09
-2.66469e-09
2.11752e-06
2.10852e-06
2.09998e-06
2.09188e-06
2.08421e-06
2.07695e-06
2.07008e-06
2.06361e-06
2.0575e-06
2.05177e-06
2.04638e-06
2.04135e-06
2.03664e-06
2.03226e-06
2.02819e-06
2.02442e-06
2.02094e-06
2.01774e-06
2.01481e-06
)
;

boundaryField
{
    fixedWalls
    {
        type            calculated;
        value           uniform 0;
    }
    inlet
    {
        type            calculated;
        value           nonuniform 0();
    }
    outlet
    {
        type            calculated;
        value           nonuniform 0();
    }
    frontAndBack
    {
        type            empty;
        value           nonuniform 0();
    }
    procBoundary6to2
    {
        type            processor;
        value           nonuniform List<scalar> 
20
(
-4.7165e-11
-6.39843e-11
-7.44041e-11
-7.53994e-11
-8.03133e-11
-8.74582e-11
-9.34753e-11
-1.04357e-10
-1.17385e-10
-1.29993e-10
-1.4356e-10
-1.61438e-10
-1.76945e-10
-1.9754e-10
-2.11994e-10
-2.3916e-10
-2.53894e-10
-2.71191e-10
-3.16117e-10
-3.10039e-10
)
;
    }
    procBoundary6to5
    {
        type            processor;
        value           nonuniform List<scalar> 
20
(
-3.45496e-05
-3.44912e-05
-3.43671e-05
-3.41626e-05
-3.38573e-05
-3.34256e-05
-3.28389e-05
-3.20671e-05
-3.1081e-05
-2.9854e-05
-2.83638e-05
-2.65937e-05
-2.45334e-05
-2.21782e-05
-1.95292e-05
-1.65915e-05
-1.33732e-05
-9.88368e-06
-6.13232e-06
-2.12699e-06
)
;
    }
    procBoundary6to7
    {
        type            processor;
        value           nonuniform List<scalar> 
20
(
3.58891e-05
3.57699e-05
3.55271e-05
3.51535e-05
3.46382e-05
3.39684e-05
3.31296e-05
3.21067e-05
3.08849e-05
2.94507e-05
2.77919e-05
2.58989e-05
2.37645e-05
2.13843e-05
1.87566e-05
1.58822e-05
1.27644e-05
9.40858e-06
5.82184e-06
2.01215e-06
)
;
    }
}


// ************************************************************************* //
