/*--------------------------------*- C++ -*----------------------------------*\
| =========                 |                                                 |
| \\      /  F ield         | OpenFOAM: The Open Source CFD Toolbox           |
|  \\    /   O peration     | Version:                                        |
|   \\  /    A nd           | Website:  www.openfoam.com                      |
|    \\/     M anipulation  |                                                 |
\*---------------------------------------------------------------------------*/
FoamFile
{
    version     2.0;
    format      ascii;
    class       volVectorField;
    location    "0.3";
    object      U;
}
// * * * * * * * * * * * * * * * * * * * * * * * * * * * * * * * * * * * * * //

dimensions      [0 1 -1 0 0 0 0];


internalField   nonuniform List<vector> 
400
(
(1.38417 -0.00107668 0)
(1.38833 -0.00102757 0)
(1.39231 -0.000980236 0)
(1.3961 -0.000934385 0)
(1.39971 -0.000889364 0)
(1.40315 -0.000845262 0)
(1.40641 -0.000802163 0)
(1.40951 -0.000759954 0)
(1.41244 -0.00071864 0)
(1.41521 -0.000678223 0)
(1.41782 -0.00063878 0)
(1.42028 -0.00060019 0)
(1.42259 -0.00056268 0)
(1.42476 -0.000525923 0)
(1.42678 -0.000490576 0)
(1.42867 -0.000455593 0)
(1.43041 -0.000422762 0)
(1.43205 -0.000389888 0)
(1.43354 -0.000358006 0)
(1.43492 -0.000331742 0)
(1.38174 -0.00318731 0)
(1.38574 -0.00304234 0)
(1.38955 -0.00290221 0)
(1.39318 -0.00276578 0)
(1.39663 -0.00263228 0)
(1.39992 -0.00250177 0)
(1.40303 -0.00237419 0)
(1.40599 -0.00224942 0)
(1.40879 -0.00212753 0)
(1.41143 -0.00200841 0)
(1.41392 -0.00189215 0)
(1.41627 -0.00177856 0)
(1.41846 -0.00166812 0)
(1.42053 -0.00156019 0)
(1.42245 -0.00145607 0)
(1.42425 -0.00135389 0)
(1.42591 -0.00125703 0)
(1.42746 -0.00116071 0)
(1.42888 -0.00106919 0)
(1.43019 -0.000989204 0)
(1.3766 -0.00516598 0)
(1.38025 -0.00492986 0)
(1.38373 -0.00470081 0)
(1.38705 -0.00447767 0)
(1.3902 -0.0042599 0)
(1.39319 -0.00404732 0)
(1.39602 -0.00383973 0)
(1.39871 -0.00363695 0)
(1.40124 -0.00343896 0)
(1.40364 -0.00324556 0)
(1.40589 -0.00305689 0)
(1.40801 -0.00287277 0)
(1.41 -0.00269377 0)
(1.41186 -0.00251909 0)
(1.41359 -0.00235037 0)
(1.41521 -0.00218554 0)
(1.41671 -0.00202812 0)
(1.4181 -0.00187351 0)
(1.41938 -0.00172677 0)
(1.42054 -0.00159258 0)
(1.36817 -0.00693112 0)
(1.37133 -0.00661086 0)
(1.37434 -0.0062997 0)
(1.37719 -0.00599696 0)
(1.3799 -0.00570212 0)
(1.38247 -0.00541474 0)
(1.3849 -0.00513445 0)
(1.3872 -0.00486096 0)
(1.38936 -0.00459414 0)
(1.3914 -0.00433379 0)
(1.39332 -0.00408001 0)
(1.39512 -0.00383258 0)
(1.39681 -0.00359211 0)
(1.39838 -0.00335783 0)
(1.39985 -0.00313132 0)
(1.40121 -0.0029109 0)
(1.40247 -0.00269929 0)
(1.40364 -0.00249379 0)
(1.40472 -0.00229733 0)
(1.40569 -0.00211328 0)
(1.35563 -0.00841012 0)
(1.35818 -0.00801562 0)
(1.36059 -0.00763246 0)
(1.36287 -0.00726025 0)
(1.36503 -0.00689845 0)
(1.36707 -0.00654638 0)
(1.36899 -0.00620347 0)
(1.37081 -0.00586933 0)
(1.37252 -0.0055437 0)
(1.37412 -0.00522631 0)
(1.37562 -0.00491725 0)
(1.37703 -0.00461625 0)
(1.37835 -0.00432387 0)
(1.37957 -0.00403947 0)
(1.3807 -0.00376442 0)
(1.38176 -0.00349757 0)
(1.38273 -0.00324068 0)
(1.38362 -0.00299298 0)
(1.38445 -0.00275492 0)
(1.38518 -0.00252984 0)
(1.33799 -0.00954389 0)
(1.33982 -0.00908821 0)
(1.34154 -0.00864623 0)
(1.34316 -0.00821763 0)
(1.34469 -0.00780179 0)
(1.34613 -0.00739781 0)
(1.34748 -0.00700493 0)
(1.34875 -0.00662265 0)
(1.34993 -0.00625057 0)
(1.35104 -0.00588838 0)
(1.35208 -0.00553605 0)
(1.35305 -0.00519332 0)
(1.35394 -0.00486066 0)
(1.35477 -0.00453759 0)
(1.35554 -0.00422519 0)
(1.35624 -0.00392281 0)
(1.35689 -0.00363142 0)
(1.35748 -0.00335164 0)
(1.35803 -0.00308218 0)
(1.35851 -0.00282646 0)
(1.31412 -0.0102909 0)
(1.31517 -0.00979009 0)
(1.31615 -0.00930523 0)
(1.31706 -0.00883595 0)
(1.31791 -0.00838145 0)
(1.31871 -0.00794063 0)
(1.31945 -0.00751259 0)
(1.32013 -0.00709668 0)
(1.32077 -0.00669241 0)
(1.32136 -0.00629939 0)
(1.3219 -0.00591751 0)
(1.3224 -0.00554649 0)
(1.32286 -0.00518671 0)
(1.32328 -0.0048378 0)
(1.32366 -0.00450062 0)
(1.32401 -0.00417485 0)
(1.32432 -0.00386099 0)
(1.3246 -0.00356031 0)
(1.32486 -0.00327076 0)
(1.32508 -0.00299577 0)
(1.28283 -0.0106305 0)
(1.28309 -0.0101031 0)
(1.28331 -0.00959351 0)
(1.28351 -0.00910123 0)
(1.28368 -0.00862526 0)
(1.28383 -0.00816431 0)
(1.28395 -0.00771739 0)
(1.28406 -0.00728374 0)
(1.28415 -0.00686278 0)
(1.28422 -0.00645405 0)
(1.28427 -0.00605735 0)
(1.28432 -0.00567241 0)
(1.28434 -0.0052995 0)
(1.28436 -0.00493835 0)
(1.28437 -0.00458963 0)
(1.28436 -0.00425321 0)
(1.28435 -0.00392942 0)
(1.28434 -0.0036196 0)
(1.28432 -0.00332163 0)
(1.28428 -0.00303883 0)
(1.24298 -0.0105651 0)
(1.24248 -0.0100311 0)
(1.24198 -0.00951629 0)
(1.24149 -0.00901979 0)
(1.24101 -0.00854042 0)
(1.24055 -0.00807683 0)
(1.24009 -0.00762796 0)
(1.23965 -0.00719296 0)
(1.23923 -0.0067712 0)
(1.23881 -0.00636218 0)
(1.23841 -0.00596562 0)
(1.23803 -0.00558127 0)
(1.23766 -0.00520931 0)
(1.23731 -0.00484954 0)
(1.23697 -0.00450248 0)
(1.23665 -0.0041681 0)
(1.23634 -0.00384668 0)
(1.23605 -0.00353933 0)
(1.23578 -0.00324441 0)
(1.23552 -0.00296473 0)
(1.19354 -0.0101206 0)
(1.19234 -0.00960037 0)
(1.19119 -0.00909983 0)
(1.19009 -0.00861777 0)
(1.18903 -0.00815288 0)
(1.18802 -0.00770383 0)
(1.18705 -0.00726954 0)
(1.18613 -0.00684914 0)
(1.18525 -0.00644196 0)
(1.18441 -0.00604747 0)
(1.18361 -0.0056654 0)
(1.18286 -0.00529548 0)
(1.18215 -0.00493782 0)
(1.18147 -0.0045923 0)
(1.18084 -0.00425928 0)
(1.18025 -0.00393883 0)
(1.17969 -0.00363118 0)
(1.17917 -0.00333715 0)
(1.17869 -0.0030558 0)
(1.17823 -0.00278903 0)
(1.13362 -0.00934477 0)
(1.13185 -0.00885745 0)
(1.13015 -0.00838936 0)
(1.12854 -0.00793902 0)
(1.127 -0.00750509 0)
(1.12554 -0.00708633 0)
(1.12415 -0.0066817 0)
(1.12283 -0.00629037 0)
(1.12158 -0.00591167 0)
(1.1204 -0.00554508 0)
(1.11929 -0.00519035 0)
(1.11824 -0.00484722 0)
(1.11725 -0.00451573 0)
(1.11632 -0.00419582 0)
(1.11545 -0.00388776 0)
(1.11464 -0.00359164 0)
(1.11389 -0.00330768 0)
(1.11319 -0.00303639 0)
(1.11255 -0.00277759 0)
(1.11195 -0.00253195 0)
(1.06259 -0.00830357 0)
(1.06038 -0.00786558 0)
(1.05827 -0.00744542 0)
(1.05628 -0.00704144 0)
(1.05438 -0.0066524 0)
(1.05259 -0.00627718 0)
(1.05088 -0.00591486 0)
(1.04928 -0.00556468 0)
(1.04776 -0.00522604 0)
(1.04633 -0.00489844 0)
(1.04498 -0.00458166 0)
(1.04372 -0.00427546 0)
(1.04253 -0.00397985 0)
(1.04143 -0.0036948 0)
(1.04039 -0.00342051 0)
(1.03944 -0.00315712 0)
(1.03855 -0.00290475 0)
(1.03772 -0.00266378 0)
(1.03697 -0.00243451 0)
(1.03628 -0.00221636 0)
(0.980023 -0.00707566 0)
(0.977534 -0.00669948 0)
(0.975173 -0.00633893 0)
(0.972936 -0.00599231 0)
(0.970818 -0.00565855 0)
(0.968815 -0.00533679 0)
(0.966922 -0.0050262 0)
(0.965137 -0.00472614 0)
(0.963456 -0.0044361 0)
(0.961876 -0.00415566 0)
(0.960392 -0.00388457 0)
(0.959004 -0.00362269 0)
(0.957706 -0.00336997 0)
(0.956497 -0.00312646 0)
(0.955374 -0.00289224 0)
(0.954332 -0.00266754 0)
(0.95337 -0.00245231 0)
(0.952481 -0.00224699 0)
(0.951669 -0.00205199 0)
(0.950923 -0.00186569 0)
(0.885755 -0.00574641 0)
(0.883154 -0.00543969 0)
(0.880691 -0.00514579 0)
(0.878361 -0.00486316 0)
(0.876158 -0.00459098 0)
(0.874078 -0.00432861 0)
(0.872116 -0.00407541 0)
(0.870268 -0.00383082 0)
(0.868531 -0.00359444 0)
(0.866901 -0.00336594 0)
(0.865374 -0.0031451 0)
(0.863947 -0.0029318 0)
(0.862617 -0.00272602 0)
(0.861379 -0.00252783 0)
(0.860232 -0.00233724 0)
(0.85917 -0.00215452 0)
(0.858193 -0.00197947 0)
(0.857292 -0.0018127 0)
(0.85647 -0.00165434 0)
(0.855717 -0.0015023 0)
(0.779819 -0.0044018 0)
(0.777268 -0.00416692 0)
(0.774855 -0.00394178 0)
(0.772573 -0.00372511 0)
(0.770418 -0.00351639 0)
(0.768386 -0.00331517 0)
(0.766471 -0.00312097 0)
(0.76467 -0.00293337 0)
(0.762978 -0.00275203 0)
(0.761392 -0.00257671 0)
(0.759909 -0.00240726 0)
(0.758525 -0.00224362 0)
(0.757236 -0.00208573 0)
(0.756039 -0.00193368 0)
(0.754931 -0.00178743 0)
(0.753907 -0.0016473 0)
(0.752966 -0.00151296 0)
(0.752101 -0.00138514 0)
(0.751312 -0.00126354 0)
(0.75059 -0.00114627 0)
(0.662417 -0.00312305 0)
(0.660066 -0.0029572 0)
(0.657842 -0.00279808 0)
(0.65574 -0.0026448 0)
(0.653757 -0.00249707 0)
(0.651886 -0.00235462 0)
(0.650125 -0.00221708 0)
(0.648469 -0.00208414 0)
(0.646915 -0.00195563 0)
(0.64546 -0.00183133 0)
(0.644099 -0.00171115 0)
(0.64283 -0.00159505 0)
(0.641649 -0.00148298 0)
(0.640554 -0.00137503 0)
(0.639541 -0.00127115 0)
(0.638605 -0.00117163 0)
(0.637746 -0.00107611 0)
(0.636957 -0.000985331 0)
(0.636239 -0.000898601 0)
(0.635583 -0.000814738 0)
(0.533861 -0.00198216 0)
(0.531843 -0.00187792 0)
(0.529934 -0.00177775 0)
(0.52813 -0.00168117 0)
(0.526427 -0.00158803 0)
(0.524821 -0.00149815 0)
(0.523308 -0.00141134 0)
(0.521886 -0.00132739 0)
(0.520552 -0.00124618 0)
(0.519302 -0.00116757 0)
(0.518134 -0.00109151 0)
(0.517044 -0.00101798 0)
(0.516031 -0.00094694 0)
(0.515091 -0.000878482 0)
(0.514221 -0.000812543 0)
(0.513419 -0.000749334 0)
(0.512682 -0.000688574 0)
(0.512006 -0.000630878 0)
(0.51139 -0.000575385 0)
(0.510828 -0.000521727 0)
(0.39452 -0.00104335 0)
(0.392952 -0.000989344 0)
(0.391467 -0.000937337 0)
(0.390063 -0.000887142 0)
(0.388737 -0.000838697 0)
(0.387486 -0.000791926 0)
(0.386307 -0.000746713 0)
(0.385198 -0.000702949 0)
(0.384156 -0.00066057 0)
(0.38318 -0.000619501 0)
(0.382267 -0.000579714 0)
(0.381415 -0.000541217 0)
(0.380622 -0.000503969 0)
(0.379886 -0.000468038 0)
(0.379205 -0.00043337 0)
(0.378576 -0.000400108 0)
(0.377998 -0.000368051 0)
(0.377467 -0.000337638 0)
(0.376983 -0.000308113 0)
(0.376542 -0.000279637 0)
(0.244758 -0.000379192 0)
(0.243742 -0.000360106 0)
(0.242779 -0.000341679 0)
(0.241868 -0.000323872 0)
(0.241006 -0.000306666 0)
(0.240192 -0.000290048 0)
(0.239424 -0.000273956 0)
(0.2387 -0.000258348 0)
(0.23802 -0.00024321 0)
(0.237381 -0.000228522 0)
(0.236783 -0.00021426 0)
(0.236224 -0.000200429 0)
(0.235703 -0.00018701 0)
(0.235218 -0.000174045 0)
(0.234769 -0.000161497 0)
(0.234354 -0.000149436 0)
(0.233971 -0.000137753 0)
(0.23362 -0.00012669 0)
(0.233299 -0.000115791 0)
(0.233006 -0.000105305 0)
(0.0848856 -6.30451e-05 0)
(0.0845164 -6.00505e-05 0)
(0.0841658 -5.71421e-05 0)
(0.0838331 -5.43319e-05 0)
(0.0835178 -5.16103e-05 0)
(0.0832192 -4.89732e-05 0)
(0.0829368 -4.64163e-05 0)
(0.0826701 -4.39327e-05 0)
(0.0824187 -4.1511e-05 0)
(0.082182 -3.91521e-05 0)
(0.0819597 -3.68533e-05 0)
(0.0817514 -3.46161e-05 0)
(0.0815566 -3.24317e-05 0)
(0.081375 -3.03194e-05 0)
(0.081206 -2.82528e-05 0)
(0.0810494 -2.62611e-05 0)
(0.0809046 -2.43106e-05 0)
(0.080771 -2.24774e-05 0)
(0.0806486 -2.06047e-05 0)
(0.0805368 -1.88382e-05 0)
)
;

boundaryField
{
    fixedWalls
    {
        type            noSlip;
    }
    inlet
    {
        type            fixedValue;
        value           nonuniform 0();
    }
    outlet
    {
        type            zeroGradient;
    }
    frontAndBack
    {
        type            empty;
    }
    procBoundary6to2
    {
        type            processor;
        value           nonuniform List<vector> 
20
(
(1.38417 0.00107862 0)
(1.38833 0.00103023 0)
(1.39231 0.000983208 0)
(1.3961 0.000937394 0)
(1.39971 0.000892563 0)
(1.40315 0.00084877 0)
(1.40641 0.000805943 0)
(1.40951 0.000764117 0)
(1.41244 0.000723298 0)
(1.41521 0.000683455 0)
(1.41782 0.000644568 0)
(1.42028 0.000606646 0)
(1.42259 0.000569779 0)
(1.42476 0.00053384 0)
(1.42678 0.000499057 0)
(1.42867 0.000465161 0)
(1.43041 0.000432911 0)
(1.43205 0.000400703 0)
(1.43354 0.000370492 0)
(1.43491 0.000343641 0)
)
;
    }
    procBoundary6to5
    {
        type            processor;
        value           nonuniform List<vector> 
20
(
(1.3798 -0.00112662 0)
(1.37756 -0.00333555 0)
(1.37277 -0.00540847 0)
(1.36484 -0.00726072 0)
(1.35295 -0.00881698 0)
(1.33606 -0.0100149 0)
(1.31299 -0.0108098 0)
(1.28254 -0.0111783 0)
(1.2435 -0.0111209 0)
(1.19478 -0.0106631 0)
(1.13548 -0.00985396 0)
(1.06491 -0.00876194 0)
(0.982646 -0.00746987 0)
(0.888501 -0.00606818 0)
(0.782514 -0.00464841 0)
(0.664902 -0.00329723 0)
(0.535994 -0.00209161 0)
(0.396175 -0.00110002 0)
(0.245829 -0.000399186 0)
(0.085274 -6.61704e-05 0)
)
;
    }
    procBoundary6to7
    {
        type            processor;
        value           nonuniform List<vector> 
20
(
(1.43621 -0.000301678 0)
(1.4314 -0.000901369 0)
(1.42162 -0.00145352 0)
(1.40659 -0.00193244 0)
(1.38587 -0.0023153 0)
(1.35896 -0.00258665 0)
(1.32528 -0.00273973 0)
(1.28425 -0.00277605 0)
(1.23528 -0.0027045 0)
(1.17782 -0.00254006 0)
(1.1114 -0.00230196 0)
(1.03564 -0.00201167 0)
(0.95024 -0.00169095 0)
(0.85503 -0.00136025 0)
(0.749936 -0.00103758 0)
(0.63499 -0.000737936 0)
(0.510321 -0.000473321 0)
(0.376145 -0.000254418 0)
(0.232741 -9.62619e-05 0)
(0.0804352 -1.73908e-05 0)
)
;
    }
}


// ************************************************************************* //
