/*--------------------------------*- C++ -*----------------------------------*\
| =========                 |                                                 |
| \\      /  F ield         | OpenFOAM: The Open Source CFD Toolbox           |
|  \\    /   O peration     | Version:                                        |
|   \\  /    A nd           | Website:  www.openfoam.com                      |
|    \\/     M anipulation  |                                                 |
\*---------------------------------------------------------------------------*/
FoamFile
{
    version     2.0;
    format      ascii;
    class       volVectorField;
    location    "0.7";
    object      U;
}
// * * * * * * * * * * * * * * * * * * * * * * * * * * * * * * * * * * * * * //

dimensions      [0 1 -1 0 0 0 0];


internalField   nonuniform List<vector> 
400
(
(1.38496 -0.0011114 0)
(1.38927 -0.00106817 0)
(1.39341 -0.00102662 0)
(1.3974 -0.000986729 0)
(1.40122 -0.000948403 0)
(1.4049 -0.000911581 0)
(1.40844 -0.000876221 0)
(1.41183 -0.000842263 0)
(1.4151 -0.00080965 0)
(1.41824 -0.000778331 0)
(1.42126 -0.000748248 0)
(1.42416 -0.00071936 0)
(1.42695 -0.000691616 0)
(1.42963 -0.000664968 0)
(1.43221 -0.000639385 0)
(1.43469 -0.000614814 0)
(1.43707 -0.000591208 0)
(1.43936 -0.000568527 0)
(1.44157 -0.000546761 0)
(1.44369 -0.000525833 0)
(1.38252 -0.00328891 0)
(1.38665 -0.00316036 0)
(1.39062 -0.00303695 0)
(1.39444 -0.00291846 0)
(1.3981 -0.00280471 0)
(1.40162 -0.00269551 0)
(1.405 -0.00259067 0)
(1.40825 -0.00249002 0)
(1.41137 -0.0023934 0)
(1.41438 -0.00230064 0)
(1.41726 -0.00221158 0)
(1.42003 -0.00212608 0)
(1.4227 -0.00204398 0)
(1.42526 -0.00196517 0)
(1.42772 -0.00188948 0)
(1.43009 -0.00181681 0)
(1.43236 -0.00174703 0)
(1.43455 -0.00168001 0)
(1.43666 -0.00161566 0)
(1.43868 -0.00155386 0)
(1.37734 -0.00533198 0)
(1.38112 -0.00512168 0)
(1.38476 -0.00492002 0)
(1.38824 -0.00472662 0)
(1.39159 -0.00454115 0)
(1.3948 -0.00436325 0)
(1.39789 -0.00419262 0)
(1.40085 -0.00402892 0)
(1.40369 -0.00387189 0)
(1.40642 -0.00372122 0)
(1.40905 -0.00357667 0)
(1.41157 -0.00343796 0)
(1.41399 -0.00330484 0)
(1.41632 -0.00317709 0)
(1.41855 -0.00305447 0)
(1.4207 -0.00293677 0)
(1.42277 -0.0028238 0)
(1.42476 -0.00271533 0)
(1.42667 -0.00261118 0)
(1.4285 -0.00251119 0)
(1.36885 -0.00715698 0)
(1.37213 -0.00687107 0)
(1.37528 -0.00659737 0)
(1.37829 -0.00633531 0)
(1.38118 -0.00608433 0)
(1.38395 -0.00584392 0)
(1.38661 -0.0056136 0)
(1.38915 -0.00539289 0)
(1.3916 -0.00518138 0)
(1.39394 -0.00497863 0)
(1.3962 -0.00478425 0)
(1.39836 -0.00459788 0)
(1.40043 -0.00441915 0)
(1.40243 -0.00424772 0)
(1.40434 -0.00408327 0)
(1.40618 -0.00392551 0)
(1.40795 -0.00377413 0)
(1.40965 -0.00362886 0)
(1.41129 -0.00348943 0)
(1.41286 -0.0033556 0)
(1.35623 -0.00868959 0)
(1.35888 -0.00833701 0)
(1.36141 -0.0080002 0)
(1.36383 -0.00767832 0)
(1.36615 -0.00737059 0)
(1.36836 -0.0070763 0)
(1.37049 -0.00679477 0)
(1.37252 -0.00652535 0)
(1.37446 -0.00626746 0)
(1.37633 -0.00602054 0)
(1.37812 -0.00578405 0)
(1.37984 -0.0055575 0)
(1.38148 -0.00534043 0)
(1.38307 -0.00513238 0)
(1.38458 -0.00493294 0)
(1.38604 -0.00474172 0)
(1.38744 -0.00455834 0)
(1.38879 -0.00438245 0)
(1.39008 -0.00421371 0)
(1.39132 -0.0040518 0)
(1.33849 -0.00986888 0)
(1.3404 -0.0094615 0)
(1.34222 -0.00907322 0)
(1.34396 -0.00870295 0)
(1.34561 -0.00834966 0)
(1.34719 -0.00801239 0)
(1.3487 -0.00769026 0)
(1.35014 -0.00738247 0)
(1.35152 -0.00708824 0)
(1.35284 -0.00680687 0)
(1.35411 -0.0065377 0)
(1.35532 -0.0062801 0)
(1.35648 -0.0060335 0)
(1.35759 -0.00579735 0)
(1.35865 -0.00557115 0)
(1.35968 -0.00535442 0)
(1.36066 -0.0051467 0)
(1.3616 -0.00494758 0)
(1.36251 -0.00475664 0)
(1.36338 -0.00457351 0)
(1.31449 -0.0106514 0)
(1.3156 -0.0102038 0)
(1.31665 -0.00977825 0)
(1.31765 -0.00937331 0)
(1.31859 -0.00898772 0)
(1.31949 -0.00862031 0)
(1.32034 -0.00827 0)
(1.32115 -0.00793579 0)
(1.32193 -0.00761676 0)
(1.32266 -0.00731207 0)
(1.32337 -0.00702093 0)
(1.32404 -0.00674261 0)
(1.32468 -0.00647643 0)
(1.32529 -0.00622176 0)
(1.32588 -0.005978 0)
(1.32645 -0.00574461 0)
(1.32699 -0.00552106 0)
(1.3275 -0.00530689 0)
(1.328 -0.00510164 0)
(1.32848 -0.00490486 0)
(1.28305 -0.0110148 0)
(1.28335 -0.0105438 0)
(1.28361 -0.0100971 0)
(1.28386 -0.00967289 0)
(1.28408 -0.00926982 0)
(1.28429 -0.00888646 0)
(1.28447 -0.00852155 0)
(1.28465 -0.00817396 0)
(1.28481 -0.00784262 0)
(1.28496 -0.00752657 0)
(1.2851 -0.00722493 0)
(1.28523 -0.00693687 0)
(1.28535 -0.00666164 0)
(1.28547 -0.00639853 0)
(1.28558 -0.00614689 0)
(1.28568 -0.00590612 0)
(1.28578 -0.00567565 0)
(1.28588 -0.00545497 0)
(1.28597 -0.00524358 0)
(1.28605 -0.00504102 0)
(1.24304 -0.01096 0)
(1.24254 -0.0104837 0)
(1.24205 -0.010033 0)
(1.24157 -0.00960599 0)
(1.2411 -0.00920096 0)
(1.24064 -0.0088164 0)
(1.2402 -0.00845094 0)
(1.23977 -0.00810332 0)
(1.23935 -0.00777238 0)
(1.23894 -0.00745709 0)
(1.23855 -0.0071565 0)
(1.23816 -0.00686972 0)
(1.2378 -0.00659596 0)
(1.23744 -0.00633446 0)
(1.2371 -0.00608454 0)
(1.23677 -0.00584557 0)
(1.23645 -0.00561695 0)
(1.23614 -0.00539815 0)
(1.23585 -0.00518867 0)
(1.23556 -0.00498801 0)
(1.19342 -0.0105119 0)
(1.1922 -0.0100487 0)
(1.19102 -0.00961121 0)
(1.18989 -0.0091975 0)
(1.18879 -0.00880577 0)
(1.18774 -0.0084344 0)
(1.18673 -0.00808197 0)
(1.18575 -0.00774717 0)
(1.18481 -0.00742881 0)
(1.1839 -0.00712583 0)
(1.18303 -0.00683723 0)
(1.18219 -0.00656214 0)
(1.18139 -0.00629974 0)
(1.18061 -0.00604926 0)
(1.17987 -0.00581003 0)
(1.17915 -0.00558139 0)
(1.17846 -0.00536279 0)
(1.1778 -0.00515365 0)
(1.17716 -0.00495349 0)
(1.17655 -0.00476183 0)
(1.13333 -0.00971806 0)
(1.1315 -0.00928501 0)
(1.12975 -0.00887671 0)
(1.12806 -0.00849117 0)
(1.12644 -0.00812663 0)
(1.12489 -0.00778149 0)
(1.1234 -0.00745433 0)
(1.12197 -0.00714387 0)
(1.1206 -0.00684894 0)
(1.11928 -0.0065685 0)
(1.11801 -0.00630159 0)
(1.11679 -0.00604734 0)
(1.11562 -0.00580497 0)
(1.1145 -0.00557376 0)
(1.11342 -0.00535302 0)
(1.11238 -0.00514217 0)
(1.11138 -0.00494064 0)
(1.11043 -0.0047479 0)
(1.10951 -0.00456349 0)
(1.10862 -0.00438697 0)
(1.06213 -0.00864524 0)
(1.05984 -0.0082568 0)
(1.05765 -0.00789107 0)
(1.05554 -0.00754615 0)
(1.05353 -0.00722038 0)
(1.0516 -0.00691226 0)
(1.04975 -0.00662045 0)
(1.04798 -0.00634377 0)
(1.04627 -0.00608112 0)
(1.04464 -0.00583154 0)
(1.04308 -0.00559414 0)
(1.04157 -0.00536813 0)
(1.04013 -0.00515277 0)
(1.03874 -0.00494741 0)
(1.03741 -0.00475144 0)
(1.03614 -0.00456429 0)
(1.03491 -0.00438546 0)
(1.03373 -0.00421448 0)
(1.0326 -0.00405092 0)
(1.03151 -0.00389438 0)
(0.979438 -0.0073739 0)
(0.976847 -0.00704092 0)
(0.974369 -0.00672769 0)
(0.971999 -0.00643255 0)
(0.969731 -0.00615401 0)
(0.967559 -0.00589075 0)
(0.965479 -0.00564159 0)
(0.963486 -0.00540547 0)
(0.961576 -0.00518145 0)
(0.959745 -0.00496866 0)
(0.957989 -0.00476634 0)
(0.956304 -0.00457379 0)
(0.954687 -0.00439037 0)
(0.953135 -0.00421551 0)
(0.951646 -0.00404867 0)
(0.950215 -0.00388938 0)
(0.948841 -0.0037372 0)
(0.947521 -0.00359171 0)
(0.946253 -0.00345255 0)
(0.945035 -0.00331937 0)
(0.885085 -0.00599241 0)
(0.882367 -0.0057213 0)
(0.879771 -0.00546642 0)
(0.877289 -0.00522639 0)
(0.874916 -0.00499996 0)
(0.872645 -0.00478604 0)
(0.870471 -0.00458365 0)
(0.868388 -0.0043919 0)
(0.866393 -0.00421003 0)
(0.864481 -0.00403733 0)
(0.862647 -0.00387314 0)
(0.860888 -0.00371691 0)
(0.859201 -0.00356811 0)
(0.857581 -0.00342627 0)
(0.856027 -0.00329094 0)
(0.854534 -0.00316174 0)
(0.8531 -0.00303831 0)
(0.851723 -0.00292031 0)
(0.8504 -0.00280744 0)
(0.849128 -0.00269942 0)
(0.779121 -0.00459084 0)
(0.776448 -0.00438336 0)
(0.773896 -0.00418836 0)
(0.771457 -0.00400474 0)
(0.769126 -0.00383156 0)
(0.766895 -0.00366796 0)
(0.76476 -0.00351319 0)
(0.762715 -0.00336657 0)
(0.760756 -0.00322751 0)
(0.758879 -0.00309546 0)
(0.757079 -0.00296993 0)
(0.755352 -0.00285047 0)
(0.753695 -0.00273669 0)
(0.752105 -0.00262823 0)
(0.750578 -0.00252474 0)
(0.749112 -0.00242593 0)
(0.747704 -0.00233152 0)
(0.746351 -0.00224126 0)
(0.745051 -0.00215491 0)
(0.743802 -0.00207227 0)
(0.661755 -0.00325527 0)
(0.659288 -0.00310871 0)
(0.656933 -0.00297094 0)
(0.654682 -0.0028412 0)
(0.65253 -0.00271882 0)
(0.650471 -0.0026032 0)
(0.6485 -0.00249379 0)
(0.646612 -0.00239014 0)
(0.644804 -0.00229181 0)
(0.64307 -0.00219842 0)
(0.641408 -0.00210963 0)
(0.639813 -0.00202512 0)
(0.638282 -0.00194462 0)
(0.636813 -0.00186785 0)
(0.635402 -0.0017946 0)
(0.634047 -0.00172465 0)
(0.632746 -0.00165779 0)
(0.631495 -0.00159387 0)
(0.630292 -0.0015327 0)
(0.629137 -0.00147414 0)
(0.5333 -0.00206286 0)
(0.531183 -0.00197056 0)
(0.529161 -0.00188376 0)
(0.527229 -0.00180198 0)
(0.525381 -0.00172481 0)
(0.523612 -0.00165188 0)
(0.521919 -0.00158285 0)
(0.520297 -0.00151742 0)
(0.518742 -0.00145533 0)
(0.517252 -0.00139634 0)
(0.515822 -0.00134024 0)
(0.51445 -0.00128683 0)
(0.513133 -0.00123593 0)
(0.511869 -0.00118738 0)
(0.510654 -0.00114104 0)
(0.509488 -0.00109677 0)
(0.508366 -0.00105446 0)
(0.507289 -0.00101398 0)
(0.506253 -0.000975243 0)
(0.505257 -0.000938145 0)
(0.39411 -0.00108269 0)
(0.392468 -0.00103466 0)
(0.3909 -0.000989452 0)
(0.3894 -0.000946839 0)
(0.387966 -0.000906601 0)
(0.386592 -0.000868547 0)
(0.385277 -0.000832509 0)
(0.384016 -0.000798336 0)
(0.382807 -0.000765893 0)
(0.381648 -0.000735055 0)
(0.380536 -0.000705712 0)
(0.379468 -0.000677762 0)
(0.378443 -0.000651115 0)
(0.377459 -0.000625689 0)
(0.376513 -0.000601409 0)
(0.375604 -0.000578208 0)
(0.37473 -0.00055602 0)
(0.37389 -0.000534788 0)
(0.373082 -0.00051446 0)
(0.372305 -0.000494987 0)
(0.244526 -0.000391235 0)
(0.243468 -0.000374091 0)
(0.242456 -0.000357942 0)
(0.241488 -0.000342702 0)
(0.240562 -0.000328297 0)
(0.239675 -0.000314661 0)
(0.238825 -0.000301737 0)
(0.23801 -0.000289472 0)
(0.237228 -0.00027782 0)
(0.236478 -0.000266736 0)
(0.235758 -0.000256181 0)
(0.235067 -0.000246119 0)
(0.234403 -0.000236522 0)
(0.233765 -0.000227361 0)
(0.233152 -0.000218606 0)
(0.232562 -0.000210234 0)
(0.231996 -0.000202223 0)
(0.231451 -0.000194554 0)
(0.230926 -0.000187209 0)
(0.230422 -0.000180169 0)
(0.0848247 -6.42656e-05 0)
(0.0844435 -6.15129e-05 0)
(0.0840789 -5.89154e-05 0)
(0.0837298 -5.64588e-05 0)
(0.0833955 -5.41322e-05 0)
(0.0830751 -5.19261e-05 0)
(0.0827679 -4.98323e-05 0)
(0.0824733 -4.78424e-05 0)
(0.0821905 -4.5949e-05 0)
(0.081919 -4.41454e-05 0)
(0.0816583 -4.2425e-05 0)
(0.0814079 -4.07832e-05 0)
(0.0811672 -3.92161e-05 0)
(0.0809359 -3.7719e-05 0)
(0.0807135 -3.62861e-05 0)
(0.0804996 -3.49136e-05 0)
(0.0802939 -3.35993e-05 0)
(0.080096 -3.23401e-05 0)
(0.0799056 -3.11338e-05 0)
(0.0797223 -2.99765e-05 0)
)
;

boundaryField
{
    fixedWalls
    {
        type            noSlip;
    }
    inlet
    {
        type            fixedValue;
        value           nonuniform 0();
    }
    outlet
    {
        type            zeroGradient;
    }
    frontAndBack
    {
        type            empty;
    }
    procBoundary6to2
    {
        type            processor;
        value           nonuniform List<vector> 
20
(
(1.38496 0.0011115 0)
(1.38927 0.00106827 0)
(1.39341 0.00102675 0)
(1.3974 0.000986848 0)
(1.40122 0.000948526 0)
(1.4049 0.000911727 0)
(1.40844 0.00087638 0)
(1.41183 0.000842435 0)
(1.4151 0.000809835 0)
(1.41824 0.000778525 0)
(1.42126 0.00074846 0)
(1.42416 0.000719587 0)
(1.42695 0.000691864 0)
(1.42963 0.000665244 0)
(1.43221 0.00063967 0)
(1.43469 0.000615114 0)
(1.43707 0.000591532 0)
(1.43936 0.000568894 0)
(1.44157 0.000547134 0)
(1.44369 0.000526246 0)
)
;
    }
    procBoundary6to5
    {
        type            processor;
        value           nonuniform List<vector> 
20
(
(1.38047 -0.0011564 0)
(1.37821 -0.00342278 0)
(1.37339 -0.00555129 0)
(1.36542 -0.00745571 0)
(1.35346 -0.0090588 0)
(1.33648 -0.0102966 0)
(1.31331 -0.0111226 0)
(1.28273 -0.0115119 0)
(1.24355 -0.0114638 0)
(1.19468 -0.011003 0)
(1.13523 -0.0101781 0)
(1.06453 -0.00905849 0)
(0.982151 -0.00772855 0)
(0.887932 -0.00628135 0)
(0.781922 -0.00481202 0)
(0.664341 -0.0034115 0)
(0.535519 -0.00216121 0)
(0.39583 -0.00113384 0)
(0.245634 -0.000409469 0)
(0.0852234 -6.71864e-05 0)
)
;
    }
    procBoundary6to7
    {
        type            processor;
        value           nonuniform List<vector> 
20
(
(1.44573 -0.00050573 0)
(1.44063 -0.00149452 0)
(1.43027 -0.00241518 0)
(1.41437 -0.00322713 0)
(1.39251 -0.00389643 0)
(1.36422 -0.00439786 0)
(1.32894 -0.00471621 0)
(1.28613 -0.00484689 0)
(1.23529 -0.00479576 0)
(1.17596 -0.00457827 0)
(1.10777 -0.00421793 0)
(1.03046 -0.0037445 0)
(0.943864 -0.00319186 0)
(0.847906 -0.00259599 0)
(0.742601 -0.00199313 0)
(0.628026 -0.00141806 0)
(0.504299 -0.000902604 0)
(0.371558 -0.000476325 0)
(0.229937 -0.000173417 0)
(0.0795459 -2.88645e-05 0)
)
;
    }
}


// ************************************************************************* //
