/*--------------------------------*- C++ -*----------------------------------*\
| =========                 |                                                 |
| \\      /  F ield         | OpenFOAM: The Open Source CFD Toolbox           |
|  \\    /   O peration     | Version:                                        |
|   \\  /    A nd           | Website:  www.openfoam.com                      |
|    \\/     M anipulation  |                                                 |
\*---------------------------------------------------------------------------*/
FoamFile
{
    version     2.0;
    format      ascii;
    class       volVectorField;
    location    "149.2";
    object      U;
}
// * * * * * * * * * * * * * * * * * * * * * * * * * * * * * * * * * * * * * //

dimensions      [0 1 -1 0 0 0 0];


internalField   nonuniform List<vector> 
1161
(
(1.42974 -0.4451 -1.71754e-19)
(1.3844 -0.436455 2.92919e-19)
(1.33117 -0.425079 -4.48147e-20)
(1.28778 -0.418985 -2.70025e-22)
(1.25364 -0.409268 3.94083e-20)
(1.20966 -0.399879 4.74819e-21)
(1.17237 -0.377802 -5.69622e-20)
(1.13776 -0.387012 -3.11105e-20)
(1.10708 -0.340499 -4.30394e-20)
(1.0496 -0.369768 -6.97875e-20)
(1.35437 -0.370517 -1.95349e-19)
(1.32064 -0.361535 4.10393e-20)
(1.27325 -0.351445 8.86979e-20)
(1.23524 -0.341073 -1.77875e-19)
(1.19808 -0.332583 1.41607e-20)
(1.15787 -0.30374 6.00683e-20)
(1.13128 -0.302554 1.73036e-19)
(1.10167 -0.283451 -1.28969e-19)
(1.2811 -0.298356 -1.42673e-19)
(1.24491 -0.289508 4.43774e-20)
(1.2181 -0.281455 1.97151e-19)
(1.18682 -0.273201 -7.53362e-20)
(1.1604 -0.254063 2.74595e-20)
(1.1192 -0.245809 -6.50505e-21)
(1.20216 -0.225185 -1.48987e-19)
(1.17397 -0.215243 6.08931e-20)
(1.14169 -0.210079 4.10813e-20)
(0.228318 0.959851 4.4617e-20)
(0.25825 0.833579 -5.15748e-20)
(0.287492 0.647939 5.11595e-22)
(0.317087 0.426586 2.25431e-20)
(0.383364 0.164851 -3.34651e-20)
(0.4121 -0.0596173 -2.24941e-20)
(0.443785 -0.277683 5.79836e-20)
(0.5638 -0.595462 -4.18865e-20)
(0.675155 -0.940297 4.67607e-20)
(0.74125 -1.17988 3.58198e-20)
(0.728055 -1.27473 -2.99328e-20)
(0.69569 -1.27946 -3.01622e-20)
(0.671187 -1.24705 2.20232e-20)
(0.619977 -1.21517 1.32793e-20)
(0.60452 -1.16136 4.07407e-20)
(0.519649 -1.13186 -6.09615e-22)
(0.577134 -1.12531 -1.52716e-20)
(0.3037 0.799844 -3.86897e-20)
(0.361921 0.62469 8.6018e-21)
(0.412674 0.40433 -4.13296e-20)
(0.513136 0.122825 4.11e-21)
(0.529605 -0.105177 4.89958e-20)
(0.606929 -0.361986 -2.07848e-19)
(0.771927 -0.715023 8.00036e-20)
(0.895884 -1.02822 4.2891e-20)
(0.931388 -1.20496 -1.57889e-19)
(0.883744 -1.25533 3.02023e-20)
(0.842519 -1.23785 1.01599e-20)
(0.799928 -1.1854 -6.16891e-20)
(0.732143 -1.12202 -1.87282e-19)
(0.693653 -1.07361 1.44107e-20)
(0.624218 -1.08639 2.86477e-20)
(0.630645 -1.0429 3.86952e-20)
(0.327444 0.744399 2.41573e-19)
(0.377032 0.593307 -7.8482e-20)
(0.481796 0.354987 -1.35265e-19)
(0.57958 0.0936615 6.06059e-20)
(0.607668 -0.126456 1.17475e-19)
(0.780963 -0.429976 -1.71378e-19)
(0.986648 -0.778254 3.56425e-20)
(1.08988 -1.02286 2.42298e-19)
(1.07838 -1.13137 -2.70156e-19)
(1.01556 -1.14856 1.27217e-20)
(0.960778 -1.13539 9.26475e-20)
(0.90397 -1.09775 2.17929e-20)
(0.831217 -1.05028 3.91382e-21)
(0.798517 -0.99508 2.1888e-19)
(0.726238 -1.00098 -1.68036e-19)
(0.679249 -0.932215 7.16304e-20)
(0.287487 0.672256 6.04041e-20)
(0.343795 0.526215 -1.75425e-19)
(0.504248 0.281212 1.52084e-19)
(0.542206 0.0737594 5.27621e-20)
(0.699358 -0.20123 -2.94268e-20)
(0.986782 -0.558839 4.65563e-20)
(1.18284 -0.855669 2.06516e-19)
(1.229 -1.01458 1.42252e-20)
(1.17785 -1.07647 -2.50911e-19)
(1.11394 -1.07792 -7.56801e-20)
(1.04269 -1.04991 -2.6616e-20)
(0.970907 -0.998521 8.56554e-20)
(0.89352 -0.971569 1.07834e-19)
(0.854984 -0.91018 4.01123e-20)
(0.782575 -0.88015 -1.37278e-19)
(0.732416 -0.847248 1.13162e-19)
(0.15396 0.577818 5.5196e-20)
(0.314267 0.388704 -3.85575e-19)
(0.379592 0.219087 5.3418e-19)
(0.538699 -0.0281372 -2.8316e-19)
(0.910142 -0.376212 -2.97131e-19)
(1.20596 -0.677683 2.56657e-19)
(1.32078 -0.853972 -2.08549e-19)
(1.30152 -0.929563 3.81238e-20)
(1.2385 -0.953327 -1.15266e-19)
(1.16812 -0.942674 1.24704e-19)
(1.08337 -0.926883 8.47568e-20)
(1.01023 -0.892437 1.88463e-19)
(0.939106 -0.87601 -1.0099e-19)
(0.896538 -0.843851 -3.32958e-20)
(0.819863 -0.795912 -1.11959e-19)
(0.783186 -0.751519 2.61628e-19)
(0.119763 0.285389 -3.50551e-19)
(0.334452 0.062306 8.92547e-22)
(0.796765 -0.276104 1.47456e-19)
(1.18228 -0.557125 9.41573e-20)
(1.35903 -0.728472 -2.72783e-19)
(1.38132 -0.815047 1.64417e-20)
(1.33068 -0.859294 -2.53018e-19)
(1.26934 -0.872016 4.46335e-19)
(1.18427 -0.856568 -1.5928e-19)
(1.11484 -0.833738 -1.86414e-19)
(1.0487 -0.806864 -3.85984e-21)
(0.989633 -0.781977 -1.10889e-19)
(0.949964 -0.747933 1.31127e-19)
(0.866662 -0.738635 6.83852e-20)
(0.851162 -0.648788 -1.135e-19)
(0.694195 -0.239299 -5.26903e-20)
(1.13871 -0.481067 3.69589e-19)
(1.35868 -0.624125 6.32133e-19)
(1.42013 -0.700051 -1.1756e-19)
(1.39953 -0.741212 1.30864e-19)
(1.35159 -0.754911 1.70814e-19)
(1.28682 -0.74096 -3.77635e-19)
(1.20879 -0.733229 -8.10251e-21)
(1.16122 -0.719224 4.48451e-19)
(1.09634 -0.702401 -3.09593e-20)
(1.05572 -0.694617 -2.33341e-19)
(0.990324 -0.641711 1.8854e-19)
(0.923437 -0.65093 -8.62618e-20)
(0.902539 -0.591205 -2.85111e-21)
(1.34002 -0.540336 7.42041e-20)
(1.43877 -0.611616 3.23585e-19)
(1.45184 -0.652419 -5.32608e-19)
(1.41658 -0.672016 -2.57338e-19)
(1.36155 -0.6743 -1.56665e-19)
(1.29426 -0.673462 2.69889e-20)
(1.24993 -0.665184 -1.81911e-19)
(1.2017 -0.646581 -1.58314e-19)
(1.1408 -0.623693 1.72324e-20)
(1.10388 -0.598245 2.92208e-19)
(1.03995 -0.569236 -1.27614e-19)
(1.00078 -0.54002 -4.42459e-20)
(0.972297 -0.519773 4.08051e-20)
(1.49036 -0.579116 7.99839e-20)
(1.46653 -0.592301 1.19593e-19)
(1.42555 -0.59138 2.81491e-20)
(1.37441 -0.584326 -2.77418e-20)
(1.32439 -0.581387 1.03959e-19)
(1.2781 -0.567849 2.00441e-20)
(1.21807 -0.557917 -1.2555e-19)
(1.17235 -0.547576 5.15776e-20)
(1.11882 -0.518606 1.66772e-19)
(1.07336 -0.496287 -2.44734e-19)
(1.04945 -0.496316 2.31202e-19)
(1.02396 -0.419376 -1.88929e-19)
(1.46992 -0.515094 -1.02447e-19)
(1.42502 -0.515138 -1.21431e-19)
(1.37525 -0.518109 3.68513e-19)
(1.33478 -0.51111 -2.43087e-19)
(1.2786 -0.503162 7.73961e-20)
(1.23169 -0.491852 -1.36238e-19)
(1.18728 -0.474339 1.31434e-19)
(1.15314 -0.468972 -1.32437e-19)
(1.11006 -0.444372 1.5287e-19)
(1.08043 -0.432628 8.23688e-20)
(1.03612 -0.395465 2.78899e-20)
(0.448236 -1.17892 1.79069e-20)
(0.408145 -1.20368 -4.27183e-21)
(0.342747 -1.02414 7.5917e-21)
(0.386496 -0.543283 7.34186e-21)
(0.440763 0.0305132 -1.99159e-20)
(0.493787 0.534628 5.99729e-21)
(0.553681 0.836459 3.6214e-21)
(0.638315 0.98246 -6.49808e-21)
(0.679673 0.987176 3.25516e-21)
(0.740664 0.944388 -8.482e-21)
(0.762609 0.928581 9.12145e-22)
(0.752103 0.950793 1.26763e-24)
(0.733772 1.01723 4.16548e-21)
(0.692194 1.00209 4.34425e-21)
(0.597214 0.921667 -3.92563e-21)
(0.581434 0.631361 -7.19939e-22)
(0.513823 0.193325 -1.03924e-21)
(0.52915 -0.304916 -4.78724e-21)
(0.547454 -0.670847 8.23468e-21)
(0.584116 -0.819776 -3.164e-21)
(0.470668 -1.03869 -1.0113e-20)
(0.387359 -1.08849 -2.69752e-20)
(0.257629 -0.971078 -4.60322e-21)
(0.227322 -0.571054 3.25943e-20)
(0.247613 -0.07056 2.56688e-20)
(0.3292 0.408625 -1.25023e-20)
(0.414895 0.709899 -8.22005e-21)
(0.535553 0.901476 2.30646e-20)
(0.621309 0.938661 -2.52704e-20)
(0.700142 0.920673 -1.47937e-20)
(0.763659 0.926819 3.84054e-21)
(0.790445 0.959354 2.60765e-20)
(0.794613 1.04102 -2.09708e-20)
(0.805565 1.04256 -2.77955e-20)
(0.741664 0.968427 4.76413e-20)
(0.749147 0.680689 -2.66253e-20)
(0.735557 0.215658 -3.82439e-21)
(0.709243 -0.312474 4.24332e-20)
(0.719636 -0.719838 -5.387e-20)
(0.690112 -0.869551 2.12569e-20)
(0.540673 -0.913748 -7.07439e-20)
(0.424015 -0.973591 1.11617e-20)
(0.260112 -0.908932 1.54716e-20)
(0.177735 -0.596751 -2.5691e-20)
(0.156375 -0.184859 1.63042e-20)
(0.239713 0.268815 -1.19086e-20)
(0.338959 0.566346 3.83124e-20)
(0.457312 0.784091 -3.88505e-21)
(0.576799 0.857017 7.41998e-21)
(0.672566 0.854737 -5.41843e-21)
(0.758942 0.895583 -3.11092e-20)
(0.830934 0.947789 2.37314e-21)
(0.864728 1.03756 -1.75552e-20)
(0.928913 1.09219 3.1009e-20)
(0.920655 1.03423 -2.7781e-20)
(0.937569 0.753236 4.88318e-20)
(0.969016 0.290588 6.39683e-20)
(0.920821 -0.241065 -6.65016e-20)
(0.924254 -0.680837 -4.65071e-20)
(0.818191 -0.857259 2.37047e-20)
(0.634604 -0.813112 -8.20982e-20)
(0.51612 -0.822853 3.94767e-20)
(0.345801 -0.826228 5.16919e-20)
(0.219746 -0.638665 -3.53236e-20)
(0.179064 -0.309938 3.45751e-20)
(0.213486 0.0981867 -4.72361e-20)
(0.315496 0.415624 3.47434e-20)
(0.411908 0.649359 -1.07922e-21)
(0.541666 0.752664 -3.27806e-20)
(0.652403 0.764586 8.58283e-21)
(0.743632 0.80428 1.4536e-20)
(0.87104 0.863081 -2.03313e-20)
(0.94278 0.964834 1.61416e-20)
(1.02456 1.04825 1.68276e-20)
(1.08448 1.03679 3.7871e-20)
(1.11709 0.829122 -8.97989e-20)
(1.17124 0.379574 2.08666e-20)
(1.12762 -0.177025 -1.72117e-20)
(1.10811 -0.637041 6.92461e-20)
(0.976385 -0.831546 -2.05492e-20)
(0.674661 -0.74185 -1.783e-19)
(0.595265 -0.684154 6.26803e-21)
(0.466276 -0.688524 1.33404e-19)
(0.319467 -0.620086 -9.00762e-20)
(0.251271 -0.403098 -5.91865e-21)
(0.239989 -0.0639474 2.56456e-20)
(0.31494 0.244871 1.9554e-21)
(0.399771 0.491475 -8.29102e-21)
(0.505571 0.625612 -3.0671e-20)
(0.627635 0.667289 1.65933e-20)
(0.721604 0.701251 1.46084e-20)
(0.860935 0.763248 -3.36197e-21)
(0.98496 0.866844 3.91122e-20)
(1.10878 0.979463 4.36947e-20)
(1.23149 1.01311 -6.10642e-20)
(1.2562 0.844318 -5.64875e-20)
(1.32143 0.469085 1.17363e-20)
(1.31898 -0.0288532 -2.29299e-20)
(1.2657 -0.498723 8.07589e-20)
(1.14163 -0.742391 -6.00011e-20)
(0.735954 -0.670555 1.19071e-19)
(0.662325 -0.61147 -3.10547e-20)
(0.576084 -0.559615 3.73357e-20)
(0.45259 -0.539595 -1.46679e-20)
(0.340922 -0.448328 -4.35404e-20)
(0.294552 -0.194206 2.54965e-20)
(0.313783 0.0870374 -1.12771e-20)
(0.398267 0.34541 2.90818e-20)
(0.483811 0.497547 -3.81212e-20)
(0.602918 0.548001 1.12852e-20)
(0.694614 0.571188 -1.81948e-20)
(0.810236 0.599076 6.78498e-21)
(0.980605 0.689807 1.20774e-20)
(1.11607 0.823819 2.8065e-20)
(1.28071 0.939201 2.12855e-20)
(1.37444 0.886786 -2.62394e-20)
(1.46284 0.565795 2.10749e-20)
(1.48607 0.0854391 3.41777e-20)
(1.40349 -0.385453 -1.62079e-20)
(1.28766 -0.654951 -1.27e-19)
(0.814835 -0.58109 -8.74148e-21)
(0.725415 -0.572916 -3.55044e-20)
(0.661649 -0.506835 1.05562e-21)
(0.574145 -0.441373 -2.65607e-20)
(0.458488 -0.407003 2.65242e-20)
(0.364539 -0.272361 1.11951e-20)
(0.342397 -0.0575804 -5.97671e-21)
(0.39615 0.181085 -1.48639e-21)
(0.470698 0.378468 -1.46382e-22)
(0.567121 0.472627 -8.14045e-22)
(0.675626 0.511173 1.41443e-21)
(0.767292 0.500602 -2.52732e-21)
(0.918685 0.541014 -1.47589e-20)
(1.07413 0.652426 2.0478e-20)
(1.2894 0.787048 -7.44401e-20)
(1.40072 0.803875 1.00572e-20)
(1.4739 0.597229 4.55969e-20)
(1.54103 0.245147 1.01744e-19)
(1.46897 -0.177543 -5.1242e-20)
(1.38175 -0.48149 -1.0401e-19)
(1.19308 -0.607137 4.54258e-20)
(0.894834 -0.516437 -9.40189e-20)
(0.814016 -0.487323 4.16942e-20)
(0.746213 -0.476369 2.90627e-20)
(0.672177 -0.410359 -3.30122e-20)
(0.593185 -0.348934 1.49625e-20)
(0.472703 -0.279524 -2.87319e-21)
(0.40603 -0.141022 -2.66124e-21)
(0.393459 0.0445788 -1.0598e-21)
(0.460227 0.230003 -9.68677e-23)
(0.53698 0.330169 -1.54096e-21)
(0.63287 0.398585 -2.2932e-21)
(0.702325 0.397568 -8.87781e-22)
(0.842898 0.394018 6.11553e-21)
(1.01156 0.465404 1.62994e-20)
(1.18181 0.642596 -1.31644e-20)
(1.33337 0.763304 4.00176e-20)
(1.48231 0.613653 -3.45843e-20)
(1.55675 0.302857 -3.29258e-21)
(1.50086 -0.0682805 1.49242e-22)
(1.42494 -0.38441 -9.7341e-21)
(1.26852 -0.514423 1.71499e-21)
(0.947892 -0.468796 3.04364e-20)
(0.892265 -0.446839 4.78148e-20)
(0.824651 -0.414857 -1.30647e-21)
(0.735568 -0.380967 5.42237e-21)
(0.678057 -0.307284 -6.81603e-22)
(0.594565 -0.246777 -5.11339e-21)
(0.5287 -0.172608 -6.9373e-22)
(0.474522 -0.0301181 1.13466e-20)
(0.485977 0.159911 -1.89142e-20)
(0.518299 0.289558 8.38821e-21)
(0.612666 0.367248 -9.47786e-23)
(0.692716 0.345673 -2.18001e-22)
(0.816917 0.276819 -6.20467e-21)
(0.938911 0.286909 1.8412e-20)
(1.0965 0.427633 -2.14173e-20)
(1.29974 0.602309 1.19482e-20)
(1.39923 0.604041 1.64322e-20)
(1.53455 0.442087 9.63032e-21)
(1.56866 0.128864 -5.87599e-20)
(1.47833 -0.213595 3.71696e-20)
(1.34826 -0.382859 -3.25758e-20)
(0.977381 -0.39098 1.68925e-21)
(0.942708 -0.398203 2.14216e-21)
(0.900579 -0.380556 2.85537e-20)
(0.825832 -0.367786 -3.48933e-20)
(0.760866 -0.330975 -1.67459e-20)
(0.702432 -0.263716 1.17518e-20)
(0.64362 -0.208866 1.54368e-21)
(0.577286 -0.138538 -7.35548e-22)
(0.568059 0.00341473 -8.88471e-21)
(0.592615 0.145956 1.24242e-20)
(0.648584 0.271262 -5.31291e-21)
(0.683274 0.3144 -4.20914e-21)
(0.751553 0.263394 3.70226e-21)
(0.839246 0.218673 9.1067e-22)
(0.954017 0.269863 -1.46276e-20)
(1.10053 0.463156 1.36767e-20)
(1.23871 0.534023 1.69784e-20)
(1.42131 0.433642 -1.60048e-20)
(1.40899 0.227918 -1.39103e-20)
(1.36963 -0.0580676 2.77974e-20)
(1.33225 -0.253377 3.27191e-21)
(1.0106 -0.348783 0)
(0.9889 -0.330301 0)
(0.951365 -0.295474 0)
(0.890827 -0.265717 0)
(0.837523 -0.245603 0)
(0.793921 -0.195404 0)
(0.762418 -0.143237 0)
(0.704647 -0.10257 0)
(0.678235 -0.022565 0)
(0.692882 0.0862101 0)
(0.725945 0.223669 0)
(0.74117 0.273543 0)
(0.796483 0.204451 0)
(0.846825 0.137301 0)
(0.915456 0.164444 0)
(1.08388 0.333381 0)
(1.21619 0.416648 0)
(1.32077 0.396557 0)
(1.33017 0.277807 0)
(1.35958 -0.016247 0)
(1.31474 -0.180586 0)
(1.24246 -0.27665 0)
(1.01532 -0.285645 0)
(0.981753 -0.283409 0)
(0.952166 -0.269719 0)
(0.902424 -0.247541 0)
(0.849966 -0.228149 0)
(0.790137 -0.18066 0)
(0.773905 -0.136647 0)
(0.744012 -0.0778607 0)
(0.731807 -0.00168903 0)
(0.717221 0.0911701 0)
(0.769649 0.209568 0)
(0.808756 0.252373 0)
(0.891544 0.179384 0)
(0.893972 0.126012 0)
(0.916867 0.116389 0)
(1.01365 0.282853 0)
(1.06664 0.391425 0)
(1.17141 0.397713 0)
(1.26413 0.265388 0)
(1.32674 -0.036862 0)
(1.25672 -0.157023 0)
(1.22274 -0.272101 0)
(1.01262 -0.243084 0)
(0.993695 -0.235006 0)
(0.959467 -0.227084 0)
(0.918146 -0.201279 0)
(0.87959 -0.183598 0)
(0.835503 -0.129257 0)
(0.819978 -0.100007 0)
(0.782834 -0.0635464 0)
(0.782334 -0.00288901 0)
(0.755892 0.07682 0)
(0.817077 0.163796 0)
(0.856594 0.209511 0)
(0.95039 0.149474 0)
(0.948776 0.131478 0)
(0.923866 0.117237 0)
(0.942091 0.288217 0)
(0.97186 0.364142 0)
(1.10533 0.302719 0)
(1.25291 0.209097 0)
(1.30063 -0.0423236 0)
(1.25849 -0.126404 0)
(1.23942 -0.188273 0)
(1.00658 -0.203549 0)
(0.992589 -0.196535 0)
(0.961808 -0.194366 0)
(0.932224 -0.167455 0)
(0.896879 -0.15601 0)
(0.858974 -0.110475 0)
(0.851224 -0.0851889 0)
(0.822602 -0.0454566 0)
(0.825059 0.00395776 0)
(0.803309 0.0661846 0)
(0.859175 0.126612 0)
(0.889628 0.167185 0)
(0.960421 0.112095 0)
(0.971757 0.145995 0)
(0.931876 0.126473 0)
(0.943061 0.25722 0)
(1.01752 0.286274 0)
(1.12358 0.213273 0)
(1.261 0.161763 0)
(1.2893 -0.0410704 0)
(1.22855 -0.0879814 0)
(1.14999 -0.198823 0)
(1.0028 -0.170546 0)
(0.99541 -0.160293 0)
(0.969338 -0.16166 0)
(0.944996 -0.135256 0)
(0.917315 -0.12901 0)
(0.883701 -0.0888539 0)
(0.878455 -0.0660186 0)
(0.854185 -0.0330959 0)
(0.861537 0.00440298 0)
(0.849226 0.0564891 0)
(0.879241 0.0867119 0)
(0.9249 0.138039 0)
(0.94279 0.088075 0)
(0.97342 0.143359 0)
(0.956892 0.125303 0)
(0.981008 0.208385 0)
(1.08631 0.236937 0)
(1.13134 0.145649 0)
(1.24588 0.127802 0)
(1.22397 -0.0454251 0)
(1.20955 -0.0547355 0)
(1.15219 -0.14088 0)
(1.00272 -0.139025 0)
(0.996124 -0.12748 0)
(0.979056 -0.130011 0)
(0.95583 -0.108932 0)
(0.936294 -0.103397 0)
(0.906573 -0.0718779 0)
(0.902756 -0.0544514 0)
(0.884627 -0.0204179 0)
(0.888292 -0.000583285 0)
(0.888703 0.0518613 0)
(0.898272 0.0579417 0)
(0.941174 0.114675 0)
(0.942949 0.0768151 0)
(0.980369 0.129643 0)
(0.980773 0.120799 0)
(1.0073 0.164263 0)
(1.10289 0.185442 0)
(1.11993 0.0997658 0)
(1.20933 0.108433 0)
(1.18779 -0.0318346 0)
(1.19347 -0.0196543 0)
(1.12051 -0.141272 0)
(1.00303 -0.112551 0)
(0.993557 -0.101789 0)
(0.986911 -0.105704 0)
(0.963307 -0.0873573 0)
(0.95389 -0.0837077 0)
(0.928272 -0.0563303 0)
(0.924781 -0.0451504 0)
(0.912694 -0.0118233 0)
(0.913403 -0.00304816 0)
(0.918694 0.0463638 0)
(0.922126 0.0394843 0)
(0.950476 0.0967299 0)
(0.95994 0.0651971 0)
(0.978456 0.111273 0)
(1.00767 0.108888 0)
(1.01319 0.115083 0)
(1.09885 0.152816 0)
(1.10523 0.0666842 0)
(1.16083 0.0951401 0)
(1.15983 -0.0420084 0)
(1.14185 -0.0222383 0)
(1.14546 -0.0807871 0)
(1.00228 -0.0905027 0)
(0.994455 -0.0812169 0)
(0.99138 -0.0854763 0)
(0.973374 -0.0685914 0)
(0.966586 -0.0681741 0)
(0.947375 -0.0426434 0)
(0.944001 -0.0393447 0)
(0.93622 -0.00461619 0)
(0.937262 -0.00556936 0)
(0.941123 0.0392477 0)
(0.945886 0.0294238 0)
(0.959277 0.0754205 0)
(0.978395 0.0575605 0)
(0.98186 0.0888615 0)
(1.02485 0.0898998 0)
(1.01778 0.088689 0)
(1.08628 0.115519 0)
(1.0895 0.0424309 0)
(1.12907 0.0769307 0)
(1.14433 -0.0270442 0)
(1.10811 0.00012933 0)
(1.11077 -0.0763932 0)
(1.0052 -0.0708628 0)
(0.998838 -0.0633285 0)
(0.998243 -0.0675453 0)
(0.983267 -0.0537603 0)
(0.978238 -0.0552665 0)
(0.962377 -0.0335665 0)
(0.961692 -0.0333406 0)
(0.95309 -0.0028186 0)
(0.959507 -0.00647643 0)
(0.955549 0.0316595 0)
(0.9704 0.021506 0)
(0.967049 0.0604719 0)
(0.997388 0.0468046 0)
(0.987086 0.0709549 0)
(1.03383 0.0734135 0)
(1.02103 0.0624909 0)
(1.07571 0.0904838 0)
(1.079 0.0280889 0)
(1.09462 0.0611981 0)
(1.11965 -0.0257459 0)
(1.0764 -0.00513075 0)
(1.11142 -0.048546 0)
(1.00992 -0.0536208 0)
(1.00679 -0.0480038 0)
(1.00515 -0.0527177 0)
(0.994257 -0.0415729 0)
(0.990405 -0.0446207 0)
(0.976762 -0.026299 0)
(0.978272 -0.0283666 0)
(0.967541 -0.00275069 0)
(0.978823 -0.00681714 0)
(0.968582 0.0239971 0)
(0.989343 0.0163756 0)
(0.975889 0.0464721 0)
(1.01112 0.0372606 0)
(0.992364 0.0560761 0)
(1.03979 0.0550337 0)
(1.0226 0.05055 0)
(1.06468 0.0635896 0)
(1.06553 0.0221146 0)
(1.07319 0.0448004 0)
(1.09815 -0.0158454 0)
(1.05971 0.00638793 0)
(1.0868 -0.0404949 0)
(1.01522 -0.0386331 0)
(1.01397 -0.0364546 0)
(1.01361 -0.0384979 0)
(1.00522 -0.0319726 0)
(1.00349 -0.0333907 0)
(0.989971 -0.0209794 0)
(0.993966 -0.0226198 0)
(0.980893 -0.00301753 0)
(0.995102 -0.00721948 0)
(0.979936 0.0181071 0)
(1.00321 0.00985445 0)
(0.984907 0.036795 0)
(1.01907 0.0264169 0)
(0.999301 0.0451064 0)
(1.0391 0.0408705 0)
(1.02299 0.0385582 0)
(1.05424 0.0470682 0)
(1.05384 0.0175198 0)
(1.05611 0.0343797 0)
(1.07651 -0.00965753 0)
(1.04183 0.0035496 0)
(1.0748 -0.0290328 0)
(1.0192 -0.0269977 0)
(1.02108 -0.0271119 0)
(1.01943 -0.0271077 0)
(1.01547 -0.0238545 0)
(1.01185 -0.0242293 0)
(1.00317 -0.0161834 0)
(1.00393 -0.0171759 0)
(0.995031 -0.00286202 0)
(1.00448 -0.00633372 0)
(0.992846 0.0131954 0)
(1.01042 0.00631381 0)
(0.994513 0.0282976 0)
(1.02206 0.0186462 0)
(1.00391 0.0366895 0)
(1.03701 0.0279803 0)
(1.02074 0.0341665 0)
(1.04698 0.0312256 0)
(1.04097 0.019538 0)
(1.04622 0.0228539 0)
(1.05631 -0.00260286 0)
(1.03726 0.00598636 0)
(1.05647 -0.0220051 0)
(1.02075 -0.0186899 0)
(1.02386 -0.0206764 0)
(1.02292 -0.0187597 0)
(1.02102 -0.0183906 0)
(1.01792 -0.0170381 0)
(1.01154 -0.0124462 0)
(1.01199 -0.0121684 0)
(1.00469 -0.0021324 0)
(1.01205 -0.00479545 0)
(1.00199 0.0104137 0)
(1.01516 0.00392574 0)
(1.00196 0.0225269 0)
(1.02216 0.0129672 0)
(1.00851 0.0299438 0)
(1.0322 0.0200945 0)
(1.02024 0.0289819 0)
(1.03902 0.0223407 0)
(1.03289 0.0186677 0)
(1.03903 0.0166006 0)
(1.04313 0.00234075 0)
(1.03259 0.00471218 0)
(1.04547 -0.0153884 0)
(1.02041 -0.0125156 0)
(1.02482 -0.0161455 0)
(1.0228 -0.0124663 0)
(1.02376 -0.014035 0)
(1.01974 -0.0109322 0)
(1.01779 -0.00893259 0)
(1.0148 -0.00765421 0)
(1.01251 -0.000913363 0)
(1.01417 -0.00284145 0)
(1.01031 0.0089932 0)
(1.01575 0.00285411 0)
(1.00935 0.0190957 0)
(1.02022 0.00865342 0)
(1.01288 0.0261965 0)
(1.0279 0.0127791 0)
(1.02014 0.02721 0)
(1.03381 0.0136468 0)
(1.02764 0.0202923 0)
(1.0352 0.0103464 0)
(1.03377 0.0060192 0)
(1.03238 0.00440124 0)
(1.03572 -0.0119325 0)
(1.01856 -0.00865559 0)
(1.02365 -0.0122298 0)
(1.02096 -0.00835899 0)
(1.02488 -0.0100389 0)
(1.01888 -0.00709247 0)
(1.0204 -0.00611454 0)
(1.01434 -0.00495551 0)
(1.01698 0.000218978 0)
(1.01392 -0.0015044 0)
(1.01584 0.00815598 0)
(1.01492 0.00249059 0)
(1.01476 0.0161577 0)
(1.01794 0.00645712 0)
(1.01661 0.0219409 0)
(1.02456 0.00940562 0)
(1.02075 0.0230532 0)
(1.03082 0.0101998 0)
(1.02419 0.0178603 0)
(1.0343 0.00826703 0)
(1.02717 0.00647084 0)
(1.03432 0.0046839 0)
(1.02889 -0.00861008 0)
(1.0174 -0.00588345 0)
(1.02326 -0.00893823 0)
(1.02002 -0.00537431 0)
(1.02417 -0.00728881 0)
(1.01742 -0.00467384 0)
(1.02102 -0.00412752 0)
(1.01406 -0.00290467 0)
(1.01903 0.00104889 0)
(1.01376 -0.000350942 0)
(1.01851 0.00726716 0)
(1.01442 0.00239687 0)
(1.0175 0.013507 0)
(1.0169 0.00503072 0)
(1.01865 0.0182994 0)
(1.02272 0.00684482 0)
(1.02127 0.0194945 0)
(1.0285 0.00722471 0)
(1.02308 0.0156198 0)
(1.03227 0.00616768 0)
(1.02492 0.00637201 0)
(1.03363 0.00450417 0)
(1.0264 -0.00638583 0)
(1.0175 -0.00316088 0)
(1.02222 -0.00548918 0)
(1.01856 -0.00319781 0)
(1.02317 -0.00449121 0)
(1.01713 -0.00262996 0)
(1.02131 -0.0020219 0)
(1.0142 -0.00133434 0)
(1.01985 0.00168856 0)
(1.01383 0.000449417 0)
(1.01979 0.00614712 0)
(1.01434 0.00242452 0)
(1.01918 0.0106989 0)
(1.01637 0.00442689 0)
(1.02002 0.0141261 0)
(1.02129 0.00578306 0)
(1.02185 0.0149136 0)
(1.02652 0.00617435 0)
(1.02262 0.0120098 0)
(1.03027 0.00551568 0)
(1.02366 0.00528686 0)
(1.03218 0.00425212 0)
(1.0248 -0.00406511 0)
(1.01654 -0.00119278 0)
(1.02091 -0.00292039 0)
(1.0185 -0.00117312 0)
(1.02269 -0.00210362 0)
(1.01742 -0.000852664 0)
(1.021 -0.000590877 0)
(1.01493 -0.00013318 0)
(1.02004 0.00189464 0)
(1.01475 0.00106342 0)
(1.02024 0.0050186 0)
(1.01516 0.00242455 0)
(1.01985 0.0082484 0)
(1.01656 0.00373875 0)
(1.02049 0.0107039 0)
(1.02054 0.00465059 0)
(1.02208 0.0113808 0)
(1.02461 0.00486573 0)
(1.02254 0.00937572 0)
(1.02756 0.00446287 0)
(1.02331 0.0045917 0)
(1.02929 0.00363397 0)
(1.02427 -0.00217748 0)
(1.01692 0.000302962 0)
(1.02078 -0.000746891 0)
(1.01868 0.000377353 0)
(1.02198 -0.000404926 0)
(1.01771 0.000354109 0)
(1.02077 0.000431619 0)
(1.01586 0.000773432 0)
(1.02021 0.00202297 0)
(1.01587 0.00153956 0)
(1.02052 0.00403241 0)
(1.01612 0.00241479 0)
(1.02008 0.00612696 0)
(1.017 0.00327792 0)
(1.02065 0.00782571 0)
(1.02006 0.00392395 0)
(1.0218 0.0083091 0)
(1.02305 0.00404783 0)
(1.02201 0.00705435 0)
(1.02519 0.00375423 0)
(1.02256 0.00392953 0)
(1.02659 0.00311251 0)
(1.0234 -0.000611036 0)
(1.01719 0.00166396 0)
(1.02012 0.000734476 0)
(1.01854 0.00144923 0)
(1.02128 0.000758198 0)
(1.0181 0.00131282 0)
(1.02051 0.00120366 0)
(1.01678 0.00146423 0)
(1.02017 0.00215775 0)
(1.01686 0.00182523 0)
(1.02045 0.00339614 0)
(1.01697 0.0022551 0)
(1.02003 0.00474429 0)
(1.01748 0.00275133 0)
(1.02039 0.00591542 0)
(1.0196 0.00310546 0)
(1.0213 0.00628854 0)
(1.02163 0.00318676 0)
(1.02139 0.00552393 0)
(1.02293 0.00305641 0)
(1.02187 0.00346129 0)
(1.02399 0.00274806 0)
(1.0226 0.000310872 0)
(1.01674 0.0023532 0)
(1.01934 0.00164445 0)
(1.01833 0.00211875 0)
(1.02062 0.00154797 0)
(1.0182 0.00189476 0)
(1.02004 0.00168078 0)
(1.01725 0.00184593 0)
(1.01982 0.00217463 0)
(1.01744 0.00194896 0)
(1.02009 0.00289326 0)
(1.0175 0.00212077 0)
(1.01967 0.00375059 0)
(1.01775 0.00238993 0)
(1.0199 0.00452951 0)
(1.01924 0.00259981 0)
(1.0206 0.00482234 0)
(1.02052 0.00266659 0)
(1.02061 0.00437249 0)
(1.02117 0.00263411 0)
(1.02108 0.00307055 0)
(1.02184 0.00248552 0)
(1.02178 0.000949451 0)
(1.0166 0.00271328 0)
(1.01872 0.00218362 0)
(1.01802 0.00248237 0)
(1.01978 0.00197964 0)
(1.01802 0.0021748 0)
(1.01938 0.00192604 0)
(1.01739 0.00201013 0)
(1.01929 0.00216303 0)
(1.01764 0.00197194 0)
(1.01956 0.0025829 0)
(1.01769 0.00199403 0)
(1.01923 0.0031414 0)
(1.01773 0.00211089 0)
(1.01934 0.00367604 0)
(1.0187 0.00223679 0)
(1.01993 0.00390685 0)
(1.01944 0.0023114 0)
(1.01989 0.00361548 0)
(1.01968 0.00237677 0)
(1.02031 0.00273273 0)
(1.02013 0.00236345 0)
(1.02094 0.00123018 0)
(1.01631 0.00286295 0)
(1.01792 0.00242321 0)
(1.01749 0.00259738 0)
(1.01883 0.00215401 0)
(1.01761 0.00228407 0)
(1.0186 0.00200793 0)
(1.01721 0.00208583 0)
(1.01863 0.00208915 0)
(1.0175 0.00198141 0)
(1.01891 0.00230762 0)
(1.0175 0.00191426 0)
(1.01861 0.00264617 0)
(1.01738 0.00194282 0)
(1.01874 0.00304246 0)
(1.01809 0.00203026 0)
(1.01926 0.00324113 0)
(1.01848 0.00208262 0)
(1.01923 0.00308488 0)
(1.01854 0.00217644 0)
(1.01962 0.00250521 0)
(1.01887 0.00220481 0)
(1.02014 0.00143591 0)
(1.01585 0.00273022 0)
(1.01707 0.00241489 0)
(1.01684 0.00248857 0)
(1.01787 0.00216049 0)
(1.01701 0.00220536 0)
(1.01779 0.00198669 0)
(1.01677 0.00200656 0)
(1.01789 0.00197651 0)
(1.017 0.00187648 0)
(1.01815 0.00206785 0)
(1.01698 0.00179277 0)
(1.01799 0.0022845 0)
(1.01691 0.00183358 0)
(1.01816 0.00257923 0)
(1.01738 0.00191645 0)
(1.01857 0.00272224 0)
(1.01766 0.00198176 0)
(1.01858 0.00263859 0)
(1.01769 0.00208092 0)
(1.01889 0.00225055 0)
(1.01801 0.00209454 0)
(1.01932 0.00149275 0)
(1.01537 0.00246119 0)
(1.01631 0.00224882 0)
(1.01615 0.00226342 0)
(1.01696 0.00202794 0)
(1.01632 0.0020167 0)
(1.01695 0.00185456 0)
(1.01617 0.00183735 0)
(1.01709 0.00180509 0)
(1.01639 0.00172086 0)
(1.0174 0.00183881 0)
(1.01643 0.00165751 0)
(1.01736 0.00197695 0)
(1.01634 0.00169311 0)
(1.0175 0.00217514 0)
(1.01669 0.00176951 0)
(1.0179 0.00229187 0)
(1.01692 0.00184224 0)
(1.01794 0.00226047 0)
(1.01697 0.00193132 0)
(1.01823 0.00202879 0)
(1.01728 0.00193583 0)
(1.01859 0.00151302 0)
(1.01493 0.00208306 0)
(1.01564 0.0019464 0)
(1.01547 0.00191093 0)
(1.01612 0.00175359 0)
(1.01562 0.00170496 0)
(1.01619 0.00159676 0)
(1.01559 0.00156182 0)
(1.01638 0.00153608 0)
(1.0158 0.00147349 0)
(1.01666 0.00152699 0)
(1.01585 0.00142002 0)
(1.01667 0.00159136 0)
(1.01581 0.00145495 0)
(1.01686 0.00173154 0)
(1.0161 0.00153992 0)
(1.01721 0.00182719 0)
(1.0163 0.00160463 0)
(1.01733 0.00183471 0)
(1.01639 0.00167542 0)
(1.01762 0.00172591 0)
(1.01667 0.00165897 0)
(1.01797 0.00141191 0)
(1.01441 0.00176434 0)
(1.01499 0.00168254 0)
(1.0148 0.00163395 0)
(1.01538 0.00153899 0)
(1.01498 0.00147972 0)
(1.01551 0.00141492 0)
(1.01501 0.00136734 0)
(1.01571 0.0013518 0)
(1.0152 0.00129451 0)
(1.01597 0.00132438 0)
(1.01529 0.00125571 0)
(1.01607 0.00135774 0)
(1.01532 0.00129249 0)
(1.01627 0.00145185 0)
(1.01556 0.00136432 0)
(1.01659 0.00151794 0)
(1.01575 0.00141843 0)
(1.01676 0.00153378 0)
(1.01587 0.00146937 0)
(1.01706 0.00147738 0)
(1.01615 0.00144431 0)
(1.0174 0.00127816 0)
(1.01403 0.00114775 0)
(1.0145 0.00110994 0)
(1.01428 0.0010842 0)
(1.01477 0.00103441 0)
(1.01441 0.000999385 0)
(1.01491 0.000966164 0)
(1.01449 0.000940527 0)
(1.01512 0.000936602 0)
(1.01467 0.000907726 0)
(1.01537 0.000927412 0)
(1.01479 0.000893865 0)
(1.01552 0.000954602 0)
(1.01486 0.000929181 0)
(1.01573 0.00102539 0)
(1.01506 0.000990364 0)
(1.01603 0.00108275 0)
(1.01526 0.00103759 0)
(1.01625 0.00111115 0)
(1.01542 0.00108277 0)
(1.01656 0.00109799 0)
(1.01567 0.00107291 0)
(1.01691 0.000983099 0)
(1.01376 0.000681577 0)
(1.01417 0.000659524 0)
(1.01392 0.000639503 0)
(1.01437 0.000611811 0)
(1.01404 0.000589005 0)
(1.01453 0.000572152 0)
(1.01414 0.000557381 0)
(1.01471 0.00055591 0)
(1.01428 0.0005403 0)
(1.01492 0.000548743 0)
(1.0144 0.000532771 0)
(1.0151 0.000562824 0)
(1.01451 0.000556553 0)
(1.01532 0.00060606 0)
(1.01469 0.000597196 0)
(1.01559 0.000642935 0)
(1.01488 0.000628378 0)
(1.01586 0.00066576 0)
(1.01508 0.000658053 0)
(1.01617 0.000667865 0)
(1.01532 0.000653932 0)
(1.01652 0.000611562 0)
(1.01351 0.000367027 0)
(1.01388 0.000354473 0)
(1.01363 0.000341888 0)
(1.01406 0.000327915 0)
(1.01374 0.000314306 0)
(1.01423 0.000303936 0)
(1.01386 0.000292817 0)
(1.01442 0.000288234 0)
(1.014 0.000278189 0)
(1.01463 0.000278698 0)
(1.01414 0.000270324 0)
(1.01483 0.000278588 0)
(1.01427 0.000273891 0)
(1.01506 0.000287858 0)
(1.01445 0.000283129 0)
(1.01532 0.00029559 0)
(1.01464 0.000289953 0)
(1.01561 0.000298198 0)
(1.01486 0.000294393 0)
(1.01592 0.00029223 0)
(1.0151 0.000286158 0)
(1.01628 0.000267172 0)
(1.13332 -0.156831 -7.8068e-20)
(1.13333 -0.190886 -2.25272e-22)
(1.08347 -0.240514 -9.98898e-20)
(1.09 -0.248159 4.45546e-20)
(1.02439 -0.337759 -3.88627e-20)
(1.09164 -0.142005 2.48768e-20)
(1.11249 -0.16124 -6.06848e-20)
(1.06208 -0.214387 4.83012e-20)
(1.06491 -0.211288 2.4373e-20)
(1.02439 -0.294259 2.98505e-20)
(1.0728 -0.131008 -1.33449e-20)
(1.09367 -0.133421 1.42755e-20)
(1.05423 -0.188235 2.09085e-20)
(1.05633 -0.173171 -3.55955e-20)
(1.02589 -0.244122 -2.56937e-20)
(1.06327 -0.111038 -5.1437e-21)
(1.07466 -0.105958 7.65432e-22)
(1.04532 -0.158371 -1.01147e-20)
(1.04393 -0.143538 4.48713e-20)
(1.02168 -0.199921 3.76616e-20)
(1.05694 -0.0892019 -8.3638e-21)
(1.03458 -0.13517 -2.02926e-20)
(1.02884 -0.12402 -5.30127e-21)
(1.01623 -0.164605 -2.25983e-20)
(1.04515 -0.0723276 1.40015e-20)
(1.02815 -0.109467 2.09931e-20)
(1.0193 -0.104367 -1.03675e-20)
(1.01094 -0.132449 1.41628e-20)
(1.03875 -0.0588839 8.78438e-21)
(1.02457 -0.0853734 -6.00615e-21)
(1.016 -0.0864721 6.62199e-21)
(1.00472 -0.105974 -8.4714e-21)
(1.0354 -0.0475469 -1.21155e-20)
(1.02288 -0.0648053 6.66423e-21)
(1.01606 -0.069879 -1.50319e-21)
(1.00213 -0.0842239 3.65986e-21)
(1.03449 -0.0374766 2.96131e-21)
(1.02131 -0.048615 -5.71939e-21)
(1.0194 -0.0540384 4.02675e-21)
(1.00394 -0.0653581 -8.00928e-21)
(1.0334 -0.028326 5.83608e-21)
(1.0222 -0.0359315 -1.13288e-21)
(1.02232 -0.0398994 -2.36844e-21)
(1.01007 -0.0487562 6.54057e-21)
(1.031 -0.0208832 -3.79108e-21)
(1.02325 -0.0269713 2.99359e-21)
(1.02375 -0.0284762 -4.19088e-21)
(1.0155 -0.0361943 -3.81131e-21)
(1.02752 -0.0152999 -1.95153e-21)
(1.02315 -0.0213606 -5.83942e-23)
(1.0232 -0.0202346 3.68416e-21)
(1.01974 -0.0270092 2.967e-21)
(1.02404 -0.011507 2.14941e-21)
(1.02265 -0.0172981 -8.14545e-22)
(1.02169 -0.0147111 -1.71825e-21)
(1.02153 -0.0206939 -8.97811e-22)
(1.02157 -0.00799976 -5.97727e-22)
(1.0212 -0.0147786 -1.2806e-22)