/*--------------------------------*- C++ -*----------------------------------*\
| =========                 |                                                 |
| \\      /  F ield         | OpenFOAM: The Open Source CFD Toolbox           |
|  \\    /   O peration     | Version:                                        |
|   \\  /    A nd           | Website:  www.openfoam.com                      |
|    \\/     M anipulation  |                                                 |
\*---------------------------------------------------------------------------*/
FoamFile
{
    version     2.0;
    format      ascii;
    class       volScalarField;
    location    "0.3";
    object      p;
}
// * * * * * * * * * * * * * * * * * * * * * * * * * * * * * * * * * * * * * //

dimensions      [0 2 -2 0 0 0 0];


internalField   nonuniform List<scalar> 
400
(
0.460345
0.44916
0.438276
0.427667
0.417309
0.407182
0.397266
0.387546
0.378006
0.368633
0.359414
0.350341
0.341403
0.332593
0.323903
0.315327
0.306858
0.298493
0.290228
0.282054
0.460214
0.44904
0.438166
0.427565
0.417216
0.407096
0.397188
0.387474
0.377939
0.368571
0.359357
0.350287
0.341353
0.332546
0.323859
0.315285
0.306819
0.298457
0.290193
0.282022
0.459952
0.448801
0.437946
0.427364
0.417031
0.406927
0.397032
0.38733
0.377806
0.368448
0.359243
0.350181
0.341254
0.332454
0.323772
0.315204
0.306743
0.298385
0.290125
0.281958
0.459563
0.448444
0.437621
0.427066
0.416759
0.406677
0.396802
0.387119
0.377611
0.368267
0.359076
0.350026
0.34111
0.332319
0.323647
0.315086
0.306633
0.298281
0.290027
0.281865
0.459049
0.447976
0.437193
0.426676
0.416402
0.406351
0.396504
0.386844
0.377359
0.368035
0.358861
0.349827
0.340925
0.332147
0.323486
0.314936
0.306492
0.298148
0.289902
0.281748
0.458418
0.447402
0.436671
0.426202
0.415971
0.405957
0.396144
0.386515
0.377057
0.367757
0.358605
0.34959
0.340705
0.331943
0.323296
0.314758
0.306325
0.297992
0.289755
0.28161
0.45768
0.446734
0.436067
0.425655
0.415474
0.405506
0.395734
0.386141
0.376714
0.367443
0.358316
0.349324
0.340459
0.331714
0.323083
0.31456
0.306141
0.297819
0.289593
0.281457
0.456852
0.445988
0.435395
0.425049
0.414928
0.405012
0.395285
0.385733
0.376343
0.367103
0.358004
0.349037
0.340195
0.33147
0.322857
0.31435
0.305944
0.297636
0.289421
0.281295
0.455956
0.445186
0.434677
0.424405
0.414348
0.40449
0.394814
0.385307
0.375956
0.36675
0.357682
0.348742
0.339923
0.331219
0.322625
0.314134
0.305744
0.297449
0.289246
0.281131
0.45502
0.444354
0.433936
0.423743
0.413757
0.40396
0.394337
0.384876
0.375566
0.366397
0.357359
0.348447
0.339652
0.33097
0.322395
0.313922
0.305546
0.297265
0.289074
0.280971
0.45408
0.443522
0.433199
0.423089
0.413174
0.403439
0.393871
0.384457
0.375187
0.366054
0.357048
0.348162
0.339392
0.330731
0.322174
0.313718
0.305357
0.297089
0.288911
0.280818
0.453168
0.44272
0.432492
0.422464
0.41262
0.402946
0.39343
0.384061
0.374831
0.365731
0.356755
0.347896
0.339148
0.330507
0.321969
0.313528
0.305181
0.296926
0.288759
0.280677
0.452318
0.441975
0.431837
0.421886
0.412109
0.402491
0.393024
0.383697
0.374503
0.365435
0.356486
0.347651
0.338925
0.330302
0.32178
0.313354
0.305021
0.296777
0.28862
0.280548
0.45155
0.441304
0.431248
0.421367
0.411649
0.402082
0.392658
0.383369
0.374208
0.365167
0.356243
0.347429
0.338721
0.330116
0.321608
0.313195
0.304874
0.296641
0.288494
0.280431
0.450873
0.440712
0.430727
0.420907
0.41124
0.401718
0.392331
0.383075
0.373941
0.364925
0.356022
0.347227
0.338536
0.329945
0.32145
0.313049
0.304739
0.296516
0.288378
0.280323
0.450283
0.440192
0.430268
0.420499
0.410875
0.40139
0.392036
0.382807
0.373697
0.364702
0.355818
0.347039
0.338362
0.329784
0.321302
0.312911
0.30461
0.296396
0.288267
0.28022
0.449761
0.43973
0.429856
0.420129
0.410542
0.401089
0.391762
0.382556
0.373467
0.364491
0.355622
0.346858
0.338194
0.329628
0.321156
0.312775
0.304484
0.296278
0.288156
0.280116
0.449274
0.439293
0.429463
0.419773
0.410219
0.400793
0.39149
0.382306
0.373236
0.364276
0.355422
0.346671
0.33802
0.329465
0.321003
0.312632
0.304349
0.296152
0.288038
0.280005
0.448749
0.438819
0.429032
0.41938
0.409857
0.400459
0.391181
0.382019
0.372969
0.364027
0.355189
0.346453
0.337814
0.329271
0.320821
0.31246
0.304187
0.295999
0.287893
0.279869
0.448178
0.438301
0.428558
0.418945
0.409456
0.400088
0.390836
0.381697
0.372667
0.363744
0.354923
0.346202
0.337578
0.329048
0.32061
0.312261
0.303998
0.29582
0.287724
0.279709
)
;

boundaryField
{
    fixedWalls
    {
        type            zeroGradient;
    }
    inlet
    {
        type            zeroGradient;
    }
    outlet
    {
        type            fixedValue;
        value           nonuniform 0();
    }
    frontAndBack
    {
        type            empty;
    }
    procBoundary5to1
    {
        type            processor;
        value           nonuniform List<scalar> 
20
(
0.460345
0.44916
0.438276
0.427667
0.417309
0.407182
0.397267
0.387546
0.378006
0.368633
0.359415
0.350341
0.341403
0.332593
0.323903
0.315327
0.306858
0.298493
0.290228
0.282054
)
;
    }
    procBoundary5to4
    {
        type            processor;
        value           nonuniform List<scalar> 
20
(
0.471857
0.471715
0.47143
0.471005
0.470442
0.469749
0.468934
0.468015
0.467014
0.465962
0.464898
0.46386
0.462886
0.462004
0.461228
0.460553
0.459961
0.459413
0.458829
0.458197
)
;
    }
    procBoundary5to6
    {
        type            processor;
        value           nonuniform List<scalar> 
20
(
0.273972
0.273941
0.27388
0.273793
0.273681
0.273551
0.273407
0.273256
0.273102
0.272952
0.272809
0.272678
0.272558
0.272449
0.272348
0.272252
0.272156
0.272052
0.271923
0.271771
)
;
    }
}


// ************************************************************************* //
