/*--------------------------------*- C++ -*----------------------------------*\
| =========                 |                                                 |
| \\      /  F ield         | OpenFOAM: The Open Source CFD Toolbox           |
|  \\    /   O peration     | Version:                                        |
|   \\  /    A nd           | Website:  www.openfoam.com                      |
|    \\/     M anipulation  |                                                 |
\*---------------------------------------------------------------------------*/
FoamFile
{
    version     2.0;
    format      ascii;
    class       surfaceScalarField;
    location    "0.3";
    object      phi;
}
// * * * * * * * * * * * * * * * * * * * * * * * * * * * * * * * * * * * * * //

dimensions      [0 3 -1 0 0 0 0];
oriented        oriented;


internalField   nonuniform List<scalar> 
760
(
3.13711e-05
-2.4677e-07
3.16076e-05
-2.36576e-07
3.18345e-05
-2.26883e-07
3.20522e-05
-2.17654e-07
3.2261e-05
-2.08853e-07
3.24615e-05
-2.00445e-07
3.26539e-05
-1.92403e-07
3.28386e-05
-1.847e-07
3.30159e-05
-1.77309e-07
3.31861e-05
-1.7021e-07
3.33495e-05
-1.63381e-07
3.35063e-05
-1.56804e-07
3.36568e-05
-1.50465e-07
3.38012e-05
-1.44345e-07
3.39396e-05
-1.38435e-07
3.40724e-05
-1.3271e-07
3.41996e-05
-1.27176e-07
3.43214e-05
-1.21795e-07
3.4438e-05
-1.16575e-07
-1.11539e-07
3.14028e-05
-4.90427e-07
3.16358e-05
-4.69638e-07
3.18588e-05
-4.49897e-07
3.20723e-05
-4.31129e-07
3.22767e-05
-4.13264e-07
3.24725e-05
-3.96234e-07
3.26601e-05
-3.79977e-07
3.28398e-05
-3.64437e-07
3.30121e-05
-3.49561e-07
3.31772e-05
-3.35301e-07
3.33354e-05
-3.21614e-07
3.34871e-05
-3.08459e-07
3.36324e-05
-2.95804e-07
3.37717e-05
-2.83609e-07
3.39051e-05
-2.71851e-07
3.40329e-05
-2.60484e-07
3.41552e-05
-2.49507e-07
3.42722e-05
-2.38854e-07
3.43842e-05
-2.28543e-07
-2.18571e-07
3.14611e-05
-7.2718e-07
3.16865e-05
-6.95052e-07
3.19012e-05
-6.64614e-07
3.21058e-05
-6.35758e-07
3.23009e-05
-6.08373e-07
3.24871e-05
-5.82354e-07
3.26647e-05
-5.57601e-07
3.28343e-05
-5.3402e-07
3.29962e-05
-5.11524e-07
3.3151e-05
-4.90033e-07
3.32988e-05
-4.69474e-07
3.34401e-05
-4.49778e-07
3.35752e-05
-4.30886e-07
3.37044e-05
-4.12734e-07
3.38278e-05
-3.95277e-07
3.39457e-05
-3.78447e-07
3.40585e-05
-3.62224e-07
3.41661e-05
-3.46527e-07
3.42689e-05
-3.3136e-07
-3.16683e-07
3.1535e-05
-9.51984e-07
3.17475e-05
-9.07555e-07
3.19485e-05
-8.65618e-07
3.21387e-05
-8.26022e-07
3.2319e-05
-7.88607e-07
3.24898e-05
-7.53218e-07
3.26519e-05
-7.19705e-07
3.28058e-05
-6.87925e-07
3.29521e-05
-6.57745e-07
3.30911e-05
-6.29041e-07
3.32233e-05
-6.017e-07
3.33491e-05
-5.75614e-07
3.34689e-05
-5.50691e-07
3.3583e-05
-5.26833e-07
3.36917e-05
-5.03966e-07
3.37953e-05
-4.81997e-07
3.38939e-05
-4.60875e-07
3.39879e-05
-4.40507e-07
3.40774e-05
-4.20866e-07
-4.01883e-07
3.1606e-05
-1.15813e-06
3.17989e-05
-1.10044e-06
3.19796e-05
-1.04627e-06
3.21489e-05
-9.9539e-07
3.23079e-05
-9.47582e-07
3.24573e-05
-9.02616e-07
3.25979e-05
-8.60271e-07
3.27303e-05
-8.20338e-07
3.28552e-05
-7.82621e-07
3.29731e-05
-7.46937e-07
3.30845e-05
-7.13119e-07
3.31899e-05
-6.81009e-07
3.32896e-05
-6.50469e-07
3.33842e-05
-6.2136e-07
3.34738e-05
-5.9357e-07
3.35588e-05
-5.66976e-07
3.36394e-05
-5.4149e-07
3.37159e-05
-5.16999e-07
3.37884e-05
-4.93445e-07
-4.70728e-07
3.16466e-05
-1.33718e-06
3.18117e-05
-1.26558e-06
3.19642e-05
-1.19879e-06
3.21053e-05
-1.13647e-06
3.22361e-05
-1.07831e-06
3.23574e-05
-1.02395e-06
3.24702e-05
-9.73096e-07
3.25753e-05
-9.25436e-07
3.26734e-05
-8.80692e-07
3.27651e-05
-8.38605e-07
3.28509e-05
-7.98939e-07
3.29313e-05
-7.61475e-07
3.30069e-05
-7.26018e-07
3.30779e-05
-6.92381e-07
3.31447e-05
-6.60404e-07
3.32077e-05
-6.2993e-07
3.3267e-05
-6.0083e-07
3.3323e-05
-5.72965e-07
3.33758e-05
-5.46246e-07
-5.20542e-07
3.16182e-05
-1.4793e-06
3.17465e-05
-1.39386e-06
3.18624e-05
-1.31477e-06
3.19675e-05
-1.24156e-06
3.20629e-05
-1.17372e-06
3.21498e-05
-1.11079e-06
3.2229e-05
-1.05232e-06
3.23015e-05
-9.9789e-07
3.23679e-05
-9.47119e-07
3.24289e-05
-8.99653e-07
3.24852e-05
-8.55175e-07
3.25371e-05
-8.13395e-07
3.25851e-05
-7.74053e-07
3.26296e-05
-7.36909e-07
3.2671e-05
-7.01754e-07
3.27095e-05
-6.68388e-07
3.27453e-05
-6.36645e-07
3.27787e-05
-6.06356e-07
3.28098e-05
-5.77402e-07
-5.49625e-07
3.14708e-05
-1.57426e-06
3.15531e-05
-1.47615e-06
3.16245e-05
-1.38613e-06
3.16864e-05
-1.3035e-06
3.17403e-05
-1.22756e-06
3.17871e-05
-1.15765e-06
3.1828e-05
-1.09316e-06
3.18636e-05
-1.03355e-06
3.18948e-05
-9.78305e-07
3.19221e-05
-9.26973e-07
3.19461e-05
-8.7915e-07
3.19672e-05
-8.34468e-07
3.19857e-05
-7.92606e-07
3.20021e-05
-7.53266e-07
3.20165e-05
-7.16192e-07
3.20293e-05
-6.81146e-07
3.20406e-05
-6.47923e-07
3.20505e-05
-6.16329e-07
3.20593e-05
-5.86217e-07
-5.57407e-07
3.11441e-05
-1.61286e-06
3.11726e-05
-1.50469e-06
3.11929e-05
-1.40639e-06
3.12063e-05
-1.31694e-06
3.12142e-05
-1.23542e-06
3.12175e-05
-1.16096e-06
3.12171e-05
-1.09278e-06
3.12137e-05
-1.03019e-06
3.1208e-05
-9.72544e-07
3.12003e-05
-9.19304e-07
3.11911e-05
-8.69977e-07
3.11808e-05
-8.24129e-07
3.11696e-05
-7.81375e-07
3.11577e-05
-7.41375e-07
3.11453e-05
-7.0383e-07
3.11326e-05
-6.68468e-07
3.11198e-05
-6.35059e-07
3.11068e-05
-6.03383e-07
3.10939e-05
-5.73276e-07
-5.44541e-07
3.05701e-05
-1.58888e-06
3.05402e-05
-1.4748e-06
3.05059e-05
-1.37212e-06
3.04685e-05
-1.27954e-06
3.04289e-05
-1.19585e-06
3.0388e-05
-1.12e-06
3.03462e-05
-1.05103e-06
3.03042e-05
-9.88125e-07
3.02622e-05
-9.30547e-07
3.02205e-05
-8.77663e-07
3.01795e-05
-8.28917e-07
3.01392e-05
-7.83821e-07
3.00997e-05
-7.4195e-07
3.00613e-05
-7.0293e-07
3.00239e-05
-6.66436e-07
2.99876e-05
-6.32177e-07
2.99524e-05
-5.99904e-07
2.99185e-05
-5.69386e-07
2.98856e-05
-5.40448e-07
-5.12887e-07
2.96792e-05
-1.50095e-06
2.95908e-05
-1.38639e-06
2.9503e-05
-1.28428e-06
2.94165e-05
-1.193e-06
2.93317e-05
-1.11114e-06
2.92492e-05
-1.03748e-06
2.91691e-05
-9.70945e-07
2.90916e-05
-9.1062e-07
2.90168e-05
-8.55709e-07
2.89447e-05
-8.05525e-07
2.88752e-05
-7.59478e-07
2.88085e-05
-7.17056e-07
2.87443e-05
-6.77814e-07
2.86828e-05
-6.41369e-07
2.86237e-05
-6.07386e-07
2.85671e-05
-5.75572e-07
2.85129e-05
-5.45675e-07
2.84609e-05
-5.17465e-07
2.84113e-05
-4.90768e-07
-4.65381e-07
2.84074e-05
-1.35393e-06
2.82661e-05
-1.24505e-06
2.81307e-05
-1.14885e-06
2.80012e-05
-1.06356e-06
2.78777e-05
-9.87624e-07
2.776e-05
-9.19736e-07
2.76478e-05
-8.58777e-07
2.7541e-05
-8.03798e-07
2.74393e-05
-7.5399e-07
2.73424e-05
-7.08666e-07
2.72502e-05
-6.67237e-07
2.71623e-05
-6.292e-07
2.70786e-05
-5.94123e-07
2.69989e-05
-5.61636e-07
2.69229e-05
-5.31418e-07
2.68505e-05
-5.03189e-07
2.67816e-05
-4.7671e-07
2.67159e-05
-4.51767e-07
2.66533e-05
-4.28196e-07
-4.05805e-07
2.67038e-05
-1.15929e-06
2.65208e-05
-1.06201e-06
2.63487e-05
-9.76752e-07
2.61868e-05
-9.01694e-07
2.60345e-05
-8.35294e-07
2.5891e-05
-7.76263e-07
2.57558e-05
-7.23521e-07
2.56281e-05
-6.76162e-07
2.55076e-05
-6.33426e-07
2.53936e-05
-5.9467e-07
2.52857e-05
-5.59353e-07
2.51835e-05
-5.27015e-07
2.50866e-05
-4.97264e-07
2.49948e-05
-4.69766e-07
2.49076e-05
-4.44234e-07
2.48248e-05
-4.2042e-07
2.47462e-05
-3.98111e-07
2.46716e-05
-3.77121e-07
2.46007e-05
-3.57303e-07
-3.38486e-07
2.45371e-05
-9.34086e-07
2.43282e-05
-8.53126e-07
2.41341e-05
-7.82664e-07
2.39534e-05
-7.21e-07
2.37849e-05
-6.66734e-07
2.36273e-05
-6.1871e-07
2.34798e-05
-5.75972e-07
2.33413e-05
-5.37728e-07
2.32112e-05
-5.03319e-07
2.30888e-05
-4.72196e-07
2.29733e-05
-4.43897e-07
2.28643e-05
-4.18034e-07
2.27613e-05
-3.94279e-07
2.26639e-05
-3.72353e-07
2.25717e-05
-3.52017e-07
2.24843e-05
-3.33069e-07
2.24016e-05
-3.15331e-07
2.23231e-05
-2.98653e-07
2.22487e-05
-2.82912e-07
-2.67966e-07
2.18985e-05
-6.98732e-07
2.16822e-05
-6.36821e-07
2.14828e-05
-5.83236e-07
2.12983e-05
-5.36562e-07
2.11272e-05
-4.95652e-07
2.09681e-05
-4.59572e-07
2.08197e-05
-4.27556e-07
2.06809e-05
-3.98976e-07
2.05509e-05
-3.73315e-07
2.04289e-05
-3.50142e-07
2.03141e-05
-3.29102e-07
2.02059e-05
-3.09894e-07
2.01039e-05
-2.92269e-07
2.00076e-05
-2.76012e-07
1.99165e-05
-2.60943e-07
1.98304e-05
-2.46908e-07
1.97488e-05
-2.33773e-07
1.96716e-05
-2.21425e-07
1.95984e-05
-2.0977e-07
-1.987e-07
1.88006e-05
-4.74155e-07
1.85954e-05
-4.31628e-07
1.84071e-05
-3.94969e-07
1.82337e-05
-3.63148e-07
1.80734e-05
-3.35335e-07
1.79247e-05
-3.10861e-07
1.77863e-05
-2.89184e-07
1.76572e-05
-2.69861e-07
1.75364e-05
-2.52531e-07
1.74232e-05
-2.36895e-07
1.73168e-05
-2.22707e-07
1.72166e-05
-2.0976e-07
1.71222e-05
-1.97883e-07
1.70332e-05
-1.8693e-07
1.6949e-05
-1.76777e-07
1.68694e-05
-1.67321e-07
1.67941e-05
-1.5847e-07
1.67228e-05
-1.50149e-07
1.66554e-05
-1.4229e-07
-1.34821e-07
1.52718e-05
-2.79151e-07
1.50942e-05
-2.54035e-07
1.49317e-05
-2.32444e-07
1.47823e-05
-2.13743e-07
1.46444e-05
-1.97425e-07
1.45166e-05
-1.83083e-07
1.43978e-05
-1.70391e-07
1.4287e-05
-1.59084e-07
1.41834e-05
-1.48945e-07
1.40863e-05
-1.39799e-07
1.39951e-05
-1.31499e-07
1.39093e-05
-1.23924e-07
1.38284e-05
-1.16973e-07
1.3752e-05
-1.10561e-07
1.36799e-05
-1.04615e-07
1.36116e-05
-9.90752e-08
1.3547e-05
-9.38873e-08
1.34859e-05
-8.90085e-08
1.3428e-05
-8.43966e-08
-8.00108e-08
1.13487e-05
-1.28664e-07
1.12119e-05
-1.17147e-07
1.10867e-05
-1.07263e-07
1.09716e-05
-9.87098e-08
1.08655e-05
-9.12515e-08
1.07671e-05
-8.46985e-08
1.06756e-05
-7.88988e-08
1.05902e-05
-7.37304e-08
1.05104e-05
-6.90944e-08
1.04355e-05
-6.49097e-08
1.03651e-05
-6.11094e-08
1.02988e-05
-5.76388e-08
1.02363e-05
-5.44522e-08
1.01772e-05
-5.15109e-08
1.01214e-05
-4.87813e-08
1.00686e-05
-4.62365e-08
1.00185e-05
-4.38521e-08
9.97114e-06
-4.16092e-08
9.92623e-06
-3.94862e-08
-3.74659e-08
7.06795e-06
-3.33102e-08
6.98117e-06
-3.03727e-08
6.90176e-06
-2.78528e-08
6.82872e-06
-2.56728e-08
6.76124e-06
-2.37712e-08
6.69864e-06
-2.20992e-08
6.64036e-06
-2.06178e-08
6.58593e-06
-1.92962e-08
6.53494e-06
-1.81095e-08
6.48707e-06
-1.70368e-08
6.44202e-06
-1.6061e-08
6.39955e-06
-1.51688e-08
6.35945e-06
-1.43491e-08
6.32153e-06
-1.35918e-08
6.28564e-06
-1.28879e-08
6.25163e-06
-1.22314e-08
6.21939e-06
-1.16159e-08
6.18882e-06
-1.10365e-08
6.15982e-06
-1.04875e-08
-9.96455e-09
2.45922e-06
2.42884e-06
2.40099e-06
2.37532e-06
2.35155e-06
2.32945e-06
2.30883e-06
2.28953e-06
2.27142e-06
2.25439e-06
2.23833e-06
2.22316e-06
2.20881e-06
2.19522e-06
2.18233e-06
2.1701e-06
2.15848e-06
2.14744e-06
2.13696e-06
)
;

boundaryField
{
    fixedWalls
    {
        type            calculated;
        value           uniform 0;
    }
    inlet
    {
        type            calculated;
        value           nonuniform 0();
    }
    outlet
    {
        type            calculated;
        value           nonuniform 0();
    }
    frontAndBack
    {
        type            empty;
        value           nonuniform 0();
    }
    procBoundary5to1
    {
        type            processor;
        value           nonuniform List<scalar> 
20
(
-2.3664e-12
-2.59746e-12
-2.92028e-12
-3.28451e-12
-3.80165e-12
-4.26019e-12
-4.5988e-12
-5.37107e-12
-6.36922e-12
-7.37818e-12
-8.73376e-12
-1.09112e-11
-1.29208e-11
-1.6007e-11
-1.7842e-11
-2.21232e-11
-2.5279e-11
-2.84682e-11
-3.88602e-11
-4.08155e-11
)
;
    }
    procBoundary5to4
    {
        type            processor;
        value           nonuniform List<scalar> 
20
(
-3.11243e-05
-3.11591e-05
-3.12243e-05
-3.13102e-05
-3.13999e-05
-3.14675e-05
-3.1476e-05
-3.13759e-05
-3.11055e-05
-3.05941e-05
-2.97672e-05
-2.85545e-05
-2.68985e-05
-2.47623e-05
-2.21338e-05
-1.90252e-05
-1.54668e-05
-1.14992e-05
-7.1633e-06
-2.49253e-06
)
;
    }
    procBoundary5to6
    {
        type            processor;
        value           nonuniform List<scalar> 
20
(
3.45496e-05
3.44912e-05
3.43671e-05
3.41626e-05
3.38573e-05
3.34256e-05
3.28389e-05
3.20671e-05
3.1081e-05
2.9854e-05
2.83638e-05
2.65937e-05
2.45334e-05
2.21782e-05
1.95292e-05
1.65915e-05
1.33732e-05
9.88368e-06
6.13232e-06
2.12699e-06
)
;
    }
}


// ************************************************************************* //
