/*--------------------------------*- C++ -*----------------------------------*\
| =========                 |                                                 |
| \\      /  F ield         | OpenFOAM: The Open Source CFD Toolbox           |
|  \\    /   O peration     | Version:                                        |
|   \\  /    A nd           | Website:  www.openfoam.com                      |
|    \\/     M anipulation  |                                                 |
\*---------------------------------------------------------------------------*/
FoamFile
{
    version     2.0;
    format      ascii;
    class       volVectorField;
    location    "0.3";
    object      U;
}
// * * * * * * * * * * * * * * * * * * * * * * * * * * * * * * * * * * * * * //

dimensions      [0 1 -1 0 0 0 0];


internalField   nonuniform List<vector> 
400
(
(1.25002 -0.00247512 0)
(1.25968 -0.00237424 0)
(1.26894 -0.00227827 0)
(1.27783 -0.00218681 0)
(1.28635 -0.0020995 0)
(1.29454 -0.00201601 0)
(1.30239 -0.00193606 0)
(1.30993 -0.0018594 0)
(1.31716 -0.00178577 0)
(1.32411 -0.00171495 0)
(1.33078 -0.00164676 0)
(1.33718 -0.001581 0)
(1.34333 -0.00151755 0)
(1.34922 -0.00145624 0)
(1.35488 -0.001397 0)
(1.3603 -0.00133952 0)
(1.36549 -0.00128393 0)
(1.37047 -0.00122983 0)
(1.37524 -0.00117725 0)
(1.3798 -0.00112662 0)
(1.25135 -0.00739609 0)
(1.26088 -0.00708931 0)
(1.26999 -0.00679767 0)
(1.27872 -0.00652003 0)
(1.28707 -0.00625531 0)
(1.29507 -0.00600254 0)
(1.30273 -0.00576083 0)
(1.31008 -0.00552936 0)
(1.31711 -0.00530739 0)
(1.32386 -0.00509423 0)
(1.33032 -0.00488926 0)
(1.33651 -0.00469193 0)
(1.34245 -0.0045018 0)
(1.34814 -0.00431831 0)
(1.35359 -0.00414116 0)
(1.35881 -0.00396962 0)
(1.36381 -0.0038038 0)
(1.3686 -0.00364266 0)
(1.37318 -0.00348647 0)
(1.37756 -0.00333555 0)
(1.25383 -0.012222 0)
(1.26306 -0.0116974 0)
(1.27186 -0.0111995 0)
(1.28024 -0.0107266 0)
(1.28823 -0.0102768 0)
(1.29585 -0.00984837 0)
(1.30312 -0.00943985 0)
(1.31006 -0.00904973 0)
(1.31669 -0.00867668 0)
(1.32302 -0.00831943 0)
(1.32906 -0.00797689 0)
(1.33484 -0.007648 0)
(1.34037 -0.0073319 0)
(1.34565 -0.00702757 0)
(1.3507 -0.00673437 0)
(1.35552 -0.00645119 0)
(1.36014 -0.00617784 0)
(1.36454 -0.00591286 0)
(1.36875 -0.00565654 0)
(1.37277 -0.00540847 0)
(1.25703 -0.0168672 0)
(1.26577 -0.0161069 0)
(1.27403 -0.0153874 0)
(1.28185 -0.0147062 0)
(1.28925 -0.0140607 0)
(1.29627 -0.0134484 0)
(1.30292 -0.0128668 0)
(1.30924 -0.0123137 0)
(1.31523 -0.0117869 0)
(1.32093 -0.0112844 0)
(1.32635 -0.0108046 0)
(1.33151 -0.0103455 0)
(1.33642 -0.00990588 0)
(1.3411 -0.00948406 0)
(1.34555 -0.0090789 0)
(1.34979 -0.00868885 0)
(1.35383 -0.0083132 0)
(1.35768 -0.00795024 0)
(1.36135 -0.00759979 0)
(1.36484 -0.00726072 0)
(1.26026 -0.0212156 0)
(1.26823 -0.020199 0)
(1.27569 -0.0192411 0)
(1.28268 -0.0183385 0)
(1.28924 -0.0174874 0)
(1.2954 -0.0166842 0)
(1.30119 -0.0159252 0)
(1.30664 -0.015207 0)
(1.31178 -0.0145265 0)
(1.31663 -0.0138807 0)
(1.32121 -0.0132668 0)
(1.32555 -0.0126823 0)
(1.32965 -0.0121249 0)
(1.33353 -0.0115923 0)
(1.33721 -0.0110826 0)
(1.3407 -0.0105938 0)
(1.34401 -0.0101245 0)
(1.34715 -0.00967261 0)
(1.35013 -0.00923735 0)
(1.35295 -0.00881698 0)
(1.26243 -0.0251152 0)
(1.2693 -0.0238243 0)
(1.27564 -0.0226152 0)
(1.2815 -0.0214827 0)
(1.28693 -0.0204213 0)
(1.29196 -0.0194257 0)
(1.29663 -0.0184908 0)
(1.30099 -0.0176114 0)
(1.30504 -0.016783 0)
(1.30883 -0.0160013 0)
(1.31238 -0.0152622 0)
(1.3157 -0.0145621 0)
(1.31881 -0.0138977 0)
(1.32174 -0.0132658 0)
(1.32449 -0.0126637 0)
(1.32709 -0.0120886 0)
(1.32953 -0.0115383 0)
(1.33183 -0.0110104 0)
(1.33401 -0.0105034 0)
(1.33606 -0.0100149 0)
(1.26203 -0.0283801 0)
(1.26743 -0.026807 0)
(1.2723 -0.0253441 0)
(1.2767 -0.0239838 0)
(1.2807 -0.0227181 0)
(1.28434 -0.0215392 0)
(1.28765 -0.0204396 0)
(1.29067 -0.0194121 0)
(1.29344 -0.0184504 0)
(1.29599 -0.0175483 0)
(1.29833 -0.0167004 0)
(1.30049 -0.0159017 0)
(1.30248 -0.0151475 0)
(1.30433 -0.0144336 0)
(1.30604 -0.0137565 0)
(1.30764 -0.0131124 0)
(1.30912 -0.0124984 0)
(1.3105 -0.0119116 0)
(1.31179 -0.0113497 0)
(1.31299 -0.0108098 0)
(1.25707 -0.0308033 0)
(1.2606 -0.0289582 0)
(1.26366 -0.027257 0)
(1.26631 -0.0256879 0)
(1.26861 -0.0242395 0)
(1.27061 -0.0229007 0)
(1.27236 -0.0216609 0)
(1.27388 -0.0205106 0)
(1.27521 -0.0194409 0)
(1.27638 -0.0184438 0)
(1.2774 -0.0175122 0)
(1.27829 -0.0166393 0)
(1.27908 -0.0158195 0)
(1.27978 -0.0150472 0)
(1.28039 -0.0143179 0)
(1.28093 -0.0136271 0)
(1.28141 -0.0129711 0)
(1.28183 -0.0123462 0)
(1.28221 -0.0117497 0)
(1.28254 -0.0111783 0)
(1.2451 -0.0321815 0)
(1.24643 -0.0301009 0)
(1.24739 -0.0282005 0)
(1.24805 -0.0264633 0)
(1.24846 -0.024873 0)
(1.24868 -0.0234145 0)
(1.24873 -0.022074 0)
(1.24864 -0.020839 0)
(1.24846 -0.0196982 0)
(1.24818 -0.0186413 0)
(1.24784 -0.0176595 0)
(1.24745 -0.0167446 0)
(1.24702 -0.0158895 0)
(1.24655 -0.0150878 0)
(1.24606 -0.0143338 0)
(1.24556 -0.0136225 0)
(1.24505 -0.0129494 0)
(1.24453 -0.0123103 0)
(1.24401 -0.011702 0)
(1.2435 -0.0111209 0)
(1.22335 -0.0323498 0)
(1.22226 -0.0301017 0)
(1.22096 -0.0280682 0)
(1.21952 -0.0262263 0)
(1.21797 -0.0245545 0)
(1.21635 -0.0230334 0)
(1.21469 -0.0216456 0)
(1.21301 -0.0203758 0)
(1.21133 -0.0192101 0)
(1.20965 -0.0181367 0)
(1.20799 -0.0171448 0)
(1.20637 -0.0162253 0)
(1.20477 -0.0153698 0)
(1.20321 -0.0145711 0)
(1.20169 -0.0138229 0)
(1.20022 -0.0131194 0)
(1.19879 -0.0124559 0)
(1.19741 -0.0118278 0)
(1.19607 -0.0112315 0)
(1.19478 -0.0106631 0)
(1.18894 -0.0312229 0)
(1.1854 -0.0289053 0)
(1.18187 -0.0268297 0)
(1.17838 -0.0249664 0)
(1.17495 -0.0232893 0)
(1.1716 -0.0217749 0)
(1.16834 -0.0204029 0)
(1.16519 -0.0191555 0)
(1.16214 -0.0180173 0)
(1.1592 -0.0169746 0)
(1.15637 -0.016016 0)
(1.15365 -0.0151313 0)
(1.15103 -0.0143115 0)
(1.14852 -0.013549 0)
(1.1461 -0.0128372 0)
(1.14379 -0.01217 0)
(1.14158 -0.0115423 0)
(1.13945 -0.0109496 0)
(1.13742 -0.0103881 0)
(1.13548 -0.00985396 0)
(1.13919 -0.0288305 0)
(1.13342 -0.0265635 0)
(1.12788 -0.0245523 0)
(1.12258 -0.0227625 0)
(1.11752 -0.0211638 0)
(1.1127 -0.0197304 0)
(1.1081 -0.0184401 0)
(1.10372 -0.0172736 0)
(1.09956 -0.0162147 0)
(1.09559 -0.0152494 0)
(1.09181 -0.0143657 0)
(1.08821 -0.0135532 0)
(1.08478 -0.0128029 0)
(1.08151 -0.0121073 0)
(1.0784 -0.0114596 0)
(1.07543 -0.0108541 0)
(1.07261 -0.0102857 0)
(1.06992 -0.0097499 0)
(1.06735 -0.00924331 0)
(1.06491 -0.00876194 0)
(1.07193 -0.0253376 0)
(1.06438 -0.023247 0)
(1.05729 -0.0214086 0)
(1.05061 -0.0197852 0)
(1.04434 -0.0183452 0)
(1.03843 -0.0170621 0)
(1.03286 -0.0159134 0)
(1.02761 -0.01488 0)
(1.02265 -0.0139461 0)
(1.01796 -0.0130981 0)
(1.01353 -0.0123244 0)
(1.00933 -0.0116152 0)
(1.00535 -0.0109622 0)
(1.00158 -0.0103582 0)
(0.998002 -0.00979699 0)
(0.994605 -0.00927328 0)
(0.99138 -0.00878247 0)
(0.988317 -0.00832048 0)
(0.985409 -0.00788417 0)
(0.982646 -0.00746987 0)
(0.985819 -0.0210383 0)
(0.977153 -0.0192359 0)
(0.969108 -0.0176629 0)
(0.961625 -0.0162832 0)
(0.954652 -0.0150665 0)
(0.94814 -0.0139879 0)
(0.942047 -0.0130266 0)
(0.936336 -0.0121653 0)
(0.930972 -0.0113896 0)
(0.925927 -0.0106873 0)
(0.921174 -0.0100483 0)
(0.91669 -0.0094639 0)
(0.912456 -0.00892685 0)
(0.908452 -0.00843094 0)
(0.904662 -0.00797085 0)
(0.901074 -0.00754201 0)
(0.897674 -0.0071405 0)
(0.894452 -0.00676291 0)
(0.891397 -0.00640653 0)
(0.888501 -0.00606818 0)
(0.880447 -0.0163224 0)
(0.871437 -0.0148859 0)
(0.863142 -0.0136401 0)
(0.855482 -0.0125532 0)
(0.848386 -0.0115992 0)
(0.841795 -0.0107569 0)
(0.835655 -0.0100088 0)
(0.829921 -0.0093404 0)
(0.824555 -0.0087399 0)
(0.819521 -0.00819738 0)
(0.81479 -0.00770459 0)
(0.810337 -0.0072546 0)
(0.806139 -0.00684158 0)
(0.802176 -0.00646057 0)
(0.798432 -0.00610735 0)
(0.79489 -0.00577834 0)
(0.791539 -0.00547044 0)
(0.788366 -0.00518099 0)
(0.785361 -0.00490783 0)
(0.782514 -0.00464841 0)
(0.75631 -0.0116184 0)
(0.74774 -0.0105791 0)
(0.739893 -0.00968206 0)
(0.732679 -0.00890258 0)
(0.72602 -0.00822072 0)
(0.719853 -0.00762034 0)
(0.714123 -0.00708831 0)
(0.708783 -0.00661389 0)
(0.703794 -0.00618829 0)
(0.69912 -0.00580423 0)
(0.694734 -0.00545569 0)
(0.690609 -0.00513765 0)
(0.686723 -0.00484588 0)
(0.683058 -0.00457682 0)
(0.679596 -0.00432744 0)
(0.676324 -0.00409519 0)
(0.673229 -0.00387782 0)
(0.6703 -0.00367348 0)
(0.667527 -0.00348055 0)
(0.664902 -0.00329723 0)
(0.614587 -0.00733019 0)
(0.60716 -0.00667035 0)
(0.600379 -0.00610272 0)
(0.594158 -0.00561079 0)
(0.588426 -0.00518137 0)
(0.583125 -0.00480388 0)
(0.578204 -0.00446976 0)
(0.573621 -0.00417207 0)
(0.569342 -0.00390516 0)
(0.565334 -0.00366439 0)
(0.561574 -0.00344592 0)
(0.558038 -0.00324656 0)
(0.554707 -0.00306365 0)
(0.551565 -0.00289495 0)
(0.548597 -0.00273854 0)
(0.545792 -0.00259282 0)
(0.543137 -0.0024564 0)
(0.540625 -0.00232811 0)
(0.538246 -0.00220687 0)
(0.535994 -0.00209161 0)
(0.456814 -0.00380034 0)
(0.451087 -0.00345937 0)
(0.445863 -0.00316662 0)
(0.441073 -0.00291326 0)
(0.43666 -0.0026923 0)
(0.432578 -0.00249815 0)
(0.428789 -0.00232634 0)
(0.425259 -0.00217324 0)
(0.421961 -0.00203594 0)
(0.418871 -0.00191202 0)
(0.415969 -0.00179952 0)
(0.41324 -0.00169679 0)
(0.410667 -0.00160248 0)
(0.408238 -0.00151544 0)
(0.405943 -0.00143469 0)
(0.403771 -0.00135941 0)
(0.401715 -0.00128887 0)
(0.399768 -0.00122252 0)
(0.397923 -0.00115975 0)
(0.396175 -0.00110002 0)
(0.284534 -0.00134205 0)
(0.280904 -0.00122342 0)
(0.277591 -0.00112164 0)
(0.274551 -0.00103357 0)
(0.271748 -0.000956742 0)
(0.269153 -0.000889198 0)
(0.26674 -0.00082936 0)
(0.26449 -0.000775978 0)
(0.262385 -0.000728046 0)
(0.260411 -0.000684728 0)
(0.258555 -0.000645336 0)
(0.256807 -0.00060932 0)
(0.255158 -0.000576222 0)
(0.253599 -0.000545644 0)
(0.252124 -0.000517231 0)
(0.250727 -0.00049072 0)
(0.249404 -0.000465867 0)
(0.248148 -0.000442473 0)
(0.246958 -0.000420303 0)
(0.245829 -0.000399186 0)
(0.0990038 -0.00021045 0)
(0.0977346 -0.00019252 0)
(0.0965738 -0.000177135 0)
(0.0955063 -0.000163812 0)
(0.0945198 -0.000152169 0)
(0.0936045 -0.000141904 0)
(0.0927519 -0.000132783 0)
(0.091955 -0.000124625 0)
(0.0912081 -0.000117278 0)
(0.0905063 -0.000110614 0)
(0.0898452 -0.000104532 0)
(0.0892213 -9.89576e-05 0)
(0.0886316 -9.38252e-05 0)
(0.0880734 -8.90728e-05 0)
(0.0875443 -8.46433e-05 0)
(0.0870423 -8.05073e-05 0)
(0.0865658 -7.66244e-05 0)
(0.086113 -7.29642e-05 0)
(0.0856828 -6.94865e-05 0)
(0.085274 -6.61704e-05 0)
)
;

boundaryField
{
    fixedWalls
    {
        type            noSlip;
    }
    inlet
    {
        type            fixedValue;
        value           nonuniform 0();
    }
    outlet
    {
        type            zeroGradient;
    }
    frontAndBack
    {
        type            empty;
    }
    procBoundary5to1
    {
        type            processor;
        value           nonuniform List<vector> 
20
(
(1.25002 0.00247522 0)
(1.25968 0.00237435 0)
(1.26894 0.00227839 0)
(1.27783 0.00218694 0)
(1.28635 0.00209965 0)
(1.29454 0.00201618 0)
(1.30239 0.00193625 0)
(1.30993 0.00185961 0)
(1.31716 0.00178602 0)
(1.32411 0.00171525 0)
(1.33078 0.00164711 0)
(1.33718 0.00158143 0)
(1.34333 0.00151807 0)
(1.34922 0.00145687 0)
(1.35488 0.00139771 0)
(1.3603 0.0013404 0)
(1.36549 0.00128495 0)
(1.37047 0.00123098 0)
(1.37524 0.00117879 0)
(1.3798 0.0011282 0)
)
;
    }
    procBoundary5to4
    {
        type            processor;
        value           nonuniform List<vector> 
20
(
(1.23994 -0.00258126 0)
(1.24139 -0.00771903 0)
(1.24412 -0.012775 0)
(1.24779 -0.0176706 0)
(1.25174 -0.0222941 0)
(1.25498 -0.0264923 0)
(1.25606 -0.0300706 0)
(1.253 -0.0328035 0)
(1.24334 -0.0344593 0)
(1.22418 -0.0348374 0)
(1.19244 -0.0338153 0)
(1.14518 -0.0313932 0)
(1.07995 -0.027724 0)
(0.99517 -0.0231139 0)
(0.890266 -0.0179887 0)
(0.765707 -0.0128308 0)
(0.622761 -0.00810303 0)
(0.463127 -0.00420072 0)
(0.288533 -0.00148154 0)
(0.1004 -0.000231549 0)
)
;
    }
    procBoundary5to6
    {
        type            processor;
        value           nonuniform List<vector> 
20
(
(1.38417 -0.00107668 0)
(1.38174 -0.00318731 0)
(1.3766 -0.00516598 0)
(1.36817 -0.00693112 0)
(1.35563 -0.00841012 0)
(1.33799 -0.00954389 0)
(1.31412 -0.0102909 0)
(1.28283 -0.0106305 0)
(1.24298 -0.0105651 0)
(1.19354 -0.0101206 0)
(1.13362 -0.00934477 0)
(1.06259 -0.00830357 0)
(0.980023 -0.00707566 0)
(0.885755 -0.00574641 0)
(0.779819 -0.0044018 0)
(0.662417 -0.00312305 0)
(0.533861 -0.00198216 0)
(0.39452 -0.00104335 0)
(0.244758 -0.000379192 0)
(0.0848856 -6.30451e-05 0)
)
;
    }
}


// ************************************************************************* //
