/*--------------------------------*- C++ -*----------------------------------*\
| =========                 |                                                 |
| \\      /  F ield         | OpenFOAM: The Open Source CFD Toolbox           |
|  \\    /   O peration     | Version:                                        |
|   \\  /    A nd           | Website:  www.openfoam.com                      |
|    \\/     M anipulation  |                                                 |
\*---------------------------------------------------------------------------*/
FoamFile
{
    version     2.0;
    format      ascii;
    class       volScalarField;
    location    "60";
    object      p;
}
// * * * * * * * * * * * * * * * * * * * * * * * * * * * * * * * * * * * * * //

dimensions      [0 2 -2 0 0 0 0];


internalField   nonuniform List<scalar> 
1150
(
0.244128
0.234483
0.222198
0.207056
0.189033
0.168454
0.25364
0.242365
0.22802
0.210512
0.189909
0.263951
0.251289
0.235202
0.11055
0.110278
0.109949
0.109572
0.109144
0.108678
0.10817
0.107631
0.107063
0.106493
0.105405
0.104883
0.104398
0.103939
0.103507
0.103091
0.102695
0.102312
0.101946
0.101591
0.107294
0.106773
0.106227
0.105688
0.105145
0.104627
0.104131
0.103681
0.103261
0.102888
0.108027
0.107733
0.107445
0.10716
0.106887
0.106601
0.106319
0.106006
0.105671
0.1053
0.11004
0.109456
0.108839
0.10819
0.107512
0.106824
0.10613
0.105468
0.104848
0.104265
0.109689
0.109184
0.108683
0.108199
0.107755
0.107343
0.107
0.106685
0.10639
0.106077
0.111721
0.111175
0.110622
0.11005
0.109432
0.108771
0.108023
0.107233
0.106403
0.105613
0.112447
0.11167
0.110879
0.110065
0.109268
0.108484
0.107776
0.107126
0.106587
0.106175
0.1138
0.113254
0.112752
0.112265
0.111769
0.111304
0.110781
0.110236
0.109527
0.108653
0.115215
0.114395
0.113561
0.11267
0.111773
0.110791
0.109804
0.108788
0.107824
0.106979
0.117384
0.116307
0.115241
0.114206
0.113172
0.11248
0.11169
0.111154
0.110511
0.110086
0.119434
0.11861
0.117749
0.116845
0.115927
0.114935
0.113922
0.112826
0.111633
0.110551
0.121705
0.120606
0.119488
0.118282
0.117048
0.115781
0.114504
0.11336
0.112228
0.111274
0.124366
0.123025
0.121691
0.120429
0.119202
0.118114
0.117067
0.116072
0.114986
0.113918
0.12773
0.126481
0.125217
0.123898
0.122539
0.121129
0.119496
0.117993
0.116129
0.114706
0.131029
0.129528
0.127954
0.126318
0.124566
0.122858
0.121106
0.119508
0.117937
0.116532
0.134636
0.132925
0.131136
0.129367
0.12754
0.125785
0.123891
0.122112
0.119845
0.117894
0.138796
0.13683
0.134812
0.132738
0.130562
0.128409
0.126031
0.123784
0.121325
0.11906
0.14372
0.141569
0.139307
0.136992
0.134492
0.131974
0.129215
0.126554
0.12342
0.120655
0.148862
0.146372
0.143677
0.140894
0.137859
0.13483
0.131474
0.128192
0.124657
0.121098
0.154463
0.151646
0.148644
0.145489
0.142054
0.138594
0.134708
0.130889
0.126483
0.122235
0.160615
0.157357
0.153852
0.150127
0.146017
0.141754
0.136997
0.132122
0.126935
0.121397
0.1675
0.16385
0.159843
0.155578
0.150783
0.145809
0.140213
0.134572
0.128253
0.12202
0.174956
0.170785
0.166146
0.161091
0.155349
0.149295
0.14254
0.13533
0.12786
0.119365
0.183081
0.178389
0.173117
0.167265
0.160589
0.153439
0.1454
0.136958
0.127546
0.118085
0.191793
0.186479
0.180392
0.173538
0.165608
0.156984
0.147279
0.136728
0.125396
0.113307
0.201211
0.195294
0.188401
0.180492
0.171254
0.161065
0.149462
0.137152
0.123273
0.109595
0.211284
0.20469
0.19683
0.187616
0.176693
0.164545
0.150543
0.135503
0.119353
0.100622
0.222094
0.214806
0.205898
0.195221
0.182495
0.1681
0.151468
0.133566
0.114918
0.233553
0.225367
0.215097
0.202533
0.187445
0.170225
0.150387
0.105904
0.105267
0.104561
0.103768
0.102911
0.10201
0.101023
0.0999131
0.0987385
0.0976024
0.0965381
0.095536
0.0945982
0.0937256
0.0929033
0.0921103
0.0913132
0.0904822
0.0896037
0.0886747
0.0877034
0.0867069
0.0857014
0.0847018
0.0837315
0.0828125
0.0819778
0.0812699
0.0807393
0.0804429
0.101295
0.101039
0.100729
0.100374
0.100041
0.0997957
0.0996888
0.0996789
0.0996632
0.0995094
0.0991208
0.0984924
0.0976295
0.0965508
0.0953145
0.0940002
0.0926959
0.0914332
0.0902183
0.0890366
0.0878774
0.0867414
0.0856345
0.0845654
0.0835474
0.0825991
0.0817487
0.0810332
0.0804972
0.0801958
0.102514
0.102116
0.101684
0.101208
0.100723
0.100254
0.0997984
0.0993667
0.0989377
0.0984896
0.0980353
0.0975665
0.0970187
0.0963052
0.0954296
0.0943763
0.0931663
0.0918492
0.0904881
0.0891371
0.0878235
0.0865581
0.0853451
0.0841934
0.0831161
0.0821315
0.0812636
0.0805415
0.0800034
0.0797005
0.104904
0.104478
0.103994
0.103432
0.102791
0.102089
0.101353
0.100542
0.0995894
0.0985947
0.0975708
0.0965645
0.0956187
0.0947537
0.0939561
0.0931601
0.0922412
0.09117
0.0899585
0.0886667
0.0873516
0.0860528
0.0847939
0.0835936
0.0824724
0.0814562
0.0805711
0.0798421
0.0793037
0.0790019
0.103715
0.103148
0.102564
0.101948
0.101355
0.100831
0.100344
0.0998684
0.0994075
0.0989162
0.09829
0.097494
0.0965219
0.0953997
0.0942002
0.0929952
0.0917958
0.0905774
0.0893057
0.0879757
0.0866196
0.085272
0.0839696
0.082739
0.0816021
0.0805832
0.079704
0.0789864
0.0784603
0.0781687
0.105687
0.10524
0.104705
0.104058
0.103303
0.102447
0.101438
0.10025
0.0989757
0.097735
0.0966092
0.0956067
0.0946735
0.0937394
0.0927363
0.0916582
0.0905298
0.0893702
0.0881694
0.0869075
0.0855891
0.084241
0.0829207
0.0816795
0.0805498
0.0795487
0.0786934
0.0780002
0.077495
0.0772198
0.104866
0.104137
0.103402
0.102715
0.102099
0.101463
0.100827
0.100172
0.0993804
0.0983332
0.0970651
0.0956206
0.0941172
0.0926707
0.0913016
0.0899979
0.0887663
0.0876041
0.0864897
0.0853693
0.0841935
0.0829665
0.0817204
0.0805173
0.0794147
0.0784387
0.0776083
0.0769385
0.0764535
0.0761953
0.105826
0.10545
0.104978
0.1044
0.103662
0.102753
0.101669
0.100503
0.0994747
0.0985533
0.0975976
0.0964963
0.0951763
0.0936226
0.091887
0.0900584
0.0882591
0.0865784
0.0850645
0.0837199
0.0824994
0.0813427
0.0802187
0.0791374
0.0781304
0.0772272
0.0764509
0.0758221
0.0753672
0.0751329
0.107659
0.106604
0.105661
0.104748
0.103837
0.102836
0.101726
0.100423
0.0988447
0.0971481
0.0955726
0.0941815
0.0929281
0.0917298
0.0904651
0.0890229
0.0873968
0.0856675
0.0839626
0.0823799
0.0809692
0.0797351
0.0786406
0.0776523
0.076755
0.0759525
0.0752555
0.074685
0.0742724
0.0740661
0.106068
0.105333
0.104642
0.103914
0.102994
0.10188
0.100755
0.0997049
0.0986726
0.0974462
0.0959279
0.0941585
0.0922711
0.0904439
0.0887729
0.0872343
0.0857575
0.0842535
0.0826983
0.0811492
0.0796894
0.0783774
0.077237
0.0762584
0.0754151
0.0746883
0.0740655
0.0735543
0.0731884
0.0730092
0.109269
0.108052
0.106909
0.105779
0.104617
0.103365
0.101888
0.100076
0.0983729
0.0968351
0.0953814
0.0938461
0.0920897
0.0901024
0.0879977
0.0859581
0.0841086
0.0824501
0.0809327
0.0795043
0.0781582
0.0769224
0.0758274
0.0748875
0.0740962
0.0734384
0.0728923
0.072445
0.0721315
0.0719788
0.109376
0.10822
0.107068
0.105777
0.104382
0.102951
0.10144
0.0998126
0.097899
0.0958079
0.0937454
0.0918566
0.0901191
0.0884121
0.0866147
0.0846947
0.0827531
0.0809195
0.0792682
0.0778037
0.0765134
0.0753731
0.0743757
0.0735205
0.0728035
0.0722211
0.0717555
0.0713749
0.0711134
0.0709826
0.110152
0.108747
0.107173
0.10561
0.103997
0.102217
0.100385
0.0986714
0.0970079
0.0951607
0.0929961
0.0906393
0.0883096
0.0862183
0.0843674
0.0826401
0.0809312
0.079235
0.0776153
0.0761549
0.0748854
0.0738035
0.0728966
0.0721396
0.0715183
0.0710279
0.0706553
0.0703535
0.0701409
0.0700284
0.11244
0.110936
0.109466
0.10769
0.105659
0.103415
0.100944
0.0983233
0.0958149
0.0935323
0.0913524
0.0891135
0.086739
0.0843724
0.0821748
0.0802522
0.0785752
0.077055
0.0756468
0.0743567
0.0732069
0.0722269
0.0714165
0.07076
0.0702426
0.0698538
0.0695844
0.0693773
0.0692099
0.0691165
0.11283
0.11083
0.108627
0.106435
0.104366
0.102399
0.100408
0.0981732
0.0955931
0.0928111
0.0901227
0.0876357
0.0852558
0.0828712
0.080522
0.0783595
0.0764759
0.0748904
0.0735684
0.0724335
0.0714554
0.0706266
0.0699426
0.069401
0.0689908
0.068705
0.0685395
0.0684413
0.0683151
0.0682446
0.114673
0.112556
0.110197
0.107623
0.104613
0.101371
0.0982956
0.095539
0.0929231
0.090227
0.0874687
0.0848314
0.0824371
0.0802385
0.0781543
0.0761681
0.0743464
0.0727802
0.0714942
0.0704612
0.0696391
0.0689786
0.0684543
0.068052
0.0677622
0.0675833
0.0675193
0.0675361
0.0674557
0.0674138
0.115096
0.11224
0.109554
0.106904
0.104223
0.101332
0.0980504
0.0945952
0.0911991
0.0879898
0.0849352
0.0820224
0.0793825
0.0771158
0.0751752
0.0734762
0.0719627
0.0706229
0.0694837
0.0685759
0.0678857
0.0673749
0.0670047
0.0667454
0.0665793
0.0665052
0.0665348
0.0666605
0.0666361
0.0666273
0.116521
0.113731
0.110379
0.106609
0.102954
0.0995991
0.096369
0.0930526
0.0895941
0.0861875
0.0829487
0.0798643
0.0770038
0.0744678
0.0723484
0.0706723
0.0693438
0.0682648
0.0673868
0.0666911
0.0661756
0.0658244
0.0656059
0.0654882
0.065445
0.0654732
0.0655883
0.0658091
0.0658597
0.065888
0.11684
0.112982
0.109276
0.105636
0.101694
0.0975327
0.0934902
0.0896258
0.0859622
0.0825871
0.0795227
0.0767325
0.0741739
0.0718291
0.0697857
0.0681128
0.0668285
0.0659061
0.0652509
0.0647904
0.0644913
0.0643235
0.0642648
0.0642879
0.0643645
0.06449
0.0646805
0.0649786
0.0651261
0.0651949
0.117377
0.11337
0.108958
0.104341
0.0997987
0.0953823
0.0909548
0.0865596
0.0823868
0.0786146
0.075326
0.0725739
0.0703101
0.0684053
0.0667823
0.0654186
0.064352
0.063606
0.0631382
0.0628965
0.0628174
0.0628496
0.0629645
0.0631343
0.0633322
0.0635527
0.0638096
0.0641675
0.0644332
0.0645461
0.117013
0.111681
0.106647
0.101555
0.0965312
0.0917018
0.0871188
0.0828273
0.0787955
0.075031
0.0716165
0.0687471
0.0664612
0.0647148
0.0634337
0.0624781
0.0617861
0.0613351
0.0611079
0.0610857
0.0612137
0.06144
0.061726
0.0620412
0.062358
0.0626682
0.062983
0.0633834
0.063779
0.0639397
0.116024
0.110793
0.10512
0.0992813
0.0935985
0.0880523
0.0829206
0.0783445
0.0743597
0.070887
0.0678556
0.0652573
0.0630694
0.0614116
0.0602884
0.0595891
0.0592308
0.0591014
0.0591576
0.0593729
0.0597058
0.0601148
0.0605617
0.0610153
0.0614459
0.0618404
0.0622069
0.0626346
0.0631607
0.0633743
0.115282
0.108319
0.101524
0.095169
0.0891261
0.0833972
0.0780951
0.0732773
0.0691393
0.0657565
0.0631157
0.0610208
0.0593362
0.0580876
0.0572337
0.0567993
0.056726
0.0569003
0.0572564
0.0577288
0.0582785
0.0588692
0.0594708
0.0600555
0.060595
0.06107
0.0614852
0.061928
0.0625729
0.0628465
0.111885
0.104623
0.0972988
0.0900933
0.0833545
0.0774623
0.0723355
0.0677768
0.0638507
0.0606191
0.0581571
0.0563787
0.0552126
0.0544968
0.0541112
0.0540624
0.0543
0.0547757
0.0554176
0.0561497
0.0569225
0.0576975
0.0584511
0.0591613
0.0598049
0.0603579
0.0608205
0.0612704
0.062009
0.062351
0.109109
0.100053
0.0916593
0.0838861
0.0769008
0.0708569
0.065627
0.061334
0.0578978
0.055163
0.0531053
0.0517049
0.0509571
0.0507146
0.050848
0.0512726
0.0519057
0.052718
0.0536512
0.0546414
0.0556365
0.0565975
0.057502
0.0583338
0.0590774
0.0597066
0.0602161
0.0606681
0.061464
0.0618812
0.10315
0.0934632
0.0844615
0.0763762
0.0696533
0.0638512
0.0589298
0.0549844
0.0519339
0.0497138
0.0481941
0.0472659
0.0469332
0.0470955
0.0476724
0.0485405
0.0495809
0.0507491
0.0519796
0.0532231
0.0544344
0.0555767
0.0566277
0.057577
0.0584162
0.0591197
0.0596761
0.0601274
0.0609371
0.0614298
0.0964914
0.0847859
0.0751705
0.067394
0.0608382
0.0554391
0.0511749
0.0478604
0.0454037
0.0438289
0.0429663
0.0426871
0.0429196
0.043552
0.0445761
0.0458594
0.0473044
0.0488341
0.0503702
0.0518721
0.0532998
0.0546221
0.0558192
0.0568852
0.0578186
0.0585973
0.0592024
0.0596542
0.060432
0.0609897
0.0849007
0.0727605
0.0638719
0.0566321
0.0506795
0.0460477
0.0424983
0.0398921
0.0382028
0.0373671
0.0372135
0.0376978
0.0386309
0.0398979
0.0414576
0.0431928
0.0450536
0.0469484
0.048802
0.0505723
0.0522226
0.0537283
0.0550742
0.0562584
0.0572864
0.0581427
0.0587992
0.0592549
0.0599583
0.0605529
)
;

boundaryField
{
    outlet
    {
        type            fixedValue;
        value           nonuniform 0();
    }
    upperWall
    {
        type            symmetryPlane;
    }
    lowerWall
    {
        type            symmetryPlane;
    }
    inlet
    {
        type            zeroGradient;
    }
    cylinder
    {
        type            zeroGradient;
    }
    frontAndBack
    {
        type            empty;
    }
    procBoundary0to1
    {
        type            processor;
        value           nonuniform List<scalar> 
45
(
0.145473
0.166583
0.145473
0.215788
0.166583
0.193236
0.275483
0.261849
0.215788
0.244445
0.0925486
0.128854
0.0925486
0.106991
0.128854
0.070236
0.0582368
0.0505115
0.0441353
0.0391846
0.0355239
0.032831
0.0311123
0.0303017
0.0302552
0.0308847
0.0321411
0.0338153
0.0358201
0.0380245
0.0403183
0.0426628
0.0449695
0.0471795
0.0492518
0.051151
0.0528608
0.0543713
0.0556842
0.0568139
0.0577546
0.0584688
0.058935
0.05953
0.0601102
)
;
    }
    procBoundary0to4
    {
        type            processor;
        value           nonuniform List<scalar> 
33
(
0.251556
0.262125
0.273185
0.110769
0.10597
0.107782
0.108327
0.110586
0.110186
0.112267
0.113179
0.114328
0.115999
0.118406
0.120212
0.122752
0.125623
0.128906
0.132388
0.136209
0.140585
0.145622
0.151035
0.156918
0.163371
0.170551
0.178383
0.186873
0.196027
0.205923
0.216457
0.227782
0.239931
)
;
    }
}


// ************************************************************************* //
