/*--------------------------------*- C++ -*----------------------------------*\
| =========                 |                                                 |
| \\      /  F ield         | OpenFOAM: The Open Source CFD Toolbox           |
|  \\    /   O peration     | Version:                                        |
|   \\  /    A nd           | Website:  www.openfoam.com                      |
|    \\/     M anipulation  |                                                 |
\*---------------------------------------------------------------------------*/
FoamFile
{
    version     2.0;
    format      ascii;
    class       volVectorField;
    location    "117";
    object      U;
}
// * * * * * * * * * * * * * * * * * * * * * * * * * * * * * * * * * * * * * //

dimensions      [0 1 -1 0 0 0 0];


internalField   nonuniform List<vector> 
1150
(
(0.855567 -0.0254422 -4.73344e-21)
(0.843523 -0.0278293 1.10002e-20)
(0.830433 -0.0307011 -6.09499e-21)
(0.853981 -0.00613743 -3.2694e-21)
(0.841715 -0.00677053 2.85721e-21)
(0.828422 -0.00725917 -3.08703e-20)
(0.854528 0.0114319 -5.50873e-21)
(0.84328 0.0124474 4.27146e-20)
(0.830841 0.0141386 -5.29204e-20)
(0.858811 0.0327835 1.6657e-21)
(0.849065 0.0351314 1.25545e-20)
(0.864641 0.0501043 5.86958e-21)
(0.856721 0.0535092 1.07341e-19)
(0.874717 0.0704117 -2.90277e-20)
(0.999647 0.000269046 -2.04583e-22)
(1.00445 -0.00544406 -5.94889e-23)
(1.003 -0.009739 3.81639e-23)
(1.00242 0.00144858 -1.59571e-22)
(0.999436 -0.000899718 4.33035e-23)
(1.00025 -0.00231137 1.84659e-22)
(0.997869 0.0019098 -1.69454e-22)
(0.99749 -0.00245511 1.03675e-23)
(0.996813 -0.00903116 -9.85792e-23)
(0.995805 -0.00266716 1.54576e-22)
(0.993268 -0.00875853 -1.05081e-22)
(0.992005 -0.00937217 3.8108e-23)
(0.990262 -0.0072684 -3.60395e-22)
(0.98722 -0.0068176 2.93033e-22)
(0.983846 -0.00751952 -2.32495e-22)
(0.980492 -0.00653839 5.06571e-22)
(0.976524 -0.00648626 3.17201e-23)
(0.972117 -0.0060648 -1.04478e-21)
(0.966929 -0.00749849 1.10918e-21)
(0.962159 -0.0074793 -3.28565e-22)
(0.956027 -0.00916457 7.77897e-22)
(0.949871 -0.00953011 -1.96409e-21)
(0.942142 -0.0117701 2.61177e-22)
(0.93476 -0.0125306 1.22618e-21)
(0.925721 -0.0149653 3.34751e-22)
(0.916454 -0.0159549 -3.38987e-21)
(0.90577 -0.018358 2.75652e-21)
(0.894578 -0.019459 -1.55388e-22)
(0.882138 -0.0218501 5.58065e-22)
(0.868761 -0.0231424 2.80252e-21)
(0.999172 -0.000901409 8.79121e-22)
(1.00352 -0.00387743 -1.39549e-22)
(1.00546 -0.011473 -5.43516e-22)
(1.00301 0.00364121 2.30716e-22)
(0.998175 -0.00232279 -4.09797e-22)
(1.00011 -0.00026308 6.62861e-22)
(0.996467 0.000730556 -2.58336e-22)
(0.995863 -0.00107957 -5.24855e-22)
(0.997058 -0.00987914 4.33758e-22)
(0.996226 -0.000921546 -7.77155e-22)
(0.993352 -0.00941953 3.62962e-22)
(0.992689 -0.0073232 -2.5673e-22)
(0.991815 -0.00719435 4.112e-22)
(0.987234 -0.00451893 -2.45191e-22)
(0.984156 -0.00651636 2.17899e-21)
(0.980376 -0.00357118 -3.35714e-21)
(0.975953 -0.0048251 2.98418e-21)
(0.971168 -0.00241519 2.35276e-21)
(0.965431 -0.00473683 -2.9743e-21)
(0.960948 -0.00273184 3.01667e-21)
(0.95425 -0.00490884 -4.79265e-21)
(0.948422 -0.00318008 -1.64873e-21)
(0.940162 -0.00549714 -1.23523e-21)
(0.933233 -0.00402538 -2.07598e-21)
(0.92391 -0.00603229 5.58089e-21)
(0.914997 -0.00464167 1.08312e-21)
(0.904164 -0.00658631 -2.98963e-21)
(0.893298 -0.00513698 6.8537e-21)
(0.880691 -0.00679745 3.88236e-22)
(0.867218 -0.00515644 -7.95505e-21)
(0.998712 -0.00196472 -1.46598e-21)
(1.00255 -0.0026403 -2.67334e-22)
(1.00811 -0.0132674 -1.79952e-22)
(1.00323 0.00630221 -1.08547e-21)
(0.996906 -0.00382979 1.84827e-22)
(0.999753 0.00197991 -1.51797e-21)
(0.99497 -0.000298977 1.27756e-21)
(0.994357 -0.000234683 1.50839e-21)
(0.997478 -0.0105572 -1.11016e-21)
(0.996656 0.000481755 -1.64501e-21)
(0.99363 -0.0105715 1.47979e-21)
(0.993404 -0.0048013 -1.76511e-21)
(0.993332 -0.0074741 3.20183e-21)
(0.987133 -0.00217603 -5.62538e-22)
(0.98439 -0.00525324 -1.11718e-21)
(0.979994 -0.000613025 2.02365e-21)
(0.975364 -0.00323984 -7.03951e-21)
(0.970017 0.000748861 9.77524e-21)
(0.96404 -0.00253153 -1.46967e-21)
(0.959802 0.00102746 -4.03934e-23)
(0.952659 -0.00195656 -2.8099e-21)
(0.947337 0.00146184 1.62427e-22)
(0.938587 -0.00131396 -6.0767e-21)
(0.932279 0.00216701 1.22024e-20)
(0.922654 -0.000100645 1.48358e-21)
(0.914082 0.00376469 -9.06074e-21)
(0.902866 0.00219285 3.54467e-21)
(0.892234 0.00672602 1.28761e-23)
(0.879699 0.00582994 -7.35181e-21)
(0.866756 0.0112324 1.54045e-20)
(0.998275 -0.0027908 9.71506e-22)
(1.00159 -0.00190472 6.67797e-22)
(1.01104 -0.0148383 3.16056e-22)
(1.00299 0.00903235 2.7559e-21)
(0.995542 -0.00503428 3.68746e-22)
(0.999189 0.00417698 -8.27701e-22)
(0.993376 -0.00129631 2.37951e-23)
(0.993011 0.000170889 -7.91448e-22)
(0.998284 -0.011185 1.53814e-21)
(0.996967 0.00147929 -8.6503e-22)
(0.994299 -0.0116969 -1.7719e-21)
(0.994216 -0.00242227 1.16481e-21)
(0.994604 -0.00750017 1.38386e-21)
(0.987024 0.000308173 -3.17272e-21)
(0.984521 -0.00374567 6.78804e-21)
(0.979071 0.00240085 -9.15935e-21)
(0.974431 -0.00131173 4.59699e-21)
(0.968471 0.00453647 -6.74084e-21)
(0.962394 0.000269484 3.51326e-21)
(0.958389 0.00573156 7.49573e-21)
(0.950956 0.00209563 -1.05179e-20)
(0.946008 0.00753652 1.34842e-20)
(0.937363 0.00446976 -1.49229e-20)
(0.931338 0.0103184 6.0764e-21)
(0.921704 0.00819493 7.74416e-21)
(0.914164 0.0148911 1.00005e-20)
(0.903236 0.0140419 -3.38926e-20)
(0.893367 0.0218767 6.81705e-21)
(0.881453 0.0222864 -1.6794e-21)
(0.869369 0.0314355 -5.16962e-21)
(0.997852 -0.0035395 4.17151e-22)
(1.00074 -0.00153242 -4.05076e-22)
(1.01414 -0.0163681 6.04544e-22)
(1.00222 0.0123425 -1.02524e-21)
(0.9941 -0.00644815 9.29734e-22)
(0.998332 0.00669817 -6.15944e-22)
(0.991762 -0.00241898 9.58768e-23)
(0.992012 0.000146815 -2.84366e-21)
(0.999488 -0.01166 2.25671e-21)
(0.99728 0.00217341 1.7826e-21)
(0.995168 -0.0130877 -3.08897e-21)
(0.995163 0.000688628 -7.47893e-22)
(0.995827 -0.00819659 3.68012e-21)
(0.986534 0.00326441 -2.40613e-21)
(0.984361 -0.00239669 8.98732e-22)
(0.977703 0.00555544 -1.07194e-21)
(0.973545 0.000216151 9.24288e-22)
(0.96686 0.00773132 -3.45653e-22)
(0.961258 0.00216157 -8.61187e-22)
(0.957358 0.00954598 1.33858e-20)
(0.950105 0.00455255 -1.16676e-20)
(0.945558 0.0119449 -1.18207e-20)
(0.936843 0.00836982 -2.4203e-21)
(0.931968 0.016441 3.27971e-20)
(0.922456 0.0142949 1.87053e-20)
(0.915467 0.0235482 -1.84755e-20)
(0.905059 0.0229501 1.26348e-20)
(0.895759 0.0337542 -2.46871e-20)
(0.884386 0.0348775 1.37663e-20)
(0.87353 0.0479123 -9.53429e-20)
(0.997493 -0.00395783 -2.18166e-21)
(1.00001 -0.0018661 8.58777e-22)
(1.01744 -0.0173326 -1.4633e-21)
(1.00086 0.0154501 1.36338e-21)
(0.992428 -0.00726141 -1.79326e-21)
(0.997439 0.00874038 8.3614e-22)
(0.99013 -0.00343026 5.2333e-22)
(0.991446 -0.000489956 1.02792e-21)
(1.00141 -0.0119737 6.95233e-23)
(0.997263 0.00238005 -3.58761e-21)
(0.996594 -0.0138384 9.62071e-22)
(0.996035 0.00306082 1.20789e-21)
(0.996476 -0.00795168 6.57697e-21)
(0.985977 0.0068106 -6.51182e-21)
(0.98369 -0.000147395 3.00738e-21)
(0.975815 0.00882965 4.32841e-21)
(0.971963 0.00315539 -4.32032e-21)
(0.964622 0.0115814 -9.91716e-21)
(0.959736 0.0049875 -4.56806e-21)
(0.956256 0.014411 1.72589e-20)
(0.94878 0.0084548 6.99443e-21)
(0.945134 0.0183159 -3.8991e-21)
(0.937142 0.0142412 6.03977e-21)
(0.931954 0.0248273 5.25421e-21)
(0.923709 0.0228018 -2.22398e-20)
(0.917211 0.0347683 -2.83355e-20)
(0.907565 0.034685 1.37206e-20)
(0.89983 0.0489909 6.70794e-20)
(0.889611 0.0509556 -9.59005e-20)
(0.880734 0.0676872 1.07431e-19)
(0.997206 -0.00440473 1.0951e-21)
(0.999627 -0.00245034 -1.13425e-21)
(1.02069 -0.018224 -1.76155e-21)
(0.998777 0.0192722 1.12634e-21)
(0.990698 -0.00854542 7.49032e-22)
(0.996342 0.0112524 -1.70907e-21)
(0.988898 -0.00508108 1.56924e-21)
(0.991429 -0.00118601 1.43286e-21)
(1.00392 -0.0122842 -2.35139e-22)
(0.997612 0.00248316 -1.15808e-21)
(0.998023 -0.0150043 4.574e-21)
(0.996625 0.00657483 -3.27115e-21)
(0.997441 -0.00920281 6.07838e-21)
(0.985118 0.0122074 -1.00857e-20)
(0.982035 2.51461e-05 1.20772e-20)
(0.973886 0.0129484 -5.13453e-21)
(0.970734 0.00370922 -9.90913e-21)
(0.962832 0.0142997 -5.93778e-21)
(0.959022 0.00530839 -3.93676e-21)
(0.955476 0.0171561 -1.91202e-21)
(0.949602 0.00980781 2.99218e-20)
(0.945701 0.0209334 -3.22307e-20)
(0.939001 0.0167492 4.59881e-22)
(0.934593 0.0287369 2.10868e-20)
(0.926136 0.0258586 -1.85607e-20)
(0.921486 0.0411107 1.15322e-20)
(0.912475 0.040259 4.43406e-20)
(0.905675 0.0584555 -7.67606e-20)
(0.897318 0.0607162 5.73251e-20)
(0.889663 0.0816809 1.81074e-20)
(0.997018 -0.00447098 3.31383e-23)
(0.999689 -0.00392235 9.09717e-22)
(1.02408 -0.0180653 1.72313e-21)
(0.995348 0.022562 1.17632e-21)
(0.989298 -0.00901975 -5.51969e-23)
(0.994902 0.0125423 -2.45169e-21)
(0.988253 -0.00625503 -1.45655e-21)
(0.992136 -0.00292608 3.96742e-21)
(1.00679 -0.0120965 -4.92566e-21)
(0.997552 0.00211411 2.16548e-21)
(1.00059 -0.013843 -6.68195e-22)
(0.996425 0.00855262 9.65067e-21)
(0.997508 -0.00747237 -1.86865e-21)
(0.983853 0.0176343 -2.06562e-21)
(0.979594 0.00266944 -7.44946e-21)
(0.97175 0.0160156 -6.22907e-21)
(0.968061 0.0078935 2.24782e-20)
(0.96118 0.0161705 -8.16634e-21)
(0.959038 0.0104224 -7.62243e-21)
(0.953888 0.021198 -2.26258e-21)
(0.949863 0.0144385 1.91969e-20)
(0.945941 0.0280709 -7.6173e-21)
(0.940215 0.0224718 1.12078e-20)
(0.93681 0.0391439 7.44669e-21)
(0.92972 0.0347777 -5.9253e-20)
(0.924988 0.0538687 1.02941e-20)
(0.918629 0.053205 -8.65287e-21)
(0.91267 0.0744788 5.07387e-22)
(0.907405 0.0773071 4.85341e-20)
(0.996565 -0.00474578 9.40057e-22)
(1.00044 -0.00545676 -4.56526e-22)
(1.02771 -0.0177122 -9.44389e-22)
(0.990213 0.026541 1.35532e-21)
(0.98836 -0.0100056 1.40338e-21)
(0.992728 0.0144115 -2.81138e-22)
(0.988003 -0.00868889 -1.62865e-21)
(0.993385 -0.00408469 2.23614e-21)
(1.00957 -0.012351 -1.06922e-21)
(0.996822 0.00163922 2.85489e-22)
(1.00347 -0.0142073 9.42231e-22)
(0.995934 0.0116634 -5.34794e-21)
(0.997278 -0.00900577 3.37357e-21)
(0.979825 0.0244282 1.57185e-21)
(0.978875 -0.000123552 -9.21617e-21)
(0.966337 0.0219456 1.17538e-20)
(0.970076 0.00527369 -1.0917e-20)
(0.956302 0.0181937 2.27166e-20)
(0.962876 0.00876508 -1.55627e-20)
(0.952576 0.0228175 1.11603e-20)
(0.951738 0.0121794 9.24298e-22)
(0.947323 0.0288617 -3.72072e-20)
(0.94417 0.022208 1.07359e-20)
(0.938501 0.0390677 5.02292e-21)
(0.936801 0.0361192 1.99763e-20)
(0.930018 0.0561838 -2.1956e-20)
(0.927314 0.0553141 -2.27798e-21)
(0.921938 0.0808655 2.91147e-20)
(0.918767 0.0828202 1.97788e-20)
(0.995902 -0.00457173 -9.87817e-22)
(1.00171 -0.00813029 2.91812e-22)
(1.03109 -0.0154276 -1.40427e-21)
(0.98609 0.0294674 2.40122e-22)
(0.985776 -0.0104048 1.0001e-22)
(0.995365 0.0147779 1.7333e-22)
(0.984347 -0.0101905 -5.44752e-22)
(0.998502 -0.00620707 7.38567e-22)
(1.01043 -0.010747 -4.68253e-21)
(0.997232 0.000897643 6.44233e-21)
(1.00389 -0.0106343 5.24933e-21)
(0.996519 0.0133618 -5.61028e-21)
(0.998189 -0.00363321 -9.8537e-21)
(0.976922 0.0306021 1.83871e-20)
(0.972302 0.00235365 -2.23408e-20)
(0.971616 0.0264725 1.61668e-20)
(0.960351 0.00837907 -2.14071e-21)
(0.965293 0.0199918 -1.69892e-20)
(0.95666 0.016338 1.15118e-20)
(0.956881 0.0255405 1.20498e-20)
(0.951276 0.0206361 1.16469e-20)
(0.950919 0.0354506 -2.97492e-20)
(0.943663 0.0313482 -2.24557e-20)
(0.945854 0.0505412 6.37357e-20)
(0.935669 0.0457551 -4.27327e-20)
(0.941461 0.0718165 -8.88969e-22)
(0.931326 0.066908 -1.79604e-20)
(0.937475 0.0975264 7.1015e-20)
(1.0001 -0.00481476 0)
(0.997883 -0.0108762 0)
(1.03617 -0.0135089 0)
(0.978344 0.0332736 0)
(0.990417 -0.0123507 0)
(0.99173 0.0155501 0)
(0.988528 -0.0136505 0)
(0.997017 -0.00864187 0)
(1.01415 -0.0104674 0)
(0.99143 -0.000331518 0)
(1.01025 -0.0105882 0)
(0.992664 0.0137537 0)
(1.00271 -0.00323392 0)
(0.968089 0.036205 0)
(0.979283 -0.00482804 0)
(0.965559 0.0324712 0)
(0.968706 -0.00111501 0)
(0.964367 0.02079 0)
(0.964543 0.01232 0)
(0.954942 0.0223765 0)
(0.959608 0.0143541 0)
(0.951281 0.0342822 0)
(0.954908 0.0245259 0)
(0.943004 0.0462412 0)
(0.955222 0.0414476 0)
(0.938102 0.0651416 0)
(0.954304 0.0624508 0)
(0.94078 0.0920575 0)
(1.00764 -0.00439917 0)
(0.991241 -0.0142424 0)
(1.03414 -0.0107859 0)
(0.97323 0.0361366 0)
(0.997996 -0.0124796 0)
(0.982262 0.0149364 0)
(0.998512 -0.0139383 0)
(0.987712 -0.010951 0)
(1.01406 -0.00879847 0)
(0.983825 -0.00149058 0)
(1.01277 -0.00857953 0)
(0.987564 0.0136986 0)
(0.996333 0.00346914 0)
(0.962935 0.0378557 0)
(0.987229 -0.0021199 0)
(0.955884 0.0375428 0)
(0.981811 -0.00243767 0)
(0.953384 0.0296917 0)
(0.97276 0.0110777 0)
(0.951885 0.0287149 0)
(0.962961 0.0195514 0)
(0.948499 0.0337475 0)
(0.960437 0.0351466 0)
(0.941849 0.0419414 0)
(0.963244 0.0520258 0)
(0.941383 0.0593171 0)
(0.9655 0.071712 0)
(0.949425 0.0813326 0)
(1.01315 -0.0042609 0)
(0.986625 -0.0165422 0)
(1.02146 -0.00811532 0)
(0.978506 0.0378129 0)
(1.00066 -0.0121434 0)
(0.979393 0.0144256 0)
(1.00564 -0.0143986 0)
(0.979108 -0.012896 0)
(1.00936 -0.00630023 0)
(0.98069 -0.00460415 0)
(1.00339 -0.00681253 0)
(0.984828 0.0154129 0)
(0.983953 0.00926169 0)
(0.968443 0.0359569 0)
(0.980586 0.00122018 0)
(0.961692 0.0358093 0)
(0.980476 -0.00149181 0)
(0.952753 0.030515 0)
(0.974198 0.0119887 0)
(0.950564 0.0278973 0)
(0.964155 0.0243701 0)
(0.948144 0.0283599 0)
(0.960473 0.0410542 0)
(0.946145 0.0362802 0)
(0.961093 0.0540622 0)
(0.951205 0.0548949 0)
(0.965755 0.0716687 0)
(0.960553 0.0735602 0)
(1.0143 -0.0038493 0)
(0.985137 -0.0173876 0)
(1.00443 -0.00663824 0)
(0.991506 0.0375554 0)
(1.00043 -0.00993742 0)
(0.984437 0.0120354 0)
(1.00876 -0.0128046 0)
(0.975971 -0.0140961 0)
(1.00387 -0.00415262 0)
(0.981716 -0.00658554 0)
(0.987543 -0.00374019 0)
(0.985248 0.0153556 0)
(0.979033 0.0143193 0)
(0.977473 0.033825 0)
(0.973074 0.00431796 0)
(0.972831 0.0340218 0)
(0.976516 0.00302504 0)
(0.961023 0.0289273 0)
(0.977051 0.0177316 0)
(0.953866 0.024173 0)
(0.970417 0.0317707 0)
(0.953898 0.0256316 0)
(0.96284 0.0441177 0)
(0.954318 0.0361427 0)
(0.961754 0.0519893 0)
(0.958623 0.0523544 0)
(0.967311 0.0684791 0)
(0.967535 0.0677429 0)
(1.01391 -0.00334285 0)
(0.984613 -0.0168646 0)
(0.990282 -0.00657921 0)
(1.0038 0.0356784 0)
(1.00277 -0.00716712 0)
(0.989623 0.00942215 0)
(1.01102 -0.00989391 0)
(0.975709 -0.0147046 0)
(0.998262 -0.00230936 0)
(0.983909 -0.00641554 0)
(0.974218 -0.00136996 0)
(0.987026 0.0125908 0)
(0.98133 0.0177696 0)
(0.985735 0.0334282 0)
(0.973762 0.0062468 0)
(0.978801 0.0329866 0)
(0.979136 0.00639856 0)
(0.967842 0.026503 0)
(0.985006 0.0235349 0)
(0.961017 0.0220847 0)
(0.977012 0.0357447 0)
(0.963154 0.0260364 0)
(0.968827 0.0444371 0)
(0.962483 0.038677 0)
(0.966074 0.0498314 0)
(0.963673 0.050223 0)
(0.969476 0.0640529 0)
(0.971469 0.0636348 0)
(1.01447 -0.00258956 0)
(0.983024 -0.0151375 0)
(0.980976 -0.00791763 0)
(1.0121 0.0316854 0)
(1.00774 -0.00314511 0)
(0.991628 0.00693196 0)
(1.01331 -0.00624398 0)
(0.974766 -0.0140365 0)
(0.99309 -0.00110608 0)
(0.985566 -0.00444865 0)
(0.967247 4.53495e-05 0)
(0.987768 0.00859961 0)
(0.984647 0.018276 0)
(0.992358 0.0349211 0)
(0.980371 0.0081085 0)
(0.981941 0.0319236 0)
(0.985186 0.0105281 0)
(0.971262 0.0224635 0)
(0.99265 0.0276795 0)
(0.968943 0.0221761 0)
(0.982762 0.0377359 0)
(0.971311 0.0292851 0)
(0.975379 0.043565 0)
(0.968192 0.0422703 0)
(0.971681 0.048634 0)
(0.968074 0.0502182 0)
(0.972021 0.0596508 0)
(0.973725 0.0607359 0)
(1.01514 -0.00165056 0)
(0.981209 -0.0124328 0)
(0.976916 -0.0105309 0)
(1.01606 0.0261062 0)
(1.01218 0.00157598 0)
(0.993075 0.00495478 0)
(1.01368 -0.00250266 0)
(0.974514 -0.0114228 0)
(0.98905 -0.00128065 0)
(0.986069 -0.00146125 0)
(0.967843 0.000310795 0)
(0.986349 0.00477658 0)
(0.986806 0.0154377 0)
(0.996523 0.0364258 0)
(0.988616 0.0110813 0)
(0.985526 0.0298589 0)
(0.991012 0.0156545 0)
(0.97523 0.0182369 0)
(0.994984 0.0295163 0)
(0.976979 0.0237707 0)
(0.986054 0.0386701 0)
(0.977729 0.0340623 0)
(0.980357 0.0423276 0)
(0.973922 0.0459209 0)
(0.976843 0.048115 0)
(0.973085 0.0518742 0)
(0.976098 0.0555575 0)
(0.976078 0.0591675 0)
(1.01423 -0.000534832 0)
(0.981117 -0.00927779 0)
(0.977665 -0.013978 0)
(1.01624 0.0200004 0)
(1.01384 0.00607621 0)
(0.995579 0.00417138 0)
(1.0116 0.00124326 0)
(0.976351 -0.00762098 0)
(0.986512 -0.00228447 0)
(0.986515 0.00143796 0)
(0.973811 -0.000414367 0)
(0.984125 0.00292318 0)
(0.987661 0.0102873 0)
(0.998921 0.0358588 0)
(0.995522 0.0150986 0)
(0.9906 0.0271485 0)
(0.995725 0.0212182 0)
(0.980281 0.0169244 0)
(0.993476 0.029946 0)
(0.982714 0.025135 0)
(0.986848 0.0385462 0)
(0.982995 0.0385203 0)
(0.984497 0.0421085 0)
(0.980216 0.0487572 0)
(0.981815 0.0477547 0)
(0.979025 0.0533343 0)
(0.982146 0.0529326 0)
(0.980537 0.0578772 0)
(1.0117 0.000655052 0)
(0.983169 -0.00615552 0)
(0.982606 -0.0179579 0)
(1.01274 0.0144636 0)
(1.01219 0.00972607 0)
(0.998933 0.0045182 0)
(1.00771 0.00477883 0)
(0.980556 -0.00345336 0)
(0.98601 -0.00355137 0)
(0.98633 0.00340665 0)
(0.982462 -0.00135159 0)
(0.982512 0.00301571 0)
(0.988509 0.0042814 0)
(0.998691 0.0322937 0)
(0.999719 0.0195969 0)
(0.995769 0.0248451 0)
(0.998653 0.0264637 0)
(0.986798 0.0182765 0)
(0.990967 0.0302744 0)
(0.98742 0.0271442 0)
(0.985848 0.0368338 0)
(0.987224 0.0415632 0)
(0.986844 0.0418364 0)
(0.985975 0.0498306 0)
(0.987398 0.0475308 0)
(0.985197 0.0537619 0)
(0.989963 0.051704 0)
(0.986565 0.0562807 0)
(1.00864 0.00184222 0)
(0.986709 -0.00386523 0)
(0.989278 -0.0215055 0)
(1.00666 0.0107498 0)
(1.00846 0.0115498 0)
(1.00154 0.00551874 0)
(1.00363 0.00821726 0)
(0.986458 -0.000223807 0)
(0.987199 -0.00359236 0)
(0.986248 0.00392447 0)
(0.990083 -0.00298875 0)
(0.982179 0.0050548 0)
(0.989721 -4.21299e-05 0)
(0.995643 0.0262576 0)
(1.00078 0.022361 0)
(0.998715 0.0240132 0)
(0.999949 0.0294705 0)
(0.993714 0.0222281 0)
(0.989725 0.0315139 0)
(0.99197 0.0296048 0)
(0.985736 0.0357977 0)
(0.990311 0.0415979 0)
(0.98874 0.0416711 0)
(0.990665 0.0485918 0)
(0.992353 0.0470485 0)
(0.991141 0.0522292 0)
(0.99663 0.050329 0)
(0.993478 0.0539219 0)
(1.00583 0.0027944 0)
(0.990938 -0.00232314 0)
(0.995203 -0.023885 0)
(0.999928 0.00855872 0)
(1.0038 0.012011 0)
(1.00292 0.006472 0)
(1.00023 0.0111858 0)
(0.992873 0.00209644 0)
(0.989825 -0.00269631 0)
(0.987016 0.00401498 0)
(0.995303 -0.00429385 0)
(0.982247 0.00721594 0)
(0.991297 -0.00214244 0)
(0.99173 0.0200587 0)
(0.998433 0.0226862 0)
(0.998847 0.0239396 0)
(0.99891 0.030777 0)
(0.999399 0.0261698 0)
(0.990356 0.032867 0)
(0.996607 0.0323962 0)
(0.987942 0.0355171 0)
(0.994135 0.0405719 0)
(0.991595 0.0410703 0)
(0.994762 0.0460082 0)
(0.99666 0.0456878 0)
(0.996351 0.0491802 0)
(1.00193 0.0483544 0)
(0.999845 0.0506832 0)
(1.00366 0.00345225 0)
(0.995073 -0.00178685 0)
(0.998501 -0.0244914 0)
(0.994966 0.00799059 0)
(1.00019 0.0109103 0)
(1.00236 0.00690428 0)
(0.998472 0.0134309 0)
(0.998012 0.00294646 0)
(0.992616 -0.000476176 0)
(0.989386 0.00408006 0)
(0.997793 -0.00522482 0)
(0.983762 0.00908599 0)
(0.992427 -0.00159141 0)
(0.988978 0.0156904 0)
(0.995303 0.0201037 0)
(0.996581 0.024462 0)
(0.996839 0.0296966 0)
(1.00189 0.0287407 0)
(0.992847 0.0338409 0)
(0.999873 0.0339062 0)
(0.992501 0.0366722 0)
(0.998046 0.0386422 0)
(0.99607 0.0406321 0)
(0.999147 0.0425451 0)
(1.00098 0.043888 0)
(1.0016 0.0453316 0)
(1.00609 0.0456426 0)
(1.00574 0.0467972 0)
(1.00165 0.00370797 0)
(0.998851 -0.0014493 0)
(0.999998 -0.0238785 0)
(0.992055 0.00775789 0)
(0.997983 0.00955461 0)
(1.00082 0.0068012 0)
(0.997311 0.0145821 0)
(1.00126 0.00341992 0)
(0.994801 0.00151767 0)
(0.992794 0.00464142 0)
(0.999339 -0.00492558 0)
(0.986101 0.00974099 0)
(0.993542 0.000189113 0)
(0.989002 0.0138928 0)
(0.9934 0.0168868 0)
(0.993966 0.0242116 0)
(0.994397 0.0279312 0)
(1.00119 0.0291889 0)
(0.99531 0.0335203 0)
(1.00146 0.0339538 0)
(0.996621 0.0370724 0)
(1.00157 0.036919 0)
(1.00054 0.0396168 0)
(1.00389 0.0394348 0)
(1.00505 0.0416196 0)
(1.00673 0.0415813 0)
(1.00958 0.0425865 0)
(1.01082 0.0427697 0)
(0.999991 0.00373929 0)
(1.00234 -0.0019213 0)
(0.999429 -0.0217877 0)
(0.990612 0.00835181 0)
(0.997671 0.00778546 0)
(0.998627 0.00646253 0)
(0.997313 0.0148783 0)
(1.00299 0.00296423 0)
(0.995814 0.00338429 0)
(0.996516 0.0050396 0)
(0.999482 -0.00359847 0)
(0.989778 0.0100205 0)
(0.993826 0.00228234 0)
(0.990386 0.0144778 0)
(0.993655 0.0141941 0)
(0.992258 0.0237157 0)
(0.993633 0.0258595 0)
(0.99891 0.0283803 0)
(0.997608 0.0320402 0)
(1.0018 0.0322135 0)
(0.999917 0.0362131 0)
(1.0038 0.0345746 0)
(1.00398 0.037994 0)
(1.00774 0.0360616 0)
(1.00845 0.0389931 0)
(1.01107 0.0376433 0)
(1.01229 0.0394302 0)
(1.01486 0.0386127 0)
(0.998805 0.00328204 0)
(1.00483 -0.00185359 0)
(0.998244 -0.0189395 0)
(0.990266 0.00790412 0)
(0.998395 0.00654354 0)
(0.996993 0.00608155 0)
(0.997755 0.0141357 0)
(1.00391 0.00319567 0)
(0.995993 0.00424179 0)
(0.99951 0.00572174 0)
(0.998913 -0.00164417 0)
(0.99331 0.00993967 0)
(0.994176 0.00406115 0)
(0.992069 0.0153292 0)
(0.995564 0.013177 0)
(0.992545 0.0223682 0)
(0.994726 0.0240989 0)
(0.997575 0.0266991 0)
(0.999772 0.0298602 0)
(1.00246 0.029711 0)
(1.00252 0.0338185 0)
(1.00545 0.0320433 0)
(1.0061 0.0353697 0)
(1.01037 0.0331006 0)
(1.01066 0.0357521 0)
(1.01419 0.0342231 0)
(1.01393 0.0359122 0)
(1.01743 0.0350044 0)
(0.997926 0.00272845 0)
(1.00619 -0.00227359 0)
(0.997578 -0.0153255 0)
(0.990878 0.00767748 0)
(0.998656 0.00516299 0)
(0.996392 0.0059007 0)
(0.998051 0.0127517 0)
(1.00432 0.00315233 0)
(0.99617 0.00499745 0)
(1.00132 0.00587779 0)
(0.998443 0.000621886 0)
(0.996116 0.0100005 0)
(0.995034 0.0053793 0)
(0.99381 0.0160848 0)
(0.997627 0.0129067 0)
(0.994579 0.0210486 0)
(0.996779 0.0222206 0)
(0.998069 0.0249557 0)
(1.00147 0.0273561 0)
(1.00371 0.0270579 0)
(1.00446 0.0307183 0)
(1.00685 0.0290664 0)
(1.00729 0.0323487 0)
(1.01165 0.0299937 0)
(1.01192 0.032492 0)
(1.01583 0.0307397 0)
(1.01499 0.0324612 0)
(1.01862 0.0314139 0)
(0.997681 0.00193524 0)
(1.00624 -0.00215524 0)
(0.996639 -0.0117553 0)
(0.992789 0.00674259 0)
(0.998872 0.00427573 0)
(0.9964 0.00560234 0)
(0.998783 0.0109986 0)
(1.00405 0.00369015 0)
(0.996274 0.00532631 0)
(1.0023 0.00631166 0)
(0.997904 0.0025845 0)
(0.998196 0.0100377 0)
(0.996175 0.00642005 0)
(0.995793 0.0156666 0)
(0.999371 0.0131197 0)
(0.997351 0.0193972 0)
(0.999301 0.0205388 0)
(0.999571 0.0229767 0)
(1.00314 0.0249644 0)
(1.00508 0.0246585 0)
(1.0062 0.0274892 0)
(1.00811 0.0263321 0)
(1.00824 0.028965 0)
(1.01215 0.0273063 0)
(1.01243 0.0290417 0)
(1.01643 0.0277378 0)
(1.0155 0.0288538 0)
(1.01898 0.0281886 0)
(0.997671 0.00132646 0)
(1.00532 -0.00217788 0)
(0.996666 -0.00868713 0)
(0.994899 0.00608686 0)
(0.998731 0.00363931 0)
(0.997292 0.00531066 0)
(0.999118 0.00937834 0)
(1.00334 0.00406345 0)
(0.996638 0.00562284 0)
(1.00247 0.00652662 0)
(0.99828 0.00401754 0)
(0.999742 0.0100234 0)
(0.997723 0.00722245 0)
(0.997969 0.0147613 0)
(1.00073 0.0130847 0)
(0.99989 0.0179206 0)
(1.00134 0.0188222 0)
(1.00151 0.0211093 0)
(1.00432 0.0227096 0)
(1.00636 0.0225372 0)
(1.00747 0.0245759 0)
(1.00927 0.0237326 0)
(1.00916 0.0257132 0)
(1.01244 0.0245816 0)
(1.01272 0.0257635 0)
(1.01648 0.0247748 0)
(1.01583 0.025412 0)
(1.01896 0.0249579 0)
(0.997863 0.000816507 0)
(1.00429 -0.00197374 0)
(0.996986 -0.00617582 0)
(0.996326 0.00524531 0)
(0.998564 0.00318192 0)
(0.998505 0.00492628 0)
(0.999489 0.00820261 0)
(1.00277 0.00464804 0)
(0.997327 0.00568857 0)
(1.00222 0.00665394 0)
(0.998962 0.00481808 0)
(1.00081 0.00966009 0)
(0.999054 0.00785591 0)
(1.00001 0.0135671 0)
(1.00179 0.0128617 0)
(1.00196 0.0164412 0)
(1.00302 0.0172893 0)
(1.00329 0.0191691 0)
(1.00536 0.020466 0)
(1.00735 0.020504 0)
(1.0085 0.0218055 0)
(1.01019 0.0213244 0)
(1.01009 0.0225742 0)
(1.01269 0.0219743 0)
(1.01294 0.0226384 0)
(1.01619 0.0220306 0)
(1.01591 0.0222327 0)
(1.01861 0.0219777 0)
(0.998331 0.000522853 0)
(1.003 -0.00202292 0)
(0.997267 -0.00414358 0)
(0.997868 0.00496533 0)
(0.998598 0.00253139 0)
(0.999144 0.00436587 0)
(0.999803 0.00747128 0)
(1.00246 0.00493253 0)
(0.998279 0.00581857 0)
(1.00214 0.00671011 0)
(0.999766 0.0051699 0)
(1.00151 0.00912453 0)
(1.00008 0.008009 0)
(1.00148 0.0124192 0)
(1.00275 0.0122708 0)
(1.00357 0.015066 0)
(1.00436 0.0158081 0)
(1.00493 0.0172999 0)
(1.00636 0.0183564 0)
(1.0082 0.0184992 0)
(1.00923 0.0193256 0)
(1.01084 0.0190189 0)
(1.01076 0.0197542 0)
(1.0128 0.0194197 0)
(1.01296 0.0197508 0)
(1.01563 0.0193724 0)
(1.01559 0.0193213 0)
(1.01791 0.0191382 0)
(0.999042 0.000339951 0)
(1.00199 -0.00164631 0)
(0.996656 -0.00295713 0)
(0.999234 0.00425034 0)
(0.99967 0.0024221 0)
(0.999229 0.00397185 0)
(1.00004 0.00666534 0)
(1.00232 0.0051528 0)
(0.998914 0.00579464 0)
(1.00248 0.00680278 0)
(1.0005 0.00543123 0)
(1.00213 0.00845123 0)
(1.00108 0.00782289 0)
(1.00237 0.0111083 0)
(1.00364 0.0113196 0)
(1.0046 0.0134723 0)
(1.00549 0.0142407 0)
(1.00622 0.0154735 0)
(1.00725 0.0163428 0)
(1.00894 0.0166284 0)
(1.00975 0.0171335 0)
(1.01135 0.0170053 0)
(1.01124 0.0173276 0)
(1.01295 0.0171688 0)
(1.01292 0.0172013 0)
(1.0151 0.0169826 0)
(1.01511 0.0167118 0)
(1.01709 0.016566 0)
(0.999417 0.000161338 0)
(1.00161 -0.000816244 0)
(0.996537 -0.00230625 0)
(0.999705 0.00286175 0)
(1.00053 0.00263389 0)
(0.999492 0.0041186 0)
(1.00015 0.00581318 0)
(1.0023 0.00522934 0)
(0.999472 0.00553956 0)
(1.00278 0.00650613 0)
(1.00134 0.00559437 0)
(1.0028 0.00771683 0)
(1.00219 0.00746137 0)
(1.00313 0.00988567 0)
(1.00434 0.0101715 0)
(1.00531 0.0119087 0)
(1.00614 0.012558 0)
(1.00702 0.0136734 0)
(1.00776 0.0143468 0)
(1.00937 0.0147746 0)
(1.00999 0.0150985 0)
(1.0116 0.015093 0)
(1.01154 0.0151958 0)
(1.01306 0.0150881 0)
(1.01297 0.0149766 0)
(1.01473 0.014784 0)
(1.01476 0.014438 0)
(1.01639 0.0142429 0)
(0.999342 -9.61136e-05 0)
(1.00148 2.59582e-05 0)
(0.997563 -0.00153332 0)
(0.99963 0.00144687 0)
(1.0003 0.00256977 0)
(0.99998 0.00438493 0)
(1.00035 0.00500708 0)
(1.00238 0.005179 0)
(1.00024 0.00518672 0)
(1.00291 0.00591542 0)
(1.0021 0.00556804 0)
(1.00337 0.0069086 0)
(1.00309 0.00696196 0)
(1.00386 0.00873349 0)
(1.00481 0.00901513 0)
(1.00584 0.0104535 0)
(1.00651 0.0108891 0)
(1.0075 0.011935 0)
(1.00802 0.0123715 0)
(1.00952 0.0128875 0)
(1.01002 0.0130604 0)
(1.01156 0.0131474 0)
(1.01164 0.0131241 0)
(1.013 0.0130427 0)
(1.01299 0.0128694 0)
(1.0144 0.0126857 0)
(1.01446 0.0123494 0)
(1.01577 0.0121257 0)
(0.999242 -0.00021724 0)
(1.00112 0.000328823 0)
(0.998815 -0.000829091 0)
(0.999819 0.000909193 0)
(0.999745 0.00233736 0)
(1.00038 0.00421578 0)
(1.00058 0.00435745 0)
(1.00234 0.00481536 0)
(1.00104 0.00475176 0)
(1.00298 0.00529618 0)
(1.00265 0.00523636 0)
(1.00383 0.00613668 0)
(1.00368 0.00631218 0)
(1.00451 0.00764647 0)
(1.00514 0.00791346 0)
(1.00624 0.00906566 0)
(1.00675 0.00935842 0)
(1.00777 0.0102241 0)
(1.00819 0.010497 0)
(1.0095 0.0109629 0)
(1.00998 0.0110486 0)
(1.01133 0.0111518 0)
(1.01154 0.0110724 0)
(1.01272 0.0110033 0)
(1.01282 0.0108152 0)
(1.01394 0.010661 0)
(1.01405 0.0103653 0)
(1.01506 0.0101726 0)
(0.999305 -0.000203467 0)
(1.00074 0.00026089 0)
(0.999467 -0.000320137 0)
(1.0001 0.000937449 0)
(0.999605 0.00203484 0)
(1.00068 0.00370216 0)
(1.00079 0.00382552 0)
(1.00231 0.0042547 0)
(1.00163 0.00424931 0)
(1.00305 0.00466497 0)
(1.00299 0.00467705 0)
(1.00411 0.00536223 0)
(1.00407 0.00554034 0)
(1.00496 0.006566 0)
(1.00538 0.00681239 0)
(1.0065 0.00769653 0)
(1.00691 0.00791032 0)
(1.00792 0.00855691 0)
(1.00829 0.00873056 0)
(1.00943 0.00908376 0)
(1.00986 0.00911567 0)
(1.011 0.00919856 0)
(1.01128 0.00909942 0)
(1.01227 0.00904308 0)
(1.01244 0.00886252 0)
(1.01334 0.00874452 0)
(1.01346 0.00849581 0)
(1.01425 0.00835203 0)
(0.99945 -0.000126552 0)
(1.00051 0.00016129 0)
(0.999608 -7.43836e-05 0)
(1.0003 0.00103289 0)
(0.99983 0.00180796 0)
(1.00088 0.00309099 0)
(1.00096 0.00330894 0)
(1.00232 0.00363066 0)
(1.00198 0.00363463 0)
(1.00314 0.00398906 0)
(1.00321 0.00399529 0)
(1.00426 0.00454231 0)
(1.00432 0.00469244 0)
(1.00521 0.00545587 0)
(1.00555 0.00568421 0)
(1.0066 0.00632354 0)
(1.00699 0.00649687 0)
(1.00795 0.00694302 0)
(1.00829 0.00705313 0)
(1.00929 0.00729319 0)
(1.00968 0.00728836 0)
(1.01065 0.00734697 0)
(1.01093 0.00724141 0)
(1.01177 0.00720341 0)
(1.01195 0.00703799 0)
(1.01269 0.00695948 0)
(1.0128 0.00675372 0)
(1.01342 0.00665994 0)
(0.999565 -6.96199e-05 0)
(1.00041 0.000147613 0)
(0.999637 5.5829e-05 0)
(1.00036 0.0010399 0)
(1.00003 0.00155812 0)
(1.00102 0.00250747 0)
(1.00109 0.00273935 0)
(1.00234 0.00298693 0)
(1.00221 0.00295664 0)
(1.00323 0.00327179 0)
(1.00333 0.00323887 0)
(1.00431 0.0036742 0)
(1.00445 0.00376341 0)
(1.00531 0.00432799 0)
(1.00561 0.00449368 0)
(1.00658 0.00494733 0)
(1.00695 0.0050534 0)
(1.00785 0.00535214 0)
(1.00818 0.00539411 0)
(1.00907 0.00554733 0)
(1.00942 0.00549736 0)
(1.01027 0.00552806 0)
(1.01054 0.00540835 0)
(1.01128 0.0053831 0)
(1.01147 0.00523267 0)
(1.0121 0.00519188 0)
(1.0122 0.00502715 0)
(1.01271 0.00498566 0)
(0.99964 -2.5227e-05 0)
(1.00035 0.000152886 0)
(0.999653 0.000147984 0)
(1.00035 0.000913579 0)
(1.00015 0.00129476 0)
(1.0011 0.00196318 0)
(1.00114 0.00216594 0)
(1.00229 0.00235817 0)
(1.00232 0.00232525 0)
(1.00324 0.00256341 0)
(1.00336 0.00253097 0)
(1.00428 0.00283649 0)
(1.00447 0.00289655 0)
(1.00529 0.00328269 0)
(1.00556 0.00339902 0)
(1.00643 0.00369844 0)
(1.00677 0.00375654 0)
(1.00761 0.00393898 0)
(1.00793 0.0039363 0)
(1.00873 0.00400707 0)
(1.00904 0.0039156 0)
(1.0098 0.0038792 0)
(1.01009 0.00371614 0)
(1.01078 0.00362502 0)
(1.01101 0.00343081 0)
(1.0116 0.00332344 0)
(1.01173 0.00312254 0)
(1.0122 0.00302433 0)
(0.999687 1.84078e-05 0)
(1.00033 0.000116547 0)
(0.999701 0.000189801 0)
(1.00036 0.000643997 0)
(1.00023 0.000915102 0)
(1.00114 0.0012638 0)
(1.0012 0.00141228 0)
(1.00226 0.00149901 0)
(1.00239 0.00148702 0)
(1.00324 0.00160328 0)
(1.00336 0.00160555 0)
(1.00422 0.00176394 0)
(1.00445 0.00182278 0)
(1.00524 0.00202849 0)
(1.00547 0.0021199 0)
(1.00626 0.00227161 0)
(1.00657 0.00231728 0)
(1.00734 0.00239593 0)
(1.00761 0.0023977 0)
(1.00827 0.00240844 0)
(1.00847 0.0023471 0)
(1.00906 0.002287 0)
(1.00924 0.00217231 0)