/*--------------------------------*- C++ -*----------------------------------*\
| =========                 |                                                 |
| \\      /  F ield         | OpenFOAM: The Open Source CFD Toolbox           |
|  \\    /   O peration     | Version:                                        |
|   \\  /    A nd           | Website:  www.openfoam.com                      |
|    \\/     M anipulation  |                                                 |
\*---------------------------------------------------------------------------*/
FoamFile
{
    version     2.0;
    format      ascii;
    class       surfaceScalarField;
    location    "140.8";
    object      phi;
}
// * * * * * * * * * * * * * * * * * * * * * * * * * * * * * * * * * * * * * //

dimensions      [0 3 -1 0 0 0 0];
oriented        oriented;


internalField   nonuniform List<scalar> 
2227
(
0.00189157
0.0480205
-0.05106
0.00487038
0.0476448
-0.0506236
0.00785036
0.0470059
-0.0499859
0.0107751
0.0460656
-0.0489904
0.0136427
0.0447938
-0.0476615
-0.0459611
0.00173183
0.0450889
0.00463611
0.0447405
0.00751507
0.0441269
0.0103571
0.00158969
0.00443382
-0.000569793
0.0538615
-0.00133196
0.0537952
-0.0019928
0.0536938
-0.00251923
0.0535594
-0.00288066
0.0533944
-0.0030494
0.0532017
-0.00300383
0.0529874
-0.00272584
0.052755
-0.00219349
0.0525007
0.0522255
-0.00138604
-0.00106256
0.0537567
-0.00101419
0.0537468
-0.00101109
0.0536908
-0.0010427
0.053591
-0.00109728
0.053449
-0.00115892
0.0532634
-0.00120919
0.0530377
-0.00123326
0.0527791
-0.00123595
0.0525033
0.0521979
-0.00120833
-0.00347542
0.0546351
-0.00436531
0.0546367
-0.00521954
0.054545
-0.00599063
0.0543621
-0.00662414
0.0540825
-0.0070725
0.0537117
-0.00727302
0.0532382
-0.00715792
0.052664
-0.00663339
0.0519788
0.0512509
-0.00568637
-0.000594979
0.0544839
-0.000355529
0.0543972
-1.1587e-05
0.054201
0.000460447
0.0538901
0.00107295
0.05347
0.00184944
0.0529352
0.00278869
0.052299
0.00389948
0.0515532
0.00516723
0.0507111
0.0497893
0.00662887
-0.000887928
0.055185
-0.00155837
0.0550677
-0.00216838
0.0548111
-0.00269548
0.0544172
-0.00310715
0.0538817
-0.00338796
0.053216
-0.00350271
0.0524137
-0.00344361
0.0514941
-0.00317975
0.0504472
0.049385
-0.0027755
-0.000610647
0.0550649
-0.00044062
0.0548976
-0.00020595
0.0545764
0.000112314
0.0540989
0.000518406
0.0534756
0.0010255
0.052709
0.00161267
0.0518266
0.00228417
0.0508226
0.00303215
0.0496992
0.0485183
0.00389882
-2.51901e-05
0.0556158
-0.000524589
0.055397
-0.000958909
0.0550107
-0.00132659
0.0544666
-0.00161922
0.0537682
-0.00184186
0.0529316
-0.00197196
0.0519567
-0.0020233
0.0508739
-0.00198176
0.0496577
0.0483374
-0.00180084
-0.000234261
0.0555825
-0.00025829
0.0554211
-0.000325086
0.0550775
-0.000411994
0.0545535
-0.000507664
0.0538639
-0.000585798
0.0530097
-0.000642857
0.0520137
-0.000639412
0.0508705
-0.000569949
0.0495882
0.048223
-0.000455502
-0.00170303
0.0560191
-0.00210611
0.0558242
-0.00245388
0.0554253
-0.00273398
0.0548336
-0.00292256
0.0540525
-0.00301925
0.0531064
-0.00299219
0.0519866
-0.00283646
0.0507147
-0.00248252
0.0492343
0.0476115
-0.00187106
-0.000450706
0.0559532
-0.000408062
0.0557815
-0.000390652
0.0554079
-0.000385298
0.0548283
-0.000393764
0.0540609
-0.000375767
0.0530884
-0.000340065
0.0519509
-0.000243483
0.0506182
-9.00295e-05
0.0490808
0.0473836
0.000137857
-0.00165318
0.0562902
-0.00204003
0.0561684
-0.00244116
0.055809
-0.00283213
0.0552192
-0.00314979
0.0543786
-0.00338424
0.0533229
-0.00341405
0.0519808
-0.00325873
0.0504628
-0.00287039
0.0486925
0.0467444
-0.00223112
-0.00156062
0.0562152
-0.00144072
0.0560485
-0.00126451
0.0556328
-0.00101154
0.0549663
-0.00069819
0.0540652
-0.000293556
0.0529182
0.000114586
0.0515726
0.000593822
0.0499836
0.00106661
0.0482197
0.0462995
0.00151151
-0.00139868
0.0564466
-0.00163528
0.0562851
-0.00186492
0.0558624
-0.00208915
0.0551905
-0.00227988
0.054256
-0.00244085
0.0530792
-0.00249131
0.0516231
-0.00242656
0.0499189
-0.00205394
0.0478471
0.0456194
-0.00137388
-0.00114465
0.0563586
-0.00104454
0.056185
-0.000907133
0.055725
-0.00068973
0.0549731
-0.000357168
0.0539234
0.000158859
0.0525632
0.000849433
0.0509325
0.00179436
0.0489739
0.0028176
0.0468238
0.0443392
0.00409781
-0.00125148
0.0564483
-0.00130483
0.0562383
-0.00130361
0.0557238
-0.00125615
0.0549256
-0.0011399
0.0538072
-0.00100274
0.052426
-0.000799363
0.0507291
-0.000660713
0.0488353
-0.000456934
0.0466201
0.0442929
-0.000410589
-0.000925867
0.0563058
-0.000750549
0.056063
-0.000542825
0.0555161
-0.000276709
0.0546595
2.20864e-05
0.0535084
0.000419382
0.0520287
0.000845325
0.0503032
0.00153115
0.0481495
0.0023113
0.0458399
0.0432122
0.00339192
-0.000912803
0.0563138
-0.000895553
0.0560458
-0.000843344
0.0554638
-0.000746591
0.0545628
-0.000568078
0.0533299
-0.000345972
0.0518066
1.7327e-05
0.0499399
0.000256985
0.0479098
0.000517476
0.0455794
0.0431677
0.000561967
-0.00066972
0.0561195
-0.000455946
0.055832
-0.000206445
0.0552143
8.01502e-05
0.0542762
0.000374287
0.0530357
0.00072294
0.051458
0.0010013
0.0496615
0.00136016
0.0475509
0.00170213
0.0452375
0.0426737
0.00219618
-0.000777478
0.0560355
-0.000666879
0.0557214
-0.000542091
0.0550896
-0.00037774
0.0541118
-0.000183008
0.052841
1.26708e-05
0.0512623
0.000299916
0.0493743
0.00060805
0.0472428
0.00103786
0.0448077
0.0421104
0.00160112
-0.000602232
0.0557819
-0.000330375
0.0554495
-2.38754e-05
0.0547831
0.000275626
0.0538123
0.00060533
0.0525113
0.000973438
0.0508942
0.00131769
0.04903
0.0017607
0.0467998
0.00210461
0.0444637
0.0417459
0.00246918
-0.000704261
0.0555958
-0.000506713
0.055252
-0.000302904
0.0545792
-5.376e-05
0.0535632
0.000179704
0.0522778
0.000418838
0.050655
0.000686757
0.0487621
0.00093497
0.0465516
0.00130593
0.0440928
0.0413137
0.00173813
-0.000582749
0.0552603
-0.000236525
0.0549058
0.000115252
0.0542275
0.000455744
0.0532227
0.000821134
0.0519124
0.00120461
0.0502716
0.00159783
0.0483689
0.00206921
0.0460802
0.00245943
0.0437026
0.0407437
0.00302943
-0.000701127
0.0549644
-0.000400445
0.0546051
-8.94579e-05
0.0539165
0.000221758
0.0529115
0.000522426
0.0516118
0.000845953
0.049948
0.00114764
0.0480672
0.00148788
0.0457399
0.00189292
0.0432975
0.040319
0.00231759
-0.000618949
0.0545327
-0.000182173
0.0541683
0.000243387
0.0534909
0.000676249
0.0524786
0.00110341
0.0511846
0.00156262
0.0494888
0.0020437
0.0475861
0.00253968
0.045244
0.00301118
0.042826
0.0397407
0.00358943
-0.000718569
0.0541212
-0.000312297
0.053762
0.000115087
0.0530635
0.000506127
0.0520876
0.000904305
0.0507864
0.00129377
0.0490994
0.00167396
0.047206
0.00211595
0.044802
0.00252611
0.0424159
0.0392305
0.00303637
-0.000650107
0.053584
-0.000112356
0.0532243
0.000409836
0.0525413
0.000937547
0.0515599
0.00146256
0.0502614
0.00201519
0.0485467
0.00256598
0.0466552
0.00315104
0.0442169
0.00377206
0.0417949
0.0386309
0.00437162
-0.000728936
0.053057
-0.000216921
0.0527123
0.000323244
0.0520012
0.000835365
0.0510477
0.00134494
0.0497518
0.00184675
0.0480449
0.00235584
0.0461461
0.00287246
0.0437003
0.00335228
0.041315
0.0381011
0.00388209
-0.000667343
0.0524162
-8.64698e-06
0.0520536
0.000614786
0.0513777
0.00125422
0.0504083
0.00190211
0.0491039
0.00255946
0.0473876
0.00322633
0.0454792
0.00391451
0.0430121
0.00466565
0.0405639
0.00526868
-0.000731519
0.051787
-8.41338e-05
0.0514062
0.000560654
0.050733
0.00120183
0.0497671
0.00184985
0.0484559
0.00248898
0.0467484
0.00314391
0.0448243
0.00376187
-0.000684344
9.82281e-05
0.000845298
0.00162206
0.00241653
0.00320393
-0.00128901
0.0477316
-0.00115781
0.0510168
-0.00102569
0.0545657
-0.00090364
0.058372
-0.000829308
0.0624793
-0.000847978
0.0669137
-0.000934973
0.0716248
-0.00100154
0.0765693
-0.000937285
0.0817479
-0.000688034
0.0872409
-0.000277121
0.0931513
0.000163467
0.0996151
0.000532624
0.106631
0.000757055
0.114202
0.000792124
0.122332
0.000683484
0.130969
0.000493992
0.140132
0.0003049
0.149844
0.000153785
0.160192
5.80264e-05
0.171244
2.8717e-06
0.183082
-2.13907e-05
0.195753
-2.79455e-05
0.20932
-2.34993e-05
0.223836
-1.53624e-05
0.239367
-6.90909e-06
0.25598
2.92276e-07
0.273748
1.19786e-05
0.292742
9.13337e-06
0.313075
0.334809
-0.00195111
0.0484743
-0.00259932
0.051665
-0.00286956
0.054836
-0.00268521
0.0581876
-0.00211517
0.0619093
-0.00125566
0.0660542
-0.0003045
0.0706736
0.000463409
0.0758013
0.000793155
0.0814182
0.000584387
0.0874497
-8.35073e-05
0.0938192
-0.000924158
0.100456
-0.0017471
0.107454
-0.00232516
0.11478
-0.00248494
0.122492
-0.00227684
0.130761
-0.00182935
0.139684
-0.00135409
0.149368
-0.000953227
0.159791
-0.000657341
0.170948
-0.000436498
0.182861
-0.000277878
0.195595
-0.000161992
0.209204
-8.51627e-05
0.223759
-3.48305e-05
0.239317
2.28165e-06
0.255943
3.26655e-05
0.273717
4.9998e-05
0.292725
2.38427e-05
0.313101
0.334833
-0.0052869
0.0480749
-0.00478674
0.0511649
-0.00440767
0.0544569
-0.00425927
0.0580392
-0.00419396
0.061844
-0.00400486
0.0658651
-0.00364052
0.0703093
-0.00323373
0.0753946
-0.00304959
0.081234
-0.00313003
0.0875301
-0.00338547
0.0940747
-0.00360732
0.100678
-0.00360391
0.10745
-0.0033557
0.114531
-0.00291511
0.122052
-0.0023903
0.130236
-0.00186578
0.13916
-0.00139492
0.148897
-0.000994061
0.15939
-0.000691921
0.170646
-0.0004718
0.182641
-0.000315207
0.195438
-0.000195614
0.209084
-0.000109263
0.223672
-4.44835e-05
0.239252
4.08331e-07
0.255898
3.73229e-05
0.27368
6.94172e-05
0.292693
4.17759e-05
0.313129
0.334875
0.0072778
0.0474259
0.0075779
0.0508648
0.00739362
0.0546412
0.00668353
0.0587493
0.00543748
0.0630901
0.00373292
0.0675697
0.00190417
0.072138
0.000437753
0.076861
-0.000198431
0.0818702
2.80731e-05
0.0873036
0.000891454
0.0932113
0.00192168
0.0996474
0.00282677
0.106545
0.00338272
0.113975
0.00344009
0.121994
0.00308602
0.13059
0.00248401
0.139762
0.00188712
0.149494
0.00140659
0.159871
0.00107487
0.170978
0.000835648
0.18288
0.000666724
0.195607
0.0005424
0.209208
0.000453093
0.223762
0.000386349
0.239319
0.000330603
0.255954
0.000280895
0.27373
0.000231717
0.292742
0.000117476
0.313243
0.334992
-0.00288549
0.0475359
-0.00275441
0.0507337
-0.00233133
0.0542181
-0.00169605
0.058114
-0.000997996
0.062392
-0.000373771
0.0669455
2.97779e-05
0.0717345
0.000159479
0.0767313
0.000114267
0.0819154
0.000114372
0.0873035
0.000266239
0.0930594
0.000541312
0.0993723
0.000779336
0.106307
0.000899309
0.113855
0.000912803
0.121981
0.000880636
0.130622
0.000839654
0.139803
0.000789212
0.149545
0.000725041
0.159935
0.000668386
0.171034
0.000626206
0.182922
0.000597934
0.195635
0.000566506
0.20924
0.000532099
0.223796
0.000486456
0.239364
0.000431137
0.256009
0.000362169
0.273799
0.000292881
0.292811
0.000154562
0.313381
0.335147
0.004069
0.0473657
0.00404884
0.0507539
0.0038125
0.0544544
0.00339602
0.0585305
0.0029047
0.0628833
0.00243642
0.0674137
0.00208307
0.0720878
0.00188584
0.0769285
0.00180463
0.0819967
0.00174678
0.0873614
0.00171921
0.093087
0.00174768
0.0993439
0.00182474
0.10623
0.00188358
0.113797
0.00187308
0.121991
0.00179738
0.130698
0.00168333
0.139917
0.001545
0.149683
0.00139252
0.160088
0.00124795
0.171179
0.00112942
0.183041
0.00103119
0.195733
0.000937949
0.209333
0.000842062
0.223892
0.000739569
0.239467
0.000632077
0.256117
0.000512535
0.273918
0.000386057
0.292938
0.000196755
0.313571
0.335344
-0.00192348
0.0474884
-0.00189612
0.0507265
-0.00161632
0.0541746
-0.00105696
0.0579711
-0.000359193
0.0621856
0.000298272
0.0667563
0.000801607
0.0715845
0.00114585
0.0765843
0.00146179
0.0816807
0.00179068
0.0870325
0.00206927
0.0928084
0.0022078
0.0992053
0.00222021
0.106218
0.0021687
0.113848
0.00206247
0.122097
0.00190161
0.130859
0.00170367
0.140115
0.00151847
0.149868
0.00137445
0.160232
0.00126705
0.171286
0.00117539
0.183132
0.00108679
0.195822
0.000992398
0.209428
0.000893333
0.223991
0.000785606
0.239574
0.000665558
0.256237
0.000533815
0.27405
0.000395787
0.293076
0.000205418
0.313761
0.335549
-0.000844465
0.0478773
-0.00117864
0.0510607
-0.00135398
0.05435
-0.00136989
0.057987
-0.00117978
0.0619954
-0.000706498
0.066283
-1.01344e-06
0.070879
0.000745769
0.0758375
0.00121561
0.0812109
0.00129003
0.0869581
0.00100731
0.0930911
0.000575993
0.0996367
0.000138713
0.106655
-0.000155439
0.114142
-0.000187946
0.12213
-9.51013e-06
0.13068
0.000283582
0.139822
0.000563549
0.149588
0.000783029
0.160012
0.000924255
0.171145
0.000997431
0.183059
0.00100668
0.195813
0.000968191
0.209466
0.000894775
0.224064
0.000795459
0.239674
0.000678547
0.256353
0.000547442
0.274181
0.000398248
0.293225
0.000204309
0.313955
0.335753
-0.00162569
0.047632
-0.00121012
0.0506451
-0.000758922
0.0538988
-0.000357698
0.0575858
-4.01711e-06
0.0616418
0.000265651
0.0660133
0.000451808
0.0706928
0.00058007
0.0757092
0.000686799
0.0811041
0.000721454
0.0869234
0.000664495
0.0931481
0.000549721
0.0997514
0.000453593
0.106751
0.000425194
0.114171
0.000463951
0.122091
0.000564099
0.13058
0.000700699
0.139685
0.000844204
0.149445
0.000959363
0.159897
0.00102339
0.171081
0.00103867
0.183044
0.00101045
0.195841
0.000951079
0.209525
0.000864394
0.224151
0.000759851
0.239778
0.000639547
0.256474
0.000509164
0.274312
0.000369664
0.293365
0.000191768
0.314133
0.335945
-4.58795e-05
0.0478157
-0.000454875
0.0510541
-0.00089639
0.0543403
-0.00107858
0.057768
-0.000915086
0.0614783
-0.000470853
0.0655691
0.000113375
0.0701086
0.000638857
0.0751837
0.000987255
0.0807557
0.00113471
0.086776
0.00108982
0.093193
0.000928297
0.099913
0.000715585
0.106964
0.000544165
0.114342
0.000484341
0.122151
0.000529341
0.130535
0.000662854
0.139551
0.000823489
0.149284
0.000965425
0.159755
0.00105242
0.170994
0.00107821
0.183018
0.00104968
0.19587
0.00098549
0.20959
0.000894116
0.224243
0.000784002
0.239888
0.000659042
0.256599
0.000523449
0.274447
0.000375155
0.293513
0.000191299
0.314317
0.336136
-0.00211998
0.0477046
-0.0019223
0.0508564
-0.00162068
0.0540386
-0.00122129
0.0573686
-0.00078615
0.0610431
-0.000362913
0.0651459
-4.30271e-05
0.0697887
0.000150162
0.0749905
0.00016589
0.08074
3.39753e-05
0.0869079
-0.000132095
0.093359
-0.000232649
0.100014
-0.000175858
0.106907
8.15013e-06
0.114158
0.000271237
0.121888
0.000546986
0.130259
0.000786827
0.139312
0.000958461
0.149113
0.00105962
0.159654
0.00109379
0.17096
0.00107804
0.183034
0.00102405
0.195924
0.000943887
0.20967
0.000844464
0.224342
0.000734278
0.239999
0.000613225
0.25672
0.000484894
0.274576
0.000350324
0.293647
0.000180554
0.314486
0.336317
0.00148255
0.0477335
0.0014067
0.0509323
0.00131848
0.0541269
0.000966708
0.0577204
0.000340833
0.061669
-0.000264459
0.0657511
-0.000512907
0.0700372
-0.000341624
0.0748193
0.000143524
0.0802549
0.000721024
0.0863304
0.00120739
0.0928727
0.00149524
0.0997257
0.00158844
0.106814
0.00157069
0.114176
0.00152583
0.121933
0.00150568
0.130279
0.00150581
0.139311
0.00150689
0.149112
0.00147526
0.159685
0.0014062
0.171029
0.00131072
0.183129
0.00119941
0.196035
0.00107655
0.209793
0.000944499
0.224474
0.000804219
0.240139
0.000659875
0.256864
0.00051475
0.274721
0.000366497
0.293796
0.0001849
0.314668
0.336502
-0.000957565
0.0473172
-0.000120335
0.050095
0.000680359
0.0533262
0.00122734
0.0571734
0.00140936
0.061487
0.00114319
0.0660173
0.000523294
0.0706571
-0.000144133
0.0754867
-0.000583347
0.0806941
-0.000623892
0.0863709
-0.000304977
0.0925538
0.000246381
0.0991743
0.000780079
0.10628
0.00114093
0.113815
0.00130909
0.121765
0.0013673
0.130221
0.00138132
0.139297
0.00138354
0.149109
0.00136571
0.159703
0.00131852
0.171076
0.00123964
0.183208
0.00113982
0.196135
0.00102769
0.209905
0.000906496
0.224595
0.000776674
0.240269
0.000639366
0.257001
0.000497615
0.274862
0.000356234
0.293937
0.000180702
0.314843
0.336683
0.00476066
0.0466544
0.0047141
0.0501416
0.00440328
0.053637
0.00417973
0.057397
0.00411317
0.0615535
0.00410808
0.0660224
0.00394397
0.0708212
0.00349559
0.0759351
0.00286854
0.0813211
0.00228723
0.0869522
0.00197743
0.0928636
0.00198551
0.0991662
0.00224081
0.106025
0.00254719
0.113509
0.00270517
0.121607
0.00266006
0.130266
0.00245647
0.139501
0.00219442
0.149371
0.00194028
0.159957
0.00171954
0.171297
0.001526
0.183402
0.00134948
0.196311
0.00117809
0.210076
0.00101124
0.224762
0.000847038
0.240433
0.000686529
0.257162
0.00052874
0.27502
0.000373802
0.294092
0.000186845
0.31503
0.336869
-0.000647333
0.0468911
-0.000363791
0.0498581
4.86712e-05
0.0532245
0.00040176
0.0570439
0.000716778
0.0612385
0.00100607
0.0657331
0.00135202
0.0704752
0.00173777
0.0755493
0.00205978
0.0809991
0.0022411
0.0867709
0.00228286
0.0928218
0.00222799
0.0992211
0.00216287
0.10609
0.00214012
0.113531
0.00215177
0.121595
0.00213828
0.13028
0.00206698
0.139572
0.00194025
0.149498
0.00178021
0.160117
0.00161157
0.171466
0.00144758
0.183566
0.00129083
0.196468
0.00113712
0.21023
0.000983314
0.224916
0.000827352
0.240589
0.000670396
0.257319
0.00051382
0.275177
0.000363929
0.294242
0.000182683
0.315212
0.337052
0.00417357
0.0461094
0.00437902
0.0496526
0.00426573
0.0533378
0.00404305
0.0572666
0.00382332
0.0614582
0.00357237
0.0659841
0.00321707
0.0708305
0.00284487
0.0759215
0.00261495
0.081229
0.00260407
0.0867818
0.00276364
0.0926622
0.00297096
0.0990138
0.00313612
0.105925
0.00319311
0.113474
0.00311131
0.121677
0.0029178
0.130473
0.00264958
0.139841
0.00236739
0.14978
0.00209569
0.160389
0.00185062
0.171711
0.001626
0.18379
0.00141987
0.196674
0.00122543
0.210424
0.00104126
0.2251
0.000864299
0.240766
0.000692754
0.25749
0.00052639
0.275343
0.000368426
0.2944
0.000182846
0.315397
0.337235
8.1586e-05
0.0465898
1.78166e-05
0.0497164
0.00035773
0.0529979
0.000861734
0.0567626
0.00134949
0.0609705
0.00186019
0.0654734
0.00236185
0.0703289
0.0027554
0.075528
0.0029994
0.080985
0.00311238
0.0866688
0.00313829
0.0926363
0.00310279
0.0990493
0.00303482
0.105993
0.00293979
0.113569
0.00280552
0.121811
0.00261363
0.130665
0.00238128
0.140073
0.00213733
0.150024
0.0019104
0.160616
0.00170958
0.171911
0.00152395
0.183976
0.00134722
0.196851
0.00117353
0.210598
0.0010038
0.22527
0.000835935
0.240934
0.000669206
0.257657
0.000505468
0.275507
0.000350001
0.294555
0.000175562
0.315572
0.337411
0.00279166
0.0459943
0.00322646
0.0492816
0.00332158
0.0529028
0.00313465
0.0569495
0.00280622
0.0612989
0.0024273
0.0658523
0.00219117
0.070565
0.00221041
0.0755087
0.00242614
0.0807693
0.00272328
0.0863717
0.00299359
0.092366
0.00317359
0.0988693
0.00323847
0.105928
0.00319983
0.113608
0.00307305
0.121938
0.00287562
0.130863
0.00261699
0.140332
0.00232971
0.150311
0.00205282
0.160893
0.0018052
0.172159
0.00158487
0.184196
0.00138289
0.197053
0.00119161
0.210789
0.00100988
0.225451
0.000835378
0.241108
0.0006664
0.257826
0.000500234
0.275673
0.000341579
0.294714
0.000170661
0.315743
0.337581
0.00152775
0.0460677
0.00156793
0.0492414
0.00195843
0.0525123
0.00256881
0.0563391
0.00305549
0.0608123
0.00327283
0.0656349
0.00325562
0.0705822
0.00316007
0.0756043
0.00310889
0.0808205
0.00312856
0.086352
0.00317488
0.0923197
0.00319216
0.098852
0.00313327
0.105987
0.00300852
0.113733
0.00283507
0.122111
0.00263577
0.131062
0.00241138
0.140556
0.00216839
0.150554
0.00192776
0.161134
0.00170503
0.172382
0.00150248
0.184399
0.0013137
0.197242
0.00113426
0.210969
0.000962067
0.225624
0.000795362
0.241275
0.000633852
0.257988
0.000471617
0.275835
0.000318526
0.294867
0.000161683
0.315899
0.337743
0.00282155
0.0457153
0.00296817
0.0490948
0.00282873
0.0526517
0.0026042
0.0565636
0.00256139
0.0608551
0.00268351
0.0655128
0.00284996
0.0704158
0.00299978
0.0754545
0.00312078
0.0806995
0.00320298
0.0862698
0.00323736
0.0922853
0.00320335
0.098886
0.00309909
0.106091
0.0029302
0.113902
0.00273171
0.12231
0.00252699
0.131267
0.00232294
0.14076
0.00211237
0.150765
0.00189674
0.161349
0.0016843
0.172594
0.00148094
0.184602
0.00128821
0.197434
0.00110682
0.21115
0.000934319
0.225796
0.000770017
0.241439
0.000612242
0.258145
0.000456806
0.275991
0.000301054
0.295023
0.000154004
0.316047
0.337897
0.00182387
0.0456296
0.00228994
0.0486287
0.00293383
0.0520078
0.00343986
0.0560576
0.00369028
0.0606046
0.00373845
0.0654647
0.00366791
0.0704863
0.00351162
0.0756107
0.00335035
0.0808608
0.00324807
0.0863721
0.00318584
0.0923475
0.00313189
0.09894
0.00303323
0.10619
0.0028744
0.114061
0.00266561
0.122519
0.00243508
0.131497
0.00220341
0.140992
0.00198498
0.150983
0.00177943
0.161555
0.00158465
0.172789
0.001397
0.18479
0.00121642
0.197615
0.00104359
0.211323
0.000879015
0.225961
0.000722436
0.241596
0.000571799
0.258296
0.000424095
0.276138
0.000274039
0.295173
0.000141985
0.316179
0.338039
0.00315609
0.0455029
0.00289049
0.0488943
0.00262606
0.0522723
0.00262676
0.0560569
0.00285579
0.0603756
0.00320992
0.0651105
0.00357491
0.0701213
0.00380299
0.0753827
0.00382109
0.0808427
0.00365949
0.0865337
0.00339845
0.0926086
0.00312268
0.0992157
0.00286368
0.106449
0.00262468
0.1143
0.00240772
0.122736
0.00220751
0.131697
0.0020232
0.141176
0.00184264
0.151164
0.00166605
0.161731
0.00149192
0.172963
0.00131997
0.184962
0.00115164
0.197783
0.000989117
0.211485
0.000833246
0.226117
0.000684492
0.241745
0.000541547
0.258439
0.000400582
0.276279
0.000252748
0.295321
0.000131391
0.3163
0.33817
0.00262361
0.0451969
0.00321033
0.0483076
0.00361755
0.051865
0.00375981
0.0559146
0.0037279
0.0604075
0.0036448
0.0651936
0.00358105
0.0701851
0.00354642
0.0754173
0.00351557
0.0808735
0.00342413
0.0866251
0.0032704
0.0927623
0.00307219
0.0994139
0.00284916
0.106672
0.00262265
0.114526
0.00240002
0.122958
0.00218473
0.131913
0.00197609
0.141385
0.00177828
0.151362
0.00159057
0.161919
0.00141228
0.173141
0.001242
0.185132
0.00107883
0.197946
0.00092262
0.211642
0.000774451
0.226265
0.000633886
0.241885
0.000499325
0.258574
0.000366617
0.276412
0.000225723
0.295462
0.000118808
0.316407
0.338289
0.00351974
0.0452666
0.00317557
0.0486518
0.00303659
0.052004
0.00315149
0.0557997
0.00338895
0.0601701
0.00366185
0.0649207
0.00386406
0.0699829
0.00394947
0.0753319
0.00387012
0.0809529
0.00364106
0.0868542
0.00331642
0.0930869
0.00296022
0.0997702
0.00262028
0.107012
0.00232553
0.114821
0.00209297
0.123191
0.00191043
0.132095
0.00176137
0.141534
0.00161565
0.151508
0.00146605
0.162069
0.00131152
0.173296
0.00115756
0.185286
0.00100694
0.198097
0.000862791
0.211786
0.000724988
0.226403
0.000593376
0.242017
0.000467542
0.258699
0.000342114
0.276538
0.000204847
0.295599
0.000108172
0.316504
0.338397
0.00335281
0.0449502
0.0037221
0.0482825
0.00378873
0.0519374
0.0036901
0.0558984
0.00362867
0.0602315
0.00360922
0.0649402
0.00360965
0.0699824
0.00361002
0.0753315
0.0035592
0.0810037
0.00341854
0.0869948
0.00319196
0.0933135
0.00290636
0.100056
0.0026135
0.107304
0.00233963
0.115095
0.00209629
0.123434
0.00188931
0.132302
0.00171353
0.141709
0.00155404
0.151667
0.00139877
0.162224
0.00124223
0.173452
0.00108832
0.18544
0.000940027
0.198245
0.000800095
0.211926
0.000668558
0.226534
0.000544729
0.242141
0.000427244
0.258817
0.000309988
0.276655
0.000180282
0.295729
9.63158e-05
0.316587
0.338494
0.00422369
0.0450981
0.00385332
0.0486529
0.00356538
0.0522253
0.00341788
0.0560459
0.00340156
0.0602478
0.0035012
0.0648405
0.003628
0.0698556
0.00368238
0.0752771
0.00361304
0.081073
0.00341853
0.0871893
0.00311488
0.0936172
0.00275853
0.100412
0.00240211
0.107661
0.00208897
0.115408
0.001842
0.123681
0.00165267
0.132492
0.00151234
0.14185
0.00139043
0.151789
0.00126899
0.162345
0.00113896
0.173583
0.0010052
0.185574
0.000871939
0.198378
0.000744326
0.212053
0.000622699
0.226656
0.000507193
0.242256
0.000397537
0.258927
0.000287403
0.276765
0.000162136
0.295854
8.67166e-05
0.316663
0.33858
0.00412782
0.0448523
0.00432342
0.0484573
0.00426018
0.0522886
0.00403744
0.0562686
0.0038035
0.0604818
0.00361993
0.0650241
0.00350755
0.069968
0.00343734
0.0753473
0.00334723
0.0811632
0.00319199
0.0873446
0.00295602
0.0938531
0.0026606
0.100708
0.0023576
0.107964
0.00207814
0.115687
0.00183725
0.123922
0.00163743
0.132691
0.00147276
0.142014
0.00133166
0.15193
0.00120029
0.162477
0.00106793
0.173715
0.00093599
0.185706
0.000807728
0.198507
0.000686103
0.212175
0.000570442
0.226771
0.000462734
0.242364
0.000360196
0.259029
0.000258883
0.276866
0.000141699
0.295971
7.6445e-05
0.316728
0.338657
0.00500576
0.00434813
0.00391394
0.0036392
0.00347903
0.0034123
0.00339122
0.0033474
0.00324924
0.00307544
0.00281698
0.00250553
0.00217654
0.00187945
0.001641
0.00145746
0.00131929
0.00120269
0.0010917
0.00097709
0.000861572
0.000747824
0.000637249
0.00053028
0.000429815
0.000334573
0.000239628
0.000127816
6.86576e-05
)
;

boundaryField
{
    outlet
    {
        type            calculated;
        value           nonuniform 0();
    }
    upperWall
    {
        type            symmetryPlane;
        value           nonuniform 0();
    }
    lowerWall
    {
        type            symmetryPlane;
        value           uniform 0;
    }
    inlet
    {
        type            calculated;
        value           nonuniform List<scalar> 
40
(
-0.053033
-0.053033
-0.053033
-0.053033
-0.053033
-0.053033
-0.053033
-0.053033
-0.053033
-0.053033
-0.0478286
-0.051148
-0.0546978
-0.058494
-0.0625537
-0.0668951
-0.0715378
-0.0765027
-0.0818122
-0.0874902
-0.0935622
-0.100056
-0.107
-0.114426
-0.122367
-0.13086
-0.139942
-0.149655
-0.160041
-0.171148
-0.183026
-0.195729
-0.209313
-0.22384
-0.239375
-0.255988
-0.273755
-0.292754
-0.313072
-0.3348
)
;
    }
    cylinder
    {
        type            calculated;
        value           nonuniform 0();
    }
    frontAndBack
    {
        type            empty;
        value           nonuniform 0();
    }
    procBoundary0to1
    {
        type            processor;
        value           nonuniform List<scalar> 
45
(
0.0164269
0.0431769
0.0439854
0.0432236
0.013148
0.0420029
0.0422313
0.0418964
0.00724454
0.0413162
0.0374981
0.0423941
0.00439315
0.0399326
0.00404281
0.0451153
0.0491149
0.0527228
0.0565433
0.0606419
0.0650908
0.0699891
0.0753911
0.0812613
0.0875184
0.0941116
0.101019
0.108293
0.115984
0.12416
0.132875
0.142153
0.152047
0.162588
0.173829
0.185821
0.198621
0.212286
0.226878
0.242464
0.259124
0.276961
0.296083
0.316787
0.338725
)
;
    }
    procBoundary0to4
    {
        type            processor;
        value           nonuniform List<scalar> 
33
(
0.00114796
0.00119979
0.00126792
-0.000258738
0.00116736
0.002597
0.000746219
0.000186821
0.00073077
-0.000525735
0.000267572
0.00126638
0.000516678
0.00131616
0.00163562
0.00116724
0.00123263
0.00116186
0.00106831
0.000904801
0.000864074
0.000861426
0.000855808
0.00089042
0.000918249
0.000997039
0.0010506
0.00113005
0.0011874
0.00125585
0.00130823
0.00136071
0.00141128
)
;
    }
}


// ************************************************************************* //
