/*--------------------------------*- C++ -*----------------------------------*\
| =========                 |                                                 |
| \\      /  F ield         | OpenFOAM: The Open Source CFD Toolbox           |
|  \\    /   O peration     | Version:                                        |
|   \\  /    A nd           | Website:  www.openfoam.com                      |
|    \\/     M anipulation  |                                                 |
\*---------------------------------------------------------------------------*/
FoamFile
{
    version     2.0;
    format      ascii;
    class       volScalarField;
    location    "0.6";
    object      p;
}
// * * * * * * * * * * * * * * * * * * * * * * * * * * * * * * * * * * * * * //

dimensions      [0 2 -2 0 0 0 0];


internalField   nonuniform List<scalar> 
400
(
0.280406
0.272359
0.264389
0.256493
0.248667
0.240908
0.233214
0.225582
0.21801
0.210494
0.203034
0.195626
0.188269
0.180962
0.173701
0.166485
0.159313
0.152184
0.145094
0.138044
0.280376
0.272331
0.264363
0.256468
0.248643
0.240886
0.233193
0.225562
0.21799
0.210476
0.203016
0.19561
0.188254
0.180946
0.173686
0.166471
0.1593
0.152171
0.145082
0.138033
0.280318
0.272276
0.26431
0.256418
0.248596
0.240841
0.233151
0.225522
0.217952
0.21044
0.202982
0.195577
0.188222
0.180917
0.173658
0.166444
0.159274
0.152146
0.145059
0.13801
0.280233
0.272196
0.264235
0.256347
0.248529
0.240777
0.23309
0.225464
0.217898
0.210388
0.202933
0.19553
0.188178
0.180874
0.173617
0.166406
0.159237
0.152111
0.145025
0.137978
0.280126
0.272095
0.264139
0.256257
0.248443
0.240697
0.233014
0.225392
0.217829
0.210323
0.202871
0.195471
0.188121
0.18082
0.173566
0.166357
0.159191
0.152067
0.144982
0.137937
0.28
0.271976
0.264028
0.256152
0.248344
0.240603
0.232925
0.225308
0.217749
0.210247
0.202799
0.195402
0.188056
0.180758
0.173507
0.166301
0.159137
0.152015
0.144934
0.13789
0.279861
0.271846
0.263905
0.256036
0.248235
0.2405
0.232827
0.225216
0.217662
0.210164
0.20272
0.195328
0.187985
0.180691
0.173443
0.166239
0.159079
0.151959
0.14488
0.13784
0.279715
0.271709
0.263776
0.255915
0.248121
0.240392
0.232726
0.225119
0.217571
0.210078
0.202638
0.19525
0.187911
0.18062
0.173376
0.166175
0.159018
0.151901
0.144825
0.137787
0.279566
0.271569
0.263646
0.255792
0.248005
0.240283
0.232623
0.225022
0.217479
0.20999
0.202555
0.195171
0.187837
0.18055
0.173308
0.166111
0.158957
0.151843
0.144769
0.137734
0.27942
0.271433
0.263517
0.255671
0.247892
0.240176
0.232522
0.224927
0.217389
0.209905
0.202475
0.195095
0.187764
0.180481
0.173243
0.166049
0.158897
0.151787
0.144715
0.137682
0.27928
0.271302
0.263395
0.255557
0.247784
0.240075
0.232426
0.224836
0.217303
0.209824
0.202398
0.195022
0.187695
0.180415
0.17318
0.16599
0.158841
0.151733
0.144664
0.137633
0.27915
0.27118
0.26328
0.255449
0.247683
0.239979
0.232336
0.224752
0.217223
0.209749
0.202326
0.194954
0.18763
0.180354
0.173122
0.165934
0.158788
0.151682
0.144616
0.137587
0.279028
0.271066
0.263174
0.255349
0.247589
0.239891
0.232253
0.224673
0.217148
0.209678
0.202259
0.19489
0.18757
0.180296
0.173067
0.165882
0.158738
0.151635
0.144571
0.137544
0.278916
0.270961
0.263075
0.255256
0.247501
0.239808
0.232174
0.224598
0.217078
0.209611
0.202196
0.19483
0.187513
0.180241
0.173015
0.165832
0.158691
0.15159
0.144527
0.137503
0.27881
0.270861
0.262981
0.255167
0.247417
0.239728
0.232099
0.224527
0.21701
0.209546
0.202134
0.194772
0.187457
0.180188
0.172964
0.165784
0.158644
0.151545
0.144485
0.137462
0.278706
0.270763
0.262888
0.255079
0.247333
0.239649
0.232024
0.224455
0.216942
0.209482
0.202073
0.194713
0.187401
0.180135
0.172913
0.165735
0.158598
0.151501
0.144442
0.137421
0.278601
0.270664
0.262794
0.25499
0.247248
0.239568
0.231947
0.224382
0.216872
0.209415
0.202009
0.194652
0.187342
0.180079
0.17286
0.165683
0.158548
0.151453
0.144397
0.137378
0.278489
0.270557
0.262692
0.254893
0.247156
0.23948
0.231862
0.224301
0.216795
0.209341
0.201938
0.194584
0.187277
0.180017
0.1728
0.165626
0.158494
0.151401
0.144347
0.137329
0.278352
0.270427
0.262568
0.254774
0.247042
0.239371
0.231758
0.224202
0.216699
0.209249
0.20185
0.1945
0.187197
0.179939
0.172726
0.165555
0.158425
0.151335
0.144283
0.137269
0.278193
0.270275
0.262423
0.254635
0.246909
0.239244
0.231636
0.224085
0.216587
0.209142
0.201747
0.194401
0.187101
0.179848
0.172638
0.16547
0.158344
0.151257
0.144208
0.137196
)
;

boundaryField
{
    fixedWalls
    {
        type            zeroGradient;
    }
    inlet
    {
        type            zeroGradient;
    }
    outlet
    {
        type            fixedValue;
        value           nonuniform 0();
    }
    frontAndBack
    {
        type            empty;
    }
    procBoundary6to2
    {
        type            processor;
        value           nonuniform List<scalar> 
20
(
0.280406
0.272359
0.264389
0.256493
0.248667
0.240908
0.233214
0.225582
0.21801
0.210494
0.203034
0.195626
0.18827
0.180962
0.173701
0.166485
0.159313
0.152184
0.145094
0.138044
)
;
    }
    procBoundary6to5
    {
        type            processor;
        value           nonuniform List<scalar> 
20
(
0.288534
0.288502
0.28844
0.28835
0.288236
0.288102
0.287954
0.287798
0.287639
0.287482
0.287333
0.287193
0.287063
0.286943
0.28683
0.28672
0.28661
0.286491
0.286348
0.286181
)
;
    }
    procBoundary6to7
    {
        type            processor;
        value           nonuniform List<scalar> 
20
(
0.131032
0.131021
0.130999
0.130968
0.130929
0.130885
0.130836
0.130786
0.130735
0.130686
0.130639
0.130595
0.130554
0.130515
0.130476
0.130437
0.130395
0.130348
0.13029
0.13022
)
;
    }
}


// ************************************************************************* //
