/*--------------------------------*- C++ -*----------------------------------*\
| =========                 |                                                 |
| \\      /  F ield         | OpenFOAM: The Open Source CFD Toolbox           |
|  \\    /   O peration     | Version:                                        |
|   \\  /    A nd           | Website:  www.openfoam.com                      |
|    \\/     M anipulation  |                                                 |
\*---------------------------------------------------------------------------*/
FoamFile
{
    version     2.0;
    format      ascii;
    class       surfaceScalarField;
    location    "0.6";
    object      phi;
}
// * * * * * * * * * * * * * * * * * * * * * * * * * * * * * * * * * * * * * //

dimensions      [0 3 -1 0 0 0 0];
oriented        oriented;


internalField   nonuniform List<scalar> 
760
(
3.46778e-05
-1.09989e-07
3.47835e-05
-1.05695e-07
3.48851e-05
-1.01571e-07
3.49827e-05
-9.7611e-08
3.50765e-05
-9.38087e-08
3.51667e-05
-9.01579e-08
3.52534e-05
-8.66528e-08
3.53367e-05
-8.32876e-08
3.54167e-05
-8.00567e-08
3.54937e-05
-7.69544e-08
3.55677e-05
-7.39757e-08
3.56388e-05
-7.11157e-08
3.57072e-05
-6.83694e-08
3.57729e-05
-6.57318e-08
3.58361e-05
-6.31989e-08
3.58969e-05
-6.07667e-08
3.59554e-05
-5.84311e-08
3.60116e-05
-5.6187e-08
3.60656e-05
-5.40314e-08
-5.19612e-08
3.46146e-05
-2.15488e-07
3.47159e-05
-2.07017e-07
3.48132e-05
-1.98891e-07
3.49067e-05
-1.91094e-07
3.49965e-05
-1.83614e-07
3.50828e-05
-1.76436e-07
3.51657e-05
-1.69549e-07
3.52453e-05
-1.62941e-07
3.53219e-05
-1.566e-07
3.53954e-05
-1.50514e-07
3.54661e-05
-1.44673e-07
3.55341e-05
-1.39068e-07
3.55994e-05
-1.33687e-07
3.56622e-05
-1.28522e-07
3.57225e-05
-1.23563e-07
3.57806e-05
-1.18802e-07
3.58364e-05
-1.1423e-07
3.589e-05
-1.09841e-07
3.59416e-05
-1.05625e-07
-1.01575e-07
3.44807e-05
-3.12175e-07
3.45735e-05
-2.99771e-07
3.46625e-05
-2.87888e-07
3.47479e-05
-2.76503e-07
3.48299e-05
-2.65592e-07
3.49086e-05
-2.55135e-07
3.49841e-05
-2.45111e-07
3.50567e-05
-2.35502e-07
3.51264e-05
-2.26288e-07
3.51933e-05
-2.17452e-07
3.52576e-05
-2.08979e-07
3.53194e-05
-2.00851e-07
3.53788e-05
-1.93054e-07
3.54358e-05
-1.85574e-07
3.54907e-05
-1.78395e-07
3.55434e-05
-1.71507e-07
3.5594e-05
-1.64894e-07
3.56427e-05
-1.58547e-07
3.56896e-05
-1.52453e-07
-1.46601e-07
3.42622e-05
-3.96104e-07
3.43426e-05
-3.80144e-07
3.44196e-05
-3.64882e-07
3.44934e-05
-3.50285e-07
3.45641e-05
-3.36318e-07
3.46319e-05
-3.22952e-07
3.4697e-05
-3.10156e-07
3.47594e-05
-2.97903e-07
3.48192e-05
-2.86168e-07
3.48767e-05
-2.74927e-07
3.49319e-05
-2.64155e-07
3.49849e-05
-2.53831e-07
3.50358e-05
-2.43935e-07
3.50846e-05
-2.34447e-07
3.51316e-05
-2.25347e-07
3.51767e-05
-2.1662e-07
3.522e-05
-2.08247e-07
3.52617e-05
-2.00213e-07
3.53018e-05
-1.92503e-07
-1.85102e-07
3.39389e-05
-4.63893e-07
3.40037e-05
-4.44896e-07
3.40656e-05
-4.26771e-07
3.41248e-05
-4.09469e-07
3.41814e-05
-3.92945e-07
3.42356e-05
-3.77157e-07
3.42875e-05
-3.62067e-07
3.43372e-05
-3.47637e-07
3.43849e-05
-3.33834e-07
3.44306e-05
-3.20627e-07
3.44744e-05
-3.07985e-07
3.45165e-05
-2.95881e-07
3.45568e-05
-2.84288e-07
3.45956e-05
-2.73181e-07
3.46328e-05
-2.62538e-07
3.46685e-05
-2.52336e-07
3.47028e-05
-2.42553e-07
3.47358e-05
-2.33173e-07
3.47674e-05
-2.24174e-07
-2.15539e-07
3.34862e-05
-5.12935e-07
3.35328e-05
-4.91563e-07
3.35773e-05
-4.71219e-07
3.36197e-05
-4.51841e-07
3.36601e-05
-4.33371e-07
3.36987e-05
-4.15755e-07
3.37356e-05
-3.98945e-07
3.37708e-05
-3.82896e-07
3.38045e-05
-3.67565e-07
3.38368e-05
-3.52914e-07
3.38678e-05
-3.38906e-07
3.38974e-05
-3.25507e-07
3.39258e-05
-3.12686e-07
3.3953e-05
-3.00413e-07
3.39791e-05
-2.88661e-07
3.40042e-05
-2.77404e-07
3.40283e-05
-2.66617e-07
3.40514e-05
-2.56279e-07
3.40736e-05
-2.46367e-07
-2.3686e-07
3.28762e-05
-5.41584e-07
3.29032e-05
-5.18622e-07
3.29288e-05
-4.96816e-07
3.29531e-05
-4.76091e-07
3.29761e-05
-4.56377e-07
3.29979e-05
-4.37609e-07
3.30187e-05
-4.1973e-07
3.30385e-05
-4.02686e-07
3.30574e-05
-3.86427e-07
3.30753e-05
-3.70909e-07
3.30925e-05
-3.56089e-07
3.3109e-05
-3.41928e-07
3.31247e-05
-3.28391e-07
3.31397e-05
-3.15444e-07
3.31541e-05
-3.03055e-07
3.31679e-05
-2.91197e-07
3.31811e-05
-2.79841e-07
3.31938e-05
-2.68964e-07
3.3206e-05
-2.5854e-07
-2.48546e-07
3.208e-05
-5.49304e-07
3.2087e-05
-5.25626e-07
3.20934e-05
-5.03192e-07
3.20992e-05
-4.81915e-07
3.21046e-05
-4.61715e-07
3.21095e-05
-4.42518e-07
3.2114e-05
-4.2426e-07
3.21182e-05
-4.0688e-07
3.21221e-05
-3.90324e-07
3.21257e-05
-3.7454e-07
3.21291e-05
-3.59483e-07
3.21323e-05
-3.45111e-07
3.21353e-05
-3.31384e-07
3.21381e-05
-3.18266e-07
3.21408e-05
-3.05723e-07
3.21433e-05
-2.93725e-07
3.21457e-05
-2.82242e-07
3.2148e-05
-2.71249e-07
3.21502e-05
-2.60718e-07
-2.50627e-07
3.10698e-05
-5.36742e-07
3.10574e-05
-5.1326e-07
3.10453e-05
-4.91058e-07
3.10334e-05
-4.70042e-07
3.10218e-05
-4.50125e-07
3.10106e-05
-4.31228e-07
3.09996e-05
-4.13281e-07
3.09889e-05
-3.9622e-07
3.09786e-05
-3.79988e-07
3.09686e-05
-3.64531e-07
3.09589e-05
-3.498e-07
3.09495e-05
-3.35752e-07
3.09405e-05
-3.22345e-07
3.09318e-05
-3.09542e-07
3.09233e-05
-2.97309e-07
3.09152e-05
-2.85615e-07
3.09074e-05
-2.74428e-07
3.08999e-05
-2.63723e-07
3.08927e-05
-2.53473e-07
-2.43655e-07
2.98202e-05
-5.05712e-07
2.97903e-05
-4.83309e-07
2.97614e-05
-4.62167e-07
2.97335e-05
-4.42187e-07
2.97067e-05
-4.23281e-07
2.96808e-05
-4.05369e-07
2.96559e-05
-3.88379e-07
2.9632e-05
-3.72247e-07
2.96089e-05
-3.56915e-07
2.95867e-05
-3.42328e-07
2.95653e-05
-3.28439e-07
2.95448e-05
-3.15203e-07
2.9525e-05
-3.02581e-07
2.9506e-05
-2.90536e-07
2.94877e-05
-2.79032e-07
2.94701e-05
-2.6804e-07
2.94532e-05
-2.5753e-07
2.9437e-05
-2.47477e-07
2.94214e-05
-2.37855e-07
-2.2864e-07
2.83104e-05
-4.59068e-07
2.82656e-05
-4.38532e-07
2.82226e-05
-4.19182e-07
2.81813e-05
-4.00921e-07
2.81417e-05
-3.83663e-07
2.81037e-05
-3.67332e-07
2.80672e-05
-3.51857e-07
2.80321e-05
-3.37177e-07
2.79984e-05
-3.23237e-07
2.79661e-05
-3.09985e-07
2.7935e-05
-2.97375e-07
2.79052e-05
-2.85366e-07
2.78765e-05
-2.7392e-07
2.7849e-05
-2.63002e-07
2.78225e-05
-2.5258e-07
2.77971e-05
-2.42625e-07
2.77727e-05
-2.3311e-07
2.77492e-05
-2.24011e-07
2.77267e-05
-2.15304e-07
-2.06968e-07
2.65247e-05
-4.00486e-07
2.64686e-05
-3.82451e-07
2.64149e-05
-3.65476e-07
2.63634e-05
-3.49474e-07
2.63141e-05
-3.34366e-07
2.62669e-05
-3.2008e-07
2.62216e-05
-3.06555e-07
2.61781e-05
-2.93733e-07
2.61365e-05
-2.81564e-07
2.60965e-05
-2.70003e-07
2.60581e-05
-2.59008e-07
2.60213e-05
-2.48541e-07
2.59859e-05
-2.38569e-07
2.5952e-05
-2.29059e-07
2.59194e-05
-2.19985e-07
2.58881e-05
-2.11319e-07
2.5858e-05
-2.03038e-07
2.58291e-05
-1.95121e-07
2.58014e-05
-1.87545e-07
-1.80293e-07
2.44536e-05
-3.34186e-07
2.43902e-05
-3.19082e-07
2.43296e-05
-3.04878e-07
2.42716e-05
-2.91497e-07
2.42161e-05
-2.78871e-07
2.4163e-05
-2.6694e-07
2.41121e-05
-2.55649e-07
2.40633e-05
-2.44951e-07
2.40165e-05
-2.34801e-07
2.39717e-05
-2.25161e-07
2.39287e-05
-2.15996e-07
2.38874e-05
-2.07273e-07
2.38478e-05
-1.98965e-07
2.38098e-05
-1.91044e-07
2.37733e-05
-1.83485e-07
2.37382e-05
-1.76269e-07
2.37046e-05
-1.69373e-07
2.36722e-05
-1.62781e-07
2.36412e-05
-1.56473e-07
-1.50436e-07
2.20931e-05
-2.64622e-07
2.20267e-05
-2.52655e-07
2.19632e-05
-2.41405e-07
2.19026e-05
-2.30812e-07
2.18445e-05
-2.20819e-07
2.17889e-05
-2.11379e-07
2.17357e-05
-2.02447e-07
2.16848e-05
-1.93986e-07
2.16359e-05
-1.8596e-07
2.15891e-05
-1.78339e-07
2.15442e-05
-1.71093e-07
2.15011e-05
-1.64199e-07
2.14598e-05
-1.57631e-07
2.14201e-05
-1.5137e-07
2.1382e-05
-1.45396e-07
2.13455e-05
-1.39692e-07
2.13103e-05
-1.34242e-07
2.12766e-05
-1.2903e-07
2.12442e-05
-1.24044e-07
-1.19272e-07
1.94446e-05
-1.96197e-07
1.93793e-05
-1.87343e-07
1.93169e-05
-1.79021e-07
1.92573e-05
-1.71185e-07
1.92003e-05
-1.63793e-07
1.91457e-05
-1.5681e-07
1.90934e-05
-1.50204e-07
1.90434e-05
-1.43945e-07
1.89955e-05
-1.38008e-07
1.89495e-05
-1.32369e-07
1.89054e-05
-1.27009e-07
1.88631e-05
-1.21907e-07
1.88225e-05
-1.17048e-07
1.87836e-05
-1.12414e-07
1.87462e-05
-1.07993e-07
1.87102e-05
-1.0377e-07
1.86757e-05
-9.97354e-08
1.86426e-05
-9.58771e-08
1.86107e-05
-9.21847e-08
-8.86504e-08
1.6513e-05
-1.33037e-07
1.64528e-05
-1.27061e-07
1.63952e-05
-1.21442e-07
1.63401e-05
-1.1615e-07
1.62875e-05
-1.11158e-07
1.62371e-05
-1.0644e-07
1.61889e-05
-1.01976e-07
1.61427e-05
-9.77453e-08
1.60984e-05
-9.37317e-08
1.6056e-05
-8.99193e-08
1.60153e-05
-8.6294e-08
1.59762e-05
-8.28429e-08
1.59387e-05
-7.95547e-08
1.59027e-05
-7.64188e-08
1.58682e-05
-7.34258e-08
1.58349e-05
-7.0567e-08
1.5803e-05
-6.78343e-08
1.57724e-05
-6.52208e-08
1.57429e-05
-6.27193e-08
-6.03245e-08
1.3306e-05
-7.88413e-08
1.32543e-05
-7.53228e-08
1.32049e-05
-7.20134e-08
1.31576e-05
-6.88953e-08
1.31124e-05
-6.59522e-08
1.30691e-05
-6.31699e-08
1.30277e-05
-6.05358e-08
1.2988e-05
-5.8039e-08
1.29499e-05
-5.56694e-08
1.29134e-05
-5.34176e-08
1.28784e-05
-5.12754e-08
1.28448e-05
-4.92356e-08
1.28125e-05
-4.72914e-08
1.27816e-05
-4.54368e-08
1.27518e-05
-4.36659e-08
1.27232e-05
-4.1974e-08
1.26957e-05
-4.03563e-08
1.26693e-05
-3.88088e-08
1.26439e-05
-3.73271e-08
-3.59085e-08
9.83223e-06
-3.6826e-08
9.7921e-06
-3.51965e-08
9.75375e-06
-3.36629e-08
9.71707e-06
-3.2217e-08
9.68197e-06
-3.08513e-08
9.64836e-06
-2.95594e-08
9.61616e-06
-2.83357e-08
9.5853e-06
-2.71753e-08
9.5557e-06
-2.60733e-08
9.52731e-06
-2.50256e-08
9.50006e-06
-2.40283e-08
9.47391e-06
-2.30784e-08
9.44879e-06
-2.21726e-08
9.42466e-06
-2.13081e-08
9.40148e-06
-2.04823e-08
9.37919e-06
-1.96932e-08
9.35778e-06
-1.89384e-08
9.33718e-06
-1.8216e-08
9.31738e-06
-1.7524e-08
-1.68614e-08
6.09992e-06
-9.74868e-09
6.07404e-06
-9.32241e-09
6.0493e-06
-8.9209e-09
6.02563e-06
-8.54198e-09
6.00296e-06
-8.18359e-09
5.98124e-06
-7.84422e-09
5.96043e-06
-7.5227e-09
5.94047e-06
-7.21766e-09
5.92133e-06
-6.92759e-09
5.90295e-06
-6.65146e-09
5.88531e-06
-6.38862e-09
5.86837e-06
-6.13825e-09
5.8521e-06
-5.89927e-09
5.83646e-06
-5.67089e-09
5.82143e-06
-5.45271e-09
5.80698e-06
-5.24419e-09
5.79309e-06
-5.04454e-09
5.77973e-06
-4.85336e-09
5.76687e-06
-4.67024e-09
-4.49496e-09
2.11585e-06
2.10653e-06
2.09761e-06
2.08906e-06
2.08088e-06
2.07304e-06
2.06551e-06
2.0583e-06
2.05137e-06
2.04472e-06
2.03833e-06
2.03219e-06
2.02629e-06
2.02062e-06
2.01517e-06
2.00992e-06
2.00488e-06
2.00002e-06
1.99535e-06
)
;

boundaryField
{
    fixedWalls
    {
        type            calculated;
        value           uniform 0;
    }
    inlet
    {
        type            calculated;
        value           nonuniform 0();
    }
    outlet
    {
        type            calculated;
        value           nonuniform 0();
    }
    frontAndBack
    {
        type            empty;
        value           nonuniform 0();
    }
    procBoundary6to2
    {
        type            processor;
        value           nonuniform List<scalar> 
20
(
-4.0709e-12
-4.99614e-12
-5.86543e-12
-6.5359e-12
-7.00863e-12
-7.12358e-12
-7.34215e-12
-8.1205e-12
-9.33722e-12
-1.0201e-11
-1.06849e-11
-1.17401e-11
-1.3497e-11
-1.30377e-11
-1.36865e-11
-1.45048e-11
-1.70292e-11
-1.89743e-11
-1.93083e-11
-2.01157e-11
)
;
    }
    procBoundary6to5
    {
        type            processor;
        value           nonuniform List<scalar> 
20
(
-3.45678e-05
-3.45091e-05
-3.4384e-05
-3.41783e-05
-3.38712e-05
-3.34371e-05
-3.28475e-05
-3.20723e-05
-3.10824e-05
-2.98513e-05
-2.8357e-05
-2.65833e-05
-2.45199e-05
-2.21627e-05
-1.9513e-05
-1.65762e-05
-1.33602e-05
-9.87424e-06
-6.127e-06
-2.1256e-06
)
;
    }
    procBoundary6to7
    {
        type            processor;
        value           nonuniform List<scalar> 
20
(
3.61176e-05
3.59912e-05
3.57346e-05
3.53403e-05
3.47979e-05
3.40949e-05
3.32176e-05
3.21523e-05
3.08857e-05
2.94064e-05
2.7705e-05
2.57747e-05
2.36113e-05
2.1213e-05
1.85801e-05
1.57146e-05
1.26195e-05
9.29833e-06
5.75451e-06
1.99086e-06
)
;
    }
}


// ************************************************************************* //
