/*--------------------------------*- C++ -*----------------------------------*\
| =========                 |                                                 |
| \\      /  F ield         | OpenFOAM: The Open Source CFD Toolbox           |
|  \\    /   O peration     | Version:                                        |
|   \\  /    A nd           | Website:  www.openfoam.com                      |
|    \\/     M anipulation  |                                                 |
\*---------------------------------------------------------------------------*/
FoamFile
{
    version     2.0;
    format      ascii;
    class       volVectorField;
    location    "0.6";
    object      U;
}
// * * * * * * * * * * * * * * * * * * * * * * * * * * * * * * * * * * * * * //

dimensions      [0 1 -1 0 0 0 0];


internalField   nonuniform List<vector> 
400
(
(1.38496 -0.00111135 0)
(1.38927 -0.00106811 0)
(1.39341 -0.00102656 0)
(1.3974 -0.000986646 0)
(1.40122 -0.000948306 0)
(1.4049 -0.000911484 0)
(1.40844 -0.000876119 0)
(1.41183 -0.00084215 0)
(1.4151 -0.000809523 0)
(1.41824 -0.00077819 0)
(1.42126 -0.000748102 0)
(1.42416 -0.000719202 0)
(1.42695 -0.000691436 0)
(1.42963 -0.000664785 0)
(1.43221 -0.00063918 0)
(1.43469 -0.000614589 0)
(1.43707 -0.000590953 0)
(1.43936 -0.000568243 0)
(1.44157 -0.000546443 0)
(1.44369 -0.000525502 0)
(1.38252 -0.00328884 0)
(1.38665 -0.00316029 0)
(1.39062 -0.00303686 0)
(1.39444 -0.00291836 0)
(1.3981 -0.00280459 0)
(1.40162 -0.00269537 0)
(1.405 -0.00259051 0)
(1.40825 -0.00248985 0)
(1.41137 -0.00239322 0)
(1.41437 -0.00230044 0)
(1.41726 -0.00221136 0)
(1.42003 -0.00212584 0)
(1.4227 -0.00204373 0)
(1.42526 -0.00196488 0)
(1.42772 -0.00188916 0)
(1.43009 -0.00181645 0)
(1.43236 -0.00174663 0)
(1.43455 -0.00167956 0)
(1.43665 -0.00161514 0)
(1.43868 -0.00155325 0)
(1.37734 -0.0053319 0)
(1.38112 -0.00512159 0)
(1.38476 -0.00491992 0)
(1.38824 -0.00472651 0)
(1.39159 -0.00454101 0)
(1.3948 -0.00436309 0)
(1.39788 -0.00419243 0)
(1.40085 -0.00402872 0)
(1.40369 -0.00387167 0)
(1.40642 -0.00372098 0)
(1.40904 -0.0035764 0)
(1.41157 -0.00343766 0)
(1.41399 -0.00330451 0)
(1.41631 -0.00317672 0)
(1.41855 -0.00305405 0)
(1.4207 -0.0029363 0)
(1.42277 -0.00282324 0)
(1.42475 -0.0027147 0)
(1.42666 -0.00261046 0)
(1.4285 -0.00251033 0)
(1.36885 -0.00715689 0)
(1.37213 -0.00687097 0)
(1.37528 -0.00659726 0)
(1.37829 -0.00633517 0)
(1.38118 -0.00608417 0)
(1.38395 -0.00584375 0)
(1.3866 -0.0056134 0)
(1.38915 -0.00539267 0)
(1.3916 -0.00518112 0)
(1.39394 -0.00497834 0)
(1.39619 -0.00478394 0)
(1.39836 -0.00459752 0)
(1.40043 -0.00441875 0)
(1.40243 -0.00424727 0)
(1.40434 -0.00408276 0)
(1.40618 -0.00392492 0)
(1.40795 -0.00377344 0)
(1.40965 -0.00362807 0)
(1.41129 -0.00348852 0)
(1.41286 -0.00335452 0)
(1.35623 -0.00868949 0)
(1.35888 -0.00833691 0)
(1.36141 -0.00800008 0)
(1.36383 -0.00767818 0)
(1.36615 -0.00737043 0)
(1.36836 -0.00707611 0)
(1.37049 -0.00679455 0)
(1.37252 -0.0065251 0)
(1.37446 -0.00626718 0)
(1.37633 -0.00602022 0)
(1.37812 -0.00578369 0)
(1.37984 -0.0055571 0)
(1.38148 -0.00533997 0)
(1.38306 -0.00513186 0)
(1.38458 -0.00493234 0)
(1.38604 -0.00474103 0)
(1.38744 -0.00455754 0)
(1.38878 -0.00438153 0)
(1.39008 -0.00421263 0)
(1.39132 -0.00405053 0)
(1.33849 -0.00986878 0)
(1.3404 -0.00946138 0)
(1.34222 -0.00907309 0)
(1.34396 -0.0087028 0)
(1.34561 -0.00834948 0)
(1.34719 -0.00801218 0)
(1.3487 -0.00769003 0)
(1.35014 -0.0073822 0)
(1.35152 -0.00708793 0)
(1.35284 -0.00680652 0)
(1.35411 -0.00653731 0)
(1.35532 -0.00627966 0)
(1.35648 -0.006033 0)
(1.35759 -0.00579678 0)
(1.35865 -0.00557049 0)
(1.35968 -0.00535365 0)
(1.36066 -0.0051458 0)
(1.3616 -0.00494654 0)
(1.36251 -0.00475543 0)
(1.36338 -0.0045721 0)
(1.31449 -0.0106513 0)
(1.3156 -0.0102037 0)
(1.31665 -0.00977811 0)
(1.31765 -0.00937315 0)
(1.31859 -0.00898754 0)
(1.31949 -0.0086201 0)
(1.32034 -0.00826975 0)
(1.32115 -0.00793551 0)
(1.32193 -0.00761644 0)
(1.32266 -0.00731171 0)
(1.32337 -0.00702052 0)
(1.32404 -0.00674215 0)
(1.32468 -0.00647589 0)
(1.32529 -0.00622114 0)
(1.32588 -0.00597728 0)
(1.32645 -0.00574378 0)
(1.32699 -0.0055201 0)
(1.3275 -0.00530578 0)
(1.328 -0.00510034 0)
(1.32848 -0.00490335 0)
(1.28305 -0.0110147 0)
(1.28335 -0.0105437 0)
(1.28362 -0.0100969 0)
(1.28386 -0.00967273 0)
(1.28408 -0.00926964 0)
(1.28429 -0.00888625 0)
(1.28447 -0.00852131 0)
(1.28465 -0.00817367 0)
(1.28481 -0.00784229 0)
(1.28496 -0.0075262 0)
(1.2851 -0.00722451 0)
(1.28523 -0.00693639 0)
(1.28535 -0.00666108 0)
(1.28547 -0.00639788 0)
(1.28558 -0.00614614 0)
(1.28568 -0.00590526 0)
(1.28578 -0.00567465 0)
(1.28588 -0.00545382 0)
(1.28597 -0.00524224 0)
(1.28605 -0.00503945 0)
(1.24304 -0.0109599 0)
(1.24254 -0.0104836 0)
(1.24205 -0.0100329 0)
(1.24157 -0.00960583 0)
(1.2411 -0.00920078 0)
(1.24065 -0.00881619 0)
(1.2402 -0.00845069 0)
(1.23977 -0.00810303 0)
(1.23935 -0.00777206 0)
(1.23894 -0.00745672 0)
(1.23855 -0.00715608 0)
(1.23817 -0.00686924 0)
(1.2378 -0.00659539 0)
(1.23744 -0.00633381 0)
(1.2371 -0.00608379 0)
(1.23677 -0.0058447 0)
(1.23645 -0.00561594 0)
(1.23614 -0.005397 0)
(1.23585 -0.00518731 0)
(1.23556 -0.00498643 0)
(1.19342 -0.0105117 0)
(1.1922 -0.0100485 0)
(1.19102 -0.00961108 0)
(1.18989 -0.00919735 0)
(1.18879 -0.00880559 0)
(1.18774 -0.0084342 0)
(1.18673 -0.00808173 0)
(1.18575 -0.00774689 0)
(1.18481 -0.0074285 0)
(1.1839 -0.00712547 0)
(1.18303 -0.00683682 0)
(1.18219 -0.00656167 0)
(1.18139 -0.00629919 0)
(1.18061 -0.00604863 0)
(1.17987 -0.00580929 0)
(1.17915 -0.00558055 0)
(1.17846 -0.0053618 0)
(1.1778 -0.00515252 0)
(1.17716 -0.00495217 0)
(1.17655 -0.0047603 0)
(1.13333 -0.00971797 0)
(1.1315 -0.0092849 0)
(1.12975 -0.00887658 0)
(1.12806 -0.00849102 0)
(1.12645 -0.00812646 0)
(1.12489 -0.0077813 0)
(1.1234 -0.00745411 0)
(1.12197 -0.00714362 0)
(1.1206 -0.00684865 0)
(1.11928 -0.00656817 0)
(1.11801 -0.0063012 0)
(1.11679 -0.0060469 0)
(1.11562 -0.00580446 0)
(1.1145 -0.00557316 0)
(1.11342 -0.00535234 0)
(1.11238 -0.00514138 0)
(1.11139 -0.00493971 0)
(1.11043 -0.00474684 0)
(1.10951 -0.00456226 0)
(1.10862 -0.00438554 0)
(1.06213 -0.00864515 0)
(1.05984 -0.0082567 0)
(1.05765 -0.00789096 0)
(1.05554 -0.00754602 0)
(1.05353 -0.00722023 0)
(1.0516 -0.00691208 0)
(1.04975 -0.00662025 0)
(1.04798 -0.00634354 0)
(1.04628 -0.00608086 0)
(1.04464 -0.00583124 0)
(1.04308 -0.0055938 0)
(1.04157 -0.00536773 0)
(1.04013 -0.00515231 0)
(1.03875 -0.00494688 0)
(1.03742 -0.00475082 0)
(1.03614 -0.00456357 0)
(1.03491 -0.00438463 0)
(1.03373 -0.00421353 0)
(1.0326 -0.00404981 0)
(1.03151 -0.00389309 0)
(0.979439 -0.00737383 0)
(0.976847 -0.00704083 0)
(0.974369 -0.00672759 0)
(0.971999 -0.00643244 0)
(0.969731 -0.00615388 0)
(0.967559 -0.0058906 0)
(0.96548 -0.00564142 0)
(0.963487 -0.00540528 0)
(0.961577 -0.00518122 0)
(0.959746 -0.0049684 0)
(0.95799 -0.00476604 0)
(0.956305 -0.00457344 0)
(0.954688 -0.00438997 0)
(0.953137 -0.00421505 0)
(0.951647 -0.00404814 0)
(0.950217 -0.00388877 0)
(0.948843 -0.00373648 0)
(0.947523 -0.00359089 0)
(0.946256 -0.00345159 0)
(0.945038 -0.00331826 0)
(0.885085 -0.00599235 0)
(0.882367 -0.00572123 0)
(0.879771 -0.00546634 0)
(0.877289 -0.0052263 0)
(0.874916 -0.00499986 0)
(0.872645 -0.00478592 0)
(0.870471 -0.00458351 0)
(0.868389 -0.00439175 0)
(0.866394 -0.00420985 0)
(0.864482 -0.00403711 0)
(0.862648 -0.0038729 0)
(0.860889 -0.00371663 0)
(0.859202 -0.00356779 0)
(0.857583 -0.00342589 0)
(0.856028 -0.0032905 0)
(0.854536 -0.00316124 0)
(0.853102 -0.00303772 0)
(0.851725 -0.00291964 0)
(0.850402 -0.00280666 0)
(0.849131 -0.00269852 0)
(0.779121 -0.00459079 0)
(0.776448 -0.00438331 0)
(0.773896 -0.00418829 0)
(0.771458 -0.00400467 0)
(0.769126 -0.00383147 0)
(0.766895 -0.00366786 0)
(0.76476 -0.00351308 0)
(0.762716 -0.00336645 0)
(0.760757 -0.00322737 0)
(0.75888 -0.00309529 0)
(0.75708 -0.00296974 0)
(0.755353 -0.00285026 0)
(0.753696 -0.00273644 0)
(0.752106 -0.00262794 0)
(0.75058 -0.0025244 0)
(0.749114 -0.00242554 0)
(0.747706 -0.00233107 0)
(0.746353 -0.00224075 0)
(0.745054 -0.00215431 0)
(0.743805 -0.00207158 0)
(0.661756 -0.00325524 0)
(0.659289 -0.00310867 0)
(0.656933 -0.0029709 0)
(0.654682 -0.00284115 0)
(0.65253 -0.00271876 0)
(0.650471 -0.00260313 0)
(0.6485 -0.00249372 0)
(0.646613 -0.00239005 0)
(0.644805 -0.00229171 0)
(0.643071 -0.00219831 0)
(0.641409 -0.0021095 0)
(0.639814 -0.00202497 0)
(0.638283 -0.00194444 0)
(0.636814 -0.00186765 0)
(0.635404 -0.00179437 0)
(0.634049 -0.00172438 0)
(0.632747 -0.00165748 0)
(0.631497 -0.00159351 0)
(0.630295 -0.00153228 0)
(0.62914 -0.00147367 0)
(0.5333 -0.00206284 0)
(0.531183 -0.00197053 0)
(0.529161 -0.00188373 0)
(0.527229 -0.00180195 0)
(0.525381 -0.00172478 0)
(0.523612 -0.00165184 0)
(0.521919 -0.0015828 0)
(0.520297 -0.00151736 0)
(0.518743 -0.00145527 0)
(0.517252 -0.00139627 0)
(0.515823 -0.00134016 0)
(0.514451 -0.00128674 0)
(0.513134 -0.00123582 0)
(0.51187 -0.00118726 0)
(0.510655 -0.0011409 0)
(0.509489 -0.00109661 0)
(0.508368 -0.00105426 0)
(0.507291 -0.00101376 0)
(0.506255 -0.000974989 0)
(0.505259 -0.000937866 0)
(0.39411 -0.00108268 0)
(0.392469 -0.00103464 0)
(0.3909 -0.000989435 0)
(0.389401 -0.000946821 0)
(0.387966 -0.000906582 0)
(0.386592 -0.000868526 0)
(0.385277 -0.000832485 0)
(0.384016 -0.00079831 0)
(0.382808 -0.000765864 0)
(0.381649 -0.000735022 0)
(0.380537 -0.000705671 0)
(0.379469 -0.000677715 0)
(0.378444 -0.000651062 0)
(0.377459 -0.000625628 0)
(0.376514 -0.000601337 0)
(0.375605 -0.000578124 0)
(0.374731 -0.000555924 0)
(0.373891 -0.000534682 0)
(0.373084 -0.000514337 0)
(0.372307 -0.000494856 0)
(0.244526 -0.000391232 0)
(0.243468 -0.000374085 0)
(0.242456 -0.000357936 0)
(0.241489 -0.000342697 0)
(0.240562 -0.000328291 0)
(0.239675 -0.000314653 0)
(0.238825 -0.000301729 0)
(0.23801 -0.000289466 0)
(0.237228 -0.000277812 0)
(0.236478 -0.000266723 0)
(0.235758 -0.000256166 0)
(0.235067 -0.000246106 0)
(0.234403 -0.000236507 0)
(0.233765 -0.00022734 0)
(0.233152 -0.00021858 0)
(0.232563 -0.000210207 0)
(0.231996 -0.000202194 0)
(0.231451 -0.000194521 0)
(0.230927 -0.00018717 0)
(0.230423 -0.000180131 0)
(0.0848248 -6.4265e-05 0)
(0.0844436 -6.15123e-05 0)
(0.084079 -5.89144e-05 0)
(0.0837299 -5.64584e-05 0)
(0.0833956 -5.41317e-05 0)
(0.0830752 -5.19249e-05 0)
(0.082768 -4.98311e-05 0)
(0.0824734 -4.78419e-05 0)
(0.0821906 -4.59479e-05 0)
(0.0819192 -4.4143e-05 0)
(0.0816585 -4.2423e-05 0)
(0.0814081 -4.07825e-05 0)
(0.0811674 -3.92149e-05 0)
(0.0809361 -3.77157e-05 0)
(0.0807137 -3.62823e-05 0)
(0.0804999 -3.49108e-05 0)
(0.0802942 -3.35964e-05 0)
(0.0800963 -3.23372e-05 0)
(0.0799059 -3.11302e-05 0)
(0.0797227 -2.99744e-05 0)
)
;

boundaryField
{
    fixedWalls
    {
        type            noSlip;
    }
    inlet
    {
        type            fixedValue;
        value           nonuniform 0();
    }
    outlet
    {
        type            zeroGradient;
    }
    frontAndBack
    {
        type            empty;
    }
    procBoundary6to2
    {
        type            processor;
        value           nonuniform List<vector> 
20
(
(1.38496 0.00111155 0)
(1.38927 0.00106832 0)
(1.39341 0.0010268 0)
(1.3974 0.00098691 0)
(1.40122 0.000948592 0)
(1.4049 0.000911787 0)
(1.40844 0.00087644 0)
(1.41183 0.000842497 0)
(1.4151 0.000809904 0)
(1.41824 0.000778603 0)
(1.42126 0.000748542 0)
(1.42416 0.000719678 0)
(1.42695 0.000691966 0)
(1.42963 0.000665333 0)
(1.43221 0.000639764 0)
(1.43469 0.00061521 0)
(1.43707 0.000591638 0)
(1.43936 0.000568999 0)
(1.44157 0.000547234 0)
(1.44369 0.000526322 0)
)
;
    }
    procBoundary6to5
    {
        type            processor;
        value           nonuniform List<vector> 
20
(
(1.38047 -0.00115634 0)
(1.37821 -0.00342273 0)
(1.37339 -0.00555123 0)
(1.36542 -0.00745563 0)
(1.35346 -0.00905872 0)
(1.33648 -0.0102965 0)
(1.31331 -0.0111225 0)
(1.28273 -0.0115118 0)
(1.24355 -0.0114637 0)
(1.19468 -0.0110029 0)
(1.13523 -0.010178 0)
(1.06453 -0.00905841 0)
(0.982151 -0.00772848 0)
(0.887932 -0.0062813 0)
(0.781922 -0.00481197 0)
(0.664341 -0.00341147 0)
(0.535519 -0.00216119 0)
(0.39583 -0.00113383 0)
(0.245634 -0.000409465 0)
(0.0852235 -6.71859e-05 0)
)
;
    }
    procBoundary6to7
    {
        type            processor;
        value           nonuniform List<vector> 
20
(
(1.44572 -0.000505338 0)
(1.44062 -0.0014938 0)
(1.43027 -0.0024142 0)
(1.41437 -0.00322591 0)
(1.39251 -0.00389499 0)
(1.36421 -0.00439625 0)
(1.32893 -0.00471447 0)
(1.28613 -0.00484508 0)
(1.23529 -0.00479396 0)
(1.17596 -0.00457652 0)
(1.10777 -0.0042163 0)
(1.03047 -0.00374303 0)
(0.943867 -0.0031906 0)
(0.847909 -0.00259496 0)
(0.742604 -0.00199235 0)
(0.628029 -0.00141752 0)
(0.504302 -0.000902286 0)
(0.37156 -0.000476177 0)
(0.229938 -0.000173377 0)
(0.0795463 -2.88622e-05 0)
)
;
    }
}


// ************************************************************************* //
