/*--------------------------------*- C++ -*----------------------------------*\
| =========                 |                                                 |
| \\      /  F ield         | OpenFOAM: The Open Source CFD Toolbox           |
|  \\    /   O peration     | Version:                                        |
|   \\  /    A nd           | Website:  www.openfoam.com                      |
|    \\/     M anipulation  |                                                 |
\*---------------------------------------------------------------------------*/
FoamFile
{
    version     2.0;
    format      ascii;
    class       volVectorField;
    location    "168";
    object      U;
}
// * * * * * * * * * * * * * * * * * * * * * * * * * * * * * * * * * * * * * //

dimensions      [0 1 -1 0 0 0 0];


internalField   nonuniform List<vector> 
1164
(
(0.608181 0.883342 -1.34711e-22)
(0.59359 0.810501 -6.32673e-21)
(0.586891 0.759743 8.169e-21)
(0.626194 0.710264 -2.78129e-21)
(0.703678 0.668903 7.94892e-21)
(0.795254 0.627327 4.39697e-20)
(0.450479 0.70816 -1.34662e-21)
(0.430266 0.644268 1.16694e-20)
(0.451535 0.586809 -6.7379e-21)
(0.507117 0.535878 -1.32899e-20)
(0.55832 0.494924 -7.37226e-21)
(0.599024 0.458882 -8.90071e-21)
(0.676121 0.424324 4.74832e-21)
(0.766178 0.4022 -1.21165e-21)
(0.84077 0.388918 7.75533e-21)
(0.918862 0.400221 -4.67621e-21)
(0.379812 0.516413 2.43835e-21)
(0.349932 0.511909 -5.30069e-21)
(0.345989 0.494234 3.13621e-21)
(0.372295 0.483238 2.60189e-21)
(0.45217 0.448484 -1.36674e-21)
(0.538751 0.400847 -2.151e-20)
(0.615583 0.355123 -8.85673e-21)
(0.6564 0.313189 -1.73156e-21)
(0.714926 0.276231 -1.75096e-21)
(0.807935 0.256185 -6.2553e-23)
(0.438932 -0.00134601 2.42922e-22)
(0.351675 -0.000155447 3.5591e-21)
(0.299793 0.00125106 -1.91228e-21)
(0.3038 0.0290703 7.1397e-21)
(0.309709 0.0753147 1.40471e-20)
(0.317228 0.124579 2.27641e-20)
(0.399878 0.160428 3.6347e-21)
(0.505011 0.16747 1.1839e-21)
(0.620306 0.168207 -2.75978e-21)
(0.704809 0.149153 4.15177e-22)
(0.357013 -0.350026 -3.03994e-21)
(0.310898 -0.297068 -5.21753e-22)
(0.314659 -0.237391 -1.02696e-20)
(0.367667 -0.1852 -2.8585e-21)
(0.439507 -0.13959 -5.52988e-21)
(0.506498 -0.0874428 -1.27777e-20)
(0.531493 -0.0147699 3.30444e-21)
(0.5183 0.0363381 -4.43623e-22)
(0.543202 0.0855859 3.42868e-22)
(0.581799 0.0730545 -1.1052e-21)
(0.557551 -0.643614 1.60727e-21)
(0.500297 -0.599061 -7.37747e-21)
(0.476621 -0.518431 -9.29222e-23)
(0.464166 -0.435864 1.04184e-21)
(0.463456 -0.322232 -7.02081e-21)
(0.522243 -0.235378 -4.11208e-22)
(0.585338 -0.141675 3.52292e-21)
(0.650467 -0.0650002 2.98843e-21)
(0.682468 0.0359789 1.50968e-21)
(0.650051 0.111229 1.4374e-21)
(0.587186 -0.776244 -3.92742e-22)
(0.583279 -0.786916 8.47817e-21)
(0.605989 -0.757222 1.86327e-20)
(0.625757 -0.755646 -1.163e-20)
(0.674073 -0.693554 -6.2668e-22)
(0.682067 -0.616626 -3.5552e-21)
(0.685005 -0.502992 -5.47294e-21)
(0.725027 -0.386114 5.65923e-22)
(0.737446 -0.28309 2.4196e-22)
(0.74919 -0.141302 -9.67855e-22)
(0.577994 -0.706977 1.64611e-21)
(0.552362 -0.712023 1.65814e-22)
(0.572597 -0.752411 1.02769e-21)
(0.628634 -0.76731 4.05563e-21)
(0.713712 -0.792754 3.55392e-21)
(0.791988 -0.769892 6.43204e-21)
(0.882134 -0.749557 -1.32475e-20)
(0.881454 -0.657866 1.4743e-20)
(0.91912 -0.590499 -8.39061e-21)
(0.898401 -0.456623 -6.82093e-21)
(0.498719 -0.911028 -1.14635e-21)
(0.477037 -0.88996 -7.51701e-21)
(0.502576 -0.932625 4.00805e-21)
(0.519312 -0.896689 8.35525e-22)
(0.608276 -0.916524 1.47877e-20)
(0.716305 -0.885449 1.22751e-20)
(0.83031 -0.888575 9.64648e-21)
(0.922981 -0.82455 -2.25725e-21)
(1.00781 -0.785654 -1.19209e-20)
(0.991953 -0.69718 -5.8563e-21)
(0.519032 -0.525878 -5.63753e-22)
(0.572117 -0.534506 2.13474e-21)
(0.643878 -0.588746 -9.36604e-21)
(0.70612 -0.581554 2.00296e-20)
(0.808219 -0.638569 -4.33524e-20)
(0.868147 -0.648243 -1.88562e-20)
(1.00552 -0.678269 2.84503e-20)
(1.0525 -0.700761 9.55953e-21)
(1.13798 -0.659324 2.2787e-20)
(1.15944 -0.697366 -2.29717e-20)
(0.422024 -0.124733 6.22558e-22)
(0.470177 -0.0854775 1.86095e-22)
(0.570764 -0.0846344 -1.19681e-20)
(0.682353 -0.0640418 8.9829e-21)
(0.843825 -0.0994292 3.72428e-20)
(0.982402 -0.111113 -1.53594e-20)
(1.14419 -0.156056 -2.52517e-20)
(1.21032 -0.229785 -3.72262e-20)
(1.34974 -0.223023 -2.46364e-20)
(1.34229 -0.366804 5.34524e-20)
(0.652654 0.175925 -1.09649e-21)
(0.689073 0.236182 7.38956e-21)
(0.73522 0.265945 3.07424e-21)
(0.786765 0.311655 -4.14208e-20)
(0.867178 0.325784 -7.29622e-22)
(0.96799 0.344091 -1.12357e-20)
(1.09039 0.321881 1.24333e-20)
(1.19273 0.272219 -6.05492e-21)
(1.29861 0.243797 -3.62175e-22)
(1.31622 0.122917 -3.6501e-20)
(0.712713 0.591021 1.18916e-21)
(0.79105 0.600203 -3.65685e-21)
(0.861421 0.597001 1.81788e-21)
(0.965463 0.598024 2.56964e-20)
(1.03897 0.589899 4.89695e-21)
(1.13405 0.591966 2.50103e-20)
(1.20282 0.565111 1.74744e-21)
(1.27923 0.547893 1.23837e-20)
(1.33757 0.51638 2.0997e-20)
(1.38972 0.459348 4.02314e-20)
(0.593906 0.520692 -1.11437e-21)
(0.644778 0.524609 4.36385e-21)
(0.668422 0.512136 7.01272e-21)
(0.742899 0.521564 -2.47203e-21)
(0.792862 0.488745 -1.52654e-20)
(0.890853 0.488009 7.4734e-21)
(0.963151 0.440348 3.68238e-21)
(1.05315 0.416585 -4.33698e-21)
(1.11792 0.368406 -4.50555e-21)
(1.17707 0.3327 -5.3944e-21)
(0.653735 0.754493 7.9482e-22)
(0.733991 0.759525 -3.91937e-21)
(0.79099 0.737632 -2.6458e-21)
(0.862518 0.735914 8.32394e-22)
(0.907938 0.694225 8.55809e-21)
(0.954368 0.675672 -4.91307e-21)
(0.974282 0.615523 1.32275e-23)
(1.0014 0.576951 9.8868e-21)
(1.02224 0.509333 -8.07392e-21)
(1.0471 0.44838 -1.81695e-21)
(0.645393 0.585364 1.80401e-23)
(0.651843 0.618133 -1.15584e-22)
(0.65504 0.609638 -8.33835e-21)
(0.684312 0.643392 1.47879e-21)
(0.706585 0.626326 2.26406e-21)
(0.750146 0.651336 1.36179e-21)
(0.783177 0.633091 -7.30996e-21)
(0.836621 0.650191 4.88325e-21)
(0.890674 0.645408 7.37114e-21)
(0.945211 0.623821 -1.05893e-20)
(0.717688 0.0185194 2.62287e-22)
(0.721963 0.0585173 -5.36384e-23)
(0.715325 0.0453222 7.49698e-21)
(0.73647 0.0926528 -6.02278e-21)
(0.73994 0.0828533 -1.64539e-21)
(0.762728 0.129562 4.58148e-21)
(0.781135 0.130447 5.96952e-22)
(0.800468 0.169799 -3.32474e-21)
(0.829132 0.188232 1.0572e-21)
(0.848082 0.219529 -2.1129e-21)
(0.733977 -0.11657 -3.67169e-22)
(0.724391 -0.0890026 -1.22989e-21)
(0.715139 -0.0812264 -1.37069e-21)
(0.721511 -0.0576013 1.5516e-21)
(0.728164 -0.0557085 -3.48172e-21)
(0.742433 -0.0376502 -7.75679e-21)
(0.756285 -0.0404468 -6.37607e-21)
(0.780458 -0.0263283 -2.44388e-21)
(0.811138 -0.0315165 -8.96813e-22)
(0.839623 -0.00490893 -2.3387e-21)
(0.868227 -0.663175 -4.89678e-22)
(0.816559 -0.671381 3.41252e-21)
(0.784687 -0.655576 -5.23439e-22)
(0.738195 -0.653081 2.90818e-21)
(0.708138 -0.637537 -1.90124e-22)
(0.680944 -0.617358 -1.33719e-21)
(0.655539 -0.6107 7.75081e-21)
(0.655117 -0.576063 -1.40109e-21)
(0.652746 -0.577952 -4.39478e-21)
(0.656275 -0.539229 4.56171e-22)
(0.799865 -0.733959 3.42982e-22)
(0.776499 -0.743076 -1.26799e-21)
(0.775262 -0.724274 -3.22121e-21)
(0.758985 -0.731779 -3.05202e-21)
(0.765599 -0.709735 -9.00702e-23)
(0.752104 -0.715598 8.74742e-21)
(0.755798 -0.690321 -9.72654e-21)
(0.738946 -0.690958 3.21704e-21)
(0.748865 -0.657015 8.89685e-21)
(0.734765 -0.655939 4.2294e-21)
(0.830246 -0.356091 1.78785e-22)
(0.81864 -0.34948 -3.30235e-22)
(0.816998 -0.336452 3.22206e-21)
(0.814091 -0.337075 5.0158e-21)
(0.827767 -0.320753 -3.81567e-21)
(0.83916 -0.326747 2.34981e-21)
(0.86855 -0.303426 5.97192e-21)
(0.887231 -0.309731 9.25319e-21)
(0.926714 -0.271787 -5.45295e-21)
(0.939194 -0.289 -1.46807e-21)
(0.867672 -0.178823 8.01067e-23)
(0.872568 -0.14978 -1.19563e-22)
(0.882909 -0.121861 -1.57944e-21)
(0.89547 -0.0957344 -7.47272e-21)
(0.915144 -0.0652582 5.45764e-21)
(0.941295 -0.0464947 -3.91959e-21)
(0.975029 -0.0192843 -3.33555e-21)
(1.01183 -0.0126779 -7.73736e-21)
(1.05567 0.0118821 -2.00192e-21)
(1.09505 0.00269822 2.32464e-21)
(1.04258 0.556637 4.38042e-22)
(1.06361 0.563666 -8.95913e-22)
(1.07611 0.57278 -5.76374e-22)
(1.09647 0.573916 8.14835e-21)
(1.11089 0.583664 -4.64451e-21)
(1.12897 0.580956 1.90348e-21)
(1.14098 0.58845 4.23702e-21)
(1.15767 0.573359 -1.47571e-21)
(1.17231 0.575029 -6.00233e-22)
(1.18899 0.544111 -8.8571e-21)
(0.992366 0.743884 -1.62313e-23)
(1.00855 0.736692 1.0851e-22)
(1.01367 0.736536 -1.88793e-21)
(1.02827 0.723439 -4.00438e-22)
(1.03695 0.719236 -1.6952e-21)
(1.05361 0.702454 -5.21259e-21)
(1.06517 0.693346 3.52599e-21)
(1.08286 0.671738 1.22007e-22)
(1.09226 0.654325 6.10866e-21)
(1.10504 0.633308 8.65418e-21)
(0.976091 0.3456 3.08106e-23)
(0.988766 0.344967 -1.49488e-21)
(0.996011 0.343951 1.71586e-21)
(1.0077 0.349145 -1.78781e-21)
(1.0092 0.35017 2.87018e-21)
(1.01224 0.358294 5.67151e-21)
(1.00336 0.357585 -6.85064e-21)
(1.001 0.362274 1.55273e-22)
(0.98917 0.355244 -2.6386e-21)
(0.982163 0.351923 -7.17814e-21)
(0.951783 0.185052 2.39185e-23)
(0.954695 0.198174 7.24017e-22)
(0.95902 0.205497 4.88441e-22)
(0.967231 0.213165 4.60294e-22)
(0.972 0.214038 7.95561e-22)
(0.975229 0.217901 -3.34524e-21)
(0.966405 0.212485 -9.38395e-22)
(0.953898 0.214993 -1.78667e-21)
(0.93009 0.202586 -8.77213e-22)
(0.901473 0.206033 -1.43793e-21)
(1.11063 -0.58144 2.69225e-22)
(1.09076 -0.573275 -7.48646e-22)
(1.07151 -0.572031 9.56862e-23)
(1.04723 -0.568005 -2.19517e-21)
(1.02214 -0.576092 3.59241e-21)
(0.991407 -0.576644 6.3325e-22)
(0.956317 -0.590819 4.04048e-21)
(0.916007 -0.594562 8.69386e-22)
(0.870453 -0.609119 6.58123e-22)
(0.823081 -0.613677 4.44425e-21)
(1.04583 -0.789296 -4.27475e-22)
(1.00896 -0.790301 7.55006e-23)
(0.974135 -0.790296 1.37818e-21)
(0.934673 -0.783586 1.63965e-22)
(0.899819 -0.777699 6.86784e-22)
(0.863885 -0.764501 -2.52569e-21)
(0.834522 -0.751375 -7.0151e-22)
(0.806684 -0.732984 2.58963e-22)
(0.78951 -0.708749 2.33664e-22)
(0.771777 -0.684547 -3.22039e-22)
(1.06024 0.137554 -4.7556e-23)
(1.05761 0.137377 -8.55476e-23)
(1.05762 0.135901 -1.7755e-23)
(1.05617 0.139859 3.51601e-22)
(1.05785 0.142183 -1.23665e-22)
(1.05884 0.149912 1.99392e-22)
(1.06303 0.154846 -4.30338e-22)
(1.06605 0.163763 1.43407e-22)
(1.07068 0.171325 -3.31914e-24)
(1.07292 0.18061 1.38838e-22)
(1.00765 0.31151 2.52841e-23)
(1.00998 0.309208 -6.18088e-23)
(1.01031 0.303188 8.83147e-24)
(1.00878 0.299684 9.36578e-23)
(1.00542 0.29207 -1.09708e-22)
(1.00076 0.286924 1.27352e-22)
(0.99476 0.27762 -1.85537e-22)
(0.988139 0.270159 1.83851e-22)
(0.979713 0.259164 1.71489e-23)
(0.970708 0.249574 -8.22024e-23)
(0.963668 0.322241 0)
(0.923712 0.277443 0)
(1.02334 0.235075 0)
(0.958164 0.206734 0)
(1.00223 0.164258 0)
(1.01324 0.142767 0)
(1.0239 0.10244 0)
(1.02686 0.0780258 0)
(1.02793 0.055797 0)
(1.02463 0.0368967 0)
(1.02389 0.0256779 0)
(1.02284 0.0153511 0)
(1.02107 0.0111747 0)
(1.02142 0.00748606 0)
(1.0218 0.00574377 0)
(1.02244 0.00373058 0)
(1.02242 0.00232827 0)
(1.02236 0.00103089 0)
(1.02202 0.000182813 0)
(1.02162 -0.000356897 0)
(1.0211 -0.000740104 0)
(1.02045 -0.000930473 0)
(1.0198 -0.00109191 0)
(1.01915 -0.0010835 0)
(1.01853 -0.00103464 0)
(1.01798 -0.000829816 0)
(1.01751 -0.000527465 0)
(1.01727 -0.00023573 0)
(0.873605 0.235853 0)
(0.839339 0.15312 0)
(0.878228 0.154642 0)
(0.846442 0.111495 0)
(0.933944 0.102928 0)
(0.936266 0.0481315 0)
(0.965257 0.0446383 0)
(0.974038 0.0264956 0)
(0.973994 0.0228515 0)
(0.988213 0.0195021 0)
(0.996401 0.0172264 0)
(1.00951 0.0178497 0)
(1.01699 0.0175446 0)
(1.02331 0.0181392 0)
(1.02834 0.0154153 0)
(1.02918 0.0130972 0)
(1.02868 0.00968382 0)
(1.02663 0.00727595 0)
(1.02489 0.00504846 0)
(1.02317 0.00335603 0)
(1.02187 0.00195437 0)
(1.02077 0.000808553 0)
(1.0198 2.4804e-05 0)
(1.01902 -0.000517162 0)
(1.01832 -0.000814025 0)
(1.01775 -0.000871381 0)
(1.01728 -0.000887225 0)
(1.01684 -0.000720863 0)
(1.01648 -0.00046182 0)
(1.01629 -0.000212273 0)
(0.759695 0.124473 0)
(0.800872 0.0730413 0)
(0.89437 0.054349 0)
(0.888546 0.0455244 0)
(0.890194 0.0834882 0)
(0.880944 0.081724 0)
(0.937719 0.0892629 0)
(0.968616 0.0729457 0)
(1.00074 0.0625859 0)
(1.01086 0.0544318 0)
(1.02306 0.042605 0)
(1.02257 0.0340297 0)
(1.02382 0.026084 0)
(1.02138 0.0204178 0)
(1.01742 0.0168732 0)
(1.01709 0.0134877 0)
(1.01706 0.0104833 0)
(1.01846 0.00744929 0)
(1.01935 0.00497453 0)
(1.02013 0.00321709 0)
(1.02056 0.00194898 0)
(1.02068 0.00111805 0)
(1.02056 0.000409046 0)
(1.02017 -6.50691e-05 0)
(1.01967 -0.000440251 0)
(1.01915 -0.000621595 0)
(1.01863 -0.000699703 0)
(1.01816 -0.000609563 0)
(1.01776 -0.00040277 0)
(1.01755 -0.000187139 0)
(0.636468 0.0583882 0)
(0.670444 0.0152394 0)
(0.784644 -0.0240717 0)
(0.907869 -0.0829283 0)
(0.997109 -0.0725192 0)
(0.987155 -0.0485194 0)
(0.965858 -0.016365 0)
(0.959785 -0.00114327 0)
(0.956378 0.00491147 0)
(0.965917 0.00329863 0)
(0.973594 0.00528713 0)
(0.990027 0.00323184 0)
(1.00134 0.00466675 0)
(1.01213 0.00328899 0)
(1.02047 0.00311318 0)
(1.0229 0.00268224 0)
(1.02384 0.00265672 0)
(1.02304 0.00239495 0)
(1.02221 0.00214277 0)
(1.02129 0.00154259 0)
(1.02045 0.000990312 0)
(1.01976 0.000364424 0)
(1.01909 -5.70304e-05 0)
(1.01857 -0.000373555 0)
(1.01809 -0.00059724 0)
(1.01766 -0.000645619 0)
(1.01729 -0.000688609 0)
(1.01692 -0.000584724 0)
(1.01659 -0.000379956 0)
(1.01643 -0.000178164 0)
(0.654974 0.145037 0)
(0.649546 0.165129 0)
(0.690368 0.176474 0)
(0.809069 0.14456 0)
(0.940235 0.0862919 0)
(0.988594 0.0403282 0)
(1.01253 0.0172926 0)
(1.01379 0.0103809 0)
(1.01344 0.0106529 0)
(1.02182 0.0193015 0)
(1.02929 0.0173181 0)
(1.02807 0.0227025 0)
(1.02933 0.0199175 0)
(1.02496 0.0217527 0)
(1.0204 0.0190528 0)
(1.01862 0.0168709 0)
(1.01778 0.0128494 0)
(1.0185 0.00962283 0)
(1.01937 0.00664683 0)
(1.02018 0.00476101 0)
(1.02068 0.00325847 0)
(1.02079 0.00219672 0)
(1.02066 0.00123662 0)
(1.02027 0.000521412 0)
(1.01978 -6.3297e-06 0)
(1.0193 -0.000318485 0)
(1.01882 -0.000484786 0)
(1.01839 -0.000467659 0)
(1.01802 -0.000323055 0)
(1.01783 -0.00015552 0)
(0.773852 -0.0463443 0)
(0.755748 -0.00589591 0)
(0.745533 0.0755626 0)
(0.75998 0.123108 0)
(0.787452 0.133552 0)
(0.841006 0.102144 0)
(0.893994 0.0779878 0)
(0.933701 0.03842 0)
(0.957556 0.0237483 0)
(0.965761 0.00278225 0)
(0.971514 -0.000556997 0)
(0.987009 -0.0101847 0)
(0.994664 -0.00924506 0)
(1.00618 -0.0132508 0)
(1.01253 -0.0110431 0)
(1.01551 -0.00939997 0)
(1.01687 -0.00589959 0)
(1.01735 -0.00372155 0)
(1.01773 -0.00193162 0)
(1.01792 -0.00119217 0)
(1.01787 -0.00067156 0)
(1.01784 -0.000548229 0)
(1.01772 -0.000474499 0)
(1.01763 -0.000482189 0)
(1.01751 -0.000591759 0)
(1.01732 -0.000600896 0)
(1.01713 -0.000634944 0)
(1.0169 -0.000554548 0)
(1.01666 -0.000362934 0)
(1.01654 -0.000168282 0)
(0.906269 -0.369165 0)
(0.922976 -0.324854 0)
(0.941591 -0.257754 0)
(0.93106 -0.22562 0)
(0.883948 -0.185487 0)
(0.88315 -0.138635 0)
(0.91153 -0.0949722 0)
(0.938832 -0.0637271 0)
(0.960689 -0.0432231 0)
(0.989461 -0.0309573 0)
(1.01247 -0.0161617 0)
(1.02102 -0.00281693 0)
(1.02885 0.00603269 0)
(1.02702 0.014552 0)
(1.02587 0.0152709 0)
(1.02428 0.0146305 0)
(1.02279 0.011307 0)
(1.02216 0.00886992 0)
(1.02199 0.00639425 0)
(1.02178 0.00487943 0)
(1.02158 0.00339963 0)
(1.02111 0.00224209 0)
(1.02062 0.00120998 0)
(1.02011 0.000405405 0)
(1.0196 -0.000123875 0)
(1.0192 -0.000423782 0)
(1.01885 -0.000579625 0)
(1.01854 -0.000539516 0)
(1.01825 -0.000369112 0)
(1.01812 -0.000169639 0)
(1.05991 -0.6048 0)
(1.07057 -0.508284 0)
(1.06315 -0.452129 0)
(1.02248 -0.386369 0)
(0.965093 -0.312678 0)
(0.991636 -0.213872 0)
(1.03573 -0.165778 0)
(1.01774 -0.109401 0)
(1.01443 -0.0844175 0)
(1.005 -0.0503629 0)
(1.01029 -0.0421749 0)
(1.0102 -0.0308606 0)
(1.0119 -0.0270092 0)
(1.01213 -0.0246323 0)
(1.01095 -0.0197858 0)
(1.01021 -0.015687 0)
(1.01051 -0.0104438 0)
(1.01169 -0.00724096 0)
(1.0129 -0.00451042 0)
(1.01425 -0.00307313 0)
(1.01512 -0.00195396 0)
(1.01587 -0.00132378 0)
(1.01639 -0.00100604 0)
(1.01672 -0.000842903 0)
(1.01694 -0.000893235 0)
(1.01699 -0.000882267 0)
(1.01696 -0.000867813 0)
(1.01688 -0.000741508 0)
(1.01673 -0.000482145 0)
(1.01666 -0.000208136 0)
(1.18346 -0.590719 0)
(1.20578 -0.521208 0)
(1.24456 -0.47048 0)
(1.21178 -0.386567 0)
(1.16991 -0.273534 0)
(1.14525 -0.179864 0)
(1.10081 -0.137795 0)
(1.06972 -0.113571 0)
(1.05011 -0.0879456 0)
(1.05091 -0.0692143 0)
(1.04323 -0.0411182 0)
(1.04821 -0.0236083 0)
(1.04102 -0.0080158 0)
(1.03883 0.00281287 0)
(1.03745 0.00526371 0)
(1.03515 0.00686492 0)
(1.03277 0.00534968 0)
(1.02992 0.00487048 0)
(1.02777 0.00379103 0)
(1.02562 0.00294296 0)
(1.02394 0.00184701 0)
(1.02245 0.000819823 0)
(1.02128 3.49969e-05 0)
(1.02048 -0.00057352 0)
(1.01985 -0.000909161 0)
(1.01944 -0.00102526 0)
(1.01913 -0.00104933 0)
(1.01887 -0.000876421 0)
(1.01862 -0.000571635 0)
(1.01851 -0.000241767 0)
(1.43417 -0.291709 0)
(1.51168 -0.286674 0)
(1.54351 -0.250564 0)
(1.51623 -0.210075 0)
(1.45858 -0.148784 0)
(1.33724 -0.115951 0)
(1.21002 -0.0728985 0)
(1.14061 -0.0540551 0)
(1.09987 -0.0227034 0)
(1.08816 -0.0152327 0)
(1.0772 -0.00672683 0)
(1.05476 -0.00669321 0)
(1.04633 -0.00566773 0)
(1.02998 -0.00790386 0)
(1.01736 -0.00552497 0)
(1.01078 -0.00525506 0)
(1.00823 -0.00350943 0)
(1.00876 -0.00285485 0)
(1.01011 -0.00207968 0)
(1.01193 -0.00164068 0)
(1.01348 -0.00129231 0)
(1.01471 -0.00105184 0)
(1.01569 -0.00111206 0)
(1.01627 -0.00117704 0)
(1.01668 -0.00133024 0)
(1.01691 -0.00136955 0)
(1.01701 -0.00130127 0)
(1.01704 -0.00107822 0)
(1.01696 -0.000699423 0)
(1.01694 -0.00028479 0)
(1.39885 0.113545 0)
(1.43803 0.0950827 0)
(1.46891 0.0696489 0)
(1.4634 0.042849 0)
(1.39862 0.00481026 0)
(1.33759 -0.0314698 0)
(1.24891 -0.0458355 0)
(1.1828 -0.0493833 0)
(1.13851 -0.0375623 0)
(1.09242 -0.0228084 0)
(1.06189 -0.0174756 0)
(1.0533 -0.00807914 0)
(1.03586 -0.00662799 0)
(1.03592 -0.00281725 0)
(1.03722 -0.00395847 0)
(1.03726 -0.00215652 0)
(1.03595 -0.00182372 0)
(1.03285 -0.000711019 0)
(1.02967 -0.000479487 0)
(1.02653 -0.000722246 0)
(1.024 -0.00119015 0)
(1.02216 -0.00175525 0)
(1.02086 -0.00200666 0)
(1.02015 -0.0021497 0)
(1.01974 -0.00216472 0)
(1.0195 -0.00198348 0)
(1.01938 -0.00177917 0)
(1.01927 -0.0014037 0)
(1.01912 -0.000890167 0)
(1.01907 -0.000352763 0)
(1.42136 0.411797 0)
(1.39977 0.402223 0)
(1.38024 0.352744 0)
(1.30943 0.319459 0)
(1.23244 0.276731 0)
(1.18391 0.229926 0)
(1.12593 0.203539 0)
(1.13885 0.160215 0)
(1.13237 0.137506 0)
(1.11345 0.103707 0)
(1.10668 0.0873331 0)
(1.07854 0.0628978 0)
(1.06438 0.0513058 0)
(1.04149 0.0366148 0)
(1.02304 0.0287834 0)
(1.01402 0.0195731 0)
(1.00919 0.0134699 0)
(1.00894 0.00856393 0)
(1.00979 0.00507658 0)
(1.01141 0.00285054 0)
(1.01304 0.00110239 0)
(1.0143 -3.16128e-05 0)
(1.01534 -0.00101565 0)
(1.01601 -0.0016551 0)
(1.01649 -0.00200368 0)
(1.01688 -0.00208655 0)
(1.01715 -0.00194255 0)
(1.01732 -0.00156547 0)
(1.01737 -0.00101042 0)
(1.01741 -0.000391244 0)
(1.23617 0.247559 0)
(1.22352 0.222261 0)
(1.26769 0.154661 0)
(1.1847 0.121322 0)
(1.22602 0.085746 0)
(1.15552 0.0699967 0)
(1.11943 0.0683984 0)
(1.06217 0.066572 0)
(1.01323 0.0498808 0)
(0.991231 0.0505813 0)
(0.977991 0.0268186 0)
(0.975622 0.0194539 0)
(0.984426 0.00638276 0)
(0.995584 -0.0019649 0)
(1.01136 -0.00607937 0)
(1.01866 -0.00742124 0)
(1.02361 -0.00641923 0)
(1.02406 -0.00587555 0)
(1.02321 -0.00500991 0)
(1.02193 -0.00491636 0)
(1.02078 -0.00458362 0)
(1.02018 -0.0044313 0)
(1.01983 -0.00410384 0)
(1.01974 -0.00373848 0)
(1.01981 -0.00346339 0)
(1.01985 -0.00303501 0)
(1.01991 -0.00259363 0)
(1.01993 -0.00200637 0)
(1.01985 -0.00126081 0)
(1.01984 -0.000475199 0)
(1.07022 0.379174 0)
(1.04742 0.358922 0)
(1.09816 0.278521 0)
(1.08188 0.275201 0)
(1.15711 0.190908 0)
(1.12467 0.197502 0)
(1.17563 0.133301 0)
(1.10611 0.156591 0)
(1.14276 0.0960624 0)
(1.09215 0.119589 0)
(1.08118 0.0790914 0)
(1.06334 0.0842063 0)
(1.04672 0.0615207 0)
(1.03123 0.0587995 0)
(1.01947 0.0431499 0)
(1.01527 0.0342584 0)
(1.01295 0.0231329 0)
(1.01291 0.0160986 0)
(1.01342 0.0096533 0)
(1.01397 0.0055186 0)
(1.0148 0.0021323 0)
(1.0154 -0.000121768 0)
(1.01597 -0.00165018 0)
(1.01651 -0.00258571 0)
(1.01693 -0.00293958 0)
(1.01739 -0.00290789 0)
(1.01776 -0.00263135 0)
(1.01802 -0.00207014 0)
(1.01814 -0.00132458 0)
(1.01823 -0.000498162 0)
(0.978853 0.58671 0)
(0.962495 0.578487 0)
(0.987942 0.547992 0)
(0.982285 0.546536 0)
(0.995161 0.502244 0)
(0.969067 0.485537 0)
(0.973413 0.409982 0)
(0.898598 0.357669 0)
(0.957019 0.270857 0)
(0.918979 0.19695 0)
(0.927292 0.134302 0)
(0.937267 0.0740283 0)
(0.949304 0.0439853 0)
(0.966583 0.0125338 0)
(0.978287 0.00291438 0)
(0.989686 -0.0057567 0)
(0.997933 -0.00654128 0)
(1.00479 -0.00796008 0)
(1.00905 -0.00721718 0)
(1.0125 -0.00686305 0)
(1.01482 -0.00609843 0)
(1.01669 -0.00549373 0)
(1.0181 -0.00509283 0)
(1.01902 -0.00462209 0)
(1.01974 -0.00427644 0)
(1.02023 -0.00379778 0)
(1.02057 -0.00320951 0)
(1.02079 -0.00247191 0)
(1.02085 -0.00155772 0)
(1.0209 -0.000572104 0)
(0.87962 0.229168 0)
(0.892358 0.199138 0)
(0.926293 0.196773 0)
(0.934156 0.17453 0)
(0.951437 0.158952 0)
(0.926258 0.133206 0)
(0.875353 0.105572 0)
(0.76616 0.0569873 0)
(0.746188 0.0302833 0)
(0.782919 -0.00767434 0)
(0.829062 -0.00247456 0)
(0.891216 -0.00214954 0)
(0.931627 0.0026935 0)
(0.962302 0.0104478 0)
(0.990178 0.0100925 0)
(1.00446 0.010839 0)
(1.0126 0.00746863 0)
(1.01473 0.00488797 0)
(1.01553 0.00167152 0)
(1.01525 -0.000720813 0)
(1.01524 -0.00250362 0)
(1.01548 -0.00376506 0)
(1.01584 -0.00431638 0)
(1.01651 -0.0045564 0)
(1.01718 -0.00445227 0)
(1.01783 -0.00401893 0)
(1.01844 -0.0034598 0)
(1.01889 -0.0026602 0)
(1.01913 -0.00167797 0)
(1.01928 -0.000613887 0)
(0.861958 -0.0258495 0)
(0.879601 -0.0471796 0)
(0.896478 -0.077291 0)
(0.896014 -0.101481 0)
(0.90169 -0.141268 0)
(0.869458 -0.160038 0)
(0.82684 -0.182431 0)
(0.768846 -0.178553 0)
(0.793508 -0.142598 0)
(0.854162 -0.093159 0)
(0.92718 -0.071214 0)
(0.939772 -0.0420065 0)
(0.967685 -0.0335696 0)
(0.972032 -0.0230469 0)
(0.974347 -0.0162539 0)
(0.980468 -0.0114284 0)
(0.987617 -0.0083337 0)
(0.996323 -0.00663744 0)
(1.00347 -0.00575898 0)
(1.00924 -0.00524658 0)
(1.01343 -0.00524444 0)
(1.01621 -0.005158 0)
(1.01825 -0.00532203 0)
(1.01955 -0.00525539 0)
(1.02047 -0.00499261 0)
(1.02118 -0.00453878 0)
(1.02167 -0.00385687 0)
(1.02202 -0.00296023 0)
(1.02217 -0.00186998 0)
(1.02228 -0.000672481 0)
(0.677839 -0.541448 0)
(0.703346 -0.54047 0)
(0.716827 -0.550455 0)
(0.72626 -0.554029 0)
(0.751041 -0.56013 0)
(0.783441 -0.528973 0)
(0.829043 -0.497856 0)
(0.854858 -0.427227 0)
(0.929923 -0.346945 0)
(0.949983 -0.24702 0)
(0.956034 -0.194748 0)
(0.970191 -0.143858 0)
(0.970357 -0.108987 0)
(0.992829 -0.0810633 0)
(1.00783 -0.0614878 0)
(1.01396 -0.0445742 0)
(1.0156 -0.0328099 0)
(1.01423 -0.0243831 0)
(1.0134 -0.0184395 0)
(1.01323 -0.0146704 0)
(1.01351 -0.0117049 0)
(1.01447 -0.00986557 0)
(1.01552 -0.0084581 0)
(1.01667 -0.00733777 0)
(1.01782 -0.00649009 0)
(1.01876 -0.00552885 0)
(1.01956 -0.00455122 0)
(1.02015 -0.0034365 0)
(1.02047 -0.00214099 0)
(1.02067 -0.00076516 0)
(0.7494 -0.611233 0)
(0.779985 -0.566104 0)
(0.825162 -0.528313 0)
(0.885236 -0.480682 0)
(0.952538 -0.42188 0)
(1.026 -0.357485 0)
(1.09167 -0.291963 0)
(1.15157 -0.223718 0)
(1.20187 -0.16013 0)
(1.20736 -0.116864 0)
(1.15965 -0.0634108 0)
(1.13247 -0.0505979 0)
(1.10019 -0.0175148 0)
(1.07079 -0.00423317 0)
(1.04727 0.00498748 0)
(1.03502 0.00651717 0)
(1.0264 0.00425569 0)
(1.02245 0.00213994 0)
(1.02083 -0.00113655 0)
(1.01999 -0.00312436 0)
(1.02009 -0.00514505 0)
(1.02026 -0.00630175 0)
(1.02069 -0.00686715 0)
(1.02136 -0.00702058 0)
(1.02199 -0.0066429 0)
(1.02269 -0.00593596 0)
(1.02331 -0.00500087 0)
(1.02377 -0.0037906 0)
(1.02404 -0.00237705 0)
(1.02421 -0.000845668 0)
(0.999643 -0.23014 0)
(1.05394 -0.193564 0)
(1.10202 -0.147201 0)
(1.14393 -0.103393 0)
(1.18057 -0.0596365 0)
(1.20855 -0.0306782 0)
(1.22457 0.00131681 0)
(1.21688 0.00266039 0)
(1.17874 0.0188093 0)
(1.16688 -0.0182422 0)
(1.08267 -0.00437821 0)
(1.05939 -0.036226 0)
(1.04373 -0.0307334 0)
(1.02544 -0.0467915 0)
(1.01401 -0.0404423 0)
(1.0059 -0.0404585 0)
(1.00199 -0.0325028 0)
(1.00213 -0.0275558 0)
(1.00379 -0.0220777 0)
(1.00682 -0.0183208 0)
(1.00971 -0.0153658 0)
(1.01238 -0.0130989 0)
(1.01484 -0.0116052 0)
(1.01678 -0.0101874 0)
(1.01848 -0.00895804 0)
(1.01987 -0.00765937 0)
(1.02093 -0.00623064 0)
(1.02173 -0.00465923 0)
(1.0222 -0.00289068 0)
(1.02246 -0.0010163 0)
(1.14388 0.0194576 0)
(1.17971 0.0471234 0)
(1.21307 0.0647056 0)
(1.23104 0.077695 0)
(1.24885 0.0937055 0)
(1.2474 0.0907387 0)
(1.23769 0.0870417 0)
(1.2159 0.0811192 0)
(1.16869 0.0653997 0)
(1.16069 0.0507163 0)
(1.10799 0.0367834 0)
(1.08058 0.0481132 0)
(1.06845 0.0248414 0)
(1.0564 0.0317195 0)
(1.05804 0.0155481 0)
(1.05347 0.0103783 0)
(1.04725 0.00138857 0)
(1.03969 -0.00366088 0)
(1.03356 -0.00777695 0)
(1.02888 -0.0101955 0)
(1.02602 -0.0115676 0)
(1.02466 -0.012226 0)
(1.02408 -0.0119505 0)
(1.02427 -0.0112441 0)
(1.02478 -0.0102134 0)
(1.02536 -0.00878301 0)
(1.02597 -0.0071984 0)
(1.02644 -0.00537279 0)
(1.02671 -0.00332762 0)
(1.02688 -0.00116876 0)
(1.2027 0.545574 0)
(1.20751 0.53854 0)
(1.20708 0.523986 0)
(1.20091 0.508471 0)
(1.18951 0.482343 0)
(1.17702 0.453344 0)
(1.16012 0.402192 0)
(1.16288 0.368686 0)
(1.13367 0.309599 0)
(1.10388 0.254691 0)
(1.14717 0.192258 0)
(1.04692 0.149372 0)
(1.05791 0.0938912 0)
(1.01826 0.0615726 0)
(0.995064 0.0359843 0)
(0.986061 0.017958 0)
(0.985244 0.00625915 0)
(0.990913 -0.0025035 0)
(0.996934 -0.00790223 0)
(1.00291 -0.0110904 0)
(1.00821 -0.013212 0)
(1.01225 -0.0137557 0)
(1.01569 -0.0137114 0)
(1.01839 -0.0130286 0)
(1.02047 -0.011768 0)
(1.0222 -0.0101822 0)
(1.02351 -0.00831215 0)
(1.02446 -0.00617534 0)
(1.02505 -0.00382441 0)
(1.02537 -0.00133414 0)
(1.09729 0.613602 0)
(1.08199 0.576088 0)
(1.06541 0.550258 0)
(1.038 0.504203 0)
(1.00393 0.460647 0)
(0.959047 0.399896 0)
(0.91317 0.337371 0)
(0.85151 0.258528 0)
(0.826133 0.189998 0)
(0.743199 0.117495 0)
(0.797365 0.0568982 0)
(0.787718 0.0137451 0)
(0.843036 -0.0105077 0)
(0.90118 -0.0291263 0)
(0.955338 -0.0400567 0)
(0.984904 -0.0398651 0)
(1.00376 -0.0377074 0)
(1.01275 -0.0342943 0)
(1.01724 -0.0300029 0)
(1.02023 -0.0273747 0)
(1.02183 -0.0243715 0)
(1.0235 -0.0219257 0)
(1.02505 -0.0197304 0)
(1.0263 -0.0172875 0)
(1.02754 -0.0149976 0)
(1.02855 -0.0125599 0)
(1.02936 -0.0100187 0)
(1.02997 -0.00736197 0)
(1.0303 -0.004519 0)
(1.03049 -0.00156504 0)
(0.967584 0.346644 0)
(0.943836 0.32006 0)
(0.920494 0.306658 0)
(0.877593 0.271792 0)
(0.832861 0.244483 0)
(0.768268 0.196438 0)
(0.729578 0.155568 0)
(0.696121 0.0980268 0)
(0.73953 0.0572 0)
(0.767655 0.0120637 0)
(0.868895 -0.00582073 0)
(0.913279 -0.013031 0)
(0.958397 -0.000654024 0)
(0.970306 0.014717 0)
(0.982882 0.00913958 0)
(0.99426 0.00766008 0)
(1.0011 -0.00281813 0)
(1.00538 -0.00802492 0)
(1.00982 -0.0143886 0)
(1.0128 -0.0174506 0)
(1.01582 -0.0190219 0)
(1.0188 -0.0195937 0)
(1.02113 -0.0187752 0)
(1.02335 -0.0174101 0)
(1.02519 -0.0155521 0)
(1.02667 -0.0131931 0)
(1.0279 -0.0106433 0)
(1.02876 -0.00783689 0)
(1.02927 -0.00482001 0)
(1.02956 -0.00166788 0)
(0.872288 0.183885 0)
(0.839779 0.159347 0)
(0.801921 0.13675 0)
(0.745221 0.103593 0)
(0.687078 0.0765208 0)
(0.621506 0.0389825 0)
(0.573246 0.0127833 0)
(0.553028 -0.0200434 0)
(0.568301 -0.03273 0)
(0.607236 -0.0652679 0)
(0.743644 -0.0719641 0)
(0.842854 -0.0968052 0)
(0.917799 -0.0822465 0)
(0.938876 -0.0919905 0)
(0.945726 -0.0739524 0)
(0.962754 -0.0675843 0)
(0.977089 -0.0552463 0)
(0.992565 -0.0476429 0)
(1.00409 -0.0411673 0)
(1.01277 -0.0355381 0)
(1.01962 -0.0317995 0)
(1.02419 -0.0279963 0)
(1.02765 -0.0246484 0)
(1.03023 -0.0215521 0)
(1.032 -0.0183618 0)
(1.03338 -0.0152141 0)
(1.03432 -0.0120285 0)
(1.03494 -0.00874402 0)
(1.03527 -0.00534688 0)
(1.03545 -0.00183406 0)
(0.77612 -0.627537 0)
(0.730364 -0.647525 0)
(0.688157 -0.661554 0)
(0.639094 -0.671257 0)
(0.582346 -0.661092 0)
(0.540079 -0.647919 0)
(0.520333 -0.605461 0)
(0.543502 -0.551283 0)
(0.581935 -0.464698 0)
(0.663755 -0.376992 0)
(0.768338 -0.28123 0)
(0.90577 -0.222823 0)
(0.952133 -0.172512 0)
(0.999855 -0.134913 0)
(1.02718 -0.109275 0)
(1.03282 -0.0862281 0)
(1.03282 -0.0697501 0)
(1.02957 -0.0585608 0)
(1.02645 -0.0488068 0)
(1.02579 -0.0423947 0)
(1.02595 -0.0367627 0)
(1.02689 -0.0318004 0)
(1.02843 -0.0277326 0)
(1.02989 -0.0237754 0)
(1.03134 -0.020095 0)
(1.03258 -0.016512 0)
(1.03354 -0.012944 0)
(1.03424 -0.00938035 0)
(1.03462 -0.00571372 0)
(1.03484 -0.00195251 0)
(0.768062 -0.655642 0)
(0.772296 -0.619094 0)
(0.783981 -0.573785 0)
(0.804522 -0.517619 0)
(0.83896 -0.452617 0)
(0.887101 -0.379933 0)
(0.948895 -0.299093 0)
(1.02319 -0.219794 0)
(1.09261 -0.139771 0)
(1.14643 -0.0714986 0)
(1.12719 -0.0120968 0)
(1.15289 0.00154546 0)
(1.14499 0.00714996 0)
(1.09412 0.0215385 0)
(1.07254 0.00248414 0)
(1.05451 -0.00203374 0)
(1.04555 -0.0162238 0)
(1.0395 -0.0220672 0)
(1.03747 -0.0276368 0)
(1.03688 -0.0303976 0)
(1.03711 -0.0305944 0)
(1.03802 -0.029446 0)
(1.03886 -0.0270619 0)
(1.03968 -0.023966 0)
(1.04043 -0.0206305 0)
(1.04096 -0.0170459 0)
(1.04137 -0.0134175 0)
(1.0416 -0.00972415 0)
(1.04167 -0.0059174 0)
(1.04171 -0.00201974 0)
(1.07939 0.191034 0)
(1.08409 0.203929 0)
(1.08918 0.213699 0)
(1.09388 0.225105 0)
(1.10117 0.229498 0)
(1.10801 0.232224 0)
(1.1156 0.22507 0)
(1.11597 0.215712 0)
(1.10862 0.189375 0)
(1.08241 0.143778 0)
(1.02507 0.119586 0)
(0.963391 0.047654 0)
(1.0077 0.0142358 0)
(0.968817 -0.029445 0)
(0.962999 -0.0458775 0)
(0.972156 -0.055133 0)
(0.983726 -0.0600293 0)
(0.996676 -0.0568915 0)
(1.00881 -0.0539166 0)
(1.01819 -0.0485173 0)
(1.0256 -0.0432489 0)
(1.03093 -0.0379528 0)
(1.03459 -0.032799 0)
(1.03714 -0.0279777 0)
(1.0388 -0.02339 0)
(1.03991 -0.018981 0)
(1.04063 -0.0147574 0)
(1.04104 -0.010596 0)
(1.04121 -0.00641615 0)
(1.04129 -0.00218459 0)
(0.961527 0.238663 0)
(0.95085 0.226872 0)
(0.93891 0.212949 0)
(0.924742 0.196504 0)
(0.910174 0.176537 0)
(0.894398 0.152376 0)
(0.878729 0.124487 0)
(0.862197 0.0888038 0)
(0.841011 0.0570933 0)
(0.823143 0.00282856 0)
(0.825754 -0.0229562 0)
(0.816681 -0.0698443 0)
(0.902334 -0.0830602 0)