/*--------------------------------*- C++ -*----------------------------------*\
| =========                 |                                                 |
| \\      /  F ield         | OpenFOAM: The Open Source CFD Toolbox           |
|  \\    /   O peration     | Version:                                        |
|   \\  /    A nd           | Website:  www.openfoam.com                      |
|    \\/     M anipulation  |                                                 |
\*---------------------------------------------------------------------------*/
FoamFile
{
    version     2.0;
    format      ascii;
    class       surfaceScalarField;
    location    "24";
    object      phi;
}
// * * * * * * * * * * * * * * * * * * * * * * * * * * * * * * * * * * * * * //

dimensions      [0 3 -1 0 0 0 0];
oriented        oriented;


internalField   nonuniform List<scalar> 
2194
(
0.0206356
0.000639108
0.0237126
0.00284244
-0.00835299
0.0280741
0.00399145
0.0326044
-0.0110647
0.0325423
0.00659651
0.0389786
-0.0137662
0.038406
0.0079025
-0.0202381
0.0454506
0.0491849
-0.0169308
0.0440822
0.0112546
-0.0228017
0.0513214
0.0518584
-0.0195979
0.0509784
0.0127017
-0.025011
0.0567346
0.0534809
-0.0231006
0.0569836
0.0170954
-0.0270569
0.0606908
-0.0273631
0.0537872
0.044554
-0.0251094
0.0633775
0.0187155
-0.0282385
0.0638199
-0.0286035
0.0541522
0.0463284
-0.0280931
0.0243522
0.0671184
-0.0301996
0.0659264
-0.0297392
0.0536918
0.0491076
-0.0104956
0.00270134
-0.0131924
0.00499553
-0.0112449
0.00676337
-0.00859531
0.00801324
-0.00570911
-0.00269326
0.00273704
-0.0159249
0.00503094
-0.0135388
0.00679299
-0.0103574
0.00800817
-0.00692428
0.0086631
-0.0033482
0.000128392
0.00278774
-0.0187082
0.00509961
-0.0158506
0.00685822
-0.012116
0.00802591
-0.00809198
0.00859633
-0.00391861
0.00856794
0.000156774
0.00392469
0.00285327
-0.0215572
0.00519688
-0.0181942
0.00694147
-0.0138606
0.00804311
-0.00919362
0.00849037
-0.00436587
0.00838518
0.000261972
0.00763682
0.00467305
0.00846127
0.00293191
-0.0244851
0.00530905
-0.0205714
0.00703421
-0.0155857
0.00806352
-0.0102229
0.00841303
-0.00471538
0.00803738
0.000637625
0.00728434
0.00542608
0.00601534
0.00973027
0.0129948
0.00301846
-0.0275
0.0054344
-0.0229873
0.00714071
-0.017292
0.00809081
-0.011173
0.00830128
-0.00492585
0.00779986
0.00113905
0.00646773
0.00675821
0.0045674
0.0116306
0.00226245
0.0152997
0.0176139
0.0031142
-0.030611
0.00557102
-0.0254441
0.00724451
-0.0189655
0.00810333
-0.0120318
0.00812476
-0.00494728
0.00747767
0.00178614
0.00627093
0.00796495
0.00456147
0.0133401
0.00226309
0.0175981
0.0205161
0.00321539
-0.0338236
0.00570758
-0.0279363
0.00735486
-0.0206128
0.00812006
-0.012797
0.00803174
-0.00485896
0.00692468
0.0028932
0.00504105
0.00984858
0.00229182
0.0160893
-0.000423878
0.0203138
0.0229347
0.00332217
-0.0371435
0.00585675
-0.0304709
0.00746875
-0.0222248
0.00811438
-0.0134427
0.00777714
-0.00452172
0.00676551
0.00390483
0.00496674
0.0116474
0.00275051
0.0183055
-0.00026656
0.0233309
0.0266596
0.0034361
-0.040578
0.00600456
-0.0330394
0.00756268
-0.0237829
0.00809731
-0.0139773
0.0075893
-0.00401371
0.00591573
0.00557841
0.00328109
0.014282
-0.000174176
0.0217608
-0.00351387
0.0266706
0.0297422
0.00355459
-0.0441316
0.00615527
-0.03564
0.00767276
-0.0253004
0.0080787
-0.0143832
0.00739803
-0.00333304
0.00575583
0.0072206
0.00341354
0.0166243
0.000442089
0.0247322
-0.00332099
0.0304336
0.0343237
0.00367825
-0.0478095
0.0063151
-0.0382769
0.00775231
-0.0267376
0.00800888
-0.0146398
0.0068839
-0.00220805
0.00470294
0.00940156
0.00113363
0.0201936
-0.00302028
0.0288861
-0.0071167
0.0345301
0.0384616
0.00379991
-0.0516097
0.00646178
-0.0409388
0.00781901
-0.0280949
0.00788608
-0.0147069
0.00676034
-0.00108231
0.00437177
0.0117901
0.00133859
0.0232268
-0.00255061
0.0327754
-0.00706279
0.0390422
0.0441005
0.003906
-0.0555168
0.00659993
-0.0436327
0.00789712
-0.0293921
0.00772307
-0.0145328
0.00611364
0.000527121
0.00306517
0.0148386
-0.0013501
0.027642
-0.00627247
0.0376977
-0.011588
0.0443578
0.0496079
0.00398888
-0.0595075
0.00669285
-0.0463367
0.00782873
-0.0305279
0.00751694
-0.014221
0.00564343
0.00240063
0.00262139
0.0178606
-0.00139565
0.0316591
-0.00618656
0.0424886
-0.0118124
0.0499836
0.056511
0.00406225
-0.0635724
0.00671225
-0.0489867
0.00774277
-0.0315585
0.00697082
-0.0134491
0.00506124
0.00431021
0.000827155
0.0220947
-0.00442294
0.0369092
-0.0101122
0.0481779
-0.0165493
0.0564207
0.0643139
0.0014694
-0.0650467
0.00304111
-0.0505584
0.00483745
-0.0333548
0.00651533
-0.015127
0.00801178
0.00281376
0.00982782
0.0202787
0.011113
0.035624
0.0119274
0.0473635
0.0124502
0.0558978
0.0634845
0.0132796
0.00104736
-0.0661007
0.00211685
-0.0516279
0.00323604
-0.034474
0.00461831
-0.0165092
0.00610215
0.00132992
0.00778435
0.0185965
0.00920563
0.0342027
0.0103085
0.0462607
0.0113847
0.0548216
0.0621745
0.0126947
0.000875193
-0.0669841
0.00170834
-0.052461
0.0027117
-0.0354773
0.00386942
-0.017667
0.0049114
0.000287937
0.00630277
0.0172051
0.00784376
0.0326618
0.0092736
0.0448308
0.0107015
0.0533937
0.0608489
0.012027
0.000332761
-0.0673272
0.000679431
-0.0528077
0.0012055
-0.0360034
0.00226327
-0.0187247
0.00338475
-0.000833543
0.00469861
0.0158913
0.0062454
0.031115
0.00773201
0.0433442
0.00942204
0.0517037
0.0593143
0.0109567
1.61297e-06
-0.0673422
3.16553e-05
-0.0528377
0.000277877
-0.0362496
0.000725512
-0.0191724
0.00146879
-0.00157682
0.00270009
0.01466
0.00420082
0.0296142
0.00586211
0.0416829
0.00757482
0.049991
0.0576021
0.00928695
-0.00059804
-0.066758
-0.00116173
-0.0522741
-0.00140599
-0.0360054
-0.00123171
-0.0193466
-0.000664761
-0.00214377
0.000402714
0.0135925
0.00177066
0.0282463
0.00355138
0.0399022
0.00532549
0.0482169
0.0556914
0.00723626
-0.000896373
-0.0658766
-0.00181335
-0.0513571
-0.00257723
-0.0352415
-0.00302006
-0.0189038
-0.00287418
-0.00228966
-0.00207505
0.0127934
-0.000860111
0.0270313
0.000654005
0.0383881
0.00266492
0.0462059
0.0535562
0.00480006
-0.00159125
-0.0643021
-0.0031167
-0.0498316
-0.00426259
-0.0340956
-0.00487489
-0.0182915
-0.00509048
-0.00207406
-0.00470309
0.012406
-0.00365878
0.025987
-0.00229818
0.0370275
-0.000421328
0.0443291
0.0515444
0.00159052
-0.00188844
-0.0624315
-0.00380334
-0.0479167
-0.00563357
-0.0322654
-0.00687707
-0.017048
-0.00742036
-0.00153077
-0.00742482
0.0124104
-0.00659483
0.025157
-0.00535359
0.0357862
-0.00359712
0.0425726
0.0497487
-0.00180143
-0.00266218
-0.0597885
-0.00520604
-0.0453729
-0.0074021
-0.0300693
-0.00911159
-0.0153385
-0.0101779
-0.000464439
-0.010497
0.0127295
-0.00975694
0.024417
-0.00859297
0.0346223
-0.00701412
0.0409938
0.0481051
-0.00537051
-0.00282978
-0.0569777
-0.00577335
-0.0424293
-0.00878041
-0.0270622
-0.0112295
-0.0128894
-0.0127251
0.00103114
-0.0133535
0.0133579
-0.0127894
0.0238529
-0.0118764
0.0337093
-0.0106394
0.0397568
0.0467287
-0.00926307
-0.00351273
-0.0534836
-0.00680633
-0.0391357
-0.00985233
-0.0240162
-0.0127147
-0.0100271
-0.0147334
0.00304982
-0.0157943
0.0144188
-0.015791
0.0238497
-0.0152144
0.0331327
-0.0144595
0.0390018
0.045689
-0.0134198
-0.00344558
-0.0500553
-0.00708604
-0.0354952
-0.010668
-0.0204343
-0.0137917
-0.00690338
-0.0162342
0.0054923
-0.017819
0.0160036
-0.0186179
0.0246486
-0.0185576
0.0330724
-0.0183893
0.0388335
0.0450243
-0.0177245
-0.0041834
-0.0458868
-0.00801393
-0.0316647
-0.0116661
-0.0167821
-0.0151068
-0.00346268
-0.0178777
0.00826323
-0.0199793
0.0181052
-0.0214841
0.0261535
-0.0221653
0.0337536
-0.0225735
0.0392417
0.0445701
-0.0221194
-0.00416146
-0.0417369
-0.00858013
-0.027246
-0.0129061
-0.0124561
-0.0167459
0.000377087
-0.0199478
0.0114652
-0.0225648
0.0207221
-0.0247428
0.0283315
-0.0261486
0.0351595
-0.0268276
0.0399207
0.044071
-0.0263285
-0.00515141
-0.0365925
-0.0097184
-0.0226791
-0.014404
-0.00777058
-0.0185654
0.00453854
-0.0222402
0.0151399
-0.0255686
0.0240506
-0.0285073
0.0312701
-0.0305674
0.0372196
-0.031264
0.0406173
0.0430023
-0.0301953
-0.00511011
-0.0314809
-0.0106092
-0.01718
-0.0158491
-0.00253068
-0.0208744
0.00956383
-0.0254742
0.0197397
-0.0297529
0.0283292
-0.0332595
0.0347767
-0.0352202
0.0391804
-0.0351179
0.040515
0.0409912
-0.0331068
-0.00670798
-0.0247588
-0.0132067
-0.0106813
-0.0195062
0.00376889
-0.0252465
0.0153041
-0.0306304
0.0251237
-0.0350796
0.0327784
-0.037921
0.0376181
-0.0386058
0.0398652
-0.037321
0.0392302
0.0383835
-0.0347133
-0.00824871
-0.0164849
-0.0161547
-0.00277536
-0.0233351
0.0109493
-0.0298677
0.0218367
-0.0353161
0.030572
-0.0388403
0.0363027
-0.0401563
0.0389341
-0.0394109
0.0391198
-0.0375221
0.0373413
0.0356771
-0.0348156
-0.00942335
-0.0181939
-0.0257926
-0.032201
-0.0366788
-0.0388109
-0.038864
0.0389871
-0.0376049
0.0378608
-0.0360483
0.0357847
0.0338616
-0.0342329
-0.0351564
-0.0342905
-0.033539
-0.0327102
0.0141544
0.0668817
-0.0677565
0.0134659
0.0718329
-0.0711444
0.0122577
0.0740959
-0.0728877
0.0107673
0.0775806
-0.0760901
0.00951307
0.0816383
-0.0803841
0.00837532
0.0856251
-0.0844873
0.00725293
0.0900418
-0.0889194
0.00631698
0.0950278
-0.0940919
0.00556448
0.10027
-0.0995179
0.00487315
0.105663
-0.104972
0.00424811
0.111321
-0.110696
0.00371318
0.117368
-0.116833
0.00323402
0.123884
-0.123405
0.00279736
0.130899
-0.130462
0.00241052
0.138421
-0.138035
0.00206956
0.146477
-0.146136
0.00176625
0.155108
-0.154805
0.00149894
0.164363
-0.164095
0.00126524
0.174289
-0.174055
0.00106135
0.184942
-0.184738
0.000883997
0.196378
-0.1962
0.000730455
0.208658
-0.208504
0.00059764
0.221846
-0.221714
0.000482365
0.236015
-0.2359
0.00038182
0.251243
-0.251143
0.000293048
0.267621
-0.267532
0.000213374
0.285249
-0.285169
0.000139975
0.304248
-0.304175
7.01559e-05
0.324759
-0.324689
0.346949
-0.346879
0.0129707
0.0666057
0.0124114
0.0723922
0.0113136
0.0751937
0.010158
0.0787362
0.00900638
0.0827899
0.00786031
0.0867711
0.00681425
0.0910879
0.00594954
0.0958925
0.00522047
0.100999
0.00457603
0.106308
0.00400479
0.111892
0.00349912
0.117874
0.0030451
0.124338
0.00263685
0.131307
0.00227429
0.138784
0.00195293
0.146798
0.00166825
0.155393
0.00141753
0.164613
0.00119785
0.174509
0.00100605
0.185134
0.000839074
0.196545
0.000694388
0.208803
0.000568918
0.221972
0.000460031
0.236124
0.000364829
0.251339
0.000280677
0.267705
0.000204859
0.285325
0.000134732
0.304319
6.72696e-05
0.324826
0.347017
0.0123388
0.0662939
0.0114105
0.0733205
0.0101957
0.0764085
0.0091745
0.0797574
0.0081851
0.0837793
0.00713576
0.0878205
0.0061852
0.0920384
0.00539837
0.0966793
0.00473865
0.101659
0.00416582
0.106881
0.00365757
0.1124
0.00319943
0.118332
0.00278598
0.124752
0.00241628
0.131677
0.00208701
0.139113
0.00179449
0.147091
0.0015352
0.155652
0.0013067
0.164842
0.00110599
0.174709
0.000930411
0.185309
0.000777366
0.196698
0.00064442
0.208936
0.000529081
0.222087
0.000428683
0.236225
0.00034083
0.251426
0.000262898
0.267783
0.00019251
0.285395
0.000127014
0.304384
6.41946e-05
0.324889
0.347081
0.0111633
0.0660873
0.0102669
0.074217
0.00907604
0.0775993
0.00805687
0.0807765
0.00714396
0.0846922
0.00622171
0.0887427
0.00538084
0.0928793
0.00469238
0.0973678
0.00413021
0.102221
0.00364814
0.107363
0.00321668
0.112832
0.00282128
0.118727
0.00246177
0.125111
0.00213976
0.131999
0.00185259
0.1394
0.00159646
0.147347
0.00136943
0.155879
0.00116888
0.165042
0.000992048
0.174886
0.000836885
0.185464
0.000701119
0.196833
0.000582855
0.209054
0.000479683
0.22219
0.000389679
0.236315
0.000310513
0.251506
0.000240056
0.267853
0.000176044
0.285459
0.000116283
0.304444
5.82578e-05
0.324947
0.347139
0.00951085
0.0658634
0.00876687
0.0749609
0.00773574
0.0786304
0.00682458
0.0816877
0.00596386
0.085553
0.00514192
0.0895647
0.00441964
0.0936016
0.00384575
0.0979417
0.00339864
0.102668
0.00302413
0.107737
0.00268297
0.113173
0.00236454
0.119046
0.00207171
0.125404
0.00180782
0.132262
0.00157109
0.139637
0.00135945
0.147558
0.00117065
0.156068
0.00100303
0.16521
0.000854497
0.175035
0.000723464
0.185595
0.000608296
0.196949
0.000507353
0.209155
0.000419047
0.222279
0.000341486
0.236392
0.000272995
0.251574
0.000211641
0.267914
0.000155705
0.285515
0.000103135
0.304496
5.23983e-05
0.324998
0.347191
0.00741207
0.0656876
0.00684377
0.0755293
0.0060733
0.0794009
0.00531206
0.0824489
0.00457633
0.0862887
0.00389488
0.0902461
0.00331282
0.0941836
0.00287173
0.0983828
0.00255371
0.102986
0.00229829
0.107993
0.00206224
0.113409
0.00183426
0.119274
0.00161943
0.125619
0.00142299
0.132459
0.00124564
0.139814
0.00108547
0.147719
0.000941407
0.156212
0.000812386
0.165339
0.000696837
0.17515
0.000593871
0.185698
0.000502367
0.19704
0.000421548
0.209236
0.000349964
0.22235
0.000286652
0.236456
0.000230121
0.251631
0.000179074
0.267965
0.000131997
0.285562
8.75107e-05
0.304541
4.39579e-05
0.325041
0.347235
0.00481243
0.0656752
0.0044986
0.0758431
0.0040402
0.0798593
0.00347453
0.0830146
0.00294116
0.0868221
0.00245668
0.0907306
0.00205181
0.0945885
0.00176795
0.0986666
0.00159265
0.103162
0.00146957
0.108116
0.00135104
0.113527
0.00122566
0.119399
0.00110112
0.125744
0.00098351
0.132576
0.000874187
0.139924
0.00077311
0.14782
0.000679812
0.156305
0.000594246
0.165425
0.000515876
0.175229
0.000444616
0.18577
0.000380192
0.197104
0.000322083
0.209294
0.000269932
0.222402
0.000222929
0.236503
0.000180389
0.251673
0.000141321
0.268005
0.000104874
0.285599
6.9909e-05
0.304576
3.55372e-05
0.325076
0.347271
0.00172683
0.0655389
0.00177834
0.0757916
0.00155524
0.0800824
0.00128479
0.0832851
0.00104649
0.0870603
0.000808608
0.0909685
0.000617981
0.0947791
0.000523895
0.0987607
0.000514735
0.103171
0.000536164
0.108094
0.000547391
0.113516
0.000538649
0.119408
0.000516014
0.125766
0.000487074
0.132605
0.000455561
0.139955
0.000421577
0.147854
0.000386124
0.156341
0.000350256
0.16546
0.000314285
0.175265
0.000278977
0.185805
0.000244765
0.197139
0.000212397
0.209326
0.000181749
0.222433
0.000153051
0.236531
0.000125918
0.2517
0.00010013
0.26803
7.50671e-05
0.285624
5.03926e-05
0.304601
2.56636e-05
0.3251
0.347297
-0.0017278
0.0654653
-0.00143502
0.0754988
-0.00131263
0.07996
-0.00117334
0.0831458
-0.00107823
0.0869652
-0.00102521
0.0909155
-0.000952
0.0947059
-0.000825977
0.0986347
-0.000659606
0.103005
-0.000486529
0.107921
-0.000338528
0.113368
-0.000224762
0.119294
-0.000137167
0.125679
-6.88953e-05
0.132537
-1.66679e-05
0.139903
2.42494e-05
0.147813
5.46199e-05
0.15631
7.4255e-05
0.165441
8.56012e-05
0.175253
9.0546e-05
0.1858
9.07354e-05
0.197138
8.7123e-05
0.20933
8.09735e-05
0.222439
7.28588e-05
0.236539
6.3393e-05
0.25171
5.27079e-05
0.268041
4.09845e-05
0.285636
2.82823e-05
0.304613
1.43011e-05
0.325114
0.347311
-0.00550349
0.0655983
-0.00508245
0.0750778
-0.00440194
0.0792795
-0.00385443
0.0825983
-0.00341995
0.0865308
-0.00303094
0.0905265
-0.00265838
0.0943334
-0.00228716
0.0982635
-0.00192253
0.10264
-0.00158604
0.107585
-0.0012924
0.113075
-0.00104352
0.119045
-0.000835259
0.12547
-0.000660664
0.132363
-0.000515047
0.139757
-0.000395029
0.147693
-0.000298144
0.156214
-0.000220373
0.165363
-0.000159161
0.175192
-0.000111624
0.185752
-7.54408e-05
0.197102
-4.81199e-05
0.209302
-2.8174e-05
0.222419
-1.40011e-05
0.236525
-4.64798e-06
0.2517
9.70197e-07
0.268035
3.92773e-06
0.285633
4.20947e-06
0.304613
3.09969e-06
0.325115
0.347314
-0.00948089
0.0658161
-0.00880497
0.0744019
-0.0077361
0.0782106
-0.0067722
0.0816344
-0.00595216
0.0857107
-0.00520711
0.0897814
-0.00450724
0.0936335
-0.00386476
0.097621
-0.00329012
0.102065
-0.00277997
0.107074
-0.00232984
0.112624
-0.0019387
0.118654
-0.00160121
0.125133
-0.00131219
0.132074
-0.0010664
0.139512
-0.000860093
0.147486
-0.000688419
0.156042
-0.000546542
0.165221
-0.000430043
0.175076
-0.000335291
0.185658
-0.000258544
0.197026
-0.000197159
0.209241
-0.000148199
0.22237
-0.00010957
0.236487
-7.91397e-05
0.25167
-5.55099e-05
0.268012
-3.71691e-05
0.285614
-2.27061e-05
0.304599
-1.15607e-05
0.325104
0.347302
-0.0135555
0.0659517
-0.0125381
0.0733845
-0.0110976
0.0767701
-0.00979168
0.0803285
-0.00861269
0.0845317
-0.00749236
0.0886611
-0.00645248
0.0925936
-0.00553198
0.0967005
-0.00473768
0.101271
-0.00404678
0.106384
-0.0034373
0.112015
-0.00289738
0.118114
-0.00242424
0.12466
-0.00201463
0.131664
-0.00166331
0.13916
-0.00136426
0.147187
-0.00111139
0.155789
-0.00089991
0.16501
-0.000723654
0.174899
-0.000577609
0.185512
-0.000457431
0.196905
-0.000358721
0.209142
-0.00027818
0.22229
-0.000212507
0.236421
-0.000159318
0.251617
-0.000115984
0.267968
-8.05644e-05
0.285579
-5.08189e-05
0.304569
-2.39861e-05
0.325077
0.347278
-0.0176035
0.0658306
-0.016093
0.071874
-0.0143635
0.0750406
-0.0127806
0.0787456
-0.0112794
0.0830305
-0.00981254
0.0871942
-0.00844596
0.091227
-0.00725417
0.0955087
-0.00624335
0.10026
-0.00537292
0.105513
-0.00459921
0.111241
-0.00390715
0.117422
-0.00329585
0.124049
-0.00276281
0.131131
-0.00230214
0.1387
-0.00190739
0.146793
-0.00157104
0.155453
-0.00128612
0.164725
-0.00104608
0.174659
-0.000845255
0.185311
-0.000677668
0.196738
-0.000538792
0.209003
-0.000423846
0.222175
-0.000329129
0.236326
-0.000250744
0.251538
-0.000185812
0.267903
-0.000131273
0.285524
-8.41118e-05
0.304522
-4.22096e-05
0.325035
0.347236
-0.021529
0.0652402
-0.0195489
0.0698939
-0.0174632
0.0729549
-0.0156298
0.0769122
-0.0138404
0.0812412
-0.0120602
0.0854139
-0.0104087
0.0895756
-0.00898025
0.0940803
-0.00777112
0.099051
-0.00672364
0.104466
-0.00578844
0.110306
-0.00494858
0.116582
-0.0042003
0.1233
-0.00354379
0.130474
-0.00297246
0.138128
-0.00247959
0.1463
-0.00205588
0.155029
-0.00169451
0.164363
-0.00138806
0.174353
-0.00112931
0.185052
-0.000912113
0.196521
-0.00073023
0.208821
-0.000578554
0.222023
-0.000451953
0.2362
-0.000346548
0.251433
-0.000258057
0.267815
-0.000182957
0.285449
-0.000117437
0.304456
-5.73862e-05
0.324975
0.347179
-0.0251657
0.0640774
-0.0227138
0.067442
-0.0203589
0.0705999
-0.018258
0.0748114
-0.0161704
0.0791536
-0.0141301
0.0833736
-0.0122685
0.087714
-0.0106586
0.0924704
-0.00927971
0.0976721
-0.00806987
0.103256
-0.00698227
0.109218
-0.0059998
0.1156
-0.00512318
0.122424
-0.00434889
0.1297
-0.00367133
0.137451
-0.00308091
0.145709
-0.00257044
0.154519
-0.00213143
0.163924
-0.00175584
0.173977
-0.00143689
0.184733
-0.00116702
0.196251
-0.000939926
0.208594
-0.000749012
0.221832
-0.000589054
0.23604
-0.000454351
0.251298
-0.000340452
0.267701
-0.000242757
0.285352
-0.000156701
0.30437
-7.77255e-05
0.324896
0.347101
-0.0282089
0.062091
-0.0253858
0.064619
-0.0229381
0.0681522
-0.0205808
0.0724541
-0.0182191
0.0767919
-0.0159842
0.0811386
-0.0139869
0.0857168
-0.0122516
0.0907351
-0.010731
0.0961515
-0.00937132
0.101896
-0.00814185
0.107989
-0.00703483
0.114493
-0.00604187
0.121431
-0.00515954
0.128818
-0.00437835
0.13667
-0.00369378
0.145025
-0.00309704
0.153922
-0.00258047
0.163408
-0.00213639
0.173533
-0.00175642
0.184353
-0.00143309
0.195927
-0.00115888
0.20832
-0.000927285
0.221601
-0.000731452
0.235844
-0.000565942
0.251133
-0.000424946
0.26756
-0.000303328
0.28523
-0.000195737
0.304262
-9.73807e-05
0.324798
0.347004
-0.0304578
0.0594419
-0.0274053
0.0615665
-0.0248595
0.0656064
-0.0223536
0.0699482
-0.0199118
0.0743501
-0.0176126
0.0788395
-0.0155405
0.0836446
-0.0137035
0.0888981
-0.0120659
0.0945139
-0.0105867
0.100417
-0.00925009
0.106652
-0.00804011
0.113283
-0.00694852
0.120339
-0.00596687
0.127836
-0.00509295
0.135796
-0.00431992
0.144252
-0.0036404
0.153242
-0.00304821
0.162816
-0.00253509
0.17302
-0.00209371
0.183912
-0.00171582
0.19555
-0.00139393
0.207998
-0.00111995
0.221327
-0.000887477
0.235611
-0.000689422
0.250935
-0.00051974
0.26739
-0.000372329
0.285083
-0.000241179
0.304131
-0.000118664
0.324676
0.346885
-0.031777
0.0565057
-0.0286687
0.0584582
-0.0262027
0.0631404
-0.0236501
0.0673956
-0.0212172
0.0719172
-0.0189378
0.0765601
-0.0168319
0.0815387
-0.0149402
0.0870064
-0.0132298
0.0928035
-0.0116828
0.0988699
-0.0102757
0.105245
-0.00899133
0.111998
-0.00781689
0.119165
-0.00674989
0.126769
-0.00579006
0.134836
-0.00493317
0.143395
-0.00417681
0.152486
-0.00351357
0.162152
-0.0029356
0.172442
-0.00243499
0.183411
-0.00200379
0.195118
-0.00163371
0.207628
-0.00131758
0.221011
-0.0010473
0.235341
-0.000816027
0.250704
-0.000616749
0.267191
-0.000442827
0.284909
-0.000287194
0.303976
-0.000144146
0.324532
0.346741
-0.032065
0.0537551
-0.0292448
0.0556379
-0.0269801
0.0608757
-0.024517
0.0649326
-0.0222024
0.0696027
-0.0199137
0.0742714
-0.0178225
0.0794474
-0.0159393
0.0851232
-0.0142261
0.0910903
-0.01265
0.0972939
-0.0111977
0.103793
-0.00985893
0.11066
-0.00862398
0.11793
-0.00749563
0.125641
-0.00646845
0.133809
-0.00554331
0.14247
-0.00471714
0.15166
-0.00398538
0.161421
-0.00334378
0.1718
-0.00278572
0.182853
-0.00230213
0.194635
-0.00188527
0.207211
-0.00152629
0.220652
-0.00121788
0.235033
-0.000952259
0.250438
-0.000722081
0.266961
-0.000519876
0.284706
-0.000338167
0.303794
-0.000166714
0.324361
0.346574
-0.0315536
0.0510758
-0.029056
0.0531403
-0.0271186
0.0589383
-0.0247734
0.0625874
-0.0225752
0.0674045
-0.0204201
0.0721162
-0.0184667
0.077494
-0.0167015
0.083358
-0.015032
0.0894208
-0.0134543
0.0957162
-0.0119813
0.10232
-0.010605
0.109283
-0.00933199
0.116657
-0.00815534
0.124464
-0.00707835
0.132732
-0.00610163
0.141493
-0.00522302
0.150781
-0.00443831
0.160636
-0.00374342
0.171106
-0.00313143
0.182241
-0.00259783
0.194101
-0.00213498
0.206748
-0.00173498
0.220252
-0.00138922
0.234687
-0.00108982
0.250138
-0.00082885
0.2667
-0.000598498
0.284476
-0.00039016
0.303586
-0.000195715
0.324167
0.346378
-0.0303991
0.0487647
-0.0282843
0.0510255
-0.0265831
-0.0243849
-0.0224508
-0.0205379
-0.0188683
-0.017252
-0.0156454
-0.0140959
-0.0126207
-0.0112368
-0.00994373
-0.00874107
-0.00763275
-0.00661897
-0.00569871
-0.00487105
-0.00413194
-0.00347654
-0.00289882
-0.00239235
-0.00195095
-0.00156743
-0.0012333
-0.000940475
-0.000680363
-0.000444172
-0.000221329
-0.0284531
0.0431973
0.0564666
0.0394618
0.061435
0.0384204
0.0641165
0.0381609
0.0672149
0.0371063
0.0718681
0.0355487
0.0772787
0.0340564
0.082323
0.0325329
0.087321
0.0309507
0.0926388
0.0981705
0.05037
0.0552042
0.0480542
0.0637509
0.0444443
0.0677263
0.041799
0.0698602
0.0400647
0.0736024
0.0386931
0.0786503
0.0373669
0.0836492
0.0359143
0.0887736
0.034413
0.0941402
0.0329649
0.0996186
0.0315283
0.105416
0.0300892
0.11167
0.0286733
0.118324
0.0272679
0.1254
0.0258564
0.132967
0.0244406
0.141046
0.0230173
0.149663
0.0215776
0.158875
0.0201155
0.168734
0.0186246
0.179286
0.0170961
0.190586
0.0155206
0.202695
0.0138888
0.215674
0.0121907
0.229594
0.010416
0.244531
0.00855427
0.260573
0.00659456
0.27782
0.00452508
0.296388
0.00233244
0.316411
0.338054
0.0503536
0.0585425
0.0503135
0.0637909
0.0500588
0.0679811
0.0480531
0.0718659
0.0456233
0.0760321
0.0438669
0.0804067
0.0422821
0.085234
0.0405156
0.0905401
0.0387553
0.0959004
0.0370823
0.101292
0.0354384
0.10706
0.0338231
0.113286
0.0322396
0.119907
0.0306651
0.126974
0.0290908
0.134541
0.0275159
0.14262
0.0259303
0.151248
0.0243247
0.160481
0.0226925
0.170366
0.0210253
0.180953
0.0193129
0.192298
0.0175452
0.204462
0.0157113
0.217508
0.0138001
0.231505
0.0117994
0.246531
0.00969739
0.262675
0.00748106
0.280037
0.0051367
0.298732
0.00264894
0.318898
0.340703
0.0590499
0.065419
0.0547414
0.0680993
0.0528063
0.0699162
0.0510635
0.0736087
0.0489846
0.078111
0.0471224
0.082269
0.0454767
0.0868797
0.0438149
0.092202
0.0420845
0.0976308
0.040326
0.10305
0.038595
0.108791
0.0369111
0.11497
0.0352473
0.121571
0.0335812
0.12864
0.0319098
0.136213
0.0302277
0.144303
0.028525
0.152951
0.0267942
0.162212
0.0250275
0.172132
0.0232153
0.182765
0.0213472
0.194166
0.0194126
0.206397
0.0174
0.21952
0.0152971
0.233608
0.0130911
0.248737
0.0107684
0.264998
0.00831452
0.282491
0.00571361
0.301333
0.00294833
0.321664
0.343651
0.064781
0.0617359
0.0587644
0.056283
0.0540099
0.0517916
0.0497518
0.0478619
0.0459749
0.0440531
0.042148
0.0402844
0.0384502
0.0366286
0.0348067
0.0329734
0.0311194
0.029236
0.0273131
0.0253402
0.023306
0.0211987
0.0190055
0.0167132
0.0143076
0.0117736
0.00909474
0.0062529
0.0032278
)
;

boundaryField
{
    outlet
    {
        type            calculated;
        value           nonuniform 0();
    }
    upperWall
    {
        type            symmetryPlane;
        value           nonuniform 0();
    }
    lowerWall
    {
        type            symmetryPlane;
        value           uniform 0;
    }
    inlet
    {
        type            calculated;
        value           nonuniform 0();
    }
    cylinder
    {
        type            calculated;
        value           nonuniform 0();
    }
    frontAndBack
    {
        type            empty;
        value           nonuniform 0();
    }
    procBoundary2to1
    {
        type            processor;
        value           nonuniform List<scalar> 
63
(
-0.0175725
0.000382732
-0.0037022
-0.00591944
-0.0264118
-0.0145457
-0.0174389
-0.0452518
-0.0241712
-0.0254751
-0.0266336
-0.0432099
-0.0287072
-0.0303779
-0.0325184
-0.0468627
0.00781324
0.00268676
0.00895067
0.00682747
0.00445925
0.00199577
0.00871072
-0.000234452
0.00876916
-0.00343483
0.00807808
-0.00716011
0.00633565
-0.0114252
0.0044457
-0.0157342
-0.0528012
-0.0576996
-0.0630751
-0.0669553
-0.0708135
-0.0757211
-0.0808307
-0.0857975
-0.0910566
-0.0966805
0.0294607
-0.103979
-0.110231
-0.116908
-0.123994
-0.131555
-0.13963
-0.148239
-0.157436
-0.167271
-0.177795
-0.189057
-0.201119
-0.214042
-0.227895
-0.242756
-0.258711
-0.275861
-0.294318
-0.314218
-0.335722
)
;
    }
    procBoundary2to3
    {
        type            processor;
        value           nonuniform List<scalar> 
43
(
-0.00702897
0.00599514
0.0185481
0.0282451
0.0350497
0.0384349
0.0354792
0.0386642
0.036995
0.0350332
0.0330328
0.0302377
0.057237
0.0603892
0.0654704
0.0702033
0.0758244
0.0817418
0.0878142
0.0941667
0.100845
0.107899
0.115364
0.123261
0.131623
0.140479
0.149861
0.159808
0.170366
0.181586
0.193523
0.206242
0.21981
0.234303
0.249804
0.266407
0.284216
0.303349
0.323944
0.346157
0.0469801
-0.0270171
0.0495895
)
;
    }
    procBoundary2to6
    {
        type            processor;
        value           nonuniform List<scalar> 
37
(
-4.43891e-06
-4.54054e-06
-4.53375e-06
-4.42788e-06
-4.23773e-06
-3.96632e-06
-3.62615e-06
-3.21568e-06
-2.74762e-06
-2.22394e-06
-1.65124e-06
-1.02849e-06
-3.38941e-07
3.3009e-07
1.03682e-06
1.8237e-06
2.65837e-06
4.9352e-06
6.61271e-06
8.23179e-06
1.03252e-05
1.34282e-05
1.38037e-05
1.49776e-05
1.67523e-05
1.78681e-05
1.91262e-05
1.89803e-05
1.8662e-05
1.72551e-05
1.49237e-05
1.15869e-05
6.94893e-06
-1.48473e-06
-1.40692e-05
-2.51415e-05
-3.2636e-05
)
;
    }
}


// ************************************************************************* //
