/*--------------------------------*- C++ -*----------------------------------*\
| =========                 |                                                 |
| \\      /  F ield         | OpenFOAM: The Open Source CFD Toolbox           |
|  \\    /   O peration     | Version:                                        |
|   \\  /    A nd           | Website:  www.openfoam.com                      |
|    \\/     M anipulation  |                                                 |
\*---------------------------------------------------------------------------*/
FoamFile
{
    version     2.0;
    format      ascii;
    class       surfaceScalarField;
    location    "76";
    object      phi;
}
// * * * * * * * * * * * * * * * * * * * * * * * * * * * * * * * * * * * * * //

dimensions      [0 3 -1 0 0 0 0];
oriented        oriented;


internalField   nonuniform List<scalar> 
2238
(
0.0270259
0.0333412
0.0273607
0.0337954
0.0278188
-0.0345691
0.034111
0.0283073
-0.0349971
0.0345085
0.0287065
-0.0352789
0.0348798
0.0289714
-0.0354698
0.0352048
0.0295324
-0.0358327
0.0352717
0.0299217
-0.0359295
0.0355402
0.0304296
-0.0359959
0.035488
-0.0356821
0.035979
0.0301327
0.025288
0.0255049
0.0258279
-0.0356019
0.0262907
-0.0359326
0.0267774
-0.0363193
0.0274492
-0.0366014
0.0284777
-0.0370244
-0.037541
0.0303366
0.0239575
0.0245268
0.0250765
0.0257564
-0.0372813
0.026418
-0.037686
-0.0378293
0.0267063
0.0231292
0.0238234
0.0250864
0.00671299
0.00761658
0.0182837
0.00877343
0.0156787
0.010123
0.0124802
0.0119373
0.00819892
0.014464
0.00269779
0.017166
-0.00203068
0.0205
-0.00791353
0.0247874
-0.0172739
0.0290537
-0.0274666
0.0321786
-0.0346097
0.0342705
-0.0386009
0.0354076
-0.0398752
0.0358956
-0.0402296
0.0362882
-0.0391587
0.0367199
-0.0396149
-0.0398861
0.0370346
0.0113149
0.0167183
0.0131558
0.0138378
0.0148729
0.0107631
0.0171423
0.00592957
0.0194539
0.000386185
0.0219071
-0.00448385
0.0257599
-0.0117664
0.0304814
-0.0219954
0.0341753
-0.0311605
0.0362016
-0.036636
0.036945
-0.0393443
0.036791
-0.0397212
0.0362434
-0.039682
0.0361467
-0.039062
0.0356106
-0.0390788
-0.0385349
0.0342594
0.0138498
0.0147257
0.0158647
0.0118228
0.0179614
0.00866641
0.0204931
0.00339791
0.0223817
-0.0015024
0.025212
-0.00731415
0.0302219
-0.0167764
0.0350403
-0.0268137
0.0377902
-0.0339105
0.0386121
-0.0374579
0.038133
-0.0388652
0.0371116
-0.0386998
0.0358349
-0.0384054
0.034983
-0.0382101
0.0338619
-0.0379578
-0.0370641
0.0323911
0.0143563
0.01255
0.0161243
0.0100548
0.0187873
0.00600339
0.0205888
0.00159639
0.0227317
-0.00364533
0.0278099
-0.0123923
0.0338495
-0.022816
0.03775
-0.0307142
0.0390323
-0.0351928
0.0385679
-0.0369935
0.0371973
-0.0374946
0.0357597
-0.0372622
0.034517
-0.0371627
0.0330808
-0.0367738
0.0321014
-0.0369784
-0.0358793
0.0309167
0.011742
0.014086
0.00771086
0.0158881
0.00420132
0.0180195
-0.000535058
0.023618
-0.00924385
0.0310694
-0.0198436
0.0363443
-0.0280909
0.0385178
-0.0328878
0.0385322
-0.0352072
0.0375377
-0.035999
0.036329
-0.0362859
0.0350492
-0.0359823
0.0341734
-0.0362869
0.0329889
-0.0355893
0.0318486
-0.0358381
-0.0347786
0.0307478
0.00859832
0.0114369
0.00136278
0.0184595
-0.00755767
0.0273092
-0.0180936
0.0336686
-0.026203
0.0365227
-0.030945
0.0370865
-0.0334515
0.0364817
-0.0346024
0.0355603
-0.0350776
0.0347569
-0.0354825
0.0341735
-0.0353989
0.0336541
-0.0357675
0.0331793
-0.0351145
0.0322234
-0.0348822
-0.0342952
0.0317401
0.0135967
0.0232975
-0.0172585
0.0302172
-0.0250133
0.0336083
-0.0295941
0.0348261
-0.0321628
0.0349571
-0.0335825
0.0346853
-0.0343306
0.0344765
-0.0348688
0.03408
-0.035086
0.033854
-0.0351729
0.0332433
-0.0351568
0.0327984
-0.0346697
0.0325411
-0.0346249
-0.0340705
0.0323163
0.0264181
0.0301792
-0.0287744
0.0319426
-0.0313576
0.0326117
-0.0328319
0.0326164
-0.0335872
0.0323909
-0.0341051
0.0320294
-0.0345073
0.0316868
-0.0347435
0.0314974
-0.0349835
0.0314648
-0.0351243
0.0316148
-0.0348196
0.0322549
-0.035265
-0.0346065
0.0327909
0.0290003
0.0299814
-0.0323387
0.0302802
-0.0331307
0.0304355
-0.0337424
0.0305824
-0.0342521
0.0305693
-0.0344941
0.0305659
-0.0347401
0.0304166
-0.0348341
0.0302354
-0.0349432
0.0305695
-0.0351536
0.0307058
-0.0354013
-0.0354451
0.0315443
0.027948
0.0281586
0.0282116
0.0280705
0.0280849
0.0282246
0.0285953
0.0289239
0.0293105
0.0293972
0.0299311
0.0337712
-0.0515692
0.0290735
-0.0558203
0.0243423
-0.0603541
0.0219355
-0.0544289
0.021969
-0.0342648
0.0242455
-0.00472057
0.0285416
0.0240647
0.0333058
0.0473315
0.0376574
0.0594006
0.0410719
0.0635221
0.0429966
0.0633496
0.0434272
0.0654427
0.0424256
0.0705437
0.0402562
0.0765617
0.0369747
0.0808098
0.0326298
0.0753694
0.0288089
0.0530319
0.027053
0.0125197
0.0283641
-0.030595
-0.0665493
0.0293135
-0.0466233
0.023074
-0.0495808
0.0164631
-0.0537431
0.0124563
-0.0504221
0.012996
-0.0348045
0.0171484
-0.00887298
0.0239328
0.0172804
0.0310975
0.0401668
0.0374704
0.0530276
0.042771
0.0582216
0.0463039
0.0598167
0.0486734
0.0630731
0.0497406
0.0694766
0.0495183
0.0767839
0.0478889
0.0824392
0.0448323
0.078426
0.0409995
0.0568647
0.0371759
0.0163433
0.0352892
-0.0287083
-0.0661353
0.0276343
-0.0418666
0.020775
-0.0427214
0.0128303
-0.0457984
0.00765976
-0.0452516
0.0080545
-0.0351992
0.013169
-0.0139875
0.0211182
0.0093312
0.0299568
0.0313282
0.037754
0.0452304
0.0445879
0.0513877
0.049844
0.0545606
0.053943
0.058974
0.0577023
0.0657174
0.0605937
0.0738925
0.0616199
0.081413
0.0599075
0.0801384
0.0554336
0.0613386
0.0494209
0.0223561
0.0445908
-0.0238782
-0.0623249
0.0270847
-0.0380346
0.0217944
-0.037431
0.0137928
-0.0377968
0.00744274
-0.0389015
0.006799
-0.0345555
0.0118086
-0.0189971
0.0199747
0.00116509
0.0292242
0.0220788
0.0378658
0.0365888
0.0454032
0.0438502
0.0519365
0.0480273
0.057966
0.0529445
0.0642725
0.0594109
0.0697176
0.0684474
0.0734796
0.077651
0.0745658
0.0790523
0.0712845
0.0646198
0.0631878
0.0304528
0.0547714
-0.0154619
-0.0552423
0.026014
-0.0333008
0.0223024
-0.0337195
0.016903
-0.0323975
0.0105582
-0.0325566
0.00783337
-0.0318307
0.0114362
-0.0225999
0.0190793
-0.00647808
0.0282375
0.0129206
0.0369566
0.0278697
0.0444411
0.0363657
0.0517989
0.0406696
0.0594158
0.0453276
0.067751
0.0510757
0.0763358
0.0598627
0.0835379
0.0704489
0.0864331
0.076157
0.0837564
0.0672964
0.0760249
0.0381843
0.0654364
-0.00487332
-0.0448539
0.0272688
-0.0288295
0.0233825
-0.0298332
0.020085
-0.0291
0.0150875
-0.0275591
0.010483
-0.0272262
0.0111976
-0.0233145
0.0173075
-0.0125879
0.0264633
0.00376471
0.0352995
0.0190336
0.0425671
0.029098
0.0490113
0.0342254
0.0561902
0.0381487
0.0656816
0.0415843
0.0769594
0.0485848
0.0873749
0.0600334
0.0936212
0.0699107
0.0938056
0.067112
0.0872038
0.0447862
0.0750286
0.00730186
-0.031423
0.0287517
-0.0252648
0.0246402
-0.0257218
0.0216682
-0.026128
0.0189986
-0.0248894
0.0148153
-0.023043
0.0124417
-0.0209409
0.0155537
-0.0157
0.0235564
-0.00423795
0.0326699
0.0099201
0.04046
0.0213079
0.0467457
0.0279397
0.0528624
0.032032
0.0606705
0.0337763
0.0718214
0.0374339
0.0852354
0.0466194
0.0950504
0.0600958
0.0972347
0.0649276
0.0921918
0.0498292
0.0802478
0.0192458
0.0666719
-0.0178471
-0.0428483
0.0297707
-0.0222446
0.026764
-0.022715
0.0233289
-0.0226929
0.0210662
-0.0226268
0.0188626
-0.0208393
0.0160006
-0.0180789
0.0157543
-0.0154536
0.0201815
-0.00866519
0.0280771
0.00202451
0.0360156
0.0133694
0.0422798
0.0216755
0.0471295
0.0271822
0.0528035
0.0281023
0.062839
0.0273984
0.0766396
0.0328189
0.0886343
0.048101
0.0947896
0.0587723
0.0927588
0.05186
0.0818131
0.0301915
0.0685433
-0.00457737
-0.0307124
0.0289672
-0.0196675
0.0265792
-0.020327
0.0240767
-0.0201904
0.0215273
-0.0200774
0.0203431
-0.0196551
0.0193194
-0.0170552
0.0185074
-0.0146417
0.020601
-0.0107587
0.0262668
-0.00364125
0.033154
0.00648219
0.0392042
0.0156252
0.0435591
0.0228274
0.0473659
0.0242955
0.053502
0.0212623
0.0648959
0.021425
0.0793213
0.0336756
0.0890049
0.0490887
0.091561
0.049304
0.0859199
0.0358326
0.0729829
0.00835964
-0.0176584
0.0281232
-0.0178595
0.0262784
-0.0184823
0.0247174
-0.0186293
0.0225766
-0.0179366
0.0208741
-0.0179526
0.0203412
-0.0165222
0.0197371
-0.0140377
0.0200299
-0.0110515
0.0233856
-0.00699689
0.0297321
0.000135706
0.0360993
0.009258
0.0405506
0.018376
0.0431298
0.0217162
0.0459438
0.0184483
0.052828
0.0145407
0.0644011
0.0221026
0.0748923
0.0385974
0.0808626
0.0433337
0.0776734
0.0390219
0.0670981
0.0189349
-0.00776446
0.0499974
-0.015066
-0.0527909
0.0476895
-0.0161744
0.0455852
-0.0165251
0.0433929
-0.0157443
0.0409203
-0.01548
0.038684
-0.014286
0.0365681
-0.0119217
0.034254
-0.00873748
0.0325385
-0.00528138
0.0330651
-0.000390902
0.0339997
0.00832338
0.0349255
0.0174502
0.036596
0.0200458
0.0393618
0.0156825
0.0431148
0.0107878
0.0492976
0.0159198
0.0568844
0.0310106
0.0641166
0.0361015
0.065796
0.0373425
0.0649042
0.0198267
0.063522
-0.00638231
-0.0190721
0.0531227
-0.0128818
-0.055307
0.0506478
-0.0136995
0.0482127
-0.01409
0.0460948
-0.0136263
0.0438482
-0.0132333
0.0413515
-0.0117893
0.0392486
-0.00981876
0.0381465
-0.00763538
0.0372414
-0.0043763
0.0370864
-0.000235952
0.0384408
0.00696897
0.0406669
0.0152242
0.0431383
0.0175744
0.0450037
0.013817
0.0468714
0.00892011
0.0514129
0.0113782
0.0565773
0.0258462
0.0617878
0.030891
0.0647119
0.0344185
0.0661716
0.018367
0.0654031
-0.00561384
-0.0157995
0.0567728
-0.0110103
-0.0586442
0.0546238
-0.0115505
0.0524709
-0.0119371
0.0504125
-0.0115679
0.0484052
-0.0112261
0.0466287
-0.0100128
0.0446869
-0.007877
0.0432828
-0.00623123
0.0422148
-0.00330831
0.0419782
6.59042e-07
0.0431542
0.00579295
0.0460336
0.0123447
0.0495884
0.0140196
0.0516522
0.0117532
0.0517778
0.00879446
0.0528066
0.0103495
0.0542435
0.0244093
0.0590608
0.0260737
0.0654683
0.028011
0.0690647
0.0147706
0.0690652
-0.00561439
-0.0139189
0.0605195
-0.00911594
-0.0624139
0.0584868
-0.00951787
0.0564649
-0.00991519
0.054616
-0.00971901
0.0526525
-0.00926254
0.0510272
-0.00838752
0.0495762
-0.006426
0.0485321
-0.00518715
0.0476579
-0.00243413
0.0473974
0.000261164
0.048604
0.00458636
0.0512741
0.00967463
0.0546583
0.0106355
0.0567629
0.00964853
0.0557245
0.00983286
0.0555261
0.0105479
0.0572092
0.0227262
0.062329
0.0209539
0.0696619
0.0206781
0.0738265
0.0106061
0.0722666
-0.00405454
-0.00984918
0.0644143
-0.007468
-0.0660622
0.0627807
-0.00788425
0.0609758
-0.00811038
0.0592878
-0.00803097
0.0575437
-0.00751846
0.0560861
-0.0069299
0.0548557
-0.0051956
0.0537968
-0.0041283
0.0532773
-0.00191464
0.0530931
0.000445401
0.0541165
0.003563
0.0566686
0.0071225
0.0586742
0.00862991
0.0604473
0.00787545
0.0599938
0.0102863
0.0606356
0.00990607
0.0641008
0.019261
0.0686571
0.0163976
0.0742214
0.0151138
0.0765844
0.00824299
0.0750188
-0.00248888
-0.00735633
0.0686571
-0.00615339
-0.0699717
0.0672607
-0.00648785
0.0657127
-0.00656235
0.0642296
-0.00654792
0.0627458
-0.0060347
0.0613987
-0.00558271
0.0604186
-0.00421556
0.059504
-0.00321368
0.0590604
-0.00147101
0.0590793
0.000426467
0.0597388
0.00290351
0.0617982
0.00506307
0.0630878
0.00734033
0.064666
0.00629728
0.0650037
0.00994866
0.0663421
0.00856765
0.0702474
0.0153556
0.0738459
0.0127991
0.0779204
0.0110394
0.0793423
0.00682109
0.0786702
-0.00181674
-0.00397773
0.0731598
-0.00500125
-0.0743119
0.0719144
-0.00524247
0.07063
-0.00527794
0.0693535
-0.00527141
0.0681771
-0.00485833
0.0670712
-0.0044768
0.0662541
-0.00339844
0.065604
-0.00256358
0.0651581
-0.00102509
0.0653726
0.000211963
0.0657673
0.00250883
0.0672938
0.00353651
0.0683419
0.00629225
0.0695369
0.0051023
0.0705412
0.00894434
0.0719474
0.00716141
0.0753994
0.0119037
0.0783555
0.00984291
0.0809241
0.00847085
0.081746
0.00599921
0.081759
-0.00182981
-0.00250496
0.0780503
-0.0039339
-0.0791176
0.0769721
-0.00416429
0.0758881
-0.00419395
0.0748335
-0.00421678
0.0738605
-0.00388533
0.0729672
-0.00358349
0.0722922
-0.00272348
0.0718499
-0.00212127
0.0715202
-0.000695372
0.0717744
-4.22483e-05
0.0720824
0.00220078
0.0732062
0.0024128
0.0741743
0.00532406
0.0751719
0.00410477
0.0765464
0.00756977
0.0777892
0.00591862
0.0804437
0.00924924
0.082685
0.00760164
0.0849079
0.00624787
0.0859711
0.00493604
0.0852926
-0.00115126
-0.000979893
0.0835168
-0.00302174
-0.084429
0.0826008
-0.00324825
0.0816682
-0.00326133
0.0807661
-0.00331467
0.0798944
-0.00301364
0.0791571
-0.0028462
0.0785528
-0.00211919
0.0782109
-0.00177935
0.0779896
-0.00047407
0.078168
-0.000220641
0.078557
0.00181171
0.0793488
0.00162098
0.0803335
0.00433942
0.0812466
0.00319162
0.0825486
0.00626781
0.0837955
0.00467171
0.0858712
0.00717355
0.0877157
0.00575717
0.0891253
0.00483824
0.0899162
0.00414516
0.0895684
-0.000803485
-0.000451469
0.0894957
-0.00225681
-0.0902606
0.0887182
-0.00247078
0.0878882
-0.00243134
0.0871054
-0.00253186
0.0863513
-0.00225953
0.0857278
-0.00222271
0.0851986
-0.00159
0.0848933
-0.00147399
0.0847194
-0.000300141
0.084835
-0.00033629
0.0851611
0.00148559
0.0857504
0.00103173
0.0865983
0.00349146
0.0874288
0.00236117
0.0886859
0.00501073
0.0897888
0.00356878
0.0914083
0.00555409
0.0927766
0.00438883
0.0939275
0.00368732
0.0947321
0.00334055
0.0943152
-0.000386535
0.000187508
0.0957949
-0.0016202
-0.0964315
0.095163
-0.00183887
0.0944935
-0.00176184
0.0938824
-0.00192071
0.093258
-0.00163514
0.092751
-0.00171577
0.0922725
-0.00111149
0.0919959
-0.00119742
0.0918069
-0.000111074
0.0918628
-0.000392177
0.0920899
0.00125844
0.0925238
0.00059781
0.0932208
0.00279447
0.0939412
0.00164081
0.0949565
0.00399539
0.0958928
0.00263247
0.0971763
0.0042706
0.0982339
0.00333125
0.0990857
0.00283549
0.0996325
0.00279376
0.0993523
-0.000106307
0.000472142
0.102478
-0.00114681
-0.102951
0.101995
-0.00135585
0.101479
-0.0012454
0.101001
-0.00144333
0.100505
-0.0011392
0.10011
-0.00132086
0.0997013
-0.000702488
0.0994763
-0.00097239
0.0992745
9.07357e-05
0.0993122
-0.00042991
0.0994175
0.00115318
0.0997517
0.000263551
0.100233
0.00231305
0.100808
0.00106571
0.101631
0.00317271
0.102385
0.0018784
0.103378
0.00327756
0.104187
0.00252275
0.104817
0.00220513
0.105302
0.00230897
0.105132
6.2997e-05
0.000774037
0.109616
-0.000734974
-0.110028
0.109228
-0.00096784
0.108809
-0.000825724
0.108446
-0.00108069
0.108034
-0.000727176
0.107737
-0.001024
0.107407
-0.000372287
0.10726
-0.000825549
0.107089
0.000262108
0.107118
-0.000458962
0.107158
0.00111262
0.107388
3.33823e-05
0.107715
0.00198675
0.108153
0.000627636
0.108764
0.00256197
0.109343
0.00129874
0.110102
0.00251897
0.110718
0.00190625
0.111268
0.00165512
0.111605
0.00197234
0.111558
0.000109978
0.00102002
0.117295
-0.000410136
-0.11762
0.117016
-0.000687988
0.116631
-0.000440706
0.116329
-0.000779477
0.11595
-0.000347547
0.115752
-0.000826601
0.11545
-6.99462e-05
0.115364
-0.000739396
0.115188
0.00043796
0.115233
-0.000504
0.115243
0.00110284
0.115423
-0.00014721
0.115664
0.00174614
0.115978
0.000313815
0.116434
0.00210632
0.116867
0.000864892
0.117426
0.0019605
0.117924
0.00140779
0.118321
0.00125793
0.118638
0.00165574
0.118651
9.70674e-05
0.00123118
0.125439
-0.000133162
-0.125716
0.125191
-0.000440419
0.124866
-0.000114965
0.124667
-0.000581198
0.124354
-3.43706e-05
0.124207
-0.000679571
0.12393
0.000207568
0.123868
-0.000677976
0.123689
0.000616671
0.123755
-0.00056918
0.123731
0.00112661
0.12391
-0.000325919
0.124068
0.00158738
0.124325
5.71761e-05
0.124666
0.00176556
0.124976
0.000554705
0.125425
0.0015115
0.125725
0.00110739
0.126117
0.000866497
0.126263
0.00150957
0.126404
-4.40693e-05
0.00145366
0.133975
8.52621e-05
-0.134194
0.133851
-0.000315952
0.13362
0.000115771
0.133501
-0.000462021
0.133236
0.000230373
0.133135
-0.000578236
0.132895
0.000447791
0.132877
-0.000660001
0.132711
0.000781838
0.132787
-0.000644807
0.132733
0.00118091
0.132899
-0.000491867
0.132986
0.00149994
0.133224
-0.000181046
0.133439
0.0015509
0.133706
0.000288127
0.133989
0.00122831
0.134218
0.000878172
0.134498
0.0005867
0.134563
0.00144399
0.13476
-0.000240937
0.0017246
0.143237
0.000228696
-0.143381
0.143159
-0.000238114
0.142955
0.000320152
0.142867
-0.00037382
0.142647
0.000449949
0.142614
-0.000545064
0.142403
0.000658915
0.14243
-0.000686827
0.142246
0.000965319
0.142352
-0.000750851
0.142245
0.00128783
0.142436
-0.000682346
0.142435
0.00150056
0.142667
-0.000412474
0.142777
0.00144077
0.142972
9.33569e-05
0.1432
0.00100024
0.143266
0.000811675
0.143603
0.000249304
0.143446
0.0016015
0.143836
-0.000631392
0.00217052
0.153057
0.000386717
-0.153215
0.153014
-0.000194856
0.152851
0.000483197
0.152828
-0.000350896
0.152667
0.000610579
0.152655
-0.000532981
0.152489
0.00082537
0.152502
-0.000699668
0.152373
0.00109385
0.152442
-0.000819225
0.152373
0.00135649
0.152501
-0.000810184
0.152497
0.00150399
0.152657
-0.000572054
0.152738
0.00135942
0.152857
-2.55541e-05
0.153056
0.00080164
0.153011
0.000856067
0.153387
-0.000126046
0.153055
0.00193346
0.153632
-0.00120899
0.00282781
0.163534
0.000464456
-0.163612
0.163527
-0.000187668
0.163452
0.000558462
0.163426
-0.000325214
0.163333
0.000703976
0.163293
-0.000493371
0.163218
0.000900511
0.163203
-0.000684178
0.163141
0.00115493
0.163182
-0.000859454
0.163117
0.00142139
0.16324
-0.000933758
0.16317
0.00157437
0.163372
-0.000774352
0.163314
0.00141818
0.163497
-0.000208725
0.163553
0.000745057
0.163524
0.000885346
0.16389
-0.000491994
0.163411
0.00241282
0.164242
-0.00204077
0.0038581
0.174809
0.000481123
-0.174826
0.174767
-0.000145087
0.174735
0.000590054
0.174684
-0.000273637
0.174659
0.000728203
0.174626
-0.000460385
0.174591
0.000936156
0.174596
-0.000688941
0.174527
0.00122308
0.174599
-0.000931552
0.174497
0.00152344
0.174657
-0.00109374
0.174529
0.00170301
0.174735
-0.000980312
0.174646
0.00150649
0.174775
-0.000337247
0.174879
0.000640707
0.174705
0.00105992
0.175223
-0.00101047
0.17452
0.00311585
0.17558
-0.00310045
0.00511032
0.186782
0.000496925
-0.186798
0.186757
-0.000120144
0.186748
0.000599363
0.186735
-0.00026071
0.186714
0.000748633
0.186709
-0.000454599
0.186677
0.000968157
0.18668
-0.000692526
0.186659
0.00124462
0.186665
-0.000938363
0.18668
0.00150854
0.186667
-0.00108053
0.186762
0.00160818
0.186682
-0.000900078
0.186906
0.00128191
0.186687
-0.000118283
0.18709
0.00023753
0.186677
0.00147295
0.187273
-0.00160632
0.186683
0.00370606
0.187381
-0.00379869
0.00572354
0.199605
0.000475598
-0.199583
0.199581
-9.64778e-05
0.199607
0.000573224
0.199563
-0.000216769
0.199609
0.000703012
0.19953
-0.000375966
0.199626
0.000872533
0.199488
-0.000554346
0.199669
0.00106366
0.199446
-0.000715811
0.199746
0.00120907
0.199416
-0.000750703
0.199841
0.00118321
0.19942
-0.000479044
0.199921
0.000780953
0.199497
0.000305233
0.199938
-0.000203445
0.199689
0.00172176
0.199874
-0.00179118
0.199993
0.0035869
0.199738
-0.00354316
0.00513122
0.213313
0.000420668
-0.213258
0.21326
-4.34828e-05
0.21334
0.000493423
0.213248
-0.000125376
0.213374
0.000576731
0.213223
-0.00022426
0.213422
0.000673503
0.213189
-0.000321907
0.213486
0.00076743
0.213151
-0.000381314
0.213552
0.00080778
0.213128
-0.000326635
0.213601
0.000710509
0.213169
-4.75315e-05
0.213601
0.000349505
0.213332
0.00057368
0.213514
-0.000384711
0.213648
0.0015871
0.213326
-0.00146831
0.214077
0.00283501
0.213115
-0.0025811
0.00379895
0.227945
0.000349838
-0.227874
0.227889
1.20618e-05
0.227988
0.000395103
0.227899
-3.63761e-05
0.228036
0.000439982
0.227901
-8.97481e-05
0.228087
0.00048802
0.227894
-0.000129124
0.228137
0.0005244
0.227886
-0.000130315
0.228181
0.00051273
0.227906
-5.226e-05
0.228209
0.000408315
0.227988
0.000172761
0.228188
0.000149888
0.228163
0.00059863
0.228097
-0.000319047
0.228449
0.0012353
0.22794
-0.000958902
0.228794
0.0019811
0.227788
-0.00157582
0.00253618
0.243583
0.000274839
-0.243508
0.243545
5.01386e-05
0.243638
0.000302664
0.243578
2.39395e-05
0.243689
0.00032833
0.243601
-1.88186e-06
0.243738
0.000351238
0.243622
-1.30344e-05
0.243786
0.000360763
0.243653
1.94396e-06
0.243828
0.000338033
0.243705
7.07997e-05
0.24385
0.000262874
0.243794
0.000228917
0.243843
0.000100994
0.243944
0.000497968
0.243798
-0.000172888
0.244151
0.000882347
0.243721
-0.000529114
0.244376
0.0013257
0.243671
-0.000870327
0.00167119
0.260313
0.000210093
-0.260248
0.260296
6.68818e-05
0.26037
0.000228451
0.26034
5.41406e-05
0.260426
0.000242125
0.260382
4.26448e-05
0.260481
0.000251701
0.260427
4.16101e-05
0.260534
0.000253119
0.260477
5.90139e-05
0.26058
0.000235412
0.260541
0.000110103
0.260616
0.000187597
0.260631
0.00021343
0.260639
9.38451e-05
0.260757
0.000379965
0.260642
-5.78201e-05
0.260913
0.00061082
0.260635
-0.000251503
0.261082
0.000879202
0.260651
-0.000439645
0.00109849
0.278198
0.000152947
-0.278141
0.2782
6.50297e-05
0.278265
0.000163356
0.27826
5.85629e-05
0.278332
0.000170231
0.278321
5.38576e-05
0.278397
0.000175814
0.278381
5.72675e-05
0.278458
0.000176527
0.278445
7.19054e-05
0.278516
0.000164959
0.27852
0.000105615
0.27857
0.000137905
0.278613
0.000170586
0.278618
8.86062e-05
0.278727
0.000271123
0.278659
9.39783e-06
0.278863
0.000407168
0.278702
-8.99501e-05
0.279017
0.000564198
0.278766
-0.000188722
0.000698194
0.297358
9.86316e-05
-0.297304
0.297374
4.85949e-05
0.297432
0.000105514
0.297444
4.65117e-05
0.297504
0.000110427
0.297512
4.54602e-05
0.297574
0.000113958
0.297583
4.87738e-05
0.297645
0.000114368
0.297659
5.82561e-05
0.297715
0.000108683
0.297742
7.8822e-05
0.297783
9.6157e-05
0.297837
0.000116604
0.297853
7.30086e-05
0.297951
0.000172584
0.297925
3.54615e-05
0.298086
0.000246777
0.298007
-1.15812e-05
0.298239
0.000332934
0.298107
-5.68879e-05
0.000407403
0.3179
4.94576e-05
-0.31785
0.317921
2.71237e-05
0.317974
5.28335e-05
0.317994
2.64895e-05
0.318049
5.50469e-05
0.318068
2.62561e-05
0.318126
5.66894e-05
0.318146
2.81189e-05
0.318203
5.73229e-05
0.318229
3.28295e-05
0.318282
5.54236e-05
0.318319
4.22324e-05
0.318364
5.07884e-05
0.318421
5.90782e-05
0.318452
4.23649e-05
0.318541
8.37727e-05
0.318548
2.84949e-05
0.318679
0.000116168
0.318655
1.15691e-05
0.318834
0.000153897
0.318783
-5.09099e-06
0.000186779
0.339891
-0.339842
0.339918
0.339971
0.339998
0.340053
0.340079
0.340136
0.340164
0.340221
0.340254
0.340309
0.340351
0.340402
0.340461
0.340504
0.340587
0.340616
0.340732
0.340744
0.340898
0.340893
0.055361
0.0210211
0.0546653
0.0257821
0.0548573
0.0265143
0.0538979
0.031296
0.0312397
0.0573312
0.0206822
0.0569499
0.0261634
0.0567726
0.0266917
0.0560718
0.0319968
0.0320045
0.0599434
0.0205736
0.0597871
0.0263197
0.0595405
0.0269383
0.0594274
0.0321099
0.0327877
0.0630566
0.0631222
0.0262541
0.0629084
0.027152
0.0629745
0.0320438
0.0333484
0.0665307
0.0261341
0.0662208
0.0274619
0.0663184
0.0319463
0.0336045
0.070237
0.0259976
0.0699369
0.027762
0.0700246
0.0318587
0.0336574
0.0744747
0.0258
0.0742829
0.0279537
0.0743346
0.0318069
0.0336801
0.0791469
0.0255592
0.0790868
0.0280138
0.0791362
0.0317576
0.0336986
0.0840676
0.0252691
0.0841705
0.027911
0.0843519
0.0315761
0.0336215
0.0893286
0.0248999
0.0896086
0.027631
0.0899898
0.031195
0.0333507
0.0950833
0.0244576
0.095467
0.0272472
0.0959954
0.0306665
0.0329146
0.101345
0.0239807
0.101783
0.02681
0.102378
0.0300707
0.0323415
0.108099
0.0234204
0.108668
0.0262406
0.109358
0.0293806
0.0316715
0.115286
0.0227494
0.116014
0.0255126
0.116825
0.0285689
0.0308765
0.123011
0.0219801
0.123855
0.0246688
0.124761
0.0276629
0.0299218
0.131211
0.0211995
0.132092
0.0237876
0.1331
0.0266549
0.0288285
0.139955
0.0203182
0.141024
0.0227182
0.142155
0.0255243
0.0276026
0.149571
0.0193346
0.150746
0.0215432
0.151852
0.0244184
0.0262389
0.159652
0.0184038
0.160869
0.0203257
0.162106
0.0231818
0.0247327
0.17051
0.0172921
0.171841
0.018995
0.17329
0.0217332
0.0231962
0.182255
0.0160224
0.183617
0.0176334
0.18516
0.02019
0.0215583
0.19468
0.0146806
0.196125
0.0161886
0.197808
0.0185061
0.0197833
0.207988
0.0132165
0.209542
0.0146346
0.211376
0.0166717
0.0179018
0.222227
0.0116499
0.223891
0.0129715
0.225848
0.0147145
0.0158755
0.237437
0.0099933
0.23923
0.0111783
0.241311
0.0126334
0.0136784
0.253728
0.00823329
0.255665
0.00924122
0.257879
0.0104193
0.0113092
0.271166
0.00636564
0.273243
0.00716391
0.275598
0.00806395
0.00876675
0.289836
0.00437885
0.292063
0.00493627
0.294577
0.00555019
0.00604013
0.30986
0.00225963
0.312246
0.00254991
0.314931
0.00286567
0.00312028
0.331306
0.333856
0.336721
)
;

boundaryField
{
    outlet
    {
        type            calculated;
        value           nonuniform 0();
    }
    upperWall
    {
        type            symmetryPlane;
        value           uniform 0;
    }
    lowerWall
    {
        type            symmetryPlane;
        value           nonuniform 0();
    }
    inlet
    {
        type            calculated;
        value           nonuniform 0();
    }
    cylinder
    {
        type            calculated;
        value           nonuniform 0();
    }
    frontAndBack
    {
        type            empty;
        value           nonuniform 0();
    }
    procBoundary6to2
    {
        type            processor;
        value           nonuniform List<scalar> 
37
(
-0.0205977
-0.0191873
-0.0168355
-0.0138298
-0.0100132
-0.00522452
-0.000671313
0.00457957
0.0129865
0.0232004
0.0314848
0.036509
0.0387381
0.0397417
0.0387661
0.0391833
0.0395713
0.0548326
0.060518
0.0650853
0.0568357
0.0342313
0.00244402
-0.0283608
-0.0520957
-0.0637522
-0.0669367
-0.0652742
-0.0658733
-0.0695421
-0.0743923
-0.0775282
-0.0710245
-0.049211
-0.0107638
0.0292839
0.0639748
)
;
    }
    procBoundary6to5
    {
        type            processor;
        value           nonuniform List<scalar> 
63
(
-0.026663
-0.0328068
-0.0337042
-0.0341302
-0.0249983
-0.0348588
-0.035214
-0.0235251
-0.0360344
-0.0365019
-0.036869
-0.0224787
-0.0379318
-0.0383802
-0.0390923
-0.0215564
-0.00573822
0.019623
-0.00974947
-0.0118572
-0.0121806
-0.00974338
0.0105514
-0.00746651
0.00657905
-0.0053014
-0.0069325
-0.0194374
-0.0242392
-0.0268756
-0.0308991
-0.0274799
-0.0548257
-0.0569924
-0.0598348
-0.0629952
0.0205121
-0.0664106
-0.0701005
-0.074277
-0.0789061
-0.0837775
-0.0889594
-0.094641
-0.100868
-0.107538
-0.114615
-0.122242
-0.130431
-0.139073
-0.148587
-0.158721
-0.169398
-0.180985
-0.193338
-0.206524
-0.220661
-0.235781
-0.251968
-0.269298
-0.287849
-0.30774
-0.329046
)
;
    }
    procBoundary6to7
    {
        type            processor;
        value           nonuniform List<scalar> 
42
(
0.0309387
0.0348752
0.0407804
0.0476889
0.055048
0.0615977
0.0553151
0.0542051
0.0564074
0.0599289
0.0572041
0.0233097
0.0592843
0.0621305
0.0671846
0.0681969
0.0725259
0.0752916
0.0802863
0.0837675
0.08904
0.0936762
0.0990677
0.104831
0.111312
0.11844
0.126182
0.134489
0.143391
0.152975
0.163212
0.174328
0.186768
0.20033
0.214448
0.229051
0.244536
0.261224
0.279166
0.298398
0.319003
0.341079
)
;
    }
}


// ************************************************************************* //
