/*--------------------------------*- C++ -*----------------------------------*\
| =========                 |                                                 |
| \\      /  F ield         | OpenFOAM: The Open Source CFD Toolbox           |
|  \\    /   O peration     | Version:                                        |
|   \\  /    A nd           | Website:  www.openfoam.com                      |
|    \\/     M anipulation  |                                                 |
\*---------------------------------------------------------------------------*/
FoamFile
{
    version     2.0;
    format      ascii;
    class       volVectorField;
    location    "4.1";
    object      U;
}
// * * * * * * * * * * * * * * * * * * * * * * * * * * * * * * * * * * * * * //

dimensions      [0 1 -1 0 0 0 0];


internalField   nonuniform List<vector> 
1136
(
(0.952104 -0.00226587 5.08458e-24)
(0.957691 -0.00191004 -4.64822e-23)
(0.962846 -0.00159481 9.90983e-23)
(0.967669 -0.00135456 5.28681e-24)
(0.972001 -0.00132738 -9.27128e-23)
(0.975718 -0.00165041 4.81327e-23)
(0.978817 -0.00231519 -1.50015e-23)
(0.981369 -0.00322103 5.32546e-23)
(0.983469 -0.00416607 -3.45656e-23)
(0.985258 -0.00490377 -1.0065e-23)
(0.986845 -0.00546996 3.94319e-23)
(0.988269 -0.00584948 -4.34416e-23)
(0.989553 -0.006048 2.00024e-23)
(0.990706 -0.0060854 -1.93955e-23)
(0.991739 -0.00598201 1.33953e-23)
(0.992669 -0.00576663 1.38295e-25)
(0.993506 -0.00547109 2.85264e-24)
(0.994259 -0.00512009 -5.28407e-24)
(0.994937 -0.00473621 -5.26092e-24)
(0.995531 -0.0043306 3.54746e-24)
(0.996089 -0.00393255 1.68947e-24)
(0.996535 -0.0035201 5.58143e-25)
(0.997013 -0.00316863 2.53269e-24)
(0.997333 -0.00276261 -9.43344e-26)
(0.997728 -0.00250356 1.1289e-25)
(0.998001 -0.00208824 -6.57603e-29)
(0.998257 -0.00192581 6.91044e-25)
(0.998556 -0.0015016 -1.18238e-24)
(0.998697 -0.00142196 -2.24169e-25)
(0.998976 -0.000971488 7.30233e-26)
(0.953082 -0.00476995 -3.97304e-22)
(0.958461 -0.00404987 8.13438e-22)
(0.963404 -0.00364172 -2.41897e-22)
(0.967898 -0.00321818 1.42364e-22)
(0.971795 -0.0025249 -2.05613e-23)
(0.975091 -0.00147085 -2.90432e-22)
(0.977902 -0.000162439 3.29667e-22)
(0.980357 0.00123446 -1.29064e-23)
(0.982575 0.00255323 -1.77839e-22)
(0.984565 0.00356819 6.24425e-23)
(0.986329 0.00433186 8.21646e-24)
(0.987921 0.00486355 1.64582e-23)
(0.98935 0.00518835 3.42562e-23)
(0.990625 0.00533804 7.44822e-23)
(0.991754 0.00533765 -6.61409e-23)
(0.992752 0.0052123 -1.13657e-24)
(0.993633 0.00499654 -4.95767e-25)
(0.994411 0.00471268 -1.23797e-23)
(0.9951 0.00439434 3.75788e-23)
(0.995694 0.00403949 -1.33101e-23)
(0.996244 0.00369681 -3.53579e-24)
(0.996676 0.00332 -8.86462e-25)
(0.997138 0.00300922 1.88961e-24)
(0.997437 0.00263808 6.37858e-25)
(0.997821 0.00238835 -7.70568e-24)
(0.998074 0.00202492 3.09044e-24)
(0.998319 0.00184101 -2.09279e-24)
(0.998611 0.00147393 2.0399e-25)
(0.99873 0.00137952 -3.82972e-25)
(0.999014 0.000989182 -1.60023e-25)
(0.953631 -0.00859704 7.5434e-22)
(0.958581 -0.00729903 -6.44632e-22)
(0.963325 -0.00632285 1.59316e-22)
(0.967961 -0.00554218 -1.32649e-22)
(0.972315 -0.00500788 -4.84321e-22)
(0.976158 -0.00483922 -1.14381e-23)
(0.97937 -0.00504584 8.04949e-22)
(0.981959 -0.00550601 -6.58871e-23)
(0.983961 -0.00605338 -1.98729e-23)
(0.985587 -0.00652438 -2.07569e-22)
(0.987033 -0.00681337 -1.65692e-22)
(0.988327 -0.00693844 3.93361e-23)
(0.9895 -0.00693087 2.85145e-23)
(0.990567 -0.00680799 1.2207e-22)
(0.991535 -0.00658166 -4.29976e-23)
(0.992422 -0.00627753 -1.50826e-22)
(0.993235 -0.00591824 1.26945e-22)
(0.99398 -0.00552037 -2.41694e-23)
(0.994657 -0.00509382 -7.48919e-24)
(0.995265 -0.00465874 -3.43179e-23)
(0.995829 -0.00422969 3.10703e-23)
(0.996304 -0.0037974 -1.3198e-23)
(0.996789 -0.00343087 -1.06008e-23)
(0.997137 -0.0029962 -1.05283e-23)
(0.997549 -0.00275852 9.70888e-24)
(0.997825 -0.0022826 1.73006e-24)
(0.998124 -0.00217551 -4.07192e-26)
(0.998403 -0.00168184 3.93027e-24)
(0.998585 -0.00163825 -5.69612e-25)
(0.998857 -0.0011301 5.78559e-26)
(0.954802 -0.011246 -3.79626e-22)
(0.960057 -0.00980512 -1.43552e-21)
(0.96455 -0.00882319 2.9618e-22)
(0.968372 -0.00772698 4.7356e-22)
(0.971581 -0.00622236 -1.83444e-22)
(0.974355 -0.00434562 4.41523e-23)
(0.976907 -0.00232369 -5.6014e-22)
(0.979346 -0.000444349 2.42651e-22)
(0.981706 0.00110926 6.04487e-23)
(0.983907 0.00242613 2.91037e-22)
(0.98587 0.00333092 8.78774e-23)
(0.987614 0.00391619 -5.20181e-22)
(0.989161 0.00429969 3.29885e-22)
(0.990537 0.00452347 -4.42734e-23)
(0.991749 0.00461349 1.5723e-23)
(0.992809 0.00459002 2.97872e-23)
(0.993735 0.00448304 -1.12573e-22)
(0.994547 0.00429962 2.84332e-23)
(0.995253 0.00407525 3.55538e-23)
(0.995859 0.00379668 -3.44779e-23)
(0.996402 0.00353664 4.3592e-23)
(0.996836 0.00321403 -5.68511e-23)
(0.997277 0.0029763 4.97252e-23)
(0.997571 0.00264063 -2.66153e-24)
(0.997942 0.00244449 -1.07202e-23)
(0.998175 0.0021051 5.26009e-25)
(0.998428 0.00194569 -5.90423e-24)
(0.998695 0.00160138 -2.90106e-24)
(0.99882 0.00150917 1.24138e-24)
(0.999096 0.00117245 3.21592e-25)
(0.955108 -0.0149565 1.13518e-21)
(0.960569 -0.0123984 -9.35791e-22)
(0.965371 -0.0105842 3.76658e-23)
(0.969799 -0.00935431 1.4597e-21)
(0.973863 -0.00860731 -5.28323e-22)
(0.977401 -0.00824916 -5.44745e-22)
(0.980291 -0.00817564 2.2733e-22)
(0.982551 -0.00822194 3.30596e-22)
(0.984323 -0.00826034 3.64961e-22)
(0.985761 -0.00836288 -5.80087e-22)
(0.987014 -0.00830004 4.62966e-22)
(0.988203 -0.00805928 -1.89836e-24)
(0.989329 -0.00778408 9.65432e-23)
(0.990373 -0.0074541 -2.4549e-22)
(0.99133 -0.00707255 1.62038e-22)
(0.992215 -0.00666344 6.47955e-23)
(0.993028 -0.00624379 -5.61825e-23)
(0.993779 -0.00581844 -7.06447e-23)
(0.994456 -0.00538159 -4.25806e-24)
(0.995084 -0.004944 -5.6598e-24)
(0.995643 -0.00450758 -3.85459e-23)
(0.996155 -0.00406916 3.6958e-23)
(0.996625 -0.00370543 -2.99525e-23)
(0.99701 -0.00325188 -1.99474e-23)
(0.997426 -0.00304584 1.67995e-23)
(0.997685 -0.00251758 3.94123e-24)
(0.998049 -0.00247269 9.25331e-24)
(0.998277 -0.0019245 5.91218e-24)
(0.99851 -0.00192774 -4.71743e-25)
(0.998779 -0.00138709 -4.34617e-25)
(0.956993 -0.0195654 8.15938e-21)
(0.963015 -0.016607 -1.90801e-21)
(0.967187 -0.0142802 -3.84462e-21)
(0.970073 -0.011988 3.68528e-21)
(0.972315 -0.00938777 -1.85136e-21)
(0.974411 -0.00659998 -4.73313e-24)
(0.976621 -0.00392111 -7.57405e-23)
(0.978974 -0.00166 4.57227e-22)
(0.981326 5.11401e-05 2.27494e-22)
(0.983584 0.00131604 -3.30973e-22)
(0.985679 0.00221417 -1.66405e-22)
(0.987492 0.00280117 -1.51263e-22)
(0.989064 0.0032307 2.98415e-22)
(0.990478 0.00349373 1.28973e-22)
(0.991723 0.00364749 -9.17301e-23)
(0.992809 0.00372138 2.92766e-23)
(0.993753 0.00374144 1.01263e-22)
(0.994588 0.00369871 -1.46848e-22)
(0.995305 0.00361714 -4.21472e-24)
(0.995937 0.0034588 1.1098e-22)
(0.99647 0.00331056 2.18199e-23)
(0.996933 0.00306325 -2.80579e-23)
(0.997338 0.00292814 1.20089e-23)
(0.997663 0.00263082 -1.80668e-23)
(0.998006 0.00254023 2.73384e-23)
(0.998235 0.00220654 -1.94785e-23)
(0.998513 0.0021272 2.007e-24)
(0.998733 0.00178832 -8.7745e-24)
(0.998898 0.00171705 2.0892e-24)
(0.999158 0.00142058 2.91924e-25)
(0.962743 -0.0181546 1.4074e-21)
(0.96757 -0.0148324 -2.56662e-21)
(0.971949 -0.0129743 1.22865e-21)
(0.975738 -0.0121555 7.98948e-22)
(0.97875 -0.0118204 7.70629e-22)
(0.981004 -0.0115651 -7.92647e-22)
(0.9827 -0.0112149 -4.21583e-22)
(0.984128 -0.0107493 5.92608e-22)
(0.98543 -0.0101959 4.29629e-22)
(0.986654 -0.00967761 -3.76449e-22)
(0.987882 -0.00916821 1.40238e-22)
(0.989059 -0.00859889 3.31994e-23)
(0.99014 -0.00800728 8.36296e-23)
(0.991147 -0.00743434 1.90525e-23)
(0.992079 -0.00690056 -1.7164e-22)
(0.992921 -0.0064122 1.45862e-23)
(0.993694 -0.00594653 -1.16237e-22)
(0.994368 -0.00549035 1.4009e-22)
(0.995017 -0.00505336 -1.11707e-22)
(0.995549 -0.0046357 6.52686e-23)
(0.996108 -0.00421739 -2.31018e-23)
(0.996526 -0.00388074 2.87644e-23)
(0.996973 -0.00342462 -7.60186e-25)
(0.997346 -0.00324272 -1.22003e-23)
(0.99761 -0.00268737 1.50849e-23)
(0.998011 -0.00266416 5.97845e-24)
(0.998189 -0.00210033 -3.7531e-24)
(0.998457 -0.00211621 -2.58719e-25)
(0.998737 -0.00158332 -5.8788e-25)
(0.959189 -0.0246067 -8.15028e-22)
(0.961512 -0.0201157 -9.46715e-22)
(0.964513 -0.0160241 9.73691e-22)
(0.96801 -0.011971 -9.11661e-23)
(0.971618 -0.00814239 1.15659e-21)
(0.975065 -0.00491859 8.88696e-23)
(0.978216 -0.00248603 8.60671e-22)
(0.98101 -0.000803775 -5.78565e-22)
(0.983465 0.000276326 7.40405e-24)
(0.985614 0.00102675 -4.57082e-22)
(0.987465 0.00157635 -8.70327e-23)
(0.989071 0.00194224 1.4087e-22)
(0.99048 0.00223166 -1.11824e-22)
(0.991702 0.00242573 2.01078e-22)
(0.992767 0.00258593 1.52376e-22)
(0.9937 0.00273449 -1.02189e-22)
(0.994545 0.00282034 -5.48573e-23)
(0.995261 0.00286642 -1.11503e-23)
(0.995922 0.00283782 4.87067e-23)
(0.996433 0.00282601 7.98173e-23)
(0.996958 0.00269108 -6.67197e-23)
(0.997301 0.00268551 -1.00546e-23)
(0.997721 0.00242603 1.33195e-25)
(0.997994 0.0024744 -3.37318e-24)
(0.998264 0.00212514 -1.43424e-23)
(0.998569 0.00214596 7.04255e-24)
(0.998719 0.0018256 2.03111e-24)
(0.998958 0.00172738 1.51792e-24)
(0.999196 0.00150669 3.76676e-25)
(0.952709 -0.0230424 5.20565e-21)
(0.956345 -0.019978 -2.20557e-21)
(0.962077 -0.0185145 -2.27339e-21)
(0.968214 -0.0176723 7.2309e-22)
(0.973489 -0.0167862 1.25932e-22)
(0.97752 -0.0156871 1.28997e-21)
(0.980495 -0.0144425 -6.21696e-22)
(0.982781 -0.0131741 9.83001e-23)
(0.984654 -0.0119753 7.18802e-22)
(0.986265 -0.0109245 -3.49045e-22)
(0.987709 -0.0100004 -1.0818e-23)
(0.989004 -0.0091637 3.02263e-22)
(0.990162 -0.00842559 -8.54006e-23)
(0.991221 -0.00775167 -2.03136e-22)
(0.992202 -0.00712986 1.79964e-22)
(0.993062 -0.0065416 3.62203e-23)
(0.993842 -0.00600295 -3.39824e-23)
(0.994505 -0.00550112 -8.02722e-23)
(0.995173 -0.00503088 1.25825e-22)
(0.995664 -0.00460106 -6.32052e-23)
(0.996277 -0.00416785 -1.48064e-23)
(0.996593 -0.00382123 -2.98276e-24)
(0.997144 -0.00336156 3.9378e-23)
(0.997389 -0.00314862 -1.27445e-23)
(0.997727 -0.00260551 3.20381e-25)
(0.998083 -0.00250704 6.37758e-24)
(0.998239 -0.00196916 -4.19196e-24)
(0.998514 -0.00185968 1.13242e-25)
(0.998827 -0.00144152 7.08853e-26)
(0.957404 -0.0289923 -5.23715e-21)
(0.96014 -0.0249725 3.95222e-21)
(0.963304 -0.0208816 -2.14597e-21)
(0.966953 -0.0162668 -1.64901e-21)
(0.970954 -0.0116226 -3.54861e-22)
(0.974973 -0.00764794 1.31725e-21)
(0.978665 -0.00468491 -4.3955e-22)
(0.981821 -0.0026788 5.31898e-22)
(0.984421 -0.00137814 -2.18164e-22)
(0.986559 -0.00048181 1.11271e-21)
(0.988337 0.000176494 -6.02836e-22)
(0.989845 0.000670216 7.28262e-22)
(0.991157 0.00107608 -3.12704e-23)
(0.992305 0.00141885 1.40054e-23)
(0.993324 0.00167599 -2.60801e-22)
(0.994219 0.00185688 -7.91862e-23)
(0.995034 0.00199432 -7.94887e-23)
(0.995722 0.00209356 2.71939e-23)
(0.996388 0.00214315 6.17586e-23)
(0.996872 0.00218604 -2.18487e-23)
(0.997448 0.00212705 1.66438e-23)
(0.997734 0.00217893 -6.53237e-23)
(0.998244 0.00196882 5.94347e-23)
(0.998447 0.00210289 -3.49901e-23)
(0.998768 0.00176545 7.12855e-25)
(0.999088 0.00188242 1.15936e-23)
(0.999186 0.00160975 7.86608e-25)
(0.999462 0.00155266 -1.76814e-24)
(0.999679 0.00130614 -3.38059e-25)
(0.981736 -0.0280487 0)
(0.984788 -0.026837 0)
(0.984612 -0.0259405 0)
(0.983254 -0.024384 0)
(0.982438 -0.0220922 0)
(0.982731 -0.0194832 0)
(0.983909 -0.0169675 0)
(0.985514 -0.0147739 0)
(0.98718 -0.0129574 0)
(0.988732 -0.0114639 0)
(0.990117 -0.010221 0)
(0.991346 -0.00917634 0)
(0.992441 -0.00828338 0)
(0.993426 -0.00748989 0)
(0.99429 -0.00677896 0)
(0.995066 -0.00613507 0)
(0.995746 -0.00555747 0)
(0.996387 -0.00501955 0)
(0.996917 -0.00454469 0)
(0.997455 -0.0040653 0)
(0.997853 -0.00367387 0)
(0.998295 -0.00321206 0)
(0.998598 -0.00290711 0)
(0.998923 -0.00242951 0)
(0.999184 -0.00220229 0)
(0.99944 -0.00172379 0)
(0.999614 -0.0015129 0)
(0.999941 -0.00116089 0)
(0.973429 -0.0301661 0)
(0.975815 -0.0219614 0)
(0.978 -0.0147652 0)
(0.979715 -0.00952504 0)
(0.981156 -0.00613014 0)
(0.982595 -0.00399394 0)
(0.984113 -0.00258366 0)
(0.985661 -0.00159413 0)
(0.987173 -0.000855761 0)
(0.988589 -0.000264943 0)
(0.989878 0.000222307 0)
(0.99104 0.000628999 0)
(0.992085 0.000977181 0)
(0.993025 0.00126517 0)
(0.993861 0.00149019 0)
(0.994615 0.00167023 0)
(0.995274 0.00181261 0)
(0.995866 0.00190186 0)
(0.996372 0.00198179 0)
(0.996818 0.00195066 0)
(0.997214 0.00202925 0)
(0.997527 0.00182334 0)
(0.997872 0.00197872 0)
(0.998085 0.00163297 0)
(0.998359 0.00176493 0)
(0.998569 0.00151777 0)
(0.998698 0.00143468 0)
(0.998949 0.00123191 0)
(0.971796 -0.0286466 0)
(0.972145 -0.0284319 0)
(0.97391 -0.0280568 0)
(0.976447 -0.0267035 0)
(0.979164 -0.024478 0)
(0.98171 -0.0218616 0)
(0.983961 -0.0192837 0)
(0.985911 -0.0169661 0)
(0.987595 -0.0149822 0)
(0.989053 -0.0133033 0)
(0.990321 -0.0118706 0)
(0.991443 -0.0106399 0)
(0.992454 -0.00957328 0)
(0.993365 -0.00863579 0)
(0.994169 -0.00780932 0)
(0.994889 -0.00707465 0)
(0.995532 -0.00642427 0)
(0.996128 -0.00582505 0)
(0.996652 -0.00529034 0)
(0.997146 -0.00476553 0)
(0.997566 -0.0043093 0)
(0.997976 -0.00379737 0)
(0.998284 -0.00342669 0)
(0.998645 -0.00289385 0)
(0.998835 -0.00262328 0)
(0.999181 -0.00208472 0)
(0.999314 -0.00185407 0)
(0.999668 -0.00133553 0)
(0.979856 -0.0316211 0)
(0.982754 -0.0241105 0)
(0.984205 -0.017176 0)
(0.984702 -0.011777 0)
(0.984968 -0.00801769 0)
(0.985461 -0.00549591 0)
(0.986277 -0.00375328 0)
(0.987317 -0.00247674 0)
(0.988462 -0.00149185 0)
(0.989616 -0.000702366 0)
(0.990709 -4.72468e-05 0)
(0.991717 0.00050077 0)
(0.992634 0.000951149 0)
(0.993468 0.00131237 0)
(0.994215 0.00159791 0)
(0.994894 0.00182589 0)
(0.995492 0.00201209 0)
(0.99603 0.00213576 0)
(0.996489 0.00224907 0)
(0.996894 0.00223618 0)
(0.997251 0.00233702 0)
(0.997533 0.0021257 0)
(0.997839 0.0022896 0)
(0.998033 0.00190852 0)
(0.998266 0.00203302 0)
(0.998464 0.00175261 0)
(0.998543 0.00163374 0)
(0.998761 0.0013804 0)
(0.976133 -0.0304836 0)
(0.975645 -0.0290508 0)
(0.976693 -0.0279149 0)
(0.978679 -0.0264215 0)
(0.98099 -0.0244635 0)
(0.983214 -0.0222248 0)
(0.985181 -0.0199561 0)
(0.986879 -0.0178273 0)
(0.988349 -0.0159232 0)
(0.98964 -0.0142616 0)
(0.990778 -0.0128169 0)
(0.991798 -0.0115577 0)
(0.992731 -0.0104563 0)
(0.993583 -0.00948111 0)
(0.994341 -0.00861148 0)
(0.995026 -0.00783345 0)
(0.995642 -0.00713915 0)
(0.996216 -0.00650411 0)
(0.996724 -0.0059275 0)
(0.997212 -0.0053755 0)
(0.997619 -0.00488177 0)
(0.99805 -0.00434489 0)
(0.998322 -0.00394401 0)
(0.998744 -0.00335025 0)
(0.99888 -0.00309472 0)
(0.999291 -0.00244831 0)
(0.999399 -0.00224866 0)
(0.999812 -0.00156783 0)
(0.982783 -0.032184 0)
(0.984751 -0.0261755 0)
(0.986041 -0.0202575 0)
(0.986708 -0.0151665 0)
(0.987133 -0.0112028 0)
(0.987619 -0.00825404 0)
(0.988276 -0.00605764 0)
(0.98908 -0.0043759 0)
(0.989974 -0.00304472 0)
(0.990901 -0.00196558 0)
(0.991804 -0.0010678 0)
(0.992652 -0.000310187 0)
(0.993434 0.000319424 0)
(0.994153 0.000832196 0)
(0.994801 0.00124739 0)
(0.995396 0.00158308 0)
(0.99592 0.00185958 0)
(0.996396 0.00205748 0)
(0.996796 0.00223517 0)
(0.99716 0.00227452 0)
(0.99746 0.00241686 0)
(0.997718 0.00224304 0)
(0.997971 0.00242727 0)
(0.998138 0.00206068 0)
(0.998341 0.00221652 0)
(0.998493 0.00190269 0)
(0.998559 0.00184415 0)
(0.998698 0.00153167 0)
(0.983109 -0.0312452 0)
(0.982167 -0.0288501 0)
(0.982184 -0.0270021 0)
(0.982943 -0.0252479 0)
(0.984168 -0.0234016 0)
(0.98557 -0.0214539 0)
(0.98695 -0.019501 0)
(0.988225 -0.017638 0)
(0.989381 -0.0159249 0)
(0.990435 -0.0143921 0)
(0.991397 -0.0130352 0)
(0.992277 -0.0118348 0)
(0.993096 -0.0107723 0)
(0.993859 -0.00982667 0)
(0.994552 -0.00897744 0)
(0.995186 -0.00821092 0)
(0.995764 -0.00751974 0)
(0.996305 -0.00688759 0)
(0.996793 -0.00630622 0)
(0.997264 -0.00575383 0)
(0.997662 -0.00524718 0)
(0.998094 -0.00470678 0)
(0.998355 -0.00429817 0)
(0.998808 -0.00367453 0)
(0.998917 -0.00344268 0)
(0.999386 -0.00271133 0)
(0.999463 -0.0025968 0)
(0.999949 -0.00181368 0)
(0.986846 -0.0323345 0)
(0.987636 -0.027603 0)
(0.988432 -0.0228057 0)
(0.988974 -0.0183724 0)
(0.989384 -0.0145813 0)
(0.989816 -0.0114831 0)
(0.990334 -0.0089848 0)
(0.990943 -0.00696102 0)
(0.99162 -0.00529292 0)
(0.992335 -0.00389875 0)
(0.99305 -0.00272516 0)
(0.993735 -0.0017232 0)
(0.994376 -0.000872179 0)
(0.994974 -0.000162826 0)
(0.995519 0.00042728 0)
(0.996022 0.000916258 0)
(0.996465 0.00132586 0)
(0.996874 0.00163831 0)
(0.997209 0.00191418 0)
(0.997526 0.00204643 0)
(0.997764 0.00225315 0)
(0.997994 0.00216049 0)
(0.998185 0.0023759 0)
(0.998324 0.00207319 0)
(0.998489 0.00225368 0)
(0.998574 0.00194232 0)
(0.998647 0.00194115 0)
(0.998687 0.00162387 0)
(0.989464 -0.0307711 0)
(0.988355 -0.0278942 0)
(0.987805 -0.0255706 0)
(0.987707 -0.0235621 0)
(0.988009 -0.0217087 0)
(0.988596 -0.0199341 0)
(0.989319 -0.018231 0)
(0.990087 -0.016625 0)
(0.990853 -0.0151382 0)
(0.9916 -0.0137864 0)
(0.992319 -0.0125767 0)
(0.993007 -0.0114974 0)
(0.993665 -0.0105316 0)
(0.994296 -0.00966607 0)
(0.994886 -0.00888541 0)
(0.995439 -0.00817614 0)
(0.995951 -0.00753132 0)
(0.99644 -0.00694014 0)
(0.996889 -0.00639015 0)
(0.997325 -0.0058697 0)
(0.997707 -0.0053817 0)
(0.998118 -0.00486736 0)
(0.99838 -0.0044752 0)
(0.99883 -0.0038567 0)
(0.998939 -0.00366035 0)
(0.999445 -0.00287814 0)
(0.999493 -0.00282897 0)
(1.00006 -0.00199448 0)
(0.991605 -0.0315317 0)
(0.991271 -0.0279606 0)
(0.991378 -0.02427 0)
(0.991551 -0.020675 0)
(0.991753 -0.0173656 0)
(0.992027 -0.0144393 0)
(0.992377 -0.0119035 0)
(0.9928 -0.0097211 0)
(0.993283 -0.00783836 0)
(0.993805 -0.00620639 0)
(0.994341 -0.00479159 0)
(0.99487 -0.00356445 0)
(0.995376 -0.0024991 0)
(0.995856 -0.00158262 0)
(0.996301 -0.000800585 0)
(0.996716 -0.000138005 0)
(0.997081 0.000428123 0)
(0.997422 0.000883255 0)
(0.997694 0.00128239 0)
(0.997963 0.00153815 0)
(0.998144 0.00183153 0)
(0.998344 0.00185538 0)
(0.998473 0.00211695 0)
(0.998585 0.00191813 0)
(0.998705 0.002137 0)
(0.998723 0.00185469 0)
(0.998805 0.00193238 0)
(0.998731 0.00161761 0)
(0.994913 -0.0295884 0)
(0.993775 -0.0266133 0)
(0.992989 -0.0240586 0)
(0.992425 -0.0218599 0)
(0.992119 -0.0199289 0)
(0.99207 -0.0181997 0)
(0.992211 -0.0166297 0)
(0.992479 -0.0151947 0)
(0.992828 -0.0138841 0)
(0.993227 -0.012697 0)
(0.993652 -0.011634 0)
(0.994095 -0.0106865 0)
(0.994546 -0.00983713 0)
(0.994999 -0.00907311 0)
(0.995442 -0.00838471 0)
(0.995874 -0.00776038 0)
(0.996286 -0.00719067 0)
(0.996691 -0.00666701 0)
(0.997072 -0.00617502 0)
(0.997452 -0.00571154 0)
(0.997793 -0.0052704 0)
(0.998165 -0.00480792 0)
(0.99842 -0.00445201 0)
(0.99884 -0.00387286 0)
(0.998958 -0.00372024 0)
(0.999476 -0.00292537 0)
(0.999499 -0.00294961 0)
(1.00013 -0.00209406 0)
(0.996848 -0.0292295 0)
(0.99563 -0.0267116 0)
(0.994987 -0.0240885 0)
(0.994608 -0.0214275 0)
(0.994408 -0.0188249 0)
(0.994368 -0.0163646 0)
(0.99446 -0.0140917 0)
(0.994655 -0.012012 0)
(0.994931 -0.0101217 0)
(0.995259 -0.00841638 0)
(0.995617 -0.00688738 0)
(0.995993 -0.00552118 0)
(0.99637 -0.00430502 0)
(0.996739 -0.00322909 0)
(0.997087 -0.00228351 0)
(0.997419 -0.00146234 0)
(0.997713 -0.000745536 0)
(0.997992 -0.000142947 0)
(0.998211 0.000387472 0)
(0.998433 0.000778343 0)
(0.998569 0.00117197 0)
(0.998734 0.00133224 0)
(0.998814 0.00165398 0)
(0.9989 0.0015854 0)
(0.998975 0.00185405 0)
(0.998935 0.00163004 0)
(0.999019 0.00179565 0)
(0.998832 0.00150897 0)
(0.999353 -0.0278421 0)
(0.998139 -0.0253029 0)
(0.997308 -0.0228263 0)
(0.996589 -0.020555 0)
(0.995997 -0.0185534 0)
(0.995575 -0.0167893 0)
(0.995318 -0.015228 0)
(0.995204 -0.0138358 0)
(0.995195 -0.0125907 0)
(0.995261 -0.0114864 0)
(0.995387 -0.0105131 0)
(0.995564 -0.0096539 0)
(0.99578 -0.00889178 0)
(0.996026 -0.00821213 0)
(0.996286 -0.00760589 0)
(0.99656 -0.00706286 0)
(0.996836 -0.00657032 0)
(0.997125 -0.00612082 0)
(0.997406 -0.0056998 0)
(0.997701 -0.00530618 0)
(0.997974 -0.00492893 0)
(0.998285 -0.00453353 0)
(0.998509 -0.00422894 0)
(0.998879 -0.00371439 0)
(0.998997 -0.00361012 0)
(0.999499 -0.00284342 0)
(0.999504 -0.00293362 0)
(1.00018 -0.00209381 0)
(1.00162 -0.0261456 0)
(1.00017 -0.024109 0)
(0.999126 -0.0221491 0)
(0.998217 -0.0202611 0)
(0.997499 -0.0184474 0)
(0.997022 -0.0166694 0)
(0.996751 -0.0149055 0)
(0.996644 -0.0131864 0)
(0.996655 -0.0115385 0)
(0.996746 -0.00998272 0)
(0.996901 -0.00853194 0)
(0.99711 -0.00718457 0)
(0.997348 -0.00593937 0)
(0.9976 -0.00480258 0)
(0.997849 -0.00377414 0)
(0.998099 -0.00285363 0)
(0.998325 -0.00202983 0)
(0.998547 -0.00131165 0)
(0.998718 -0.000669791 0)
(0.998898 -0.000155283 0)
(0.999001 0.000336529 0)
(0.999132 0.000632711 0)
(0.99918 0.00102051 0)
(0.999238 0.00109129 0)
(0.999278 0.00141212 0)
(0.999195 0.00127939 0)
(0.999269 0.00151681 0)
(0.998991 0.00129096 0)
(1.00351 -0.0246362 0)
(1.00201 -0.0229253 0)
(1.0009 -0.0211906 0)
(0.999943 -0.0194477 0)
(0.99916 -0.0177076 0)
(0.998599 -0.0160251 0)
(0.998193 -0.0144239 0)
(0.997883 -0.0129592 0)
(0.997646 -0.0116698 0)
(0.99747 -0.0105449 0)
(0.997356 -0.00956626 0)
(0.997307 -0.00870929 0)
(0.997307 -0.00795898 0)
(0.997346 -0.00730695 0)
(0.997413 -0.00674038 0)
(0.997513 -0.00624398 0)
(0.997632 -0.00580265 0)
(0.997781 -0.00540905 0)
(0.997934 -0.00504852 0)
(0.998121 -0.00471731 0)
(0.998296 -0.0044046 0)
(0.998524 -0.00407895 0)
(0.998688 -0.00383285 0)
(0.99899 -0.00339563 0)
(0.999088 -0.00333555 0)
(0.999541 -0.0026383 0)
(0.999537 -0.00276954 0)
(1.00021 -0.00198275 0)
(1.00525 -0.0228883 0)
(1.00374 -0.0214327 0)
(1.0026 -0.0199263 0)
(1.0016 -0.0184083 0)
(1.00072 -0.0169067 0)
(1.00002 -0.0154626 0)
(0.999454 -0.0141094 0)
(0.998989 -0.0128318 0)
(0.998641 -0.0116243 0)
(0.998422 -0.0104472 0)
(0.998322 -0.00927713 0)
(0.998322 -0.00812453 0)
(0.998383 -0.00701136 0)
(0.998485 -0.00595865 0)
(0.998612 -0.00497084 0)
(0.998766 -0.0040512 0)
(0.998916 -0.00320001 0)
(0.999074 -0.00243169 0)
(0.999199 -0.00172974 0)
(0.999336 -0.00113255 0)
(0.999412 -0.00057053 0)
(0.999512 -0.000162456 0)
(0.99954 0.00028191 0)
(0.999572 0.000485523 0)
(0.999588 0.000845352 0)
(0.999479 0.000832198 0)
(0.999534 0.00110772 0)
(0.999203 0.000971657 0)
(1.00676 -0.0210108 0)
(1.00529 -0.0198258 0)
(1.00414 -0.0185857 0)
(1.00308 -0.017321 0)
(1.00213 -0.0160636 0)
(1.00133 -0.0148211 0)
(1.00068 -0.0136101 0)
(1.00015 -0.0124215 0)
(0.999746 -0.0112465 0)
(0.999462 -0.010116 0)
(0.999254 -0.00905198 0)
(0.999086 -0.00810159 0)
(0.998937 -0.00728534 0)
(0.998814 -0.00659314 0)
(0.998724 -0.00600041 0)
(0.998671 -0.00548932 0)
(0.998639 -0.00504966 0)
(0.998644 -0.00467268 0)
(0.998661 -0.00434106 0)
(0.998724 -0.0040466 0)
(0.998784 -0.00378028 0)
(0.99891 -0.00350981 0)
(0.99899 -0.00331401 0)
(0.999203 -0.00295461 0)
(0.999261 -0.00292481 0)
(0.999632 -0.00232979 0)
(0.999622 -0.00246946 0)
(1.00024 -0.00176603 0)
(1.00803 -0.0191036 0)
(1.00661 -0.0181743 0)
(1.00547 -0.0171777 0)
(1.0044 -0.0161425 0)
(1.00342 -0.0150802 0)
(1.00258 -0.0140052 0)
(1.00188 -0.0129253 0)
(1.00129 -0.011858 0)
(1.00081 -0.0108141 0)
(1.00041 -0.00982486 0)
(1.00008 -0.00890416 0)
(0.999811 -0.00804431 0)
(0.999614 -0.00722249 0)
(0.999504 -0.00640513 0)
(0.999468 -0.00558592 0)
(0.99949 -0.00478186 0)
(0.999532 -0.00400943 0)
(0.999604 -0.00328502 0)
(0.999666 -0.00260019 0)
(0.999752 -0.00198558 0)
(0.999796 -0.00140547 0)
(0.999862 -0.000931613 0)
(0.999874 -0.000462521 0)
(0.999886 -0.000151441 0)
(0.999884 0.000219558 0)
(0.999766 0.000335493 0)
(0.999797 0.000612043 0)
(0.999459 0.000581095 0)
(1.00907 -0.017191 0)
(1.00772 -0.0164803 0)
(1.00663 -0.0156968 0)
(1.00557 -0.0148589 0)
(1.00459 -0.0139786 0)
(1.00374 -0.0130692 0)
(1.00299 -0.0121472 0)
(1.00235 -0.0112273 0)
(1.00179 -0.0103281 0)
(1.00131 -0.00945098 0)
(1.00092 -0.00860519 0)
(1.0006 -0.00777822 0)
(1.00036 -0.00697646 0)
(1.00018 -0.00621513 0)
(1.00003 -0.0055314 0)
(0.999884 -0.00494619 0)
(0.999741 -0.00445932 0)
(0.99963 -0.00405233 0)
(0.99953 -0.00370497 0)
(0.999477 -0.00340898 0)
(0.999422 -0.00315628 0)
(0.999438 -0.00291352 0)
(0.999426 -0.00274613 0)
(0.999531 -0.00245236 0)
(0.999538 -0.00242981 0)
(0.999791 -0.00195127 0)
(0.999774 -0.00206957 0)
(1.00026 -0.00146905 0)
(1.00987 -0.0152966 0)
(1.00863 -0.0147704 0)
(1.0076 -0.014171 0)
(1.00659 -0.0135125 0)
(1.00563 -0.0128041 0)
(1.00477 -0.0120598 0)
(1.004 -0.0112911 0)
(1.00332 -0.0105122 0)
(1.00272 -0.00973014 0)
(1.0022 -0.00895134 0)
(1.00175 -0.00818396 0)
(1.00138 -0.00743646 0)
(1.00107 -0.00672138 0)
(1.0008 -0.00605656 0)
(1.00056 -0.00543926 0)
(1.00039 -0.00485211 0)
(1.00026 -0.00426601 0)
(1.00021 -0.00367805 0)
(1.00017 -0.00309427 0)
(1.00018 -0.00254098 0)
(1.00017 -0.00201029 0)
(1.0002 -0.00153371 0)
(1.00018 -0.00108905 0)
(1.00017 -0.000714354 0)
(1.00015 -0.000370434 0)
(1.00004 -0.000141781 0)
(1.00005 0.000102819 0)
(0.999746 0.000173175 0)
(1.01048 -0.0134507 0)
(1.00934 -0.0130775 0)
(1.00839 -0.0126358 0)
(1.00743 -0.012135 0)
(1.00651 -0.0115816 0)
(1.00567 -0.0109848 0)
(1.0049 -0.0103555 0)
(1.00421 -0.00970251 0)
(1.00358 -0.00903452 0)
(1.00303 -0.00836131 0)
(1.00254 -0.0076917 0)
(1.00211 -0.00703788 0)
(1.00173 -0.00640479 0)
(1.00141 -0.00579792 0)
(1.00114 -0.00520868 0)
(1.00093 -0.0046411 0)
(1.00075 -0.00410524 0)
(1.00059 -0.00362855 0)
(1.00043 -0.00322571 0)
(1.00029 -0.00289441 0)
(1.00015 -0.00262349 0)
(1.00006 -0.0023773 0)
(0.999967 -0.00220903 0)
(0.999956 -0.00195788 0)
(0.999912 -0.00191812 0)
(1.00002 -0.00154962 0)
(0.999997 -0.00162631 0)
(1.0003 -0.0011375 0)
(1.0109 -0.0116783 0)
(1.00988 -0.0114277 0)
(1.00901 -0.011116 0)
(1.00812 -0.0107481 0)
(1.00725 -0.0103273 0)
(1.00644 -0.00986008 0)
(1.00569 -0.00935556 0)
(1.005 -0.00882118 0)
(1.00436 -0.00826594 0)
(1.00379 -0.00769843 0)
(1.00326 -0.00712638 0)
(1.0028 -0.00655808 0)
(1.00238 -0.00599778 0)
(1.00202 -0.00544832 0)
(1.00171 -0.00491744 0)
(1.00144 -0.00441166 0)
(1.00119 -0.0039415 0)
(1.00099 -0.00350544 0)
(1.00081 -0.00308752 0)
(1.00069 -0.00267058 0)
(1.00059 -0.00225408 0)
(1.00055 -0.00184206 0)
(1.00049 -0.00147103 0)
(1.00045 -0.0010947 0)
(1.0004 -0.000812975 0)
(1.0003 -0.000517724 0)
(1.00028 -0.000328306 0)
(1.00004 -0.000175721 0)
(1.01117 -0.00999416 0)
(1.01026 -0.00983811 0)
(1.00948 -0.00962957 0)
(1.00866 -0.00937055 0)
(1.00785 -0.00906074 0)
(1.00709 -0.00870566 0)
(1.00637 -0.00831174 0)
(1.00569 -0.00788599 0)
(1.00505 -0.00743496 0)
(1.00447 -0.00696566 0)
(1.00393 -0.00648525 0)
(1.00344 -0.00599938 0)
(1.00299 -0.00551432 0)
(1.0026 -0.0050359 0)
(1.00224 -0.0045712 0)
(1.00192 -0.00412444 0)
(1.00164 -0.00369692 0)
(1.0014 -0.00328586 0)
(1.00119 -0.002896 0)
(1.00102 -0.00253202 0)
(1.00084 -0.00222306 0)
(1.00069 -0.00194861 0)
(1.00054 -0.00176175 0)
(1.00043 -0.00152642 0)
(1.00034 -0.0014577 0)
(1.00031 -0.00117388 0)
(1.00027 -0.00120024 0)
(1.00038 -0.000827101 0)
(1.01132 -0.00841255 0)
(1.01051 -0.00832454 0)
(1.00981 -0.0081935 0)
(1.00907 -0.0080194 0)
(1.00833 -0.0077995 0)
(1.00761 -0.0075378 0)
(1.00693 -0.00723902 0)
(1.00627 -0.00690831 0)
(1.00565 -0.00655075 0)
(1.00507 -0.00617174 0)
(1.00452 -0.00577763 0)
(1.00402 -0.00537307 0)
(1.00355 -0.00496497 0)
(1.00313 -0.00455795 0)
(1.00274 -0.00415674 0)
(1.00239 -0.00376521 0)
(1.00207 -0.00338628 0)
(1.0018 -0.00302324 0)
(1.00154 -0.00268117 0)
(1.00133 -0.00236305 0)
(1.00112 -0.0020744 0)
(1.00097 -0.00177872 0)
(1.00083 -0.0015215 0)
(1.00074 -0.00120882 0)
(1.00066 -0.00100881 0)
(1.00055 -0.000713658 0)
(1.0005 -0.000589885 0)
(1.00032 -0.00038853 0)
(1.01138 -0.00692398 0)
(1.01066 -0.00688609 0)
(1.01003 -0.00681455 0)
(1.00937 -0.00670652 0)
(1.00869 -0.00655872 0)
(1.00802 -0.00637283 0)
(1.00738 -0.00615354 0)
(1.00676 -0.00590364 0)
(1.00616 -0.00562764 0)
(1.00559 -0.00532982 0)
(1.00504 -0.0050145 0)
(1.00453 -0.00468739 0)
(1.00405 -0.00435191 0)
(1.00361 -0.00401374 0)
(1.00319 -0.00367642 0)
(1.00282 -0.00334393 0)
(1.00247 -0.00302069 0)
(1.00216 -0.00270874 0)
(1.00187 -0.00241281 0)
(1.00163 -0.00212932 0)
(1.0014 -0.00186898 0)
(1.00122 -0.00160719 0)
(1.00104 -0.0014091 0)
(1.00088 -0.00117574 0)
(1.00075 -0.00108214 0)
(1.00062 -0.000854672 0)
(1.00056 -0.000839881 0)
(1.0005 -0.000577343 0)
(1.01135 -0.00553498 0)
(1.01072 -0.00551915 0)
(1.01016 -0.00548187 0)
(1.00956 -0.00541916 0)
(1.00894 -0.00532533 0)
(1.00834 -0.00520093 0)
(1.00774 -0.00504808 0)
(1.00715 -0.00486876 0)
(1.00657 -0.00466517 0)
(1.00602 -0.00444084 0)
(1.00548 -0.00419884 0)
(1.00497 -0.00394354 0)
(1.00449 -0.00367823 0)
(1.00403 -0.00340722 0)
(1.0036 -0.0031342 0)
(1.0032 -0.00286235 0)
(1.00283 -0.00259556 0)
(1.0025 -0.00233608 0)
(1.00218 -0.0020875 0)
(1.00192 -0.00184636 0)
(1.00165 -0.00162823 0)
(1.00144 -0.00140786 0)
(1.00124 -0.00124008 0)
(1.00106 -0.00102528 0)
(1.00093 -0.000911385 0)
(1.00078 -0.00068369 0)
(1.00071 -0.000617473 0)
(1.00055 -0.000420166 0)
(1.01134 -0.00425287 0)
(1.01078 -0.00426601 0)
(1.01025 -0.00425884 0)
(1.00969 -0.00422819 0)
(1.00912 -0.00416937 0)
(1.00855 -0.00408448 0)
(1.00799 -0.00397593 0)
(1.00744 -0.00384607 0)
(1.00689 -0.00369657 0)
(1.00636 -0.00352999 0)
(1.00583 -0.00334891 0)
(1.00533 -0.00315579 0)
(1.00485 -0.00295392 0)
(1.00438 -0.00274565 0)
(1.00394 -0.0025343 0)
(1.00353 -0.00232232 0)
(1.00314 -0.00211271 0)
(1.00279 -0.00190704 0)
(1.00246 -0.00170944 0)
(1.00216 -0.00151687 0)
(1.00188 -0.0013428 0)
(1.00164 -0.00116279 0)
(1.00142 -0.00102565 0)
(1.00122 -0.000846594 0)
(1.00107 -0.000761007 0)
(1.00089 -0.000583849 0)
(1.00081 -0.000552099 0)
(1.00064 -0.000382866 0)
(1.01118 -0.00286235 0)
(1.0107 -0.00286054 0)
(1.01025 -0.00287558 0)
(1.00976 -0.00289051 0)
(1.00925 -0.00288954 0)
(1.00873 -0.00286657 0)
(1.00821 -0.00282076 0)
(1.00768 -0.0027528 0)
(1.00715 -0.00266508 0)
(1.00663 -0.00256014 0)
(1.00612 -0.00244115 0)
(1.00562 -0.00231058 0)
(1.00513 -0.00217122 0)
(1.00467 -0.00202549 0)
(1.00422 -0.00187567 0)
(1.0038 -0.00172421 0)
(1.0034 -0.00157312 0)
(1.00303 -0.0014237 0)
(1.00268 -0.00128019 0)
(1.00237 -0.00113871 0)
(1.00207 -0.00101019 0)
(1.00181 -0.000875745 0)
(1.00157 -0.000774635 0)
(1.00135 -0.000641501 0)
(1.00119 -0.000579248 0)
(1.00098 -0.000445258 0)