/*--------------------------------*- C++ -*----------------------------------*\
| =========                 |                                                 |
| \\      /  F ield         | OpenFOAM: The Open Source CFD Toolbox           |
|  \\    /   O peration     | Version:                                        |
|   \\  /    A nd           | Website:  www.openfoam.com                      |
|    \\/     M anipulation  |                                                 |
\*---------------------------------------------------------------------------*/
FoamFile
{
    version     2.0;
    format      ascii;
    class       volScalarField;
    location    "105.6";
    object      p;
}
// * * * * * * * * * * * * * * * * * * * * * * * * * * * * * * * * * * * * * //

dimensions      [0 2 -2 0 0 0 0];


internalField   nonuniform List<scalar> 
1147
(
-0.33244
-0.287691
-0.281877
-0.278902
-0.268584
-0.25639
-0.248063
-0.240193
-0.262675
-0.269369
-0.353844
-0.298994
-0.28967
-0.284607
-0.272185
-0.253239
-0.251144
-0.232709
-0.23256
-0.257256
-0.38394
-0.327187
-0.310018
-0.294038
-0.269094
-0.246162
-0.231984
-0.233822
-0.230118
-0.22626
-0.408398
-0.373151
-0.349432
-0.31849
-0.273525
-0.246051
-0.233037
-0.224561
-0.214917
-0.200544
-0.425637
-0.43058
-0.418944
-0.358836
-0.299596
-0.259078
-0.233814
-0.214346
-0.197385
-0.178835
-0.42522
-0.465053
-0.460824
-0.397392
-0.323832
-0.269525
-0.231326
-0.203544
-0.180704
-0.159656
-0.389928
-0.448115
-0.443335
-0.387986
-0.319893
-0.26437
-0.222146
-0.190656
-0.164595
-0.141923
-0.325305
-0.371168
-0.373768
-0.33517
-0.286192
-0.242046
-0.204975
-0.174619
-0.148098
-0.12499
-0.244912
-0.286606
-0.292946
-0.270733
-0.241098
-0.21073
-0.181913
-0.15573
-0.130863
-0.108183
-0.167489
-0.208556
-0.221069
-0.21312
-0.198389
-0.177997
-0.157344
-0.135082
-0.113542
-0.0914852
-0.147755
-0.166212
-0.16775
-0.162118
-0.148344
-0.133467
-0.114951
-0.0961869
-0.0759138
-0.107085
-0.126229
-0.134426
-0.131421
-0.123626
-0.11111
-0.0965335
-0.0794416
-0.06142
-0.0980374
-0.108785
-0.106267
-0.102295
-0.0916315
-0.0794864
-0.0640953
-0.0477567
-0.0797619
-0.0863906
-0.0869509
-0.0827687
-0.0748828
-0.0639325
-0.0501471
-0.0351427
-0.0683437
-0.070261
-0.0658133
-0.0597115
-0.050059
-0.0377592
-0.0236445
-0.0548805
-0.0548571
-0.0517831
-0.0457076
-0.0376985
-0.0268435
-0.0135372
-0.0430226
-0.0420319
-0.0392665
-0.033655
-0.0261079
-0.0169757
-0.00479063
-0.0307676
-0.0278059
-0.0230246
-0.0155602
-0.00763431
0.00281501
-0.0207132
-0.0176169
-0.0130932
-0.00665907
0.0013471
0.0096974
-0.0119173
-0.00867438
-0.00412152
0.00148157
0.00910466
0.0164628
-1.22454
-1.17991
-1.10504
-1.00389
-0.889975
-0.779985
-0.681776
-0.592183
-0.507506
-0.419963
-1.19586
-1.14109
-1.05919
-0.959374
-0.846642
-0.735166
-0.641999
-0.565986
-0.50313
-0.436989
-1.20493
-1.15213
-1.06318
-0.952939
-0.831997
-0.713497
-0.620789
-0.550428
-0.502308
-0.457375
-1.1739
-1.08494
-0.969704
-0.840467
-0.709292
-0.605221
-0.532109
-0.491709
-0.455613
-0.711819
-0.592903
-0.513781
-0.468826
-0.436094
-0.576174
-0.488065
-0.433291
-0.40749
-0.444738
-0.379809
-0.362465
-0.311554
-0.294063
-0.211715
0.0226792
0.027971
0.0329663
0.0377341
0.0421475
0.0461009
0.0496192
0.0525423
0.0551453
0.0574069
0.0590892
0.0602905
0.0612357
0.0619184
0.0623696
0.0626628
0.0628154
0.0628594
0.062831
0.0627251
0.0625305
0.0622721
0.0619187
0.0615104
0.0611043
0.060679
0.0603022
0.0599538
0.059587
0.0594169
0.0158691
0.0227834
0.0297616
0.0358989
0.0412465
0.045862
0.0495196
0.0523822
0.0551331
0.0575085
0.0591366
0.0603694
0.0613899
0.0620375
0.0624287
0.0626774
0.0627496
0.062718
0.0626271
0.0624739
0.0622537
0.0619971
0.0616299
0.0612273
0.060833
0.0604084
0.0600324
0.0596826
0.0593476
0.0592018
0.00988352
0.018082
0.0262308
0.033638
0.04044
0.0457905
0.04929
0.0522405
0.0553965
0.0578062
0.0592849
0.0606232
0.061712
0.0622817
0.0626491
0.0628577
0.0628363
0.062732
0.062568
0.0623438
0.0620796
0.0618006
0.0613932
0.0609914
0.0605908
0.0601556
0.0597812
0.0594273
0.0591111
0.0589796
0.00460956
0.01435
0.0236176
0.0321524
0.0396881
0.0446415
0.0478012
0.051482
0.0552546
0.057469
0.0588792
0.0605011
0.0616184
0.0621545
0.0626121
0.0628337
0.0627966
0.0626893
0.0624918
0.0622144
0.0619304
0.0616222
0.0611788
0.0607953
0.0603764
0.0599294
0.0595549
0.0591904
0.0588809
0.0587537
4.52115e-05
0.00922549
0.0197791
0.0303704
0.0384336
0.0423869
0.0454035
0.0502861
0.0544004
0.0560484
0.0578175
0.0599023
0.0609097
0.0615248
0.0621737
0.0624318
0.0624594
0.0624189
0.0622436
0.0619596
0.0617047
0.0613616
0.0609178
0.0605778
0.0601414
0.059701
0.059332
0.0589586
0.058653
0.0585255
0.0566204
0.0588584
0.0596097
0.0605273
0.0613497
0.0616189
0.0618002
0.0618598
0.0617349
0.0615027
0.0613172
0.0609359
0.0605617
0.060276
0.0598379
0.0594366
0.059084
0.0587153
0.0584193
0.0582944
0.142103
0.129809
0.116504
0.104754
0.0918557
0.0779775
0.0640659
0.0494739
0.0376387
0.0261821
0.14555
0.133408
0.119839
0.106669
0.0920201
0.0768148
0.0621201
0.0463165
0.0330563
0.0213902
0.149322
0.136228
0.121255
0.10626
0.0900224
0.0733829
0.0581076
0.0418628
0.0274667
0.0153514
0.154073
0.138979
0.121968
0.104802
0.0870033
0.0689128
0.0528635
0.0368427
0.0212148
0.00814674
0.159148
0.141658
0.122319
0.103007
0.0837421
0.0643776
0.0470258
0.0309656
0.0146412
-7.13366e-05
0.163742
0.143799
0.122186
0.1008
0.0801571
0.0596691
0.0408833
0.0239115
0.0072764
-0.00899881
0.167525
0.14507
0.121312
0.097945
0.0759025
0.0543905
0.0342118
0.0159015
-0.00148225
-0.0187465
0.170345
0.145407
0.119609
0.0942424
0.0706618
0.0480676
0.0266117
0.00682767
-0.0115668
-0.0297663
0.172201
0.144673
0.116941
0.0895809
0.0641459
0.040358
0.0177451
-0.00334439
-0.0229729
-0.0420092
0.173175
0.142772
0.112922
0.0837148
0.0562659
0.0310596
0.00741095
-0.0147978
-0.0355161
-0.0556174
0.173118
0.139655
0.107211
0.0760571
0.0467432
0.0199425
-0.00456863
-0.027786
-0.0491515
-0.070453
0.171484
0.134816
0.0994924
0.066095
0.035071
0.00667167
-0.0186214
-0.0424977
-0.0642969
-0.0859698
0.167664
0.127487
0.0891774
0.0532841
0.0206161
-0.00907004
-0.0351171
-0.0591822
-0.0810834
-0.102442
0.161148
0.117012
0.0755477
0.0372286
0.00276475
-0.0277927
-0.054298
-0.0782417
-0.0995412
-0.120214
0.150945
0.102513
0.0574997
0.0169293
-0.0191397
-0.0504907
-0.0768416
-0.100096
-0.120168
-0.13945
0.13561
0.0827014
0.0339582
-0.00878729
-0.0458963
-0.0774573
-0.103275
-0.125165
-0.143513
-0.160723
0.113302
0.0552414
0.00273016
-0.0419252
-0.0788547
-0.109353
-0.133501
-0.153338
-0.170049
-0.185256
0.0828964
0.0189061
-0.0380033
-0.086146
-0.122337
-0.148584
-0.167039
-0.182157
-0.197574
-0.214212
0.041926
-0.0258809
-0.0854674
-0.135369
-0.172112
-0.193476
-0.201209
-0.203258
-0.211451
-0.239867
-0.0313277
-0.108863
-0.171419
-0.215284
-0.241238
-0.247759
-0.238111
-0.216736
-0.206316
-0.229594
0.195437
0.185681
0.172493
0.157399
0.209185
0.199653
0.187981
0.174178
0.158492
0.228904
0.22429
0.216668
0.205755
0.192756
0.178753
0.163154
0.234478
0.239902
0.241665
0.239622
0.234052
0.225619
0.213965
0.199965
0.185479
0.169566
0.247614
0.252844
0.254283
0.251752
0.245361
0.236084
0.223992
0.20918
0.193509
0.176438
0.262246
0.267383
0.268535
0.265652
0.258547
0.248127
0.235272
0.219489
0.202153
0.183229
0.2785
0.283721
0.284566
0.281207
0.273403
0.261616
0.247251
0.230065
0.210858
0.189556
0.296355
0.301748
0.302208
0.298045
0.289355
0.27615
0.259647
0.240451
0.219064
0.195151
0.31565
0.321167
0.321173
0.315877
0.305953
0.291199
0.272271
0.250477
0.226529
0.199928
0.336256
0.341753
0.341223
0.334564
0.322973
0.306407
0.284959
0.260211
0.233283
0.203883
0.358119
0.363431
0.362295
0.35418
0.340441
0.321635
0.29753
0.269632
0.239378
0.206895
0.381229
0.386237
0.384372
0.374767
0.358504
0.336954
0.30988
0.278576
0.244641
0.20863
0.405544
0.410199
0.407418
0.396239
0.377197
0.352427
0.321857
0.286716
0.24869
0.208691
0.430924
0.435229
0.431308
0.418302
0.396261
0.36784
0.333239
0.293688
0.250972
0.206453
0.457032
0.460995
0.455695
0.440476
0.415139
0.38246
0.343227
0.298781
0.250709
0.200969
0.483323
0.486982
0.480131
0.46214
0.433085
0.395488
0.350873
0.300859
0.246791
0.19108
0.508834
0.512202
0.503576
0.482307
0.449029
0.405682
0.354946
0.298454
0.237431
0.17524
0.532195
0.535352
0.524601
0.49946
0.461373
0.41175
0.3539
0.289902
0.220922
0.151606
0.550759
0.553916
0.540782
0.511033
0.466907
0.410237
0.344173
0.270664
0.193482
0.116348
0.562541
0.56562
0.55023
0.515982
0.464966
0.400203
0.322867
0.23579
0.146406
0.0545123
0.160184
0.183113
0.172279
0.159991
0.147644
0.136674
0.12765
0.119994
0.113322
0.107337
0.101877
0.0970022
0.0926644
0.0887251
0.0851751
0.0819936
0.0792006
0.0767855
0.0746928
0.0728589
0.0712172
0.0697512
0.0684573
0.0673289
0.0663531
0.0655045
0.0647756
0.0641648
0.0636677
0.0632737
0.062921
0.0625219
0.0628908
0.0626972
0.144539
0.134303
0.126001
0.118777
0.112315
0.106246
0.100555
0.0954786
0.0910329
0.0871512
0.083739
0.0806733
0.0779605
0.0755961
0.0735619
0.0717988
0.070242
0.0688748
0.067683
0.0666585
0.0657832
0.0650322
0.0643898
0.063851
0.0634229
0.0630927
0.0627936
0.0623932
0.0625468
0.0623274
0.137785
0.131443
0.125384
0.119351
0.113343
0.107391
0.101626
0.096185
0.0912391
0.0869303
0.0832329
0.0800334
0.0772727
0.0749038
0.0728903
0.0711476
0.0696157
0.0682725
0.0671153
0.0661373
0.065319
0.0646367
0.0640618
0.0635821
0.0632111
0.0629379
0.0626919
0.0622921
0.0621707
0.061926
0.125691
0.121767
0.118686
0.11445
0.109855
0.105198
0.10048
0.0957061
0.090984
0.0865472
0.0825812
0.0792061
0.0763972
0.0740884
0.0721841
0.0705471
0.069083
0.067776
0.0666415
0.0656829
0.0648907
0.0642487
0.0637211
0.0632892
0.0629637
0.0627406
0.0625509
0.0621638
0.0617944
0.0615265
0.110755
0.105565
0.103194
0.100035
0.0971695
0.0942313
0.0912498
0.0882277
0.0851632
0.0820693
0.0790432
0.0763141
0.0739844
0.0721082
0.0706109
0.0693195
0.0681194
0.0669946
0.065982
0.0651038
0.0643679
0.0637714
0.0632891
0.0629052
0.0626244
0.0624497
0.0623206
0.0619756
0.061449
0.0611661
0.0999304
0.0934785
0.089362
0.085407
0.0828324
0.0806753
0.0788158
0.0772055
0.0758206
0.0745233
0.0732067
0.0718681
0.0705677
0.0694437
0.0685095
0.0676773
0.0668425
0.0660028
0.0652027
0.0644692
0.0638233
0.0632793
0.0628328
0.0624832
0.0622354
0.0620961
0.0620163
0.061732
0.0611426
0.0608529
0.088982
0.0841893
0.0800795
0.0756094
0.0729747
0.0710908
0.0698971
0.0691399
0.068661
0.0683643
0.0681538
0.0679168
0.0675766
0.0671698
0.0667479
0.0663013
0.0657859
0.0652103
0.0646138
0.0640237
0.0634621
0.0629526
0.062512
0.0621571
0.0619034
0.0617608
0.0616937
0.061461
0.0608766
0.0605879
0.0765577
0.0745693
0.0733096
0.0703852
0.0683835
0.0665885
0.0656399
0.0652731
0.0652336
0.0653383
0.0655055
0.0656723
0.0657631
0.065755
0.0656472
0.0654602
0.0651879
0.0648118
0.0643679
0.0638816
0.0633748
0.0628767
0.0624171
0.0620166
0.0617102
0.0615148
0.0614103
0.0611957
0.0606473
0.060365
0.0632587
0.0622673
0.0632251
0.0630024
0.0634058
0.0631052
0.0631144
0.0632514
0.0635169
0.063845
0.0641868
0.0644836
0.0647185
0.0648701
0.0649404
0.064935
0.0648253
0.0646026
0.0642845
0.0638847
0.0634296
0.0629474
0.0624736
0.0620248
0.0616457
0.0613651
0.0611847
0.0609508
0.0604425
0.0601716
0.0505459
0.050914
0.0528049
0.0540261
0.0562372
0.0576091
0.0591107
0.0602474
0.0612173
0.0620637
0.062772
0.0633139
0.0637137
0.0640012
0.0642117
0.0643423
0.0643704
0.0642899
0.0640978
0.0638007
0.0634198
0.0629821
0.0625231
0.0620542
0.0616229
0.0612606
0.0609951
0.0607199
0.0602459
0.0599918
0.0403983
0.0417491
0.0441102
0.0461046
0.0492291
0.0520719
0.0546977
0.0567412
0.0584571
0.0598712
0.0610303
0.0619123
0.0625714
0.0630594
0.0634056
0.0636407
0.0637643
0.0637894
0.0637085
0.0635171
0.0632272
0.0628616
0.0624443
0.0619879
0.0615422
0.0611293
0.0607978
0.0604826
0.0600413
0.0598113
0.0301274
0.0340506
0.0379165
0.0411982
0.0447438
0.0481416
0.0513463
0.0540625
0.0563594
0.0582443
0.0597058
0.0607774
0.0616112
0.0622426
0.0626894
0.0629896
0.0631663
0.0632438
0.0632247
0.0631062
0.0628884
0.0625918
0.0622188
0.0617905
0.0613613
0.0609329
0.0605663
0.0602263
0.059821
0.0596206
)
;

boundaryField
{
    outlet
    {
        type            fixedValue;
        value           nonuniform 0();
    }
    upperWall
    {
        type            symmetryPlane;
    }
    lowerWall
    {
        type            symmetryPlane;
    }
    inlet
    {
        type            zeroGradient;
    }
    cylinder
    {
        type            zeroGradient;
    }
    frontAndBack
    {
        type            empty;
    }
    procBoundary1to0
    {
        type            processor;
        value           nonuniform List<scalar> 
45
(
0.202807
0.202807
0.190174
0.219078
0.215652
0.215652
0.222571
0.228142
0.230267
0.230267
0.158117
0.177313
0.169694
0.169694
0.190174
0.148956
0.138732
0.129646
0.121873
0.115163
0.109233
0.103855
0.0989232
0.0944259
0.0903126
0.0866443
0.083425
0.0806152
0.0781618
0.0759836
0.0740309
0.0722559
0.0706587
0.0692459
0.0680067
0.0669295
0.0659909
0.0651836
0.0645068
0.0639474
0.0634951
0.0630964
0.0627063
0.0631977
0.0630312
)
;
    }
    procBoundary1to2
    {
        type            processor;
        value           nonuniform List<scalar> 
63
(
-0.105664
-0.131052
-0.105664
-0.0647486
-0.0809609
-0.0809609
-0.0601828
-0.0644863
-0.0644863
-0.0505436
-0.0393817
-0.0322957
-0.0322957
-0.0221268
-0.0136523
-0.00342421
-1.22971
-1.22971
-1.20496
-1.11506
-0.996605
-0.857206
-0.857206
-0.709686
-0.709686
-0.543142
-0.543142
-0.381422
-0.381422
-0.232158
-0.232158
-0.131052
-0.00342421
0.00586989
0.0171624
0.0287382
0.036465
0.0388497
0.0429596
0.0494482
0.0528062
0.0538811
0.0538811
0.055714
0.0573947
0.0581187
0.0594931
0.0602791
0.060595
0.0609584
0.0610806
0.0610257
0.0609006
0.0607725
0.0603747
0.0601267
0.0598735
0.0594591
0.0591234
0.0587973
0.0584528
0.0581748
0.0580601
)
;
    }
    procBoundary1to5
    {
        type            processor;
        value           nonuniform List<scalar> 
20
(
-1.23518
-1.21317
-1.22506
0.224552
0.23752
0.251956
0.267825
0.285088
0.303708
0.323666
0.344922
0.367411
0.391025
0.415536
0.440583
0.465616
0.489539
0.511066
0.528031
0.538394
)
;
    }
}


// ************************************************************************* //
