/*--------------------------------*- C++ -*----------------------------------*\
| =========                 |                                                 |
| \\      /  F ield         | OpenFOAM: The Open Source CFD Toolbox           |
|  \\    /   O peration     | Version:                                        |
|   \\  /    A nd           | Website:  www.openfoam.com                      |
|    \\/     M anipulation  |                                                 |
\*---------------------------------------------------------------------------*/
FoamFile
{
    version     2.0;
    format      ascii;
    class       volScalarField;
    location    "191.5";
    object      p;
}
// * * * * * * * * * * * * * * * * * * * * * * * * * * * * * * * * * * * * * //

dimensions      [0 2 -2 0 0 0 0];


internalField   nonuniform List<scalar> 
1150
(
0.205432
0.211291
0.214592
0.215418
0.213665
0.209152
0.216024
0.221984
0.224861
0.224643
0.221438
0.227066
0.232888
0.235257
0.0651889
0.0655666
0.0658768
0.0661247
0.0663099
0.0664435
0.0665254
0.0665669
0.066571
0.0665542
0.0603581
0.0607997
0.0612879
0.0618194
0.0623903
0.0629922
0.0636243
0.0642809
0.0649748
0.0656468
0.0632127
0.0635648
0.063894
0.0642096
0.0645163
0.0648303
0.0651416
0.065464
0.0657938
0.0661531
0.063356
0.0638824
0.064404
0.0649119
0.0654115
0.0658889
0.0663515
0.0667766
0.0671854
0.0675591
0.0652213
0.0656935
0.0661262
0.0665231
0.0668735
0.06719
0.0674637
0.0677146
0.0679607
0.0682
0.0651819
0.0656358
0.0660999
0.0665643
0.067058
0.0675464
0.0680693
0.0685748
0.0690752
0.0695841
0.066808
0.0675896
0.0683402
0.0690657
0.0697353
0.0703595
0.0708958
0.0713539
0.071711
0.071977
0.0674317
0.0680342
0.0686029
0.0691165
0.0695949
0.0700168
0.0704365
0.0709125
0.0714266
0.072025
0.0689914
0.0694567
0.0699433
0.070483
0.0710698
0.071747
0.0724452
0.0732589
0.0739595
0.0747915
0.0706085
0.0716545
0.0726587
0.0736183
0.0745172
0.0752665
0.0759142
0.0767746
0.0773675
0.078095
0.0724549
0.0734157
0.0743065
0.0750777
0.0757384
0.0762762
0.076691
0.077063
0.0783165
0.079152
0.0741911
0.0749313
0.0757105
0.0765243
0.0774015
0.0783837
0.079414
0.0805851
0.0816652
0.0829489
0.0768165
0.0785658
0.079791
0.0810114
0.0822122
0.0833605
0.0842624
0.085113
0.0857431
0.0867165
0.0796243
0.0810592
0.0823878
0.0835617
0.0845997
0.0855812
0.0864435
0.0874237
0.0882538
0.0896975
0.0826012
0.0839054
0.0851659
0.0864185
0.0875136
0.0889158
0.0900666
0.0916147
0.0921939
0.0942156
0.0860676
0.0875741
0.0890733
0.0905064
0.091834
0.093147
0.0942283
0.0954508
0.0961475
0.0976989
0.0901655
0.0919551
0.0936622
0.0953035
0.0966536
0.0982354
0.0992331
0.100983
0.101726
0.10367
0.0945378
0.0964736
0.098274
0.0999826
0.101455
0.102945
0.104102
0.10544
0.106024
0.107542
0.0993481
0.101379
0.103282
0.10511
0.106636
0.108347
0.109417
0.11127
0.111916
0.114226
0.10465
0.106989
0.109064
0.111007
0.11264
0.114333
0.115557
0.11713
0.117629
0.119438
0.110498
0.113418
0.11555
0.117589
0.119206
0.120949
0.121837
0.123629
0.123518
0.125817
0.117038
0.120024
0.122395
0.12455
0.126179
0.127885
0.128749
0.130318
0.130241
0.132182
0.124235
0.127223
0.129884
0.132187
0.133827
0.135529
0.136095
0.137689
0.136705
0.138708
0.131829
0.135491
0.138118
0.140468
0.142037
0.143597
0.143884
0.144978
0.143889
0.144813
0.140498
0.144154
0.147118
0.149541
0.15103
0.152376
0.152302
0.153043
0.150766
0.151471
0.149369
0.153952
0.156825
0.159218
0.160546
0.161533
0.16088
0.160686
0.157844
0.156312
0.159492
0.163919
0.167203
0.169641
0.170774
0.171297
0.170086
0.168798
0.164666
0.161883
0.169794
0.175121
0.178355
0.180647
0.181504
0.181262
0.17918
0.176423
0.170919
0.164924
0.181081
0.186967
0.190269
0.192381
0.192819
0.191714
0.188543
0.183919
0.176702
0.193535
0.19936
0.202835
0.204563
0.204212
0.20168
0.196817
0.0665095
0.0664772
0.0665098
0.0666072
0.0667695
0.0669934
0.0672813
0.0676261
0.0680179
0.0684425
0.0688839
0.0693202
0.0697369
0.0701386
0.0705364
0.0709319
0.071322
0.0716975
0.0720465
0.0723616
0.0726301
0.0728446
0.0730032
0.073111
0.0731706
0.0731902
0.0731677
0.0730976
0.07295
0.0729054
0.0662695
0.0668681
0.0674415
0.0679861
0.0684829
0.0689123
0.0692526
0.0694604
0.0696334
0.0698103
0.0700331
0.0703166
0.070642
0.0709855
0.0713239
0.0716499
0.0719562
0.0722398
0.0724982
0.0727271
0.0729186
0.0730646
0.0731709
0.0732326
0.0732546
0.0732419
0.0731966
0.0731298
0.0729557
0.0729115
0.0664864
0.0667987
0.0671277
0.0675055
0.067945
0.0684461
0.0689903
0.0695543
0.0700734
0.0705069
0.0708287
0.0711194
0.0714201
0.0717121
0.0719934
0.0722623
0.072513
0.0727329
0.0729224
0.0730732
0.0731891
0.0732679
0.073315
0.073326
0.0733077
0.0732573
0.0731883
0.073114
0.072961
0.0729155
0.0679232
0.068308
0.0686982
0.069071
0.0694231
0.069751
0.0700494
0.0703449
0.0706731
0.0710145
0.0713457
0.0716523
0.0719363
0.0722032
0.0724657
0.0727147
0.0729412
0.0731329
0.0732811
0.0733839
0.073443
0.0734654
0.0734541
0.0734122
0.0733444
0.0732516
0.0731514
0.0730649
0.0729466
0.0729035
0.0683846
0.0685812
0.0688505
0.0692042
0.069648
0.0701642
0.0707374
0.0712962
0.0717755
0.0721997
0.0725737
0.0729023
0.0731653
0.0733835
0.0735673
0.0737304
0.0738591
0.0739421
0.0739688
0.0739462
0.0738844
0.0738002
0.073694
0.0735695
0.0734246
0.0732748
0.0731229
0.0730074
0.0729107
0.0728651
0.0699967
0.0704046
0.0708301
0.0712498
0.0716137
0.0719198
0.0721616
0.0724065
0.0727054
0.0730385
0.0733866
0.0737219
0.0740196
0.0742559
0.074427
0.0745388
0.074592
0.0745852
0.0745219
0.0743986
0.0742388
0.0740581
0.0738637
0.0736589
0.0734558
0.0732571
0.0730671
0.0729262
0.0728351
0.0727853
0.0721127
0.0721992
0.0723613
0.0725934
0.0728976
0.073248
0.0735663
0.0737612
0.0738307
0.0738777
0.073929
0.0740179
0.0741547
0.0743186
0.0744927
0.0746541
0.0747696
0.0748153
0.0747709
0.0746504
0.0744784
0.0742604
0.0740035
0.0737339
0.0734672
0.0732099
0.0729855
0.0728113
0.0727092
0.0726505
0.0724169
0.0728948
0.0734299
0.074006
0.0745573
0.0750333
0.0754535
0.0758877
0.0762851
0.0766019
0.076793
0.0768545
0.0768022
0.0766685
0.0764885
0.076298
0.0761057
0.0758906
0.0756315
0.0753355
0.0750111
0.0746618
0.0743014
0.0739367
0.0735718
0.073233
0.0729386
0.0727033
0.07256
0.0724781
0.0752127
0.0753897
0.075586
0.0758565
0.0761864
0.0765428
0.0768413
0.0770524
0.0772945
0.0775661
0.07786
0.0781183
0.0782806
0.0782844
0.0781297
0.0778285
0.077421
0.0769516
0.0764641
0.0759655
0.0754551
0.0749508
0.0744688
0.0740055
0.0735776
0.0731904
0.0728452
0.0725702
0.072384
0.0722804
0.0784381
0.0787691
0.0791327
0.0793433
0.0794144
0.0793788
0.0793218
0.0792327
0.0790083
0.0786925
0.0783448
0.0780693
0.0778989
0.0778282
0.0777938
0.0777132
0.0775167
0.0771831
0.0767412
0.076233
0.0756927
0.0751318
0.0745592
0.0740073
0.0735062
0.0730625
0.0726792
0.0723792
0.0721632
0.072046
0.0795425
0.0798697
0.0801108
0.0804521
0.0809074
0.0813814
0.0818399
0.0822715
0.0825791
0.0826633
0.0824436
0.0819135
0.0811695
0.0803295
0.0795285
0.0788489
0.0782874
0.0777612
0.0772007
0.076598
0.0759728
0.0753329
0.0746952
0.0740752
0.0734908
0.0729681
0.0725212
0.0721716
0.071918
0.0717843
0.0835508
0.0839276
0.0841984
0.0843401
0.0842394
0.0840148
0.0837271
0.0834501
0.0832824
0.08331
0.0834593
0.0835814
0.0834637
0.0829787
0.0821437
0.0810732
0.0799342
0.0788898
0.0779571
0.0770995
0.0762717
0.0754753
0.0747283
0.0740368
0.0734001
0.0728331
0.0723443
0.0719546
0.0716686
0.0715198
0.086788
0.086672
0.0866824
0.0867654
0.0869744
0.0871957
0.0872384
0.0869731
0.0863611
0.0854918
0.0845667
0.0838143
0.0833116
0.0829532
0.0825309
0.0818801
0.0809394
0.0798124
0.0786622
0.0775703
0.0765506
0.0755996
0.0747211
0.0739255
0.0732182
0.072613
0.0721019
0.0716981
0.0714007
0.0712482
0.0904475
0.0908001
0.09089
0.0907466
0.0903753
0.0898658
0.0895228
0.0893649
0.0892273
0.0888011
0.0878957
0.086575
0.0850852
0.0836677
0.0825048
0.0815868
0.080754
0.079841
0.0788038
0.0777005
0.0766104
0.0755823
0.0746314
0.0737637
0.0729961
0.0723452
0.0718094
0.0714021
0.0711053
0.0709599
0.0943882
0.0939683
0.0939368
0.0939664
0.0938348
0.0933301
0.0924998
0.0914955
0.0905235
0.0898232
0.0892308
0.0885112
0.0873654
0.085808
0.0840926
0.0824502
0.0810292
0.0798263
0.0787106
0.0776108
0.0765167
0.0754622
0.0744713
0.0735651
0.0727583
0.0720677
0.0715059
0.0710916
0.0707957
0.0706605
0.0980298
0.098171
0.0981329
0.0977071
0.0972163
0.0968421
0.0963489
0.0954629
0.0941427
0.0925609
0.0909939
0.0896983
0.088563
0.0873589
0.0858599
0.0840924
0.0822616
0.0805386
0.0790062
0.0776523
0.0764258
0.0752998
0.0742617
0.0733237
0.0724913
0.0717767
0.0711984
0.0707808
0.0704903
0.0703649
0.104119
0.102897
0.102316
0.101644
0.100646
0.0993976
0.0981626
0.0970913
0.0959887
0.0945666
0.0927735
0.0908394
0.0890706
0.087589
0.086191
0.084681
0.0829762
0.0811554
0.0793966
0.0777879
0.0763695
0.0751137
0.0739954
0.073014
0.0721592
0.071436
0.0708591
0.0704547
0.0701892
0.0700775
0.107085
0.106562
0.106207
0.105524
0.10456
0.103221
0.101549
0.0997256
0.0978781
0.096092
0.0941954
0.0920652
0.0898227
0.0876946
0.0858466
0.084229
0.0826703
0.0810512
0.0793777
0.0777481
0.0762505
0.0749005
0.0737143
0.0726831
0.0717978
0.0710628
0.0704884
0.0701043
0.0698867
0.0697909
0.114664
0.112953
0.111727
0.110287
0.108693
0.106915
0.104933
0.102629
0.100147
0.0977434
0.0954511
0.0931786
0.0907945
0.0882944
0.0858895
0.0837712
0.0819715
0.0803701
0.0788329
0.0773385
0.0758978
0.0745614
0.0733682
0.0723204
0.0714224
0.0706784
0.0701032
0.0697359
0.0695836
0.0695012
0.118069
0.116503
0.115184
0.113532
0.111515
0.109384
0.107162
0.104703
0.102027
0.0992536
0.0965586
0.0940462
0.0916292
0.0891584
0.086604
0.0841178
0.0818812
0.0799562
0.0782911
0.0768006
0.0754151
0.0741355
0.0729731
0.0719411
0.0710493
0.070305
0.0697266
0.0693661
0.069291
0.0692132
0.124759
0.122312
0.119952
0.117368
0.114549
0.111675
0.108781
0.105945
0.103132
0.100206
0.0972709
0.0944698
0.0918673
0.0894437
0.0870724
0.0846387
0.0822283
0.080013
0.0780755
0.0764144
0.0749678
0.073688
0.0725453
0.0715384
0.0706672
0.069936
0.0693608
0.0690009
0.0690158
0.0689347
0.130571
0.12792
0.125074
0.121957
0.118676
0.115141
0.111337
0.107628
0.1041
0.100741
0.0975395
0.0944385
0.091532
0.0889221
0.0865987
0.0843935
0.0821764
0.0799808
0.0779442
0.0761505
0.0746057
0.073273
0.0721177
0.0711216
0.0702697
0.0695592
0.0689957
0.068636
0.0687553
0.0686669
0.135737
0.132093
0.128267
0.124383
0.12069
0.116913
0.113108
0.109258
0.105316
0.101515
0.0978981
0.0944473
0.0911978
0.0882211
0.0856234
0.0833917
0.0813763
0.0794162
0.0775303
0.0757794
0.0742192
0.0728582
0.0716929
0.0707011
0.0698664
0.0691773
0.0686293
0.0682685
0.0685014
0.068404
0.142081
0.137638
0.132795
0.127914
0.122877
0.117967
0.113533
0.109348
0.105344
0.101507
0.0977991
0.0942601
0.0908709
0.0876847
0.0847927
0.0823148
0.0802408
0.0784283
0.0767584
0.0751806
0.0737177
0.0724031
0.0712621
0.070288
0.0694735
0.0688051
0.0682717
0.0679044
0.068248
0.0681389
0.146139
0.140309
0.13492
0.129494
0.124081
0.118916
0.113973
0.109235
0.104859
0.100824
0.0970828
0.0935995
0.0903105
0.087176
0.0842251
0.0815795
0.0793259
0.077457
0.0758631
0.0744246
0.0730954
0.0718836
0.0708091
0.0698803
0.069099
0.0684562
0.0679367
0.0675555
0.0679921
0.067867
0.151088
0.144338
0.137218
0.13048
0.124399
0.118926
0.113734
0.108758
0.104104
0.0998013
0.0959116
0.0924255
0.0892731
0.0863627
0.0836055
0.0810276
0.0787113
0.076737
0.0750891
0.0736822
0.072442
0.07133
0.0703374
0.0694742
0.0687412
0.0681343
0.0676334
0.067234
0.0677316
0.0675863
0.15415
0.146038
0.138248
0.130915
0.124385
0.118546
0.11315
0.108099
0.103332
0.0988348
0.0947409
0.0910948
0.0879296
0.0851479
0.0826246
0.0802801
0.0780963
0.0761391
0.0744521
0.0730271
0.071821
0.0707756
0.0698588
0.0690668
0.0683937
0.0678354
0.0673626
0.066947
0.0674604
0.067293
0.155957
0.146038
0.136908
0.129217
0.12259
0.116598
0.111138
0.106221
0.101648
0.0973314
0.0932987
0.0896279
0.0864192
0.0836497
0.0812636
0.0791426
0.0771925
0.075405
0.0737976
0.072407
0.0712329
0.0702369
0.0693846
0.0686606
0.0680548
0.0675559
0.0671236
0.0666991
0.0671691
0.0669798
)
;

boundaryField
{
    outlet
    {
        type            fixedValue;
        value           nonuniform 0();
    }
    upperWall
    {
        type            symmetryPlane;
    }
    lowerWall
    {
        type            symmetryPlane;
    }
    inlet
    {
        type            zeroGradient;
    }
    cylinder
    {
        type            zeroGradient;
    }
    frontAndBack
    {
        type            empty;
    }
    procBoundary0to1
    {
        type            processor;
        value           nonuniform List<scalar> 
45
(
0.201954
0.215301
0.201954
0.23411
0.215301
0.229665
0.239051
0.244603
0.23411
0.246505
0.167247
0.190084
0.167247
0.179548
0.190084
0.15534
0.144505
0.135137
0.127408
0.12069
0.114498
0.108827
0.103759
0.0992078
0.0950963
0.0913238
0.0878458
0.0847308
0.0819981
0.0796732
0.0776905
0.0759599
0.0744041
0.0729852
0.0717224
0.0706321
0.0697065
0.0689237
0.0682685
0.0677347
0.0673025
0.0669208
0.0664959
0.0668463
0.0666363
)
;
    }
    procBoundary0to4
    {
        type            processor;
        value           nonuniform List<scalar> 
33
(
0.197351
0.207004
0.217514
0.0647448
0.0599652
0.0628335
0.0628243
0.0647245
0.0647222
0.0660173
0.0668042
0.0685038
0.0695251
0.0714433
0.0734555
0.0755415
0.0780954
0.0812854
0.0844969
0.0883068
0.0924891
0.0971357
0.102245
0.107895
0.114012
0.120793
0.128151
0.136262
0.144869
0.154284
0.164277
0.175095
0.186662
)
;
    }
}


// ************************************************************************* //
