/*--------------------------------*- C++ -*----------------------------------*\
| =========                 |                                                 |
| \\      /  F ield         | OpenFOAM: The Open Source CFD Toolbox           |
|  \\    /   O peration     | Version:                                        |
|   \\  /    A nd           | Website:  www.openfoam.com                      |
|    \\/     M anipulation  |                                                 |
\*---------------------------------------------------------------------------*/
FoamFile
{
    version     2.0;
    format      ascii;
    class       surfaceScalarField;
    location    "110.3";
    object      phi;
}
// * * * * * * * * * * * * * * * * * * * * * * * * * * * * * * * * * * * * * //

dimensions      [0 3 -1 0 0 0 0];
oriented        oriented;


internalField   nonuniform List<scalar> 
2194
(
0.0218317
0.019217
0.0267012
0.0210708
-0.026008
0.0309061
0.0218032
0.0309263
-0.0254332
0.0342427
0.0220965
0.0320027
-0.0250105
0.0375132
0.02174
-0.0262962
0.0332884
0.0325994
-0.0246353
0.0399384
0.0222101
-0.0266447
0.0352977
0.0353569
-0.0246328
0.0425906
0.0219806
-0.027524
0.0381889
0.0376994
-0.0252097
0.0443662
0.0234341
-0.028767
0.0417462
-0.0304252
0.0393577
0.0337623
-0.0258395
0.0465953
0.0236104
-0.0298579
0.0457646
-0.0310989
0.0405987
0.0357451
-0.0283605
0.0245838
0.0503721
-0.030997
0.0484011
-0.0323785
0.0419802
0.0378471
0.00412995
-0.0159745
0.00456179
-0.0160443
0.000691954
-0.0155441
-0.0034342
-0.0143191
-0.00766302
-0.0120413
-0.0124183
0.00506293
-0.0126401
0.000913699
-0.0125664
-0.00350784
-0.0120176
-0.00821188
-0.0105866
-0.0134723
-0.0185208
-0.00797545
0.00598896
-0.00871739
0.00165564
-0.00923528
-0.00298995
-0.00943452
-0.00801263
-0.00888757
-0.0140192
-0.00716829
-0.0202401
-0.0240138
-0.00295635
0.00753802
-0.0043721
0.0030714
-0.00547048
-0.00189158
-0.00621468
-0.00726843
-0.00645689
-0.013777
-0.00573441
-0.0209626
-0.00428855
-0.0254596
-0.0243648
0.00163674
0.00950356
-0.000225165
0.0049333
-0.0018402
-0.000276544
-0.00318965
-0.00591898
-0.00417522
-0.0127914
-0.00448512
-0.0206527
-0.00430369
-0.0256411
-0.00454957
-0.0241189
-0.0163288
0.00680744
0.0121732
0.00433153
0.00740921
0.00221015
0.00184484
0.000365704
-0.00407453
-0.00128124
-0.0111445
-0.00284477
-0.0190891
-0.00420593
-0.0242799
-0.0061931
-0.0221317
-0.010205
-0.012317
0.00234622
0.0142781
0.0158365
0.0108332
0.0108541
0.00777152
0.00490655
0.00478629
-0.00108931
0.00182734
-0.00818553
-0.000828436
-0.0164334
-0.00371757
-0.0213908
-0.00733682
-0.0185125
-0.0128317
-0.00682206
0.00873151
0.0230603
0.0198398
0.0184813
0.0154331
0.0141495
0.00923834
0.0100322
0.00302802
0.00552998
-0.0036833
0.000950854
-0.0118542
-0.00320644
-0.0172335
-0.00795213
-0.0137668
-0.0143927
-0.00038146
0.0154096
0.030652
0.0230051
0.026314
0.019771
0.0211128
0.0144395
0.015795
0.00834582
0.0102823
0.00182948
0.00327316
-0.00484513
-0.00338913
-0.0105712
-0.00844965
-0.00870624
-0.0148501
0.00601901
0.0223626
0.0350114
0.0253491
0.031235
0.0235474
0.0260996
0.0195749
0.0197204
0.0147251
0.0130445
0.00850531
0.00774568
0.000453729
0.00216432
-0.00498985
-0.00627493
-0.000266992
-0.0154425
0.0151866
0.0290166
0.0374304
0.0268078
0.0342859
0.0266919
0.0291426
0.0247182
0.0229204
0.0209473
0.0156413
0.0157843
0.00722155
0.00887352
-0.000704109
0.0029358
-0.00793988
0.00696878
-0.0151396
0.0223863
0.035617
0.0379238
0.0277839
0.0355721
0.0290436
0.0315268
0.0287635
0.0257068
0.0267673
0.0176202
0.023871
0.00975857
0.0167351
0.00267193
0.0100224
-0.00627069
0.0159114
-0.015949
0.0320647
0.0418781
0.0385746
0.0287537
0.0357055
0.0319127
0.0318617
0.0326073
0.0266895
0.0319395
0.0205681
0.0299924
0.0143984
0.0229049
0.0048258
0.019595
-0.00709963
0.0278368
-0.0164062
0.0413712
0.0474525
0.0384247
0.0295459
0.0352948
0.0350426
0.0307729
0.0371292
0.0251792
0.0375332
0.0191857
0.0359859
0.0113829
0.0307076
0.00134544
0.0296325
-0.00846002
0.0376423
-0.0174697
0.0503809
0.0534169
0.0377446
0.0305699
0.0347356
0.0380515
0.0311519
0.0407129
0.0277513
0.0409338
0.0238987
0.0398385
0.0165432
0.0380631
0.00476203
0.0414137
-0.00918685
0.0515912
-0.0201689
0.0613629
0.0568584
0.0392155
0.0320038
0.0355245
0.0417425
0.0311348
0.0451026
0.0269884
0.0450801
0.0208539
0.045973
0.0102186
0.0486984
-0.00328199
0.0549143
-0.015477
0.0637862
-0.0225589
0.0684449
0.0588832
0.06066
0.0321306
0.0576522
0.0447504
0.0516964
0.0510584
0.0442888
0.0524878
0.0363319
0.0539299
0.0274167
0.0576136
0.019029
0.063302
0.0129089
0.0699062
0.00899973
0.0723541
0.0611055
0.00677744
0.0571412
0.0333262
0.0544327
0.0474589
0.0486961
0.0567951
0.040801
0.0603829
0.0325688
0.0621621
0.0246487
0.0655337
0.0175809
0.0703698
0.0118261
0.0756611
0.00849161
0.0756885
0.063113
0.00648414
0.0400108
0.0357716
0.038188
0.0492817
0.0351256
0.0598574
0.0303482
0.0651603
0.0240651
0.0684452
0.0173929
0.0722058
0.0113511
0.0764116
0.00716486
0.0798473
0.00632744
0.076526
0.0638674
0.00557302
0.0111777
0.0379629
0.0107696
0.0496897
0.0105623
0.0600648
0.00895944
0.0667631
0.00590752
0.0714971
0.0024339
0.0756795
-0.00023911
0.0790846
-0.000127235
0.0797354
0.00255212
0.0738466
0.0632294
0.00319011
-0.0204745
0.040157
-0.0205314
0.0497466
-0.0192142
0.0587476
-0.0181178
0.0656667
-0.0172028
0.0705822
-0.0156913
0.074168
-0.0126299
0.0760232
-0.00744559
0.0745511
-0.00235606
0.0687571
0.0611267
-0.000253402
-0.0464505
0.0428303
-0.0463753
0.0496714
-0.0437667
0.056139
-0.039886
0.061786
-0.0351213
0.0658175
-0.0292128
0.0682595
-0.0221831
0.0689935
-0.0145123
0.0668803
-0.00837092
0.0626157
0.057694
-0.00493822
-0.060613
0.0451932
-0.0600968
0.0491551
-0.0567149
0.0527571
-0.0513778
0.0564489
-0.0444449
0.0588846
-0.0365239
0.0603384
-0.0282495
0.0607191
-0.0203391
0.0589699
-0.0141311
0.0564077
0.0530239
-0.00946101
-0.0652694
0.0458871
-0.0633602
0.0472459
-0.0595164
0.0489132
-0.0542838
0.0512163
-0.0476215
0.0522223
-0.0402228
0.0529397
-0.0326488
0.0531452
-0.0254528
0.0517739
-0.0195462
0.0505011
0.0483241
-0.0148464
-0.0649843
0.0458515
-0.0625547
0.0448163
-0.0587445
0.045103
-0.0536379
0.0461097
-0.047891
0.0464755
-0.0414522
0.0465009
-0.0352966
0.0469895
-0.0295936
0.0460709
-0.0237156
0.0446231
0.0432266
-0.0186181
-0.0628427
0.0451613
-0.0607156
0.0426892
-0.0575492
0.0419366
-0.0530993
0.0416598
-0.048608
0.0419843
-0.0429551
0.040848
-0.0373765
0.0414109
-0.0326115
0.0413058
-0.0278559
0.0398675
0.0388716
-0.0235008
-0.0630403
0.0429444
-0.0600739
0.0397228
-0.0562356
0.0380983
-0.0517858
0.0372099
-0.047977
0.0381755
-0.0437286
0.0365996
-0.0389987
0.036681
-0.0339828
0.0362899
-0.0293122
0.035197
0.0349697
-0.0254104
-0.0671208
0.0395812
-0.062882
0.035484
-0.0575397
0.0327561
-0.0519855
0.0316557
-0.0470425
0.0332324
-0.0432265
0.0327837
-0.0398129
0.0332674
-0.0361641
0.0326411
-0.0321279
0.0311608
0.0311744
-0.0283326
-0.0709705
0.0350592
-0.0655852
0.0300987
-0.0595251
0.026696
-0.0533458
0.0254765
-0.0468949
0.0267815
-0.0416803
0.0275691
-0.0375972
0.0291843
-0.0347773
0.0298212
-0.0325772
0.0289607
0.0284175
-0.0298204
-0.069702
0.029739
-0.0635191
0.0239157
-0.0574535
0.0206304
-0.05191
0.019933
-0.0463228
0.0211943
-0.041404
0.0226504
-0.0368873
0.0246675
-0.0331173
0.0260512
-0.0307649
0.0266083
0.0263652
-0.0287125
-0.0600066
0.0249468
-0.0547905
0.0186997
-0.0497831
0.0156229
-0.0455688
0.0157187
-0.0417601
0.0173855
-0.0387304
0.0196207
-0.0358041
0.0217412
-0.0328516
0.0230988
-0.0303142
0.0240709
0.0241839
-0.0281329
-0.0339977
0.021447
-0.0313716
0.0160736
-0.0294433
0.0136946
-0.0285827
0.0148582
-0.0280344
0.0168372
-0.0280855
0.0196717
-0.0279231
0.0215788
-0.0274709
0.0226466
-0.0272391
0.0238391
0.0238641
-0.0269193
0.0010523
0.0217655
-0.00101268
0.0181385
-0.00416426
0.0168462
-0.00743654
0.0181305
-0.010351
0.0197517
-0.013032
0.0223528
-0.0153838
0.0239306
-0.0173764
0.0246392
-0.0192345
0.0256972
0.0253824
-0.0207528
0.0384677
0.0246617
0.0331857
0.0234206
0.0260595
0.0239723
0.0188079
0.0253821
0.0116974
0.0268622
0.00602051
0.0280296
0.00134516
0.0286059
-0.00301835
0.0290027
-0.00679553
0.0294744
0.0281696
-0.0095828
0.0630633
0.0298306
0.0563674
0.0301165
0.0486355
0.0317042
0.040804
0.0332136
0.0324093
0.0352569
0.0248375
0.0356015
0.0179409
0.0355025
0.0128005
0.0341431
0.00886624
0.0334086
0.0320651
0.00497075
0.0767333
0.0695735
0.061047
0.0519724
0.0433679
0.0351661
0.0274287
0.04324
0.0213962
0.0401755
0.0173272
0.0374776
0.0347983
0.014594
0.0358242
0.0261518
0.0192076
0.0162578
0.00450104
0.0586456
-0.0563692
0.00329774
0.062692
-0.0614887
0.00268097
0.0661937
-0.065577
0.00211088
0.0697843
-0.0692142
0.00167189
0.0739052
-0.0734662
0.00144242
0.0781451
-0.0779156
0.0011306
0.0823568
-0.0820449
0.000764889
0.0868995
-0.0865338
0.000589842
0.0918389
-0.0916639
0.000495518
0.0969485
-0.0968542
0.000401739
0.102451
-0.102357
0.000364556
0.108411
-0.108374
0.000363575
0.114752
-0.114751
0.000346457
0.121722
-0.121705
0.000342743
0.129393
-0.129389
0.000325364
0.137646
-0.137628
0.000285616
0.146359
-0.146319
0.000253579
0.155571
-0.155539
0.000243383
0.165485
-0.165475
0.000251676
0.176239
-0.176247
0.000252182
0.187935
-0.187935
0.000257313
0.200536
-0.200541
0.000248763
0.214025
-0.214016
0.000223436
0.228504
-0.228479
0.000197309
0.244002
-0.243975
0.000162485
0.260602
-0.260567
0.000123431
0.278396
-0.278357
8.19858e-05
0.297463
-0.297421
4.26892e-05
0.317951
-0.317912
0.339889
-0.339846
0.00462548
0.0605043
0.00327174
0.0640457
0.00238042
0.067085
0.00153475
0.0706299
0.000843048
0.0745969
0.000368685
0.0786194
-1.76465e-05
0.0827431
-0.000286204
0.087168
-0.000307358
0.0918601
-0.000242645
0.0968838
-0.000167815
0.102376
-1.13436e-05
0.108255
0.000127134
0.114613
0.000233651
0.121616
0.000304452
0.129322
0.000329054
0.137621
0.000301681
0.146386
0.000272475
0.155601
0.000263112
0.165494
0.000266976
0.176235
0.000265424
0.187936
0.000271321
0.20053
0.000256122
0.21404
0.000231096
0.228529
0.000203422
0.244029
0.000166438
0.260639
0.000127102
0.278436
8.47577e-05
0.297505
4.38517e-05
0.317992
0.339932
0.00354491
0.0625324
0.00229315
0.0652975
0.00145568
0.0679225
0.000880536
0.0712051
0.000572291
0.0749051
0.000370065
0.0788217
0.000149286
0.0829639
-2.44051e-05
0.0873417
-0.000107666
0.0919434
-0.000142555
0.0969187
-0.000105347
0.102339
-3.98065e-05
0.108189
2.76075e-05
0.114546
8.73647e-05
0.121556
0.000149542
0.12926
0.000186736
0.137584
0.000201791
0.146371
0.000203244
0.155599
0.000215587
0.165482
0.000226929
0.176224
0.000240719
0.187922
0.00025303
0.200518
0.000243252
0.21405
0.000226916
0.228546
0.000201428
0.244055
0.000166193
0.260674
0.000128268
0.278473
8.62647e-05
0.297547
4.4613e-05
0.318034
0.339977
0.00159626
0.0641262
0.000534971
0.0663588
-0.000361214
0.0688187
-0.000956356
0.0718002
-0.00143559
0.0753844
-0.00174435
0.0791304
-0.00188281
0.0831023
-0.00183788
0.0872968
-0.00166048
0.091766
-0.00139412
0.0966524
-0.00106911
0.102014
-0.000738295
0.107859
-0.000459056
0.114267
-0.000225291
0.121322
-4.7958e-05
0.129082
6.88366e-05
0.137467
0.000131146
0.146309
0.000168632
0.155562
0.000198086
0.165453
0.000219217
0.176203
0.000243819
0.187898
0.000253824
0.200508
0.000244866
0.214059
0.000229619
0.228561
0.00020288
0.244082
0.000167979
0.260709
0.000130166
0.278511
8.79683e-05
0.297589
4.54074e-05
0.318077
0.340023
-0.000940628
0.0648134
-0.00136852
0.0667867
-0.00158452
0.0690347
-0.00170216
0.0719179
-0.00159978
0.075282
-0.00147192
0.0790026
-0.00139223
0.0830226
-0.0012921
0.0871967
-0.00115237
0.0916262
-0.000981043
0.096481
-0.000768467
0.101801
-0.000571497
0.107662
-0.00039474
0.11409
-0.000244915
0.121173
-9.90367e-05
0.128937
1.00186e-05
0.137358
9.64696e-05
0.146222
0.000145301
0.155513
0.000179348
0.165419
0.000202782
0.176179
0.000229569
0.187871
0.000238787
0.200499
0.000236924
0.214061
0.000225026
0.228573
0.000199809
0.244107
0.000167416
0.260741
0.000130408
0.278548
8.86309e-05
0.297631
4.59765e-05
0.318119
0.340068
-0.00501145
0.0648867
-0.00489436
0.0666696
-0.00487828
0.0690186
-0.00496021
0.0719998
-0.00478302
0.0751048
-0.00457309
0.0787926
-0.00424405
0.0826936
-0.00376109
0.0867137
-0.00324813
0.0911133
-0.00269995
0.0959328
-0.00214976
0.101251
-0.00163293
0.107145
-0.00119541
0.113652
-0.000824881
0.120802
-0.000523446
0.128635
-0.000281945
0.137116
-0.000103411
0.146044
2.1751e-05
0.155388
0.000100997
0.165339
0.000162074
0.176118
0.000203201
0.18783
0.00022075
0.200481
0.000226093
0.214055
0.000216081
0.228583
0.000194041
0.244129
0.000164676
0.260771
0.000128741
0.278584
8.80322e-05
0.297672
4.58122e-05
0.318161
0.340114
-0.00821001
0.0636357
-0.00709668
0.0655563
-0.00623827
0.0681602
-0.00533302
0.0710945
-0.00457052
0.0743423
-0.00393064
0.0781527
-0.00333889
0.0821018
-0.00283029
0.0862051
-0.00237344
0.0906564
-0.00192828
0.0954877
-0.00152859
0.100852
-0.00117221
0.106788
-0.000884908
0.113365
-0.000627166
0.120544
-0.000398475
0.128406
-0.000189389
0.136907
-2.29653e-05
0.145877
8.10437e-05
0.155284
0.000138963
0.165281
0.000181346
0.176076
0.000206696
0.187804
0.000220799
0.200467
0.000223659
0.214053
0.000212382
0.228594
0.000191332
0.24415
0.000162953
0.260799
0.000127508
0.27862
8.76339e-05
0.297712
4.58088e-05
0.318203
0.34016
-0.0133723
0.0621617
-0.0118594
0.0640433
-0.010806
0.0671068
-0.00964411
0.0699327
-0.00860638
0.0733046
-0.00768918
0.0772355
-0.00665745
0.0810701
-0.00569658
0.0852443
-0.00478648
0.0897463
-0.00397035
0.0946716
-0.0032112
0.100092
-0.00255149
0.106129
-0.00198597
0.1128
-0.0015017
0.12006
-0.00108045
0.127985
-0.00069723
0.136524
-0.000380441
0.145561
-0.000161383
0.155065
-1.08358e-05
0.165131
8.71311e-05
0.175978
0.000144682
0.187747
0.000179969
0.200432
0.000194335
0.214038
0.000191326
0.228597
0.000177939
0.244163
0.000154351
0.260823
0.000122136
0.278652
8.48355e-05
0.297749
4.44877e-05
0.318244
0.340205
-0.0161588
0.0597024
-0.0134961
0.0613806
-0.0114627
0.0650735
-0.00961371
0.0680836
-0.00816041
0.0718513
-0.00677659
0.0758517
-0.00558962
0.0798831
-0.00456822
0.0842228
-0.00370432
0.0888824
-0.00294422
0.0939115
-0.00231472
0.0994629
-0.00178972
0.105604
-0.0013684
0.112378
-0.00100621
0.119698
-0.000678914
0.127658
-0.000376278
0.136222
-0.000131185
0.145316
2.32073e-05
0.15491
0.000113222
0.165041
0.000159799
0.175931
0.000185773
0.187721
0.000201877
0.200416
0.0002034
0.214037
0.000195055
0.228605
0.000178282
0.24418
0.000153149
0.260848
0.000121044
0.278684
8.42646e-05
0.297786
4.4237e-05
0.318284
0.340249
-0.0210996
0.0573011
-0.0183937
0.0586746
-0.0164904
0.0631702
-0.0141798
0.0657731
-0.0124104
0.0700818
-0.0104727
0.073914
-0.00875601
0.0781665
-0.0072741
0.0827409
-0.00601856
0.0876269
-0.00497243
0.0928653
-0.00408559
0.0985761
-0.00335879
0.104877
-0.00272139
0.111741
-0.00217079
0.119147
-0.00164043
0.127128
-0.00112636
0.135707
-0.000684734
0.144874
-0.000351829
0.154577
-0.000125917
0.164815
3.82079e-06
0.175802
8.37886e-05
0.187641
0.000130336
0.200369
0.000154459
0.214013
0.000162193
0.228598
0.000156945
0.244185
0.000139665
0.260865
0.000112886
0.278711
7.95984e-05
0.297819
4.2084e-05
0.318321
0.340291
-0.022318
0.0542088
-0.0189437
0.0553003
-0.0165968
0.0608233
-0.0139381
0.0631144
-0.0116552
0.067799
-0.00969319
0.071952
-0.00797363
0.0764469
-0.00646249
0.0812298
-0.00512655
0.0862909
-0.00400052
0.0917393
-0.00309832
0.0976739
-0.00236412
0.104143
-0.00179027
0.111167
-0.00131149
0.118669
-0.000901219
0.126717
-0.000524519
0.135331
-0.000227215
0.144577
-1.9379e-05
0.154369
9.04903e-05
0.164705
0.000140515
0.175752
0.000166111
0.187615
0.000176779
0.200359
0.000178394
0.214011
0.000172899
0.228603
0.00015991
0.244198
0.000138972
0.260886
0.000111754
0.278738
7.84747e-05
0.297852
4.1566e-05
0.318358
0.340332
-0.0254564
0.0513325
-0.0222224
0.0520663
-0.0197128
0.0583137
-0.0169382
0.0603399
-0.0146627
0.0655234
-0.0121226
0.0694119
-0.00995628
0.0742806
-0.00814319
0.0794167
-0.00668292
0.0848307
-0.00553282
0.0905892
-0.00462077
0.0967618
-0.00389646
0.103418
-0.00326445
0.110535
-0.00269323
0.118097
-0.00209871
0.126123
-0.00150477
0.134737
-0.000953197
0.144025
-0.000524461
0.153941
-0.000247129
0.164428
-8.40975e-05
0.175589
1.302e-05
0.187518
7.01687e-05
0.200302
0.000106661
0.213974
0.000124879
0.228585
0.00012861
0.244194
0.000119323
0.260895
9.95014e-05
0.278758
7.10833e-05
0.297881
3.82184e-05
0.318391
0.340371
-0.0262582
0.0477703
-0.0231355
0.0489436
-0.0204781
0.0556564
-0.0165847
0.0564464
-0.0143907
0.0633295
-0.0119559
0.0669771
-0.00997741
0.0723021
-0.00807592
0.0775152
-0.00635304
0.0831078
-0.0049087
0.0891449
-0.00372886
0.095582
-0.00278446
0.102474
-0.00205136
0.109802
-0.00147454
0.11752
-0.00101474
0.125663
-0.000613173
0.134335
-0.000292426
0.143704
-6.55227e-05
0.153714
5.33377e-05
0.164309
0.000108666
0.175533
0.000128352
0.187499
0.00013636
0.200294
0.000139243
0.213972
0.000138073
0.228586
0.00013061
0.244202
0.000116619
0.260909
9.5992e-05
0.278778
6.82863e-05
0.297909
3.67301e-05
0.318423
0.340407
-0.0249618
0.0440196
-0.0219659
0.0459477
-0.0201324
0.0538228
-0.0171519
0.053466
-0.0146275
0.0608051
-0.0119415
0.0642911
-0.00972613
0.0700867
-0.00786469
0.0756538
-0.00647983
0.0817229
-0.00539502
0.08806
-0.00458037
0.0947673
-0.00393887
0.101832
-0.0033919
0.109255
-0.00286949
0.116998
-0.00229158
0.125085
-0.00169551
0.133739
-0.0011098
0.143119
-0.000654917
0.153259
-0.000348645
0.164003
-0.000172177
0.175357
-6.56624e-05
0.187392
1.31479e-06
0.200227
4.83908e-05
0.213925
7.8504e-05
0.228556
9.18351e-05
0.244189
9.22836e-05
0.260909
8.0256e-05
0.27879
5.89223e-05
0.29793
3.2334e-05
0.318449
0.34044
-0.0244741
0.0403608
-0.0206644
0.0421381
-0.0173297
0.0504881
-0.0151376
0.0512738
-0.0129438
0.0586113
-0.0115737
0.062921
-0.00991023
0.0684232
-0.00826741
0.0740109
-0.00662115
0.0800767
-0.00514405
0.0865829
-0.00386271
0.093486
-0.00283226
0.100802
-0.00202231
0.108445
-0.00141739
0.116393
-0.000980459
0.124648
-0.000621168
0.13338
-0.00034316
0.142841
-0.000132557
0.153048
-1.46511e-05
0.163885
4.34998e-05
0.175299
6.36085e-05
0.187372
7.51072e-05
0.200215
8.35259e-05
0.213916
9.04835e-05
0.228549
9.20245e-05
0.244187
8.76382e-05
0.260913
7.49574e-05
0.278803
5.51729e-05
0.29795
3.01837e-05
0.318474
0.34047
-0.0245929
0.0380345
-0.0223143
0.0398594
-0.0183882
0.046562
-0.0158768
0.0487624
-0.0119902
0.0547246
-0.00925634
0.0601872
-0.0072495
0.0664163
-0.00588512
0.0726466
-0.00489111
0.0790827
-0.00415087
0.0858427
-0.0036247
0.0929598
-0.00317985
0.100357
-0.00281353
0.108079
-0.00242661
0.116006
-0.00198873
0.12421
-0.00152586
0.132917
-0.00104963
0.142364
-0.000665623
0.152664
-0.000396432
0.163616
-0.000237763
0.17514
-0.000133182
0.187267
-6.12911e-05
0.200143
-4.96938e-06
0.21386
3.41922e-05
0.22851
5.6461e-05
0.244165
6.54679e-05
0.260904
6.08548e-05
0.278808
4.67276e-05
0.297964
2.6257e-05
0.318495
0.340496
-0.0179256
0.0352072
-0.0162221
0.0381559
-0.0137052
0.0440452
-0.0125352
0.0475924
-0.0107321
0.0529216
-0.00922472
0.0586798
-0.00760767
0.0647993
-0.0062811
0.07132
-0.00518385
0.0779854
-0.00415895
0.0848178
-0.00318337
0.0919843
-0.00236876
0.0995425
-0.00167205
0.107382
-0.00116397
0.115498
-0.000832276
0.123879
-0.000586525
0.132671
-0.000409816
0.142188
-0.00024743
0.152502
-0.000137684
0.163506
-6.8425e-05
0.175071
-3.332e-05
0.187232
-7.83938e-06
0.200118
1.47035e-05
0.213837
3.44015e-05
0.22849
4.97058e-05
0.24415
5.61831e-05
0.260898
5.31945e-05
0.278811
4.15448e-05
0.297975
2.34939e-05
0.318513
0.34052
-0.0065003
0.0321247
-0.00407812
0.0357337
-0.00205235
0.0420194
-0.000804296
0.0463443
-0.000459853
0.0525771
-0.000535918
0.0587558
-0.000804722
0.0650681
-0.00106633
0.0715816
-0.00115113
0.0780702
-0.00126715
0.0849338
-0.00135176
0.0920689
-0.00134009
0.0995308
-0.00130817
0.10735
-0.00120539
0.115395
-0.00105645
0.12373
-0.000899882
0.132515
-0.000701467
0.141989
-0.000521555
0.152322
-0.000370649
0.163355
-0.000262962
0.174963
-0.000176481
0.187146
-0.000105005
0.200046
-4.5678e-05
0.213778
-1.79445e-06
0.228446
2.63453e-05
0.244121
4.12528e-05
0.260883
4.3571e-05
0.278808
3.5378e-05
0.297984
2.0714e-05
0.318527
0.34054
0.00575379
0.0313417
0.0062795
0.035208
0.00613839
0.0421605
0.00409104
0.0483917
0.00265105
0.0540171
0.00155045
0.0598564
0.000312382
0.0663062
-0.00058487
0.0724789
-0.0012924
0.0787778
-0.00161666
0.0852581
-0.00163547
0.0920877
-0.00147902
0.0993744
-0.00115838
0.107029
-0.000889036
0.115126
-0.000718619
0.123559
-0.000624213
0.13242
-0.000561373
0.141926
-0.000455627
0.152216
-0.000347646
0.163247
-0.000247744
0.174863
-0.000175782
0.187074
-0.000117523
0.199988
-6.91736e-05
0.21373
-2.83753e-05
0.228406
2.99429e-06
0.24409
2.30233e-05
0.260863
3.09014e-05
0.278801
2.74447e-05
0.297987
1.6739e-05
0.318538
0.340557
0.014986
0.0309497
0.0157369
0.0344571
0.0158058
0.0420916
0.0131673
0.0510302
0.00942754
0.0577569
0.00642924
0.0628547
0.00482446
0.0679109
0.00408093
0.0732224
0.00340936
0.0794493
0.00280688
0.0858606
0.00212312
0.0927714
0.00156336
0.0999341
0.00104849
0.107544
0.000702792
0.115472
0.00039467
0.123867
0.000111572
0.132703
-9.6055e-05
0.142134
-0.000226329
0.152347
-0.000256268
0.163277
-0.000230631
0.174837
-0.000175068
0.187018
-0.00011369
0.199927
-5.97927e-05
0.213676
-1.75629e-05
0.228363
9.61819e-06
0.244063
2.63181e-05
0.260846
3.2066e-05
0.278795
2.77898e-05
0.297991
1.69109e-05
0.318549
0.340574
0.0137694
0.0334381
0.0119097
0.0363168
0.0120973
0.0118159
0.00928595
0.00603467
0.00354897
0.00158565
0.000628717
-0.000110016
-0.000503611
-0.000733544
-0.000768791
-0.000759664
-0.00076876
-0.000798915
-0.000821883
-0.000746505
-0.000611299
-0.000459724
-0.000330547
-0.000226652
-0.000142317
-7.74745e-05
-2.88554e-05
2.1288e-06
1.78802e-05
1.98835e-05
1.31445e-05
0.00567305
0.0324079
0.0540998
0.0316232
0.057183
0.0309253
0.0606907
0.0302924
0.0643254
0.029662
0.0679365
0.0286577
0.0724133
0.0275409
0.0773253
0.0266051
0.0818643
0.0255321
0.0867433
0.0923813
0.0374235
0.0545235
0.0363177
0.0582887
0.034904
0.0621044
0.0336565
0.0655729
0.0325371
0.0690559
0.0312887
0.0736617
0.0304226
0.0781914
0.0298732
0.0824137
0.0289052
0.0877113
0.027891
0.0933955
0.0270099
0.0987332
0.0259564
0.104655
0.0248879
0.111239
0.0238987
0.11813
0.0228189
0.125622
0.0216781
0.133646
0.0205499
0.142076
0.0194055
0.151192
0.0182668
0.161081
0.0170985
0.171716
0.0158422
0.183164
0.0144969
0.195478
0.013076
0.208622
0.0115507
0.222691
0.00991858
0.23781
0.00818477
0.253987
0.00633262
0.27133
0.00435673
0.289929
0.00224946
0.309892
0.331299
0.0414314
0.0550723
0.0410088
0.0587113
0.0403248
0.0627884
0.0395722
0.0663255
0.0381906
0.0704375
0.0366154
0.0752369
0.0353934
0.0794134
0.0340787
0.0837284
0.0326488
0.0891412
0.0315412
0.0945031
0.0304783
0.0997961
0.0292875
0.105846
0.0282249
0.112301
0.0271699
0.119185
0.025997
0.126795
0.0247728
0.13487
0.0234846
0.143364
0.0221645
0.152512
0.0208465
0.162399
0.0194816
0.173081
0.0180416
0.184604
0.0165133
0.197007
0.0148931
0.210242
0.0131519
0.224432
0.0112965
0.239666
0.009322
0.255962
0.00721296
0.273439
0.0049644
0.292178
0.00256226
0.312294
0.333861
0.0466845
0.0567888
0.0446961
0.0606998
0.0431274
0.0643571
0.0418884
0.0675646
0.0406266
0.0716993
0.0395496
0.0763139
0.0385338
0.0804292
0.0372966
0.0849656
0.036117
0.0903209
0.0350178
0.0956022
0.0337527
0.101061
0.0324733
0.107125
0.0312805
0.113494
0.0300578
0.120408
0.0287817
0.128071
0.0274353
0.136216
0.0260154
0.144784
0.024574
0.153954
0.0231206
0.163853
0.0216196
0.174582
0.0200379
0.186186
0.018354
0.198691
0.0165587
0.212037
0.0146295
0.226361
0.0125745
0.241721
0.0103797
0.258156
0.00803404
0.275784
0.00553256
0.294679
0.00285478
0.314972
0.336716
0.0507917
0.0500028
0.0487829
0.0471333
0.0453664
0.0437647
0.042149
0.0405809
0.0392378
0.0379858
0.0366897
0.035441
0.0341845
0.0328869
0.0315686
0.0301564
0.0286215
0.0270357
0.0254133
0.0237478
0.0219984
0.0201475
0.0181685
0.0160506
0.0137959
0.0113853
0.00881248
0.00607012
0.00313007
)
;

boundaryField
{
    outlet
    {
        type            calculated;
        value           nonuniform 0();
    }
    upperWall
    {
        type            symmetryPlane;
        value           nonuniform 0();
    }
    lowerWall
    {
        type            symmetryPlane;
        value           uniform 0;
    }
    inlet
    {
        type            calculated;
        value           nonuniform 0();
    }
    cylinder
    {
        type            calculated;
        value           nonuniform 0();
    }
    frontAndBack
    {
        type            empty;
        value           nonuniform 0();
    }
    procBoundary2to1
    {
        type            processor;
        value           nonuniform List<scalar> 
63
(
-0.0161957
-0.0159571
-0.024853
-0.0259403
-0.0298909
-0.0270435
-0.0265095
-0.0303006
-0.028595
-0.0294021
-0.0298666
-0.0323163
-0.0318712
-0.0330817
-0.0344806
-0.0334153
-0.0036053
-0.0181409
-0.000622184
0.00293403
0.00643805
0.00993019
-0.012208
0.0159709
-0.0080367
0.0213038
-0.00445827
0.0229493
-0.00287313
0.0185217
-0.00674246
0.00340594
-0.0530924
-0.0563982
-0.0599928
-0.0636926
-0.0673061
-0.071409
-0.0762085
-0.0809286
-0.0856703
-0.0911518
0.0243026
-0.097852
-0.103602
-0.11017
-0.117141
-0.124542
-0.132505
-0.140948
-0.150048
-0.159942
-0.170548
-0.181908
-0.194133
-0.207201
-0.221165
-0.236178
-0.252253
-0.269477
-0.287953
-0.307785
-0.329049
)
;
    }
    procBoundary2to3
    {
        type            processor;
        value           nonuniform List<scalar> 
43
(
0.0352073
0.0372763
0.0402307
0.0422881
0.0438614
0.0438033
-0.0460865
0.0535023
0.0498479
0.0444218
0.0377482
-0.0129789
0.0419041
0.0513116
0.0602868
0.066106
0.0703966
0.0751857
0.0804063
0.0865993
0.093165
0.100164
0.10758
0.115463
0.123876
0.132734
0.142157
0.152271
0.163142
0.174686
0.186889
0.199823
0.213591
0.228298
0.244014
0.260815
0.278779
0.297989
0.318556
0.340587
0.040744
-0.000166333
0.0421562
)
;
    }
    procBoundary2to6
    {
        type            processor;
        value           nonuniform List<scalar> 
37
(
0.0176162
0.0155427
0.0119172
0.00704942
0.00140729
-0.00360228
-0.00947708
-0.0179414
-0.0270636
-0.0338172
-0.0373555
-0.038889
-0.0388999
-0.0395444
-0.0392168
-0.0387687
-0.0406494
-0.0607868
-0.0583369
-0.0424562
-0.013369
0.0182804
0.0437772
0.0582502
0.0645756
0.0650199
0.0635329
0.0652572
0.0704839
0.0754926
0.0750223
0.0647988
0.0374975
-0.00137081
-0.041364
-0.0682322
-0.08211
)
;
    }
}


// ************************************************************************* //
