/*--------------------------------*- C++ -*----------------------------------*\
| =========                 |                                                 |
| \\      /  F ield         | OpenFOAM: The Open Source CFD Toolbox           |
|  \\    /   O peration     | Version:                                        |
|   \\  /    A nd           | Website:  www.openfoam.com                      |
|    \\/     M anipulation  |                                                 |
\*---------------------------------------------------------------------------*/
FoamFile
{
    version     2.0;
    format      ascii;
    class       volScalarField;
    location    "563";
    object      p;
}
// * * * * * * * * * * * * * * * * * * * * * * * * * * * * * * * * * * * * * //

dimensions      [0 2 -2 0 0 0 0];


internalField   nonuniform List<scalar> 
1250
(
1.11482
1.11427
1.11308
1.11127
1.10889
1.10597
1.10254
1.09865
1.09435
1.08969
1.08471
1.07947
1.07402
1.0684
1.06265
1.05681
1.05092
1.04501
1.03909
1.0332
1.02736
1.02157
1.01585
1.01021
1.00466
0.9992
0.993835
0.988567
0.983395
0.97832
0.97334
0.968454
0.963659
0.958952
0.95433
0.949791
0.945331
0.940947
0.936635
0.932394
0.928219
0.924108
0.920057
0.916065
0.912128
0.908244
0.90441
0.900626
0.896887
0.893193
0.889541
0.88593
0.882358
0.878823
0.875324
0.87186
0.868428
0.865029
0.861661
0.858322
0.855012
0.85173
0.848474
0.845245
0.84204
0.83886
0.835703
0.832569
0.829457
0.826367
0.823297
0.820248
0.817219
0.814209
0.811218
0.808245
0.80529
0.802353
0.799432
0.796528
0.793641
0.790769
0.787913
0.785072
0.782246
0.779434
0.776637
0.773854
0.771084
0.768328
0.765585
0.762855
0.760138
0.757433
0.75474
0.75206
0.749391
0.746734
0.744088
0.741453
0.738829
0.736216
0.733614
0.731022
0.72844
0.725869
0.723308
0.720756
0.718214
0.715681
0.713158
0.710645
0.70814
0.705644
0.703157
0.700679
0.698209
0.695748
0.693295
0.69085
0.688413
0.685985
0.683564
0.681151
0.678746
1.11527
1.11472
1.11353
1.11172
1.10933
1.10639
1.10294
1.09902
1.09469
1.09
1.08499
1.07972
1.07424
1.0686
1.06282
1.05696
1.05105
1.04512
1.03919
1.03329
1.02743
1.02163
1.0159
1.01026
1.0047
0.999239
0.993871
0.9886
0.983427
0.978351
0.973371
0.968485
0.96369
0.958984
0.954363
0.949825
0.945365
0.940982
0.936672
0.932431
0.928257
0.924146
0.920097
0.916105
0.912169
0.908285
0.904453
0.900668
0.89693
0.893237
0.889585
0.885975
0.882403
0.878868
0.87537
0.871906
0.868475
0.865076
0.861708
0.858369
0.855059
0.851777
0.848521
0.845292
0.842087
0.838907
0.83575
0.832616
0.829504
0.826414
0.823344
0.820295
0.817266
0.814256
0.811265
0.808292
0.805337
0.802399
0.799479
0.796575
0.793687
0.790815
0.787959
0.785118
0.782292
0.77948
0.776683
0.7739
0.77113
0.768374
0.765631
0.762901
0.760183
0.757478
0.754785
0.752105
0.749436
0.746778
0.744132
0.741497
0.738874
0.73626
0.733658
0.731066
0.728484
0.725913
0.723351
0.7208
0.718258
0.715725
0.713202
0.710688
0.708183
0.705687
0.7032
0.700721
0.698252
0.69579
0.693337
0.690892
0.688456
0.686027
0.683606
0.681193
0.678788
1.11623
1.11566
1.11443
1.11257
1.11012
1.1071
1.10357
1.09957
1.09515
1.09037
1.08528
1.07993
1.07438
1.06866
1.06282
1.05691
1.05095
1.04498
1.03902
1.03309
1.02721
1.02139
1.01566
1.01
1.00444
0.998977
0.99361
0.988342
0.983173
0.978102
0.973128
0.968249
0.963461
0.958762
0.954148
0.949617
0.945165
0.940789
0.936486
0.932251
0.928084
0.923979
0.919936
0.915949
0.912018
0.90814
0.904312
0.900533
0.896799
0.893109
0.889462
0.885854
0.882286
0.878755
0.875259
0.871798
0.86837
0.864973
0.861608
0.858272
0.854964
0.851684
0.84843
0.845202
0.842
0.838821
0.835666
0.832533
0.829423
0.826334
0.823266
0.820218
0.81719
0.814181
0.811191
0.80822
0.805266
0.802329
0.79941
0.796507
0.79362
0.790749
0.787894
0.785053
0.782228
0.779417
0.776621
0.773838
0.771069
0.768314
0.765571
0.762842
0.760125
0.75742
0.754728
0.752048
0.74938
0.746723
0.744077
0.741443
0.73882
0.736207
0.733605
0.731014
0.728433
0.725862
0.7233
0.720749
0.718207
0.715675
0.713152
0.710639
0.708134
0.705639
0.703152
0.700674
0.698205
0.695744
0.693291
0.690846
0.68841
0.685982
0.683561
0.681149
0.678744
1.1177
1.11712
1.11584
1.11391
1.11136
1.10824
1.1046
1.10047
1.09593
1.09102
1.0858
1.08034
1.07467
1.06885
1.06293
1.05693
1.05091
1.04487
1.03886
1.03289
1.02698
1.02114
1.01539
1.00973
1.00416
0.998688
0.993321
0.988056
0.982892
0.977828
0.972861
0.96799
0.963211
0.958521
0.953917
0.949395
0.944953
0.940586
0.936291
0.932066
0.927906
0.92381
0.919774
0.915795
0.911871
0.907999
0.904177
0.900403
0.896675
0.89299
0.889348
0.885745
0.882181
0.878654
0.875162
0.871704
0.86828
0.864886
0.861524
0.85819
0.854885
0.851608
0.848357
0.845131
0.841931
0.838754
0.835601
0.83247
0.829362
0.826275
0.823208
0.820162
0.817135
0.814128
0.811139
0.808169
0.805216
0.802281
0.799362
0.79646
0.793575
0.790705
0.78785
0.785011
0.782187
0.779377
0.776581
0.773799
0.771031
0.768276
0.765535
0.762806
0.76009
0.757386
0.754694
0.752015
0.749347
0.746691
0.744046
0.741412
0.738789
0.736177
0.733576
0.730985
0.728404
0.725834
0.723273
0.720722
0.718181
0.715649
0.713127
0.710614
0.70811
0.705614
0.703128
0.70065
0.698181
0.695721
0.693268
0.690824
0.688388
0.68596
0.68354
0.681128
0.678723
1.11973
1.11911
1.11776
1.11573
1.11306
1.10979
1.10598
1.10168
1.09695
1.09186
1.08648
1.08084
1.07503
1.06907
1.06302
1.05692
1.0508
1.04469
1.03861
1.03259
1.02664
1.02077
1.01499
1.00931
1.00374
0.998264
0.992898
0.987638
0.982481
0.977427
0.972471
0.967612
0.962846
0.95817
0.953579
0.949071
0.944642
0.940288
0.936006
0.931792
0.927644
0.923559
0.919533
0.915564
0.91165
0.907787
0.903974
0.900208
0.896487
0.892809
0.889173
0.885577
0.882019
0.878498
0.875011
0.871559
0.868139
0.86475
0.861391
0.858062
0.854761
0.851487
0.848239
0.845017
0.841819
0.838646
0.835495
0.832367
0.829261
0.826176
0.823112
0.820068
0.817044
0.814038
0.811051
0.808083
0.805132
0.802198
0.799281
0.796381
0.793497
0.790628
0.787775
0.784937
0.782114
0.779306
0.776511
0.77373
0.770963
0.76821
0.765469
0.762741
0.760026
0.757324
0.754633
0.751954
0.749287
0.746632
0.743988
0.741355
0.738733
0.736122
0.733521
0.730931
0.728351
0.725781
0.723221
0.720671
0.71813
0.715599
0.713077
0.710565
0.708061
0.705567
0.703081
0.700604
0.698135
0.695675
0.693223
0.69078
0.688344
0.685917
0.683497
0.681085
0.678681
1.12234
1.12168
1.12024
1.11807
1.11523
1.11176
1.10772
1.10319
1.09823
1.09291
1.0873
1.08146
1.07544
1.06931
1.06311
1.05687
1.05063
1.04443
1.03827
1.03219
1.02619
1.02028
1.01448
1.00879
1.0032
0.997731
0.992369
0.987117
0.981972
0.97693
0.97199
0.967147
0.962398
0.957739
0.953165
0.948674
0.944261
0.939923
0.935657
0.931459
0.927325
0.923254
0.919241
0.915285
0.911382
0.90753
0.903727
0.899971
0.89626
0.892591
0.888964
0.885375
0.881824
0.87831
0.87483
0.871384
0.867969
0.864586
0.861233
0.857909
0.854612
0.851342
0.848099
0.844881
0.841687
0.838517
0.83537
0.832245
0.829142
0.82606
0.822999
0.819957
0.816935
0.813932
0.810948
0.807982
0.805033
0.802101
0.799186
0.796288
0.793406
0.790539
0.787688
0.784851
0.78203
0.779223
0.77643
0.77365
0.770885
0.768132
0.765393
0.762667
0.759953
0.757251
0.754562
0.751884
0.749218
0.746564
0.743921
0.741289
0.738668
0.736058
0.733458
0.730869
0.72829
0.725721
0.723162
0.720612
0.718072
0.715542
0.713021
0.710509
0.708006
0.705513
0.703028
0.700551
0.698083
0.695624
0.693173
0.69073
0.688295
0.685868
0.683449
0.681037
0.678634
1.12559
1.12488
1.12331
1.12097
1.1179
1.11417
1.10985
1.10502
1.09976
1.09414
1.08825
1.08215
1.07589
1.06955
1.06315
1.05675
1.05038
1.04406
1.03782
1.03166
1.02561
1.01967
1.01384
1.00813
1.00254
0.997073
0.991718
0.986478
0.981348
0.976324
0.971404
0.966581
0.961853
0.957215
0.952663
0.948193
0.943801
0.939483
0.935236
0.931056
0.92694
0.922885
0.918888
0.914946
0.911058
0.907219
0.903429
0.899685
0.895985
0.892327
0.888709
0.88513
0.881588
0.878082
0.87461
0.871171
0.867764
0.864387
0.86104
0.857722
0.854431
0.851166
0.847928
0.844714
0.841525
0.838359
0.835216
0.832095
0.828996
0.825918
0.82286
0.819822
0.816803
0.813803
0.810821
0.807857
0.804911
0.801982
0.79907
0.796174
0.793293
0.790429
0.78758
0.784745
0.781926
0.77912
0.776329
0.773552
0.770788
0.768037
0.765299
0.762575
0.759862
0.757162
0.754474
0.751798
0.749133
0.74648
0.743838
0.741208
0.738588
0.735979
0.73338
0.730792
0.728214
0.725646
0.723088
0.720539
0.718001
0.715471
0.712951
0.71044
0.707938
0.705445
0.702961
0.700486
0.698019
0.69556
0.693109
0.690667
0.688233
0.685807
0.683389
0.680978
0.678575
1.12956
1.12878
1.12705
1.12448
1.12112
1.11705
1.11237
1.10716
1.10152
1.09554
1.08931
1.08288
1.07634
1.06974
1.06313
1.05654
1.05002
1.04357
1.03723
1.03099
1.02489
1.01891
1.01306
1.00734
1.00175
0.996283
0.990942
0.985719
0.98061
0.97561
0.970714
0.965917
0.961216
0.956604
0.952077
0.947632
0.943265
0.93897
0.934746
0.930587
0.926492
0.922456
0.918478
0.914554
0.910682
0.906859
0.903083
0.899353
0.895666
0.89202
0.888414
0.884846
0.881314
0.877818
0.874355
0.870924
0.867525
0.864156
0.860816
0.857505
0.85422
0.850962
0.847729
0.844521
0.841337
0.838176
0.835038
0.831922
0.828827
0.825753
0.822698
0.819664
0.816649
0.813652
0.810674
0.807713
0.80477
0.801844
0.798934
0.796041
0.793163
0.790301
0.787454
0.784622
0.781805
0.779002
0.776213
0.773437
0.770675
0.767927
0.765191
0.762468
0.759757
0.757059
0.754372
0.751698
0.749035
0.746383
0.743743
0.741114
0.738495
0.735887
0.73329
0.730703
0.728126
0.72556
0.723003
0.720456
0.717918
0.71539
0.712871
0.710361
0.70786
0.705368
0.702885
0.70041
0.697944
0.695486
0.693037
0.690596
0.688162
0.685737
0.683319
0.68091
0.678507
1.13435
1.13347
1.13154
1.12866
1.12492
1.12043
1.11529
1.10961
1.10351
1.09708
1.09043
1.08363
1.07675
1.06985
1.06299
1.05619
1.04949
1.04291
1.03646
1.03016
1.02399
1.01798
1.01211
1.00639
1.0008
0.995353
0.990032
0.984833
0.979752
0.974782
0.969917
0.965152
0.960482
0.955901
0.951406
0.94699
0.942651
0.938384
0.934185
0.930052
0.92598
0.921967
0.91801
0.914106
0.910252
0.906447
0.902689
0.898974
0.895302
0.89167
0.888077
0.884521
0.881001
0.877515
0.874063
0.870642
0.867252
0.863892
0.86056
0.857256
0.853979
0.850728
0.847502
0.8443
0.841122
0.837967
0.834834
0.831723
0.828633
0.825563
0.822513
0.819483
0.816472
0.813479
0.810505
0.807548
0.804608
0.801685
0.798779
0.795889
0.793014
0.790155
0.787311
0.784481
0.781667
0.778866
0.776079
0.773306
0.770547
0.7678
0.765066
0.762345
0.759637
0.75694
0.754256
0.751583
0.748922
0.746272
0.743633
0.741006
0.738389
0.735783
0.733187
0.730602
0.728026
0.725461
0.722905
0.72036
0.717823
0.715296
0.712779
0.71027
0.70777
0.70528
0.702798
0.700324
0.697859
0.695403
0.692954
0.690514
0.688082
0.685657
0.683241
0.680832
0.678431
1.1401
1.1391
1.13689
1.13361
1.12938
1.12434
1.11861
1.11235
1.10567
1.09871
1.09156
1.08432
1.07705
1.06982
1.06268
1.05565
1.04877
1.04205
1.03549
1.02911
1.0229
1.01686
1.01099
1.00527
0.9997
0.994273
0.988981
0.983816
0.978771
0.973838
0.969011
0.964285
0.959652
0.955108
0.950648
0.946267
0.941961
0.937725
0.933556
0.929451
0.925406
0.921418
0.917485
0.913603
0.909771
0.905986
0.902246
0.898549
0.894893
0.891277
0.887698
0.884156
0.880649
0.877176
0.873735
0.870325
0.866945
0.863595
0.860272
0.856977
0.853708
0.850465
0.847246
0.844051
0.84088
0.837731
0.834604
0.831499
0.828414
0.82535
0.822305
0.81928
0.816273
0.813285
0.810315
0.807362
0.804426
0.801507
0.798604
0.795718
0.792846
0.78999
0.78715
0.784323
0.781511
0.778714
0.77593
0.773159
0.770402
0.767658
0.764927
0.762208
0.759502
0.756808
0.754125
0.751455
0.748796
0.746148
0.743511
0.740886
0.738271
0.735666
0.733072
0.730489
0.727915
0.725351
0.722797
0.720253
0.717718
0.715193
0.712677
0.71017
0.707671
0.705182
0.702701
0.700229
0.697765
0.69531
0.692863
0.690424
0.687993
0.68557
0.683154
0.680747
0.678346
)
;

boundaryField
{
    inlet
    {
        type            zeroGradient;
    }
    outlet
    {
        type            fixedValue;
        value           nonuniform 0();
    }
    wall
    {
        type            zeroGradient;
    }
    back
    {
        type            wedge;
    }
    front
    {
        type            wedge;
    }
    axis
    {
        type            empty;
    }
    procBoundary0to1
    {
        type            processor;
        value           nonuniform List<scalar> 10(0.676348 0.67639 0.676346 0.676326 0.676284 0.676237 0.676179 0.676113 0.676037 0.675954);
    }
    procBoundary0to4
    {
        type            processor;
        value           nonuniform List<scalar> 
125
(
1.14699
1.14582
1.14324
1.13942
1.13455
1.1288
1.12234
1.11535
1.10798
1.10037
1.09264
1.08488
1.07717
1.06957
1.06212
1.05485
1.04778
1.04092
1.03427
1.02783
1.02159
1.01553
1.00966
1.00396
0.998423
0.993032
0.987781
0.98266
0.977661
0.972774
0.967994
0.963313
0.958724
0.954223
0.949804
0.945462
0.941193
0.936993
0.932858
0.928784
0.924769
0.920809
0.916902
0.913046
0.909237
0.905474
0.901755
0.898077
0.89444
0.890841
0.887279
0.883752
0.880259
0.876799
0.873371
0.869973
0.866605
0.863265
0.859953
0.856667
0.853408
0.850173
0.846962
0.843775
0.840611
0.83747
0.83435
0.831251
0.828172
0.825114
0.822075
0.819055
0.816054
0.81307
0.810105
0.807156
0.804225
0.80131
0.798412
0.795529
0.792661
0.789809
0.786972
0.784149
0.781341
0.778546
0.775765
0.772998
0.770244
0.767502
0.764774
0.762058
0.759354
0.756663
0.753983
0.751315
0.748658
0.746013
0.743378
0.740755
0.738142
0.735539
0.732948
0.730366
0.727794
0.725232
0.72268
0.720138
0.717605
0.715081
0.712567
0.710061
0.707564
0.705077
0.702597
0.700127
0.697665
0.695211
0.692765
0.690327
0.687898
0.685476
0.683062
0.680655
0.678256
)
;
    }
}


// ************************************************************************* //
