/*--------------------------------*- C++ -*----------------------------------*\
| =========                 |                                                 |
| \\      /  F ield         | OpenFOAM: The Open Source CFD Toolbox           |
|  \\    /   O peration     | Version:                                        |
|   \\  /    A nd           | Website:  www.openfoam.com                      |
|    \\/     M anipulation  |                                                 |
\*---------------------------------------------------------------------------*/
FoamFile
{
    version     2.0;
    format      ascii;
    class       surfaceScalarField;
    location    "563";
    object      phi;
}
// * * * * * * * * * * * * * * * * * * * * * * * * * * * * * * * * * * * * * //

dimensions      [0 3 -1 0 0 0 0];
oriented        oriented;


internalField   nonuniform List<scalar> 
2365
(
4.35047e-07
-1.31048e-10
4.35461e-07
-4.14039e-10
4.36139e-07
-6.77665e-10
4.3707e-07
-9.31604e-10
4.38242e-07
-1.17171e-09
4.39636e-07
-1.39418e-09
4.41233e-07
-1.59647e-09
4.4301e-07
-1.77687e-09
4.44944e-07
-1.93437e-09
4.47013e-07
-2.0687e-09
4.49193e-07
-2.18017e-09
4.51462e-07
-2.26965e-09
4.53801e-07
-2.33842e-09
4.56189e-07
-2.38809e-09
4.58609e-07
-2.42046e-09
4.61047e-07
-2.43745e-09
4.63488e-07
-2.44101e-09
4.65921e-07
-2.43305e-09
4.68336e-07
-2.41542e-09
4.70726e-07
-2.38982e-09
4.73084e-07
-2.35782e-09
4.75405e-07
-2.32082e-09
4.77685e-07
-2.28007e-09
4.79921e-07
-2.23664e-09
4.82113e-07
-2.19143e-09
4.84258e-07
-2.14523e-09
4.86357e-07
-2.09867e-09
4.88409e-07
-2.05227e-09
4.90416e-07
-2.00643e-09
4.92377e-07
-1.96149e-09
4.94295e-07
-1.91767e-09
4.9617e-07
-1.87517e-09
4.98004e-07
-1.83409e-09
4.99798e-07
-1.79453e-09
5.01555e-07
-1.75653e-09
5.03275e-07
-1.72009e-09
5.0496e-07
-1.68521e-09
5.06612e-07
-1.65187e-09
5.08232e-07
-1.62002e-09
5.09822e-07
-1.58962e-09
5.11382e-07
-1.56062e-09
5.12915e-07
-1.53294e-09
5.14422e-07
-1.50654e-09
5.15903e-07
-1.48135e-09
5.17361e-07
-1.4573e-09
5.18795e-07
-1.43434e-09
5.20207e-07
-1.4124e-09
5.21599e-07
-1.39143e-09
5.2297e-07
-1.37137e-09
5.24322e-07
-1.35216e-09
5.25656e-07
-1.33377e-09
5.26972e-07
-1.31613e-09
5.28271e-07
-1.29921e-09
5.29554e-07
-1.28296e-09
5.30822e-07
-1.26734e-09
5.32074e-07
-1.25232e-09
5.33312e-07
-1.23786e-09
5.34536e-07
-1.22392e-09
5.35746e-07
-1.21049e-09
5.36944e-07
-1.19752e-09
5.38129e-07
-1.18499e-09
5.39302e-07
-1.17288e-09
5.40463e-07
-1.16117e-09
5.41613e-07
-1.14983e-09
5.42751e-07
-1.13884e-09
5.4388e-07
-1.12819e-09
5.44998e-07
-1.11785e-09
5.46105e-07
-1.10782e-09
5.47203e-07
-1.09807e-09
5.48292e-07
-1.08859e-09
5.49371e-07
-1.07938e-09
5.50442e-07
-1.0704e-09
5.51503e-07
-1.06167e-09
5.52557e-07
-1.05316e-09
5.53601e-07
-1.04486e-09
5.54638e-07
-1.03676e-09
5.55667e-07
-1.02887e-09
5.56688e-07
-1.02116e-09
5.57702e-07
-1.01363e-09
5.58708e-07
-1.00627e-09
5.59707e-07
-9.9908e-10
5.60699e-07
-9.92048e-10
5.61684e-07
-9.85168e-10
5.62663e-07
-9.78436e-10
5.63635e-07
-9.71845e-10
5.646e-07
-9.65391e-10
5.65559e-07
-9.59068e-10
5.66512e-07
-9.52872e-10
5.67459e-07
-9.46799e-10
5.684e-07
-9.40844e-10
5.69335e-07
-9.35003e-10
5.70264e-07
-9.29273e-10
5.71188e-07
-9.2365e-10
5.72106e-07
-9.18131e-10
5.73018e-07
-9.12711e-10
5.73926e-07
-9.07389e-10
5.74828e-07
-9.02161e-10
5.75725e-07
-8.97024e-10
5.76617e-07
-8.91976e-10
5.77504e-07
-8.87014e-10
5.78386e-07
-8.82135e-10
5.79264e-07
-8.77337e-10
5.80136e-07
-8.72618e-10
5.81004e-07
-8.67975e-10
5.81868e-07
-8.63406e-10
5.82726e-07
-8.5891e-10
5.83581e-07
-8.54485e-10
5.84431e-07
-8.50127e-10
5.85277e-07
-8.45837e-10
5.86118e-07
-8.41611e-10
5.86956e-07
-8.37448e-10
5.87789e-07
-8.33347e-10
5.88619e-07
-8.29306e-10
5.89444e-07
-8.25323e-10
5.90265e-07
-8.21397e-10
5.91083e-07
-8.17527e-10
5.91897e-07
-8.13711e-10
5.92706e-07
-8.09947e-10
5.93513e-07
-8.06235e-10
5.94315e-07
-8.02574e-10
5.95114e-07
-7.98961e-10
5.9591e-07
-7.95396e-10
5.96702e-07
-7.91878e-10
5.9749e-07
-7.88405e-10
-7.84977e-10
1.30516e-06
-5.38716e-10
1.30639e-06
-1.64671e-09
1.30843e-06
-2.71911e-09
1.31125e-06
-3.74711e-09
1.31479e-06
-4.71679e-09
1.31901e-06
-5.61441e-09
1.32384e-06
-6.4295e-09
1.32922e-06
-7.1551e-09
1.33507e-06
-7.78734e-09
1.34133e-06
-8.32524e-09
1.34792e-06
-8.77035e-09
1.35478e-06
-9.12637e-09
1.36184e-06
-9.39871e-09
1.36904e-06
-9.59399e-09
1.37634e-06
-9.71965e-09
1.38369e-06
-9.78357e-09
1.39104e-06
-9.79371e-09
1.39837e-06
-9.75788e-09
1.40564e-06
-9.68352e-09
1.41282e-06
-9.57755e-09
1.41991e-06
-9.44629e-09
1.42689e-06
-9.29537e-09
1.43374e-06
-9.12976e-09
1.44045e-06
-8.95375e-09
1.44703e-06
-8.77099e-09
1.45347e-06
-8.58454e-09
1.45977e-06
-8.39692e-09
1.46593e-06
-8.21017e-09
1.47195e-06
-8.02591e-09
1.47783e-06
-7.8454e-09
1.48358e-06
-7.66957e-09
1.48921e-06
-7.49913e-09
1.49471e-06
-7.33453e-09
1.50009e-06
-7.17608e-09
1.50536e-06
-7.02393e-09
1.51051e-06
-6.87812e-09
1.51557e-06
-6.7386e-09
1.52052e-06
-6.60526e-09
1.52538e-06
-6.47793e-09
1.53015e-06
-6.35642e-09
1.53483e-06
-6.2405e-09
1.53942e-06
-6.12992e-09
1.54394e-06
-6.02444e-09
1.54838e-06
-5.92379e-09
1.55275e-06
-5.82774e-09
1.55706e-06
-5.73602e-09
1.56129e-06
-5.6484e-09
1.56546e-06
-5.56465e-09
1.56958e-06
-5.48453e-09
1.57363e-06
-5.40785e-09
1.57763e-06
-5.33438e-09
1.58158e-06
-5.26395e-09
1.58548e-06
-5.19637e-09
1.58933e-06
-5.13148e-09
1.59313e-06
-5.06911e-09
1.59689e-06
-5.00911e-09
1.6006e-06
-4.95135e-09
1.60427e-06
-4.8957e-09
1.6079e-06
-4.84203e-09
1.6115e-06
-4.79023e-09
1.61505e-06
-4.74019e-09
1.61857e-06
-4.69182e-09
1.62205e-06
-4.64503e-09
1.6255e-06
-4.59972e-09
1.62892e-06
-4.55583e-09
1.63231e-06
-4.51327e-09
1.63566e-06
-4.47197e-09
1.63898e-06
-4.43188e-09
1.64228e-06
-4.39293e-09
1.64554e-06
-4.35506e-09
1.64878e-06
-4.31823e-09
1.652e-06
-4.28238e-09
1.65518e-06
-4.24747e-09
1.65834e-06
-4.21345e-09
1.66148e-06
-4.18029e-09
1.66459e-06
-4.14795e-09
1.66768e-06
-4.11639e-09
1.67074e-06
-4.08557e-09
1.67378e-06
-4.05548e-09
1.6768e-06
-4.02607e-09
1.6798e-06
-3.99733e-09
1.68278e-06
-3.96922e-09
1.68573e-06
-3.94172e-09
1.68867e-06
-3.9148e-09
1.69159e-06
-3.88845e-09
1.69448e-06
-3.86265e-09
1.69736e-06
-3.83737e-09
1.70022e-06
-3.8126e-09
1.70306e-06
-3.78832e-09
1.70589e-06
-3.7645e-09
1.70869e-06
-3.74115e-09
1.71148e-06
-3.71824e-09
1.71425e-06
-3.69575e-09
1.71701e-06
-3.67367e-09
1.71975e-06
-3.652e-09
1.72247e-06
-3.63071e-09
1.72518e-06
-3.6098e-09
1.72787e-06
-3.58925e-09
1.73055e-06
-3.56905e-09
1.73321e-06
-3.5492e-09
1.73586e-06
-3.52968e-09
1.73849e-06
-3.51048e-09
1.74111e-06
-3.49159e-09
1.74372e-06
-3.47301e-09
1.74631e-06
-3.45473e-09
1.74889e-06
-3.43673e-09
1.75145e-06
-3.41902e-09
1.754e-06
-3.40157e-09
1.75654e-06
-3.38439e-09
1.75907e-06
-3.36747e-09
1.76158e-06
-3.3508e-09
1.76408e-06
-3.33438e-09
1.76657e-06
-3.31819e-09
1.76905e-06
-3.30224e-09
1.77151e-06
-3.28651e-09
1.77397e-06
-3.271e-09
1.77641e-06
-3.25571e-09
1.77884e-06
-3.24062e-09
1.78126e-06
-3.22574e-09
1.78367e-06
-3.21107e-09
1.78606e-06
-3.19658e-09
1.78845e-06
-3.18228e-09
1.79083e-06
-3.16817e-09
1.79319e-06
-3.15425e-09
-3.14049e-09
2.17529e-06
-1.24483e-09
2.1774e-06
-3.76213e-09
2.1809e-06
-6.21293e-09
2.18571e-06
-8.55997e-09
2.19176e-06
-1.07688e-08
2.19895e-06
-1.2809e-08
2.20718e-06
-1.46572e-08
2.21632e-06
-1.62977e-08
2.22626e-06
-1.77222e-08
2.23686e-06
-1.89293e-08
2.24802e-06
-1.99231e-08
2.2596e-06
-2.07131e-08
2.27152e-06
-2.13122e-08
2.28366e-06
-2.17362e-08
2.29594e-06
-2.20027e-08
2.30829e-06
-2.213e-08
2.32063e-06
-2.21366e-08
2.33291e-06
-2.20405e-08
2.34509e-06
-2.18588e-08
2.35712e-06
-2.16072e-08
2.36897e-06
-2.13001e-08
2.38063e-06
-2.09502e-08
2.39207e-06
-2.05685e-08
2.40328e-06
-2.01649e-08
2.41425e-06
-1.97472e-08
2.42499e-06
-1.93224e-08
2.43549e-06
-1.8896e-08
2.44575e-06
-1.84724e-08
2.45578e-06
-1.80552e-08
2.46558e-06
-1.76471e-08
2.47516e-06
-1.725e-08
2.48453e-06
-1.68655e-08
2.49369e-06
-1.64946e-08
2.50265e-06
-1.61378e-08
2.51142e-06
-1.57954e-08
2.52001e-06
-1.54674e-08
2.52843e-06
-1.51537e-08
2.53668e-06
-1.48541e-08
2.54477e-06
-1.45681e-08
2.55271e-06
-1.42952e-08
2.5605e-06
-1.40349e-08
2.56816e-06
-1.37866e-08
2.57568e-06
-1.35499e-08
2.58308e-06
-1.3324e-08
2.59036e-06
-1.31084e-08
2.59753e-06
-1.29026e-08
2.60459e-06
-1.27059e-08
2.61154e-06
-1.2518e-08
2.61839e-06
-1.23382e-08
2.62515e-06
-1.21661e-08
2.63182e-06
-1.20012e-08
2.6384e-06
-1.18432e-08
2.64489e-06
-1.16915e-08
2.65131e-06
-1.15459e-08
2.65765e-06
-1.14059e-08
2.66391e-06
-1.12712e-08
2.6701e-06
-1.11416e-08
2.67622e-06
-1.10166e-08
2.68227e-06
-1.08961e-08
2.68826e-06
-1.07798e-08
2.69419e-06
-1.06675e-08
2.70006e-06
-1.05589e-08
2.70587e-06
-1.04538e-08
2.71162e-06
-1.03521e-08
2.71732e-06
-1.02535e-08
2.72296e-06
-1.01579e-08
2.72855e-06
-1.00651e-08
2.7341e-06
-9.97507e-09
2.73959e-06
-9.88757e-09
2.74504e-06
-9.80251e-09
2.75044e-06
-9.71976e-09
2.7558e-06
-9.63921e-09
2.76111e-06
-9.56077e-09
2.76638e-06
-9.48434e-09
2.77161e-06
-9.40982e-09
2.7768e-06
-9.33713e-09
2.78195e-06
-9.2662e-09
2.78706e-06
-9.19694e-09
2.79213e-06
-9.1293e-09
2.79717e-06
-9.0632e-09
2.80217e-06
-8.99857e-09
2.80714e-06
-8.93538e-09
2.81207e-06
-8.87355e-09
2.81697e-06
-8.81303e-09
2.82183e-06
-8.75378e-09
2.82667e-06
-8.69575e-09
2.83147e-06
-8.6389e-09
2.83624e-06
-8.58318e-09
2.84098e-06
-8.52856e-09
2.84569e-06
-8.47499e-09
2.85037e-06
-8.42244e-09
2.85502e-06
-8.37088e-09
2.85965e-06
-8.32027e-09
2.86425e-06
-8.27059e-09
2.86882e-06
-8.2218e-09
2.87336e-06
-8.17388e-09
2.87788e-06
-8.12679e-09
2.88237e-06
-8.08052e-09
2.88683e-06
-8.03504e-09
2.89127e-06
-7.99032e-09
2.89569e-06
-7.94634e-09
2.90008e-06
-7.90309e-09
2.90445e-06
-7.86053e-09
2.9088e-06
-7.81865e-09
2.91312e-06
-7.77743e-09
2.91742e-06
-7.73686e-09
2.9217e-06
-7.69691e-09
2.92595e-06
-7.65756e-09
2.93019e-06
-7.6188e-09
2.9344e-06
-7.58062e-09
2.93859e-06
-7.543e-09
2.94277e-06
-7.50592e-09
2.94692e-06
-7.46937e-09
2.95105e-06
-7.43334e-09
2.95516e-06
-7.39781e-09
2.95925e-06
-7.36276e-09
2.96332e-06
-7.3282e-09
2.96738e-06
-7.2941e-09
2.97141e-06
-7.26045e-09
2.97543e-06
-7.22725e-09
2.97943e-06
-7.19448e-09
2.98341e-06
-7.16212e-09
2.98737e-06
-7.13018e-09
2.99131e-06
-7.09864e-09
-7.06749e-09
3.04544e-06
-2.26839e-09
3.04851e-06
-6.83959e-09
3.05359e-06
-1.12911e-08
3.06058e-06
-1.55487e-08
3.06936e-06
-1.95458e-08
3.07977e-06
-2.32268e-08
3.09167e-06
-2.65495e-08
3.10486e-06
-2.94864e-08
3.11916e-06
-3.20239e-08
3.13439e-06
-3.41611e-08
3.15037e-06
-3.5908e-08
3.16694e-06
-3.72833e-08
3.18394e-06
-3.83129e-08
3.20124e-06
-3.90268e-08
3.21869e-06
-3.94585e-08
3.2362e-06
-3.96422e-08
3.25368e-06
-3.96122e-08
3.27104e-06
-3.94017e-08
3.28822e-06
-3.90417e-08
3.30518e-06
-3.85607e-08
3.32186e-06
-3.79846e-08
3.33825e-06
-3.7336e-08
3.35431e-06
-3.66347e-08
3.37005e-06
-3.58976e-08
3.38544e-06
-3.51388e-08
3.40048e-06
-3.43702e-08
3.41519e-06
-3.36012e-08
3.42956e-06
-3.28395e-08
3.44359e-06
-3.20911e-08
3.45731e-06
-3.13605e-08
3.47071e-06
-3.06511e-08
3.48381e-06
-2.99651e-08
3.49662e-06
-2.9304e-08
3.50915e-06
-2.86689e-08
3.52141e-06
-2.806e-08
3.53342e-06
-2.74773e-08
3.54519e-06
-2.69203e-08
3.55672e-06
-2.63886e-08
3.56804e-06
-2.58812e-08
3.57914e-06
-2.53973e-08
3.59004e-06
-2.49359e-08
3.60075e-06
-2.4496e-08
3.61128e-06
-2.40765e-08
3.62163e-06
-2.36763e-08
3.63181e-06
-2.32945e-08
3.64184e-06
-2.29299e-08
3.65172e-06
-2.25817e-08
3.66145e-06
-2.22488e-08
3.67104e-06
-2.19304e-08
3.6805e-06
-2.16256e-08
3.68983e-06
-2.13337e-08
3.69904e-06
-2.10537e-08
3.70814e-06
-2.0785e-08
3.71712e-06
-2.0527e-08
3.72599e-06
-2.0279e-08
3.73476e-06
-2.00404e-08
3.74343e-06
-1.98107e-08
3.752e-06
-1.95893e-08
3.76048e-06
-1.93758e-08
3.76887e-06
-1.91697e-08
3.77717e-06
-1.89705e-08
3.78539e-06
-1.8778e-08
3.79353e-06
-1.85917e-08
3.80159e-06
-1.84113e-08
3.80957e-06
-1.82365e-08
3.81748e-06
-1.8067e-08
3.82532e-06
-1.79025e-08
3.83309e-06
-1.77428e-08
3.84079e-06
-1.75876e-08
3.84842e-06
-1.74366e-08
3.85599e-06
-1.72898e-08
3.8635e-06
-1.71469e-08
3.87095e-06
-1.70077e-08
3.87833e-06
-1.6872e-08
3.88566e-06
-1.67397e-08
3.89294e-06
-1.66107e-08
3.90016e-06
-1.64847e-08
3.90732e-06
-1.63618e-08
3.91443e-06
-1.62416e-08
3.92149e-06
-1.61242e-08
3.9285e-06
-1.60094e-08
3.93547e-06
-1.58971e-08
3.94238e-06
-1.57873e-08
3.94925e-06
-1.56797e-08
3.95607e-06
-1.55744e-08
3.96284e-06
-1.54712e-08
3.96957e-06
-1.53701e-08
3.97626e-06
-1.5271e-08
3.98291e-06
-1.51739e-08
3.98951e-06
-1.50786e-08
3.99607e-06
-1.4985e-08
4.0026e-06
-1.48933e-08
4.00908e-06
-1.48032e-08
4.01552e-06
-1.47147e-08
4.02193e-06
-1.46278e-08
4.0283e-06
-1.45424e-08
4.03463e-06
-1.44585e-08
4.04092e-06
-1.43761e-08
4.04718e-06
-1.4295e-08
4.05341e-06
-1.42152e-08
4.0596e-06
-1.41368e-08
4.06576e-06
-1.40596e-08
4.07188e-06
-1.39836e-08
4.07797e-06
-1.39089e-08
4.08403e-06
-1.38352e-08
4.09005e-06
-1.37627e-08
4.09605e-06
-1.36913e-08
4.10201e-06
-1.3621e-08
4.10794e-06
-1.35517e-08
4.11385e-06
-1.34834e-08
4.11972e-06
-1.3416e-08
4.12556e-06
-1.33496e-08
4.13138e-06
-1.32842e-08
4.13717e-06
-1.32196e-08
4.14292e-06
-1.31559e-08
4.14865e-06
-1.30931e-08
4.15436e-06
-1.30311e-08
4.16003e-06
-1.29699e-08
4.16568e-06
-1.29094e-08
4.1713e-06
-1.28498e-08
4.1769e-06
-1.27909e-08
4.18247e-06
-1.27327e-08
4.18802e-06
-1.26753e-08
4.19354e-06
-1.26185e-08
-1.25624e-08
3.91563e-06
-3.65159e-09
3.9198e-06
-1.1008e-08
3.92667e-06
-1.81637e-08
3.93611e-06
-2.49937e-08
3.94795e-06
-3.13856e-08
3.96197e-06
-3.72483e-08
3.97794e-06
-4.25147e-08
3.9956e-06
-4.71429e-08
4.01469e-06
-5.11144e-08
4.03496e-06
-5.4432e-08
4.05617e-06
-5.71163e-08
4.07808e-06
-5.92018e-08
4.10051e-06
-6.07339e-08
4.12324e-06
-6.17647e-08
4.14613e-06
-6.23504e-08
4.16904e-06
-6.25483e-08
4.19184e-06
-6.24147e-08
4.21445e-06
-6.20037e-08
4.23677e-06
-6.13653e-08
4.25875e-06
-6.05451e-08
4.28035e-06
-5.95837e-08
4.30153e-06
-5.85168e-08
4.32227e-06
-5.7375e-08
4.34256e-06
-5.61844e-08
4.36239e-06
-5.49664e-08
4.38176e-06
-5.37389e-08
4.40067e-06
-5.25161e-08
4.41914e-06
-5.13093e-08
4.43718e-06
-5.01271e-08
4.45479e-06
-4.89759e-08
4.472e-06
-4.78606e-08
4.48882e-06
-4.67842e-08
4.50527e-06
-4.57487e-08
4.52135e-06
-4.47551e-08
4.5371e-06
-4.38036e-08
4.55251e-06
-4.2894e-08
4.56762e-06
-4.20253e-08
4.58243e-06
-4.11966e-08
4.59695e-06
-4.04062e-08
4.61121e-06
-3.96529e-08
4.62521e-06
-3.89348e-08
4.63896e-06
-3.82504e-08
4.65248e-06
-3.75978e-08
4.66578e-06
-3.69755e-08
4.67887e-06
-3.63818e-08
4.69175e-06
-3.5815e-08
4.70444e-06
-3.52735e-08
4.71695e-06
-3.4756e-08
4.72928e-06
-3.4261e-08
4.74144e-06
-3.37871e-08
4.75344e-06
-3.33331e-08
4.76529e-06
-3.28977e-08
4.77698e-06
-3.24799e-08
4.78853e-06
-3.20787e-08
4.79995e-06
-3.16929e-08
4.81123e-06
-3.13217e-08
4.82238e-06
-3.09643e-08
4.83341e-06
-3.06198e-08
4.84432e-06
-3.02874e-08
4.85512e-06
-2.99666e-08
4.86581e-06
-2.96566e-08
4.87639e-06
-2.93568e-08
4.88686e-06
-2.90667e-08
4.89724e-06
-2.87857e-08
4.90751e-06
-2.85134e-08
4.91769e-06
-2.82493e-08
4.92778e-06
-2.79929e-08
4.93779e-06
-2.77439e-08
4.9477e-06
-2.7502e-08
4.95753e-06
-2.72666e-08
4.96728e-06
-2.70377e-08
4.97695e-06
-2.68147e-08
4.98654e-06
-2.65975e-08
4.99605e-06
-2.63858e-08
5.00549e-06
-2.61793e-08
5.01486e-06
-2.59778e-08
5.02415e-06
-2.57812e-08
5.03338e-06
-2.55891e-08
5.04254e-06
-2.54014e-08
5.05163e-06
-2.52179e-08
5.06066e-06
-2.50385e-08
5.06963e-06
-2.48629e-08
5.07853e-06
-2.4691e-08
5.08738e-06
-2.45228e-08
5.09616e-06
-2.43579e-08
5.10488e-06
-2.41964e-08
5.11355e-06
-2.40381e-08
5.12216e-06
-2.38829e-08
5.13072e-06
-2.37306e-08
5.13922e-06
-2.35812e-08
5.14767e-06
-2.34346e-08
5.15607e-06
-2.32906e-08
5.16442e-06
-2.31492e-08
5.17271e-06
-2.30103e-08
5.18096e-06
-2.28738e-08
5.18916e-06
-2.27396e-08
5.1973e-06
-2.26078e-08
5.20541e-06
-2.2478e-08
5.21346e-06
-2.23504e-08
5.22147e-06
-2.22249e-08
5.22944e-06
-2.21013e-08
5.23736e-06
-2.19797e-08
5.24523e-06
-2.18599e-08
5.25307e-06
-2.1742e-08
5.26086e-06
-2.16258e-08
5.26861e-06
-2.15113e-08
5.27631e-06
-2.13985e-08
5.28398e-06
-2.12873e-08
5.2916e-06
-2.11777e-08
5.29919e-06
-2.10696e-08
5.30674e-06
-2.0963e-08
5.31425e-06
-2.08578e-08
5.32172e-06
-2.07541e-08
5.32915e-06
-2.06516e-08
5.33654e-06
-2.05505e-08
5.3439e-06
-2.04507e-08
5.35122e-06
-2.03522e-08
5.35851e-06
-2.02549e-08
5.36576e-06
-2.01588e-08
5.37297e-06
-2.00638e-08
5.38015e-06
-1.997e-08
5.38729e-06
-1.98772e-08
5.3944e-06
-1.97856e-08
5.40148e-06
-1.9695e-08
-1.96054e-08
4.78588e-06
-5.45629e-09
4.79132e-06
-1.64521e-08
4.80029e-06
-2.71302e-08
4.81259e-06
-3.72929e-08
4.82797e-06
-4.67647e-08
4.84613e-06
-5.54068e-08
4.86673e-06
-6.31211e-08
4.88944e-06
-6.98498e-08
4.9139e-06
-7.55725e-08
4.93977e-06
-8.03016e-08
4.96673e-06
-8.40763e-08
4.99448e-06
-8.69568e-08
5.02277e-06
-8.90178e-08
5.05135e-06
-9.03435e-08
5.08002e-06
-9.10225e-08
5.10861e-06
-9.11438e-08
5.13699e-06
-9.07937e-08
5.16504e-06
-9.00535e-08
5.19268e-06
-8.8998e-08
5.21982e-06
-8.76943e-08
5.24644e-06
-8.62017e-08
5.2725e-06
-8.45713e-08
5.29797e-06
-8.28468e-08
5.32285e-06
-8.10647e-08
5.34714e-06
-7.92551e-08
5.37084e-06
-7.74421e-08
5.39397e-06
-7.56452e-08
5.41654e-06
-7.38791e-08
5.43857e-06
-7.21554e-08
5.46007e-06
-7.04821e-08
5.48108e-06
-6.8865e-08
5.5016e-06
-6.7308e-08
5.52167e-06
-6.58129e-08
5.54129e-06
-6.43808e-08
5.5605e-06
-6.30113e-08
5.57931e-06
-6.17034e-08
5.59774e-06
-6.04558e-08
5.61581e-06
-5.92663e-08
5.63354e-06
-5.81329e-08
5.65094e-06
-5.7053e-08
5.66803e-06
-5.60242e-08
5.68482e-06
-5.50439e-08
5.70133e-06
-5.41096e-08
5.71757e-06
-5.32187e-08
5.73356e-06
-5.23688e-08
5.7493e-06
-5.15576e-08
5.76481e-06
-5.07827e-08
5.7801e-06
-5.0042e-08
5.79517e-06
-4.93334e-08
5.81004e-06
-4.86551e-08
5.82471e-06
-4.80051e-08
5.8392e-06
-4.73818e-08
5.8535e-06
-4.67835e-08
5.86763e-06
-4.62088e-08
5.88159e-06
-4.56562e-08
5.8954e-06
-4.51244e-08
5.90904e-06
-4.46121e-08
5.92254e-06
-4.41183e-08
5.9359e-06
-4.36418e-08
5.94911e-06
-4.31817e-08
5.96219e-06
-4.2737e-08
5.97514e-06
-4.23068e-08
5.98797e-06
-4.18904e-08
6.00067e-06
-4.1487e-08
6.01325e-06
-4.10959e-08
6.02572e-06
-4.07165e-08
6.03807e-06
-4.03481e-08
6.05032e-06
-3.99901e-08
6.06246e-06
-3.96422e-08
6.07449e-06
-3.93036e-08
6.08643e-06
-3.89741e-08
6.09827e-06
-3.86531e-08
6.11001e-06
-3.83403e-08
6.12166e-06
-3.80353e-08
6.13322e-06
-3.77377e-08
6.14469e-06
-3.74472e-08
6.15607e-06
-3.71635e-08
6.16737e-06
-3.68863e-08
6.17858e-06
-3.66152e-08
6.18972e-06
-3.63502e-08
6.20077e-06
-3.60908e-08
6.21174e-06
-3.58369e-08
6.22264e-06
-3.55883e-08
6.23346e-06
-3.53447e-08
6.24421e-06
-3.5106e-08
6.25488e-06
-3.48719e-08
6.26549e-06
-3.46423e-08
6.27602e-06
-3.44171e-08
6.28649e-06
-3.41961e-08
6.29689e-06
-3.3979e-08
6.30722e-06
-3.37659e-08
6.31748e-06
-3.35565e-08
6.32768e-06
-3.33507e-08
6.33782e-06
-3.31484e-08
6.3479e-06
-3.29495e-08
6.35791e-06
-3.27538e-08
6.36787e-06
-3.25613e-08
6.37776e-06
-3.23719e-08
6.38759e-06
-3.21854e-08
6.39737e-06
-3.20018e-08
6.40709e-06
-3.1821e-08
6.41675e-06
-3.16429e-08
6.42636e-06
-3.14673e-08
6.43591e-06
-3.12943e-08
6.44541e-06
-3.11238e-08
6.45486e-06
-3.09556e-08
6.46425e-06
-3.07898e-08
6.47359e-06
-3.06262e-08
6.48287e-06
-3.04647e-08
6.49211e-06
-3.03054e-08
6.50129e-06
-3.01482e-08
6.51043e-06
-2.99929e-08
6.51952e-06
-2.98396e-08
6.52855e-06
-2.96882e-08
6.53754e-06
-2.95387e-08
6.54648e-06
-2.93909e-08
6.55537e-06
-2.92449e-08
6.56422e-06
-2.91006e-08
6.57302e-06
-2.8958e-08
6.58177e-06
-2.88169e-08
6.59048e-06
-2.86775e-08
6.59914e-06
-2.85395e-08
6.60776e-06
-2.84031e-08
6.61633e-06
-2.82681e-08
-2.81346e-08
5.65622e-06
-7.76782e-09
5.6632e-06
-2.34321e-08
5.67468e-06
-3.86108e-08
5.69039e-06
-5.30022e-08
5.70997e-06
-6.63437e-08
5.733e-06
-7.84351e-08
5.75902e-06
-8.91417e-08
5.78756e-06
-9.83915e-08
5.81815e-06
-1.06169e-07
5.85036e-06
-1.12507e-07
5.88376e-06
-1.17476e-07
5.91798e-06
-1.21177e-07
5.95269e-06
-1.23727e-07
5.9876e-06
-1.25258e-07
6.02248e-06
-1.25902e-07
6.05713e-06
-1.25791e-07
6.09139e-06
-1.2505e-07
6.12513e-06
-1.23798e-07
6.15827e-06
-1.22137e-07
6.19074e-06
-1.20164e-07
6.22249e-06
-1.17957e-07
6.25351e-06
-1.15587e-07
6.28378e-06
-1.13113e-07
6.31329e-06
-1.10581e-07
6.34207e-06
-1.0803e-07
6.37012e-06
-1.05493e-07
6.39746e-06
-1.02992e-07
6.42413e-06
-1.00545e-07
6.45014e-06
-9.81673e-08
6.47553e-06
-9.58669e-08
6.50031e-06
-9.36505e-08
6.52453e-06
-9.15217e-08
6.5482e-06
-8.94822e-08
6.57135e-06
-8.75319e-08
6.59401e-06
-8.56699e-08
6.6162e-06
-8.38941e-08
6.63794e-06
-8.22018e-08
6.65927e-06
-8.059e-08
6.68019e-06
-7.90551e-08
6.70073e-06
-7.75936e-08
6.72091e-06
-7.62019e-08
6.74074e-06
-7.48763e-08
6.76024e-06
-7.36132e-08
6.77943e-06
-7.24089e-08
6.79832e-06
-7.12602e-08
6.81693e-06
-7.01638e-08
6.83526e-06
-6.91164e-08
6.85334e-06
-6.81152e-08
6.87116e-06
-6.71573e-08
6.88875e-06
-6.62401e-08
6.9061e-06
-6.53611e-08
6.92324e-06
-6.45178e-08
6.94016e-06
-6.37083e-08
6.95688e-06
-6.29303e-08
6.97341e-06
-6.21821e-08
6.98975e-06
-6.14617e-08
7.0059e-06
-6.07676e-08
7.02188e-06
-6.00981e-08
7.03769e-06
-5.94519e-08
7.05334e-06
-5.88276e-08
7.06883e-06
-5.82239e-08
7.08416e-06
-5.76397e-08
7.09934e-06
-5.70738e-08
7.11438e-06
-5.65254e-08
7.12928e-06
-5.59934e-08
7.14404e-06
-5.54769e-08
7.15867e-06
-5.49752e-08
7.17316e-06
-5.44874e-08
7.18753e-06
-5.40129e-08
7.20178e-06
-5.3551e-08
7.21591e-06
-5.3101e-08
7.22992e-06
-5.26625e-08
7.24381e-06
-5.22348e-08
7.25759e-06
-5.18175e-08
7.27127e-06
-5.14099e-08
7.28483e-06
-5.10119e-08
7.29829e-06
-5.06228e-08
7.31165e-06
-5.02423e-08
7.3249e-06
-4.987e-08
7.33806e-06
-4.95057e-08
7.35111e-06
-4.91488e-08
7.36408e-06
-4.87992e-08
7.37694e-06
-4.84566e-08
7.38972e-06
-4.81206e-08
7.40241e-06
-4.7791e-08
7.415e-06
-4.74677e-08
7.42751e-06
-4.71502e-08
7.43993e-06
-4.68384e-08
7.45227e-06
-4.65321e-08
7.46452e-06
-4.62311e-08
7.47669e-06
-4.59353e-08
7.48878e-06
-4.56443e-08
7.50078e-06
-4.53581e-08
7.51271e-06
-4.50765e-08
7.52456e-06
-4.47993e-08
7.53633e-06
-4.45264e-08
7.54803e-06
-4.42577e-08
7.55965e-06
-4.3993e-08
7.5712e-06
-4.37321e-08
7.58267e-06
-4.3475e-08
7.59407e-06
-4.32216e-08
7.6054e-06
-4.29716e-08
7.61666e-06
-4.27251e-08
7.62785e-06
-4.2482e-08
7.63896e-06
-4.2242e-08
7.65001e-06
-4.20052e-08
7.661e-06
-4.17714e-08
7.67191e-06
-4.15405e-08
7.68276e-06
-4.13125e-08
7.69354e-06
-4.10873e-08
7.70426e-06
-4.08649e-08
7.71491e-06
-4.0645e-08
7.7255e-06
-4.04277e-08
7.73602e-06
-4.02129e-08
7.74648e-06
-4.00006e-08
7.75688e-06
-3.97906e-08
7.76722e-06
-3.95829e-08
7.7775e-06
-3.93775e-08
7.78771e-06
-3.91742e-08
7.79787e-06
-3.89731e-08
7.80797e-06
-3.87741e-08
7.818e-06
-3.85771e-08
7.82798e-06
-3.83821e-08
7.8379e-06
-3.81891e-08
-3.79979e-08
6.52668e-06
-1.07053e-08
6.53556e-06
-3.23133e-08
6.55014e-06
-5.31928e-08
6.57003e-06
-7.28915e-08
6.59471e-06
-9.10277e-08
6.6236e-06
-1.07325e-07
6.65607e-06
-1.2161e-07
6.69148e-06
-1.33804e-07
6.72922e-06
-1.43908e-07
6.76871e-06
-1.51995e-07
6.80942e-06
-1.58188e-07
6.85089e-06
-1.62648e-07
6.89272e-06
-1.65557e-07
6.93457e-06
-1.67109e-07
6.97617e-06
-1.67499e-07
7.0173e-06
-1.66916e-07
7.05778e-06
-1.65536e-07
7.0975e-06
-1.63518e-07
7.13637e-06
-1.61006e-07
7.17433e-06
-1.58125e-07
7.21136e-06
-1.5498e-07
7.24743e-06
-1.5166e-07
7.28256e-06
-1.48239e-07
7.31675e-06
-1.44777e-07
7.35004e-06
-1.4132e-07
7.38245e-06
-1.37905e-07
7.41402e-06
-1.34561e-07
7.44478e-06
-1.31306e-07
7.47477e-06
-1.28157e-07
7.50403e-06
-1.25122e-07
7.53259e-06
-1.22208e-07
7.56048e-06
-1.19416e-07
7.58775e-06
-1.16748e-07
7.61442e-06
-1.14201e-07
7.64052e-06
-1.11774e-07
7.66609e-06
-1.09463e-07
7.69115e-06
-1.07262e-07
7.71573e-06
-1.05168e-07
7.73985e-06
-1.03175e-07
7.76353e-06
-1.01279e-07
7.7868e-06
-9.94741e-08
7.80968e-06
-9.77552e-08
7.83219e-06
-9.61176e-08
7.85434e-06
-9.45564e-08
7.87614e-06
-9.30672e-08
7.89762e-06
-9.16455e-08
7.91879e-06
-9.02871e-08
7.93967e-06
-8.89883e-08
7.96026e-06
-8.77452e-08
7.98057e-06
-8.65544e-08
8.00062e-06
-8.54126e-08
8.02042e-06
-8.43168e-08
8.03998e-06
-8.32642e-08
8.0593e-06
-8.2252e-08
8.07839e-06
-8.12779e-08
8.09727e-06
-8.03393e-08
8.11594e-06
-7.94344e-08
8.1344e-06
-7.85609e-08
8.15267e-06
-7.7717e-08
8.17074e-06
-7.69011e-08
8.18863e-06
-7.61114e-08
8.20633e-06
-7.53466e-08
8.22387e-06
-7.46051e-08
8.24123e-06
-7.38857e-08
8.25842e-06
-7.31871e-08
8.27545e-06
-7.25083e-08
8.29232e-06
-7.18482e-08
8.30904e-06
-7.12058e-08
8.32561e-06
-7.05802e-08
8.34203e-06
-6.99706e-08
8.3583e-06
-6.93761e-08
8.37444e-06
-6.87959e-08
8.39043e-06
-6.82295e-08
8.40629e-06
-6.76762e-08
8.42202e-06
-6.71352e-08
8.43761e-06
-6.66062e-08
8.45308e-06
-6.60885e-08
8.46842e-06
-6.55816e-08
8.48363e-06
-6.50851e-08
8.49872e-06
-6.45985e-08
8.5137e-06
-6.41214e-08
8.52855e-06
-6.36534e-08
8.54329e-06
-6.31941e-08
8.55791e-06
-6.27433e-08
8.57242e-06
-6.23004e-08
8.58682e-06
-6.18654e-08
8.60111e-06
-6.14377e-08
8.61528e-06
-6.10173e-08
8.62936e-06
-6.06037e-08
8.64332e-06
-6.01969e-08
8.65718e-06
-5.97964e-08
8.67094e-06
-5.94021e-08
8.6846e-06
-5.90138e-08
8.69815e-06
-5.86313e-08
8.71161e-06
-5.82544e-08
8.72496e-06
-5.78829e-08
8.73822e-06
-5.75166e-08
8.75138e-06
-5.71554e-08
8.76445e-06
-5.67991e-08
8.77742e-06
-5.64476e-08
8.7903e-06
-5.61007e-08
8.80309e-06
-5.57582e-08
8.81578e-06
-5.54201e-08
8.82839e-06
-5.50862e-08
8.8409e-06
-5.47564e-08
8.85333e-06
-5.44306e-08
8.86567e-06
-5.41087e-08
8.87792e-06
-5.37906e-08
8.89008e-06
-5.34761e-08
8.90216e-06
-5.31652e-08
8.91415e-06
-5.28578e-08
8.92606e-06
-5.25538e-08
8.93788e-06
-5.22531e-08
8.94963e-06
-5.19556e-08
8.96129e-06
-5.16612e-08
8.97287e-06
-5.137e-08
8.98437e-06
-5.10818e-08
8.99578e-06
-5.07964e-08
9.00712e-06
-5.0514e-08
9.01839e-06
-5.02344e-08
9.02957e-06
-4.99575e-08
9.04068e-06
-4.96833e-08
9.05171e-06
-4.94117e-08
9.06266e-06
-4.91427e-08
-4.88762e-08
7.3973e-06
-1.44364e-08
7.4086e-06
-4.36129e-08
7.42711e-06
-7.17026e-08
7.45225e-06
-9.80317e-08
7.48328e-06
-1.22058e-07
7.51937e-06
-1.43416e-07
7.55966e-06
-1.61902e-07
7.6033e-06
-1.77443e-07
7.64948e-06
-1.90086e-07
7.69746e-06
-1.9997e-07
7.74657e-06
-2.07304e-07
7.79626e-06
-2.12337e-07
7.84605e-06
-2.15346e-07
7.89555e-06
-2.16613e-07
7.94447e-06
-2.16415e-07
7.99257e-06
-2.15012e-07
8.03968e-06
-2.12646e-07
8.08569e-06
-2.09529e-07
8.13053e-06
-2.05849e-07
8.17417e-06
-2.01764e-07
8.2166e-06
-1.97407e-07
8.25782e-06
-1.92889e-07
8.29788e-06
-1.88297e-07
8.33681e-06
-1.83701e-07
8.37464e-06
-1.79155e-07
8.41144e-06
-1.74699e-07
8.44724e-06
-1.70363e-07
8.4821e-06
-1.66168e-07
8.51607e-06
-1.62128e-07
8.5492e-06
-1.5825e-07
8.58153e-06
-1.54538e-07
8.6131e-06
-1.50993e-07
8.64397e-06
-1.47613e-07
8.67416e-06
-1.44393e-07
8.70372e-06
-1.41329e-07
8.73267e-06
-1.38415e-07
8.76105e-06
-1.35643e-07
8.78889e-06
-1.33008e-07
8.81622e-06
-1.30502e-07
8.84305e-06
-1.28117e-07
8.86943e-06
-1.25848e-07
8.89536e-06
-1.23687e-07
8.92087e-06
-1.21628e-07
8.94598e-06
-1.19665e-07
8.9707e-06
-1.17791e-07
8.99506e-06
-1.16001e-07
9.01906e-06
-1.14291e-07
9.04273e-06
-1.12653e-07
9.06607e-06
-1.11085e-07
9.0891e-06
-1.09582e-07
9.11182e-06
-1.08139e-07
9.13426e-06
-1.06753e-07
9.15641e-06
-1.05419e-07
9.1783e-06
-1.04136e-07
9.19992e-06
-1.02899e-07
9.22129e-06
-1.01707e-07
9.24241e-06
-1.00555e-07
9.26329e-06
-9.94416e-08
9.28393e-06
-9.83647e-08
9.30435e-06
-9.73219e-08
9.32455e-06
-9.63112e-08
9.34454e-06
-9.53307e-08
9.36431e-06
-9.43789e-08
9.38388e-06
-9.3454e-08
9.40325e-06
-9.25544e-08
9.42242e-06
-9.16789e-08
9.4414e-06
-9.08261e-08
9.46019e-06
-8.9995e-08
9.47879e-06
-8.91843e-08
9.49721e-06
-8.83929e-08
9.51546e-06
-8.76199e-08
9.53352e-06
-8.68644e-08
9.55142e-06
-8.61257e-08
9.56915e-06
-8.54028e-08
9.58671e-06
-8.4695e-08
9.6041e-06
-8.40016e-08
9.62134e-06
-8.33221e-08
9.63841e-06
-8.26557e-08
9.65533e-06
-8.2002e-08
9.67209e-06
-8.13604e-08
9.6887e-06
-8.07303e-08
9.70516e-06
-8.01114e-08
9.72146e-06
-7.95031e-08
9.73763e-06
-7.89052e-08
9.75364e-06
-7.8317e-08
9.76952e-06
-7.77384e-08
9.78525e-06
-7.7169e-08
9.80084e-06
-7.66083e-08
9.81629e-06
-7.60562e-08
9.83161e-06
-7.55124e-08
9.84679e-06
-7.49764e-08
9.86183e-06
-7.44482e-08
9.87675e-06
-7.39274e-08
9.89153e-06
-7.34137e-08
9.90618e-06
-7.29071e-08
9.92071e-06
-7.24072e-08
9.9351e-06
-7.19139e-08
9.94937e-06
-7.1427e-08
9.96352e-06
-7.09462e-08
9.97755e-06
-7.04715e-08
9.99145e-06
-7.00026e-08
1.00052e-05
-6.95394e-08
1.00189e-05
-6.90818e-08
1.00324e-05
-6.86295e-08
1.00459e-05
-6.81825e-08
1.00592e-05
-6.77406e-08
1.00724e-05
-6.73038e-08
1.00854e-05
-6.68718e-08
1.00984e-05
-6.64446e-08
1.01113e-05
-6.6022e-08
1.0124e-05
-6.5604e-08
1.01367e-05
-6.51905e-08
1.01492e-05
-6.47813e-08
1.01616e-05
-6.43763e-08
1.01739e-05
-6.39756e-08
1.01861e-05
-6.35789e-08
1.01982e-05
-6.31862e-08
1.02102e-05
-6.27975e-08
1.02221e-05
-6.24126e-08
1.02339e-05
-6.20314e-08
1.02456e-05
-6.16541e-08
1.02572e-05
-6.12802e-08
1.02687e-05
-6.091e-08
1.02801e-05
-6.05433e-08
-6.018e-08
8.26817e-06
8.28263e-06
8.30625e-06
8.33814e-06
8.37723e-06
8.42233e-06
8.47227e-06
8.52591e-06
8.58219e-06
8.64017e-06
8.69904e-06
8.75812e-06
8.81687e-06
8.87487e-06
8.93179e-06
8.98741e-06
9.04159e-06
9.09423e-06
9.14531e-06
9.19482e-06
9.2428e-06
9.2893e-06
9.33436e-06
9.37807e-06
9.42049e-06
9.4617e-06
9.50175e-06
9.54073e-06
9.57869e-06
9.6157e-06
9.65181e-06
9.68707e-06
9.72154e-06
9.75525e-06
9.78825e-06
9.82057e-06
9.85226e-06
9.88334e-06
9.91385e-06
9.9438e-06
9.97324e-06
1.00022e-05
1.00306e-05
1.00586e-05
1.00862e-05
1.01133e-05
1.014e-05
1.01664e-05
1.01923e-05
1.02179e-05
1.02431e-05
1.0268e-05
1.02926e-05
1.03168e-05
1.03407e-05
1.03643e-05
1.03876e-05
1.04107e-05
1.04334e-05
1.04558e-05
1.0478e-05
1.04999e-05
1.05216e-05
1.05429e-05
1.05641e-05
1.05849e-05
1.06056e-05
1.0626e-05
1.06461e-05
1.06661e-05
1.06858e-05
1.07052e-05
1.07245e-05
1.07435e-05
1.07623e-05
1.07809e-05
1.07993e-05
1.08175e-05
1.08355e-05
1.08532e-05
1.08708e-05
1.08882e-05
1.09054e-05
1.09224e-05
1.09391e-05
1.09558e-05
1.09722e-05
1.09884e-05
1.10045e-05
1.10204e-05
1.10361e-05
1.10516e-05
1.10669e-05
1.10821e-05
1.10971e-05
1.1112e-05
1.11267e-05
1.11412e-05
1.11555e-05
1.11697e-05
1.11838e-05
1.11977e-05
1.12114e-05
1.1225e-05
1.12384e-05
1.12517e-05
1.12648e-05
1.12778e-05
1.12907e-05
1.13034e-05
1.13159e-05