/*--------------------------------*- C++ -*----------------------------------*\
| =========                 |                                                 |
| \\      /  F ield         | OpenFOAM: The Open Source CFD Toolbox           |
|  \\    /   O peration     | Version:                                        |
|   \\  /    A nd           | Website:  www.openfoam.com                      |
|    \\/     M anipulation  |                                                 |
\*---------------------------------------------------------------------------*/
FoamFile
{
    version     2.0;
    format      ascii;
    class       volVectorField;
    location    "563";
    object      U;
}
// * * * * * * * * * * * * * * * * * * * * * * * * * * * * * * * * * * * * * //

dimensions      [0 1 -1 0 0 0 0];


internalField   nonuniform List<vector> 
1250
(
(1.00001 -0.000132444 -4.71964e-16)
(1.00062 -0.000386948 8.71319e-16)
(1.00188 -0.000625302 1.58119e-17)
(1.00373 -0.000852235 9.8209e-16)
(1.00616 -0.00106603 -6.18471e-16)
(1.00912 -0.00126367 -4.6467e-17)
(1.01257 -0.00144301 -1.58057e-15)
(1.01646 -0.00160265 1.1685e-15)
(1.02074 -0.0017418 -9.53692e-16)
(1.02536 -0.00186027 6.88939e-16)
(1.03025 -0.00195838 -1.971e-15)
(1.03538 -0.00203694 5.07486e-15)
(1.04069 -0.00209712 -7.84485e-15)
(1.04614 -0.00214037 1.71457e-14)
(1.05168 -0.00216828 -3.36293e-14)
(1.05727 -0.00218259 6.08583e-14)
(1.06289 -0.00218503 2.22013e-15)
(1.0685 -0.00217731 1.01387e-15)
(1.07408 -0.00216106 -1.191e-15)
(1.0796 -0.00213779 4.54999e-16)
(1.08507 -0.0021089 -3.14599e-15)
(1.09045 -0.00207562 4.08748e-15)
(1.09574 -0.00203906 -8.51012e-15)
(1.10093 -0.00200016 1.61011e-14)
(1.10603 -0.00195974 -3.04903e-14)
(1.11101 -0.00191846 5.18077e-14)
(1.11589 -0.00187689 2.88118e-15)
(1.12066 -0.00183549 -2.77927e-15)
(1.12533 -0.00179462 -6.07938e-16)
(1.12989 -0.00175455 -3.92636e-15)
(1.13435 -0.00171551 -4.38445e-15)
(1.13871 -0.00167764 -3.55001e-15)
(1.14297 -0.00164106 -4.82773e-15)
(1.14714 -0.00160584 -2.9568e-15)
(1.15123 -0.001572 -3.15652e-15)
(1.15522 -0.00153956 -3.04107e-15)
(1.15914 -0.00150851 -4.52994e-15)
(1.16297 -0.00147883 -4.1207e-15)
(1.16673 -0.00145048 -4.70382e-15)
(1.17042 -0.00142342 -5.28044e-15)
(1.17404 -0.0013976 -4.39851e-15)
(1.1776 -0.00137297 -5.96866e-15)
(1.18109 -0.00134946 -7.15679e-15)
(1.18453 -0.00132703 -7.16329e-15)
(1.1879 -0.00130562 -6.54523e-15)
(1.19123 -0.00128518 -8.20797e-15)
(1.1945 -0.00126565 -7.56004e-15)
(1.19772 -0.00124697 -9.13378e-15)
(1.2009 -0.00122911 -8.02121e-15)
(1.20403 -0.00121201 -8.1572e-15)
(1.20712 -0.00119562 -9.48222e-15)
(1.21016 -0.00117991 -1.01397e-14)
(1.21317 -0.00116484 -9.20357e-15)
(1.21614 -0.00115036 -9.63998e-15)
(1.21907 -0.00113645 -9.23866e-15)
(1.22196 -0.00112307 -1.02227e-14)
(1.22483 -0.00111018 -1.00276e-14)
(1.22766 -0.00109776 -1.10614e-14)
(1.23045 -0.00108579 -1.08825e-14)
(1.23322 -0.00107423 -1.19486e-14)
(1.23596 -0.00106306 -1.07015e-14)
(1.23867 -0.00105227 -1.11795e-14)
(1.24136 -0.00104183 -1.11161e-14)
(1.24401 -0.00103172 -1.1524e-14)
(1.24664 -0.00102192 -1.13166e-14)
(1.24925 -0.00101242 -1.00743e-14)
(1.25183 -0.00100321 -1.15881e-14)
(1.25439 -0.000994257 -1.09845e-14)
(1.25693 -0.000985563 -1.01251e-14)
(1.25944 -0.000977112 -1.1653e-14)
(1.26193 -0.00096889 -1.12633e-14)
(1.2644 -0.000960889 -1.22421e-14)
(1.26685 -0.000953096 -1.03782e-14)
(1.26928 -0.000945503 -1.10449e-14)
(1.2717 -0.000938101 -8.57528e-15)
(1.27409 -0.000930881 -1.32981e-14)
(1.27646 -0.000923836 -4.63007e-15)
(1.27882 -0.000916958 -1.81997e-14)
(1.28116 -0.00091024 7.15177e-15)
(1.28348 -0.000903675 -3.64163e-14)
(1.28579 -0.000897258 -9.27234e-15)
(1.28808 -0.000890983 -8.14144e-15)
(1.29035 -0.000884844 -7.68233e-15)
(1.29261 -0.000878836 -7.98667e-15)
(1.29485 -0.000872955 -8.56335e-15)
(1.29708 -0.000867195 -7.68408e-15)
(1.29929 -0.000861552 -7.36138e-15)
(1.30149 -0.000856022 -6.64278e-15)
(1.30367 -0.000850602 -6.97276e-15)
(1.30584 -0.000845287 -6.28446e-15)
(1.308 -0.000840074 -6.41088e-15)
(1.31014 -0.00083496 -5.66435e-15)
(1.31227 -0.000829941 -4.81373e-15)
(1.31439 -0.000825014 -4.43117e-15)
(1.31649 -0.000820176 -3.86305e-15)
(1.31858 -0.000815426 -3.34806e-15)
(1.32066 -0.000810759 -3.59857e-15)
(1.32273 -0.000806173 -2.67559e-15)
(1.32479 -0.000801667 -2.5977e-15)
(1.32684 -0.000797237 -1.95969e-15)
(1.32887 -0.000792882 -1.62761e-15)
(1.33089 -0.000788599 -1.43425e-15)
(1.3329 -0.000784386 -1.16616e-15)
(1.3349 -0.000780241 -1.20876e-15)
(1.3369 -0.000776163 -5.88524e-16)
(1.33888 -0.000772149 -8.65758e-16)
(1.34084 -0.000768198 -4.11008e-16)
(1.3428 -0.000764308 -4.92899e-16)
(1.34475 -0.000760478 4.958e-18)
(1.34669 -0.000756705 5.61056e-17)
(1.34862 -0.000752989 1.65991e-16)
(1.35055 -0.000749328 8.39018e-16)
(1.35246 -0.00074572 1.1962e-15)
(1.35436 -0.000742165 1.96038e-15)
(1.35625 -0.00073866 1.78418e-15)
(1.35814 -0.000735205 2.84588e-15)
(1.36001 -0.000731798 2.649e-15)
(1.36188 -0.000728439 3.71374e-15)
(1.36374 -0.000725125 3.58411e-15)
(1.36559 -0.000721856 4.15487e-15)
(1.36743 -0.000718631 3.93977e-15)
(1.36926 -0.000715449 4.96567e-15)
(1.37108 -0.000712308 4.74432e-15)
(1.3729 -0.000709209 5.73839e-15)
(1.37471 -0.000706149 5.47126e-15)
(1.00001 -0.000308022 -1.30457e-16)
(1.00062 -0.000927272 2.3708e-16)
(1.00188 -0.00152855 -4.23439e-16)
(1.00375 -0.00210662 6.13393e-16)
(1.0062 -0.00265345 -4.26588e-16)
(1.00918 -0.0031608 9.18991e-17)
(1.01266 -0.0036225 -1.13284e-15)
(1.01659 -0.00403445 1.01101e-15)
(1.02091 -0.00439431 -1.68085e-15)
(1.02556 -0.00470137 3.22862e-15)
(1.0305 -0.00495635 -5.30059e-15)
(1.03566 -0.0051612 8.59923e-15)
(1.04101 -0.00531883 -1.44631e-14)
(1.04649 -0.00543288 2.39432e-14)
(1.05206 -0.00550745 -3.77111e-14)
(1.05768 -0.0055469 5.8867e-14)
(1.06332 -0.00555569 -2.67591e-15)
(1.06895 -0.00553817 -1.76642e-15)
(1.07455 -0.00549853 -4.57355e-15)
(1.08009 -0.00544068 8.20057e-16)
(1.08557 -0.00536818 -6.89534e-15)
(1.09096 -0.00528423 5.68302e-15)
(1.09626 -0.00519167 -1.56672e-14)
(1.10146 -0.00509294 1.87172e-14)
(1.10656 -0.00499014 -3.57772e-14)
(1.11155 -0.00488502 4.67933e-14)
(1.11643 -0.00477905 -2.92185e-15)
(1.1212 -0.00467341 -8.06378e-15)
(1.12587 -0.00456903 -4.08094e-15)
(1.13043 -0.00446665 -9.17562e-15)
(1.13489 -0.00436684 -7.54976e-15)
(1.13924 -0.00426999 -7.20102e-15)
(1.14351 -0.0041764 -1.32331e-14)
(1.14768 -0.00408625 -7.06967e-15)
(1.15176 -0.00399963 -1.29819e-14)
(1.15575 -0.00391658 -1.28941e-14)
(1.15966 -0.00383708 -1.43759e-14)
(1.1635 -0.00376108 -1.52993e-14)
(1.16726 -0.00368849 -1.64106e-14)
(1.17094 -0.00361919 -1.80426e-14)
(1.17456 -0.00355306 -1.76347e-14)
(1.17812 -0.00348998 -2.06105e-14)
(1.18161 -0.00342979 -1.9996e-14)
(1.18504 -0.00337236 -2.3146e-14)
(1.18842 -0.00331754 -2.14138e-14)
(1.19174 -0.0032652 -2.66526e-14)
(1.19501 -0.00321519 -2.23817e-14)
(1.19823 -0.00316739 -2.85323e-14)
(1.20141 -0.00312166 -2.41997e-14)
(1.20454 -0.00307789 -2.90471e-14)
(1.20763 -0.00303596 -2.83158e-14)
(1.21067 -0.00299577 -2.94149e-14)
(1.21368 -0.0029572 -2.91752e-14)
(1.21665 -0.00292017 -3.06398e-14)
(1.21958 -0.00288457 -2.98983e-14)
(1.22247 -0.00285034 -3.23971e-14)
(1.22534 -0.00281738 -2.9624e-14)
(1.22817 -0.00278563 -3.34638e-14)
(1.23096 -0.00275501 -2.9315e-14)
(1.23373 -0.00272546 -3.47519e-14)
(1.23647 -0.00269691 -3.02864e-14)
(1.23918 -0.00266932 -3.35025e-14)
(1.24186 -0.00264263 -3.22171e-14)
(1.24452 -0.00261679 -3.25683e-14)
(1.24715 -0.00259175 -3.29273e-14)
(1.24976 -0.00256748 -3.23273e-14)
(1.25234 -0.00254393 -3.16609e-14)
(1.2549 -0.00252107 -3.2473e-14)
(1.25744 -0.00249886 -3.10956e-14)
(1.25995 -0.00247727 -3.16568e-14)
(1.26244 -0.00245627 -2.99115e-14)
(1.26492 -0.00243583 -3.13989e-14)
(1.26737 -0.00241593 -2.79701e-14)
(1.2698 -0.00239654 -3.15379e-14)
(1.27221 -0.00237764 -2.53758e-14)
(1.27461 -0.0023592 -3.35605e-14)
(1.27698 -0.00234121 -1.94088e-14)
(1.27934 -0.00232365 -3.87462e-14)
(1.28168 -0.0023065 -8.02227e-15)
(1.284 -0.00228974 -5.02368e-14)
(1.28631 -0.00227336 -2.39605e-14)
(1.2886 -0.00225734 -2.2012e-14)
(1.29087 -0.00224167 -2.15508e-14)
(1.29313 -0.00222633 -1.99325e-14)
(1.29537 -0.00221132 -2.04852e-14)
(1.2976 -0.00219662 -1.75303e-14)
(1.29981 -0.00218221 -1.91596e-14)
(1.30201 -0.0021681 -1.53875e-14)
(1.3042 -0.00215427 -1.74103e-14)
(1.30637 -0.0021407 -1.33132e-14)
(1.30852 -0.0021274 -1.5678e-14)
(1.31067 -0.00211435 -1.25559e-14)
(1.3128 -0.00210154 -1.13048e-14)
(1.31492 -0.00208897 -1.07918e-14)
(1.31702 -0.00207662 -9.40239e-15)
(1.31912 -0.0020645 -8.46589e-15)
(1.3212 -0.00205259 -7.28834e-15)
(1.32327 -0.00204089 -6.08716e-15)
(1.32533 -0.00202939 -5.09439e-15)
(1.32737 -0.00201809 -4.07625e-15)
(1.32941 -0.00200698 -2.94955e-15)
(1.33143 -0.00199605 -2.64844e-15)
(1.33344 -0.0019853 -2.05131e-15)
(1.33544 -0.00197472 -2.03432e-15)
(1.33744 -0.00196432 -9.51197e-16)
(1.33942 -0.00195408 -1.13271e-15)
(1.34139 -0.001944 1.26923e-16)
(1.34335 -0.00193407 4.65622e-16)
(1.3453 -0.0019243 1.59077e-15)
(1.34724 -0.00191467 1.97086e-15)
(1.34917 -0.00190519 3.41591e-15)
(1.35109 -0.00189585 4.21633e-15)
(1.353 -0.00188664 5.28656e-15)
(1.35491 -0.00187757 6.95533e-15)
(1.3568 -0.00186862 7.76336e-15)
(1.35868 -0.00185981 9.45427e-15)
(1.36056 -0.00185111 1.03044e-14)
(1.36243 -0.00184254 1.20154e-14)
(1.36429 -0.00183408 1.23455e-14)
(1.36614 -0.00182574 1.42099e-14)
(1.36798 -0.00181751 1.40883e-14)
(1.36981 -0.00180939 1.65179e-14)
(1.37164 -0.00180137 1.56905e-14)
(1.37345 -0.00179346 1.9123e-14)
(1.37526 -0.00178565 1.76693e-14)
(1.00001 -0.000503034 1.08575e-16)
(1.00064 -0.00150599 -2.30194e-16)
(1.00194 -0.00248245 -2.39599e-16)
(1.00386 -0.00341751 5.67835e-17)
(1.00636 -0.00429788 -4.25233e-16)
(1.00942 -0.00511156 1.38677e-16)
(1.01298 -0.00584935 -2.70027e-16)
(1.01699 -0.00650506 4.73093e-16)
(1.02139 -0.0070754 -7.06807e-16)
(1.02612 -0.00755965 1.3212e-15)
(1.03114 -0.0079594 -1.64591e-15)
(1.03638 -0.00827819 2.02351e-15)
(1.0418 -0.00852105 -2.605e-15)
(1.04734 -0.00869413 3.51366e-15)
(1.05297 -0.00880427 -2.82617e-15)
(1.05864 -0.00885869 2.01273e-15)
(1.06432 -0.00886467 -2.35065e-16)
(1.06999 -0.00882932 6.47531e-17)
(1.07562 -0.00875941 -1.37714e-15)
(1.08119 -0.00866121 -9.3028e-16)
(1.08669 -0.00854043 -3.51807e-15)
(1.0921 -0.00840218 -2.40373e-15)
(1.09741 -0.00825092 -5.69956e-15)
(1.10262 -0.00809051 -4.07637e-15)
(1.10772 -0.00792424 -7.1985e-15)
(1.11271 -0.00775485 -1.00212e-14)
(1.1176 -0.00758458 -5.2285e-15)
(1.12237 -0.00741527 -1.87429e-14)
(1.12703 -0.00724834 -4.25479e-15)
(1.13159 -0.00708492 -3.17631e-14)
(1.13605 -0.00692584 3.99912e-15)
(1.1404 -0.0067717 -5.25511e-14)
(1.14466 -0.00662291 -4.75833e-14)
(1.14883 -0.00647973 1.26913e-15)
(1.15291 -0.00634229 -7.15755e-14)
(1.1569 -0.0062106 -3.63234e-14)
(1.16081 -0.00608463 -3.62908e-14)
(1.16464 -0.00596427 -3.86818e-14)
(1.16839 -0.00584935 -4.04288e-14)
(1.17208 -0.00573969 -4.30135e-14)
(1.17569 -0.00563509 -4.36703e-14)
(1.17925 -0.00553532 -4.74336e-14)
(1.18274 -0.00544015 -4.58031e-14)
(1.18617 -0.00534936 -5.27548e-14)
(1.18954 -0.0052627 -4.60509e-14)
(1.19286 -0.00517997 -5.9365e-14)
(1.19613 -0.00510093 -4.20671e-14)
(1.19935 -0.00502538 -6.98878e-14)
(1.20253 -0.00495311 -3.06847e-14)
(1.20566 -0.00488393 -8.76538e-14)
(1.20874 -0.00481766 -5.73089e-14)
(1.21179 -0.00475412 -5.70199e-14)
(1.21479 -0.00469316 -5.54231e-14)
(1.21776 -0.00463461 -5.80087e-14)
(1.22069 -0.00457834 -5.40178e-14)
(1.22359 -0.00452421 -5.90943e-14)
(1.22645 -0.0044721 -5.09749e-14)
(1.22928 -0.00442188 -6.19773e-14)
(1.23208 -0.00437346 -4.52009e-14)
(1.23485 -0.00432671 -6.87169e-14)
(1.23759 -0.00428156 -3.34229e-14)
(1.2403 -0.00423792 -8.18712e-14)
(1.24299 -0.00419569 -5.48908e-14)
(1.24565 -0.0041548 -5.26486e-14)
(1.24828 -0.00411519 -5.20886e-14)
(1.25089 -0.00407677 -5.1188e-14)
(1.25347 -0.0040395 -4.97147e-14)
(1.25603 -0.00400332 -4.87496e-14)
(1.25857 -0.00396816 -4.74117e-14)
(1.26108 -0.00393398 -4.62042e-14)
(1.26358 -0.00390073 -4.44739e-14)
(1.26605 -0.00386837 -4.35882e-14)
(1.2685 -0.00383685 -4.16222e-14)
(1.27094 -0.00380615 -4.09725e-14)
(1.27335 -0.00377621 -3.81327e-14)
(1.27575 -0.00374701 -3.816e-14)
(1.27812 -0.00371851 -3.42515e-14)
(1.28048 -0.0036907 -3.46101e-14)
(1.28283 -0.00366352 -3.04453e-14)
(1.28515 -0.00363697 -3.00958e-14)
(1.28746 -0.00361102 -2.85467e-14)
(1.28975 -0.00358563 -2.54641e-14)
(1.29203 -0.0035608 -2.49436e-14)
(1.29429 -0.0035365 -2.089e-14)
(1.29653 -0.0035127 -2.15797e-14)
(1.29876 -0.0034894 -1.55274e-14)
(1.30098 -0.00346657 -1.97633e-14)
(1.30318 -0.0034442 -9.20505e-15)
(1.30536 -0.00342227 -2.01097e-14)
(1.30754 -0.00340077 4.07017e-16)
(1.3097 -0.00337967 -2.43863e-14)
(1.31184 -0.00335897 1.45569e-14)
(1.31398 -0.00333866 -2.10377e-15)
(1.3161 -0.00331872 -4.28496e-15)
(1.3182 -0.00329914 7.27222e-16)
(1.3203 -0.00327991 -1.01916e-15)
(1.32238 -0.00326102 3.9828e-15)
(1.32445 -0.00324246 2.86091e-15)
(1.32651 -0.00322421 6.0693e-15)
(1.32856 -0.00320627 8.37631e-15)
(1.3306 -0.00318863 5.59364e-15)
(1.33262 -0.00317129 2.96338e-15)
(1.33464 -0.00315422 3.50198e-15)
(1.33664 -0.00313743 2.80522e-15)
(1.33863 -0.00312091 5.46996e-15)
(1.34062 -0.00310464 5.48527e-15)
(1.34259 -0.00308863 9.70487e-15)
(1.34455 -0.00307286 9.91001e-15)
(1.3465 -0.00305733 1.52414e-14)
(1.34844 -0.00304204 1.52399e-14)
(1.35038 -0.00302697 2.12313e-14)
(1.3523 -0.00301211 2.11326e-14)
(1.35421 -0.00299748 2.67546e-14)
(1.35612 -0.00298305 2.7822e-14)
(1.35801 -0.00296883 3.12444e-14)
(1.3599 -0.0029548 3.57175e-14)
(1.36178 -0.00294097 3.35596e-14)
(1.36365 -0.00292733 3.41215e-14)
(1.3655 -0.00291387 3.35653e-14)
(1.36736 -0.00290059 3.67111e-14)
(1.3692 -0.00288748 3.63416e-14)
(1.37103 -0.00287455 4.2063e-14)
(1.37286 -0.00286178 4.00833e-14)
(1.37468 -0.00284918 4.92767e-14)
(1.37649 -0.00283673 4.3116e-14)
(1.00001 -0.000713753 8.55572e-17)
(1.00066 -0.00213511 4.53808e-17)
(1.00201 -0.00352122 2.25665e-16)
(1.004 -0.0048482 1.562e-17)
(1.0066 -0.00609586 3.7995e-17)
(1.00977 -0.00724705 5.61346e-17)
(1.01344 -0.00828862 -2.81267e-17)
(1.01758 -0.00921184 3.82593e-16)
(1.02211 -0.0100122 -2.03039e-16)
(1.02697 -0.010689 1.8029e-16)
(1.03211 -0.011245 -1.78834e-16)
(1.03748 -0.0116856 3.26693e-16)
(1.043 -0.0120184 -6.5279e-16)
(1.04865 -0.0122525 -3.15938e-16)
(1.05436 -0.0123978 -1.70738e-15)
(1.06012 -0.012465 -1.9186e-15)
(1.06587 -0.0124646 -3.87885e-15)
(1.0716 -0.0124066 -4.52988e-15)
(1.07728 -0.0123009 -7.68484e-15)
(1.08289 -0.0121563 -8.96352e-15)
(1.08842 -0.0119808 -1.2696e-14)
(1.09385 -0.0117817 -1.51574e-14)
(1.09918 -0.0115651 -1.87009e-14)
(1.1044 -0.0113365 -2.43497e-14)
(1.10952 -0.0111004 -2.57037e-14)
(1.11452 -0.0108604 -3.53395e-14)
(1.1194 -0.0106199 -3.44211e-14)
(1.12418 -0.0103811 -5.12228e-14)
(1.12884 -0.0101461 -4.12678e-14)
(1.1334 -0.00991636 -7.15124e-14)
(1.13785 -0.00969297 -3.84951e-14)
(1.1422 -0.00947674 -9.84565e-14)
(1.14646 -0.0092682 -8.88036e-14)
(1.15062 -0.00906766 -4.77642e-14)
(1.15469 -0.00887528 -1.14919e-13)
(1.15867 -0.00869105 -8.38808e-14)
(1.16258 -0.00851489 -8.23807e-14)
(1.1664 -0.00834662 -8.56478e-14)
(1.17016 -0.00818601 -8.9182e-14)
(1.17384 -0.0080328 -8.94597e-14)
(1.17745 -0.00788667 -9.23247e-14)
(1.181 -0.00774732 -9.16983e-14)
(1.18448 -0.00761441 -9.32191e-14)
(1.18791 -0.00748761 -9.29744e-14)
(1.19129 -0.00736661 -8.95872e-14)
(1.1946 -0.00725108 -9.65973e-14)
(1.19787 -0.00714072 -7.92988e-14)
(1.20109 -0.00703522 -1.03031e-13)
(1.20427 -0.00693431 -6.36427e-14)
(1.20739 -0.00683771 -1.16318e-13)
(1.21048 -0.00674517 -8.31407e-14)
(1.21352 -0.00665645 -8.07295e-14)
(1.21653 -0.00657132 -7.85104e-14)
(1.2195 -0.00648956 -7.89034e-14)
(1.22243 -0.00641097 -7.43021e-14)
(1.22533 -0.00633537 -7.76821e-14)
(1.22819 -0.00626259 -6.87603e-14)
(1.23102 -0.00619245 -7.75388e-14)
(1.23382 -0.0061248 -6.04235e-14)
(1.23659 -0.00605951 -8.17503e-14)
(1.23933 -0.00599643 -4.63026e-14)
(1.24205 -0.00593546 -9.18836e-14)
(1.24473 -0.00587646 -6.26239e-14)
(1.24739 -0.00581933 -5.87078e-14)
(1.25003 -0.00576398 -5.61716e-14)
(1.25264 -0.0057103 -5.33479e-14)
(1.25522 -0.00565822 -5.03152e-14)
(1.25779 -0.00560765 -4.70126e-14)
(1.26033 -0.00555852 -4.45416e-14)
(1.26285 -0.00551075 -4.09341e-14)
(1.26534 -0.00546428 -3.82268e-14)
(1.26782 -0.00541904 -3.48769e-14)
(1.27027 -0.00537499 -3.15759e-14)
(1.27271 -0.00533206 -2.76854e-14)
(1.27513 -0.00529021 -2.45263e-14)
(1.27753 -0.00524939 -2.07274e-14)
(1.27991 -0.00520954 -1.79012e-14)
(1.28227 -0.00517065 -1.39973e-14)
(1.28461 -0.00513265 -1.12396e-14)
(1.28694 -0.00509552 -6.83441e-15)
(1.28925 -0.00505922 -4.58325e-15)
(1.29155 -0.00502371 -5.07862e-16)
(1.29382 -0.00498898 1.52004e-15)
(1.29609 -0.00495498 6.18066e-15)
(1.29834 -0.00492169 7.58564e-15)
(1.30057 -0.00488909 1.1429e-14)
(1.30279 -0.00485714 1.22204e-14)
(1.30499 -0.00482583 1.92798e-14)
(1.30718 -0.00479514 1.3898e-14)
(1.30936 -0.00476503 2.86469e-14)
(1.31152 -0.0047355 1.13857e-14)
(1.31367 -0.00470652 4.19422e-14)
(1.3158 -0.00467808 3.50094e-14)
(1.31793 -0.00465015 2.05986e-14)
(1.32004 -0.00462273 4.13287e-14)
(1.32213 -0.00459579 2.17164e-14)
(1.32422 -0.00456931 4.94434e-14)
(1.32629 -0.0045433 2.00358e-14)
(1.32836 -0.00451772 5.84595e-14)
(1.33041 -0.00449257 1.95206e-14)
(1.33245 -0.00446784 -3.02926e-14)
(1.33447 -0.00444351 -1.22469e-14)
(1.33649 -0.00441957 7.3474e-15)
(1.3385 -0.00439601 1.85734e-14)
(1.34049 -0.00437282 3.54694e-14)
(1.34248 -0.00434999 4.06118e-14)
(1.34445 -0.00432751 5.7448e-14)
(1.34641 -0.00430536 5.60597e-14)
(1.34837 -0.00428355 7.53524e-14)
(1.35031 -0.00426205 6.65742e-14)
(1.35225 -0.00424087 9.05565e-14)
(1.35417 -0.00421999 7.35491e-14)
(1.35608 -0.00419941 1.03175e-13)
(1.35799 -0.00417912 7.87557e-14)
(1.35989 -0.0041591 1.14144e-13)
(1.36177 -0.00413936 8.27552e-14)
(1.36365 -0.00411989 3.66239e-14)
(1.36552 -0.00410067 5.50909e-14)
(1.36738 -0.00408171 6.88847e-14)
(1.36923 -0.00406299 8.28854e-14)
(1.37107 -0.00404451 9.13626e-14)
(1.37291 -0.00402627 1.03335e-13)
(1.37473 -0.00400826 1.06808e-13)
(1.37655 -0.00399047 1.19052e-13)
(1.37836 -0.00397289 1.16222e-13)
(1.00001 -0.000940159 -7.03859e-18)
(1.0007 -0.00281023 -1.9897e-16)
(1.00212 -0.0046321 9.87742e-17)
(1.00421 -0.00637291 -9.65585e-17)
(1.00694 -0.00800484 2.37483e-16)
(1.01026 -0.00950508 4.56998e-16)
(1.0141 -0.0108565 7.80481e-16)
(1.01842 -0.0120482 7.69701e-16)
(1.02313 -0.0130749 3.72153e-16)
(1.02817 -0.0139368 2.91747e-16)
(1.03349 -0.0146384 -1.25207e-15)
(1.03901 -0.015188 -1.97607e-15)
(1.04469 -0.0155963 -5.15359e-15)
(1.05047 -0.0158761 -7.44088e-15)
(1.05631 -0.0160413 -1.32214e-14)
(1.06217 -0.0161063 -1.64494e-14)
(1.06801 -0.016085 -2.56467e-14)
(1.07382 -0.0159913 -2.9056e-14)
(1.07956 -0.0158376 -4.21767e-14)
(1.08523 -0.0156358 -4.50364e-14)
(1.0908 -0.0153963 -6.27066e-14)
(1.09626 -0.0151282 -6.43389e-14)
(1.10162 -0.0148396 -8.51243e-14)
(1.10686 -0.0145372 -8.9021e-14)
(1.11199 -0.0142267 -1.03622e-13)
(1.11699 -0.0139129 -1.28593e-13)
(1.12188 -0.0135994 -1.44226e-13)
(1.12666 -0.0132894 -1.54981e-13)
(1.13132 -0.0129852 -1.59728e-13)
(1.13587 -0.0126885 -1.64045e-13)
(1.14032 -0.0124006 -1.62296e-13)
(1.14467 -0.0121225 -1.64721e-13)
(1.14892 -0.0118547 -1.58399e-13)
(1.15307 -0.0115975 -1.68992e-13)
(1.15714 -0.0113511 -1.39476e-13)
(1.16111 -0.0111153 -1.91903e-13)
(1.16501 -0.0108901 -1.27552e-13)
(1.16883 -0.0106751 -1.58722e-13)
(1.17258 -0.01047 -1.60783e-13)
(1.17625 -0.0102744 -1.4712e-13)
(1.17986 -0.010088 -1.49937e-13)
(1.18341 -0.00991029 -1.27293e-13)
(1.18689 -0.00974083 -1.40766e-13)
(1.19032 -0.00957919 -1.02346e-13)
(1.19369 -0.00942497 -1.38842e-13)
(1.197 -0.00927773 -7.02861e-14)
(1.20027 -0.00913709 -9.84514e-14)
(1.20349 -0.00900265 -9.0851e-14)
(1.20666 -0.00887406 -8.86534e-14)
(1.20979 -0.00875096 -8.01087e-14)
(1.21287 -0.00863303 -7.8397e-14)
(1.21592 -0.00851995 -7.66974e-14)
(1.21893 -0.00841145 -7.98572e-14)
(1.22189 -0.00830723 -7.36263e-14)
(1.22483 -0.00820705 -7.31013e-14)
(1.22773 -0.00811067 -6.6527e-14)
(1.23059 -0.00801786 -6.05246e-14)
(1.23343 -0.00792842 -6.1221e-14)
(1.23623 -0.00784215 -5.7572e-14)
(1.239 -0.00775887 -5.38456e-14)
(1.24174 -0.00767841 -4.75605e-14)
(1.24446 -0.00760061 -3.99656e-14)
(1.24715 -0.00752532 -3.49668e-14)
(1.24981 -0.00745242 -2.46444e-14)
(1.25245 -0.00738177 -1.95714e-14)
(1.25506 -0.00731325 -1.08312e-14)
(1.25765 -0.00724676 -2.74085e-15)
(1.26022 -0.00718219 -3.39842e-16)
(1.26276 -0.00711944 2.66211e-15)
(1.26529 -0.00705843 9.95282e-15)
(1.26779 -0.00699906 1.15545e-14)
(1.27027 -0.00694127 2.50765e-14)
(1.27273 -0.00688498 3.2781e-14)
(1.27517 -0.00683012 3.80044e-14)
(1.27759 -0.00677662 3.9433e-14)
(1.27999 -0.00672443 4.68516e-14)
(1.28237 -0.00667349 4.77494e-14)
(1.28474 -0.00662374 5.63025e-14)
(1.28709 -0.00657514 5.58628e-14)
(1.28942 -0.00652764 6.5243e-14)
(1.29173 -0.00648119 6.40737e-14)
(1.29403 -0.00643576 7.2674e-14)
(1.29632 -0.00639129 7.20239e-14)
(1.29858 -0.00634776 7.78386e-14)
(1.30083 -0.00630514 7.00995e-14)
(1.30307 -0.00626337 8.1234e-14)
(1.30529 -0.00622245 1.06127e-13)
(1.3075 -0.00618233 7.77229e-14)
(1.30969 -0.00614298 9.21071e-14)
(1.31187 -0.00610438 7.42881e-14)
(1.31404 -0.00606651 9.78773e-14)
(1.31619 -0.00602934 6.65485e-14)
(1.31833 -0.00599284 1.13948e-13)
(1.32045 -0.00595699 5.4437e-14)
(1.32257 -0.00592178 1.3951e-13)
(1.32467 -0.00588718 5.46623e-14)
(1.32675 -0.00585316 1.4412e-13)
(1.32883 -0.00581973 2.4278e-14)
(1.33089 -0.00578685 1.94102e-13)
(1.33295 -0.0057545 3.02623e-13)
(1.33499 -0.00572268 5.93722e-13)
(1.33702 -0.00569137 2.94796e-13)
(1.33903 -0.00566055 2.83991e-13)
(1.34104 -0.00563021 2.64622e-13)
(1.34304 -0.00560032 2.63113e-13)
(1.34502 -0.00557089 2.41358e-13)
(1.347 -0.0055419 2.51461e-13)
(1.34896 -0.00551333 2.20832e-13)
(1.35091 -0.00548517 2.49127e-13)
(1.35286 -0.00545742 1.97773e-13)
(1.35479 -0.00543005 2.57999e-13)
(1.35671 -0.00540307 1.65501e-13)
(1.35863 -0.00537645 2.8384e-13)
(1.36053 -0.0053502 1.44399e-13)
(1.36242 -0.00532429 3.00293e-13)
(1.36431 -0.00529873 3.96172e-13)
(1.36618 -0.00527349 6.42361e-13)
(1.36805 -0.00524858 3.60201e-13)
(1.3699 -0.00522399 3.41533e-13)
(1.37175 -0.0051997 3.26062e-13)
(1.37359 -0.00517571 3.11565e-13)
(1.37542 -0.00515201 3.00038e-13)
(1.37724 -0.0051286 2.88388e-13)
(1.37905 -0.00510546 2.79758e-13)
(1.38086 -0.00508259 2.6991e-13)
(1.00001 -0.00118687 -6.83594e-16)
(1.00074 -0.00354629 6.58339e-16)
(1.00226 -0.00584168 -1.22092e-16)
(1.0045 -0.00802956 1.42121e-16)
(1.0074 -0.0100734 6.24982e-16)
(1.01092 -0.0119438 -5.8176e-16)
(1.01499 -0.0136195 1.10436e-15)
(1.01954 -0.0150876 8.47831e-16)
(1.02448 -0.0163429 -2.42043e-15)
(1.02976 -0.017387 -7.88763e-15)
(1.0353 -0.0182272 -1.75901e-14)
(1.04104 -0.0188754 -2.85804e-14)
(1.04691 -0.0193467 -4.549e-14)
(1.05286 -0.0196583 -6.03457e-14)
(1.05886 -0.0198288 -8.38005e-14)
(1.06485 -0.0198768 -1.00147e-13)
(1.07081 -0.0198206 -1.31074e-13)
(1.07672 -0.0196775 -1.44292e-13)
(1.08254 -0.0194636 -1.85402e-13)
(1.08827 -0.0191933 -1.88774e-13)
(1.09389 -0.0188798 -2.47156e-13)
(1.0994 -0.0185341 -2.27399e-13)
(1.10479 -0.0181659 -3.20107e-13)
(1.11005 -0.0177834 -2.48637e-13)
(1.11519 -0.0173933 -4.19214e-13)
(1.1202 -0.0170011 -4.90607e-13)
(1.1251 -0.0166113 -4.16286e-13)
(1.12987 -0.0162271 -3.45534e-13)
(1.13453 -0.0158513 -3.0859e-13)
(1.13908 -0.0154859 -2.57187e-13)
(1.14352 -0.0151322 -2.50804e-13)
(1.14786 -0.0147912 -2.03608e-13)
(1.1521 -0.0144634 -2.28011e-13)
(1.15625 -0.014149 -1.68919e-13)
(1.16031 -0.0138482 -2.35369e-13)
(1.16428 -0.0135607 -3.22428e-13)
(1.16817 -0.0132863 -1.89497e-13)
(1.17199 -0.0130245 -1.67146e-13)
(1.17573 -0.012775 -1.31527e-13)
(1.1794 -0.0125372 -8.83385e-14)
(1.183 -0.0123106 -7.60877e-14)
(1.18654 -0.0120946 -3.71336e-14)
(1.19002 -0.0118887 -5.05847e-14)
(1.19344 -0.0116923 -3.0845e-16)
(1.19681 -0.011505 -4.98104e-14)
(1.20013 -0.0113262 3.37375e-14)
(1.20339 -0.0111554 -2.43371e-14)
(1.20661 -0.0109921 1.30211e-14)
(1.20978 -0.0108359 -3.50178e-14)
(1.21291 -0.0106864 2.67079e-14)
(1.216 -0.0105432 -5.30913e-14)
(1.21904 -0.0104058 -8.14757e-14)
(1.22205 -0.010274 -7.00463e-14)
(1.22502 -0.0101474 -1.02429e-14)
(1.22796 -0.0100256 -2.57911e-14)
(1.23086 -0.00990851 4.1575e-14)
(1.23373 -0.00979569 -3.49641e-15)
(1.23657 -0.00968695 -3.16107e-14)
(1.23937 -0.00958205 2.59276e-15)
(1.24215 -0.00948076 4.42635e-14)
(1.2449 -0.00938289 6.01611e-14)
(1.24762 -0.00928823 9.67468e-14)
(1.25031 -0.00919662 9.57163e-14)
(1.25298 -0.00910789 1.33171e-13)
(1.25562 -0.00902188 1.1529e-13)
(1.25824 -0.00893845 1.58409e-13)
(1.26083 -0.00885747 1.2509e-13)
(1.2634 -0.00877881 7.91028e-14)
(1.26595 -0.00870235 1.16915e-13)
(1.26848 -0.00862799 1.28879e-13)
(1.27099 -0.00855562 1.56609e-13)
(1.27347 -0.00848516 2.53121e-13)
(1.27593 -0.0084165 1.93556e-13)
(1.27838 -0.00834956 1.49568e-13)
(1.2808 -0.00828428 1.53544e-13)
(1.28321 -0.00822057 1.74162e-13)
(1.2856 -0.00815836 1.66938e-13)
(1.28797 -0.0080976 1.90895e-13)
(1.29032 -0.00803822 1.70717e-13)
(1.29266 -0.00798016 2.02442e-13)
(1.29498 -0.00792336 1.66874e-13)
(1.29728 -0.00786779 2.10546e-13)
(1.29956 -0.00781339 1.59649e-13)
(1.30183 -0.00776011 1.36125e-13)
(1.30409 -0.00770791 1.32628e-13)
(1.30633 -0.00765675 1.69351e-13)
(1.30855 -0.00760659 1.8307e-13)
(1.31076 -0.0075574 1.79597e-13)
(1.31295 -0.00750914 1.74931e-13)
(1.31513 -0.00746178 1.06918e-13)
(1.3173 -0.00741528 1.71935e-13)
(1.31945 -0.00736962 1.25962e-13)
(1.32159 -0.00732477 2.15868e-13)
(1.32372 -0.00728069 1.23529e-13)
(1.32583 -0.00723737 1.88878e-13)
(1.32793 -0.00719479 1.08166e-13)
(1.33002 -0.0071529 2.37451e-13)
(1.33209 -0.0071117 8.60178e-14)
(1.33415 -0.00707117 3.33151e-13)
(1.3362 -0.00703127 3.3767e-13)
(1.33824 -0.006992 4.21333e-13)
(1.34027 -0.00695332 2.28486e-13)
(1.34228 -0.00691524 2.45622e-13)
(1.34428 -0.00687771 2.47984e-13)
(1.34627 -0.00684074 2.64007e-13)
(1.34825 -0.0068043 2.55299e-13)
(1.35022 -0.00676838 2.76154e-13)
(1.35218 -0.00673297 2.51557e-13)
(1.35413 -0.00669804 2.87482e-13)
(1.35606 -0.00666358 2.35561e-13)
(1.35799 -0.00662959 3.05311e-13)
(1.3599 -0.00659605 2.00723e-13)
(1.36181 -0.00656294 3.41139e-13)
(1.3637 -0.00653026 1.62782e-13)
(1.36558 -0.00649799 3.79477e-13)
(1.36746 -0.00646612 3.76256e-13)
(1.36932 -0.00643465 4.30135e-13)
(1.37118 -0.00640355 2.41375e-13)
(1.37302 -0.00637283 2.45416e-13)
(1.37485 -0.00634247 2.47539e-13)
(1.37668 -0.00631246 2.48154e-13)
(1.37849 -0.00628279 2.47344e-13)
(1.3803 -0.00625346 2.45503e-13)
(1.3821 -0.00622446 2.42648e-13)
(1.38388 -0.00619577 2.39385e-13)
(1.00001 -0.00146093 -5.36995e-15)
(1.00081 -0.00436387 7.68191e-15)
(1.00245 -0.0071828 -5.60463e-15)
(1.00487 -0.00986085 7.25334e-15)
(1.00801 -0.0123509 -7.8569e-16)
(1.01179 -0.0146164 -1.72181e-15)
(1.01615 -0.0166317 1.42983e-14)
(1.021 -0.0183826 -1.56878e-14)
(1.02625 -0.0198647 -5.77889e-14)
(1.03182 -0.0210824 -1.06376e-13)
(1.03764 -0.0220474 -1.6249e-13)
(1.04364 -0.0227765 -2.18381e-13)
(1.04975 -0.0232905 -2.80565e-13)
(1.05592 -0.0236123 -3.35814e-13)
(1.0621 -0.023766 -4.00495e-13)
(1.06826 -0.0237755 -4.48188e-13)
(1.07436 -0.0236636 -5.15647e-13)
(1.08038 -0.0234521 -5.4918e-13)
(1.0863 -0.0231605 -6.2449e-13)
(1.09211 -0.0228065 -6.33589e-13)
(1.09779 -0.0224054 -7.27544e-13)
(1.10334 -0.0219705 -6.98265e-13)
(1.10876 -0.021513 -8.26032e-13)
(1.11405 -0.0210422 -7.4606e-13)
(1.1192 -0.0205659 -5.42418e-13)
(1.12423 -0.02009 9.70927e-13)
(1.12912 -0.0196195 4.36573e-13)
(1.1339 -0.019158 3.3693e-13)
(1.13856 -0.0187084 2.09077e-13)
(1.1431 -0.0182725 1.55144e-13)
(1.14754 -0.0178519 2.71654e-14)
(1.15187 -0.0174473 2.53615e-14)
(1.1561 -0.0170592 -1.26545e-13)
(1.16024 -0.0166876 -6.27847e-14)
(1.16429 -0.0163326 1.07379e-13)
(1.16826 -0.0159938 1.16498e-12)
(1.17214 -0.0156707 6.841e-13)
(1.17595 -0.0153628 5.89497e-13)
(1.17968 -0.0150695 4.94231e-13)
(1.18335 -0.0147901 4.17971e-13)
(1.18695 -0.014524 3.35993e-13)
(1.19049 -0.0142705 2.92661e-13)
(1.19397 -0.0140289 2.18061e-13)
(1.19739 -0.0137986 2.09036e-13)
(1.20075 -0.0135789 1.22056e-13)
(1.20407 -0.0133691 1.44034e-13)
(1.20734 -0.0131688 4.70622e-14)
(1.21056 -0.0129773 1.29122e-13)
(1.21373 -0.0127941 -2.93369e-14)
(1.21686 -0.0126187 1.45514e-13)
(1.21995 -0.0124507 2.35464e-13)
(1.223 -0.0122895 9.11548e-13)
(1.22601 -0.0121347 4.45918e-13)
(1.22899 -0.0119861 4.92619e-13)
(1.23193 -0.0118432 3.19655e-13)
(1.23483 -0.0117056 4.49737e-13)
(1.23771 -0.011573 5.44913e-13)
(1.24055 -0.0114453 1.07053e-12)
(1.24336 -0.0113219 6.60765e-13)
(1.24614 -0.0112028 6.25174e-13)
(1.24889 -0.0110877 5.45623e-13)
(1.25162 -0.0109763 5.42618e-13)
(1.25432 -0.0108685 4.45751e-13)
(1.25699 -0.010764 4.89633e-13)
(1.25964 -0.0106627 3.48473e-13)
(1.26226 -0.0105644 4.69392e-13)
(1.26486 -0.0104689 5.99041e-13)
(1.26743 -0.0103761 9.74915e-13)
(1.26999 -0.0102859 6.57073e-13)
(1.27252 -0.0101981 5.32615e-13)
(1.27503 -0.0101126 2.37548e-13)
(1.27751 -0.0100294 -3.34422e-14)
(1.27998 -0.00994821 3.91397e-13)
(1.28243 -0.00986903 7.98369e-13)
(1.28486 -0.00979177 4.29379e-13)
(1.28726 -0.00971633 4.24868e-13)
(1.28965 -0.00964263 3.59797e-13)
(1.29203 -0.00957059 3.85408e-13)
(1.29438 -0.00950015 2.90841e-13)
(1.29671 -0.00943124 3.67447e-13)
(1.29903 -0.00936379 2.12037e-13)
(1.30133 -0.00929775 3.79296e-13)
(1.30362 -0.00923305 4.4941e-13)
(1.30589 -0.00916964 8.14579e-13)
(1.30814 -0.00910749 4.25699e-13)
(1.31037 -0.00904652 4.56618e-13)
(1.31259 -0.00898671 3.32006e-13)
(1.3148 -0.00892801 4.32908e-13)
(1.31699 -0.00887037 5.57048e-13)
(1.31916 -0.00881377 7.8873e-13)
(1.32132 -0.00875815 5.46083e-13)
(1.32347 -0.0087035 3.80492e-13)
(1.3256 -0.00864976 5.16826e-13)
(1.32771 -0.00859692 5.7204e-13)
(1.32982 -0.00854495 8.63148e-13)
(1.3319 -0.0084938 5.30209e-13)
(1.33398 -0.00844347 4.96243e-13)
(1.33604 -0.00839391 4.57921e-13)
(1.33809 -0.00834511 4.19824e-13)
(1.34013 -0.00829704 4.15095e-13)
(1.34215 -0.00824967 4.74975e-13)
(1.34416 -0.00820299 4.41437e-13)
(1.34616 -0.00815698 4.1473e-13)
(1.34814 -0.00811161 3.86324e-13)
(1.35011 -0.00806687 3.66141e-13)