/*--------------------------------*- C++ -*----------------------------------*\
| =========                 |                                                 |
| \\      /  F ield         | OpenFOAM: The Open Source CFD Toolbox           |
|  \\    /   O peration     | Version:                                        |
|   \\  /    A nd           | Website:  www.openfoam.com                      |
|    \\/     M anipulation  |                                                 |
\*---------------------------------------------------------------------------*/
FoamFile
{
    version     2.0;
    format      ascii;
    class       surfaceScalarField;
    location    "116";
    object      phi;
}
// * * * * * * * * * * * * * * * * * * * * * * * * * * * * * * * * * * * * * //

dimensions      [0 3 -1 0 0 0 0];
oriented        oriented;


internalField   nonuniform List<scalar> 
2202
(
0.0331815
0.0889113
0.0288572
0.0593194
0.0291239
0.0148713
0.0292215
-0.0435822
0.0338713
-0.0751739
0.0357729
-0.0979028
0.0330646
-0.0996172
0.0279625
-0.087666
0.0261549
-0.104995
0.0254063
-0.0321927
0.0316847
0.00823052
0.0363502
0.0520639
0.0354591
0.112168
0.0334642
0.0908332
0.0360992
0.118472
0.0404459
0.0587338
0.0428274
-0.0315209
0.0457761
-0.0547067
0.0451904
-0.153219
0.0456433
-0.131877
0.0481944
-0.0449984
0.0528269
-0.00151335
0.0538323
0.15962
0.0533178
0.161719
0.0531722
0.051899
0.0571569
-0.0052141
0.0579113
-0.190738
0.0561441
-0.173378
0.0548397
0.0905523
0.0978774
0.0416533
0.0920736
0.0378695
0.0631032
0.0364939
0.0162469
0.0343228
-0.0414111
0.0364877
-0.0773387
0.0364168
-0.0978319
0.0332806
-0.096481
0.0278538
-0.0822392
0.0246098
-0.101751
0.0248507
-0.0324336
0.0311768
0.00190434
0.0368774
0.0463633
0.0358521
0.113193
0.0329237
0.0937616
0.0366327
0.114763
0.0412798
0.0540868
0.043764
-0.0340051
0.0470557
-0.0579984
0.0457745
-0.151938
0.0456911
-0.131794
0.048081
-0.0473884
0.0518648
-0.00529712
0.0529061
0.158579
0.0531182
0.161507
0.0532881
0.0517291
0.0577634
-0.00968941
0.0589683
-0.191943
0.0563932
-0.170803
0.0545539
0.0923916
0.0988738
0.0522582
0.0935835
0.0484469
0.0669146
0.0449853
0.0197085
0.0405028
-0.0369286
0.0397649
-0.0766009
0.0375891
-0.0956561
0.0339034
-0.0927953
0.0285306
-0.0768664
0.0242368
-0.0974572
0.0262786
-0.0344755
0.0312626
-0.00307957
0.0379911
0.0396348
0.03852
0.112664
0.0350258
0.0972558
0.0384435
0.111345
0.0424614
0.0500689
0.0445585
-0.0361022
0.0475706
-0.0610104
0.0456048
-0.149972
0.0452026
-0.131392
0.0476118
-0.0497975
0.0509186
-0.00860398
0.0522799
0.157217
0.0531778
0.160609
0.0536202
0.0512867
0.0581779
-0.0142471
0.0595995
-0.193364
0.0563617
-0.167565
0.0540661
0.0946872
0.0997428
0.0634516
0.0934804
0.0594449
0.0709213
0.0546271
0.0245262
0.0480649
-0.0303663
0.0443527
-0.0728887
0.0401467
-0.0914501
0.0352622
-0.0879108
0.0295306
-0.0711348
0.0242023
-0.0921289
0.0272908
-0.037564
0.0319268
-0.00771559
0.0397838
0.0317778
0.0407415
0.111706
0.0360076
0.10199
0.039377
0.107976
0.0437059
0.04574
0.0459151
-0.0383114
0.0486198
-0.0637151
0.0460523
-0.147405
0.0451458
-0.130485
0.0472427
-0.0518944
0.0497041
-0.0110653
0.0510961
0.155825
0.0526947
0.15901
0.0537162
0.0502652
0.0584371
-0.0189681
0.0599984
-0.194926
0.056231
-0.163797
0.0534501
0.097468
0.100511
0.0739813
0.0917013
0.0712079
0.0736946
0.0651854
0.0305488
0.0568865
-0.0220675
0.0489038
-0.0649059
0.0423982
-0.0849446
0.0371021
-0.0826146
0.0312032
-0.0652359
0.0250209
-0.0859466
0.0292489
-0.041792
0.033404
-0.0118707
0.0410357
0.0241461
0.0441141
0.108628
0.0398058
0.106298
0.0419941
0.105787
0.0453274
0.0424067
0.0468972
-0.0398812
0.0488801
-0.0656981
0.0458886
-0.144414
0.0445292
-0.129126
0.0465146
-0.0538799
0.0485373
-0.013088
0.050163
0.1542
0.0523582
0.156815
0.053815
0.0488085
0.0584123
-0.0235655
0.0598234
-0.196337
0.0557004
-0.159674
0.0526004
0.100568
0.101112
0.0822162
0.0800145
0.0758963
0.0734431
0.0371202
0.0644203
-0.0130447
0.0536038
-0.0540894
0.0452838
-0.0766245
0.0394493
-0.0767802
0.0328358
-0.0586223
0.0255507
-0.0786616
0.0299865
-0.0462278
0.0339226
-0.0158067
0.0417163
0.0163524
0.0470442
0.1033
0.0423581
0.110984
0.0437771
0.104368
0.0473249
0.038859
0.0489307
-0.041487
0.0499852
-0.0667527
0.0462826
-0.140711
0.0442684
-0.127111
0.0459999
-0.0556114
0.0473513
-0.0144393
0.0488942
0.152657
0.05157
0.154139
0.0536367
0.0467418
0.0581816
-0.0281104
0.0594324
-0.197588
0.0549985
-0.15524
0.0515738
0.103993
0.101558
0.0866952
0.0762494
0.0805855
0.0432299
0.0710466
-0.00350575
0.0579756
-0.0410184
0.0474215
-0.0660704
0.0411143
-0.070473
0.0340444
-0.0515525
0.024801
-0.0694181
0.02865
-0.0500768
0.0350537
-0.0222105
0.0435608
0.00784524
0.0507259
0.0961351
0.0467807
0.114929
0.0473934
0.103756
0.0494687
0.0367836
0.050217
-0.0422353
0.0500167
-0.0665523
0.0457398
-0.136434
0.0435572
-0.124929
0.0450576
-0.0571118
0.0461025
-0.0154842
0.0479375
0.150822
0.0510458
0.151031
0.0535118
0.0442758
0.0577239
-0.0323225
0.0585377
-0.198401
0.0537815
-0.150484
0.0502679
0.107506
0.101729
0.0882406
0.0752299
0.0823344
0.0491361
0.074219
0.00460956
0.061383
-0.0281824
0.0488343
-0.0535217
0.042436
-0.0640747
0.0359567
-0.0450731
0.0255485
-0.0590099
0.027751
-0.0522794
0.0349704
-0.0294299
0.0437717
-0.000956068
0.0527988
0.0871081
0.0501843
0.117544
0.050035
0.103905
0.0520625
0.0347561
0.0520542
-0.042227
0.0504225
-0.0649206
0.045577
-0.131589
0.0431655
-0.122517
0.0443918
-0.0583381
0.0450661
-0.0161585
0.0467181
0.14917
0.0502706
0.147479
0.0533243
0.0412222
0.0571647
-0.036163
0.0575032
-0.19874
0.0524598
-0.145441
0.0488592
0.111107
0.101659
0.0896393
0.0708006
0.0868242
0.0519512
0.0784821
0.0129517
0.0642726
-0.0139729
0.0496655
-0.0389147
0.0429135
-0.0573226
0.0373611
-0.0395207
0.0268577
-0.0485065
0.0255355
-0.0509571
0.0325653
-0.0364598
0.0451914
-0.0135822
0.0550409
0.0772586
0.0541157
0.118469
0.0531767
0.104844
0.0541826
0.0337502
0.0527015
-0.0407459
0.0495134
-0.0617325
0.0450559
-0.127131
0.0428495
-0.120311
0.0437263
-0.0592149
0.0441722
-0.0166044
0.0459391
0.147403
0.0501178
0.1433
0.0533361
0.0380038
0.0564168
-0.0392436
0.0560585
-0.198382
0.0506489
-0.140031
0.0471461
0.11461
0.101206
0.083016
0.0818502
0.0531171
0.0745202
0.0202817
0.0625509
-0.0020037
0.049304
-0.0256677
0.0432199
-0.0512385
0.0395104
-0.0358113
0.0309663
-0.0399624
0.0262617
-0.0462525
0.0301046
-0.0403027
0.0431703
-0.0266479
0.0554907
0.0649382
0.05735
0.11661
0.0554296
0.106764
0.0559738
0.0332061
0.054431
-0.0392031
0.0495523
-0.0568538
0.044999
-0.122578
0.0427402
-0.118052
0.0427932
-0.059268
0.0429273
-0.0167385
0.0447421
0.145588
0.0495825
0.138459
0.0533905
0.0341959
0.0557025
-0.0415556
0.0545228
-0.197202
0.0487064
-0.134215
0.0452909
0.118025
0.100291
0.0701063
0.0465765
0.0714573
0.0189307
0.0684969
0.000956731
0.0612937
-0.0184645
0.0565728
-0.0465176
0.0518969
-0.0311354
0.0445238
-0.0325893
0.0378884
-0.0396171
0.0350651
-0.0374794
0.0396962
-0.0312789
0.0433539
0.0612804
0.0427524
0.117211
0.0479675
0.101549
0.0572035
0.0239701
0.059859
-0.0418586
0.0565949
-0.0535896
0.0529776
-0.118961
0.048022
-0.113096
0.0433716
-0.0546176
0.0368225
-0.0101894
0.0351705
0.14724
0.04385
0.12978
0.0510781
0.0269678
0.054642
-0.0451195
0.0522596
-0.19482
0.0431474
-0.125103
0.0389603
0.122212
0.098805
0.0734077
0.0398088
0.0736979
0.0186404
0.0705458
0.00410885
0.0633289
-0.0112476
0.0572372
-0.0404259
0.0526425
-0.0265407
0.0483979
-0.0283448
0.0421501
-0.0333693
0.0376626
-0.0329919
0.0433749
-0.0369912
0.0481655
0.0564898
0.0490969
0.11628
0.0561113
0.0945349
0.0647731
0.0153083
0.066045
-0.0431305
0.0616698
-0.0492145
0.056836
-0.114127
0.0509824
-0.107243
0.0459574
-0.0495926
0.0390186
-0.00325066
0.0374253
0.148833
0.0477997
0.119406
0.0554909
0.0192765
0.0584748
-0.0481035
0.0547795
-0.191124
0.0443223
-0.114645
0.0399049
0.12663
0.0967593
0.0748865
0.0350028
0.0740984
0.0194285
0.0722425
0.00596477
0.0673627
-0.00636779
0.0623865
-0.0354497
0.0589173
-0.0230715
0.0558377
-0.0252651
0.0496283
-0.0271598
0.0428331
-0.0261968
0.0478782
-0.0420362
0.0537562
0.0506117
0.05661
0.113426
0.0650826
0.0860624
0.0727678
0.00762303
0.0724414
-0.0428041
0.0663407
-0.0431138
0.0605716
-0.108358
0.0544852
-0.101156
0.0487277
-0.0438351
0.0411696
0.00430743
0.0404561
0.149547
0.0524927
0.107369
0.0604279
0.0113413
0.0625091
-0.0501846
0.0570286
-0.185644
0.0449903
-0.102607
0.0405586
0.131061
0.0938629
0.0726137
0.0306608
0.0729846
0.0190576
0.0737214
0.00522803
0.0704035
-0.00304995
0.0647797
-0.0298259
0.0604442
-0.0187359
0.0580544
-0.0228753
0.0545203
-0.0236257
0.0485463
-0.0202228
0.052984
-0.0464739
0.0589175
0.0446782
0.0641123
0.108231
0.0746201
0.0755546
0.0803151
0.00192806
0.0776999
-0.0401889
0.0707156
-0.0361296
0.0638659
-0.101508
0.056648
-0.0939384
0.0500524
-0.0372395
0.0423352
0.0120246
0.0439397
0.147942
0.0578039
0.0935048
0.0654442
0.00370097
0.0665679
-0.0513083
0.0591392
-0.178215
0.0453597
-0.0888274
0.0412485
0.135173
0.0899611
0.0717809
0.0246787
0.073713
0.0171255
0.0758633
0.0030777
0.0748551
-0.00204172
0.0708203
-0.0257911
0.0673167
-0.0152323
0.0640623
-0.019621
0.0625513
-0.0221147
0.0548567
-0.0125282
0.0546553
-0.0462726
0.0624734
0.0368602
0.0731399
0.0975647
0.0838278
0.0648666
0.0865958
-0.000839881
0.0831967
-0.0367898
0.0757124
-0.0286453
0.0671726
-0.0929681
0.0590749
-0.0858407
0.0519301
-0.0300947
0.0443476
0.0196071
0.0488237
0.143466
0.0639659
0.0783626
0.0707968
-0.00312996
0.0707096
-0.0512212
0.0607718
-0.168277
0.0449795
-0.0730351
0.0418897
0.138262
0.0847018
0.0738405
0.0186364
0.0776813
0.0132848
0.0800806
0.000678365
0.0774796
0.000559257
0.0717134
-0.0200249
0.0680305
-0.0115494
0.064793
-0.0163835
0.0652848
-0.0226065
0.0582633
-0.00550672
0.0530658
-0.041075
0.0625215
0.0274045
0.0795283
0.0805579
0.0913146
0.0530803
0.091796
-0.00132125
0.0856111
-0.0306049
0.0780843
-0.0211185
0.0693364
-0.0842202
0.0591459
-0.0756502
0.0513649
-0.0223137
0.0458664
0.0251057
0.0546721
0.13466
0.0705617
0.062473
0.0760142
-0.00858251
0.0747426
-0.0499495
0.0622062
-0.155741
0.0441525
-0.0549814
0.0427374
0.139677
0.0776901
0.0785555
0.0132814
0.0809223
0.010918
0.0828353
-0.00123462
0.0822311
0.00116348
0.0793237
-0.0171175
0.0770759
-0.00930159
0.0729422
-0.0122498
0.0718929
-0.0215572
0.0670438
-0.000657581
0.0558886
-0.0299199
0.0636901
0.019603
0.0848357
0.0594122
0.0952951
0.0426209
0.0928861
0.00108777
0.0878974
-0.0256161
0.0840726
-0.0172937
0.0753761
-0.0755237
0.0626078
-0.062882
0.0535761
-0.013282
0.0495561
0.0291257
0.0622616
0.121955
0.0778363
0.0468984
0.0812192
-0.0119654
0.078609
-0.0473394
0.0632062
-0.140338
0.043009
-0.0347842
0.0443639
0.138323
0.0687465
0.0833911
0.00871647
0.0854293
0.00887977
0.0856452
-0.00145053
0.08521
0.00159863
0.0816056
-0.0135131
0.0796072
-0.00730312
0.0769157
-0.00955835
0.0747056
-0.0193472
0.072733
0.00131502
0.0634888
-0.0206756
0.0691726
0.0139192
0.087868
0.0407168
0.0968775
0.0336114
0.0954083
0.00255695
0.0903213
-0.0205291
0.086384
-0.0133564
0.0759256
-0.0650653
0.0613627
-0.0483191
0.0539285
-0.00584779
0.0537843
0.0292699
0.0705971
0.105142
0.0850962
0.0323993
0.0861333
-0.0130026
0.0820427
-0.0432488
0.0633231
-0.121618
0.0415938
-0.0130549
0.0474639
0.132453
0.0579735
0.0875931
0.00586657
0.0893697
0.00710317
0.0903471
-0.00242789
0.089992
0.0019537
0.0869687
-0.0104898
0.0850885
-0.00542296
0.0830446
-0.00751442
0.0789324
-0.015235
0.0791939
0.00105357
0.0726387
-0.0141205
0.0751259
0.0114321
0.0900903
0.0257524
0.0971192
0.0265826
0.0956543
0.00402184
0.0916685
-0.0165434
0.0912387
-0.0129266
0.0820564
-0.055883
0.0663039
-0.0325665
0.05933
0.00112608
0.0612219
0.027378
0.080622
0.0857421
0.0923988
0.0206224
0.0910661
-0.0116699
0.0858
-0.0379826
0.0633113
-0.0991296
0.0408566
0.00939976
0.053076
0.120233
0.0458934
0.0929723
0.00368338
0.0944763
0.00559914
0.0941269
-0.00207848
0.0942271
0.00185349
0.0918984
-0.00816108
0.0901868
-0.00371137
0.0890271
-0.00635472
0.0848359
-0.0110438
0.0854391
0.000450404
0.0807047
-0.00938617
0.0823557
0.00978115
0.0923812
0.0157269
0.098512
0.0204518
0.100503
0.00203064
0.0959297
-0.0119699
0.0918991
-0.00889599
0.0802849
-0.0442688
0.0682684
-0.02055
0.0669577
0.00243677
0.0710246
0.0233111
0.0916372
0.0651295
0.101724
0.0105356
0.09795
-0.00789578
0.0903159
-0.0303485
0.0626851
-0.0714988
0.0429417
0.0291432
0.063044
0.100131
0.0340929
0.0983869
0.00260424
0.0996469
0.00433919
0.099538
-0.00196959
0.0994075
0.00198403
0.0977707
-0.0065243
0.0959915
-0.00193216
0.0951687
-0.00553197
0.0912448
-0.00711993
0.0921088
-0.000413541
0.0887591
-0.0060365
0.0902069
0.00833334
0.0976548
0.00827901
0.10151
0.0165966
0.103657
-0.000115902
0.100809
-0.00912233
0.0996541
-0.00774108
0.0893622
-0.0339769
0.0788244
-0.0100122
0.0805302
0.000731
0.0837694
0.0200718
0.099087
0.0498119
0.103795
0.00582754
0.0994139
-0.00351475
0.0964408
-0.0273753
0.0713538
-0.0464119
0.0542315
0.0462655
0.0751831
0.0791793
0.0250173
0.104523
0.0018122
0.105622
0.00323986
0.105153
-0.00150032
0.105219
0.00191856
0.103707
-0.00501231
0.102303
-0.000528641
0.101869
-0.00509794
0.0985744
-0.00382526
0.0993404
-0.00117959
0.0971319
-0.00382796
0.0982861
0.00717915
0.10341
0.00315462
0.107308
0.0126986
0.108351
-0.00115807
0.104974
-0.00574598
0.103749
-0.00651536
0.0950545
-0.0252829
0.0885854
-0.00354304
0.0910256
-0.00170918
0.0938868
0.0172106
0.10743
0.0362685
0.109085
0.00417299
0.101694
0.00387587
0.0954227
-0.0211039
0.0761637
-0.0271529
0.0705514
0.0518779
0.0908223
0.0589084
0.0194737
0.110962
0.00145842
0.111892
0.00230935
0.111532
-0.00114013
0.111473
0.00197708
0.110551
-0.00409023
0.109298
0.000724544
0.108839
-0.00463873
0.106512
-0.00149856
0.106906
-0.00157346
0.105499
-0.00242075
0.106983
0.00569504
0.10996
0.000177688
0.112479
0.0101796
0.114192
-0.00287068
0.111366
-0.00292018
0.110049
-0.00519892
0.10321
-0.0184436
0.0987044
0.000962579
0.100952
-0.00395708
0.10195
0.0162132
0.112137
0.0260817
0.115037
0.00127269
0.109865
0.00904788
0.105074
-0.0163127
0.0916565
-0.0137358
0.0905236
0.0530108
0.106387
0.0430448
0.0157766
0.11806
0.00111018
0.118726
0.00164384
0.118453
-0.000867223
0.118517
0.001913
0.117653
-0.00322583
0.116881
0.00149613
0.116293
-0.0040506
0.114811
-1.65485e-05
0.114908
-0.00167006
0.114051
-0.00156412
0.115289
0.00445692
0.117013
-0.00154582
0.119309
0.00788276
0.119878
-0.00343942
0.117851
-0.000893403
0.116756
-0.00410327
0.111368
-0.0130558
0.10857
0.00376008
0.109502
-0.00488862
0.111102
0.0146127
0.117982
0.0192025
0.119016
0.000237882
0.116035
0.0120289
0.110854
-0.0111318
0.102808
-0.00568987
0.10783
0.0479889
0.117905
0.0329703
0.0148532
0.125736
0.000799972
0.126205
0.00117539
0.126013
-0.000675958
0.126147
0.00177937
0.125382
-0.002461
0.125134
0.00174418
0.124267
-0.00318343
0.123639
0.000611099
0.123353
-0.00138414
0.122883
-0.00109415
0.124128
0.00321217
0.124636
-0.00205337
0.126619
0.00589904
0.126651
-0.00347085
0.125597
0.000160185
0.124261
-0.00276731
0.120274
-0.0090687
0.11919
0.00484419
0.118467
-0.0041659
0.120565
0.012515
0.125317
0.0144503
0.125492
6.34292e-05
0.12491
0.0126108
0.1195
-0.00572196
0.114503
-0.000692931
0.122138
0.0403541
0.128541
0.0265675
0.0150822
0.134029
0.000544883
0.134384
0.000820459
0.134189
-0.000480632
0.134475
0.00149342
0.13377
-0.00175662
0.133839
0.00167591
0.132986
-0.00233054
0.132733
0.000864163
0.132444
-0.00109532
0.132033
-0.000683302
0.133057
0.00218794
0.133018
-0.00201415
0.134664
0.00425295
0.134271
-0.00307738
0.133701
0.000729876
0.132711
-0.00177764
0.129603
-0.00596046
0.129414
0.00503313
0.128192
-0.00294345
0.13027
0.0104372
0.133563
0.0111564
0.132947
0.000680061
0.133425
0.012133
0.129376
-0.00167343
0.125983
0.00270051
0.13384
0.0324962
0.138044
0.0223635
0.0154969
0.143
0.000324512
0.143256
0.000565118
0.143117
-0.000341691
0.143441
0.00116899
0.142842
-0.00115759
0.143118
0.00139952
0.142327
-0.00153947
0.142342
0.000849265
0.141968
-0.000720577
0.141694
-0.000409272
0.142441
0.00144032
0.142099
-0.00167226
0.143376
0.00297637
0.142721
-0.00242276
0.142628
0.000823511
0.141714
-0.000864159
0.139478
-0.00372404
0.139919
0.00459184
0.138391
-0.00141509
0.140305
0.00852325
0.142382
0.00907939
0.141486
0.00157558
0.142773
0.0108459
0.139686
0.00141425
0.137446
0.00494021
0.14433
0.0256122
0.14756
0.0191332
0.0156503
0.152657
0.000207779
0.152866
0.000356167
0.152729
-0.000204667
0.153048
0.000850158
0.152615
-0.000725185
0.152921
0.00109395
0.152353
-0.000971274
0.152434
0.000768385
0.152175
-0.0004624
0.151911
-0.000144456
0.152381
0.000970423
0.151938
-0.00122934
0.152793
0.00212048
0.152125
-0.00175384
0.15213
0.00081758
0.151555
-0.000288403
0.15
-0.00216937
0.150594
0.00399759
0.149294
-0.000115179
0.150716
0.0071015
0.152095
0.00770052
0.151177
0.00249384
0.152468
0.00955511
0.150593
0.0032892
0.149354
0.00617914
0.154771
0.0201945
0.157387
0.0165172
0.0153259
0.163025
0.000155056
0.163147
0.000233674
0.163068
-0.000125248
0.163349
0.000569532
0.163101
-0.000477122
0.163433
0.000761528
0.163089
-0.000627147
0.163234
0.000623318
0.163
-0.000228532
0.162768
8.74947e-05
0.162919
0.000819205
0.162377
-0.000686965
0.162862
0.00163587
0.162243
-0.00113477
0.162413
0.00064715
0.162128
-3.57891e-06
0.161212
-0.00125325
0.161863
0.00334657
0.160701
0.00104641
0.161651
0.00615211
0.162562
0.00678894
0.16175
0.00330647
0.163003
0.00830209
0.161996
0.00429604
0.161477
0.00669792
0.165606
0.0160661
0.167905
0.0142175
0.0145634
0.174078
0.000154001
0.174157
0.000154698
0.174149
-0.000117888
0.174416
0.000302323
0.174377
-0.000437598
0.174736
0.000402012
0.174621
-0.000511978
0.174783
0.000461449
0.174585
-3.01047e-05
0.174296
0.000376031
0.174162
0.000953216
0.173512
-3.6871e-05
0.173656
0.00149222
0.173135
-0.000614036
0.173438
0.000344272
0.173509
-7.48474e-05
0.173155
-0.000899486
0.17376
0.00274234
0.172818
0.00198781
0.173232
0.00573823
0.173795
0.00622653
0.173286
0.0038154
0.174408
0.00717999
0.173971
0.0047324
0.174024
0.00664516
0.177217
0.0128727
0.179208
0.0122269
0.0134832
0.186036
0.00018559
0.186058
0.000133236
0.186076
-0.000135658
0.1863
7.74136e-05
0.186353
-0.000489805
0.186699
5.59517e-05
0.186715
-0.000528657
0.186924
0.00025281
0.186787
0.000106829
0.186559
0.000603864
0.186334
0.00117897
0.185698
0.000598802
0.185651
0.0015386
0.185126
-8.81576e-05
0.185359
0.000110478
0.185538
-0.000253635
0.185459
-0.000820357
0.186109
0.00209217
0.185593
0.00250403
0.185823
0.00550836
0.186169
0.00588078
0.18584
0.00414375
0.186778
0.00624231
0.186746
0.00476456
0.187099
0.00629198
0.189522
0.0104495
0.191241
0.0105079
0.0121692
0.199097
0.000223378
0.199081
0.000149411
0.199061
-0.000116124
0.199169
-3.01133e-05
0.199164
-0.000485454
0.199363
-0.000142761
0.199355
-0.000520274
0.199522
8.59289e-05
0.199471
0.000157567
0.199411
0.000663228
0.199353
0.00123716
0.198993
0.000959537
0.198995
0.00153667
0.19855
0.000356787
0.19852
0.000140195
0.198479
-0.000212487
0.198274
-0.000615751
0.198774
0.00159189
0.198752
0.00252594
0.199287
0.00497422
0.199732
0.00543554
0.199611
0.00426484
0.200341
0.00551255
0.200428
0.00467685
0.200841
0.00587894
0.202637
0.0086534
0.204132
0.00901315
0.0107085
0.213178
0.000222607
0.213162
0.000165842
0.213096
-5.05001e-05
0.213085
-1.95175e-05
0.212952
-0.000352225
0.212959
-0.000150014
0.212824
-0.000385139
0.212875
3.49834e-05
0.212857
0.000175377
0.212941
0.000579886
0.213121
0.00105666
0.213116
0.000964618
0.213314
0.0013392
0.213056
0.00061453
0.212855
0.000341312
0.212546
9.61749e-05
0.212069
-0.000138725
0.212279
0.0013814
0.212528
0.00227714
0.213372
0.00413015
0.21412
0.00468747
0.214314
0.00407104
0.214897
0.00492958
0.215042
0.00453224
0.215461
0.00545985
0.216787
0.00732746
0.218067
0.00773298
0.00921142
0.228071
0.00018827
0.228069
0.000167236
0.227997
2.24749e-05
0.227927
5.03355e-05
0.227738
-0.000163996
0.227631
-4.21758e-05
0.227429
-0.000183963
0.227394
6.99282e-05
0.227382
0.000187868
0.227515
0.000446963
0.227792
0.000779452
0.227985
0.000771349
0.228288
0.00103627
0.228218
0.000685098
0.228018
0.00054109
0.227648
0.000466453
0.227132
0.000377334
0.227161
0.00135168
0.227439
0.00199918
0.228314
0.00325524
0.229194
0.00380725
0.229639
0.00362606
0.230248
0.00432087
0.230542
0.00423819
0.231026
0.00497573
0.232085
0.00626835
0.233202
0.0066165
0.00777315
0.243774
0.000147429
0.243791
0.000149621
0.243742
7.14976e-05
0.24369
0.000103091
0.243541
-1.55224e-05
0.243437
6.25272e-05
0.24327
-1.71481e-05
0.243212
0.00012768
0.243201
0.000198677
0.243304
0.000344532
0.243536
0.00054667
0.243739
0.000569052
0.244015
0.000759442
0.244063
0.000637378
0.243974
0.000630493
0.243754
0.000685867
0.243419
0.000713164
0.243433
0.00133745
0.243681
0.00175126
0.244387
0.00254891
0.245185
0.00300895
0.245757
0.0030542
0.246433
0.00364552
0.246909
0.003762
0.247522
0.00436223
0.248507
0.00528408
0.249549
0.00557437
0.00642246
0.260496
0.000115042
0.260518
0.000127865
0.260497
9.20751e-05
0.260478
0.000122387
0.260397
6.51006e-05
0.260345
0.000114922
0.260252
7.6177e-05
0.260224
0.000155338
0.260228
0.00019477
0.260299
0.000273345
0.260458
0.00038771
0.260606
0.000421239
0.260809
0.000555952
0.260897
0.000549897
0.260913
0.000613871
0.260872
0.000727393
0.260765
0.000820484
0.260875
0.0012267
0.261135
0.00149194
0.261692
0.00199196
0.262367
0.00233338
0.262957
0.00246404
0.263655
0.00294776
0.264273
0.0031445
0.265009
0.0036261
0.265998
0.00429496
0.267039
0.0045334
0.00513003
0.278401
9.00539e-05
0.278425
0.000103928
0.278427
9.01901e-05
0.278434
0.00011526
0.278409
8.98443e-05
0.278402
0.000122422
0.278374
0.000103707
0.278381
0.000148273
0.278407
0.000169358
0.278468
0.000212161
0.278578
0.000277525
0.278689
0.000309849
0.27884
0.000405705
0.278947
0.00044214
0.279038
0.000523043
0.279122
0.000643642
0.279194
0.000748155
0.279406
0.00101477
0.27971
0.00118851
0.280202
0.00149932
0.280796
0.00174012
0.281382
0.00187781
0.282087
0.00224264
0.282789
0.0024429
0.283606
0.00280831
0.284622
0.0032793
0.285694
0.00346138
0.00386544
0.297588
6.50914e-05
0.297617
7.52871e-05
0.297635
7.20349e-05
0.297662
8.89606e-05
0.297672
7.91138e-05
0.297696
9.86666e-05
0.29771
8.96623e-05
0.297744
0.000114709
0.297788
0.000124784
0.297851
0.000149504
0.297944
0.000184461
0.298043
0.000210585
0.298175
0.000274085
0.298302
0.000314564
0.298442
0.000383755
0.298609
0.000476628
0.298796
0.000560832
0.299085
0.000725777
0.29944
0.000833322
0.29992
0.00101918
0.300486
0.00117423
0.301083
0.00128089
0.301799
0.00152658
0.302559
0.00168286
0.30344
0.00192786
0.304487
0.002232
0.305593
0.00235545
0.00260485
0.318147
3.52434e-05
0.318182
4.07866e-05
0.318213
4.05759e-05
0.318253
4.92056e-05
0.318286
4.61496e-05
0.318329
5.53959e-05
0.318367
5.19466e-05
0.318419
6.30975e-05
0.318476
6.74795e-05
0.318547
7.88331e-05
0.318637
9.44506e-05
0.318738
0.000109161
0.318871
0.000141327
0.319019
0.000166355
0.319198
0.000204897
0.319419
0.000255452
0.319678
0.000302484
0.320021
0.00038242
0.320419
0.000435473
0.320914
0.000523862
0.321488
0.000600747
0.322109
0.000659068
0.322852
0.000783663
0.323666
0.000868918
0.324601
0.00099352
0.325688
0.00114465
0.326837
0.00120679
0.00132734
0.340166
0.340207
0.340247
0.340296
0.340343
0.340398
0.34045
0.340513
0.340581
0.340659
0.340754
0.340863
0.341004
0.341171
0.341376
0.341631
0.341933
0.342316
0.342751
0.343275
0.343876
0.344535
0.345319
0.346188
0.347181
0.348326
0.349533
)
;

boundaryField
{
    outlet
    {
        type            calculated;
        value           nonuniform List<scalar> 
40
(
0.0537677
0.0535575
0.0531971
0.052682
0.0519994
0.0511274
0.050097
0.0489299
0.0475983
0.0462066
0.0404459
0.0419505
0.043455
0.0451503
0.047149
0.0497491
0.0533074
0.0582369
0.065156
0.0748445
0.0842587
0.0963658
0.110084
0.118828
0.128312
0.13763
0.147407
0.157712
0.168668
0.180288
0.192555
0.205593
0.219564
0.23464
0.250899
0.268331
0.286959
0.306853
0.328114
0.35086
)
;
    }
    upperWall
    {
        type            symmetryPlane;
        value           uniform 0;
    }
    lowerWall
    {
        type            symmetryPlane;
        value           nonuniform 0();
    }
    inlet
    {
        type            calculated;
        value           nonuniform 0();
    }
    cylinder
    {
        type            calculated;
        value           nonuniform 0();
    }
    frontAndBack
    {
        type            empty;
        value           nonuniform 0();
    }
    procBoundary7to3
    {
        type            processor;
        value           nonuniform List<scalar> 
30
(
-0.0845248
-0.0549951
-0.015138
0.0434845
0.0705242
0.0960012
0.102326
0.092768
0.106803
0.0329413
-0.0145089
-0.0567293
-0.111277
-0.0888383
-0.121107
-0.0630805
0.0291394
0.051758
0.153805
0.131424
0.0424473
-0.00311915
-0.160625
-0.161204
-0.0517535
0.00122946
0.189983
0.175145
-0.0892479
-0.0968054
)
;
    }
    procBoundary7to6
    {
        type            processor;
        value           nonuniform List<scalar> 
42
(
-0.037568
-0.0448156
-0.0537681
-0.0633485
-0.0722022
-0.0781474
0.0876325
-0.0870483
-0.087221
-0.08521
-0.0746722
0.0624568
-0.0635657
-0.06664
-0.0700806
-0.0682717
-0.0657988
-0.0677982
-0.0732005
-0.0788261
-0.0847432
-0.0907891
-0.0973078
-0.103731
-0.110608
-0.117712
-0.125426
-0.133774
-0.14278
-0.15254
-0.162972
-0.174077
-0.186068
-0.199135
-0.213177
-0.228037
-0.243733
-0.260464
-0.278376
-0.297563
-0.318118
-0.340131
)
;
    }
}


// ************************************************************************* //
