/*--------------------------------*- C++ -*----------------------------------*\
| =========                 |                                                 |
| \\      /  F ield         | OpenFOAM: The Open Source CFD Toolbox           |
|  \\    /   O peration     | Version:                                        |
|   \\  /    A nd           | Website:  www.openfoam.com                      |
|    \\/     M anipulation  |                                                 |
\*---------------------------------------------------------------------------*/
FoamFile
{
    version     2.0;
    format      ascii;
    class       volVectorField;
    location    "35";
    object      U;
}
// * * * * * * * * * * * * * * * * * * * * * * * * * * * * * * * * * * * * * //

dimensions      [0 1 -1 0 0 0 0];


internalField   nonuniform List<vector> 
1150
(
(0.784211 -0.01116 5.64267e-21)
(0.78632 -0.0364216 -1.12986e-20)
(0.79063 -0.0583739 -3.69037e-20)
(0.797007 -0.084429 -2.02738e-21)
(0.805555 -0.104281 -7.01017e-21)
(0.816895 -0.131164 3.34239e-20)
(0.770441 -0.0115786 -1.29587e-20)
(0.773298 -0.0381495 -3.26926e-21)
(0.778796 -0.061034 -4.91628e-20)
(0.786678 -0.0882371 -1.45581e-20)
(0.797453 -0.108442 -1.2368e-19)
(0.75563 -0.0122428 7.21504e-21)
(0.759086 -0.040459 3.5661e-20)
(0.765648 -0.0645771 6.10045e-20)
(1.00025 0.000846697 1.06534e-22)
(1.00037 0.00242219 -4.55945e-22)
(1.00063 0.00415227 7.56219e-22)
(1.00097 0.00558838 -5.0373e-22)
(1.00142 0.00726461 -2.15456e-22)
(1.00217 0.00849306 1.10981e-21)
(1.00237 0.0100467 -5.60034e-22)
(1.00298 0.0111133 -1.30663e-23)
(1.00315 0.0125373 -4.71224e-22)
(1.00721 0.013483 4.81198e-22)
(1.00657 -0.00113442 2.61966e-23)
(1.00636 -0.00308226 6.10993e-23)
(1.00592 -0.00523658 1.14083e-22)
(1.00535 -0.00701536 -2.96417e-22)
(1.00473 -0.00911766 1.70149e-22)
(1.00366 -0.0106015 -3.69523e-22)
(1.00334 -0.0125399 4.83731e-22)
(1.00262 -0.0138129 -3.77041e-22)
(1.0032 -0.0154764 1.86994e-22)
(0.999027 -0.0166865 -1.28859e-22)
(1.00287 0.000710036 -1.8243e-23)
(1.00296 0.00210011 2.58953e-22)
(1.00319 0.00372314 7.96673e-23)
(1.00357 0.00501337 -1.46566e-22)
(1.00406 0.00667263 -2.84491e-22)
(1.00504 0.00775769 7.00584e-22)
(1.00527 0.00927507 8.36317e-22)
(1.00561 0.0100612 -7.98097e-22)
(1.0049 0.011303 4.42156e-22)
(1.00874 0.012101 6.61922e-22)
(1.00216 -0.00110131 -5.91745e-23)
(1.00217 -0.00286968 2.20701e-23)
(1.00209 -0.00486793 -2.96742e-23)
(1.00194 -0.00645381 -5.06441e-22)
(1.00171 -0.00847106 5.13151e-22)
(1.00061 -0.00983292 -6.71067e-22)
(1.00009 -0.0117917 -5.35734e-22)
(0.999149 -0.012954 -5.63029e-22)
(1.00009 -0.0145954 -6.74666e-22)
(0.994872 -0.0156463 -9.48657e-23)
(1.00004 0.000512577 -2.10656e-23)
(1.00014 0.00159122 2.1524e-22)
(1.00037 0.00284433 2.26832e-22)
(1.0006 0.00368884 -8.4918e-22)
(1.00068 0.00491044 -4.827e-22)
(1.00128 0.00540128 9.15445e-22)
(1.00111 0.00654583 -3.83265e-22)
(1.00143 0.0068122 2.00638e-23)
(1.00101 0.00775769 -7.85573e-22)
(1.00629 0.0080492 -3.04339e-23)
(0.998414 -0.00122965 7.82469e-23)
(0.998275 -0.00322417 -5.50088e-22)
(0.997907 -0.00547375 8.47328e-22)
(0.997389 -0.00731646 4.53097e-22)
(0.99694 -0.00966519 3.2914e-22)
(0.995724 -0.0111736 -4.50332e-22)
(0.995395 -0.0134057 9.53147e-22)
(0.994699 -0.0145532 1.33967e-21)
(0.996649 -0.0162849 9.65242e-23)
(0.992609 -0.0176672 -8.54843e-23)
(0.995439 0.000229224 1.00363e-22)
(0.995426 0.000823517 1.48453e-22)
(0.995488 0.00163182 -7.40038e-22)
(0.995626 0.00209939 4.06261e-22)
(0.995723 0.00311246 3.75073e-22)
(0.996595 0.00334109 -2.71778e-22)
(0.996789 0.00450326 -8.81825e-22)
(0.99736 0.00445153 -9.14939e-22)
(0.996645 0.00544006 9.00333e-22)
(1.00144 0.00521836 3.05765e-22)
(0.993501 -0.00130876 -4.54982e-24)
(0.993417 -0.00344807 9.17463e-23)
(0.993179 -0.00576572 2.74583e-22)
(0.992874 -0.00766598 5.00831e-22)
(0.992792 -0.0100892 7.84335e-22)
(0.99184 -0.0116032 -5.51589e-22)
(0.99164 -0.0140733 -9.19294e-22)
(0.990938 -0.0153161 -4.49152e-22)
(0.99307 -0.0172095 -1.3548e-21)
(0.988522 -0.0192268 -4.48018e-22)
(0.990076 -7.18744e-06 6.46475e-23)
(0.990126 0.000180087 -2.80292e-22)
(0.990291 0.000580567 -3.48721e-22)
(0.99057 0.000678426 -9.74079e-22)
(0.990667 0.00134834 -1.46277e-21)
(0.991527 0.00113457 -5.53361e-22)
(0.991614 0.00208288 2.94547e-21)
(0.991857 0.00130753 7.95856e-22)
(0.991008 0.002369 6.2553e-22)
(0.995768 0.0014542 -1.91624e-21)
(0.986712 -0.00139968 -1.09223e-22)
(0.986715 -0.00372476 5.39791e-22)
(0.986619 -0.00618721 1.14642e-21)
(0.986402 -0.00830427 5.96909e-22)
(0.986473 -0.0109643 -1.25785e-21)
(0.985445 -0.0128111 1.84022e-21)
(0.985166 -0.0155521 -1.09299e-21)
(0.984415 -0.0172191 1.15143e-21)
(0.98689 -0.0191743 -2.18785e-22)
(0.982945 -0.0219307 1.07413e-21)
(0.983019 -0.000309228 7.80711e-23)
(0.983096 -0.000719145 -2.6077e-22)
(0.983274 -0.000890599 -1.03339e-21)
(0.983549 -0.00144385 1.31923e-21)
(0.983498 -0.00130152 2.15128e-21)
(0.984233 -0.00223673 -5.32566e-22)
(0.984297 -0.00160131 -3.3045e-21)
(0.984352 -0.00329553 5.43447e-22)
(0.983664 -0.00211639 -7.77085e-22)
(0.988784 -0.00414562 -3.87389e-21)
(0.979114 -0.00163328 -2.91387e-23)
(0.979097 -0.00442148 2.01427e-22)
(0.97898 -0.00726702 1.40602e-21)
(0.978628 -0.00979574 -8.08226e-22)
(0.978745 -0.0127486 5.74141e-22)
(0.977573 -0.0150897 -7.49567e-22)
(0.977404 -0.0178629 2.34125e-21)
(0.976692 -0.0203073 -7.34906e-21)
(0.979505 -0.022322 3.93111e-21)
(0.975867 -0.0258967 3.94958e-21)
(0.974075 -0.000664867 2.96935e-22)
(0.974101 -0.00186168 -3.29486e-22)
(0.974224 -0.00262164 -2.5781e-21)
(0.974361 -0.00403936 -1.11178e-21)
(0.974302 -0.00424159 -2.98851e-21)
(0.974937 -0.00602515 -5.23928e-21)
(0.975228 -0.005779 -4.9354e-21)
(0.975256 -0.00837329 1.24668e-21)
(0.97457 -0.00747063 -2.63315e-21)
(0.979736 -0.0110391 7.7491e-21)
(0.96873 -0.00191752 -2.47705e-22)
(0.968734 -0.0053707 2.0831e-22)
(0.96864 -0.00858175 4.30235e-22)
(0.96837 -0.0117617 2.69683e-21)
(0.9686 -0.0149981 1.98054e-21)
(0.967775 -0.0180033 5.4039e-21)
(0.967736 -0.0212095 8.22551e-21)
(0.967273 -0.0243687 1.50481e-21)
(0.970269 -0.0267474 -1.07006e-21)
(0.966434 -0.0314851 -1.53107e-20)
(0.963021 -0.00110107 2.14002e-22)
(0.963099 -0.00323104 -1.9904e-21)
(0.963257 -0.00478011 9.73394e-22)
(0.963578 -0.00703087 -6.09557e-22)
(0.963633 -0.00803601 -7.56323e-22)
(0.964535 -0.0107587 -2.58476e-21)
(0.965045 -0.0109307 -1.06168e-20)
(0.965076 -0.0148523 6.41169e-21)
(0.96459 -0.0138828 7.86153e-21)
(0.9699 -0.0195145 6.51209e-21)
(0.956965 -0.00229135 -4.77512e-22)
(0.957041 -0.00655381 3.13341e-21)
(0.95708 -0.0104238 -1.92662e-21)
(0.956956 -0.0144783 2.65977e-21)
(0.957447 -0.0183331 1.05057e-21)
(0.95675 -0.0224486 -4.09816e-21)
(0.956884 -0.0261341 4.31837e-21)
(0.956511 -0.0306557 5.91258e-21)
(0.959575 -0.0333842 -1.05004e-20)
(0.955576 -0.0396576 -8.52218e-22)
(0.950046 -0.00163523 -4.54183e-23)
(0.950204 -0.0049085 -2.90697e-21)
(0.95053 -0.00743292 6.87269e-21)
(0.95102 -0.0108515 -4.36375e-21)
(0.95129 -0.0127808 -8.15971e-22)
(0.952279 -0.016785 3.96923e-21)
(0.953033 -0.0176464 9.31962e-21)
(0.952888 -0.0232476 -5.88977e-21)
(0.952859 -0.0222371 1.05763e-20)
(0.958697 -0.0305901 1.88477e-21)
(0.942707 -0.00282055 1.06464e-21)
(0.94291 -0.0082832 -2.45731e-21)
(0.943169 -0.0131392 -9.82923e-21)
(0.943247 -0.0184475 6.31972e-21)
(0.944019 -0.0231866 9.13754e-22)
(0.943482 -0.0288007 9.8519e-21)
(0.943874 -0.0331334 5.99274e-21)
(0.943763 -0.0395109 -9.14348e-21)
(0.946981 -0.0427117 -2.19595e-20)
(0.943133 -0.050944 1.63681e-20)
(0.934785 -0.00236841 -1.17013e-21)
(0.935063 -0.00720536 3.04444e-21)
(0.935569 -0.011034 1.36988e-21)
(0.936248 -0.0159829 -3.4696e-21)
(0.936759 -0.0191023 9.7379e-22)
(0.937912 -0.0247611 4.97711e-21)
(0.939049 -0.026527 4.3708e-21)
(0.938867 -0.0341336 7.57828e-21)
(0.939756 -0.0331467 3.62773e-20)
(0.946595 -0.0447402 -1.10219e-20)
(0.926403 -0.00357647 3.39425e-22)
(0.926725 -0.0106863 -3.64231e-21)
(0.927174 -0.0168992 2.39629e-22)
(0.927436 -0.0238826 -7.97133e-21)
(0.928524 -0.0298207 -1.41831e-20)
(0.928205 -0.0373783 -1.78715e-20)
(0.929087 -0.0425121 2.447e-21)
(0.929429 -0.0513325 2.42628e-21)
(0.932924 -0.0550727 -3.43539e-20)
(0.929392 -0.0657988 -1.21775e-20)
(0.917131 -0.00329427 -8.84593e-22)
(0.917532 -0.0101118 5.24926e-21)
(0.918235 -0.0155918 2.98953e-21)
(0.919117 -0.022523 1.14563e-20)
(0.919993 -0.0271266 1.24872e-20)
(0.921447 -0.0349179 -7.62834e-21)
(0.923221 -0.0378283 -3.16936e-20)
(0.923221 -0.047818 -2.02848e-20)
(0.92549 -0.0470495 -1.34202e-21)
(0.933591 -0.0622595 -1.23097e-20)
(0.907186 -0.00457 2.22653e-21)
(0.907671 -0.0138476 1.88714e-21)
(0.908393 -0.0218438 -2.32029e-22)
(0.908954 -0.0310164 -1.49501e-20)
(0.910564 -0.0385212 1.31526e-20)
(0.910685 -0.0485244 4.10886e-21)
(0.912481 -0.054662 3.49843e-20)
(0.913584 -0.0665543 7.94026e-21)
(0.917583 -0.0708512 3.94774e-20)
(0.914768 -0.0846552 3.11341e-20)
(0.896393 -0.00446653 -2.87117e-22)
(0.896976 -0.0138113 1.46713e-21)
(0.898001 -0.0213776 6.91379e-21)
(0.899244 -0.0308205 1.68136e-20)
(0.900774 -0.0372399 2.97023e-21)
(0.902831 -0.0477186 -6.84889e-21)
(0.905646 -0.0520358 -1.68572e-22)
(0.906281 -0.064822 -1.24454e-20)
(0.910541 -0.0647069 -1.13282e-20)
(0.92021 -0.0836577 2.42994e-20)
(0.884976 -0.0058355 -1.43436e-21)
(0.885669 -0.0178909 2.47943e-21)
(0.886784 -0.0281747 -1.41038e-20)
(0.887811 -0.0401442 -6.86252e-21)
(0.890244 -0.0496461 -3.72235e-20)
(0.891117 -0.0626718 -6.11276e-21)
(0.894375 -0.070157 -2.34013e-20)
(0.896674 -0.085765 -8.56081e-21)
(0.901515 -0.0907196 -5.3948e-21)
(0.900333 -0.108236 -6.9045e-20)
(0.872673 -0.00587564 -4.04867e-22)
(0.873476 -0.0183327 -6.51008e-21)
(0.874959 -0.0284829 -1.81752e-21)
(0.87673 -0.0410701 -8.946e-21)
(0.879265 -0.0497325 -2.1721e-20)
(0.882283 -0.0635778 2.52128e-20)
(0.886626 -0.06966 2.10418e-20)
(0.888595 -0.0857222 6.62719e-20)
(0.895535 -0.0870129 -2.2187e-20)
(0.907138 -0.109205 4.68012e-20)
(0.859662 -0.00734135 4.04779e-21)
(0.860602 -0.0228154 -1.27772e-21)
(0.862256 -0.0359614 1.05686e-20)
(0.863947 -0.0514663 -1.16967e-20)
(0.867568 -0.0635347 2.11699e-20)
(0.869616 -0.080278 3.25732e-20)
(0.874962 -0.0897416 -1.30057e-20)
(0.879128 -0.10958 -1.13824e-20)
(0.885288 -0.115587 2.45077e-20)
(0.88754 -0.137144 1.16666e-21)
(0.845756 -0.0074877 -3.29901e-21)
(0.846811 -0.0236794 3.55717e-21)
(0.848902 -0.0369998 -4.17324e-21)
(0.851429 -0.0534849 3.9564e-20)
(0.855369 -0.0650073 -1.47236e-20)
(0.859877 -0.0829694 -1.56758e-20)
(0.866289 -0.091419 -5.07593e-20)
(0.870793 -0.111168 1.00483e-20)
(0.881031 -0.115046 2.63466e-21)
(0.895383 -0.138706 2.0626e-20)
(0.831182 -0.00904514 1.86335e-22)
(0.832378 -0.0285937 -8.15995e-21)
(0.834689 -0.0452957 4.80523e-22)
(0.83733 -0.0651829 -8.46787e-21)
(0.842488 -0.0806353 2.86538e-20)
(0.846425 -0.101812 -7.74047e-20)
(0.854445 -0.114363 2.40033e-20)
(0.861674 -0.13849 -3.53786e-22)
(0.86977 -0.146888 -3.32955e-20)
(0.878701 -0.171839 -8.13999e-20)
(0.815717 -0.00924235 -6.67516e-22)
(0.817038 -0.0297509 -4.4303e-22)
(0.819832 -0.0469787 9.20695e-21)
(0.823527 -0.0681476 1.3608e-21)
(0.829183 -0.0834696 -1.59408e-20)
(0.836139 -0.10615 1.1072e-19)
(0.845092 -0.118 2.51828e-21)
(0.853978 -0.141591 -5.57528e-20)
(0.867792 -0.149941 -2.32367e-20)
(0.799489 -0.0109087 -3.33615e-21)
(0.801043 -0.0351277 9.41158e-21)
(0.804206 -0.0562975 2.48127e-20)
(0.808552 -0.0813232 5.93148e-21)
(0.815659 -0.101283 1.10276e-19)
(0.822949 -0.127298 -1.2398e-19)
(0.834235 -0.144311 -2.09896e-20)
(1.00893 0.0146501 0)
(1.00293 0.0154709 0)
(1.00348 0.0172056 0)
(1.01991 0.0188096 0)
(1.03128 0.0199256 0)
(1.02666 0.0204298 0)
(1.01793 0.0207049 0)
(1.01175 0.0214383 0)
(1.0075 0.0216198 0)
(1.00485 0.0207374 0)
(1.00358 0.0195407 0)
(1.00292 0.0178496 0)
(1.00233 0.0158601 0)
(1.0017 0.013696 0)
(1.00107 0.0114605 0)
(1.00056 0.00929474 0)
(1.00017 0.00729934 0)
(0.999916 0.00558476 0)
(0.999762 0.00414625 0)
(0.999684 0.00297947 0)
(0.999653 0.00204258 0)
(0.99966 0.00132222 0)
(0.999691 0.000768819 0)
(0.999739 0.000373108 0)
(0.999797 9.48321e-05 0)
(0.999857 -7.32498e-05 0)
(0.999915 -0.000155421 0)
(0.999963 -0.000168629 0)
(0.999999 -0.000127423 0)
(1.00002 -4.80782e-05 0)
(0.995657 -0.0183712 0)
(1.00335 -0.0195966 0)
(1.00743 -0.0219844 0)
(0.989878 -0.023982 0)
(0.971326 -0.0251646 0)
(0.971499 -0.0255991 0)
(0.980668 -0.0258598 0)
(0.988066 -0.0271445 0)
(0.991793 -0.0276378 0)
(0.992923 -0.026152 0)
(0.993113 -0.0241706 0)
(0.993328 -0.0218491 0)
(0.993796 -0.0193361 0)
(0.994466 -0.0167878 0)
(0.995301 -0.014293 0)
(0.996232 -0.0119964 0)
(0.99716 -0.0099966 0)
(0.997983 -0.00839619 0)
(0.998657 -0.00712945 0)
(0.999179 -0.00612739 0)
(0.999568 -0.00531696 0)
(0.999851 -0.00465075 0)
(1.00004 -0.00406364 0)
(1.00017 -0.00353764 0)
(1.00024 -0.00303639 0)
(1.00028 -0.00253762 0)
(1.0003 -0.00202402 0)
(1.0003 -0.00148733 0)
(1.0003 -0.000918628 0)
(1.0003 -0.000311788 0)
(1.00945 0.0129309 0)
(0.999239 0.0134335 0)
(0.997352 0.0154553 0)
(1.01852 0.0171087 0)
(1.03678 0.0182327 0)
(1.03488 0.0188209 0)
(1.02404 0.0193914 0)
(1.01395 0.0205238 0)
(1.00717 0.0204015 0)
(1.00368 0.0185759 0)
(1.00144 0.0161932 0)
(0.999363 0.0134488 0)
(0.997705 0.0104997 0)
(0.996747 0.00758009 0)
(0.996362 0.00490411 0)
(0.996355 0.00267633 0)
(0.996614 0.000971097 0)
(0.997059 -0.000258541 0)
(0.997592 -0.0011845 0)
(0.998161 -0.0018995 0)
(0.998702 -0.00246103 0)
(0.999185 -0.00285506 0)
(0.999605 -0.00309066 0)
(0.999961 -0.00315517 0)
(1.00026 -0.00305924 0)
(1.0005 -0.00279987 0)
(1.00068 -0.00238891 0)
(1.00082 -0.00184407 0)
(1.00092 -0.00117608 0)
(1.00096 -0.000408231 0)
(0.989469 -0.0161864 0)
(1.00045 -0.0166564 0)
(1.0114 -0.0180933 0)
(0.993967 -0.0185636 0)
(0.968921 -0.01921 0)
(0.965309 -0.0212228 0)
(0.975016 -0.0241824 0)
(0.983771 -0.0278196 0)
(0.988876 -0.0304093 0)
(0.991304 -0.0303519 0)
(0.992439 -0.0289854 0)
(0.993414 -0.0267189 0)
(0.994395 -0.0238402 0)
(0.995218 -0.0208924 0)
(0.99589 -0.0182749 0)
(0.996504 -0.016151 0)
(0.9971 -0.0144413 0)
(0.997718 -0.0130261 0)
(0.998366 -0.0117983 0)
(0.999021 -0.0106984 0)
(0.99963 -0.00967247 0)
(1.00018 -0.00872925 0)
(1.00063 -0.00783637 0)
(1.001 -0.00697138 0)
(1.00128 -0.0060902 0)
(1.00149 -0.00516056 0)
(1.00163 -0.00416252 0)
(1.00173 -0.00308173 0)
(1.00178 -0.00191297 0)
(1.00181 -0.000651783 0)
(1.00913 0.00904806 0)
(0.999129 0.00938373 0)
(0.998324 0.0106229 0)
(1.02041 0.0106569 0)
(1.03336 0.0108882 0)
(1.02318 0.0118563 0)
(1.00942 0.0127084 0)
(1.00204 0.0137954 0)
(0.998687 0.0140055 0)
(0.998209 0.0130294 0)
(0.999119 0.0115115 0)
(0.999712 0.00935764 0)
(0.999558 0.00655517 0)
(0.999047 0.00355303 0)
(0.99855 0.000790475 0)
(0.998254 -0.00153131 0)
(0.998204 -0.00341258 0)
(0.998374 -0.00490585 0)
(0.998725 -0.00602184 0)
(0.999195 -0.00673899 0)
(0.999743 -0.00712762 0)
(1.00032 -0.00724275 0)
(1.00089 -0.00711836 0)
(1.00142 -0.00677523 0)
(1.00187 -0.00622449 0)
(1.00224 -0.00547791 0)
(1.00252 -0.0045415 0)
(1.00273 -0.00343168 0)
(1.00286 -0.00215795 0)
(1.00293 -0.000743044 0)
(0.986149 -0.0179058 0)
(0.996378 -0.0193726 0)
(1.00762 -0.0219687 0)
(0.990524 -0.023122 0)
(0.965714 -0.0246097 0)
(0.961511 -0.0271468 0)
(0.969192 -0.0288685 0)
(0.977981 -0.0300596 0)
(0.987031 -0.0302025 0)
(0.99355 -0.0282804 0)
(0.995391 -0.0260796 0)
(0.994567 -0.0241902 0)
(0.993777 -0.0224566 0)
(0.993943 -0.020825 0)
(0.994849 -0.019384 0)
(0.996043 -0.0181931 0)
(0.997241 -0.0171743 0)
(0.998332 -0.0162848 0)
(0.999294 -0.01543 0)
(1.00015 -0.0145537 0)
(1.00094 -0.0136159 0)
(1.00165 -0.0126126 0)
(1.00228 -0.0115208 0)
(1.00282 -0.0103404 0)
(1.00326 -0.00906136 0)
(1.00359 -0.00767877 0)
(1.00383 -0.00618545 0)
(1.00399 -0.0045714 0)
(1.00408 -0.00283249 0)
(1.00413 -0.000963686 0)
(1.0038 0.00574188 0)
(0.991343 0.00559648 0)
(0.988615 0.00665615 0)
(1.01031 0.00594915 0)
(1.02393 0.00598452 0)
(1.01802 0.00780982 0)
(1.01134 0.0105831 0)
(1.00836 0.0138647 0)
(1.00412 0.0144159 0)
(0.999433 0.0111989 0)
(0.996197 0.00641605 0)
(0.994746 0.00199194 0)
(0.994589 -0.00157454 0)
(0.995109 -0.00429381 0)
(0.995878 -0.00635954 0)
(0.996728 -0.00796558 0)
(0.997637 -0.00924592 0)
(0.998569 -0.0102732 0)
(0.999501 -0.0110357 0)
(1.00041 -0.0114879 0)
(1.0013 -0.0116397 0)
(1.00214 -0.0114834 0)
(1.00292 -0.0110166 0)
(1.00361 -0.0102677 0)
(1.00419 -0.00925746 0)
(1.00466 -0.00801461 0)
(1.00503 -0.00655445 0)
(1.00529 -0.00489735 0)
(1.00545 -0.0030556 0)
(1.00553 -0.00104905 0)
(0.980167 -0.0188969 0)
(0.991503 -0.0207333 0)
(1.00652 -0.0229991 0)
(0.991428 -0.0218053 0)
(0.968064 -0.0208041 0)
(0.966701 -0.0230156 0)
(0.975696 -0.0272085 0)
(0.980066 -0.0323574 0)
(0.980925 -0.0359836 0)
(0.982635 -0.0357536 0)
(0.985756 -0.0334833 0)
(0.989112 -0.0307602 0)
(0.991717 -0.0282951 0)
(0.993531 -0.0262282 0)
(0.99499 -0.024543 0)
(0.996394 -0.0231877 0)
(0.997804 -0.0220037 0)
(0.999184 -0.0209351 0)
(1.00048 -0.0199085 0)
(1.00169 -0.0188631 0)
(1.00277 -0.0177452 0)
(1.00374 -0.016508 0)
(1.00457 -0.0151143 0)
(1.00527 -0.0135669 0)
(1.00583 -0.0118731 0)
(1.00626 -0.0100365 0)
(1.00657 -0.00805698 0)
(1.00678 -0.0059336 0)
(1.0069 -0.00366395 0)
(1.00696 -0.00124692 0)
(0.999239 0.00242337 0)
(0.986448 0.00277321 0)
(0.984846 0.00393902 0)
(1.00931 0.00181068 0)
(1.02189 -1.56629e-05 0)
(1.00993 0.000221381 0)
(0.997959 0.00112121 0)
(0.995427 0.00235864 0)
(0.995602 0.00223311 0)
(0.995359 0.000418006 0)
(0.994476 -0.00208214 0)
(0.993746 -0.00489613 0)
(0.993701 -0.0077452 0)
(0.994278 -0.0102932 0)
(0.995234 -0.0123538 0)
(0.99643 -0.0139381 0)
(0.997797 -0.0150916 0)
(0.999255 -0.0158819 0)
(1.00071 -0.0163382 0)
(1.00209 -0.0164525 0)
(1.00336 -0.0162339 0)
(1.00451 -0.0156766 0)
(1.0055 -0.0147793 0)
(1.00635 -0.013574 0)
(1.00704 -0.0120892 0)
(1.00758 -0.010356 0)
(1.00799 -0.00839388 0)
(1.00826 -0.0062226 0)
(1.00844 -0.00386207 0)
(1.00852 -0.00131022 0)
(0.974461 -0.0212922 0)
(0.9876 -0.0245158 0)
(1.00469 -0.0277966 0)
(0.98807 -0.0263007 0)
(0.961798 -0.0246958 0)
(0.958858 -0.0275885 0)
(0.967092 -0.0326686 0)
(0.972696 -0.0371912 0)
(0.977123 -0.0398064 0)
(0.981888 -0.039124 0)
(0.985697 -0.0367747 0)
(0.988384 -0.034454 0)
(0.990453 -0.0325734 0)
(0.992253 -0.0310454 0)
(0.994041 -0.0297649 0)
(0.995914 -0.0286412 0)
(0.997846 -0.0275089 0)
(0.999785 -0.0263048 0)
(1.00164 -0.0249973 0)
(1.00335 -0.0235953 0)
(1.00487 -0.0220872 0)
(1.00618 -0.020435 0)
(1.00728 -0.0186132 0)
(1.00815 -0.0166246 0)
(1.00883 -0.0144794 0)
(1.00933 -0.0121833 0)
(1.00967 -0.00973713 0)
(1.00989 -0.00714387 0)
(1.01001 -0.00439925 0)
(1.01006 -0.00149694 0)
(0.993237 -0.00315726 0)
(0.978659 -0.00249941 0)
(0.977135 -0.0016982 0)
(1.00401 -0.00607225 0)
(1.01623 -0.0104284 0)
(1.00186 -0.0106464 0)
(0.988876 -0.00769616 0)
(0.987806 -0.00429075 0)
(0.990515 -0.00353353 0)
(0.992454 -0.00570831 0)
(0.992667 -0.00900189 0)
(0.992123 -0.0122551 0)
(0.992197 -0.0150902 0)
(0.993199 -0.0174891 0)
(0.994749 -0.0194191 0)
(0.996525 -0.0208341 0)
(0.998419 -0.0217632 0)
(1.00035 -0.0222282 0)
(1.00225 -0.022241 0)
(1.00406 -0.0218333 0)
(1.00571 -0.02105 0)
(1.00716 -0.019918 0)
(1.00839 -0.0184569 0)
(1.0094 -0.0167099 0)
(1.01019 -0.014705 0)
(1.01078 -0.0124679 0)
(1.01119 -0.0100211 0)
(1.01146 -0.00738285 0)
(1.01163 -0.00456266 0)
(1.0117 -0.00156788 0)
(0.966911 -0.0252643 0)
(0.980722 -0.0301321 0)
(0.997359 -0.0344447 0)
(0.978074 -0.032485 0)
(0.95233 -0.0302385 0)
(0.954118 -0.0328591 0)
(0.967004 -0.03763 0)
(0.974036 -0.041116 0)
(0.976806 -0.0425588 0)
(0.979965 -0.0419746 0)
(0.983721 -0.0407758 0)
(0.98684 -0.0395687 0)
(0.989156 -0.0383833 0)
(0.991291 -0.0372133 0)
(0.993651 -0.0360393 0)
(0.996209 -0.0348397 0)
(0.998791 -0.0335194 0)
(1.00127 -0.0320268 0)
(1.00357 -0.0303571 0)
(1.00566 -0.0285193 0)
(1.0075 -0.0265178 0)
(1.00906 -0.0243416 0)
(1.01034 -0.0219931 0)
(1.01134 -0.0194965 0)
(1.01208 -0.0168646 0)
(1.01259 -0.0141017 0)
(1.01293 -0.0112112 0)
(1.01312 -0.00819385 0)
(1.01322 -0.00503317 0)
(1.01327 -0.00170524 0)
(0.98415 -0.00929846 0)
(0.967195 -0.00826184 0)
(0.966139 -0.00776173 0)
(0.995589 -0.0135697 0)
(1.00977 -0.0186656 0)
(0.99746 -0.0183475 0)
(0.985722 -0.0149628 0)
(0.984503 -0.0122697 0)
(0.985881 -0.0124099 0)
(0.98669 -0.0148145 0)
(0.987101 -0.0181967 0)
(0.98799 -0.0216075 0)
(0.98974 -0.0243906 0)
(0.992055 -0.0263858 0)
(0.994606 -0.0277666 0)
(0.997211 -0.0286385 0)
(0.999779 -0.0290019 0)
(1.00226 -0.0288653 0)
(1.00461 -0.0282576 0)
(1.00678 -0.0272056 0)
(1.00871 -0.0257696 0)
(1.01037 -0.0239941 0)
(1.01174 -0.021913 0)
(1.01282 -0.0195862 0)
(1.01362 -0.0170454 0)
(1.01417 -0.0143175 0)
(1.01453 -0.0114251 0)
(1.01474 -0.00837136 0)
(1.01486 -0.00515695 0)
(1.01491 -0.00173355 0)
(0.957141 -0.0302667 0)
(0.971983 -0.0367036 0)
(0.989059 -0.0413101 0)
(0.969428 -0.0376561 0)
(0.945435 -0.0345867 0)
(0.949666 -0.0386311 0)
(0.964332 -0.0452639 0)
(0.972909 -0.049416 0)
(0.975961 -0.0506504 0)
(0.977977 -0.0497899 0)
(0.980758 -0.0483772 0)
(0.984294 -0.0472222 0)
(0.987817 -0.0461035 0)
(0.99106 -0.0447658 0)
(0.994234 -0.0432723 0)
(0.997428 -0.0416632 0)
(1.00055 -0.039899 0)
(1.00351 -0.0379469 0)
(1.0062 -0.0357703 0)
(1.00857 -0.0333746 0)
(1.01064 -0.0307943 0)
(1.01236 -0.0280317 0)
(1.01374 -0.0251126 0)
(1.01478 -0.0220768 0)
(1.01552 -0.0189439 0)
(1.01598 -0.0157311 0)
(1.01624 -0.0124408 0)
(1.01637 -0.00906253 0)
(1.01642 -0.00555688 0)
(1.01643 -0.00189126 0)
(0.974376 -0.01693 0)
(0.955791 -0.0152875 0)
(0.957091 -0.0152966 0)
(0.989236 -0.02287 0)
(1.00274 -0.0286479 0)
(0.990027 -0.0272993 0)
(0.979948 -0.0233721 0)
(0.98062 -0.0219283 0)
(0.982574 -0.0238962 0)
(0.983214 -0.0270279 0)
(0.983775 -0.0300078 0)
(0.985596 -0.0326246 0)
(0.988715 -0.0347056 0)
(0.992318 -0.0361725 0)
(0.995801 -0.036947 0)
(0.99905 -0.0370197 0)
(1.00215 -0.036525 0)
(1.00506 -0.0355531 0)
(1.00772 -0.0341486 0)
(1.0101 -0.0323533 0)
(1.01216 -0.030212 0)
(1.01388 -0.0277587 0)
(1.01526 -0.0250457 0)
(1.01632 -0.0221332 0)
(1.01707 -0.0190632 0)
(1.01754 -0.0158706 0)
(1.0178 -0.0125784 0)
(1.01791 -0.00917833 0)
(1.01794 -0.00564172 0)
(1.01796 -0.00191414 0)
(0.947068 -0.0377118 0)
(0.963628 -0.0458491 0)
(0.980581 -0.0504498 0)
(0.960935 -0.0452327 0)
(0.940197 -0.041659 0)
(0.946159 -0.0466069 0)
(0.959493 -0.0544085 0)
(0.967407 -0.059517 0)
(0.971558 -0.061466 0)
(0.975307 -0.0609584 0)
(0.979397 -0.0591145 0)
(0.983732 -0.056917 0)
(0.988034 -0.0548249 0)
(0.992207 -0.0528863 0)
(0.996209 -0.0509287 0)
(1.00003 -0.0488075 0)
(1.00363 -0.0464439 0)
(1.00691 -0.0438072 0)
(1.00983 -0.0409388 0)
(1.01236 -0.0378866 0)
(1.01447 -0.0346784 0)
(1.01616 -0.0313223 0)
(1.01746 -0.0278505 0)
(1.01839 -0.0242995 0)
(1.019 -0.0206967 0)
(1.01934 -0.0170696 0)
(1.01947 -0.013425 0)
(1.01947 -0.00974361 0)
(1.01943 -0.00596592 0)
(1.01939 -0.00203337 0)
(0.9634 -0.0267599 0)
(0.943587 -0.024584 0)
(0.948425 -0.0257883 0)
(0.983627 -0.0353114 0)
(0.99587 -0.0416559 0)
(0.981481 -0.0394709 0)
(0.971518 -0.0349682 0)
(0.973314 -0.0342561 0)
(0.976918 -0.0372297 0)
(0.979834 -0.0406553 0)
(0.982687 -0.0431677 0)
(0.985922 -0.0448144 0)
(0.989746 -0.0458089 0)
(0.993891 -0.0462325 0)
(0.997966 -0.0459978 0)
(1.00182 -0.0451383 0)
(1.00542 -0.0437399 0)
(1.00868 -0.0418706 0)
(1.01161 -0.039613 0)
(1.01413 -0.0370134 0)
(1.01624 -0.0341227 0)
(1.0179 -0.0309946 0)
(1.01916 -0.0276832 0)
(1.02004 -0.0242373 0)
(1.02059 -0.0206994 0)
(1.02087 -0.0171043 0)
(1.02095 -0.0134726 0)
(1.02092 -0.00979284 0)
(1.02084 -0.00600833 0)
(1.02081 -0.00204715 0)
(0.93669 -0.0484108 0)
(0.955319 -0.0582444 0)
(0.970929 -0.0625714 0)
(0.951252 -0.056108 0)
(0.935466 -0.0528956 0)
(0.943963 -0.0590703 0)
(0.955401 -0.0671084 0)
(0.961951 -0.0718403 0)
(0.967345 -0.0731953 0)
(0.973634 -0.072035 0)
(0.979883 -0.0696469 0)
(0.985297 -0.0669644 0)
(0.990083 -0.0642729 0)
(0.994691 -0.061595 0)
(0.999203 -0.0588517 0)
(1.00348 -0.0559392 0)
(1.00739 -0.052768 0)
(1.01088 -0.0493476 0)
(1.01394 -0.0457395 0)
(1.01654 -0.0419657 0)
(1.01864 -0.0380748 0)
(1.02026 -0.0341008 0)
(1.02142 -0.0300825 0)
(1.02215 -0.0260564 0)
(1.02253 -0.0220494 0)
(1.02264 -0.0180802 0)
(1.02256 -0.0141529 0)
(1.02238 -0.0102406 0)
(1.02221 -0.0062654 0)
(1.02211 -0.00212145 0)
(0.951357 -0.0394023 0)
(0.930515 -0.0370134 0)
(0.940223 -0.0403818 0)
(0.978599 -0.0516534 0)
(0.989021 -0.0576851 0)
(0.972979 -0.0548143 0)
(0.963657 -0.0503954 0)
(0.967005 -0.0496082 0)
(0.972863 -0.0515998 0)
(0.978545 -0.0538973 0)
(0.983743 -0.05577 0)
(0.988368 -0.0568542 0)
(0.992747 -0.0569091 0)
(0.997128 -0.0560993 0)
(1.00149 -0.0546995 0)
(1.00568 -0.0528059 0)
(1.00952 -0.0504353 0)
(1.01297 -0.047664 0)
(1.01597 -0.0445526 0)
(1.01849 -0.0411406 0)
(1.02053 -0.0375058 0)
(1.02209 -0.0337094 0)
(1.02318 -0.0298129 0)
(1.02385 -0.0258707 0)
(1.02415 -0.0219228 0)
(1.02418 -0.0179956 0)
(1.02402 -0.014099 0)
(1.02376 -0.0102135 0)
(1.02353 -0.00625968 0)
(1.0234 -0.00212596 0)
(0.92618 -0.0629694 0)
(0.946833 -0.07398 0)
(0.959656 -0.0773571 0)
(0.940193 -0.0700361 0)
(0.930527 -0.0681287 0)
(0.941943 -0.0755153 0)
(0.952966 -0.0827905 0)
(0.959923 -0.0857786 0)
(0.96659 -0.0855965 0)
(0.973913 -0.0833958 0)
(0.981206 -0.0801919 0)
(0.987871 -0.0768451 0)
(0.993693 -0.0735252 0)
(0.99883 -0.0701065 0)
(1.00355 -0.0664975 0)
(1.00795 -0.0626663 0)
(1.01196 -0.0586169 0)
(1.01554 -0.0543829 0)
(1.01859 -0.0499943 0)
(1.02108 -0.0454971 0)
(1.02304 -0.0409527 0)
(1.02447 -0.0363906 0)
(1.02541 -0.0318569 0)
(1.02592 -0.0273923 0)
(1.02605 -0.0230255 0)
(1.02591 -0.0187694 0)
(1.02558 -0.0146191 0)
(1.02516 -0.0105429 0)
(1.0248 -0.00644543 0)
(1.02459 -0.00217546 0)
(0.938075 -0.0549716 0)
(0.916776 -0.052749 0)
(0.932736 -0.0589159 0)
(0.97372 -0.0712289 0)
(0.981763 -0.0758516 0)
(0.965235 -0.0719045 0)
(0.958465 -0.0676208 0)
(0.964105 -0.0665784 0)
(0.971747 -0.0671934 0)
(0.979323 -0.0678771 0)
(0.986073 -0.0684345 0)
(0.991572 -0.0683904 0)
(0.996498 -0.0673891 0)
(1.00132 -0.0655114 0)
(1.00601 -0.0629855 0)
(1.01041 -0.0599651 0)
(1.0144 -0.0565561 0)
(1.0179 -0.0528248 0)
(1.02084 -0.0488257 0)
(1.02323 -0.0446245 0)
(1.02506 -0.0402946 0)
(1.02636 -0.0358907 0)
(1.02719 -0.0314755 0)
(1.02758 -0.0270972 0)
(1.02762 -0.0227943 0)
(1.02739 -0.0185862 0)
(1.02698 -0.0144749 0)
(1.02648 -0.0104402 0)
(1.02604 -0.00638816 0)
(1.02579 -0.00216661 0)
(0.916213 -0.0819151 0)
(0.938605 -0.0930987 0)
(0.947211 -0.0945751 0)
(0.929205 -0.0866978 0)
(0.927229 -0.0864811 0)
(0.941444 -0.0942842 0)
(0.952632 -0.100038 0)
(0.96131 -0.100839 0)
(0.969493 -0.0986526 0)
(0.976963 -0.0949565 0)
(0.984218 -0.090773 0)
(0.991402 -0.0867376 0)
(0.997915 -0.0827257 0)
(1.00352 -0.0784277 0)
(1.0085 -0.0737988 0)
(1.01303 -0.0689342 0)
(1.01712 -0.0639212 0)
(1.02067 -0.0588018 0)
(1.0236 -0.0536139 0)
(1.02591 -0.0484147 0)
(1.02762 -0.0432528 0)
(1.02876 -0.0381608 0)
(1.02939 -0.0331825 0)
(1.02959 -0.0283501 0)
(1.02944 -0.0236866 0)
(1.02903 -0.0191962 0)
(1.02846 -0.0148675 0)
(1.02781 -0.0106711 0)
(1.02723 -0.00650934 0)
(1.0269 -0.00220202 0)
(0.924209 -0.0742536 0)
(0.903962 -0.0724547 0)
(0.927277 -0.0812835 0)
(0.969847 -0.0934712 0)
(0.975444 -0.0956946 0)
(0.95993 -0.0901391 0)
(0.956747 -0.0856095 0)
(0.964903 -0.0841663 0)
(0.973974 -0.0835496 0)
(0.98253 -0.0825275 0)
(0.989897 -0.0812556 0)
(0.995792 -0.0796165 0)
(1.00108 -0.077358 0)
(1.00625 -0.074376 0)
(1.01121 -0.0707127 0)
(1.01574 -0.0665287 0)
(1.01976 -0.0620198 0)
(1.02318 -0.0572904 0)
(1.02597 -0.0524194 0)
(1.02814 -0.0474683 0)
(1.02971 -0.0424918 0)
(1.0307 -0.0375453 0)
(1.0312 -0.0326849 0)
(1.03126 -0.0279475 0)
(1.03099 -0.0233623 0)
(1.03047 -0.0189354 0)
(1.0298 -0.0146584 0)
(1.02908 -0.0105107 0)
(1.02842 -0.00640632 0)
(1.02801 -0.00217398 0)
(0.907982 -0.106129 0)
(0.931436 -0.115718 0)
(0.93469 -0.114366 0)
(0.92016 -0.106228 0)
(0.927399 -0.107491 0)
(0.943883 -0.114483 0)
(0.954586 -0.117791 0)
(0.964699 -0.116226 0)
(0.974406 -0.112109 0)
(0.982125 -0.106885 0)
(0.989112 -0.101602 0)
(0.996221 -0.096618 0)
(1.00291 -0.0915831 0)
(1.00883 -0.0861911 0)
(1.01404 -0.0804656 0)
(1.01865 -0.0745476 0)
(1.02267 -0.0685579 0)
(1.02604 -0.0625589 0)
(1.02876 -0.056609 0)
(1.03081 -0.0507512 0)
(1.03222 -0.045023 0)
(1.03305 -0.0394605 0)
(1.03335 -0.0340988 0)
(1.03322 -0.0289636 0)
(1.03274 -0.0240688 0)
(1.03203 -0.0194054 0)
(1.03119 -0.0149486 0)
(1.03033 -0.0106645 0)
(1.02954 -0.00647119 0)
(1.02903 -0.0021923 0)
(0.910708 -0.0979777 0)
(0.893957 -0.0969049 0)
(0.925325 -0.107611 0)
(0.967895 -0.118004 0)
(0.971105 -0.11671 0)
(0.957777 -0.109133 0)
(0.9581 -0.103822 0)
(0.96821 -0.101473 0)
(0.978354 -0.0996327 0)
(0.987234 -0.0970866 0)
(0.994551 -0.0940213 0)
(1.00057 -0.0906459 0)
(1.0062 -0.086859 0)
(1.01175 -0.0825165 0)
(1.01693 -0.0775924 0)
(1.02151 -0.0722388 0)
(1.02542 -0.0666711 0)
(1.02862 -0.0610159 0)
(1.03114 -0.0553525 0)
(1.03301 -0.0497221 0)
(1.03425 -0.044172 0)
(1.03492 -0.0387523 0)
(1.03508 -0.0335084 0)
(1.0348 -0.0284729 0)
(1.03419 -0.0236656 0)
(1.03337 -0.019079 0)
(1.03243 -0.0146888 0)
(1.03149 -0.0104631 0)
(1.03064 -0.00633198 0)
(1.03005 -0.00214307 0)
(0.902821 -0.136059 0)
(0.92631 -0.141851 0)
(0.923736 -0.136861 0)
(0.914985 -0.128454 0)
(0.931593 -0.130204 0)
(0.949253 -0.135102 0)
(0.958596 -0.1352 0)
(0.969177 -0.131083 0)
(0.980042 -0.125255 0)
(0.988185 -0.118765 0)
(0.994918 -0.112376 0)
(1.00165 -0.106223 0)
(1.00825 -0.0999237 0)
(1.01435 -0.0932698 0)
(1.01977 -0.0863608 0)
(1.02445 -0.07937 0)
(1.02835 -0.0724345 0)
(1.03148 -0.0656263 0)
(1.03387 -0.0589919 0)
(1.03557 -0.0525511 0)
(1.03663 -0.0463339 0)
(1.0371 -0.0403681 0)
(1.03705 -0.0346809 0)
(1.03657 -0.0292966 0)
(1.03577 -0.0242206 0)
(1.03475 -0.0194341 0)
(1.03366 -0.0148973 0)
(1.03259 -0.0105608 0)
(1.03163 -0.00635579 0)
(1.03096 -0.00214353 0)
(0.899239 -0.126922 0)
(0.88939 -0.126745 0)
(0.928407 -0.137431 0)
(0.96833 -0.143655 0)
(0.969165 -0.137781 0)
(0.958775 -0.128085 0)
(0.961915 -0.121624 0)
(0.973038 -0.117877 0)
(0.983784 -0.114651 0)
(0.992747 -0.110697 0)
(0.999845 -0.106045 0)
(1.00583 -0.101026 0)
(1.01164 -0.0956567 0)