/*--------------------------------*- C++ -*----------------------------------*\
| =========                 |                                                 |
| \\      /  F ield         | OpenFOAM: The Open Source CFD Toolbox           |
|  \\    /   O peration     | Version:                                        |
|   \\  /    A nd           | Website:  www.openfoam.com                      |
|    \\/     M anipulation  |                                                 |
\*---------------------------------------------------------------------------*/
FoamFile
{
    version     2.0;
    format      ascii;
    class       volVectorField;
    location    "61.2";
    object      U;
}
// * * * * * * * * * * * * * * * * * * * * * * * * * * * * * * * * * * * * * //

dimensions      [0 1 -1 0 0 0 0];


internalField   nonuniform List<vector> 
1161
(
(1.35027 -0.259611 -1.50186e-19)
(1.30706 -0.282479 2.59535e-19)
(1.21434 -0.286779 -3.42336e-20)
(1.09053 -0.275179 1.38319e-20)
(1.05067 -0.248649 2.53774e-20)
(1.00042 -0.206668 8.06652e-21)
(0.942056 -0.162913 -8.65711e-21)
(0.953229 -0.113474 -1.10367e-20)
(0.944716 -0.111913 -5.07358e-21)
(0.932341 -0.0431797 1.78359e-20)
(1.15591 -0.203886 -1.46903e-19)
(1.12217 -0.198025 2.35025e-20)
(1.09072 -0.174225 3.16735e-20)
(1.05963 -0.152666 -8.18431e-20)
(1.0661 -0.122557 7.00032e-21)
(1.06616 -0.104176 1.47688e-20)
(1.03792 -0.0682493 3.76143e-21)
(1.04307 -0.0361823 1.97594e-20)
(1.142 -0.124193 -7.94475e-20)
(1.13184 -0.102551 3.44101e-20)
(1.10157 -0.092878 7.96091e-20)
(1.05658 -0.0650164 -2.89901e-20)
(1.0381 -0.0568257 1.86576e-22)
(1.02839 -0.0410075 -3.82174e-21)
(1.07174 -0.0526071 -6.02594e-20)
(1.06983 -0.04027 2.05187e-20)
(1.04033 -0.0259903 5.07765e-21)
(-0.208051 -0.920288 2.54323e-20)
(-0.253112 -0.972019 -2.9345e-20)
(-0.276577 -1.01067 1.05151e-21)
(-0.265073 -1.0115 1.47429e-20)
(-0.233834 -0.979834 -2.23045e-20)
(-0.185027 -0.91519 -1.56921e-20)
(-0.113824 -0.819171 4.23828e-20)
(-0.0363849 -0.693092 -3.38459e-20)
(0.0604724 -0.53345 3.94583e-20)
(0.162798 -0.346044 3.79426e-20)
(0.25865 -0.171301 -3.26074e-20)
(0.339222 0.0760033 -4.09223e-20)
(0.418704 0.355897 3.18276e-20)
(0.488802 0.700419 1.99799e-20)
(0.542761 0.941477 5.52388e-20)
(0.579904 1.11184 -2.88994e-21)
(0.632852 1.18752 -1.30274e-20)
(-0.389374 -0.91776 -2.50567e-20)
(-0.420971 -0.982197 4.94825e-21)
(-0.440607 -1.0259 -2.51416e-20)
(-0.417405 -1.04016 2.47354e-21)
(-0.375246 -1.01501 3.79397e-20)
(-0.313235 -0.956794 -1.53994e-19)
(-0.234353 -0.860228 6.37571e-20)
(-0.14082 -0.722903 4.35357e-20)
(-0.0422372 -0.548684 -1.56019e-19)
(0.0357031 -0.334557 3.26079e-20)
(0.0976184 -0.0551249 2.23275e-20)
(0.15059 0.237325 -8.29397e-20)
(0.201624 0.578356 -2.61212e-19)
(0.283903 0.821157 2.86706e-20)
(0.332526 0.971866 3.03696e-20)
(0.410219 1.06119 3.33165e-20)
(-0.484405 -0.827673 1.69762e-19)
(-0.546837 -0.934008 -6.19208e-20)
(-0.582726 -1.0154 -1.03776e-19)
(-0.585524 -1.07296 4.91355e-20)
(-0.564002 -1.09501 8.73535e-20)
(-0.519085 -1.07898 -1.35474e-19)
(-0.453794 -1.01415 2.82386e-20)
(-0.373361 -0.898935 2.19402e-19)
(-0.29819 -0.736635 -2.5316e-19)
(-0.227276 -0.506476 8.36445e-21)
(-0.162318 -0.193059 1.14564e-19)
(-0.126141 0.0585007 3.25977e-20)
(-0.0483513 0.387722 1.84858e-20)
(0.0478797 0.619983 2.13605e-19)
(0.140975 0.791915 -1.60043e-19)
(0.240502 0.864576 3.84325e-20)
(-0.49172 -0.685081 5.71319e-20)
(-0.563158 -0.824622 -1.75436e-19)
(-0.615768 -0.950682 1.23347e-19)
(-0.633852 -1.05675 5.60913e-20)
(-0.630957 -1.13233 -2.90772e-20)
(-0.605044 -1.16721 3.45686e-20)
(-0.56343 -1.15211 1.70105e-19)
(-0.508488 -1.07804 1.50264e-20)
(-0.451979 -0.932771 -2.08746e-19)
(-0.397522 -0.706959 -6.01081e-20)
(-0.338565 -0.442111 -4.80103e-21)
(-0.27043 -0.199428 6.90508e-20)
(-0.244907 0.102603 7.34618e-20)
(-0.074753 0.289972 -4.55291e-21)
(0.0364578 0.520626 -3.69267e-20)
(0.190891 0.641279 1.80522e-20)
(-0.380869 -0.50888 6.37823e-20)
(-0.437119 -0.663748 -4.29305e-19)
(-0.484261 -0.818553 5.68024e-19)
(-0.501683 -0.959724 -3.16333e-19)
(-0.502934 -1.07842 -3.01208e-19)
(-0.488147 -1.16294 2.49304e-19)
(-0.469665 -1.20245 -1.81071e-19)
(-0.441288 -1.17988 3.10588e-20)
(-0.403554 -1.08449 -6.47933e-20)
(-0.369793 -0.90285 8.70625e-20)
(-0.364862 -0.656699 5.18426e-20)
(-0.343721 -0.400678 5.74931e-20)
(-0.300344 -0.183509 -3.00619e-20)
(-0.0485302 -0.198228 -1.68867e-20)
(0.053193 0.174019 4.4202e-20)
(0.18354 0.31786 -8.60621e-20)
(-0.208065 -0.436057 -4.26485e-19)
(-0.220721 -0.600048 -1.40255e-20)
(-0.214336 -0.759959 1.80913e-19)
(-0.191661 -0.904967 9.25419e-20)
(-0.161328 -1.02749 -2.90607e-19)
(-0.139426 -1.11171 3.07177e-21)
(-0.134355 -1.1361 -2.01817e-19)
(-0.132245 -1.08988 2.65154e-19)
(-0.119356 -0.954555 -8.67872e-20)
(-0.147127 -0.735405 -3.67798e-20)
(-0.149571 -0.490627 -1.41753e-20)
(-0.12251 -0.394817 3.00462e-20)
(0.226548 -0.560602 -4.41041e-20)
(0.0228414 -0.129367 -5.34399e-20)
(0.216138 -0.0579712 8.87904e-20)
(0.0429365 -0.342837 -7.54846e-20)
(0.0921914 -0.49524 4.9863e-19)
(0.154187 -0.638513 7.92297e-19)
(0.229261 -0.768018 -1.69367e-19)
(0.29894 -0.863231 1.02074e-19)
(0.332342 -0.900793 1.13127e-19)
(0.330407 -0.892494 -2.13403e-19)
(0.342604 -0.83536 4.27704e-20)
(0.311907 -0.706219 -7.95524e-22)
(0.287088 -0.438076 -2.21617e-20)
(0.192618 -0.27647 1.02297e-19)
(0.547023 -0.309712 -1.21219e-19)
(0.143191 -0.193414 5.69912e-20)
(0.490548 -0.134752 -1.23871e-20)
(0.352237 -0.326755 9.37833e-20)
(0.458951 -0.465371 4.15913e-19)
(0.579982 -0.597944 -6.87796e-19)
(0.699715 -0.698188 -2.98899e-19)
(0.775149 -0.733381 -1.37956e-19)
(0.803869 -0.706258 6.6229e-21)
(0.80286 -0.633345 -7.33722e-20)
(0.796211 -0.53807 3.65104e-20)
(0.734436 -0.428647 3.53803e-20)
(0.718364 -0.335725 -1.13157e-19)
(0.794951 -0.209789 4.56665e-20)
(0.682551 -0.0995275 2.32899e-20)
(0.758482 -0.0130705 -5.1248e-20)
(0.690598 -0.297764 9.60714e-20)
(0.860752 -0.404743 1.43486e-19)
(1.00779 -0.489771 2.63979e-20)
(1.07088 -0.53731 -8.15056e-21)
(1.08286 -0.549197 9.10744e-20)
(1.06044 -0.51169 2.50631e-20)
(1.01674 -0.433595 -4.26983e-21)
(0.898654 -0.323278 1.29968e-20)
(0.944233 -0.231169 -2.92222e-20)
(0.857039 -0.1832 6.32721e-20)
(0.910257 -0.0938934 -1.20948e-19)
(0.886377 -0.0547833 1.46577e-19)
(1.09676 -0.304288 -1.02511e-19)
(1.22142 -0.354047 -1.15726e-19)
(1.25177 -0.377147 3.41019e-19)
(1.21752 -0.372028 -1.78535e-19)
(1.14229 -0.339766 4.68126e-20)
(1.00182 -0.302153 -4.86162e-20)
(0.985124 -0.258868 2.66345e-20)
(0.914061 -0.234739 1.74397e-20)
(0.868136 -0.147798 -9.37535e-21)
(0.883355 -0.114078 -1.20226e-20)
(0.840315 -0.0627898 -1.22962e-20)
(0.665962 1.13325 1.37844e-20)
(0.669028 1.05667 -2.93224e-21)
(0.682668 1.0061 2.58701e-21)
(0.715181 1.01514 2.59905e-21)
(0.723194 1.09032 -7.43761e-21)
(0.695648 1.17416 3.11268e-21)
(0.658658 1.14193 4.92627e-21)
(0.674487 0.860742 -7.39816e-21)
(0.695183 0.373596 7.14028e-21)
(0.714035 -0.211295 -2.07541e-20)
(0.720789 -0.67925 3.9404e-21)
(0.726966 -0.912094 2.88281e-21)
(0.732529 -0.967086 6.0411e-21)
(0.757254 -0.917316 2.09323e-21)
(0.77322 -0.855256 -1.80081e-21)
(0.75717 -0.843186 -1.69036e-22)
(0.711536 -0.872634 -2.19723e-22)
(0.606431 -0.899703 -1.78564e-21)
(0.493701 -0.782752 3.85852e-21)
(0.42618 -0.456353 -2.41029e-21)
(0.505526 1.08617 -8.07487e-21)
(0.566283 1.07208 -1.27213e-20)
(0.626354 1.02238 -2.75311e-22)
(0.677576 1.00879 1.37133e-20)
(0.723804 1.08219 1.39532e-20)
(0.747707 1.19014 -3.35857e-21)
(0.785178 1.16253 -4.73718e-21)
(0.848201 0.891378 4.88463e-20)
(0.905073 0.391717 -5.00115e-20)
(0.933903 -0.2065 -4.05059e-20)
(0.907255 -0.684354 1.53713e-20)
(0.889862 -0.937083 4.64908e-20)
(0.870697 -0.99932 -2.76356e-20)
(0.850673 -0.945128 -9.6276e-21)
(0.828053 -0.862952 1.72464e-20)
(0.784046 -0.824759 -5.46985e-21)
(0.715039 -0.832721 -6.67658e-22)
(0.595629 -0.828069 8.99047e-21)
(0.448681 -0.718085 -1.87458e-20)
(0.351233 -0.43297 7.33067e-21)
(0.348261 0.911353 -4.177e-20)
(0.472943 0.954298 6.01014e-21)
(0.598943 0.947208 6.69908e-21)
(0.699361 0.951255 -1.19309e-20)
(0.79197 1.02491 7.56222e-21)
(0.847273 1.13978 -1.16104e-20)
(0.918407 1.13831 4.88721e-20)
(0.998098 0.907481 8.51136e-21)
(1.06604 0.461383 3.33067e-20)
(1.10777 -0.10372 -1.28218e-20)
(1.09557 -0.622559 -8.66331e-20)
(1.06815 -0.9192 1.29822e-20)
(1.01535 -0.992065 -8.9799e-21)
(0.94372 -0.933557 2.28024e-20)
(0.880171 -0.833268 -7.25957e-21)
(0.796057 -0.7732 7.85509e-21)
(0.701741 -0.753678 6.72645e-21)
(0.583453 -0.739909 -6.78554e-21)
(0.449016 -0.652121 -1.00013e-20)
(0.337019 -0.406531 5.89065e-21)
(0.265775 0.737233 -1.41307e-20)
(0.390175 0.787494 5.52304e-21)
(0.511621 0.789436 1.45041e-20)
(0.633404 0.803048 -9.05081e-21)
(0.76205 0.893647 2.25713e-20)
(0.8553 1.04246 -3.00766e-20)
(0.972943 1.07312 4.9663e-20)
(1.0829 0.904525 2.00677e-20)
(1.16973 0.526589 -7.79124e-20)
(1.23138 -0.00824164 2.64804e-20)
(1.25873 -0.535538 3.75652e-20)
(1.22039 -0.853198 -5.0389e-20)
(1.122 -0.922342 1.77798e-20)
(1.00538 -0.887326 1.30105e-21)
(0.932692 -0.806786 1.49383e-21)
(0.859206 -0.738135 -1.49772e-20)
(0.768153 -0.715463 2.39172e-21)
(0.639077 -0.694032 -1.52985e-21)
(0.488674 -0.606443 8.7896e-21)
(0.357186 -0.390564 4.14531e-22)
(0.250101 0.556975 6.58654e-20)
(0.386866 0.681234 -9.90054e-21)
(0.508171 0.677792 -2.24858e-20)
(0.634056 0.642941 4.93398e-21)
(0.740277 0.703999 -6.86629e-21)
(0.841146 0.847742 1.17088e-20)
(0.978938 0.926453 5.24903e-21)
(1.11332 0.847686 -1.34502e-20)
(1.21241 0.56529 -9.71627e-20)
(1.29127 0.101101 4.47091e-20)
(1.35633 -0.404886 5.18864e-20)
(1.32606 -0.738533 -6.87066e-21)
(1.22174 -0.837506 4.18103e-20)
(1.09411 -0.822494 -8.21331e-22)
(0.985723 -0.767796 -2.96845e-20)
(0.880741 -0.697978 -6.20746e-21)
(0.777914 -0.649821 2.04468e-21)
(0.677549 -0.615584 -4.17514e-22)
(0.542513 -0.548421 3.3304e-21)
(0.411227 -0.371202 -4.60933e-21)
(0.210459 0.256785 -1.09832e-19)
(0.374955 0.470864 3.18748e-20)
(0.532725 0.534151 -2.74932e-20)
(0.660653 0.536748 1.96723e-20)
(0.730432 0.582391 1.53585e-20)
(0.809203 0.687863 2.10371e-21)
(0.939919 0.775368 -5.52576e-21)
(1.07716 0.772185 5.92056e-20)
(1.16362 0.592701 -9.26982e-20)
(1.28339 0.184213 3.68175e-20)
(1.41559 -0.303295 -6.76019e-20)
(1.4173 -0.63017 3.81584e-20)
(1.3128 -0.731474 2.72399e-20)
(1.17512 -0.732644 1.19542e-20)
(1.04021 -0.693072 -5.05057e-21)
(0.9333 -0.634537 -6.97387e-21)
(0.833877 -0.61408 -8.96144e-22)
(0.742604 -0.583168 -1.75934e-21)
(0.614652 -0.507525 -1.2415e-22)
(0.477034 -0.356893 3.16551e-21)
(0.333125 0.00335531 -4.16154e-22)
(0.345862 0.213622 5.38836e-20)
(0.439918 0.343617 -1.60264e-21)
(0.525661 0.423119 4.35078e-20)
(0.584818 0.486439 -4.30656e-20)
(0.680934 0.545748 -8.62189e-21)
(0.828844 0.624335 1.10853e-20)
(0.953375 0.694609 6.49118e-21)
(1.053 0.598373 7.60023e-21)
(1.25704 0.233504 1.88415e-21)
(1.44721 -0.200861 6.55752e-21)
(1.46852 -0.500457 -1.54337e-20)
(1.36921 -0.619062 -2.48611e-20)
(1.2458 -0.635656 2.21981e-20)
(1.11531 -0.630677 -1.32819e-20)
(1.00376 -0.586022 8.40709e-21)
(0.900078 -0.553128 5.81474e-22)
(0.794823 -0.525041 -9.11889e-21)
(0.679439 -0.45449 3.07752e-21)
(0.550295 -0.330295 1.52456e-20)
(0.466116 -0.157687 -6.8332e-21)
(0.746306 0.0581395 1.3296e-19)
(0.646653 0.122606 -6.63669e-20)
(0.547805 0.233688 -7.56844e-20)
(0.499351 0.339645 9.30249e-20)
(0.527149 0.377923 -5.98358e-20)
(0.612713 0.385274 -1.58773e-21)
(0.705054 0.456406 1.12902e-20)
(0.786841 0.569629 2.45955e-20)
(0.954507 0.514194 -5.11824e-21)
(1.25504 0.205892 -1.8617e-20)
(1.47529 -0.153308 -1.57474e-20)
(1.51073 -0.398104 1.01494e-20)
(1.41639 -0.512713 2.64527e-20)
(1.28755 -0.543105 6.31853e-21)
(1.1594 -0.54741 -8.46407e-21)
(1.04632 -0.522566 -3.68787e-21)
(0.952644 -0.502054 2.31827e-21)
(0.846518 -0.486077 3.9873e-22)
(0.747915 -0.429479 -2.03885e-22)
(0.646715 -0.321681 2.73894e-21)
(0.548092 -0.166054 -2.33071e-22)
(0.922287 0.0501971 -9.50236e-21)
(0.929279 0.119003 -5.85823e-20)
(0.8878 0.212838 1.55586e-21)
(0.819647 0.314949 -2.30282e-20)
(0.814541 0.347222 -1.87783e-20)
(0.852859 0.336059 4.44331e-20)
(0.851241 0.381677 -7.33349e-21)
(0.877346 0.465901 3.67589e-20)
(1.08142 0.408104 -4.15575e-20)
(1.37947 0.158184 9.28622e-21)
(1.53313 -0.105965 -7.60968e-24)
(1.51902 -0.291775 -3.01459e-21)
(1.42053 -0.398948 -1.01381e-20)
(1.30402 -0.448525 1.64548e-20)
(1.19848 -0.485133 -2.93257e-21)
(1.09997 -0.481171 -1.68562e-21)
(1.00925 -0.453846 -5.15203e-21)
(0.901227 -0.439512 -3.97946e-21)
(0.805574 -0.40388 2.23702e-20)
(0.723149 -0.31017 -1.62244e-20)
(0.624022 -0.15429 1.9698e-20)
(0.86389 -0.0156336 -4.39211e-21)
(0.892605 0.0351666 -7.93001e-21)
(0.911162 0.107376 -6.48213e-20)
(0.932967 0.197679 6.04153e-20)
(0.983038 0.258046 7.46472e-20)
(1.02755 0.277064 -8.74664e-20)
(1.02527 0.316846 7.1935e-20)
(1.06231 0.360414 -2.71348e-20)
(1.21549 0.313945 -2.63566e-20)
(1.3824 0.176245 2.73156e-20)
(1.45777 0.0226227 -1.00776e-20)
(1.45136 -0.134721 -6.24272e-21)
(1.40023 -0.263124 6.74605e-22)
(1.32841 -0.338613 3.38939e-21)
(1.23354 -0.395335 9.91281e-21)
(1.13534 -0.41824 -9.05966e-21)
(1.05487 -0.402201 -1.13242e-20)
(0.960752 -0.395112 1.06376e-20)
(0.872374 -0.385336 1.26269e-20)
(0.79032 -0.315784 -2.6876e-20)
(0.684229 -0.164853 -4.44554e-21)
(0.9344 -0.0107618 0)
(0.923267 0.0276564 0)
(0.92503 0.0827544 0)
(0.953018 0.1419 0)
(1.00732 0.183964 0)
(1.05766 0.215009 0)
(1.10054 0.243843 0)
(1.18143 0.253849 0)
(1.2935 0.216087 0)
(1.38648 0.112846 0)
(1.43156 -0.000951298 0)
(1.42752 -0.108313 0)
(1.37184 -0.209532 0)
(1.31504 -0.264058 0)
(1.24164 -0.309674 0)
(1.14658 -0.349744 0)
(1.08525 -0.341678 0)
(1.00396 -0.325373 0)
(0.910037 -0.323721 0)
(0.841523 -0.28394 0)
(0.758145 -0.166566 0)
(0.696541 -0.0219386 0)
(0.997315 0.00852674 0)
(0.981008 0.0459785 0)
(0.980072 0.0800753 0)
(0.99508 0.119389 0)
(1.03129 0.147718 0)
(1.07143 0.173199 0)
(1.12427 0.19756 0)
(1.19188 0.199783 0)
(1.27469 0.168273 0)
(1.33999 0.0918886 0)
(1.35608 0.00357165 0)
(1.3596 -0.0842029 0)
(1.31506 -0.176475 0)
(1.25419 -0.245828 0)
(1.19469 -0.293466 0)
(1.104 -0.324648 0)
(1.03972 -0.317716 0)
(0.978707 -0.300141 0)
(0.895119 -0.296559 0)
(0.835208 -0.244732 0)
(0.785329 -0.114069 0)
(0.750779 0.0203451 0)
(1.02174 0.0142308 0)
(1.0179 0.0405949 0)
(1.01857 0.069941 0)
(1.02942 0.099638 0)
(1.06114 0.12331 0)
(1.09032 0.142957 0)
(1.13167 0.153583 0)
(1.1794 0.147548 0)
(1.23323 0.119581 0)
(1.28167 0.063264 0)
(1.29614 -0.00805049 0)
(1.29934 -0.0793441 0)
(1.27575 -0.144257 0)
(1.23485 -0.188243 0)
(1.19594 -0.214671 0)
(1.14093 -0.249282 0)
(1.08209 -0.260881 0)
(1.03427 -0.240655 0)
(0.97118 -0.238665 0)
(0.887244 -0.217208 0)
(0.824373 -0.118904 0)
(0.82583 0.0131282 0)
(1.03442 0.0246183 0)
(1.03728 0.0407261 0)
(1.04133 0.0621189 0)
(1.05115 0.0837184 0)
(1.07341 0.0990024 0)
(1.09688 0.109963 0)
(1.12941 0.113252 0)
(1.16287 0.106447 0)
(1.20193 0.0820742 0)
(1.23611 0.0436345 0)
(1.25291 -0.00714251 0)
(1.25737 -0.0640174 0)
(1.23363 -0.118486 0)
(1.20312 -0.175944 0)
(1.15816 -0.22022 0)
(1.10097 -0.243341 0)
(1.03306 -0.245624 0)
(0.96361 -0.239224 0)
(0.919174 -0.227141 0)
(0.871131 -0.179335 0)
(0.824085 -0.0960886 0)
(0.84386 0.00150518 0)
(1.04661 0.0302011 0)
(1.05348 0.0403321 0)
(1.05804 0.0550894 0)
(1.06743 0.0662353 0)
(1.08435 0.0778614 0)
(1.10301 0.0838057 0)
(1.12808 0.0826421 0)
(1.1534 0.0772109 0)
(1.17979 0.0556038 0)
(1.2034 0.0260346 0)
(1.21664 -0.0163239 0)
(1.21734 -0.0622376 0)
(1.20278 -0.109312 0)
(1.18146 -0.149851 0)
(1.14349 -0.163086 0)
(1.10179 -0.183172 0)
(1.07096 -0.183625 0)
(1.03701 -0.169369 0)
(0.990682 -0.172901 0)
(0.928266 -0.143735 0)
(0.881137 -0.0917668 0)
(0.881913 -0.0258852 0)
(1.05927 0.0336799 0)
(1.06689 0.0388448 0)
(1.07101 0.0472938 0)
(1.07993 0.053577 0)
(1.09123 0.0604614 0)
(1.10861 0.0626579 0)
(1.12554 0.0606728 0)
(1.1424 0.0527705 0)
(1.16298 0.0341976 0)
(1.17563 0.013112 0)
(1.18707 -0.0199775 0)
(1.18728 -0.0539733 0)
(1.17922 -0.0857874 0)
(1.15519 -0.121103 0)
(1.11841 -0.143941 0)
(1.08512 -0.169467 0)
(1.03459 -0.177805 0)
(0.993658 -0.174069 0)
(0.961119 -0.170047 0)
(0.922739 -0.127574 0)
(0.904572 -0.0781686 0)
(0.908655 -0.0275158 0)
(1.06538 0.0352608 0)
(1.07066 0.0367981 0)
(1.0757 0.0412244 0)
(1.08291 0.0427937 0)
(1.09102 0.0465268 0)
(1.10439 0.0449495 0)
(1.11443 0.0415274 0)
(1.13002 0.0341371 0)
(1.13998 0.019252 0)
(1.15051 0.00260628 0)
(1.16028 -0.021471 0)
(1.15555 -0.0459379 0)
(1.14759 -0.0753702 0)
(1.12616 -0.106104 0)
(1.10138 -0.120247 0)
(1.07818 -0.136669 0)
(1.04126 -0.133132 0)
(1.01969 -0.125953 0)
(0.985357 -0.128136 0)
(0.943232 -0.0976207 0)
(0.932623 -0.0723138 0)
(0.927367 -0.0399643 0)
(1.06323 0.0334811 0)
(1.06934 0.0347487 0)
(1.07518 0.0339827 0)
(1.08003 0.0353096 0)
(1.08594 0.0326968 0)
(1.09557 0.0320049 0)
(1.10318 0.0272812 0)
(1.11256 0.0195842 0)
(1.12017 0.00938154 0)
(1.12636 -0.00621357 0)
(1.12964 -0.0217357 0)
(1.12748 -0.0442806 0)
(1.12397 -0.0625265 0)
(1.10911 -0.0829884 0)
(1.09038 -0.0986166 0)
(1.06709 -0.110162 0)
(1.03599 -0.117913 0)
(1.01772 -0.11551 0)
(0.988586 -0.110783 0)
(0.961486 -0.0926215 0)
(0.952016 -0.0673853 0)
(0.942153 -0.0371052 0)
(1.06276 0.0311001 0)
(1.06931 0.0315133 0)
(1.07448 0.0294495 0)
(1.07628 0.0277608 0)
(1.08492 0.024839 0)
(1.08694 0.0222697 0)
(1.09525 0.0170388 0)
(1.09887 0.0107541 0)
(1.10229 0.00125078 0)
(1.10772 -0.0107573 0)
(1.10611 -0.0226631 0)
(1.11102 -0.037809 0)
(1.10292 -0.0518238 0)
(1.0925 -0.0703986 0)
(1.08118 -0.0822019 0)
(1.05581 -0.0932865 0)
(1.04184 -0.0971052 0)
(1.02113 -0.0923041 0)
(0.995205 -0.0910058 0)
(0.987879 -0.0741375 0)
(0.959783 -0.0555743 0)
(0.95779 -0.0419831 0)
(1.06198 0.0296853 0)
(1.06674 0.0271165 0)
(1.07299 0.0266605 0)
(1.07517 0.0236218 0)
(1.08064 0.0191258 0)
(1.08224 0.0175214 0)
(1.08638 0.00859292 0)
(1.08863 0.00734453 0)
(1.09002 -0.0053145 0)
(1.09308 -0.0115949 0)
(1.09192 -0.0210487 0)
(1.09159 -0.0381258 0)
(1.08825 -0.0411037 0)
(1.07961 -0.0628512 0)
(1.07066 -0.0656605 0)
(1.05271 -0.0731565 0)
(1.03835 -0.0855746 0)
(1.02352 -0.0698821 0)
(1.00337 -0.0790659 0)
(0.995847 -0.0659854 0)
(0.975682 -0.0408237 0)
(0.974534 -0.0470113 0)
(1.05858 0.0254394 0)
(1.0623 0.024498 0)
(1.06958 0.0221919 0)
(1.06992 0.0202204 0)
(1.0745 0.0141621 0)
(1.07567 0.0127335 0)
(1.07863 0.00522675 0)
(1.07981 0.00216372 0)
(1.08104 -0.00567862 0)
(1.0795 -0.0138582 0)
(1.08062 -0.0203317 0)
(1.07669 -0.0330237 0)
(1.07603 -0.037147 0)
(1.06889 -0.0500601 0)
(1.05911 -0.0553651 0)
(1.05112 -0.0595724 0)
(1.03337 -0.0681329 0)
(1.02568 -0.0589631 0)
(1.01017 -0.0646334 0)
(0.998887 -0.0540229 0)
(0.991328 -0.0370545 0)
(0.982914 -0.0421571 0)
(1.0555 0.0233198 0)
(1.05744 0.0194622 0)
(1.06278 0.0179621 0)
(1.06379 0.0159988 0)
(1.06709 0.00927448 0)
(1.06968 0.0109925 0)
(1.07014 0.000270356 0)
(1.07228 0.00195441 0)
(1.07094 -0.00845719 0)
(1.0703 -0.0130276 0)
(1.07068 -0.0172974 0)
(1.06542 -0.030354 0)
(1.06705 -0.0294752 0)
(1.05737 -0.0427886 0)
(1.0536 -0.046504 0)
(1.0451 -0.0452181 0)
(1.03044 -0.0591636 0)
(1.02924 -0.0457552 0)
(1.01042 -0.0510346 0)
(1.00625 -0.0518489 0)
(1.0015 -0.0250941 0)
(0.986633 -0.0412863 0)
(1.04872 0.0180399 0)
(1.05399 0.0176377 0)
(1.05408 0.0121234 0)
(1.06079 0.0145385 0)
(1.05838 0.00570778 0)
(1.0643 0.00820285 0)
(1.06188 -0.000237935 0)
(1.06341 -0.0021593 0)
(1.06457 -0.00543772 0)
(1.05904 -0.0150154 0)
(1.0648 -0.012811 0)
(1.05462 -0.0264347 0)
(1.05966 -0.0257595 0)
(1.05052 -0.0318512 0)
(1.04583 -0.0420324 0)
(1.04198 -0.0329975 0)
(1.02854 -0.0498834 0)
(1.02713 -0.0381371 0)
(1.01722 -0.0382361 0)
(1.00815 -0.0475285 0)
(1.00727 -0.0189602 0)
(0.998398 -0.0369891 0)
(1.04367 0.0146363 0)
(1.04978 0.0151775 0)
(1.05024 0.010247 0)
(1.05387 0.0111211 0)
(1.05404 0.00511648 0)
(1.05507 0.00415814 0)
(1.05708 0.000534985 0)
(1.05457 -0.00482722 0)
(1.05738 -0.00398823 0)
(1.05241 -0.014219 0)
(1.05426 -0.0112654 0)
(1.05089 -0.0208219 0)
(1.04844 -0.0234823 0)
(1.04729 -0.0229099 0)
(1.03984 -0.0369435 0)
(1.03662 -0.0246537 0)
(1.03138 -0.0402053 0)
(1.02146 -0.0332472 0)
(1.02424 -0.0276164 0)
(1.00912 -0.0429343 0)
(1.01108 -0.0160352 0)
(1.00863 -0.0294831 0)
(1.04187 0.0129777 0)
(1.04452 0.0123515 0)
(1.04644 0.0088537 0)
(1.04715 0.00827902 0)
(1.04893 0.00413627 0)
(1.04901 0.00274165 0)
(1.05034 -0.000193597 0)
(1.04951 -0.00409547 0)
(1.04855 -0.00480876 0)
(1.04824 -0.0109723 0)
(1.0449 -0.0110502 0)
(1.04642 -0.0160149 0)
(1.0416 -0.0197923 0)
(1.04141 -0.0188765 0)
(1.03793 -0.0280914 0)
(1.03054 -0.0224775 0)
(1.0331 -0.0292458 0)
(1.0192 -0.0295162 0)
(1.02501 -0.0225891 0)
(1.01486 -0.0325862 0)
(1.00955 -0.0202152 0)
(1.01641 -0.0193112 0)
(1.03769 0.0107267 0)
(1.03997 0.0100543 0)
(1.04104 0.00672647 0)
(1.04261 0.00695025 0)
(1.04317 0.0026325 0)
(1.0443 0.00266628 0)
(1.04404 -0.00116689 0)
(1.04431 -0.00303039 0)
(1.04285 -0.00457949 0)
(1.04222 -0.00921922 0)
(1.04053 -0.00853681 0)
(1.03959 -0.0142405 0)
(1.03875 -0.0143891 0)
(1.03521 -0.0170971 0)
(1.03552 -0.0210807 0)
(1.02842 -0.0188611 0)
(1.02899 -0.0244075 0)
(1.02341 -0.0219248 0)
(1.02009 -0.0219333 0)
(1.02077 -0.023923 0)
(1.01079 -0.0194903 0)
(1.01498 -0.0179022 0)
(1.03351 0.0085569 0)
(1.03621 0.00832504 0)
(1.03672 0.00541246 0)
(1.03824 0.00570343 0)
(1.03853 0.00211413 0)
(1.03901 0.00186891 0)
(1.03974 -0.000847779 0)
(1.03852 -0.00297626 0)
(1.03903 -0.00341782 0)
(1.0364 -0.00807011 0)
(1.03692 -0.00660121 0)
(1.03466 -0.0118444 0)
(1.03438 -0.0117311 0)
(1.03298 -0.013218 0)
(1.03029 -0.0179688 0)
(1.02914 -0.0137719 0)
(1.02475 -0.0211776 0)
(1.02467 -0.0166454 0)
(1.02025 -0.018194 0)
(1.01911 -0.0212194 0)
(1.01674 -0.0136763 0)
(1.01163 -0.0194404 0)
(1.03073 0.00715172 0)
(1.03259 0.00687683 0)
(1.0332 0.00462364 0)
(1.03381 0.00447101 0)
(1.0346 0.0019128 0)
(1.03445 0.0013113 0)
(1.03564 -0.000551456 0)
(1.0342 -0.00249602 0)
(1.03476 -0.00288181 0)
(1.03272 -0.00632215 0)
(1.03236 -0.00570209 0)
(1.03189 -0.00906024 0)
(1.03021 -0.00974956 0)
(1.03075 -0.0102432 0)
(1.02723 -0.0144571 0)
(1.02699 -0.0112036 0)
(1.02433 -0.0164387 0)
(1.022 -0.0144178 0)
(1.02217 -0.013768 0)
(1.01741 -0.0186639 0)
(1.018 -0.011046 0)
(1.01418 -0.0164108 0)
(1.02799 0.00601735 0)
(1.02912 0.00555765 0)
(1.02985 0.00396223 0)
(1.03013 0.00348901 0)
(1.03106 0.00180825 0)
(1.03081 0.000986973 0)
(1.0318 -0.000321848 0)
(1.03075 -0.0019022 0)
(1.03083 -0.0024679 0)
(1.02962 -0.00472385 0)
(1.02889 -0.00487876 0)
(1.02897 -0.00685933 0)
(1.02716 -0.00799905 0)
(1.02776 -0.00824799 0)
(1.02537 -0.0111779 0)
(1.0245 -0.00956684 0)
(1.02345 -0.0125558 0)
(1.02047 -0.0121935 0)
(1.02165 -0.0112034 0)
(1.0177 -0.0148483 0)
(1.017 -0.0104274 0)
(1.01635 -0.0127313 0)
(1.02537 0.00500017 0)
(1.0262 0.00450623 0)
(1.02688 0.00338112 0)
(1.02707 0.00281918 0)
(1.02774 0.00163577 0)
(1.02772 0.000821707 0)
(1.02829 -0.000194727 0)
(1.02775 -0.00139815 0)
(1.02754 -0.00205737 0)
(1.02675 -0.00354979 0)
(1.02594 -0.00403873 0)
(1.02591 -0.0053623 0)
(1.02493 -0.00629401 0)
(1.02503 -0.00669068 0)
(1.02372 -0.00848192 0)
(1.02239 -0.00800531 0)
(1.022 -0.00971975 0)
(1.01974 -0.0097121 0)
(1.02019 -0.00952899 0)
(1.01794 -0.0112217 0)
(1.01629 -0.00960811 0)
(1.01629 -0.0101349 0)
(1.02304 0.00416714 0)
(1.02363 0.0036742 0)
(1.02419 0.00287334 0)
(1.02435 0.00228638 0)
(1.02484 0.00143639 0)
(1.02493 0.000710166 0)
(1.0253 -9.09489e-05 0)
(1.02502 -0.00097957 0)
(1.02469 -0.00165766 0)
(1.02408 -0.00263084 0)
(1.02354 -0.00324096 0)
(1.02344 -0.00404538 0)
(1.02294 -0.00487187 0)
(1.02262 -0.00529146 0)
(1.02188 -0.00649986 0)
(1.0207 -0.00646331 0)
(1.02043 -0.00753669 0)
(1.01884 -0.00764962 0)
(1.01888 -0.00790604 0)
(1.01735 -0.008596 0)
(1.01592 -0.00827662 0)
(1.01558 -0.00820027 0)
(1.02094 0.00346705 0)
(1.02138 0.0030208 0)
(1.0218 0.00242575 0)
(1.02191 0.00190132 0)
(1.02229 0.00126656 0)
(1.02244 0.000673985 0)
(1.02275 3.49921e-05 0)
(1.02254 -0.000632291 0)
(1.02231 -0.00125078 0)
(1.02178 -0.00189831 0)
(1.02145 -0.00250619 0)
(1.02114 -0.0030464 0)
(1.02094 -0.00379098 0)
(1.02053 -0.00411991 0)
(1.02018 -0.00498616 0)
(1.01918 -0.00506897 0)
(1.01889 -0.00585594 0)
(1.01783 -0.00594574 0)
(1.01767 -0.00635488 0)
(1.01654 -0.0066033 0)
(1.01553 -0.00673005 0)
(1.01472 -0.00651969 0)
(1.01905 0.00283956 0)
(1.01935 0.00246898 0)
(1.01968 0.00200655 0)
(1.01977 0.00159204 0)
(1.02012 0.00109575 0)
(1.02024 0.000639839 0)
(1.0205 9.79477e-05 0)
(1.02032 -0.000389756 0)
(1.02017 -0.000935726 0)
(1.01965 -0.00138033 0)
(1.01947 -0.00192288 0)
(1.01915 -0.00228444 0)
(1.01919 -0.00286528 0)
(1.01877 -0.00311651 0)
(1.01858 -0.00374994 0)
(1.01773 -0.00388348 0)
(1.01752 -0.00445241 0)
(1.01673 -0.00450813 0)
(1.01658 -0.00494072 0)
(1.01564 -0.00495334 0)
(1.01493 -0.00529858 0)
(1.01397 -0.00495349 0)
(1.01738 0.00227807 0)
(1.01759 0.00199374 0)
(1.01789 0.00163453 0)
(1.01792 0.00131668 0)
(1.0182 0.000915726 0)
(1.01824 0.000568665 0)
(1.01851 0.000129384 0)
(1.01835 -0.000217528 0)
(1.01831 -0.000666921 0)
(1.01786 -0.000968254 0)
(1.01781 -0.00140174 0)
(1.01749 -0.00164174 0)
(1.0176 -0.00210129 0)
(1.01717 -0.0022968 0)
(1.01711 -0.00277483 0)
(1.0164 -0.00287826 0)
(1.01629 -0.00330795 0)
(1.01561 -0.00331884 0)
(1.01556 -0.00371679 0)
(1.0147 -0.00361008 0)
(1.01434 -0.00399134 0)
(1.01332 -0.00355535 0)
(1.01599 0.00181241 0)
(1.01608 0.00159616 0)
(1.0163 0.00131111 0)
(1.01626 0.00107326 0)
(1.01652 0.000761342 0)
(1.01655 0.000516519 0)
(1.01684 0.000177669 0)
(1.01667 -7.14735e-05 0)
(1.0167 -0.000425345 0)
(1.01629 -0.000637947 0)
(1.01632 -0.000978339 0)
(1.01599 -0.00114608 0)
(1.01616 -0.00150028 0)
(1.01578 -0.00162794 0)
(1.01583 -0.00198794 0)
(1.01519 -0.00203875 0)
(1.0152 -0.00237786 0)
(1.01457 -0.00232908 0)
(1.01466 -0.00267022 0)
(1.01385 -0.00248713 0)
(1.01376 -0.00282729 0)
(1.01275 -0.00238269 0)
(1.01473 0.00135525 0)
(1.01474 0.00119553 0)
(1.01495 0.000981187 0)
(1.0149 0.000816645 0)
(1.01516 0.000587925 0)
(1.01513 0.000417418 0)
(1.01539 0.000159268 0)
(1.01521 -1.75988e-05 0)
(1.01531 -0.000284975 0)
(1.01494 -0.000428638 0)
(1.01505 -0.00068045 0)
(1.01473 -0.000782201 0)
(1.01495 -0.00104004 0)
(1.01458 -0.00111014 0)
(1.01471 -0.00138007 0)
(1.01413 -0.00138466 0)
(1.01426 -0.00164276 0)
(1.01366 -0.00155129 0)
(1.01387 -0.00181979 0)
(1.01311 -0.00160892 0)
(1.01323 -0.00188051 0)
(1.01228 -0.00145575 0)
(1.01372 0.00100335 0)
(1.01369 0.000897199 0)
(1.01389 0.000745571 0)
(1.0138 0.0006337 0)
(1.01402 0.000466627 0)
(1.01395 0.000348898 0)
(1.0142 0.000161968 0)
(1.01402 4.47384e-05 0)
(1.01418 -0.000148047 0)
(1.01385 -0.000238267 0)
(1.01401 -0.000418811 0)
(1.0137 -0.000475148 0)
(1.01395 -0.000661228 0)
(1.01358 -0.000691632 0)
(1.0138 -0.000887452 0)
(1.01326 -0.000863061 0)
(1.01349 -0.00104933 0)
(1.01291 -0.000944314 0)
(1.01322 -0.00113919 0)
(1.0125 -0.000938177 0)
(1.0128 -0.0011298 0)
(1.01192 -0.000758067 0)
(1.01295 0.000637974 0)
(1.01287 0.000572355 0)
(1.01304 0.000473374 0)
(1.01292 0.000406664 0)
(1.01313 0.000300211 0)
(1.01302 0.000232261 0)
(1.01327 0.000111039 0)
(1.01308 4.03653e-05 0)
(1.01328 -8.81811e-05 0)
(1.01298 -0.000139135 0)
(1.01319 -0.000257098 0)
(1.01288 -0.000280477 0)
(1.01316 -0.000401974 0)
(1.01278 -0.000406509 0)
(1.01307 -0.000536843 0)
(1.01256 -0.00050037 0)
(1.01288 -0.000622665 0)
(1.01231 -0.000524991 0)
(1.01271 -0.000651512 0)
(1.01202 -0.000482089 0)
(1.01247 -0.000603293 0)
(1.01165 -0.000309386 0)
(1.01243 0.000332539 0)
(1.01233 0.000297958 0)
(1.0125 0.000244003 0)
(1.01237 0.000211377 0)
(1.01258 0.00015429 0)
(1.01243 0.000120944 0)
(1.01266 5.37582e-05 0)
(1.01245 1.82435e-05 0)
(1.01267 -5.33214e-05 0)
(1.0124 -7.64747e-05 0)
(1.01265 -0.000141628 0)
(1.01233 -0.000148148 0)
(1.01263 -0.000216482 0)
(1.01224 -0.000212038 0)
(1.01257 -0.000285276 0)
(1.01209 -0.000253861 0)
(1.01247 -0.000321149 0)
(1.01191 -0.000251278 0)
(1.01237 -0.00032045 0)
(1.01171 -0.000205382 0)
(1.01226 -0.000270538 0)
(1.01149 -7.85652e-05 0)
(1.01215 0.000139812 0)
(1.01203 0.000127159 0)
(1.0122 0.000107546 0)
(1.01206 9.49255e-05 0)
(1.01226 7.32456e-05 0)
(1.01209 6.03675e-05 0)
(1.01232 3.6149e-05 0)
(1.0121 2.42666e-05 0)
(1.01235 2.29643e-07 0)
(1.01208 -6.64013e-06 0)
(1.01234 -2.84528e-05 0)
(1.01202 -3.0228e-05 0)
(1.01233 -5.27524e-05 0)
(1.01194 -4.98378e-05 0)
(1.01229 -7.27873e-05 0)
(1.01183 -6.00188e-05 0)
(1.01224 -8.15366e-05 0)
(1.01169 -5.65789e-05 0)
(1.01218 -8.02872e-05 0)
(1.01154 -4.13649e-05 0)
(1.01214 -6.39909e-05 0)
(1.0114 1.5182e-07 0)
(1.07886 -0.0054515 -1.59182e-20)
(1.06994 -0.0218865 -6.02733e-21)
(0.985343 -0.0433289 1.35282e-20)
(1.03744 -0.0445469 -5.01159e-21)
(0.9534 -0.0488364 2.28734e-20)
(1.02222 0.00353341 1.46212e-21)
(1.08758 -0.00290759 5.68001e-21)
(0.986634 -0.020381 -9.45799e-21)
(1.03301 -0.0182685 -9.60852e-21)
(1.00133 -0.0286546 -1.8439e-20)
(1.01179 0.0126821 2.03421e-21)
(1.08235 0.0165375 -1.38681e-21)
(1.02243 0.00427243 -7.61719e-21)
(1.03965 0.0143292 1.83589e-20)
(1.02251 -0.0019635 1.65934e-20)
(1.03453 0.0243646 3.33034e-21)
(1.06752 0.0278725 1.36068e-21)
(1.04493 0.017541 3.23344e-21)
(1.04176 0.0243528 -2.63233e-20)
(1.02908 0.0141622 -2.84622e-20)
(1.05868 0.0284884 8.90183e-21)
(1.04869 0.0219355 1.74538e-20)
(1.04682 0.0243213 2.10994e-21)
(1.03793 0.0216325 2.16122e-20)
(1.05449 0.0306715 -1.06153e-20)
(1.04946 0.027487 -2.07991e-20)
(1.05297 0.028812 1.25069e-20)
(1.04934 0.0273801 -1.79216e-20)
(1.05036 0.0329307 -1.35866e-20)
(1.05141 0.0356509 8.10107e-21)
(1.05791 0.0345787 -1.01242e-20)
(1.05623 0.0341535 1.22916e-20)
(1.0479 0.0334207 2.21865e-20)
(1.05015 0.0364455 -1.47485e-20)
(1.05546 0.0346261 2.12691e-21)
(1.05459 0.0348389 -8.14995e-21)
(1.04389 0.0295754 -5.28318e-21)
(1.04597 0.0315605 1.42651e-20)
(1.04997 0.0296533 -1.46282e-20)
(1.05467 0.0325385 2.43883e-20)
(1.04211 0.0266274 -2.49404e-20)
(1.04678 0.0293584 6.48299e-21)
(1.05047 0.0282032 5.2157e-21)
(1.05496 0.0293674 -2.2742e-20)
(1.04219 0.0255529 1.65087e-20)
(1.04679 0.0282812 -1.71932e-20)
(1.04704 0.0249123 2.51353e-20)