/*--------------------------------*- C++ -*----------------------------------*\
| =========                 |                                                 |
| \\      /  F ield         | OpenFOAM: The Open Source CFD Toolbox           |
|  \\    /   O peration     | Version:                                        |
|   \\  /    A nd           | Website:  www.openfoam.com                      |
|    \\/     M anipulation  |                                                 |
\*---------------------------------------------------------------------------*/
FoamFile
{
    version     2.0;
    format      ascii;
    class       surfaceScalarField;
    location    "172";
    object      phi;
}
// * * * * * * * * * * * * * * * * * * * * * * * * * * * * * * * * * * * * * //

dimensions      [0 3 -1 0 0 0 0];
oriented        oriented;


internalField   nonuniform List<scalar> 
2227
(
0.00343419
0.0481524
-0.0511959
0.00645899
0.0479436
-0.0509684
0.00946147
0.0474604
-0.0504629
0.0124216
0.0465985
-0.0495586
0.0152893
0.0454677
-0.0483355
-0.0466633
0.00336474
0.0452091
0.00629163
0.0450167
0.00920824
0.0445438
0.012082
0.00332985
0.00618681
-0.000435941
0.0538694
-0.00121756
0.0538146
-0.00190266
0.0537181
-0.00244948
0.0535798
-0.00281701
0.0534005
-0.00296772
0.0531837
-0.00286496
0.0529302
-0.00246886
0.0526369
-0.00173427
0.0522984
0.051951
-0.000652316
0.00152381
0.0537129
0.00172599
0.0536124
0.00198166
0.0534624
0.0022965
0.053265
0.00267081
0.0530262
0.00310597
0.0527486
0.00358968
0.0524465
0.00409769
0.0521289
0.00459894
0.0517972
0.0514259
0.00512408
-0.00163943
0.0546167
-0.0026097
0.0545827
-0.00361589
0.0544686
-0.00463122
0.0542803
-0.00562098
0.054016
-0.00655581
0.0536834
-0.00738819
0.0532789
-0.00807708
0.0528178
-0.00857163
0.0522917
0.051736
-0.00888168
-0.0015635
0.0545122
-0.00146776
0.054487
-0.00135718
0.054358
-0.0012023
0.0541254
-0.000977934
0.0537916
-0.000648888
0.0533543
-0.00019019
0.0528202
0.000448467
0.0521791
0.00130852
0.0514317
0.0506033
0.00244118
-0.000948459
0.0552063
-0.001591
0.0551295
-0.00215132
0.0549184
-0.00259931
0.0545734
-0.00289917
0.0540915
-0.00301892
0.0534741
-0.00291425
0.0527155
-0.00256276
0.0518276
-0.00192847
0.0507974
0.049666
-0.000991208
-0.000659081
0.0551185
-0.000575875
0.0550463
-0.000474728
0.0548172
-0.000327845
0.0544265
-0.000113247
0.0538769
0.000196054
0.0531648
0.0006102
0.0523014
0.00115906
0.0512788
0.00184151
0.0501149
0.0488974
0.00261018
-0.000835148
0.0556476
-0.00126355
0.0554747
-0.00156493
0.0551186
-0.00172029
0.0545819
-0.001705
0.0538616
-0.0015146
0.0529744
-0.00112862
0.0519154
-0.000557499
0.0507076
0.000233307
0.0493241
0.0478761
0.00125462
0.00116994
0.0555662
0.00127184
0.0553728
0.00139751
0.0549929
0.00155662
0.0544228
0.00174006
0.0536781
0.00196574
0.0527487
0.00220674
0.0516744
0.00246843
0.050446
0.00270353
0.049089
0.0476459
0.00293374
-0.000406521
0.0560144
-0.000854247
0.0558205
-0.00127094
0.0554096
-0.00164193
0.0547938
-0.00192858
0.0539648
-0.00214082
0.0529609
-0.00221522
0.0517488
-0.00217827
0.050409
-0.00196593
0.0488767
0.047277
-0.00159711
0.000237446
0.0559356
0.000373469
0.0556845
0.000560273
0.0552228
0.000807328
0.0545467
0.00108214
0.05369
0.00139815
0.0526449
0.00168327
0.0514637
0.00197057
0.0501217
0.00219034
0.0486569
0.0470956
0.00237174
0.000243531
0.0562856
-0.00015908
0.0560871
-0.000601042
0.0556648
-0.00108718
0.0550329
-0.00158338
0.0541862
-0.0020971
0.0531587
-0.00255649
0.0519231
-0.00293792
0.0505031
-0.00306595
0.0487849
0.0469664
-0.00293672
-0.000222403
0.0562153
-0.000171969
0.0560367
-0.000115257
0.0556081
-1.04811e-05
0.0549281
0.000169789
0.0540059
0.000494465
0.052834
0.000968791
0.0514488
0.00162259
0.0498493
0.00234261
0.0480649
0.046044
0.00326503
-0.000514992
0.0564158
-0.000696355
0.0562181
-0.000851936
0.0557636
-0.00100324
0.0550794
-0.00114093
0.0541436
-0.00133389
0.0530269
-0.00153426
0.0516491
-0.00180525
0.0501203
-0.00209756
0.0483572
0.0463881
-0.00244165
-0.000187969
0.0563594
-0.000166397
0.0561965
-0.000174454
0.0557717
-0.000187476
0.0550924
-0.000209332
0.0541654
-0.000148879
0.0529665
-4.95449e-05
0.0515498
0.000257097
0.0498137
0.000805947
0.0478084
0.0455832
0.00161087
-0.000494843
0.0564898
-0.000636071
0.0563377
-0.000768223
0.0559039
-0.000865117
0.0551893
-0.000881807
0.0541821
-0.000829752
0.0529144
-0.000607228
0.0513273
-0.000303091
0.0495095
6.71923e-05
0.0474381
0.0451284
0.000521988
-0.000246455
0.0563628
-0.000113932
0.0562052
4.55115e-05
0.0557444
0.000223131
0.0550117
0.000424137
0.0539811
0.000664734
0.0526738
0.000878024
0.051114
0.00119241
0.0491952
0.00160693
0.0470236
0.0445404
0.00219492
-0.000337531
0.0563835
-0.000350515
0.0562182
-0.000359362
0.0557533
-0.000339873
0.0549922
-0.000284887
0.0539261
-0.000148626
0.0525376
0.00015586
0.0508095
0.000542353
0.0488087
0.00119711
0.0463688
0.0437092
0.00202832
2.12198e-05
0.0562056
0.000201129
0.0560383
0.000402713
0.0555517
0.000637509
0.0547574
0.000936375
0.0536273
0.00130965
0.0521643
0.00175715
0.050362
0.00234204
0.0482238
0.00286335
0.0458475
0.0430636
0.00350889
-1.5779e-06
0.0561136
0.000100523
0.0559362
0.00021326
0.0554389
0.000362068
0.0546086
0.000550534
0.0534388
0.000797043
0.0519178
0.00108595
0.0500731
0.00145828
0.0478514
0.00198265
0.0453231
0.0425531
0.00249316
0.000265648
0.0558584
0.000535272
0.0556665
0.000826161
0.055148
0.00113845
0.0542963
0.00149292
0.0530843
0.00191269
0.051498
0.00238327
0.0496025
0.00288599
0.0473487
0.00335536
0.0448538
0.0420418
0.00386664
0.000273592
0.0556687
0.000468723
0.0554714
0.000674169
0.0549426
0.000900639
0.0540698
0.00114515
0.0528398
0.00141334
0.0512298
0.00171476
0.0493011
0.00206826
0.0469952
0.00245228
0.0444698
0.0415737
0.00292045
0.000517731
0.0553319
0.000863753
0.0551254
0.00121291
0.0545934
0.00158378
0.053699
0.00198158
0.052442
0.00242457
0.0507869
0.0028822
0.0488435
0.00338805
0.0464894
0.00388377
0.043974
0.0411051
0.0043523
0.000541119
0.0550389
0.000830767
0.0548357
0.00112289
0.0543013
0.00141755
0.0534043
0.00171787
0.0521417
0.00204002
0.0504647
0.00236475
0.0485187
0.00268924
0.0461649
0.00303575
0.0436275
0.0407017
0.00343922
0.000738239
0.0546126
0.00116586
0.0544081
0.0015906
0.0538766
0.00203026
0.0529647
0.00247492
0.051697
0.00294258
0.049997
0.00342427
0.048037
0.00394518
0.045644
0.00444971
0.043123
0.0401373
0.00501404
0.000763883
0.0542063
0.00115895
0.0540131
0.00154193
0.0534936
0.00192541
0.0525812
0.00230672
0.0513157
0.00268687
0.0496169
0.00305514
0.0476688
0.00342043
0.0452787
0.00380884
0.0427346
0.0398209
0.00412523
0.000922801
0.0536792
0.00144996
0.0534859
0.00196671
0.0529768
0.00248795
0.0520599
0.00300827
0.0507954
0.0035416
0.0490836
0.00406448
0.0471459
0.00460684
0.0447363
0.00510828
0.0422332
0.0392874
0.0056418
0.000944663
0.0531633
0.00145304
0.0529775
0.00194819
0.0524817
0.00244022
0.0515679
0.00291684
0.0503188
0.00338893
0.0486115
0.00383169
0.0467031
0.00426481
0.0443032
0.00469897
0.041799
0.0390318
0.00495457
0.00107632
0.0525368
0.00170889
0.0523449
0.00233646
0.0518541
0.00296604
0.0509383
0.0035877
0.0496971
0.00420551
0.0479937
0.00481114
0.0460975
0.00540513
0.0437092
0.00601186
0.0411923
0.00646929
0.00108806
0.0519177
0.0017161
0.0517169
0.00234185
0.0512284
0.00295927
0.0503209
0.00355979
0.0490966
0.00414499
0.0474085
0.00469118
0.0455513
0.00520772
0.0011997
0.00194819
0.00271372
0.00347606
0.0042372
0.0049824
-0.000299886
0.0474762
4.3968e-05
0.0508042
0.000211131
0.0545307
0.000141765
0.0585634
-0.000100207
0.0627956
-0.000416935
0.0672118
-0.000708578
0.0718294
-0.000909531
0.0767036
-0.000997689
0.0819003
-0.000958928
0.0874514
-0.000760239
0.0933636
-0.000425955
0.0997214
-5.76068e-06
0.10658
0.000381799
0.114038
0.000628477
0.122121
0.00072323
0.130765
0.000690731
0.139975
0.000593782
0.149751
0.000482079
0.160153
0.000388962
0.171241
0.000320377
0.183095
0.000271073
0.195778
0.00023437
0.20935
0.00020358
0.223871
0.000175846
0.239403
0.00014694
0.256017
0.000117169
0.273784
9.28689e-05
0.292778
4.8693e-05
0.313116
0.334849
0.0048001
0.0478001
0.0043679
0.0512364
0.00401246
0.0548861
0.00382979
0.0587461
0.00373053
0.0628949
0.00358984
0.0673525
0.00340885
0.0720104
0.00330444
0.0768081
0.00338932
0.0818155
0.00361408
0.0872267
0.00381276
0.0931649
0.00380529
0.0997289
0.00353311
0.106852
0.00307732
0.114494
0.00251479
0.122683
0.0019493
0.131331
0.00147387
0.14045
0.00113656
0.150089
0.000910947
0.160378
0.000769861
0.171382
0.000674578
0.18319
0.00060273
0.19585
0.000537415
0.209415
0.000473715
0.223934
0.000407126
0.239469
0.000345352
0.256079
0.000284407
0.273845
0.00022196
0.292841
0.000106898
0.313231
0.334956
-0.0095767
0.0484951
-0.00985503
0.0515147
-0.00949587
0.054527
-0.00853145
0.0577816
-0.00708624
0.0614497
-0.00531882
0.0655851
-0.00356606
0.0702576
-0.00220966
0.0754517
-0.0015229
0.0811287
-0.00143746
0.0871412
-0.00184635
0.0935738
-0.00249006
0.100373
-0.003153
0.107515
-0.00357385
0.114915
-0.00352954
0.122639
-0.00308964
0.130891
-0.00240729
0.139768
-0.00169901
0.14938
-0.00107789
0.159757
-0.00061377
0.170918
-0.000295098
0.182872
-8.88303e-05
0.195644
4.1962e-05
0.209284
0.000118779
0.223858
0.000157475
0.239431
0.000168918
0.256068
0.000167707
0.273847
0.000162397
0.292846
8.66097e-05
0.313307
0.335042
0.00283782
0.0480985
0.00305145
0.0513011
0.0029323
0.0546461
0.00242578
0.0582881
0.00165241
0.0622231
0.00080206
0.0664354
3.54415e-05
0.0710243
-0.000603031
0.0760901
-0.00112183
0.0816475
-0.00155255
0.0875719
-0.0017824
0.0938036
-0.00171932
0.10031
-0.0013861
0.107182
-0.000935243
0.114464
-0.000472163
0.122176
-6.75613e-05
0.130486
0.000215326
0.139485
0.000362003
0.149234
0.000419807
0.159699
0.000433302
0.170905
0.000428904
0.182876
0.000409901
0.195663
0.000386035
0.209308
0.000354927
0.223889
0.000323832
0.239462
0.000288834
0.256103
0.000254702
0.273881
0.000217312
0.292884
0.000109408
0.313415
0.335152
-0.000615067
0.0477224
-0.000219198
0.0509052
0.000110145
0.0543168
0.000343082
0.0580552
0.000414297
0.0621518
0.000313145
0.0665366
0.000128948
0.0712085
-3.58478e-05
0.0762549
-0.000102908
0.0817146
-3.70313e-05
0.0875061
0.000191777
0.0935748
0.000534268
0.0999671
0.00093949
0.106776
0.00128785
0.114116
0.00144159
0.122022
0.00140924
0.130519
0.0012424
0.139652
0.00103043
0.149446
0.000829305
0.1599
0.000679763
0.171054
0.000578599
0.182977
0.000512021
0.195729
0.000461494
0.209359
0.000419674
0.223931
0.000379779
0.239502
0.000333965
0.256148
0.000285684
0.273929
0.000237895
0.292931
0.000126217
0.313527
0.335278
0.00259991
0.0477326
0.00248043
0.0510247
0.00229384
0.0545034
0.00199068
0.0583584
0.00160161
0.0625409
0.001223
0.0669152
0.000930932
0.0715005
0.000783043
0.0764028
0.000759808
0.0817378
0.000759901
0.087506
0.00072254
0.0936122
0.000684369
0.100005
0.000671432
0.106789
0.000714074
0.114073
0.000801612
0.121935
0.000879411
0.130441
0.000927013
0.139604
0.000938974
0.149434
0.000923171
0.159916
0.000888251
0.171089
0.000841688
0.183024
0.000787567
0.195784
0.000724262
0.209422
0.000654715
0.224
0.000578089
0.239578
0.000498924
0.256228
0.000410199
0.274018
0.000310863
0.293031
0.000161291
0.313676
0.335439
0.00181241
0.0471748
0.00239358
0.0504435
0.00277102
0.0541259
0.00288447
0.0582449
0.00276719
0.0626582
0.00243897
0.0672434
0.00197938
0.0719601
0.00151039
0.0768718
0.00123174
0.0820164
0.00124764
0.0874901
0.00154316
0.0933167
0.00196079
0.0995876
0.00238697
0.106363
0.00268296
0.113777
0.00272397
0.121894
0.00254478
0.13062
0.00222694
0.139922
0.00189703
0.149764
0.00161092
0.160202
0.00138312
0.171317
0.00120458
0.183202
0.00106326
0.195925
0.000941049
0.209544
0.000827471
0.224114
0.000716051
0.23969
0.00060164
0.256342
0.000478442
0.274141
0.00035263
0.293156
0.000184925
0.313844
0.335624
0.00266233
0.0474463
0.00223258
0.0508733
0.00184761
0.0545109
0.00165813
0.0584344
0.00164213
0.0626742
0.00174061
0.0671449
0.00192686
0.0717739
0.00222226
0.0765764
0.00257512
0.0816636
0.002934
0.0871312
0.00319753
0.0930531
0.00328024
0.0995049
0.00315817
0.106485
0.00290502
0.11403
0.00259211
0.122207
0.00227305
0.130939
0.00200324
0.140192
0.00180322
0.149964
0.00164852
0.160357
0.00151357
0.171452
0.00138274
0.183333
0.00125556
0.196052
0.00112705
0.209673
0.000998303
0.224242
0.000862537
0.239826
0.000721948
0.256483
0.000571672
0.274291
0.000409111
0.293319
0.000210139
0.314043
0.335834
-0.00163333
0.0474825
-0.00146649
0.0507064
-0.00110805
0.0541524
-0.000607586
0.0579339
-1.54172e-05
0.062082
0.000579576
0.0665499
0.00102771
0.0713257
0.00126523
0.0763389
0.00135105
0.0815778
0.00134549
0.0871368
0.00128214
0.0931165
0.00118472
0.0996023
0.00108412
0.106586
0.00101677
0.114098
0.00102348
0.1222
0.00108303
0.13088
0.00116423
0.140111
0.00124079
0.149887
0.00128409
0.160314
0.00128149
0.171455
0.00123843
0.183376
0.00116282
0.196128
0.00106441
0.209771
0.000950106
0.224357
0.000824231
0.239951
0.000688343
0.256619
0.000544218
0.274435
0.00039128
0.293472
0.00020394
0.31423
0.336038
0.00220977
0.0476444
0.0019967
0.0509195
0.00180771
0.0543414
0.00155913
0.0581825
0.00124845
0.0623927
0.00101842
0.06678
0.00107209
0.0712721
0.00141525
0.0759957
0.00192451
0.0810685
0.00243844
0.0866228
0.0028027
0.0927522
0.002913
0.099492
0.00277324
0.106726
0.00247561
0.114395
0.00213866
0.122537
0.00186685
0.131151
0.00169827
0.140279
0.00160799
0.149977
0.00154135
0.16038
0.00147301
0.171523
0.00138994
0.183459
0.00128918
0.196228
0.00117093
0.209889
0.00103668
0.224491
0.000889181
0.240099
0.00073384
0.256774
0.000574007
0.274595
0.000405484
0.29364
0.000207128
0.314429
0.336245
-0.00300158
0.0477093
-0.00262289
0.0505408
-0.00203386
0.0537524
-0.00135779
0.0575064
-0.00063692
0.0616718
-3.61997e-05
0.0661792
0.000262202
0.0709737
0.000296998
0.0759609
0.000223678
0.0811418
0.000191648
0.0866549
0.000225247
0.0927186
0.000328803
0.0993885
0.000398433
0.106656
0.000429019
0.114365
0.000486334
0.122479
0.000593383
0.131044
0.000752089
0.14012
0.000913032
0.149817
0.00104483
0.160249
0.00111396
0.171454
0.00111951
0.183454
0.00107476
0.196273
0.000999184
0.209965
0.000900651
0.22459
0.000786014
0.240214
0.000656578
0.256903
0.000516386
0.274735
0.000369846
0.293787
0.00019077
0.314608
0.336436
0.00364042
0.0473339
0.00339405
0.0507872
0.00288866
0.0542578
0.00260187
0.0577932
0.00268734
0.0615864
0.00305641
0.0658102
0.00346417
0.0705659
0.0035535
0.0758716
0.00320251
0.0814928
0.00254715
0.0873102
0.00188627
0.0933795
0.00142373
0.099851
0.00123845
0.106841
0.0012551
0.114348
0.00135731
0.122377
0.00146112
0.130941
0.00151382
0.140068
0.00150819
0.149822
0.00146475
0.160292
0.00139526
0.171523
0.00130728
0.183542
0.00119894
0.196381
0.00107331
0.210091
0.00093651
0.224726
0.000795842
0.240354
0.000653128
0.257046
0.000509747
0.274879
0.000362803
0.293934
0.000183733
0.314787
0.33662
-0.00307696
0.0479692
-0.00330999
0.0510202
-0.00311332
0.0540611
-0.00264265
0.0573226
-0.00202607
0.0609698
-0.00127485
0.0650589
-0.000391232
0.0696823
0.000599242
0.0748811
0.0014431
0.080649
0.00189873
0.0868546
0.00191128
0.0933669
0.00159567
0.100167
0.00117835
0.107259
0.00083609
0.11469
0.000696643
0.122517
0.000736491
0.130901
0.000878172
0.139926
0.00101924
0.149681
0.0011094
0.160202
0.00113115
0.171502
0.00110263
0.18357
0.00103714
0.196447
0.000948329
0.210179
0.000841239
0.224833
0.000721236
0.240474
0.00059238
0.257175
0.000460762
0.27501
0.000331111
0.294064
0.000167952
0.31495
0.336788
0.00203744
0.0475426
0.00234912
0.0507085
0.00242926
0.053981
0.00214882
0.057603
0.00159743
0.0615212
0.000978996
0.0656774
0.000470955
0.0701903
0.000195318
0.0751568
0.000192889
0.0806514
0.000410044
0.0866374
0.000735162
0.0930418
0.00108131
0.0998205
0.00135228
0.106988
0.00151112
0.114532
0.00157315
0.122455
0.00157791
0.130896
0.00153747
0.139966
0.00147367
0.149745
0.00140198
0.160274
0.00132065
0.171583
0.00122246
0.183668
0.00110726
0.196562
0.000982294
0.210304
0.000852111
0.224964
0.000720021
0.240606
0.000586635
0.257308
0.000454192
0.275143
0.000323885
0.294194
0.00016151
0.315112
0.336949
0.000477609
0.047587
0.000584918
0.0506012
0.000957524
0.0536084
0.00147685
0.0570837
0.00186385
0.0611342
0.00201034
0.0655309
0.0019935
0.0702072
0.00187646
0.0752738
0.00171081
0.080817
0.00153613
0.0868121
0.00139276
0.0931852
0.00134616
0.0998671
0.00140038
0.106933
0.00151225
0.11442
0.00161132
0.122356
0.00165004
0.130857
0.00161727
0.139999
0.00152582
0.149836
0.00140511
0.160394
0.00128319
0.171705
0.0011662
0.183785
0.00105053
0.196678
0.000930827
0.210424
0.00080708
0.225087
0.000680241
0.240733
0.000551624
0.257437
0.000424257
0.27527
0.00030323
0.294315
0.000151753
0.315264
0.337101
0.00262192
0.04716
0.00290111
0.050322
0.00287776
0.0536317
0.0026115
0.0573499
0.00228573
0.0614599
0.00200533
0.0658113
0.00178482
0.0704277
0.00167229
0.0753863
0.00166082
0.0808285
0.00169429
0.0867786
0.00172155
0.0931579
0.00171771
0.0998709
0.00172083
0.10693
0.00174945
0.114391
0.00178964
0.122315
0.00180686
0.13084
0.00177638
0.14003
0.00168758
0.149925
0.00155605
0.160526
0.00140186
0.171859
0.00124502
0.183942
0.00109432
0.196829
0.000951321
0.210567
0.000813702
0.225225
0.000679675
0.240867
0.000548144
0.257568
0.000419468
0.275399
0.000297032
0.294437
0.000146891
0.315414
0.337248
0.00230922
0.0468791
0.00279727
0.049834
0.00337533
0.0530537
0.00383685
0.0568884
0.00400245
0.0612944
0.00381259
0.0660011
0.00339278
0.0708475
0.00287699
0.0759021
0.00241612
0.0812894
0.00213563
0.0870591
0.00205627
0.0932373
0.00211945
0.0998077
0.00222668
0.106823
0.00230028
0.114317
0.00227323
0.122342
0.00216024
0.130953
0.00198568
0.140204
0.00179375
0.150117
0.00159808
0.160722
0.0014131
0.172044
0.00124244
0.184113
0.00108412
0.196987
0.000935049
0.210716
0.000793734
0.225366
0.000658181
0.241003
0.000525658
0.257701
0.000397566
0.275527
0.000277667
0.294557
0.000138978
0.315553
0.337387
0.00384084
0.0465472
0.00366787
0.0500069
0.00323731
0.0534842
0.00294767
0.057178
0.00295727
0.0612848
0.00316324
0.0657952
0.00336677
0.070644
0.00342992
0.075839
0.00330549
0.0814138
0.00304443
0.0873202
0.00274741
0.0935343
0.00251411
0.100041
0.00238495
0.106952
0.00231538
0.114387
0.00223755
0.12242
0.00211473
0.131076
0.00195327
0.140366
0.00177161
0.150299
0.00158605
0.160907
0.00140801
0.172222
0.00123874
0.184282
0.00108036
0.197145
0.000932007
0.210865
0.000791156
0.225507
0.000655798
0.241138
0.000523283
0.257833
0.000393656
0.275657
0.000270232
0.294681
0.000134493
0.315688
0.337521
0.00276045
0.0462799
0.00334404
0.0494234
0.00383783
0.0529905
0.00400686
0.057009
0.00394744
0.0613442
0.00375567
0.0659869
0.00350143
0.0708982
0.00324776
0.0760926
0.00305944
0.0816021
0.00292295
0.0874567
0.00283746
0.0936198
0.00277675
0.100102
0.00274464
0.106984
0.00270992
0.114422
0.00261933
0.122511
0.00244239
0.131253
0.00218944
0.140619
0.0019123
0.150576
0.00165128
0.161168
0.00142656
0.172447
0.00123286
0.184476
0.00106396
0.197314
0.000909467
0.211019
0.000766845
0.22565
0.000632511
0.241272
0.000503434
0.257963
0.000373825
0.275786
0.000253106
0.294801
0.000127733
0.315814
0.337649
0.00382003
0.0463265
0.00346853
0.0497749
0.00318743
0.0532716
0.00307897
0.0571175
0.00313554
0.0612876
0.00331761
0.0658049
0.00351189
0.0707039
0.00359369
0.0760108
0.00353325
0.0816626
0.00338152
0.0876084
0.00318097
0.0938204
0.00296664
0.100316
0.00275287
0.107198
0.00256106
0.114614
0.00238852
0.122683
0.0022114
0.13143
0.00202302
0.140807
0.00181261
0.150786
0.00159624
0.161384
0.00139143
0.172652
0.00120668
0.184661
0.00104253
0.197478
0.000893421
0.211168
0.000755152
0.225788
0.000623253
0.241404
0.00049637
0.258089
0.000370288
0.275912
0.000243444
0.294928
0.000124583
0.315933
0.337774
0.00318279
0.0460642
0.00362834
0.0493293
0.00394663
0.0529533
0.00406346
0.0570006
0.00391372
0.0614373
0.0036242
0.0660944
0.00336827
0.0709599
0.00322933
0.0761498
0.00317353
0.0817184
0.00313587
0.0876461
0.00309218
0.093864
0.00301132
0.100397
0.00289856
0.107311
0.00275261
0.114759
0.00256107
0.122875
0.00233062
0.13166
0.00207741
0.14106
0.00182573
0.151038
0.00158928
0.161621
0.00137394
0.172867
0.00118177
0.184853
0.00101179
0.197648
0.000859411
0.211321
0.000721048
0.225926
0.000592382
0.241533
0.000469491
0.258212
0.000348256
0.276034
0.000223914
0.295053
0.000116462
0.31604
0.33789
0.00428283
0.0461336
0.00392432
0.0496878
0.00361028
0.0532673
0.00347514
0.0571358
0.0034351
0.0614774
0.00337878
0.0661507
0.00328084
0.0710578
0.00319595
0.0762347
0.00315995
0.0817544
0.00314899
0.087657
0.00311667
0.0938964
0.00302118
0.100492
0.00284206
0.10749
0.00261361
0.114988
0.00236784
0.123121
0.0021253
0.131903
0.00189695
0.141289
0.00168473
0.15125
0.00148695
0.161819
0.00130293
0.173051
0.0011339
0.185022
0.000978628
0.197804
0.000836099
0.211463
0.000703287
0.226059
0.00057766
0.241659
0.000457495
0.258332
0.00033809
0.276153
0.000211369
0.295179
0.000110308
0.316141
0.338
0.0036543
0.0459186
0.00410341
0.0492387
0.004428
0.0529427
0.0044672
0.0570966
0.00428173
0.0616628
0.00397564
0.0664568
0.00362871
0.0714047
0.00332973
0.0765336
0.00310433
0.0819798
0.00296387
0.0877975
0.00288529
0.0939749
0.00280723
0.10057
0.00270255
0.107595
0.00254408
0.115146
0.00233274
0.123332
0.00209341
0.132142
0.00184759
0.141534
0.00161837
0.151479
0.00141519
0.162022
0.00123533
0.173231
0.00107199
0.185185
0.000922976
0.197953
0.000786043
0.2116
0.000659027
0.226186
0.000540407
0.241777
0.000426894
0.258446
0.000313084
0.276267
0.000190639
0.295302
0.000100971
0.316231
0.338101
0.00492209
0.0460105
0.00446762
0.0496932
0.00409511
0.0533152
0.00392685
0.0572648
0.00381895
0.0617707
0.00364171
0.066634
0.0034103
0.0716361
0.00321005
0.0767339
0.00308571
0.0821041
0.00302341
0.0878598
0.00295846
0.0940399
0.00284799
0.100681
0.00266745
0.107775
0.00243735
0.115376
0.00218995
0.123579
0.00194631
0.132386
0.00171933
0.141761
0.00151381
0.151685
0.00132951
0.162206
0.00116524
0.173395
0.00101772
0.185333
0.000882212
0.198088
0.000755254
0.211727
0.000635203
0.226306
0.000520699
0.241892
0.000411249
0.258555
0.000300257
0.276378
0.000177245
0.295425
9.41152e-05
0.316314
0.338196
0.00415575
0.04598
0.0044658
0.0493831
0.00462079
0.0531602
0.00452111
0.0573645
0.00430639
0.0619855
0.0040331
0.0669073
0.00368234
0.0719869
0.00328666
0.0771296
0.00294923
0.0824415
0.00273148
0.0880775
0.00260173
0.0941696
0.00250097
0.100782
0.00237618
0.1079
0.00220472
0.115548
0.00200034
0.123784
0.00179017
0.132596
0.00158782
0.141964
0.00140309
0.15187
0.00123576
0.162374
0.00108398
0.173547
0.000944168
0.185472
0.000815891
0.198216
0.000696939
0.211846
0.000585516
0.226418
0.000479926
0.241997
0.000378936
0.258656
0.000274704
0.276482
0.000157418
0.295542
8.47397e-05
0.316387
0.33828
0.00558358
0.0460382
0.00506859
0.0498981
0.00459244
0.0536364
0.00428406
0.0576729
0.00403925
0.0622303
0.0038024
0.0671442
0.0035686
0.0722207
0.0033171
0.0773811
0.00307722
0.0826814
0.00287989
0.0882749
0.0027179
0.0943316
0.00256285
0.100937
0.00237328
0.108089
0.00214935
0.115772
0.00191282
0.12402
0.00168904
0.13282
0.00149212
0.142161
0.00132045
0.152041
0.00116657
0.162527
0.00102697
0.173686
0.000898611
0.185601
0.00077913
0.198336
0.000666552
0.211958
0.000560087
0.226524
0.000457977
0.242099
0.000360941
0.258753
0.000260667
0.276582
0.000144808
0.295658
7.79677e-05
0.316453
0.338358
0.00483346
0.0461593
0.00491397
0.0498176
0.00483292
0.0537174
0.00457827
0.0579276
0.00425422
0.0625543
0.0039125
0.0674859
0.00355407
0.0725791
0.00317978
0.0777554
0.0028369
0.0830243
0.00255463
0.0885572
0.002347
0.0945392
0.00218974
0.101094
0.00203269
0.108246
0.00185494
0.11595
0.00166218
0.124213
0.00147695
0.133005
0.00131495
0.142323
0.00117659
0.15218
0.00105168
0.162652
0.000933797
0.173804
0.000819986
0.185715
0.000711364
0.198444
0.000609015
0.212061
0.000511148
0.226622
0.000417979
0.242193
0.000328288
0.258843
0.000236223
0.276674
0.000127414
0.295767
6.93112e-05
0.316511
0.338428
0.00616567
0.0053047
0.00475765
0.00438799
0.00408368
0.00381349
0.00355757
0.00329127
0.00300403
0.00272572
0.00248447
0.00226782
0.00205746
0.00184258
0.00162776
0.00142781
0.00125652
0.00111433
0.000992373
0.000881801
0.000777707
0.000678154
0.000581204
0.000486464
0.000396223
0.000310474
0.000222479
0.000117044
6.33127e-05
)
;

boundaryField
{
    outlet
    {
        type            calculated;
        value           nonuniform 0();
    }
    upperWall
    {
        type            symmetryPlane;
        value           nonuniform 0();
    }
    lowerWall
    {
        type            symmetryPlane;
        value           uniform 0;
    }
    inlet
    {
        type            calculated;
        value           nonuniform List<scalar> 
40
(
-0.053033
-0.053033
-0.053033
-0.053033
-0.053033
-0.053033
-0.053033
-0.053033
-0.053033
-0.053033
-0.0478286
-0.051148
-0.0546978
-0.058494
-0.0625537
-0.0668951
-0.0715378
-0.0765027
-0.0818122
-0.0874902
-0.0935622
-0.100056
-0.107
-0.114426
-0.122367
-0.13086
-0.139942
-0.149655
-0.160041
-0.171148
-0.183026
-0.195729
-0.209313
-0.22384
-0.239375
-0.255988
-0.273755
-0.292754
-0.313072
-0.3348
)
;
    }
    cylinder
    {
        type            calculated;
        value           nonuniform 0();
    }
    frontAndBack
    {
        type            empty;
        value           nonuniform 0();
    }
    procBoundary0to1
    {
        type            processor;
        value           nonuniform List<scalar> 
45
(
0.0180611
0.0438915
0.0447924
0.0437247
0.0148894
0.0426603
0.0423399
0.0421597
0.00902767
0.0417029
0.0385744
0.0431927
0.00576703
0.0406329
0.00574131
0.046463
0.0506786
0.0542645
0.0582972
0.0628586
0.0677561
0.072835
0.0780217
0.0833115
0.0888355
0.0947805
0.101311
0.108457
0.116165
0.124428
0.133205
0.142494
0.152322
0.162774
0.173915
0.185819
0.198544
0.212158
0.226717
0.242283
0.258929
0.276762
0.295872
0.316565
0.338491
)
;
    }
    procBoundary0to4
    {
        type            processor;
        value           nonuniform List<scalar> 
33
(
-0.000390686
-0.000421447
-0.000460677
-0.00040041
-0.00136735
0.000735618
0.00166801
0.000254373
0.000746825
0.000306116
-0.00108859
-4.16177e-05
-0.000158666
-0.000593597
0.000292747
0.000314466
0.000244355
0.000364439
0.000373459
0.000316901
0.000156652
9.36111e-05
-1.04912e-05
-8.38395e-05
-0.000180963
-0.000248106
-0.000311956
-0.000357622
-0.000395627
-0.000428794
-0.000449826
-0.000468996
-0.00047787
)
;
    }
}


// ************************************************************************* //
