/*--------------------------------*- C++ -*----------------------------------*\
| =========                 |                                                 |
| \\      /  F ield         | OpenFOAM: The Open Source CFD Toolbox           |
|  \\    /   O peration     | Version:                                        |
|   \\  /    A nd           | Website:  www.openfoam.com                      |
|    \\/     M anipulation  |                                                 |
\*---------------------------------------------------------------------------*/
FoamFile
{
    version     2.0;
    format      ascii;
    class       volVectorField;
    location    "0.8";
    object      U;
}
// * * * * * * * * * * * * * * * * * * * * * * * * * * * * * * * * * * * * * //

dimensions      [0 1 -1 0 0 0 0];


internalField   nonuniform List<vector> 
400
(
(1.38496 -0.00111144 0)
(1.38927 -0.00106819 0)
(1.39341 -0.00102665 0)
(1.3974 -0.000986754 0)
(1.40122 -0.000948429 0)
(1.4049 -0.000911618 0)
(1.40844 -0.000876262 0)
(1.41183 -0.0008423 0)
(1.4151 -0.000809677 0)
(1.41824 -0.000778356 0)
(1.42126 -0.000748292 0)
(1.42416 -0.000719416 0)
(1.42695 -0.000691672 0)
(1.42963 -0.000665028 0)
(1.43221 -0.000639452 0)
(1.43469 -0.000614896 0)
(1.43707 -0.000591303 0)
(1.43936 -0.000568622 0)
(1.44157 -0.000546822 0)
(1.44369 -0.000525956 0)
(1.38252 -0.00328894 0)
(1.38665 -0.0031604 0)
(1.39062 -0.003037 0)
(1.39444 -0.00291851 0)
(1.3981 -0.00280476 0)
(1.40162 -0.00269555 0)
(1.405 -0.00259071 0)
(1.40825 -0.00249006 0)
(1.41137 -0.00239344 0)
(1.41438 -0.00230068 0)
(1.41726 -0.00221163 0)
(1.42003 -0.00212613 0)
(1.4227 -0.00204405 0)
(1.42526 -0.00196524 0)
(1.42772 -0.00188957 0)
(1.43009 -0.00181691 0)
(1.43236 -0.00174714 0)
(1.43455 -0.00168014 0)
(1.43666 -0.0016158 0)
(1.43868 -0.00155399 0)
(1.37734 -0.00533201 0)
(1.38112 -0.00512172 0)
(1.38476 -0.00492007 0)
(1.38824 -0.00472667 0)
(1.39159 -0.00454119 0)
(1.3948 -0.00436329 0)
(1.39789 -0.00419265 0)
(1.40085 -0.00402896 0)
(1.40369 -0.00387194 0)
(1.40642 -0.00372128 0)
(1.40905 -0.00357672 0)
(1.41157 -0.00343801 0)
(1.41399 -0.00330491 0)
(1.41632 -0.00317718 0)
(1.41855 -0.00305457 0)
(1.4207 -0.00293689 0)
(1.42277 -0.00282392 0)
(1.42476 -0.00271547 0)
(1.42667 -0.00261135 0)
(1.4285 -0.00251135 0)
(1.36885 -0.00715701 0)
(1.37213 -0.00687111 0)
(1.37528 -0.00659742 0)
(1.37829 -0.00633535 0)
(1.38118 -0.00608437 0)
(1.38395 -0.00584396 0)
(1.3866 -0.00561364 0)
(1.38915 -0.00539294 0)
(1.3916 -0.00518143 0)
(1.39394 -0.00497868 0)
(1.3962 -0.00478431 0)
(1.39836 -0.00459795 0)
(1.40043 -0.00441923 0)
(1.40243 -0.00424782 0)
(1.40434 -0.00408339 0)
(1.40618 -0.00392563 0)
(1.40795 -0.00377426 0)
(1.40965 -0.00362901 0)
(1.41129 -0.00348961 0)
(1.41286 -0.00335578 0)
(1.35623 -0.00868962 0)
(1.35888 -0.00833706 0)
(1.36141 -0.00800025 0)
(1.36383 -0.00767837 0)
(1.36615 -0.00737064 0)
(1.36836 -0.00707635 0)
(1.37049 -0.00679481 0)
(1.37252 -0.0065254 0)
(1.37446 -0.00626752 0)
(1.37633 -0.0060206 0)
(1.37812 -0.00578412 0)
(1.37984 -0.00555758 0)
(1.38148 -0.00534052 0)
(1.38307 -0.00513248 0)
(1.38458 -0.00493306 0)
(1.38604 -0.00474185 0)
(1.38744 -0.00455849 0)
(1.38879 -0.00438261 0)
(1.39008 -0.00421389 0)
(1.39132 -0.004052 0)
(1.33849 -0.00986892 0)
(1.3404 -0.00946154 0)
(1.34222 -0.00907327 0)
(1.34396 -0.008703 0)
(1.34561 -0.0083497 0)
(1.34719 -0.00801243 0)
(1.3487 -0.00769031 0)
(1.35014 -0.00738252 0)
(1.35152 -0.00708829 0)
(1.35284 -0.00680693 0)
(1.35411 -0.00653777 0)
(1.35532 -0.00628018 0)
(1.35648 -0.0060336 0)
(1.35759 -0.00579746 0)
(1.35865 -0.00557128 0)
(1.35968 -0.00535456 0)
(1.36066 -0.00514685 0)
(1.3616 -0.00494774 0)
(1.36251 -0.00475683 0)
(1.36338 -0.00457372 0)
(1.31449 -0.0106515 0)
(1.3156 -0.0102039 0)
(1.31665 -0.00977829 0)
(1.31765 -0.00937335 0)
(1.31859 -0.00898776 0)
(1.31949 -0.00862035 0)
(1.32034 -0.00827004 0)
(1.32115 -0.00793584 0)
(1.32193 -0.00761682 0)
(1.32266 -0.00731214 0)
(1.32337 -0.00702101 0)
(1.32404 -0.0067427 0)
(1.32468 -0.00647653 0)
(1.32529 -0.00622187 0)
(1.32588 -0.00597812 0)
(1.32645 -0.00574475 0)
(1.32699 -0.00552122 0)
(1.3275 -0.00530707 0)
(1.328 -0.00510183 0)
(1.32848 -0.00490509 0)
(1.28305 -0.0110148 0)
(1.28335 -0.0105438 0)
(1.28361 -0.0100971 0)
(1.28386 -0.00967293 0)
(1.28408 -0.00926986 0)
(1.28429 -0.0088865 0)
(1.28447 -0.0085216 0)
(1.28465 -0.00817401 0)
(1.28481 -0.00784268 0)
(1.28496 -0.00752664 0)
(1.2851 -0.00722501 0)
(1.28523 -0.00693696 0)
(1.28535 -0.00666173 0)
(1.28547 -0.00639863 0)
(1.28558 -0.00614701 0)
(1.28568 -0.00590626 0)
(1.28578 -0.00567581 0)
(1.28588 -0.00545514 0)
(1.28597 -0.00524378 0)
(1.28605 -0.00504125 0)
(1.24304 -0.01096 0)
(1.24254 -0.0104837 0)
(1.24205 -0.010033 0)
(1.24157 -0.00960602 0)
(1.2411 -0.009201 0)
(1.24064 -0.00881645 0)
(1.2402 -0.00845099 0)
(1.23977 -0.00810336 0)
(1.23935 -0.00777244 0)
(1.23894 -0.00745716 0)
(1.23855 -0.00715658 0)
(1.23816 -0.00686981 0)
(1.2378 -0.00659605 0)
(1.23744 -0.00633456 0)
(1.2371 -0.00608465 0)
(1.23677 -0.0058457 0)
(1.23645 -0.0056171 0)
(1.23614 -0.00539832 0)
(1.23585 -0.00518886 0)
(1.23556 -0.00498824 0)
(1.19342 -0.0105119 0)
(1.1922 -0.0100487 0)
(1.19102 -0.00961124 0)
(1.18989 -0.00919754 0)
(1.18879 -0.0088058 0)
(1.18774 -0.00843444 0)
(1.18673 -0.00808201 0)
(1.18575 -0.00774722 0)
(1.18481 -0.00742887 0)
(1.1839 -0.00712589 0)
(1.18303 -0.00683731 0)
(1.18219 -0.00656222 0)
(1.18139 -0.00629982 0)
(1.18061 -0.00604936 0)
(1.17987 -0.00581013 0)
(1.17915 -0.00558152 0)
(1.17846 -0.00536293 0)
(1.1778 -0.00515381 0)
(1.17716 -0.00495368 0)
(1.17655 -0.00476205 0)
(1.13333 -0.00971808 0)
(1.1315 -0.00928503 0)
(1.12975 -0.00887673 0)
(1.12806 -0.0084912 0)
(1.12644 -0.00812666 0)
(1.12489 -0.00778153 0)
(1.1234 -0.00745437 0)
(1.12197 -0.00714392 0)
(1.1206 -0.00684899 0)
(1.11928 -0.00656856 0)
(1.11801 -0.00630166 0)
(1.11679 -0.00604742 0)
(1.11562 -0.00580506 0)
(1.1145 -0.00557384 0)
(1.11342 -0.00535312 0)
(1.11238 -0.00514229 0)
(1.11138 -0.00494077 0)
(1.11043 -0.00474805 0)
(1.10951 -0.00456367 0)
(1.10862 -0.00438718 0)
(1.06213 -0.00864525 0)
(1.05984 -0.00825682 0)
(1.05765 -0.00789109 0)
(1.05554 -0.00754618 0)
(1.05353 -0.00722041 0)
(1.0516 -0.00691229 0)
(1.04975 -0.00662049 0)
(1.04798 -0.00634381 0)
(1.04627 -0.00608117 0)
(1.04464 -0.0058316 0)
(1.04308 -0.00559421 0)
(1.04157 -0.0053682 0)
(1.04013 -0.00515285 0)
(1.03874 -0.00494749 0)
(1.03741 -0.00475153 0)
(1.03614 -0.00456439 0)
(1.03491 -0.00438558 0)
(1.03373 -0.00421462 0)
(1.0326 -0.00405108 0)
(1.03151 -0.00389457 0)
(0.979438 -0.00737392 0)
(0.976846 -0.00704093 0)
(0.974369 -0.00672771 0)
(0.971999 -0.00643257 0)
(0.96973 -0.00615404 0)
(0.967559 -0.00589078 0)
(0.965479 -0.00564162 0)
(0.963486 -0.00540551 0)
(0.961576 -0.00518149 0)
(0.959745 -0.00496871 0)
(0.957989 -0.0047664 0)
(0.956304 -0.00457385 0)
(0.954687 -0.00439044 0)
(0.953135 -0.00421558 0)
(0.951645 -0.00404875 0)
(0.950215 -0.00388947 0)
(0.948841 -0.0037373 0)
(0.947521 -0.00359183 0)
(0.946253 -0.00345269 0)
(0.945034 -0.00331953 0)
(0.885085 -0.00599242 0)
(0.882367 -0.00572131 0)
(0.87977 -0.00546644 0)
(0.877289 -0.00522641 0)
(0.874915 -0.00499998 0)
(0.872644 -0.00478607 0)
(0.87047 -0.00458368 0)
(0.868388 -0.00439194 0)
(0.866393 -0.00421007 0)
(0.864481 -0.00403737 0)
(0.862647 -0.00387319 0)
(0.860888 -0.00371696 0)
(0.859201 -0.00356816 0)
(0.857581 -0.00342632 0)
(0.856026 -0.003291 0)
(0.854534 -0.00316181 0)
(0.8531 -0.00303839 0)
(0.851722 -0.0029204 0)
(0.850399 -0.00280755 0)
(0.849127 -0.00269955 0)
(0.779121 -0.00459085 0)
(0.776448 -0.00438337 0)
(0.773896 -0.00418837 0)
(0.771457 -0.00400475 0)
(0.769125 -0.00383157 0)
(0.766895 -0.00366798 0)
(0.76476 -0.00351321 0)
(0.762715 -0.0033666 0)
(0.760756 -0.00322754 0)
(0.758879 -0.00309549 0)
(0.757078 -0.00296996 0)
(0.755352 -0.00285051 0)
(0.753695 -0.00273673 0)
(0.752105 -0.00262827 0)
(0.750578 -0.00252479 0)
(0.749112 -0.00242598 0)
(0.747704 -0.00233158 0)
(0.746351 -0.00224133 0)
(0.745051 -0.002155 0)
(0.743801 -0.00207236 0)
(0.661755 -0.00325528 0)
(0.659288 -0.00310872 0)
(0.656933 -0.00297095 0)
(0.654682 -0.00284121 0)
(0.65253 -0.00271883 0)
(0.650471 -0.00260321 0)
(0.6485 -0.00249381 0)
(0.646612 -0.00239016 0)
(0.644804 -0.00229183 0)
(0.64307 -0.00219845 0)
(0.641407 -0.00210966 0)
(0.639813 -0.00202515 0)
(0.638282 -0.00194465 0)
(0.636813 -0.00186788 0)
(0.635402 -0.00179464 0)
(0.634047 -0.00172468 0)
(0.632745 -0.00165784 0)
(0.631494 -0.00159392 0)
(0.630292 -0.00153276 0)
(0.629136 -0.00147421 0)
(0.5333 -0.00206287 0)
(0.531183 -0.00197056 0)
(0.529161 -0.00188376 0)
(0.527229 -0.00180199 0)
(0.52538 -0.00172482 0)
(0.523612 -0.00165189 0)
(0.521919 -0.00158286 0)
(0.520297 -0.00151743 0)
(0.518742 -0.00145534 0)
(0.517251 -0.00139636 0)
(0.515822 -0.00134026 0)
(0.51445 -0.00128685 0)
(0.513133 -0.00123595 0)
(0.511868 -0.0011874 0)
(0.510654 -0.00114106 0)
(0.509487 -0.0010968 0)
(0.508366 -0.00105448 0)
(0.507288 -0.00101401 0)
(0.506253 -0.000975277 0)
(0.505256 -0.000938189 0)
(0.39411 -0.00108269 0)
(0.392468 -0.00103466 0)
(0.3909 -0.000989454 0)
(0.3894 -0.00094684 0)
(0.387966 -0.000906603 0)
(0.386592 -0.000868551 0)
(0.385277 -0.000832516 0)
(0.384016 -0.000798345 0)
(0.382807 -0.000765901 0)
(0.381648 -0.000735063 0)
(0.380536 -0.000705719 0)
(0.379468 -0.00067777 0)
(0.378443 -0.000651124 0)
(0.377458 -0.000625699 0)
(0.376513 -0.000601419 0)
(0.375604 -0.000578218 0)
(0.37473 -0.000556031 0)
(0.37389 -0.000534802 0)
(0.373082 -0.000514478 0)
(0.372305 -0.000495011 0)
(0.244526 -0.000391235 0)
(0.243468 -0.000374092 0)
(0.242456 -0.000357942 0)
(0.241488 -0.000342701 0)
(0.240562 -0.000328297 0)
(0.239675 -0.000314663 0)
(0.238825 -0.00030174 0)
(0.23801 -0.000289476 0)
(0.237228 -0.000277823 0)
(0.236478 -0.000266738 0)
(0.235758 -0.000256183 0)
(0.235067 -0.000246124 0)
(0.234403 -0.000236526 0)
(0.233765 -0.000227363 0)
(0.233151 -0.000218608 0)
(0.232562 -0.000210237 0)
(0.231995 -0.000202228 0)
(0.23145 -0.00019456 0)
(0.230926 -0.000187216 0)
(0.230422 -0.000180178 0)
(0.0848247 -6.42654e-05 0)
(0.0844435 -6.15134e-05 0)
(0.0840789 -5.89151e-05 0)
(0.0837298 -5.64584e-05 0)
(0.0833955 -5.41322e-05 0)
(0.0830751 -5.19266e-05 0)
(0.0827679 -4.9833e-05 0)
(0.0824732 -4.7843e-05 0)
(0.0821905 -4.59493e-05 0)
(0.081919 -4.41455e-05 0)
(0.0816583 -4.24258e-05 0)
(0.0814079 -4.07847e-05 0)
(0.0811672 -3.92171e-05 0)
(0.0809359 -3.77188e-05 0)
(0.0807135 -3.62856e-05 0)
(0.0804996 -3.4914e-05 0)
(0.0802939 -3.36004e-05 0)
(0.080096 -3.23417e-05 0)
(0.0799055 -3.11351e-05 0)
(0.0797223 -2.9978e-05 0)
)
;

boundaryField
{
    fixedWalls
    {
        type            noSlip;
    }
    inlet
    {
        type            fixedValue;
        value           nonuniform 0();
    }
    outlet
    {
        type            zeroGradient;
    }
    frontAndBack
    {
        type            empty;
    }
    procBoundary6to2
    {
        type            processor;
        value           nonuniform List<vector> 
20
(
(1.38496 0.00111148 0)
(1.38927 0.00106827 0)
(1.39341 0.00102674 0)
(1.3974 0.000986842 0)
(1.40122 0.000948517 0)
(1.4049 0.000911706 0)
(1.40844 0.000876353 0)
(1.41183 0.000842407 0)
(1.4151 0.000809813 0)
(1.41824 0.000778503 0)
(1.42126 0.000748421 0)
(1.42416 0.000719541 0)
(1.42695 0.000691821 0)
(1.42963 0.000665197 0)
(1.43221 0.000639616 0)
(1.43469 0.000615045 0)
(1.43707 0.000591457 0)
(1.43936 0.000568821 0)
(1.44157 0.000547089 0)
(1.44369 0.000526143 0)
)
;
    }
    procBoundary6to5
    {
        type            processor;
        value           nonuniform List<vector> 
20
(
(1.38047 -0.00115644 0)
(1.37821 -0.00342281 0)
(1.37339 -0.00555132 0)
(1.36542 -0.00745573 0)
(1.35346 -0.00905883 0)
(1.33648 -0.0102966 0)
(1.31331 -0.0111226 0)
(1.28273 -0.0115119 0)
(1.24355 -0.0114639 0)
(1.19468 -0.011003 0)
(1.13523 -0.0101781 0)
(1.06453 -0.00905851 0)
(0.982151 -0.00772856 0)
(0.887932 -0.00628136 0)
(0.781922 -0.00481203 0)
(0.664341 -0.0034115 0)
(0.535519 -0.00216122 0)
(0.39583 -0.00113384 0)
(0.245634 -0.000409468 0)
(0.0852234 -6.71859e-05 0)
)
;
    }
    procBoundary6to7
    {
        type            processor;
        value           nonuniform List<vector> 
20
(
(1.44573 -0.000505867 0)
(1.44063 -0.00149463 0)
(1.43027 -0.00241535 0)
(1.41437 -0.00322734 0)
(1.39251 -0.00389667 0)
(1.36422 -0.00439811 0)
(1.32894 -0.00471647 0)
(1.28613 -0.00484715 0)
(1.23529 -0.00479603 0)
(1.17596 -0.00457853 0)
(1.10777 -0.00421817 0)
(1.03046 -0.00374472 0)
(0.943863 -0.00319205 0)
(0.847905 -0.00259614 0)
(0.7426 -0.00199324 0)
(0.628025 -0.00141814 0)
(0.504298 -0.000902658 0)
(0.371558 -0.000476355 0)
(0.229936 -0.000173431 0)
(0.0795459 -2.88676e-05 0)
)
;
    }
}


// ************************************************************************* //
