/*--------------------------------*- C++ -*----------------------------------*\
| =========                 |                                                 |
| \\      /  F ield         | OpenFOAM: The Open Source CFD Toolbox           |
|  \\    /   O peration     | Version:                                        |
|   \\  /    A nd           | Website:  www.openfoam.com                      |
|    \\/     M anipulation  |                                                 |
\*---------------------------------------------------------------------------*/
FoamFile
{
    version     2.0;
    format      ascii;
    class       volScalarField;
    location    "0.8";
    object      p;
}
// * * * * * * * * * * * * * * * * * * * * * * * * * * * * * * * * * * * * * //

dimensions      [0 2 -2 0 0 0 0];


internalField   nonuniform List<scalar> 
400
(
0.131055
0.124079
0.117138
0.11023
0.103355
0.0965112
0.0896972
0.0829127
0.0761553
0.0694257
0.0627199
0.0560415
0.0493814
0.0427518
0.0361289
0.0295496
0.0229473
0.0164316
0.00981141
0.00340985
0.131044
0.124068
0.117128
0.11022
0.103346
0.0965023
0.0896888
0.0829045
0.0761475
0.0694183
0.0627129
0.0560348
0.0493752
0.0427458
0.0361235
0.0295441
0.0229432
0.0164261
0.00980967
0.00340297
0.131023
0.124048
0.117108
0.110202
0.103328
0.096485
0.0896723
0.0828888
0.0761325
0.0694039
0.0626992
0.0560218
0.0493631
0.0427341
0.0361132
0.0295333
0.0229354
0.0164155
0.00980631
0.00338962
0.130992
0.124018
0.11708
0.110175
0.103302
0.0964603
0.0896486
0.0828661
0.0761109
0.0693833
0.0626797
0.0560031
0.0493457
0.0427173
0.0360984
0.0295181
0.0229242
0.0164004
0.00980152
0.00337057
0.130953
0.123981
0.117044
0.110141
0.103269
0.0964293
0.089619
0.0828378
0.0760839
0.0693575
0.0626553
0.0559798
0.049324
0.0426963
0.0360799
0.0294991
0.0229102
0.0163818
0.00979557
0.00334688
0.130908
0.123939
0.117003
0.110102
0.103232
0.0963936
0.0895849
0.0828052
0.0760529
0.0693278
0.0626272
0.055953
0.0492991
0.0426723
0.0360588
0.0294775
0.0228943
0.0163607
0.0097888
0.00331987
0.13086
0.123892
0.116959
0.110059
0.103192
0.0963549
0.0895479
0.0827699
0.0760192
0.0692957
0.0625968
0.055924
0.0492721
0.0426464
0.0360359
0.0294543
0.0228771
0.0163384
0.00978152
0.003291
0.130809
0.123844
0.116913
0.110015
0.103149
0.0963146
0.0895095
0.0827332
0.0759842
0.0692623
0.0625653
0.0558939
0.0492442
0.0426197
0.0360122
0.0294307
0.0228594
0.0163159
0.00977407
0.00326173
0.130759
0.123796
0.116867
0.109971
0.103107
0.0962744
0.089471
0.0826965
0.0759493
0.069229
0.0625338
0.055864
0.0492164
0.0425932
0.0359887
0.0294075
0.0228418
0.0162944
0.00976669
0.00323353
0.13071
0.123749
0.116822
0.109928
0.103066
0.0962353
0.0894337
0.0826608
0.0759153
0.0691967
0.0625032
0.0558349
0.0491893
0.0425675
0.035966
0.0293854
0.0228249
0.0162746
0.00975955
0.00320766
0.130663
0.123704
0.116779
0.109888
0.103027
0.096198
0.0893982
0.0826269
0.075883
0.0691659
0.062474
0.0558073
0.0491636
0.0425432
0.0359443
0.0293648
0.0228089
0.0162569
0.0097527
0.0031852
0.130619
0.123662
0.116739
0.109849
0.102991
0.096163
0.0893647
0.082595
0.0758526
0.0691369
0.0624466
0.0557813
0.0491394
0.0425205
0.0359239
0.0293457
0.0227938
0.0162416
0.00974605
0.00316691
0.130578
0.123623
0.116701
0.109813
0.102956
0.0961301
0.0893333
0.0825649
0.075824
0.0691096
0.0624207
0.0557567
0.0491164
0.0424989
0.0359044
0.0293279
0.0227792
0.0162283
0.00973932
0.0031532
0.130538
0.123585
0.116666
0.109779
0.102923
0.0960986
0.0893031
0.0825361
0.0757964
0.0690834
0.0623958
0.055733
0.0490942
0.042478
0.0358853
0.0293107
0.0227645
0.0162163
0.00973199
0.00314404
0.1305
0.123548
0.11663
0.109745
0.102891
0.0960675
0.0892733
0.0825076
0.0757692
0.0690573
0.0623709
0.0557093
0.0490718
0.042457
0.0358658
0.0292931
0.0227489
0.0162046
0.0097233
0.00313887
0.13046
0.12351
0.116594
0.10971
0.102858
0.0960355
0.0892427
0.0824782
0.075741
0.0690303
0.0623452
0.0556847
0.0490484
0.0424349
0.035845
0.0292742
0.0227315
0.0161919
0.00971223
0.00313667
0.130419
0.12347
0.116556
0.109673
0.102822
0.0960016
0.0892101
0.0824469
0.075711
0.0690015
0.0623175
0.0556582
0.049023
0.0424107
0.0358219
0.029253
0.0227112
0.0161767
0.00969756
0.00313602
0.130372
0.123425
0.116512
0.109632
0.102782
0.0959633
0.0891733
0.0824115
0.075677
0.0689688
0.0622861
0.055628
0.048994
0.0423829
0.0357951
0.0292279
0.0226867
0.0161569
0.00967683
0.00313435
0.130313
0.123369
0.116458
0.10958
0.102732
0.095915
0.0891269
0.0823668
0.0756339
0.0689273
0.0622461
0.0555895
0.0489568
0.0423472
0.0357606
0.0291948
0.022654
0.0161278
0.00964482
0.00312491
0.130244
0.123302
0.116394
0.109518
0.102673
0.0958576
0.0890715
0.0823135
0.0755826
0.0688778
0.0621984
0.0555435
0.0489124
0.0423043
0.035719
0.0291546
0.0226143
0.0160897
0.00960294
0.00310066
)
;

boundaryField
{
    fixedWalls
    {
        type            zeroGradient;
    }
    inlet
    {
        type            zeroGradient;
    }
    outlet
    {
        type            fixedValue;
        value           uniform 0;
    }
    frontAndBack
    {
        type            empty;
    }
    procBoundary7to3
    {
        type            processor;
        value           nonuniform List<scalar> 
20
(
0.131055
0.124079
0.117138
0.11023
0.103355
0.0965112
0.0896973
0.0829127
0.0761553
0.0694256
0.0627198
0.0560415
0.0493815
0.0427519
0.0361289
0.0295496
0.0229473
0.0164316
0.0098114
0.00340984
)
;
    }
    procBoundary7to6
    {
        type            processor;
        value           nonuniform List<scalar> 
20
(
0.138068
0.138056
0.138034
0.138001
0.137961
0.137914
0.137863
0.13781
0.137757
0.137706
0.137657
0.137611
0.137568
0.137526
0.137486
0.137445
0.137402
0.137353
0.137292
0.13722
)
;
    }
}


// ************************************************************************* //
