/*--------------------------------*- C++ -*----------------------------------*\
| =========                 |                                                 |
| \\      /  F ield         | OpenFOAM: The Open Source CFD Toolbox           |
|  \\    /   O peration     | Version:                                        |
|   \\  /    A nd           | Website:  www.openfoam.com                      |
|    \\/     M anipulation  |                                                 |
\*---------------------------------------------------------------------------*/
FoamFile
{
    version     2.0;
    format      ascii;
    class       surfaceScalarField;
    location    "0.8";
    object      phi;
}
// * * * * * * * * * * * * * * * * * * * * * * * * * * * * * * * * * * * * * //

dimensions      [0 3 -1 0 0 0 0];
oriented        oriented;


internalField   nonuniform List<scalar> 
760
(
3.61677e-05
-5.00049e-08
3.62158e-05
-4.80981e-08
3.62621e-05
-4.62668e-08
3.63066e-05
-4.45067e-08
3.63494e-05
-4.28175e-08
3.63906e-05
-4.11929e-08
3.64303e-05
-3.9637e-08
3.64684e-05
-3.81364e-08
3.65051e-05
-3.67075e-08
3.65405e-05
-3.53171e-08
3.65745e-05
-3.40169e-08
3.66072e-05
-3.27171e-08
3.66388e-05
-3.15635e-08
3.66691e-05
-3.03146e-08
3.66985e-05
-2.93578e-08
3.67266e-05
-2.80805e-08
3.6754e-05
-2.74266e-08
3.678e-05
-2.59923e-08
3.68058e-05
-2.577e-08
-2.41301e-08
3.6039e-05
-9.77357e-08
3.6085e-05
-9.40065e-08
3.61291e-05
-9.04257e-08
3.61716e-05
-8.69849e-08
3.62125e-05
-8.36829e-08
3.62518e-05
-8.05078e-08
3.62896e-05
-7.74669e-08
3.6326e-05
-7.45346e-08
3.6361e-05
-7.17422e-08
3.63947e-05
-6.90264e-08
3.64272e-05
-6.64854e-08
3.64584e-05
-6.39475e-08
3.64886e-05
-6.16918e-08
3.65175e-05
-5.92567e-08
3.65455e-05
-5.73843e-08
3.65724e-05
-5.48978e-08
3.65985e-05
-5.36143e-08
3.66234e-05
-5.08233e-08
3.6648e-05
-5.03845e-08
-4.71875e-08
3.5778e-05
-1.41048e-07
3.58196e-05
-1.35661e-07
3.58597e-05
-1.30489e-07
3.58982e-05
-1.25521e-07
3.59353e-05
-1.20754e-07
3.5971e-05
-1.16171e-07
3.60053e-05
-1.11782e-07
3.60383e-05
-1.07551e-07
3.60701e-05
-1.03521e-07
3.61007e-05
-9.96042e-08
3.61301e-05
-9.59363e-08
3.61584e-05
-9.22797e-08
3.61858e-05
-8.90209e-08
3.6212e-05
-8.55189e-08
3.62375e-05
-8.28082e-08
3.62618e-05
-7.9242e-08
3.62856e-05
-7.73755e-08
3.63081e-05
-7.33767e-08
3.63305e-05
-7.27317e-08
-6.81365e-08
3.53774e-05
-1.78077e-07
3.5413e-05
-1.71267e-07
3.54472e-05
-1.64732e-07
3.54801e-05
-1.58455e-07
3.55118e-05
-1.52434e-07
3.55423e-05
-1.46647e-07
3.55716e-05
-1.41104e-07
3.55998e-05
-1.35763e-07
3.5627e-05
-1.30675e-07
3.56531e-05
-1.25735e-07
3.56783e-05
-1.21102e-07
3.57025e-05
-1.16496e-07
3.57259e-05
-1.12375e-07
3.57483e-05
-1.07975e-07
3.577e-05
-1.04537e-07
3.57909e-05
-1.00074e-07
3.58112e-05
-9.76915e-08
3.58305e-05
-9.26955e-08
3.58496e-05
-9.18594e-08
-8.60924e-08
3.48272e-05
-2.07344e-07
3.48553e-05
-1.99405e-07
3.48824e-05
-1.91788e-07
3.49084e-05
-1.84475e-07
3.49334e-05
-1.77461e-07
3.49575e-05
-1.70721e-07
3.49807e-05
-1.64266e-07
3.50029e-05
-1.58049e-07
3.50244e-05
-1.52124e-07
3.5045e-05
-1.46379e-07
3.50649e-05
-1.40983e-07
3.50841e-05
-1.35634e-07
3.51025e-05
-1.30828e-07
3.51203e-05
-1.25735e-07
3.51375e-05
-1.2171e-07
3.51539e-05
-1.16572e-07
3.517e-05
-1.13759e-07
3.51853e-05
-1.08024e-07
3.52005e-05
-1.07016e-07
-1.00358e-07
3.41154e-05
-2.27839e-07
3.41351e-05
-2.19105e-07
3.41541e-05
-2.10727e-07
3.41723e-05
-2.02686e-07
3.41898e-05
-1.94975e-07
3.42066e-05
-1.87569e-07
3.42228e-05
-1.80475e-07
3.42384e-05
-1.73648e-07
3.42535e-05
-1.67138e-07
3.42679e-05
-1.60833e-07
3.42818e-05
-1.54902e-07
3.42952e-05
-1.49044e-07
3.43082e-05
-1.43752e-07
3.43206e-05
-1.38196e-07
3.43327e-05
-1.33744e-07
3.43443e-05
-1.28178e-07
3.43555e-05
-1.25032e-07
3.43664e-05
-1.18849e-07
3.4377e-05
-1.17692e-07
-1.10463e-07
3.32289e-05
-2.39068e-07
3.32397e-05
-2.29894e-07
3.325e-05
-2.21096e-07
3.326e-05
-2.12656e-07
3.32696e-05
-2.04563e-07
3.32788e-05
-1.96792e-07
3.32877e-05
-1.8935e-07
3.32962e-05
-1.82191e-07
3.33045e-05
-1.75362e-07
3.33124e-05
-1.68758e-07
3.332e-05
-1.62533e-07
3.33274e-05
-1.56409e-07
3.33345e-05
-1.50845e-07
3.33414e-05
-1.45066e-07
3.3348e-05
-1.40359e-07
3.33544e-05
-1.34619e-07
3.33606e-05
-1.3125e-07
3.33667e-05
-1.24919e-07
3.33726e-05
-1.23639e-07
-1.16182e-07
3.21543e-05
-2.41061e-07
3.21562e-05
-2.31804e-07
3.2158e-05
-2.2293e-07
3.21598e-05
-2.14418e-07
3.21615e-05
-2.06258e-07
3.21631e-05
-1.98426e-07
3.21647e-05
-1.90924e-07
3.21662e-05
-1.83713e-07
3.21677e-05
-1.7683e-07
3.21691e-05
-1.70183e-07
3.21705e-05
-1.63907e-07
3.21718e-05
-1.57757e-07
3.21731e-05
-1.52136e-07
3.21744e-05
-1.46365e-07
3.21756e-05
-1.41581e-07
3.21769e-05
-1.35911e-07
3.21781e-05
-1.32434e-07
3.21794e-05
-1.26251e-07
3.21807e-05
-1.24877e-07
-1.17538e-07
3.0879e-05
-2.34351e-07
3.08725e-05
-2.2535e-07
3.08663e-05
-2.16723e-07
3.08603e-05
-2.08451e-07
3.08546e-05
-2.00521e-07
3.08491e-05
-1.92912e-07
3.08438e-05
-1.85625e-07
3.08387e-05
-1.78622e-07
3.08338e-05
-1.71936e-07
3.08291e-05
-1.65488e-07
3.08246e-05
-1.59389e-07
3.08203e-05
-1.53437e-07
3.08161e-05
-1.47963e-07
3.08121e-05
-1.42412e-07
3.08083e-05
-1.37724e-07
3.08047e-05
-1.32345e-07
3.08012e-05
-1.28876e-07
3.0798e-05
-1.23109e-07
3.07948e-05
-1.21671e-07
-1.14791e-07
2.93919e-05
-2.19912e-07
2.9378e-05
-2.11468e-07
2.93647e-05
-2.03378e-07
2.93518e-05
-1.9562e-07
2.93395e-05
-1.88186e-07
2.93276e-05
-1.81053e-07
2.93162e-05
-1.74222e-07
2.93053e-05
-1.67661e-07
2.92947e-05
-1.61394e-07
2.92846e-05
-1.55358e-07
2.92749e-05
-1.49638e-07
2.92655e-05
-1.4408e-07
2.92565e-05
-1.38937e-07
2.92478e-05
-1.33787e-07
2.92395e-05
-1.29353e-07
2.92316e-05
-1.24446e-07
2.92238e-05
-1.21102e-07
2.92167e-05
-1.15975e-07
2.92095e-05
-1.14509e-07
-1.08402e-07
2.76841e-05
-1.99074e-07
2.76641e-05
-1.91438e-07
2.76448e-05
-1.84122e-07
2.76263e-05
-1.77109e-07
2.76085e-05
-1.70388e-07
2.75914e-05
-1.63941e-07
2.75749e-05
-1.57765e-07
2.75591e-05
-1.51837e-07
2.75439e-05
-1.46171e-07
2.75292e-05
-1.40722e-07
2.75152e-05
-1.3555e-07
2.75016e-05
-1.30543e-07
2.74886e-05
-1.25885e-07
2.74761e-05
-1.2128e-07
2.74639e-05
-1.17238e-07
2.74524e-05
-1.12938e-07
2.74412e-05
-1.09825e-07
2.74307e-05
-1.05505e-07
2.74202e-05
-1.04052e-07
-9.89964e-08
2.5749e-05
-1.73428e-07
2.57243e-05
-1.66787e-07
2.57006e-05
-1.60424e-07
2.56779e-05
-1.54325e-07
2.5656e-05
-1.4848e-07
2.56349e-05
-1.42874e-07
2.56146e-05
-1.37504e-07
2.55951e-05
-1.32351e-07
2.55764e-05
-1.27424e-07
2.55584e-05
-1.2269e-07
2.5541e-05
-1.18191e-07
2.55243e-05
-1.13852e-07
2.55082e-05
-1.09794e-07
2.54928e-05
-1.05833e-07
2.54778e-05
-1.02293e-07
2.54636e-05
-9.86816e-08
2.54496e-05
-9.58962e-08
2.54366e-05
-9.24819e-08
2.54237e-05
-9.10893e-08
-8.73122e-08
2.35825e-05
-1.4472e-07
2.35549e-05
-1.39191e-07
2.35284e-05
-1.33894e-07
2.35029e-05
-1.28816e-07
2.34783e-05
-1.23949e-07
2.34548e-05
-1.19282e-07
2.34321e-05
-1.1481e-07
2.34102e-05
-1.1052e-07
2.33892e-05
-1.06418e-07
2.3369e-05
-1.02479e-07
2.33496e-05
-9.87326e-08
2.33308e-05
-9.5131e-08
2.33128e-05
-9.17488e-08
2.32954e-05
-8.8486e-08
2.32787e-05
-8.55214e-08
2.32626e-05
-8.26301e-08
2.3247e-05
-8.02498e-08
2.32323e-05
-7.77632e-08
2.32176e-05
-7.64874e-08
-7.41491e-08
2.11829e-05
-1.14753e-07
2.11541e-05
-1.10381e-07
2.11264e-05
-1.06193e-07
2.10998e-05
-1.02177e-07
2.10742e-05
-9.83285e-08
2.10495e-05
-9.46373e-08
2.10258e-05
-9.11006e-08
2.1003e-05
-8.7708e-08
2.0981e-05
-8.4463e-08
2.09599e-05
-8.13503e-08
2.09396e-05
-7.83868e-08
2.092e-05
-7.55462e-08
2.09011e-05
-7.28701e-08
2.08829e-05
-7.03169e-08
2.08654e-05
-6.79637e-08
2.08485e-05
-6.57749e-08
2.08321e-05
-6.38513e-08
2.08166e-05
-6.22398e-08
2.08013e-05
-6.11408e-08
-6.03136e-08
1.85506e-05
-8.53027e-08
1.85222e-05
-8.20641e-08
1.8495e-05
-7.89605e-08
1.84688e-05
-7.59849e-08
1.84436e-05
-7.31325e-08
1.84194e-05
-7.03967e-08
1.83961e-05
-6.77751e-08
1.83736e-05
-6.52605e-08
1.8352e-05
-6.2855e-08
1.83312e-05
-6.0549e-08
1.83112e-05
-5.83525e-08
1.82919e-05
-5.62523e-08
1.82733e-05
-5.42692e-08
1.82554e-05
-5.23966e-08
1.8238e-05
-5.06498e-08
1.82214e-05
-4.91058e-08
1.82052e-05
-4.76567e-08
1.81897e-05
-4.67989e-08
1.81745e-05
-4.59294e-08
-4.65677e-08
1.56873e-05
-5.80546e-08
1.56611e-05
-5.58589e-08
1.56359e-05
-5.37544e-08
1.56116e-05
-5.17364e-08
1.55883e-05
-4.98016e-08
1.55658e-05
-4.79456e-08
1.55442e-05
-4.61669e-08
1.55234e-05
-4.44609e-08
1.55034e-05
-4.28287e-08
1.54841e-05
-4.12648e-08
1.54655e-05
-3.9775e-08
1.54476e-05
-3.83536e-08
1.54304e-05
-3.70092e-08
1.54137e-05
-3.57523e-08
1.53976e-05
-3.45674e-08
1.53821e-05
-3.35782e-08
1.5367e-05
-3.25829e-08
1.53525e-05
-3.23006e-08
1.53383e-05
-3.1687e-08
-3.35871e-08
1.25959e-05
-3.45623e-08
1.25733e-05
-3.32606e-08
1.25516e-05
-3.20128e-08
1.25307e-05
-3.08159e-08
1.25105e-05
-2.96682e-08
1.24912e-05
-2.8567e-08
1.24725e-05
-2.75116e-08
1.24546e-05
-2.64992e-08
1.24373e-05
-2.55308e-08
1.24206e-05
-2.46032e-08
1.24045e-05
-2.37195e-08
1.23891e-05
-2.2878e-08
1.23741e-05
-2.20812e-08
1.23597e-05
-2.13439e-08
1.23458e-05
-2.06408e-08
1.23323e-05
-2.00939e-08
1.23192e-05
-1.94926e-08
1.23065e-05
-1.95688e-08
1.2294e-05
-1.91865e-08
-2.19401e-08
9.27995e-06
-1.62319e-08
9.26231e-06
-1.56234e-08
9.24534e-06
-1.50399e-08
9.229e-06
-1.44802e-08
9.21328e-06
-1.39433e-08
9.19814e-06
-1.34281e-08
9.18356e-06
-1.29342e-08
9.16952e-06
-1.24604e-08
9.156e-06
-1.20072e-08
9.14297e-06
-1.15732e-08
9.13041e-06
-1.11599e-08
9.1183e-06
-1.07671e-08
9.10661e-06
-1.03944e-08
9.09532e-06
-1.00543e-08
9.08441e-06
-9.7232e-09
9.0738e-06
-9.49225e-09
9.06351e-06
-9.19423e-09
9.05334e-06
-9.40075e-09
9.04331e-06
-9.16349e-09
-1.20839e-08
5.74257e-06
-4.32786e-09
5.73111e-06
-4.16657e-09
5.72009e-06
-4.01186e-09
5.70947e-06
-3.86339e-09
5.69925e-06
-3.72096e-09
5.6894e-06
-3.5842e-09
5.67992e-06
-3.45311e-09
5.67079e-06
-3.32729e-09
5.66199e-06
-3.20705e-09
5.65351e-06
-3.09183e-09
5.64533e-06
-2.98217e-09
5.63744e-06
-2.8782e-09
5.62983e-06
-2.77911e-09
5.62246e-06
-2.69088e-09
5.61534e-06
-2.60053e-09
5.6084e-06
-2.55096e-09
5.60166e-06
-2.4561e-09
5.59485e-06
-2.59177e-09
5.58814e-06
-2.45342e-09
-4.34794e-09
1.98652e-06
1.98235e-06
1.97834e-06
1.97448e-06
1.97076e-06
1.96717e-06
1.96372e-06
1.96039e-06
1.95719e-06
1.9541e-06
1.95111e-06
1.94824e-06
1.94546e-06
1.94277e-06
1.94017e-06
1.93761e-06
1.93516e-06
1.93257e-06
1.93011e-06
)
;

boundaryField
{
    fixedWalls
    {
        type            calculated;
        value           uniform 0;
    }
    inlet
    {
        type            calculated;
        value           nonuniform 0();
    }
    outlet
    {
        type            calculated;
        value           nonuniform List<scalar> 
20
(
3.683e-05
3.6671e-05
3.63514e-05
3.58676e-05
3.52148e-05
3.43871e-05
3.33784e-05
3.2182e-05
3.07921e-05
2.92031e-05
2.74108e-05
2.5412e-05
2.32045e-05
2.07874e-05
1.81608e-05
1.53253e-05
1.22823e-05
9.03346e-06
5.58041e-06
1.92576e-06
)
;
    }
    frontAndBack
    {
        type            empty;
        value           nonuniform 0();
    }
    procBoundary7to3
    {
        type            processor;
        value           nonuniform List<scalar> 
20
(
-4.97346e-12
-7.32535e-12
-7.73634e-12
-7.43355e-12
-7.63137e-12
-8.45144e-12
-8.8695e-12
-8.46697e-12
-8.36838e-12
-8.70217e-12
-8.89174e-12
-9.58331e-12
-1.17708e-11
-1.42871e-11
-1.48726e-11
-1.39686e-11
-1.4023e-11
-1.48071e-11
-1.48521e-11
-1.60591e-11
)
;
    }
    procBoundary7to6
    {
        type            processor;
        value           nonuniform List<scalar> 
20
(
-3.61177e-05
-3.59913e-05
-3.57347e-05
-3.53403e-05
-3.47979e-05
-3.40949e-05
-3.32177e-05
-3.21523e-05
-3.08857e-05
-2.94063e-05
-2.77049e-05
-2.57746e-05
-2.36112e-05
-2.12129e-05
-1.858e-05
-1.57145e-05
-1.26194e-05
-9.29828e-06
-5.75447e-06
-1.99085e-06
)
;
    }
}


// ************************************************************************* //
