/*--------------------------------*- C++ -*----------------------------------*\
| =========                 |                                                 |
| \\      /  F ield         | OpenFOAM: The Open Source CFD Toolbox           |
|  \\    /   O peration     | Version:                                        |
|   \\  /    A nd           | Website:  www.openfoam.com                      |
|    \\/     M anipulation  |                                                 |
\*---------------------------------------------------------------------------*/
FoamFile
{
    version     2.0;
    format      ascii;
    class       volVectorField;
    location    "0.8";
    object      U;
}
// * * * * * * * * * * * * * * * * * * * * * * * * * * * * * * * * * * * * * //

dimensions      [0 1 -1 0 0 0 0];


internalField   nonuniform List<vector> 
400
(
(1.44573 -0.000505867 0)
(1.44769 -0.000486557 0)
(1.44958 -0.00046803 0)
(1.45139 -0.000450229 0)
(1.45314 -0.000433139 0)
(1.45482 -0.000416695 0)
(1.45643 -0.00040095 0)
(1.45799 -0.000385772 0)
(1.45948 -0.000371317 0)
(1.46093 -0.000357244 0)
(1.46231 -0.000344089 0)
(1.46365 -0.000330926 0)
(1.46492 -0.000319237 0)
(1.46619 -0.000306564 0)
(1.46733 -0.000296882 0)
(1.46856 -0.000283952 0)
(1.46954 -0.00027734 0)
(1.47083 -0.000262807 0)
(1.47149 -0.00026054 0)
(1.47312 -0.000243947 0)
(1.44063 -0.00149463 0)
(1.4425 -0.00143763 0)
(1.4443 -0.0013829 0)
(1.44603 -0.00133029 0)
(1.4477 -0.0012798 0)
(1.4493 -0.00123125 0)
(1.45084 -0.00118475 0)
(1.45233 -0.0011399 0)
(1.45375 -0.0010972 0)
(1.45513 -0.00105565 0)
(1.45645 -0.00101679 0)
(1.45773 -0.000977949 0)
(1.45894 -0.000943466 0)
(1.46015 -0.000906164 0)
(1.46124 -0.000877559 0)
(1.46242 -0.000839435 0)
(1.46334 -0.000819845 0)
(1.46458 -0.000777059 0)
(1.46521 -0.000770319 0)
(1.46676 -0.000721416 0)
(1.43027 -0.00241535 0)
(1.43197 -0.00232316 0)
(1.4336 -0.00223465 0)
(1.43517 -0.0021496 0)
(1.43669 -0.00206799 0)
(1.43814 -0.00198952 0)
(1.43954 -0.00191436 0)
(1.44089 -0.0018419 0)
(1.44218 -0.00177289 0)
(1.44343 -0.00170579 0)
(1.44462 -0.00164299 0)
(1.44579 -0.00158031 0)
(1.44688 -0.00152454 0)
(1.44798 -0.00146443 0)
(1.44897 -0.0014181 0)
(1.45004 -0.00135679 0)
(1.45088 -0.00132495 0)
(1.45201 -0.0012562 0)
(1.45257 -0.00124516 0)
(1.45398 -0.00116638 0)
(1.41437 -0.00322734 0)
(1.41582 -0.00310401 0)
(1.41722 -0.00298563 0)
(1.41856 -0.00287193 0)
(1.41985 -0.00276283 0)
(1.42109 -0.00265796 0)
(1.42229 -0.00255751 0)
(1.42344 -0.00246071 0)
(1.42455 -0.00236849 0)
(1.42561 -0.00227891 0)
(1.42663 -0.00219497 0)
(1.42763 -0.00211137 0)
(1.42857 -0.00203676 0)
(1.42951 -0.00195678 0)
(1.43035 -0.00189463 0)
(1.43126 -0.00181332 0)
(1.43198 -0.00177038 0)
(1.43295 -0.00167932 0)
(1.43343 -0.00166424 0)
(1.43464 -0.0015595 0)
(1.39251 -0.00389667 0)
(1.39366 -0.00374757 0)
(1.39476 -0.0036045 0)
(1.39583 -0.00346711 0)
(1.39685 -0.00333532 0)
(1.39783 -0.00320866 0)
(1.39877 -0.00308736 0)
(1.39968 -0.00297051 0)
(1.40055 -0.00285916 0)
(1.4014 -0.00275111 0)
(1.4022 -0.00264973 0)
(1.40299 -0.00254904 0)
(1.40373 -0.0024588 0)
(1.40447 -0.00236275 0)
(1.40514 -0.00228733 0)
(1.40586 -0.00219015 0)
(1.40643 -0.00213764 0)
(1.4072 -0.00202905 0)
(1.40758 -0.00201029 0)
(1.40854 -0.00188471 0)
(1.36422 -0.00439811 0)
(1.36502 -0.00422961 0)
(1.36579 -0.00406796 0)
(1.36653 -0.00391278 0)
(1.36725 -0.00376396 0)
(1.36794 -0.00362098 0)
(1.3686 -0.00348405 0)
(1.36923 -0.00335221 0)
(1.36984 -0.00322653 0)
(1.37043 -0.00310473 0)
(1.371 -0.00299026 0)
(1.37155 -0.00287696 0)
(1.37207 -0.00277491 0)
(1.37259 -0.00266723 0)
(1.37306 -0.00258158 0)
(1.37356 -0.00247328 0)
(1.37396 -0.00241309 0)
(1.3745 -0.00229251 0)
(1.37477 -0.00227052 0)
(1.37545 -0.00213019 0)
(1.32894 -0.00471647 0)
(1.32938 -0.00453555 0)
(1.3298 -0.00436205 0)
(1.33021 -0.00419555 0)
(1.3306 -0.00403589 0)
(1.33097 -0.00388257 0)
(1.33133 -0.00373572 0)
(1.33168 -0.00359443 0)
(1.33202 -0.00345967 0)
(1.33234 -0.00332926 0)
(1.33265 -0.00320646 0)
(1.33295 -0.00308539 0)
(1.33324 -0.00297573 0)
(1.33353 -0.00286118 0)
(1.33378 -0.00276868 0)
(1.33406 -0.00265435 0)
(1.33428 -0.00258857 0)
(1.33458 -0.00246202 0)
(1.33473 -0.00243731 0)
(1.33512 -0.00228892 0)
(1.28613 -0.00484715 0)
(1.28621 -0.00466106 0)
(1.28628 -0.00448264 0)
(1.28636 -0.00431147 0)
(1.28643 -0.00414738 0)
(1.28649 -0.00398984 0)
(1.28656 -0.00383896 0)
(1.28662 -0.00369387 0)
(1.28668 -0.00355543 0)
(1.28674 -0.00342164 0)
(1.28679 -0.00329543 0)
(1.28685 -0.00317151 0)
(1.2869 -0.00305857 0)
(1.28695 -0.00294193 0)
(1.287 -0.00284611 0)
(1.28706 -0.00273085 0)
(1.28709 -0.00266174 0)
(1.28716 -0.00253527 0)
(1.28718 -0.00250839 0)
(1.28728 -0.00235893 0)
(1.23529 -0.00479603 0)
(1.23503 -0.00461181 0)
(1.23477 -0.00443523 0)
(1.23453 -0.00426589 0)
(1.2343 -0.00410356 0)
(1.23407 -0.00394777 0)
(1.23385 -0.00379856 0)
(1.23365 -0.00365516 0)
(1.23345 -0.00351826 0)
(1.23326 -0.00338615 0)
(1.23307 -0.00326129 0)
(1.2329 -0.00313921 0)
(1.23272 -0.00302726 0)
(1.23256 -0.00291303 0)
(1.23241 -0.00281745 0)
(1.23226 -0.00270595 0)
(1.23212 -0.00263586 0)
(1.23197 -0.00251518 0)
(1.23187 -0.00248676 0)
(1.2317 -0.00234315 0)
(1.17596 -0.00457853 0)
(1.17539 -0.00440267 0)
(1.17485 -0.00423415 0)
(1.17433 -0.00407257 0)
(1.17382 -0.0039177 0)
(1.17334 -0.00376911 0)
(1.17287 -0.00362679 0)
(1.17243 -0.00349008 0)
(1.172 -0.00335952 0)
(1.17158 -0.00323369 0)
(1.17119 -0.00311455 0)
(1.1708 -0.00299855 0)
(1.17044 -0.00289151 0)
(1.17008 -0.00278368 0)
(1.16974 -0.00269169 0)
(1.16941 -0.00258803 0)
(1.16911 -0.00251931 0)
(1.16878 -0.00240943 0)
(1.16857 -0.00238012 0)
(1.16815 -0.00224896 0)
(1.10777 -0.00421817 0)
(1.10696 -0.00405627 0)
(1.10617 -0.00390114 0)
(1.10542 -0.00375243 0)
(1.10469 -0.00360991 0)
(1.10399 -0.00347319 0)
(1.10332 -0.00334224 0)
(1.10267 -0.0032165 0)
(1.10205 -0.00309636 0)
(1.10146 -0.00298073 0)
(1.10088 -0.00287107 0)
(1.10033 -0.00276473 0)
(1.0998 -0.00266602 0)
(1.09929 -0.00256786 0)
(1.0988 -0.00248247 0)
(1.09832 -0.00238985 0)
(1.09788 -0.00232474 0)
(1.0974 -0.00222963 0)
(1.09709 -0.0022002 0)
(1.09648 -0.00208748 0)
(1.03046 -0.00374472 0)
(1.02946 -0.00360118 0)
(1.02849 -0.00346367 0)
(1.02756 -0.00333185 0)
(1.02667 -0.00320552 0)
(1.02581 -0.00308435 0)
(1.02498 -0.00296829 0)
(1.02419 -0.00285689 0)
(1.02342 -0.00275041 0)
(1.02269 -0.00264805 0)
(1.02198 -0.00255082 0)
(1.0213 -0.00245691 0)
(1.02065 -0.00236926 0)
(1.02001 -0.00228321 0)
(1.01941 -0.00220692 0)
(1.01881 -0.00212751 0)
(1.01828 -0.00206809 0)
(1.01768 -0.00199044 0)
(1.01729 -0.00196175 0)
(1.01653 -0.00187258 0)
(0.943863 -0.00319205 0)
(0.942738 -0.00306994 0)
(0.941656 -0.00295296 0)
(0.940615 -0.00284083 0)
(0.939615 -0.00273337 0)
(0.938653 -0.0026303 0)
(0.937727 -0.00253157 0)
(0.936837 -0.00243683 0)
(0.935981 -0.00234625 0)
(0.935157 -0.00225926 0)
(0.934364 -0.00217653 0)
(0.9336 -0.0020969 0)
(0.932866 -0.00202224 0)
(0.932157 -0.00194983 0)
(0.93148 -0.00188451 0)
(0.930811 -0.00181943 0)
(0.930206 -0.00176746 0)
(0.929536 -0.00170849 0)
(0.929084 -0.00168157 0)
(0.928241 -0.00161992 0)
(0.847905 -0.00259614 0)
(0.84673 -0.0024971 0)
(0.8456 -0.00240221 0)
(0.844514 -0.00231124 0)
(0.843469 -0.00222406 0)
(0.842464 -0.00214045 0)
(0.841497 -0.00206034 0)
(0.840567 -0.00198349 0)
(0.839672 -0.00190999 0)
(0.838811 -0.00183946 0)
(0.837982 -0.00177234 0)
(0.837184 -0.00170792 0)
(0.836415 -0.0016473 0)
(0.835673 -0.00158919 0)
(0.834963 -0.00153594 0)
(0.834264 -0.00148531 0)
(0.833625 -0.0014421 0)
(0.832928 -0.0014015 0)
(0.832442 -0.00137753 0)
(0.831564 -0.00134583 0)
(0.7426 -0.00199324 0)
(0.741445 -0.00191745 0)
(0.740335 -0.00184482 0)
(0.739267 -0.00177519 0)
(0.738239 -0.00170845 0)
(0.737251 -0.00164444 0)
(0.7363 -0.0015831 0)
(0.735385 -0.00152427 0)
(0.734504 -0.00146799 0)
(0.733656 -0.00141402 0)
(0.73284 -0.00136263 0)
(0.732054 -0.00131344 0)
(0.731297 -0.00126703 0)
(0.730565 -0.00122302 0)
(0.729864 -0.00118215 0)
(0.729176 -0.00114518 0)
(0.728541 -0.00111147 0)
(0.727858 -0.00108744 0)
(0.727363 -0.00106759 0)
(0.726502 -0.00106627 0)
(0.628025 -0.00141814 0)
(0.626956 -0.00136442 0)
(0.625929 -0.00131293 0)
(0.62494 -0.00126356 0)
(0.623989 -0.00121623 0)
(0.623073 -0.00117083 0)
(0.622193 -0.00112733 0)
(0.621345 -0.0010856 0)
(0.620529 -0.00104568 0)
(0.619743 -0.00100742 0)
(0.618986 -0.00097098 0)
(0.618257 -0.000936179 0)
(0.617554 -0.000903285 0)
(0.616875 -0.000872403 0)
(0.616224 -0.000843417 0)
(0.615585 -0.000818576 0)
(0.61499 -0.000794351 0)
(0.614359 -0.000783826 0)
(0.613883 -0.00076897 0)
(0.613085 -0.000795794 0)
(0.504298 -0.000902658 0)
(0.503377 -0.000868607 0)
(0.502491 -0.000835967 0)
(0.501638 -0.000804663 0)
(0.500817 -0.000774647 0)
(0.500027 -0.000745851 0)
(0.499267 -0.000718252 0)
(0.498535 -0.00069178 0)
(0.49783 -0.000666455 0)
(0.497151 -0.000642196 0)
(0.496497 -0.000619086 0)
(0.495866 -0.000597064 0)
(0.495259 -0.000576223 0)
(0.494672 -0.000556856 0)
(0.494107 -0.00053849 0)
(0.493555 -0.000523732 0)
(0.493035 -0.000508185 0)
(0.492491 -0.000507102 0)
(0.492063 -0.00049729 0)
(0.491365 -0.000546449 0)
(0.371558 -0.000476355 0)
(0.370839 -0.000458471 0)
(0.370147 -0.000441324 0)
(0.369481 -0.000424874 0)
(0.36884 -0.000409097 0)
(0.368223 -0.000393959 0)
(0.367629 -0.000379448 0)
(0.367057 -0.000365528 0)
(0.366505 -0.000352214 0)
(0.365975 -0.000339463 0)
(0.365463 -0.00032732 0)
(0.36497 -0.000315771 0)
(0.364494 -0.000304829 0)
(0.364035 -0.000294784 0)
(0.363592 -0.000285119 0)
(0.363159 -0.000278029 0)
(0.362749 -0.000269626 0)
(0.362322 -0.00027335 0)
(0.361973 -0.000267554 0)
(0.361407 -0.00032777 0)
(0.229936 -0.000173431 0)
(0.229469 -0.00016696 0)
(0.22902 -0.000160753 0)
(0.228587 -0.000154796 0)
(0.228171 -0.000149083 0)
(0.227769 -0.000143597 0)
(0.227383 -0.00013834 0)
(0.227011 -0.000133294 0)
(0.226652 -0.000128471 0)
(0.226307 -0.000123852 0)
(0.225974 -0.000119455 0)
(0.225653 -0.000115284 0)
(0.225343 -0.000111323 0)
(0.225043 -0.000107758 0)
(0.224754 -0.000104215 0)
(0.224472 -0.000102048 0)
(0.224203 -9.86919e-05 0)
(0.223923 -0.000102806 0)
(0.223685 -9.96976e-05 0)
(0.223287 -0.000151838 0)
(0.0795459 -2.88676e-05 0)
(0.079376 -2.78017e-05 0)
(0.0792125 -2.67789e-05 0)
(0.0790551 -2.57966e-05 0)
(0.0789035 -2.48541e-05 0)
(0.0787574 -2.39485e-05 0)
(0.0786167 -2.30805e-05 0)
(0.0784812 -2.22468e-05 0)
(0.0783505 -2.14511e-05 0)
(0.0782246 -2.06883e-05 0)
(0.0781032 -1.99636e-05 0)
(0.077986 -1.92788e-05 0)
(0.077873 -1.86243e-05 0)
(0.0777636 -1.80602e-05 0)
(0.077658 -1.74524e-05 0)
(0.0775547 -1.72323e-05 0)
(0.077456 -1.65314e-05 0)
(0.0773528 -1.81816e-05 0)
(0.0772621 -1.729e-05 0)
(0.0770876 -3.84049e-05 0)
)
;

boundaryField
{
    fixedWalls
    {
        type            noSlip;
    }
    inlet
    {
        type            fixedValue;
        value           nonuniform 0();
    }
    outlet
    {
        type            zeroGradient;
    }
    frontAndBack
    {
        type            empty;
    }
    procBoundary7to3
    {
        type            processor;
        value           nonuniform List<vector> 
20
(
(1.44573 0.000506086 0)
(1.44769 0.000486826 0)
(1.44958 0.000468309 0)
(1.45139 0.000450509 0)
(1.45314 0.000433433 0)
(1.45482 0.000417016 0)
(1.45643 0.000401287 0)
(1.45799 0.000386108 0)
(1.45948 0.000371662 0)
(1.46093 0.000357608 0)
(1.46231 0.000344466 0)
(1.46365 0.000331323 0)
(1.46492 0.000319686 0)
(1.46619 0.000307077 0)
(1.46733 0.000297425 0)
(1.46856 0.000284495 0)
(1.46954 0.000277898 0)
(1.47083 0.000263398 0)
(1.47149 0.000261141 0)
(1.47312 0.000244596 0)
)
;
    }
    procBoundary7to6
    {
        type            processor;
        value           nonuniform List<vector> 
20
(
(1.44369 -0.000525956 0)
(1.43868 -0.00155399 0)
(1.4285 -0.00251135 0)
(1.41286 -0.00335578 0)
(1.39132 -0.004052 0)
(1.36338 -0.00457372 0)
(1.32848 -0.00490509 0)
(1.28605 -0.00504125 0)
(1.23556 -0.00498824 0)
(1.17655 -0.00476205 0)
(1.10862 -0.00438718 0)
(1.03151 -0.00389457 0)
(0.945034 -0.00331953 0)
(0.849127 -0.00269955 0)
(0.743801 -0.00207236 0)
(0.629136 -0.00147421 0)
(0.505256 -0.000938189 0)
(0.372305 -0.000495011 0)
(0.230422 -0.000180178 0)
(0.0797223 -2.9978e-05 0)
)
;
    }
}


// ************************************************************************* //
