/*--------------------------------*- C++ -*----------------------------------*\
| =========                 |                                                 |
| \\      /  F ield         | OpenFOAM: The Open Source CFD Toolbox           |
|  \\    /   O peration     | Version:                                        |
|   \\  /    A nd           | Website:  www.openfoam.com                      |
|    \\/     M anipulation  |                                                 |
\*---------------------------------------------------------------------------*/
FoamFile
{
    version     2.0;
    format      ascii;
    class       volVectorField;
    location    "101";
    object      U;
}
// * * * * * * * * * * * * * * * * * * * * * * * * * * * * * * * * * * * * * //

dimensions      [0 1 -1 0 0 0 0];


internalField   nonuniform List<vector> 
1161
(
(1.27394 -0.521324 -1.89313e-19)
(1.21817 -0.500516 3.2943e-19)
(1.14884 -0.471899 -4.99783e-20)
(1.11916 -0.45397 2.68353e-21)
(1.06243 -0.432858 4.10274e-20)
(1.02547 -0.396869 6.90524e-21)
(0.98315 -0.350383 -5.43434e-20)
(0.94858 -0.313091 -3.20369e-20)
(0.942907 -0.278837 -3.9764e-20)
(0.901524 -0.230848 -6.10972e-20)
(1.18279 -0.412211 -2.15693e-19)
(1.13353 -0.378753 4.26775e-20)
(1.08863 -0.361507 8.97823e-20)
(1.06541 -0.330538 -1.85889e-19)
(1.04943 -0.311611 1.43835e-20)
(1.02307 -0.289009 5.99232e-20)
(1.00419 -0.255372 1.66888e-19)
(0.955207 -0.227705 -1.21308e-19)
(1.16958 -0.285807 -1.56187e-19)
(1.13618 -0.266758 4.9903e-20)
(1.09744 -0.248439 2.12277e-19)
(1.07439 -0.211772 -7.96734e-20)
(1.04807 -0.19756 2.89757e-20)
(1.04138 -0.173541 -4.89413e-21)
(1.10584 -0.20538 -1.69868e-19)
(1.08923 -0.185573 6.98155e-20)
(1.0574 -0.161249 4.74753e-20)
(-0.0066849 0.207122 5.23943e-20)
(0.0323459 -0.0903976 -6.14166e-20)
(0.0793532 -0.367576 8.40196e-22)
(0.113963 -0.599693 2.37683e-20)
(0.130169 -0.78722 -3.56318e-20)
(0.142665 -0.954446 -1.87746e-20)
(0.161609 -1.11252 5.12148e-20)
(0.179839 -1.24921 -3.42765e-20)
(0.18373 -1.34879 3.79178e-20)
(0.178 -1.41033 3.02212e-20)
(0.153809 -1.44765 -2.57594e-20)
(0.0985476 -1.44748 -2.94476e-20)
(0.119295 -1.30932 2.34325e-20)
(0.113882 -1.06499 1.45293e-20)
(0.225386 -0.836171 5.91304e-20)
(0.314074 -0.516651 -7.87022e-22)
(0.398189 -0.137049 -2.46867e-20)
(0.14162 -0.122155 -5.24567e-20)
(0.207949 -0.399009 3.78877e-21)
(0.244856 -0.612549 -5.11111e-20)
(0.25989 -0.781157 -2.61158e-21)
(0.276845 -0.951282 4.15523e-20)
(0.307083 -1.1261 -1.96153e-19)
(0.340219 -1.26541 6.93749e-20)
(0.347883 -1.33965 3.43685e-20)
(0.32992 -1.35328 -1.29895e-19)
(0.279957 -1.33555 2.57302e-20)
(0.176791 -1.32804 1.60195e-20)
(0.146445 -1.22319 -5.50772e-20)
(0.0445279 -1.05518 -2.18853e-19)
(0.126289 -0.956629 1.36095e-20)
(0.131484 -0.631201 3.46211e-20)
(0.175769 -0.292431 5.73649e-20)
(0.243782 -0.135857 3.19146e-19)
(0.326346 -0.397811 -1.13089e-19)
(0.355998 -0.596199 -1.68382e-19)
(0.373272 -0.763286 7.82672e-20)
(0.420985 -0.936067 1.24418e-19)
(0.483658 -1.10738 -1.76886e-19)
(0.523955 -1.23166 3.51227e-20)
(0.522657 -1.28349 2.01845e-19)
(0.495195 -1.269 -2.24545e-19)
(0.44374 -1.20012 1.10306e-20)
(0.338326 -1.17967 7.94817e-20)
(0.287036 -1.11114 2.05304e-20)
(0.110816 -1.0231 8.48708e-21)
(0.165383 -1.01005 2.41291e-19)
(0.0134574 -0.709191 -1.95037e-19)
(0.079034 -0.470863 8.38306e-20)
(0.344791 -0.12614 8.97643e-20)
(0.435576 -0.361918 -2.53174e-19)
(0.466909 -0.54721 2.04403e-19)
(0.520449 -0.731906 6.88206e-20)
(0.623524 -0.929559 -4.13621e-20)
(0.720601 -1.09165 4.75711e-20)
(0.760331 -1.18337 2.04426e-19)
(0.739087 -1.21235 5.91418e-21)
(0.688351 -1.19341 -2.13891e-19)
(0.612434 -1.10729 -6.03903e-20)
(0.520649 -1.02384 -1.9208e-20)
(0.482892 -0.922879 6.6519e-20)
(0.263939 -0.847762 8.6847e-20)
(0.299106 -0.868919 2.74725e-20)
(0.0431765 -0.719458 -1.1331e-19)
(0.163133 -0.610696 9.18545e-20)
(0.407508 -0.129156 8.57203e-20)
(0.479708 -0.339115 -5.79645e-19)
(0.535616 -0.531668 7.69883e-19)
(0.672734 -0.739286 -4.0726e-19)
(0.836703 -0.928776 -3.62287e-19)
(0.943373 -1.05498 2.9095e-19)
(0.966986 -1.10606 -2.09246e-19)
(0.92463 -1.09988 3.51799e-20)
(0.846359 -1.05885 -1.01182e-19)
(0.725423 -1.02012 1.08211e-19)
(0.64062 -0.949449 7.20731e-20)
(0.596774 -0.819754 1.43995e-19)
(0.402088 -0.705633 -7.52032e-20)
(0.465728 -0.657763 -2.78168e-20)
(0.240935 -0.626071 -6.63575e-20)
(0.343354 -0.619585 1.56714e-19)
(0.474376 -0.329295 -5.33508e-19)
(0.647568 -0.557222 1.86037e-21)
(0.884391 -0.781859 2.02594e-19)
(1.05362 -0.94056 1.05309e-19)
(1.10702 -1.01779 -3.12794e-19)
(1.06974 -1.03154 1.45608e-20)
(0.991983 -1.0012 -2.45389e-19)
(0.897309 -0.929081 4.07455e-19)
(0.791829 -0.869488 -1.41307e-19)
(0.723165 -0.835773 -1.50157e-19)
(0.633129 -0.737469 -2.70731e-21)
(0.526073 -0.66093 -7.76232e-20)
(0.575322 -0.549932 8.84765e-20)
(0.462594 -0.463639 3.8737e-20)
(0.503008 -0.419941 -5.41035e-20)
(0.89563 -0.65316 -5.86352e-20)
(1.13944 -0.819681 5.15275e-19)
(1.22908 -0.903106 7.62005e-19)
(1.19826 -0.924719 -1.65814e-19)
(1.10755 -0.91223 1.23791e-19)
(1.00256 -0.885754 1.60213e-19)
(0.901938 -0.86213 -3.51712e-19)
(0.832231 -0.792722 1.70824e-21)
(0.779764 -0.718868 3.72424e-19)
(0.673804 -0.663882 -3.1446e-20)
(0.700628 -0.617257 -1.69912e-19)
(0.649679 -0.566357 1.26773e-19)
(0.63915 -0.47663 -5.65968e-20)
(0.61817 -0.363491 -5.70595e-21)
(1.29863 -0.790426 8.83417e-20)
(1.28113 -0.81473 3.70859e-19)
(1.20297 -0.80803 -6.27575e-19)
(1.11843 -0.782654 -2.79808e-19)
(1.03482 -0.745895 -1.57145e-19)
(0.966104 -0.714416 2.30534e-20)
(0.920898 -0.695368 -1.64747e-19)
(0.842628 -0.637633 -1.2493e-19)
(0.804261 -0.580386 2.3094e-20)
(0.806447 -0.539257 2.14167e-19)
(0.755643 -0.484919 -9.34295e-20)
(0.710235 -0.422217 -3.00176e-20)
(0.725501 -0.396604 2.03943e-20)
(1.27935 -0.717886 9.11548e-20)
(1.21811 -0.708175 1.29674e-19)
(1.16065 -0.688801 2.8916e-20)
(1.10886 -0.664635 -2.59345e-20)
(1.07117 -0.617534 1.0454e-19)
(1.01391 -0.56764 2.26932e-20)
(0.960759 -0.555322 -1.05327e-19)
(0.968127 -0.500056 4.46426e-20)
(0.879312 -0.467985 1.29329e-19)
(0.847884 -0.382729 -1.84353e-19)
(0.791392 -0.355035 1.53377e-19)
(0.802706 -0.281283 -1.0929e-19)
(1.29439 -0.609442 -1.17261e-19)
(1.24617 -0.586098 -1.25936e-19)
(1.19945 -0.557231 3.99011e-19)
(1.14962 -0.537841 -2.54999e-19)
(1.08435 -0.506836 7.91534e-20)
(1.07121 -0.452876 -1.32092e-19)
(0.992553 -0.428106 1.21627e-19)
(0.980993 -0.398119 -1.11957e-19)
(0.940014 -0.357937 1.30018e-19)
(0.918878 -0.344888 7.27551e-20)
(0.90899 -0.2834 2.25744e-20)
(0.526412 0.36092 2.72972e-20)
(0.604658 0.790654 -6.56108e-21)
(0.658545 1.00446 4.30431e-21)
(0.713 1.05458 1.93101e-21)
(0.753491 1.04402 -9.21838e-21)
(0.771921 1.00238 2.56726e-21)
(0.791978 0.970177 2.30213e-21)
(0.793541 0.994299 -3.78481e-21)
(0.772192 1.07468 3.56334e-21)
(0.732571 1.09776 -1.3488e-20)
(0.68066 0.970556 -1.28549e-21)
(0.62198 0.67272 -1.27652e-21)
(0.599862 0.207271 1.11675e-20)
(0.577723 -0.304886 7.43353e-21)
(0.588727 -0.706608 -6.52234e-21)
(0.603398 -0.892558 -5.63851e-22)
(0.662218 -0.919571 -4.45393e-22)
(0.674555 -0.892925 -2.02068e-21)
(0.696382 -0.866457 3.80112e-21)
(0.644997 -0.880494 -1.88885e-21)
(0.2737 0.205219 -1.54401e-20)
(0.372652 0.635517 -2.68972e-20)
(0.479963 0.876118 5.42925e-21)
(0.583741 0.959228 2.28709e-20)
(0.67079 0.989748 1.23878e-20)
(0.733613 0.979396 -5.56161e-21)
(0.791559 0.963427 -3.80193e-21)
(0.840766 1.0077 2.2158e-20)
(0.865242 1.10132 -2.27534e-20)
(0.869099 1.15061 -2.8931e-20)
(0.864094 1.04895 1.41696e-21)
(0.835044 0.740167 7.14958e-20)
(0.81604 0.251068 -5.69579e-20)
(0.793582 -0.295728 -4.27719e-20)
(0.774072 -0.73498 6.97556e-20)
(0.742725 -0.954187 -2.23372e-20)
(0.753037 -0.964922 7.50239e-22)
(0.733671 -0.907586 1.68921e-20)
(0.703453 -0.859854 -2.19163e-20)
(0.635886 -0.827259 8.05304e-21)
(0.0818737 -0.0210173 -8.88092e-20)
(0.206145 0.430186 1.53207e-20)
(0.35529 0.717509 1.40468e-20)
(0.49372 0.858394 -1.70927e-20)
(0.601227 0.92016 1.01874e-20)
(0.694165 0.913136 -7.33827e-21)
(0.772799 0.895815 2.70299e-20)
(0.847778 0.948209 2.663e-21)
(0.927749 1.06938 2.0483e-20)
(0.981364 1.16834 5.03818e-21)
(1.01904 1.11691 -7.55562e-20)
(1.03228 0.838107 5.1272e-21)
(1.03498 0.353811 -4.07644e-20)
(1.02198 -0.213384 7.25188e-20)
(0.972784 -0.676689 -3.41461e-20)
(0.908609 -0.929295 3.88948e-20)
(0.848265 -0.963044 2.10024e-20)
(0.801557 -0.892347 -2.91895e-20)
(0.747621 -0.824364 -1.65767e-20)
(0.652783 -0.787094 8.40505e-21)
(0.0290483 -0.231135 -7.30277e-20)
(0.168415 0.189537 3.54556e-20)
(0.28074 0.492418 3.97781e-20)
(0.418874 0.694887 -2.75519e-20)
(0.54205 0.80882 2.11789e-20)
(0.649662 0.844317 -2.96018e-20)
(0.753798 0.832402 2.78123e-20)
(0.851539 0.857329 7.69439e-21)
(0.963142 0.968376 -3.9422e-20)
(1.05201 1.10093 1.62315e-20)
(1.12975 1.11325 4.5897e-20)
(1.18375 0.90106 -6.2665e-20)
(1.21748 0.457862 4.62059e-20)
(1.22904 -0.110632 2.04797e-20)
(1.16821 -0.599005 2.16396e-20)
(1.08218 -0.878728 -8.5813e-20)
(0.976662 -0.932773 1.49408e-20)
(0.890923 -0.883108 -5.01487e-21)
(0.801822 -0.806297 2.25059e-20)
(0.705522 -0.740671 -4.70499e-21)
(0.127036 -0.391073 -1.02775e-19)
(0.209045 -0.0561268 1.47822e-21)
(0.264767 0.265888 7.82133e-20)
(0.375346 0.496184 -5.22876e-20)
(0.489363 0.63841 -3.39264e-21)
(0.597925 0.697256 1.51336e-20)
(0.726586 0.697734 2.31794e-21)
(0.843027 0.716247 -7.54923e-21)
(0.984941 0.811324 -5.37344e-20)
(1.11771 0.967021 1.61373e-20)
(1.2314 1.05484 3.70189e-20)
(1.32084 0.940869 -1.194e-20)
(1.37474 0.577583 1.17653e-19)
(1.39156 0.0720017 5.28225e-20)
(1.33762 -0.417261 -1.32308e-19)
(1.24029 -0.755004 -4.62237e-20)
(1.10217 -0.858398 1.47029e-20)
(0.983704 -0.813137 -4.87769e-21)
(0.862949 -0.750992 2.49885e-20)
(0.759855 -0.697407 -1.87844e-20)
(0.357711 -0.402124 4.91833e-20)
(0.280553 -0.250089 -1.08951e-20)
(0.295008 0.0484941 1.13788e-20)
(0.368167 0.309614 -2.79661e-21)
(0.457643 0.498691 -1.64037e-20)
(0.557211 0.582829 1.18817e-20)
(0.671777 0.580223 -6.50561e-21)
(0.792583 0.565762 3.4813e-20)
(0.933008 0.622453 -5.39371e-20)
(1.06421 0.781394 2.15841e-20)
(1.21052 0.922122 -6.58993e-20)
(1.35024 0.897558 2.18174e-20)
(1.43274 0.628409 4.61542e-20)
(1.46404 0.184442 5.94484e-20)
(1.43519 -0.283654 3.0625e-21)
(1.34818 -0.624394 -4.6234e-20)
(1.20676 -0.769473 4.27691e-21)
(1.06038 -0.763705 6.31619e-21)
(0.939582 -0.70867 -7.98617e-21)
(0.812411 -0.656582 -3.68074e-20)
(0.569186 -0.27131 -1.08266e-20)
(0.446248 -0.23949 -9.62162e-21)
(0.359433 -0.0884696 1.63797e-23)
(0.365901 0.130015 2.48857e-21)
(0.431691 0.332057 -2.35546e-21)
(0.525939 0.455132 2.18492e-21)
(0.642171 0.484407 1.27775e-21)
(0.770268 0.463133 2.66538e-21)
(0.894519 0.478149 3.99805e-21)
(1.03499 0.589439 1.68214e-21)
(1.18013 0.746859 9.34765e-21)
(1.30263 0.823761 -1.09713e-20)
(1.41342 0.686135 -5.67803e-20)
(1.47971 0.351006 6.52428e-20)
(1.48358 -0.0732439 -1.16839e-19)
(1.42235 -0.446283 4.50712e-20)
(1.30727 -0.636625 4.28455e-20)
(1.13967 -0.663776 3.84676e-20)
(1.01842 -0.630342 -2.25389e-20)
(0.8665 -0.594907 -2.86268e-20)
(0.768973 -0.508318 1.18166e-20)
(0.677107 -0.305825 -4.31351e-20)
(0.633098 -0.188974 1.71701e-20)
(0.544429 -0.109123 -6.42961e-21)
(0.468613 0.0187412 1.22736e-20)
(0.454593 0.198598 -1.3464e-20)
(0.516469 0.324482 8.81636e-22)
(0.616647 0.351561 5.41734e-21)
(0.715835 0.330951 -1.63477e-21)
(0.818235 0.322963 4.98548e-22)
(0.933753 0.400129 -1.45666e-20)
(1.07349 0.563117 -1.79643e-20)
(1.2251 0.702506 -6.76776e-22)
(1.3304 0.668551 4.01501e-20)
(1.39496 0.41927 4.20658e-20)
(1.44066 0.0593608 -4.00973e-20)
(1.42456 -0.298005 4.03068e-20)
(1.3559 -0.5155 -3.91139e-20)
(1.20344 -0.583875 -2.9139e-21)
(1.09503 -0.571392 -2.25965e-22)
(0.925939 -0.548215 -2.60499e-21)
(0.829912 -0.492051 6.05153e-22)
(0.749623 -0.275406 2.19519e-20)
(0.708938 -0.222268 2.09017e-20)
(0.660243 -0.124219 -5.88321e-22)
(0.620116 -0.0214244 -3.07622e-21)
(0.601847 0.0961951 -6.97295e-21)
(0.617529 0.236563 1.02558e-20)
(0.672408 0.329537 -1.56854e-21)
(0.724642 0.319692 2.80512e-21)
(0.751699 0.267658 3.48696e-21)
(0.784895 0.270223 -5.64314e-21)
(0.897406 0.371238 1.97104e-23)
(1.07221 0.53905 -5.05023e-21)
(1.2458 0.606297 -3.18553e-20)
(1.37068 0.472104 6.84187e-20)
(1.4308 0.184418 -4.94564e-20)
(1.43211 -0.168365 2.01038e-20)
(1.38401 -0.405871 1.26599e-20)
(1.232 -0.499177 -9.73124e-22)
(1.12444 -0.499595 -2.62058e-20)
(0.969842 -0.476067 1.28776e-20)
(0.857788 -0.46837 -6.20265e-21)
(0.850831 -0.253024 -4.13252e-22)
(0.79469 -0.211772 -8.71289e-22)
(0.738421 -0.159627 5.21146e-21)
(0.695652 -0.0983101 -1.13796e-20)
(0.687969 -0.036426 7.15916e-21)
(0.703554 0.0622096 -1.35282e-20)
(0.723159 0.195606 1.38903e-20)
(0.720077 0.289491 -5.75601e-21)
(0.736182 0.285932 -1.96773e-21)
(0.788812 0.226996 -1.72654e-21)
(0.861346 0.227437 1.30131e-21)
(0.966525 0.359845 1.89811e-20)
(1.04071 0.510942 2.05655e-21)
(1.06029 0.512146 -1.51725e-20)
(1.19026 0.314845 -2.45161e-20)
(1.33374 0.00606962 2.13093e-20)
(1.37757 -0.243514 1.69298e-20)
(1.27548 -0.381122 -1.64204e-20)
(1.17957 -0.435131 -7.57013e-21)
(1.05306 -0.411137 1.18171e-20)
(0.924393 -0.446125 -2.32918e-21)
(0.878552 -0.20834 0)
(0.862358 -0.155352 0)
(0.837825 -0.104416 0)
(0.805269 -0.0555474 0)
(0.776365 -0.0183227 0)
(0.760638 0.0402778 0)
(0.758588 0.153813 0)
(0.787003 0.237631 0)
(0.857475 0.232404 0)
(0.897622 0.188892 0)
(0.877009 0.191044 0)
(0.871775 0.325096 0)
(0.908069 0.472865 0)
(1.04033 0.420177 0)
(1.27855 0.212308 0)
(1.38662 -0.0287108 0)
(1.40001 -0.205634 0)
(1.2974 -0.291509 0)
(1.20641 -0.354822 0)
(1.09805 -0.31711 0)
(0.971134 -0.369929 0)
(0.919064 -0.325669 0)
(0.915854 -0.165032 0)
(0.886766 -0.133226 0)
(0.852376 -0.0918753 0)
(0.83135 -0.0408963 0)
(0.817766 0.00259199 0)
(0.803877 0.0531931 0)
(0.80835 0.143632 0)
(0.84784 0.193183 0)
(0.914821 0.191828 0)
(0.947942 0.186489 0)
(0.916196 0.21064 0)
(0.904757 0.312621 0)
(0.992245 0.401949 0)
(1.16584 0.314974 0)
(1.34274 0.147333 0)
(1.36913 -0.039704 0)
(1.33878 -0.179084 0)
(1.22585 -0.251422 0)
(1.14713 -0.332148 0)
(1.04579 -0.281668 0)
(0.937372 -0.35159 0)
(0.887978 -0.26904 0)
(0.941004 -0.125377 0)
(0.916467 -0.101899 0)
(0.890888 -0.0705296 0)
(0.863222 -0.031853 0)
(0.857327 0.0122328 0)
(0.845543 0.0482772 0)
(0.86173 0.122092 0)
(0.898283 0.160451 0)
(0.936568 0.161304 0)
(0.964863 0.185472 0)
(0.968664 0.224119 0)
(0.996772 0.278092 0)
(1.10661 0.316302 0)
(1.22723 0.220066 0)
(1.33451 0.0900685 0)
(1.31966 -0.0351712 0)
(1.29604 -0.135775 0)
(1.2421 -0.175493 0)
(1.16106 -0.269857 0)
(1.11265 -0.199946 0)
(0.998135 -0.289749 0)
(0.914772 -0.274601 0)
(0.95653 -0.090407 0)
(0.93638 -0.0755162 0)
(0.927367 -0.0456485 0)
(0.89658 -0.0193141 0)
(0.893174 0.0217161 0)
(0.88346 0.0508896 0)
(0.899904 0.101188 0)
(0.928904 0.132314 0)
(0.954436 0.144383 0)
(0.974913 0.164864 0)
(1.00219 0.19772 0)
(1.04388 0.2241 0)
(1.14498 0.229034 0)
(1.21826 0.148506 0)
(1.28212 0.0806948 0)
(1.28338 -0.0102788 0)
(1.23625 -0.12196 0)
(1.21469 -0.149037 0)
(1.08947 -0.258647 0)
(1.03778 -0.177349 0)
(0.957745 -0.251063 0)
(0.871711 -0.227332 0)
(0.969349 -0.0621745 0)
(0.952649 -0.050442 0)
(0.950925 -0.0270458 0)
(0.924381 -0.00872631 0)
(0.922459 0.0247775 0)
(0.915529 0.047548 0)
(0.927827 0.0830263 0)
(0.946247 0.107731 0)
(0.969272 0.12084 0)
(0.984427 0.140852 0)
(1.0231 0.165359 0)
(1.05484 0.167521 0)
(1.14387 0.176295 0)
(1.18451 0.123787 0)
(1.21068 0.0496727 0)
(1.25243 -0.00517137 0)
(1.17443 -0.108541 0)
(1.20995 -0.0899861 0)
(1.10739 -0.19479 0)
(1.11288 -0.124328 0)
(1.076 -0.177825 0)
(0.959821 -0.209471 0)
(0.978791 -0.0394695 0)
(0.965131 -0.0320319 0)
(0.968244 -0.0144178 0)
(0.946376 0.000975367 0)
(0.949065 0.0250126 0)
(0.938348 0.0450276 0)
(0.954754 0.0696807 0)
(0.961344 0.0882217 0)
(0.98899 0.10617 0)
(0.99369 0.114939 0)
(1.03926 0.136241 0)
(1.05812 0.132859 0)
(1.11726 0.126333 0)
(1.16048 0.096129 0)
(1.17274 0.031166 0)
(1.21129 0.0123843 0)
(1.14803 -0.0885235 0)
(1.18022 -0.0702242 0)
(1.07307 -0.184111 0)
(1.04862 -0.139119 0)
(1.0013 -0.162807 0)
(0.934049 -0.167993 0)
(0.985976 -0.023514 0)
(0.979345 -0.0179852 0)
(0.984348 -0.00369343 0)
(0.967552 0.00803746 0)
(0.972892 0.0260139 0)
(0.960011 0.0413899 0)
(0.981239 0.060614 0)
(0.976339 0.0736585 0)
(1.0077 0.0880003 0)
(1.00576 0.0944848 0)
(1.04368 0.105285 0)
(1.06344 0.103538 0)
(1.09783 0.0894436 0)
(1.14218 0.0784694 0)
(1.13188 0.0129799 0)
(1.17768 0.0156061 0)
(1.12192 -0.0914675 0)
(1.14074 -0.0479826 0)
(1.0999 -0.129808 0)
(1.06306 -0.0900929 0)
(1.04402 -0.0909048 0)
(0.965761 -0.153426 0)
(0.995254 -0.0105944 0)
(0.992549 -0.00776787 0)
(0.999277 0.0050068 0)
(0.985541 0.0120371 0)
(0.99328 0.0267148 0)
(0.980572 0.0365139 0)
(1.00038 0.0516111 0)
(0.993538 0.0597114 0)
(1.01922 0.0705341 0)
(1.02 0.0767048 0)
(1.04628 0.0779044 0)
(1.06644 0.0843414 0)
(1.08279 0.0585 0)
(1.12262 0.0642788 0)
(1.10777 -0.000119119 0)
(1.14736 0.0183502 0)
(1.10815 -0.0675024 0)
(1.11243 -0.0321615 0)
(1.08309 -0.112131 0)
(1.03932 -0.0897459 0)
(1.0346 -0.0854858 0)
(0.987859 -0.128729 0)
(1.00227 -0.00246315 0)
(1.00223 -0.00236145 0)
(1.00881 0.00951093 0)
(0.999619 0.0131914 0)
(1.00719 0.0251607 0)
(0.997517 0.0316545 0)
(1.0131 0.0426079 0)
(1.0099 0.0501229 0)
(1.02694 0.0551692 0)
(1.03225 0.0635364 0)
(1.04496 0.05633 0)
(1.0668 0.0677757 0)
(1.07107 0.0370576 0)
(1.1041 0.0529933 0)
(1.09341 -0.00819817 0)
(1.11373 0.0198727 0)
(1.09508 -0.0638604 0)
(1.08306 -0.0256979 0)
(1.08243 -0.0850697 0)
(1.03666 -0.0696928 0)
(1.0418 -0.0491061 0)
(0.997005 -0.103804 0)
(1.00766 0.00329597 0)
(1.01033 0.000148357 0)
(1.01528 0.0124453 0)
(1.01071 0.0126138 0)
(1.01472 0.0235532 0)
(1.01128 0.0273178 0)
(1.02018 0.0354051 0)
(1.02205 0.042252 0)
(1.03019 0.0421987 0)
(1.03869 0.0525357 0)
(1.04438 0.0398255 0)
(1.06254 0.0553079 0)
(1.06414 0.0226618 0)
(1.08608 0.0437838 0)
(1.08069 -0.0120361 0)
(1.08894 0.0164922 0)
(1.08558 -0.0498575 0)
(1.06435 -0.0166105 0)
(1.07534 -0.06651 0)
(1.02856 -0.0532563 0)
(1.03909 -0.0454181 0)
(1.00477 -0.0801358 0)
(1.01292 0.00767958 0)
(1.01745 0.00327609 0)
(1.01925 0.0138289 0)
(1.01923 0.0123221 0)
(1.01911 0.0212873 0)
(1.02058 0.023018 0)
(1.0229 0.0286272 0)
(1.02906 0.0340896 0)
(1.03129 0.0322098 0)
(1.04172 0.0425749 0)
(1.04253 0.0281723 0)
(1.05721 0.0448993 0)
(1.05816 0.0127055 0)
(1.07092 0.0369349 0)
(1.07231 -0.0144551 0)
(1.07001 0.0178961 0)
(1.07633 -0.0420024 0)
(1.04983 -0.0108234 0)
(1.06686 -0.0515431 0)
(1.02415 -0.0441666 0)
(1.04115 -0.0310364 0)
(1.00548 -0.0641774 0)
(1.0168 0.0110042 0)
(1.0222 0.00516011 0)
(1.02328 0.0148537 0)
(1.02475 0.0112232 0)
(1.02224 0.0188792 0)
(1.02578 0.0187051 0)
(1.0248 0.0228841 0)
(1.03318 0.0274783 0)
(1.03115 0.0242649 0)
(1.04221 0.0341192 0)
(1.03926 0.0195267 0)
(1.05246 0.0359466 0)
(1.05127 0.0070885 0)
(1.06066 0.0298261 0)
(1.0627 -0.0125132 0)
(1.05752 0.0147095 0)
(1.06642 -0.0323258 0)
(1.0408 -0.00703689 0)
(1.06032 -0.040163 0)
(1.02185 -0.0302057 0)
(1.04051 -0.0279791 0)
(1.00763 -0.0463291 0)
(1.02068 0.0130026 0)
(1.02701 0.00688649 0)
(1.0249 0.014748 0)
(1.02908 0.0105333 0)
(1.02386 0.0168807 0)
(1.03059 0.0159902 0)
(1.02588 0.0189233 0)
(1.03568 0.0223121 0)
(1.03029 0.018369 0)
(1.04102 0.0273629 0)
(1.03653 0.0135011 0)
(1.04673 0.02929 0)
(1.04603 0.00301058 0)
(1.0509 0.0253391 0)
(1.05517 -0.0121267 0)
(1.04759 0.0142692 0)
(1.05778 -0.0263517 0)
(1.03569 -0.00285533 0)
(1.05294 -0.0309032 0)
(1.02197 -0.022629 0)
(1.03955 -0.0211531 0)
(1.00986 -0.03676 0)
(1.02144 0.0142851 0)
(1.02835 0.00779671 0)
(1.02566 0.0151889 0)
(1.0322 0.0102767 0)
(1.02511 0.0163695 0)
(1.03355 0.0138009 0)
(1.02546 0.016617 0)
(1.03716 0.0178475 0)
(1.02806 0.015016 0)
(1.04082 0.0215418 0)
(1.03197 0.0103915 0)
(1.04387 0.022933 0)
(1.03871 0.00178868 0)
(1.04589 0.0201432 0)
(1.04613 -0.00977086 0)
(1.04208 0.0122222 0)
(1.04947 -0.0206485 0)
(1.03172 0.000221231 0)
(1.04809 -0.0252989 0)
(1.02029 -0.0135878 0)
(1.04027 -0.0193889 0)
(1.01028 -0.0251437 0)
(1.02122 0.0139285 0)
(1.02974 0.0088632 0)
(1.02607 0.014806 0)
(1.03317 0.0104566 0)
(1.02477 0.0148131 0)
(1.03406 0.0125607 0)
(1.02483 0.0141502 0)
(1.03715 0.0154523 0)
(1.02678 0.012186 0)
(1.03928 0.0180559 0)
(1.02906 0.00780676 0)
(1.04037 0.0189666 0)
(1.03411 0.00077414 0)
(1.04095 0.0168869 0)
(1.04005 -0.00813419 0)
(1.03738 0.0109085 0)
(1.04312 -0.0161515 0)
(1.02904 0.00147698 0)
(1.04325 -0.0192241 0)
(1.02007 -0.00984684 0)
(1.03936 -0.0141544 0)
(1.01156 -0.0202566 0)
(1.02224 0.0140923 0)
(1.02973 0.00924516 0)
(1.02488 0.0140752 0)
(1.03214 0.00969776 0)
(1.02393 0.0136932 0)
(1.03337 0.0110823 0)
(1.02433 0.0129698 0)
(1.03589 0.013001 0)
(1.02564 0.0109699 0)
(1.03703 0.0145878 0)
(1.02709 0.00716423 0)
(1.0372 0.015144 0)
(1.03082 0.00141696 0)
(1.03699 0.0134524 0)
(1.03551 -0.00576291 0)
(1.03349 0.00906364 0)
(1.03819 -0.0124157 0)
(1.02648 0.00233567 0)
(1.03925 -0.0154504 0)
(1.01984 -0.00567251 0)
(1.03703 -0.0122784 0)
(1.01393 -0.0138821 0)
(1.02092 0.0133147 0)
(1.02758 0.0094946 0)
(1.02372 0.0128101 0)
(1.03051 0.00969856 0)
(1.02343 0.0122805 0)
(1.03177 0.0105513 0)
(1.0237 0.0113052 0)
(1.03391 0.0116393 0)
(1.0247 0.00941914 0)
(1.03488 0.012612 0)
(1.02561 0.00637694 0)
(1.03478 0.0127427 0)
(1.02801 0.00186895 0)
(1.03449 0.0111459 0)
(1.03138 -0.00362513 0)
(1.03156 0.00739149 0)
(1.03311 -0.00869338 0)
(1.02586 0.00178617 0)
(1.03422 -0.0109634 0)
(1.0206 -0.00486149 0)
(1.03353 -0.00864584 0)
(1.01599 -0.0113247 0)
(1.02086 0.0123925 0)
(1.02684 0.00949172 0)
(1.02362 0.0119103 0)
(1.02903 0.00926622 0)
(1.02305 0.0110725 0)
(1.02964 0.0093985 0)
(1.0231 0.0100113 0)
(1.03128 0.00990318 0)
(1.02387 0.008471 0)
(1.03194 0.0104556 0)
(1.02418 0.00614515 0)
(1.0316 0.0104357 0)
(1.02594 0.00284589 0)
(1.03164 0.00923887 0)
(1.02848 -0.00134086 0)
(1.02953 0.0063328 0)
(1.02965 -0.00550561 0)
(1.02538 0.00197845 0)
(1.03037 -0.00798322 0)
(1.02178 -0.00322263 0)
(1.02972 -0.00716768 0)
(1.01847 -0.00832383 0)
(1.02232 0.0121709 0)
(1.02679 0.0101423 0)
(1.02399 0.0114352 0)
(1.02801 0.00956994 0)
(1.02309 0.0104537 0)
(1.02813 0.00932362 0)
(1.02274 0.00940673 0)
(1.029 0.00932237 0)
(1.02273 0.00799711 0)
(1.0289 0.00925146 0)
(1.02223 0.00601212 0)
(1.02838 0.00880088 0)
(1.02327 0.00340071 0)
(1.02857 0.0074245 0)
(1.02537 0.000104409 0)
(1.02763 0.00484756 0)
(1.02667 -0.00315899 0)
(1.0252 0.00131933 0)
(1.02782 -0.00523509 0)
(1.02313 -0.00262879 0)
(1.02769 -0.00513032 0)
(1.02041 -0.00639467 0)
(1.02207 0.0118447 0)
(1.02578 0.0104191 0)
(1.02386 0.0114331 0)
(1.02709 0.0100962 0)
(1.02341 0.0108387 0)
(1.02721 0.00988459 0)
(1.02308 0.00999108 0)
(1.02773 0.00957474 0)
(1.02278 0.0085898 0)
(1.02727 0.00892435 0)
(1.02188 0.00653419 0)
(1.02642 0.00780887 0)
(1.02219 0.00378686 0)
(1.02649 0.00593217 0)
(1.0236 0.000512883 0)
(1.0259 0.00335607 0)
(1.02448 -0.00254028 0)
(1.02448 0.000572574 0)
(1.02559 -0.00426206 0)
(1.02363 -0.00195001 0)
(1.02577 -0.00403884 0)
(1.02186 -0.00418668 0)
(1.02063 0.0105395 0)
(1.02385 0.00971201 0)
(1.02258 0.0105427 0)
(1.02533 0.00974809 0)
(1.0227 0.0103982 0)
(1.02588 0.00979805 0)
(1.02298 0.009996 0)
(1.02677 0.00963132 0)
(1.02316 0.00899488 0)
(1.02673 0.00896867 0)
(1.02266 0.00722499 0)
(1.02615 0.00760942 0)
(1.02278 0.00459114 0)
(1.02606 0.00541147 0)
(1.02348 0.00132367 0)
(1.02524 0.0026299 0)
(1.02348 -0.00173097 0)
(1.02372 5.59694e-06 0)
(1.02378 -0.00344958 0)
(1.02292 -0.0018798 0)
(1.02369 -0.00329399 0)
(1.02173 -0.00305437 0)
(1.01922 0.0091471 0)
(1.02182 0.00853877 0)
(1.02094 0.00916625 0)
(1.02319 0.00860628 0)
(1.02136 0.00914885 0)
(1.02399 0.00876354 0)
(1.02209 0.00900523 0)
(1.02524 0.0087855 0)
(1.02289 0.00840602 0)
(1.02578 0.00837286 0)
(1.02293 0.00709985 0)
(1.02568 0.00728313 0)
(1.02331 0.00499113 0)
(1.02591 0.00541604 0)
(1.02386 0.00222848 0)
(1.0252 0.00295038 0)
(1.02336 -0.00050867 0)
(1.02362 0.000549301 0)
(1.02288 -0.00222653 0)
(1.0226 -0.00121935 0)
(1.02219 -0.00240137 0)
(1.02143 -0.00224651 0)
(1.01797 0.0078148 0)
(1.02001 0.00736149 0)
(1.01937 0.00775383 0)
(1.02114 0.00734753 0)
(1.01986 0.00769646 0)
(1.02196 0.00743392 0)
(1.02074 0.00758193 0)
(1.02323 0.00744389 0)
(1.02167 0.00714705 0)
(1.02389 0.00713925 0)
(1.02199 0.00623735 0)
(1.0242 0.00641719 0)
(1.02268 0.00480962 0)
(1.02478 0.00512251 0)
(1.0233 0.00284746 0)
(1.02446 0.00330571 0)
(1.02288 0.000797957 0)
(1.02332 0.00140704 0)
(1.02227 -0.000680625 0)
(1.02249 -0.000205983 0)
(1.02138 -0.00121537 0)
(1.02143 -0.00135588 0)
(1.01666 0.00649276 0)
(1.01828 0.00619957 0)
(1.01785 0.00638413 0)
(1.01925 0.00612561 0)
(1.01836 0.00625717 0)
(1.01996 0.00610261 0)
(1.01912 0.0060829 0)
(1.021 0.00602642 0)
(1.01995 0.0057225 0)
(1.02168 0.00579838 0)
(1.0204 0.00513759 0)
(1.02213 0.00535511 0)
(1.02106 0.00424625 0)
(1.0228 0.00452714 0)
(1.02173 0.00300557 0)
(1.02288 0.00331367 0)
(1.02157 0.00165615 0)
(1.02231 0.00193681 0)
(1.02123 0.000545028 0)
(1.02195 0.00058102 0)
(1.02058 -0.000125398 0)
(1.02123 -0.00057809 0)
(1.0158 0.00525307 0)
(1.01703 0.00508121 0)
(1.01672 0.00513031 0)
(1.01776 0.00497218 0)
(1.01711 0.00496826 0)
(1.01831 0.00488655 0)
(1.01775 0.00478474 0)
(1.01919 0.00478094 0)
(1.01846 0.00450859 0)
(1.01977 0.00459651 0)
(1.0188 0.00411366 0)
(1.02013 0.00429443 0)
(1.01932 0.00357063 0)
(1.0208 0.00378076 0)
(1.01993 0.0028254 0)
(1.02109 0.00299698 0)
(1.01994 0.00197688 0)
(1.02095 0.00205542 0)
(1.01986 0.00120315 0)
(1.02099 0.00102316 0)
(1.01955 0.000566969 0)
(1.02066 2.94384e-05 0)
(1.01515 0.00407078 0)
(1.01608 0.00397699 0)
(1.01582 0.00395295 0)
(1.01666 0.00386889 0)
(1.01619 0.00381467 0)
(1.01715 0.00378247 0)
(1.01673 0.00367071 0)
(1.01785 0.00367459 0)
(1.01727 0.00345937 0)
(1.01831 0.00350846 0)
(1.01754 0.00319425 0)
(1.01866 0.00330285 0)
(1.01797 0.00287875 0)
(1.01925 0.00297739 0)
(1.01846 0.00242919 0)
(1.01961 0.00246627 0)
(1.01856 0.00189562 0)
(1.01971 0.00184011 0)
(1.01863 0.0013632 0)
(1.01994 0.0011085 0)
(1.01854 0.000830516 0)
(1.01987 0.000356011 0)
(1.01462 0.00311906 0)
(1.01537 0.0030796 0)
(1.01515 0.00304568 0)
(1.01584 0.00300792 0)
(1.01546 0.00295182 0)
(1.01625 0.00293867 0)
(1.01588 0.00284762 0)
(1.0168 0.00284803 0)
(1.01632 0.0027034 0)
(1.01723 0.00272554 0)
(1.01658 0.00253924 0)
(1.01757 0.00258654 0)
(1.01692 0.0023491 0)
(1.01807 0.00237033 0)
(1.01732 0.00206829 0)
(1.01845 0.00202987 0)
(1.01747 0.00171793 0)
(1.01867 0.00160613 0)
(1.01762 0.00133746 0)
(1.01899 0.0010928 0)
(1.01768 0.000908359 0)
(1.01907 0.000542665 0)
(1.01423 0.00203285 0)
(1.01482 0.00202045 0)
(1.01458 0.00200254 0)
(1.01517 0.00198728 0)
(1.01483 0.00195926 0)
(1.01552 0.00195841 0)
(1.01518 0.00191523 0)
(1.01599 0.00191754 0)
(1.01555 0.00184412 0)
(1.01638 0.00185044 0)
(1.0158 0.00175723 0)
(1.01672 0.00177484 0)
(1.0161 0.00165954 0)
(1.01717 0.00165638 0)
(1.01644 0.00150186 0)
(1.01755 0.00145602 0)
(1.01664 0.00129087 0)
(1.01784 0.00120188 0)
(1.01684 0.00104728 0)
(1.01817 0.000880021 0)
(1.01697 0.000747279 0)
(1.01835 0.000521269 0)
(1.01394 0.00116912 0)
(1.01445 0.00116173 0)
(1.0142 0.00115127 0)
(1.01476 0.00114379 0)
(1.01445 0.00113193 0)
(1.01508 0.00113257 0)
(1.01473 0.00111462 0)
(1.01545 0.00111367 0)
(1.01502 0.00108003 0)
(1.01581 0.00107848 0)
(1.01528 0.0010376 0)
(1.01617 0.00104215 0)
(1.01556 0.000991909 0)
(1.01656 0.000983014 0)
(1.01586 0.000909437 0)
(1.01694 0.000876162 0)
(1.0161 0.000793663 0)
(1.01727 0.00073945 0)
(1.01632 0.000655662 0)
(1.0176 0.000562056 0)
(1.01649 0.000478212 0)
(1.01784 0.000359724 0)
(1.01371 0.000515164 0)
(1.01417 0.000509478 0)
(1.01392 0.00050293 0)
(1.01445 0.000496482 0)
(1.01415 0.000488897 0)
(1.01476 0.000484247 0)
(1.0144 0.000475125 0)
(1.0151 0.000470713 0)
(1.01467 0.000458248 0)
(1.01545 0.000454563 0)
(1.01494 0.000440106 0)
(1.01581 0.00043762 0)
(1.01522 0.000419083 0)
(1.01619 0.000411907 0)
(1.0155 0.000385312 0)
(1.01657 0.000370618 0)
(1.01576 0.000339874 0)
(1.01691 0.000318308 0)
(1.016 0.000285762 0)
(1.01724 0.00025204 0)
(1.01619 0.000219119 0)
(1.01752 0.000177806 0)
(1.07404 -0.131175 -9.42982e-20)
(1.02766 -0.145552 8.5747e-22)
(1.02487 -0.171664 -1.09114e-19)
(0.971414 -0.190772 4.10332e-20)
(0.889981 -0.237374 -3.51618e-20)
(1.06046 -0.103274 3.08025e-20)
(1.01708 -0.111645 -7.20008e-20)
(1.00679 -0.144116 5.28866e-20)
(0.988552 -0.137789 2.44906e-20)
(0.92268 -0.19286 2.78455e-20)
(1.04471 -0.0853121 -1.76589e-20)
(1.02173 -0.0772654 1.68419e-20)
(0.996985 -0.117442 2.59052e-20)
(1.00289 -0.0938349 -4.23923e-20)
(0.950579 -0.140599 -2.78212e-20)
(1.02784 -0.0683076 -7.72097e-21)
(1.02475 -0.0474433 4.79692e-22)
(0.989402 -0.0918598 -1.25707e-20)
(0.995665 -0.0699871 5.42556e-20)
(0.957989 -0.10566 4.236e-20)
(1.02103 -0.0335233 -1.26474e-20)
(0.986422 -0.0705539 -2.80133e-20)
(0.992268 -0.052324 -5.98104e-21)
(0.961487 -0.078719 -2.71586e-20)
(1.01806 -0.0223007 2.00337e-20)
(0.988173 -0.0499887 2.98107e-20)
(0.998516 -0.0327538 -1.46263e-20)
(0.969436 -0.0543505 1.90392e-20)
(1.01748 -0.0143472 1.46255e-20)
(0.991256 -0.0346411 -9.24226e-21)
(1.00206 -0.0196808 1.00761e-20)
(0.978801 -0.0354063 -1.19907e-20)
(1.01761 -0.00740899 -2.10129e-20)
(0.994125 -0.0248383 1.17295e-20)
(1.00309 -0.0111302 -2.27067e-21)
(0.986452 -0.0227303 5.91838e-21)
(1.01757 -0.00202916 5.13639e-21)
(1.00117 -0.0159982 -1.04286e-20)
(1.00545 -0.00490935 8.1093e-21)
(0.995023 -0.0136916 -1.45259e-20)
(1.0187 0.00415643 1.32372e-20)
(1.00794 -0.00929921 -2.90142e-21)
(1.01009 0.00145386 -4.01147e-21)
(1.00139 -0.00835205 1.24959e-20)
(1.01989 0.00927156 -8.66643e-21)
(1.0135 -0.00278875 7.6163e-21)
(1.01496 0.00699247 -1.04898e-20)
(1.00897 -0.00243523 -9.09518e-21)
(1.0219 0.012532 -7.16929e-21)
(1.01674 0.00115506 8.58427e-22)
(1.01823 0.010717 1.16445e-20)
(1.01341 0.00137918 7.54951e-21)
(1.02127 0.0134495 1.01897e-20)
(1.01739 0.00321638 -2.65079e-21)
(1.01908 0.0126211 -6.22612e-21)
(1.01836 0.00463349 -3.82553e-21)
(1.02127 0.0142313 -3.5028e-21)
(1.02031 0.00608036 -7.73544e-22)
(1.02163 0.0145576 -7.09512e-22)