/*--------------------------------*- C++ -*----------------------------------*\
| =========                 |                                                 |
| \\      /  F ield         | OpenFOAM: The Open Source CFD Toolbox           |
|  \\    /   O peration     | Version:                                        |
|   \\  /    A nd           | Website:  www.openfoam.com                      |
|    \\/     M anipulation  |                                                 |
\*---------------------------------------------------------------------------*/
FoamFile
{
    version     2.0;
    format      ascii;
    class       volScalarField;
    location    "79";
    object      p;
}
// * * * * * * * * * * * * * * * * * * * * * * * * * * * * * * * * * * * * * //

dimensions      [0 2 -2 0 0 0 0];


internalField   nonuniform List<scalar> 
1150
(
0.200142
0.209975
0.220642
0.191258
0.199716
0.209362
0.180001
0.186585
0.194671
0.166019
0.170349
0.149099
0.150916
0.129512
0.0694811
0.0646888
0.0674333
0.0674629
0.0693861
0.0692245
0.070544
0.0713512
0.0728609
0.0738441
0.0759315
0.0777678
0.0797603
0.0822468
0.0851986
0.0883351
0.0919548
0.0959234
0.100552
0.10558
0.111049
0.117286
0.124029
0.131368
0.139353
0.147905
0.157152
0.167095
0.17784
0.18934
0.0690551
0.0644542
0.0670483
0.0670071
0.0690769
0.0687748
0.0697933
0.0709919
0.0723681
0.07278
0.0753187
0.0771408
0.078465
0.0810287
0.0840771
0.0868965
0.0902714
0.0940085
0.0986902
0.103646
0.109073
0.114379
0.120643
0.127493
0.134987
0.142975
0.151701
0.161084
0.171198
0.181831
0.0685722
0.0642662
0.0666266
0.0665615
0.0687456
0.0683087
0.0690559
0.0706289
0.0718207
0.0717188
0.0747325
0.0764368
0.0772122
0.0798636
0.0829131
0.0854506
0.0886765
0.0925328
0.0965806
0.101081
0.10592
0.110957
0.116772
0.123024
0.129921
0.137155
0.145165
0.1537
0.162933
0.172395
0.0680393
0.0641192
0.0661743
0.0661179
0.0683964
0.0678166
0.0683494
0.0702659
0.0712046
0.0706742
0.0741932
0.0755842
0.0760032
0.0787378
0.0816544
0.0839263
0.0870942
0.0905328
0.0947473
0.0985353
0.102918
0.107393
0.11281
0.118362
0.124536
0.130887
0.13798
0.145298
0.153203
0.160863
0.0674602
0.0640108
0.0656897
0.0656907
0.0680197
0.0673042
0.0676798
0.0699079
0.0705001
0.0697284
0.0736537
0.074648
0.0748759
0.0776705
0.0802643
0.0826427
0.0853445
0.0883676
0.0921617
0.0956404
0.099625
0.103502
0.108294
0.112976
0.11825
0.123416
0.129297
0.135046
0.141274
0.146741
0.0668543
0.0639331
0.0651785
0.0653362
0.0676335
0.0667679
0.0670849
0.0695462
0.0697159
0.0688462
0.0731399
0.0735232
0.0739066
0.0766575
0.0789185
0.0811478
0.0837045
0.086319
0.0898937
0.0929145
0.0964035
0.0996393
0.10382
0.107442
0.111731
0.115503
0.119906
0.123732
0.127819
0.130472
0.0662231
0.0638817
0.0646422
0.0649761
0.0672146
0.0662493
0.0665191
0.0691844
0.068853
0.0681345
0.0725295
0.0723231
0.0729879
0.0754891
0.0771921
0.0797356
0.0817324
0.0839713
0.0874218
0.0897468
0.0927212
0.0951176
0.098542
0.101006
0.104085
0.106254
0.108952
0.110459
0.112117
0.111642
0.0655871
0.0638491
0.0640958
0.0646116
0.0667779
0.0657139
0.066046
0.0687814
0.0679465
0.0675247
0.0718905
0.0710762
0.0723814
0.0743543
0.0759765
0.078529
0.0799963
0.0820106
0.0851461
0.0868822
0.0891952
0.0909224
0.0934972
0.0945394
0.0963426
0.0965429
0.0972733
0.0961424
0.0949464
0.064945
0.0638335
0.0635577
0.06424
0.0663198
0.0652262
0.0656912
0.0683503
0.0670176
0.0670792
0.0710233
0.0699078
0.0717242
0.0728133
0.0743374
0.0771213
0.077615
0.0798128
0.0821929
0.0834445
0.0850467
0.0860741
0.0875618
0.0872663
0.0875623
0.0858296
0.0839948
0.0800697
0.0761194
0.0643122
0.063815
0.0630435
0.0638269
0.065834
0.0647896
0.0652629
0.0678516
0.066122
0.0667758
0.0701648
0.0688534
0.0711095
0.0718919
0.0737727
0.0756438
0.0758613
0.078166
0.0797609
0.0803767
0.0812701
0.0814001
0.0816069
0.0796723
0.0785804
0.074219
0.0704015
0.0627724
0.0637232
0.0638149
0.0625805
0.0633547
0.0652566
0.0643732
0.0648007
0.0673372
0.0653253
0.0664889
0.069084
0.0679098
0.0699453
0.0702172
0.0724832
0.0735615
0.0735414
0.0758429
0.0761334
0.0769632
0.0764056
0.0766303
0.0747929
0.0726218
0.0699239
0.0646236
0.0583265
0.0486014
0.0631442
0.0638189
0.0621851
0.0628902
0.0646198
0.0639873
0.0642473
0.0667773
0.0645625
0.0660752
0.0679281
0.0671414
0.0685705
0.0686408
0.0706825
0.0715939
0.0711938
0.073129
0.0725129
0.073113
0.0717973
0.0713658
0.0680193
0.0658976
0.0611518
0.0553402
0.0471762
0.036832
0.062551
0.0637314
0.0618879
0.0624552
0.0639771
0.0635517
0.0636362
0.0663721
0.0638067
0.0655062
0.0668417
0.0663154
0.0672973
0.0672038
0.0686574
0.069753
0.0685827
0.0700633
0.0692579
0.0687479
0.0673005
0.0657529
0.0618105
0.0587888
0.053109
0.0464951
0.0379268
0.027704
0.0619552
0.0635604
0.0616762
0.0621271
0.0633102
0.0630694
0.063052
0.0655852
0.0630724
0.064798
0.0657564
0.0653148
0.0660924
0.0657405
0.0667128
0.0676481
0.0659318
0.0668412
0.0659534
0.0641583
0.0627318
0.0603115
0.0556491
0.0517526
0.0459487
0.0386091
0.0301372
0.0205287
0.0613747
0.0632578
0.0614866
0.0618643
0.0627149
0.0625109
0.0624787
0.0646778
0.062411
0.063876
0.0646898
0.0641492
0.0647952
0.0642294
0.0647203
0.0652386
0.0634297
0.0633298
0.0624093
0.0598532
0.0579807
0.0550605
0.0498207
0.0451769
0.0395155
0.0319774
0.0237092
0.0148462
0.0608169
0.0628262
0.0612739
0.0616093
0.0621708
0.0618445
0.0619391
0.0636428
0.0617882
0.0628044
0.0635943
0.0628658
0.0632276
0.0627151
0.0625993
0.0625468
0.060985
0.059828
0.0587351
0.05573
0.0531747
0.0501124
0.0445865
0.0392331
0.0337263
0.0265909
0.0185782
0.0103337
0.060285
0.0622631
0.0610445
0.0612868
0.0616462
0.0610929
0.0613884
0.0624961
0.0610897
0.0616803
0.062335
0.0615815
0.0614043
0.0610798
0.0605223
0.0597051
0.0584149
0.0565513
0.0549985
0.0517682
0.0485857
0.0453543
0.0399321
0.0341133
0.0286941
0.0222138
0.014581
0.00688715
0.0597794
0.0615497
0.06077
0.0608629
0.0610833
0.0603184
0.06074
0.0613273
0.0602878
0.0605522
0.0608292
0.0602863
0.0595077
0.059189
0.0585239
0.0569118
0.0555959
0.0534063
0.0513471
0.048028
0.0443163
0.0408395
0.0358694
0.0299493
0.0244665
0.0185616
0.0115858
0.00452469
0.059291
0.0607095
0.0603766
0.0603623
0.0604008
0.059563
0.0599756
0.06016
0.059363
0.059421
0.0592016
0.0589108
0.0577173
0.057054
0.056465
0.054345
0.0526146
0.0502644
0.0478936
0.0445569
0.040531
0.0367716
0.0322337
0.0265849
0.0210954
0.0156777
0.00951935
0.00310024
0.0587989
0.059872
0.0598317
0.0597959
0.0596387
0.0588276
0.0591343
0.0589342
0.0583231
0.0582817
0.057505
0.0573829
0.0560497
0.0548208
0.0541809
0.0519308
0.0497129
0.0471801
0.0446316
0.0413689
0.0372813
0.0332599
0.0290179
0.0239301
0.0186656
0.0136055
0.00815811
0.00240099
0.0582816
0.0590532
0.0591486
0.0591572
0.0588373
0.0580785
0.0582455
0.0576763
0.0571749
0.0571196
0.0558093
0.0556605
0.0544692
0.0526707
0.0516696
0.0495429
0.0470954
0.0442996
0.0415803
0.0384368
0.0345295
0.0304425
0.0263832
0.0218437
0.0169868
0.0122577
0.00743181
0.00239135
0.0577191
0.0582427
0.0583776
0.058437
0.0579924
0.057273
0.0573147
0.0564143
0.0559203
0.0559065
0.054185
0.0537773
0.0528079
0.0506908
0.0491318
0.0471131
0.0447044
0.0417774
0.0388461
0.0357831
0.0322074
0.0282648
0.0243597
0.0202621
0.0159172
0.0116126
0.00734052
0.00296709
0.0570996
0.0574333
0.0575638
0.0576292
0.0570942
0.0564019
0.0563345
0.055166
0.0545831
0.0546151
0.0526536
0.0518141
0.0509877
0.048888
0.0467723
0.0446732
0.0424722
0.039629
0.0365538
0.0334764
0.0301952
0.0265921
0.0229585
0.0192474
0.0153845
0.0115246
0.00774838
0.00398291
0.0564266
0.0566118
0.0567188
0.0567419
0.0561406
0.0554672
0.0552998
0.0539386
0.0532047
0.053226
0.0511902
0.0498868
0.0490371
0.0471739
0.044719
0.0423986
0.0403406
0.0377625
0.0347232
0.0315927
0.0285215
0.0253242
0.0220704
0.018754
0.0153197
0.011891
0.00857779
0.0053623
0.0557101
0.0557633
0.05584
0.0558004
0.0551471
0.0544663
0.0542048
0.0527413
0.0518129
0.0517436
0.0497708
0.0480781
0.0470373
0.045483
0.0429795
0.0403981
0.0383304
0.036102
0.0332943
0.0302081
0.0272557
0.0243853
0.0215607
0.0186803
0.0156838
0.0126633
0.00975734
0.00700625
0.0549497
0.0548862
0.054924
0.0548167
0.0541254
0.0534165
0.053056
0.0515566
0.0504424
0.0502115
0.0483483
0.0464231
0.0451318
0.0437867
0.041446
0.0387402
0.0365798
0.0346019
0.0321518
0.0292751
0.0264275
0.0237922
0.0213431
0.0189147
0.0163765
0.0137538
0.0112111
0.00883825
0.0541453
0.0539851
0.0539729
0.0537951
0.0530852
0.0523345
0.0518579
0.0503741
0.049115
0.0486721
0.0469242
0.0449289
0.0433885
0.0421318
0.0400464
0.0374159
0.0351575
0.0332944
0.0312118
0.0286881
0.0260353
0.0235684
0.0213955
0.019359
0.0172603
0.0150441
0.0128508
0.0108004
0.0532939
0.0530691
0.0529901
0.0527419
0.0520269
0.0512365
0.0506323
0.0491923
0.0478374
0.0471728
0.0455216
0.0435656
0.0418515
0.040599
0.0387532
0.0363312
0.0340732
0.032266
0.0304449
0.0283204
0.0259708
0.0236859
0.0217111
0.0199587
0.0182465
0.016428
0.0145867
0.0128325
0.0523973
0.0521446
0.051983
0.0516694
0.0509485
0.050124
0.0494071
0.0480273
0.046606
0.0457552
0.0441781
0.0423214
0.0405374
0.0392329
0.0375732
0.0354376
0.0332841
0.0315164
0.0298734
0.0281035
0.0261106
0.0240715
0.0222734
0.0207263
0.0193019
0.0178247
0.0163178
0.0148499
0.0514679
0.0512127
0.0509695
0.0505838
0.0498487
0.0490154
0.0482008
0.0468631
0.0454398
0.0444574
0.0429238
0.0411888
0.0394206
0.0380764
0.036546
0.0346901
0.0327275
0.0310404
0.0295332
0.0280138
0.0263551
0.0246126
0.0230166
0.0216309
0.0204035
0.0191949
0.0179825
0.0167894
0.0505171
0.0502771
0.04996
0.0495018
0.0487519
0.0479091
0.0470091
0.0457328
0.0443488
0.0432563
0.0417918
0.0401872
0.0384958
0.0371375
0.0356853
0.0340743
0.0323542
0.0307878
0.0293883
0.0280568
0.0266771
0.0252315
0.0238572
0.0226285
0.021552
0.0205389
0.01956
0.0186024
0.0495704
0.0493413
0.0489677
0.0484431
0.0476673
0.0468116
0.0458658
0.0446448
0.0433176
0.0421771
0.0407884
0.0393116
0.0377308
0.0363862
0.0350213
0.0335989
0.0321139
0.0306987
0.0294236
0.0282368
0.0270649
0.0258631
0.0247095
0.0236488
0.0227101
0.0218452
0.0210404
0.0202728
0.0486397
0.0484151
0.0480011
0.0474208
0.0466177
0.0457509
0.0447813
0.0436089
0.0423672
0.041216
0.0399036
0.0385532
0.0371143
0.0358175
0.0345409
0.033261
0.0319749
0.0307304
0.0295833
0.0285152
0.0275021
0.0264967
0.0255399
0.0246435
0.0238369
0.0230977
0.0224267
0.0218086
0.0477386
0.0475081
0.0470664
0.046445
0.0456282
0.0447544
0.0437827
0.0426618
0.0414991
0.0403774
0.0391467
0.0379079
0.0366139
0.0353948
0.0342121
0.033055
0.031928
0.0308397
0.0298216
0.0288714
0.0279849
0.0271289
0.0263236
0.0255712
0.0248881
0.0242643
0.0237034
0.0232012
0.0468524
0.0466314
0.0461732
0.0455348
0.0447201
0.0438444
0.0428879
0.04182
0.0407324
0.0396586
0.0385113
0.0373689
0.0362108
0.0350932
0.0340072
0.0329574
0.031955
0.0309978
0.0301
0.0292579
0.0284775
0.0277398
0.027056
0.0264234
0.0258471
0.025323
0.0248558
0.0244483
0.0460449
0.0458144
0.0453531
0.0447099
0.0439077
0.0430426
0.0421114
0.0410953
0.0400711
0.0390554
0.0379951
0.0369417
0.0358976
0.0348828
0.0338969
0.0329478
0.0320496
0.0311984
0.0303988
0.0296486
0.0289544
0.0283066
0.0277105
0.0271661
0.0266755
0.026238
0.0258556
0.0255322
0.045314
0.0450813
0.0446241
0.0439884
0.0432081
0.0423592
0.0414547
0.0404867
0.0395184
0.0385626
0.0375869
0.0366198
0.0356757
0.034764
0.0338798
0.0330261
0.0322172
0.0314509
0.0307294
0.030049
0.0294145
0.0288235
0.0282816
0.0277917
0.0273543
0.0269706
0.026642
0.0263744
0.0446901
0.0444603
0.044012
0.04339
0.0426318
0.0418006
0.0409217
0.039996
0.0390705
0.0381641
0.037263
0.0363798
0.0355311
0.0347214
0.0339429
0.0331918
0.0324745
0.0317908
0.0311389
0.030517
0.0299267
0.0293703
0.0288508
0.0283735
0.0279407
0.0275587
0.0272316
0.0269675
0.0442182
0.0439879
0.0435472
0.042938
0.0421986
0.0413819
0.0405224
0.0396262
0.0387336
0.0378693
0.0370271
0.0362018
0.0354077
0.0346528
0.0339358
0.0332526
0.0326089
0.0320097
0.0314565
0.0309496
0.0304867
0.0300676
0.0296863
0.0293382
0.0290127
0.0287031
0.0283997
0.0280972
0.0439486
0.0437107
0.0432725
0.0426762
0.0419606
0.0411711
0.0403424
0.039481
0.0386126
0.0377656
0.036942
0.0361368
0.035365
0.0346379
0.0339566
0.033316
0.0327166
0.0321627
0.0316524
0.0311844
0.0307529
0.0303574
0.0299926
0.0296559
0.0293378
0.0290313
0.0287251
0.0284113
)
;

boundaryField
{
    outlet
    {
        type            fixedValue;
        value           nonuniform 0();
    }
    upperWall
    {
        type            symmetryPlane;
    }
    lowerWall
    {
        type            symmetryPlane;
    }
    inlet
    {
        type            zeroGradient;
    }
    cylinder
    {
        type            zeroGradient;
    }
    frontAndBack
    {
        type            empty;
    }
    procBoundary4to0
    {
        type            processor;
        value           nonuniform List<scalar> 
33
(
0.206659
0.21681
0.227455
0.0698374
0.0649712
0.0677861
0.0679217
0.0696648
0.069667
0.071289
0.0716886
0.073324
0.0748729
0.0765663
0.0783408
0.0810209
0.0834232
0.0862291
0.0896676
0.0935767
0.0976602
0.10235
0.107656
0.113506
0.1199
0.126931
0.13463
0.14302
0.152038
0.161788
0.172235
0.183419
0.195344
)
;
    }
    procBoundary4to5
    {
        type            processor;
        value           nonuniform List<scalar> 
45
(
0.232231
0.220483
0.204659
0.176627
0.176627
0.155253
0.128649
0.128649
0.107395
0.107395
0.0908727
0.0908727
0.0688685
0.0548519
0.0548519
0.0343259
0.0227147
0.0151749
0.00914523
0.00442905
0.000869012
-0.00162186
-0.00314313
-0.00382566
-0.00375932
-0.00300547
-0.00171549
-1.00826e-05
0.00201013
0.00421738
0.00652029
0.00886302
0.0112005
0.0134846
0.0156666
0.0176974
0.0195546
0.0212419
0.0227537
0.0240983
0.025267
0.0261702
0.0267697
0.0277877
0.0280783
)
;
    }
}


// ************************************************************************* //
