/*--------------------------------*- C++ -*----------------------------------*\
| =========                 |                                                 |
| \\      /  F ield         | OpenFOAM: The Open Source CFD Toolbox           |
|  \\    /   O peration     | Version:                                        |
|   \\  /    A nd           | Website:  www.openfoam.com                      |
|    \\/     M anipulation  |                                                 |
\*---------------------------------------------------------------------------*/
FoamFile
{
    version     2.0;
    format      ascii;
    class       volScalarField;
    location    "64";
    object      p;
}
// * * * * * * * * * * * * * * * * * * * * * * * * * * * * * * * * * * * * * //

dimensions      [0 2 -2 0 0 0 0];


internalField   nonuniform List<scalar> 
1136
(
-0.444333
-0.601316
-0.704342
-0.656782
-0.505493
-0.345714
-0.246423
-0.211319
-0.224302
-0.257614
-0.25273
-0.210543
-0.182487
-0.181669
-0.2183
-0.272235
-0.289208
-0.227372
-0.158158
-0.123892
-0.112302
-0.11482
-0.179174
-0.273099
-0.228168
-0.107704
-0.00464057
0.0102997
-0.0114397
-0.00436844
-0.490241
-0.664212
-0.779229
-0.729197
-0.559991
-0.37224
-0.247237
-0.192065
-0.179686
-0.193762
-0.182207
-0.161194
-0.156485
-0.177933
-0.234117
-0.303204
-0.320163
-0.247634
-0.167893
-0.123832
-0.107416
-0.110539
-0.188876
-0.29245
-0.236162
-0.0994329
0.0107896
0.0190028
-0.0068504
-0.00358809
-0.500816
-0.689323
-0.813389
-0.76721
-0.592208
-0.386607
-0.239117
-0.16987
-0.144066
-0.141705
-0.125977
-0.117445
-0.129863
-0.170335
-0.248693
-0.33494
-0.351285
-0.265049
-0.174653
-0.122573
-0.100709
-0.101124
-0.190393
-0.302229
-0.236861
-0.0868745
0.0262655
0.0262083
-0.00295649
-0.00257086
-0.468683
-0.670359
-0.798696
-0.77027
-0.598537
-0.387074
-0.226483
-0.144541
-0.110613
-0.100892
-0.0812507
-0.0773613
-0.1012
-0.160321
-0.260868
-0.364236
-0.379509
-0.27923
-0.178004
-0.120331
-0.0932814
-0.0877316
-0.182117
-0.299975
-0.229671
-0.0705729
0.0409392
0.0317954
-0.000247584
-0.00188115
-0.397243
-0.595222
-0.734966
-0.722938
-0.5706
-0.371949
-0.211097
-0.121556
-0.0818899
-0.0693453
-0.0461357
-0.0440927
-0.0722994
-0.142479
-0.268549
-0.387236
-0.400078
-0.2891
-0.177974
-0.116734
-0.0846907
-0.071051
-0.164155
-0.28444
-0.213551
-0.0511132
0.0536877
0.0364308
0.00194611
-0.0010504
-0.299288
-0.48515
-0.629216
-0.650053
-0.523546
-0.344933
-0.192885
-0.0997267
-0.0581643
-0.0467402
-0.0204008
-0.0136888
-0.0429451
-0.121337
-0.262475
-0.393833
-0.408118
-0.293743
-0.175273
-0.111634
-0.0749703
-0.0526454
-0.137958
-0.256327
-0.18955
-0.0298742
0.0641054
0.0389114
0.00310885
-6.78209e-05
-0.359399
-0.495423
-0.537425
-0.441666
-0.298964
-0.17355
-0.0841284
-0.0408253
-0.0294978
-0.00232262
0.0108952
-0.0171321
-0.0919833
-0.240662
-0.387412
-0.404804
-0.29093
-0.169704
-0.105342
-0.0653476
-0.034888
-0.105755
-0.217328
-0.158195
-0.00822447
0.0716033
0.04018
0.00379159
0.00078414
-0.236906
-0.35626
-0.412487
-0.361982
-0.25452
-0.152933
-0.0713851
-0.0293842
-0.0178151
0.0055701
0.027686
0.0068751
-0.0630659
-0.208772
-0.359718
-0.380788
-0.279988
-0.161634
-0.0982722
-0.056963
-0.0191152
-0.0703083
-0.170495
-0.121941
0.011593
0.0760814
0.039635
0.00378276
0.00192831
-0.134909
-0.233544
-0.290598
-0.278965
-0.201418
-0.128617
-0.0637973
-0.0236529
-0.0104884
0.0061886
0.0367355
0.02546
-0.0325316
-0.168518
-0.323921
-0.357686
-0.264937
-0.153263
-0.0906948
-0.0494792
-0.00685067
-0.0362227
-0.121064
-0.0830262
0.0274972
0.0774403
0.0383782
0.00331391
0.00301364
-0.0664299
-0.13006
-0.166842
-0.172994
-0.14834
-0.100896
-0.0546776
-0.0183428
-0.00499379
0.00735084
0.0374845
0.039633
-0.00471593
-0.130581
-0.277838
-0.312262
-0.238079
-0.139183
-0.0788157
-0.0395169
0.00237564
-0.00837199
-0.0760421
-0.0486206
0.0372484
0.0760007
0.0361044
0.0090916
0.00441564
-0.0634622
-0.109415
-0.138566
-0.108293
-0.06674
-0.035602
-0.00930733
0.00174274
0.0150845
0.0405812
0.0537609
0.0220507
-0.0882509
-0.231222
-0.278369
-0.205881
-0.117524
-0.0634524
-0.0275626
0.0102118
0.00905927
-0.0419112
-0.0210924
0.042392
0.0727692
0.0332934
0.00824176
0.00561063
-0.0337549
-0.0655004
-0.0784001
-0.0676662
-0.0400162
-0.0193126
-0.000962648
0.00730707
0.0211018
0.0448968
0.0582272
0.0392808
-0.0560323
-0.191872
-0.238926
-0.173428
-0.096472
-0.0490052
-0.018014
0.0170774
0.0212982
-0.0185456
-0.0012851
0.0446975
0.0680273
0.0303015
0.00789516
0.00688816
-0.0102268
-0.0218561
-0.0363694
-0.0409017
-0.0219521
-0.00536929
0.00753889
0.0139237
0.0264283
0.045158
0.057911
0.0453937
-0.0363266
-0.150457
-0.190813
-0.13898
-0.0766901
-0.0347023
-0.00816775
0.02238
0.0290199
-0.00311886
0.0109462
0.0447909
0.0625755
0.0271299
0.00750728
0.00823426
0.0139929
0.00497476
-0.0102731
-0.0149479
-0.00302838
0.0085348
0.0154929
0.0216976
0.0341524
0.0438892
0.0468584
0.0456092
-0.0134636
-0.101035
-0.136829
-0.102654
-0.056434
-0.0216165
0.00209638
0.0282205
0.0329261
0.00641283
0.0189572
0.0435895
0.0564693
0.0246746
0.0076807
0.00958376
0.0285395
0.0213917
0.0102712
0.00170768
0.00744134
0.0181684
0.0230818
0.0288947
0.041276
0.0474343
0.0396804
0.0490158
0.0175407
-0.049975
-0.0852918
-0.0693762
-0.0380867
-0.00910896
0.0113931
0.0333508
0.0362064
0.0137222
0.0245448
0.0425444
0.0502414
0.0221522
0.00859537
0.0111027
0.0392377
0.0330389
0.0227434
0.0186597
0.0237687
0.0292709
0.0310245
0.0356071
0.0467214
0.055768
0.065346
0.0645066
0.0472989
-0.00771078
-0.0409975
-0.0390992
-0.0210597
0.00114677
0.0194869
0.0378299
0.0383977
0.0191165
0.0276282
0.0407049
0.0452991
0.0206711
0.00993179
0.0124787
0.0453628
0.0412356
0.0349512
0.0296012
0.0288255
0.0340178
0.0382229
0.0434467
0.0519829
0.0645768
0.0747071
0.0795897
0.0645934
0.0211179
-0.0065418
-0.0156871
-0.00697843
0.0110675
0.0273566
0.0418699
0.0405855
0.0242887
0.0305512
0.0397563
0.040859
0.0208226
0.0126319
0.0137532
0.0503698
0.0469808
0.0413381
0.0383089
0.0398998
0.0421332
0.0442734
0.0481153
0.0554752
0.0678898
0.0764195
0.0833971
0.0702187
0.0371521
0.0131599
0.00226633
0.00588417
0.0197241
0.0333233
0.0449919
0.0426269
0.0276138
0.0319068
0.0396522
0.0393356
0.022159
0.0164598
0.0149485
0.053104
0.0508252
0.0477281
0.0447617
0.0434938
0.0448485
0.0479966
0.0526044
0.0587835
0.0692494
0.079373
0.0822847
0.0702618
0.0463776
0.0292662
0.0162959
0.0157204
0.0261543
0.0367945
0.0461767
0.0440708
0.0321797
0.0345215
0.040479
0.0392112
0.02572
0.0214546
0.0160158
0.055713
0.053712
0.0510428
0.0490288
0.0491065
0.0501232
0.0524753
0.056037
0.0604442
0.0686459
0.0759214
0.0785916
0.0690974
0.0514195
0.0370295
0.0264955
0.0254359
0.0331567
0.0408819
0.0473534
0.0446977
0.0358741
0.0380467
0.0440148
0.0416877
0.031132
0.0281525
0.0170248
0.057393
0.055954
0.0544414
0.0529797
0.0522857
0.0526236
0.0547604
0.0578922
0.0614708
0.0677026
0.0735014
0.0744593
0.0665988
0.054557
0.0451508
0.0355301
0.0316063
0.0370603
0.0449263
0.0505054
0.0475247
0.0428642
0.0431277
0.0475522
0.0452682
0.0372772
0.0355486
0.0180951
0.0591474
0.0579652
0.056747
0.0554282
0.0549602
0.0552807
0.0570808
0.0598265
0.0623611
0.0663424
0.0707897
0.0709095
0.064827
0.056578
0.0493792
0.0414445
0.0383252
0.0435973
0.0493939
0.0526166
0.0498013
0.0491534
0.0478286
0.0533585
0.0497498
0.0465343
0.0440749
0.0190298
0.0604387
0.0594887
0.0585881
0.0577528
0.0574484
0.0573843
0.0585923
0.0607878
0.0626305
0.0649465
0.0683971
0.0680785
0.0629925
0.0574343
0.0529012
0.046644
0.043239
0.0457946
0.0508441
0.054012
0.0512344
0.0484895
0.050984
0.060955
0.0590617
0.0582717
0.053391
0.01967
0.0616656
0.0608834
0.060269
0.0594267
0.0590987
0.0589598
0.0596737
0.0615266
0.06292
0.063781
0.0662279
0.0660389
0.0619892
0.057814
0.0548822
0.0502107
0.0472486
0.0496789
0.0535139
0.0557676
0.0531928
0.0555575
0.0562609
0.0684464
0.0650346
0.0706188
0.0629697
0.0207252
0.0627388
0.0620374
0.0615612
0.0608745
0.0605127
0.0603337
0.0607124
0.0619734
0.0629703
0.0630169
0.0647451
0.0644289
0.0612389
0.0582561
0.0567777
0.0534204
0.0505184
0.0519109
0.0554576
0.0579052
0.0552635
0.0582698
0.0588409
0.0753324
0.0706505
0.0820455
0.0731824
0.0221457
0.0636871
0.0630325
0.0627544
0.0621109
0.0616024
0.0614241
0.061598
0.0623057
0.0630383
0.0626538
0.0635204
0.0632014
0.0610131
0.0586239
0.0572434
0.055143
0.0531214
0.0543396
0.0567392
0.0590306
0.0565293
0.0624963
0.0618951
0.0826918
0.0754443
0.0909518
0.0793642
0.0225344
0.0644857
0.0639713
0.0636572
0.0630779
0.0625219
0.0622993
0.062398
0.0625849
0.0631511
0.0625628
0.0628074
0.0625605
0.0610743
0.0589754
0.0583374
0.0571075
0.0553128
0.0555371
0.057802
0.0607518
0.0579397
0.06416
0.0613414
0.0887952
0.0805981
0.099358
0.0884509
0.0264459
0.0652268
0.0647214
0.0644136
0.063878
0.063337
0.0629693
0.0629579
0.0629259
0.063212
0.0626397
0.0625277
0.0622367
0.0613581
0.059656
0.0592404
0.0584057
0.0569687
0.0573018
0.0587888
0.0619711
0.0587934
0.0645649
0.059113
0.0874033
0.0773483
0.0905729
0.0910485
0.0278663
0.0658615
0.0654049
0.0650707
0.0645618
0.0639816
0.0635187
0.0634513
0.0632433
0.0632827
0.0627383
0.0624458
0.0621746
0.0614673
0.060149
0.0596489
0.0593624
0.0585826
0.0582071
0.0587008
0.0632305
0.0599563
0.0646656
0.0583946
0.0833956
0.0659315
0.0733449
0.0905703
0.0302619
0.0664599
0.0659997
0.065655
0.0651286
0.0645258
0.0640429
0.0638674
0.0636364
0.0634417
0.062887
0.0624842
0.0621267
0.0615717
0.0605426
0.0601411
0.0599422
0.0591998
0.0589341
0.0583614
0.0613942
0.0592532
0.0632079
0.0558937
0.0824552
0.0432247
0.0241128
0.101506
0.0356026
0.0669909
0.0665356
0.0661669
0.0656222
0.0650165
0.0645207
0.0642714
0.0640064
0.0636439
0.0630927
0.0626214
0.0622526
0.0617939
0.0611
0.0606468
0.0605515
0.0606123
0.0596788
0.0589078
0.0596787
0.0579462
0.0605262
0.0539808
0.0719229
0.0152047
-0.012009
0.0985934
0.0288431
0.0674843
0.0670187
0.066603
0.066064
0.0654515
0.0649551
0.0646375
0.0643155
0.0638727
0.0633096
0.0628212
0.0624286
0.0620879
0.0615254
0.061023
0.0610479
0.0608768
0.0603559
0.0603691
0.0627234
0.0590222
0.059676
0.0556633
0.0616562
0.0247881
0.0121111
0.077372
0.0247419
0.0679109
0.0674303
0.0669886
0.0664579
0.0658367
0.065325
0.0649545
0.0645847
0.0641077
0.0635141
0.0630051
0.0626194
0.0622432
0.0617506
0.0612483
0.0611647
0.0609781
0.0605343
0.060387
0.0612743
0.0596546
0.0591624
0.0580733
0.0610561
0.0535211
0.0424778
0.0575866
0.0292742
0.0682798
0.0677999
0.0673316
0.0667861
0.0661732
0.0656436
0.0652341
0.0648158
0.0643048
0.0636942
0.0631614
0.0627348
0.0623032
0.0618213
0.0613162
0.0610657
0.0607566
0.0602847
0.0598796
0.0602708
0.0593651
0.0584819
0.0584943
0.0611506
0.0612841
0.0451013
0.0422829
0.0272288
0.068609
0.0681097
0.0676133
0.0670639
0.0664666
0.0659161
0.0654648
0.065002
0.0644596
0.0638415
0.0632696
0.0627915
0.0623051
0.0617718
0.0612381
0.0607948
0.0603667
0.0598201
0.0592464
0.0591761
0.0583766
0.0573394
0.0570433
0.0578762
0.0559561
0.0416455
0.0323735
0.0199336
0.0688727
0.0683573
0.0678502
0.067297
0.0667046
0.0661388
0.065645
0.0651427
0.0645723
0.0639425
0.0633337
0.0627897
0.0622469
0.0616546
0.0610469
0.0604608
0.0598703
0.0592044
0.0584618
0.0578921
0.0569354
0.0555884
0.0544242
0.0530357
0.0492303
0.0374868
0.0258896
0.0138655
0.0690839
0.0685606
0.068038
0.0674767
0.0668878
0.0663117
0.0657778
0.0652367
0.0646424
0.064001
0.0633585
0.0627494
0.0621394
0.0614763
0.0607829
0.0600691
0.0593245
0.0584917
0.0575435
0.0565394
0.0552577
0.0534813
0.0513925
0.0484143
0.0435163
0.0336977
0.0221903
0.0101647
0.0692457
0.0687128
0.068175
0.0676099
0.0670247
0.0664393
0.0658704
0.0652931
0.0646768
0.0640189
0.0633508
0.0626843
0.0620056
0.0612744
0.0604977
0.0596716
0.0587813
0.0577686
0.0566102
0.0552561
0.0536073
0.0513982
0.0486128
0.0447479
0.0393092
0.0308104
0.0200679
0.00815944
0.0693478
0.0688099
0.0682629
0.0676957
0.0671117
0.0665171
0.0659229
0.0653179
0.0646851
0.0640161
0.0633226
0.0626109
0.0618762
0.0610911
0.0602472
0.0593268
0.0583175
0.0571582
0.0558221
0.0542141
0.0522651
0.0497353
0.0465239
0.0422495
0.0366193
0.0288184
0.0187984
0.00714524
0.0694038
0.0688629
0.0683105
0.0677415
0.0671576
0.066558
0.0659491
0.0653275
0.0646852
0.0640095
0.0633002
0.0625615
0.0617949
0.0609774
0.0600914
0.0591151
0.0580372
0.056792
0.0553494
0.0536014
0.051485
0.0487864
0.0453863
0.0409677
0.0352741
0.0277689
0.0181647
0.00672027
)
;

boundaryField
{
    outlet
    {
        type            fixedValue;
        value           uniform 0;
    }
    upperWall
    {
        type            symmetryPlane;
    }
    lowerWall
    {
        type            symmetryPlane;
    }
    inlet
    {
        type            zeroGradient;
    }
    cylinder
    {
        type            zeroGradient;
    }
    frontAndBack
    {
        type            empty;
    }
    procBoundary7to3
    {
        type            processor;
        value           nonuniform List<scalar> 
30
(
-0.381317
-0.509769
-0.596333
-0.558664
-0.433408
-0.309526
-0.242513
-0.233041
-0.269823
-0.32207
-0.318295
-0.259953
-0.209623
-0.186127
-0.198619
-0.239422
-0.255804
-0.203969
-0.145991
-0.122606
-0.114489
-0.112352
-0.162595
-0.24679
-0.214632
-0.112347
-0.0191783
0.00101191
-0.0165881
-0.00548315
)
;
    }
    procBoundary7to6
    {
        type            processor;
        value           nonuniform List<scalar> 
42
(
-0.328904
-0.349147
-0.346163
-0.303819
-0.240286
-0.164333
-0.201066
-0.201066
-0.116299
-0.0474792
-0.0064305
-0.015864
-0.015864
0.0067089
0.0120506
0.0217674
0.033648
0.0423723
0.0484093
0.052643
0.0554897
0.0576821
0.0594538
0.0608202
0.0620465
0.0629895
0.0638534
0.0646163
0.0652505
0.0658924
0.0665013
0.0670546
0.0675626
0.0680316
0.0684664
0.0688358
0.0691597
0.0694247
0.0696273
0.0697806
0.0698762
0.0699286
)
;
    }
}


// ************************************************************************* //
