/*--------------------------------*- C++ -*----------------------------------*\
| =========                 |                                                 |
| \\      /  F ield         | OpenFOAM: The Open Source CFD Toolbox           |
|  \\    /   O peration     | Version:                                        |
|   \\  /    A nd           | Website:  www.openfoam.com                      |
|    \\/     M anipulation  |                                                 |
\*---------------------------------------------------------------------------*/
FoamFile
{
    version     2.0;
    format      ascii;
    class       volVectorField;
    location    "194.9";
    object      U;
}
// * * * * * * * * * * * * * * * * * * * * * * * * * * * * * * * * * * * * * //

dimensions      [0 1 -1 0 0 0 0];


internalField   nonuniform List<vector> 
1150
(
(0.859877 -0.0379 4.64154e-21)
(0.865724 -0.0588979 -9.23148e-21)
(0.874154 -0.0781587 -2.99254e-20)
(0.88488 -0.0980356 -1.5262e-21)
(0.898445 -0.115087 -6.0189e-21)
(0.913084 -0.133074 2.65915e-20)
(0.848658 -0.0407892 -1.06946e-20)
(0.855566 -0.063164 -2.58925e-21)
(0.865661 -0.0836815 -3.9774e-20)
(0.878489 -0.10496 -1.1984e-20)
(0.894569 -0.122552 -9.65712e-20)
(0.836332 -0.0443879 5.99852e-21)
(0.844505 -0.0685047 2.93242e-20)
(0.856178 -0.0905155 4.94958e-20)
(1.00001 0.00171486 1.97733e-22)
(1.00027 0.00312283 -8.47302e-22)
(1.00074 0.00467277 1.40872e-21)
(1.00146 0.00616244 -9.31175e-22)
(1.00242 0.00779687 -3.95605e-22)
(1.0036 0.00919442 2.06945e-21)
(1.00506 0.0107727 -1.03829e-21)
(1.00704 0.0118783 -3.19418e-23)
(1.0094 0.0131988 -8.79166e-22)
(1.01127 0.0136958 9.221e-22)
(1.0055 -0.00384737 5.71318e-23)
(1.00655 -0.00587645 1.33185e-22)
(1.00727 -0.00813566 2.53098e-22)
(1.00761 -0.0103991 -6.36375e-22)
(1.00753 -0.0129795 3.81846e-22)
(1.00702 -0.0153982 -8.10393e-22)
(1.00585 -0.0182477 1.06649e-21)
(1.00365 -0.0206967 -8.49289e-22)
(1.00067 -0.0237095 4.25439e-22)
(0.999264 -0.0259826 -2.70797e-22)
(1.00117 -0.00865967 -3.68718e-23)
(0.999631 -0.00720365 5.24567e-22)
(0.997956 -0.00592908 1.73155e-22)
(0.996123 -0.00498495 -3.05608e-22)
(0.994155 -0.00415499 -5.84666e-22)
(0.992116 -0.00370787 1.40192e-21)
(0.990166 -0.0031346 1.68621e-21)
(0.988359 -0.00295681 -1.6536e-21)
(0.985993 -0.00232841 9.02246e-22)
(0.982626 -0.00188799 1.33338e-21)
(1.00142 -0.00501637 -1.17519e-22)
(1.00002 -0.00660728 4.95634e-23)
(0.998629 -0.00786007 -4.55092e-23)
(0.997279 -0.00865617 -9.92854e-22)
(0.996061 -0.00908004 9.73171e-22)
(0.995005 -0.0087488 -1.294e-21)
(0.994371 -0.00816304 -1.07523e-21)
(0.994299 -0.00645168 -1.11146e-21)
(0.995111 -0.00473306 -1.26085e-21)
(0.997773 -0.00140487 -2.39834e-22)
(1.00043 -0.000273036 -4.14868e-23)
(1.00124 0.00123401 3.93125e-22)
(1.00219 0.00277716 4.14651e-22)
(1.00341 0.00422654 -1.52507e-21)
(1.00485 0.00571257 -8.76868e-22)
(1.00673 0.00688594 1.67936e-21)
(1.00889 0.00823786 -7.00034e-22)
(1.01151 0.00887137 4.05576e-23)
(1.01417 0.00983071 -1.32951e-21)
(1.01644 0.00930775 -8.90058e-23)
(1.00019 -0.00487872 1.36014e-22)
(0.999876 -0.00656312 -9.56054e-22)
(0.99951 -0.00815479 1.46709e-21)
(0.999074 -0.00930689 7.94059e-22)
(0.998647 -0.0104366 5.89454e-22)
(0.998148 -0.0108603 -8.15983e-22)
(0.997844 -0.0115651 1.63144e-21)
(0.997366 -0.0112393 2.3381e-21)
(0.996514 -0.0115497 2.47892e-22)
(0.995867 -0.0106763 -1.5396e-22)
(0.999083 0.00258907 1.6366e-22)
(1.00002 0.00398425 2.50623e-22)
(1.00118 0.00569457 -1.23202e-21)
(1.00263 0.00724656 6.70999e-22)
(1.00433 0.00909254 6.17932e-22)
(1.00625 0.0102524 -5.35439e-22)
(1.00826 0.0118219 -1.48196e-21)
(1.0107 0.0118929 -1.51911e-21)
(1.01362 0.0126104 1.53713e-21)
(1.01552 0.0110679 5.02146e-22)
(0.998969 -0.00106077 -1.08419e-23)
(1.00049 -0.00306576 1.3862e-22)
(1.00179 -0.00553115 4.17085e-22)
(1.00283 -0.00798077 7.62076e-22)
(1.00351 -0.0111463 1.19378e-21)
(1.00384 -0.013868 -9.33723e-22)
(1.00359 -0.0176698 -1.37508e-21)
(1.00247 -0.0202347 -6.52342e-22)
(0.999452 -0.0241231 -2.09519e-21)
(0.998842 -0.0261649 -6.95369e-22)
(0.996839 -0.00599677 9.57079e-23)
(0.997168 -0.00501023 -4.17335e-22)
(0.997436 -0.00376808 -5.19488e-22)
(0.997476 -0.00271575 -1.47664e-21)
(0.997436 -0.00138946 -2.17056e-21)
(0.996963 -0.000533022 -8.66145e-22)
(0.996245 0.0011448 4.41697e-21)
(0.99536 0.00136993 1.26041e-21)
(0.995945 0.00291636 9.82483e-22)
(0.992981 0.00158082 -2.72436e-21)
(0.995694 -0.0035737 -1.49615e-22)
(0.995734 -0.00553862 7.49406e-22)
(0.995692 -0.00748334 1.5702e-21)
(0.995573 -0.00960712 8.2965e-22)
(0.995263 -0.0122662 -1.65541e-21)
(0.994963 -0.0149104 2.43253e-21)
(0.994648 -0.0189968 -1.58026e-21)
(0.993679 -0.0222176 1.57645e-21)
(0.989854 -0.0274133 -2.39359e-22)
(0.993847 -0.0306917 1.69292e-21)
(0.993431 -0.00660942 1.02832e-22)
(0.993707 -0.00671785 -3.50839e-22)
(0.993802 -0.00721725 -1.4015e-21)
(0.993625 -0.00800787 1.67552e-21)
(0.992996 -0.00876673 2.8654e-21)
(0.991739 -0.00987533 -8.55149e-22)
(0.990079 -0.00980576 -4.24256e-21)
(0.988508 -0.0106965 6.32599e-22)
(0.987535 -0.00889033 -9.26355e-22)
(0.979893 -0.00801575 -4.91015e-21)
(0.99135 -0.0115347 -3.70143e-23)
(0.990987 -0.0133069 2.47618e-22)
(0.990324 -0.0146641 1.71664e-21)
(0.989269 -0.0157691 -1.07007e-21)
(0.987819 -0.0166604 7.22188e-22)
(0.986247 -0.0167865 -1.07561e-21)
(0.984248 -0.0172275 3.04088e-21)
(0.982881 -0.0160653 -9.11796e-21)
(0.981908 -0.0162621 5.00594e-21)
(0.987056 -0.0152167 5.19685e-21)
(0.988561 -0.00822733 3.4945e-22)
(0.9872 -0.008172 -3.97296e-22)
(0.985903 -0.00811648 -3.08939e-21)
(0.984959 -0.00798478 -1.3331e-21)
(0.984467 -0.00807977 -3.51224e-21)
(0.984619 -0.00829246 -6.25264e-21)
(0.985797 -0.00839303 -5.67198e-21)
(0.987241 -0.00936988 1.86723e-21)
(0.989539 -0.00876188 -3.14805e-21)
(0.990898 -0.0106286 9.11776e-21)
(0.987148 -0.010255 -2.83578e-22)
(0.986996 -0.0125595 2.36197e-22)
(0.986891 -0.0148915 5.50112e-22)
(0.986682 -0.0171998 2.99903e-21)
(0.986616 -0.019023 2.29216e-21)
(0.986279 -0.0207651 6.11772e-21)
(0.986247 -0.0214531 9.44277e-21)
(0.986172 -0.0217249 1.92002e-21)
(0.984634 -0.0213157 -1.10333e-21)
(0.987554 -0.0203413 -1.73121e-20)
(0.983802 -0.00977068 2.25425e-22)
(0.983509 -0.0103648 -2.098e-21)
(0.983171 -0.0103626 1.0631e-21)
(0.9829 -0.0101086 -7.20025e-22)
(0.982626 -0.00962434 -8.44106e-22)
(0.983026 -0.00892987 -2.82025e-21)
(0.983454 -0.00825915 -1.13408e-20)
(0.98468 -0.00834124 6.93091e-21)
(0.987563 -0.00780406 8.53337e-21)
(0.985082 -0.0102115 7.38293e-21)
(0.980472 -0.0108601 -4.91173e-22)
(0.980167 -0.0132903 3.24013e-21)
(0.979932 -0.0154933 -1.94958e-21)
(0.979934 -0.0174144 2.64786e-21)
(0.980289 -0.0191836 1.02863e-21)
(0.980796 -0.0210365 -4.10473e-21)
(0.982451 -0.0226328 4.81389e-21)
(0.983469 -0.0236994 5.84194e-21)
(0.983358 -0.0242834 -1.09085e-20)
(0.988495 -0.023885 -7.34075e-22)
(0.976994 -0.00932346 -3.07844e-23)
(0.977289 -0.0106293 -2.88564e-21)
(0.977845 -0.0112651 6.77252e-21)
(0.978635 -0.012021 -4.40912e-21)
(0.979821 -0.0118795 -8.87699e-22)
(0.981031 -0.0122236 4.09897e-21)
(0.983024 -0.0110019 9.32707e-21)
(0.985968 -0.0121115 -6.12375e-21)
(0.988821 -0.00981222 1.06211e-20)
(0.98885 -0.0128702 2.00384e-21)
(0.973059 -0.0102096 1.01342e-21)
(0.973485 -0.0135754 -2.26646e-21)
(0.974021 -0.0165168 -9.38415e-21)
(0.974706 -0.0191577 5.9418e-21)
(0.975696 -0.0216513 8.12636e-22)
(0.977028 -0.0238838 9.3431e-21)
(0.978174 -0.0261535 5.52813e-21)
(0.97993 -0.0280006 -8.75903e-21)
(0.982464 -0.0311132 -2.09441e-20)
(0.984278 -0.032006 1.54576e-20)
(0.968436 -0.0100976 -1.07751e-21)
(0.969761 -0.0123331 2.86693e-21)
(0.971288 -0.0138036 1.3981e-21)
(0.972983 -0.0153355 -3.34314e-21)
(0.975111 -0.0159636 8.2193e-22)
(0.977468 -0.0173309 4.30501e-21)
(0.980581 -0.0169747 3.70001e-21)
(0.983101 -0.018765 7.05657e-21)
(0.98645 -0.0165318 3.38002e-20)
(0.99123 -0.0217114 -1.04935e-20)
(0.963351 -0.0113509 3.186e-22)
(0.964381 -0.0156831 -3.2228e-21)
(0.965687 -0.019269 3.27507e-22)
(0.96726 -0.0230484 -7.16602e-21)
(0.96913 -0.0262307 -1.27316e-20)
(0.971284 -0.0298637 -1.62515e-20)
(0.974078 -0.0333716 1.77114e-21)
(0.976988 -0.0369218 2.07041e-21)
(0.979492 -0.0417264 -3.1011e-20)
(0.982966 -0.045207 -1.08313e-20)
(0.957965 -0.0118383 -7.57927e-22)
(0.959947 -0.0155977 4.64235e-21)
(0.962238 -0.0183963 2.70913e-21)
(0.964888 -0.0213756 1.00493e-20)
(0.968119 -0.0236022 1.10947e-20)
(0.971252 -0.026517 -6.55693e-21)
(0.975143 -0.0276578 -2.79559e-20)
(0.979006 -0.0321578 -1.7607e-20)
(0.982892 -0.0305531 -7.81731e-22)
(0.986458 -0.0395004 -1.03137e-20)
(0.95172 -0.0136095 1.91455e-21)
(0.953552 -0.0196121 1.59618e-21)
(0.955673 -0.0247362 -1.5371e-22)
(0.958063 -0.0301682 -1.28629e-20)
(0.960824 -0.0348195 1.1193e-20)
(0.963955 -0.0403881 3.67863e-21)
(0.967062 -0.0451817 2.99812e-20)
(0.970863 -0.0506126 7.01926e-21)
(0.973043 -0.058189 3.37061e-20)
(0.977536 -0.0621142 2.63957e-20)
(0.944665 -0.0149567 -2.53805e-22)
(0.947363 -0.0207521 1.19762e-21)
(0.950455 -0.0254566 5.84849e-21)
(0.953959 -0.0304537 1.42033e-20)
(0.95797 -0.0347184 2.26652e-21)
(0.962214 -0.0395971 -5.60305e-21)
(0.966744 -0.0432197 -5.1753e-22)
(0.970919 -0.0493927 -1.00623e-20)
(0.97626 -0.0497435 -9.76139e-21)
(0.977908 -0.0612793 1.93931e-20)
(0.936971 -0.0174761 -1.19746e-21)
(0.939588 -0.0257453 2.01455e-21)
(0.94267 -0.0328875 -1.17415e-20)
(0.946094 -0.0405179 -5.78235e-21)
(0.949936 -0.0472075 -3.09863e-20)
(0.954039 -0.0549562 -4.81635e-21)
(0.958525 -0.0617243 -1.9483e-20)
(0.963401 -0.0688187 -6.48178e-21)
(0.965127 -0.0784978 -4.5454e-21)
(0.974163 -0.0820487 -5.49419e-20)
(0.928502 -0.0194095 -3.2878e-22)
(0.931715 -0.0278627 -5.40849e-21)
(0.935549 -0.0349886 -1.41118e-21)
(0.94004 -0.0426368 -7.34948e-21)
(0.945148 -0.0494466 -1.75507e-20)
(0.950585 -0.056642 2.05901e-20)
(0.956262 -0.0628649 1.69148e-20)
(0.961915 -0.0710317 5.27212e-20)
(0.969568 -0.0734087 -1.74691e-20)
(0.968728 -0.0844406 3.63724e-20)
(0.919114 -0.0224922 3.31983e-21)
(0.922514 -0.0337267 -1.05106e-21)
(0.926555 -0.043663 8.70889e-21)
(0.931108 -0.0541107 -9.46212e-21)
(0.936453 -0.0635608 1.74586e-20)
(0.942068 -0.0738353 2.59211e-20)
(0.94828 -0.0826834 -1.05861e-20)
(0.955374 -0.0912409 -9.34497e-21)
(0.958086 -0.102034 1.90678e-20)
(0.974139 -0.10241 5.25796e-22)
(0.908787 -0.0248631 -2.70133e-21)
(0.912592 -0.0367519 2.90377e-21)
(0.917385 -0.047044 -3.38889e-21)
(0.923069 -0.0580174 3.20567e-20)
(0.9297 -0.067775 -1.1669e-20)
(0.937207 -0.0777803 -1.26927e-20)
(0.944912 -0.0867473 -3.96752e-20)
(0.953353 -0.0958452 7.20436e-21)
(0.965563 -0.101075 1.82028e-21)
(0.964911 -0.107167 1.42559e-20)
(0.897631 -0.0284193 1.52277e-22)
(0.901859 -0.0435197 -6.65951e-21)
(0.907061 -0.057005 4.01182e-22)
(0.91326 -0.0710538 -6.87565e-21)
(0.920716 -0.0839053 2.30659e-20)
(0.928619 -0.0973641 -6.07305e-20)
(0.938794 -0.108495 1.89155e-20)
(0.948424 -0.119829 -8.72208e-22)
(0.956432 -0.129802 -2.40505e-20)
(0.978284 -0.126998 -5.65756e-20)
(0.885474 -0.0311774 -5.46932e-22)
(0.889917 -0.047227 -3.68047e-22)
(0.896009 -0.0616104 7.48465e-21)
(0.903393 -0.0767957 1.07318e-21)
(0.912491 -0.0900647 -1.25839e-20)
(0.922695 -0.103961 8.62521e-20)
(0.934211 -0.115205 2.14148e-21)
(0.94799 -0.12601 -4.11275e-20)
(0.962842 -0.13503 -1.55136e-20)
(0.872481 -0.0351678 -2.74623e-21)
(0.877565 -0.0548951 7.70197e-21)
(0.884423 -0.0728816 2.01877e-20)
(0.893142 -0.0916804 4.72676e-21)
(0.903823 -0.108621 8.69919e-20)
(0.91579 -0.125843 -9.55736e-20)
(0.930939 -0.139764 -1.51795e-20)
(1.01624 0.0148928 0)
(1.0196 0.0150857 0)
(1.01622 0.0149285 0)
(1.00776 0.0141164 0)
(1.0007 0.0130162 0)
(0.997846 0.0114389 0)
(0.997804 0.00957994 0)
(0.998503 0.00779924 0)
(0.999338 0.00650411 0)
(1.00057 0.00590407 0)
(1.00206 0.00581677 0)
(1.0031 0.00621073 0)
(1.00342 0.00646044 0)
(1.00272 0.00664191 0)
(1.0014 0.0061699 0)
(1.00008 0.00527885 0)
(0.999015 0.00402544 0)
(0.998445 0.00287452 0)
(0.998309 0.00187423 0)
(0.998451 0.00117747 0)
(0.998703 0.000681168 0)
(0.99895 0.000366011 0)
(0.999162 0.000146445 0)
(0.999316 1.36796e-05 0)
(0.999438 -6.85796e-05 0)
(0.999526 -0.000116281 0)
(0.999594 -0.000122556 0)
(0.999643 -0.000128323 0)
(0.999678 -0.000112209 0)
(0.999701 -3.88892e-05 0)
(0.993083 -0.029118 0)
(0.984354 -0.0306604 0)
(0.981546 -0.0311478 0)
(0.985973 -0.0295306 0)
(0.990248 -0.0263654 0)
(0.990843 -0.021779 0)
(0.990891 -0.0166184 0)
(0.993077 -0.0118049 0)
(0.996793 -0.00816186 0)
(0.999633 -0.00614107 0)
(1.00108 -0.00581417 0)
(1.00068 -0.00718831 0)
(0.999514 -0.00900881 0)
(0.99803 -0.0110452 0)
(0.996381 -0.0117981 0)
(0.995802 -0.0116112 0)
(0.996327 -0.0103338 0)
(0.997613 -0.00875972 0)
(0.998808 -0.00708045 0)
(0.999716 -0.005709 0)
(1.00019 -0.00462389 0)
(1.00043 -0.00382839 0)
(1.00051 -0.00320133 0)
(1.00055 -0.00269497 0)
(1.00054 -0.00225999 0)
(1.00052 -0.00185726 0)
(1.00049 -0.00152017 0)
(1.00045 -0.00119684 0)
(1.00043 -0.000745938 0)
(1.00042 -0.000236524 0)
(0.986976 -0.00130395 0)
(0.999004 -0.00180248 0)
(1.01144 -0.00205682 0)
(1.01986 -0.00335314 0)
(1.02525 -0.00506074 0)
(1.02826 -0.00689064 0)
(1.02675 -0.00825285 0)
(1.0208 -0.00949372 0)
(1.01255 -0.010656 0)
(1.00396 -0.0119111 0)
(0.995837 -0.0129654 0)
(0.991317 -0.0139181 0)
(0.990144 -0.0140886 0)
(0.992608 -0.0139747 0)
(0.99726 -0.0128369 0)
(1.00096 -0.0110523 0)
(1.00317 -0.00887272 0)
(1.00356 -0.00706836 0)
(1.00308 -0.00569963 0)
(1.00223 -0.00488417 0)
(1.00153 -0.0043117 0)
(1.00102 -0.00391285 0)
(1.00071 -0.00352736 0)
(1.00056 -0.00317201 0)
(1.00049 -0.00278543 0)
(1.00047 -0.00238962 0)
(1.00046 -0.00195868 0)
(1.00043 -0.0015868 0)
(1.00041 -0.00105439 0)
(1.0004 -0.000335818 0)
(0.995615 0.00185449 0)
(0.98949 0.00522315 0)
(0.985342 0.00711459 0)
(0.985681 0.00728079 0)
(0.98896 0.00585418 0)
(0.992248 0.00298798 0)
(0.994029 -0.000681139 0)
(0.994103 -0.00419976 0)
(0.993129 -0.0070548 0)
(0.993214 -0.00852083 0)
(0.994755 -0.00816264 0)
(0.997301 -0.00556589 0)
(0.999973 -0.00254965 0)
(1.00243 0.000931647 0)
(1.00484 0.00243164 0)
(1.0061 0.00272448 0)
(1.00598 0.00157367 0)
(1.00491 0.000140822 0)
(1.0038 -0.0013852 0)
(1.00291 -0.00247348 0)
(1.00245 -0.0032295 0)
(1.00216 -0.00356766 0)
(1.00203 -0.00362362 0)
(1.0019 -0.003454 0)
(1.00183 -0.00314568 0)
(1.00174 -0.002749 0)
(1.00167 -0.00228675 0)
(1.00156 -0.00187893 0)
(1.00143 -0.00122395 0)
(1.00137 -0.000370439 0)
(1.02054 0.00929664 0)
(1.01972 0.00785728 0)
(1.012 0.00630326 0)
(1.00207 0.00516989 0)
(0.99421 0.00414553 0)
(0.989909 0.00307874 0)
(0.989676 0.00190909 0)
(0.99209 0.00104695 0)
(0.995854 0.000941806 0)
(0.999569 0.00123051 0)
(1.00306 0.00151031 0)
(1.0045 0.00161443 0)
(1.00431 0.001514 0)
(1.00236 0.00113463 0)
(0.999595 0.000431775 0)
(0.997761 -0.000662308 0)
(0.996914 -0.00179009 0)
(0.99715 -0.00271322 0)
(0.997863 -0.00334932 0)
(0.99881 -0.00364944 0)
(0.999659 -0.0037538 0)
(1.00035 -0.00368448 0)
(1.00083 -0.00352688 0)
(1.00116 -0.00327755 0)
(1.00138 -0.00296286 0)
(1.00149 -0.00258444 0)
(1.00157 -0.00212535 0)
(1.00154 -0.00175666 0)
(1.00143 -0.00118745 0)
(1.0014 -0.000354889 0)
(0.990086 -0.010285 0)
(0.984678 -0.0090652 0)
(0.985052 -0.00745833 0)
(0.989498 -0.00632416 0)
(0.993464 -0.00558167 0)
(0.995344 -0.0048305 0)
(0.995498 -0.00428268 0)
(0.99559 -0.00438039 0)
(0.995822 -0.00495754 0)
(0.996406 -0.00568618 0)
(0.997152 -0.00609076 0)
(0.998727 -0.00626006 0)
(0.999996 -0.00610517 0)
(1.00103 -0.00566656 0)
(1.00185 -0.00526227 0)
(1.00224 -0.00497411 0)
(1.00242 -0.00495248 0)
(1.00247 -0.00502391 0)
(1.00253 -0.00506968 0)
(1.00264 -0.00502084 0)
(1.00276 -0.00484734 0)
(1.00286 -0.00456196 0)
(1.00292 -0.00421095 0)
(1.00295 -0.00382232 0)
(1.0029 -0.00337047 0)
(1.00284 -0.00290396 0)
(1.00274 -0.00237984 0)
(1.0026 -0.00192228 0)
(1.00237 -0.00125284 0)
(1.00229 -0.000367578 0)
(1.02068 0.0111475 0)
(1.01985 0.0098144 0)
(1.00845 0.0080804 0)
(0.994344 0.00599641 0)
(0.985495 0.00429109 0)
(0.982487 0.00235379 0)
(0.983963 0.000582638 0)
(0.98813 -9.77523e-05 0)
(0.993662 0.000309776 0)
(0.999335 0.00155816 0)
(1.00449 0.00270478 0)
(1.00727 0.00365532 0)
(1.00813 0.00358512 0)
(1.00651 0.00304276 0)
(1.00319 0.00168838 0)
(1.00031 2.45977e-05 0)
(0.99854 -0.00174631 0)
(0.998309 -0.00302257 0)
(0.998953 -0.00389411 0)
(0.999945 -0.00427618 0)
(1.00083 -0.00435364 0)
(1.00152 -0.00421149 0)
(1.00203 -0.00396906 0)
(1.00235 -0.00361355 0)
(1.00256 -0.00321826 0)
(1.00268 -0.00279135 0)
(1.00268 -0.00226079 0)
(1.00263 -0.00182659 0)
(1.00243 -0.00121347 0)
(1.00238 -0.000363603 0)
(0.992309 -0.0290734 0)
(0.984361 -0.0301328 0)
(0.984502 -0.0304329 0)
(0.990086 -0.0284456 0)
(0.993633 -0.0249671 0)
(0.993423 -0.0199757 0)
(0.992604 -0.0149181 0)
(0.993711 -0.011539 0)
(0.996242 -0.00979609 0)
(0.997914 -0.0094552 0)
(0.998189 -0.0102416 0)
(0.997332 -0.0120879 0)
(0.996168 -0.0137791 0)
(0.995351 -0.0156177 0)
(0.9948 -0.0160372 0)
(0.995215 -0.0155405 0)
(0.996611 -0.0139991 0)
(0.998587 -0.0123241 0)
(1.00036 -0.0105814 0)
(1.00173 -0.00909518 0)
(1.00258 -0.00782126 0)
(1.00313 -0.00680412 0)
(1.00339 -0.0059142 0)
(1.00356 -0.00513142 0)
(1.00364 -0.00439702 0)
(1.00364 -0.0036603 0)
(1.0036 -0.00291748 0)
(1.0035 -0.00226257 0)
(1.00329 -0.00142542 0)
(1.00322 -0.000432883 0)
(0.998431 0.00367439 0)
(1.00491 0.00229719 0)
(1.0028 0.000274685 0)
(0.999711 -0.00265483 0)
(1.00142 -0.00494659 0)
(1.00466 -0.0065276 0)
(1.00545 -0.0067742 0)
(1.00402 -0.00608312 0)
(1.00219 -0.00545321 0)
(1.00114 -0.00569511 0)
(1.00004 -0.00659219 0)
(0.999606 -0.00800597 0)
(0.999442 -0.00961025 0)
(0.999839 -0.0108432 0)
(1.00064 -0.0115779 0)
(1.00123 -0.0115057 0)
(1.00178 -0.0109214 0)
(1.00224 -0.0100619 0)
(1.00269 -0.00920661 0)
(1.00308 -0.00842771 0)
(1.00342 -0.00764585 0)
(1.00367 -0.00685134 0)
(1.00385 -0.00608725 0)
(1.00397 -0.0053716 0)
(1.00397 -0.00464213 0)
(1.00393 -0.00392284 0)
(1.00384 -0.00312738 0)
(1.0037 -0.00240633 0)
(1.0035 -0.00153888 0)
(1.00342 -0.000479905 0)
(0.988646 -0.0351403 0)
(0.976011 -0.0372256 0)
(0.97443 -0.0370937 0)
(0.983856 -0.0345806 0)
(0.992206 -0.0315018 0)
(0.995523 -0.0286777 0)
(0.996614 -0.0263412 0)
(0.997567 -0.0239416 0)
(0.998717 -0.0209781 0)
(0.999333 -0.0180611 0)
(0.999916 -0.0158585 0)
(0.999612 -0.0150798 0)
(0.999776 -0.0152673 0)
(1.00014 -0.0163079 0)
(1.0006 -0.0168871 0)
(1.00139 -0.0168527 0)
(1.00234 -0.0158406 0)
(1.00336 -0.0143989 0)
(1.00417 -0.0127929 0)
(1.0047 -0.0113343 0)
(1.00495 -0.00999817 0)
(1.00507 -0.00881704 0)
(1.00513 -0.00771278 0)
(1.00514 -0.0066365 0)
(1.00511 -0.00561604 0)
(1.00503 -0.00465139 0)
(1.00489 -0.00367549 0)
(1.0047 -0.00278783 0)
(1.00445 -0.00174003 0)
(1.00435 -0.000543022 0)
(0.98412 -0.00503974 0)
(0.997085 -0.00383978 0)
(1.00451 -0.00265231 0)
(1.00611 -0.00464358 0)
(1.00841 -0.00811888 0)
(1.01231 -0.0124412 0)
(1.01395 -0.016055 0)
(1.01252 -0.019062 0)
(1.00815 -0.0219045 0)
(1.00203 -0.0237692 0)
(0.995125 -0.0246641 0)
(0.990671 -0.024166 0)
(0.989296 -0.0227333 0)
(0.991603 -0.0209443 0)
(0.996486 -0.0190005 0)
(1.00098 -0.0168859 0)
(1.0041 -0.0148482 0)
(1.00546 -0.0132405 0)
(1.00586 -0.0119322 0)
(1.00579 -0.0108196 0)
(1.00569 -0.00978892 0)
(1.00557 -0.00884755 0)
(1.00545 -0.00789016 0)
(1.00535 -0.00693619 0)
(1.00526 -0.00594361 0)
(1.00517 -0.00494403 0)
(1.00507 -0.00388672 0)
(1.00493 -0.00292447 0)
(1.00473 -0.00184264 0)
(1.00465 -0.000582688 0)
(0.989198 -0.0128719 0)
(0.985533 -0.0127498 0)
(0.981029 -0.0120709 0)
(0.979882 -0.0105012 0)
(0.981584 -0.00824127 0)
(0.98347 -0.00644763 0)
(0.987207 -0.00620235 0)
(0.992237 -0.00748119 0)
(0.997644 -0.010184 0)
(1.00213 -0.0133252 0)
(1.00453 -0.0163992 0)
(1.00452 -0.0180473 0)
(1.00319 -0.0186531 0)
(1.00217 -0.0179153 0)
(1.00244 -0.0170118 0)
(1.0038 -0.0158175 0)
(1.00524 -0.0146607 0)
(1.00623 -0.0134876 0)
(1.0067 -0.0125094 0)
(1.00687 -0.0115843 0)
(1.00697 -0.0106512 0)
(1.00699 -0.00962463 0)
(1.00696 -0.00856227 0)
(1.00683 -0.0074818 0)
(1.00664 -0.0063948 0)
(1.00641 -0.00531994 0)
(1.00616 -0.00420249 0)
(1.00591 -0.00315955 0)
(1.00563 -0.0019642 0)
(1.00551 -0.000617124 0)
(0.996675 -0.00927675 0)
(0.997906 -0.0110663 0)
(0.997709 -0.0156198 0)
(1.00218 -0.0200425 0)
(1.00734 -0.0220057 0)
(1.00864 -0.0215495 0)
(1.00473 -0.0194388 0)
(0.998159 -0.0174824 0)
(0.99307 -0.0157105 0)
(0.991229 -0.0157591 0)
(0.992137 -0.0160623 0)
(0.995092 -0.0173489 0)
(0.997982 -0.0178058 0)
(1.00071 -0.0180918 0)
(1.0033 -0.0175411 0)
(1.00526 -0.0167749 0)
(1.00653 -0.0156161 0)
(1.00706 -0.0143932 0)
(1.00721 -0.0131105 0)
(1.00717 -0.0119442 0)
(1.00712 -0.0108402 0)
(1.00707 -0.00978417 0)
(1.00702 -0.00868308 0)
(1.00695 -0.00755964 0)
(1.00684 -0.00642723 0)
(1.00666 -0.00531452 0)
(1.00645 -0.00417088 0)
(1.00621 -0.0031296 0)
(1.00593 -0.00196758 0)
(1.00581 -0.000621744 0)
(0.982243 -0.0198971 0)
(0.973715 -0.0200767 0)
(0.972194 -0.0164936 0)
(0.979242 -0.0136654 0)
(0.989612 -0.0143514 0)
(0.99783 -0.0174434 0)
(1.00133 -0.0210674 0)
(1.00042 -0.0235986 0)
(0.996526 -0.024773 0)
(0.992974 -0.0245987 0)
(0.992177 -0.0235345 0)
(0.994068 -0.0213282 0)
(0.998159 -0.0188471 0)
(1.00268 -0.0157646 0)
(1.00689 -0.0135605 0)
(1.00958 -0.0120924 0)
(1.0106 -0.0117812 0)
(1.01035 -0.0117941 0)
(1.0098 -0.0117957 0)
(1.0093 -0.0114042 0)
(1.00904 -0.0107288 0)
(1.00882 -0.00981297 0)
(1.00862 -0.00879481 0)
(1.00838 -0.00770627 0)
(1.0081 -0.00655946 0)
(1.0078 -0.00542279 0)
(1.00748 -0.00425972 0)
(1.00714 -0.00318904 0)
(1.00678 -0.00198248 0)
(1.00662 -0.000618875 0)
(0.992427 -0.00784349 0)
(0.99866 -0.0100926 0)
(0.994926 -0.0123321 0)
(0.9892 -0.0161302 0)
(0.986981 -0.0197343 0)
(0.98842 -0.0229666 0)
(0.992755 -0.0253602 0)
(0.997763 -0.0259534 0)
(1.00167 -0.0250742 0)
(1.00331 -0.0230664 0)
(1.00348 -0.0214607 0)
(1.00283 -0.0201679 0)
(1.00255 -0.0192395 0)
(1.00284 -0.0181473 0)
(1.00389 -0.0167397 0)
(1.00546 -0.0154002 0)
(1.00686 -0.0141408 0)
(1.00784 -0.0131587 0)
(1.00831 -0.0124005 0)
(1.00851 -0.0116345 0)
(1.00857 -0.0107395 0)
(1.00857 -0.00971902 0)
(1.00853 -0.00862808 0)
(1.00839 -0.00748356 0)
(1.0082 -0.00633758 0)
(1.00796 -0.00521604 0)
(1.00767 -0.00406224 0)
(1.00736 -0.00303711 0)
(1.00701 -0.00190461 0)
(1.00685 -0.000592134 0)
(0.984994 -0.0215714 0)
(0.977489 -0.018498 0)
(0.977543 -0.01496 0)
(0.982682 -0.0116925 0)
(0.986642 -0.00998253 0)
(0.988558 -0.0120705 0)
(0.98907 -0.017086 0)
(0.989891 -0.0227466 0)
(0.990846 -0.0266129 0)
(0.993141 -0.0277438 0)
(0.996203 -0.0260441 0)
(1.00028 -0.0230575 0)
(1.00359 -0.0200064 0)
(1.00603 -0.0170753 0)
(1.00792 -0.0152255 0)
(1.00904 -0.0138632 0)
(1.00967 -0.0132327 0)
(1.00998 -0.0127092 0)
(1.0102 -0.0122018 0)
(1.01032 -0.0115066 0)
(1.01034 -0.0106718 0)
(1.01023 -0.00969453 0)
(1.01003 -0.00863287 0)
(1.00972 -0.00751726 0)
(1.00936 -0.00636444 0)
(1.00896 -0.00522694 0)
(1.00856 -0.00407001 0)
(1.00814 -0.00303302 0)
(1.00772 -0.00187686 0)
(1.00751 -0.000573686 0)
(0.99564 -0.01031 0)
(0.997071 -0.0141664 0)
(0.99059 -0.0167688 0)
(0.983452 -0.0200008 0)
(0.979997 -0.0227242 0)
(0.980696 -0.0237961 0)
(0.985786 -0.0235363 0)
(0.993165 -0.0235755 0)
(1.0003 -0.0243624 0)
(1.00495 -0.0243557 0)
(1.00828 -0.0235087 0)
(1.00992 -0.021212 0)
(1.01112 -0.0186602 0)
(1.01104 -0.0165182 0)
(1.00983 -0.0152306 0)
(1.00872 -0.0146267 0)
(1.00804 -0.0142626 0)
(1.00805 -0.013678 0)
(1.00853 -0.0129144 0)
(1.00914 -0.0118934 0)
(1.0096 -0.0107365 0)
(1.00988 -0.00952986 0)
(1.00993 -0.00833907 0)
(1.0098 -0.00715645 0)
(1.00953 -0.00601449 0)
(1.00918 -0.00491943 0)
(1.00878 -0.00379614 0)
(1.00834 -0.00282624 0)
(1.00788 -0.00176241 0)
(1.00766 -0.000534204 0)
(0.983674 -0.0321803 0)
(0.984117 -0.0280533 0)
(0.983692 -0.0228016 0)
(0.981859 -0.0190972 0)
(0.980106 -0.018458 0)
(0.979135 -0.0195266 0)
(0.979674 -0.0210301 0)
(0.983377 -0.0230022 0)
(0.989603 -0.0249993 0)
(0.996418 -0.0267733 0)
(1.00174 -0.0274733 0)
(1.00617 -0.0264208 0)
(1.00887 -0.0240049 0)
(1.01085 -0.0207548 0)
(1.01204 -0.0180507 0)
(1.01242 -0.0162385 0)
(1.01221 -0.0152328 0)
(1.01192 -0.0144307 0)
(1.01175 -0.0135407 0)
(1.01168 -0.012377 0)
(1.01164 -0.0111209 0)
(1.01152 -0.00982669 0)
(1.01127 -0.00854124 0)
(1.01093 -0.00730171 0)
(1.01052 -0.00609204 0)
(1.01006 -0.00493783 0)
(1.00957 -0.00379 0)
(1.00905 -0.00279562 0)
(1.00849 -0.00171311 0)
(1.00822 -0.000511086 0)
(0.998198 -0.0156492 0)
(0.996491 -0.0204863 0)
(0.98922 -0.0265529 0)
(0.983726 -0.0303225 0)
(0.981031 -0.0305332 0)
(0.980969 -0.0289886 0)
(0.983481 -0.0277123 0)
(0.987565 -0.0258407 0)
(0.993467 -0.0240154 0)
(1.00068 -0.0227639 0)
(1.00775 -0.0218516 0)
(1.01232 -0.0210834 0)
(1.01473 -0.0201466 0)
(1.01457 -0.0187762 0)
(1.01299 -0.0172261 0)
(1.01166 -0.0158571 0)
(1.01087 -0.0149178 0)
(1.01082 -0.0141068 0)
(1.01103 -0.0132098 0)
(1.01135 -0.0120781 0)
(1.01153 -0.0107982 0)
(1.01154 -0.00943537 0)
(1.01138 -0.00814192 0)
(1.01108 -0.00690774 0)
(1.01068 -0.00574128 0)
(1.01024 -0.00464553 0)
(1.00975 -0.00352787 0)
(1.00922 -0.00258004 0)
(1.0086 -0.00158498 0)
(1.00832 -0.000470399 0)
(0.98382 -0.0504732 0)
(0.983761 -0.0475508 0)
(0.984294 -0.0426796 0)
(0.985116 -0.0420508 0)
(0.985598 -0.0409315 0)
(0.985883 -0.0392425 0)
(0.987446 -0.0367255 0)
(0.991248 -0.0348562 0)
(0.996103 -0.0334352 0)
(1.00105 -0.0317281 0)
(1.00555 -0.0300328 0)
(1.00951 -0.0283551 0)
(1.01171 -0.0266642 0)
(1.01259 -0.0249009 0)
(1.01236 -0.0229214 0)
(1.01205 -0.0208006 0)
(1.01217 -0.0186384 0)
(1.01265 -0.0166236 0)
(1.01314 -0.0147748 0)
(1.01338 -0.0130367 0)
(1.01329 -0.0114 0)
(1.013 -0.00987795 0)
(1.01255 -0.00844774 0)
(1.01205 -0.00712119 0)
(1.0115 -0.00587614 0)
(1.01095 -0.0047097 0)
(1.0104 -0.00355523 0)
(1.00982 -0.00255516 0)
(1.00909 -0.00153255 0)
(1.0088 -0.000452596 0)
(0.995372 -0.0309063 0)
(0.992614 -0.0338565 0)
(0.981529 -0.0408113 0)
(0.976998 -0.044076 0)
(0.980256 -0.0449781 0)
(0.984418 -0.0428143 0)
(0.987074 -0.0380411 0)
(0.990317 -0.0335731 0)
(0.9959 -0.0298894 0)
(1.00299 -0.0274743 0)
(1.01019 -0.0253371 0)
(1.01546 -0.0238096 0)
(1.01836 -0.0225185 0)
(1.01824 -0.0212391 0)
(1.01601 -0.0200499 0)
(1.01363 -0.0188176 0)
(1.01215 -0.0174805 0)
(1.01203 -0.0159344 0)
(1.01247 -0.0142835 0)
(1.01299 -0.0125721 0)
(1.0132 -0.0109359 0)
(1.0131 -0.00939044 0)
(1.01275 -0.0080028 0)
(1.01227 -0.00673674 0)
(1.0117 -0.00556036 0)
(1.01113 -0.0044659 0)
(1.01055 -0.00334408 0)
(1.00996 -0.00235913 0)
(1.00914 -0.00140925 0)
(1.00885 -0.000421762 0)
(0.976501 -0.0720951 0)
(0.977888 -0.0736753 0)
(0.982859 -0.068421 0)
(0.98553 -0.0650346 0)
(0.990209 -0.0641309 0)
(0.99557 -0.0632109 0)
(0.999104 -0.0594471 0)
(1.00145 -0.0534335 0)
(1.00367 -0.0466373 0)
(1.00634 -0.0403214 0)
(1.00956 -0.035423 0)
(1.01268 -0.0320601 0)
(1.01514 -0.0296354 0)
(1.01638 -0.0279466 0)
(1.0162 -0.0260515 0)
(1.0152 -0.0239401 0)
(1.01447 -0.0214616 0)
(1.01435 -0.0188755 0)
(1.01456 -0.0162752 0)
(1.01475 -0.013912 0)
(1.01463 -0.0118085 0)
(1.01429 -0.00999839 0)
(1.01374 -0.00840323 0)
(1.01312 -0.00699604 0)
(1.01245 -0.00572364 0)
(1.01178 -0.00455442 0)
(1.01114 -0.00339543 0)
(1.01051 -0.00233447 0)
(1.00955 -0.00135234 0)
(1.00924 -0.000412369 0)
(0.990655 -0.0492349 0)
(0.993186 -0.0506418 0)
(0.983184 -0.0570924 0)
(0.980168 -0.057877 0)
(0.985031 -0.0558348 0)
(0.992427 -0.052418 0)
(0.999229 -0.049535 0)
(1.00385 -0.0467931 0)
(1.00784 -0.04306 0)
(1.01203 -0.0388652 0)
(1.01578 -0.0344478 0)
(1.01865 -0.0306084 0)
(1.02029 -0.0276271 0)
(1.02055 -0.025149 0)
(1.01947 -0.0231304 0)
(1.01791 -0.0211656 0)
(1.01647 -0.0192766 0)
(1.01566 -0.0172604 0)
(1.01532 -0.0151937 0)
(1.01517 -0.013125 0)
(1.01495 -0.0112131 0)
(1.01454 -0.00948833 0)
(1.01398 -0.00798441 0)
(1.01333 -0.00666422 0)
(1.01262 -0.00546226 0)
(1.01194 -0.00435971 0)
(1.01128 -0.00323065 0)
(1.01064 -0.00215141 0)
(1.00958 -0.00122885 0)
(1.00928 -0.000391314 0)
(0.969881 -0.0953438 0)
(0.969424 -0.0980729 0)
(0.980926 -0.0924164 0)
(0.989854 -0.0894958 0)
(0.996439 -0.085847 0)
(1.00284 -0.080372 0)
(1.00787 -0.0727792 0)
(1.01173 -0.0637904 0)
(1.01494 -0.0550608 0)
(1.01687 -0.0473497 0)
(1.01827 -0.040977 0)
(1.0189 -0.0366407 0)
(1.01934 -0.0334551 0)
(1.01944 -0.0313785 0)
(1.01899 -0.0289626 0)
(1.01835 -0.0262362 0)
(1.01793 -0.023024 0)
(1.01771 -0.0198621 0)
(1.01744 -0.0168685 0)
(1.01703 -0.0142698 0)
(1.01641 -0.011996 0)
(1.01568 -0.0100562 0)
(1.01488 -0.00837662 0)
(1.01406 -0.00691956 0)
(1.01326 -0.0056293 0)
(1.0125 -0.00445844 0)
(1.01179 -0.00329676 0)
(1.01114 -0.00212068 0)
(1.00995 -0.00116331 0)
(1.00965 -0.000388551 0)
(0.986424 -0.0701501 0)
(0.995322 -0.06837 0)
(0.98903 -0.0726484 0)
(0.988358 -0.071158 0)
(0.995323 -0.0689065 0)
(1.00441 -0.067198 0)
(1.01176 -0.0650761 0)
(1.01663 -0.0612023 0)
(1.02015 -0.0558361 0)
(1.02285 -0.0491019 0)
(1.02418 -0.0425696 0)
(1.02429 -0.0366051 0)
(1.02357 -0.0321726 0)
(1.02265 -0.0287699 0)
(1.02156 -0.0261311 0)
(1.02047 -0.0234765 0)
(1.01955 -0.0207996 0)
(1.0189 -0.0180675 0)
(1.01836 -0.0155231 0)
(1.01773 -0.0132267 0)
(1.01696 -0.0112198 0)
(1.01608 -0.00946922 0)
(1.01516 -0.00794529 0)
(1.01425 -0.00661397 0)
(1.01338 -0.00540834 0)
(1.01259 -0.00430409 0)
(1.01187 -0.00317447 0)
(1.01124 -0.00195399 0)
(1.00997 -0.0010435 0)
(1.0097 -0.000376737 0)
(0.967431 -0.114743 0)
(0.968516 -0.11677 0)
(0.983748 -0.108284 0)
(0.99604 -0.101157 0)
(1.00337 -0.0934291 0)
(1.01011 -0.0850794 0)
(1.01615 -0.0768486 0)
(1.02115 -0.0688507 0)
(1.02479 -0.0605411 0)
(1.02674 -0.0527647 0)
(1.02751 -0.045644 0)
(1.02665 -0.0402773 0)
(1.02529 -0.0360827 0)
(1.02366 -0.0333213 0)
(1.02205 -0.0305056 0)
(1.02089 -0.0275012 0)
(1.02028 -0.0239021 0)
(1.02001 -0.0203244 0)
(1.01965 -0.0169918 0)
(1.01903 -0.0141978 0)
(1.01811 -0.0118548 0)
(1.01706 -0.00991195 0)
(1.01597 -0.00824963 0)
(1.01493 -0.00681162 0)
(1.01395 -0.00554318 0)
(1.01307 -0.00439235 0)
(1.0123 -0.00324618 0)
(1.01166 -0.00192358 0)
(1.01032 -0.000977934 0)
(1.01005 -0.00038007 0)
(0.992667 -0.0955419 0)
(1.0059 -0.0923811 0)
(1.00259 -0.0920517 0)
(1.00345 -0.0876339 0)
(1.01145 -0.0825526 0)
(1.02001 -0.0779613 0)
(1.02653 -0.0735487 0)