/*--------------------------------*- C++ -*----------------------------------*\
| =========                 |                                                 |
| \\      /  F ield         | OpenFOAM: The Open Source CFD Toolbox           |
|  \\    /   O peration     | Version:                                        |
|   \\  /    A nd           | Website:  www.openfoam.com                      |
|    \\/     M anipulation  |                                                 |
\*---------------------------------------------------------------------------*/
FoamFile
{
    version     2.0;
    format      ascii;
    class       surfaceScalarField;
    location    "139";
    object      phi;
}
// * * * * * * * * * * * * * * * * * * * * * * * * * * * * * * * * * * * * * //

dimensions      [0 3 -1 0 0 0 0];
oriented        oriented;


internalField   nonuniform List<scalar> 
2227
(
0.00381346
0.0481891
-0.0512599
0.00688744
0.0480603
-0.0511343
0.00994056
0.0475841
-0.0506373
0.0129566
0.046705
-0.049721
0.0158767
0.0455118
-0.0484319
-0.0466879
0.00372923
0.04523
0.00670885
0.0450807
0.0096733
0.0446197
0.0126031
0.00369082
0.00659086
-0.00125656
0.0539
-0.00213304
0.0539095
-0.00298227
0.0538822
-0.00376794
0.0538187
-0.00445241
0.0537175
-0.00499881
0.0535794
-0.00536689
0.0534011
-0.00551647
0.0531826
-0.00541169
0.0529282
0.0526765
-0.00505518
0.000415025
0.0537461
0.00061907
0.0537054
0.000899789
0.0536015
0.00128668
0.0534318
0.00180718
0.053197
0.0024868
0.0528998
0.00334656
0.0525413
0.00441425
0.0521149
0.00572441
0.0516181
0.0511193
0.00728163
0.00165431
0.0545633
0.000946825
0.0544129
0.000377253
0.0541711
-3.11532e-05
0.0538402
-0.000257399
0.0534232
-0.000285183
0.0529276
-0.000104066
0.0523602
0.000279246
0.0517316
0.000871441
0.0510259
0.0502769
0.00171384
0.00155745
0.054473
0.00160499
0.0543654
0.00161593
0.0541601
0.0015959
0.0538602
0.00154602
0.0534731
0.00147206
0.0530015
0.00137115
0.0524611
0.00124699
0.0518557
0.00107069
0.0512022
0.0505253
0.000822309
-0.000419001
0.0551892
-0.00113063
0.055077
-0.00180637
0.0548359
-0.00241984
0.0544737
-0.00293686
0.0539901
-0.00333546
0.0534001
-0.00357499
0.0527007
-0.00362469
0.0519054
-0.00341109
0.0509886
0.0499811
-0.00286693
0.00105851
0.0550998
0.00113589
0.0549996
0.00120863
0.0547631
0.00129088
0.0543914
0.00138402
0.053897
0.00151433
0.0532698
0.00167939
0.0525356
0.00191631
0.0516685
0.00221764
0.0506872
0.0495466
0.00265217
-0.00086151
0.0556972
-0.00150557
0.0556437
-0.00215651
0.0554141
-0.00278351
0.0550184
-0.00333056
0.054444
-0.00376844
0.0537077
-0.00401811
0.0527853
-0.00405875
0.0517091
-0.00379984
0.0504283
0.0490634
-0.00331666
-0.000241575
0.0556067
-8.97958e-05
0.0554919
0.000137202
0.0551871
0.000473085
0.0546826
0.000918396
0.0539987
0.00151007
0.053116
0.00222207
0.0520733
0.0030835
0.0508477
0.0040266
0.0494852
0.047927
0.00516301
0.000544596
0.0560627
0.000100271
0.0559362
-0.000314904
0.0556023
-0.000696653
0.0550643
-0.00101238
0.0543144
-0.0012629
0.0533665
-0.00138926
0.0521996
-0.00137033
0.0508288
-0.00110795
0.0492228
0.0475304
-0.000711388
0.000415345
0.055994
0.000486979
0.0558646
0.000592174
0.0554971
0.000783726
0.0548728
0.00109075
0.0540074
0.00158075
0.0528765
0.00224109
0.0515393
0.0031109
0.049959
0.00417664
0.0481571
0.0463111
0.00539594
0.000521672
0.0562552
0.000357861
0.0560284
0.00029868
0.0555562
0.000328908
0.0548425
0.000465192
0.0538711
0.000656714
0.052685
0.000947472
0.0512485
0.00124596
0.0496605
0.00153719
0.0478659
0.0459035
0.00194484
0.00155213
0.0561913
0.00160164
0.0559789
0.00165404
0.0555038
0.0017206
0.054776
0.00178756
0.0538042
0.00187802
0.0525945
0.00196213
0.0511644
0.00210729
0.0495153
0.00228196
0.0476912
0.045751
0.0024344
0.0008987
0.0564185
0.000690591
0.056187
0.000510846
0.0556836
0.000378203
0.0549086
0.000318607
0.0538638
0.000332909
0.0525802
0.000453333
0.051044
0.000643328
0.0493253
0.000968414
0.0473661
0.0453629
0.00135657
0.00123788
0.0563276
0.00136462
0.0560603
0.00153156
0.0555166
0.00172101
0.0547192
0.00192136
0.0536634
0.0021257
0.0523759
0.00228841
0.0508813
0.00246175
0.049152
0.00260047
0.0472274
0.0450425
0.00292086
0.00102164
0.0564494
0.000884613
0.0561973
0.000738138
0.0556631
0.000598109
0.0548592
0.000477471
0.0537841
0.000389701
0.0524637
0.00040507
0.0508659
0.000516458
0.0490406
0.000812548
0.0469313
0.0445998
0.00125519
0.00119171
0.0563288
0.00129605
0.056093
0.00140216
0.055557
0.00152658
0.0547348
0.00168473
0.0536259
0.00190753
0.0522409
0.00212472
0.0506487
0.00239875
0.0487666
0.00263019
0.0466999
0.0443912
0.00283882
0.000877406
0.0563575
0.000829229
0.0561411
0.00077311
0.0556131
0.000715188
0.0547927
0.000663634
0.0536775
0.000619297
0.0522852
0.000635838
0.0506322
0.000654346
0.0487481
0.000800571
0.0465536
0.0440799
0.00111187
0.000974008
0.0561763
0.00114459
0.0559706
0.00130723
0.0554505
0.00148164
0.0546183
0.0016674
0.0534917
0.00189689
0.0520557
0.00216366
0.0503654
0.00255533
0.0483564
0.00291231
0.0461967
0.0436197
0.00337255
0.000821262
0.0561124
0.000861649
0.0559302
0.000889131
0.055423
0.000910983
0.0545964
0.000944965
0.0534577
0.000976679
0.052024
0.00104985
0.0502922
0.00111808
0.0482882
0.00133392
0.0459808
0.0434398
0.00151376
0.000928673
0.0558779
0.00114532
0.0557135
0.00135752
0.0552108
0.00158045
0.0543735
0.00182033
0.0532178
0.00212389
0.0517204
0.00244142
0.0499747
0.00291196
0.0478177
0.0033855
0.0455073
0.0426783
0.00414701
0.000848272
0.055713
0.000991231
0.0555706
0.00112293
0.0550791
0.00125857
0.0542379
0.00140578
0.0530706
0.00156672
0.0515595
0.00179705
0.0497444
0.00198713
0.0476276
0.00236029
0.0451341
0.0424078
0.00263084
0.000974233
0.0553917
0.00127787
0.0552669
0.00157954
0.0547774
0.00188907
0.0539283
0.00222201
0.0527377
0.00260069
0.0511808
0.00301272
0.0493323
0.00359366
0.0470466
0.00414479
0.044583
0.0414696
0.00508292
0.000959142
0.0551143
0.00121863
0.0550075
0.00147104
0.054525
0.00173264
0.0536667
0.00200887
0.0524615
0.00230652
0.0508832
0.00267763
0.0489612
0.00301707
0.0467072
0.0035651
0.0440349
0.041097
0.0039377
0.00111558
0.0546963
0.00152021
0.0546028
0.00192374
0.0541215
0.00233517
0.0532553
0.00277363
0.052023
0.00325119
0.0504056
0.00375007
0.0484624
0.00439388
0.0460634
0.00500863
0.0434202
0.0401446
0.00596104
0.00113338
0.0543005
0.00151493
0.0542213
0.00189507
0.0537414
0.00228501
0.0528654
0.00268662
0.0516214
0.00311755
0.0499747
0.00361475
0.0479652
0.00408555
0.0455926
0.00473231
0.0427734
0.03969
0.00518688
0.00129205
0.0537761
0.00180991
0.0537034
0.00232869
0.0532226
0.00285855
0.0523355
0.00341169
0.0510683
0.00398664
0.0493997
0.00459005
0.0473618
0.00525774
0.0449249
0.00589936
0.0421318
0.0389276
0.00666176
0.00132267
0.0532608
0.0018338
0.0531923
0.00234811
0.0527083
0.00286873
0.0518149
0.00339611
0.0505409
0.00394353
0.0488523
0.00451065
0.0467946
0.00509401
0.0443415
0.00569097
0.0415349
0.038438
0.0061806
0.00147396
0.0526258
0.00211445
0.0525518
0.00275615
0.0520666
0.00341042
0.0511606
0.00407386
0.0498774
0.00475932
0.0481668
0.005444
0.04611
0.00614983
0.0436357
0.00689518
0.0407895
0.00748501
0.00150259
0.0519926
0.00215054
0.0519038
0.0028005
0.0514166
0.00345103
0.0505101
0.00410879
0.0492197
0.00477293
0.0475027
0.00542003
0.0454629
0.00609248
0.00163554
0.0024051
0.00318445
0.0039735
0.00476123
0.00557604
-0.0053609
0.0481343
-0.00547724
0.0512644
-0.0053411
0.0545617
-0.00498188
0.0581348
-0.00442269
0.0619945
-0.00366832
0.0661407
-0.00281326
0.0706827
-0.00204155
0.075731
-0.00155007
0.0813207
-0.00142684
0.087367
-0.00162428
0.0937597
-0.00194331
0.100375
-0.00222369
0.10728
-0.00233301
0.114535
-0.0022024
0.122237
-0.00188858
0.130546
-0.00147598
0.13953
-0.00107638
0.149255
-0.000742025
0.159707
-0.000496198
0.170902
-0.000321305
0.182852
-0.000201876
0.19561
-0.00011823
0.209229
-6.22856e-05
0.223784
-2.56315e-05
0.239338
-3.77952e-06
0.255967
9.27132e-06
0.273742
1.95883e-05
0.292744
1.40468e-05
0.313078
0.334814
0.00785484
0.0475611
0.00812684
0.0509924
0.00790468
0.0547839
0.00713032
0.0589092
0.00590738
0.0632174
0.00441021
0.0676379
0.00288369
0.0722092
0.00160316
0.0770115
0.000801864
0.082122
0.000587183
0.0875816
0.000889326
0.0934575
0.0014424
0.0998217
0.0020249
0.106698
0.00242532
0.114135
0.00252818
0.122134
0.00237598
0.130698
0.00206295
0.139843
0.00173366
0.149584
0.00145081
0.159989
0.00122881
0.171124
0.00104931
0.183031
0.000897443
0.195761
0.000771081
0.209356
0.000655502
0.2239
0.000551524
0.239442
0.000455158
0.256063
0.000366286
0.273831
0.000272496
0.292838
0.000135613
0.313214
0.33495
0.00205034
0.0472246
0.00241306
0.0506297
0.00277673
0.0544202
0.00313198
0.0585539
0.00333942
0.06301
0.00324836
0.0677289
0.0028897
0.0725679
0.00246507
0.0774361
0.00221855
0.0823685
0.00237528
0.0874249
0.00296045
0.0928724
0.00369359
0.0990885
0.0043209
0.10607
0.00462359
0.113832
0.0044801
0.122277
0.00400793
0.131171
0.00335578
0.140495
0.00270653
0.150233
0.0021467
0.160549
0.00172689
0.171544
0.00141727
0.183341
0.0011982
0.19598
0.00102646
0.209528
0.0008859
0.22404
0.000754338
0.239574
0.000626901
0.25619
0.000500781
0.273957
0.000379656
0.292959
0.000198216
0.313396
0.335148
1.51527e-06
0.0480454
-0.000666567
0.0512977
-0.000888504
0.0546421
-0.000612926
0.0582783
8.53365e-05
0.0623117
0.00110072
0.0667135
0.00222024
0.0714484
0.00317325
0.0764831
0.00372818
0.0818136
0.00368711
0.087466
0.00306797
0.0934915
0.00218924
0.0999673
0.00127996
0.10698
0.000596002
0.114516
0.000299755
0.122574
0.000325957
0.131144
0.00055287
0.140268
0.000785097
0.150001
0.000943674
0.160391
0.00102479
0.171463
0.00105591
0.18331
0.00105148
0.195985
0.00100806
0.209571
0.000933368
0.224115
0.00082933
0.239678
0.00071175
0.256308
0.000577753
0.274091
0.000436211
0.2931
0.000223215
0.313609
0.335371
-0.00277344
0.0479519
-0.00252173
0.051046
-0.00224415
0.0543645
-0.00195306
0.0579872
-0.00155142
0.0619101
-0.000984518
0.0661466
-0.000314874
0.0707787
0.000296282
0.075872
0.000667882
0.081442
0.000728507
0.0874053
0.000509648
0.0937104
0.000154383
0.100323
-0.00014361
0.107278
-0.000252998
0.114626
-0.00015766
0.122478
5.32653e-05
0.130934
0.000297757
0.140023
0.000524828
0.149774
0.000719266
0.160196
0.00084446
0.171338
0.000906792
0.183247
0.000910308
0.195981
0.000877018
0.209604
0.000812436
0.224179
0.000729352
0.239761
0.000625849
0.256411
0.000509453
0.274207
0.000390869
0.293219
0.000204707
0.313795
0.335576
0.00246323
0.0481408
0.00212445
0.0513848
0.00179215
0.0546968
0.00154072
0.0582387
0.00132883
0.062122
0.00112774
0.0663477
0.00100863
0.0708978
0.00104959
0.075831
0.00125825
0.0812333
0.00149333
0.0871703
0.00165497
0.0935487
0.00168245
0.100295
0.00158782
0.107372
0.00144151
0.114772
0.00131666
0.122603
0.00124055
0.13101
0.0012151
0.140049
0.00122081
0.149768
0.00123658
0.16018
0.00123284
0.171342
0.00119329
0.183287
0.00111532
0.196059
0.001014
0.209706
0.000900421
0.224293
0.000782647
0.239879
0.000658342
0.256536
0.00053118
0.274334
0.000394423
0.293356
0.000201144
0.313988
0.335777
-0.00333916
0.0481633
-0.00313836
0.051184
-0.00278346
0.0543419
-0.00233275
0.057788
-0.00177338
0.0615626
-0.00110785
0.0656822
-0.00050457
0.0702946
-0.00018298
0.0755094
-0.000194539
0.0812449
-0.000435635
0.0874114
-0.000784443
0.0938975
-0.00105237
0.100563
-0.0011761
0.107496
-0.00114594
0.114742
-0.000936223
0.122394
-0.000579392
0.130653
-0.000143676
0.139613
0.0002537
0.149371
0.000548346
0.159886
0.000721913
0.171168
0.000805429
0.183203
0.000822021
0.196043
0.000794608
0.209733
0.000735466
0.224352
0.000657122
0.239957
0.000562243
0.256631
0.00045572
0.274441
0.000342021
0.293469
0.00017823
0.314152
0.335955
0.00561237
0.047714
0.00571678
0.0510796
0.00546522
0.0545935
0.00486354
0.0583896
0.0039616
0.0624646
0.00291098
0.0667328
0.00198752
0.071218
0.00141667
0.0760802
0.00117708
0.0814845
0.00122615
0.0873623
0.00150488
0.0936188
0.00184963
0.100218
0.00219446
0.107151
0.00244012
0.114496
0.00250302
0.122331
0.00240734
0.130748
0.00220933
0.139811
0.00199634
0.149584
0.00178917
0.160093
0.00159956
0.171358
0.00142334
0.183379
0.00126044
0.196206
0.00110567
0.209888
0.000957658
0.2245
0.000812756
0.240102
0.000669964
0.256773
0.000527184
0.274584
0.000379004
0.293617
0.000191916
0.314339
0.336147
-0.000787938
0.0477905
-0.000530026
0.0508217
-2.54591e-05
0.0540889
0.000475626
0.0578885
0.000798414
0.0621418
0.000887212
0.066644
0.00073533
0.0713699
0.000480511
0.0763351
0.000367661
0.0815973
0.000497873
0.0872321
0.000839879
0.0932768
0.00128749
0.0997706
0.00168002
0.106759
0.00192968
0.114246
0.00202054
0.12224
0.00199104
0.130778
0.00189165
0.13991
0.00176505
0.149711
0.00162528
0.160233
0.00148828
0.171495
0.00135382
0.183514
0.00122181
0.196338
0.00108798
0.210022
0.000953676
0.224634
0.000815978
0.24024
0.000674566
0.256915
0.000528281
0.27473
0.000379707
0.293766
0.000194837
0.314524
0.336342
0.00603049
0.047156
0.0063714
0.0504808
0.00627439
0.0541859
0.00582597
0.058337
0.00520742
0.0627603
0.00452178
0.0673297
0.00386831
0.0720234
0.00322674
0.0769766
0.00262549
0.0821986
0.00219113
0.0876665
0.00201728
0.0934507
0.00211458
0.0996733
0.00238361
0.10649
0.00265421
0.113976
0.00278176
0.122112
0.00273907
0.130821
0.0025611
0.140088
0.00232137
0.14995
0.00206656
0.160488
0.00183466
0.171727
0.00162829
0.18372
0.00144096
0.196525
0.00125982
0.210203
0.00108356
0.224811
0.00091044
0.240413
0.00074287
0.257082
0.000577042
0.274896
0.000407875
0.293935
0.000206228
0.314726
0.336548
0.00196579
0.047135
0.00194549
0.0505011
0.00208488
0.0540465
0.00254485
0.057877
0.00316666
0.0621385
0.00368361
0.0668127
0.00392631
0.0717807
0.00398643
0.0769165
0.00399479
0.0821902
0.00398903
0.0876722
0.00396635
0.0934733
0.00387877
0.0997609
0.00376067
0.106608
0.00362006
0.114116
0.00341063
0.122322
0.00311811
0.131113
0.0027713
0.140435
0.00243249
0.150289
0.00213453
0.160786
0.00188434
0.171977
0.0016659
0.183939
0.0014703
0.196721
0.00128521
0.210388
0.00110672
0.224989
0.000928502
0.240591
0.000752528
0.257258
0.000578714
0.275069
0.000407694
0.294106
0.000207857
0.314926
0.336756
0.00225551
0.0473139
0.00197404
0.0507826
0.00169412
0.0543265
0.00143127
0.0581398
0.00128453
0.0622852
0.0014101
0.0666871
0.00179797
0.0713928
0.0023136
0.0764009
0.00281623
0.0816876
0.00321131
0.0872771
0.00344288
0.0932418
0.0034866
0.0997172
0.00337425
0.10672
0.00316633
0.114324
0.00294379
0.122544
0.00271514
0.131342
0.00247954
0.140671
0.00224532
0.150523
0.00203418
0.160997
0.00184276
0.172168
0.00165961
0.184122
0.00147815
0.196902
0.00129802
0.210568
0.00111988
0.225167
0.000942426
0.240769
0.000767138
0.257434
0.000591916
0.275245
0.00041626
0.294282
0.000209528
0.315132
0.336966
0.00140041
0.0472701
0.00192161
0.0502614
0.00261674
0.0536313
0.00305622
0.0577004
0.00308068
0.0622608
0.00278268
0.0669851
0.00244394
0.0717315
0.00227674
0.0765681
0.00232568
0.0816387
0.00253417
0.0870686
0.00280513
0.0929708
0.00304033
0.099482
0.00317139
0.106589
0.00319307
0.114303
0.00310749
0.12263
0.00294127
0.131508
0.00269522
0.140917
0.00241396
0.150805
0.00213851
0.161272
0.0018924
0.172414
0.00167216
0.184342
0.00146864
0.197106
0.00127308
0.210764
0.00108476
0.225356
0.000903717
0.24095
0.000728451
0.257609
0.000558154
0.275415
0.000394353
0.294446
0.00019938
0.315327
0.337165
0.0030159
0.047175
0.00281443
0.0504628
0.00252384
0.0539219
0.00240461
0.0578196
0.00252566
0.0621398
0.00281295
0.0666978
0.00311331
0.0714312
0.00333856
0.0763428
0.00346701
0.0815102
0.00349198
0.0870437
0.00338957
0.0930732
0.0031987
0.0996728
0.00289587
0.106892
0.00256547
0.114633
0.00230189
0.122893
0.0021352
0.131675
0.0020438
0.141008
0.00196163
0.150887
0.00185199
0.161382
0.00170928
0.172557
0.00154872
0.184503
0.00138061
0.197274
0.00121113
0.210933
0.00104083
0.225526
0.000870564
0.24112
0.000702433
0.257777
0.000538129
0.275579
0.000378888
0.294605
0.00018915
0.315517
0.337354
0.00140485
0.0470254
0.00172212
0.0501456
0.00214032
0.0535037
0.00264384
0.0573161
0.0031758
0.0616078
0.00357785
0.0662958
0.00375921
0.0712498
0.00371444
0.0763876
0.00351107
0.0817136
0.00324623
0.0873085
0.00303053
0.0932889
0.00286338
0.09984
0.00273674
0.107019
0.00259069
0.114779
0.00240939
0.123075
0.0022178
0.131866
0.00204262
0.141183
0.00189112
0.151038
0.00175474
0.161518
0.00160825
0.172704
0.00144866
0.184662
0.00128053
0.197442
0.00111273
0.211101
0.000949016
0.22569
0.000790525
0.241278
0.000634524
0.257933
0.000483493
0.27573
0.00034169
0.294747
0.000170989
0.315688
0.337525
0.00260893
0.0472553
0.00223402
0.0505205
0.00184124
0.0538965
0.00157481
0.0575825
0.00164035
0.0615423
0.00211943
0.0658167
0.00279317
0.0705761
0.00337036
0.0758104
0.00367244
0.0814115
0.00365195
0.087329
0.00337206
0.0935688
0.00299427
0.100218
0.00262767
0.107385
0.00233574
0.115071
0.00212591
0.123284
0.00196646
0.132026
0.00184672
0.141303
0.00173488
0.15115
0.00161701
0.161636
0.0014875
0.172833
0.00134905
0.184801
0.00120024
0.197591
0.00104879
0.211252
0.00089672
0.225842
0.00074624
0.241429
0.000598083
0.258081
0.000454738
0.275874
0.000318947
0.294882
0.00015786
0.315849
0.337683
0.00123978
0.0471274
0.00156342
0.0501968
0.00193609
0.0535238
0.00231104
0.0572075
0.0025978
0.0612555
0.00277344
0.065641
0.00293628
0.0704132
0.00308579
0.0756609
0.00313979
0.0813575
0.00304868
0.0874201
0.00279271
0.0938248
0.00244801
0.100562
0.00213491
0.107698
0.00190617
0.1153
0.00176692
0.123424
0.00168734
0.132105
0.00163347
0.141357
0.00156708
0.151217
0.00147209
0.161731
0.00134984
0.172955
0.00121174
0.184939
0.001069
0.197733
0.000928594
0.211393
0.00079053
0.22598
0.000657108
0.241562
0.000525195
0.258213
0.000397354
0.276001
0.000276683
0.295003
0.00013896
0.315987
0.337822
0.00331089
0.047189
0.00280939
0.0506983
0.00228711
0.0540461
0.00202802
0.0574666
0.00209251
0.061191
0.00232591
0.0654077
0.00261832
0.0701208
0.00293008
0.0753492
0.00317657
0.081111
0.00326637
0.0873303
0.00316996
0.0939212
0.00289816
0.100834
0.00253596
0.10806
0.00219085
0.115645
0.00193024
0.123684
0.00175685
0.132279
0.00164819
0.141466
0.00155412
0.151311
0.00144636
0.161839
0.00131649
0.173085
0.00117517
0.18508
0.00103122
0.197877
0.000889927
0.211534
0.000752951
0.226117
0.000621033
0.241694
0.000493717
0.25834
0.000369931
0.276125
0.000252803
0.29512
0.000126439
0.316113
0.337948
0.00139439
0.0473084
0.00175077
0.0503419
0.00213246
0.0536644
0.00230626
0.0572928
0.00231279
0.0611845
0.00230725
0.0654132
0.00232395
0.0701041
0.00235026
0.0753228
0.00237454
0.0810867
0.00235492
0.0873499
0.00226387
0.0940123
0.00211835
0.10098
0.00192688
0.108252
0.00171682
0.115855
0.00153318
0.123868
0.00140628
0.132406
0.00133637
0.141536
0.00128591
0.151361
0.00122194
0.161903
0.0011283
0.173179
0.00101504
0.185193
0.000893499
0.197999
0.000773232
0.211654
0.000655736
0.226234
0.00054251
0.241807
0.000432201
0.258451
0.000320905
0.276237
0.000216466
0.295225
0.000110615
0.316219
0.338059
0.0043979
0.0470575
0.00415279
0.050587
0.0038649
0.0539523
0.00367242
0.0574853
0.00353459
0.0613223
0.00339968
0.0655481
0.00328051
0.0702233
0.00316908
0.0754343
0.00305159
0.0812042
0.00292264
0.0874789
0.0027714
0.0941635
0.00257657
0.101175
0.00236402
0.108464
0.00215086
0.116068
0.00194175
0.124077
0.00174004
0.132607
0.00155935
0.141716
0.00140432
0.151516
0.00126753
0.16204
0.00113513
0.173311
0.00100441
0.185324
0.000874589
0.198129
0.000748834
0.21178
0.000628818
0.226354
0.000515304
0.241921
0.000407286
0.258559
0.000302891
0.276341
0.000196353
0.295331
0.000101245
0.316314
0.33816
0.00229433
0.047394
0.00254867
0.0503327
0.00296146
0.0535395
0.00320683
0.0572399
0.00311789
0.0614112
0.00283155
0.0658345
0.00256876
0.0704861
0.00240726
0.0755958
0.00231313
0.0812983
0.00223179
0.0875602
0.00212022
0.0942751
0.00198748
0.101307
0.00182439
0.108628
0.00165669
0.116236
0.00151128
0.124222
0.00139169
0.132727
0.00128796
0.14182
0.00118609
0.151618
0.00108127
0.162144
0.00097198
0.17342
0.000862507
0.185434
0.000754062
0.198237
0.000649902
0.211884
0.000548952
0.226455
0.000452186
0.242018
0.00035771
0.258653
0.00026483
0.276434
0.000167075
0.295429
8.77938e-05
0.316393
0.338248
0.00572593
0.046751
0.00569484
0.0503638
0.00542618
0.0538082
0.00527812
0.057388
0.00514408
0.0615453
0.00482504
0.0661535
0.00428841
0.0710227
0.00369279
0.0761914
0.00318544
0.0818057
0.00280602
0.0879396
0.00254498
0.0945361
0.00235355
0.101499
0.0021943
0.108787
0.00203601
0.116394
0.0018613
0.124397
0.00168184
0.132906
0.00149929
0.142003
0.00132502
0.151792
0.00116124
0.162308
0.00101205
0.17357
0.000875532
0.18557
0.000751149
0.198362
0.000636361
0.211999
0.000530242
0.226561
0.000431867
0.242116
0.000338674
0.258746
0.000248579
0.276524
0.000150795
0.295527
7.92853e-05
0.316465
0.338327
0.00348156
0.0472071
0.00360388
0.0502415
0.00385991
0.0535522
0.00389701
0.0573509
0.00380845
0.0616338
0.00367962
0.0662823
0.00350602
0.0711963
0.00327362
0.0764238
0.00297629
0.082103
0.00265781
0.0882581
0.00235985
0.0948341
0.00210323
0.101755
0.00188267
0.109007
0.00168341
0.116593
0.00151094
0.12457
0.00136209
0.133055
0.00123124
0.142133
0.00110804
0.151915
0.000987336
0.162429
0.000870304
0.173687
0.000759099
0.185681
0.000655599
0.198465
0.000559087
0.212095
0.000468784
0.226652
0.000383407
0.242202
0.000300797
0.258829
0.000218559
0.276606
0.000127582
0.295618
6.83505e-05
0.316524
0.338396
0.00666573
0.0465025
0.00677624
0.050131
0.00650639
0.053822
0.00617732
0.05768
0.0057392
0.0620719
0.00517016
0.0668514
0.00452343
0.071843
0.00388551
0.0770617
0.00332301
0.0826655
0.00287384
0.0887073
0.00254105
0.0951668
0.00231028
0.101986
0.00213998
0.109178
0.00198022
0.116753
0.00179744
0.124752
0.00159628
0.133256
0.00139058
0.142339
0.00120271
0.152103
0.00103705
0.162595
0.000893426
0.17383
0.00076572
0.185809
0.00065161
0.198579
0.000547524
0.212199
0.000453302
0.226746
0.00036691
0.242288
0.000285936
0.25891
0.000205487
0.276687
0.000114423
0.295709
6.12507e-05
0.316577
0.338457
0.00476313
0.0469262
0.00476793
0.0501262
0.00489439
0.0536956
0.00485414
0.0577202
0.0047534
0.0621727
0.00459391
0.0670109
0.00431591
0.072121
0.00391489
0.0774627
0.00344069
0.0831397
0.00296167
0.0891863
0.00253292
0.0955956
0.00218571
0.102333
0.0019206
0.109443
0.00170825
0.116965
0.00152581
0.124935
0.00135154
0.133431
0.00118328
0.142507
0.0010261
0.152261
0.000887969
0.162733
0.000769482
0.173949
0.000665754
0.185913
0.000571992
0.198673
0.000485289
0.212286
0.000404736
0.226826
0.000329048
0.242364
0.000256855
0.258982
0.000182167
0.276761
9.64799e-05
0.295795
5.25452e-05
0.316621
0.338509
0.00713805
0.0464499
0.0070574
0.0502068
0.00660704
0.0541459
0.00612393
0.0582033
0.00560802
0.0626886
0.00505917
0.0675597
0.00450551
0.0726747
0.00394299
0.0780253
0.0034067
0.083676
0.00293536
0.0896577
0.00254885
0.0959821
0.00225958
0.102623
0.00204356
0.109659
0.00186556
0.117143
0.00168404
0.125116
0.0014894
0.133625
0.00128441
0.142712
0.00109031
0.152455
0.000920254
0.162903
0.000780072
0.174089
0.000662693
0.18603
0.000561676
0.198774
0.000471101
0.212377
0.000388885
0.226909
0.000313832
0.242439
0.000244149
0.259052
0.000171514
0.276834
8.64386e-05
0.29588
4.68881e-05
0.316661
0.338556
0.00584681
0.0467837
0.00561368
0.0504399
0.0055184
0.0542412
0.00534304
0.0583787
0.00511037
0.0629213
0.00484162
0.0678284
0.00448758
0.0730288
0.00403643
0.0784764
0.00353247
0.08418
0.00302405
0.0901661
0.0025645
0.0964417
0.0021795
0.103008
0.00187846
0.10996
0.00164869
0.117373
0.00146069
0.125304
0.00128591
0.1338
0.00111378
0.142885
0.00094884
0.15262
0.00080404
0.163048
0.000684012
0.174209
0.000584328
0.18613
0.000498952
0.198859
0.000422253
0.212453
0.000349879
0.226981
0.000283249
0.242505
0.000219832
0.259115
0.000153124
0.276901
7.32097e-05
0.29596
4.02456e-05
0.316693
0.338597
0.00747487
0.00697352
0.00638564
0.00577013
0.0051854
0.00465059
0.0041695
0.00370482
0.00325196
0.00282926
0.00246315
0.00215949
0.00191339
0.00170842
0.00151793
0.00133264
0.00114505
0.000967274
0.000810738
0.000681386
0.000574939
0.000486009
0.000406975
0.000334354
0.000268551
0.000207832
0.000144081
6.62351e-05
3.60154e-05
)
;

boundaryField
{
    outlet
    {
        type            calculated;
        value           nonuniform 0();
    }
    upperWall
    {
        type            symmetryPlane;
        value           nonuniform 0();
    }
    lowerWall
    {
        type            symmetryPlane;
        value           uniform 0;
    }
    inlet
    {
        type            calculated;
        value           nonuniform List<scalar> 
40
(
-0.053033
-0.053033
-0.053033
-0.053033
-0.053033
-0.053033
-0.053033
-0.053033
-0.053033
-0.053033
-0.0478286
-0.051148
-0.0546978
-0.058494
-0.0625537
-0.0668951
-0.0715378
-0.0765027
-0.0818122
-0.0874902
-0.0935622
-0.100056
-0.107
-0.114426
-0.122367
-0.13086
-0.139942
-0.149655
-0.160041
-0.171148
-0.183026
-0.195729
-0.209313
-0.22384
-0.239375
-0.255988
-0.273755
-0.292754
-0.313072
-0.3348
)
;
    }
    cylinder
    {
        type            calculated;
        value           nonuniform 0();
    }
    frontAndBack
    {
        type            empty;
        value           nonuniform 0();
    }
    procBoundary0to1
    {
        type            processor;
        value           nonuniform List<scalar> 
45
(
0.018717
0.0438476
0.0446493
0.0437752
0.0154673
0.0426476
0.0423456
0.0421806
0.00947507
0.0417355
0.0378482
0.0429633
0.00675823
0.0401238
0.00638963
0.0467938
0.0509413
0.0548291
0.0589942
0.063506
0.0683633
0.0735098
0.0789411
0.0846328
0.0905888
0.0968078
0.103311
0.110206
0.117578
0.125495
0.133985
0.143072
0.152797
0.163204
0.174338
0.186236
0.198948
0.212533
0.227054
0.242571
0.259176
0.276964
0.296037
0.316724
0.338633
)
;
    }
    procBoundary0to4
    {
        type            processor;
        value           nonuniform List<scalar> 
33
(
-0.000742707
-0.000770132
-0.000806368
0.000389542
-0.00026106
-0.00247155
-0.00146714
-0.000297252
-0.000969097
0.000264155
0.000332042
-0.00100054
-0.000346711
-0.000782856
-0.00148827
-0.00112585
-0.00114698
-0.00114342
-0.0010712
-0.00090602
-0.000792834
-0.000757385
-0.000694164
-0.000683325
-0.000653017
-0.000681738
-0.000697553
-0.000737605
-0.000767627
-0.000807331
-0.000839025
-0.00086939
-0.000902803
)
;
    }
}


// ************************************************************************* //
