/*--------------------------------*- C++ -*----------------------------------*\
| =========                 |                                                 |
| \\      /  F ield         | OpenFOAM: The Open Source CFD Toolbox           |
|  \\    /   O peration     | Version:                                        |
|   \\  /    A nd           | Website:  www.openfoam.com                      |
|    \\/     M anipulation  |                                                 |
\*---------------------------------------------------------------------------*/
FoamFile
{
    version     2.0;
    format      ascii;
    class       volScalarField;
    location    "5.1";
    object      p;
}
// * * * * * * * * * * * * * * * * * * * * * * * * * * * * * * * * * * * * * //

dimensions      [0 2 -2 0 0 0 0];


internalField   nonuniform List<scalar> 
1161
(
-0.504975
-0.543942
-0.567557
-0.573086
-0.559491
-0.532084
-0.494298
-0.455097
-0.413292
-0.369013
-0.479458
-0.477393
-0.463247
-0.441402
-0.4173
-0.391432
-0.361358
-0.330028
-0.395399
-0.383021
-0.364493
-0.341951
-0.317467
-0.291806
-0.299774
-0.281558
-0.264594
-0.313671
-0.409599
-0.511235
-0.612503
-0.707965
-0.792525
-0.862347
-0.914355
-0.94566
-0.953659
-0.937293
-0.897954
-0.83897
-0.764331
-0.675657
-0.575427
-0.469499
-0.447807
-0.548191
-0.649073
-0.745228
-0.831673
-0.90398
-0.958019
-0.990727
-1.00104
-0.989119
-0.955322
-0.898802
-0.821237
-0.727812
-0.625604
-0.520411
-0.51652
-0.612949
-0.710684
-0.804957
-0.891149
-0.964685
-1.02132
-1.05763
-1.07174
-1.06345
-1.03259
-0.978597
-0.901422
-0.811475
-0.715539
-0.59767
-0.579977
-0.671314
-0.764987
-0.85674
-0.941867
-1.01616
-1.07582
-1.11666
-1.13533
-1.13218
-1.09998
-1.04856
-0.985662
-0.881605
-0.782896
-0.673174
-0.624668
-0.71016
-0.798901
-0.886586
-0.968882
-1.04137
-1.09887
-1.14454
-1.15865
-1.1553
-1.13101
-1.07519
-1.00618
-0.916495
-0.816992
-0.708902
-0.71751
-0.799096
-0.879867
-0.954723
-1.02134
-1.07367
-1.11181
-1.12952
-1.12318
-1.09911
-1.05016
-0.98374
-0.901403
-0.808319
-0.705005
-0.759257
-0.828871
-0.893981
-0.950877
-0.996379
-1.0287
-1.04593
-1.04277
-1.02145
-0.980407
-0.924127
-0.851168
-0.766485
-0.669549
-0.7364
-0.791202
-0.839876
-0.880267
-0.909839
-0.927188
-0.927869
-0.912806
-0.880647
-0.833567
-0.768848
-0.692668
-0.604725
-0.65592
-0.698278
-0.736908
-0.769785
-0.79131
-0.799556
-0.791261
-0.764846
-0.721668
-0.662497
-0.597331
-0.524913
-0.552566
-0.598007
-0.638304
-0.666343
-0.679199
-0.671461
-0.644744
-0.60106
-0.54786
-0.493741
-0.442178
-0.348984
-0.219608
-0.0902785
0.0297305
0.12755
0.193227
0.220724
0.217189
0.195889
0.16881
0.143398
0.121982
0.103907
0.0889142
0.0767637
0.0663357
0.0570408
0.0493949
0.043361
0.0381288
-0.402283
-0.274073
-0.153247
-0.0325615
0.080119
0.155549
0.192996
0.197914
0.182794
0.159644
0.136963
0.117523
0.100954
0.086814
0.0751129
0.065211
0.056402
0.0489216
0.0429274
0.0378053
-0.472255
-0.350832
-0.233077
-0.11602
-0.0017041
0.0886164
0.140883
0.158655
0.154899
0.140727
0.124195
0.108922
0.0952734
0.0830139
0.0724058
0.0633488
0.0552663
0.0481605
0.0423171
0.0373873
-0.539714
-0.413891
-0.305571
-0.197069
-0.0828052
0.0157062
0.079608
0.109768
0.118621
0.116299
0.107976
0.0977958
0.0875367
0.0776787
0.068661
0.0606904
0.0534875
0.0469727
0.0414008
0.0366662
-0.580786
-0.451421
-0.348191
-0.258699
-0.155781
-0.0558572
0.0161468
0.0574787
0.0783475
0.0875543
0.0891886
0.0853546
0.0788382
0.0714382
0.064134
0.057398
0.0512004
0.0454645
0.04038
0.0359714
-0.582976
-0.46809
-0.374747
-0.289372
-0.204461
-0.115064
-0.0417321
0.00736103
0.0380515
0.0564285
0.0659429
0.0694325
0.0681213
0.0640738
0.0589624
0.0536556
0.0484433
0.0434159
0.0387925
0.0347047
-0.550812
-0.452782
-0.380112
-0.303267
-0.229195
-0.158164
-0.0914421
-0.0384018
-0.000211339
0.0256755
0.0416831
0.0504478
0.0544343
0.0546115
0.0525323
0.049302
0.0455149
0.0415069
0.0375943
0.0339709
0.0305459
-0.500364
-0.427464
-0.374298
-0.308632
-0.242489
-0.185714
-0.131163
-0.0803277
-0.0381942
-0.00621849
0.0160311
0.030775
0.0392727
0.0434297
0.0443846
0.0432521
0.0409225
0.0379313
0.0347807
0.0317849
0.0288793
-0.44309
-0.39665
-0.358283
-0.304917
-0.249346
-0.200523
-0.15388
-0.108667
-0.0670203
-0.0322343
-0.00629939
0.0119424
0.0248055
0.0329653
0.0371598
0.0384604
0.0378397
0.0360948
0.0336683
0.0310457
0.028321
-0.403691
-0.385795
-0.358534
-0.316489
-0.27023
-0.22535
-0.182608
-0.142517
-0.104738
-0.0690937
-0.0386583
-0.0147951
0.00293084
0.0154818
0.0237327
0.028363
0.0301642
0.0301415
0.0293573
0.0281123
0.0263873
-0.352874
-0.360513
-0.338106
-0.298492
-0.254762
-0.212669
-0.172989
-0.135569
-0.101716
-0.0711406
-0.0442432
-0.0222373
-0.00516015
0.00775279
0.0168363
0.0225446
0.0254661
0.0263753
0.0262303
0.0255925
0.0244022
0.0226606
-0.29961
-0.315896
-0.302522
-0.26896
-0.229577
-0.191553
-0.156864
-0.125799
-0.0981432
-0.0727884
-0.0492779
-0.0288977
-0.0125126
0.000229993
0.00955989
0.0158643
0.0194973
0.0210164
0.0215716
0.0217987
0.0213596
0.0201598
-0.255498
-0.274319
-0.268482
-0.243104
-0.210913
-0.1789
-0.149528
-0.123025
-0.0986789
-0.0762321
-0.0553357
-0.0364591
-0.0204497
-0.00749947
0.00246554
0.00969104
0.0141609
0.0162799
0.0175065
0.018566
0.0187825
0.0179569
-0.220712
-0.2371
-0.236109
-0.218471
-0.192483
-0.165129
-0.139598
-0.11621
-0.0944452
-0.0743758
-0.0559414
-0.0393159
-0.0247686
-0.0125123
-0.00279394
0.00454554
0.00935453
0.0118211
0.0134663
0.0151319
0.0159543
0.015611
-0.188785
-0.204433
-0.206674
-0.194584
-0.174192
-0.151802
-0.130033
-0.109274
-0.090144
-0.0732343
-0.0580023
-0.0439127
-0.0308652
-0.0192424
-0.00947144
-0.00150713
0.00403335
0.00695813
0.00906887
0.0114792
0.0130012
0.013044
-0.161015
-0.17649
-0.180333
-0.172201
-0.156687
-0.138244
-0.1196
-0.102051
-0.0861908
-0.0718423
-0.0584015
-0.0457866
-0.0338605
-0.0229352
-0.0135602
-0.00558139
0.000265612
0.00335221
0.00552688
0.00825767
0.010262
0.010705
-0.139646
-0.152706
-0.156589
-0.151183
-0.139354
-0.124704
-0.109799
-0.095366
-0.0817082
-0.0690577
-0.0572975
-0.0465288
-0.0363894
-0.026762
-0.0180956
-0.0102352
-0.00415169
-0.00090252
0.00145157
0.00468913
0.00732503
0.00815018
-0.120825
-0.131117
-0.134993
-0.131909
-0.123538
-0.112293
-0.100183
-0.0880308
-0.0763848
-0.0657253
-0.0558895
-0.0468316
-0.0379977
-0.0292303
-0.0212091
-0.0136698
-0.00738612
-0.00390216
-0.00158029
0.0017065
0.00462573
0.00575982
-0.102477
-0.112261
-0.117083
-0.115829
-0.109509
-0.100442
-0.0906104
-0.0806734
-0.0711438
-0.0623487
-0.0538708
-0.046002
-0.0385402
-0.0309833
-0.0237715
-0.0167058
-0.0105781
-0.00716175
-0.00489754
-0.00142015
0.00193755
0.00342604
-0.0873342
-0.096956
-0.101786
-0.101025
-0.0961582
-0.0890755
-0.0813569
-0.0734614
-0.0656127
-0.0581528
-0.0510568
-0.044695
-0.0385026
-0.031806
-0.0253445
-0.0189528
-0.0130508
-0.00952847
-0.00726703
-0.00387361
-0.000465244
0.001169
-0.0771046
-0.0842797
-0.0876421
-0.087205
-0.0838445
-0.0786742
-0.0728017
-0.066465
-0.0600118
-0.0539926
-0.0481983
-0.0428598
-0.0376527
-0.0319424
-0.0262902
-0.0204891
-0.0149591
-0.011693
-0.009664
-0.00634229
-0.00275724
-0.000866176
-0.066199
-0.0714983
-0.0746598
-0.0751715
-0.0732396
-0.069459
-0.0648269
-0.0597382
-0.0545152
-0.0495518
-0.0447831
-0.0405702
-0.0364135
-0.0315238
-0.0265651
-0.0214597
-0.016457
-0.013379
-0.0113897
-0.00814204
-0.00462907
-0.00276319
-0.0549827
-0.0605985
-0.0643942
-0.0655038
-0.0640866
-0.060994
-0.0573163
-0.053265
-0.0490561
-0.0451533
-0.0414283
-0.0380885
-0.0346978
-0.0305867
-0.0263406
-0.0217971
-0.0172308
-0.0144974
-0.012814
-0.00980563
-0.00637348
-0.00443026
-0.0472445
-0.0525292
-0.0557466
-0.0565021
-0.0553193
-0.0529667
-0.0502688
-0.047223
-0.0439547
-0.0408383
-0.0378183
-0.0352689
-0.0326776
-0.0292187
-0.0255348
-0.0216125
-0.0176793
-0.0153816
-0.0138867
-0.0109596
-0.00760406
-0.00574366
-0.0417242
-0.0452971
-0.0474587
-0.0481042
-0.047482
-0.045963
-0.044073
-0.0417165
-0.0390554
-0.0365643
-0.0342798
-0.0324473
-0.0304224
-0.0275263
-0.0244918
-0.0211729
-0.0176878
-0.0156898
-0.0144272
-0.0117467
-0.00864063
-0.00694496
-0.0350177
-0.0378819
-0.0400891
-0.0411388
-0.0409586
-0.0398442
-0.0383912
-0.0365333
-0.0344429
-0.032554
-0.0308439
-0.0295442
-0.0280433
-0.0256866
-0.0231452
-0.0202595
-0.0172223
-0.0156584
-0.0147351
-0.0123038
-0.00938157
-0.00779666
-0.0290845
-0.0320296
-0.0342962
-0.0352963
-0.0351081
-0.0342064
-0.0331694
-0.0318096
-0.0302107
-0.0287705
-0.0275206
-0.0266961
-0.0256124
-0.0236479
-0.0215362
-0.019122
-0.0165613
-0.0153826
-0.0147143
-0.0124888
-0.00977569
-0.00836918
-0.0252998
-0.0275898
-0.0292033
-0.0299175
-0.0298048
-0.0291902
-0.0285224
-0.0275488
-0.0263325
-0.0252549
-0.024374
-0.0239076
-0.0231538
-0.0215631
-0.0198637
-0.017842
-0.015655
-0.0148019
-0.0143898
-0.0124062
-0.0099367
-0.0087253
-0.0215629
-0.023165
-0.0244834
-0.0252095
-0.0252534
-0.0248326
-0.0243845
-0.0236882
-0.0227942
-0.0220199
-0.0214281
-0.0212485
-0.0207769
-0.0194989
-0.0181183
-0.0164091
-0.0145657
-0.0140318
-0.0138642
-0.0121094
-0.0098742
-0.00885215
-0.0179987
-0.0194182
-0.020662
-0.0213463
-0.0213584
-0.0209743
-0.0206693
-0.0202195
-0.0196161
-0.0190918
-0.0187208
-0.0187517
-0.0184903
-0.0174666
-0.016358
-0.014924
-0.0133893
-0.0131315
-0.0131676
-0.0116224
-0.00961735
-0.00878189
-0.0153586
-0.0164591
-0.0174055
-0.0179359
-0.0179238
-0.0175962
-0.0174078
-0.0171513
-0.0167832
-0.0164536
-0.0162455
-0.0164293
-0.0163328
-0.0155277
-0.0146461
-0.0134358
-0.0121641
-0.0121399
-0.0123462
-0.0109952
-0.00921282
-0.00855284
-0.0129975
-0.0137765
-0.0145244
-0.0149994
-0.0150021
-0.0147055
-0.0145705
-0.014446
-0.0142673
-0.0140965
-0.0140165
-0.0143121
-0.0143392
-0.0137112
-0.0130088
-0.0119799
-0.0109379
-0.0111086
-0.0114487
-0.0102734
-0.00870236
-0.00820103
-0.0109382
-0.01153
-0.0121316
-0.0125348
-0.0125192
-0.0122278
-0.012118
-0.0120915
-0.0120651
-0.0120194
-0.0120364
-0.0124065
-0.0125212
-0.012037
-0.0114759
-0.0105963
-0.00975528
-0.0100804
-0.0105156
-0.00949893
-0.00812795
-0.00776413
-0.00923025
-0.00964925
-0.010102
-0.0104387
-0.0104193
-0.0101377
-0.0100336
-0.0100716
-0.0101611
-0.010211
-0.0103002
-0.0107142
-0.010889
-0.0105232
-0.0100712
-0.0093143
-0.00864975
-0.00908748
-0.00957929
-0.00870856
-0.00752917
-0.00727958
-0.00775175
-0.00804089
-0.00839194
-0.00869273
-0.00868108
-0.00840692
-0.00829166
-0.00836903
-0.00854538
-0.00866845
-0.00881022
-0.00923986
-0.00945069
-0.00918365
-0.00881684
-0.00816709
-0.00765857
-0.00816225
-0.0086693
-0.00793603
-0.00694229
-0.00678043
-0.00650308
-0.00670035
-0.00697611
-0.00724813
-0.00724803
-0.00698918
-0.00686364
-0.00696649
-0.00720324
-0.00737877
-0.0075557
-0.00797435
-0.00820072
-0.00801723
-0.00772051
-0.00717718
-0.00681087
-0.00732831
-0.00780914
-0.00721578
-0.00641026
-0.00630973
-0.00548663
-0.00563412
-0.00586275
-0.00610878
-0.00612192
-0.00589212
-0.00576357
-0.0058745
-0.00613786
-0.00634449
-0.00653959
-0.00691884
-0.00714256
-0.00703282
-0.00679858
-0.00636856
-0.00612825
-0.00659784
-0.00700855
-0.00656149
-0.00594727
-0.00587966
-0.0046469
-0.00477316
-0.00498459
-0.00522282
-0.00527582
-0.0051166
-0.00501289
-0.00511422
-0.00535756
-0.00556572
-0.00576057
-0.00607496
-0.00628106
-0.00624582
-0.00609348
-0.00580012
-0.00565575
-0.00600529
-0.00631523
-0.00603313
-0.00561086
-0.00554305
-0.00404597
-0.0041632
-0.00434003
-0.00453958
-0.00463698
-0.00460426
-0.00459397
-0.00470361
-0.00489256
-0.00505911
-0.00520812
-0.00541962
-0.00559194
-0.00562873
-0.00558163
-0.00545559
-0.00537969
-0.00554252
-0.00572463
-0.00561622
-0.00538194
-0.00529474
-0.00368706
-0.00383193
-0.00399391
-0.00415778
-0.00429691
-0.00439181
-0.00447512
-0.00458221
-0.00471226
-0.00484175
-0.00495307
-0.00507204
-0.00519628
-0.00527859
-0.00532127
-0.00532589
-0.00529319
-0.00530704
-0.00538185
-0.00538631
-0.00528243
-0.00517905
-0.221417
-0.24771
-0.265863
-0.295622
-0.321343
-0.197283
-0.218157
-0.23006
-0.24498
-0.265259
-0.170246
-0.182323
-0.191018
-0.200928
-0.223303
-0.146349
-0.153726
-0.163062
-0.176474
-0.197311
-0.135658
-0.147579
-0.160103
-0.171196
-0.1233
-0.131281
-0.135729
-0.143254
-0.106592
-0.109433
-0.112792
-0.12358
-0.0890961
-0.0924094
-0.0999701
-0.109786
-0.0777518
-0.0838787
-0.0898059
-0.0940892
-0.0708406
-0.073832
-0.0747648
-0.0782382
-0.0606168
-0.0607537
-0.0626405
-0.0689006
-0.0501259
-0.0521507
-0.0566355
-0.0612742
-0.0445824
-0.0475922
-0.0495393
-0.0509879
-0.039611
-0.0401921
-0.0403289
-0.0424834
-0.0327293
-0.0329222
-0.0345584
-0.0378914
-0.0279067
-0.0292543
-0.0311011
-0.0328491
-0.0249947
-0.0256632
-0.0261274
-0.0270046
-0.0210145
-0.0211147
-0.0217209
-0.0232091
-0.0178216
-0.0182857
-0.0191727
-0.0202922
-0.0156835
-0.016004
-0.0164581
-0.0170656
-0.0133529
-0.013538
-0.0139462
-0.0145586
-0.0114431
-0.0116909
-0.0120798
-0.0125084
-0.00984019
-0.0100687
-0.0103523
-0.0106181
-0.00837296
-0.00860978
-0.00884684
-0.00902648
-0.00711318
-0.00736263
-0.00755032
-0.00764443
-0.00601642
-0.00627048
-0.00641531
-0.00645274
-0.00505485
-0.00531181
-0.00543282
-0.00545167
-0.00423349
-0.00448017
-0.00458863
-0.00461021
-0.00357039
-0.00379062
-0.00391234
-0.00397809
-0.00313784
-0.00330769
-0.00343991
-0.00356091
)
;

boundaryField
{
    outlet
    {
        type            fixedValue;
        value           nonuniform 0();
    }
    upperWall
    {
        type            symmetryPlane;
    }
    lowerWall
    {
        type            symmetryPlane;
    }
    inlet
    {
        type            zeroGradient;
    }
    cylinder
    {
        type            zeroGradient;
    }
    frontAndBack
    {
        type            empty;
    }
    procBoundary6to2
    {
        type            processor;
        value           nonuniform List<scalar> 
37
(
-0.313671
-0.409599
-0.511235
-0.612503
-0.707965
-0.792525
-0.862347
-0.914355
-0.94566
-0.953659
-0.937293
-0.897954
-0.83897
-0.764331
-0.675657
-0.575427
-0.469499
-0.348984
-0.219608
-0.0902785
0.0297305
0.12755
0.193227
0.220724
0.217189
0.195889
0.16881
0.143398
0.121982
0.103907
0.0889142
0.0767637
0.0663357
0.0570408
0.0493949
0.043361
0.0381288
)
;
    }
    procBoundary6to5
    {
        type            processor;
        value           nonuniform List<scalar> 
63
(
-0.454848
-0.454848
-0.438312
-0.46586
-0.46586
-0.406027
-0.403041
-0.403041
-0.346609
-0.333991
-0.317459
-0.317459
-0.268686
-0.25374
-0.238373
-0.238373
-0.229467
-0.353741
-0.353741
-0.426682
-0.49649
-0.546826
-0.638681
-0.638681
-0.688089
-0.688089
-0.679265
-0.679265
-0.611156
-0.611156
-0.50496
-0.50496
-0.201355
-0.182616
-0.159216
-0.138099
-0.12799
-0.12799
-0.115118
-0.102126
-0.0870374
-0.0742436
-0.0664262
-0.059174
-0.049626
-0.0423529
-0.0379419
-0.032473
-0.0271959
-0.0240046
-0.0207046
-0.0174171
-0.0151777
-0.0129871
-0.0110212
-0.00939199
-0.00790615
-0.00662215
-0.00551879
-0.00456944
-0.00379458
-0.00322665
-0.00291678
)
;
    }
    procBoundary6to7
    {
        type            processor;
        value           nonuniform List<scalar> 
42
(
0.0333329
0.0331234
0.0328952
0.0323866
0.0319625
0.0309812
0.0309812
0.0272555
0.025999
0.0255222
0.0242648
0.0242648
0.0207488
0.0187079
0.0168184
0.0148947
0.012609
0.0106234
0.0082906
0.00619319
0.00403319
0.00196974
9.37154e-05
-0.00176106
-0.00330474
-0.00470446
-0.00594953
-0.00685769
-0.00755848
-0.00804928
-0.00831386
-0.00838255
-0.00828507
-0.00805098
-0.0077123
-0.00730315
-0.00685257
-0.00640119
-0.00596211
-0.00558525
-0.00528125
-0.00511713
)
;
    }
}


// ************************************************************************* //
