/*--------------------------------*- C++ -*----------------------------------*\
| =========                 |                                                 |
| \\      /  F ield         | OpenFOAM: The Open Source CFD Toolbox           |
|  \\    /   O peration     | Version:                                        |
|   \\  /    A nd           | Website:  www.openfoam.com                      |
|    \\/     M anipulation  |                                                 |
\*---------------------------------------------------------------------------*/
FoamFile
{
    version     2.0;
    format      ascii;
    class       volScalarField;
    location    "196.5";
    object      p;
}
// * * * * * * * * * * * * * * * * * * * * * * * * * * * * * * * * * * * * * //

dimensions      [0 2 -2 0 0 0 0];


internalField   nonuniform List<scalar> 
1161
(
-0.560489
-0.506409
-0.455314
-0.407086
-0.361408
-0.319007
-0.280772
-0.244779
-0.207251
-0.169659
-0.437777
-0.39174
-0.348355
-0.308496
-0.271445
-0.237768
-0.206489
-0.178847
-0.346555
-0.308192
-0.27257
-0.239256
-0.208556
-0.179646
-0.245077
-0.216952
-0.190351
-1.17644
-1.21403
-1.26001
-1.29875
-1.31814
-1.31823
-1.29807
-1.23772
-1.12906
-0.998674
-0.880088
-0.788016
-0.723157
-0.68236
-0.659449
-0.662971
-0.684447
-1.16555
-1.20878
-1.24758
-1.27063
-1.27582
-1.25455
-1.18473
-1.06861
-0.937701
-0.822147
-0.72827
-0.659526
-0.613686
-0.583607
-0.570201
-0.570639
-1.08932
-1.12126
-1.15853
-1.18566
-1.19673
-1.17216
-1.0924
-0.975668
-0.854269
-0.749569
-0.662754
-0.592679
-0.540226
-0.5026
-0.472402
-0.449926
-0.998311
-1.01565
-1.04827
-1.08088
-1.0952
-1.06407
-0.98198
-0.875556
-0.770727
-0.677446
-0.599527
-0.534187
-0.47935
-0.434918
-0.396117
-0.360627
-0.914625
-0.921976
-0.951199
-0.987942
-0.996458
-0.95638
-0.878863
-0.787283
-0.69821
-0.614959
-0.542909
-0.481634
-0.427685
-0.378419
-0.333444
-0.293356
-0.864667
-0.895741
-0.919956
-0.911486
-0.863327
-0.790435
-0.711047
-0.634043
-0.562643
-0.49753
-0.438
-0.385381
-0.337343
-0.291017
-0.247346
-0.872849
-0.870354
-0.841128
-0.788103
-0.721774
-0.651162
-0.580009
-0.515296
-0.456836
-0.401754
-0.350418
-0.302616
-0.261271
-0.218788
-0.833304
-0.786877
-0.728057
-0.663953
-0.599176
-0.536765
-0.477342
-0.420984
-0.370481
-0.324413
-0.279641
-0.239212
-0.199547
-0.745252
-0.685668
-0.623667
-0.561315
-0.502778
-0.447406
-0.394555
-0.345834
-0.300715
-0.261679
-0.226029
-0.189141
-0.648505
-0.590005
-0.533899
-0.478907
-0.426057
-0.377594
-0.332117
-0.289294
-0.248807
-0.212508
-0.178777
-0.739559
-0.869233
-0.973545
-0.994609
-0.884044
-0.713138
-0.55182
-0.436729
-0.366058
-0.33521
-0.336181
-0.376786
-0.468999
-0.616127
-0.795675
-0.921298
-0.890716
-0.754353
-0.563716
-0.415041
-0.59178
-0.677175
-0.762365
-0.792307
-0.708104
-0.585308
-0.471123
-0.389237
-0.339109
-0.322006
-0.335995
-0.388475
-0.498012
-0.671041
-0.871034
-1.01858
-0.995463
-0.841422
-0.623523
-0.441645
-0.437882
-0.471227
-0.521712
-0.552925
-0.506109
-0.442467
-0.372919
-0.320342
-0.289582
-0.280991
-0.303798
-0.363617
-0.484075
-0.672148
-0.878575
-1.03714
-1.03702
-0.881757
-0.65227
-0.449154
-0.326153
-0.32577
-0.329867
-0.342143
-0.32194
-0.299926
-0.266559
-0.235633
-0.220787
-0.218659
-0.243479
-0.300847
-0.409588
-0.594687
-0.797485
-0.963536
-0.989807
-0.862784
-0.64352
-0.436391
-0.24879
-0.226742
-0.206706
-0.201047
-0.20182
-0.181609
-0.169028
-0.153106
-0.147467
-0.148851
-0.16715
-0.214577
-0.304641
-0.461449
-0.64614
-0.815478
-0.884925
-0.775174
-0.592169
-0.403162
-0.199426
-0.164046
-0.135657
-0.115299
-0.108649
-0.0908357
-0.0910051
-0.0844316
-0.0836713
-0.0888667
-0.102296
-0.135794
-0.200209
-0.321638
-0.475003
-0.612369
-0.687422
-0.639909
-0.517627
-0.360352
-0.174578
-0.137405
-0.102736
-0.0699646
-0.0546472
-0.049578
-0.039107
-0.0336689
-0.03481
-0.0411389
-0.0504593
-0.0721143
-0.121785
-0.206618
-0.310581
-0.413438
-0.489876
-0.479794
-0.413117
-0.298968
-0.202639
-0.159545
-0.1248
-0.0919032
-0.057044
-0.0279601
-0.00657403
0.00289151
0.00590406
0.00117649
-0.00854898
-0.0172422
-0.0313299
-0.0638174
-0.119263
-0.191831
-0.262232
-0.323387
-0.358735
-0.318596
-0.245757
-0.17213
-0.154305
-0.123468
-0.0894534
-0.0556569
-0.0250006
0.00417936
0.0277728
0.0370364
0.0319453
0.0167423
0.00351036
-0.00956108
-0.0361026
-0.075043
-0.112745
-0.148307
-0.196817
-0.231927
-0.231262
-0.191483
-0.141682
-0.152059
-0.130424
-0.10234
-0.0688576
-0.0375129
-0.0108543
0.0159717
0.0372816
0.0443938
0.0338639
0.0183899
0.00742916
-0.011111
-0.0400566
-0.0704743
-0.0940269
-0.104707
-0.109875
-0.122017
-0.119526
-0.102278
-0.126903
-0.11767
-0.0919275
-0.0602204
-0.0300276
-0.00495142
0.0187953
0.0399313
0.0514019
0.0445227
0.0276934
0.0118027
-0.00317664
-0.022761
-0.045429
-0.057091
-0.061065
-0.0734259
-0.0861705
-0.0833249
-0.0689174
-0.0403596
-0.113484
-0.105822
-0.0834191
-0.0518762
-0.0218077
-0.000728551
0.0168307
0.0346034
0.0437688
0.0416893
0.0295644
0.0130343
-4.77066e-05
-0.0135341
-0.0313836
-0.0410732
-0.0415704
-0.0469116
-0.0548435
-0.0521915
-0.0413186
-0.0229462
-0.10143
-0.0942045
-0.0753485
-0.0496405
-0.0230436
-0.00256534
0.0133823
0.0306498
0.0384207
0.0380127
0.0296468
0.0157549
0.00417103
-0.00529988
-0.0150564
-0.0206038
-0.0188607
-0.0216154
-0.0307866
-0.0293242
-0.0225739
-0.00933373
-0.0886066
-0.0830056
-0.0683079
-0.0472612
-0.0239263
-0.00450428
0.00886663
0.0184347
0.0298481
0.032136
0.027814
0.0183016
0.00900878
0.00383507
0.00246405
0.00161206
8.84877e-05
-0.00443424
-0.0126428
-0.00939597
-0.00316823
0.00441832
-0.0768535
-0.0737278
-0.062631
-0.0451941
-0.0251325
-0.00752592
0.00477328
0.0139937
0.0226276
0.0263501
0.0248827
0.0198653
0.0140795
0.0115033
0.0126222
0.0129778
0.0105594
0.00870924
0.00323703
0.00461066
0.00480131
0.00698122
-0.0672803
-0.0656418
-0.0571229
-0.042594
-0.0257897
-0.0104131
0.00116969
0.00945042
0.0164184
0.0208261
0.0215367
0.0198893
0.016597
0.0153985
0.0168778
0.0185243
0.0178873
0.0163446
0.0114639
0.0125441
0.0176221
0.0185639
-0.0583357
-0.0577475
-0.051342
-0.0398293
-0.0261051
-0.0128196
-0.00221417
0.00532898
0.0112166
0.0159966
0.0182473
0.0188486
0.0179395
0.0174614
0.0192523
0.0212208
0.0207093
0.0211756
0.018541
0.0183797
0.0189874
0.0187892
-0.0497808
-0.0502995
-0.0460345
-0.03709
-0.0257519
-0.0144335
-0.00511982
0.00173037
0.00721491
0.0121539
0.0154271
0.017381
0.017938
0.0181703
0.0199439
0.0217393
0.0223574
0.0233058
0.0214405
0.0209494
0.0247051
0.0263516
-0.0422991
-0.0436916
-0.0409269
-0.033794
-0.0244891
-0.015103
-0.00711454
-0.000829206
0.00430943
0.00892651
0.0127459
0.0153405
0.0169805
0.0179846
0.0194513
0.0212602
0.022256
0.0237189
0.0240123
0.0239732
0.025597
0.0262694
-0.035518
-0.0372199
-0.0355485
-0.0302548
-0.0227889
-0.0149687
-0.008052
-0.00265509
0.0019751
0.00635909
0.0104408
0.0134503
0.0156468
0.0170217
0.0183182
0.0202609
0.0219178
0.0238247
0.0246844
0.024356
0.0258751
0.0280781
-0.0290595
-0.0311291
-0.0304825
-0.0266519
-0.0205863
-0.0140462
-0.00821513
-0.00358872
0.000628103
0.00465458
0.0085899
0.0117363
0.0140822
0.0157578
0.0171916
0.0192411
0.0210289
0.0228464
0.0243752
0.0249627
0.0263347
0.0279781
-0.0234522
-0.0255936
-0.0254876
-0.0226721
-0.0177818
-0.0124324
-0.00760758
-0.00373938
-0.000130657
0.00346278
0.00715325
0.0103217
0.0127248
0.0145588
0.0161124
0.017959
0.0199869
0.0219763
0.0237636
0.0244327
0.0252578
0.0273132
-0.0181157
-0.0203864
-0.0206901
-0.018608
-0.01477
-0.0105048
-0.00656947
-0.00338491
-0.000308107
0.00293661
0.00631992
0.00932173
0.0116563
0.0135089
0.0150903
0.0168936
0.0189889
0.0209601
0.0226647
0.0236982
0.0245856
0.0265406
-0.0135125
-0.0154513
-0.0158628
-0.0146348
-0.0118635
-0.00839361
-0.00507227
-0.00229878
0.000308615
0.00305004
0.00599687
0.00872584
0.0109842
0.0127349
0.014313
0.016026
0.0180219
0.0199641
0.0215742
0.0228671
0.0237421
0.0256032
-0.00845102
-0.010542
-0.0116212
-0.0109477
-0.00864068
-0.00562639
-0.00287411
-0.000753383
0.00126839
0.00353672
0.00610456
0.00861376
0.0106929
0.012299
0.0137526
0.0153734
0.0172312
0.0191138
0.0205386
0.0219921
0.0229329
0.0245869
-0.00493689
-0.00698142
-0.00772564
-0.00688005
-0.00494985
-0.0027792
-0.000782365
0.000851572
0.0024782
0.00442441
0.00667126
0.00886731
0.0106973
0.0121376
0.0134766
0.01499
0.0167481
0.0186299
0.0202776
0.021339
0.022237
0.0237239
-0.00149435
-0.00278473
-0.00337753
-0.0031042
-0.00198293
-0.0003045
0.0013289
0.00268388
0.0040095
0.00561829
0.0074977
0.00937195
0.0109864
0.0122788
0.0134658
0.0148129
0.0164293
0.0181398
0.0195692
0.0206481
0.021594
0.0229221
0.00241105
0.000819972
-0.000286795
-0.000316868
0.000755074
0.00223276
0.00357497
0.00463682
0.00566324
0.00694378
0.00850259
0.0101253
0.0115502
0.0126273
0.0136352
0.0148174
0.0162869
0.0178006
0.0190977
0.0201085
0.0210224
0.0222624
0.00478653
0.00340671
0.00269419
0.0028371
0.0036786
0.00480453
0.0057951
0.0065533
0.00732537
0.00835966
0.00969054
0.011064
0.0122359
0.01312
0.013992
0.0150271
0.0163087
0.0176472
0.0188031
0.0197224
0.0205519
0.0217209
0.00732044
0.00634026
0.00571555
0.00570257
0.00626515
0.00709463
0.00784567
0.00841899
0.00902155
0.00985197
0.0109441
0.0120667
0.0130403
0.0137815
0.0145021
0.0153744
0.0164769
0.0176569
0.0186644
0.0194852
0.020248
0.0213023
0.00978704
0.00884633
0.00820769
0.00813338
0.00857674
0.00923376
0.0098119
0.0102286
0.0106731
0.0113263
0.0122068
0.0131213
0.0139115
0.0145187
0.0150979
0.0158327
0.0167662
0.0177913
0.018647
0.0193628
0.0200405
0.0209754
0.0117366
0.0109601
0.0104473
0.0103796
0.0107128
0.0112071
0.0116297
0.0119196
0.0122345
0.0127269
0.0134185
0.0141717
0.0148258
0.0153164
0.0157681
0.0163709
0.0171569
0.0180253
0.0187482
0.0193549
0.0199466
0.0207546
0.013473
0.0128787
0.0124643
0.0123853
0.0126157
0.0129706
0.0132628
0.013452
0.0136677
0.0140511
0.014613
0.0152278
0.0157331
0.0161015
0.0164515
0.0169514
0.0176054
0.0183199
0.0189242
0.0194284
0.0199458
0.0206331
0.0150214
0.014555
0.014209
0.014118
0.0142675
0.0145162
0.0147203
0.0148548
0.0150155
0.0153047
0.0157224
0.0161794
0.0165646
0.0168635
0.0171518
0.0175494
0.0180715
0.0186505
0.0191543
0.0195731
0.0200133
0.0205933
0.0162712
0.0159229
0.0156636
0.0155933
0.0157003
0.0158811
0.0160225
0.0161022
0.0161929
0.0163849
0.0166905
0.017048
0.0173601
0.0175958
0.0178163
0.0181226
0.018541
0.019005
0.0194168
0.0197615
0.0201342
0.0206108
0.0172984
0.0170741
0.0168995
0.0168434
0.0169001
0.0170036
0.0170818
0.0171256
0.0171867
0.0173276
0.0175531
0.0178153
0.0180449
0.0182242
0.0184
0.0186422
0.0189679
0.0193295
0.0196622
0.0199519
0.0202621
0.0206485
0.018165
0.0180175
0.0178938
0.0178431
0.0178662
0.017924
0.017971
0.0179988
0.018038
0.0181286
0.0182775
0.018457
0.0186251
0.018768
0.0189134
0.0191039
0.019354
0.0196328
0.0198976
0.0201381
0.0203957
0.0207122
0.018753
0.0186748
0.0186132
0.0185924
0.0186097
0.0186417
0.0186635
0.0186742
0.0186956
0.018754
0.0188548
0.0189804
0.0191045
0.0192176
0.0193367
0.0194875
0.0196794
0.019894
0.020107
0.0203115
0.0205301
0.0207857
0.0190815
0.0190421
0.0190118
0.0189992
0.0190034
0.0190176
0.0190337
0.0190524
0.0190818
0.0191314
0.0192027
0.0192897
0.0193838
0.0194828
0.0195928
0.019723
0.0198766
0.0200478
0.0202269
0.0204104
0.0206046
0.0208205
0.0193507
0.0193328
0.0193186
0.0193107
0.019309
0.0193124
0.0193193
0.0193319
0.0193541
0.0193907
0.019443
0.0195093
0.0195868
0.0196743
0.0197736
0.0198878
0.0200186
0.0201652
0.0203238
0.020492
0.0206694
0.0208615
-0.166396
-0.16177
-0.149571
-0.145184
-0.132647
-0.138862
-0.135959
-0.12453
-0.118957
-0.115026
-0.118968
-0.117345
-0.10991
-0.105659
-0.1038
-0.102541
-0.100636
-0.0957088
-0.0906768
-0.0892521
-0.0838779
-0.0803943
-0.0760278
-0.0757364
-0.0701138
-0.0681442
-0.0653333
-0.0656008
-0.0589304
-0.0578453
-0.055798
-0.0562141
-0.0489468
-0.0478896
-0.0463894
-0.0471556
-0.0398169
-0.038921
-0.0382759
-0.0394228
-0.0322055
-0.0316142
-0.0315025
-0.0327196
-0.025697
-0.0251538
-0.0251346
-0.0263241
-0.0196832
-0.0192261
-0.0194242
-0.0208128
-0.014384
-0.0140556
-0.0143796
-0.015706
-0.00966464
-0.00946128
-0.00995018
-0.0113286
-0.00577909
-0.00576812
-0.00605136
-0.00677472
-0.00192141
-0.0015454
-0.00167087
-0.00283998
0.00156773
0.00155398
0.000912306
-0.000153264
0.00383075
0.00382798
0.00377701
0.00347797
0.00663401
0.0069359
0.00686446
0.00613294
0.00903385
0.00905045
0.00874721
0.00818057
0.0107538
0.0108307
0.010792
0.0105029
0.0125856
0.0127203
0.0126925
0.0123822
0.0141525
0.0142167
0.014173
0.013945
0.0154507
0.0155052
0.0155061
0.0153684
0.0166264
0.0166613
0.0166527
0.0165382
0.0175664
0.0175583
0.0175374
0.0174644
0.0183234
0.0183138
0.0183058
0.0182674
0.0188919
0.0188707
0.0188499
0.0188152
0.0192243
0.0191857
0.0191526
0.0191198
0.0194541
0.0194204
0.0193933
0.0193708
)
;

boundaryField
{
    outlet
    {
        type            fixedValue;
        value           nonuniform 0();
    }
    upperWall
    {
        type            symmetryPlane;
    }
    lowerWall
    {
        type            symmetryPlane;
    }
    inlet
    {
        type            zeroGradient;
    }
    cylinder
    {
        type            zeroGradient;
    }
    frontAndBack
    {
        type            empty;
    }
    procBoundary6to2
    {
        type            processor;
        value           nonuniform List<scalar> 
37
(
-1.18787
-1.22766
-1.26964
-1.30238
-1.31681
-1.3134
-1.29297
-1.23971
-1.142
-1.02115
-0.904038
-0.811369
-0.74477
-0.708006
-0.695339
-0.710059
-0.745419
-0.818566
-0.966945
-1.08314
-1.1081
-0.991558
-0.799189
-0.60928
-0.46755
-0.377005
-0.331304
-0.318605
-0.342388
-0.410191
-0.525719
-0.671024
-0.768112
-0.745953
-0.636481
-0.486428
-0.378127
)
;
    }
    procBoundary6to5
    {
        type            processor;
        value           nonuniform List<scalar> 
63
(
-0.618063
-0.618063
-0.540911
-0.487589
-0.487589
-0.431806
-0.387579
-0.387579
-0.343499
-0.30779
-0.275012
-0.275012
-0.242838
-0.216624
-0.193179
-0.193179
-1.15294
-1.13388
-1.13388
-1.06984
-0.997867
-0.934739
-0.863854
-0.863854
-0.861125
-0.861125
-0.864263
-0.864263
-0.801339
-0.801339
-0.708825
-0.708825
-0.168951
-0.143219
-0.122233
-0.104887
-0.0864999
-0.0864999
-0.0725597
-0.0609522
-0.050878
-0.0416259
-0.0335494
-0.0266779
-0.0205134
-0.0150334
-0.0102025
-0.00610269
-0.00241649
0.00117192
0.00370797
0.00626842
0.00880127
0.0106288
0.0124231
0.014066
0.0154169
0.0166109
0.0175938
0.0183576
0.0189271
0.0192728
0.019496
)
;
    }
    procBoundary6to7
    {
        type            processor;
        value           nonuniform List<scalar> 
42
(
-0.33386
-0.333491
-0.325333
-0.305352
-0.273873
-0.241449
-0.241449
-0.12862
-0.106401
-0.0887231
-0.066264
-0.066264
-0.0177931
-0.00285406
0.00751819
0.0174324
0.0197844
0.0266768
0.0261798
0.0294402
0.0282587
0.0294692
0.028968
0.0284061
0.0277826
0.0268684
0.0260409
0.025186
0.0243487
0.0235977
0.0229334
0.0223904
0.0219623
0.0216371
0.021412
0.0212552
0.0211573
0.0210969
0.0210704
0.0210699
0.0210546
0.0210664
)
;
    }
}


// ************************************************************************* //
