/*--------------------------------*- C++ -*----------------------------------*\
| =========                 |                                                 |
| \\      /  F ield         | OpenFOAM: The Open Source CFD Toolbox           |
|  \\    /   O peration     | Version:                                        |
|   \\  /    A nd           | Website:  www.openfoam.com                      |
|    \\/     M anipulation  |                                                 |
\*---------------------------------------------------------------------------*/
FoamFile
{
    version     2.0;
    format      ascii;
    class       volScalarField;
    location    "0.7";
    object      p;
}
// * * * * * * * * * * * * * * * * * * * * * * * * * * * * * * * * * * * * * //

dimensions      [0 2 -2 0 0 0 0];


internalField   nonuniform List<scalar> 
400
(
0.27821
0.270292
0.26244
0.254653
0.246928
0.239263
0.231656
0.224104
0.216607
0.209162
0.201768
0.194422
0.187123
0.179869
0.17266
0.165492
0.158366
0.151279
0.144231
0.137219
0.278369
0.270444
0.262585
0.254792
0.247061
0.23939
0.231777
0.224221
0.216719
0.20927
0.201871
0.194521
0.187218
0.179961
0.172748
0.165577
0.158447
0.151357
0.144306
0.137291
0.278506
0.270574
0.26271
0.254911
0.247174
0.239499
0.231881
0.224321
0.216815
0.209361
0.201958
0.194605
0.187299
0.180038
0.172822
0.165648
0.158516
0.151423
0.144369
0.137352
0.278618
0.270681
0.262812
0.255008
0.247267
0.239587
0.231966
0.224401
0.216892
0.209435
0.202029
0.194673
0.187364
0.1801
0.172882
0.165706
0.158571
0.151476
0.14442
0.137401
0.278723
0.27078
0.262906
0.255097
0.247352
0.239668
0.232043
0.224475
0.216962
0.209502
0.202093
0.194734
0.187422
0.180156
0.172935
0.165757
0.15862
0.151523
0.144465
0.137444
0.278826
0.270878
0.262998
0.255185
0.247435
0.239747
0.232118
0.224546
0.21703
0.209567
0.202155
0.194793
0.187478
0.18021
0.172986
0.165806
0.158667
0.151568
0.144508
0.137485
0.278933
0.270978
0.263092
0.255274
0.247519
0.239826
0.232193
0.224618
0.217098
0.209631
0.202216
0.194851
0.187534
0.180263
0.173037
0.165854
0.158713
0.151612
0.14455
0.137526
0.279045
0.271083
0.263192
0.255367
0.247607
0.239909
0.232272
0.224692
0.217168
0.209698
0.20228
0.194911
0.187591
0.180318
0.173089
0.165904
0.15876
0.151657
0.144593
0.137567
0.279166
0.271197
0.263298
0.255467
0.247701
0.239998
0.232356
0.224771
0.217243
0.209769
0.202347
0.194975
0.187652
0.180375
0.173144
0.165956
0.15881
0.151705
0.144639
0.13761
0.279297
0.271319
0.263413
0.255575
0.247802
0.240093
0.232445
0.224856
0.217323
0.209845
0.202419
0.195043
0.187717
0.180437
0.173203
0.166012
0.158863
0.151756
0.144687
0.137656
0.279437
0.27145
0.263535
0.255689
0.24791
0.240195
0.232541
0.224947
0.217409
0.209926
0.202496
0.195116
0.187786
0.180503
0.173265
0.166071
0.15892
0.151809
0.144738
0.137705
0.279583
0.271586
0.263663
0.25581
0.248023
0.240302
0.232642
0.225042
0.217499
0.210011
0.202576
0.195193
0.187858
0.180571
0.17333
0.166134
0.158979
0.151866
0.144792
0.137757
0.279731
0.271726
0.263794
0.255933
0.248139
0.240411
0.232745
0.225139
0.217591
0.210098
0.202659
0.195271
0.187933
0.180642
0.173398
0.166198
0.15904
0.151924
0.144848
0.13781
0.279878
0.271863
0.263923
0.256054
0.248254
0.240519
0.232847
0.225235
0.217682
0.210184
0.202741
0.195349
0.188007
0.180713
0.173465
0.166262
0.159101
0.151982
0.144903
0.137863
0.280016
0.271993
0.264045
0.25617
0.248363
0.240622
0.232944
0.225327
0.217769
0.210267
0.202819
0.195424
0.188078
0.18078
0.173529
0.166323
0.15916
0.152038
0.144957
0.137914
0.280142
0.272112
0.264157
0.256275
0.248462
0.240715
0.233033
0.225411
0.217849
0.210343
0.202891
0.195492
0.188143
0.180842
0.173588
0.166379
0.159213
0.152089
0.145006
0.13796
0.28025
0.272213
0.264252
0.256365
0.248547
0.240796
0.233109
0.225484
0.217918
0.210408
0.202953
0.195551
0.188199
0.180896
0.173639
0.166428
0.15926
0.152134
0.145048
0.138001
0.280334
0.272293
0.264328
0.256436
0.248614
0.24086
0.23317
0.225541
0.217972
0.21046
0.203003
0.195598
0.188244
0.180938
0.17368
0.166467
0.159297
0.152169
0.145082
0.138033
0.280393
0.272348
0.26438
0.256486
0.248661
0.240904
0.233212
0.225581
0.21801
0.210496
0.203037
0.195631
0.188275
0.180968
0.173708
0.166494
0.159323
0.152194
0.145105
0.138056
0.280423
0.272376
0.264407
0.256511
0.248685
0.240927
0.233233
0.225602
0.21803
0.210515
0.203055
0.195647
0.188291
0.180983
0.173723
0.166508
0.159336
0.152207
0.145118
0.138068
)
;

boundaryField
{
    fixedWalls
    {
        type            zeroGradient;
    }
    inlet
    {
        type            zeroGradient;
    }
    outlet
    {
        type            fixedValue;
        value           nonuniform 0();
    }
    frontAndBack
    {
        type            empty;
    }
    procBoundary2to1
    {
        type            processor;
        value           nonuniform List<scalar> 
20
(
0.286198
0.286364
0.286507
0.286626
0.286736
0.286846
0.286959
0.287079
0.287209
0.287349
0.287499
0.287655
0.287814
0.28797
0.288118
0.288252
0.288366
0.288456
0.288519
0.28855
)
;
    }
    procBoundary2to3
    {
        type            processor;
        value           nonuniform List<scalar> 
20
(
0.130243
0.130313
0.130371
0.130418
0.130459
0.130499
0.130538
0.130577
0.130618
0.130662
0.130709
0.130758
0.130809
0.130859
0.130908
0.130953
0.130991
0.131022
0.131044
0.131055
)
;
    }
    procBoundary2to6
    {
        type            processor;
        value           nonuniform List<scalar> 
20
(
0.280423
0.272376
0.264407
0.256511
0.248685
0.240927
0.233233
0.225602
0.21803
0.210515
0.203055
0.195647
0.188291
0.180983
0.173723
0.166508
0.159336
0.152207
0.145118
0.138068
)
;
    }
}


// ************************************************************************* //
