/*--------------------------------*- C++ -*----------------------------------*\
| =========                 |                                                 |
| \\      /  F ield         | OpenFOAM: The Open Source CFD Toolbox           |
|  \\    /   O peration     | Version:                                        |
|   \\  /    A nd           | Website:  www.openfoam.com                      |
|    \\/     M anipulation  |                                                 |
\*---------------------------------------------------------------------------*/
FoamFile
{
    version     2.0;
    format      ascii;
    class       surfaceScalarField;
    location    "0.7";
    object      phi;
}
// * * * * * * * * * * * * * * * * * * * * * * * * * * * * * * * * * * * * * //

dimensions      [0 3 -1 0 0 0 0];
oriented        oriented;


internalField   nonuniform List<scalar> 
760
(
2.11585e-06
9.74874e-09
2.10652e-06
9.32261e-09
2.0976e-06
8.92098e-09
2.08906e-06
8.54202e-09
2.08088e-06
8.18377e-09
2.07303e-06
7.84456e-09
2.06551e-06
7.52304e-09
2.05829e-06
7.21794e-09
2.05136e-06
6.9279e-09
2.04471e-06
6.65187e-09
2.03832e-06
6.38896e-09
2.03218e-06
6.13846e-09
2.02628e-06
5.89958e-09
2.02061e-06
5.67147e-09
2.01516e-06
5.45339e-09
2.00991e-06
5.24486e-09
2.00487e-06
5.04541e-09
2.00002e-06
4.85441e-09
1.99534e-06
4.67142e-09
4.49607e-09
6.09991e-06
3.68263e-08
6.07404e-06
3.51972e-08
6.0493e-06
3.36636e-08
6.02562e-06
3.22177e-08
6.00295e-06
3.08521e-08
5.98124e-06
2.95605e-08
5.96042e-06
2.8337e-08
5.94046e-06
2.71766e-08
5.92132e-06
2.60745e-08
5.90294e-06
2.50269e-08
5.8853e-06
2.40298e-08
5.86836e-06
2.308e-08
5.85208e-06
2.21745e-08
5.83644e-06
2.13105e-08
5.82141e-06
2.04852e-08
5.80696e-06
1.96964e-08
5.79306e-06
1.89419e-08
5.7797e-06
1.82201e-08
5.76684e-06
1.75288e-08
1.68665e-08
9.83222e-06
7.88422e-08
9.7921e-06
7.53242e-08
9.75374e-06
7.20151e-08
9.71706e-06
6.8897e-08
9.68196e-06
6.5954e-08
9.64835e-06
6.31721e-08
9.61615e-06
6.05385e-08
9.58528e-06
5.8042e-08
9.55569e-06
5.56724e-08
9.52729e-06
5.34207e-08
9.50004e-06
5.12789e-08
9.47388e-06
4.92396e-08
9.44876e-06
4.72961e-08
9.42463e-06
4.54422e-08
9.40144e-06
4.36724e-08
9.37916e-06
4.19814e-08
9.35773e-06
4.03648e-08
9.33714e-06
3.88183e-08
9.31733e-06
3.7338e-08
3.59204e-08
1.3306e-05
1.33039e-07
1.32543e-05
1.27063e-07
1.32049e-05
1.21445e-07
1.31576e-05
1.16153e-07
1.31124e-05
1.11161e-07
1.30691e-05
1.06444e-07
1.30277e-05
1.0198e-07
1.2988e-05
9.77503e-08
1.29499e-05
9.37371e-08
1.29134e-05
8.99251e-08
1.28784e-05
8.63003e-08
1.28448e-05
8.28502e-08
1.28125e-05
7.9563e-08
1.27815e-05
7.64285e-08
1.27518e-05
7.34371e-08
1.27232e-05
7.05799e-08
1.26957e-05
6.78492e-08
1.26693e-05
6.52376e-08
1.26439e-05
6.27386e-08
6.0346e-08
1.6513e-05
1.962e-07
1.64527e-05
1.87347e-07
1.63952e-05
1.79025e-07
1.63401e-05
1.71189e-07
1.62875e-05
1.63798e-07
1.62371e-05
1.56816e-07
1.61889e-05
1.5021e-07
1.61427e-05
1.43952e-07
1.60984e-05
1.38016e-07
1.6056e-05
1.32378e-07
1.60152e-05
1.27019e-07
1.59762e-05
1.21919e-07
1.59387e-05
1.1706e-07
1.59027e-05
1.12429e-07
1.58681e-05
1.0801e-07
1.58349e-05
1.0379e-07
1.5803e-05
9.97577e-08
1.57723e-05
9.59024e-08
1.57428e-05
9.2214e-08
8.86833e-08
1.94446e-05
2.64626e-07
1.93793e-05
2.52659e-07
1.93169e-05
2.41411e-07
1.92573e-05
2.30818e-07
1.92002e-05
2.20826e-07
1.91457e-05
2.11386e-07
1.90934e-05
2.02456e-07
1.90434e-05
1.93996e-07
1.89954e-05
1.85971e-07
1.89495e-05
1.78351e-07
1.89054e-05
1.71107e-07
1.88631e-05
1.64214e-07
1.88225e-05
1.57649e-07
1.87835e-05
1.5139e-07
1.87461e-05
1.45419e-07
1.87102e-05
1.39718e-07
1.86757e-05
1.34272e-07
1.86425e-05
1.29065e-07
1.86106e-05
1.24084e-07
1.19317e-07
2.20931e-05
3.34191e-07
2.20267e-05
3.19088e-07
2.19632e-05
3.04885e-07
2.19025e-05
2.91505e-07
2.18445e-05
2.7888e-07
2.17889e-05
2.66949e-07
2.17357e-05
2.5566e-07
2.16848e-05
2.44963e-07
2.16359e-05
2.34814e-07
2.15891e-05
2.25176e-07
2.15442e-05
2.16013e-07
2.15011e-05
2.07293e-07
2.14598e-05
1.98987e-07
2.14201e-05
1.91069e-07
2.1382e-05
1.83515e-07
2.13454e-05
1.76302e-07
2.13103e-05
1.69411e-07
2.12765e-05
1.62824e-07
2.12441e-05
1.56523e-07
1.50493e-07
2.44535e-05
4.00493e-07
2.43902e-05
3.82458e-07
2.43296e-05
3.65484e-07
2.42716e-05
3.49483e-07
2.42161e-05
3.34376e-07
2.4163e-05
3.20092e-07
2.41121e-05
3.06568e-07
2.40633e-05
2.93748e-07
2.40165e-05
2.81581e-07
2.39717e-05
2.70022e-07
2.39286e-05
2.59029e-07
2.38874e-05
2.48565e-07
2.38478e-05
2.38595e-07
2.38097e-05
2.2909e-07
2.37732e-05
2.2002e-07
2.37382e-05
2.11359e-07
2.37045e-05
2.03084e-07
2.36722e-05
1.95172e-07
2.36411e-05
1.87605e-07
1.80362e-07
2.65247e-05
4.59075e-07
2.64686e-05
4.3854e-07
2.64149e-05
4.19191e-07
2.63634e-05
4.00931e-07
2.63141e-05
3.83675e-07
2.62669e-05
3.67345e-07
2.62216e-05
3.51872e-07
2.61781e-05
3.37194e-07
2.61365e-05
3.23256e-07
2.60965e-05
3.10006e-07
2.60581e-05
2.97399e-07
2.60213e-05
2.85393e-07
2.59859e-05
2.73951e-07
2.5952e-05
2.63037e-07
2.59194e-05
2.5262e-07
2.58881e-05
2.42671e-07
2.5858e-05
2.33162e-07
2.58291e-05
2.2407e-07
2.58013e-05
2.15372e-07
2.07046e-07
2.83104e-05
5.05721e-07
2.82656e-05
4.83318e-07
2.82226e-05
4.62177e-07
2.81813e-05
4.42198e-07
2.81417e-05
4.23294e-07
2.81037e-05
4.05384e-07
2.80671e-05
3.88396e-07
2.80321e-05
3.72266e-07
2.79984e-05
3.56936e-07
2.7966e-05
3.42352e-07
2.7935e-05
3.28465e-07
2.79051e-05
3.15233e-07
2.78765e-05
3.02615e-07
2.78489e-05
2.90574e-07
2.78225e-05
2.79076e-07
2.77971e-05
2.6809e-07
2.77726e-05
2.57588e-07
2.77492e-05
2.47542e-07
2.77266e-05
2.37929e-07
2.28726e-07
2.98202e-05
5.36751e-07
2.97903e-05
5.13269e-07
2.97614e-05
4.91069e-07
2.97335e-05
4.70054e-07
2.97067e-05
4.50138e-07
2.96808e-05
4.31243e-07
2.96559e-05
4.13299e-07
2.96319e-05
3.9624e-07
2.96089e-05
3.8001e-07
2.95867e-05
3.64556e-07
2.95653e-05
3.49828e-07
2.95447e-05
3.35783e-07
2.9525e-05
3.22381e-07
2.9506e-05
3.09583e-07
2.94877e-05
2.97356e-07
2.94701e-05
2.85668e-07
2.94532e-05
2.74489e-07
2.9437e-05
2.63792e-07
2.94213e-05
2.53552e-07
2.43746e-07
3.10698e-05
5.49313e-07
3.10574e-05
5.25636e-07
3.10453e-05
5.03204e-07
3.10334e-05
4.81928e-07
3.10218e-05
4.61729e-07
3.10105e-05
4.42535e-07
3.09996e-05
4.24279e-07
3.09889e-05
4.06901e-07
3.09786e-05
3.90347e-07
3.09686e-05
3.74566e-07
3.09589e-05
3.59513e-07
3.09495e-05
3.45144e-07
3.09405e-05
3.31421e-07
3.09317e-05
3.18308e-07
3.09233e-05
3.05771e-07
3.09152e-05
2.9378e-07
3.09074e-05
2.82305e-07
3.08999e-05
2.71319e-07
3.08926e-05
2.60799e-07
2.50721e-07
3.208e-05
5.41593e-07
3.2087e-05
5.18632e-07
3.20934e-05
4.96828e-07
3.20992e-05
4.76104e-07
3.21046e-05
4.56392e-07
3.21095e-05
4.37626e-07
3.2114e-05
4.19749e-07
3.21182e-05
4.02707e-07
3.21221e-05
3.86451e-07
3.21257e-05
3.70935e-07
3.21291e-05
3.56118e-07
3.21323e-05
3.41961e-07
3.21353e-05
3.28428e-07
3.21381e-05
3.15486e-07
3.21408e-05
3.03103e-07
3.21433e-05
2.91251e-07
3.21457e-05
2.79904e-07
3.2148e-05
2.69034e-07
3.21502e-05
2.5862e-07
2.4864e-07
3.28761e-05
5.12944e-07
3.29032e-05
4.91573e-07
3.29288e-05
4.71231e-07
3.29531e-05
4.51854e-07
3.29761e-05
4.33386e-07
3.29979e-05
4.15772e-07
3.30187e-05
3.98964e-07
3.30385e-05
3.82917e-07
3.30573e-05
3.67589e-07
3.30753e-05
3.5294e-07
3.30925e-05
3.38935e-07
3.31089e-05
3.2554e-07
3.31247e-05
3.12723e-07
3.31397e-05
3.00455e-07
3.31541e-05
2.88708e-07
3.31679e-05
2.77457e-07
3.31811e-05
2.66678e-07
3.31938e-05
2.56348e-07
3.3206e-05
2.46445e-07
2.36951e-07
3.34862e-05
4.63902e-07
3.35328e-05
4.44907e-07
3.35773e-05
4.26783e-07
3.36197e-05
4.09482e-07
3.36601e-05
3.9296e-07
3.36987e-05
3.77174e-07
3.37356e-05
3.62085e-07
3.37708e-05
3.47658e-07
3.38045e-05
3.33858e-07
3.38368e-05
3.20653e-07
3.38678e-05
3.08014e-07
3.38974e-05
2.95913e-07
3.39258e-05
2.84324e-07
3.3953e-05
2.73221e-07
3.39791e-05
2.62582e-07
3.40042e-05
2.52386e-07
3.40283e-05
2.42611e-07
3.40514e-05
2.33238e-07
3.40736e-05
2.24248e-07
2.15624e-07
3.39389e-05
3.96113e-07
3.40037e-05
3.80154e-07
3.40656e-05
3.64893e-07
3.41248e-05
3.50298e-07
3.41814e-05
3.36333e-07
3.42356e-05
3.22968e-07
3.42875e-05
3.10174e-07
3.43373e-05
2.97923e-07
3.43849e-05
2.86191e-07
3.44306e-05
2.74951e-07
3.44745e-05
2.64182e-07
3.45165e-05
2.53861e-07
3.45569e-05
2.43968e-07
3.45956e-05
2.34484e-07
3.46328e-05
2.25389e-07
3.46685e-05
2.16666e-07
3.47028e-05
2.083e-07
3.47358e-05
2.00273e-07
3.47675e-05
1.92571e-07
1.85179e-07
3.42622e-05
3.12184e-07
3.43426e-05
2.99781e-07
3.44196e-05
2.87899e-07
3.44934e-05
2.76515e-07
3.45641e-05
2.65606e-07
3.46319e-05
2.5515e-07
3.4697e-05
2.45128e-07
3.47594e-05
2.3552e-07
3.48192e-05
2.26308e-07
3.48767e-05
2.17475e-07
3.49319e-05
2.09004e-07
3.49849e-05
2.00879e-07
3.50358e-05
1.93085e-07
3.50846e-05
1.85607e-07
3.51316e-05
1.78433e-07
3.51767e-05
1.71549e-07
3.52201e-05
1.64942e-07
3.52617e-05
1.586e-07
3.53018e-05
1.52513e-07
1.46669e-07
3.44807e-05
2.15496e-07
3.45735e-05
2.07027e-07
3.46625e-05
1.98901e-07
3.47479e-05
1.91106e-07
3.48299e-05
1.83627e-07
3.49086e-05
1.76451e-07
3.49841e-05
1.69565e-07
3.50567e-05
1.62958e-07
3.51264e-05
1.56619e-07
3.51933e-05
1.50535e-07
3.52576e-05
1.44696e-07
3.53194e-05
1.39092e-07
3.53788e-05
1.33714e-07
3.54358e-05
1.28551e-07
3.54907e-05
1.23596e-07
3.55434e-05
1.18839e-07
3.55941e-05
1.14271e-07
3.56428e-05
1.09886e-07
3.56896e-05
1.05675e-07
1.01632e-07
3.46146e-05
1.09997e-07
3.47159e-05
1.05703e-07
3.48132e-05
1.01581e-07
3.49067e-05
9.76219e-08
3.49965e-05
9.38209e-08
3.50828e-05
9.01714e-08
3.51657e-05
8.66676e-08
3.52453e-05
8.33037e-08
3.53219e-05
8.00738e-08
3.53954e-05
7.69728e-08
3.54661e-05
7.39955e-08
3.55341e-05
7.11369e-08
3.55994e-05
6.83925e-08
3.56622e-05
6.57573e-08
3.57226e-05
6.32272e-08
3.57806e-05
6.07979e-08
3.58364e-05
5.84644e-08
3.58901e-05
5.62241e-08
3.59417e-05
5.40721e-08
5.20049e-08
3.46778e-05
3.47835e-05
3.48851e-05
3.49827e-05
3.50765e-05
3.51667e-05
3.52534e-05
3.53367e-05
3.54167e-05
3.54937e-05
3.55677e-05
3.56388e-05
3.57072e-05
3.5773e-05
3.58362e-05
3.5897e-05
3.59554e-05
3.60116e-05
3.60657e-05
)
;

boundaryField
{
    fixedWalls
    {
        type            calculated;
        value           uniform 0;
    }
    inlet
    {
        type            calculated;
        value           nonuniform 0();
    }
    outlet
    {
        type            calculated;
        value           nonuniform 0();
    }
    frontAndBack
    {
        type            empty;
        value           nonuniform 0();
    }
    procBoundary2to1
    {
        type            processor;
        value           nonuniform List<scalar> 
20
(
-2.1256e-06
-6.12699e-06
-9.87424e-06
-1.33602e-05
-1.65762e-05
-1.9513e-05
-2.21627e-05
-2.45199e-05
-2.65832e-05
-2.8357e-05
-2.98513e-05
-3.10824e-05
-3.20723e-05
-3.28475e-05
-3.34371e-05
-3.38712e-05
-3.41783e-05
-3.4384e-05
-3.45091e-05
-3.45678e-05
)
;
    }
    procBoundary2to3
    {
        type            processor;
        value           nonuniform List<scalar> 
20
(
1.99085e-06
5.75447e-06
9.29827e-06
1.26194e-05
1.57145e-05
1.858e-05
2.12129e-05
2.36112e-05
2.57746e-05
2.77049e-05
2.94063e-05
3.08857e-05
3.21523e-05
3.32177e-05
3.40949e-05
3.47979e-05
3.53403e-05
3.57347e-05
3.59913e-05
3.61177e-05
)
;
    }
    procBoundary2to6
    {
        type            processor;
        value           nonuniform List<scalar> 
20
(
2.29589e-12
2.33359e-12
3.21906e-12
2.90008e-12
2.89028e-12
3.5659e-12
3.91198e-12
4.27138e-12
4.74479e-12
4.85282e-12
5.33408e-12
5.61333e-12
6.10154e-12
6.971e-12
6.7567e-12
6.67841e-12
7.63828e-12
8.81912e-12
9.12722e-12
1.02189e-11
)
;
    }
}


// ************************************************************************* //
