/*--------------------------------*- C++ -*----------------------------------*\
| =========                 |                                                 |
| \\      /  F ield         | OpenFOAM: The Open Source CFD Toolbox           |
|  \\    /   O peration     | Version:                                        |
|   \\  /    A nd           | Website:  www.openfoam.com                      |
|    \\/     M anipulation  |                                                 |
\*---------------------------------------------------------------------------*/
FoamFile
{
    version     2.0;
    format      ascii;
    class       volVectorField;
    location    "0.7";
    object      U;
}
// * * * * * * * * * * * * * * * * * * * * * * * * * * * * * * * * * * * * * //

dimensions      [0 1 -1 0 0 0 0];


internalField   nonuniform List<vector> 
400
(
(0.0848247 6.42651e-05 0)
(0.0844435 6.15132e-05 0)
(0.0840789 5.89145e-05 0)
(0.0837298 5.64583e-05 0)
(0.0833955 5.41325e-05 0)
(0.0830751 5.19268e-05 0)
(0.0827679 4.98331e-05 0)
(0.0824732 4.78438e-05 0)
(0.0821905 4.59502e-05 0)
(0.081919 4.41454e-05 0)
(0.0816583 4.24243e-05 0)
(0.0814078 4.07827e-05 0)
(0.0811672 3.92161e-05 0)
(0.0809359 3.77186e-05 0)
(0.0807135 3.62853e-05 0)
(0.0804996 3.49136e-05 0)
(0.0802939 3.36006e-05 0)
(0.0800959 3.23423e-05 0)
(0.0799055 3.11356e-05 0)
(0.0797222 2.99786e-05 0)
(0.244526 0.000391234 0)
(0.243468 0.000374093 0)
(0.242456 0.000357942 0)
(0.241488 0.000342702 0)
(0.240562 0.000328298 0)
(0.239675 0.000314665 0)
(0.238825 0.000301742 0)
(0.23801 0.000289479 0)
(0.237228 0.000277824 0)
(0.236478 0.000266737 0)
(0.235758 0.00025618 0)
(0.235067 0.000246119 0)
(0.234403 0.000236523 0)
(0.233765 0.000227363 0)
(0.233151 0.000218609 0)
(0.232562 0.000210237 0)
(0.231995 0.000202229 0)
(0.23145 0.000194562 0)
(0.230926 0.000187218 0)
(0.230422 0.000180179 0)
(0.39411 0.00108269 0)
(0.392468 0.00103466 0)
(0.3909 0.000989456 0)
(0.3894 0.000946843 0)
(0.387965 0.000906607 0)
(0.386592 0.000868557 0)
(0.385277 0.000832521 0)
(0.384016 0.00079835 0)
(0.382807 0.000765904 0)
(0.381648 0.000735062 0)
(0.380536 0.000705717 0)
(0.379468 0.000677767 0)
(0.378443 0.000651121 0)
(0.377458 0.000625699 0)
(0.376512 0.000601424 0)
(0.375603 0.000578222 0)
(0.37473 0.000556035 0)
(0.37389 0.000534806 0)
(0.373082 0.000514481 0)
(0.372305 0.000495012 0)
(0.5333 0.00206287 0)
(0.531183 0.00197057 0)
(0.529161 0.00188377 0)
(0.527228 0.00180199 0)
(0.52538 0.00172483 0)
(0.523612 0.0016519 0)
(0.521919 0.00158287 0)
(0.520297 0.00151744 0)
(0.518742 0.00145535 0)
(0.517251 0.00139636 0)
(0.515822 0.00134026 0)
(0.51445 0.00128685 0)
(0.513133 0.00123595 0)
(0.511868 0.00118741 0)
(0.510654 0.00114107 0)
(0.509487 0.00109681 0)
(0.508366 0.00105449 0)
(0.507288 0.00101402 0)
(0.506252 0.000975281 0)
(0.505256 0.000938189 0)
(0.661755 0.00325528 0)
(0.659288 0.00310873 0)
(0.656932 0.00297096 0)
(0.654682 0.00284122 0)
(0.65253 0.00271885 0)
(0.650471 0.00260322 0)
(0.6485 0.00249382 0)
(0.646612 0.00239017 0)
(0.644804 0.00229184 0)
(0.64307 0.00219845 0)
(0.641407 0.00210966 0)
(0.639812 0.00202516 0)
(0.638282 0.00194465 0)
(0.636813 0.00186789 0)
(0.635402 0.00179465 0)
(0.634047 0.0017247 0)
(0.632745 0.00165785 0)
(0.631494 0.00159393 0)
(0.630292 0.00153276 0)
(0.629136 0.00147421 0)
(0.779121 0.00459086 0)
(0.776448 0.00438339 0)
(0.773896 0.00418839 0)
(0.771457 0.00400477 0)
(0.769125 0.00383159 0)
(0.766895 0.00366799 0)
(0.76476 0.00351323 0)
(0.762715 0.00336662 0)
(0.760756 0.00322756 0)
(0.758879 0.00309551 0)
(0.757078 0.00296997 0)
(0.755351 0.00285052 0)
(0.753695 0.00273675 0)
(0.752104 0.00262829 0)
(0.750578 0.0025248 0)
(0.749112 0.002426 0)
(0.747703 0.0023316 0)
(0.74635 0.00224134 0)
(0.74505 0.002155 0)
(0.743801 0.00207236 0)
(0.885085 0.00599244 0)
(0.882367 0.00572133 0)
(0.87977 0.00546647 0)
(0.877289 0.00522643 0)
(0.874915 0.00500001 0)
(0.872644 0.00478609 0)
(0.87047 0.0045837 0)
(0.868388 0.00439196 0)
(0.866393 0.0042101 0)
(0.864481 0.00403739 0)
(0.862647 0.00387321 0)
(0.860888 0.00371698 0)
(0.8592 0.00356819 0)
(0.857581 0.00342635 0)
(0.856026 0.00329103 0)
(0.854533 0.00316184 0)
(0.853099 0.00303841 0)
(0.851722 0.00292042 0)
(0.850399 0.00280756 0)
(0.849127 0.00269955 0)
(0.979438 0.00737394 0)
(0.976846 0.00704096 0)
(0.974369 0.00672774 0)
(0.971998 0.00643261 0)
(0.96973 0.00615407 0)
(0.967559 0.00589082 0)
(0.965479 0.00564166 0)
(0.963486 0.00540555 0)
(0.961576 0.00518152 0)
(0.959745 0.00496874 0)
(0.957988 0.00476643 0)
(0.956303 0.00457388 0)
(0.954687 0.00439047 0)
(0.953135 0.00421561 0)
(0.951645 0.00404879 0)
(0.950214 0.0038895 0)
(0.94884 0.00373733 0)
(0.947521 0.00359185 0)
(0.946253 0.0034527 0)
(0.945034 0.00331953 0)
(1.06213 0.00864528 0)
(1.05984 0.00825685 0)
(1.05765 0.00789113 0)
(1.05554 0.00754622 0)
(1.05353 0.00722045 0)
(1.0516 0.00691233 0)
(1.04975 0.00662054 0)
(1.04798 0.00634385 0)
(1.04627 0.00608121 0)
(1.04464 0.00583164 0)
(1.04308 0.00559425 0)
(1.04157 0.00536824 0)
(1.04013 0.00515289 0)
(1.03874 0.00494754 0)
(1.03741 0.00475157 0)
(1.03614 0.00456443 0)
(1.03491 0.00438561 0)
(1.03373 0.00421464 0)
(1.0326 0.0040511 0)
(1.03151 0.00389457 0)
(1.13333 0.00971812 0)
(1.1315 0.00928507 0)
(1.12975 0.00887677 0)
(1.12806 0.00849124 0)
(1.12644 0.00812671 0)
(1.12489 0.00778158 0)
(1.1234 0.00745443 0)
(1.12197 0.00714397 0)
(1.1206 0.00684905 0)
(1.11928 0.00656861 0)
(1.11801 0.00630171 0)
(1.11679 0.00604747 0)
(1.11562 0.00580511 0)
(1.1145 0.0055739 0)
(1.11342 0.00535318 0)
(1.11238 0.00514234 0)
(1.11138 0.00494081 0)
(1.11043 0.00474809 0)
(1.10951 0.0045637 0)
(1.10862 0.00438719 0)
(1.19342 0.0105119 0)
(1.1922 0.0100487 0)
(1.19102 0.00961129 0)
(1.18989 0.00919759 0)
(1.18879 0.00880586 0)
(1.18774 0.0084345 0)
(1.18673 0.00808208 0)
(1.18575 0.00774728 0)
(1.18481 0.00742893 0)
(1.1839 0.00712596 0)
(1.18303 0.00683737 0)
(1.18219 0.00656229 0)
(1.18139 0.00629989 0)
(1.18061 0.00604943 0)
(1.17987 0.0058102 0)
(1.17915 0.00558159 0)
(1.17846 0.00536299 0)
(1.1778 0.00515386 0)
(1.17716 0.00495372 0)
(1.17655 0.00476209 0)
(1.24304 0.01096 0)
(1.24254 0.0104838 0)
(1.24205 0.0100331 0)
(1.24157 0.00960608 0)
(1.2411 0.00920106 0)
(1.24064 0.00881651 0)
(1.2402 0.00845106 0)
(1.23977 0.00810344 0)
(1.23935 0.00777252 0)
(1.23894 0.00745724 0)
(1.23855 0.00715665 0)
(1.23816 0.00686989 0)
(1.2378 0.00659613 0)
(1.23744 0.00633464 0)
(1.2371 0.00608474 0)
(1.23677 0.00584578 0)
(1.23645 0.00561718 0)
(1.23614 0.00539839 0)
(1.23585 0.00518892 0)
(1.23556 0.00498829 0)
(1.28305 0.0110149 0)
(1.28335 0.0105439 0)
(1.28361 0.0100971 0)
(1.28386 0.00967299 0)
(1.28408 0.00926993 0)
(1.28429 0.00888658 0)
(1.28447 0.00852168 0)
(1.28465 0.0081741 0)
(1.28481 0.00784277 0)
(1.28496 0.00752673 0)
(1.2851 0.0072251 0)
(1.28523 0.00693705 0)
(1.28535 0.00666183 0)
(1.28547 0.00639873 0)
(1.28558 0.00614711 0)
(1.28568 0.00590635 0)
(1.28578 0.00567591 0)
(1.28588 0.00545523 0)
(1.28596 0.00524386 0)
(1.28605 0.00504133 0)
(1.31449 0.0106515 0)
(1.3156 0.0102039 0)
(1.31665 0.00977835 0)
(1.31765 0.00937341 0)
(1.31859 0.00898784 0)
(1.31949 0.00862043 0)
(1.32034 0.00827013 0)
(1.32115 0.00793593 0)
(1.32193 0.00761692 0)
(1.32266 0.00731224 0)
(1.32337 0.00702112 0)
(1.32404 0.00674281 0)
(1.32468 0.00647664 0)
(1.32529 0.00622198 0)
(1.32588 0.00597824 0)
(1.32645 0.00574486 0)
(1.32699 0.00552134 0)
(1.3275 0.00530718 0)
(1.328 0.00510194 0)
(1.32848 0.0049052 0)
(1.33849 0.00986897 0)
(1.3404 0.00946159 0)
(1.34222 0.00907333 0)
(1.34396 0.00870306 0)
(1.34561 0.00834978 0)
(1.34719 0.00801252 0)
(1.3487 0.0076904 0)
(1.35014 0.00738262 0)
(1.35152 0.00708841 0)
(1.35284 0.00680705 0)
(1.35411 0.00653789 0)
(1.35532 0.00628031 0)
(1.35648 0.00603372 0)
(1.35759 0.00579759 0)
(1.35865 0.00557141 0)
(1.35968 0.00535469 0)
(1.36066 0.00514699 0)
(1.3616 0.00494788 0)
(1.36251 0.00475697 0)
(1.36338 0.00457387 0)
(1.35623 0.00868968 0)
(1.35888 0.00833711 0)
(1.36141 0.00800031 0)
(1.36383 0.00767844 0)
(1.36615 0.00737072 0)
(1.36836 0.00707644 0)
(1.37049 0.00679491 0)
(1.37252 0.00652551 0)
(1.37446 0.00626764 0)
(1.37633 0.00602072 0)
(1.37812 0.00578425 0)
(1.37984 0.00555772 0)
(1.38148 0.00534066 0)
(1.38307 0.00513263 0)
(1.38458 0.00493321 0)
(1.38604 0.00474201 0)
(1.38744 0.00455865 0)
(1.38879 0.00438278 0)
(1.39008 0.00421406 0)
(1.39132 0.00405216 0)
(1.36885 0.00715707 0)
(1.37213 0.00687117 0)
(1.37528 0.00659748 0)
(1.37829 0.00633542 0)
(1.38118 0.00608446 0)
(1.38395 0.00584406 0)
(1.3866 0.00561375 0)
(1.38915 0.00539306 0)
(1.3916 0.00518155 0)
(1.39394 0.00497882 0)
(1.3962 0.00478446 0)
(1.39836 0.0045981 0)
(1.40043 0.00441938 0)
(1.40243 0.00424798 0)
(1.40434 0.00408355 0)
(1.40618 0.00392581 0)
(1.40795 0.00377445 0)
(1.40965 0.0036292 0)
(1.41129 0.0034898 0)
(1.41286 0.00335598 0)
(1.37734 0.00533207 0)
(1.38112 0.00512178 0)
(1.38476 0.00492013 0)
(1.38824 0.00472675 0)
(1.39159 0.00454128 0)
(1.3948 0.0043634 0)
(1.39789 0.00419277 0)
(1.40085 0.00402909 0)
(1.40369 0.00387207 0)
(1.40642 0.00372142 0)
(1.40905 0.00357688 0)
(1.41157 0.00343818 0)
(1.41399 0.00330509 0)
(1.41632 0.00317735 0)
(1.41855 0.00305476 0)
(1.4207 0.00293709 0)
(1.42277 0.00282413 0)
(1.42476 0.00271568 0)
(1.42667 0.00261157 0)
(1.4285 0.00251158 0)
(1.38252 0.003289 0)
(1.38665 0.00316047 0)
(1.39062 0.00303706 0)
(1.39444 0.00291859 0)
(1.3981 0.00280485 0)
(1.40162 0.00269565 0)
(1.405 0.00259082 0)
(1.40825 0.00249019 0)
(1.41137 0.00239358 0)
(1.41438 0.00230083 0)
(1.41726 0.00221179 0)
(1.42003 0.0021263 0)
(1.4227 0.00204423 0)
(1.42526 0.00196543 0)
(1.42772 0.00188978 0)
(1.43009 0.00181714 0)
(1.43236 0.00174737 0)
(1.43455 0.00168039 0)
(1.43666 0.00161606 0)
(1.43868 0.00155426 0)
(1.38496 0.0011115 0)
(1.38927 0.00106827 0)
(1.39341 0.00102675 0)
(1.3974 0.000986848 0)
(1.40122 0.000948526 0)
(1.4049 0.000911727 0)
(1.40844 0.00087638 0)
(1.41183 0.000842435 0)
(1.4151 0.000809835 0)
(1.41824 0.000778525 0)
(1.42126 0.00074846 0)
(1.42416 0.000719587 0)
(1.42695 0.000691864 0)
(1.42963 0.000665244 0)
(1.43221 0.00063967 0)
(1.43469 0.000615114 0)
(1.43707 0.000591532 0)
(1.43936 0.000568894 0)
(1.44157 0.000547134 0)
(1.44369 0.000526246 0)
)
;

boundaryField
{
    fixedWalls
    {
        type            noSlip;
    }
    inlet
    {
        type            fixedValue;
        value           nonuniform 0();
    }
    outlet
    {
        type            zeroGradient;
    }
    frontAndBack
    {
        type            empty;
    }
    procBoundary2to1
    {
        type            processor;
        value           nonuniform List<vector> 
20
(
(0.0852234 6.71854e-05 0)
(0.245634 0.000409467 0)
(0.39583 0.00113384 0)
(0.535519 0.00216122 0)
(0.664341 0.00341151 0)
(0.781922 0.00481204 0)
(0.887932 0.00628138 0)
(0.982151 0.00772859 0)
(1.06453 0.00905854 0)
(1.13523 0.0101782 0)
(1.19468 0.011003 0)
(1.24355 0.0114639 0)
(1.28273 0.011512 0)
(1.31331 0.0111227 0)
(1.33648 0.0102967 0)
(1.35346 0.00905888 0)
(1.36542 0.00745579 0)
(1.37339 0.00555138 0)
(1.37821 0.00342288 0)
(1.38047 0.00115649 0)
)
;
    }
    procBoundary2to3
    {
        type            processor;
        value           nonuniform List<vector> 
20
(
(0.0795458 2.88678e-05 0)
(0.229936 0.00017343 0)
(0.371557 0.000476352 0)
(0.504298 0.000902651 0)
(0.628025 0.00141813 0)
(0.7426 0.00199323 0)
(0.847905 0.00259613 0)
(0.943863 0.00319203 0)
(1.03046 0.0037447 0)
(1.10777 0.00421817 0)
(1.17596 0.00457854 0)
(1.23529 0.00479606 0)
(1.28613 0.00484721 0)
(1.32894 0.00471656 0)
(1.36421 0.00439824 0)
(1.39251 0.00389684 0)
(1.41437 0.00322754 0)
(1.43027 0.0024156 0)
(1.44063 0.00149491 0)
(1.44573 0.000506186 0)
)
;
    }
    procBoundary2to6
    {
        type            processor;
        value           nonuniform List<vector> 
20
(
(1.38496 -0.0011114 0)
(1.38927 -0.00106817 0)
(1.39341 -0.00102662 0)
(1.3974 -0.000986729 0)
(1.40122 -0.000948403 0)
(1.4049 -0.000911581 0)
(1.40844 -0.000876221 0)
(1.41183 -0.000842263 0)
(1.4151 -0.00080965 0)
(1.41824 -0.000778331 0)
(1.42126 -0.000748248 0)
(1.42416 -0.00071936 0)
(1.42695 -0.000691616 0)
(1.42963 -0.000664968 0)
(1.43221 -0.000639385 0)
(1.43469 -0.000614814 0)
(1.43707 -0.000591208 0)
(1.43936 -0.000568527 0)
(1.44157 -0.000546761 0)
(1.44369 -0.000525833 0)
)
;
    }
}


// ************************************************************************* //
