/*--------------------------------*- C++ -*----------------------------------*\
| =========                 |                                                 |
| \\      /  F ield         | OpenFOAM: The Open Source CFD Toolbox           |
|  \\    /   O peration     | Version:                                        |
|   \\  /    A nd           | Website:  www.openfoam.com                      |
|    \\/     M anipulation  |                                                 |
\*---------------------------------------------------------------------------*/
FoamFile
{
    version     2.0;
    format      ascii;
    class       volScalarField;
    location    "70";
    object      p;
}
// * * * * * * * * * * * * * * * * * * * * * * * * * * * * * * * * * * * * * //

dimensions      [0 2 -2 0 0 0 0];


internalField   nonuniform List<scalar> 
1139
(
-0.338242
-0.320012
-0.30018
-0.26842
-0.277921
-0.246882
-0.25257
-0.224636
-0.200786
-0.227211
-0.200664
-0.179705
-0.20165
-0.176302
-0.159037
-0.177432
-0.152219
-0.138284
-0.125074
-0.149655
-0.129201
-0.117758
-0.106959
-0.119552
-0.108215
-0.0966301
-0.090413
-0.719759
-0.785677
-0.771658
-0.745568
-0.704323
-0.651549
-0.856764
-0.832885
-0.792024
-0.728942
-0.650399
-0.548205
-0.928619
-0.895101
-0.840475
-0.760947
-0.652976
-0.521752
-0.41863
-0.99977
-0.958124
-0.889725
-0.794906
-0.663341
-0.522065
-0.394325
-0.353882
-1.06556
-1.01731
-0.939095
-0.829421
-0.688077
-0.534672
-0.420475
-0.3837
-0.381002
-1.12447
-1.07698
-0.990103
-0.865145
-0.7194
-0.564724
-0.478627
-0.427058
-0.402705
-0.380978
-1.17162
-1.12659
-1.03324
-0.902275
-0.753232
-0.622114
-0.533301
-0.466828
-0.416191
-0.372395
-1.1984
-1.15196
-1.05874
-0.929902
-0.792495
-0.674359
-0.572974
-0.487728
-0.415249
-0.360682
-1.21065
-1.1611
-1.07102
-0.950896
-0.822932
-0.698982
-0.582534
-0.482085
-0.402779
-0.343198
-1.21655
-1.1673
-1.07556
-0.955321
-0.820496
-0.683437
-0.558728
-0.457322
-0.380479
-0.320685
-1.21038
-1.15616
-1.05484
-0.921447
-0.775459
-0.635229
-0.514452
-0.421765
-0.351046
-0.295285
-1.15133
-1.09218
-0.981279
-0.841031
-0.697
-0.56902
-0.463841
-0.382398
-0.31753
-0.268043
-1.03118
-0.971397
-0.863138
-0.734252
-0.608543
-0.501452
-0.413844
-0.343369
-0.284677
-0.238202
-0.879234
-0.826045
-0.73363
-0.626293
-0.52442
-0.436991
-0.36524
-0.304229
-0.252754
-0.20885
-0.73332
-0.690716
-0.616266
-0.53082
-0.449271
-0.377042
-0.31871
-0.268352
-0.22497
-0.180671
-0.613717
-0.583245
-0.521358
-0.451151
-0.382236
-0.321357
-0.272748
-0.230758
-0.193749
-0.153689
-0.507857
-0.486363
-0.433548
-0.371812
-0.313022
-0.261037
-0.219592
-0.187309
-0.159317
-0.136828
-0.431273
-0.413034
-0.371629
-0.315601
-0.264074
-0.219908
-0.183701
-0.159489
-0.140373
-0.129772
-0.398815
-0.372064
-0.334377
-0.283254
-0.232455
-0.191935
-0.157862
-0.137532
-0.122192
-0.116046
-0.405906
-0.361385
-0.311573
-0.259229
-0.204809
-0.163157
-0.130172
-0.110299
-0.0979355
-0.0944087
-0.449701
-0.381566
-0.309481
-0.246558
-0.184825
-0.137176
-0.104687
-0.0839576
-0.0735399
-0.071286
-0.540564
-0.438285
-0.335079
-0.249696
-0.175977
-0.118785
-0.0820863
-0.0600397
-0.0500012
-0.0491895
-0.684319
-0.53681
-0.393781
-0.274185
-0.179272
-0.109413
-0.0640433
-0.0385548
-0.0273968
-0.0287853
-0.833951
-0.647914
-0.464385
-0.31072
-0.192994
-0.109747
-0.0535216
-0.0204866
-0.00613299
-0.00788398
-0.912509
-0.712253
-0.51528
-0.344774
-0.211132
-0.117337
-0.0504447
-0.00787217
0.01265
0.0117886
-0.864065
-0.679505
-0.499369
-0.337669
-0.20622
-0.128028
-0.0521167
-0.00134966
0.0281452
0.0304613
-0.717577
-0.574759
-0.435833
-0.307832
-0.197787
-0.113979
-0.0469611
-0.00509043
0.0329071
0.0447928
-0.550637
-0.458383
-0.361815
-0.265445
-0.17615
-0.103329
-0.046497
-0.00450321
0.0322821
0.0517425
-0.423852
-0.370217
-0.306418
-0.234833
-0.161699
-0.0997167
-0.0489426
-0.0105666
0.0215385
0.0459212
-0.350263
-0.321049
-0.277129
-0.217048
-0.152313
-0.0952512
-0.0497137
-0.0163324
0.00965146
0.0311004
-0.317396
-0.305735
-0.274174
-0.221479
-0.158308
-0.0980585
-0.0516179
-0.0174856
0.004184
0.0197621
-0.323788
-0.326414
-0.306329
-0.256664
-0.188069
-0.119955
-0.0626495
-0.0203609
0.00249097
0.017514
-0.374093
-0.397146
-0.391546
-0.338759
-0.262272
-0.176601
-0.101666
-0.0444716
-0.0101656
0.00945728
-0.49056
-0.542159
-0.549562
-0.501823
-0.409672
-0.292487
-0.189766
-0.102508
-0.0448936
-0.0133261
-0.658151
-0.731918
-0.757189
-0.720483
-0.612002
-0.473333
-0.330085
-0.200214
-0.105101
-0.0500827
-0.789318
-0.880423
-0.918976
-0.887205
-0.78994
-0.64477
-0.472641
-0.315281
-0.192407
-0.108277
-0.549354
-0.396127
-0.260726
-0.144386
-0.104904
-0.0766006
-0.0576459
-0.0407143
-0.0247509
-0.0123936
-0.00274649
0.00593202
0.0133036
0.0191977
0.0241821
0.0284755
0.0318382
0.0347197
0.0371941
0.0392643
0.0407536
0.0422769
0.0436061
0.0440639
0.0448827
0.0455651
0.0458301
0.0461193
0.0463475
0.0464289
0.0464893
0.0464966
0.0464341
0.0464238
-0.109102
-0.085474
-0.0653648
-0.0472416
-0.0311067
-0.0185198
-0.00793755
0.00125372
0.00893043
0.0153252
0.0207225
0.0253365
0.0289756
0.0322433
0.0348925
0.037208
0.0388818
0.0407922
0.0421043
0.042862
0.0439779
0.0446767
0.045142
0.0455966
0.0459201
0.0460964
0.0462444
0.0462976
0.0462724
0.0462802
-0.0979521
-0.0784154
-0.0610374
-0.0444601
-0.030066
-0.0184249
-0.00835348
0.000331115
0.00758001
0.013669
0.0189471
0.0234342
0.0271039
0.0304203
0.0331559
0.0354549
0.0373679
0.0393872
0.0406479
0.0417909
0.0430063
0.0437648
0.0444356
0.0450186
0.0454388
0.0457239
0.0459598
0.0460708
0.0460969
0.0461265
-0.0763304
-0.0578635
-0.0450173
-0.0315199
-0.0208189
-0.0113779
-0.00302975
0.00416713
0.0100866
0.0150861
0.0196612
0.0234455
0.0267644
0.0297612
0.0323639
0.0344933
0.0366097
0.0383894
0.0397066
0.0410848
0.0422435
0.0430839
0.0438825
0.0445339
0.0450233
0.0453929
0.0456866
0.0458464
0.0459173
0.0459639
-0.0524392
-0.0348181
-0.0245856
-0.014426
-0.00669126
0.000286467
0.00628774
0.0113781
0.015477
0.0191562
0.0225913
0.0253977
0.0280803
0.0305287
0.0326725
0.0346432
0.0366323
0.0380817
0.0394853
0.0408543
0.0418967
0.0427858
0.0435997
0.0442513
0.0447579
0.0451609
0.0454653
0.0456476
0.0457407
0.0457936
-0.0293508
-0.0137954
-0.00554672
0.00195397
0.00808649
0.0128789
0.0168233
0.0198994
0.02239
0.024738
0.026798
0.0286558
0.0305729
0.0323074
0.0339124
0.035715
0.0372478
0.0384992
0.0398579
0.0410379
0.0419602
0.0428206
0.0435638
0.0441662
0.0446406
0.0450266
0.0453022
0.0454785
0.0455691
0.045618
-0.00981773
0.00434139
0.0108808
0.0176754
0.021782
0.0243404
0.0264188
0.0278675
0.0291068
0.0302174
0.0311512
0.0322278
0.0333494
0.0343913
0.0355801
0.037029
0.0380913
0.0392389
0.0404193
0.0413904
0.0422154
0.0429874
0.0436292
0.0441621
0.0445842
0.0449274
0.0451615
0.0453194
0.0453951
0.0454364
0.00635465
0.0178337
0.0232934
0.0303173
0.0328967
0.0343264
0.0349306
0.0349557
0.0349189
0.0349013
0.0349977
0.0353253
0.0357377
0.0362571
0.0371222
0.0380683
0.0388726
0.0398741
0.0408193
0.0416197
0.042367
0.0430473
0.0436155
0.0440941
0.0444834
0.0447896
0.0449977
0.0451455
0.0452107
0.045249
0.0228171
0.0310221
0.0347347
0.0393627
0.0403124
0.0412543
0.0411332
0.040319
0.0393221
0.0384438
0.0377707
0.0374051
0.037318
0.0374757
0.038006
0.03857
0.0392428
0.0400901
0.0408653
0.0415767
0.0422772
0.0428961
0.0434324
0.0438858
0.0442787
0.0445732
0.0447847
0.0449407
0.04501
0.0450536
0.0396525
0.0451153
0.0481155
0.0498276
0.0485912
0.0477819
0.0460787
0.0443176
0.0426725
0.041156
0.0398161
0.038906
0.0383825
0.0382453
0.0384381
0.0387973
0.0393677
0.0400418
0.0406971
0.0413532
0.0420297
0.0426218
0.0431511
0.0436046
0.0440145
0.0443134
0.0445452
0.0447162
0.044799
0.0448518
0.0543106
0.0564452
0.0598164
0.0594283
0.0572571
0.0549036
0.0516327
0.0485386
0.045858
0.0435162
0.0416327
0.0403222
0.039455
0.039043
0.0389538
0.0391547
0.0395952
0.0401304
0.0406878
0.0412875
0.0418956
0.0424465
0.042943
0.0433886
0.043785
0.0440799
0.0443219
0.044495
0.0445867
0.0446446
0.0640996
0.0653906
0.0683686
0.0663157
0.0638573
0.0602174
0.0560659
0.0521716
0.0488307
0.0459789
0.0436441
0.0419563
0.0408097
0.040132
0.039844
0.039878
0.0401402
0.0405058
0.0409507
0.0414653
0.041978
0.0424641
0.0429001
0.0433113
0.0436504
0.0439172
0.0441412
0.0442947
0.0443814
0.0444353
0.068305
0.0669786
0.0700984
0.0687596
0.0662638
0.062345
0.0579539
0.0537714
0.0501747
0.0471696
0.0448836
0.0432421
0.042039
0.0412283
0.0407972
0.0406974
0.0407926
0.041021
0.0413685
0.0417569
0.0421639
0.0425575
0.0429243
0.0432802
0.0435544
0.0437877
0.0439766
0.0441032
0.0441772
0.0442222
0.0528187
0.0578748
0.061601
0.0624109
0.0613582
0.058861
0.0557444
0.0526632
0.0497104
0.0471336
0.0451286
0.0435685
0.0424729
0.041737
0.0413063
0.0411235
0.041107
0.0412634
0.0415315
0.0418436
0.0422035
0.0425383
0.0428725
0.0431771
0.0434157
0.0436281
0.0437894
0.0439003
0.0439664
0.044005
0.0333937
0.0388126
0.0432874
0.0476705
0.050268
0.0504287
0.0493536
0.0480626
0.0466989
0.045386
0.0442262
0.0431837
0.042353
0.0417185
0.0413267
0.0411374
0.0411126
0.0412378
0.0414388
0.0417004
0.0420081
0.0423207
0.0426502
0.0429333
0.0431825
0.0433957
0.0435555
0.0436707
0.0437409
0.0437801
0.0238318
0.0252524
0.0283044
0.0340256
0.039086
0.0417834
0.0428855
0.0435726
0.0435491
0.0431902
0.0426479
0.042195
0.0417441
0.0413197
0.0410526
0.0408752
0.0408566
0.0409821
0.0411734
0.0414428
0.0417429
0.0420627
0.0423807
0.0426572
0.0429194
0.0431348
0.0433036
0.0434288
0.043507
0.0435495
0.0178033
0.0189632
0.0216108
0.0260742
0.0314937
0.0353261
0.0383115
0.0404156
0.0414205
0.0418922
0.0418767
0.0417339
0.041371
0.0411427
0.0409923
0.0408928
0.0409077
0.0409831
0.0411301
0.0413466
0.0416149
0.0419064
0.0421944
0.0424628
0.0427123
0.0429145
0.0430756
0.0431968
0.043272
0.0433124
0.0065684
0.0136539
0.0153851
0.0192983
0.0254811
0.0302693
0.0344818
0.0372547
0.0392586
0.0402616
0.0410137
0.0412499
0.0412401
0.0412249
0.0411056
0.0410709
0.0410953
0.0411876
0.0413317
0.0415292
0.0417528
0.0419772
0.0421993
0.0424166
0.0426108
0.042771
0.0428939
0.042989
0.0430426
0.0430725
-0.0143735
-0.00236281
-0.000909154
0.00783179
0.0185942
0.0257711
0.0314805
0.0355933
0.0381918
0.0396382
0.0405495
0.0408236
0.0411798
0.0413194
0.041387
0.041427
0.0414572
0.0414873
0.0415784
0.0417204
0.0418814
0.0420537
0.0422298
0.0423958
0.042534
0.0426453
0.0427228
0.042784
0.0428095
0.0428268
-0.0527294
-0.0364276
-0.0250119
-0.00414924
0.0119975
0.0221501
0.0290055
0.0337022
0.0363749
0.038524
0.039683
0.04047
0.0409376
0.0410717
0.0412387
0.0413933
0.0415006
0.0415945
0.041693
0.041801
0.0419046
0.0420263
0.042158
0.0422768
0.0423812
0.0424601
0.0425152
0.0425544
0.0425635
0.0425742
-0.0893879
-0.0600814
-0.031187
-0.00725886
0.00883148
0.0212978
0.0273719
0.0317985
0.0346353
0.0370322
0.0383376
0.039588
0.0402609
0.0407463
0.0410671
0.0411817
0.0412506
0.0413212
0.0414174
0.0415202
0.0416371
0.0417744
0.0419076
0.0420185
0.04212
0.0421913
0.0422498
0.0422841
0.0422959
0.0423071
-0.108706
-0.0620071
-0.0652975
-0.0439407
-0.0270159
-0.0155322
-0.00547389
0.00438689
0.0128753
0.0193458
0.0246971
0.0295299
-0.0720852
-0.0490537
-0.0305849
-0.0184201
-0.00758057
0.00316458
0.0116701
0.0179474
0.0236273
0.0286955
0.0325105
0.0356101
0.0383849
0.0405438
0.0421911
0.0435699
0.0446997
0.045483
0.0459409
0.0466984
0.0468804
0.0469452
0.0472502
0.0472736
0.0472484
0.0472546
0.0471893
0.0471185
0.0470445
0.0470095
-0.0735908
-0.0489854
-0.0320523
-0.0215152
-0.00983122
0.00195018
0.0101871
0.0164496
0.0225992
0.0277563
0.0315529
0.0348204
0.037713
0.0398313
0.0415588
0.0430143
0.0442389
0.0449918
0.0456256
0.0464293
0.0464594
0.0467198
0.0470286
0.0470177
0.0470443
0.0470635
0.0470075
0.0469602
0.0468895
0.0468593
-0.0833099
-0.0532955
-0.0362928
-0.0250557
-0.0117994
6.64572e-05
0.00792524
0.0145987
0.0210998
0.0261586
0.0300534
0.0335962
0.0365629
0.0387376
0.0406677
0.0422625
0.0435503
0.0443629
0.0453191
0.0459606
0.0460299
0.046531
0.0467634
0.046777
0.0468644
0.0468834
0.0468435
0.0468121
0.0467377
0.0467116
-0.0880881
-0.0597808
-0.0440846
-0.0310059
-0.0162974
-0.00435765
0.00380713
0.0112825
0.0181255
0.0233219
0.027626
0.0314868
0.0345373
0.0369805
0.0392053
0.0410021
0.0423744
0.0434799
0.0447047
0.0451455
0.0455421
0.0461904
0.0463726
0.0464994
0.0466528
0.0466838
0.0466805
0.0466629
0.0465867
0.0465659
)
;

boundaryField
{
    outlet
    {
        type            fixedValue;
        value           nonuniform 0();
    }
    upperWall
    {
        type            symmetryPlane;
    }
    lowerWall
    {
        type            symmetryPlane;
    }
    inlet
    {
        type            zeroGradient;
    }
    cylinder
    {
        type            zeroGradient;
    }
    frontAndBack
    {
        type            empty;
    }
    procBoundary2to1
    {
        type            processor;
        value           nonuniform List<scalar> 
63
(
-0.357714
-0.357714
-0.311329
-0.289174
-0.289174
-0.24433
-0.222358
-0.222358
-0.184007
-0.163414
-0.143546
-0.143546
-0.115774
-0.0993482
-0.0836486
-0.0836486
-0.666606
-0.717183
-0.717183
-0.701128
-0.678275
-0.658547
-0.593729
-0.593729
-0.470927
-0.470927
-0.362405
-0.362405
-0.365692
-0.365692
-0.38816
-0.38816
-0.0610198
-0.042913
-0.0257582
-0.0131379
-0.00295668
0.00625854
0.0143416
0.020837
0.0259975
0.0304858
0.0333859
0.0333859
0.0364
0.0390015
0.0411325
0.0427513
0.0440805
0.0451312
0.0459316
0.0463695
0.0469675
0.0472918
0.0472755
0.0474878
0.0475459
0.047486
0.0474614
0.0473855
0.0472871
0.0472025
0.0471623
)
;
    }
    procBoundary2to3
    {
        type            processor;
        value           nonuniform List<scalar> 
43
(
-0.786805
-0.880118
-0.929187
-0.914335
-0.846673
-0.713602
-0.713602
-0.506413
-0.393531
-0.291157
-0.162372
-0.162372
-0.0262336
-0.00802734
0.00748412
0.0182075
0.0256513
0.0301104
0.0334745
0.0359965
0.0375971
0.0388022
0.0394121
0.0401165
0.0405804
0.0408978
0.0410918
0.0412049
0.0412628
0.0413228
0.0414165
0.0415271
0.0416393
0.0417425
0.0418389
0.0419095
0.041967
0.0419989
0.0420163
0.0420266
-0.117841
-0.0262336
-0.0554171
)
;
    }
    procBoundary2to6
    {
        type            processor;
        value           nonuniform List<scalar> 
37
(
-0.725258
-0.795285
-0.869856
-0.945135
-1.01573
-1.07925
-1.13197
-1.17204
-1.19831
-1.21361
-1.22386
-1.20643
-1.13812
-1.01539
-0.862364
-0.715397
-0.596671
-0.494787
-0.424993
-0.406469
-0.42967
-0.492843
-0.613048
-0.795478
-0.977724
-1.07003
-1.01121
-0.836853
-0.631729
-0.466334
-0.365597
-0.31557
-0.305398
-0.335885
-0.419696
-0.550394
-0.657909
)
;
    }
}


// ************************************************************************* //
