/*--------------------------------*- C++ -*----------------------------------*\
| =========                 |                                                 |
| \\      /  F ield         | OpenFOAM: The Open Source CFD Toolbox           |
|  \\    /   O peration     | Version:                                        |
|   \\  /    A nd           | Website:  www.openfoam.com                      |
|    \\/     M anipulation  |                                                 |
\*---------------------------------------------------------------------------*/
FoamFile
{
    version     2.0;
    format      ascii;
    class       volScalarField;
    location    "190";
    object      p;
}
// * * * * * * * * * * * * * * * * * * * * * * * * * * * * * * * * * * * * * //

dimensions      [0 2 -2 0 0 0 0];


internalField   nonuniform List<scalar> 
1150
(
0.197571
0.207927
0.218816
0.20136
0.212072
0.222947
0.202584
0.212706
0.22318
0.201455
0.210525
0.197818
0.205402
0.191601
0.0628486
0.05802
0.0608036
0.0609258
0.0628047
0.06268
0.0642812
0.0650359
0.0664041
0.0677931
0.0698687
0.0715323
0.0739929
0.0767619
0.0796455
0.0827863
0.0865587
0.0907908
0.0953674
0.100328
0.105997
0.112267
0.119104
0.126506
0.134673
0.143533
0.153107
0.163327
0.174319
0.186179
0.0631163
0.0583876
0.0610275
0.0613009
0.0632411
0.062958
0.0647625
0.0656637
0.0666408
0.0683689
0.0708171
0.0719738
0.074662
0.0778169
0.0805101
0.08365
0.0875874
0.0920528
0.0966295
0.101647
0.107436
0.113884
0.120874
0.128423
0.136748
0.145764
0.155496
0.165909
0.177168
0.18936
0.0633196
0.0588024
0.0612238
0.0616837
0.0636386
0.0632646
0.065249
0.0662507
0.0668835
0.0689536
0.071689
0.0724015
0.0753617
0.0788228
0.0813268
0.0844636
0.0885384
0.0930857
0.0976888
0.102642
0.108628
0.115059
0.122184
0.129698
0.138094
0.147266
0.157175
0.167734
0.179131
0.191331
0.063466
0.0592606
0.0614004
0.0620555
0.0639958
0.0635403
0.0657495
0.0667748
0.0671441
0.0695747
0.0724303
0.0728156
0.0761425
0.0796294
0.0821142
0.0852181
0.08951
0.0940931
0.0988556
0.10401
0.109971
0.116547
0.123574
0.131274
0.139692
0.148631
0.158392
0.168693
0.17974
0.191202
0.0635563
0.0597587
0.0615614
0.0624299
0.0642976
0.0638466
0.0662322
0.0672414
0.0674347
0.0702247
0.0730408
0.0732035
0.0769602
0.0803221
0.0828374
0.0861981
0.0902369
0.0948623
0.0996114
0.104681
0.110504
0.11698
0.123982
0.131402
0.139586
0.148298
0.15781
0.167728
0.178341
0.189019
0.0636037
0.0602882
0.0617212
0.0627827
0.0645547
0.0641365
0.0667208
0.0676275
0.0677723
0.0709115
0.073516
0.0736127
0.0778581
0.0810331
0.0837008
0.0871139
0.0912187
0.0960213
0.100492
0.105751
0.111763
0.118059
0.124972
0.132219
0.140209
0.148471
0.157454
0.166502
0.176049
0.185036
0.0636068
0.0608457
0.0618823
0.0631257
0.0647526
0.064473
0.0671513
0.0679801
0.0681471
0.0715841
0.0738458
0.0742166
0.0785993
0.0815404
0.0844091
0.0876828
0.091648
0.0966436
0.100985
0.106047
0.111792
0.117778
0.124406
0.131173
0.138719
0.14624
0.154558
0.162596
0.171059
0.178457
0.0635787
0.0614204
0.0620664
0.0634321
0.0649068
0.0648016
0.0675491
0.0682805
0.068605
0.0722844
0.074141
0.0750103
0.0795483
0.0821182
0.0854921
0.0885865
0.0928115
0.097713
0.102079
0.107297
0.11315
0.118829
0.125389
0.131744
0.138697
0.145469
0.152532
0.158924
0.165361
0.0635196
0.0620082
0.0622756
0.0637116
0.0650334
0.0651573
0.067872
0.0685809
0.069017
0.072779
0.0742964
0.0756184
0.0799289
0.0823466
0.0861682
0.088734
0.0933307
0.0979026
0.101813
0.107266
0.11219
0.117816
0.123621
0.129412
0.135589
0.141077
0.147192
0.151552
0.156482
0.0634396
0.0625938
0.0625401
0.0639391
0.0651196
0.0655275
0.0681659
0.0689192
0.069612
0.0733896
0.0745876
0.076716
0.0806391
0.0830913
0.0872504
0.0897075
0.0947479
0.0990194
0.103373
0.108954
0.113868
0.118993
0.124793
0.129648
0.134924
0.139103
0.142803
0.144616
0.063346
0.0631262
0.0628319
0.0641541
0.0651196
0.0658279
0.068261
0.0690592
0.0699511
0.073797
0.0746581
0.0772119
0.0806677
0.0833375
0.0875051
0.0893777
0.0953268
0.097959
0.103005
0.108163
0.111708
0.117453
0.121506
0.126169
0.129716
0.133038
0.134227
0.135173
0.0632592
0.0636154
0.063126
0.0644176
0.0651227
0.0661574
0.0682261
0.0693921
0.0701186
0.0739148
0.0747246
0.0775613
0.0804111
0.0834725
0.0868949
0.0891692
0.0942701
0.0969537
0.101598
0.106488
0.109206
0.114571
0.117561
0.121344
0.123975
0.125462
0.125653
0.125272
0.0632047
0.0640768
0.0634126
0.0647164
0.0652049
0.0665085
0.0682288
0.0697261
0.0702991
0.0740478
0.0747891
0.0777697
0.0802626
0.0834657
0.0865581
0.0890566
0.0933724
0.0962605
0.100001
0.104753
0.106785
0.111258
0.114009
0.116186
0.118272
0.118358
0.117845
0.116532
0.0631826
0.0644986
0.0637518
0.0650306
0.0653858
0.0668832
0.0682893
0.0700054
0.0705621
0.074021
0.0749456
0.0778766
0.0801912
0.08324
0.0862727
0.088724
0.0924995
0.0953706
0.0983846
0.102703
0.104225
0.107736
0.110237
0.111025
0.112519
0.111865
0.110693
0.109095
0.0632071
0.0648673
0.0641175
0.0653411
0.0656816
0.0672213
0.0684028
0.0702243
0.0709087
0.0738383
0.0752884
0.0777813
0.080157
0.0828449
0.0857994
0.0882951
0.0913522
0.0941231
0.0967383
0.10041
0.101644
0.103904
0.106224
0.106309
0.10691
0.105918
0.104369
0.102697
0.0632866
0.0651627
0.0645648
0.065639
0.0660491
0.0674955
0.0685578
0.0703694
0.0713027
0.0735791
0.0756029
0.0775193
0.0800521
0.0825132
0.0848736
0.0877685
0.0901176
0.0925832
0.0949345
0.0979082
0.0989958
0.100066
0.102135
0.101912
0.101629
0.100448
0.0988519
0.097112
0.0634308
0.0653671
0.0650066
0.0658922
0.0664545
0.0677082
0.0686868
0.0704628
0.071684
0.0732765
0.0758283
0.0772849
0.0796747
0.0822735
0.0837727
0.0869764
0.0890115
0.0908349
0.0928526
0.0952058
0.0963589
0.0965026
0.097916
0.0976759
0.096921
0.095542
0.0938883
0.09209
0.0636426
0.0654681
0.0654636
0.0661102
0.0668208
0.0679162
0.0687237
0.0705516
0.0720166
0.0729337
0.0759071
0.0771512
0.0790344
0.0819803
0.0828388
0.0857834
0.0878449
0.0890888
0.0906239
0.0923555
0.093566
0.0931957
0.0938365
0.0936846
0.0927276
0.091104
0.0892949
0.0874958
0.0639145
0.0654914
0.0658668
0.0663371
0.0670931
0.0681637
0.0686888
0.0705896
0.0723306
0.072584
0.0757771
0.0771616
0.0782204
0.0814438
0.0821572
0.0843017
0.0864529
0.0874016
0.0883874
0.0894752
0.090575
0.0901847
0.0901686
0.0898496
0.0888355
0.0871152
0.0852156
0.0834212
0.0642223
0.0655241
0.0661761
0.0665644
0.067315
0.0684296
0.0686491
0.0705459
0.072603
0.0722871
0.0753535
0.0772352
0.0774387
0.0804788
0.0815577
0.0828275
0.0846853
0.0855923
0.0862614
0.0868039
0.0875929
0.0872845
0.0868215
0.0862697
0.0852849
0.0836489
0.0817279
0.079899
0.0645429
0.0656096
0.0663922
0.066771
0.0675004
0.0686806
0.068649
0.0703995
0.072778
0.0720971
0.074691
0.0772157
0.0768607
0.0791755
0.0808051
0.0815678
0.0827415
0.0835927
0.0841671
0.0843894
0.0847634
0.084436
0.0837979
0.08306
0.0820938
0.0805936
0.0787443
0.0769187
0.0648509
0.0657568
0.0665654
0.0669378
0.0676503
0.0688908
0.0686941
0.0701864
0.0728018
0.0720225
0.0738301
0.0768942
0.0765632
0.077745
0.0796101
0.0804584
0.0809863
0.0814879
0.0819693
0.0821215
0.0822147
0.0817938
0.0810083
0.0801348
0.0791823
0.0778794
0.0762117
0.0744482
0.0651306
0.0659405
0.0667335
0.0670731
0.0677544
0.0690273
0.0687797
0.0699665
0.0726484
0.0720146
0.0730039
0.0761955
0.0763325
0.0764554
0.0780348
0.0792942
0.0795508
0.0794969
0.0796812
0.0798644
0.0799266
0.0794113
0.0784637
0.0774549
0.0765129
0.0754261
0.0740058
0.0723834
0.06539
0.0661354
0.066896
0.0671891
0.0678324
0.0690866
0.0688671
0.0697708
0.072317
0.0719836
0.0723007
0.0751728
0.0759665
0.0754687
0.0763252
0.0778291
0.0782637
0.0778263
0.077504
0.0775581
0.0777139
0.0772996
0.076255
0.0750607
0.0740568
0.0731343
0.0720153
0.0706267
0.0656499
0.066327
0.067036
0.0673083
0.0679001
0.0690711
0.0689306
0.0696017
0.0718514
0.0718493
0.0717475
0.0739889
0.0752908
0.0747094
0.0747551
0.076126
0.0768693
0.0763938
0.0756224
0.0753319
0.0754997
0.0753346
0.0743796
0.0730389
0.0718788
0.071008
0.0701507
0.0690508
0.0659035
0.0665121
0.0671635
0.0674242
0.0679603
0.0689996
0.0689465
0.0694584
0.0713077
0.0715539
0.0713172
0.0728255
0.074282
0.0739978
0.0734946
0.0743789
0.0752551
0.0750218
0.0740611
0.0733791
0.0733617
0.0733734
0.0726879
0.0713734
0.0700715
0.0691338
0.0684168
0.0675914
0.0661489
0.0666831
0.0672581
0.0675179
0.0679978
0.0688817
0.0688965
0.0693124
0.0707417
0.0710895
0.0709252
0.0718137
0.0730661
0.073152
0.0724748
0.072793
0.0735282
0.0735499
0.0726904
0.0717634
0.0714482
0.0714332
0.0710141
0.0699359
0.0686454
0.0676055
0.0668949
0.066238
0.0663788
0.0668369
0.0673235
0.0675693
0.067999
0.0687206
0.068777
0.0691292
0.0701828
0.0705212
0.0704787
0.0709654
0.0718355
0.0720991
0.0715531
0.0714685
0.071858
0.0719635
0.0713506
0.0704076
0.0698357
0.0696592
0.069361
0.06857
0.0674532
0.0664049
0.0656392
0.065034
0.0665859
0.0669653
0.0673661
0.0675794
0.0679415
0.0685149
0.0685908
0.0688776
0.0696413
0.0699185
0.0699379
0.0702027
0.0707213
0.0709648
0.0705984
0.0703124
0.0703706
0.0704116
0.0699899
0.0691831
0.0684952
0.0681323
0.0678249
0.0672462
0.0663713
0.0654259
0.0646367
0.0640192
0.0667628
0.0670665
0.0673776
0.0675448
0.0678373
0.0682717
0.0683419
0.068579
0.0691124
0.0693073
0.0693375
0.0694706
0.0697335
0.0698559
0.0695897
0.0692616
0.069094
0.0689917
0.0686553
0.0680223
0.0673455
0.0668607
0.0664868
0.0660109
0.0653364
0.0645466
0.063804
0.0631822
0.0668991
0.0671322
0.0673609
0.0674784
0.067698
0.068006
0.0680574
0.068249
0.0685881
0.0686954
0.0687228
0.0687502
0.0688331
0.0688257
0.0685879
0.0682724
0.0679807
0.0677542
0.0674253
0.0669101
0.0663054
0.0657836
0.0653521
0.0649066
0.0643609
0.0637202
0.0630748
0.0624929
0.0669878
0.0671621
0.0673173
0.0673855
0.0675376
0.0677343
0.0677501
0.0678894
0.0680784
0.0680989
0.0681026
0.0680508
0.0679997
0.0678914
0.0676448
0.0673411
0.067
0.0666848
0.0663245
0.0658735
0.0653532
0.0648513
0.0643953
0.0639525
0.0634782
0.0629541
0.0624171
0.061906
0.0670296
0.0671551
0.0672525
0.0672728
0.0673577
0.067464
0.0674275
0.0675076
0.0675998
0.067528
0.0674864
0.0673907
0.0672401
0.0670526
0.0667819
0.0664806
0.0661198
0.0657527
0.0653695
0.0649511
0.0644939
0.0640285
0.0635793
0.0631455
0.0627168
0.0622746
0.0618291
0.0613957
0.0670298
0.0671156
0.0671613
0.0671398
0.067166
0.0671944
0.0671078
0.0671284
0.0671431
0.066997
0.0668986
0.0667732
0.0665611
0.0663063
0.0660082
0.0657024
0.0653412
0.0649538
0.0645546
0.0641487
0.063733
0.0633095
0.0628866
0.0624723
0.0620756
0.0616898
0.0613171
0.0609588
0.0669934
0.0670442
0.0670521
0.0669967
0.0669634
0.0669304
0.0668096
0.0667591
0.0667124
0.0665276
0.0663648
0.0662042
0.0659579
0.0656578
0.065334
0.0650175
0.0646622
0.0642704
0.063866
0.063468
0.0630802
0.0626927
0.0623018
0.0619151
0.0615485
0.0612058
0.0608883
0.0605934
0.0669283
0.0669504
0.0669234
0.0668382
0.0667616
0.066685
0.0665325
0.06642
0.0663246
0.0661167
0.0658999
0.0656988
0.0654374
0.0651173
0.0647722
0.0644396
0.0640875
0.0637036
0.0633037
0.0629113
0.0625385
0.0621768
0.061817
0.0614614
0.0611247
0.0608166
0.0605423
0.0603006
0.0668349
0.0668335
0.0667845
0.0666833
0.0665727
0.0664559
0.0662873
0.0661333
0.0659871
0.0657613
0.0655096
0.065271
0.0649991
0.0646753
0.0643243
0.0639825
0.0636363
0.0632682
0.0628815
0.0624954
0.0621269
0.0617753
0.0614319
0.0610956
0.0607771
0.0604887
0.0602397
0.0600328
0.0667241
0.0667279
0.0666686
0.0665578
0.0664285
0.0662887
0.0661056
0.0659106
0.0657187
0.0654809
0.0652084
0.0649382
0.064655
0.0643399
0.0640013
0.0636662
0.0633347
0.0629929
0.0626349
0.0622698
0.0619105
0.0615607
0.0612162
0.0608759
0.0605468
0.0602409
0.0599705
0.0597445
0.0665113
0.0665022
0.0664722
0.0664072
0.066307
0.0661732
0.0659882
0.0657707
0.0655415
0.0652821
0.0649906
0.0646959
0.064402
0.0640942
0.0637705
0.0634491
0.0631414
0.0628446
0.0625528
0.0622684
0.0620003
0.0617522
0.0615187
0.0612906
0.0610602
0.0608229
0.0605741
0.0603068
0.0664652
0.0664465
0.0664126
0.0663513
0.0662544
0.066118
0.0659296
0.0656968
0.0654449
0.0651735
0.0648747
0.0645711
0.0642746
0.0639758
0.063669
0.0633637
0.063072
0.0627929
0.062519
0.0622473
0.0619816
0.0617272
0.0614826
0.0612411
0.0609941
0.0607361
0.0604626
0.0601686
)
;

boundaryField
{
    outlet
    {
        type            fixedValue;
        value           nonuniform 0();
    }
    upperWall
    {
        type            symmetryPlane;
    }
    lowerWall
    {
        type            symmetryPlane;
    }
    inlet
    {
        type            zeroGradient;
    }
    cylinder
    {
        type            zeroGradient;
    }
    frontAndBack
    {
        type            empty;
    }
    procBoundary4to0
    {
        type            processor;
        value           nonuniform List<scalar> 
33
(
0.191516
0.200858
0.210976
0.0625144
0.0577024
0.060551
0.0605487
0.0623424
0.0623946
0.0637816
0.0643852
0.0661446
0.0671757
0.0688801
0.0710274
0.0733007
0.0756303
0.0786717
0.0818098
0.0853938
0.0893687
0.0938877
0.0987184
0.10419
0.110191
0.116772
0.123899
0.131784
0.140303
0.149514
0.159334
0.169878
0.18111
)
;
    }
    procBoundary4to5
    {
        type            processor;
        value           nonuniform List<scalar> 
45
(
0.230593
0.23449
0.234393
0.220099
0.220099
0.213767
0.19727
0.19727
0.182723
0.182723
0.169842
0.169842
0.157985
0.14569
0.14569
0.132773
0.121832
0.113549
0.106649
0.10056
0.0951079
0.0901869
0.085726
0.0818025
0.0783633
0.0754074
0.0729263
0.0708686
0.0691845
0.0677778
0.0665606
0.0654454
0.0644067
0.063468
0.0626598
0.0619997
0.0614576
0.0610056
0.0606331
0.0603304
0.0600961
0.0598717
0.0595698
0.0600113
0.0598457
)
;
    }
}


// ************************************************************************* //
