/*--------------------------------*- C++ -*----------------------------------*\
| =========                 |                                                 |
| \\      /  F ield         | OpenFOAM: The Open Source CFD Toolbox           |
|  \\    /   O peration     | Version:                                        |
|   \\  /    A nd           | Website:  www.openfoam.com                      |
|    \\/     M anipulation  |                                                 |
\*---------------------------------------------------------------------------*/
FoamFile
{
    version     2.0;
    format      ascii;
    class       volVectorField;
    location    "190";
    object      U;
}
// * * * * * * * * * * * * * * * * * * * * * * * * * * * * * * * * * * * * * //

dimensions      [0 1 -1 0 0 0 0];


internalField   nonuniform List<vector> 
1150
(
(0.854921 -0.0261035 -4.93416e-21)
(0.842792 -0.0290918 1.15059e-20)
(0.829604 -0.0323856 -6.31085e-21)
(0.852532 -0.00669846 -3.50274e-21)
(0.839911 -0.00760464 3.19971e-21)
(0.826842 -0.0085316 -3.26693e-20)
(0.85377 0.0116453 -5.86294e-21)
(0.841958 0.0125742 4.61258e-20)
(0.829208 0.0138816 -5.699e-20)
(0.857367 0.0330539 2.02851e-21)
(0.846652 0.0351662 1.34323e-20)
(0.863142 0.0511238 6.45587e-21)
(0.854035 0.0545455 1.20111e-19)
(0.872671 0.0716163 -3.2474e-20)
(0.999588 -0.000667313 -2.13926e-22)
(1.00485 -0.00542707 -6.24363e-23)
(1.0029 -0.00751799 4.00655e-23)
(1.00196 0.00242956 -1.67398e-22)
(0.999529 -0.000876941 4.53253e-23)
(1.0002 -3.31505e-05 1.93747e-22)
(0.997873 0.00236048 -1.77818e-22)
(0.997906 -0.00363487 1.07748e-23)
(0.996763 -0.00666786 -1.03844e-22)
(0.99537 -0.00214672 1.63115e-22)
(0.99318 -0.00943101 -1.10412e-22)
(0.992255 -0.00728698 3.98992e-23)
(0.989907 -0.0058317 -3.80053e-22)
(0.986527 -0.00577923 3.08994e-22)
(0.983378 -0.00613095 -2.44877e-22)
(0.980145 -0.00486692 5.34097e-22)
(0.976168 -0.00490006 3.3325e-23)
(0.97172 -0.00486099 -1.1038e-21)
(0.966929 -0.00620433 1.1702e-21)
(0.962026 -0.0063546 -3.4705e-22)
(0.955851 -0.00811803 8.20428e-22)
(0.949491 -0.00876809 -2.06863e-21)
(0.941927 -0.0110993 2.76111e-22)
(0.934423 -0.0120737 1.28855e-21)
(0.925219 -0.0146205 3.50044e-22)
(0.915987 -0.0156976 -3.55457e-21)
(0.905119 -0.0183074 2.88822e-21)
(0.894068 -0.0195341 -1.62952e-22)
(0.881526 -0.0220929 5.83221e-22)
(0.868179 -0.0235021 2.92151e-21)
(0.998986 -0.00189863 9.20957e-22)
(1.00463 -0.0038292 -1.46923e-22)
(1.00507 -0.00910533 -5.70985e-22)
(1.00157 0.00456043 2.41999e-22)
(0.998529 -0.00233754 -4.30172e-22)
(1.00001 0.00197953 6.99065e-22)
(0.996371 0.00105012 -2.73685e-22)
(0.99716 -0.00216474 -5.52987e-22)
(0.997368 -0.0073664 4.56996e-22)
(0.995661 -0.00053331 -8.23003e-22)
(0.993338 -0.0100433 3.84395e-22)
(0.993193 -0.00516902 -2.72415e-22)
(0.990922 -0.00568335 4.34551e-22)
(0.986034 -0.00337335 -2.60086e-22)
(0.983536 -0.00519566 2.31203e-21)
(0.979556 -0.00197514 -3.56432e-21)
(0.975426 -0.00331306 3.1762e-21)
(0.970498 -0.00131171 2.5057e-21)
(0.965548 -0.00355284 -3.16807e-21)
(0.960829 -0.00175225 3.21088e-21)
(0.954255 -0.00406364 -5.10305e-21)
(0.948187 -0.00265844 -1.75382e-21)
(0.940243 -0.00503642 -1.31007e-21)
(0.93328 -0.00377408 -2.20313e-21)
(0.923682 -0.00607852 5.92955e-21)
(0.914939 -0.00484413 1.15007e-21)
(0.903793 -0.0069328 -3.17426e-21)
(0.893045 -0.005621 7.26988e-21)
(0.880086 -0.00742312 4.06229e-22)
(0.866682 -0.00568642 -8.42528e-21)
(0.998439 -0.00308328 -1.53862e-21)
(1.00441 -0.00251948 -2.82293e-22)
(1.00731 -0.0105813 -1.91469e-22)
(1.00082 0.0070565 -1.14486e-21)
(0.997584 -0.00394499 1.94351e-22)
(0.999607 0.00425815 -1.60446e-21)
(0.994899 -0.000341102 1.3547e-21)
(0.996566 -0.00110212 1.59224e-21)
(0.998055 -0.00785111 -1.17251e-21)
(0.995926 0.000617495 -1.75083e-21)
(0.993651 -0.0107918 1.57424e-21)
(0.99409 -0.0026053 -1.88093e-21)
(0.991836 -0.00598064 3.41226e-21)
(0.985379 -0.00067548 -6.03724e-22)
(0.983613 -0.0041088 -1.19118e-21)
(0.978782 0.000739295 2.16931e-21)
(0.974602 -0.00200938 -7.55363e-21)
(0.969139 0.00167185 1.04965e-20)
(0.964325 -0.00145511 -1.57958e-21)
(0.959588 0.00200629 -3.92601e-23)
(0.952885 -0.00093439 -3.02056e-21)
(0.947186 0.00223361 1.74448e-22)
(0.93891 -0.000604373 -6.53775e-21)
(0.932524 0.0027591 1.31153e-20)
(0.922483 0.00033577 1.59552e-21)
(0.914132 0.00407115 -9.73765e-21)
(0.902621 0.00253417 3.80402e-21)
(0.892372 0.00679294 1.60541e-23)
(0.879234 0.00591436 -7.89165e-21)
(0.866767 0.0112913 1.65826e-20)
(0.99797 -0.00408543 1.0213e-21)
(1.00421 -0.00164806 7.03278e-22)
(1.00962 -0.0117246 3.31473e-22)
(0.999574 0.00955573 2.91043e-21)
(0.996673 -0.00531353 3.8999e-22)
(0.999016 0.00643747 -8.79026e-22)
(0.993457 -0.00179833 2.68842e-23)
(0.99621 -0.000404383 -8.38668e-22)
(0.998944 -0.00826802 1.62957e-21)
(0.99606 0.00139371 -9.34049e-22)
(0.994355 -0.011489 -1.88183e-21)
(0.99483 -9.65121e-05 1.23034e-21)
(0.9925 -0.00592863 1.48059e-21)
(0.984697 0.00195201 -3.40593e-21)
(0.98336 -0.0028069 7.28554e-21)
(0.977516 0.00369009 -9.85382e-21)
(0.973634 -0.000210516 4.95881e-21)
(0.967553 0.00531744 -7.29382e-21)
(0.96318 0.00131362 3.79426e-21)
(0.958427 0.00660278 8.12757e-21)
(0.951671 0.00280101 -1.14354e-20)
(0.946253 0.00817184 1.4669e-20)
(0.937883 0.00511222 -1.62378e-20)
(0.931951 0.0108616 6.60713e-21)
(0.922184 0.00878457 8.4514e-21)
(0.914631 0.0152886 1.09165e-20)
(0.903228 0.0144867 -3.70121e-20)
(0.893863 0.0221204 7.44438e-21)
(0.88089 0.0224248 -1.84565e-21)
(0.869404 0.0314831 -5.6924e-21)
(0.997586 -0.00508347 4.41152e-22)
(1.00409 -0.00104762 -4.28515e-22)
(1.01191 -0.0126645 6.41339e-22)
(0.997833 0.0124744 -1.08352e-21)
(0.995824 -0.00696387 9.85169e-22)
(0.998183 0.00896312 -6.56861e-22)
(0.992184 -0.00361516 9.58195e-23)
(0.996204 0.000157551 -3.01842e-21)
(0.999981 -0.00855555 2.4161e-21)
(0.996068 0.00181334 1.91797e-21)
(0.995282 -0.011989 -3.30772e-21)
(0.995612 0.00278948 -8.04307e-22)
(0.992835 -0.00645684 3.98323e-21)
(0.98358 0.00559907 -2.6035e-21)
(0.983044 -0.00187908 9.69841e-22)
(0.976003 0.00675375 -1.17051e-21)
(0.97286 0.000929275 1.00223e-21)
(0.966151 0.00849551 -3.78851e-22)
(0.962427 0.00305818 -9.51055e-22)
(0.957295 0.0103458 1.46607e-20)
(0.951025 0.00542228 -1.27943e-20)
(0.945991 0.0128999 -1.30092e-20)
(0.938019 0.00942885 -2.701e-21)
(0.932704 0.0174009 3.61986e-20)
(0.9228 0.0152952 2.07433e-20)
(0.916215 0.0243282 -2.04312e-20)
(0.904827 0.0237387 1.40513e-20)
(0.896242 0.0344146 -2.73846e-20)
(0.883934 0.0357161 1.53548e-20)
(0.873468 0.0484406 -1.06469e-19)
(0.997347 -0.00580434 -2.30639e-21)
(1.00401 -0.00105028 9.08733e-22)
(1.01417 -0.0129464 -1.55322e-21)
(0.995541 0.0150774 1.44544e-21)
(0.994985 -0.00810716 -1.89691e-21)
(0.997348 0.01092 8.91014e-22)
(0.991034 -0.00530606 5.72757e-22)
(0.99671 0.000173138 1.09162e-21)
(1.00127 -0.00861546 6.11285e-23)
(0.995738 0.00182929 -3.86948e-21)
(0.996762 -0.0120424 1.04964e-21)
(0.99589 0.00536595 1.25747e-21)
(0.992835 -0.00583501 7.1425e-21)
(0.982377 0.00931911 -7.0802e-21)
(0.982033 -0.000229135 3.27404e-21)
(0.973998 0.0100024 4.75204e-21)
(0.971576 0.00342132 -4.72374e-21)
(0.96446 0.0118741 -1.09112e-20)
(0.961897 0.00604948 -5.05502e-21)
(0.956571 0.0149529 1.90412e-20)
(0.95046 0.00959052 7.77528e-21)
(0.946157 0.0193614 -4.31282e-21)
(0.93791 0.0153409 6.76048e-21)
(0.93346 0.0260226 5.91912e-21)
(0.924372 0.0239076 -2.4907e-20)
(0.917842 0.0357156 -3.19138e-20)
(0.907976 0.0360816 1.53789e-20)
(0.900074 0.0498485 7.58635e-20)
(0.889027 0.0521205 -1.08777e-19)
(0.880818 0.0685734 1.22497e-19)
(0.997319 -0.00662933 1.15806e-21)
(1.00412 -0.00115363 -1.20364e-21)
(1.01608 -0.0130715 -1.87901e-21)
(0.992725 0.0181919 1.19954e-21)
(0.994279 -0.00979644 7.94753e-22)
(0.996436 0.013392 -1.83239e-21)
(0.990384 -0.007788 1.68213e-21)
(0.997661 0.000609165 1.53832e-21)
(1.00294 -0.00886223 -2.22616e-22)
(0.995408 0.00179243 -1.25787e-21)
(0.998093 -0.0120303 4.92169e-21)
(0.996137 0.00856194 -3.51482e-21)
(0.992805 -0.00641906 6.65512e-21)
(0.980395 0.0143894 -1.10359e-20)
(0.980747 -0.000754385 1.32374e-20)
(0.972592 0.0139003 -5.59642e-21)
(0.970675 0.00289201 -1.09455e-20)
(0.963267 0.0147252 -6.58946e-21)
(0.961738 0.00667998 -4.42834e-21)
(0.956526 0.0182826 -2.22839e-21)
(0.951381 0.0106616 3.35291e-20)
(0.947028 0.0227582 -3.62555e-20)
(0.940083 0.0178485 4.34018e-22)
(0.93517 0.0298453 2.38406e-20)
(0.927422 0.0281391 -2.11544e-20)
(0.922042 0.042255 1.30926e-20)
(0.912153 0.0422476 5.09682e-20)
(0.906325 0.0601542 -8.85697e-20)
(0.895738 0.0623539 6.64082e-20)
(0.889113 0.0836157 2.14711e-20)
(0.997591 -0.00710518 3.47154e-23)
(1.00446 -0.00197073 9.65316e-22)
(1.01768 -0.0121371 1.84373e-21)
(0.988885 0.0204952 1.25635e-21)
(0.994166 -0.0107259 -5.52423e-23)
(0.995184 0.0145656 -2.63625e-21)
(0.990626 -0.00962783 -1.55374e-21)
(0.998983 2.12663e-05 4.25569e-21)
(1.00465 -0.0083476 -5.35026e-21)
(0.995117 0.00153461 2.37936e-21)
(1.00008 -0.0103722 -7.13706e-22)
(0.994866 0.0103502 1.0557e-20)
(0.992493 -0.00352801 -2.03319e-21)
(0.978197 0.0187195 -2.26701e-21)
(0.978681 0.000766184 -8.2065e-21)
(0.970819 0.0172794 -6.95659e-21)
(0.969182 0.00609634 2.50547e-20)
(0.963281 0.017009 -9.12317e-21)
(0.9611 0.0116881 -8.53771e-21)
(0.955977 0.0216823 -2.57778e-21)
(0.952517 0.0166623 2.17628e-20)
(0.947336 0.0294959 -8.60435e-21)
(0.942344 0.0251568 1.28946e-20)
(0.937232 0.0403204 8.70581e-21)
(0.930211 0.03727 -6.84931e-20)
(0.925916 0.0562172 1.17731e-20)
(0.91795 0.055508 -1.03992e-20)
(0.913196 0.0773023 2.38268e-22)
(0.906128 0.0805023 5.77555e-20)
(0.997756 -0.0078572 1.00062e-21)
(1.00543 -0.00264274 -4.85263e-22)
(1.01893 -0.0110322 -1.01026e-21)
(0.983721 0.0233325 1.44693e-21)
(0.994908 -0.0123257 1.51043e-21)
(0.992982 0.0163275 -2.83369e-22)
(0.991893 -0.0126231 -1.75835e-21)
(1.00015 0.000370895 2.41079e-21)
(1.00592 -0.00881911 -1.14513e-21)
(0.994475 0.00126123 2.95565e-22)
(1.00262 -0.00985398 1.03454e-21)
(0.992662 0.0127744 -5.84238e-21)
(0.991 -0.00419171 3.71834e-21)
(0.974803 0.0240174 1.74542e-21)
(0.978114 -0.00252164 -1.02076e-20)
(0.967449 0.0224621 1.3102e-20)
(0.971628 0.00147756 -1.22517e-20)
(0.959508 0.0209181 2.5594e-20)
(0.966365 0.00936751 -1.75072e-20)
(0.952115 0.02349 1.27489e-20)
(0.95666 0.0142922 1.15226e-21)
(0.948063 0.0312406 -4.27766e-20)
(0.945611 0.0235587 1.23073e-20)
(0.940886 0.0416399 5.78744e-21)
(0.936407 0.0383955 2.35185e-20)
(0.930454 0.0577516 -2.59548e-20)
(0.926854 0.058739 -2.81116e-21)
(0.92089 0.082729 3.54154e-20)
(0.917077 0.0863645 2.50114e-20)
(0.997578 -0.00818086 -1.05234e-21)
(1.00717 -0.00410959 3.10658e-22)
(1.01999 -0.00814134 -1.50873e-21)
(0.979357 0.0245551 2.61358e-22)
(0.994761 -0.0130762 1.04495e-22)
(0.995045 0.0165047 1.84161e-22)
(0.989296 -0.0144168 -5.87234e-22)
(1.00611 5.92243e-05 8.02972e-22)
(1.00402 -0.00726079 -5.13051e-21)
(0.995277 0.00107 7.0566e-21)
(1.00289 -0.00583379 5.76016e-21)
(0.993471 0.0148207 -6.11611e-21)
(0.989467 0.0021009 -1.09187e-20)
(0.970249 0.0272884 2.0416e-20)
(0.976912 -0.000118967 -2.48934e-20)
(0.970521 0.0265596 1.81137e-20)
(0.965843 0.00464525 -2.40971e-21)
(0.969081 0.0242966 -1.92944e-20)
(0.957508 0.0170679 1.30346e-20)
(0.961561 0.0269055 1.3867e-20)
(0.952008 0.0243951 1.35739e-20)
(0.952736 0.0382155 -3.4602e-20)
(0.945538 0.0352412 -2.66001e-20)
(0.945298 0.052951 7.55945e-20)
(0.938123 0.0514631 -5.11298e-20)
(0.94047 0.0749865 -1.28994e-21)
(0.930877 0.0725715 -2.27153e-20)
(0.937622 0.104196 8.96061e-20)
(1.00213 -0.00903541 0)
(1.00347 -0.00561692 0)
(1.02318 -0.00530471 0)
(0.972644 0.02643 0)
(1.00094 -0.0155294 0)
(0.990896 0.0173154 0)
(0.994087 -0.0183616 0)
(1.00409 -0.000243109 0)
(1.00576 -0.0072483 0)
(0.991374 -0.000125243 0)
(1.00917 -0.0053607 0)
(0.988178 0.015493 0)
(0.992255 0.00386141 0)
(0.964363 0.028491 0)
(0.985015 -0.00697871 0)
(0.965614 0.0313097 0)
(0.976187 -0.00596234 0)
(0.965417 0.0297168 0)
(0.966138 0.00858191 0)
(0.958443 0.0249605 0)
(0.962292 0.0187062 0)
(0.952005 0.0357135 0)
(0.954653 0.0263325 0)
(0.948009 0.0499574 0)
(0.952266 0.043394 0)
(0.940829 0.0673053 0)
(0.955592 0.0680965 0)
(0.938489 0.0947544 0)
(1.00972 -0.00916158 0)
(0.994832 -0.00769945 0)
(1.02182 -0.00178168 0)
(0.970935 0.0271077 0)
(1.00754 -0.0159499 0)
(0.982401 0.0170809 0)
(1.00319 -0.0190823 0)
(0.991678 -0.000955449 0)
(1.00674 -0.00562283 0)
(0.98534 -0.00138293 0)
(1.01125 -0.00282526 0)
(0.978778 0.0168979 0)
(0.989027 0.0096714 0)
(0.966853 0.0271465 0)
(0.989252 -0.00328027 0)
(0.960154 0.0336333 0)
(0.986354 -0.00562203 0)
(0.95339 0.0385267 0)
(0.97849 0.00643033 0)
(0.948735 0.0347639 0)
(0.967664 0.0195585 0)
(0.9497 0.0401922 0)
(0.959793 0.0331921 0)
(0.94891 0.047803 0)
(0.960475 0.0542245 0)
(0.945472 0.061576 0)
(0.965895 0.077341 0)
(0.947425 0.0856319 0)
(1.01474 -0.00928889 0)
(0.986489 -0.00885323 0)
(1.01317 0.000962237 0)
(0.980343 0.0267694 0)
(1.0078 -0.0154265 0)
(0.981472 0.0164997 0)
(1.00698 -0.0191742 0)
(0.98027 -0.00140572 0)
(1.00432 -0.00402732 0)
(0.980423 -0.00444765 0)
(1.00249 0.00122149 0)
(0.976126 0.0185009 0)
(0.982335 0.0129281 0)
(0.974454 0.0236984 0)
(0.983508 0.00109631 0)
(0.968362 0.0305897 0)
(0.980445 -0.00205909 0)
(0.956417 0.0380712 0)
(0.977396 0.00777821 0)
(0.948142 0.0356875 0)
(0.967565 0.0211784 0)
(0.94905 0.0373884 0)
(0.961061 0.0378841 0)
(0.949968 0.041684 0)
(0.962957 0.0588919 0)
(0.952269 0.0574479 0)
(0.966036 0.0775333 0)
(0.958213 0.0806822 0)
(1.01505 -0.00877474 0)
(0.981984 -0.0091769 0)
(1.00179 0.00187131 0)
(0.995661 0.0254477 0)
(1.00501 -0.0132421 0)
(0.987877 0.0146268 0)
(1.0065 -0.0167778 0)
(0.976208 -0.0022301 0)
(1.00077 -0.00215954 0)
(0.977293 -0.00636123 0)
(0.990053 0.00507033 0)
(0.982754 0.0175639 0)
(0.980903 0.0162907 0)
(0.980752 0.0203105 0)
(0.978777 0.00498624 0)
(0.979721 0.0294509 0)
(0.975371 0.00261341 0)
(0.968574 0.0369414 0)
(0.975367 0.0129813 0)
(0.95614 0.0340009 0)
(0.971569 0.0278809 0)
(0.951622 0.0328538 0)
(0.96465 0.0429113 0)
(0.953071 0.0380427 0)
(0.964244 0.0586648 0)
(0.958294 0.0568268 0)
(0.967328 0.0742425 0)
(0.964481 0.0779328 0)
(1.01388 -0.00787844 0)
(0.98074 -0.00870135 0)
(0.992314 0.00102885 0)
(1.00729 0.0232279 0)
(1.00509 -0.0103665 0)
(0.99328 0.0127271 0)
(1.00723 -0.0130261 0)
(0.976041 -0.00296344 0)
(0.997468 8.53667e-05 0)
(0.97646 -0.00689024 0)
(0.980832 0.00607713 0)
(0.990797 0.0148465 0)
(0.984879 0.0203415 0)
(0.9853 0.0183501 0)
(0.979144 0.00650348 0)
(0.985913 0.0294367 0)
(0.978619 0.00549749 0)
(0.978246 0.0365059 0)
(0.981377 0.018456 0)
(0.963208 0.0322009 0)
(0.978853 0.0338805 0)
(0.958694 0.0316234 0)
(0.969238 0.0461023 0)
(0.957515 0.0382693 0)
(0.965981 0.0555324 0)
(0.962202 0.0565749 0)
(0.969957 0.0702649 0)
(0.968594 0.0745124 0)
(1.01349 -0.0066876 0)
(0.980916 -0.00752846 0)
(0.986466 -0.000945566 0)
(1.01194 0.0196673 0)
(1.00737 -0.00655062 0)
(0.994763 0.0106421 0)
(1.00938 -0.00851056 0)
(0.976228 -0.00300782 0)
(0.995254 0.00228166 0)
(0.977607 -0.00589282 0)
(0.975784 0.00472118 0)
(0.993836 0.0112725 0)
(0.989776 0.0230456 0)
(0.989087 0.019417 0)
(0.982363 0.00640293 0)
(0.987968 0.029632 0)
(0.983499 0.00769293 0)
(0.983066 0.0343321 0)
(0.989947 0.0247 0)
(0.969034 0.0313731 0)
(0.985008 0.0390678 0)
(0.966653 0.0333827 0)
(0.974023 0.0476253 0)
(0.96344 0.0414698 0)
(0.969538 0.0526789 0)
(0.965812 0.0562778 0)
(0.972992 0.0650398 0)
(0.971987 0.0709744 0)
(1.01261 -0.00548796 0)
(0.982246 -0.00586092 0)
(0.985808 -0.00324383 0)
(1.01115 0.0152721 0)
(1.00809 -0.00268411 0)
(0.995031 0.00877576 0)
(1.00932 -0.00423397 0)
(0.977927 -0.00196547 0)
(0.993822 0.00344147 0)
(0.980643 -0.0034111 0)
(0.975971 0.00236589 0)
(0.99101 0.0075703 0)
(0.99342 0.0229123 0)
(0.992116 0.022643 0)
(0.986042 0.00644743 0)
(0.98883 0.0286084 0)
(0.986322 0.0103832 0)
(0.984502 0.0304049 0)
(0.994071 0.0302586 0)
(0.976091 0.0318198 0)
(0.986911 0.0426805 0)
(0.975074 0.0367659 0)
(0.978529 0.0479383 0)
(0.971577 0.0461606 0)
(0.974257 0.0508084 0)
(0.971785 0.0560733 0)
(0.976935 0.0598322 0)
(0.976481 0.0672792 0)
(1.0101 -0.00426568 0)
(0.984809 -0.00442655 0)
(0.989566 -0.0053267 0)
(1.00838 0.011593 0)
(1.0059 0.000369322 0)
(0.995551 0.00786434 0)
(1.00623 -0.000738727 0)
(0.981229 -0.000310325 0)
(0.993191 0.00375505 0)
(0.985495 -0.000520952 0)
(0.980451 0.000309026 0)
(0.986398 0.00542772 0)
(0.995446 0.0195695 0)
(0.99489 0.0259218 0)
(0.989125 0.00796733 0)
(0.99026 0.0267082 0)
(0.987143 0.0145323 0)
(0.984046 0.0268448 0)
(0.992943 0.0329435 0)
(0.98222 0.0327244 0)
(0.987214 0.0446551 0)
(0.982849 0.0405765 0)
(0.982941 0.0478744 0)
(0.980038 0.0494072 0)
(0.98045 0.0498608 0)
(0.979884 0.0559614 0)
(0.983481 0.0559224 0)
(0.983211 0.0634774 0)
(1.0066 -0.00305989 0)
(0.988109 -0.0036658 0)
(0.995614 -0.0073568 0)
(1.00502 0.0096582 0)
(1.00227 0.00239025 0)
(0.996068 0.00780635 0)
(1.00164 0.00192838 0)
(0.985569 0.000942568 0)
(0.99293 0.0034582 0)
(0.990367 0.00199571 0)
(0.987943 -0.000684585 0)
(0.983232 0.00480313 0)
(0.996458 0.0144497 0)
(0.996195 0.0279474 0)
(0.991862 0.0113562 0)
(0.991721 0.0250517 0)
(0.987641 0.0189509 0)
(0.984137 0.0246382 0)
(0.989291 0.0339723 0)
(0.986269 0.0331415 0)
(0.986535 0.0442275 0)
(0.988775 0.0434821 0)
(0.986534 0.0468241 0)
(0.988312 0.0510164 0)
(0.987393 0.0493353 0)
(0.988692 0.0553618 0)
(0.991853 0.0533197 0)
(0.991224 0.0595587 0)
(1.00311 -0.00189516 0)
(0.99232 -0.0038481 0)
(1.00096 -0.00913225 0)
(1.00074 0.00966961 0)
(0.999289 0.00345728 0)
(0.99583 0.00819475 0)
(0.997618 0.00405801 0)
(0.990854 0.00102449 0)
(0.992603 0.00313739 0)
(0.994683 0.0031096 0)
(0.995317 -0.000800781 0)
(0.982732 0.00648864 0)
(0.99662 0.00960811 0)
(0.995287 0.0273636 0)
(0.994052 0.0156966 0)
(0.991951 0.024619 0)
(0.988997 0.0225394 0)
(0.985353 0.0252272 0)
(0.986342 0.0336201 0)
(0.988896 0.0333788 0)
(0.98588 0.0419328 0)
(0.992851 0.0435824 0)
(0.989888 0.0455572 0)
(0.995055 0.0498294 0)
(0.993912 0.0484614 0)
(0.996816 0.0529737 0)
(0.999781 0.0511888 0)
(1.00006 0.0553173 0)
(0.999937 -0.00101338 0)
(0.997181 -0.0047469 0)
(1.005 -0.00971638 0)
(0.995402 0.0107597 0)
(0.996967 0.00381782 0)
(0.995452 0.00873714 0)
(0.994449 0.00529565 0)
(0.996964 0.000357166 0)
(0.992706 0.00284141 0)
(0.9979 0.00354407 0)
(1.00105 -0.000146656 0)
(0.983719 0.00863505 0)
(0.996834 0.00712585 0)
(0.992567 0.0256156 0)
(0.994628 0.0190263 0)
(0.990989 0.0257003 0)
(0.9901 0.0249864 0)
(0.987877 0.0265279 0)
(0.985425 0.032781 0)
(0.991558 0.0333575 0)
(0.986486 0.03876 0)
(0.99631 0.0418083 0)
(0.992752 0.0429367 0)
(1.00048 0.0468141 0)
(0.999269 0.0462451 0)
(1.00383 0.0493952 0)
(1.00641 0.0485918 0)
(1.00816 0.050799 0)
(0.998052 -0.00046634 0)
(1.00122 -0.00648388 0)
(1.00594 -0.0086041 0)
(0.991548 0.0128115 0)
(0.995801 0.00318425 0)
(0.99471 0.00922882 0)
(0.993748 0.00547103 0)
(1.0016 -0.0010819 0)
(0.993346 0.00305634 0)
(0.999877 0.00303446 0)
(1.00366 0.00116685 0)
(0.98632 0.0113113 0)
(0.995646 0.00750574 0)
(0.990365 0.023611 0)
(0.994405 0.0205105 0)
(0.989581 0.0277026 0)
(0.991255 0.0257476 0)
(0.990626 0.028339 0)
(0.987503 0.0311063 0)
(0.994178 0.0329457 0)
(0.989439 0.0356728 0)
(0.998915 0.038122 0)
(0.996575 0.039644 0)
(1.00439 0.0418393 0)
(1.00408 0.0430365 0)
(1.00903 0.0443195 0)
(1.01137 0.0452183 0)
(1.01438 0.0456817 0)
(0.997336 -0.000342545 0)
(1.00363 -0.0080451 0)
(1.00479 -0.0063346 0)
(0.989784 0.0144821 0)
(0.995775 0.00234258 0)
(0.9944 0.00925363 0)
(0.994301 0.00482044 0)
(1.00429 -0.00227029 0)
(0.994161 0.00321194 0)
(1.00063 0.00292671 0)
(1.00371 0.00292317 0)
(0.989013 0.0130579 0)
(0.994957 0.0099266 0)
(0.989495 0.0226139 0)
(0.994367 0.0204417 0)
(0.989103 0.0288529 0)
(0.992033 0.0257066 0)
(0.993311 0.0290804 0)
(0.991353 0.0291103 0)
(0.997103 0.031671 0)
(0.993656 0.0326564 0)
(1.00158 0.0343793 0)
(1.00052 0.0357347 0)
(1.00766 0.0367554 0)
(1.00773 0.0387721 0)
(1.01278 0.0390497 0)
(1.01435 0.0409716 0)
(1.01839 0.0405593 0)
(0.997914 -0.000353104 0)
(1.00404 -0.00980488 0)
(1.00126 -0.00323371 0)
(0.991024 0.0161431 0)
(0.997068 0.00119528 0)
(0.994677 0.00909308 0)
(0.996302 0.00361142 0)
(1.00449 -0.00350857 0)
(0.99453 0.00372319 0)
(1.00029 0.00264317 0)
(1.00162 0.00522046 0)
(0.991954 0.0140533 0)
(0.994097 0.0129188 0)
(0.990729 0.02282 0)
(0.995386 0.0195409 0)
(0.990736 0.0291344 0)
(0.993755 0.0246063 0)
(0.995574 0.0291591 0)
(0.996128 0.026644 0)
(1.00006 0.0296125 0)
(0.998553 0.0296023 0)
(1.00376 0.0306359 0)
(1.00417 0.0318748 0)
(1.00991 0.0316704 0)
(1.0105 0.0342788 0)
(1.0149 0.0335971 0)
(1.01577 0.0364727 0)
(1.01994 0.0352763 0)
(0.999352 -0.000578514 0)
(1.00327 -0.0100646 0)
(0.996092 -0.000844949 0)
(0.994035 0.0159962 0)
(0.999463 0.000797869 0)
(0.995587 0.00859255 0)
(0.999373 0.00277878 0)
(1.00324 -0.00335705 0)
(0.994425 0.00395754 0)
(0.999386 0.00318399 0)
(0.998213 0.00714482 0)
(0.994618 0.0140372 0)
(0.99344 0.0149074 0)
(0.993334 0.0231028 0)
(0.997407 0.0188699 0)
(0.99428 0.0278555 0)
(0.996923 0.0233048 0)
(0.998097 0.0280547 0)
(1.00111 0.0246135 0)
(1.00311 0.0272174 0)
(1.00363 0.0267309 0)
(1.00579 0.027562 0)
(1.00726 0.0284935 0)
(1.0113 0.0278605 0)
(1.01241 0.0301076 0)
(1.01587 0.0292515 0)
(1.01612 0.0320305 0)
(1.01986 0.0308903 0)
(1.00044 -0.000867848 0)
(1.0022 -0.00929362 0)
(0.992522 0.000916002 0)
(0.996897 0.0144716 0)
(1.00115 0.000663075 0)
(0.996969 0.00803971 0)
(1.00153 0.00229561 0)
(1.00198 -0.00221886 0)
(0.99455 0.00431294 0)
(0.998589 0.00384965 0)
(0.995862 0.00879884 0)
(0.996666 0.0134402 0)
(0.993723 0.0155057 0)
(0.99595 0.0226409 0)
(0.999482 0.018246 0)
(0.998388 0.025795 0)
(1.00043 0.0216209 0)
(1.00089 0.0263838 0)
(1.00476 0.0227186 0)
(1.006 0.025038 0)
(1.00749 0.0240395 0)
(1.00799 0.0249784 0)
(1.00939 0.0256787 0)
(1.01223 0.0250497 0)
(1.01357 0.0268023 0)
(1.0163 0.0258243 0)
(1.01627 0.0283067 0)
(1.01916 0.0271926 0)
(1.00094 -0.00115805 0)
(1.0011 -0.00745783 0)
(0.991255 0.00163426 0)
(0.999268 0.0117556 0)
(1.00167 0.0009718 0)
(0.998263 0.0073383 0)
(1.00243 0.00241515 0)
(1.00088 -0.000213053 0)
(0.995192 0.00465739 0)
(0.998299 0.00486356 0)
(0.995063 0.00959899 0)
(0.998393 0.0126685 0)
(0.994992 0.0148576 0)
(0.99839 0.0209468 0)
(1.001 0.0176203 0)
(1.00196 0.0231812 0)
(1.00329 0.0199397 0)
(1.0035 0.0241155 0)
(1.00695 0.0212004 0)
(1.00802 0.0230987 0)
(1.00994 0.0219326 0)
(1.00978 0.0229306 0)
(1.01089 0.023339 0)
(1.01265 0.0231714 0)
(1.01409 0.0241863 0)
(1.01628 0.0235343 0)
(1.01637 0.0251704 0)
(1.01851 0.024471 0)
(1.00079 -0.00128511 0)
(1.00034 -0.00559734 0)
(0.992186 0.00172714 0)
(1.00067 0.00915462 0)
(1.00123 0.00134522 0)
(0.999232 0.00674378 0)
(1.00213 0.00285879 0)
(1.00036 0.00164599 0)
(0.996292 0.00511784 0)
(0.998668 0.00565541 0)
(0.995886 0.00969071 0)
(0.99982 0.0120143 0)
(0.996969 0.013717 0)
(1.0005 0.0187142 0)
(1.00207 0.0166757 0)
(1.00422 0.0207014 0)
(1.00511 0.0182989 0)
(1.00559 0.0217762 0)
(1.00788 0.0197092 0)
(1.00916 0.0213402 0)
(1.01096 0.0202018 0)
(1.01101 0.0210985 0)
(1.01179 0.0212684 0)
(1.01296 0.0214242 0)
(1.01424 0.021991 0)
(1.01611 0.021588 0)
(1.01649 0.0225308 0)
(1.01816 0.0220956 0)
(1.00043 -0.00126463 0)
(0.99999 -0.00387895 0)
(0.993811 0.00140484 0)
(1.00125 0.00686562 0)
(1.00066 0.00185921 0)
(0.999839 0.00620479 0)
(1.00156 0.00346759 0)
(1.00032 0.00323288 0)
(0.997493 0.00543535 0)
(0.999447 0.00628028 0)
(0.997348 0.00926981 0)
(1.00102 0.0112667 0)
(0.998967 0.0125483 0)
(1.00217 0.0163556 0)
(1.00294 0.0154586 0)
(1.0055 0.0184091 0)
(1.00617 0.0168586 0)
(1.00697 0.0194798 0)
(1.00838 0.0182156 0)
(1.00971 0.0196234 0)
(1.01126 0.0186629 0)
(1.01174 0.0194322 0)
(1.01236 0.0193537 0)
(1.01328 0.0197017 0)
(1.01425 0.0199152 0)
(1.0159 0.0197622 0)
(1.01646 0.0201484 0)
(1.01795 0.0199063 0)
(1.00005 -0.00112052 0)
(0.999937 -0.00264734 0)
(0.995547 0.00102807 0)
(1.00128 0.00531058 0)
(1.00016 0.00230087 0)
(1.00022 0.00575266 0)
(1.00105 0.00397217 0)
(1.00062 0.00421138 0)
(0.998665 0.00555069 0)
(1.00041 0.00654179 0)
(0.998955 0.0086576 0)
(1.00199 0.0104149 0)
(1.00066 0.0114515 0)
(1.00337 0.0143123 0)
(1.00375 0.0140928 0)
(1.00613 0.0164073 0)
(1.00671 0.0154246 0)
(1.00783 0.0174197 0)
(1.00869 0.0166249 0)
(1.01001 0.0178316 0)
(1.01122 0.0170963 0)
(1.01211 0.0177006 0)
(1.01264 0.0174797 0)
(1.01358 0.0178084 0)
(1.01426 0.0178307 0)
(1.01574 0.017789 0)
(1.0163 0.0178745 0)
(1.01772 0.0176985 0)
(0.999794 -0.000953193 0)
(1.00004 -0.00171595 0)
(0.996842 0.000725713 0)
(1.00108 0.00420526 0)
(0.999948 0.00262671 0)
(1.0005 0.00535154 0)
(1.00086 0.00426199 0)
(1.00103 0.00474069 0)
(0.999656 0.00549501 0)
(1.00133 0.00652303 0)
(1.00025 0.00795911 0)
(1.00276 0.00950402 0)
(1.00197 0.0103605 0)
(1.00421 0.0125756 0)
(1.00451 0.0126749 0)
(1.00649 0.014533 0)
(1.0071 0.0139965 0)
(1.00833 0.0154897 0)
(1.00896 0.0149936 0)
(1.01022 0.0159702 0)
(1.01115 0.0154599 0)
(1.01226 0.015913 0)
(1.01274 0.0156369 0)
(1.01376 0.0158783 0)
(1.01422 0.0157762 0)
(1.01557 0.0157763 0)
(1.01601 0.0156876 0)
(1.01735 0.0155522 0)
(0.999652 -0.000770016 0)
(1.00013 -0.00111006 0)
(0.997783 0.000537346 0)
(1.00087 0.00349069 0)
(0.999895 0.00279742 0)
(1.00073 0.00498598 0)
(1.00084 0.00432293 0)
(1.00142 0.00486547 0)
(1.00046 0.0053227 0)
(1.00209 0.00620957 0)
(1.00131 0.00723726 0)
(1.00336 0.0086181 0)
(1.00299 0.00927425 0)
(1.00482 0.0111022 0)
(1.00512 0.0112715 0)
(1.00677 0.0128211 0)
(1.00734 0.0125382 0)
(1.0086 0.013668 0)
(1.00915 0.0133652 0)
(1.01037 0.0140884 0)
(1.01104 0.0137555 0)
(1.01221 0.0140497 0)
(1.01265 0.0137987 0)
(1.01374 0.0139107 0)
(1.01407 0.013763 0)
(1.01527 0.0137292 0)
(1.0156 0.0135766 0)
(1.0168 0.0134441 0)
(0.9996 -0.000609568 0)
(1.00022 -0.00067542 0)
(0.998385 0.000451138 0)
(1.00068 0.00293013 0)
(0.999983 0.00282332 0)
(1.00093 0.0046125 0)
(1.00099 0.00423482 0)
(1.0018 0.00476523 0)
(1.00106 0.00502228 0)
(1.00265 0.00575514 0)
(1.00211 0.0064838 0)
(1.00378 0.00769978 0)
(1.00371 0.00821128 0)
(1.00524 0.00970453 0)
(1.00561 0.00992897 0)
(1.00698 0.0111787 0)
(1.00753 0.0110805 0)
(1.00877 0.0119296 0)
(1.00926 0.0117445 0)
(1.01042 0.012252 0)
(1.01092 0.0120163 0)
(1.01207 0.0122046 0)
(1.01244 0.0119685 0)
(1.01352 0.0120039 0)
(1.01377 0.0118102 0)
(1.01484 0.0117588 0)
(1.01506 0.0115583 0)
(1.0161 0.0114469 0)
(0.999595 -0.000466087 0)
(1.00025 -0.000389479 0)
(0.998831 0.000422988 0)
(1.00059 0.00250833 0)
(1.00007 0.00271179 0)
(1.00108 0.0042054 0)
(1.00117 0.00403681 0)
(1.00209 0.00444957 0)
(1.00156 0.00462483 0)
(1.00306 0.00522012 0)
(1.00273 0.00568186 0)
(1.00409 0.00676132 0)
(1.00419 0.00715367 0)
(1.00553 0.00837345 0)
(1.00593 0.00861849 0)
(1.00713 0.00960373 0)
(1.00762 0.00962868 0)
(1.0088 0.0102415 0)
(1.00926 0.0101434 0)
(1.01036 0.0104722 0)
(1.01077 0.0103039 0)
(1.01182 0.0104019 0)
(1.01214 0.0101892 0)
(1.01315 0.0101703 0)
(1.01337 0.00995749 0)
(1.0143 0.00989192 0)
(1.01446 0.00966962 0)
(1.01533 0.00957682 0)
(0.999611 -0.000349646 0)
(1.00028 -0.000196799 0)
(0.999151 0.000433593 0)
(1.00052 0.00214332 0)
(1.00018 0.00251071 0)
(1.00121 0.00374835 0)
(1.00131 0.00368741 0)
(1.00233 0.00401447 0)
(1.00197 0.00414301 0)
(1.00331 0.00460846 0)
(1.00318 0.00489544 0)
(1.00431 0.00578865 0)
(1.00449 0.00611594 0)
(1.0057 0.007076 0)
(1.0061 0.00730599 0)
(1.00719 0.00806916 0)
(1.00763 0.00814242 0)
(1.00874 0.00859663 0)
(1.00918 0.00853611 0)
(1.01021 0.00875195 0)
(1.01056 0.00861256 0)
(1.01151 0.00865911 0)
(1.01179 0.00846754 0)
(1.01269 0.00842314 0)
(1.0129 0.008214 0)
(1.0137 0.00813876 0)
(1.01382 0.00792273 0)
(1.01452 0.00783733 0)
(0.999643 -0.000243946 0)
(1.00027 -6.65115e-05 0)
(0.999382 0.000435734 0)
(1.00053 0.00182714 0)
(1.00028 0.00224816 0)
(1.00128 0.00321654 0)
(1.00143 0.00324523 0)
(1.00248 0.00349322 0)
(1.00227 0.0035626 0)
(1.00346 0.00394663 0)
(1.00347 0.00412594 0)
(1.00448 0.00482271 0)
(1.00468 0.00510371 0)
(1.00576 0.00582449 0)
(1.00617 0.0060303 0)
(1.00718 0.00658799 0)
(1.00757 0.00667504 0)
(1.00859 0.00699718 0)
(1.009 0.00695118 0)
(1.00996 0.00708459 0)
(1.01028 0.00696066 0)
(1.01113 0.00697758 0)
(1.01139 0.00680772 0)
(1.01218 0.00676016 0)
(1.01237 0.00656967 0)
(1.01306 0.00650193 0)
(1.01316 0.00630862 0)
(1.01373 0.00623929 0)
(0.99968 -0.000169686 0)
(1.00025 3.90833e-05 0)
(0.999533 0.000424738 0)
(1.0005 0.0015423 0)
(1.00036 0.00189366 0)
(1.00136 0.00264866 0)
(1.00152 0.0026712 0)
(1.00253 0.00286008 0)
(1.00246 0.00287323 0)
(1.00351 0.00319684 0)
(1.00363 0.00329095 0)
(1.00456 0.00382451 0)
(1.00476 0.0040275 0)
(1.00575 0.00457723 0)
(1.00613 0.00471919 0)
(1.00708 0.00512582 0)
(1.00745 0.00517315 0)
(1.00837 0.00539959 0)
(1.00876 0.00533435 0)
(1.00963 0.00541045 0)
(1.00995 0.00527756 0)
(1.01072 0.00527309 0)
(1.01097 0.00511228 0)
(1.01166 0.00507115 0)
(1.01185 0.00490233 0)
(1.01245 0.00485614 0)
(1.01255 0.00469589 0)
(1.01302 0.00466056 0)
(0.999708 -8.00928e-05 0)
(1.00022 0.000162905 0)
(0.999617 0.000484747 0)
(1.00046 0.00131916 0)
(1.00039 0.00160478 0)
(1.00134 0.00212779 0)
(1.00151 0.00213049 0)
(1.00251 0.00226104 0)
(1.00256 0.0022445 0)
(1.00349 0.00247558 0)
(1.00366 0.00253297 0)
(1.00455 0.00289816 0)
(1.00477 0.00304463 0)
(1.00567 0.00342692 0)
(1.00602 0.00352366 0)
(1.0069 0.00379509 0)
(1.00723 0.00381356 0)
(1.00807 0.00395489 0)
(1.00841 0.0038788 0)
(1.00921 0.00389568 0)
(1.00952 0.00374638 0)
(1.01023 0.00368516 0)
(1.01049 0.00349659 0)
(1.01114 0.00339261 0)
(1.01136 0.00318517 0)
(1.01192 0.00306906 0)
(1.01205 0.00286965 0)
(1.01249 0.00277286 0)
(0.999739 -1.61768e-05 0)
(1.00021 0.000131844 0)
(0.999653 0.000387302 0)
(1.00038 0.000874615 0)
(1.00032 0.00109472 0)
(1.00123 0.00137188 0)
(1.00141 0.00140546 0)
(1.00236 0.0014508 0)
(1.00249 0.00145153 0)
(1.00337 0.00156357 0)
(1.00358 0.00161936 0)
(1.00444 0.00181003 0)
(1.00467 0.00191884 0)
(1.00551 0.00212276 0)
(1.00583 0.00219987 0)
(1.00665 0.00233428 0)
(1.00695 0.00235592 0)
(1.00769 0.00241144 0)
(1.00796 0.00236911 0)
(1.00862 0.00234576 0)
(1.00884 0.00224884 0)
(1.0094 0.00217304 0)
(1.00956 0.00204399 0)
(1.01004 0.00193802 0)