/*--------------------------------*- C++ -*----------------------------------*\
| =========                 |                                                 |
| \\      /  F ield         | OpenFOAM: The Open Source CFD Toolbox           |
|  \\    /   O peration     | Version:                                        |
|   \\  /    A nd           | Website:  www.openfoam.com                      |
|    \\/     M anipulation  |                                                 |
\*---------------------------------------------------------------------------*/
FoamFile
{
    version     2.0;
    format      ascii;
    class       volScalarField;
    location    "150.1";
    object      p;
}
// * * * * * * * * * * * * * * * * * * * * * * * * * * * * * * * * * * * * * //

dimensions      [0 2 -2 0 0 0 0];


internalField   nonuniform List<scalar> 
1161
(
-0.249553
-0.247577
-0.242395
-0.232536
-0.218773
-0.200528
-0.179451
-0.158867
-0.136266
-0.110734
-0.208913
-0.196802
-0.182564
-0.166893
-0.149837
-0.130462
-0.109631
-0.0909678
-0.157338
-0.141474
-0.125167
-0.109732
-0.0942385
-0.076986
-0.0944172
-0.0795774
-0.0664813
-0.709553
-0.759425
-0.810111
-0.858077
-0.903423
-0.945613
-0.983373
-1.01927
-1.05356
-1.07613
-1.09443
-1.11429
-1.12327
-1.10357
-1.02097
-0.891726
-0.752526
-0.678101
-0.730457
-0.786004
-0.840639
-0.894971
-0.946626
-0.997621
-1.04511
-1.07311
-1.08482
-1.09434
-1.09831
-1.0662
-0.976478
-0.847229
-0.712907
-0.628147
-0.676989
-0.728688
-0.781043
-0.834037
-0.887267
-0.941058
-0.989001
-1.01989
-1.02941
-1.03438
-1.02671
-0.977931
-0.879878
-0.757126
-0.636299
-0.589579
-0.626132
-0.66243
-0.705996
-0.749646
-0.792701
-0.836926
-0.877772
-0.908668
-0.929693
-0.937347
-0.915975
-0.851396
-0.752294
-0.643483
-0.541431
-0.553678
-0.568387
-0.588638
-0.613753
-0.641301
-0.67408
-0.710971
-0.749832
-0.786842
-0.814749
-0.818064
-0.780557
-0.709074
-0.620367
-0.531731
-0.450287
-0.508439
-0.496732
-0.495463
-0.514257
-0.541799
-0.573226
-0.617816
-0.666115
-0.693001
-0.68308
-0.63624
-0.571089
-0.502012
-0.434765
-0.371178
-0.391158
-0.372345
-0.36851
-0.390956
-0.446424
-0.507894
-0.552872
-0.566779
-0.547059
-0.502744
-0.452582
-0.402715
-0.354934
-0.30671
-0.254555
-0.264267
-0.310985
-0.367346
-0.417965
-0.44863
-0.449437
-0.427267
-0.39422
-0.359174
-0.322583
-0.288252
-0.250891
-0.235227
-0.271942
-0.315468
-0.348125
-0.358981
-0.352446
-0.334497
-0.310818
-0.283529
-0.254824
-0.229767
-0.202032
-0.260333
-0.279399
-0.289299
-0.290556
-0.282953
-0.266734
-0.246848
-0.224415
-0.201494
-0.177749
-0.152869
-0.606154
-0.483898
-0.4103
-0.378175
-0.381737
-0.416909
-0.494924
-0.624188
-0.776282
-0.88095
-0.86879
-0.746093
-0.587405
-0.45097
-0.369961
-0.3329
-0.335293
-0.382072
-0.487493
-0.644589
-0.57765
-0.470133
-0.400312
-0.357296
-0.342618
-0.357333
-0.408204
-0.497653
-0.610801
-0.690488
-0.68227
-0.593536
-0.484729
-0.389887
-0.337287
-0.319672
-0.336809
-0.405612
-0.542396
-0.720658
-0.51538
-0.424212
-0.366983
-0.325
-0.298875
-0.294557
-0.317642
-0.372288
-0.445411
-0.504463
-0.503913
-0.449221
-0.380932
-0.322199
-0.291151
-0.289435
-0.31939
-0.405079
-0.56325
-0.755627
-0.439727
-0.365793
-0.319133
-0.280648
-0.252694
-0.237732
-0.239208
-0.264176
-0.301052
-0.343947
-0.34497
-0.320918
-0.28034
-0.249895
-0.231057
-0.239178
-0.274312
-0.358807
-0.533291
-0.734029
-0.364626
-0.306439
-0.270271
-0.233642
-0.203734
-0.182419
-0.173332
-0.177404
-0.190459
-0.215918
-0.217928
-0.210878
-0.188953
-0.176772
-0.167913
-0.176166
-0.210839
-0.286558
-0.451609
-0.649077
-0.30085
-0.253913
-0.22501
-0.193509
-0.164661
-0.139153
-0.121306
-0.112031
-0.110996
-0.119082
-0.124593
-0.121773
-0.11542
-0.114559
-0.111298
-0.11501
-0.144582
-0.202552
-0.33759
-0.525956
-0.249149
-0.211824
-0.187677
-0.158485
-0.131312
-0.10775
-0.0858062
-0.0692557
-0.0565512
-0.0548593
-0.0545593
-0.0550533
-0.0586449
-0.063908
-0.065907
-0.0668681
-0.0863427
-0.126585
-0.228468
-0.386606
-0.538368
-0.204582
-0.178723
-0.161039
-0.136379
-0.110553
-0.0872082
-0.0640493
-0.044916
-0.0247144
-0.0159414
-0.00842101
-0.022029
-0.0178944
-0.0263809
-0.0320371
-0.0303531
-0.0402687
-0.065167
-0.135665
-0.254917
-0.382008
-0.16866
-0.15367
-0.139811
-0.118598
-0.0958838
-0.0750415
-0.0530782
-0.0336037
-0.0117025
0.00412146
0.0179775
0.0169755
0.0167772
0.00359739
-0.007261
-0.00874649
-0.013496
-0.0255723
-0.0674818
-0.148287
-0.249759
-0.135936
-0.134147
-0.125305
-0.108334
-0.0884575
-0.0691173
-0.0495137
-0.0322104
-0.0119196
0.00589059
0.0210075
0.0333535
0.0334124
0.0271327
0.0126921
0.0055631
0.00370358
-0.00354892
-0.0270355
-0.0811212
-0.148919
-0.1025
-0.112329
-0.105296
-0.0872768
-0.0662535
-0.046372
-0.0276679
-0.0125927
0.00154923
0.017188
0.0306802
0.043315
0.0486621
0.0509988
0.0332714
0.0174609
0.0108637
0.00798059
-0.00169374
-0.034826
-0.0821676
-0.126912
-0.0718845
-0.0852489
-0.0826705
-0.0672631
-0.0464235
-0.0276248
-0.0112109
0.00152295
0.0126021
0.0262744
0.0372413
0.0470651
0.0527876
0.0535068
0.0404724
0.0226607
0.0119828
0.0112252
0.00839577
-0.0179132
-0.0584846
-0.0872987
-0.0515952
-0.0639007
-0.0636227
-0.0519092
-0.034266
-0.0174453
-0.00240705
0.0093003
0.0188831
0.0311416
0.0422395
0.0534413
0.0584051
0.0595608
0.0456153
0.0274175
0.0148986
0.0128309
0.00833937
-0.0176828
-0.0423502
-0.0480958
-0.0347105
-0.0446124
-0.045633
-0.0365941
-0.0214405
-0.0067913
0.00665702
0.0185598
0.0266343
0.0363681
0.0446365
0.0541805
0.0580765
0.0596066
0.0484246
0.032953
0.0207953
0.0149273
0.00958445
-0.0100942
-0.0203478
-0.0220428
-0.0183213
-0.0273506
-0.0292547
-0.0231287
-0.011565
0.00124447
0.0130222
0.0234586
0.0300576
0.0375981
0.0446738
0.0535513
0.0589262
0.0582869
0.049875
0.0372783
0.0266645
0.0190295
0.0146267
0.00191383
-0.00362022
-0.00604037
-0.0053013
-0.0137021
-0.0162863
-0.0119651
-0.00264967
0.0084386
0.0181304
0.0270698
0.033198
0.0392351
0.044932
0.0508777
0.0526344
0.0535903
0.0490274
0.0392362
0.0306011
0.0232639
0.0196617
0.0114891
0.00826155
0.0069932
0.00430962
-0.00257
-0.0051032
-0.00203266
0.00525982
0.0143131
0.0224488
0.0298232
0.0352631
0.039665
0.0437961
0.0481302
0.0505759
0.0506799
0.047207
0.0395605
0.0333642
0.0271886
0.0244659
0.0188674
0.0155734
0.0146375
0.0130083
0.0071837
0.00455698
0.0064046
0.0118524
0.0189858
0.0257576
0.0316952
0.0362982
0.0395828
0.0427368
0.045895
0.0482007
0.0480677
0.0453763
0.039823
0.0353267
0.0305803
0.0277672
0.0244456
0.0210752
0.0205592
0.0203823
0.0150876
0.0123757
0.0131658
0.0170553
0.022549
0.0282679
0.0331577
0.0368369
0.0394275
0.0417193
0.0441626
0.0460206
0.0459023
0.0439594
0.0397673
0.036454
0.0329706
0.0305189
0.0282959
0.0249807
0.0240446
0.0258295
0.0213159
0.0186839
0.0186523
0.021359
0.0256745
0.0303378
0.034251
0.0371228
0.0391545
0.0407908
0.0426815
0.0441503
0.044128
0.0427338
0.0396842
0.0370313
0.0346832
0.0323099
0.0310226
0.0284256
0.0269853
0.0303056
0.0264189
0.0238534
0.0233611
0.0252066
0.0283947
0.0319381
0.0351054
0.037352
0.0388298
0.0399503
0.0414081
0.042645
0.0427096
0.0416969
0.0393779
0.0373359
0.0357604
0.0339396
0.0329124
0.0306689
0.0291467
0.0341423
0.0306911
0.0282206
0.0273111
0.028277
0.0305452
0.033374
0.035959
0.0376504
0.0386128
0.039391
0.0404538
0.0414762
0.0415831
0.0407552
0.0391865
0.0375395
0.0365243
0.0349802
0.0341874
0.0326784
0.0312958
0.0371464
0.0340589
0.0316846
0.0305597
0.0310095
0.0326661
0.034839
0.0367968
0.03802
0.0386027
0.0390443
0.0397786
0.0405959
0.0407528
0.0401225
0.0390168
0.0376858
0.0369695
0.0359635
0.035363
0.034193
0.0328614
0.039584
0.0369357
0.0347869
0.0335088
0.0335141
0.034607
0.0361864
0.0375952
0.0384799
0.0388023
0.0389851
0.039466
0.0400671
0.0402869
0.0397498
0.0389459
0.0378987
0.0374798
0.0368141
0.0362603
0.0354094
0.0343293
0.0417754
0.0393566
0.0372466
0.0359266
0.035693
0.0363321
0.0374527
0.0385787
0.039225
0.039285
0.0392193
0.0394913
0.039934
0.0401408
0.0396982
0.0390372
0.0382608
0.037928
0.0375508
0.0371171
0.0365507
0.0356436
0.0434469
0.0413296
0.039388
0.0380041
0.0375211
0.0379492
0.0388923
0.0397076
0.0399959
0.0398159
0.0396192
0.0397774
0.0401183
0.0402678
0.0398876
0.0392868
0.0386815
0.0384367
0.0382658
0.0379835
0.0375472
0.036833
0.0447102
0.0428154
0.0410333
0.0397644
0.0393262
0.0395748
0.0401077
0.0405501
0.0406909
0.040484
0.040236
0.040267
0.0404949
0.0405689
0.0402322
0.0396924
0.0392029
0.0390097
0.0389621
0.038783
0.0384086
0.0378904
0.0457455
0.0442039
0.0426987
0.04148
0.0408012
0.0407278
0.0411054
0.0415107
0.0415939
0.0412704
0.0409244
0.040858
0.0409994
0.0410236
0.0407146
0.0402124
0.0397592
0.0396236
0.03961
0.0395114
0.0391763
0.0387953
0.046887
0.0454118
0.0438363
0.0425665
0.0419551
0.0419594
0.0422738
0.0424884
0.042387
0.0419846
0.0416112
0.0414998
0.0415798
0.0415699
0.0412441
0.0407542
0.0403457
0.0402471
0.0402326
0.0401646
0.0398683
0.0395327
0.047094
0.0458397
0.0446546
0.0437171
0.043192
0.0430577
0.04316
0.0432336
0.0430847
0.0426943
0.0423147
0.0421693
0.0421845
0.0421177
0.0417909
0.0413514
0.0409671
0.0408554
0.0408221
0.0407585
0.0404807
0.0401613
0.0476349
0.0466929
0.0456364
0.0446718
0.0440599
0.0438649
0.0439319
0.0439709
0.0437796
0.0433784
0.0429891
0.0428207
0.0427891
0.0426998
0.0423639
0.0419345
0.0415605
0.0414175
0.0413765
0.0412829
0.0410182
0.0406963
0.048104
0.0471969
0.046198
0.0453425
0.0448213
0.0446433
0.044647
0.0446084
0.0443759
0.0439804
0.0436029
0.0434133
0.043336
0.0432107
0.0428919
0.0424765
0.0421107
0.0419446
0.0418817
0.0417537
0.0414873
0.041165
0.0481966
0.0474682
0.0466733
0.0459703
0.0455008
0.0452897
0.0452222
0.0451312
0.0448861
0.0445091
0.0441464
0.0439381
0.0438321
0.0436859
0.0433736
0.0429605
0.0426076
0.0424202
0.0423267
0.042159
0.0418822
0.0415581
0.0483111
0.0477507
0.047096
0.0464831
0.0460426
0.0458127
0.0457039
0.0455752
0.0453194
0.0449616
0.0446232
0.0444078
0.0442686
0.0440818
0.0437661
0.0433797
0.043048
0.0428358
0.0426938
0.0424965
0.0422106
0.0418862
0.0483834
0.0479182
0.0473717
0.0468555
0.0464696
0.0462396
0.0460973
0.0459378
0.0456834
0.0453459
0.0450182
0.0447785
0.0446039
0.0444028
0.0441111
0.0437507
0.0434184
0.0431771
0.0429982
0.0427806
0.0424799
0.0421534
0.0483144
0.04795
0.0475273
0.0471164
0.0467847
0.046553
0.0463779
0.0461886
0.045932
0.0456176
0.0453118
0.0450699
0.0448756
0.0446587
0.0443697
0.0440256
0.0437024
0.0434454
0.0432309
0.0429839
0.0426759
0.0423484
0.0482774
0.0480009
0.047671
0.0473332
0.0470356
0.0467974
0.0465958
0.0463859
0.0461333
0.0458429
0.0455553
0.0453042
0.0450806
0.044842
0.044557
0.044237
0.0439257
0.0436538
0.043405
0.043136
0.0428222
0.0424907
0.0481812
0.0479592
0.0477007
0.0474319
0.0471808
0.0469582
0.0467498
0.0465299
0.0462798
0.0460043
0.0457291
0.0454749
0.0452367
0.0449882
0.044709
0.0444039
0.0440989
0.0438138
0.0435391
0.0432507
0.0429312
0.042598
0.0479902
0.047797
0.0475897
0.0473755
0.0471619
0.0469518
0.0467406
0.0465206
0.0462855
0.0460371
0.0457837
0.0455332
0.0452835
0.0450253
0.0447509
0.0444628
0.0441694
0.0438787
0.0435867
0.0432856
0.042967
0.042636
0.0479982
0.0478274
0.0476425
0.0474461
0.0472417
0.0470314
0.0468147
0.0465897
0.0463547
0.0461108
0.0458608
0.0456077
0.0453508
0.0450875
0.0448137
0.0445302
0.044238
0.0439414
0.0436388
0.0433294
0.0430078
0.0426746
-0.0429879
-0.0528787
-0.0572649
-0.0704829
-0.0820105
-0.0258873
-0.0331315
-0.0355465
-0.0431669
-0.0522436
-0.0101177
-0.0151988
-0.0181474
-0.0235711
-0.0340727
0.000375374
-0.00394184
-0.00834072
-0.0138295
-0.0226702
0.00494747
0.000860907
-0.00275825
-0.00861846
0.0145708
0.0121294
0.00945863
0.00397811
0.0228509
0.0206064
0.0172955
0.0119103
0.0282818
0.0258656
0.0229423
0.0188372
0.0327489
0.0309745
0.028852
0.0254865
0.0370894
0.0356263
0.0335518
0.0302027
0.0402594
0.0387048
0.0367169
0.0338511
0.0425317
0.0411586
0.0395772
0.0372274
0.0446116
0.0434942
0.0420951
0.0399061
0.0462946
0.0452012
0.0438395
0.0419338
0.0474507
0.0464745
0.0453656
0.0438093
0.0484307
0.0475949
0.0466246
0.0452419
0.04919
0.048455
0.0475581
0.0463114
0.0496586
0.0489367
0.0481008
0.0470482
0.0497725
0.0492183
0.0486932
0.0479614
0.0501159
0.0496877
0.0491017
0.0482098
0.0500927
0.0495547
0.0489919
0.048367
0.049881
0.0495143
0.0491908
0.0487563
0.0499156
0.0495934
0.0492409
0.0487816
0.0497495
0.0494078
0.0490828
0.0487351
0.0495388
0.0492625
0.0490079
0.048732
0.0493716
0.0491177
0.0488692
0.0486098
0.0491573
0.0489275
0.0487118
0.0485027
0.0489414
0.0487449
0.0485572
0.048373
0.0487508
0.0485585
0.0483672
0.0481773
0.0486778
0.0485042
0.0483333
0.0481642
)
;

boundaryField
{
    outlet
    {
        type            fixedValue;
        value           nonuniform 0();
    }
    upperWall
    {
        type            symmetryPlane;
    }
    lowerWall
    {
        type            symmetryPlane;
    }
    inlet
    {
        type            zeroGradient;
    }
    cylinder
    {
        type            zeroGradient;
    }
    frontAndBack
    {
        type            empty;
    }
    procBoundary6to2
    {
        type            processor;
        value           nonuniform List<scalar> 
37
(
-0.834288
-0.885518
-0.928985
-0.960766
-0.981952
-0.995105
-1.00441
-1.01324
-1.02408
-1.0384
-1.06353
-1.08605
-1.0992
-1.07653
-0.99153
-0.864179
-0.727544
-0.580301
-0.460392
-0.399505
-0.38351
-0.401474
-0.452019
-0.55418
-0.722361
-0.912311
-1.04031
-1.02641
-0.878119
-0.681039
-0.503412
-0.390888
-0.333345
-0.318316
-0.344222
-0.416687
-0.540948
)
;
    }
    procBoundary6to5
    {
        type            processor;
        value           nonuniform List<scalar> 
63
(
-0.251395
-0.251395
-0.229874
-0.219343
-0.219343
-0.185935
-0.172337
-0.172337
-0.139247
-0.124704
-0.109491
-0.109491
-0.0828847
-0.0701507
-0.0575269
-0.0575269
-0.665045
-0.63095
-0.63095
-0.586944
-0.55617
-0.538427
-0.5229
-0.5229
-0.430695
-0.430695
-0.299114
-0.299114
-0.223772
-0.223772
-0.239899
-0.239899
-0.0362316
-0.0220458
-0.00736438
0.00422146
0.00848072
0.00848072
0.0168833
0.0247582
0.0304711
0.0346961
0.0385545
0.0416768
0.0438624
0.0456985
0.0472707
0.0483823
0.0492458
0.0498945
0.0503105
0.0503756
0.0505226
0.0505743
0.0503119
0.0502447
0.0500932
0.0498324
0.0496233
0.0493886
0.049141
0.0489404
0.0488527
)
;
    }
    procBoundary6to7
    {
        type            processor;
        value           nonuniform List<scalar> 
42
(
-0.765917
-0.863963
-0.913158
-0.900743
-0.826929
-0.698643
-0.698643
-0.616951
-0.465875
-0.321965
-0.188659
-0.188659
-0.150918
-0.0971214
-0.054475
-0.0291874
-0.0123049
2.8505e-05
0.0103453
0.0168247
0.0223172
0.0258851
0.028883
0.0310337
0.0327839
0.0341653
0.0354945
0.0367126
0.0377712
0.0386591
0.0394214
0.0400677
0.0406031
0.0410439
0.0413978
0.041685
0.0419106
0.0420725
0.0421893
0.0422751
0.0423011
0.0423308
)
;
    }
}


// ************************************************************************* //
