/*--------------------------------*- C++ -*----------------------------------*\
| =========                 |                                                 |
| \\      /  F ield         | OpenFOAM: The Open Source CFD Toolbox           |
|  \\    /   O peration     | Version:                                        |
|   \\  /    A nd           | Website:  www.openfoam.com                      |
|    \\/     M anipulation  |                                                 |
\*---------------------------------------------------------------------------*/
FoamFile
{
    version     2.0;
    format      ascii;
    class       volScalarField;
    location    "66.6";
    object      p;
}
// * * * * * * * * * * * * * * * * * * * * * * * * * * * * * * * * * * * * * //

dimensions      [0 2 -2 0 0 0 0];


internalField   nonuniform List<scalar> 
1153
(
-1.14401
-1.15863
-1.136
-1.11175
-1.04924
-0.969885
-0.88736
-0.806459
-0.729273
-0.656248
-1.16376
-1.1713
-1.16346
-1.11392
-1.03818
-0.95238
-0.866592
-0.785179
-0.709292
-0.639031
-0.57434
-0.514077
-1.2008
-1.16265
-1.17438
-1.11109
-1.02373
-0.933191
-0.846952
-0.767196
-0.694075
-0.627404
-0.566154
-0.509295
-0.456554
-0.406801
-1.26608
-1.2173
-1.17512
-1.09614
-1.00294
-0.912488
-0.828377
-0.750537
-0.678927
-0.61344
-0.553793
-0.49925
-0.448777
-0.40224
-0.35936
-0.319168
-0.2835
-1.28503
-1.27067
-1.17668
-1.0751
-0.979275
-0.891225
-0.81046
-0.736243
-0.667786
-0.604747
-0.54702
-0.494409
-0.446207
-0.401651
-0.361092
-0.32432
-0.290062
-0.259165
-0.23132
-0.20522
-1.25312
-1.26518
-1.16137
-1.05234
-0.955728
-0.870257
-0.792942
-0.722178
-0.65738
-0.597972
-0.543318
-0.492947
-0.446893
-0.404849
-0.365417
-0.329038
-0.295992
-0.265532
-0.237746
-0.212377
-1.1959
-1.20528
-1.13118
-1.03057
-0.936831
-0.852606
-0.776516
-0.706878
-0.64286
-0.584281
-0.530863
-0.482252
-0.437863
-0.397176
-0.360572
-0.326517
-0.294962
-0.266436
-0.240318
-0.215477
-1.18658
-1.16771
-1.10421
-1.00936
-0.917527
-0.833642
-0.758268
-0.690182
-0.628096
-0.571196
-0.519154
-0.471802
-0.428955
-0.390207
-0.354398
-0.322214
-0.292859
-0.265755
-0.240997
-0.217636
-1.21983
-1.16131
-1.08255
-0.987417
-0.895973
-0.811606
-0.735826
-0.668308
-0.607939
-0.553591
-0.504141
-0.458962
-0.417815
-0.380398
-0.346665
-0.315234
-0.286528
-0.260705
-0.236874
-0.214351
-1.26041
-1.16398
-1.06522
-0.963477
-0.869626
-0.78439
-0.708222
-0.640543
-0.580264
-0.526493
-0.478401
-0.435169
-0.396074
-0.360542
-0.328178
-0.299628
-0.273698
-0.249893
-0.228193
-0.207726
-1.21415
-1.19634
-1.21291
-1.20278
-1.19027
-1.20838
-1.24175
-1.17003
-1.15988
-1.17391
-1.20167
-1.1296
-1.11769
-1.12184
-1.1394
-1.09726
-1.08043
-1.07018
-1.07178
-1.07869
-1.05787
-1.03688
-1.02546
-1.03187
-1.07186
-1.05243
-1.02944
-1.01297
-1.01489
-1.02702
-1.07488
-1.06448
-1.04779
-1.03556
-1.03047
-1.01814
-0.981977
-1.09162
-1.08813
-1.08433
-1.06999
-1.04937
-1.00604
-0.945254
-0.874646
-1.11663
-1.11828
-1.11525
-1.1018
-1.05519
-0.987954
-0.913067
-0.836405
-0.760128
-0.188473
-0.190809
-0.192198
-0.188246
-0.185445
-0.167857
-0.166591
-0.165493
-0.160886
-0.15832
-0.148261
-0.144887
-0.142915
-0.138618
-0.136465
-0.130968
-0.127068
-0.124353
-0.120777
-0.118253
-0.114359
-0.110633
-0.107166
-0.1044
-0.101081
-0.0985229
-0.099714
-0.0961938
-0.0922621
-0.0899418
-0.0862218
-0.0838004
-0.0861528
-0.0827932
-0.0789866
-0.0768824
-0.0736862
-0.0716367
-0.0740617
-0.0709436
-0.0675833
-0.0656588
-0.0630776
-0.061054
-0.0633076
-0.0603743
-0.05748
-0.0556338
-0.0533362
-0.0512276
-0.0536339
-0.0509113
-0.0484267
-0.0466521
-0.0446277
-0.0427679
-0.0449317
-0.0425173
-0.0404173
-0.038811
-0.0371026
-0.0355792
-0.0372171
-0.0351167
-0.0333434
-0.0319393
-0.0304653
-0.0291527
-0.0303909
-0.0285527
-0.0270544
-0.0258262
-0.024527
-0.0232912
-0.0243351
-0.0227139
-0.021433
-0.0203169
-0.0190956
-0.0179841
-0.0189895
-0.017559
-0.0164601
-0.0155482
-0.014622
-0.0138781
-0.0142866
-0.0130399
-0.012114
-0.0113915
-0.0105987
-0.00973878
-0.0100414
-0.00894722
-0.00810888
-0.00742177
-0.00667012
-0.00591864
-0.00618295
-0.00527466
-0.0046123
-0.00415005
-0.00371503
-0.00330742
-0.0027445
-0.00205221
-0.001577
-0.00125794
-0.000887359
-0.000411297
0.000356828
0.000909673
0.0012835
0.00154258
0.00184033
0.00218468
0.00312067
0.00354755
0.00379333
0.00391668
0.00404624
0.00422964
0.00551685
0.00583046
0.00598034
0.00602315
0.0060778
0.00620719
0.00759609
0.00782459
0.00791575
0.0079089
0.00789754
0.00794098
0.00937215
0.00952474
0.0095609
0.00950282
0.00942906
0.00940317
0.0108419
0.0109254
0.0109196
0.010837
0.0107402
0.0106842
0.0120453
0.0120695
0.0120327
0.0119352
0.0118187
0.0117256
0.0129999
0.0129621
0.0128893
0.0127768
0.0126515
0.0125455
0.013696
0.0136048
0.0135049
0.0133893
0.0132706
0.0131657
0.0141438
0.0140215
0.0139002
0.0137769
0.0136566
0.0135469
0.0143455
0.0142233
0.0141018
0.0139827
0.0138693
0.0137645
-0.0315321
-0.0308274
-0.0306877
-0.0317217
-0.0346549
-0.0399243
-0.04733
-0.0565048
-0.067222
-0.0798091
-0.0950573
-0.113713
-0.13663
-0.164783
-0.199733
-0.243205
-0.297767
-0.36671
-0.453484
-0.596224
-0.0559712
-0.0559718
-0.0588563
-0.0638653
-0.0706726
-0.0792444
-0.089798
-0.10242
-0.11728
-0.13456
-0.154716
-0.178603
-0.207409
-0.242392
-0.285183
-0.338018
-0.403529
-0.483983
-0.581069
-0.743187
-0.0728909
-0.0761774
-0.083886
-0.0941372
-0.105572
-0.117833
-0.131247
-0.146542
-0.164443
-0.185604
-0.210621
-0.240078
-0.274895
-0.316451
-0.36655
-0.427541
-0.502933
-0.594158
-0.698963
-0.882453
-0.0922651
-0.097881
-0.108524
-0.122291
-0.137384
-0.153229
-0.170288
-0.189283
-0.211054
-0.236294
-0.265664
-0.299914
-0.339968
-0.38712
-0.443324
-0.511118
-0.594559
-0.695989
-0.809405
-1.00525
-0.113903
-0.121966
-0.13464
-0.150489
-0.167828
-0.186084
-0.205817
-0.227902
-0.252755
-0.281172
-0.314104
-0.352463
-0.397373
-0.450105
-0.51235
-0.586468
-0.677183
-0.789004
-0.907499
-1.10898
-0.13551
-0.145881
-0.160641
-0.17747
-0.196012
-0.21605
-0.238162
-0.263191
-0.291728
-0.323931
-0.360423
-0.402315
-0.450907
-0.507683
-0.574311
-0.652686
-0.747278
-0.869325
-0.993529
-1.19239
-0.155321
-0.167643
-0.184577
-0.203449
-0.223407
-0.245109
-0.269362
-0.296859
-0.327992
-0.363184
-0.402884
-0.447921
-0.499725
-0.559827
-0.629978
-0.711779
-0.807769
-0.933617
-1.06337
-1.25269
-0.172904
-0.187416
-0.205251
-0.225182
-0.246396
-0.269601
-0.295311
-0.32438
-0.357461
-0.394962
-0.437454
-0.485669
-0.540678
-0.604018
-0.6772
-0.761424
-0.85901
-0.983205
-1.11742
-1.28897
-0.185655
-0.203306
-0.223102
-0.244572
-0.267763
-0.293127
-0.321508
-0.353174
-0.388517
-0.428024
-0.472234
-0.521953
-0.578334
-0.642992
-0.717614
-0.803419
-0.90156
-1.01946
-1.14933
-1.30115
-0.197474
-0.217496
-0.237818
-0.260274
-0.285142
-0.312586
-0.34259
-0.37589
-0.413062
-0.454689
-0.501207
-0.553189
-0.611642
-0.677824
-0.753122
-0.838804
-0.935491
-1.04571
-1.16355
-1.29042
0.230176
0.243183
0.257643
0.273535
0.290816
0.309458
0.32945
0.35075
0.3733
0.39698
0.421567
0.446708
0.471812
0.495837
0.517554
0.534628
0.544937
0.216391
0.228776
0.242686
0.257865
0.274204
0.291728
0.310488
0.330465
0.351541
0.373563
0.396301
0.41934
0.442079
0.463545
0.482217
0.495179
0.501032
0.198802
0.210185
0.223154
0.237244
0.252274
0.268277
0.285327
0.303365
0.322289
0.341805
0.361642
0.381486
0.400651
0.417828
0.431401
0.438056
0.43747
0.169914
0.17773
0.187863
0.199557
0.212144
0.225356
0.239231
0.253876
0.269267
0.285258
0.301634
0.317927
0.333354
0.347363
0.35875
0.365862
0.364779
0.354964
0.147114
0.153329
0.162052
0.172302
0.183226
0.19442
0.205857
0.21761
0.229693
0.241854
0.253786
0.265298
0.275834
0.284015
0.288211
0.286727
0.275988
0.253854
0.120245
0.121439
0.125896
0.132881
0.141227
0.150019
0.158795
0.167502
0.176154
0.184695
0.192898
0.200258
0.206034
0.209651
0.210375
0.206576
0.19593
0.173316
0.13422
0.0990353
0.0942675
0.0934782
0.0964693
0.101909
0.108223
0.114397
0.119999
0.125022
0.129725
0.134023
0.13751
0.139667
0.139844
0.137023
0.129948
0.11652
0.09467
0.0591984
0.00354476
0.0732478
0.0653073
0.0626126
0.0644697
0.0686888
0.0732071
0.0768905
0.0793251
0.0805344
0.0807877
0.0802463
0.0786096
0.0750127
0.0684671
0.0578465
0.0419257
0.0187181
-0.0143682
-0.0625879
-0.139445
0.0450247
0.0345252
0.0308091
0.0316207
0.0337858
0.0355113
0.0359265
0.0350549
0.0329029
0.0292838
0.0238566
0.016271
0.00601685
-0.00770382
-0.0260446
-0.0507576
-0.0842712
-0.129298
-0.191785
-0.290074
0.0111094
0.00190179
-1.87803e-05
0.00027596
7.08736e-05
-0.00181208
-0.00558671
-0.010868
-0.0173319
-0.0251917
-0.0350088
-0.047534
-0.0636973
-0.0845449
-0.111411
-0.145843
-0.190599
-0.248264
-0.322855
-0.441848
0.0823228
0.0603008
0.0455894
0.0291177
0.0230834
-0.00120199
0.0114493
-0.00759976
0.00378356
-0.0131369
-0.00249672
-0.01785
-0.00745526
-0.0212658
-0.0110228
-0.0236076
-0.0135409
-0.0250355
-0.0150939
-0.0254659
-0.0157345
-0.0250327
-0.0156486
-0.0238988
-0.0149695
-0.0221842
-0.0137077
-0.019955
-0.0119657
-0.0173731
-0.0099078
-0.0145505
-0.00759811
-0.0115612
-0.00513402
-0.00849938
-0.00259955
-0.00542251
-8.9189e-05
-0.00241758
0.00232098
0.000442034
0.00458514
0.00309561
0.00668013
0.00551518
0.00860153
0.00769565
0.0103412
0.0096393
0.0118944
0.0113525
0.0132697
0.0128552
0.0144538
0.0141501
0.0153732
0.0151536
0.0159785
0.0157899
0.0168305
0.0164823
0.0173277
0.0169181
-0.0306114
-0.0582991
-0.0745116
-0.0911488
-0.109737
-0.129592
-0.146559
-0.161141
-0.172846
-0.182862
-0.0310483
-0.0594001
-0.077219
-0.0910144
-0.105777
-0.123025
-0.137265
-0.149444
-0.158589
-0.164784
-0.0340058
-0.05955
-0.0768166
-0.0883893
-0.0997453
-0.113953
-0.126232
-0.136118
-0.143424
-0.146758
-0.0362881
-0.0587932
-0.0747808
-0.0853094
-0.0944568
-0.105876
-0.116149
-0.123698
-0.129413
-0.130545
-0.0380359
-0.0580671
-0.0722647
-0.0812498
-0.0884246
-0.0971238
-0.10511
-0.110959
-0.115204
-0.115147
-0.0389662
-0.0567132
-0.0687998
-0.0760235
-0.0817609
-0.0883558
-0.0944961
-0.0989853
-0.101741
-0.101367
-0.039039
-0.0546986
-0.0647579
-0.0703512
-0.0748086
-0.0798027
-0.0843331
-0.087659
-0.0891497
-0.0885528
-0.0382315
-0.0520114
-0.0602001
-0.064291
-0.0675574
-0.0713204
-0.0745948
-0.0770042
-0.0775712
-0.0767486
-0.0366062
-0.0486984
-0.0552357
-0.0580242
-0.0602601
-0.063068
-0.0654309
-0.0671239
-0.0670799
-0.065991
-0.0342595
-0.0448302
-0.0500172
-0.0517265
-0.0530898
-0.055122
-0.0568588
-0.0579713
-0.0575357
-0.0562161
-0.0313212
-0.0405181
-0.0446566
-0.045532
-0.0461709
-0.0475718
-0.0488896
-0.0495842
-0.0489032
-0.0473916
-0.0279308
-0.0358902
-0.0392306
-0.0395254
-0.0395916
-0.0404736
-0.0414802
-0.0419211
-0.0411147
-0.0394877
-0.0242801
-0.0311031
-0.0338285
-0.0337443
-0.0333922
-0.0338427
-0.0345938
-0.0349127
-0.034088
-0.0324697
-0.020459
-0.0262613
-0.0285122
-0.0282223
-0.0276136
-0.0277241
-0.0282497
-0.0284849
-0.0277406
-0.0262318
-0.0165861
-0.0214988
-0.0233779
-0.0230063
-0.0222594
-0.022116
-0.0224304
-0.022597
-0.0219896
-0.0206702
-0.012744
-0.0168812
-0.0184645
-0.01809
-0.0173021
-0.0170054
-0.0171479
-0.0172568
-0.0167826
-0.0157041
-0.00898639
-0.012462
-0.0138217
-0.0134903
-0.0127391
-0.012372
-0.0124043
-0.0124569
-0.0120852
-0.0112204
-0.00537362
-0.00828009
-0.0094705
-0.00921192
-0.00854116
-0.00816973
-0.00815627
-0.00817919
-0.00787534
-0.00716192
-0.00196316
-0.00436904
-0.00542906
-0.00526554
-0.00470136
-0.00436485
-0.00434812
-0.00437438
-0.00412354
-0.00353326
0.00118504
-0.000770085
-0.0017133
-0.00165931
-0.00122098
-0.000941052
-0.000936466
-0.000981202
-0.000785562
-0.000294829
0.00403349
0.00248383
0.00165875
0.00160681
0.00190449
0.00211016
0.00210073
0.00204315
0.00218966
0.00259121
0.00656758
0.00536862
0.00466619
0.00453147
0.00468834
0.00480681
0.00477528
0.0047106
0.00480856
0.00511379
0.00879285
0.00788354
0.0073004
0.00711252
0.00714709
0.00717426
0.00710845
0.00703125
0.00708301
0.00730057
0.0107238
0.0100431
0.0095663
0.00935044
0.00928973
0.00923288
0.00912304
0.00902149
0.00902822
0.0091686
0.0123929
0.0118852
0.0114929
0.0112604
0.0111272
0.0109997
0.0108442
0.0107077
0.0106618
0.0107243
0.0138272
0.0134609
0.0131391
0.0128947
0.0127001
0.0125066
0.0123015
0.0121216
0.0120187
0.0120062
0.014944
0.0147041
0.0144639
0.0142376
0.0140134
0.0137724
0.0135202
0.0132915
0.0131271
0.0130387
0.0156307
0.0154578
0.0152759
0.015086
0.0148792
0.014646
0.0143944
0.0141517
0.0139495
0.0138015
0.0161515
0.0158446
0.0155834
0.0153635
0.0151682
0.0149792
0.0147886
0.014601
0.0144278
0.014276
0.0164911
0.0160827
0.0157336
0.0154483
0.015219
0.0150316
0.0148716
0.0147284
0.0145954
0.0144687
)
;

boundaryField
{
    outlet
    {
        type            fixedValue;
        value           nonuniform 0();
    }
    upperWall
    {
        type            symmetryPlane;
    }
    lowerWall
    {
        type            symmetryPlane;
    }
    inlet
    {
        type            zeroGradient;
    }
    cylinder
    {
        type            zeroGradient;
    }
    frontAndBack
    {
        type            empty;
    }
    procBoundary5to1
    {
        type            processor;
        value           nonuniform List<scalar> 
20
(
-1.19569
-1.17143
-1.18514
0.239856
0.253017
0.26768
0.28398
0.301868
0.321171
0.341765
0.363598
0.386664
0.410932
0.436264
0.462363
0.48868
0.514201
0.537522
0.556074
0.567821
)
;
    }
    procBoundary5to4
    {
        type            processor;
        value           nonuniform List<scalar> 
45
(
0.218606
0.205767
0.189506
0.189506
0.164627
0.143833
0.143833
0.122196
0.122196
0.104071
0.104071
0.0871771
0.068439
0.068439
0.0539398
0.0379254
0.0260447
0.0173225
0.0101252
0.00425317
-0.000273422
-0.00362994
-0.0061403
-0.00782918
-0.00867916
-0.00881706
-0.00832473
-0.00727268
-0.00583448
-0.00410044
-0.00215946
-0.000111793
0.00195154
0.00396797
0.00590499
0.00774093
0.00945798
0.0110342
0.0124545
0.0137188
0.014805
0.0156548
0.0162397
0.0172044
0.0177159
)
;
    }
    procBoundary5to6
    {
        type            processor;
        value           nonuniform List<scalar> 
63
(
-0.587228
-0.686103
-0.587228
-0.522654
-0.45697
-0.45697
-0.404327
-0.360224
-0.360224
-0.319154
-0.280372
-0.250717
-0.250717
-0.220216
-0.192844
-0.176339
-1.24658
-1.24658
-1.2793
-1.23562
-1.16641
-1.08578
-1.08578
-1.05147
-1.05147
-1.01986
-1.01986
-0.922152
-0.922152
-0.799234
-0.799234
-0.686103
-0.176339
-0.150297
-0.13141
-0.115251
-0.115251
-0.0925129
-0.0793126
-0.0686135
-0.0583982
-0.04889
-0.0410275
-0.034211
-0.0280506
-0.0222079
-0.0171907
-0.013454
-0.00890383
-0.00546499
-0.00302772
7.59129e-05
0.0024384
0.00440785
0.00636379
0.00801195
0.00942346
0.0106724
0.0116672
0.0124722
0.0130822
0.0134521
0.0136702
)
;
    }
}


// ************************************************************************* //
