/*--------------------------------*- C++ -*----------------------------------*\
| =========                 |                                                 |
| \\      /  F ield         | OpenFOAM: The Open Source CFD Toolbox           |
|  \\    /   O peration     | Version:                                        |
|   \\  /    A nd           | Website:  www.openfoam.com                      |
|    \\/     M anipulation  |                                                 |
\*---------------------------------------------------------------------------*/
FoamFile
{
    version     2.0;
    format      ascii;
    class       volScalarField;
    location    "113.6";
    object      p;
}
// * * * * * * * * * * * * * * * * * * * * * * * * * * * * * * * * * * * * * //

dimensions      [0 2 -2 0 0 0 0];


internalField   nonuniform List<scalar> 
1139
(
-0.173365
-0.182273
-0.18859
-0.159917
-0.18893
-0.155187
-0.18309
-0.147165
-0.122672
-0.172785
-0.136044
-0.111712
-0.157937
-0.123449
-0.0986431
-0.140922
-0.109197
-0.0850678
-0.0702859
-0.120274
-0.0922003
-0.0724256
-0.057469
-0.0979809
-0.0750283
-0.0588889
-0.0459184
-0.892945
-0.932138
-0.751683
-0.618806
-0.537025
-0.482452
-0.958731
-0.777888
-0.645112
-0.559237
-0.495798
-0.444937
-0.970245
-0.797334
-0.671161
-0.583753
-0.510049
-0.442091
-0.357363
-0.967584
-0.812676
-0.695894
-0.610718
-0.531447
-0.44293
-0.337852
-0.226935
-0.954812
-0.823739
-0.723748
-0.644927
-0.557906
-0.453177
-0.33778
-0.200191
-0.136726
-0.938877
-0.835527
-0.757834
-0.683675
-0.588022
-0.477368
-0.349323
-0.218193
-0.165023
-0.152143
-0.928079
-0.855779
-0.797661
-0.724885
-0.624246
-0.510713
-0.373001
-0.268845
-0.210477
-0.186475
-0.927655
-0.893476
-0.851222
-0.774117
-0.66547
-0.548336
-0.417238
-0.327635
-0.260249
-0.216792
-0.941612
-0.931664
-0.90464
-0.824805
-0.712294
-0.591682
-0.476664
-0.378778
-0.298517
-0.23322
-0.971413
-0.968639
-0.943223
-0.864165
-0.752645
-0.636674
-0.522021
-0.410742
-0.314363
-0.238454
-1.00157
-0.998174
-0.966913
-0.888062
-0.7829
-0.666399
-0.53887
-0.41417
-0.308854
-0.2346
-1.03485
-1.02418
-0.982726
-0.901018
-0.790888
-0.660359
-0.520468
-0.392886
-0.293204
-0.223189
-1.06834
-1.04622
-0.9893
-0.891734
-0.763867
-0.619903
-0.480189
-0.363071
-0.273261
-0.205854
-1.06769
-1.03535
-0.958211
-0.840242
-0.699725
-0.556753
-0.430259
-0.32997
-0.249762
-0.187224
-1.00548
-0.966262
-0.875763
-0.749136
-0.612615
-0.486041
-0.380311
-0.297228
-0.227478
-0.168613
-0.892214
-0.849276
-0.758349
-0.638925
-0.519811
-0.414868
-0.329896
-0.260638
-0.201566
-0.146951
-0.734704
-0.695545
-0.614486
-0.512923
-0.416943
-0.333993
-0.267829
-0.212162
-0.168809
-0.130578
-0.571765
-0.551542
-0.493908
-0.419636
-0.345492
-0.281393
-0.229594
-0.187358
-0.156447
-0.131009
-0.458334
-0.451565
-0.414268
-0.360919
-0.303934
-0.251302
-0.208372
-0.173401
-0.146957
-0.125856
-0.391903
-0.382463
-0.35334
-0.309516
-0.261063
-0.216294
-0.178766
-0.1508
-0.128036
-0.111633
-0.363622
-0.34065
-0.309262
-0.268599
-0.222722
-0.183191
-0.148455
-0.125601
-0.106658
-0.0942152
-0.368314
-0.328585
-0.284665
-0.240464
-0.193492
-0.155291
-0.123365
-0.102377
-0.0870661
-0.0770337
-0.405171
-0.346142
-0.282679
-0.226185
-0.17419
-0.131727
-0.100105
-0.0791091
-0.0663743
-0.0585815
-0.485954
-0.401295
-0.310778
-0.231441
-0.166932
-0.115545
-0.080448
-0.0588746
-0.0473283
-0.0421564
-0.617323
-0.496227
-0.369107
-0.258288
-0.173685
-0.108778
-0.064069
-0.0379004
-0.0262087
-0.0239442
-0.771141
-0.610568
-0.448032
-0.305786
-0.192834
-0.110373
-0.0561372
-0.0234349
-0.00837233
-0.00553649
-0.87466
-0.689195
-0.503527
-0.341464
-0.214712
-0.120054
-0.0537403
-0.0119592
0.00782066
0.0101603
-0.85763
-0.676445
-0.501972
-0.349504
-0.22665
-0.131475
-0.0628312
-0.0163599
0.0146969
0.0246816
-0.738112
-0.590678
-0.448537
-0.31928
-0.209542
-0.12517
-0.0621514
-0.020162
0.0145349
0.0329839
-0.57395
-0.47349
-0.374207
-0.279988
-0.193302
-0.122
-0.0670023
-0.0264785
0.00721323
0.0312282
-0.441098
-0.383666
-0.318216
-0.24643
-0.176244
-0.117131
-0.0691616
-0.0331246
-0.00575133
0.0173413
-0.362951
-0.333379
-0.290238
-0.232675
-0.169662
-0.111746
-0.0667492
-0.0333724
-0.0104456
0.0062881
-0.330852
-0.318444
-0.288361
-0.240472
-0.181313
-0.122966
-0.0750217
-0.036848
-0.0142012
0.00103397
-0.339863
-0.343338
-0.328504
-0.282708
-0.217444
-0.149625
-0.0906611
-0.0439741
-0.0151031
0.00146302
-0.394904
-0.423458
-0.427421
-0.388296
-0.318924
-0.230889
-0.148014
-0.0801128
-0.0344944
-0.00768218
-0.519762
-0.573291
-0.589865
-0.558742
-0.48145
-0.374299
-0.264294
-0.166648
-0.0892001
-0.0423807
-0.427046
-0.291793
-0.181716
-0.105891
-0.0955981
-0.0635893
-0.0419465
-0.0255967
-0.00899221
0.00442453
0.0138193
0.0223346
0.0297878
0.0350745
0.0393524
0.043061
0.045895
0.0480561
0.0499675
0.0513231
0.0523217
0.0531104
0.0539217
0.0540745
0.0542925
0.0546326
0.0545727
0.0545221
0.0544742
0.0542951
0.0541561
0.0539842
0.0537362
0.0537123
-0.108751
-0.0801279
-0.0573863
-0.0376736
-0.0197214
-0.00540715
0.00592669
0.0158935
0.0240112
0.0302315
0.035313
0.0394885
0.0427475
0.045364
0.0475738
0.0492137
0.0504597
0.0515613
0.052502
0.0528196
0.0533552
0.0537486
0.0538314
0.0539502
0.0539892
0.0538986
0.0538453
0.053725
0.0535015
0.0535002
-0.105318
-0.0804523
-0.0601957
-0.041045
-0.0237038
-0.00971897
0.00202773
0.0122584
0.0204826
0.027039
0.0323339
0.0367114
0.0401432
0.0430505
0.0453459
0.0471879
0.0486109
0.0499734
0.050936
0.0515326
0.0522863
0.0527196
0.0529976
0.0532669
0.053407
0.0534352
0.0534749
0.0534233
0.0532492
0.0532707
-0.0900408
-0.067923
-0.0510632
-0.0346272
-0.0193571
-0.00711819
0.0036628
0.0129258
0.0203139
0.0262804
0.0312085
0.0353514
0.0386077
0.0414748
0.0437171
0.0455894
0.0471579
0.0485848
0.0495401
0.0504182
0.0512519
0.051757
0.0522095
0.0525852
0.0528243
0.0529645
0.0530836
0.0531025
0.0529863
0.0530268
-0.0702853
-0.0491225
-0.0350945
-0.0210593
-0.00931948
0.000629663
0.00974076
0.0173264
0.0233161
0.0281402
0.0323214
0.0357252
0.0385179
0.0410332
0.0430894
0.0448042
0.0464449
0.0476929
0.0486904
0.0497052
0.0504924
0.0510761
0.0516185
0.0520398
0.0523467
0.0525563
0.0527205
0.0527924
0.0527207
0.0527725
-0.051906
-0.0311382
-0.0194512
-0.00683067
0.00250498
0.0109436
0.0180389
0.0237192
0.0280949
0.0317559
0.0349694
0.0374371
0.0396831
0.0416702
0.0433709
0.0448882
0.0463966
0.047387
0.0484658
0.0494069
0.0501146
0.0507408
0.0512814
0.0516953
0.0520199
0.0522432
0.0524121
0.0525081
0.0524563
0.0525106
-0.034639
-0.0159311
-0.0057917
0.00523246
0.013109
0.0200552
0.0256295
0.0299697
0.0332089
0.0358836
0.038018
0.0397449
0.041418
0.0428805
0.0441694
0.0455428
0.0466674
0.0475519
0.0486212
0.0493635
0.0500218
0.0506268
0.0511071
0.0514879
0.0517924
0.0519931
0.0521428
0.0522391
0.0521891
0.0522402
-0.0194964
-0.00353132
0.00584878
0.0167711
0.023195
0.0283162
0.0323417
0.0353381
0.0376726
0.0394748
0.0408293
0.0419973
0.043068
0.0440283
0.0450232
0.0461613
0.0469249
0.0478105
0.0487162
0.0493342
0.049967
0.0505141
0.0509367
0.0512871
0.0515645
0.0517387
0.0518701
0.0519598
0.0519112
0.0519586
-0.006363
0.0066753
0.0146412
0.0245623
0.0296562
0.0341761
0.0375035
0.0395763
0.0409707
0.0419788
0.0427487
0.0434358
0.0440624
0.0446915
0.0454773
0.0462848
0.0469284
0.0477887
0.0485095
0.0490948
0.0497177
0.0502194
0.0506277
0.0509727
0.0512498
0.0514217
0.0515561
0.0516489
0.0516152
0.0516632
0.00856016
0.0196413
0.0258769
0.0336402
0.0365371
0.0397092
0.0415867
0.0425656
0.0433103
0.0437544
0.0439706
0.0441334
0.0444132
0.0447863
0.0453521
0.045931
0.0465768
0.0473291
0.04797
0.0486009
0.0492218
0.0497313
0.0501685
0.0505373
0.0508401
0.0510377
0.0511973
0.0513069
0.0513015
0.0513546
0.0215942
0.0309903
0.0364431
0.0413974
0.042895
0.0450928
0.045318
0.0453158
0.0452024
0.0450041
0.0447076
0.0445324
0.0445011
0.0446226
0.0449712
0.0454254
0.0460526
0.0467204
0.0473602
0.04803
0.0486542
0.0491957
0.0496738
0.0500801
0.0504107
0.0506416
0.050828
0.0509565
0.0509776
0.051036
0.0342037
0.0412249
0.0484311
0.0508797
0.0512896
0.0511941
0.0496563
0.0483594
0.0473836
0.0465324
0.0457422
0.0451865
0.0448223
0.0447352
0.0448983
0.0452589
0.0457832
0.0463719
0.0469992
0.0476596
0.0482714
0.0488214
0.0493077
0.0497252
0.0500534
0.0502969
0.0504873
0.050622
0.0506533
0.0507119
0.0435456
0.0475919
0.0548211
0.0553338
0.0559958
0.0554035
0.053473
0.0512565
0.049508
0.0480435
0.0468856
0.0460049
0.0453748
0.0450403
0.0450429
0.0453164
0.045747
0.0462785
0.0468737
0.0474826
0.0480577
0.0485874
0.0490599
0.0494606
0.0497686
0.0500025
0.0501749
0.0503028
0.0503278
0.050382
0.0480777
0.0523975
0.0607403
0.0587513
0.0585027
0.056712
0.0544367
0.0520415
0.0499179
0.0482593
0.0469964
0.0460937
0.0454554
0.045157
0.0451258
0.0453215
0.0456773
0.0461713
0.0467366
0.0472986
0.0478471
0.048352
0.0488022
0.0491762
0.0494726
0.0496954
0.0498521
0.0499743
0.0499922
0.050043
0.0406102
0.0470002
0.0532159
0.0545296
0.0552519
0.054324
0.0524661
0.0503336
0.0486261
0.0471978
0.0461204
0.0452451
0.0447227
0.0444791
0.044524
0.044779
0.0451913
0.045722
0.0462807
0.0468455
0.0474106
0.0479277
0.0483923
0.0487692
0.0490886
0.0493184
0.0494817
0.0496119
0.0496364
0.0496893
0.0229325
0.0309896
0.0372423
0.0419568
0.0452031
0.0461769
0.0456413
0.0451528
0.0446289
0.0442519
0.0438155
0.0436098
0.0435225
0.0435184
0.0436745
0.043997
0.0444595
0.0450298
0.0456195
0.0462352
0.0468286
0.0473747
0.0478573
0.0482676
0.0486213
0.0488761
0.0490674
0.0492171
0.0492613
0.0493206
0.0110149
0.0149161
0.0196941
0.0268121
0.0331693
0.0368979
0.0390407
0.0403457
0.040971
0.0412815
0.0414692
0.0416649
0.0419008
0.0421868
0.0426289
0.043129
0.0437138
0.0443285
0.0449724
0.0456285
0.0462605
0.0468345
0.0473447
0.0477898
0.0481614
0.0484373
0.0486501
0.0488139
0.0488755
0.0489389
0.00937563
0.0117419
0.0140804
0.0181951
0.0232514
0.0278225
0.031601
0.034879
0.0370819
0.0387235
0.0396673
0.0404568
0.0408793
0.04145
0.0419887
0.0425844
0.0432332
0.0439287
0.0446193
0.0452882
0.045908
0.0464734
0.0469807
0.0474226
0.0477824
0.0480563
0.0482669
0.0484269
0.048489
0.0485496
0.00767126
0.0138648
0.0156438
0.0169001
0.0204785
0.0243784
0.0283121
0.0312724
0.0339669
0.0358415
0.0375198
0.0386754
0.0396426
0.0405891
0.0414089
0.0421998
0.0429781
0.0437117
0.044413
0.0450713
0.0456896
0.0462451
0.0467377
0.0471438
0.0474747
0.0477239
0.0479094
0.0480504
0.0480997
0.0481524
-0.0104088
0.00285258
0.00166107
0.00368636
0.0105401
0.0173113
0.0233593
0.0281297
0.0317492
0.0342087
0.0361748
0.0374279
0.0386869
0.0396957
0.0406594
0.0416539
0.0425759
0.0434109
0.044157
0.0448339
0.0454364
0.0459755
0.0464417
0.0468228
0.0471413
0.0473681
0.0475353
0.0476604
0.0476993
0.0477452
-0.0500556
-0.0281551
-0.0228045
-0.0119511
0.000936364
0.0111205
0.0186249
0.0240974
0.0281409
0.0315363
0.0338404
0.035804
0.0374341
0.038715
0.0399552
0.0410613
0.0420301
0.0428985
0.0436993
0.0444058
0.0450368
0.0455822
0.0460394
0.0464164
0.046726
0.0469486
0.0471138
0.047236
0.047278
0.0473223
-0.0993158
-0.0690348
-0.0241873
-0.00993393
0.00504798
0.0157793
0.0226071
0.0294544
0.0368462
0.0422665
0.0457407
0.0489872
-0.0353208
-0.0188959
-0.000698002
0.0106081
0.0178285
0.0261307
0.0344428
0.0395691
0.0431902
0.0471371
0.0501587
0.0520309
0.0537245
0.0551285
0.0559373
0.0565624
0.0570122
0.0572235
0.05716
0.0572313
0.0570773
0.0566672
0.0565251
0.0562134
0.0558403
0.0555441
0.0552238
0.0549155
0.0546644
0.0545548
-0.0432127
-0.0234683
-0.00510526
0.00515691
0.0125355
0.0228973
0.0318682
0.0365474
0.0408475
0.0454138
0.0483023
0.0503434
0.0523872
0.0538576
0.0547684
0.0555746
0.0561246
0.0563806
0.0564494
0.056671
0.0564238
0.0561738
0.0561177
0.0557935
0.0554975
0.0552389
0.0549449
0.0546738
0.0544308
0.0543409
-0.0568766
-0.0326375
-0.0111092
-0.00144033
0.00753824
0.0198328
0.0280846
0.0329045
0.0384223
0.0431634
0.0460093
0.0485568
0.050884
0.0523666
0.0535372
0.0545141
0.0551349
0.0554837
0.0557894
0.0560255
0.0557576
0.055749
0.0556907
0.0553869
0.0551777
0.0549368
0.0546779
0.054441
0.054197
0.0541292
-0.0734639
-0.0432001
-0.0223977
-0.0120298
0.00117666
0.0142992
0.021975
0.0283514
0.0350116
0.039638
0.0429723
0.0461652
0.0486744
0.0504008
0.0519495
0.053091
0.0538652
0.0544012
0.0549832
0.0551443
0.0550532
0.055271
0.0551803
0.0549756
0.0548513
0.0546281
0.0544205
0.0542141
0.0539645
0.0539189
)
;

boundaryField
{
    outlet
    {
        type            fixedValue;
        value           nonuniform 0();
    }
    upperWall
    {
        type            symmetryPlane;
    }
    lowerWall
    {
        type            symmetryPlane;
    }
    inlet
    {
        type            zeroGradient;
    }
    cylinder
    {
        type            zeroGradient;
    }
    frontAndBack
    {
        type            empty;
    }
    procBoundary2to1
    {
        type            processor;
        value           nonuniform List<scalar> 
63
(
-0.162596
-0.162596
-0.163228
-0.162409
-0.162409
-0.13993
-0.132045
-0.132045
-0.104096
-0.0932032
-0.0820682
-0.0820682
-0.0565151
-0.0463193
-0.036257
-0.036257
-0.848237
-0.720301
-0.720301
-0.593192
-0.511702
-0.469097
-0.449498
-0.449498
-0.393246
-0.393246
-0.275724
-0.275724
-0.144874
-0.144874
-0.131985
-0.131985
-0.0160806
-0.00422792
0.00883944
0.0199748
0.0276177
0.0337298
0.0397657
0.0448205
0.0482023
0.0509323
0.0518515
0.0518515
0.0536726
0.0550632
0.056289
0.0570507
0.0575355
0.0578709
0.058013
0.0578963
0.0577815
0.057659
0.0572041
0.0569267
0.056614
0.0561885
0.0558405
0.0554988
0.0551585
0.0548939
0.0547695
)
;
    }
    procBoundary2to3
    {
        type            processor;
        value           nonuniform List<scalar> 
43
(
-0.679174
-0.757631
-0.794302
-0.778336
-0.698909
-0.572204
-0.572204
-0.568506
-0.421101
-0.284137
-0.167375
-0.167375
-0.0430244
-0.0185573
-0.00259427
0.0108088
0.0182403
0.0235185
0.0265993
0.0293812
0.0315712
0.0338488
0.0356022
0.0372647
0.0387719
0.0400801
0.0412447
0.0422714
0.0431346
0.0438753
0.0445239
0.045085
0.0455573
0.0459484
0.0462646
0.0464956
0.0466647
0.0467898
0.0468385
0.0468827
-0.144367
-0.0430244
-0.0948785
)
;
    }
    procBoundary2to6
    {
        type            processor;
        value           nonuniform List<scalar> 
37
(
-1.08384
-1.12957
-1.15343
-1.1527
-1.12947
-1.089
-1.03845
-0.986563
-0.946192
-0.931403
-0.941714
-0.966439
-1.00632
-1.04009
-1.03364
-0.969767
-0.861365
-0.704102
-0.537951
-0.433775
-0.383739
-0.370919
-0.387898
-0.438704
-0.542642
-0.710364
-0.901947
-1.03005
-1.01036
-0.866784
-0.665293
-0.490025
-0.381654
-0.329038
-0.320836
-0.353897
-0.446314
)
;
    }
}


// ************************************************************************* //
