/*--------------------------------*- C++ -*----------------------------------*\
| =========                 |                                                 |
| \\      /  F ield         | OpenFOAM: The Open Source CFD Toolbox           |
|  \\    /   O peration     | Version:                                        |
|   \\  /    A nd           | Website:  www.openfoam.com                      |
|    \\/     M anipulation  |                                                 |
\*---------------------------------------------------------------------------*/
FoamFile
{
    version     2.0;
    format      ascii;
    class       volScalarField;
    location    "71";
    object      p;
}
// * * * * * * * * * * * * * * * * * * * * * * * * * * * * * * * * * * * * * //

dimensions      [0 2 -2 0 0 0 0];


internalField   nonuniform List<scalar> 
1250
(
31.8395
31.8662
31.8867
31.8967
31.8979
31.8904
31.8742
31.8494
31.8164
31.7756
31.7277
31.6735
31.6137
31.5491
31.4806
31.4091
31.3351
31.2593
31.1825
31.1049
31.027
30.9491
30.8716
30.7945
30.718
30.6422
30.5672
30.493
30.4195
30.3468
30.2749
30.2037
30.1331
30.0631
29.9937
29.9249
29.8565
29.7886
29.721
29.6538
29.5869
29.5204
29.454
29.3879
29.3221
29.2563
29.1908
29.1254
29.0601
28.995
28.9299
28.8649
28.8
28.7352
28.6704
28.6057
28.541
28.4764
28.4118
28.3472
28.2827
28.2182
28.1537
28.0892
28.0248
27.9603
27.8959
27.8315
27.7671
27.7027
27.6383
27.5739
27.5095
27.4451
27.3808
27.3164
27.252
27.1877
27.1233
27.059
26.9946
26.9302
26.8659
26.8015
26.7372
26.6728
26.6085
26.5441
26.4798
26.4154
26.3511
26.2867
26.2224
26.158
26.0937
26.0293
25.965
25.9006
25.8363
25.7719
25.7076
25.6433
25.5789
25.5146
25.4502
25.3859
25.3215
25.2572
25.1928
25.1285
25.0641
24.9998
24.9354
24.8711
24.8067
24.7424
24.678
24.6137
24.5493
24.485
24.4206
24.3563
24.2919
24.2276
24.1632
31.8525
31.8814
31.9068
31.9217
31.9271
31.9231
31.9098
31.887
31.8553
31.815
31.7671
31.7122
31.6513
31.5853
31.5151
31.4417
31.3657
31.2879
31.2089
31.1292
31.0494
30.9696
30.8902
30.8114
30.7334
30.6561
30.5797
30.5042
30.4296
30.3558
30.2829
30.2108
30.1395
30.0688
29.9988
29.9294
29.8605
29.7921
29.7241
29.6565
29.5893
29.5225
29.4559
29.3895
29.3234
29.2576
29.1918
29.1263
29.0609
28.9956
28.9305
28.8654
28.8004
28.7355
28.6707
28.6059
28.5412
28.4765
28.4119
28.3473
28.2828
28.2182
28.1537
28.0892
28.0248
27.9603
27.8959
27.8315
27.7671
27.7027
27.6383
27.5739
27.5095
27.4451
27.3807
27.3164
27.252
27.1877
27.1233
27.0589
26.9946
26.9302
26.8659
26.8015
26.7372
26.6728
26.6085
26.5441
26.4798
26.4154
26.3511
26.2867
26.2224
26.158
26.0937
26.0293
25.965
25.9006
25.8363
25.7719
25.7076
25.6433
25.5789
25.5146
25.4502
25.3859
25.3215
25.2572
25.1928
25.1285
25.0641
24.9998
24.9354
24.8711
24.8067
24.7424
24.678
24.6137
24.5493
24.485
24.4206
24.3563
24.2919
24.2276
24.1632
31.862
31.8903
31.9149
31.9287
31.9326
31.9271
31.912
31.8875
31.8541
31.8124
31.763
31.7069
31.6451
31.5783
31.5075
31.4337
31.3575
31.2797
31.2008
31.1213
31.0417
30.9623
30.8834
30.805
30.7274
30.6505
30.5746
30.4995
30.4253
30.352
30.2794
30.2077
30.1366
30.0662
29.9965
29.9273
29.8586
29.7904
29.7226
29.6552
29.5882
29.5214
29.4549
29.3887
29.3227
29.2569
29.1913
29.1258
29.0604
28.9952
28.9301
28.8651
28.8001
28.7353
28.6705
28.6057
28.541
28.4764
28.4118
28.3472
28.2827
28.2181
28.1537
28.0892
28.0247
27.9603
27.8958
27.8314
27.767
27.7026
27.6382
27.5739
27.5095
27.4451
27.3807
27.3164
27.252
27.1876
27.1233
27.0589
26.9946
26.9302
26.8659
26.8015
26.7372
26.6728
26.6085
26.5441
26.4798
26.4154
26.3511
26.2867
26.2224
26.158
26.0937
26.0293
25.965
25.9006
25.8363
25.7719
25.7076
25.6433
25.5789
25.5146
25.4502
25.3859
25.3215
25.2572
25.1928
25.1285
25.0641
24.9998
24.9354
24.8711
24.8067
24.7424
24.678
24.6137
24.5493
24.485
24.4206
24.3563
24.2919
24.2276
24.1632
31.8785
31.9077
31.933
31.9467
31.95
31.9434
31.9268
31.9006
31.8653
31.8215
31.7702
31.7122
31.6486
31.5802
31.5081
31.4331
31.356
31.2775
31.198
31.1182
31.0384
30.9589
30.8799
30.8016
30.724
30.6473
30.5716
30.4967
30.4227
30.3495
30.2772
30.2056
30.1347
30.0645
29.9949
29.9259
29.8574
29.7893
29.7216
29.6543
29.5873
29.5207
29.4543
29.3881
29.3222
29.2564
29.1908
29.1254
29.0601
28.9949
28.9298
28.8648
28.7999
28.7351
28.6703
28.6056
28.5409
28.4763
28.4117
28.3471
28.2826
28.2181
28.1536
28.0891
28.0247
27.9602
27.8958
27.8314
27.767
27.7026
27.6382
27.5738
27.5095
27.4451
27.3807
27.3164
27.252
27.1876
27.1233
27.0589
26.9946
26.9302
26.8659
26.8015
26.7372
26.6728
26.6085
26.5441
26.4798
26.4154
26.3511
26.2867
26.2224
26.158
26.0937
26.0293
25.965
25.9006
25.8363
25.7719
25.7076
25.6433
25.5789
25.5146
25.4502
25.3859
25.3215
25.2572
25.1928
25.1285
25.0641
24.9998
24.9354
24.8711
24.8067
24.7424
24.678
24.6137
24.5493
24.485
24.4206
24.3563
24.2919
24.2276
24.1632
31.902
31.9326
31.9589
31.9727
31.9752
31.9671
31.9485
31.9199
31.8819
31.8354
31.7813
31.7207
31.6546
31.5841
31.5102
31.4336
31.3552
31.2756
31.1954
31.1151
31.0349
30.9551
30.8761
30.7977
30.7203
30.6438
30.5682
30.4935
30.4197
30.3468
30.2746
30.2033
30.1326
30.0626
29.9932
29.9243
29.8559
29.788
29.7205
29.6533
29.5864
29.5199
29.4536
29.3875
29.3216
29.2559
29.1904
29.125
29.0597
28.9946
28.9295
28.8646
28.7997
28.7349
28.6701
28.6054
28.5407
28.4761
28.4115
28.347
28.2825
28.218
28.1535
28.089
28.0246
27.9602
27.8958
27.8313
27.767
27.7026
27.6382
27.5738
27.5094
27.4451
27.3807
27.3163
27.252
27.1876
27.1233
27.0589
26.9946
26.9302
26.8659
26.8015
26.7372
26.6728
26.6085
26.5441
26.4798
26.4154
26.3511
26.2867
26.2224
26.158
26.0937
26.0293
25.965
25.9006
25.8363
25.7719
25.7076
25.6433
25.5789
25.5146
25.4502
25.3859
25.3215
25.2572
25.1928
25.1285
25.0641
24.9998
24.9354
24.8711
24.8067
24.7424
24.678
24.6137
24.5493
24.485
24.4206
24.3563
24.2919
24.2276
24.1632
31.9329
31.9654
31.9928
32.0065
32.0079
31.9977
31.9763
31.9444
31.9029
31.8527
31.795
31.731
31.6618
31.5886
31.5123
31.4338
31.3539
31.2731
31.192
31.111
31.0305
30.9505
30.8713
30.7931
30.7157
30.6394
30.564
30.4896
30.4161
30.3434
30.2716
30.2005
30.1301
30.0603
29.9911
29.9225
29.8543
29.7865
29.7191
29.6521
29.5854
29.5189
29.4527
29.3867
29.3209
29.2553
29.1898
29.1245
29.0593
28.9942
28.9292
28.8643
28.7994
28.7346
28.6699
28.6052
28.5406
28.476
28.4114
28.3469
28.2824
28.2179
28.1534
28.089
28.0245
27.9601
27.8957
27.8313
27.7669
27.7025
27.6381
27.5738
27.5094
27.445
27.3807
27.3163
27.252
27.1876
27.1233
27.0589
26.9946
26.9302
26.8659
26.8015
26.7372
26.6728
26.6085
26.5441
26.4798
26.4154
26.3511
26.2867
26.2224
26.158
26.0937
26.0293
25.965
25.9006
25.8363
25.7719
25.7076
25.6433
25.5789
25.5146
25.4502
25.3859
25.3215
25.2572
25.1928
25.1285
25.0641
24.9998
24.9354
24.8711
24.8067
24.7424
24.678
24.6137
24.5493
24.485
24.4206
24.3563
24.2919
24.2276
24.1632
31.9726
32.0073
32.0362
32.0496
32.0491
32.036
32.0109
31.9746
31.9284
31.8735
31.8113
31.7431
31.6703
31.5938
31.5147
31.434
31.3523
31.2701
31.188
31.1064
31.0253
30.9452
30.8659
30.7877
30.7106
30.6345
30.5594
30.4853
30.4121
30.3397
30.2682
30.1974
30.1273
30.0578
29.9888
29.9204
29.8524
29.7848
29.7176
29.6508
29.5842
29.5179
29.4518
29.3859
29.3202
29.2547
29.1893
29.124
29.0589
28.9938
28.9288
28.864
28.7991
28.7344
28.6697
28.605
28.5404
28.4758
28.4113
28.3468
28.2823
28.2178
28.1533
28.0889
28.0245
27.9601
27.8957
27.8313
27.7669
27.7025
27.6381
27.5737
27.5094
27.445
27.3807
27.3163
27.252
27.1876
27.1232
27.0589
26.9945
26.9302
26.8659
26.8015
26.7372
26.6728
26.6085
26.5441
26.4798
26.4154
26.3511
26.2867
26.2224
26.158
26.0937
26.0293
25.965
25.9006
25.8363
25.7719
25.7076
25.6433
25.5789
25.5146
25.4502
25.3859
25.3215
25.2572
25.1928
25.1285
25.0641
24.9998
24.9354
24.8711
24.8067
24.7424
24.678
24.6137
24.5493
24.485
24.4206
24.3563
24.2919
24.2276
24.1632
32.0225
32.0601
32.0906
32.1032
32.1002
32.083
32.0528
32.0109
31.9587
31.898
31.8302
31.757
31.6797
31.5995
31.5173
31.434
31.3503
31.2667
31.1835
31.1011
31.0197
30.9393
30.86
30.782
30.705
30.6292
30.5544
30.4806
30.4078
30.3358
30.2646
30.1941
30.1243
30.0551
29.9864
29.9182
29.8505
29.7831
29.7161
29.6494
29.583
29.5168
29.4508
29.385
29.3194
29.254
29.1887
29.1235
29.0584
28.9934
28.9285
28.8636
28.7988
28.7341
28.6695
28.6048
28.5402
28.4757
28.4111
28.3466
28.2822
28.2177
28.1532
28.0888
28.0244
27.96
27.8956
27.8312
27.7668
27.7025
27.6381
27.5737
27.5094
27.445
27.3806
27.3163
27.2519
27.1876
27.1232
27.0589
26.9945
26.9302
26.8658
26.8015
26.7372
26.6728
26.6085
26.5441
26.4798
26.4154
26.3511
26.2867
26.2224
26.158
26.0937
26.0293
25.965
25.9006
25.8363
25.7719
25.7076
25.6433
25.5789
25.5146
25.4502
25.3859
25.3215
25.2572
25.1928
25.1285
25.0641
24.9998
24.9354
24.8711
24.8067
24.7424
24.678
24.6137
24.5493
24.485
24.4206
24.3563
24.2919
24.2276
24.1632
32.0851
32.1262
32.1583
32.1696
32.1626
32.1398
32.1028
32.0535
31.9938
31.9259
31.8515
31.7724
31.69
31.6055
31.5198
31.4338
31.3479
31.2628
31.1785
31.0954
31.0136
30.933
30.8538
30.7759
30.6992
30.6237
30.5492
30.4758
30.4034
30.3317
30.2609
30.1908
30.1213
30.0524
29.984
29.916
29.8485
29.7814
29.7145
29.648
29.5817
29.5157
29.4498
29.3842
29.3187
29.2533
29.1881
29.1229
29.0579
28.993
28.9281
28.8633
28.7986
28.7339
28.6692
28.6046
28.5401
28.4755
28.411
28.3465
28.2821
28.2176
28.1532
28.0887
28.0243
27.9599
27.8956
27.8312
27.7668
27.7024
27.6381
27.5737
27.5093
27.445
27.3806
27.3163
27.2519
27.1876
27.1232
27.0589
26.9945
26.9302
26.8658
26.8015
26.7372
26.6728
26.6085
26.5441
26.4798
26.4154
26.3511
26.2867
26.2224
26.158
26.0937
26.0293
25.965
25.9006
25.8363
25.7719
25.7076
25.6433
25.5789
25.5146
25.4502
25.3859
25.3215
25.2572
25.1928
25.1285
25.0641
24.9998
24.9354
24.8711
24.8067
24.7424
24.678
24.6137
24.5493
24.485
24.4206
24.3563
24.2919
24.2276
24.1632
32.1635
32.2089
32.2425
32.2511
32.2384
32.2077
32.1616
32.1028
32.0338
31.9571
31.8748
31.7889
31.7007
31.6114
31.522
31.4331
31.3451
31.2584
31.1731
31.0893
31.0071
30.9265
30.8474
30.7696
30.6932
30.6181
30.544
30.471
30.3989
30.3277
30.2572
30.1875
30.1183
30.0497
29.9816
29.9139
29.8466
29.7797
29.713
29.6466
29.5805
29.5146
29.4489
29.3833
29.3179
29.2526
29.1875
29.1224
29.0575
28.9926
28.9277
28.863
28.7983
28.7336
28.669
28.6044
28.5399
28.4754
28.4109
28.3464
28.282
28.2175
28.1531
28.0887
28.0243
27.9599
27.8955
27.8311
27.7668
27.7024
27.638
27.5737
27.5093
27.445
27.3806
27.3163
27.2519
27.1876
27.1232
27.0589
26.9945
26.9302
26.8658
26.8015
26.7371
26.6728
26.6085
26.5441
26.4798
26.4154
26.3511
26.2867
26.2224
26.158
26.0937
26.0293
25.965
25.9006
25.8363
25.7719
25.7076
25.6433
25.5789
25.5146
25.4502
25.3859
25.3215
25.2572
25.1928
25.1285
25.0641
24.9998
24.9354
24.8711
24.8067
24.7424
24.678
24.6137
24.5493
24.485
24.4206
24.3563
24.2919
24.2276
24.1632
)
;

boundaryField
{
    inlet
    {
        type            zeroGradient;
    }
    outlet
    {
        type            fixedValue;
        value           nonuniform 0();
    }
    wall
    {
        type            zeroGradient;
    }
    back
    {
        type            wedge;
    }
    front
    {
        type            wedge;
    }
    axis
    {
        type            empty;
    }
    procBoundary0to1
    {
        type            processor;
        value           nonuniform List<scalar> 10(24.0989 24.0989 24.0989 24.0989 24.0989 24.0989 24.0989 24.0989 24.0989 24.0989);
    }
    procBoundary0to4
    {
        type            processor;
        value           nonuniform List<scalar> 
125
(
32.2626
32.3128
32.3475
32.3513
32.3298
32.2881
32.2299
32.1587
32.0781
31.9909
31.8995
31.8058
31.7113
31.617
31.5237
31.4318
31.3417
31.2535
31.1672
31.0829
31.0005
30.9198
30.8408
30.7634
30.6873
30.6125
30.5389
30.4663
30.3946
30.3238
30.2537
30.1842
30.1154
30.0471
29.9793
29.9118
29.8448
29.778
29.7116
29.6454
29.5794
29.5136
29.448
29.3825
29.3172
29.252
29.1869
29.1219
29.057
28.9922
28.9274
28.8627
28.798
28.7334
28.6688
28.6043
28.5397
28.4752
28.4108
28.3463
28.2819
28.2174
28.153
28.0886
28.0242
27.9598
27.8955
27.8311
27.7667
27.7024
27.638
27.5737
27.5093
27.445
27.3806
27.3163
27.2519
27.1876
27.1232
27.0589
26.9945
26.9302
26.8658
26.8015
26.7371
26.6728
26.6085
26.5441
26.4798
26.4154
26.3511
26.2867
26.2224
26.158
26.0937
26.0293
25.965
25.9006
25.8363
25.7719
25.7076
25.6433
25.5789
25.5146
25.4502
25.3859
25.3215
25.2572
25.1928
25.1285
25.0641
24.9998
24.9354
24.8711
24.8067
24.7424
24.678
24.6137
24.5493
24.485
24.4206
24.3563
24.2919
24.2276
24.1632
)
;
    }
}


// ************************************************************************* //
