/*--------------------------------*- C++ -*----------------------------------*\
| =========                 |                                                 |
| \\      /  F ield         | OpenFOAM: The Open Source CFD Toolbox           |
|  \\    /   O peration     | Version:                                        |
|   \\  /    A nd           | Website:  www.openfoam.com                      |
|    \\/     M anipulation  |                                                 |
\*---------------------------------------------------------------------------*/
FoamFile
{
    version     2.0;
    format      ascii;
    class       surfaceScalarField;
    location    "71";
    object      phi;
}
// * * * * * * * * * * * * * * * * * * * * * * * * * * * * * * * * * * * * * //

dimensions      [0 3 -1 0 0 0 0];
oriented        oriented;


internalField   nonuniform List<scalar> 
2365
(
4.36596e-07
-1.68021e-09
4.41378e-07
-4.78194e-09
4.4917e-07
-7.79174e-09
4.59773e-07
-1.06032e-08
4.72893e-07
-1.31193e-08
4.88176e-07
-1.52834e-08
5.05235e-07
-1.70583e-08
5.23662e-07
-1.8427e-08
5.43055e-07
-1.93928e-08
5.6303e-07
-1.99751e-08
5.83236e-07
-2.0206e-08
6.03362e-07
-2.01257e-08
6.23142e-07
-1.97792e-08
6.42355e-07
-1.92131e-08
6.60829e-07
-1.84729e-08
6.7843e-07
-1.76014e-08
6.95068e-07
-1.66374e-08
7.10684e-07
-1.56149e-08
7.25247e-07
-1.4563e-08
7.38754e-07
-1.35056e-08
7.51216e-07
-1.24623e-08
7.62665e-07
-1.1448e-08
7.7314e-07
-1.04741e-08
7.8269e-07
-9.54868e-09
7.91367e-07
-8.67693e-09
7.9923e-07
-7.86195e-09
8.06336e-07
-7.10497e-09
8.12743e-07
-6.40581e-09
8.18508e-07
-5.76321e-09
8.23684e-07
-5.17513e-09
8.28324e-07
-4.63896e-09
8.32477e-07
-4.15171e-09
8.36189e-07
-3.71022e-09
8.39501e-07
-3.3112e-09
8.42454e-07
-2.9514e-09
8.45083e-07
-2.62759e-09
8.47421e-07
-2.33671e-09
8.49499e-07
-2.07579e-09
8.51342e-07
-1.84211e-09
8.52977e-07
-1.63305e-09
8.54425e-07
-1.44626e-09
8.55706e-07
-1.2795e-09
8.56838e-07
-1.13081e-09
8.57838e-07
-9.98292e-10
8.5872e-07
-8.80333e-10
8.59497e-07
-7.75357e-10
8.60181e-07
-6.82063e-10
8.60781e-07
-5.99149e-10
8.61308e-07
-5.2558e-10
8.6177e-07
-4.60279e-10
8.62174e-07
-4.02438e-10
8.62526e-07
-3.51168e-10
8.62833e-07
-3.05844e-10
8.631e-07
-2.65729e-10
8.63332e-07
-2.30351e-10
8.63532e-07
-1.99093e-10
8.63704e-07
-1.71608e-10
8.63853e-07
-1.47372e-10
8.6398e-07
-1.2614e-10
8.64088e-07
-1.07464e-10
8.6418e-07
-9.1178e-11
8.64258e-07
-7.68931e-11
8.64323e-07
-6.45089e-11
8.64377e-07
-5.3683e-11
8.64422e-07
-4.43675e-11
8.64459e-07
-3.62554e-11
8.64488e-07
-2.93418e-11
8.64512e-07
-2.33484e-11
8.64531e-07
-1.83047e-11
8.64545e-07
-1.39536e-11
8.64555e-07
-1.03537e-11
8.64563e-07
-7.26556e-12
8.64568e-07
-4.77049e-12
8.64571e-07
-2.64228e-12
8.64572e-07
-9.81745e-13
8.64571e-07
4.26048e-13
8.6457e-07
1.46508e-12
8.64568e-07
2.3422e-12
8.64565e-07
2.92798e-12
8.64562e-07
3.42202e-12
8.64558e-07
3.68474e-12
8.64554e-07
3.91083e-12
8.6455e-07
3.95154e-12
8.64546e-07
3.99682e-12
8.64542e-07
3.8913e-12
8.64538e-07
3.82213e-12
8.64535e-07
3.62766e-12
8.64531e-07
3.49201e-12
8.64528e-07
3.24942e-12
8.64525e-07
3.08256e-12
8.64522e-07
2.82149e-12
8.64519e-07
2.64697e-12
8.64517e-07
2.3867e-12
8.64515e-07
2.22089e-12
8.64513e-07
1.97454e-12
8.64511e-07
1.82668e-12
8.64509e-07
1.60121e-12
8.64508e-07
1.47713e-12
8.64506e-07
1.2767e-12
8.64505e-07
1.17815e-12
8.64504e-07
1.00351e-12
8.64503e-07
9.31264e-13
8.64503e-07
7.82589e-13
8.64502e-07
7.35293e-13
8.64501e-07
6.11055e-13
8.64501e-07
5.87783e-13
8.645e-07
4.87052e-13
8.645e-07
4.85633e-13
8.64499e-07
4.06414e-13
8.64499e-07
4.25588e-13
8.64499e-07
3.66686e-13
8.64498e-07
4.04228e-13
8.64498e-07
3.63521e-13
8.64497e-07
4.18111e-13
8.64497e-07
3.93774e-13
8.64497e-07
4.6279e-13
8.64496e-07
4.51614e-13
8.64496e-07
5.31365e-13
8.64495e-07
5.27623e-13
8.64495e-07
6.07491e-13
8.64494e-07
5.97797e-13
8.64493e-07
6.46481e-13
8.64493e-07
5.91267e-13
8.64492e-07
5.44464e-13
5.07657e-13
1.30947e-06
-6.40317e-09
1.32382e-06
-1.91333e-08
1.3474e-06
-3.13734e-08
1.37952e-06
-4.27189e-08
1.41924e-06
-5.28391e-08
1.46546e-06
-6.15006e-08
1.51696e-06
-6.85605e-08
1.57249e-06
-7.39628e-08
1.63083e-06
-7.77298e-08
1.6908e-06
-7.99492e-08
1.75136e-06
-8.07572e-08
1.81155e-06
-8.03223e-08
1.8706e-06
-7.88301e-08
1.92786e-06
-7.6471e-08
1.98282e-06
-7.343e-08
2.03509e-06
-6.98796e-08
2.08443e-06
-6.59751e-08
2.13067e-06
-6.18521e-08
2.17373e-06
-5.76254e-08
2.21361e-06
-5.33897e-08
2.25037e-06
-4.92207e-08
2.2841e-06
-4.51769e-08
2.31493e-06
-4.13018e-08
2.343e-06
-3.76258e-08
2.36849e-06
-3.41687e-08
2.39157e-06
-3.09413e-08
2.41241e-06
-2.79475e-08
2.43119e-06
-2.51856e-08
2.44808e-06
-2.265e-08
2.46323e-06
-2.03317e-08
2.47681e-06
-1.82199e-08
2.48896e-06
-1.63025e-08
2.49982e-06
-1.45664e-08
2.5095e-06
-1.29984e-08
2.51814e-06
-1.15854e-08
2.52582e-06
-1.03145e-08
2.53266e-06
-9.17333e-09
2.53873e-06
-8.1503e-09
2.54412e-06
-7.23435e-09
2.5489e-06
-6.4153e-09
2.55314e-06
-5.68363e-09
2.55689e-06
-5.03071e-09
2.5602e-06
-4.44851e-09
2.56313e-06
-3.92984e-09
2.56572e-06
-3.46805e-09
2.568e-06
-3.05725e-09
2.57001e-06
-2.69198e-09
2.57178e-06
-2.36748e-09
2.57333e-06
-2.0793e-09
2.57469e-06
-1.82363e-09
2.57588e-06
-1.59686e-09
2.57693e-06
-1.39598e-09
2.57784e-06
-1.21804e-09
2.57863e-06
-1.06069e-09
2.57932e-06
-9.21532e-10
2.57992e-06
-7.98722e-10
2.58044e-06
-6.90328e-10
2.58088e-06
-5.94909e-10
2.58127e-06
-5.1089e-10
2.5816e-06
-4.37161e-10
2.58188e-06
-3.72428e-10
2.58212e-06
-3.15848e-10
2.58232e-06
-2.6635e-10
2.58249e-06
-2.23298e-10
2.58263e-06
-1.85798e-10
2.58274e-06
-1.53385e-10
2.58284e-06
-1.25303e-10
2.58292e-06
-1.0122e-10
2.58298e-06
-8.04909e-11
2.58303e-06
-6.28938e-11
2.58306e-06
-4.78702e-11
2.58309e-06
-3.52847e-11
2.58311e-06
-2.46487e-11
2.58312e-06
-1.58987e-11
2.58313e-06
-8.60275e-12
2.58313e-06
-2.75311e-12
2.58313e-06
2.03681e-12
2.58313e-06
5.72681e-12
2.58312e-06
8.66648e-12
2.58311e-06
1.07791e-11
2.58311e-06
1.23846e-11
2.5831e-06
1.3374e-11
2.58309e-06
1.4043e-11
2.58308e-06
1.42589e-11
2.58307e-06
1.4298e-11
2.58305e-06
1.40061e-11
2.58304e-06
1.36439e-11
2.58304e-06
1.30421e-11
2.58303e-06
1.24495e-11
2.58302e-06
1.16822e-11
2.58301e-06
1.09794e-11
2.583e-06
1.01485e-11
2.58299e-06
9.42132e-12
2.58299e-06
8.59619e-12
2.58298e-06
7.8992e-12
2.58298e-06
7.12419e-12
2.58297e-06
6.49332e-12
2.58297e-06
5.79476e-12
2.58296e-06
5.24766e-12
2.58296e-06
4.63869e-12
2.58296e-06
4.18515e-12
2.58295e-06
3.67053e-12
2.58295e-06
3.31066e-12
2.58295e-06
2.88962e-12
2.58295e-06
2.62232e-12
2.58295e-06
2.29154e-12
2.58294e-06
2.11102e-12
2.58294e-06
1.86584e-12
2.58294e-06
1.76852e-12
2.58294e-06
1.60441e-12
2.58294e-06
1.58452e-12
2.58294e-06
1.49731e-12
2.58294e-06
1.55202e-12
2.58294e-06
1.53721e-12
2.58294e-06
1.66075e-12
2.58293e-06
1.71234e-12
2.58293e-06
1.89656e-12
2.58293e-06
1.99971e-12
2.58293e-06
2.21985e-12
2.58293e-06
2.34234e-12
2.58293e-06
2.53468e-12
2.58292e-06
2.57368e-12
2.58292e-06
2.5046e-12
2.58292e-06
2.33714e-12
2.06585e-12
2.18282e-06
-1.46407e-08
2.20739e-06
-4.37045e-08
2.2476e-06
-7.1586e-08
2.3022e-06
-9.73185e-08
2.36951e-06
-1.20149e-07
2.44756e-06
-1.39551e-07
2.53422e-06
-1.55218e-07
2.62731e-06
-1.67051e-07
2.72471e-06
-1.75132e-07
2.82445e-06
-1.79691e-07
2.92476e-06
-1.81064e-07
3.0241e-06
-1.79658e-07
3.12118e-06
-1.75909e-07
3.21496e-06
-1.7026e-07
3.30467e-06
-1.63135e-07
3.38972e-06
-1.54927e-07
3.46973e-06
-1.45983e-07
3.54448e-06
-1.36606e-07
3.61391e-06
-1.27049e-07
3.67804e-06
-1.17518e-07
3.73699e-06
-1.08175e-07
3.79096e-06
-9.91463e-08
3.84018e-06
-9.05217e-08
3.88492e-06
-8.23637e-08
3.92547e-06
-7.47111e-08
3.96211e-06
-6.75836e-08
3.99515e-06
-6.09859e-08
4.02488e-06
-5.49109e-08
4.05157e-06
-4.9343e-08
4.0755e-06
-4.42606e-08
4.09692e-06
-3.96376e-08
4.11607e-06
-3.54455e-08
4.13316e-06
-3.16545e-08
4.14839e-06
-2.82343e-08
4.16197e-06
-2.51553e-08
4.17404e-06
-2.23885e-08
4.18478e-06
-1.99063e-08
4.19431e-06
-1.76826e-08
4.20277e-06
-1.56932e-08
4.21027e-06
-1.39153e-08
4.21692e-06
-1.2328e-08
4.2228e-06
-1.09122e-08
4.22801e-06
-9.65045e-09
4.23261e-06
-8.52673e-09
4.23667e-06
-7.52664e-09
4.24025e-06
-6.63716e-09
4.24341e-06
-5.84652e-09
4.24618e-06
-5.14415e-09
4.24863e-06
-4.52056e-09
4.25077e-06
-3.96724e-09
4.25265e-06
-3.47656e-09
4.2543e-06
-3.04173e-09
4.25574e-06
-2.65663e-09
4.257e-06
-2.31586e-09
4.25809e-06
-2.01454e-09
4.25904e-06
-1.74836e-09
4.25987e-06
-1.51346e-09
4.26058e-06
-1.30639e-09
4.26119e-06
-1.12409e-09
4.26172e-06
-9.63826e-10
4.26217e-06
-8.23148e-10
4.26256e-06
-6.99883e-10
4.26288e-06
-5.92085e-10
4.26316e-06
-4.98022e-10
4.26339e-06
-4.16142e-10
4.26358e-06
-3.45063e-10
4.26374e-06
-2.83545e-10
4.26387e-06
-2.30486e-10
4.26398e-06
-1.84896e-10
4.26406e-06
-1.45893e-10
4.26412e-06
-1.12685e-10
4.26417e-06
-8.45693e-11
4.26421e-06
-6.09144e-11
4.26424e-06
-4.11596e-11
4.26425e-06
-2.48008e-11
4.26426e-06
-1.13929e-11
4.26426e-06
-5.36679e-13
4.26426e-06
8.11975e-12
4.26425e-06
1.48924e-11
4.26424e-06
2.00569e-11
4.26423e-06
2.386e-11
4.26422e-06
2.6516e-11
4.26421e-06
2.82168e-11
4.26419e-06
2.91267e-11
4.26418e-06
2.93918e-11
4.26416e-06
2.91362e-11
4.26415e-06
2.84706e-11
4.26413e-06
2.74866e-11
4.26412e-06
2.62651e-11
4.2641e-06
2.48722e-11
4.26409e-06
2.33669e-11
4.26408e-06
2.17949e-11
4.26407e-06
2.01966e-11
4.26406e-06
1.86024e-11
4.26405e-06
1.70402e-11
4.26404e-06
1.55281e-11
4.26403e-06
1.40831e-11
4.26403e-06
1.27153e-11
4.26402e-06
1.14351e-11
4.26402e-06
1.02463e-11
4.26401e-06
9.15361e-12
4.26401e-06
8.15722e-12
4.264e-06
7.25946e-12
4.264e-06
6.45803e-12
4.264e-06
5.75258e-12
4.26399e-06
5.14019e-12
4.26399e-06
4.62062e-12
4.26399e-06
4.19057e-12
4.26399e-06
3.849e-12
4.26398e-06
3.59358e-12
4.26398e-06
3.42443e-12
4.26398e-06
3.33912e-12
4.26398e-06
3.33714e-12
4.26398e-06
3.41645e-12
4.26397e-06
3.57603e-12
4.26397e-06
3.81009e-12
4.26397e-06
4.11246e-12
4.26397e-06
4.47363e-12
4.26397e-06
4.87577e-12
4.26396e-06
5.29411e-12
4.26396e-06
5.67558e-12
4.26396e-06
5.93477e-12
4.26395e-06
5.93622e-12
4.26395e-06
5.63095e-12
5.12848e-12
3.05647e-06
-2.66982e-08
3.09227e-06
-7.95044e-08
3.15058e-06
-1.29901e-07
3.22938e-06
-1.76117e-07
3.32602e-06
-2.1679e-07
3.43747e-06
-2.50995e-07
3.56048e-06
-2.78232e-07
3.69183e-06
-2.98397e-07
3.82842e-06
-3.11721e-07
3.96742e-06
-3.18697e-07
4.10636e-06
-3.20002e-07
4.24312e-06
-3.16419e-07
4.37599e-06
-3.08778e-07
4.50363e-06
-2.97896e-07
4.62504e-06
-2.84547e-07
4.73955e-06
-2.69433e-07
4.84673e-06
-2.53171e-07
4.94641e-06
-2.36285e-07
5.03857e-06
-2.1921e-07
5.12335e-06
-2.02295e-07
5.20099e-06
-1.8581e-07
5.2718e-06
-1.69958e-07
5.33616e-06
-1.54883e-07
5.39447e-06
-1.4068e-07
5.44717e-06
-1.27405e-07
5.49467e-06
-1.1508e-07
5.53738e-06
-1.03704e-07
5.57573e-06
-9.32574e-08
5.61009e-06
-8.37057e-08
5.64084e-06
-7.50057e-08
5.66831e-06
-6.71079e-08
5.69282e-06
-5.99592e-08
5.71468e-06
-5.35051e-08
5.73413e-06
-4.76912e-08
5.75144e-06
-4.24644e-08
5.76683e-06
-3.77736e-08
5.78049e-06
-3.35701e-08
5.79262e-06
-2.98084e-08
5.80337e-06
-2.64461e-08
5.8129e-06
-2.34439e-08
5.82134e-06
-2.07658e-08
5.82881e-06
-1.83787e-08
5.83541e-06
-1.62525e-08
5.84125e-06
-1.43601e-08
5.8464e-06
-1.26767e-08
5.85094e-06
-1.11801e-08
5.85494e-06
-9.85028e-09
5.85847e-06
-8.6693e-09
5.86157e-06
-7.62102e-09
5.8643e-06
-6.69103e-09
5.86669e-06
-5.86641e-09
5.86878e-06
-5.13567e-09
5.87061e-06
-4.4885e-09
5.87221e-06
-3.91574e-09
5.87361e-06
-3.40922e-09
5.87482e-06
-2.96166e-09
5.87588e-06
-2.56655e-09
5.87679e-06
-2.21813e-09
5.87758e-06
-1.91122e-09
5.87825e-06
-1.64125e-09
5.87884e-06
-1.40411e-09
5.87933e-06
-1.19616e-09
5.87975e-06
-1.01414e-09
5.88011e-06
-8.55155e-10
5.88041e-06
-7.16598e-10
5.88066e-06
-5.96166e-10
5.88087e-06
-4.91782e-10
5.88104e-06
-4.01609e-10
5.88118e-06
-3.23986e-10
5.88129e-06
-2.57446e-10
5.88138e-06
-2.00662e-10
5.88145e-06
-1.52465e-10
5.8815e-06
-1.11792e-10
5.88154e-06
-7.7713e-11
5.88156e-06
-4.9378e-11
5.88158e-06
-2.60515e-11
5.88158e-06
-7.05407e-12
5.88158e-06
8.19423e-12
5.88158e-06
2.02321e-11
5.88157e-06
2.95131e-11
5.88156e-06
3.64627e-11
5.88154e-06
4.14322e-11
5.88152e-06
4.47544e-11
5.88151e-06
4.6697e-11
5.88149e-06
4.75184e-11
5.88147e-06
4.74194e-11
5.88145e-06
4.65975e-11
5.88143e-06
4.51988e-11
5.88142e-06
4.33734e-11
5.8814e-06
4.12245e-11
5.88139e-06
3.88632e-11
5.88137e-06
3.63585e-11
5.88136e-06
3.37924e-11
5.88134e-06
3.12077e-11
5.88133e-06
2.86629e-11
5.88132e-06
2.61804e-11
5.88131e-06
2.38024e-11
5.8813e-06
2.15368e-11
5.8813e-06
1.94125e-11
5.88129e-06
1.74269e-11
5.88128e-06
1.5601e-11
5.88128e-06
1.39256e-11
5.88127e-06
1.24153e-11
5.88127e-06
1.10567e-11
5.88126e-06
9.86195e-12
5.88126e-06
8.81599e-12
5.88126e-06
7.92934e-12
5.88125e-06
7.1865e-12
5.88125e-06
6.59911e-12
5.88125e-06
6.15271e-12
5.88125e-06
5.85886e-12
5.88124e-06
5.70379e-12
5.88124e-06
5.70059e-12
5.88124e-06
5.8345e-12
5.88124e-06
6.11433e-12
5.88123e-06
6.52246e-12
5.88123e-06
7.0632e-12
5.88123e-06
7.70927e-12
5.88122e-06
8.44876e-12
5.88122e-06
9.23143e-12
5.88122e-06
9.98938e-12
5.88121e-06
1.05954e-11
5.88121e-06
1.08173e-11
5.8812e-06
1.05033e-11
9.48288e-12
3.93066e-06
-4.31113e-08
3.97913e-06
-1.27981e-07
4.05767e-06
-2.08434e-07
4.16311e-06
-2.81559e-07
4.2915e-06
-3.45187e-07
4.43843e-06
-3.97918e-07
4.59928e-06
-4.39089e-07
4.76959e-06
-4.687e-07
4.94517e-06
-4.87301e-07
5.12231e-06
-4.95843e-07
5.29786e-06
-4.95545e-07
5.4692e-06
-4.87762e-07
5.6343e-06
-4.73882e-07
5.79165e-06
-4.55243e-07
5.94019e-06
-4.33085e-07
6.07926e-06
-4.08507e-07
6.20855e-06
-3.82459e-07
6.328e-06
-3.55733e-07
6.43776e-06
-3.28971e-07
6.53814e-06
-3.02678e-07
6.62957e-06
-2.77239e-07
6.71254e-06
-2.5293e-07
6.7876e-06
-2.29943e-07
6.85532e-06
-2.08393e-07
6.91625e-06
-1.88341e-07
6.97097e-06
-1.698e-07
7.02002e-06
-1.52749e-07
7.0639e-06
-1.37142e-07
7.10311e-06
-1.22915e-07
7.1381e-06
-1.09993e-07
7.16928e-06
-9.82909e-08
7.19704e-06
-8.7723e-08
7.22174e-06
-7.82018e-08
7.24369e-06
-6.96411e-08
7.26318e-06
-6.19581e-08
7.28048e-06
-5.50738e-08
7.29583e-06
-4.89136e-08
7.30943e-06
-4.3408e-08
7.32147e-06
-3.84928e-08
7.33214e-06
-3.41088e-08
7.34158e-06
-3.02018e-08
7.34992e-06
-2.67225e-08
7.35729e-06
-2.3626e-08
7.36381e-06
-2.08719e-08
7.36955e-06
-1.84235e-08
7.37462e-06
-1.62481e-08
7.37909e-06
-1.43161e-08
7.38302e-06
-1.2601e-08
7.38648e-06
-1.10791e-08
7.38952e-06
-9.72943e-09
7.39218e-06
-8.53291e-09
7.39452e-06
-7.47276e-09
7.39656e-06
-6.53396e-09
7.39835e-06
-5.70313e-09
7.39991e-06
-4.96835e-09
7.40127e-06
-4.31903e-09
7.40245e-06
-3.74571e-09
7.40347e-06
-3.24e-09
7.40435e-06
-2.79442e-09
7.40511e-06
-2.40231e-09
7.40577e-06
-2.05772e-09
7.40633e-06
-1.75539e-09
7.4068e-06
-1.49058e-09
7.40721e-06
-1.25911e-09
7.40755e-06
-1.05723e-09
7.40783e-06
-8.81586e-10
7.40807e-06
-7.29193e-10
7.40827e-06
-5.9739e-10
7.40843e-06
-4.83784e-10
7.40856e-06
-3.86256e-10
7.40866e-06
-3.02892e-10
7.40874e-06
-2.32002e-10
7.4088e-06
-1.72053e-10
7.40884e-06
-1.21702e-10
7.40887e-06
-7.97236e-11
7.40889e-06
-4.50168e-11
7.4089e-06
-1.67363e-11
7.4089e-06
6.15753e-12
7.4089e-06
2.4309e-11
7.40889e-06
3.84145e-11
7.40888e-06
4.90847e-11
7.40886e-06
5.68349e-11
7.40884e-06
6.21759e-11
7.40883e-06
6.53741e-11
7.40881e-06
6.69953e-11
7.40879e-06
6.72074e-11
7.40877e-06
6.63269e-11
7.40875e-06
6.46076e-11
7.40873e-06
6.21327e-11
7.40871e-06
5.92557e-11
7.40869e-06
5.60045e-11
7.40868e-06
5.25543e-11
7.40866e-06
4.88892e-11
7.40865e-06
4.5275e-11
7.40864e-06
4.16629e-11
7.40862e-06
3.81605e-11
7.40861e-06
3.46931e-11
7.4086e-06
3.14758e-11
7.40859e-06
2.84162e-11
7.40859e-06
2.55685e-11
7.40858e-06
2.28921e-11
7.40857e-06
2.04786e-11
7.40857e-06
1.82797e-11
7.40856e-06
1.63329e-11
7.40856e-06
1.45199e-11
7.40855e-06
1.30209e-11
7.40855e-06
1.17162e-11
7.40854e-06
1.0657e-11
7.40854e-06
9.7235e-12
7.40854e-06
9.09706e-12
7.40854e-06
8.66001e-12
7.40853e-06
8.46598e-12
7.40853e-06
8.39644e-12
7.40853e-06
8.63214e-12
7.40852e-06
9.05304e-12
7.40852e-06
9.68944e-12
7.40852e-06
1.04786e-11
7.40851e-06
1.14891e-11
7.40851e-06
1.26391e-11
7.40851e-06
1.38809e-11
7.4085e-06
1.51275e-11
7.4085e-06
1.61797e-11
7.40849e-06
1.67616e-11
7.40848e-06
1.63796e-11
1.47543e-11
4.80562e-06
-6.46555e-08
4.86881e-06
-1.91171e-07
4.97044e-06
-3.10064e-07
5.10575e-06
-4.16867e-07
5.26896e-06
-5.08398e-07
5.45381e-06
-5.82766e-07
5.654e-06
-6.39278e-07
5.86357e-06
-6.78276e-07
6.07719e-06
-7.00912e-07
6.29024e-06
-7.08902e-07
6.49899e-06
-7.0429e-07
6.70048e-06
-6.89252e-07
6.89254e-06
-6.65939e-07
7.07366e-06
-6.36369e-07
7.24294e-06
-6.02358e-07
7.39991e-06
-5.6548e-07
7.54451e-06
-5.2706e-07
7.67695e-06
-4.88178e-07
7.79767e-06
-4.49688e-07
7.90724e-06
-4.12241e-07
8.00631e-06
-3.76316e-07
8.09563e-06
-3.42244e-07
8.17592e-06
-3.10237e-07
8.24794e-06
-2.80409e-07
8.3124e-06
-2.52802e-07
8.37e-06
-2.27396e-07
8.42138e-06
-2.04135e-07
8.46717e-06
-1.82927e-07
8.50791e-06
-1.63663e-07
8.54414e-06
-1.46221e-07
8.57633e-06
-1.30473e-07
8.60489e-06
-1.1629e-07
8.63023e-06
-1.03542e-07
8.6527e-06
-9.2106e-08
8.6726e-06
-8.18632e-08
8.69023e-06
-7.2702e-08
8.70584e-06
-6.45182e-08
8.71964e-06
-5.72153e-08
8.73186e-06
-5.07047e-08
8.74265e-06
-4.4905e-08
8.75219e-06
-3.97423e-08
8.76062e-06
-3.51495e-08
8.76806e-06
-3.10659e-08
8.77463e-06
-2.74369e-08
8.78042e-06
-2.42133e-08
8.78552e-06
-2.1351e-08
8.79001e-06
-1.88105e-08
8.79397e-06
-1.65564e-08
8.79745e-06
-1.45572e-08
8.8005e-06
-1.27848e-08
8.80318e-06
-1.12141e-08
8.80554e-06
-9.82281e-09
8.80759e-06
-8.59097e-09
8.80939e-06
-7.50095e-09
8.81096e-06
-6.53702e-09
8.81233e-06
-5.6852e-09
8.81351e-06
-4.93306e-09
8.81454e-06
-4.26954e-09
8.81543e-06
-3.68481e-09
8.8162e-06
-3.17013e-09
8.81686e-06
-2.71769e-09
8.81743e-06
-2.32058e-09
8.81791e-06
-1.97262e-09
8.81832e-06
-1.66832e-09
8.81866e-06
-1.40275e-09
8.81895e-06
-1.17155e-09
8.8192e-06
-9.70803e-10
8.8194e-06
-7.97038e-10
8.81956e-06
-6.47125e-10
8.81969e-06
-5.18293e-10
8.8198e-06
-4.08044e-10
8.81988e-06
-3.14166e-10
8.81994e-06
-2.34664e-10
8.81999e-06
-1.67774e-10
8.82002e-06
-1.11902e-10
8.82004e-06
-6.56451e-11
8.82005e-06
-2.77338e-11
8.82005e-06
2.94355e-12
8.82005e-06
2.73949e-11
8.82004e-06
4.64948e-11
8.82003e-06
6.10383e-11
8.82002e-06
7.1708e-11
8.82e-06
7.91265e-11
8.81998e-06
8.38199e-11
8.81996e-06
8.62699e-11
8.81994e-06
8.68769e-11
8.81992e-06
8.6009e-11
8.8199e-06
8.39642e-11
8.81988e-06
8.10191e-11
8.81987e-06
7.73903e-11
8.81985e-06
7.32823e-11
8.81983e-06
6.88468e-11
8.81982e-06
6.42306e-11
8.8198e-06
5.95356e-11
8.81979e-06
5.48647e-11
8.81978e-06
5.02809e-11
8.81977e-06
4.58537e-11
8.81976e-06
4.16175e-11
8.81975e-06
3.7618e-11
8.81974e-06
3.38686e-11
8.81973e-06
3.03976e-11
8.81973e-06
2.7205e-11
8.81972e-06
2.43084e-11
8.81971e-06
2.1699e-11
8.81971e-06
1.93879e-11
8.8197e-06
1.73631e-11
8.8197e-06
1.5634e-11
8.8197e-06
1.41878e-11
8.81969e-06
1.30341e-11
8.81969e-06
1.21621e-11
8.81969e-06
1.15839e-11
8.81969e-06
1.12891e-11
8.81968e-06
1.12886e-11
8.81968e-06
1.15712e-11
8.81968e-06
1.21442e-11
8.81967e-06
1.29904e-11
8.81967e-06
1.41094e-11
8.81967e-06
1.54743e-11
8.81966e-06
1.70608e-11
8.81966e-06
1.87922e-11
8.81965e-06
2.05522e-11
8.81964e-06
2.21098e-11
8.81964e-06
2.29915e-11
8.81963e-06
2.26129e-11
2.01933e-11
5.68166e-06
-9.24061e-08
5.76232e-06
-2.71834e-07
5.89083e-06
-4.38574e-07
6.06005e-06
-5.86087e-07
6.26166e-06
-7.10007e-07
6.48696e-06
-8.08066e-07
6.72754e-06
-8.79855e-07
6.97575e-06
-9.26488e-07
7.22503e-06
-9.50188e-07
7.47e-06
-9.53875e-07
7.70651e-06
-9.40805e-07
7.93154e-06
-9.14281e-07
8.14305e-06
-8.77447e-07
8.33983e-06
-8.33153e-07
8.52136e-06
-7.83883e-07
8.68761e-06
-7.31731e-07
8.83895e-06
-6.78403e-07
8.97603e-06
-6.25251e-07
9.09964e-06
-5.73304e-07
9.21072e-06
-5.23321e-07
9.31023e-06
-4.75829e-07
9.39916e-06
-4.31168e-07
9.47845e-06
-3.89528e-07
9.54903e-06
-3.50986e-07
9.61175e-06
-3.15528e-07
9.66743e-06
-2.83077e-07
9.71681e-06
-2.53509e-07
9.76055e-06
-2.26672e-07
9.79928e-06
-2.02393e-07
9.83355e-06
-1.80491e-07
9.86386e-06
-1.60782e-07
9.89066e-06
-1.43085e-07
9.91434e-06
-1.27223e-07
9.93526e-06
-1.13028e-07
9.95374e-06
-1.00344e-07
9.97006e-06
-8.90221e-08
9.98447e-06
-7.89277e-08
9.99719e-06
-6.99353e-08
1.00084e-05
-6.19309e-08
1.00183e-05
-5.48108e-08
1.00271e-05
-4.84809e-08
1.00348e-05
-4.28564e-08
1.00416e-05
-3.78608e-08
1.00476e-05
-3.34255e-08
1.00528e-05
-2.94891e-08
1.00575e-05
-2.59966e-08
1.00616e-05
-2.28989e-08
1.00652e-05
-2.01521e-08
1.00683e-05
-1.77172e-08
1.00711e-05
-1.55595e-08
1.00735e-05
-1.36482e-08
1.00757e-05
-1.19556e-08
1.00775e-05
-1.04575e-08
1.00792e-05
-9.13216e-09
1.00806e-05
-7.9603e-09
1.00818e-05
-6.92483e-09
1.00829e-05
-6.01059e-09
1.00838e-05
-5.20399e-09
1.00846e-05
-4.49319e-09
1.00853e-05
-3.86744e-09
1.00859e-05
-3.31729e-09
1.00865e-05
-2.8343e-09
1.00869e-05
-2.41097e-09
1.00873e-05
-2.04062e-09
1.00876e-05
-1.7173e-09
1.00878e-05
-1.43569e-09
1.00881e-05
-1.19109e-09
1.00882e-05
-9.79162e-10
1.00884e-05
-7.9628e-10
1.00885e-05
-6.38974e-10
1.00886e-05
-5.04283e-10
1.00887e-05
-3.89419e-10
1.00887e-05
-2.92136e-10
1.00888e-05
-2.10148e-10
1.00888e-05
-1.41522e-10
1.00888e-05
-8.47079e-11
1.00889e-05
-3.80379e-11
1.00889e-05
-1.85827e-13
1.00889e-05
3.00509e-11
1.00888e-05
5.37548e-11
1.00888e-05
7.18702e-11
1.00888e-05
8.52483e-11
1.00888e-05
9.46037e-11
1.00888e-05
1.00641e-10
1.00888e-05
1.03969e-10
1.00888e-05
1.04925e-10
1.00887e-05
1.04087e-10
1.00887e-05
1.01799e-10
1.00887e-05
9.83558e-11
1.00887e-05
9.413e-11
1.00887e-05
8.92231e-11
1.00887e-05
8.39284e-11
1.00886e-05
7.83839e-11
1.00886e-05
7.27154e-11
1.00886e-05
6.71147e-11
1.00886e-05
6.15534e-11
1.00886e-05
5.61816e-11
1.00886e-05
5.10431e-11
1.00886e-05
4.61738e-11
1.00886e-05
4.1613e-11
1.00886e-05
3.73747e-11
1.00886e-05
3.34819e-11
1.00885e-05
2.99358e-11
1.00885e-05
2.67485e-11
1.00885e-05
2.39129e-11
1.00885e-05
2.14371e-11
1.00885e-05
1.93123e-11
1.00885e-05
1.75453e-11
1.00885e-05
1.61275e-11
1.00885e-05
1.50682e-11
1.00885e-05
1.4361e-11
1.00885e-05
1.40151e-11
1.00885e-05
1.40236e-11
1.00885e-05
1.43928e-11
1.00885e-05
1.51112e-11
1.00885e-05
1.61786e-11
1.00885e-05
1.75772e-11
1.00885e-05
1.92897e-11
1.00885e-05
2.1272e-11
1.00885e-05
2.34695e-11
1.00885e-05
2.57055e-11
1.00885e-05
2.76745e-11
1.00885e-05
2.89072e-11
1.00885e-05
2.8319e-11
2.52739e-11
6.55918e-06
-1.27847e-07
6.661e-06
-3.73653e-07
6.82123e-06
-5.98803e-07
7.02922e-06
-7.94076e-07
7.27309e-06
-9.53874e-07
7.54094e-06
-1.07592e-06
7.82181e-06
-1.16073e-06
8.10623e-06
-1.2109e-06
8.38648e-06
-1.23044e-06
8.65671e-06
-1.2241e-06
8.91273e-06
-1.19682e-06
9.15184e-06
-1.15339e-06
9.37255e-06
-1.09815e-06
9.57431e-06
-1.03492e-06
9.7573e-06
-9.66871e-07
9.92218e-06
-8.96613e-07
1.007e-05
-8.26181e-07
1.02018e-05
-7.57122e-07
1.03191e-05
-6.90568e-07
1.04231e-05
-6.27298e-07
1.05151e-05
-5.67814e-07
1.05963e-05
-5.12398e-07
1.06679e-05
-4.61161e-07
1.0731e-05
-4.14087e-07
1.07866e-05
-3.71068e-07
1.08354e-05
-3.31933e-07
1.08784e-05
-2.96469e-07
1.09161e-05
-2.64437e-07
1.09493e-05
-2.35587e-07
1.09785e-05
-2.09666e-07
1.10042e-05
-1.86426e-07
1.10267e-05
-1.65625e-07
1.10465e-05
-1.47038e-07
1.10639e-05
-1.30451e-07
1.10793e-05
-1.15665e-07
1.10927e-05
-1.02497e-07
1.11046e-05
-9.07807e-08
1.1115e-05
-8.03631e-08
1.11242e-05
-7.11058e-08
1.11323e-05
-6.28839e-08
1.11394e-05
-5.55847e-08
1.11456e-05
-4.91071e-08
1.11511e-05
-4.33605e-08
1.11559e-05
-3.82638e-08
1.11602e-05
-3.37445e-08
1.11639e-05
-2.97383e-08
1.11672e-05
-2.61875e-08
1.11701e-05
-2.30411e-08
1.11727e-05
-2.02537e-08
1.11749e-05
-1.77849e-08
1.11768e-05
-1.55989e-08
1.11785e-05
-1.36639e-08
1.118e-05
-1.19518e-08
1.11813e-05
-1.04375e-08
1.11825e-05
-9.09884e-09
1.11835e-05
-7.9162e-09
1.11843e-05
-6.87208e-09
1.11851e-05
-5.95106e-09
1.11857e-05
-5.13934e-09
1.11863e-05
-4.42476e-09
1.11868e-05
-3.79645e-09
1.11872e-05
-3.2448e-09
1.11875e-05
-2.7612e-09
1.11878e-05
-2.33805e-09
1.11881e-05
-1.96853e-09
1.11883e-05
-1.64662e-09
1.11885e-05
-1.36686e-09
1.11886e-05
-1.12449e-09
1.11887e-05
-9.15161e-10
1.11888e-05
-7.3507e-10
1.11889e-05
-5.80741e-10
1.1189e-05
-4.49155e-10
1.1189e-05
-3.37524e-10
1.1189e-05
-2.43445e-10
1.11891e-05
-1.64687e-10
1.11891e-05
-9.93442e-11
1.11891e-05
-4.56293e-11
1.11891e-05
-2.03736e-12
1.11891e-05
3.28577e-11
1.11891e-05
6.02341e-11
1.11891e-05
8.12278e-11
1.11891e-05
9.67547e-11
1.1189e-05
1.0771e-10
1.1189e-05
1.14795e-10
1.1189e-05
1.18713e-10
1.1189e-05
1.19991e-10
1.1189e-05
1.19176e-10
1.1189e-05
1.16653e-10
1.1189e-05
1.12842e-10
1.11889e-05
1.08019e-10
1.11889e-05
1.02501e-10
1.11889e-05
9.64724e-11
1.11889e-05
9.01735e-11
1.11889e-05
8.37189e-11
1.11889e-05
7.72858e-11
1.11889e-05
7.09337e-11
1.11889e-05
6.47953e-11
1.11889e-05
5.88912e-11
1.11889e-05
5.33174e-11
1.11888e-05
4.80644e-11
1.11888e-05
4.32064e-11
1.11888e-05
3.87155e-11
1.11888e-05
3.4648e-11
1.11888e-05
3.09632e-11
1.11888e-05
2.7711e-11
1.11888e-05
2.48463e-11
1.11888e-05
2.24141e-11
1.11888e-05
2.03674e-11
1.11888e-05
1.87546e-11
1.11888e-05
1.75307e-11
1.11888e-05
1.67437e-11
1.11888e-05
1.63487e-11
1.11888e-05
1.63934e-11
1.11888e-05
1.68288e-11
1.11888e-05
1.7696e-11
1.11888e-05
1.89401e-11
1.11888e-05
2.05867e-11
1.11888e-05
2.25822e-11
1.11888e-05
2.49343e-11
1.11888e-05
2.74811e-11
1.11888e-05
3.00912e-11
1.11888e-05
3.24206e-11
1.11888e-05
3.36879e-11
1.11888e-05
3.30149e-11
2.92009e-11
7.43877e-06
-1.73044e-07
7.56665e-06
-5.01532e-07
7.76467e-06
-7.96828e-07
8.01698e-06
-1.04638e-06
8.30673e-06
-1.24363e-06
8.61797e-06
-1.38716e-06
8.93679e-06
-1.47954e-06
9.25192e-06
-1.52604e-06
9.55493e-06
-1.53345e-06
9.83998e-06
-1.50915e-06
1.01035e-05
-1.46033e-06
1.03437e-05
-1.39356e-06
1.05601e-05
-1.31459e-06
1.07534e-05
-1.22818e-06
1.09247e-05
-1.13818e-06
1.10756e-05
-1.04758e-06
1.12081e-05
-9.58603e-07
1.13238e-05
-8.72861e-07
1.14247e-05
-7.91449e-07
1.15124e-05
-7.1505e-07
1.15887e-05
-6.44037e-07
1.16548e-05
-5.78543e-07
1.17122e-05
-5.18529e-07
1.17619e-05
-4.63831e-07
1.18051e-05
-4.14202e-07
1.18425e-05
-3.69346e-07
1.18749e-05
-3.28932e-07
1.19031e-05
-2.9262e-07
1.19276e-05
-2.6007e-07
1.19489e-05
-2.3095e-07
1.19674e-05
-2.04942e-07
1.19835e-05
-1.81746e-07
1.19976e-05
-1.61085e-07
1.20098e-05
-1.427e-07
1.20205e-05
-1.26354e-07
1.20298e-05
-1.11833e-07
1.2038e-05
-9.89394e-08
1.20451e-05
-8.74981e-08
1.20514e-05
-7.73493e-08
1.20568e-05
-6.83503e-08
1.20616e-05
-6.03731e-08
1.20658e-05
-5.33031e-08
1.20695e-05
-4.70386e-08
1.20727e-05
-4.14886e-08
1.20756e-05
-3.65723e-08
1.2078e-05
-3.22179e-08
1.20802e-05
-2.83617e-08
1.20821e-05
-2.49471e-08
1.20838e-05
-2.19239e-08
1.20852e-05
-1.92478e-08
1.20865e-05
-1.68793e-08
1.20876e-05
-1.47838e-08
1.20886e-05
-1.29302e-08
1.20895e-05
-1.12913e-08
1.20902e-05
-9.8428e-09
1.20909e-05
-8.56349e-09
1.20914e-05
-7.4341e-09
1.20919e-05
-6.43812e-09
1.20923e-05
-5.56024e-09
1.20927e-05
-4.78755e-09
1.2093e-05
-4.10807e-09
1.20933e-05
-3.5115e-09
1.20935e-05
-2.9885e-09
1.20937e-05
-2.53093e-09
1.20939e-05
-2.13113e-09
1.2094e-05
-1.7829e-09
1.20941e-05
-1.4801e-09
1.20942e-05
-1.21789e-09
1.20943e-05
-9.91295e-10
1.20943e-05
-7.963e-10
1.20944e-05
-6.29114e-10
1.20944e-05
-4.86563e-10
1.20945e-05
-3.65597e-10
1.20945e-05
-2.63719e-10
1.20945e-05
-1.78221e-10
1.20945e-05
-1.07393e-10
1.20945e-05
-4.90549e-11
1.20945e-05
-1.73539e-12
1.20945e-05
3.61122e-11
1.20945e-05
6.58574e-11
1.20945e-05
8.87341e-11
1.20945e-05
1.05572e-10
1.20945e-05
1.17603e-10
1.20945e-05
1.25175e-10
1.20945e-05
1.29561e-10
1.20944e-05
1.30918e-10
1.20944e-05
1.30104e-10
1.20944e-05
1.27347e-10
1.20944e-05
1.2327e-10
1.20944e-05
1.17902e-10
1.20944e-05
1.12008e-10
1.20944e-05
1.05396e-10
1.20944e-05
9.85957e-11
1.20944e-05
9.15103e-11
1.20944e-05
8.45552e-11
1.20944e-05
7.75762e-11
1.20943e-05
7.09376e-11
1.20943e-05
6.44395e-11
1.20943e-05
5.84099e-11
1.20943e-05
5.26194e-11
1.20943e-05
4.73687e-11
1.20943e-05
4.24061e-11
1.20943e-05
3.80153e-11
1.20943e-05
3.39346e-11
1.20943e-05
3.04368e-11
1.20943e-05
2.72537e-11
1.20943e-05
2.46544e-11
1.20943e-05
2.23734e-11
1.20943e-05
2.06773e-11
1.20943e-05
1.93034e-11
1.20943e-05
1.85172e-11
1.20943e-05
1.80592e-11
1.20943e-05
1.81883e-11
1.20943e-05
1.8643e-11
1.20943e-05
1.96747e-11
1.20943e-05
2.10127e-11
1.20943e-05
2.29158e-11
1.20943e-05
2.50917e-11
1.20943e-05
2.77298e-11
1.20943e-05
3.05316e-11
1.20943e-05
3.33376e-11
1.20943e-05
3.57072e-11
1.20943e-05
3.71169e-11
1.20943e-05
3.60845e-11
3.18835e-11
8.32128e-06
8.48176e-06
8.72503e-06
9.02749e-06
9.36556e-06
9.71829e-06
1.00687e-05
1.04043e-05
1.07168e-05
1.10011e-05
1.12554e-05
1.14795e-05
1.16748e-05
1.18433e-05
1.19878e-05
1.21109e-05
1.22152e-05
1.23034e-05
1.23778e-05
1.24404e-05
1.2493e-05
1.25372e-05
1.25743e-05
1.26055e-05
1.26317e-05
1.26538e-05
1.26724e-05
1.26881e-05
1.27013e-05
1.27125e-05
1.2722e-05
1.27301e-05
1.2737e-05
1.27428e-05
1.27478e-05
1.27521e-05
1.27557e-05
1.27589e-05
1.27616e-05
1.27639e-05
1.27659e-05
1.27677e-05
1.27692e-05
1.27705e-05
1.27716e-05
1.27726e-05
1.27734e-05
1.27742e-05
1.27748e-05
1.27754e-05
1.27759e-05
1.27763e-05
1.27767e-05
1.2777e-05
1.27773e-05
1.27775e-05
1.27777e-05
1.27779e-05
1.27781e-05
1.27782e-05
1.27783e-05
1.27784e-05
1.27785e-05
1.27786e-05
1.27786e-05
1.27787e-05
1.27787e-05
1.27788e-05
1.27788e-05
1.27788e-05
1.27788e-05
1.27788e-05
1.27788e-05
1.27788e-05
1.27788e-05
1.27788e-05
1.27788e-05
1.27788e-05
1.27788e-05
1.27788e-05
1.27788e-05
1.27788e-05
1.27788e-05
1.27788e-05
1.27788e-05
1.27788e-05
1.27788e-05
1.27788e-05
1.27788e-05
1.27788e-05
1.27788e-05
1.27788e-05
1.27788e-05
1.27788e-05
1.27788e-05
1.27788e-05
1.27788e-05
1.27787e-05
1.27787e-05
1.27787e-05
1.27787e-05
1.27787e-05
1.27787e-05
1.27787e-05
1.27787e-05
1.27787e-05
1.27787e-05
1.27787e-05
1.27787e-05
1.27787e-05
1.27787e-05
1.27787e-05
1.27787e-05
1.27787e-05
1.27787e-05
1.27787e-05
1.27787e-05
1.27787e-05
1.27787e-05
1.27787e-05
1.27787e-05
1.27787e-05
1.27787e-05
1.27787e-05
)
;

boundaryField
{
    inlet
    {
        type            calculated;
        value           nonuniform List<scalar> 10(-4.34916e-07 -1.30475e-06 -2.17458e-06 -3.04441e-06 -3.91424e-06 -4.78408e-06 -5.65391e-06 -6.52374e-06 -7.39357e-06 -8.2634e-06);
    }
    outlet
    {