/*--------------------------------*- C++ -*----------------------------------*\
| =========                 |                                                 |
| \\      /  F ield         | OpenFOAM: The Open Source CFD Toolbox           |
|  \\    /   O peration     | Version:                                        |
|   \\  /    A nd           | Website:  www.openfoam.com                      |
|    \\/     M anipulation  |                                                 |
\*---------------------------------------------------------------------------*/
FoamFile
{
    version     2.0;
    format      ascii;
    class       volVectorField;
    location    "71";
    object      U;
}
// * * * * * * * * * * * * * * * * * * * * * * * * * * * * * * * * * * * * * //

dimensions      [0 1 -1 0 0 0 0];


internalField   nonuniform List<vector> 
1250
(
(1.00045 -0.00148057 -1.3228e-14)
(1.00767 -0.0041977 -4.6812e-14)
(1.0221 -0.00682361 -8.53888e-14)
(1.04342 -0.0092769 -1.33046e-13)
(1.07089 -0.0114747 -1.86027e-13)
(1.10375 -0.0133664 -2.44027e-13)
(1.14117 -0.0149192 -3.01872e-13)
(1.1822 -0.0161181 -3.51232e-13)
(1.2259 -0.0169655 -3.89753e-13)
(1.27137 -0.017478 -4.11622e-13)
(1.31776 -0.0176834 -4.1767e-13)
(1.36429 -0.0176166 -4.10321e-13)
(1.41031 -0.0173168 -3.91999e-13)
(1.45525 -0.0168245 -3.70318e-13)
(1.49867 -0.0161795 -3.57066e-13)
(1.5402 -0.0154191 -1.76448e-13)
(1.57961 -0.0145773 -1.77599e-13)
(1.61672 -0.0136838 -2.66973e-13)
(1.65142 -0.012764 -2.4033e-13)
(1.68369 -0.0118392 -2.30708e-13)
(1.71353 -0.0109262 -2.32994e-13)
(1.741 -0.0100383 -2.40362e-13)
(1.76618 -0.00918554 -2.39916e-13)
(1.78917 -0.00837493 -2.1617e-13)
(1.8101 -0.00761117 -1.55215e-13)
(1.82908 -0.00689697 2.06717e-14)
(1.84625 -0.00623346 1.55884e-13)
(1.86176 -0.00562051 2.17048e-13)
(1.87572 -0.00505705 2.88944e-13)
(1.88826 -0.0045413 2.942e-13)
(1.89952 -0.004071 2.3466e-13)
(1.9096 -0.00364355 1.19441e-13)
(1.91862 -0.00325619 -3.22026e-14)
(1.92667 -0.00290606 -1.79772e-13)
(1.93385 -0.00259029 -2.88059e-13)
(1.94025 -0.00230608 -3.37767e-13)
(1.94594 -0.00205075 -3.36683e-13)
(1.951 -0.0018217 -3.10696e-13)
(1.95549 -0.00161653 -2.79277e-13)
(1.95948 -0.00143298 -2.52858e-13)
(1.96301 -0.00126896 -2.31573e-13)
(1.96614 -0.00112254 -2.12318e-13)
(1.9689 -0.000991958 -1.94613e-13)
(1.97135 -0.000875585 -1.81002e-13)
(1.9735 -0.000771988 -1.80164e-13)
(1.9754 -0.0006798 -2.04339e-13)
(1.97707 -0.000597864 -2.66753e-13)
(1.97854 -0.000525054 -3.71219e-13)
(1.97984 -0.000460443 -4.9969e-13)
(1.98097 -0.000403107 -6.23975e-13)
(1.98196 -0.000352314 -7.09282e-13)
(1.98282 -0.000307306 -7.29588e-13)
(1.98358 -0.000267512 -7.03121e-13)
(1.98424 -0.000232309 -6.57551e-13)
(1.98481 -0.000201257 -6.11975e-13)
(1.9853 -0.00017384 -5.55465e-13)
(1.98573 -0.000149724 -4.68547e-13)
(1.98609 -0.00012848 -3.37433e-13)
(1.98641 -0.000109861 -1.83102e-13)
(1.98668 -9.3505e-05 -4.25408e-14)
(1.98691 -7.92329e-05 5.49629e-14)
(1.9871 -6.67364e-05 9.70551e-14)
(1.98726 -5.58932e-05 7.70543e-14)
(1.9874 -4.64366e-05 1.77236e-14)
(1.98751 -3.8289e-05 -5.26949e-14)
(1.98761 -3.12163e-05 -1.00051e-13)
(1.98768 -2.51778e-05 -8.37116e-14)
(1.98774 -1.99652e-05 5.58404e-15)
(1.98779 -1.5567e-05 1.31262e-13)
(1.98783 -1.17952e-05 2.29017e-13)
(1.98786 -8.66241e-06 2.49442e-13)
(1.98788 -5.99723e-06 1.87376e-13)
(1.98789 -3.8315e-06 9.36385e-14)
(1.9879 -2.00627e-06 2.39442e-14)
(1.98791 -5.6982e-07 -4.07965e-15)
(1.98791 6.2624e-07 -8.56575e-15)
(1.9879 1.52087e-06 -1.94321e-14)
(1.9879 2.25455e-06 -5.84602e-14)
(1.98789 2.75506e-06 -1.36428e-13)
(1.98789 3.15603e-06 -2.44115e-13)
(1.98788 3.37678e-06 -4.23947e-13)
(1.98787 3.54599e-06 -5.56751e-13)
(1.98786 3.57537e-06 -6.62041e-13)
(1.98785 3.58914e-06 -7.20555e-13)
(1.98784 3.49352e-06 -7.47143e-13)
(1.98783 3.40977e-06 -7.74039e-13)
(1.98782 3.23896e-06 -8.11435e-13)
(1.98782 3.09952e-06 -8.41389e-13)
(1.98781 2.88909e-06 -8.34087e-13)
(1.9878 2.72449e-06 -7.75704e-13)
(1.98779 2.49996e-06 -6.80685e-13)
(1.98779 2.33056e-06 -5.80164e-13)
(1.98778 2.10858e-06 -4.84576e-13)
(1.98778 1.94834e-06 -3.95757e-13)
(1.98777 1.73998e-06 -3.17823e-13)
(1.98777 1.59675e-06 -2.83639e-13)
(1.98776 1.40789e-06 -3.33649e-13)
(1.98776 1.28645e-06 -4.61626e-13)
(1.98776 1.12036e-06 -5.57282e-13)
(1.98775 1.02207e-06 -4.08883e-13)
(1.98775 8.79294e-07 5.23518e-14)
(1.98775 8.04583e-07 6.00591e-13)
(1.98775 6.84975e-07 1.00122e-12)
(1.98775 6.32564e-07 1.20089e-12)
(1.98774 5.34752e-07 1.24348e-12)
(1.98774 5.0368e-07 1.18958e-12)
(1.98774 4.26603e-07 1.08065e-12)
(1.98774 4.1494e-07 9.44095e-13)
(1.98774 3.56855e-07 7.90011e-13)
(1.98774 3.63364e-07 6.14955e-13)
(1.98774 3.23012e-07 4.04446e-13)
(1.98774 3.4571e-07 1.42883e-13)
(1.98774 3.2124e-07 -1.78832e-13)
(1.98774 3.58777e-07 -5.29243e-13)
(1.98773 3.4843e-07 -7.87238e-13)
(1.98773 3.98467e-07 -7.46527e-13)
(1.98773 3.99443e-07 -3.47948e-13)
(1.98773 4.58589e-07 1.74398e-13)
(1.98773 4.65563e-07 5.7296e-13)
(1.98773 5.24763e-07 7.89073e-13)
(1.98773 5.25086e-07 8.59573e-13)
(1.98773 5.5759e-07 8.40055e-13)
(1.98772 5.10767e-07 7.76291e-13)
(1.98772 4.67574e-07 6.95746e-13)
(1.98772 4.28499e-07 6.13218e-13)
(1.00037 -0.00369624 -3.76843e-14)
(1.00748 -0.0108737 -1.31189e-13)
(1.02193 -0.0177868 -2.43816e-13)
(1.04344 -0.0242169 -3.78693e-13)
(1.07117 -0.0299675 -5.32751e-13)
(1.10433 -0.0349063 -6.99308e-13)
(1.14201 -0.0389498 -8.64435e-13)
(1.18327 -0.0420621 -1.00717e-12)
(1.22714 -0.0442521 -1.11472e-12)
(1.27269 -0.0455658 -1.17679e-12)
(1.31907 -0.0460772 -1.192e-12)
(1.3655 -0.0458792 -1.16799e-12)
(1.41134 -0.0450751 -1.11351e-12)
(1.45602 -0.0437716 -1.04321e-12)
(1.49911 -0.042073 -9.76222e-13)
(1.54026 -0.0400771 -8.08459e-13)
(1.57924 -0.0378723 -7.6156e-13)
(1.61589 -0.0355362 -7.36693e-13)
(1.65012 -0.0331347 -6.71612e-13)
(1.6819 -0.0307226 -6.48828e-13)
(1.71126 -0.0283437 -6.5859e-13)
(1.73825 -0.0260324 -6.8566e-13)
(1.76296 -0.023814 -6.92933e-13)
(1.7855 -0.0217068 -6.23114e-13)
(1.806 -0.0197226 -4.28129e-13)
(1.82458 -0.0178682 -5.65745e-14)
(1.84137 -0.0161463 3.45773e-13)
(1.85652 -0.0145564 6.58626e-13)
(1.87016 -0.0130954 8.57604e-13)
(1.88241 -0.0117587 8.64064e-13)
(1.89339 -0.0105402 6.78991e-13)
(1.90322 -0.00943313 3.29485e-13)
(1.91202 -0.00843018 -1.23706e-13)
(1.91986 -0.00752387 -5.56073e-13)
(1.92686 -0.00670673 -8.60558e-13)
(1.9331 -0.00597145 -9.91276e-13)
(1.93864 -0.00531099 -9.67499e-13)
(1.94357 -0.00471865 -8.8e-13)
(1.94795 -0.00418816 -7.88464e-13)
(1.95184 -0.00371363 -7.12722e-13)
(1.95528 -0.00328964 -6.51734e-13)
(1.95833 -0.00291117 -5.98419e-13)
(1.96103 -0.00257366 -5.48277e-13)
(1.96341 -0.00227291 -5.07373e-13)
(1.96552 -0.00200513 -5.02222e-13)
(1.96738 -0.00176688 -5.72347e-13)
(1.96902 -0.00155506 -7.55854e-13)
(1.97046 -0.00136685 -1.06368e-12)
(1.97172 -0.00119975 -1.44767e-12)
(1.97284 -0.00105148 -1.81316e-12)
(1.97381 -0.000920031 -2.0569e-12)
(1.97467 -0.000803569 -2.09788e-12)
(1.97541 -0.000700485 -1.99951e-12)
(1.97606 -0.00060931 -1.86186e-12)
(1.97663 -0.000528761 -1.73229e-12)
(1.97712 -0.00045766 -1.57996e-12)
(1.97755 -0.000394992 -1.32979e-12)
(1.97791 -0.00033981 -9.44404e-13)
(1.97823 -0.000291311 -4.89441e-13)
(1.9785 -0.000248735 -8.01469e-14)
(1.97873 -0.000211445 1.97713e-13)
(1.97893 -0.000178831 3.05943e-13)
(1.9791 -0.000150391 2.31757e-13)
(1.97924 -0.000125631 4.58227e-14)
(1.97936 -0.000104156 -1.75249e-13)
(1.97946 -8.55651e-05 -3.18746e-13)
(1.97954 -6.95504e-05 -2.64504e-13)
(1.9796 -5.57835e-05 1.68952e-14)
(1.97965 -4.40251e-05 4.06075e-13)
(1.9797 -3.40059e-05 7.00257e-13)
(1.97973 -2.55423e-05 7.43359e-13)
(1.97975 -1.84121e-05 5.33915e-13)
(1.97977 -1.24756e-05 2.39581e-13)
(1.97978 -7.54894e-06 3.95337e-14)
(1.97979 -3.52893e-06 -2.572e-14)
(1.97979 -2.62013e-07 -2.44979e-14)
(1.97979 2.32588e-06 -4.64539e-14)
(1.97979 4.36339e-06 -1.58862e-13)
(1.97979 5.90027e-06 -3.92734e-13)
(1.97978 7.04528e-06 -7.35245e-13)
(1.97978 7.82912e-06 -1.211e-12)
(1.97977 8.34409e-06 -1.62075e-12)
(1.97976 8.60469e-06 -1.92105e-12)
(1.97975 8.69031e-06 -2.06958e-12)
(1.97975 8.60307e-06 -2.13092e-12)
(1.97974 8.41166e-06 -2.20285e-12)
(1.97973 8.10753e-06 -2.31529e-12)
(1.97972 7.75124e-06 -2.41125e-12)
(1.97972 7.32647e-06 -2.38838e-12)
(1.97971 6.88701e-06 -2.20479e-12)
(1.9797 6.40975e-06 -1.92011e-12)
(1.9797 5.9436e-06 -1.63128e-12)
(1.97969 5.46091e-06 -1.3575e-12)
(1.97969 5.00655e-06 -1.1023e-12)
(1.97968 4.54874e-06 -8.70204e-13)
(1.97968 4.12971e-06 -7.68168e-13)
(1.97967 3.71534e-06 -9.30725e-13)
(1.97967 3.34565e-06 -1.35227e-12)
(1.97967 2.98417e-06 -1.69709e-12)
(1.97966 2.66976e-06 -1.25364e-12)
(1.97966 2.36511e-06 2.00659e-13)
(1.97966 2.10803e-06 1.86433e-12)
(1.97966 1.86003e-06 2.99508e-12)
(1.97966 1.65869e-06 3.50923e-12)
(1.97965 1.46552e-06 3.57863e-12)
(1.97965 1.31768e-06 3.3871e-12)
(1.97965 1.17616e-06 3.05933e-12)
(1.97965 1.0782e-06 2.66418e-12)
(1.97965 9.85225e-07 2.22455e-12)
(1.97965 9.34172e-07 1.72535e-12)
(1.97965 8.86341e-07 1.12831e-12)
(1.97965 8.78662e-07 3.77632e-13)
(1.97965 8.72979e-07 -5.59274e-13)
(1.97964 9.05591e-07 -1.60484e-12)
(1.97964 9.38192e-07 -2.4002e-12)
(1.97964 1.00656e-06 -2.24987e-12)
(1.97964 1.07157e-06 -9.57596e-13)
(1.97964 1.16681e-06 6.41952e-13)
(1.97964 1.24989e-06 1.77385e-12)
(1.97964 1.35094e-06 2.33866e-12)
(1.97964 1.41617e-06 2.48845e-12)
(1.97964 1.4575e-06 2.39977e-12)
(1.97963 1.38258e-06 2.19912e-12)
(1.97963 1.27466e-06 1.96149e-12)
(1.97963 1.14535e-06 1.72506e-12)
(1.00045 -0.00583681 -6.28837e-14)
(1.00778 -0.0174334 -2.18093e-13)
(1.02258 -0.0285807 -4.08862e-13)
(1.04455 -0.0388987 -6.38144e-13)
(1.07281 -0.0480854 -9.0433e-13)
(1.10647 -0.0559289 -1.19487e-12)
(1.14459 -0.062302 -1.48219e-12)
(1.18617 -0.0671573 -1.72837e-12)
(1.2302 -0.0705198 -1.90454e-12)
(1.27575 -0.0724734 -1.99471e-12)
(1.32193 -0.0731457 -2.00274e-12)
(1.368 -0.0726929 -1.94256e-12)
(1.41329 -0.0712863 -1.83178e-12)
(1.45728 -0.0691003 -1.69153e-12)
(1.49955 -0.0663039 -1.53966e-12)
(1.53979 -0.063054 -1.38904e-12)
(1.57778 -0.0594914 -1.25141e-12)
(1.61338 -0.0557386 -1.12764e-12)
(1.64653 -0.051899 -1.04924e-12)
(1.67723 -0.0480575 -1.03232e-12)
(1.70551 -0.044282 -1.07602e-12)
(1.73146 -0.0406243 -1.15847e-12)
(1.75515 -0.037123 -1.21277e-12)
(1.77673 -0.0338049 -1.1128e-12)
(1.7963 -0.0306871 -7.2093e-13)
(1.81402 -0.0277788 -3.31754e-14)
(1.83001 -0.025083 7.45021e-13)
(1.8444 -0.0225976 1.35968e-12)
(1.85735 -0.0203171 1.66006e-12)
(1.86896 -0.0182333 1.59994e-12)
(1.87936 -0.016336 1.19191e-12)
(1.88866 -0.0146141 4.60014e-13)
(1.89696 -0.0130558 -4.3593e-13)
(1.90437 -0.0116488 -1.21043e-12)
(1.91098 -0.0103814 -1.72247e-12)
(1.91686 -0.00924175 -1.84504e-12)
(1.92209 -0.0082188 -1.64564e-12)
(1.92673 -0.00730196 -1.4224e-12)
(1.93085 -0.0064813 -1.25328e-12)
(1.93451 -0.0057476 -1.1366e-12)
(1.93775 -0.00509233 -1.0475e-12)
(1.94062 -0.00450766 -9.6482e-13)
(1.94317 -0.00398642 -8.77889e-13)
(1.94541 -0.0035221 -7.93891e-13)
(1.94739 -0.00310876 -7.63984e-13)
(1.94915 -0.00274107 -8.79772e-13)
(1.95069 -0.00241417 -1.22557e-12)
(1.95205 -0.00212375 -1.82388e-12)
(1.95324 -0.00186586 -2.57652e-12)
(1.9543 -0.00163703 -3.26651e-12)
(1.95522 -0.00143408 -3.68562e-12)
(1.95603 -0.00125425 -3.61211e-12)
(1.95673 -0.00109498 -3.30554e-12)
(1.95735 -0.000954071 -3.01891e-12)
(1.95789 -0.000829476 -2.83529e-12)
(1.95836 -0.000719444 -2.63925e-12)
(1.95876 -0.000622345 -2.21022e-12)
(1.95911 -0.000536792 -1.46044e-12)
(1.95942 -0.000461478 -5.82332e-13)
(1.95968 -0.000395309 1.52653e-13)
(1.9599 -0.000337234 5.91745e-13)
(1.96009 -0.00028639 7.04335e-13)
(1.96026 -0.000241933 4.46855e-13)
(1.96039 -0.000203184 2.98414e-14)
(1.96051 -0.000169458 -4.53654e-13)
(1.96061 -0.000140224 -7.58747e-13)
(1.96069 -0.000114925 -6.10796e-13)
(1.96075 -9.31467e-05 5.15457e-14)
(1.96081 -7.44345e-05 9.1348e-13)
(1.96085 -5.84672e-05 1.49793e-12)
(1.96088 -4.48712e-05 1.46421e-12)
(1.96091 -3.33999e-05 8.68454e-13)
(1.96093 -2.37453e-05 1.92908e-13)
(1.96094 -1.57213e-05 -1.36417e-13)
(1.96095 -9.07215e-06 -1.28117e-13)
(1.96096 -3.66035e-06 -2.05796e-14)
(1.96096 7.2724e-07 -1.05072e-14)
(1.96096 4.18833e-06 -2.10161e-13)
(1.96096 6.90171e-06 -6.58801e-13)
(1.96095 8.9333e-06 -1.34032e-12)
(1.96095 1.04338e-05 -2.17329e-12)
(1.96094 1.14426e-05 -2.95204e-12)
(1.96094 1.20878e-05 -3.44054e-12)
(1.96093 1.23882e-05 -3.56803e-12)
(1.96092 1.24533e-05 -3.55093e-12)
(1.96092 1.22844e-05 -3.64517e-12)
(1.96091 1.19766e-05 -3.89804e-12)
(1.9609 1.15176e-05 -4.1354e-12)
(1.9609 1.09906e-05 -4.08663e-12)
(1.96089 1.03723e-05 -3.65939e-12)
(1.96088 9.73674e-06 -3.06839e-12)
(1.96088 9.05239e-06 -2.56985e-12)
(1.96087 8.38608e-06 -2.11811e-12)
(1.96087 7.6993e-06 -1.69897e-12)
(1.96086 7.05362e-06 -1.23285e-12)
(1.96086 6.40597e-06 -1.00552e-12)
(1.96086 5.81372e-06 -1.39326e-12)
(1.96085 5.22986e-06 -2.48826e-12)
(1.96085 4.70908e-06 -3.63036e-12)
(1.96085 4.2022e-06 -2.7546e-12)
(1.96084 3.7618e-06 7.60504e-13)
(1.96084 3.33679e-06 4.24194e-12)
(1.96084 2.97863e-06 5.96108e-12)
(1.96084 2.63573e-06 6.41152e-12)
(1.96084 2.35859e-06 6.18216e-12)
(1.96084 2.09503e-06 5.64395e-12)
(1.96083 1.89523e-06 4.98597e-12)
(1.96083 1.70754e-06 4.2849e-12)
(1.96083 1.58165e-06 3.54755e-12)
(1.96083 1.4662e-06 2.72963e-12)
(1.96083 1.41073e-06 1.74551e-12)
(1.96083 1.36474e-06 4.66478e-13)
(1.96083 1.37719e-06 -1.23286e-12)
(1.96083 1.39767e-06 -3.31564e-12)
(1.96083 1.47452e-06 -5.12082e-12)
(1.96083 1.55667e-06 -4.63636e-12)
(1.96083 1.69006e-06 -1.30649e-12)
(1.96082 1.82136e-06 2.13319e-12)
(1.96082 1.9913e-06 3.90446e-12)
(1.96082 2.14174e-06 4.46903e-12)
(1.96082 2.29454e-06 4.39189e-12)
(1.96082 2.371e-06 4.03559e-12)
(1.96082 2.33759e-06 3.59082e-12)
(1.96082 2.19832e-06 3.14638e-12)
(1.96082 1.98644e-06 2.74099e-12)
(1.00047 -0.00829954 -8.78584e-14)
(1.00814 -0.0247456 -3.04964e-13)
(1.0235 -0.0404898 -5.75553e-13)
(1.04622 -0.0549861 -9.10184e-13)
(1.07528 -0.0678095 -1.30896e-12)
(1.10972 -0.0786652 -1.75539e-12)
(1.14849 -0.087386 -2.20003e-12)
(1.19052 -0.0939241 -2.56992e-12)
(1.23477 -0.0983358 -2.8067e-12)
(1.28025 -0.10076 -2.89738e-12)
(1.32609 -0.101395 -2.85999e-12)
(1.37152 -0.100475 -2.72596e-12)
(1.41593 -0.0982532 -2.52646e-12)
(1.45881 -0.0949807 -2.29112e-12)
(1.49978 -0.0908985 -2.04406e-12)
(1.53858 -0.0862273 -1.806e-12)
(1.57501 -0.0811625 -1.5948e-12)
(1.60899 -0.0758722 -1.43099e-12)
(1.6405 -0.0704966 -1.33955e-12)
(1.66954 -0.0651495 -1.34641e-12)
(1.69619 -0.05992 -1.46816e-12)
(1.72054 -0.0548758 -1.68436e-12)
(1.74271 -0.0500657 -1.89229e-12)
(1.76283 -0.045523 -1.83389e-12)
(1.78102 -0.0412676 -1.13394e-12)
(1.79745 -0.0373091 2.25184e-13)
(1.81223 -0.0336491 1.65207e-12)
(1.82551 -0.0302825 2.59815e-12)
(1.83742 -0.0271998 2.91269e-12)
(1.84808 -0.0243884 2.61868e-12)
(1.85762 -0.021833 1.78186e-12)
(1.86613 -0.0195175 4.71355e-13)
(1.87372 -0.0174249 -1.11238e-12)
(1.88049 -0.0155382 -2.49419e-12)
(1.8865 -0.0138406 -3.15587e-12)
(1.89186 -0.0123158 -2.91666e-12)
(1.89661 -0.0109486 -2.27034e-12)
(1.90083 -0.00972425 -1.81196e-12)
(1.90458 -0.00862928 -1.59405e-12)
(1.9079 -0.00765109 -1.48732e-12)
(1.91084 -0.00677805 -1.40256e-12)
(1.91344 -0.00599956 -1.30393e-12)
(1.91574 -0.00530591 -1.16718e-12)
(1.91778 -0.00468829 -9.94016e-13)
(1.91958 -0.00413873 -8.8153e-13)
(1.92116 -0.00365003 -1.03065e-12)
(1.92256 -0.00321569 -1.62001e-12)
(1.92379 -0.00282989 -2.70705e-12)
(1.92488 -0.00248738 -4.10329e-12)
(1.92583 -0.00218348 -5.35397e-12)
(1.92667 -0.00191399 -5.85538e-12)
(1.9274 -0.00167517 -5.30415e-12)
(1.92804 -0.00146365 -4.44923e-12)
(1.92861 -0.00127646 -3.95353e-12)
(1.9291 -0.00111092 -3.87364e-12)
(1.92952 -0.000964669 -3.83476e-12)
(1.92989 -0.000835571 -3.20121e-12)
(1.93021 -0.000721747 -1.76288e-12)
(1.93049 -0.000621505 -1.53432e-13)
(1.93073 -0.000533351 9.77629e-13)
(1.93094 -0.000455939 1.47124e-12)
(1.93111 -0.000388082 1.3936e-12)
(1.93126 -0.000328706 7.79561e-13)
(1.93139 -0.00027687 -1.13414e-13)
(1.9315 -0.000231716 -1.11097e-12)
(1.93159 -0.000192493 -1.75126e-12)
(1.93166 -0.000158516 -1.36193e-12)
(1.93173 -0.000129189 2.0024e-13)
(1.93178 -0.00010396 2.06471e-12)
(1.93182 -8.23566e-05 3.12653e-12)
(1.93185 -6.3936e-05 2.68284e-12)
(1.93187 -4.83223e-05 9.96806e-13)
(1.93189 -3.516e-05 -4.82649e-13)
(1.93191 -2.41515e-05 -7.68181e-13)
(1.93192 -1.50113e-05 -3.12707e-13)
(1.93192 -7.50505e-06 1.27034e-13)
(1.93193 -1.40397e-06 2.21389e-13)
(1.93193 3.47521e-06 -1.21357e-13)
(1.93193 7.31553e-06 -9.09745e-13)
(1.93192 1.02586e-05 -2.10607e-12)
(1.93192 1.245e-05 -3.56341e-12)
(1.93192 1.39978e-05 -4.89975e-12)
(1.93191 1.50175e-05 -5.50822e-12)
(1.93191 1.55894e-05 -5.2521e-12)
(1.9319 1.58046e-05 -4.85618e-12)
(1.93189 1.57215e-05 -4.98503e-12)
(1.93189 1.54112e-05 -5.61307e-12)
(1.93188 1.49144e-05 -6.2355e-12)
(1.93188 1.42864e-05 -6.1173e-12)
(1.93187 1.35536e-05 -5.07718e-12)
(1.93187 1.27592e-05 -3.86786e-12)
(1.93186 1.19183e-05 -3.15681e-12)
(1.93186 1.10641e-05 -2.75133e-12)
(1.93185 1.02033e-05 -2.16659e-12)
(1.93185 9.36186e-06 -1.17571e-12)
(1.93184 8.53982e-06 -5.77903e-13)
(1.93184 7.7574e-06 -1.37946e-12)
(1.93184 7.01001e-06 -4.0662e-12)
(1.93183 6.31394e-06 -7.95839e-12)
(1.93183 5.66116e-06 -6.32166e-12)
(1.93183 5.0651e-06 2.9612e-12)
(1.93183 4.51561e-06 9.8228e-12)
(1.93183 4.02444e-06 1.08346e-11)
(1.93182 3.58004e-06 1.01029e-11)
(1.93182 3.19308e-06 8.9432e-12)
(1.93182 2.85155e-06 7.76131e-12)
(1.93182 2.56579e-06 6.65926e-12)
(1.93182 2.32372e-06 5.63176e-12)
(1.93182 2.13564e-06 4.62166e-12)
(1.93182 1.98991e-06 3.53027e-12)
(1.93182 1.89705e-06 2.20165e-12)
(1.93182 1.84561e-06 3.83612e-13)
(1.93182 1.84623e-06 -2.29313e-12)
(1.93181 1.88734e-06 -6.19091e-12)
(1.93181 1.97862e-06 -1.07666e-11)
(1.93181 2.10713e-06 -9.43874e-12)
(1.93181 2.2804e-06 -2.19198e-13)
(1.93181 2.48272e-06 6.72874e-12)
(1.93181 2.71583e-06 7.91314e-12)
(1.93181 2.95623e-06 7.40402e-12)
(1.93181 3.18672e-06 6.49447e-12)
(1.93181 3.35647e-06 5.58449e-12)
(1.9318 3.39752e-06 4.78211e-12)
(1.9318 3.26875e-06 4.10326e-12)
(1.9318 2.96271e-06 3.5376e-12)
(1.00051 -0.010962 -1.10315e-13)
(1.00861 -0.0325891 -3.85401e-13)
(1.02476 -0.0531714 -7.36809e-13)
(1.04849 -0.07198 -1.18766e-12)
(1.07865 -0.0884597 -1.75185e-12)
(1.11411 -0.102239 -2.41416e-12)
(1.15371 -0.113128 -3.09175e-12)
(1.19629 -0.1211 -3.62044e-12)
(1.24073 -0.126266 -3.89189e-12)
(1.286 -0.128845 -3.92099e-12)
(1.33124 -0.129128 -3.76912e-12)
(1.3757 -0.127447 -3.49913e-12)
(1.41879 -0.124146 -3.16305e-12)
(1.46006 -0.119563 -2.79978e-12)
(1.49919 -0.114016 -2.43863e-12)
(1.53596 -0.107789 -2.10166e-12)
(1.57025 -0.101132 -1.81296e-12)
(1.60202 -0.0942534 -1.59843e-12)
(1.63129 -0.0873261 -1.49392e-12)
(1.65811 -0.0804871 -1.54614e-12)
(1.68258 -0.0738422 -1.80588e-12)
(1.70482 -0.0674692 -2.29629e-12)
(1.72498 -0.0614229 -2.91057e-12)
(1.74318 -0.0557382 -3.16068e-12)
(1.75958 -0.0504348 -1.89988e-12)
(1.77431 -0.0455194 1.00129e-12)
(1.78754 -0.0409897 3.64017e-12)
(1.79937 -0.0368356 4.8371e-12)
(1.80996 -0.0330423 4.85799e-12)
(1.81941 -0.0295912 4.00005e-12)
(1.82784 -0.0264617 2.40766e-12)
(1.83534 -0.0236318 1.44969e-13)
(1.84202 -0.0210791 -2.60784e-12)
(1.84796 -0.0187814 -5.14553e-12)
(1.85324 -0.0167173 -5.78893e-12)
(1.85792 -0.0148661 -4.1492e-12)
(1.86208 -0.0132083 -2.38131e-12)
(1.86576 -0.0117256 -1.73331e-12)
(1.86903 -0.0104009 -1.73365e-12)
(1.87192 -0.00921868 -1.77756e-12)
(1.87447 -0.0081645 -1.74052e-12)
(1.87674 -0.00722524 -1.64256e-12)
(1.87874 -0.00638894 -1.43764e-12)
(1.8805 -0.00564481 -1.06414e-12)
(1.88206 -0.00498305 -6.96398e-13)
(1.88344 -0.00439487 -8.19553e-13)
(1.88465 -0.00387235 -1.79574e-12)
(1.88572 -0.00340838 -3.788e-12)
(1.88666 -0.00299661 -6.41407e-12)
(1.88749 -0.00263134 -8.834e-12)
(1.88822 -0.00230749 -9.1807e-12)
(1.88885 -0.00202051 -7.0032e-12)
(1.88941 -0.00176636 -4.80998e-12)
(1.8899 -0.00154143 -4.24312e-12)
(1.89032 -0.00134251 -4.84525e-12)
(1.89069 -0.00116672 -5.62143e-12)
(1.89102 -0.00101152 -4.70578e-12)
(1.8913 -0.000874629 -1.56428e-12)
(1.89154 -0.000754031 1.49195e-12)
(1.89175 -0.000647922 2.92705e-12)
(1.89193 -0.000554692 3.10086e-12)
(1.89208 -0.000472912 2.44182e-12)
(1.89221 -0.000401304 1.17266e-12)
(1.89233 -0.00033873 -5.74663e-13)
(1.89242 -0.000284172 -2.57851e-12)
(1.8925 -0.000236726 -4.05079e-12)
(1.89257 -0.000195579 -3.07975e-12)
(1.89262 -0.000160009 7.99884e-13)
(1.89267 -0.000129368 4.88508e-12)
(1.8927 -0.00010308 6.72303e-12)
(1.89273 -8.06258e-05 4.89061e-12)
(1.89275 -6.15468e-05 8.57325e-14)
(1.89277 -4.54275e-05 -3.05275e-12)
(1.89279 -3.19028e-05 -2.2389e-12)
(1.8928 -2.06407e-05 -2.29673e-13)
(1.8928 -1.13514e-05 8.37838e-13)
(1.8928 -3.77e-06 9.25875e-13)
(1.89281 2.33206e-06 2.36745e-13)
(1.89281 7.16498e-06 -1.13307e-12)
(1.8928 1.09082e-05 -3.16753e-12)
(1.8928 1.37274e-05 -5.74011e-12)
(1.8928 1.57619e-05 -8.17605e-12)
(1.89279 1.71414e-05 -8.69265e-12)
(1.89279 1.79725e-05 -6.91641e-12)
(1.89278 1.83557e-05 -5.42388e-12)
(1.89278 1.83714e-05 -5.88357e-12)
(1.89277 1.80964e-05 -7.63099e-12)
(1.89277 1.75897e-05 -9.36489e-12)
(1.89276 1.69094e-05 -9.00526e-12)
(1.89276 1.60975e-05 -6.15881e-12)
(1.89275 1.5197e-05 -3.59743e-12)
(1.89275 1.42368e-05 -3.03139e-12)
(1.89275 1.3248e-05 -3.5089e-12)
(1.89274 1.22491e-05 -2.80756e-12)
(1.89274 1.12621e-05 -2.89775e-13)
(1.89274 1.02978e-05 1.49602e-12)
(1.89273 9.37136e-06 1.29087e-13)
(1.89273 8.48769e-06 -5.64127e-12)
(1.89273 7.65706e-06 -1.96624e-11)
(1.89273 6.88024e-06 -1.6771e-11)
(1.89272 6.16415e-06 1.21269e-11)
(1.89272 5.50668e-06 2.44581e-11)
(1.89272 4.91251e-06 1.76664e-11)
(1.89272 4.37799e-06 1.3696e-11)
(1.89272 3.9066e-06 1.10953e-11)
(1.89272 3.49385e-06 9.2191e-12)
(1.89272 3.14277e-06 7.74821e-12)
(1.89271 2.84893e-06 6.49685e-12)
(1.89271 2.61554e-06 5.32336e-12)
(1.89271 2.43837e-06 4.07691e-12)
(1.89271 2.32093e-06 2.54028e-12)
(1.89271 2.25952e-06 3.30279e-13)
(1.89271 2.25775e-06 -3.32832e-12)
(1.89271 2.31131e-06 -1.00782e-11)
(1.89271 2.42285e-06 -2.44148e-11)
(1.89271 2.58692e-06 -2.14576e-11)
(1.89271 2.80419e-06 7.6904e-12)
(1.89271 3.06602e-06 2.03533e-11)
(1.89271 3.36731e-06 1.39244e-11)
(1.89271 3.69014e-06 1.03214e-11)
(1.8927 4.00946e-06 8.0836e-12)
(1.8927 4.27422e-06 6.57036e-12)
(1.8927 4.40238e-06 5.47716e-12)
(1.8927 4.29345e-06 4.64791e-12)
(1.8927 3.87347e-06 3.99664e-12)
(1.00056 -0.0138796 -1.2741e-13)
(1.00924 -0.0411171 -4.4832e-13)
(1.02642 -0.0668426 -8.71878e-13)
(1.05146 -0.0901141 -1.44527e-12)
(1.08299 -0.11024 -2.21711e-12)
(1.1197 -0.126786 -3.20693e-12)
(1.16026 -0.139564 -4.29554e-12)
(1.20339 -0.148605 -5.05154e-12)
(1.24787 -0.154112 -5.25849e-12)
(1.29268 -0.156419 -5.08558e-12)
(1.33694 -0.155937 -4.69747e-12)
(1.37995 -0.153116 -4.20628e-12)
(1.42118 -0.14841 -3.67897e-12)
(1.46024 -0.142251 -3.15565e-12)
(1.4969 -0.135036 -2.66169e-12)
(1.53101 -0.127113 -2.21729e-12)
(1.56253 -0.118777 -1.84402e-12)
(1.59147 -0.110276 -1.57158e-12)
(1.6179 -0.101806 -1.44837e-12)
(1.64194 -0.0935201 -1.55149e-12)
(1.66371 -0.0855326 -2.00174e-12)
(1.68336 -0.0779251 -2.9618e-12)
(1.70105 -0.070752 -4.53217e-12)
(1.71693 -0.0640451 -6.15815e-12)
(1.73115 -0.0578189 -3.82051e-12)
(1.74388 -0.052074 3.35782e-12)
(1.75523 -0.0468012 8.27342e-12)
(1.76536 -0.0419833 8.72827e-12)
(1.77437 -0.0375985 7.60692e-12)
(1.78239 -0.0336214 5.66712e-12)
(1.78952 -0.0300247 2.96009e-12)
(1.79585 -0.0267805 -7.19738e-13)
(1.80146 -0.0238607 -5.56401e-12)
(1.80644 -0.0212383 -1.08859e-11)
(1.81085 -0.0188868 -1.10366e-11)
(1.81476 -0.0167815 -4.61892e-12)
(1.81822 -0.0148991 -3.90033e-13)
(1.82129 -0.0132179 -8.13743e-13)
(1.82399 -0.011718 -1.85325e-12)
(1.82639 -0.0103809 -2.20061e-12)
(1.82851 -0.00918991 -2.13562e-12)
(1.83038 -0.0081298 -2.05525e-12)
(1.83203 -0.00718676 -1.79864e-12)
(1.83349 -0.0063483 -9.68124e-13)
(1.83478 -0.00560319 1.64099e-13)
(1.83591 -0.00494135 2.83978e-13)
(1.83691 -0.00435371 -1.50481e-12)
(1.83779 -0.00383219 -5.14174e-12)
(1.83856 -0.00336952 -1.01427e-11)
(1.83924 -0.00295924 -1.55785e-11)
(1.83984 -0.00259559 -1.5244e-11)
(1.84036 -0.00227342 -7.5679e-12)
(1.84082 -0.00198814 -2.36744e-12)
(1.84122 -0.00173568 -3.06723e-12)
(1.84157 -0.00151242 -5.9555e-12)
(1.84188 -0.00131511 -9.58655e-12)
(1.84215 -0.00114089 -8.12205e-12)
(1.84238 -0.000987207 2.502e-13)
(1.84258 -0.000851777 6.26659e-12)
(1.84275 -0.000732581 6.77013e-12)
(1.8429 -0.000627814 5.56347e-12)
(1.84302 -0.000535872 3.72918e-12)
(1.84313 -0.000455323 1.41078e-12)
(1.84323 -0.000384893 -1.59519e-12)
(1.8433 -0.000323443 -5.50753e-12)
(1.84337 -0.000269961 -9.55903e-12)
(1.84343 -0.000223539 -7.32706e-12)
(1.84347 -0.000183369 3.09725e-12)
(1.84351 -0.000148726 1.19838e-11)
(1.84354 -0.000118968 1.49459e-11)
(1.84356 -9.35152e-05 9.2323e-12)
(1.84358 -7.18534e-05 -4.98907e-12)
(1.8436 -5.352e-05 -1.12756e-11)
(1.84361 -3.81058e-05 -4.43171e-12)
(1.84362 -2.52408e-05 1.9108e-12)
(1.84362 -1.45997e-05 3.08565e-12)
(1.84363 -5.8878e-06 2.44173e-12)
(1.84363 1.15247e-06 9.33314e-13)
(1.84363 6.75489e-06 -1.33565e-12)
(1.84363 1.11222e-05 -4.62084e-12)
(1.84362 1.44387e-05 -9.23451e-12)
(1.84362 1.68624e-05 -1.45698e-11)
(1.84362 1.85374e-05 -1.44564e-11)
(1.84361 1.95855e-05 -7.32756e-12)
(1.84361 2.01183e-05 -3.17592e-12)
(1.84361 2.02281e-05 -5.56565e-12)
(1.8436 2e-05 -1.05128e-11)
(1.8436 1.95028e-05 -1.56319e-11)
(1.84359 1.88005e-05 -1.43039e-11)
(1.84359 1.79428e-05 -5.50773e-12)
(1.84359 1.69769e-05 7.49971e-15)
(1.84358 1.59376e-05 -1.61074e-12)
(1.84358 1.48588e-05 -5.83008e-12)
(1.84358 1.37638e-05 -5.10042e-12)
(1.84357 1.2676e-05 2.63711e-12)
(1.84357 1.16101e-05 7.54672e-12)
(1.84357 1.05818e-05 5.52982e-12)
(1.84357 9.59891e-06 -1.00136e-12)
(1.84356 8.67173e-06 -1.45573e-11)
(1.84356 7.80336e-06 -1.26113e-11)
(1.84356 7.00015e-06 1.27111e-11)
(1.84356 6.26187e-06 2.34983e-11)
(1.84356 5.59246e-06 1.73097e-11)
(1.84356 4.98988e-06 1.3613e-11)
(1.84356 4.45655e-06 1.11587e-11)
(1.84356 3.98946e-06 9.3696e-12)
(1.84355 3.59067e-06 7.9532e-12)
(1.84355 3.25722e-06 6.73703e-12)
(1.84355 2.9912e-06 5.58845e-12)
(1.84355 2.7899e-06 4.36711e-12)
(1.84355 2.656e-06 2.87432e-12)
(1.84355 2.58721e-06 7.60933e-13)
(1.84355 2.58598e-06 -2.66637e-12)
(1.84355 2.64945e-06 -8.84917e-12)
(1.84355 2.77942e-06 -2.16724e-11)
(1.84355 2.97178e-06 -1.89397e-11)
(1.84355 3.22633e-06 7.1099e-12)
(1.84355 3.53618e-06 1.85454e-11)
(1.84355 3.8954e-06 1.29311e-11)
(1.84355 4.28644e-06 9.74561e-12)
(1.84354 4.68204e-06 7.75354e-12)
(1.84354 5.02639e-06 6.39925e-12)
(1.84354 5.22217e-06 5.4146e-12)
(1.84354 5.12457e-06 4.66142e-12)
(1.84354 4.59626e-06 4.06304e-12)
(1.00062 -0.0171376 -1.33967e-13)
(1.01006 -0.0505405 -4.75024e-13)
(1.02854 -0.0817824 -9.41325e-13)
(1.05522 -0.109672 -1.61257e-12)
(1.08842 -0.133379 -2.61434e-12)
(1.12655 -0.152433 -4.11268e-12)
(1.16811 -0.166693 -6.12412e-12)
(1.21165 -0.176298 -7.23572e-12)
(1.2559 -0.181596 -7.00785e-12)
(1.29982 -0.18308 -6.33385e-12)
(1.34256 -0.18132 -5.53303e-12)
(1.38349 -0.17691 -4.72905e-12)
(1.42217 -0.170425 -3.96945e-12)
(1.45831 -0.162402 -3.27168e-12)
(1.49178 -0.153313 -2.64374e-12)
(1.52253 -0.143564 -2.09366e-12)
(1.55059 -0.133492 -1.63533e-12)
(1.57607 -0.123369 -1.29546e-12)
(1.59908 -0.113406 -1.12834e-12)
(1.6198 -0.10376 -1.23908e-12)
(1.63838 -0.0945474 -1.83381e-12)
(1.655 -0.0858432 -3.33225e-12)
(1.66983 -0.0776944 -6.66687e-12)
(1.68305 -0.0701241 -1.41396e-11)
(1.6948 -0.0631366 -6.85434e-12)
(1.70524 -0.0567227 1.41955e-11)
(1.7145 -0.0508633 1.98766e-11)
(1.7227 -0.0455322 1.42307e-11)
(1.72997 -0.0406989 1.04857e-11)
(1.73641 -0.0363303 7.12542e-12)
(1.7421 -0.0323921 3.26164e-12)
(1.74713 -0.02885 -1.97644e-12)
(1.75157 -0.0256707 -1.00842e-11)
(1.7555 -0.0228219 -2.46045e-11)
(1.75897 -0.020273 -2.25441e-11)
(1.76204 -0.0179955 1.33885e-12)
(1.76475 -0.0159628 8.80799e-12)
(1.76714 -0.0141505 3.136e-13)
(1.76925 -0.0125359 -3.31544e-12)
(1.77111 -0.0110986 -3.26802e-12)
(1.77275 -0.00981995 -2.51579e-12)
(1.7742 -0.00868309 -2.62145e-12)
(1.77548 -0.00767279 -2.67916e-12)
(1.7766 -0.00677536 -8.34351e-13)
(1.7776 -0.00597851 2.63665e-12)
(1.77847 -0.00527123 3.55657e-12)
(1.77924 -0.00464367 -2.24023e-13)
(1.77992 -0.00408702 -6.73551e-12)
(1.78051 -0.00359345 -1.56484e-11)
(1.78103 -0.00315597 -3.11008e-11)
(1.78149 -0.00276833 -2.89109e-11)
(1.78189 -0.00242502 -1.38415e-12)
(1.78225 -0.0021211 9.04767e-12)
(1.78256 -0.00185219 -2.84236e-14)
(1.78282 -0.0016144 -7.70478e-12)
(1.78306 -0.00140428 -2.09028e-11)
(1.78326 -0.00121874 -1.83339e-11)
(1.78344 -0.00105506 8.83839e-12)
(1.78359 -0.00091081 1.98763e-11)
(1.78373 -0.000783827 1.24104e-11)
(1.78384 -0.00067219 7.88646e-12)
(1.78394 -0.000574191 4.52132e-12)
(1.78402 -0.000488305 1.23816e-12)
(1.78409 -0.000413178 -3.01678e-12)
(1.78415 -0.0003476 -9.99363e-12)
(1.7842 -0.000290493 -2.37518e-11)
(1.78425 -0.000240895 -1.93216e-11)
(1.78428 -0.000197946 1.22711e-11)
(1.78431 -0.000160879 2.96686e-11)
(1.78434 -0.00012901 3.37451e-11)
(1.78435 -0.000101726 1.99227e-11)
(1.78437 -7.84794e-05 -2.58348e-11)
(1.78438 -5.87815e-05 -3.67853e-11)
(1.78439 -4.21963e-05 -2.29021e-12)
(1.7844 -2.83327e-05 1.29544e-11)
(1.7844 -1.68437e-05 7.75089e-12)
(1.7844 -7.41804e-06 4.43823e-12)
(1.7844 2.19536e-07 1.63454e-12)
(1.7844 6.31606e-06 -1.5586e-12)
(1.7844 1.10885e-05 -6.15977e-12)
(1.7844 1.47315e-05 -1.40021e-11)
(1.7844 1.74149e-05 -2.93631e-11)
(1.7844 1.92908e-05 -2.76929e-11)
(1.78439 2.04906e-05 -7.99669e-13)
(1.78439 2.11319e-05 8.24589e-12)
(1.78439 2.13151e-05 -3.66268e-12)
(1.78438 2.11296e-05 -1.56078e-11)
(1.78438 2.06508e-05 -3.14928e-11)
(1.78438 1.99457e-05 -2.70372e-11)
(1.78438 1.90694e-05 3.17528e-12)
(1.78437 1.80713e-05 1.40446e-11)
(1.78437 1.69903e-05 1.66912e-12)
(1.78437 1.58617e-05 -1.58001e-11)
(1.78436 1.47121e-05 -1.48212e-11)
(1.78436 1.35659e-05 1.25154e-11)
(1.78436 1.24402e-05 2.31979e-11)
(1.78436 1.13509e-05 1.4342e-11)
(1.78436 1.03083e-05 7.51805e-12)
(1.78435 9.32224e-06 1.7623e-12)
(1.78435 8.39779e-06 1.20095e-12)
(1.78435 7.54052e-06 6.85631e-12)
(1.78435 6.75215e-06 1.11668e-11)
(1.78435 6.03563e-06 1.1467e-11)