/*--------------------------------*- C++ -*----------------------------------*\
| =========                 |                                                 |
| \\      /  F ield         | OpenFOAM: The Open Source CFD Toolbox           |
|  \\    /   O peration     | Version:                                        |
|   \\  /    A nd           | Website:  www.openfoam.com                      |
|    \\/     M anipulation  |                                                 |
\*---------------------------------------------------------------------------*/
FoamFile
{
    version     2.0;
    format      ascii;
    class       volVectorField;
    location    "7.9";
    object      U;
}
// * * * * * * * * * * * * * * * * * * * * * * * * * * * * * * * * * * * * * //

dimensions      [0 1 -1 0 0 0 0];


internalField   nonuniform List<vector> 
1136
(
(0.895028 -0.00561414 1.54936e-23)
(0.908438 -0.00381288 -1.10381e-22)
(0.916532 -0.00285137 2.3921e-22)
(0.922792 -0.00261087 1.19023e-23)
(0.929781 -0.00255979 -2.17226e-22)
(0.937358 -0.00226653 1.12643e-22)
(0.944074 -0.00178072 -3.45295e-23)
(0.94936 -0.00140119 1.23006e-22)
(0.953972 -0.001275 -7.96374e-23)
(0.958751 -0.00127932 -2.30052e-23)
(0.963908 -0.00125559 9.0093e-23)
(0.969005 -0.00113057 -9.91427e-23)
(0.97378 -0.000928061 4.56199e-23)
(0.978025 -0.000682654 -4.41445e-23)
(0.981903 -0.000525789 3.04463e-23)
(0.985241 -0.00048139 3.04308e-25)
(0.988067 -0.000602472 6.41743e-24)
(0.99026 -0.000779966 -1.19565e-23)
(0.991917 -0.00107636 -1.18111e-23)
(0.9932 -0.00131009 7.92491e-24)
(0.994105 -0.00156961 3.74965e-24)
(0.994967 -0.00168024 1.22894e-24)
(0.99555 -0.00179005 5.58834e-24)
(0.996243 -0.00172743 -2.03992e-25)
(0.996659 -0.00171068 2.55321e-25)
(0.997284 -0.00152649 6.51269e-27)
(0.997553 -0.00145547 1.57406e-24)
(0.99816 -0.0012135 -2.78029e-24)
(0.998299 -0.00115285 -5.53969e-25)
(0.99891 -0.000884057 2.1831e-25)
(0.945418 -0.0137268 -9.62543e-22)
(0.949654 -0.00811639 1.99285e-21)
(0.951228 -0.00475483 -5.79206e-22)
(0.951883 -0.00403592 3.38554e-22)
(0.953708 -0.00453952 -4.86824e-23)
(0.956969 -0.00454563 -6.70804e-22)
(0.960484 -0.00375515 7.59773e-22)
(0.963346 -0.00298153 -3.06506e-23)
(0.965696 -0.00272212 -4.04809e-22)
(0.968047 -0.00280223 1.42122e-22)
(0.970726 -0.00281034 1.87362e-23)
(0.973634 -0.00263077 3.74215e-23)
(0.976724 -0.00235397 7.79176e-23)
(0.979771 -0.00213515 1.6925e-22)
(0.982814 -0.00187354 -1.50245e-22)
(0.985589 -0.0014964 -2.58385e-24)
(0.98807 -0.000938173 -1.09562e-24)
(0.990072 -0.000334055 -2.77299e-23)
(0.991659 0.000268424 8.42454e-23)
(0.992942 0.000739347 -2.97788e-23)
(0.993893 0.00111052 -7.86211e-24)
(0.994813 0.00131794 -1.95152e-24)
(0.995452 0.00145966 4.17006e-24)
(0.996194 0.00146451 1.39514e-24)
(0.996645 0.00145431 -1.70431e-23)
(0.997291 0.00133655 6.84526e-24)
(0.997576 0.00126249 -4.73416e-24)
(0.998184 0.00107077 4.6053e-25)
(0.998327 0.00101016 -9.36913e-25)
(0.998929 0.000782049 -5.47776e-25)
(0.965234 -0.0126186 1.82567e-21)
(0.96067 -0.00752537 -1.55934e-21)
(0.95768 -0.00425735 3.76509e-22)
(0.956931 -0.00364247 -3.15381e-22)
(0.95855 -0.00467822 -1.13545e-21)
(0.961637 -0.00521436 -2.14399e-23)
(0.964825 -0.00449535 1.87252e-21)
(0.967394 -0.00346586 -1.5672e-22)
(0.96948 -0.00300511 -4.78089e-23)
(0.971442 -0.00307709 -4.79115e-22)
(0.973554 -0.00322724 -3.80126e-22)
(0.975812 -0.00320409 9.01804e-23)
(0.97826 -0.00301196 6.50742e-23)
(0.980806 -0.00272956 2.77225e-22)
(0.983528 -0.00245942 -9.8119e-23)
(0.986129 -0.00218941 -3.41271e-22)
(0.988508 -0.00201963 2.86669e-22)
(0.990433 -0.0018674 -5.46576e-23)
(0.991964 -0.00190304 -1.69295e-23)
(0.993154 -0.00189379 -7.65083e-23)
(0.994036 -0.00201309 6.91446e-23)
(0.994858 -0.00198943 -2.9302e-23)
(0.995436 -0.00204599 -2.33559e-23)
(0.996116 -0.00191128 -2.3376e-23)
(0.996534 -0.00188743 2.15292e-23)
(0.99716 -0.00165378 3.94969e-24)
(0.997436 -0.00159721 -2.47832e-25)
(0.998051 -0.00132762 9.2815e-24)
(0.998197 -0.00128166 -1.48669e-24)
(0.998824 -0.000993211 1.29078e-25)
(0.929579 -0.0105536 -9.0976e-22)
(0.932898 -0.00550111 -3.42313e-21)
(0.936387 -0.00387922 7.07009e-22)
(0.940665 -0.00488322 1.11118e-21)
(0.94591 -0.00695778 -4.31181e-22)
(0.951648 -0.00783554 9.89693e-23)
(0.956968 -0.00685535 -1.27525e-21)
(0.96132 -0.00539271 5.50999e-22)
(0.964829 -0.00464704 1.37654e-22)
(0.967934 -0.00460782 6.5908e-22)
(0.971085 -0.00464731 2.01095e-22)
(0.974422 -0.00451165 -1.18141e-21)
(0.977861 -0.0042348 7.50085e-22)
(0.981032 -0.00398483 -1.00702e-22)
(0.983865 -0.00362779 3.57065e-23)
(0.986236 -0.00307999 6.7815e-23)
(0.988301 -0.00221588 -2.55232e-22)
(0.989982 -0.00128499 6.45839e-23)
(0.991419 -0.000436861 7.96352e-23)
(0.992635 0.000207586 -7.6806e-23)
(0.993625 0.000655063 9.64418e-23)
(0.994579 0.000920773 -1.25444e-22)
(0.99529 0.00107824 1.09459e-22)
(0.996083 0.00113273 -5.81891e-24)
(0.996585 0.00114135 -2.36396e-23)
(0.99726 0.00109163 1.26324e-24)
(0.997575 0.00103375 -1.33382e-23)
(0.998188 0.000907737 -7.024e-24)
(0.998345 0.000856538 3.0356e-24)
(0.998946 0.000685413 1.11954e-24)
(0.888846 -0.0190915 2.66416e-21)
(0.907566 -0.0118182 -2.20159e-21)
(0.923114 -0.0082912 9.13839e-23)
(0.934138 -0.00784255 3.43198e-21)
(0.941315 -0.00912078 -1.24154e-21)
(0.946399 -0.00977238 -1.27018e-21)
(0.950616 -0.00859373 5.29598e-22)
(0.954572 -0.00666069 7.6944e-22)
(0.95854 -0.00545953 8.48738e-22)
(0.962674 -0.00528799 -1.34071e-21)
(0.967111 -0.00550323 1.06845e-21)
(0.971816 -0.00554098 -4.88903e-24)
(0.976493 -0.00524474 2.18733e-22)
(0.980718 -0.00474921 -5.57482e-22)
(0.984321 -0.00422493 3.65708e-22)
(0.987164 -0.00368749 1.4503e-22)
(0.989372 -0.00332476 -1.26518e-22)
(0.990941 -0.00291407 -1.58685e-22)
(0.992182 -0.00272519 -9.66935e-24)
(0.993124 -0.00248979 -1.28009e-23)
(0.993927 -0.00245349 -8.5639e-23)
(0.99468 -0.00228216 8.17996e-23)
(0.995277 -0.00225556 -6.63605e-23)
(0.99597 -0.00204572 -4.4246e-23)
(0.996412 -0.00199631 3.72538e-23)
(0.997055 -0.00172743 8.54537e-24)
(0.997354 -0.00167699 2.11169e-23)
(0.997975 -0.00139409 1.40042e-23)
(0.998133 -0.00136871 -1.16616e-24)
(0.998772 -0.00108688 -1.66647e-24)
(0.883037 -0.0347894 1.91335e-20)
(0.905397 -0.0251834 -4.50216e-21)
(0.924208 -0.0183943 -8.97051e-21)
(0.937204 -0.0145241 8.54708e-21)
(0.944762 -0.0133147 -4.2579e-21)
(0.948751 -0.0128968 -1.70573e-24)
(0.950826 -0.0115414 -1.68907e-22)
(0.952462 -0.00961393 1.03013e-21)
(0.954881 -0.00835065 5.11614e-22)
(0.958688 -0.00810065 -7.4693e-22)
(0.963772 -0.00816543 -3.78138e-22)
(0.96965 -0.00798958 -3.47201e-22)
(0.975488 -0.00739874 6.80607e-22)
(0.980483 -0.00662964 2.9427e-22)
(0.984267 -0.00567484 -2.09325e-22)
(0.98691 -0.00461467 6.64412e-23)
(0.98883 -0.00337649 2.29385e-22)
(0.990249 -0.00206023 -3.32231e-22)
(0.991473 -0.00101076 -8.52759e-24)
(0.992514 -0.000277594 2.48196e-22)
(0.993483 0.000188846 4.83911e-23)
(0.994397 0.000464871 -6.18814e-23)
(0.995155 0.000615076 2.63261e-23)
(0.995969 0.000705828 -3.95174e-23)
(0.996508 0.00074854 5.99426e-23)
(0.997205 0.00075999 -4.30007e-23)
(0.99755 0.000747819 4.5181e-24)
(0.998164 0.000695198 -2.04849e-23)
(0.998338 0.000667335 5.32363e-24)
(0.998946 0.000570899 1.59528e-24)
(0.918318 -0.0349398 3.23563e-21)
(0.928512 -0.0249092 -5.97302e-21)
(0.938101 -0.0178009 2.84937e-21)
(0.946501 -0.0140226 1.86548e-21)
(0.952149 -0.0120986 1.79654e-21)
(0.954154 -0.0102661 -1.83832e-21)
(0.954501 -0.00853214 -9.7479e-22)
(0.956171 -0.00787898 1.37252e-21)
(0.960268 -0.00848673 9.87689e-22)
(0.965675 -0.00939289 -8.62586e-22)
(0.971135 -0.00964593 3.20099e-22)
(0.975952 -0.00898515 7.49113e-23)
(0.98016 -0.00778818 1.87396e-22)
(0.983725 -0.00651463 4.14219e-23)
(0.986679 -0.00537193 -3.83444e-22)
(0.988985 -0.00454009 3.20918e-23)
(0.990598 -0.00391203 -2.57451e-22)
(0.991826 -0.0034915 3.10307e-22)
(0.992739 -0.00305263 -2.47382e-22)
(0.993622 -0.00287243 1.44399e-22)
(0.994398 -0.00256703 -5.10029e-23)
(0.995083 -0.00243953 6.34366e-23)
(0.995833 -0.00216067 -1.67663e-24)
(0.996313 -0.00206227 -2.70036e-23)
(0.996989 -0.00176727 3.31094e-23)
(0.997315 -0.00170226 1.34273e-23)
(0.997937 -0.00141668 -8.69522e-24)
(0.998107 -0.00139489 -6.40125e-25)
(0.998754 -0.00113103 -3.37465e-24)
(0.932352 -0.0430352 -1.84656e-21)
(0.934783 -0.0337381 -2.13573e-21)
(0.940614 -0.0268486 2.19745e-21)
(0.948901 -0.0219627 -2.01374e-22)
(0.955944 -0.0177798 2.60643e-21)
(0.959208 -0.0139071 2.00807e-22)
(0.960599 -0.0113965 1.93789e-21)
(0.963464 -0.0108723 -1.30155e-21)
(0.968442 -0.0115309 1.72361e-23)
(0.973367 -0.0119697 -1.03242e-21)
(0.97669 -0.0116004 -2.00146e-22)
(0.978321 -0.0105228 3.19782e-22)
(0.979501 -0.00920024 -2.56545e-22)
(0.980981 -0.00767293 4.60805e-22)
(0.983154 -0.00608385 3.47009e-22)
(0.98561 -0.00437667 -2.33777e-22)
(0.988023 -0.00291165 -1.23861e-22)
(0.990145 -0.0016797 -2.44247e-23)
(0.991757 -0.000850979 1.09156e-22)
(0.993129 -0.000329355 1.77562e-22)
(0.99419 -8.50953e-06 -1.4842e-22)
(0.995073 0.000156778 -2.21027e-23)
(0.995918 0.000274838 2.87316e-25)
(0.996475 0.000330964 -7.33038e-24)
(0.997189 0.000379791 -3.16545e-23)
(0.997548 0.000419048 1.58343e-23)
(0.998157 0.000423113 4.6521e-24)
(0.998343 0.000428656 3.80463e-24)
(0.998962 0.000403315 2.64884e-24)
(0.934916 -0.0397421 1.1567e-20)
(0.940564 -0.0309244 -4.97651e-21)
(0.947052 -0.0256345 -5.22219e-21)
(0.954168 -0.021818 1.657e-21)
(0.960637 -0.0176054 3.02372e-22)
(0.965622 -0.0133741 2.9525e-21)
(0.9703 -0.0109706 -1.42157e-21)
(0.975637 -0.0109999 2.27431e-22)
(0.980583 -0.0121091 1.63924e-21)
(0.983115 -0.0125575 -7.90736e-22)
(0.983131 -0.0118281 -2.34525e-23)
(0.981813 -0.0104826 6.8266e-22)
(0.981078 -0.0092212 -1.92645e-22)
(0.981495 -0.00820903 -4.53378e-22)
(0.983295 -0.00727884 4.01536e-22)
(0.985657 -0.00632179 7.98968e-23)
(0.988101 -0.00534832 -7.53096e-23)
(0.990239 -0.00462746 -1.76669e-22)
(0.991894 -0.00396191 2.76319e-22)
(0.993299 -0.00352037 -1.38744e-22)
(0.994329 -0.00303927 -3.21852e-23)
(0.995177 -0.00277929 -6.23845e-24)
(0.995987 -0.00238622 8.54599e-23)
(0.996479 -0.00218092 -2.74433e-23)
(0.997182 -0.00184675 6.24847e-25)
(0.997509 -0.0017238 1.37244e-23)
(0.998118 -0.00142829 -9.42522e-24)
(0.998294 -0.00137638 1.21051e-25)
(0.998932 -0.00113509 3.58237e-25)
(0.930679 -0.0582693 -1.08595e-20)
(0.940888 -0.0452037 8.47231e-21)
(0.949713 -0.0363603 -4.66524e-21)
(0.956554 -0.0300895 -3.66087e-21)
(0.96235 -0.0242733 -7.96171e-22)
(0.968279 -0.0189655 2.92108e-21)
(0.974687 -0.0155724 -9.95209e-22)
(0.980332 -0.0142387 1.18736e-21)
(0.983735 -0.0136727 -4.90197e-22)
(0.984737 -0.0127221 2.50198e-21)
(0.984937 -0.0113553 -1.35919e-21)
(0.985315 -0.0100312 1.64775e-21)
(0.986192 -0.00909718 -7.00974e-23)
(0.98697 -0.00817707 3.11094e-23)
(0.987839 -0.00706314 -5.91094e-22)
(0.988734 -0.00553735 -1.79467e-22)
(0.989937 -0.00402854 -1.78805e-22)
(0.991296 -0.00261268 6.11971e-23)
(0.99258 -0.00162231 1.37932e-22)
(0.99384 -0.000986944 -4.88559e-23)
(0.994835 -0.000574191 3.66469e-23)
(0.995701 -0.000367871 -1.43959e-22)
(0.996514 -0.000158341 1.30762e-22)
(0.997022 -2.68639e-05 -7.69016e-23)
(0.997719 6.71778e-05 1.4635e-24)
(0.998045 0.000175766 2.57251e-23)
(0.998643 0.000209166 1.97033e-24)
(0.998815 0.000276347 -4.10587e-24)
(0.999437 0.00026728 -1.53255e-24)
(0.94068 -0.0458143 0)
(0.948056 -0.0372924 0)
(0.954787 -0.0311317 0)
(0.960626 -0.0257837 0)
(0.965815 -0.0208339 0)
(0.971142 -0.0172104 0)
(0.976377 -0.0153765 0)
(0.980223 -0.0146975 0)
(0.98233 -0.0141619 0)
(0.984218 -0.0131915 0)
(0.986939 -0.0118601 0)
(0.990089 -0.0105895 0)
(0.992329 -0.00954425 0)
(0.993265 -0.0086447 0)
(0.993233 -0.0076799 0)
(0.993041 -0.00665357 0)
(0.993129 -0.00568515 0)
(0.993591 -0.00477727 0)
(0.994316 -0.00411008 0)
(0.995139 -0.00345367 0)
(0.995863 -0.00305982 0)
(0.996653 -0.00259786 0)
(0.997135 -0.00234506 0)
(0.997824 -0.00199026 0)
(0.998134 -0.00182465 0)
(0.998745 -0.00151859 0)
(0.998909 -0.00142716 0)
(0.999527 -0.00116263 0)
(0.943471 -0.0595833 0)
(0.947904 -0.0491906 0)
(0.952639 -0.0408768 0)
(0.958184 -0.0332244 0)
(0.963141 -0.0268746 0)
(0.967102 -0.0228182 0)
(0.971291 -0.0202527 0)
(0.976115 -0.0179897 0)
(0.980582 -0.015903 0)
(0.983936 -0.0143494 0)
(0.986196 -0.0130593 0)
(0.987776 -0.0116274 0)
(0.988962 -0.0096788 0)
(0.989915 -0.00758415 0)
(0.990742 -0.00548713 0)
(0.991539 -0.00389946 0)
(0.992388 -0.00263373 0)
(0.993285 -0.00182955 0)
(0.994152 -0.00126779 0)
(0.995035 -0.000857833 0)
(0.995725 -0.000627058 0)
(0.996499 -0.000386128 0)
(0.996963 -0.000215113 0)
(0.997632 -8.92552e-05 0)
(0.997913 6.02245e-05 0)
(0.998522 0.000137131 0)
(0.998647 0.000209873 0)
(0.999262 0.000228195 0)
(0.967162 -0.0424741 0)
(0.968143 -0.0348977 0)
(0.969837 -0.0296216 0)
(0.972491 -0.0249753 0)
(0.975575 -0.0202358 0)
(0.978903 -0.0168619 0)
(0.982426 -0.0156734 0)
(0.985472 -0.0155756 0)
(0.987385 -0.0150548 0)
(0.988299 -0.0136413 0)
(0.988622 -0.0118826 0)
(0.988726 -0.0105195 0)
(0.988857 -0.00968656 0)
(0.989273 -0.00912047 0)
(0.990003 -0.00844882 0)
(0.991009 -0.00759153 0)
(0.99207 -0.00666531 0)
(0.99319 -0.00571654 0)
(0.994137 -0.00498448 0)
(0.995097 -0.00423792 0)
(0.995782 -0.00377742 0)
(0.996555 -0.00322343 0)
(0.997 -0.00291927 0)
(0.997649 -0.00248769 0)
(0.997927 -0.00230152 0)
(0.998518 -0.00191809 0)
(0.99867 -0.00183658 0)
(0.999252 -0.00148347 0)
(0.950528 -0.0655453 0)
(0.954688 -0.0558655 0)
(0.959595 -0.0475144 0)
(0.965096 -0.0397436 0)
(0.969955 -0.033512 0)
(0.974133 -0.0293085 0)
(0.978079 -0.0258031 0)
(0.981207 -0.0220301 0)
(0.983055 -0.0185144 0)
(0.984361 -0.0160422 0)
(0.985933 -0.0142702 0)
(0.987814 -0.0125694 0)
(0.989578 -0.0103485 0)
(0.990922 -0.00798562 0)
(0.991846 -0.00564876 0)
(0.992541 -0.00395037 0)
(0.99317 -0.00261714 0)
(0.993877 -0.00179941 0)
(0.994543 -0.00119622 0)
(0.995316 -0.000764762 0)
(0.995891 -0.000490678 0)
(0.996605 -0.000233912 0)
(0.997013 -4.10073e-05 0)
(0.99764 9.27549e-05 0)
(0.997883 0.000247086 0)
(0.99846 0.00032136 0)
(0.998556 0.000386985 0)
(0.99914 0.000399427 0)
(0.971312 -0.0458594 0)
(0.97162 -0.0380545 0)
(0.972604 -0.0323289 0)
(0.975207 -0.0270336 0)
(0.977443 -0.021608 0)
(0.978595 -0.0177492 0)
(0.979966 -0.0162417 0)
(0.982139 -0.0159214 0)
(0.98448 -0.015311 0)
(0.986369 -0.0139761 0)
(0.987474 -0.0123567 0)
(0.987969 -0.0110525 0)
(0.988249 -0.0102182 0)
(0.988831 -0.00967696 0)
(0.989726 -0.00912846 0)
(0.990959 -0.00840402 0)
(0.992135 -0.00760391 0)
(0.993363 -0.00666966 0)
(0.99429 -0.00594044 0)
(0.995255 -0.00511428 0)
(0.995893 -0.00460743 0)
(0.996649 -0.003956 0)
(0.997065 -0.00362287 0)
(0.997703 -0.00309411 0)
(0.997957 -0.00290199 0)
(0.998543 -0.00241888 0)
(0.998689 -0.00234185 0)
(0.999261 -0.00190579 0)
(0.971281 -0.0632726 0)
(0.971258 -0.054875 0)
(0.972279 -0.0476292 0)
(0.974834 -0.0411013 0)
(0.977466 -0.0357208 0)
(0.980218 -0.031815 0)
(0.983515 -0.0282714 0)
(0.986114 -0.0242473 0)
(0.987082 -0.0203227 0)
(0.987321 -0.0174039 0)
(0.987951 -0.015268 0)
(0.989169 -0.0133903 0)
(0.990527 -0.011155 0)
(0.991697 -0.00884308 0)
(0.992567 -0.00644915 0)
(0.993257 -0.00461694 0)
(0.993843 -0.00307669 0)
(0.994477 -0.002114 0)
(0.995052 -0.00134585 0)
(0.995735 -0.000826752 0)
(0.996243 -0.000430474 0)
(0.996884 -0.000110821 0)
(0.997255 0.000135021 0)
(0.997821 0.000299876 0)
(0.998053 0.000465275 0)
(0.998567 0.000545429 0)
(0.998653 0.000611641 0)
(0.999178 0.000614921 0)
(0.978644 -0.0502803 0)
(0.977346 -0.0426008 0)
(0.977205 -0.0366508 0)
(0.979694 -0.0313974 0)
(0.981807 -0.026045 0)
(0.982242 -0.0217706 0)
(0.982665 -0.019323 0)
(0.98391 -0.0179268 0)
(0.985536 -0.0165698 0)
(0.987208 -0.014919 0)
(0.988538 -0.0131753 0)
(0.989314 -0.0117437 0)
(0.989644 -0.010751 0)
(0.990078 -0.0100512 0)
(0.990697 -0.00945454 0)
(0.991698 -0.00873325 0)
(0.992644 -0.00803292 0)
(0.993752 -0.0071334 0)
(0.994547 -0.00649773 0)
(0.995463 -0.00564648 0)
(0.996027 -0.00520496 0)
(0.996756 -0.0045053 0)
(0.997127 -0.00421596 0)
(0.997761 -0.00363363 0)
(0.997977 -0.00348154 0)
(0.99858 -0.0029409 0)
(0.998704 -0.00286641 0)
(0.999294 -0.00236874 0)
(0.983874 -0.0583019 0)
(0.981992 -0.0513064 0)
(0.980965 -0.0452149 0)
(0.982239 -0.0398274 0)
(0.983427 -0.0350371 0)
(0.984146 -0.0312606 0)
(0.985847 -0.0279954 0)
(0.987827 -0.0244704 0)
(0.988712 -0.0208949 0)
(0.988919 -0.018043 0)
(0.989376 -0.0158586 0)
(0.99034 -0.0139967 0)
(0.991471 -0.0118727 0)
(0.992526 -0.00972598 0)
(0.993353 -0.00743368 0)
(0.99403 -0.00560728 0)
(0.994589 -0.00396023 0)
(0.995149 -0.00286785 0)
(0.99566 -0.00192906 0)
(0.996238 -0.00128799 0)
(0.996694 -0.000756792 0)
(0.997243 -0.000340093 0)
(0.997592 4.06662e-06 0)
(0.99807 0.000259834 0)
(0.998308 0.0004962 0)
(0.998735 0.000652465 0)
(0.998837 0.000760044 0)
(0.999261 0.000798035 0)
(0.988751 -0.0521132 0)
(0.986066 -0.0453913 0)
(0.984164 -0.0396058 0)
(0.985657 -0.0346432 0)
(0.987236 -0.0297702 0)
(0.987049 -0.0255356 0)
(0.986953 -0.022521 0)
(0.987683 -0.0202969 0)
(0.988559 -0.018268 0)
(0.989506 -0.0162606 0)
(0.990475 -0.0143202 0)
(0.99118 -0.0126292 0)
(0.991459 -0.011333 0)
(0.991731 -0.0103519 0)
(0.992074 -0.00960115 0)
(0.992778 -0.00880223 0)
(0.993433 -0.00815359 0)
(0.994337 -0.00727649 0)
(0.994944 -0.00673531 0)
(0.995764 -0.00588122 0)
(0.996221 -0.0055039 0)
(0.996907 -0.0047763 0)
(0.997215 -0.00452665 0)
(0.997834 -0.00392586 0)
(0.998006 -0.00378808 0)
(0.998615 -0.00326023 0)
(0.9987 -0.00320766 0)
(0.999308 -0.00273524 0)
(0.994008 -0.0530286 0)
(0.991156 -0.0473268 0)
(0.988525 -0.0420876 0)
(0.988869 -0.0376082 0)
(0.989334 -0.0335377 0)
(0.988625 -0.0299844 0)
(0.988867 -0.0268985 0)
(0.990124 -0.0238433 0)
(0.990812 -0.0207767 0)
(0.990914 -0.0182029 0)
(0.99115 -0.0161335 0)
(0.991781 -0.0143854 0)
(0.992569 -0.012459 0)
(0.993408 -0.0105487 0)
(0.994138 -0.00845853 0)
(0.994785 -0.00671541 0)
(0.995329 -0.00504315 0)
(0.995837 -0.00385836 0)
(0.996314 -0.00277051 0)
(0.996793 -0.00200292 0)
(0.99722 -0.00132046 0)
(0.997663 -0.000796395 0)
(0.998 -0.000348687 0)
(0.998382 2.672e-06 0)
(0.998621 0.00029516 0)
(0.99895 0.00052981 0)
(0.999067 0.000663634 0)
(0.999386 0.000797988 0)
(0.998081 -0.0495295 0)
(0.994708 -0.0446682 0)
(0.991364 -0.0398949 0)
(0.991656 -0.0356083 0)
(0.992577 -0.0315099 0)
(0.991719 -0.0277085 0)
(0.991031 -0.0245987 0)
(0.991351 -0.0220386 0)
(0.991712 -0.0196923 0)
(0.992041 -0.0174668 0)
(0.992594 -0.0153704 0)
(0.993158 -0.0134619 0)
(0.993399 -0.0118793 0)
(0.993568 -0.0106002 0)
(0.993712 -0.00964408 0)
(0.994145 -0.00870739 0)
(0.994511 -0.00805084 0)
(0.995166 -0.00717238 0)
(0.995554 -0.00671131 0)
(0.996232 -0.0058641 0)
(0.996541 -0.00556484 0)
(0.99716 -0.00483642 0)
(0.997366 -0.00463777 0)
(0.99796 -0.00404751 0)
(0.998058 -0.00392986 0)
(0.998664 -0.00342408 0)
(0.9987 -0.0033737 0)
(0.99932 -0.00294557 0)
(1.00208 -0.0478596 0)
(0.998997 -0.0435279 0)
(0.995549 -0.0391494 0)
(0.995141 -0.0352393 0)
(0.995173 -0.0317716 0)
(0.993646 -0.0286283 0)
(0.992805 -0.0257826 0)
(0.99334 -0.0230768 0)
(0.993689 -0.0204238 0)
(0.993555 -0.0181032 0)
(0.993492 -0.0161491 0)
(0.993723 -0.0145249 0)
(0.994069 -0.012832 0)
(0.994561 -0.0111793 0)
(0.995083 -0.00934997 0)
(0.995619 -0.00775859 0)
(0.996101 -0.00615075 0)
(0.996539 -0.0049389 0)
(0.996982 -0.0037553 0)
(0.997366 -0.00289053 0)
(0.997776 -0.00206709 0)
(0.998106 -0.00144569 0)
(0.998449 -0.00088309 0)
(0.998721 -0.000430325 0)
(0.998977 -7.15991e-05 0)
(0.999198 0.000261122 0)
(0.999339 0.000425249 0)
(0.999535 0.000667044 0)
(1.00585 -0.0443065 0)
(1.00237 -0.040922 0)
(0.998287 -0.0374557 0)
(0.997549 -0.0340996 0)
(0.997792 -0.0308704 0)
(0.996397 -0.0277598 0)
(0.995169 -0.0249476 0)
(0.995055 -0.0224781 0)
(0.994964 -0.020212 0)
(0.994746 -0.0180642 0)
(0.994833 -0.016022 0)
(0.995157 -0.0140812 0)
(0.995329 -0.0123424 0)
(0.99544 -0.0108264 0)
(0.995469 -0.00966422 0)
(0.9957 -0.0085648 0)
(0.995825 -0.00784429 0)
(0.996236 -0.00692798 0)
(0.996405 -0.00650337 0)
(0.996912 -0.00565776 0)
(0.997044 -0.00542415 0)
(0.997569 -0.00470707 0)
(0.997639 -0.00455875 0)
(0.998183 -0.00399761 0)
(0.998185 -0.00390243 0)
(0.998761 -0.00344289 0)
(0.998738 -0.00340042 0)
(0.999352 -0.00303228 0)
(1.00868 -0.0418222 0)
(1.00538 -0.0389724 0)
(1.00162 -0.0358136 0)
(1.00079 -0.0326468 0)
(1.00051 -0.0297564 0)
(0.99853 -0.0271571 0)
(0.99697 -0.0247215 0)
(0.996869 -0.0223493 0)
(0.996848 -0.0199946 0)
(0.996476 -0.0178356 0)
(0.996169 -0.0159326 0)
(0.996081 -0.0143529 0)
(0.996026 -0.0128459 0)
(0.996114 -0.011451 0)
(0.996327 -0.00990962 0)
(0.996643 -0.00852729 0)
(0.996978 -0.00707735 0)
(0.997296 -0.00591626 0)
(0.997673 -0.00471785 0)
(0.997952 -0.00381059 0)
(0.998334 -0.00289335 0)
(0.998552 -0.00219896 0)
(0.998903 -0.00154181 0)
(0.999065 -0.000990733 0)
(0.999341 -0.000577352 0)
(0.999458 -0.00013304 0)
(0.999622 5.93472e-05 0)
(0.999692 0.000413796 0)
(1.01163 -0.0383301 0)
(1.00838 -0.0359596 0)
(1.0043 -0.0334871 0)
(1.00307 -0.0310049 0)
(1.0027 -0.0285748 0)
(1.00083 -0.0261706 0)
(0.999246 -0.023827 0)
(0.99884 -0.0216309 0)
(0.998415 -0.0196194 0)
(0.997739 -0.0177665 0)
(0.997331 -0.0160157 0)
(0.997272 -0.0142955 0)
(0.997241 -0.0126475 0)
(0.997268 -0.0110469 0)
(0.997233 -0.0097226 0)
(0.997326 -0.00847495 0)
(0.997282 -0.00765665 0)
(0.997491 -0.00666681 0)
(0.997473 -0.00621653 0)
(0.997799 -0.00535771 0)
(0.997754 -0.00515023 0)
(0.998156 -0.00444544 0)
(0.998077 -0.00432767 0)
(0.998535 -0.00380444 0)
(0.998432 -0.00372504 0)
(0.998937 -0.00332231 0)
(0.998854 -0.0032912 0)
(0.999426 -0.00298517 0)
(1.0138 -0.0351137 0)
(1.01051 -0.0333692 0)
(1.00664 -0.0313776 0)
(1.00559 -0.0291641 0)
(1.00516 -0.026967 0)
(1.00299 -0.0249289 0)
(1.00105 -0.0230027 0)
(1.00046 -0.0211086 0)
(1.00001 -0.0191882 0)
(0.999342 -0.0173231 0)
(0.998834 -0.0155428 0)
(0.998559 -0.013965 0)
(0.998281 -0.0124979 0)
(0.998071 -0.0112227 0)
(0.997949 -0.00995049 0)
(0.99795 -0.00882551 0)
(0.99805 -0.00761347 0)
(0.998184 -0.00657584 0)
(0.998437 -0.00546287 0)
(0.998579 -0.00458319 0)
(0.998901 -0.00365771 0)
(0.999005 -0.00292628 0)
(0.999344 -0.00222784 0)
(0.999405 -0.00159762 0)
(0.999688 -0.00115417 0)
(0.999711 -0.00061018 0)
(0.999891 -0.000394172 0)
(0.999846 5.63762e-05 0)
(1.01565 -0.031841 0)
(1.01263 -0.0304085 0)
(1.00887 -0.0287912 0)
(1.00768 -0.0270611 0)
(1.00703 -0.0253567 0)
(1.00479 -0.0236584 0)
(1.00292 -0.021896 0)
(1.00233 -0.0200865 0)
(1.00174 -0.0183286 0)
(1.00083 -0.0167088 0)
(1.00008 -0.0152336 0)
(0.999646 -0.0138206 0)
(0.999295 -0.0124583 0)
(0.999083 -0.0110538 0)
(0.998901 -0.00979361 0)
(0.998882 -0.00849704 0)
(0.998753 -0.0075658 0)
(0.998826 -0.00648309 0)
(0.998675 -0.00595428 0)
(0.998832 -0.00507012 0)
(0.998645 -0.00482952 0)
(0.998901 -0.00412828 0)
(0.998692 -0.00400565 0)
(0.999021 -0.00351327 0)
(0.998824 -0.00343936 0)
(0.999212 -0.00308433 0)
(0.999076 -0.00306526 0)
(0.999554 -0.00280909 0)
(1.01719 -0.0284746 0)
(1.0142 -0.027481 0)
(1.01051 -0.0263256 0)
(1.00942 -0.024971 0)
(1.00888 -0.0235134 0)
(1.00668 -0.0220137 0)
(1.00471 -0.0204929 0)
(1.00394 -0.0190089 0)
(1.00318 -0.0175651 0)
(1.00215 -0.0161671 0)
(1.00136 -0.0147588 0)
(1.00089 -0.0133716 0)
(1.00049 -0.0119901 0)
(1.00013 -0.0107347 0)
(0.999817 -0.00956043 0)
(0.999569 -0.00856681 0)
(0.999412 -0.00758907 0)
(0.999297 -0.00673247 0)
(0.999342 -0.00581451 0)
(0.999308 -0.00503166 0)
(0.999515 -0.00419532 0)
(0.999499 -0.00347797 0)
(0.999779 -0.00281043 0)
(0.999748 -0.0021475 0)
(1.00001 -0.00170432 0)
(0.999951 -0.00110155 0)
(1.00013 -0.000871972 0)
(0.999992 -0.000360126 0)
(1.01818 -0.0253069 0)
(1.01541 -0.0246263 0)
(1.01198 -0.0237374 0)
(1.01104 -0.0226513 0)
(1.01048 -0.0215016 0)
(1.00822 -0.0203409 0)
(1.0062 -0.0191298 0)
(1.00539 -0.0178765 0)
(1.00461 -0.0165956 0)
(1.00355 -0.0152912 0)
(1.0027 -0.0140024 0)
(1.00212 -0.0127429 0)
(1.00156 -0.0115851 0)
(1.00107 -0.010458 0)
(1.00063 -0.00946676 0)
(1.00038 -0.00837009 0)
(1.00014 -0.00748816 0)
(1.00009 -0.00640194 0)
(0.999878 -0.00577917 0)
(0.999905 -0.00486128 0)
(0.999645 -0.00453129 0)
(0.999745 -0.0038239 0)
(0.999451 -0.00366198 0)
(0.999619 -0.00317892 0)
(0.999356 -0.00309596 0)
(0.999586 -0.00276624 0)
(0.999412 -0.00275249 0)
(0.99974 -0.00252562 0)
(1.01895 -0.0222144 0)
(1.01638 -0.0217651 0)
(1.01312 -0.0211479 0)
(1.01228 -0.0203661 0)
(1.01176 -0.0195145 0)
(1.00956 -0.0186005 0)
(1.00759 -0.0175859 0)
(1.00678 -0.0165099 0)
(1.00597 -0.0154068 0)
(1.00485 -0.0142999 0)
(1.0039 -0.0132045 0)
(1.00321 -0.0121444 0)
(1.00257 -0.0110993 0)
(1.00201 -0.0100717 0)
(1.00157 -0.00904385 0)
(1.00123 -0.00806564 0)
(1.00095 -0.00715899 0)
(1.00065 -0.00638072 0)
(1.00046 -0.0056739 0)
(1.00022 -0.00502412 0)
(1.00024 -0.00436111 0)
(1.00008 -0.00372374 0)
(1.00024 -0.00315673 0)
(1.00012 -0.00252384 0)
(1.00032 -0.00211773 0)
(1.00019 -0.00151515 0)
(1.00034 -0.00129163 0)
(1.00013 -0.000765745 0)
(1.01938 -0.0192641 0)
(1.01698 -0.01904 0)
(1.01396 -0.0186481 0)
(1.01327 -0.0180844 0)
(1.01283 -0.017451 0)
(1.01072 -0.0167449 0)
(1.0088 -0.0159345 0)
(1.00799 -0.0150625 0)
(1.00716 -0.0141735 0)
(1.006 -0.0132564 0)
(1.005 -0.0123287 0)
(1.00427 -0.0113755 0)
(1.00359 -0.0104376 0)
(1.003 -0.0094624 0)
(1.00246 -0.0085913 0)
(1.00203 -0.00768429 0)
(1.00159 -0.00699924 0)
(1.0013 -0.00614565 0)
(1.00099 -0.0055758 0)
(1.0009 -0.00469444 0)
(1.00063 -0.0042695 0)
(1.00059 -0.00356306 0)
(1.00027 -0.00333804 0)
(1.00027 -0.00284258 0)
(0.999985 -0.00273567 0)
(1.00003 -0.00240959 0)
(0.999842 -0.00238875 0)
(0.999973 -0.00216951 0)
(1.01955 -0.0165279 0)
(1.01735 -0.016454 0)
(1.01457 -0.0162171 0)
(1.01403 -0.0158242 0)
(1.01366 -0.0153857 0)
(1.01165 -0.0148746 0)
(1.00982 -0.0142499 0)
(1.00903 -0.013563 0)
(1.0082 -0.0128497 0)
(1.00705 -0.012094 0)
(1.00604 -0.0112981 0)
(1.00528 -0.0104749 0)
(1.00456 -0.00965414 0)
(1.00389 -0.00883465 0)
(1.00328 -0.00806718 0)
(1.00276 -0.00730172 0)
(1.00232 -0.00659146 0)
(1.00194 -0.00585143 0)
(1.00166 -0.00520443 0)
(1.00132 -0.00458305 0)
(1.00112 -0.00410375 0)
(1.0008 -0.00359399 0)
(1.00079 -0.00316713 0)
(1.00056 -0.00262391 0)
(1.00065 -0.00229619 0)
(1.00044 -0.00175478 0)
(1.00055 -0.00156167 0)
(1.00028 -0.0010735 0)
(1.01953 -0.0139752 0)
(1.0175 -0.0140136 0)
(1.01497 -0.0138982 0)
(1.01457 -0.0136441 0)
(1.01427 -0.0133657 0)
(1.01238 -0.0130142 0)
(1.01066 -0.0125411 0)
(1.00991 -0.0120055 0)
(1.0091 -0.0114464 0)
(1.00798 -0.0108332 0)
(1.00697 -0.0101796 0)
(1.00619 -0.00948967 0)
(1.00543 -0.0088136 0)
(1.00472 -0.00810141 0)
(1.00407 -0.00744864 0)
(1.00352 -0.00672367 0)
(1.00302 -0.00612884 0)
(1.00259 -0.00542028 0)
(1.00217 -0.0049615 0)
(1.00183 -0.00430754 0)
(1.0015 -0.00394376 0)
(1.00133 -0.00329315 0)
(1.00106 -0.00300184 0)
(1.00091 -0.00250897 0)
(1.00063 -0.00237305 0)
(1.0005 -0.00204036 0)
(1.00032 -0.00200049 0)
(1.00023 -0.00177729 0)
(1.01933 -0.0116206 0)
(1.01748 -0.0117363 0)
(1.0152 -0.0116977 0)
(1.01492 -0.0115394 0)
(1.01468 -0.0113857 0)
(1.01294 -0.0111644 0)
(1.01135 -0.0108172 0)
(1.01064 -0.0104175 0)
(1.00986 -0.0100002 0)
(1.00877 -0.00952725 0)
(1.00779 -0.00900552 0)
(1.00699 -0.00844222 0)
(1.00621 -0.00787653 0)
(1.00548 -0.00727259 0)
(1.00481 -0.00670291 0)
(1.00421 -0.00609229 0)
(1.00366 -0.00557217 0)
(1.00314 -0.00499576 0)
(1.00273 -0.00453723 0)
(1.0023 -0.00398815 0)
(1.00202 -0.00357378 0)
(1.00163 -0.00309854 0)
(1.00144 -0.00281168 0)
(1.00107 -0.00240609 0)
(1.00103 -0.00217965 0)
(1.00073 -0.00174247 0)
(1.00076 -0.00160155 0)
(1.00044 -0.00119814 0)
(1.01903 -0.00947995 0)
(1.01734 -0.00964526 0)
(1.01533 -0.00964749 0)
(1.01513 -0.00955034 0)
(1.01492 -0.0094899 0)
(1.01333 -0.00936419 0)
(1.01187 -0.00910843 0)
(1.0112 -0.00880944 0)
(1.01045 -0.00850466 0)
(1.00942 -0.0081443 0)
(1.00848 -0.00773645 0)
(1.00769 -0.00728665 0)
(1.00692 -0.00683763 0)
(1.00617 -0.00634458 0)
(1.00547 -0.00588995 0)
(1.00483 -0.0053771 0)
(1.00425 -0.00495664 0)
(1.0037 -0.00443472 0)
(1.00323 -0.00406115 0)
(1.00278 -0.00354958 0)
(1.0024 -0.00325661 0)
(1.00201 -0.00279728 0)
(1.00172 -0.00256877 0)
(1.00143 -0.00213435 0)
(1.00122 -0.00196596 0)
(1.00092 -0.00164637 0)
(1.00077 -0.00159167 0)
(1.00048 -0.0013717 0)
(1.01862 -0.00750088 0)
(1.01712 -0.00768852 0)
(1.01539 -0.00770416 0)
(1.01523 -0.00764829 0)
(1.01502 -0.00766426 0)
(1.01361 -0.00761813 0)
(1.0123 -0.00744343 0)
(1.01166 -0.0072436 0)
(1.01094 -0.00704876 0)
(1.00997 -0.00679248 0)
(1.00905 -0.00647786 0)
(1.00827 -0.00611555 0)
(1.00749 -0.00575026 0)
(1.00674 -0.00534557 0)
(1.00604 -0.00497469 0)
(1.00538 -0.00455559 0)
(1.00478 -0.00420859 0)
(1.00419 -0.00378721 0)
(1.0037 -0.00347791 0)
(1.00317 -0.00307556 0)
(1.00279 -0.00281084 0)
(1.00233 -0.00243403 0)
(1.00207 -0.00221057 0)
(1.00164 -0.00187924 0)
(1.00146 -0.00174683 0)
(1.00105 -0.00145153 0)
(1.001 -0.00137046 0)
(1.00062 -0.00108029 0)
(1.0182 -0.00570285 0)
(1.01689 -0.00588557 0)
(1.01542 -0.00587773 0)
(1.01521 -0.00583284 0)
(1.01496 -0.00589554 0)
(1.01373 -0.00589274 0)
(1.01256 -0.0057551 0)
(1.01191 -0.005602 0)
(1.01123 -0.00546641 0)
(1.01037 -0.00528535 0)
(1.00954 -0.00506711 0)
(1.0088 -0.00482144 0)
(1.00804 -0.0045789 0)
(1.00728 -0.00429511 0)
(1.00655 -0.00402971 0)
(1.00585 -0.00370892 0)
(1.00523 -0.00344412 0)
(1.0046 -0.00310524 0)
(1.00409 -0.00286266 0)
(1.00353 -0.00252637 0)
(1.00312 -0.002316 0)
(1.00263 -0.00200023 0)
(1.00231 -0.00183793 0)
(1.00187 -0.00156071 0)
(1.00166 -0.00144375 0)
(1.00124 -0.00119273 0)
(1.00113 -0.0011264 0)
(1.00069 -0.000941165 0)
(1.01773 -0.004027 0)
(1.0167 -0.00418945 0)
(1.01551 -0.00416533 0)
(1.01519 -0.00413946 0)
(1.01488 -0.00422002 0)
(1.01389 -0.00422419 0)
(1.01288 -0.0041396 0)
(1.01222 -0.00411247 0)
(1.01153 -0.00412404 0)
(1.01068 -0.00404214 0)
(1.00982 -0.00384696 0)
(1.00905 -0.00357978 0)
(1.0083 -0.00331616 0)
(1.00758 -0.00305601 0)
(1.00689 -0.00285206 0)
(1.00621 -0.00263635 0)
(1.0056 -0.0024739 0)
(1.00497 -0.00225515 0)
(1.00443 -0.00209986 0)
(1.00385 -0.00186875 0)
(1.00342 -0.00172485 0)
(1.00288 -0.00150139 0)
(1.00255 -0.00138217 0)
(1.00206 -0.00117301 0)
(1.00184 -0.00108779 0)