/*--------------------------------*- C++ -*----------------------------------*\
| =========                 |                                                 |
| \\      /  F ield         | OpenFOAM: The Open Source CFD Toolbox           |
|  \\    /   O peration     | Version:                                        |
|   \\  /    A nd           | Website:  www.openfoam.com                      |
|    \\/     M anipulation  |                                                 |
\*---------------------------------------------------------------------------*/
FoamFile
{
    version     2.0;
    format      ascii;
    class       volScalarField;
    location    "119.8";
    object      p;
}
// * * * * * * * * * * * * * * * * * * * * * * * * * * * * * * * * * * * * * //

dimensions      [0 2 -2 0 0 0 0];


internalField   nonuniform List<scalar> 
1147
(
-1.03963
-1.04425
-1.05192
-1.05884
-1.06571
-1.10003
-1.10251
-1.06231
-1.02347
-1.00829
-1.03675
-1.04513
-1.05692
-1.0646
-1.0552
-1.06578
-1.08718
-1.05872
-1.00379
-0.969959
-1.03164
-1.04313
-1.0492
-1.04856
-1.04239
-1.02499
-1.01191
-0.980855
-0.940148
-0.907334
-1.02011
-1.02771
-1.02421
-1.00533
-0.987018
-0.962599
-0.930547
-0.89676
-0.862884
-0.830357
-1.00209
-0.99438
-0.972765
-0.943329
-0.918114
-0.890645
-0.855462
-0.821545
-0.789915
-0.757157
-0.973119
-0.944047
-0.906939
-0.873301
-0.846396
-0.818199
-0.785876
-0.754357
-0.723436
-0.690074
-0.92777
-0.881239
-0.834863
-0.801447
-0.775629
-0.748526
-0.720022
-0.692637
-0.662436
-0.62959
-0.863068
-0.809405
-0.7614
-0.731766
-0.708238
-0.682521
-0.658124
-0.634916
-0.605847
-0.575107
-0.780432
-0.730837
-0.689039
-0.665261
-0.644694
-0.62092
-0.600787
-0.580798
-0.553401
-0.525585
-0.685093
-0.647357
-0.617085
-0.60063
-0.584517
-0.563653
-0.548152
-0.530361
-0.504993
-0.480364
-0.562414
-0.544902
-0.537225
-0.526445
-0.51019
-0.499522
-0.483169
-0.460842
-0.438559
-0.480432
-0.475171
-0.475217
-0.470479
-0.46004
-0.453514
-0.43941
-0.420359
-0.400075
-0.409654
-0.416184
-0.417593
-0.412805
-0.409918
-0.398754
-0.38307
-0.364659
-0.350169
-0.361693
-0.368321
-0.368886
-0.369041
-0.361051
-0.348577
-0.33202
-0.313351
-0.323206
-0.328892
-0.330917
-0.326505
-0.316599
-0.301893
-0.270686
-0.283187
-0.292373
-0.296261
-0.294568
-0.287255
-0.274428
-0.232787
-0.247801
-0.259355
-0.264542
-0.265653
-0.259986
-0.249725
-0.216056
-0.229386
-0.23579
-0.239022
-0.235465
-0.226816
-0.187262
-0.20197
-0.210228
-0.213849
-0.213319
-0.205942
-0.16136
-0.176085
-0.186611
-0.190612
-0.192019
-0.187188
-0.625882
-0.698282
-0.807255
-0.953782
-1.07388
-1.13798
-1.13551
-1.09204
-1.0544
-1.04221
-0.648725
-0.729547
-0.85239
-1.00299
-1.12247
-1.17683
-1.16207
-1.10194
-1.05338
-1.03729
-0.690078
-0.781553
-0.91946
-1.07095
-1.1985
-1.2404
-1.21023
-1.12649
-1.06174
-1.03369
-0.843258
-0.989266
-1.14414
-1.26263
-1.2941
-1.24858
-1.15054
-1.06731
-1.02622
-1.33247
-1.26793
-1.1592
-1.06491
-1.01554
-1.26037
-1.15006
-1.05491
-1.001
-1.12117
-1.03195
-0.971488
-0.984343
-0.917736
-0.837272
-0.168303
-0.148016
-0.1293
-0.112669
-0.0972231
-0.0837985
-0.0713051
-0.0598903
-0.0496605
-0.0405549
-0.0324259
-0.0253185
-0.0191206
-0.0135221
-0.0085121
-0.00404607
3.63621e-05
0.00366842
0.00686246
0.00971872
0.0122468
0.0144545
0.0163579
0.017933
0.0191962
0.0201938
0.0209637
0.0215038
0.0217726
0.0219394
-0.169507
-0.146668
-0.126056
-0.108927
-0.0938756
-0.0807541
-0.0683572
-0.0572832
-0.0475172
-0.0387372
-0.0308052
-0.0239351
-0.0178744
-0.0123262
-0.00753579
-0.00327492
0.000681315
0.00416685
0.00725491
0.0100131
0.0124287
0.0145427
0.0163895
0.0179312
0.0191925
0.0201878
0.0209416
0.0214643
0.0217386
0.0219161
-0.166669
-0.141483
-0.119888
-0.103479
-0.0890129
-0.0760696
-0.0640037
-0.0535015
-0.0442567
-0.0358375
-0.028301
-0.0219669
-0.0161656
-0.0107501
-0.00632155
-0.0022838
0.00148816
0.00474011
0.00769633
0.0103439
0.0126349
0.0146449
0.0164094
0.0178886
0.0191382
0.0201287
0.0208844
0.0214124
0.0217
0.0218916
-0.160693
-0.134209
-0.11342
-0.0978951
-0.083559
-0.0703593
-0.0586251
-0.0489951
-0.0405848
-0.032461
-0.0253448
-0.0196961
-0.014037
-0.00887539
-0.00494675
-0.00104213
0.0025025
0.00546143
0.00827167
0.0107682
0.0129238
0.0148348
0.016499
0.0178967
0.0191127
0.0200727
0.0208267
0.0213638
0.0216629
0.0218685
-0.148647
-0.123948
-0.106862
-0.0937099
-0.0796462
-0.0659606
-0.0544908
-0.045471
-0.0372982
-0.0289744
-0.0225569
-0.0176109
-0.0117261
-0.00711083
-0.00366618
0.00029356
0.00352333
0.00623601
0.00892864
0.0112403
0.0132705
0.0151003
0.016664
0.0179913
0.0191568
0.0200616
0.020802
0.0213351
0.0216356
0.0218496
-0.0209552
-0.0159729
-0.00967267
-0.00609571
-0.0026478
0.00146268
0.00424568
0.00689482
0.00949708
0.011636
0.0135939
0.015366
0.0168487
0.0181395
0.0192488
0.0200958
0.0208173
0.0213302
0.021622
0.0218371
-0.0095685
-0.0312293
-0.0498648
-0.0706341
-0.0930291
-0.114947
-0.134828
-0.151792
-0.166325
-0.177709
-0.00896878
-0.0310591
-0.0520724
-0.0753888
-0.100155
-0.123942
-0.146152
-0.165386
-0.182055
-0.1957
-0.00898019
-0.0342643
-0.0587025
-0.0844143
-0.111355
-0.13706
-0.160921
-0.182176
-0.200053
-0.214885
-0.00969918
-0.0392514
-0.0675584
-0.0956634
-0.124581
-0.152293
-0.177482
-0.200134
-0.219744
-0.235586
-0.011378
-0.0448371
-0.0770585
-0.107815
-0.138531
-0.168249
-0.195374
-0.219249
-0.240745
-0.258778
-0.0142711
-0.0510577
-0.0867512
-0.12048
-0.153314
-0.185014
-0.214397
-0.24038
-0.263374
-0.283993
-0.0184233
-0.058204
-0.0972984
-0.134081
-0.169515
-0.20349
-0.235062
-0.263561
-0.288624
-0.311035
-0.0237688
-0.0665882
-0.10918
-0.149415
-0.1875
-0.224165
-0.258091
-0.289105
-0.316579
-0.340708
-0.0303502
-0.076558
-0.122649
-0.166847
-0.207892
-0.247286
-0.283606
-0.317486
-0.34726
-0.373468
-0.0383739
-0.0885568
-0.138134
-0.186399
-0.230988
-0.273459
-0.311951
-0.348961
-0.380804
-0.409732
-0.048137
-0.102884
-0.156389
-0.208563
-0.257075
-0.303007
-0.343898
-0.38396
-0.41763
-0.449725
-0.060242
-0.1198
-0.178103
-0.233998
-0.286955
-0.336246
-0.38026
-0.422922
-0.458508
-0.49365
-0.0752246
-0.140085
-0.2039
-0.263758
-0.321493
-0.374
-0.421744
-0.466454
-0.504544
-0.54178
-0.0936613
-0.164816
-0.234472
-0.299106
-0.361604
-0.41765
-0.469166
-0.515448
-0.556564
-0.595
-0.116846
-0.195399
-0.27106
-0.341549
-0.408352
-0.468738
-0.523666
-0.57179
-0.61539
-0.654268
-0.14659
-0.233187
-0.315575
-0.392723
-0.463488
-0.528301
-0.586268
-0.636328
-0.681563
-0.720453
-0.185314
-0.280454
-0.370752
-0.455429
-0.530999
-0.598567
-0.656841
-0.710347
-0.755902
-0.793681
-0.234962
-0.339275
-0.4382
-0.530996
-0.614541
-0.688657
-0.748616
-0.79864
-0.839529
-0.873983
-0.29911
-0.411362
-0.517694
-0.615036
-0.702688
-0.779897
-0.846056
-0.893978
-0.925024
-0.94919
-0.402611
-0.53254
-0.65339
-0.759526
-0.850234
-0.919638
-0.970616
-1.00142
-1.01476
-1.01487
0.103569
0.0808687
0.0561944
0.0260346
0.123803
0.101176
0.0757776
0.0489541
0.019304
0.167896
0.14891
0.126932
0.102517
0.0753665
0.0473683
0.0188634
0.215925
0.207022
0.1938
0.176824
0.156439
0.132934
0.107037
0.0785505
0.0494502
0.0203286
0.228897
0.219505
0.205477
0.187405
0.165823
0.140946
0.113562
0.0835375
0.0525559
0.0214074
0.243263
0.233245
0.218418
0.19929
0.176433
0.150051
0.120939
0.0890169
0.0554142
0.0213422
0.259126
0.248394
0.232675
0.21239
0.188005
0.15976
0.128569
0.0943789
0.0576874
0.0201693
0.276545
0.265097
0.24837
0.226742
0.200538
0.17001
0.136254
0.0994105
0.0594581
0.0182088
0.295507
0.283385
0.265504
0.242317
0.214036
0.180896
0.144062
0.104072
0.0606887
0.0154699
0.315967
0.303174
0.283991
0.25898
0.228353
0.19235
0.152012
0.108368
0.0612326
0.0117663
0.337823
0.324322
0.303692
0.276578
0.24327
0.204127
0.159975
0.112161
0.0608491
0.00671653
0.361004
0.346711
0.324498
0.295015
0.258631
0.215917
0.167645
0.115164
0.0591676
3.225e-05
0.385415
0.370205
0.346262
0.314181
0.274334
0.227517
0.174633
0.11702
0.0555922
-0.00882256
0.410885
0.394674
0.368814
0.333877
0.290167
0.238699
0.180502
0.117184
0.0495803
-0.020911
0.437142
0.419866
0.391807
0.353622
0.305638
0.248916
0.184725
0.114697
0.0404126
-0.0374527
0.463688
0.4453
0.414692
0.372707
0.319882
0.257267
0.18637
0.108556
0.026646
-0.0595214
0.489547
0.469994
0.436425
0.389959
0.33148
0.262221
0.183633
0.0973031
0.00608656
-0.0889406
0.513366
0.49258
0.455556
0.403981
0.338899
0.261987
0.174376
0.0787383
-0.0232953
-0.128218
0.532407
0.509915
0.469471
0.411798
0.339083
0.252704
0.15448
0.0475373
-0.0661152
-0.182054
0.544246
0.519762
0.476463
0.412813
0.33137
0.232621
0.120496
-0.00362281
-0.133657
-0.268933
0.053338
0.0875683
0.066747
0.0412536
0.0345524
0.0230686
0.0156638
0.0096499
0.00487184
0.00130096
-0.00119249
-0.00278123
-0.00357857
-0.00363544
-0.00307056
-0.00203609
-0.000581037
0.00119303
0.00316056
0.00518409
0.00717414
0.0091068
0.0109856
0.0128016
0.0145252
0.0161298
0.0176032
0.018941
0.0201447
0.0212095
0.0220447
0.0225815
0.0236259
0.0237634
0.0158409
0.00862299
0.00308249
-0.00160548
-0.00519145
-0.0077009
-0.00926133
-0.0099972
-0.0100131
-0.00935888
-0.00814148
-0.00647812
-0.00443651
-0.00211356
0.00040714
0.00298174
0.00548723
0.00784377
0.0100313
0.0120628
0.0139453
0.0156756
0.0172475
0.0186643
0.0199338
0.0210624
0.0219533
0.0224933
0.0233331
0.0234531
-0.00894059
-0.0102971
-0.0129807
-0.0155375
-0.0175782
-0.0189767
-0.0195427
-0.019284
-0.0182775
-0.0166325
-0.0145126
-0.0120093
-0.00923033
-0.00625964
-0.00315475
-5.85484e-06
0.00308326
0.00599538
0.00866127
0.0110615
0.0132165
0.0151489
0.0168697
0.0183974
0.0197488
0.0209489
0.0219025
0.0224451
0.0230172
0.0231196
-0.0342338
-0.0352991
-0.0351256
-0.0349285
-0.0346491
-0.0340134
-0.0328302
-0.0310233
-0.0284813
-0.025358
-0.021865
-0.0181371
-0.0143193
-0.0105024
-0.0067307
-0.00303262
0.000562793
0.00397881
0.00712698
0.00994019
0.0124169
0.0145872
0.0164817
0.018133
0.0195696
0.0208369
0.0218571
0.022403
0.0227261
0.0228049
-0.0526813
-0.0557586
-0.0552386
-0.0538383
-0.051563
-0.0486264
-0.0451999
-0.0412932
-0.0369085
-0.0321862
-0.0272799
-0.0223432
-0.0175351
-0.0129265
-0.00857587
-0.0044958
-0.000666003
0.00292278
0.00624667
0.00924434
0.01189
0.0141975
0.0161986
0.0179275
0.0194172
0.0207222
0.0217926
0.022352
0.0224962
0.022547
-0.0700646
-0.0711356
-0.0696696
-0.0679934
-0.0645232
-0.0600541
-0.0548027
-0.0491083
-0.0431991
-0.0372186
-0.0312373
-0.0253787
-0.019768
-0.0144771
-0.00957599
-0.00509633
-0.00104411
0.00262098
0.0059453
0.00893617
0.0115936
0.0139283
0.0159651
0.0177276
0.0192453
0.0205679
0.0216742
0.0222687
0.022321
0.0223503
-0.0897502
-0.0873356
-0.082806
-0.0790893
-0.0739345
-0.0682271
-0.0618587
-0.0551252
-0.0481988
-0.0413068
-0.0345644
-0.0280683
-0.0218936
-0.0160948
-0.0107317
-0.00584358
-0.00147511
0.00238218
0.00577642
0.00876434
0.0113934
0.0137066
0.015735
0.0175015
0.0190302
0.0203592
0.0214879
0.0221369
0.0221821
0.0222092
-0.10981
-0.103941
-0.0958321
-0.0894183
-0.0818757
-0.0744927
-0.066844
-0.0591862
-0.0516026
-0.0441856
-0.0369945
-0.0301252
-0.0236255
-0.0175535
-0.011941
-0.0068037
-0.00217912
0.00191376
0.00548289
0.00856938
0.011234
0.0135453
0.0155546
0.0173024
0.0188191
0.020136
0.0212635
0.0219664
0.0220657
0.0221131
-0.126705
-0.118105
-0.107486
-0.098209
-0.0881331
-0.0789415
-0.0699797
-0.061455
-0.0532563
-0.0453923
-0.0378931
-0.0308082
-0.0241764
-0.0180451
-0.0124244
-0.00730073
-0.00266133
0.00151679
0.00521648
0.00843371
0.0111851
0.0135275
0.0155219
0.0172317
0.0187028
0.0199742
0.021063
0.0217917
0.0219682
0.0220502
-0.14153
-0.130535
-0.117814
-0.106383
-0.0942103
-0.0829955
-0.0722445
-0.0623392
-0.053226
-0.0448768
-0.0371714
-0.0300425
-0.0234462
-0.0173986
-0.0118947
-0.00693575
-0.00246215
0.00160577
0.00526953
0.00851864
0.011323
0.0136937
0.0156778
0.0173422
0.018742
0.019933
0.0209435
0.0216531
0.0218927
0.0220098
-0.153507
-0.139457
-0.124426
-0.110427
-0.0966161
-0.0843177
-0.0727882
-0.0621818
-0.0524106
-0.0435545
-0.0355837
-0.0284215
-0.0219628
-0.0160791
-0.0107349
-0.0059549
-0.00166243
0.00222389
0.00572287
0.00887293
0.011634
0.0139878
0.0159549
0.0175784
0.0189061
0.0200053
0.020917
0.0215706
0.0218399
0.0219825
-0.162554
-0.145969
-0.129361
-0.113984
-0.098816
-0.0851963
-0.0726347
-0.061361
-0.0511481
-0.0420294
-0.0338854
-0.0267199
-0.0204134
-0.0146986
-0.00952142
-0.00489566
-0.000721476
0.00301845
0.0063357
0.00932964
0.011982
0.0142752
0.0162167
0.0178122
0.0190916
0.02012
0.0209435
0.0215314
0.0218036
0.0219609
)
;

boundaryField
{
    outlet
    {
        type            fixedValue;
        value           nonuniform 0();
    }
    upperWall
    {
        type            symmetryPlane;
    }
    lowerWall
    {
        type            symmetryPlane;
    }
    inlet
    {
        type            zeroGradient;
    }
    cylinder
    {
        type            zeroGradient;
    }
    frontAndBack
    {
        type            empty;
    }
    procBoundary1to0
    {
        type            processor;
        value           nonuniform List<scalar> 
45
(
0.123643
0.123643
0.106581
0.161011
0.143853
0.143853
0.204271
0.195783
0.183541
0.183541
0.0597564
0.0904039
0.0727245
0.0727245
0.106581
0.0467863
0.0353943
0.0264346
0.0195044
0.0140066
0.00959171
0.0062388
0.0039132
0.00242413
0.00165651
0.00156259
0.00198777
0.0028628
0.0040739
0.00547643
0.00697729
0.00855463
0.0102042
0.0118985
0.013582
0.0151877
0.0166845
0.0180648
0.0193205
0.0204481
0.0214373
0.0222096
0.0227367
0.0238838
0.024039
)
;
    }
    procBoundary1to2
    {
        type            processor;
        value           nonuniform List<scalar> 
63
(
-0.586221
-0.734626
-0.586221
-0.490326
-0.40481
-0.40481
-0.335787
-0.297015
-0.297015
-0.250858
-0.211289
-0.199079
-0.199079
-0.169574
-0.142265
-0.134074
-0.744346
-0.744346
-0.902886
-1.04615
-1.19737
-1.30781
-1.30781
-1.33249
-1.33249
-1.22464
-1.22464
-1.06592
-1.06592
-0.904589
-0.904589
-0.734626
-0.134074
-0.110515
-0.0968013
-0.0860437
-0.0725335
-0.0596901
-0.0503454
-0.042864
-0.0344966
-0.0261454
-0.0261454
-0.0198961
-0.0137784
-0.00819986
-0.00574722
-0.00152733
0.00228073
0.00464159
0.0074459
0.00989214
0.0119099
0.0138398
0.0155587
0.0169891
0.018278
0.0193351
0.0201478
0.0208549
0.0213397
0.02162
0.0218311
)
;
    }
    procBoundary1to5
    {
        type            processor;
        value           nonuniform List<scalar> 
20
(
-0.599145
-0.605891
-0.638264
0.22069
0.233696
0.248335
0.264587
0.282339
0.301486
0.321979
0.343808
0.366938
0.391333
0.416832
0.443038
0.469362
0.494764
0.517907
0.536576
0.548508
)
;
    }
}


// ************************************************************************* //
