/*--------------------------------*- C++ -*----------------------------------*\
| =========                 |                                                 |
| \\      /  F ield         | OpenFOAM: The Open Source CFD Toolbox           |
|  \\    /   O peration     | Version:                                        |
|   \\  /    A nd           | Website:  www.openfoam.com                      |
|    \\/     M anipulation  |                                                 |
\*---------------------------------------------------------------------------*/
FoamFile
{
    version     2.0;
    format      ascii;
    class       volScalarField;
    location    "28.9";
    object      p;
}
// * * * * * * * * * * * * * * * * * * * * * * * * * * * * * * * * * * * * * //

dimensions      [0 2 -2 0 0 0 0];


internalField   nonuniform List<scalar> 
400
(
0.45493
0.445051
0.435307
0.425692
0.416201
0.406829
0.397574
0.38843
0.379395
0.370464
0.361635
0.352904
0.344267
0.335721
0.327264
0.318892
0.310603
0.302393
0.29426
0.286201
0.4555
0.44557
0.435781
0.426127
0.416602
0.407202
0.39792
0.388753
0.379697
0.370748
0.361902
0.353155
0.344505
0.335946
0.327478
0.319095
0.310795
0.302576
0.294434
0.286367
0.456025
0.446044
0.436212
0.426521
0.416964
0.407535
0.398229
0.389041
0.379965
0.370999
0.362137
0.353376
0.344713
0.336143
0.327663
0.319271
0.310962
0.302735
0.294585
0.286511
0.456513
0.446481
0.436606
0.426878
0.417289
0.407832
0.398502
0.389292
0.380198
0.371215
0.362339
0.353565
0.344889
0.336309
0.327819
0.319418
0.311101
0.302866
0.29471
0.286629
0.457035
0.446944
0.437018
0.427247
0.417622
0.408134
0.398777
0.389544
0.380429
0.371428
0.362536
0.353748
0.34506
0.336468
0.327968
0.319558
0.311233
0.30299
0.294827
0.286739
0.457626
0.447463
0.437478
0.427656
0.417987
0.408462
0.399073
0.389812
0.380674
0.371652
0.362742
0.353937
0.345235
0.336631
0.32812
0.3197
0.311365
0.303114
0.294943
0.286849
0.458302
0.448055
0.437998
0.428116
0.418396
0.408827
0.3994
0.390107
0.380941
0.371895
0.362963
0.354141
0.345422
0.336803
0.32828
0.319848
0.311504
0.303243
0.295064
0.286962
0.45907
0.448727
0.438588
0.428635
0.418856
0.409236
0.399766
0.390435
0.381237
0.372163
0.363207
0.354363
0.345626
0.336991
0.328453
0.320008
0.311652
0.303381
0.295193
0.287083
0.45992
0.449471
0.439242
0.429213
0.419367
0.40969
0.400171
0.390799
0.381564
0.372458
0.363475
0.354607
0.345849
0.337195
0.328641
0.320182
0.311813
0.303531
0.295332
0.287212
0.460831
0.450272
0.439948
0.429837
0.41992
0.410183
0.400612
0.391194
0.38192
0.37278
0.363767
0.354873
0.346092
0.337418
0.328846
0.32037
0.311987
0.303692
0.295482
0.287352
0.461771
0.451104
0.440685
0.430491
0.420502
0.410703
0.401077
0.391612
0.382297
0.373121
0.364077
0.355156
0.34635
0.337655
0.329064
0.320572
0.312173
0.303865
0.295642
0.287502
0.462706
0.451935
0.441425
0.431151
0.421093
0.411232
0.401553
0.392041
0.382685
0.373474
0.364398
0.355448
0.346619
0.337901
0.329291
0.320781
0.312368
0.304045
0.29581
0.287658
0.463602
0.452737
0.442143
0.431795
0.421672
0.411753
0.402023
0.392467
0.383071
0.373825
0.364718
0.355742
0.346888
0.33815
0.32952
0.320993
0.312564
0.304228
0.29598
0.287817
0.46443
0.453483
0.442814
0.4324
0.422218
0.412247
0.40247
0.392873
0.383441
0.374163
0.365028
0.356026
0.34715
0.338391
0.329743
0.3212
0.312757
0.304407
0.296148
0.287973
0.465168
0.45415
0.443418
0.432947
0.422713
0.412697
0.40288
0.393247
0.383783
0.374476
0.365315
0.356291
0.347394
0.338617
0.329953
0.321395
0.312938
0.304576
0.296306
0.288121
0.465799
0.454724
0.44394
0.433421
0.423145
0.41309
0.403239
0.393575
0.384084
0.374752
0.36557
0.356526
0.347611
0.338819
0.33014
0.321569
0.313101
0.304729
0.296448
0.288255
0.466312
0.455192
0.444367
0.433811
0.4235
0.413415
0.403537
0.393848
0.384335
0.374984
0.365784
0.356724
0.347795
0.338989
0.330299
0.321718
0.313239
0.304858
0.29657
0.288369
0.466701
0.455548
0.444692
0.434108
0.423773
0.413665
0.403766
0.394059
0.384529
0.375163
0.36595
0.356878
0.347938
0.339122
0.330423
0.321834
0.313348
0.30496
0.296666
0.288459
0.466963
0.455787
0.444911
0.434309
0.423957
0.413834
0.403922
0.394202
0.384662
0.375286
0.366063
0.356983
0.348036
0.339214
0.330509
0.321914
0.313423
0.305031
0.296732
0.288522
0.467094
0.455908
0.445022
0.43441
0.42405
0.413919
0.404
0.394275
0.384728
0.375348
0.366121
0.357037
0.348086
0.33926
0.330552
0.321954
0.313461
0.305066
0.296765
0.288553
)
;

boundaryField
{
    fixedWalls
    {
        type            zeroGradient;
    }
    inlet
    {
        type            zeroGradient;
    }
    outlet
    {
        type            fixedValue;
        value           nonuniform 0();
    }
    frontAndBack
    {
        type            empty;
    }
    procBoundary1to0
    {
        type            processor;
        value           nonuniform List<scalar> 
20
(
0.464949
0.465581
0.466166
0.466714
0.467305
0.467981
0.468757
0.469639
0.470612
0.47165
0.472714
0.473765
0.474766
0.475685
0.476499
0.477193
0.477755
0.47818
0.478465
0.478607
)
;
    }
    procBoundary1to2
    {
        type            processor;
        value           nonuniform List<scalar> 
20
(
0.278213
0.278372
0.278509
0.278621
0.278726
0.278829
0.278936
0.279048
0.279169
0.2793
0.27944
0.279586
0.279734
0.279881
0.280019
0.280145
0.280253
0.280337
0.280396
0.280426
)
;
    }
    procBoundary1to5
    {
        type            processor;
        value           nonuniform List<scalar> 
20
(
0.467094
0.455908
0.445022
0.43441
0.42405
0.413919
0.404
0.394275
0.384728
0.375348
0.366121
0.357037
0.348086
0.33926
0.330552
0.321954
0.313461
0.305066
0.296765
0.288553
)
;
    }
}


// ************************************************************************* //
