/*--------------------------------*- C++ -*----------------------------------*\
| =========                 |                                                 |
| \\      /  F ield         | OpenFOAM: The Open Source CFD Toolbox           |
|  \\    /   O peration     | Version:                                        |
|   \\  /    A nd           | Website:  www.openfoam.com                      |
|    \\/     M anipulation  |                                                 |
\*---------------------------------------------------------------------------*/
FoamFile
{
    version     2.0;
    format      ascii;
    class       volVectorField;
    location    "172";
    object      U;
}
// * * * * * * * * * * * * * * * * * * * * * * * * * * * * * * * * * * * * * //

dimensions      [0 1 -1 0 0 0 0];


internalField   nonuniform List<vector> 
1164
(
(0.484025 0.722662 -2.57566e-22)
(0.446013 0.65951 -8.90509e-21)
(0.43434 0.596223 1.00433e-20)
(0.43718 0.54874 -7.32492e-22)
(0.481116 0.50818 6.37138e-21)
(0.578093 0.47046 3.48465e-20)
(0.358299 0.344635 -1.60747e-21)
(0.285167 0.323591 1.5287e-20)
(0.276268 0.300343 -8.46496e-21)
(0.330162 0.280135 -1.55669e-20)
(0.409532 0.26786 -8.55236e-21)
(0.452105 0.262131 -6.66514e-21)
(0.502821 0.250947 3.71122e-21)
(0.590183 0.235545 -1.87938e-21)
(0.686356 0.209987 2.9325e-21)
(0.783477 0.221506 1.02548e-21)
(0.384768 -0.0388458 2.93156e-21)
(0.332651 0.0028479 -5.92349e-21)
(0.306637 0.04429 3.17789e-21)
(0.298957 0.105308 3.4481e-21)
(0.34315 0.144726 -6.70217e-22)
(0.42087 0.157472 -2.35148e-20)
(0.510564 0.164065 -9.57742e-21)
(0.549991 0.162581 -2.3045e-21)
(0.58887 0.148998 -1.51597e-21)
(0.665229 0.1207 -5.73107e-22)
(0.45879 -0.51628 1.03003e-22)
(0.375753 -0.47979 3.67177e-21)
(0.344689 -0.434778 -2.2978e-21)
(0.363612 -0.374189 7.10186e-21)
(0.365615 -0.281137 1.44678e-20)
(0.365517 -0.168793 2.34676e-20)
(0.411603 -0.0662392 4.5736e-21)
(0.474351 -0.0103246 2.31594e-21)
(0.562379 0.0446597 -1.88005e-21)
(0.613337 0.0629842 -1.85072e-22)
(0.470571 -0.634468 -2.46761e-21)
(0.454511 -0.585896 -5.08926e-22)
(0.478246 -0.516767 -9.44802e-21)
(0.518672 -0.468698 -2.61451e-21)
(0.576247 -0.403246 -5.52873e-21)
(0.633806 -0.339414 -1.27031e-20)
(0.638614 -0.237018 2.78061e-21)
(0.623991 -0.147129 -5.18532e-22)
(0.617474 -0.0413987 9.47918e-22)
(0.594372 0.00960585 -1.46572e-22)
(0.613202 -0.799633 1.24482e-21)
(0.582875 -0.801067 -6.93311e-21)
(0.569513 -0.745471 -1.33156e-21)
(0.563768 -0.699476 1.48204e-21)
(0.599787 -0.605069 -1.01829e-20)
(0.650815 -0.538776 -2.31181e-21)
(0.718717 -0.438513 5.37959e-21)
(0.785031 -0.344548 2.75478e-21)
(0.801871 -0.225432 -2.51123e-21)
(0.765517 -0.0807179 -1.11249e-21)
(0.591696 -0.838395 -4.89346e-22)
(0.609315 -0.871612 8.41941e-21)
(0.653805 -0.903589 2.21503e-20)
(0.706407 -0.92384 -1.58771e-20)
(0.752526 -0.899147 -3.07113e-21)
(0.765585 -0.837926 -7.17748e-21)
(0.820642 -0.768245 -1.08805e-20)
(0.831663 -0.660795 1.45611e-21)
(0.87976 -0.589012 1.50991e-21)
(0.889135 -0.44186 -3.00988e-21)
(0.451228 -0.734584 1.85039e-21)
(0.462466 -0.740091 4.94666e-22)
(0.552993 -0.83033 2.53301e-21)
(0.649301 -0.83703 5.48532e-21)
(0.777085 -0.895947 5.5592e-21)
(0.883091 -0.868526 1.15561e-20)
(0.950952 -0.873929 -2.29626e-20)
(0.987827 -0.794467 2.79524e-20)
(1.04807 -0.757923 -1.73516e-20)
(1.00676 -0.665308 -1.54761e-20)
(0.423769 -0.691273 -1.37663e-21)
(0.452738 -0.656808 -9.53424e-21)
(0.514343 -0.681241 4.05619e-21)
(0.599349 -0.644561 1.75946e-21)
(0.751219 -0.70125 2.18293e-20)
(0.857733 -0.690154 1.65071e-20)
(1.01508 -0.714961 1.99139e-20)
(1.08115 -0.705279 -1.03677e-20)
(1.14796 -0.663591 -1.2842e-20)
(1.16895 -0.677914 -2.76676e-21)
(0.553206 -0.0825442 -5.69934e-22)
(0.626061 -0.0783239 3.33909e-21)
(0.72167 -0.0916875 -1.3611e-20)
(0.815553 -0.0915917 2.27872e-20)
(0.938997 -0.142384 -4.80592e-20)
(1.03991 -0.178764 -2.44812e-20)
(1.18397 -0.252061 3.29828e-20)
(1.22138 -0.322407 6.20144e-21)
(1.34915 -0.313781 3.36152e-20)
(1.32453 -0.437669 -2.06268e-20)
(0.49659 0.217754 7.02028e-22)
(0.548074 0.277027 7.2769e-22)
(0.642184 0.310883 -1.18688e-20)
(0.743409 0.353101 5.13286e-21)
(0.888238 0.355152 3.91017e-20)
(1.03321 0.356547 -1.24454e-20)
(1.18143 0.305885 -2.54161e-20)
(1.28472 0.235162 -3.74119e-20)
(1.40257 0.189385 -2.28701e-20)
(1.4136 0.0418304 5.70621e-20)
(0.720465 0.475887 -9.4494e-22)
(0.793788 0.502166 6.39606e-21)
(0.848166 0.506498 2.75024e-21)
(0.919507 0.522218 -3.36572e-20)
(0.972121 0.522945 -1.1615e-21)
(1.0445 0.538536 -6.05832e-21)
(1.11595 0.518623 1.02569e-20)
(1.19635 0.501539 -2.74126e-21)
(1.27377 0.464557 2.75055e-21)
(1.31623 0.392396 -3.05897e-20)
(0.632232 0.74509 1.03824e-21)
(0.700428 0.728756 -3.07563e-21)
(0.75095 0.698197 1.49621e-21)
(0.860439 0.679082 1.99808e-20)
(0.94447 0.625202 3.75982e-21)
(1.05611 0.603612 1.82885e-20)
(1.13346 0.543634 1.28431e-21)
(1.20816 0.515113 9.15062e-21)
(1.25402 0.468762 1.55563e-20)
(1.30182 0.42714 2.96835e-20)
(0.558462 0.545248 -1.01693e-21)
(0.603276 0.555906 3.8475e-21)
(0.622969 0.527457 5.9394e-21)
(0.677634 0.54734 -2.02294e-21)
(0.707305 0.509429 -1.16655e-20)
(0.771061 0.506595 5.67254e-21)
(0.827465 0.459762 2.95788e-21)
(0.895809 0.425425 -3.56497e-21)
(0.963166 0.37305 -3.24495e-21)
(1.01078 0.320695 -3.61169e-21)
(0.576363 0.676853 7.52045e-22)
(0.632495 0.711419 -3.46944e-21)
(0.688687 0.700488 -2.04509e-21)
(0.761517 0.722052 6.73073e-22)
(0.825473 0.700764 6.7471e-21)
(0.890256 0.704606 -3.77347e-21)
(0.931285 0.674795 -2.36766e-22)
(0.953171 0.658011 7.45125e-21)
(0.962373 0.62889 -5.62229e-21)
(0.972565 0.562122 -1.95857e-21)
(0.698878 0.228486 2.42286e-23)
(0.685221 0.278165 -1.25402e-22)
(0.658884 0.273226 -8.04553e-21)
(0.66445 0.326999 1.66797e-21)
(0.660517 0.323617 2.95484e-21)
(0.685035 0.36824 9.59973e-22)
(0.708931 0.371013 -5.51815e-21)
(0.745203 0.403673 3.73313e-21)
(0.793665 0.430094 5.18519e-21)
(0.837262 0.45563 -7.29346e-21)
(0.72938 -0.244446 2.62097e-22)
(0.728251 -0.211453 -6.31981e-23)
(0.718776 -0.223371 7.6703e-21)
(0.735536 -0.184188 -6.13129e-21)
(0.736563 -0.198896 -8.44254e-22)
(0.75418 -0.159068 4.7746e-21)
(0.76937 -0.162846 2.78475e-22)
(0.784678 -0.12411 -2.30936e-21)
(0.811199 -0.11153 9.60429e-22)
(0.819604 -0.0671099 -1.25391e-21)
(0.758987 -0.356434 -4.03798e-22)
(0.731519 -0.351387 -1.15292e-21)
(0.715505 -0.339493 -1.50641e-21)
(0.701256 -0.33644 1.67912e-21)
(0.700676 -0.330032 -3.74159e-21)
(0.6964 -0.326616 -8.09799e-21)
(0.702585 -0.325197 -6.64027e-21)
(0.722125 -0.317905 -2.58424e-21)
(0.742844 -0.323218 -8.44464e-22)
(0.771434 -0.30386 -2.4346e-21)
(0.813239 -0.827802 -4.73137e-22)
(0.762529 -0.843186 3.32405e-21)
(0.734243 -0.817276 -5.11396e-22)
(0.686709 -0.823328 2.9133e-21)
(0.673068 -0.788932 -8.42451e-23)
(0.640808 -0.785515 -1.73246e-21)
(0.640158 -0.755416 8.20915e-21)
(0.635293 -0.739227 -1.81589e-21)
(0.638897 -0.721736 -5.34104e-21)
(0.66023 -0.694488 3.39339e-22)
(0.796998 -0.56424 3.23388e-22)
(0.793175 -0.56191 -1.18786e-21)
(0.801549 -0.543855 -3.39282e-21)
(0.8006 -0.545156 -3.28681e-21)
(0.81362 -0.520775 5.37755e-24)
(0.808985 -0.526189 9.67612e-21)
(0.825717 -0.493708 -1.13561e-20)
(0.823431 -0.500804 3.77849e-21)
(0.854677 -0.456559 1.08076e-20)
(0.854988 -0.470326 5.21032e-21)
(0.8479 -0.12661 2.01057e-22)
(0.846651 -0.108181 -3.65446e-22)
(0.851813 -0.0933978 3.5289e-21)
(0.862029 -0.084168 5.56062e-21)
(0.88422 -0.0665614 -4.39575e-21)
(0.913355 -0.0649509 2.75831e-21)
(0.954324 -0.0431616 7.009e-21)
(0.992804 -0.0482512 1.04728e-20)
(1.04252 -0.0192615 -6.62302e-21)
(1.07822 -0.0396479 -1.93827e-21)
(0.92413 0.136345 8.81795e-23)
(0.942078 0.16327 -1.24589e-22)
(0.958333 0.18934 -1.75095e-21)
(0.978861 0.212093 -7.94862e-21)
(0.997902 0.238609 5.53392e-21)
(1.02394 0.254157 -4.08166e-21)
(1.04892 0.273993 -3.32384e-21)
(1.08088 0.273118 -8.74001e-21)
(1.11386 0.284776 -1.90048e-21)
(1.152 0.261781 2.09456e-21)
(1.04117 0.793582 4.25423e-22)
(1.07033 0.78889 -8.53191e-22)
(1.08372 0.792771 -5.60149e-22)
(1.10174 0.781248 7.88081e-21)
(1.11244 0.783481 -4.59788e-21)
(1.12948 0.768762 1.84971e-21)
(1.13849 0.770512 4.1873e-21)
(1.14949 0.745336 -1.37037e-21)
(1.15372 0.738196 -5.74521e-22)
(1.16149 0.702735 -8.45799e-21)
(0.960871 0.627252 -1.09809e-23)
(0.976727 0.619108 1.2963e-22)
(0.981724 0.616273 -1.81039e-21)
(0.990907 0.60582 -3.10884e-22)
(0.992333 0.598862 -1.79478e-21)
(1.00065 0.588326 -5.13125e-21)
(1.00163 0.575872 3.56813e-21)
(1.01257 0.565586 2.03653e-22)
(1.01234 0.544971 6.0116e-21)
(1.02287 0.530295 8.4883e-21)
(0.96648 0.1478 3.39465e-23)
(0.970596 0.153662 -1.5518e-21)
(0.973752 0.15345 1.80929e-21)
(0.982313 0.163887 -1.86369e-21)
(0.982476 0.164884 2.89618e-21)
(0.983886 0.178262 5.69589e-21)
(0.969912 0.179265 -6.88521e-21)
(0.958076 0.191337 2.78174e-23)
(0.937446 0.187468 -2.54976e-21)
(0.916771 0.192045 -7.18989e-21)
(0.98965 -0.0986103 1.81621e-23)
(0.980948 -0.0826 7.36908e-22)
(0.975077 -0.0729226 4.68672e-22)
(0.969895 -0.0636678 3.74677e-22)
(0.964892 -0.0625418 9.53607e-22)
(0.957449 -0.0592942 -3.37118e-21)
(0.942035 -0.0668222 -4.84853e-22)
(0.920803 -0.0652229 -1.81958e-21)
(0.891308 -0.0784087 -4.56838e-22)
(0.85581 -0.0743738 -7.9469e-22)
(1.10284 -0.795915 2.3003e-22)
(1.07307 -0.796767 -6.66232e-22)
(1.04506 -0.79832 6.46178e-23)
(1.0086 -0.799379 -1.85662e-21)
(0.973451 -0.80568 3.07019e-21)
(0.930836 -0.805359 4.15585e-22)
(0.890693 -0.813692 3.38189e-21)
(0.846866 -0.809827 6.27249e-22)
(0.807131 -0.812826 7.99131e-22)
(0.769387 -0.805056 3.6664e-21)
(1.0062 -0.532758 -3.56432e-22)
(0.979122 -0.531453 9.42372e-23)
(0.957305 -0.526089 1.05575e-21)
(0.934192 -0.51567 1.0709e-22)
(0.919059 -0.502431 3.64588e-22)
(0.904781 -0.483597 -1.69771e-21)
(0.899547 -0.463324 -3.90284e-22)
(0.895639 -0.437078 -2.72205e-24)
(0.899577 -0.408572 2.1583e-22)
(0.903373 -0.381198 -2.0221e-22)
(1.07921 0.41357 -6.91243e-23)
(1.08476 0.414052 -1.02313e-22)
(1.09074 0.411635 -1.39967e-22)
(1.09499 0.41301 6.7206e-22)
(1.09974 0.411116 -4.61376e-22)
(1.10293 0.412316 4.18778e-22)
(1.10708 0.409525 -4.89545e-22)
(1.10998 0.408118 2.26515e-22)
(1.11275 0.404137 -1.51741e-22)
(1.1124 0.401618 1.73526e-22)
(1.00462 0.32564 2.84699e-23)
(1.00632 0.323647 -7.3178e-23)
(1.00519 0.317193 1.10181e-23)
(1.00271 0.31308 1.44239e-22)
(0.997379 0.30406 -1.99188e-22)
(0.991034 0.296829 2.14819e-22)
(0.981999 0.284751 -3.01059e-22)
(0.97294 0.273991 3.26432e-22)
(0.961365 0.258988 2.70777e-23)
(0.949632 0.244699 -1.41736e-22)
(0.889176 0.187475 0)
(0.841295 0.159328 0)
(0.890545 0.172574 0)
(0.889759 0.133693 0)
(0.923878 0.137111 0)
(0.952056 0.109969 0)
(0.96816 0.0919994 0)
(0.985375 0.0662426 0)
(0.996634 0.0497699 0)
(1.00352 0.0311817 0)
(1.01026 0.0219727 0)
(1.01505 0.0117768 0)
(1.01758 0.00856902 0)
(1.01977 0.00543826 0)
(1.02131 0.00462106 0)
(1.02239 0.00324856 0)
(1.02276 0.00237895 0)
(1.02288 0.00128765 0)
(1.02263 0.00056487 0)
(1.02227 1.23719e-05 0)
(1.02174 -0.000375214 0)
(1.0211 -0.000599127 0)
(1.02044 -0.000810036 0)
(1.01976 -0.000847103 0)
(1.01913 -0.000855246 0)
(1.01857 -0.000710076 0)
(1.01808 -0.000457556 0)
(1.01783 -0.000210697 0)
(0.731583 0.089686 0)
(0.745062 0.0108763 0)
(0.827586 -0.0125134 0)
(0.844868 -0.0467919 0)
(0.891477 -0.0231851 0)
(0.911768 -0.0334472 0)
(0.945435 -0.0211455 0)
(0.959235 -0.017698 0)
(0.972189 -0.00762114 0)
(0.985714 0.00350672 0)
(0.998471 0.00863467 0)
(1.01159 0.016803 0)
(1.01924 0.018808 0)
(1.02406 0.0225499 0)
(1.02726 0.0201296 0)
(1.02748 0.0179216 0)
(1.02657 0.0135882 0)
(1.02495 0.0104629 0)
(1.02379 0.00744912 0)
(1.02268 0.00531461 0)
(1.0219 0.00348953 0)
(1.0211 0.00204284 0)
(1.02032 0.000962749 0)
(1.01961 0.000175034 0)
(1.01892 -0.000309129 0)
(1.01834 -0.000524699 0)
(1.01785 -0.000647663 0)
(1.0174 -0.000566087 0)
(1.01702 -0.000376125 0)
(1.01682 -0.000181598 0)
(0.646168 0.0552974 0)
(0.70006 0.0391202 0)
(0.81248 0.0113264 0)
(0.899013 -0.0138668 0)
(0.932439 0.00948778 0)
(0.923357 0.0371293 0)
(0.943723 0.0529477 0)
(0.965226 0.0576768 0)
(0.989923 0.0514845 0)
(0.998105 0.045009 0)
(1.00865 0.0359819 0)
(1.01026 0.0255326 0)
(1.01407 0.0187332 0)
(1.01483 0.0116087 0)
(1.01339 0.00953623 0)
(1.01425 0.00715014 0)
(1.01531 0.00625134 0)
(1.01743 0.00462407 0)
(1.01883 0.00346372 0)
(1.02004 0.00238411 0)
(1.02071 0.00161003 0)
(1.02103 0.0010398 0)
(1.02102 0.000506039 0)
(1.0207 0.000128832 0)
(1.02025 -0.000233826 0)
(1.01973 -0.000430462 0)
(1.0192 -0.000545885 0)
(1.01872 -0.000505477 0)
(1.01829 -0.000341316 0)
(1.01807 -0.000164614 0)
(0.628547 0.0400764 0)
(0.628773 0.0385443 0)
(0.693812 0.0392637 0)
(0.84549 -0.00634972 0)
(0.986533 -0.0376982 0)
(1.01981 -0.0536186 0)
(1.00082 -0.0459519 0)
(0.987296 -0.0354619 0)
(0.968092 -0.0249402 0)
(0.976374 -0.0179338 0)
(0.980677 -0.0101081 0)
(0.996343 -0.00308723 0)
(1.00656 0.00186589 0)
(1.0157 0.00553508 0)
(1.0231 0.00580174 0)
(1.02462 0.00602762 0)
(1.02499 0.00512889 0)
(1.02376 0.00461113 0)
(1.02292 0.0038823 0)
(1.022 0.00308634 0)
(1.02122 0.00225927 0)
(1.02052 0.00138329 0)
(1.01982 0.00071342 0)
(1.01924 0.000171086 0)
(1.01871 -0.000205466 0)
(1.01824 -0.000376053 0)
(1.01784 -0.000505253 0)
(1.01746 -0.000464584 0)
(1.01711 -0.000312634 0)
(1.01694 -0.00015463 0)
(0.76986 0.00652779 0)
(0.752069 0.0626182 0)
(0.726384 0.139081 0)
(0.742873 0.179034 0)
(0.806317 0.151167 0)
(0.887422 0.0949766 0)
(0.958436 0.0598824 0)
(0.99058 0.0319912 0)
(1.01174 0.0230653 0)
(1.02002 0.0200187 0)
(1.02835 0.0155532 0)
(1.0265 0.0153398 0)
(1.02603 0.0127117 0)
(1.02207 0.0123181 0)
(1.0164 0.0111741 0)
(1.01511 0.00987818 0)
(1.01475 0.00796394 0)
(1.01637 0.00615408 0)
(1.01787 0.00450137 0)
(1.01926 0.00343016 0)
(1.02018 0.00253311 0)
(1.02064 0.00186295 0)
(1.02077 0.00115008 0)
(1.02055 0.000584264 0)
(1.02018 9.69281e-05 0)
(1.01975 -0.000213845 0)
(1.0193 -0.000397984 0)
(1.01889 -0.000411195 0)
(1.01851 -0.000290268 0)
(1.01832 -0.000143891 0)
(0.910237 -0.339332 0)
(0.915345 -0.28357 0)
(0.914119 -0.191292 0)
(0.875923 -0.148259 0)
(0.821723 -0.0884639 0)
(0.844901 -0.046224 0)
(0.88111 -0.0195205 0)
(0.914876 -0.0227226 0)
(0.939663 -0.0199755 0)
(0.955198 -0.0294802 0)
(0.96821 -0.0219571 0)
(0.987333 -0.0235227 0)
(0.997974 -0.0159277 0)
(1.00942 -0.0153634 0)
(1.01722 -0.0114939 0)
(1.01985 -0.0090603 0)
(1.0209 -0.00556624 0)
(1.02059 -0.00321545 0)
(1.02031 -0.00135312 0)
(1.01983 -0.000527848 0)
(1.01931 -8.27164e-05 0)
(1.0189 -9.88277e-05 0)
(1.01851 -0.000156051 0)
(1.01827 -0.00029227 0)
(1.01806 -0.000465884 0)
(1.01783 -0.000517818 0)
(1.01763 -0.000586431 0)
(1.0174 -0.000523466 0)
(1.01715 -0.000346266 0)
(1.01704 -0.00016375 0)
(1.06299 -0.583225 0)
(1.08153 -0.504064 0)
(1.08185 -0.461727 0)
(1.0349 -0.423376 0)
(1.00034 -0.343905 0)
(1.02207 -0.239477 0)
(1.02937 -0.179402 0)
(1.00929 -0.115572 0)
(1.00976 -0.0845991 0)
(1.02401 -0.0481239 0)
(1.04011 -0.0313915 0)
(1.03797 -0.00892859 0)
(1.03987 -0.000585531 0)
(1.0314 0.00993257 0)
(1.02531 0.0112641 0)
(1.02176 0.0116036 0)
(1.01989 0.0090524 0)
(1.01988 0.00716071 0)
(1.02025 0.0052203 0)
(1.02066 0.00410554 0)
(1.02094 0.00295716 0)
(1.02088 0.00205804 0)
(1.0207 0.00114464 0)
(1.02037 0.000416466 0)
(1.01998 -0.000105733 0)
(1.01964 -0.000420849 0)
(1.0193 -0.000583473 0)
(1.01901 -0.000551082 0)
(1.01873 -0.000378958 0)
(1.01859 -0.000174557 0)
(1.18961 -0.571213 0)
(1.19252 -0.486658 0)
(1.20584 -0.434441 0)
(1.1589 -0.339522 0)
(1.13979 -0.241515 0)
(1.135 -0.155963 0)
(1.10572 -0.12928 0)
(1.06319 -0.0978825 0)
(1.04791 -0.0772087 0)
(1.03137 -0.0536221 0)
(1.02236 -0.0422392 0)
(1.02212 -0.0349444 0)
(1.01691 -0.0290887 0)
(1.01761 -0.0276489 0)
(1.01688 -0.0226014 0)
(1.0162 -0.0181233 0)
(1.01635 -0.0123443 0)
(1.01658 -0.00849632 0)
(1.0168 -0.00526934 0)
(1.01705 -0.00356752 0)
(1.01706 -0.00228588 0)
(1.01722 -0.00163691 0)
(1.01734 -0.00125043 0)
(1.01747 -0.00104802 0)
(1.01757 -0.00104911 0)
(1.01756 -0.000987915 0)
(1.01751 -0.000950608 0)
(1.01741 -0.000797858 0)
(1.01724 -0.000514757 0)
(1.01717 -0.000222319 0)
(1.37552 -0.35012 0)
(1.45932 -0.33482 0)
(1.47916 -0.283604 0)
(1.43424 -0.233006 0)
(1.37352 -0.154023 0)
(1.25599 -0.125917 0)
(1.13953 -0.0898038 0)
(1.1041 -0.0836163 0)
(1.0767 -0.0515115 0)
(1.08082 -0.0447753 0)
(1.07034 -0.0188357 0)
(1.0653 -0.0076436 0)
(1.05523 0.00456911 0)
(1.0454 0.012476 0)
(1.03903 0.012897 0)
(1.03441 0.0125177 0)
(1.03114 0.00923231 0)
(1.0285 0.00742065 0)
(1.02674 0.00529948 0)
(1.02503 0.00393498 0)
(1.02375 0.00246748 0)
(1.02252 0.00126696 0)
(1.02156 0.000295761 0)
(1.02086 -0.000439187 0)
(1.02029 -0.000856915 0)
(1.01991 -0.00103612 0)
(1.01962 -0.00107964 0)
(1.01936 -0.000907855 0)
(1.01912 -0.000596107 0)
(1.01901 -0.000252326 0)
(1.51449 0.0464408 0)
(1.53875 0.0276378 0)
(1.54472 0.00902858 0)
(1.52061 -0.00501157 0)
(1.44154 -0.025644 0)
(1.3408 -0.0455418 0)
(1.23529 -0.030691 0)
(1.17021 -0.0209897 0)
(1.12981 -0.00186712 0)
(1.09484 0.00554232 0)
(1.07645 0.00189019 0)
(1.05075 -0.000838657 0)
(1.0391 -0.00590138 0)
(1.02634 -0.0111586 0)
(1.01647 -0.0102067 0)
(1.01197 -0.00968389 0)
(1.01043 -0.0068727 0)
(1.01114 -0.00540039 0)
(1.01209 -0.00390619 0)
(1.0134 -0.00310954 0)
(1.01443 -0.00239873 0)
(1.01539 -0.00192197 0)
(1.0162 -0.00172671 0)
(1.01674 -0.00158862 0)
(1.01716 -0.00161589 0)
(1.0174 -0.00155112 0)
(1.01751 -0.0014261 0)
(1.01755 -0.00116256 0)
(1.01747 -0.000747498 0)
(1.01745 -0.000302955 0)
(1.35274 0.328934 0)
(1.33435 0.314232 0)
(1.33589 0.258464 0)
(1.29318 0.218492 0)
(1.23144 0.158924 0)
(1.21177 0.111441 0)
(1.17046 0.0742673 0)
(1.14921 0.0499384 0)
(1.12966 0.0313396 0)
(1.08996 0.0279736 0)
(1.06676 0.0223935 0)
(1.0582 0.0209973 0)
(1.04107 0.0181816 0)
(1.03896 0.0171262 0)
(1.03884 0.0121711 0)
(1.03832 0.0100176 0)
(1.03643 0.00691242 0)
(1.03328 0.00536233 0)
(1.03019 0.00348641 0)
(1.02712 0.00193171 0)
(1.02466 0.00047784 0)
(1.02278 -0.000722137 0)
(1.02145 -0.00142184 0)
(1.02071 -0.00187299 0)
(1.02025 -0.00203855 0)
(1.02001 -0.00194724 0)
(1.01989 -0.00178196 0)
(1.01979 -0.00141308 0)
(1.01964 -0.000901449 0)
(1.0196 -0.000357179 0)
(1.34617 0.356275 0)
(1.32174 0.338367 0)
(1.32838 0.276276 0)
(1.22721 0.250995 0)
(1.19893 0.222752 0)
(1.12748 0.204706 0)
(1.0823 0.195734 0)
(1.07397 0.174158 0)
(1.07126 0.143925 0)
(1.06458 0.118302 0)
(1.06685 0.090866 0)
(1.04321 0.0662146 0)
(1.04085 0.0494811 0)
(1.02378 0.0324077 0)
(1.01191 0.0243276 0)
(1.00615 0.0151594 0)
(1.00427 0.0101942 0)
(1.0057 0.00578775 0)
(1.00772 0.00302912 0)
(1.0102 0.00119513 0)
(1.01239 -6.26243e-05 0)
(1.01408 -0.000807396 0)
(1.01544 -0.00149442 0)
(1.0163 -0.00189797 0)
(1.01692 -0.00213966 0)
(1.01737 -0.00215806 0)
(1.01766 -0.00197837 0)
(1.01785 -0.00158916 0)
(1.01789 -0.00102347 0)
(1.01793 -0.00039457 0)
(1.05899 0.240404 0)
(1.04739 0.208057 0)
(1.11952 0.131172 0)
(1.0808 0.10773 0)
(1.18353 0.0460333 0)
(1.13629 0.0464028 0)
(1.15832 0.0228985 0)
(1.06077 0.0455325 0)
(1.03396 0.0176218 0)
(0.993858 0.0418411 0)
(0.973892 0.0147318 0)
(0.976887 0.0213391 0)
(0.981207 0.0073061 0)
(0.995446 0.00595307 0)
(1.01281 7.36027e-05 0)
(1.02174 -0.00042876 0)
(1.02701 -0.00127281 0)
(1.02718 -0.00149843 0)
(1.02597 -0.00194436 0)
(1.02412 -0.00271597 0)
(1.0225 -0.00316267 0)
(1.02147 -0.00357087 0)
(1.02079 -0.00357892 0)
(1.02052 -0.00344696 0)
(1.02046 -0.00327441 0)
(1.02044 -0.00289843 0)
(1.02049 -0.00250114 0)
(1.02049 -0.00193847 0)
(1.0204 -0.00122118 0)
(1.02039 -0.000462267 0)
(1.00619 0.518756 0)
(0.983398 0.515488 0)
(0.992413 0.460983 0)
(0.996109 0.464501 0)
(1.03936 0.3898 0)
(1.02863 0.378237 0)
(1.09178 0.294329 0)
(1.03252 0.276389 0)
(1.10108 0.197161 0)
(1.06666 0.170418 0)
(1.06274 0.123272 0)
(1.05071 0.0998008 0)
(1.03645 0.0735698 0)
(1.02241 0.0600682 0)
(1.00857 0.044306 0)
(1.00512 0.032958 0)
(1.00363 0.0222973 0)
(1.0058 0.0150478 0)
(1.00824 0.00902274 0)
(1.01071 0.00515727 0)
(1.01293 0.00205024 0)
(1.01448 3.82544e-05 0)
(1.01569 -0.0014227 0)
(1.01657 -0.00231918 0)
(1.0172 -0.00269385 0)
(1.01777 -0.00271633 0)
(1.01819 -0.00247484 0)
(1.01849 -0.00196 0)
(1.01862 -0.00126043 0)
(1.01872 -0.000474791 0)
(0.898909 0.444987 0)
(0.922968 0.428789 0)
(0.942571 0.42375 0)
(0.947456 0.419997 0)
(0.944737 0.409563 0)
(0.916393 0.390726 0)
(0.883918 0.348248 0)
(0.788196 0.277054 0)
(0.799543 0.218811 0)
(0.808243 0.132927 0)
(0.837317 0.0900418 0)
(0.876988 0.0340097 0)
(0.912718 0.0156517 0)
(0.947007 -0.0090322 0)
(0.973872 -0.0117776 0)
(0.990914 -0.0152096 0)
(1.00209 -0.0124066 0)
(1.00865 -0.0114407 0)
(1.01224 -0.00916585 0)
(1.01477 -0.0080284 0)
(1.01637 -0.00670933 0)
(1.01779 -0.00585297 0)
(1.01886 -0.00520569 0)
(1.01963 -0.00459276 0)
(1.02029 -0.00417948 0)
(1.02073 -0.00365623 0)
(1.02106 -0.00307712 0)
(1.02129 -0.00236796 0)
(1.02134 -0.00149031 0)
(1.0214 -0.000547771 0)
(0.840085 -0.0512636 0)
(0.860314 -0.0742302 0)
(0.894378 -0.0891278 0)
(0.905065 -0.114262 0)
(0.92441 -0.137785 0)
(0.898772 -0.161407 0)
(0.835846 -0.183076 0)
(0.745624 -0.200124 0)
(0.73799 -0.166437 0)
(0.805617 -0.126162 0)
(0.86602 -0.087784 0)
(0.918213 -0.0458612 0)
(0.956037 -0.0251409 0)
(0.976714 -0.000554998 0)
(0.996161 0.00508268 0)
(1.00575 0.0107594 0)
(1.01131 0.00836899 0)
(1.01295 0.00672862 0)
(1.01412 0.00340699 0)
(1.01442 0.00101892 0)
(1.015 -0.00108531 0)
(1.01554 -0.00258224 0)
(1.01611 -0.00342675 0)
(1.01687 -0.00391496 0)
(1.01756 -0.00396277 0)
(1.01825 -0.00367046 0)
(1.01886 -0.0032079 0)
(1.01931 -0.00248499 0)
(1.01956 -0.00157648 0)
(1.01972 -0.000577746 0)
(0.803528 -0.316413 0)
(0.822386 -0.317012 0)
(0.828941 -0.343208 0)
(0.835119 -0.353199 0)
(0.845462 -0.381854 0)
(0.836764 -0.368104 0)
(0.839027 -0.363974 0)
(0.845685 -0.306549 0)
(0.913847 -0.236922 0)
(0.953551 -0.1509 0)
(0.992043 -0.119564 0)
(0.979921 -0.0807273 0)
(0.989088 -0.0637071 0)
(0.988861 -0.0498774 0)
(0.985484 -0.0373538 0)
(0.988221 -0.0285184 0)
(0.992413 -0.0207157 0)
(0.999155 -0.0156132 0)
(1.00493 -0.0116253 0)
(1.01007 -0.00905704 0)
(1.01389 -0.00746246 0)
(1.01661 -0.00637358 0)
(1.01863 -0.00591231 0)
(1.01993 -0.0054426 0)
(1.02089 -0.00501133 0)
(1.02161 -0.00447504 0)
(1.0221 -0.00376752 0)
(1.02245 -0.00288784 0)
(1.0226 -0.00182036 0)
(1.0227 -0.000654423 0)
(0.692876 -0.677707 0)
(0.714694 -0.649602 0)
(0.746263 -0.628594 0)
(0.800451 -0.598074 0)
(0.865467 -0.555032 0)
(0.937753 -0.489154 0)
(1.0021 -0.426276 0)
(1.05012 -0.34237 0)
(1.10203 -0.269397 0)
(1.07573 -0.199615 0)
(1.03461 -0.15126 0)
(1.03864 -0.11893 0)
(1.01879 -0.0823726 0)
(1.02814 -0.0602378 0)
(1.03319 -0.0436677 0)
(1.03244 -0.0309066 0)
(1.02891 -0.0230483 0)
(1.02353 -0.0173648 0)
(1.0198 -0.013802 0)
(1.01731 -0.0114862 0)
(1.0161 -0.00966231 0)
(1.01608 -0.00859732 0)
(1.0165 -0.007639 0)
(1.01734 -0.00685355 0)
(1.01831 -0.00617453 0)
(1.01917 -0.00531168 0)
(1.01996 -0.00441229 0)
(1.02055 -0.00334219 0)
(1.02088 -0.00208614 0)
(1.02109 -0.000748221 0)
(0.903842 -0.401926 0)
(0.957636 -0.355928 0)
(1.02095 -0.302459 0)
(1.08473 -0.248258 0)
(1.14285 -0.189215 0)
(1.1957 -0.143457 0)
(1.23214 -0.0921068 0)
(1.26057 -0.0632736 0)
(1.25374 -0.0273034 0)
(1.25159 -0.0344241 0)
(1.17962 0.00499173 0)
(1.14457 -0.00889689 0)
(1.11442 0.0111396 0)
(1.07403 0.00970479 0)
(1.04479 0.0125425 0)
(1.02947 0.00889683 0)
(1.02038 0.00525121 0)
(1.01775 0.00194883 0)
(1.01739 -0.00141867 0)
(1.01784 -0.00341475 0)
(1.01885 -0.00536981 0)
(1.0196 -0.00637096 0)
(1.02048 -0.00693752 0)
(1.02137 -0.00705987 0)
(1.02215 -0.00667183 0)
(1.02294 -0.00598359 0)
(1.02359 -0.00503898 0)
(1.02409 -0.00382264 0)
(1.02438 -0.00239826 0)
(1.02456 -0.000852946 0)
(1.13862 -0.00152107 0)
(1.18379 0.0223364 0)
(1.22222 0.0492278 0)
(1.24561 0.0698517 0)
(1.26304 0.0884517 0)
(1.2632 0.089152 0)
(1.25218 0.0932273 0)
(1.21749 0.0732998 0)
(1.14673 0.066259 0)
(1.12779 0.0235656 0)
(1.05659 0.0158159 0)
(1.03248 -0.00478172 0)
(1.02546 -0.0178663 0)
(1.01673 -0.0315831 0)
(1.0153 -0.0334071 0)
(1.01129 -0.0348301 0)
(1.00902 -0.0295108 0)
(1.00832 -0.0259069 0)
(1.00859 -0.0212674 0)
(1.01023 -0.0181289 0)
(1.01195 -0.0153696 0)
(1.01391 -0.0133 0)
(1.01586 -0.0118254 0)
(1.01752 -0.0103913 0)
(1.01909 -0.00916714 0)
(1.02038 -0.00782342 0)
(1.0214 -0.00636459 0)
(1.02218 -0.00475986 0)
(1.02264 -0.00295 0)
(1.0229 -0.00103858 0)
(1.18598 0.260383 0)
(1.20823 0.270685 0)
(1.22877 0.269248 0)
(1.23412 0.261982 0)
(1.23812 0.256669 0)
(1.22716 0.238557 0)
(1.20684 0.205551 0)
(1.19329 0.191934 0)
(1.1579 0.149644 0)
(1.13461 0.134973 0)
(1.13299 0.0948135 0)
(1.07814 0.100915 0)
(1.07091 0.0646675 0)
(1.05214 0.0647709 0)
(1.04893 0.0411901 0)
(1.04441 0.0301555 0)
(1.03939 0.0154769 0)
(1.03409 0.006147 0)
(1.02994 -0.00142078 0)
(1.02666 -0.00611392 0)
(1.02483 -0.00918151 0)
(1.02403 -0.0108612 0)
(1.02384 -0.0112335 0)
(1.0243 -0.0109561 0)
(1.02494 -0.0101147 0)
(1.02564 -0.00879168 0)
(1.02632 -0.00725194 0)
(1.02683 -0.00542333 0)
(1.02713 -0.00336559 0)
(1.02732 -0.00118352 0)
(1.16402 0.691811 0)
(1.1624 0.672373 0)
(1.15227 0.646057 0)
(1.13778 0.617036 0)
(1.11221 0.576468 0)
(1.0867 0.53803 0)
(1.05207 0.474223 0)
(1.03786 0.419701 0)
(1.03393 0.348408 0)
(0.971655 0.276288 0)
(1.04347 0.200155 0)
(0.965192 0.136844 0)
(0.987917 0.0822245 0)
(0.971547 0.0412858 0)
(0.964054 0.0182303 0)
(0.965464 0.00222474 0)
(0.9724 -0.00547548 0)
(0.98293 -0.0111584 0)
(0.992097 -0.0136554 0)
(1.00025 -0.0150911 0)
(1.00674 -0.0157875 0)
(1.01155 -0.0154049 0)
(1.01549 -0.0148307 0)
(1.01842 -0.0137388 0)
(1.02068 -0.0122584 0)
(1.02252 -0.0105352 0)
(1.02388 -0.00855293 0)
(1.02488 -0.00634044 0)
(1.02548 -0.00392117 0)
(1.02581 -0.00136613 0)
(1.02282 0.514116 0)
(1.00582 0.470341 0)
(0.986218 0.441108 0)
(0.953538 0.39231 0)
(0.916919 0.34796 0)
(0.859221 0.283123 0)
(0.809869 0.225014 0)
(0.730196 0.145327 0)
(0.715653 0.0827789 0)
(0.651738 0.0207998 0)
(0.713853 -0.0168012 0)
(0.755091 -0.0406235 0)
(0.823208 -0.0461927 0)
(0.894806 -0.041292 0)
(0.956747 -0.0454176 0)
(0.990176 -0.039009 0)
(1.0096 -0.0361349 0)
(1.01742 -0.0317544 0)
(1.02093 -0.02814 0)
(1.02276 -0.0259285 0)
(1.02357 -0.0233573 0)
(1.0248 -0.0214151 0)
(1.02594 -0.0194108 0)
(1.02701 -0.0171333 0)
(1.02816 -0.0149548 0)
(1.0291 -0.0125416 0)
(1.0299 -0.0100261 0)
(1.03051 -0.00737406 0)
(1.03083 -0.00452788 0)
(1.03102 -0.00156874 0)
(0.896035 0.1838 0)
(0.869332 0.16025 0)
(0.845358 0.14515 0)
(0.801629 0.113422 0)
(0.756996 0.0885193 0)
(0.692177 0.0481913 0)
(0.654562 0.0177942 0)
(0.635079 -0.0222351 0)
(0.690862 -0.0396227 0)
(0.752119 -0.0649905 0)
(0.873333 -0.0584635 0)
(0.940724 -0.0483559 0)
(0.985723 -0.0246561 0)
(0.984782 -0.00481222 0)
(0.982142 -0.00155726 0)
(0.988224 -0.00052389 0)
(0.992769 -0.00679625 0)
(0.998389 -0.0104835 0)
(1.00448 -0.0157145 0)
(1.00904 -0.0179281 0)
(1.01358 -0.0193629 0)
(1.01748 -0.0197009 0)
(1.0205 -0.0187812 0)
(1.0232 -0.0174232 0)
(1.02529 -0.0155062 0)
(1.02695 -0.0131445 0)
(1.02827 -0.0105974 0)
(1.02918 -0.00779351 0)
(1.02973 -0.00479407 0)
(1.03003 -0.00165689 0)
(0.821865 -0.0935454 0)
(0.785223 -0.116131 0)
(0.743218 -0.136196 0)
(0.686701 -0.161041 0)
(0.631327 -0.176952 0)
(0.579721 -0.196954 0)
(0.54805 -0.196784 0)
(0.550434 -0.194389 0)
(0.572884 -0.169931 0)
(0.632996 -0.164223 0)
(0.765056 -0.138432 0)
(0.872501 -0.14323 0)
(0.931612 -0.11763 0)
(0.954713 -0.121738 0)
(0.964238 -0.0972584 0)
(0.977905 -0.0859106 0)
(0.988974 -0.067792 0)
(1.00067 -0.0569429 0)
(1.00898 -0.0470589 0)
(1.01589 -0.0396203 0)
(1.0215 -0.0343984 0)
(1.02534 -0.0295178 0)
(1.02852 -0.0256057 0)
(1.03087 -0.0220675 0)
(1.03256 -0.0186296 0)
(1.03389 -0.015355 0)
(1.03481 -0.0120815 0)
(1.03543 -0.00876388 0)
(1.03575 -0.00535116 0)
(1.03593 -0.00183227 0)
(0.736975 -0.800769 0)
(0.707887 -0.800317 0)
(0.677882 -0.786957 0)
(0.64817 -0.760495 0)
(0.636369 -0.717245 0)
(0.649652 -0.665529 0)
(0.680126 -0.587235 0)
(0.732761 -0.504083 0)
(0.783538 -0.397883 0)
(0.862938 -0.300018 0)
(0.914165 -0.204913 0)
(1.01209 -0.152769 0)
(1.01988 -0.116034 0)
(1.04151 -0.080384 0)
(1.05628 -0.0720999 0)
(1.0517 -0.056585 0)
(1.04553 -0.0513216 0)
(1.03722 -0.046021 0)
(1.0313 -0.0412133 0)
(1.02883 -0.0379159 0)
(1.02784 -0.0339949 0)
(1.02824 -0.0302457 0)
(1.02939 -0.0268274 0)
(1.03061 -0.0232236 0)
(1.03196 -0.0197785 0)
(1.03312 -0.0162993 0)
(1.03405 -0.0128012 0)
(1.03473 -0.00928674 0)
(1.0351 -0.0056565 0)
(1.03532 -0.00193297 0)
(0.92123 -0.343648 0)
(0.937352 -0.302679 0)
(0.959469 -0.25724 0)
(0.987936 -0.203664 0)
(1.02468 -0.15176 0)
(1.06516 -0.0971089 0)
(1.11184 -0.046316 0)
(1.1599 8.59605e-05 0)
(1.2005 0.0366684 0)
(1.21996 0.064419 0)
(1.16218 0.0881959 0)
(1.13999 0.0655925 0)
(1.14119 0.0500092 0)
(1.07178 0.0431491 0)
(1.04463 0.0153442 0)
(1.03051 0.00291725 0)
(1.0265 -0.0144513 0)
(1.02628 -0.0220046 0)
(1.02914 -0.028653 0)
(1.03182 -0.0313463 0)
(1.03437 -0.0315231 0)
(1.03668 -0.0302387 0)
(1.03832 -0.0276363 0)
(1.03964 -0.024409 0)
(1.04062 -0.0209393 0)
(1.04129 -0.0172505 0)
(1.04176 -0.0135554 0)
(1.04202 -0.00980564 0)
(1.04209 -0.00596058 0)
(1.04214 -0.00203398 0)
(1.11186 0.396948 0)
(1.11029 0.39478 0)
(1.10744 0.38735 0)
(1.10079 0.379406 0)
(1.09358 0.363154 0)
(1.08364 0.343006 0)
(1.07306 0.311509 0)
(1.05369 0.275445 0)
(1.02592 0.225736 0)
(0.984694 0.150498 0)
(0.939723 0.107125 0)
(0.86752 0.021396 0)
(0.930987 -0.0146876 0)
(0.922785 -0.0660343 0)
(0.938183 -0.0765604 0)
(0.961005 -0.0799491 0)
(0.979618 -0.0774887 0)
(0.996269 -0.0693381 0)
(1.00979 -0.0622559 0)
(1.01963 -0.0539493 0)
(1.02705 -0.046862 0)
(1.03215 -0.0402578 0)
(1.03564 -0.0342998 0)
(1.03802 -0.028965 0)
(1.03956 -0.0240364 0)
(1.04058 -0.0194204 0)
(1.04123 -0.0150532 0)
(1.04159 -0.0107874 0)
(1.04173 -0.00652555 0)
(1.0418 -0.00222134 0)
(0.936914 0.229642 0)
(0.922554 0.21213 0)
(0.906114 0.193091 0)
(0.886582 0.170254 0)
(0.865073 0.144951 0)
(0.841558 0.114561 0)
(0.81729 0.0830134 0)
(0.79479 0.0422203 0)
(0.76844 0.00927051 0)
(0.751296 -0.0438095 0)
(0.769321 -0.0663455 0)
(0.780986 -0.104283 0)
(0.878216 -0.10899 0)