/*--------------------------------*- C++ -*----------------------------------*\
| =========                 |                                                 |
| \\      /  F ield         | OpenFOAM: The Open Source CFD Toolbox           |
|  \\    /   O peration     | Version:                                        |
|   \\  /    A nd           | Website:  www.openfoam.com                      |
|    \\/     M anipulation  |                                                 |
\*---------------------------------------------------------------------------*/
FoamFile
{
    version     2.0;
    format      ascii;
    class       volScalarField;
    location    "0.1";
    object      p;
}
// * * * * * * * * * * * * * * * * * * * * * * * * * * * * * * * * * * * * * //

dimensions      [0 2 -2 0 0 0 0];


internalField   nonuniform List<scalar> 
400
(
0.161856
0.153557
0.145258
0.13696
0.128661
0.120363
0.112065
0.103767
0.095468
0.0871692
0.0788701
0.0705707
0.0622709
0.0539706
0.0456696
0.0373679
0.0290652
0.0207608
0.0124552
0.0041474
0.161856
0.153557
0.145258
0.13696
0.128661
0.120363
0.112065
0.103767
0.095468
0.0871693
0.0788702
0.0705708
0.0622711
0.0539708
0.04567
0.0373684
0.029066
0.020762
0.0124574
0.00414915
0.161856
0.153557
0.145258
0.13696
0.128661
0.120363
0.112065
0.103767
0.095468
0.0871692
0.0788702
0.0705709
0.0622711
0.053971
0.0456703
0.0373688
0.0290668
0.0207632
0.0124591
0.00415016
0.161856
0.153557
0.145259
0.13696
0.128661
0.120363
0.112065
0.103766
0.0954679
0.0871691
0.0788701
0.0705708
0.0622711
0.0539709
0.0456703
0.037369
0.0290673
0.0207641
0.01246
0.00415071
0.161856
0.153558
0.145259
0.13696
0.128661
0.120363
0.112065
0.103766
0.0954676
0.0871688
0.0788698
0.0705705
0.0622708
0.0539707
0.0456702
0.037369
0.0290675
0.0207647
0.0124604
0.00415104
0.161856
0.153558
0.145259
0.13696
0.128661
0.120363
0.112065
0.103766
0.0954672
0.0871684
0.0788694
0.07057
0.0622703
0.0539702
0.0456697
0.0373687
0.0290674
0.0207649
0.0124603
0.00415121
0.161856
0.153558
0.145259
0.13696
0.128661
0.120363
0.112064
0.103766
0.0954667
0.0871678
0.0788687
0.0705694
0.0622696
0.0539695
0.0456691
0.0373681
0.0290668
0.0207647
0.0124599
0.00415124
0.161857
0.153558
0.145259
0.13696
0.128661
0.120363
0.112064
0.103765
0.0954661
0.0871671
0.078868
0.0705686
0.0622687
0.0539685
0.0456681
0.0373673
0.029066
0.0207642
0.0124592
0.00415116
0.161857
0.153558
0.145259
0.13696
0.128661
0.120363
0.112064
0.103765
0.0954654
0.0871664
0.0788671
0.0705676
0.0622677
0.0539675
0.045667
0.0373663
0.0290649
0.0207635
0.0124582
0.004151
0.161858
0.153558
0.145258
0.13696
0.128661
0.120363
0.112063
0.103764
0.0954647
0.0871655
0.0788661
0.0705665
0.0622665
0.0539663
0.0456656
0.037365
0.0290636
0.0207625
0.0124572
0.00415079
0.161858
0.153558
0.145258
0.136959
0.128661
0.120362
0.112063
0.103763
0.095464
0.0871647
0.0788651
0.0705653
0.0622652
0.053965
0.0456642
0.0373636
0.0290622
0.0207615
0.0124561
0.00415056
0.161859
0.153558
0.145257
0.136959
0.128661
0.120362
0.112063
0.103763
0.0954633
0.0871639
0.0788642
0.0705642
0.0622639
0.0539636
0.0456627
0.0373622
0.0290608
0.0207605
0.0124551
0.00415033
0.16186
0.153557
0.145256
0.136959
0.128661
0.120362
0.112062
0.103762
0.0954627
0.0871631
0.0788632
0.070563
0.0622626
0.0539621
0.0456612
0.0373607
0.0290593
0.0207594
0.0124542
0.00415013
0.16186
0.153557
0.145256
0.136959
0.128661
0.120362
0.112062
0.103762
0.0954622
0.0871623
0.0788622
0.0705619
0.0622613
0.0539607
0.0456597
0.0373592
0.0290579
0.0207583
0.0124533
0.00414994
0.161861
0.153557
0.145255
0.136959
0.128661
0.120362
0.112062
0.103762
0.0954618
0.0871617
0.0788613
0.0705608
0.06226
0.0539593
0.0456583
0.0373578
0.0290566
0.0207573
0.0124525
0.00414978
0.16186
0.153556
0.145255
0.136959
0.128661
0.120362
0.112062
0.103762
0.0954614
0.0871611
0.0788605
0.0705598
0.0622588
0.053958
0.0456569
0.0373565
0.0290553
0.0207563
0.0124519
0.00414967
0.16186
0.153556
0.145255
0.136959
0.128661
0.120362
0.112062
0.103762
0.0954611
0.0871606
0.0788597
0.0705588
0.0622577
0.0539568
0.0456556
0.0373552
0.0290541
0.0207553
0.0124513
0.0041496
0.161859
0.153557
0.145255
0.136959
0.128662
0.120362
0.112062
0.103761
0.0954609
0.0871601
0.078859
0.070558
0.0622567
0.0539557
0.0456544
0.037354
0.0290531
0.0207545
0.0124508
0.00414957
0.161857
0.153557
0.145256
0.136959
0.128662
0.120362
0.112062
0.103762
0.0954607
0.0871598
0.0788585
0.0705572
0.0622557
0.0539547
0.0456534
0.037353
0.0290522
0.0207538
0.0124505
0.00414961
0.161856
0.153557
0.145257
0.13696
0.128662
0.120362
0.112062
0.103762
0.0954608
0.0871596
0.0788582
0.0705567
0.0622551
0.053954
0.0456528
0.0373524
0.0290516
0.0207532
0.0124503
0.00414965
)
;

boundaryField
{
    fixedWalls
    {
        type            zeroGradient;
    }
    inlet
    {
        type            zeroGradient;
    }
    outlet
    {
        type            fixedValue;
        value           uniform 0;
    }
    frontAndBack
    {
        type            empty;
    }
    procBoundary3to2
    {
        type            processor;
        value           nonuniform List<scalar> 
20
(
0.170154
0.170154
0.170154
0.170154
0.170154
0.170154
0.170154
0.170155
0.170155
0.170155
0.170156
0.170156
0.170156
0.170156
0.170156
0.170155
0.170155
0.170154
0.170152
0.170152
)
;
    }
    procBoundary3to7
    {
        type            processor;
        value           nonuniform List<scalar> 
20
(
0.161856
0.153557
0.145256
0.136959
0.128662
0.120363
0.112062
0.103762
0.0954608
0.0871597
0.0788582
0.0705567
0.062255
0.0539539
0.0456526
0.0373524
0.0290515
0.0207531
0.0124501
0.0041495
)
;
    }
}


// ************************************************************************* //
