/*--------------------------------*- C++ -*----------------------------------*\
| =========                 |                                                 |
| \\      /  F ield         | OpenFOAM: The Open Source CFD Toolbox           |
|  \\    /   O peration     | Version:                                        |
|   \\  /    A nd           | Website:  www.openfoam.com                      |
|    \\/     M anipulation  |                                                 |
\*---------------------------------------------------------------------------*/
FoamFile
{
    version     2.0;
    format      ascii;
    class       surfaceScalarField;
    location    "0.1";
    object      phi;
}
// * * * * * * * * * * * * * * * * * * * * * * * * * * * * * * * * * * * * * //

dimensions      [0 3 -1 0 0 0 0];
oriented        oriented;


internalField   nonuniform List<scalar> 
760
(
2.59385e-06
-1.498e-12
2.59386e-06
-5.7441e-12
2.59386e-06
-1.008e-12
2.59385e-06
3.69676e-12
2.59385e-06
3.88903e-12
2.59385e-06
2.16835e-12
2.59385e-06
1.69942e-12
2.59384e-06
1.64756e-12
2.59384e-06
2.94301e-12
2.59384e-06
4.30739e-12
2.59383e-06
6.58823e-12
2.59382e-06
8.8024e-12
2.59381e-06
1.06579e-11
2.5938e-06
1.35071e-11
2.59378e-06
1.63594e-11
2.59376e-06
2.12254e-11
2.59374e-06
2.47875e-11
2.59369e-06
4.22118e-11
2.59364e-06
5.64347e-11
1.83156e-10
7.46812e-06
-4.08369e-12
7.46813e-06
-1.6306e-11
7.46814e-06
-6.29369e-12
7.46814e-06
6.99777e-12
7.46813e-06
1.05484e-11
7.46812e-06
8.43841e-12
7.46812e-06
8.36334e-12
7.46811e-06
9.70219e-12
7.4681e-06
1.45186e-11
7.46808e-06
2.03054e-11
7.46806e-06
2.83265e-11
7.46803e-06
3.71788e-11
7.468e-06
4.64892e-11
7.46795e-06
5.82683e-11
7.4679e-06
7.21581e-11
7.46782e-06
9.25085e-11
7.46773e-06
1.15705e-10
7.4676e-06
1.71134e-10
7.4674e-06
2.59163e-10
5.15604e-10
1.19319e-05
-3.70822e-12
1.19319e-05
-2.65067e-11
1.19319e-05
-1.50175e-11
1.19319e-05
6.4827e-12
1.19319e-05
1.59708e-11
1.19319e-05
1.63473e-11
1.19319e-05
1.85414e-11
1.19319e-05
2.31185e-11
1.19319e-05
3.29066e-11
1.19318e-05
4.5176e-11
1.19318e-05
6.11659e-11
1.19318e-05
7.96201e-11
1.19317e-05
1.00824e-10
1.19316e-05
1.25827e-10
1.19316e-05
1.5728e-10
1.19315e-05
1.99798e-10
1.19313e-05
2.54511e-10
1.19311e-05
3.53728e-10
1.19309e-05
5.19677e-10
8.73393e-10
1.59099e-05
2.27764e-12
1.591e-05
-3.02888e-11
1.591e-05
-2.25749e-11
1.591e-05
2.05288e-12
1.591e-05
1.68474e-11
1.591e-05
2.2091e-11
1.59099e-05
2.90605e-11
1.59099e-05
3.90814e-11
1.59099e-05
5.50101e-11
1.59099e-05
7.49676e-11
1.59098e-05
1.00319e-10
1.59098e-05
1.29659e-10
1.59097e-05
1.65093e-10
1.59096e-05
2.0573e-10
1.59095e-05
2.58689e-10
1.59094e-05
3.26558e-10
1.59093e-05
4.17405e-10
1.5909e-05
5.5992e-10
1.59088e-05
7.81437e-10
1.21089e-09
1.93575e-05
9.3651e-12
1.93574e-05
-2.26419e-11
1.93574e-05
-2.08942e-11
1.93574e-05
-1.93091e-12
1.93575e-05
1.28903e-11
1.93575e-05
2.29521e-11
1.93574e-05
3.6568e-11
1.93574e-05
5.41612e-11
1.93574e-05
7.75055e-11
1.93574e-05
1.05467e-10
1.93573e-05
1.40581e-10
1.93573e-05
1.80965e-10
1.93572e-05
2.3085e-10
1.93571e-05
2.87369e-10
1.9357e-05
3.628e-10
1.93569e-05
4.55915e-10
1.93567e-05
5.81157e-10
1.93565e-05
7.63724e-10
1.93563e-05
1.01725e-09
1.50173e-09
2.22621e-05
7.71652e-12
2.22621e-05
-5.71841e-12
2.22621e-05
-4.27658e-12
2.22621e-05
1.6558e-12
2.22621e-05
8.08237e-12
2.22621e-05
1.93888e-11
2.22621e-05
3.94345e-11
2.22621e-05
6.53192e-11
2.2262e-05
9.71962e-11
2.2262e-05
1.33515e-10
2.2262e-05
1.77413e-10
2.22619e-05
2.27505e-10
2.22619e-05
2.90907e-10
2.22618e-05
3.62123e-10
2.22617e-05
4.57731e-10
2.22616e-05
5.73371e-10
2.22614e-05
7.26487e-10
2.22612e-05
9.43796e-10
2.22611e-05
1.20981e-09
1.72964e-09
2.46415e-05
-1.21076e-11
2.46414e-05
1.16509e-11
2.46414e-05
2.64636e-11
2.46414e-05
1.76486e-11
2.46414e-05
8.05834e-12
2.46414e-05
1.46413e-11
2.46414e-05
3.86307e-11
2.46414e-05
7.19698e-11
2.46414e-05
1.11657e-10
2.46414e-05
1.55822e-10
2.46413e-05
2.07677e-10
2.46413e-05
2.65793e-10
2.46412e-05
3.40061e-10
2.46412e-05
4.23106e-10
2.46411e-05
5.34616e-10
2.4641e-05
6.6887e-10
2.46409e-05
8.40931e-10
2.46407e-05
1.08531e-09
2.46406e-05
1.34947e-09
1.88719e-09
2.65372e-05
-5.21475e-11
2.65372e-05
1.94742e-11
2.65371e-05
6.42053e-11
2.65371e-05
4.51657e-11
2.65371e-05
1.6111e-11
2.65371e-05
1.25958e-11
2.65371e-05
3.62199e-11
2.65371e-05
7.47982e-11
2.65371e-05
1.20765e-10
2.65371e-05
1.71166e-10
2.6537e-05
2.29162e-10
2.6537e-05
2.93117e-10
2.6537e-05
3.75289e-10
2.65369e-05
4.66945e-10
2.65369e-05
5.88664e-10
2.65368e-05
7.36497e-10
2.65367e-05
9.18326e-10
2.65366e-05
1.18065e-09
2.65366e-05
1.43309e-09
1.97371e-09
2.80071e-05
-1.04779e-10
2.80071e-05
1.29477e-11
2.8007e-05
9.8644e-11
2.8007e-05
7.73011e-11
2.8007e-05
3.07239e-11
2.8007e-05
1.53852e-11
2.8007e-05
3.4954e-11
2.8007e-05
7.53077e-11
2.8007e-05
1.24907e-10
2.8007e-05
1.79252e-10
2.8007e-05
2.41269e-10
2.80069e-05
3.08599e-10
2.80069e-05
3.95305e-10
2.80069e-05
4.92555e-10
2.80069e-05
6.1861e-10
2.80068e-05
7.74137e-10
2.80068e-05
9.5758e-10
2.80067e-05
1.22848e-09
2.80067e-05
1.46273e-09
1.99334e-09
2.91171e-05
-1.56058e-10
2.91171e-05
-5.49563e-12
2.91171e-05
1.20642e-10
2.91171e-05
1.04556e-10
2.9117e-05
4.69273e-11
2.9117e-05
2.20501e-11
2.9117e-05
3.60174e-11
2.9117e-05
7.49071e-11
2.9117e-05
1.25006e-10
2.9117e-05
1.80555e-10
2.9117e-05
2.44451e-10
2.9117e-05
3.12939e-10
2.9117e-05
4.00329e-10
2.9117e-05
5.00007e-10
2.9117e-05
6.25561e-10
2.9117e-05
7.82941e-10
2.9117e-05
9.61118e-10
2.9117e-05
1.23172e-09
2.9117e-05
1.44397e-09
1.95343e-09
2.99342e-05
-1.91298e-10
2.99342e-05
-2.81885e-11
2.99342e-05
1.24981e-10
2.99342e-05
1.18064e-10
2.99342e-05
5.84121e-11
2.99342e-05
2.95469e-11
2.99342e-05
3.87937e-11
2.99342e-05
7.43312e-11
2.99342e-05
1.22393e-10
2.99342e-05
1.76241e-10
2.99342e-05
2.39374e-10
2.99342e-05
3.07169e-10
2.99342e-05
3.91835e-10
2.99342e-05
4.90528e-10
2.99342e-05
6.11849e-10
2.99342e-05
7.66092e-10
2.99343e-05
9.33432e-10
2.99343e-05
1.19562e-09
2.99344e-05
1.38414e-09
1.86305e-09
3.05211e-05
-1.99514e-10
3.05211e-05
-4.62375e-11
3.05211e-05
1.10471e-10
3.05211e-05
1.1174e-10
3.05211e-05
5.9457e-11
3.05211e-05
3.43698e-11
3.05211e-05
4.20292e-11
3.05211e-05
7.35391e-11
3.05211e-05
1.17853e-10
3.05211e-05
1.67588e-10
3.05211e-05
2.27032e-10
3.05211e-05
2.92378e-10
3.05211e-05
3.71991e-10
3.05212e-05
4.6646e-10
3.05212e-05
5.80314e-10
3.05212e-05
7.27411e-10
3.05213e-05
8.79935e-10
3.05214e-05
1.12652e-09
3.05215e-05
1.29079e-09
1.73159e-09
3.09326e-05
-1.74283e-10
3.09327e-05
-5.34457e-11
3.09327e-05
7.8198e-11
3.09327e-05
8.30507e-11
3.09327e-05
4.67324e-11
3.09327e-05
3.36822e-11
3.09327e-05
4.44497e-11
3.09327e-05
7.21872e-11
3.09327e-05
1.11526e-10
3.09327e-05
1.55717e-10
3.09328e-05
2.09068e-10
3.09328e-05
2.69996e-10
3.09328e-05
3.42927e-10
3.09329e-05
4.30569e-10
3.09329e-05
5.34082e-10
3.0933e-05
6.70598e-10
3.0933e-05
8.05885e-10
3.09331e-05
1.0311e-09
3.09332e-05
1.17093e-09
1.56741e-09
3.12148e-05
-1.13291e-10
3.12148e-05
-4.78697e-11
3.12148e-05
2.98092e-11
3.12148e-05
3.3069e-11
3.12149e-05
2.03835e-11
3.12149e-05
2.6315e-11
3.12149e-05
4.47143e-11
3.12149e-05
6.99571e-11
3.12149e-05
1.03504e-10
3.12149e-05
1.41444e-10
3.12149e-05
1.87228e-10
3.1215e-05
2.41683e-10
3.1215e-05
3.06411e-10
3.1215e-05
3.85262e-10
3.12151e-05
4.76289e-10
3.12152e-05
5.99223e-10
3.12153e-05
7.15857e-10
3.12154e-05
9.15536e-10
3.12155e-05
1.03075e-09
1.3776e-09
3.14038e-05
-1.95598e-11
3.14038e-05
-3.14281e-11
3.14038e-05
-3.13967e-11
3.14039e-05
-3.26763e-11
3.14039e-05
-1.62919e-11
3.14039e-05
1.29501e-11
3.14039e-05
4.18122e-11
3.14039e-05
6.63631e-11
3.14039e-05
9.39372e-11
3.1404e-05
1.25138e-10
3.1404e-05
1.62568e-10
3.1404e-05
2.0883e-10
3.14041e-05
2.64048e-10
3.14041e-05
3.32577e-10
3.14042e-05
4.09739e-10
3.14043e-05
5.16641e-10
3.14044e-05
6.1377e-10
3.14045e-05
7.85111e-10
3.14047e-05
8.75322e-10
1.16814e-09
3.15275e-05
9.5393e-11
3.15275e-05
-9.4124e-12
3.15275e-05
-9.80237e-11
3.15276e-05
-1.01926e-10
3.15276e-05
-5.52157e-11
3.15277e-05
-3.5024e-12
3.15277e-05
3.53802e-11
3.15277e-05
6.02305e-11
3.15277e-05
8.21633e-11
3.15277e-05
1.06451e-10
3.15277e-05
1.3542e-10
3.15278e-05
1.72426e-10
3.15278e-05
2.17193e-10
3.15279e-05
2.74114e-10
3.15279e-05
3.36736e-10
3.1528e-05
4.25876e-10
3.15281e-05
5.02852e-10
3.15283e-05
6.43938e-10
3.15285e-05
7.09109e-10
9.44365e-10
3.16063e-05
2.05212e-10
3.16063e-05
1.2255e-11
3.16063e-05
-1.52384e-10
3.16064e-05
-1.52942e-10
3.16064e-05
-8.30204e-11
3.16064e-05
-1.81848e-11
3.16064e-05
2.5269e-11
3.16065e-05
4.95886e-11
3.16065e-05
6.638e-11
3.16065e-05
8.42276e-11
3.16065e-05
1.05315e-10
3.16066e-05
1.32739e-10
3.16066e-05
1.66886e-10
3.16067e-05
2.11403e-10
3.16067e-05
2.5899e-10
3.16068e-05
3.28926e-10
3.1607e-05
3.85934e-10
3.16071e-05
4.95569e-10
3.16073e-05
5.36254e-10
7.11736e-10
3.16546e-05
2.72767e-10
3.16546e-05
3.15092e-11
3.16546e-05
-1.61126e-10
3.16546e-05
-1.59595e-10
3.16546e-05
-8.6141e-11
3.16546e-05
-2.6715e-11
3.16546e-05
1.08197e-11
3.16546e-05
3.21841e-11
3.16547e-05
4.42629e-11
3.16547e-05
5.67438e-11
3.16547e-05
7.15609e-11
3.16548e-05
9.01599e-11
3.16548e-05
1.13696e-10
3.16549e-05
1.45204e-10
3.1655e-05
1.77949e-10
3.16551e-05
2.27477e-10
3.16552e-05
2.65616e-10
3.16553e-05
3.42334e-10
3.16555e-05
3.61663e-10
4.78031e-10
3.16821e-05
1.82874e-10
3.16821e-05
6.31155e-11
3.1682e-05
-8.90538e-11
3.16819e-05
-8.71534e-11
3.16819e-05
-5.05324e-11
3.16819e-05
-2.31445e-11
3.16819e-05
-5.71512e-12
3.16819e-05
7.16622e-12
3.16819e-05
1.5327e-11
3.1682e-05
2.36851e-11
3.1682e-05
3.37497e-11
3.16821e-05
4.49583e-11
3.16821e-05
5.84378e-11
3.16822e-05
7.65159e-11
3.16823e-05
9.46991e-11
3.16824e-05
1.22749e-10
3.16825e-05
1.43831e-10
3.16827e-05
1.87488e-10
3.16828e-05
1.96525e-10
2.55152e-10
3.16945e-05
3.16945e-05
3.16944e-05
3.16943e-05
3.16942e-05
3.16942e-05
3.16942e-05
3.16942e-05
3.16943e-05
3.16943e-05
3.16943e-05
3.16944e-05
3.16944e-05
3.16945e-05
3.16946e-05
3.16947e-05
3.16948e-05
3.1695e-05
3.16951e-05
)
;

boundaryField
{
    fixedWalls
    {
        type            calculated;
        value           uniform 0;
    }
    inlet
    {
        type            calculated;
        value           nonuniform 0();
    }
    outlet
    {
        type            calculated;
        value           nonuniform List<scalar> 
20
(
2.59345e-06
7.46707e-06
1.19305e-05
1.59084e-05
1.9356e-05
2.22608e-05
2.46405e-05
2.65365e-05
2.80067e-05
2.9117e-05
2.99345e-05
3.05216e-05
3.09334e-05
3.12157e-05
3.14049e-05
3.15287e-05
3.16075e-05
3.16558e-05
3.1683e-05
3.16953e-05
)
;
    }
    frontAndBack
    {
        type            empty;
        value           nonuniform 0();
    }
    procBoundary3to2
    {
        type            processor;
        value           nonuniform List<scalar> 
20
(
-2.59385e-06
-7.46812e-06
-1.19319e-05
-1.591e-05
-1.93575e-05
-2.22621e-05
-2.46414e-05
-2.65371e-05
-2.8007e-05
-2.9117e-05
-2.99342e-05
-3.0521e-05
-3.09327e-05
-3.12148e-05
-3.14039e-05
-3.15276e-05
-3.16064e-05
-3.16547e-05
-3.1682e-05
-3.16943e-05
)
;
    }
    procBoundary3to7
    {
        type            processor;
        value           nonuniform List<scalar> 
20
(
-4.18137e-11
-1.03376e-12
4.11595e-11
4.45179e-11
2.12061e-11
-2.59885e-12
-1.49191e-11
-1.72713e-11
-1.48548e-11
-1.17791e-11
-7.22577e-12
-2.96054e-12
1.14554e-12
6.48041e-12
1.16196e-11
1.70381e-11
2.16114e-11
2.91655e-11
4.25833e-11
4.84377e-11
)
;
    }
}


// ************************************************************************* //
