/*--------------------------------*- C++ -*----------------------------------*\
| =========                 |                                                 |
| \\      /  F ield         | OpenFOAM: The Open Source CFD Toolbox           |
|  \\    /   O peration     | Version:                                        |
|   \\  /    A nd           | Website:  www.openfoam.com                      |
|    \\/     M anipulation  |                                                 |
\*---------------------------------------------------------------------------*/
FoamFile
{
    version     2.0;
    format      ascii;
    class       surfaceScalarField;
    location    "149";
    object      phi;
}
// * * * * * * * * * * * * * * * * * * * * * * * * * * * * * * * * * * * * * //

dimensions      [0 3 -1 0 0 0 0];
oriented        oriented;


internalField   nonuniform List<scalar> 
2227
(
0.00180018
0.0479875
-0.0510263
0.00479594
0.0475893
-0.050585
0.00778106
0.04697
-0.0499551
0.0107207
0.0459849
-0.0489245
0.0136036
0.0446785
-0.0475614
-0.045847
0.0016291
0.0450514
0.00454361
0.0446748
0.00743591
0.0440777
0.0102902
0.00147621
0.0043202
-0.000840391
0.0538694
-0.00162868
0.0538213
-0.00233614
0.0537405
-0.0029325
0.0536294
-0.00338946
0.05349
-0.00368092
0.0533245
-0.00378592
0.053138
-0.00368911
0.0529362
-0.00337492
0.0527188
0.0524853
-0.00282717
-0.00174316
0.0537701
-0.0017119
0.05379
-0.00173176
0.0537603
-0.00178451
0.0536821
-0.00184945
0.0535549
-0.00190183
0.0533768
-0.0019103
0.0531465
-0.00183955
0.0528654
-0.00167085
0.0525501
0.0522164
-0.00140198
-0.00268271
0.0546203
-0.00348355
0.0545909
-0.00418753
0.0544643
-0.00474525
0.0542398
-0.00510328
0.0539129
-0.00521465
0.0534882
-0.00502425
0.0529561
-0.00447319
0.0523144
-0.00347305
0.05155
0.0507337
-0.00199037
0.000479425
0.0544671
0.000722578
0.0543477
0.00106775
0.0541191
0.00153057
0.053777
0.00211513
0.0533284
0.00283456
0.0527688
0.00367536
0.0521153
0.0046257
0.051364
0.00564231
0.0505334
0.0496435
0.00673249
-0.000736769
0.0551758
-0.0014314
0.0550424
-0.00208286
0.0547706
-0.00267051
0.0543647
-0.00316322
0.0538211
-0.00355016
0.0531557
-0.00379942
0.0523645
-0.0039058
0.0514704
-0.00383126
0.0504588
0.0494469
-0.00363464
-8.2264e-05
0.0550543
9.45896e-05
0.0548655
0.000336186
0.054529
0.000655909
0.0540449
0.00104877
0.0534282
0.00152232
0.0526822
0.00204819
0.0518386
0.00262795
0.0508907
0.00324533
0.0498414
0.0486959
0.00399638
6.05547e-05
0.0556306
-0.000517245
0.0554433
-0.00108129
0.055093
-0.00162809
0.0545917
-0.00214294
0.0539431
-0.00262398
0.0531632
-0.00303171
0.0522464
-0.00336114
0.0512201
-0.00357298
0.0500533
0.0487831
-0.00366024
-0.000847474
0.0555932
-0.000864635
0.0554605
-0.000916179
0.0551446
-0.000971677
0.0546472
-0.00100964
0.053981
-0.000991145
0.0531447
-0.000911165
0.0521664
-0.00071683
0.0510258
-0.000386802
0.0497233
0.0483255
7.0763e-05
-0.00155727
0.056014
-0.00193586
0.055839
-0.0022559
0.0554646
-0.00250948
0.0549008
-0.00267149
0.054143
-0.00274069
0.0532139
-0.00267566
0.0521014
-0.00248383
0.0508339
-0.00211757
0.049357
0.0476846
-0.00147662
-0.00049196
0.0559644
-0.000492793
0.0558399
-0.000535892
0.0555077
-0.000594203
0.0549591
-0.00065838
0.0542072
-0.000678401
0.0532339
-0.000639226
0.0520622
-0.000485663
0.0506804
-0.000234571
0.0491059
0.0473696
8.04027e-05
-0.00184279
0.0563015
-0.00218659
0.0561837
-0.00250109
0.0558222
-0.00275996
0.055218
-0.00290951
0.0543568
-0.00293894
0.0532634
-0.00276895
0.0518922
-0.00241284
0.0503243
-0.00180619
0.0484993
0.0465615
-0.000998074
-0.00117931
0.0562207
-0.00103962
0.056044
-0.000833427
0.055616
-0.000550085
0.0549347
-0.000208213
0.0540149
0.000209244
0.0528459
0.000625021
0.0514764
0.00111662
0.0498327
0.00165473
0.0479611
0.0459171
0.0022991
-0.00104985
0.0564337
-0.00127014
0.0562643
-0.00147577
0.0558217
-0.0016557
0.0551146
-0.00175325
0.0541125
-0.00176533
0.052858
-0.00157696
0.051288
-0.00122916
0.0494849
-0.00058813
0.0473201
0.0449523
0.000376755
-0.000824567
0.0563223
-0.000672087
0.0561118
-0.000458432
0.055608
-0.000147151
0.0548033
0.000259689
0.0537056
0.000824015
0.0522937
0.0014845
0.0506276
0.00230187
0.0486675
0.00304627
0.0465757
0.0442299
0.00376863
-0.000906488
0.0564139
-0.000960052
0.0561654
-0.000968437
0.0556164
-0.000942147
0.054777
-0.00086622
0.0536297
-0.000802217
0.0522297
-0.000712737
0.0505381
-0.00069116
0.0486459
-0.000559786
0.0464443
0.0441827
-0.000512604
-0.000582782
0.0562751
-0.000413227
0.0559958
-0.000209587
0.0554128
4.56425e-05
0.0545218
0.000329342
0.053346
0.000735246
0.0518238
0.00117467
0.0500986
0.00184315
0.0479774
0.00251214
0.0457754
0.0432316
0.00346321
-0.000623395
0.0562862
-0.000620851
0.0559933
-0.000590554
0.0553825
-0.000519303
0.0544505
-0.000388849
0.0532155
-0.000271865
0.0517068
-6.54184e-05
0.0498922
-2.76119e-05
0.0479396
6.98904e-05
0.0456779
0.0433713
-6.97673e-05
-0.000478513
0.056098
-0.000270612
0.0557854
-3.60284e-05
0.0551479
0.00021068
0.0542038
0.000463283
0.0529629
0.000779041
0.051391
0.00105184
0.0496194
0.00151113
0.0474803
0.00198812
0.0452009
0.0425094
0.00285006
-0.00062328
0.0560171
-0.000526637
0.0556887
-0.000413893
0.0550351
-0.000266411
0.0540563
-7.49067e-05
0.0527714
9.04376e-05
0.0512257
0.000364565
0.0493453
0.000605746
0.0472392
0.000967063
0.0448395
0.042243
0.00123338
-0.000510053
0.0557622
-0.000243756
0.0554224
3.86337e-05
0.0547527
0.000316872
0.0537781
0.000611419
0.0524769
0.0009688
0.0508683
0.0012636
0.0490505
0.00163817
0.0468646
0.00194901
0.0445287
0.0418275
0.00236452
-0.000654604
0.0555782
-0.000468064
0.0552359
-0.000276928
0.0545616
-4.8965e-05
0.0535501
0.000165857
0.0522621
0.000377026
0.0506571
0.000661099
0.0487664
0.000938569
0.0465871
0.00132306
0.0441442
0.0412933
0.00185732
-0.000586604
0.0552417
-0.000245643
0.0548949
9.49881e-05
0.054221
0.00043
0.0532151
0.000785647
0.0519064
0.0011824
0.0502604
0.00155879
0.04839
0.00203093
0.046115
0.00242988
0.0437453
0.040788
0.0029351
-0.000730763
0.0549433
-0.000439096
0.0546032
-0.000134735
0.0539166
0.000174129
0.0529063
0.000471976
0.0516086
0.000782476
0.0499499
0.00111899
0.0480535
0.00145607
0.0457779
0.00186613
0.0433352
0.0403314
0.00232281
-0.000677028
0.0545077
-0.000240164
0.0541664
0.000180899
0.0534956
0.000609082
0.0524781
0.00104579
0.0511719
0.00148849
0.0495072
0.00194861
0.0475934
0.00249229
0.0452342
0.00296856
0.0428589
0.0396945
0.00360544
-0.0007989
0.0540957
-0.00039173
0.0537592
4.36731e-05
0.0530601
0.000439092
0.0520827
0.000843814
0.0507671
0.00126441
0.0490866
0.00166617
0.0471916
0.00211763
0.0447828
0.00261564
0.0423609
0.0391733
0.00313681
-0.000743862
0.0535566
-0.000207921
0.0532233
0.000315606
0.0525366
0.000853904
0.0515444
0.00138679
0.0502342
0.0019424
0.048531
0.00252628
0.0466077
0.00312852
0.0441805
0.00374427
0.0417452
0.0385093
0.00440824
-0.000835407
0.0530269
-0.000310657
0.0526985
0.000234342
0.0519916
0.000755708
0.051023
0.0012876
0.0497024
0.00181463
0.0480039
0.00234215
0.0460802
0.00291449
0.0436082
0.00346846
0.0411912
0.0378649
0.00411286
-0.000781942
0.0523854
-0.000128069
0.0520447
0.000510278
0.0513533
0.00116623
0.050367
0.00182591
0.0490427
0.00251156
0.0473183
0.0032215
0.0453703
0.00393421
0.0428955
0.00475516
0.0403703
0.00545747
-0.000850171
0.051756
-0.000197678
0.0513922
0.000463153
0.0506924
0.00112282
0.0497074
0.00179291
0.0483726
0.00244869
0.0466625
0.00315601
0.044663
0.00383774
-0.00079589
1.12393e-05
0.000748615
0.00153146
0.00234265
0.00315812
-0.00297469
0.0479761
-0.00303412
0.0512074
-0.00294751
0.0546112
-0.0026959
0.0582424
-0.00234538
0.0622032
-0.00198785
0.0665375
-0.00166756
0.0712175
-0.00137035
0.0762055
-0.00105387
0.0814957
-0.000721098
0.0871574
-0.000422774
0.0932639
-0.000228537
0.0998615
-0.000155324
0.106927
-0.000163832
0.114434
-0.000218899
0.122423
-0.000285457
0.130927
-0.000338592
0.139995
-0.000355392
0.149671
-0.000337818
0.160023
-0.000297489
0.171108
-0.000253248
0.182982
-0.000209441
0.195685
-0.000168483
0.209272
-0.000129866
0.223801
-9.60804e-05
0.239341
-6.71966e-05
0.25596
-4.28298e-05
0.27373
-1.48685e-05
0.292726
-4.91521e-06
0.313062
0.334795
-0.00193002
0.0485041
-0.00238888
0.0516663
-0.00259538
0.0548177
-0.0025321
0.0581791
-0.00222322
0.0618943
-0.00168744
0.0660018
-0.00107641
0.0706064
-0.000638612
0.0757677
-0.000586272
0.0814434
-0.000933492
0.0875046
-0.00155651
0.0938869
-0.00219331
0.100498
-0.00272651
0.10746
-0.00303643
0.114744
-0.00298828
0.122374
-0.00263255
0.130571
-0.00209041
0.139453
-0.00155102
0.149132
-0.00109959
0.159572
-0.000761772
0.17077
-0.000506409
0.182727
-0.000324022
0.195503
-0.000193161
0.209141
-0.000107699
0.223716
-5.10119e-05
0.239285
-9.31178e-06
0.255918
2.55298e-05
0.273696
4.63999e-05
0.292705
2.13851e-05
0.313087
0.334817
-0.00110084
0.0476146
-0.000250461
0.0508159
0.000200894
0.0543664
0.000117354
0.0582627
-0.000343415
0.062355
-0.000929099
0.0665874
-0.00142616
0.0711035
-0.00177196
0.0761135
-0.0020679
0.0817393
-0.00226716
0.0877039
-0.0022393
0.0938591
-0.0019306
0.10019
-0.00133049
0.10686
-0.000651535
0.114065
-0.000123863
0.121847
0.000194876
0.130252
0.000319505
0.139329
0.000319013
0.149132
0.000256247
0.159635
0.000182366
0.170844
0.000130864
0.182778
0.000109196
0.195524
0.000110465
0.20914
0.000116819
0.22371
0.000124826
0.239277
0.000125259
0.255917
0.000125996
0.273695
0.000129291
0.292702
6.98409e-05
0.313147
0.334886
0.00703638
0.0473107
0.00705324
0.0507991
0.0067874
0.0546322
0.00625642
0.0587937
0.00540417
0.0632073
0.00422827
0.0677633
0.00297492
0.0723569
0.00206135
0.077027
0.00186128
0.0819394
0.00229227
0.0872729
0.00305935
0.093092
0.00376101
0.0994879
0.0042199
0.106401
0.00437448
0.113911
0.00414002
0.122081
0.0035929
0.130799
0.00288785
0.140034
0.00224333
0.149777
0.0017373
0.160141
0.00138104
0.1712
0.00111424
0.183045
0.000918022
0.195721
0.000765555
0.209292
0.00064947
0.223826
0.00055241
0.239374
0.000467766
0.256002
0.000386218
0.273776
0.00030487
0.292783
0.00015419
0.313297
0.335041
-0.00391862
0.0475947
-0.00390105
0.0507815
-0.00352115
0.0542523
-0.00284574
0.0581183
-0.00198424
0.0623458
-0.00107169
0.0668508
-0.000320527
0.0716057
0.000135615
0.0765709
0.000332076
0.0817429
0.000430866
0.0871741
0.00047676
0.0930461
0.000486252
0.0994784
0.000423156
0.106464
0.000357459
0.113977
0.000365217
0.122073
0.000413323
0.130751
0.000469214
0.139978
0.000528744
0.149717
0.000604938
0.160065
0.000680226
0.171125
0.0007276
0.182998
0.000739594
0.195709
0.000717516
0.209315
0.000674498
0.223869
0.000611735
0.239436
0.000535424
0.256078
0.000442346
0.273869
0.000348372
0.292877
0.000183069
0.313463
0.335224
0.00412095
0.0474701
0.00404536
0.0508571
0.00378101
0.0545167
0.0033876
0.0585117
0.00293295
0.0628004
0.00247312
0.0673106
0.0021028
0.071976
0.00188748
0.0767862
0.00181218
0.0818182
0.00179925
0.087187
0.00186058
0.0929848
0.00196289
0.0993761
0.00205957
0.106367
0.00208229
0.113954
0.00201989
0.122136
0.00191846
0.130853
0.00180093
0.140095
0.00166505
0.149853
0.00151788
0.160212
0.00138069
0.171262
0.00126608
0.183112
0.00116297
0.195812
0.00105845
0.209419
0.000947536
0.22398
0.000829116
0.239555
0.000703061
0.256204
0.000566062
0.274006
0.000420226
0.293023
0.000214937
0.313668
0.335439
-0.00404649
0.0478564
-0.00416486
0.0509754
-0.00385938
0.0542112
-0.00314408
0.0577964
-0.00218575
0.0618421
-0.00117199
0.0662969
-0.000289309
0.0710933
0.000336812
0.0761601
0.00076722
0.0813878
0.00104105
0.0869132
0.00114731
0.0928785
0.00110351
0.0994199
0.000941496
0.106529
0.000744784
0.114151
0.000609635
0.122271
0.000585671
0.130877
0.000674029
0.140007
0.000808009
0.149719
0.000925585
0.160094
0.000990835
0.171197
0.00100798
0.183095
0.000986321
0.195833
0.000935554
0.20947
0.000862966
0.224052
0.000771784
0.239646
0.000660461
0.256316
0.000533925
0.274133
0.000394571
0.293162
0.00020696
0.313855
0.335646
-2.74656e-05
0.0479546
-0.000125671
0.0510736
-0.000241435
0.054327
-0.00037973
0.0579347
-0.000417149
0.0618795
-0.000226415
0.0661061
0.000179618
0.0706873
0.000624608
0.0757151
0.000785911
0.0812265
0.000585935
0.0871132
0.000122135
0.0933423
-0.000353928
0.099896
-0.000698459
0.106874
-0.000829305
0.114281
-0.000696213
0.122138
-0.000368283
0.130549
4.96149e-05
0.139589
0.000427485
0.149341
0.000706228
0.159815
0.000873394
0.17103
0.000956851
0.183012
0.000972512
0.195818
0.000940031
0.209502
0.000869661
0.224123
0.000773567
0.239742
0.000659706
0.25643
0.00053232
0.27426
0.000386645
0.293308
0.000199322
0.314043
0.335845
-0.00124295
0.0477209
-0.000975053
0.0508057
-0.0006833
0.0540352
-0.000312831
0.0575642
0.000112032
0.0614547
0.000475484
0.0657427
0.000715738
0.070447
0.000840787
0.0755901
0.000915269
0.081152
0.000917278
0.0871112
0.00085569
0.0934039
0.000756169
0.0999955
0.000687256
0.106943
0.000670695
0.114298
0.000689242
0.122119
0.000752478
0.130485
0.000851242
0.13949
0.000956651
0.149236
0.00102305
0.159749
0.00104281
0.17101
0.00103039
0.183024
0.00099272
0.195855
0.000932903
0.209562
0.000849079
0.224206
0.000746702
0.239845
0.000627841
0.256548
0.000498775
0.274389
0.000361305
0.293446
0.00018759
0.314216
0.336032
-0.000118534
0.0479199
-0.000540765
0.051228
-0.000981689
0.0544761
-0.0012194
0.0578019
-0.00119255
0.0614278
-0.000868056
0.0654182
-0.000317991
0.069897
0.000267266
0.0750048
0.000700028
0.0807193
0.000911508
0.0868997
0.00091195
0.0934035
0.000795587
0.100112
0.000666817
0.107071
0.000607785
0.114357
0.000658648
0.122068
0.000764391
0.13038
0.000893764
0.139361
0.0010108
0.149119
0.00109817
0.159662
0.00113718
0.170971
0.00112623
0.183035
0.00107367
0.195908
0.00099425
0.209642
0.000894747
0.224306
0.000780527
0.239959
0.000654584
0.256674
0.00051878
0.274525
0.0003716
0.293593
0.000189435
0.314399
0.336222
-0.000737236
0.047659
-0.000197397
0.0506881
0.000424129
0.0538546
0.000778194
0.0574478
0.000750035
0.061456
0.000458665
0.0657096
0.000123499
0.0702321
-4.1631e-05
0.0751699
-2.73568e-05
0.080705
8.52363e-05
0.0867871
0.000260424
0.0932283
0.000467112
0.0999052
0.000730666
0.106808
0.00102201
0.114066
0.00128214
0.121808
0.00145785
0.130204
0.00151784
0.139301
0.00149534
0.149141
0.00142918
0.159728
0.00134445
0.171056
0.00124795
0.183132
0.00114086
0.196015
0.00102359
0.209759
0.000898878
0.224431
0.000769829
0.240088
0.000635984
0.256808
0.000498655
0.274663
0.000358177
0.293733
0.000184197
0.314573
0.336406
0.00255358
0.0474046
0.00272947
0.0505123
0.00274794
0.0538361
0.00247626
0.0577195
0.00194166
0.0619906
0.00130087
0.0663503
0.00078334
0.0707497
0.000520359
0.0754329
0.000625557
0.0805998
0.00104578
0.0863669
0.00157351
0.0927005
0.00203029
0.0994484
0.00228298
0.106555
0.00234287
0.114006
0.00225779
0.121893
0.00211158
0.13035
0.00195671
0.139456
0.00182401
0.149274
0.00170425
0.159848
0.00158429
0.171176
0.00145227
0.183264
0.00131068
0.196157
0.00116258
0.209907
0.0010109
0.224582
0.00085438
0.240244
0.00069728
0.256965
0.000540705
0.274819
0.000382478
0.293891
0.000192923
0.314762
0.336599
0.000993505
0.0467878
0.00162395
0.0498818
0.00211525
0.0533448
0.0026231
0.0572117
0.00309923
0.0615144
0.00327849
0.0661711
0.00297762
0.0710505
0.00231664
0.0760939
0.00157223
0.0813442
0.00106962
0.0868695
0.000971074
0.0927991
0.00123396
0.0991855
0.00166619
0.106123
0.00205427
0.113618
0.00225395
0.121694
0.00225129
0.130353
0.00210477
0.139602
0.00191405
0.149465
0.0017437
0.160018
0.00159595
0.171323
0.00145048
0.183409
0.00130105
0.196306
0.00114868
0.210059
0.000996221
0.224735
0.00084295
0.240398
0.000688048
0.25712
0.000531843
0.274975
0.000378229
0.294045
0.000191612
0.314949
0.336791
0.00390679
0.0466497
0.00354261
0.050246
0.0030664
0.053821
0.00270633
0.0575717
0.00260374
0.061617
0.00281527
0.0659595
0.00316118
0.0707046
0.00341584
0.0758392
0.00348134
0.0812787
0.00338934
0.0869615
0.00328879
0.0928996
0.00321569
0.0992586
0.00321829
0.10612
0.00324691
0.113589
0.00321065
0.12173
0.00305963
0.130504
0.00279754
0.139864
0.00248485
0.149778
0.00217994
0.160323
0.00191378
0.17159
0.00168361
0.183639
0.0014772
0.196512
0.00128139
0.210255
0.00109384
0.224922
0.000911641
0.24058
0.000735626
0.257296
0.000564049
0.275147
0.000396767
0.294212
0.000198356
0.315147
0.336989
-0.000636597
0.0467737
-0.000150777
0.0497602
0.000412249
0.053258
0.000778198
0.0572058
0.00092625
0.061469
0.000912283
0.0659735
0.000951977
0.0706649
0.00117475
0.0756165
0.00155869
0.0808948
0.0019925
0.0865277
0.00234782
0.0925443
0.00256558
0.0990409
0.00262777
0.106058
0.00258432
0.113632
0.00250756
0.121807
0.00241168
0.1306
0.00228887
0.139987
0.00214072
0.149926
0.0019672
0.160496
0.00178153
0.171775
0.001592
0.183829
0.00140679
0.196698
0.00122751
0.210434
0.00105304
0.225097
0.000881367
0.240751
0.000711201
0.257466
0.000543181
0.275315
0.00038305
0.294373
0.00019229
0.315338
0.337181
0.00401458
0.0462223
0.00394161
0.0498331
0.00377901
0.0534206
0.00369657
0.0572882
0.00364527
0.0615203
0.00357266
0.0660461
0.0033718
0.0708658
0.00310477
0.0758835
0.00291268
0.0810868
0.0028987
0.0865417
0.00306881
0.0923742
0.00329802
0.0988117
0.00346677
0.105889
0.003483
0.113616
0.00332961
0.12196
0.00306615
0.130863
0.00276185
0.140291
0.00246569
0.150222
0.00219126
0.160771
0.00194267
0.172024
0.00171158
0.18406
0.00149603
0.196913
0.00128996
0.21064
0.00109444
0.225292
0.000906859
0.240939
0.000725444
0.257648
0.000550171
0.27549
0.000383738
0.294539
0.000190605
0.315531
0.337372
-0.000582156
0.0467347
-0.000402931
0.0496539
0.000110031
0.0529077
0.000602163
0.0567961
0.000942162
0.0611803
0.0012166
0.0657717
0.00156323
0.0705192
0.00197902
0.0754677
0.00236151
0.0807044
0.0026438
0.0862594
0.00280258
0.0922154
0.00287365
0.0987406
0.00286443
0.105899
0.00279167
0.113689
0.00266364
0.122088
0.0024952
0.131032
0.00231409
0.140473
0.00212242
0.150414
0.001932
0.160961
0.00174499
0.172211
0.00156316
0.184242
0.00138398
0.197092
0.00120646
0.210818
0.0010318
0.225467
0.00085898
0.241112
0.000687409
0.257819
0.000518898
0.275659
0.000358579
0.294699
0.000180062
0.31571
0.337552
0.00372137
0.0458634
0.00410204
0.0492732
0.00410968
0.0529
0.00401447
0.0568913
0.00388651
0.0613082
0.00359555
0.0660626
0.00320336
0.0709114
0.00287718
0.0757939
0.00273152
0.08085
0.00275564
0.0862352
0.00286345
0.0921076
0.00298772
0.0986163
0.00306267
0.105824
0.00305135
0.1137
0.00293987
0.1222
0.0027664
0.131205
0.00254659
0.140692
0.00230258
0.150658
0.00205257
0.161211
0.0018147
0.172449
0.00159709
0.184459
0.0013952
0.197294
0.00120429
0.211009
0.00102143
0.22565
0.000845093
0.241288
0.000673638
0.257991
0.000505753
0.275827
0.000344789
0.29486
0.000172524
0.315882
0.337724
0.000825789
0.046271
0.000744997
0.049354
0.00109723
0.0525478
0.00165179
0.0563367
0.00226786
0.0606922
0.00288361
0.0654469
0.00332737
0.0704676
0.00350986
0.0756114
0.00349273
0.0808671
0.00337039
0.0863576
0.00320688
0.0922711
0.00302512
0.0987981
0.00283536
0.106013
0.00264086
0.113895
0.0024588
0.122382
0.00229843
0.131365
0.00215803
0.140833
0.00200728
0.150808
0.001835
0.161383
0.00165029
0.172633
0.00146676
0.184643
0.00128889
0.197472
0.00111793
0.21118
0.000950974
0.225817
0.00078773
0.241451
0.000628377
0.25815
0.000467748
0.275987
0.00031546
0.295013
0.000160671
0.316037
0.337885
0.00290373
0.0457317
0.00331762
0.0489401
0.00337468
0.0524907
0.0032146
0.0564968
0.00309232
0.0608145
0.00308675
0.0654525
0.00320119
0.0703532
0.00330987
0.0755027
0.00333235
0.0808447
0.00327038
0.0864195
0.00315051
0.092391
0.00300927
0.0989393
0.00285427
0.106168
0.00268223
0.114067
0.00250227
0.122562
0.00232454
0.131543
0.00215594
0.141001
0.00198894
0.150975
0.00181121
0.161561
0.00162453
0.17282
0.00143645
0.184831
0.00125409
0.197655
0.00107988
0.211354
0.000912646
0.225984
0.000752635
0.241611
0.000598358
0.258304
0.000446606
0.276139
0.000293619
0.295166
0.000150445
0.31618
0.338036
0.00175571
0.0458334
0.00180978
0.0488861
0.00219965
0.0521009
0.0027966
0.0558999
0.0033109
0.0603002
0.00369539
0.065068
0.00394936
0.0700992
0.00403451
0.0754176
0.00394273
0.0809364
0.00370686
0.0866554
0.00339275
0.0927051
0.0030725
0.0992596
0.00277536
0.106466
0.00251819
0.114324
0.00229615
0.122784
0.00210278
0.131737
0.00193674
0.141167
0.00178351
0.151129
0.00163132
0.161713
0.00147433
0.172977
0.00131421
0.184991
0.0011543
0.197814
0.000996745
0.211512
0.000843087
0.226138
0.000694326
0.24176
0.000549853
0.258449
0.000407919
0.276281
0.00026284
0.295311
0.00013641
0.316306
0.338172
0.00325947
0.045509
0.00325106
0.0488945
0.00297323
0.0523787
0.00274556
0.0561275
0.00276955
0.0602762
0.00301228
0.0648253
0.0033376
0.0697739
0.00364124
0.0751139
0.00379248
0.0807852
0.00370413
0.0867438
0.00342573
0.0929835
0.00305649
0.0996288
0.00270054
0.106822
0.00240801
0.114617
0.00219044
0.123001
0.00201726
0.13191
0.00186392
0.141321
0.00171211
0.15128
0.00155882
0.161867
0.0014026
0.173133
0.001246
0.185148
0.00109097
0.197969
0.000939522
0.211663
0.000792589
0.226285
0.000651294
0.241902
0.000514887
0.258585
0.000380666
0.276415
0.000239197
0.295452
0.000124489
0.316421
0.338296
0.00238284
0.045449
0.00273868
0.0485386
0.00315989
0.0519575
0.00346732
0.0558201
0.00365632
0.0600872
0.00374138
0.0647402
0.00376325
0.069752
0.00376031
0.0751169
0.00370999
0.0808355
0.00357717
0.0868766
0.00333841
0.0932223
0.00301673
0.0999505
0.00266872
0.10717
0.00235693
0.114928
0.00211179
0.123246
0.00192181
0.1321
0.00176108
0.141481
0.00160722
0.151434
0.00145383
0.16202
0.00130072
0.173286
0.00115149
0.185297
0.00100598
0.198115
0.00086472
0.211804
0.000728104
0.226421
0.000596582
0.242033
0.000469564
0.258712
0.000344339
0.27654
0.000210759
0.295586
0.000111079
0.316521
0.338408
0.00367872
0.0453757
0.00333718
0.0488802
0.00296278
0.0523319
0.00282026
0.0559626
0.00293243
0.059975
0.00322032
0.0644523
0.00354382
0.0694285
0.00377616
0.0748845
0.00382159
0.0807901
0.00366857
0.0870296
0.00335024
0.0935406
0.00294012
0.100361
0.00253035
0.107579
0.00218114
0.115278
0.00192842
0.123499
0.00175366
0.132274
0.00162277
0.141612
0.0014959
0.151561
0.00136376
0.162152
0.00122351
0.173427
0.00108177
0.185439
0.000941723
0.198255
0.00080726
0.211939
0.000677986
0.22655
0.000554476
0.242157
0.000435969
0.258831
0.000318238
0.276658
0.000188941
0.295715
9.98419e-05
0.31661
0.338507
0.00339729
0.0451152
0.00383137
0.0484461
0.00400926
0.052154
0.00389244
0.0560794
0.00367107
0.0601964
0.00349946
0.0646239
0.0034322
0.0694957
0.00342807
0.0748887
0.00342806
0.0807901
0.0033548
0.0871029
0.00316255
0.0937329
0.00286866
0.100654
0.00252747
0.107921
0.00220412
0.115601
0.00193533
0.123768
0.0017277
0.132482
0.00156362
0.141776
0.00142058
0.151704
0.00128271
0.16229
0.00114374
0.173566
0.00100621
0.185576
0.000872018
0.198389
0.000743583
0.212067
0.000621513
0.226673
0.000505975
0.242272
0.000395829
0.258941
0.000286113
0.276768
0.000164432
0.295837
8.79228e-05
0.316686
0.338595
0.00426363
0.0452598
0.00387506
0.0488347
0.00366166
0.0523674
0.00361713
0.056124
0.00359656
0.0602169
0.00359263
0.0646278
0.00361467
0.0694737
0.00362236
0.074881
0.00355776
0.0808547
0.00338778
0.0872729
0.00310193
0.0940187
0.00274006
0.101016
0.00236059
0.1083
0.00202055
0.115941
0.00175779
0.124031
0.00156517
0.132675
0.0014218
0.14192
0.00129844
0.151828
0.00118077
0.162408
0.00105926
0.173687
0.000935109
0.1857
0.000811111
0.198513
0.000691307
0.212187
0.000576963
0.226787
0.00046884
0.24238
0.000366301
0.259044
0.000263459
0.276871
0.000146338
0.295954
7.82801e-05
0.316754
0.338674
0.00441233
0.0449604
0.00461925
0.0486277
0.00452894
0.0524577
0.00428491
0.056368
0.00399827
0.0605036
0.00369875
0.0649274
0.00345287
0.0697196
0.00328986
0.075044
0.00319229
0.0809523
0.00308009
0.0873851
0.00289918
0.0941996
0.00264074
0.101275
0.0023394
0.108601
0.00204358
0.116237
0.00178529
0.124289
0.00157553
0.132884
0.00140099
0.142094
0.00125206
0.151976
0.00111802
0.162542
0.000990829
0.173814
0.000868032
0.185823
0.000749444
0.198632
0.000635991
0.2123
0.000527589
0.226895
0.000426758
0.242481
0.000330928
0.259139
0.000236318
0.276965
0.000126838
0.296063
6.84492e-05
0.316813
0.338742
0.00520262
0.00466976
0.00441482
0.00424668
0.0040588
0.00386349
0.00366476
0.00346975
0.00327425
0.00305468
0.00279022
0.00248457
0.00216134
0.00186083
0.00161529
0.00142512
0.00127669
0.0011487
0.0010308
0.000916212
0.000804522
0.000696066
0.000590873
0.000489525
0.000395213
0.000306406
0.000217843
0.000113549
6.09625e-05
)
;

boundaryField
{
    outlet
    {
        type            calculated;
        value           nonuniform 0();
    }
    upperWall
    {
        type            symmetryPlane;
        value           nonuniform 0();
    }
    lowerWall
    {
        type            symmetryPlane;
        value           uniform 0;
    }
    inlet
    {
        type            calculated;
        value           nonuniform List<scalar> 
40
(
-0.053033
-0.053033
-0.053033
-0.053033
-0.053033
-0.053033
-0.053033
-0.053033
-0.053033
-0.053033
-0.0478286
-0.051148
-0.0546978
-0.058494
-0.0625537
-0.0668951
-0.0715378
-0.0765027
-0.0818122
-0.0874902
-0.0935622
-0.100056
-0.107
-0.114426
-0.122367
-0.13086
-0.139942
-0.149655
-0.160041
-0.171148
-0.183026
-0.195729
-0.209313
-0.22384
-0.239375
-0.255988
-0.273755
-0.292754
-0.313072
-0.3348
)
;
    }
    cylinder
    {
        type            calculated;
        value           nonuniform 0();
    }
    frontAndBack
    {
        type            empty;
        value           nonuniform 0();
    }
    procBoundary0to1
    {
        type            processor;
        value           nonuniform List<scalar> 
45
(
0.0164168
0.0430338
0.0437977
0.0431306
0.0130927
0.0418761
0.0421845
0.0418308
0.00714896
0.0412489
0.0371626
0.0422137
0.00450673
0.0397013
0.00402338
0.0452152
0.0491606
0.0527126
0.0565361
0.0606915
0.0651227
0.0699183
0.075239
0.0811478
0.0876046
0.0944641
0.10158
0.108925
0.116537
0.124535
0.133075
0.142243
0.152104
0.16266
0.173929
0.185935
0.19874
0.212406
0.226997
0.242575
0.259228
0.277054
0.296168
0.316865
0.338803
)
;
    }
    procBoundary0to4
    {
        type            processor;
        value           nonuniform List<scalar> 
33
(
0.00123855
0.00130698
0.00139076
3.97876e-06
0.00184252
0.00183249
-0.00032625
2.80671e-05
0.000203725
-0.000636848
0.000884889
0.00113653
0.000541564
0.00150565
0.00126015
0.000836832
0.000935969
0.000814824
0.000721602
0.000612293
0.000666727
0.000704161
0.000765019
0.000838577
0.000923064
0.00102916
0.00111261
0.00121091
0.00128297
0.00136513
0.00142341
0.00147964
0.0015256
)
;
    }
}


// ************************************************************************* //
