/*--------------------------------*- C++ -*----------------------------------*\
| =========                 |                                                 |
| \\      /  F ield         | OpenFOAM: The Open Source CFD Toolbox           |
|  \\    /   O peration     | Version:                                        |
|   \\  /    A nd           | Website:  www.openfoam.com                      |
|    \\/     M anipulation  |                                                 |
\*---------------------------------------------------------------------------*/
FoamFile
{
    version     2.0;
    format      ascii;
    class       volVectorField;
    location    "171.1";
    object      U;
}
// * * * * * * * * * * * * * * * * * * * * * * * * * * * * * * * * * * * * * //

dimensions      [0 1 -1 0 0 0 0];


internalField   nonuniform List<vector> 
1139
(
(1.24693 0.215069 1.41932e-19)
(1.25568 0.244307 -2.6157e-19)
(1.20277 0.227576 3.32341e-20)
(1.19967 0.160213 1.40293e-19)
(1.11467 0.202434 -1.61224e-20)
(1.12652 0.141606 -2.15746e-20)
(1.05076 0.165468 -1.85526e-20)
(1.08443 0.104088 -2.67079e-20)
(1.11872 0.0614046 -6.19032e-20)
(1.01167 0.100762 -1.53311e-20)
(1.03538 0.0769108 7.67792e-20)
(1.12593 0.0407906 9.78592e-20)
(0.936256 0.0683295 4.78301e-21)
(1.0513 0.0429549 -4.86143e-21)
(1.10354 0.0199065 -8.65066e-20)
(0.954952 0.0068581 9.70781e-21)
(1.05536 0.0213977 -1.26465e-20)
(1.08243 -0.00986209 3.03227e-20)
(1.08522 -0.00884771 7.21543e-20)
(0.957462 0.0131586 1.17837e-22)
(1.03168 -0.0152496 -1.64509e-20)
(1.08275 -0.017374 -4.90037e-21)
(1.06134 -0.0241186 -2.7449e-20)
(0.930124 -0.0686496 -1.16816e-20)
(1.07014 -0.0438982 -9.05458e-22)
(1.07764 -0.0345739 2.10597e-21)
(1.04392 -0.040212 -1.40472e-20)
(0.0661916 1.10885 -3.96481e-20)
(0.062029 1.02342 4.592e-20)
(-0.0704284 1.02311 3.50311e-20)
(-0.221089 1.0102 -2.27272e-19)
(-0.379592 0.964805 -5.14874e-20)
(-0.504323 0.881051 -5.8616e-20)
(0.072955 0.92272 -9.59772e-22)
(-0.0720316 0.956406 -8.5518e-21)
(-0.243375 0.985529 7.53151e-20)
(-0.420592 0.986792 1.87242e-19)
(-0.560171 0.947591 4.08215e-19)
(-0.592362 0.862909 3.77606e-19)
(0.0987751 0.789648 -2.12315e-20)
(-0.0517658 0.850162 1.61214e-19)
(-0.237434 0.915856 1.36659e-19)
(-0.437693 0.972216 -1.53707e-19)
(-0.597526 0.989606 -5.7211e-19)
(-0.631931 0.956747 6.54349e-21)
(-0.485945 0.82518 -3.31447e-19)
(0.13745 0.636523 3.19394e-20)
(-0.0170064 0.726467 -1.15712e-19)
(-0.213797 0.826105 -6.16276e-20)
(-0.432058 0.930532 -5.7009e-20)
(-0.59741 1.00035 6.67999e-19)
(-0.627543 1.02102 -1.62766e-19)
(-0.459836 0.934782 -1.00189e-19)
(-0.128463 0.672442 -1.0165e-19)
(0.19212 0.462531 2.11277e-20)
(0.0257024 0.582995 -5.15375e-20)
(-0.183179 0.703966 -1.20571e-19)
(-0.413356 0.838525 3.1534e-20)
(-0.584058 0.953712 -2.38811e-20)
(-0.612589 1.03335 -8.38122e-20)
(-0.423606 1.00448 -6.57703e-19)
(-0.0307864 0.782921 -3.64853e-19)
(0.384462 0.527119 -1.043e-19)
(0.25393 0.262175 -5.70624e-20)
(0.0822766 0.406812 3.97845e-21)
(-0.135127 0.540693 1.76929e-19)
(-0.374244 0.700537 1.06596e-19)
(-0.553171 0.86025 -4.04266e-19)
(-0.578315 0.99315 2.58309e-19)
(-0.382615 1.01698 1.51018e-19)
(0.0520977 0.856927 6.18872e-19)
(0.517204 0.624948 3.31448e-19)
(0.874049 0.373149 1.12462e-19)
(0.313927 0.0734894 4.35862e-20)
(0.136167 0.20894 1.03914e-19)
(-0.0934159 0.340476 -3.64226e-20)
(-0.338806 0.521667 -2.07598e-19)
(-0.520184 0.710431 1.95545e-19)
(-0.532936 0.888334 -2.14697e-20)
(-0.328727 0.958575 -7.29855e-20)
(0.144853 0.868372 2.43006e-19)
(0.644014 0.663203 -4.26489e-19)
(1.01571 0.425115 9.53648e-20)
(0.375991 -0.152149 -5.03104e-20)
(0.172679 -0.0479567 -5.35689e-20)
(-0.0651931 0.0956906 -2.84441e-19)
(-0.299801 0.278902 -2.14267e-20)
(-0.474753 0.498164 -3.57781e-20)
(-0.48323 0.723463 1.68873e-19)
(-0.280914 0.82653 -7.85617e-20)
(0.215912 0.805945 9.15526e-20)
(0.728627 0.629929 4.70345e-21)
(1.07356 0.426857 -3.22502e-19)
(0.45417 -0.485883 -4.46041e-20)
(0.223389 -0.371581 1.91191e-19)
(-0.0277903 -0.247079 3.20947e-19)
(-0.271006 -0.0140901 2.61442e-19)
(-0.413827 0.272138 6.33848e-20)
(-0.42085 0.54478 -2.41657e-19)
(-0.238504 0.66353 1.46058e-19)
(0.248252 0.677564 4.40706e-21)
(0.762552 0.558176 -6.48623e-20)
(1.09273 0.411665 1.54019e-19)
(0.533185 -0.830765 3.72122e-20)
(0.278158 -0.715387 -3.83842e-20)
(0.0185634 -0.532249 -1.9607e-20)
(-0.174328 -0.283358 6.66334e-20)
(-0.295829 0.050388 -9.96538e-20)
(-0.312714 0.378872 8.75836e-20)
(-0.144353 0.561793 -2.32265e-20)
(0.298393 0.537905 9.25568e-21)
(0.83809 0.496235 -2.29394e-20)
(1.05996 0.319455 -3.78346e-20)
(0.579703 -1.09255 3.88662e-20)
(0.321707 -0.996869 -1.48313e-20)
(0.099515 -0.816093 -1.19597e-19)
(-0.116524 -0.551372 1.30554e-21)
(-0.204 -0.162258 -5.65621e-20)
(-0.180401 0.231667 4.26595e-20)
(0.0703049 0.563865 3.15018e-20)
(0.42603 0.430797 -6.14774e-20)
(0.81559 0.357067 -3.18893e-20)
(0.99366 0.247189 2.70706e-20)
(0.61402 -1.22537 -2.7525e-20)
(0.388745 -1.1309 7.7668e-20)
(0.194777 -0.971434 -2.92066e-20)
(0.0663059 -0.7344 -7.08559e-20)
(-0.0327346 -0.404483 -7.1816e-20)
(0.0113946 0.048662 1.45717e-20)
(0.122555 0.305106 1.95927e-20)
(0.357115 0.332223 -3.21761e-20)
(0.78052 0.213909 4.94421e-21)
(0.983723 0.169696 4.80202e-21)
(0.628878 -1.2859 -1.60178e-20)
(0.423355 -1.21407 2.12828e-19)
(0.233134 -1.06213 -1.16211e-20)
(0.129226 -0.84258 -7.69813e-20)
(0.065507 -0.591643 4.0288e-20)
(0.0751904 -0.299586 -1.92892e-20)
(-0.0285526 -0.107023 -9.14791e-20)
(0.258199 0.081209 1.67275e-19)
(0.819948 0.105013 7.38167e-20)
(0.976968 0.0881293 -3.11144e-20)
(0.65771 -1.23978 -4.34351e-20)
(0.510756 -1.20783 -2.07438e-20)
(0.37559 -1.0968 -2.0686e-19)
(0.287654 -0.867081 -1.15371e-20)
(0.220268 -0.623481 2.37513e-20)
(0.185143 -0.295736 2.64794e-20)
(0.309724 0.0134727 9.56822e-20)
(0.612703 0.0751246 -7.2739e-20)
(0.865299 0.0241301 -1.14174e-19)
(0.928797 0.00911648 3.21357e-20)
(0.637169 -1.17473 1.07491e-21)
(0.499639 -1.17179 -2.87129e-20)
(0.422936 -1.11036 1.591e-19)
(0.349148 -0.965519 7.92093e-20)
(0.285212 -0.748298 1.09638e-20)
(0.302532 -0.442446 2.06055e-20)
(0.247509 -0.209814 -3.76111e-20)
(0.450509 -0.0916504 -2.60884e-20)
(0.857353 -0.0990136 1.43589e-19)
(0.984566 -0.0497106 1.27365e-20)
(0.671136 -1.14895 1.3469e-20)
(0.562596 -1.14202 -6.95969e-21)
(0.509681 -1.05754 1.26631e-20)
(0.450589 -0.954321 -6.69299e-20)
(0.445262 -0.783599 -5.5401e-20)
(0.45305 -0.518385 -1.48314e-20)
(0.43657 -0.250677 9.60474e-21)
(0.686496 -0.110964 3.92679e-20)
(0.951037 -0.117477 -1.40956e-19)
(0.963679 -0.0713304 8.56849e-21)
(0.651032 -1.10855 -1.53647e-20)
(0.585243 -1.11904 9.85354e-21)
(0.553131 -1.02093 -9.45828e-21)
(0.498436 -0.88585 6.15524e-20)
(0.533871 -0.728756 5.84558e-20)
(0.523433 -0.587286 1.84315e-20)
(0.432456 -0.420011 -9.77027e-21)
(0.635009 -0.259251 -9.04679e-20)
(0.958402 -0.22774 1.82528e-20)
(1.00457 -0.156618 2.68615e-21)
(0.652376 -1.12284 3.57657e-21)
(0.639507 -1.14667 2.52832e-20)
(0.656679 -1.06537 -1.03926e-20)
(0.616924 -0.905436 -3.00608e-20)
(0.632998 -0.717062 1.85498e-20)
(0.601535 -0.632536 -4.20867e-21)
(0.490426 -0.542584 -2.12098e-20)
(0.610194 -0.401856 4.1506e-20)
(0.948602 -0.318138 4.20139e-20)
(1.04949 -0.2057 5.07589e-21)
(0.615716 -1.23304 8.91342e-21)
(0.656372 -1.26703 5.40486e-21)
(0.73475 -1.21064 -1.79086e-20)
(0.73878 -1.06353 -6.69996e-20)
(0.729683 -0.845683 -1.38597e-19)
(0.659425 -0.70826 -3.78683e-20)
(0.562376 -0.586373 6.22082e-21)
(0.655502 -0.443198 2.54292e-20)
(0.960389 -0.349173 -1.12417e-21)
(1.08401 -0.242438 3.75294e-20)
(0.578043 -1.23882 -2.11085e-20)
(0.682617 -1.27683 -3.18472e-20)
(0.801856 -1.25471 -9.42117e-20)
(0.851488 -1.15169 4.38349e-20)
(0.850566 -0.959286 1.19418e-19)
(0.77705 -0.792785 -6.8207e-21)
(0.691831 -0.632272 1.92896e-20)
(0.740525 -0.478429 -2.45294e-20)
(0.990663 -0.387313 9.10542e-21)
(1.1243 -0.283892 -3.78769e-20)
(0.57811 -1.0041 1.75856e-20)
(0.747979 -1.03467 -3.5478e-20)
(0.900652 -1.05361 1.01952e-19)
(0.984249 -1.02201 -7.63613e-20)
(0.989805 -0.927244 2.38621e-20)
(0.905929 -0.822492 8.45836e-20)
(0.812843 -0.694842 -2.83544e-20)
(0.821532 -0.546636 -8.313e-21)
(1.03678 -0.436788 -2.11864e-21)
(1.17676 -0.31955 -3.35355e-20)
(0.604224 -0.53755 -6.93584e-21)
(0.809793 -0.554248 1.25787e-20)
(0.976468 -0.621926 2.67143e-20)
(1.08294 -0.670562 1.0106e-19)
(1.10575 -0.691903 -6.27136e-20)
(1.04244 -0.680071 -7.71438e-20)
(0.977911 -0.614754 -5.64823e-20)
(1.00104 -0.492577 -2.91487e-20)
(1.21071 -0.371427 -6.87076e-21)
(1.29172 -0.281136 3.20557e-20)
(0.630899 0.0455788 -6.61144e-21)
(0.860019 0.0511529 1.29521e-20)
(1.03843 -0.044402 -9.37642e-20)
(1.15896 -0.140304 -1.0614e-19)
(1.21404 -0.227078 -1.04586e-20)
(1.21197 -0.280402 4.50287e-20)
(1.22602 -0.27233 1.34848e-20)
(1.30168 -0.218619 -2.40971e-20)
(1.45944 -0.171021 -3.7468e-21)
(1.40399 -0.190089 -1.20603e-20)
(0.66056 0.580364 1.07172e-20)
(0.873819 0.607718 -5.22415e-20)
(1.07366 0.534194 7.53462e-21)
(1.24182 0.45001 -1.64848e-21)
(1.34903 0.327964 3.22136e-20)
(1.41314 0.2344 -1.62859e-19)
(1.47126 0.171705 9.40015e-22)
(1.5305 0.131779 9.55454e-20)
(1.58318 0.0693868 5.16367e-20)
(1.45628 -0.0589906 4.52998e-21)
(0.690788 0.908887 -5.81802e-21)
(0.872767 0.952235 5.67765e-20)
(1.06398 0.915847 -1.38951e-20)
(1.23246 0.852476 1.05831e-19)
(1.35321 0.723591 1.14954e-19)
(1.4641 0.61697 2.09614e-19)
(1.53666 0.485111 4.41452e-21)
(1.5722 0.366477 -2.36313e-20)
(1.56715 0.240543 -9.25518e-20)
(1.4562 0.0750381 -9.93086e-21)
(0.709011 1.01488 1.36228e-20)
(0.852548 1.04522 2.57625e-20)
(1.0108 1.03678 2.35983e-20)
(1.15926 0.977408 -2.35831e-20)
(1.28345 0.877075 -7.47203e-20)
(1.39088 0.772841 -5.84213e-20)
(1.43649 0.62985 1.3245e-20)
(1.47753 0.497921 2.85927e-20)
(1.47858 0.356614 4.4949e-20)
(1.42189 0.201058 1.94587e-20)
(0.728313 0.99724 -2.70267e-21)
(0.838368 1.01591 -1.0796e-20)
(0.957401 1.01602 5.51363e-20)
(1.05657 0.952893 3.0962e-20)
(1.15692 0.873755 -4.36648e-20)
(1.24963 0.776977 5.30812e-20)
(1.30792 0.661674 -8.39912e-23)
(1.35619 0.559188 5.79824e-21)
(1.36553 0.433498 -6.03067e-22)
(1.35943 0.305878 -9.35114e-21)
(0.750877 0.919789 -1.13423e-21)
(0.812419 0.925032 -2.81423e-20)
(0.885039 0.920664 -7.17664e-21)
(0.95587 0.88618 -2.00355e-20)
(1.04624 0.836579 4.58386e-21)
(1.12319 0.745553 -9.1587e-20)
(1.18996 0.654615 6.59715e-20)
(1.21976 0.563005 -1.58455e-20)
(1.25116 0.464605 5.02466e-21)
(1.2792 0.369236 -2.06633e-20)
(0.755399 0.911561 -4.10856e-21)
(0.791019 0.888759 -1.35169e-22)
(0.843433 0.857172 8.40117e-21)
(0.903483 0.81651 1.80001e-20)
(0.94581 0.778151 -3.13402e-20)
(0.984345 0.706355 3.84732e-20)
(1.06635 0.64859 -2.67033e-20)
(1.09735 0.568325 -2.86915e-20)
(1.15436 0.495078 1.95077e-20)
(1.193 0.405767 2.98754e-21)
(0.711379 0.887993 -2.66309e-21)
(0.718355 0.851952 3.05492e-20)
(0.731485 0.793372 -1.79957e-20)
(0.790415 0.746409 -3.30404e-20)
(0.842287 0.705182 -6.66239e-21)
(0.90317 0.640763 2.15528e-20)
(0.97282 0.597838 -2.13388e-20)
(0.986816 0.53767 -1.13038e-20)
(1.04554 0.500773 -3.66941e-20)
(1.09586 0.431796 1.27632e-20)
(0.651681 0.929798 2.35989e-21)
(0.650736 0.88203 -2.21101e-20)
(0.653467 0.804158 9.56834e-21)
(0.715522 0.746078 -6.80428e-21)
(0.744858 0.67381 2.79896e-20)
(0.788092 0.615374 -4.90394e-21)
(0.857533 0.556814 2.35888e-20)
(0.90446 0.503199 1.26386e-20)
(0.967529 0.466321 1.66729e-20)
(1.01411 0.409635 7.39983e-21)
(0.557847 0.876667 3.7736e-22)
(0.532506 0.8065 1.08221e-20)
(0.513225 0.713399 -1.47672e-20)
(0.547807 0.676225 2.33242e-20)
(0.600627 0.612958 -4.71422e-21)
(0.693872 0.578667 -1.79976e-20)
(0.767014 0.522231 -9.41343e-21)
(0.807789 0.476178 -5.70447e-21)
(0.856813 0.444854 -4.23191e-21)
(0.903148 0.401201 -5.6011e-21)
(0.415904 0.723307 6.33821e-22)
(0.374888 0.674817 2.68452e-21)
(0.392436 0.600705 -2.21847e-20)
(0.463361 0.567052 -4.72351e-21)
(0.517041 0.504973 1.39146e-20)
(0.574518 0.483994 -2.59327e-21)
(0.625885 0.444345 -7.56376e-21)
(0.707845 0.418386 5.91735e-21)
(0.793273 0.397626 -5.00863e-22)
(0.842726 0.380211 4.34805e-22)
(0.380713 0.403716 4.12851e-21)
(0.311895 0.395009 -2.30725e-20)
(0.29171 0.367452 2.0607e-20)
(0.314807 0.374687 5.42423e-21)
(0.36817 0.355436 5.22571e-21)
(0.484891 0.35675 -5.37833e-21)
(0.568122 0.334611 -1.12512e-20)
(0.633488 0.336684 3.2983e-22)
(0.7008 0.33478 1.0574e-21)
(0.76118 0.331599 -2.26383e-22)
(0.366249 -0.0644677 -7.65694e-21)
(0.261748 -0.0360812 3.69319e-20)
(0.237898 -0.0212769 2.24369e-20)
(0.284729 0.00659137 -2.47052e-20)
(0.33414 0.0289293 -2.03608e-20)
(0.385044 0.086993 5.86247e-23)
(0.436649 0.110063 4.19843e-21)
(0.533868 0.140179 -5.7933e-23)
(0.632206 0.160332 4.8493e-22)
(0.685053 0.185537 -1.84774e-21)
(0.380811 -0.422919 3.57664e-21)
(0.30973 -0.347775 -1.50648e-20)
(0.284349 -0.274145 -1.24842e-20)
(0.286628 -0.184365 4.60144e-21)
(0.351337 -0.129103 1.93964e-20)
(0.434999 -0.0851759 3.10583e-20)
(0.480876 -0.0522644 1.80601e-20)
(0.521304 -0.00399568 1.06882e-21)
(0.561911 0.0119278 -8.9628e-22)
(0.60742 0.0437739 2.68256e-21)
(0.476913 -0.211608 -7.81608e-21)
(0.531699 -0.151346 -5.77476e-23)
(0.585816 -0.116956 2.16686e-21)
(0.636817 -0.0867062 -6.96722e-22)
(0.984379 -0.0969911 0)
(1.04927 -0.0880953 0)
(1.08345 -0.0882385 0)
(1.09395 -0.0818991 0)
(1.10208 -0.0756464 0)
(1.10615 -0.0716309 0)
(1.10158 -0.0657722 0)
(1.09671 -0.0562845 0)
(1.0912 -0.0487494 0)
(1.08415 -0.0412647 0)
(1.07852 -0.0360074 0)
(1.07204 -0.0308676 0)
(1.06227 -0.0266004 0)
(1.05484 -0.0230279 0)
(1.0493 -0.0209192 0)
(1.04398 -0.0184568 0)
(1.03996 -0.0164011 0)
(1.03651 -0.0144148 0)
(1.03316 -0.0125824 0)
(1.03005 -0.0109132 0)
(1.02724 -0.00951401 0)
(1.02479 -0.00835006 0)
(1.02252 -0.00724824 0)
(1.02077 -0.00627291 0)
(1.01927 -0.00529912 0)
(1.01795 -0.00427815 0)
(1.01695 -0.0034331 0)
(1.01615 -0.00231164 0)
(1.01557 -0.00136766 0)
(1.01522 -0.000602268 0)
(1.02413 -0.134482 0)
(1.06498 -0.110994 0)
(1.08983 -0.0937314 0)
(1.09861 -0.0751506 0)
(1.10105 -0.0596982 0)
(1.10329 -0.0496622 0)
(1.10493 -0.040316 0)
(1.10321 -0.0329091 0)
(1.09846 -0.0270789 0)
(1.09241 -0.0245789 0)
(1.08578 -0.023303 0)
(1.07532 -0.0226903 0)
(1.0648 -0.0218206 0)
(1.05602 -0.0217321 0)
(1.04841 -0.0203202 0)
(1.04294 -0.018421 0)
(1.03919 -0.0162194 0)
(1.03613 -0.0142375 0)
(1.03311 -0.0123627 0)
(1.03031 -0.010802 0)
(1.02765 -0.0094249 0)
(1.02523 -0.00822805 0)
(1.02306 -0.00712614 0)
(1.02134 -0.00614977 0)
(1.01979 -0.0051872 0)
(1.01847 -0.00420035 0)
(1.01743 -0.00338552 0)
(1.01658 -0.00229241 0)
(1.016 -0.00135894 0)
(1.01563 -0.000595965 0)
(1.06187 -0.175963 0)
(1.08395 -0.147991 0)
(1.11139 -0.126174 0)
(1.12231 -0.105037 0)
(1.12703 -0.0864171 0)
(1.12603 -0.0728366 0)
(1.11897 -0.0608396 0)
(1.10998 -0.0479045 0)
(1.09991 -0.0379827 0)
(1.09208 -0.031899 0)
(1.08331 -0.0272575 0)
(1.07434 -0.0233053 0)
(1.06564 -0.0210694 0)
(1.05819 -0.019022 0)
(1.052 -0.0173256 0)
(1.04683 -0.0154833 0)
(1.04271 -0.0139584 0)
(1.03853 -0.0123199 0)
(1.03482 -0.0108862 0)
(1.03131 -0.00963593 0)
(1.02821 -0.00855252 0)
(1.02542 -0.0076242 0)
(1.02309 -0.0067357 0)
(1.02123 -0.00592331 0)
(1.01958 -0.00503472 0)
(1.01828 -0.00410659 0)
(1.01723 -0.00333128 0)
(1.01638 -0.00226594 0)
(1.01582 -0.00134675 0)
(1.01546 -0.00058823 0)
(1.12544 -0.197261 0)
(1.13619 -0.149702 0)
(1.14211 -0.11681 0)
(1.13872 -0.0836665 0)
(1.13437 -0.0593758 0)
(1.13082 -0.0428029 0)
(1.12875 -0.0300073 0)
(1.12186 -0.0195484 0)
(1.11436 -0.0144852 0)
(1.1043 -0.0121822 0)
(1.09291 -0.0116824 0)
(1.08058 -0.0126458 0)
(1.06954 -0.0141114 0)
(1.05919 -0.0149112 0)
(1.05073 -0.0144424 0)
(1.04529 -0.0135841 0)
(1.04111 -0.0122591 0)
(1.0376 -0.0110387 0)
(1.03441 -0.00997139 0)
(1.03136 -0.00902417 0)
(1.02852 -0.00811461 0)
(1.0259 -0.00725623 0)
(1.02375 -0.00645354 0)
(1.02187 -0.005672 0)
(1.02023 -0.00484767 0)
(1.01891 -0.00398766 0)
(1.01779 -0.00325029 0)
(1.01691 -0.00223171 0)
(1.01633 -0.00133223 0)
(1.01594 -0.000577751 0)
(1.19532 -0.222105 0)
(1.19035 -0.176056 0)
(1.18631 -0.13711 0)
(1.17604 -0.103411 0)
(1.16507 -0.0787202 0)
(1.15448 -0.0612354 0)
(1.13764 -0.0443685 0)
(1.12272 -0.0324767 0)
(1.10807 -0.0233752 0)
(1.09544 -0.0185409 0)
(1.08374 -0.0151294 0)
(1.075 -0.0141901 0)
(1.06629 -0.0136004 0)
(1.05906 -0.0130864 0)
(1.05385 -0.0125732 0)
(1.04897 -0.0117539 0)
(1.04466 -0.0107596 0)
(1.04027 -0.0097127 0)
(1.03631 -0.00884921 0)
(1.03258 -0.00808157 0)
(1.02921 -0.0073722 0)
(1.02628 -0.00676684 0)
(1.02389 -0.00612602 0)
(1.02182 -0.00546149 0)
(1.02012 -0.00470801 0)
(1.01876 -0.00388778 0)
(1.01762 -0.00318214 0)
(1.01672 -0.00219825 0)
(1.01613 -0.00131543 0)
(1.01574 -0.000567236 0)
(1.28545 -0.188401 0)
(1.25678 -0.141475 0)
(1.22239 -0.0917785 0)
(1.19812 -0.0594954 0)
(1.17975 -0.037795 0)
(1.16274 -0.0205325 0)
(1.15274 -0.0101843 0)
(1.1397 -0.001897 0)
(1.12627 0.00102152 0)
(1.11085 0.00312469 0)
(1.09739 0.00134281 0)
(1.08327 -0.00107889 0)
(1.07135 -0.00415309 0)
(1.06085 -0.00604179 0)
(1.05266 -0.00705099 0)
(1.04718 -0.00727987 0)
(1.04276 -0.00714758 0)
(1.03921 -0.00702298 0)
(1.03583 -0.00698797 0)
(1.03264 -0.00677735 0)
(1.02959 -0.00645518 0)
(1.02698 -0.00606281 0)
(1.02471 -0.00558983 0)
(1.02266 -0.00503608 0)
(1.02097 -0.00441245 0)
(1.01954 -0.00369274 0)
(1.01832 -0.00304943 0)
(1.01736 -0.00213151 0)
(1.0167 -0.00128242 0)
(1.0163 -0.000550393 0)
(1.35871 -0.134427 0)
(1.30785 -0.109119 0)
(1.25984 -0.076905 0)
(1.22347 -0.0532184 0)
(1.19775 -0.0363497 0)
(1.17456 -0.0230386 0)
(1.14963 -0.0111948 0)
(1.13019 -0.00527949 0)
(1.10939 0.000259673 0)
(1.09397 0.000253697 0)
(1.08033 0.000107868 0)
(1.07136 -0.00249577 0)
(1.06317 -0.00418704 0)
(1.05773 -0.00612214 0)
(1.05363 -0.00701706 0)
(1.04939 -0.00730164 0)
(1.04531 -0.00703834 0)
(1.0411 -0.00674485 0)
(1.03709 -0.00648193 0)
(1.03326 -0.00623548 0)
(1.02983 -0.00598187 0)
(1.02701 -0.00576031 0)
(1.0245 -0.00533823 0)
(1.0224 -0.00485903 0)
(1.02069 -0.00427537 0)
(1.01925 -0.00356737 0)
(1.01806 -0.00295685 0)
(1.01712 -0.00207607 0)
(1.01645 -0.0012503 0)
(1.01605 -0.000535644 0)
(1.40347 -0.0294752 0)
(1.33841 -0.0229671 0)
(1.27952 -0.00536166 0)
(1.24011 0.00432607 0)
(1.20622 0.0141856 0)
(1.18121 0.0201378 0)
(1.16612 0.0202203 0)
(1.14547 0.0227075 0)
(1.12773 0.0212533 0)
(1.10973 0.0197503 0)
(1.09472 0.0154307 0)
(1.07984 0.0118688 0)
(1.06875 0.00709438 0)
(1.05926 0.00414937 0)
(1.05182 0.00170312 0)
(1.0469 0.000163951 0)
(1.04282 -0.0012553 0)
(1.03932 -0.00244367 0)
(1.03593 -0.00350033 0)
(1.03269 -0.00412501 0)
(1.02986 -0.00453675 0)
(1.02733 -0.00465022 0)
(1.02503 -0.00451596 0)
(1.02307 -0.00426466 0)
(1.02139 -0.00385941 0)
(1.01995 -0.0032939 0)
(1.01874 -0.00277293 0)
(1.01777 -0.00197063 0)
(1.01707 -0.00119517 0)
(1.01666 -0.0005123 0)
(1.40891 0.0667177 0)
(1.33813 0.0444167 0)
(1.28243 0.0501707 0)
(1.24176 0.0350566 0)
(1.2056 0.0371428 0)
(1.17665 0.0354157 0)
(1.14954 0.0348239 0)
(1.12625 0.0325745 0)
(1.10491 0.0287884 0)
(1.08712 0.0220851 0)
(1.0719 0.0173041 0)
(1.06311 0.010513 0)
(1.05634 0.00593254 0)
(1.05246 0.00143609 0)
(1.04964 -0.000871138 0)
(1.04648 -0.0025342 0)
(1.04311 -0.0030795 0)
(1.0392 -0.00355172 0)
(1.03557 -0.00389408 0)
(1.03207 -0.00425654 0)
(1.02909 -0.0045149 0)
(1.02641 -0.00460963 0)
(1.02412 -0.00443309 0)
(1.02227 -0.00417435 0)
(1.02068 -0.00375073 0)
(1.01937 -0.0031714 0)
(1.01827 -0.00267165 0)
(1.01737 -0.00190351 0)
(1.01672 -0.00115466 0)
(1.01635 -0.000494851 0)
(1.38724 0.154471 0)
(1.32674 0.133117 0)
(1.27747 0.109035 0)
(1.23511 0.0949959 0)
(1.19998 0.0849278 0)
(1.18041 0.070221 0)
(1.15902 0.0580387 0)
(1.13667 0.0506367 0)
(1.11725 0.0417272 0)
(1.09928 0.0362653 0)
(1.08492 0.029377 0)
(1.07155 0.0244466 0)
(1.06266 0.0185011 0)
(1.05451 0.0150208 0)
(1.04885 0.011011 0)
(1.04492 0.00796181 0)
(1.04118 0.00493551 0)
(1.03791 0.00237543 0)
(1.03474 0.000130867 0)
(1.03176 -0.00138081 0)
(1.0292 -0.00251201 0)
(1.02678 -0.00310212 0)
(1.02475 -0.00338832 0)
(1.02296 -0.00344679 0)
(1.02138 -0.00325211 0)
(1.02008 -0.00285879 0)
(1.01896 -0.00246115 0)
(1.01806 -0.00177796 0)
(1.0174 -0.00108896 0)
(1.01702 -0.000467369 0)
(1.33531 0.228861 0)
(1.27495 0.210349 0)
(1.24838 0.160628 0)
(1.21375 0.131684 0)
(1.18101 0.121673 0)
(1.15938 0.0973757 0)
(1.13269 0.0869526 0)
(1.1138 0.0717145 0)
(1.09471 0.057742 0)
(1.07668 0.0442156 0)
(1.06191 0.0337564 0)
(1.05396 0.0229312 0)
(1.04823 0.0157433 0)
(1.04587 0.00897139 0)
(1.04431 0.00512652 0)
(1.04211 0.00231293 0)
(1.03938 0.000967166 0)
(1.03642 -0.000380827 0)
(1.03326 -0.00132663 0)
(1.03042 -0.0022854 0)
(1.02785 -0.00298506 0)
(1.02557 -0.00339371 0)
(1.02368 -0.00350455 0)
(1.02203 -0.00342863 0)
(1.02061 -0.00317652 0)
(1.01944 -0.00274524 0)
(1.01843 -0.00235372 0)
(1.0176 -0.00170572 0)
(1.01699 -0.00104409 0)
(1.01663 -0.000447435 0)
(1.27633 0.281943 0)
(1.2223 0.269036 0)
(1.20257 0.202298 0)
(1.17034 0.188979 0)
(1.16522 0.148675 0)
(1.14516 0.117439 0)
(1.12822 0.0972245 0)
(1.11022 0.076545 0)
(1.0938 0.0612941 0)
(1.08097 0.0509527 0)
(1.07052 0.0417338 0)
(1.06112 0.0354626 0)
(1.05526 0.0290662 0)
(1.04968 0.0250322 0)
(1.0462 0.0196824 0)
(1.04323 0.0153511 0)
(1.04026 0.0106556 0)
(1.03723 0.00681389 0)
(1.03419 0.00359415 0)
(1.03149 0.00126796 0)
(1.02907 -0.000473116 0)
(1.02687 -0.00156114 0)
(1.02496 -0.00224072 0)
(1.02321 -0.00257551 0)
(1.02168 -0.00260489 0)
(1.02041 -0.00238439 0)
(1.01931 -0.00211103 0)
(1.01842 -0.00155574 0)
(1.01776 -0.00096326 0)
(1.01738 -0.000414913 0)
(1.19812 0.318896 0)
(1.15302 0.301148 0)
(1.17203 0.208114 0)
(1.12736 0.222383 0)
(1.11877 0.164635 0)
(1.10401 0.152232 0)
(1.09364 0.127015 0)
(1.0853 0.101334 0)
(1.0747 0.0805638 0)
(1.06066 0.0622932 0)
(1.05006 0.0466269 0)
(1.04393 0.0333345 0)
(1.04015 0.0240226 0)
(1.03913 0.0156739 0)
(1.03829 0.0107791 0)
(1.03702 0.00701964 0)
(1.03536 0.00483209 0)
(1.03318 0.00276492 0)
(1.03093 0.00120672 0)
(1.02885 -0.000302998 0)
(1.02688 -0.00137473 0)
(1.02512 -0.0020859 0)
(1.02352 -0.00244315 0)
(1.02208 -0.00255206 0)
(1.0208 -0.0024959 0)
(1.01968 -0.00222799 0)
(1.0187 -0.00196304 0)
(1.01788 -0.00145477 0)
(1.01725 -0.000899754 0)
(1.0169 -0.000389093 0)
(1.11276 0.359513 0)
(1.05622 0.343984 0)
(1.10861 0.254401 0)
(1.07567 0.248058 0)
(1.09663 0.174602 0)
(1.08204 0.153041 0)
(1.07225 0.117417 0)
(1.06462 0.0927773 0)
(1.05542 0.0748953 0)
(1.0531 0.0600733 0)
(1.04955 0.0498257 0)
(1.04695 0.0425858 0)
(1.04516 0.036376 0)
(1.04317 0.0320387 0)
(1.04236 0.0259804 0)
(1.04088 0.0207131 0)
(1.03879 0.0149323 0)
(1.03612 0.0103027 0)
(1.03351 0.00640196 0)
(1.03103 0.00356558 0)
(1.02889 0.00139175 0)
(1.02688 -8.31458e-05 0)
(1.02507 -0.00107183 0)
(1.02343 -0.00165533 0)
(1.02194 -0.00188763 0)
(1.02071 -0.00183162 0)
(1.01963 -0.001693 0)
(1.01876 -0.00127945 0)
(1.01809 -0.000801531 0)
(1.01772 -0.000351979 0)
(1.05328 0.342868 0)
(1.00373 0.317942 0)
(1.0521 0.266447 0)
(0.990026 0.252294 0)
(1.03147 0.194762 0)
(1.01432 0.186134 0)
(1.03891 0.142126 0)
(1.03916 0.116451 0)
(1.0409 0.0918747 0)
(1.03593 0.0713854 0)
(1.03302 0.0532978 0)
(1.03045 0.0397805 0)
(1.03006 0.0295112 0)
(1.03033 0.0207319 0)
(1.0299 0.0154249 0)
(1.02952 0.0111739 0)
(1.02887 0.00834593 0)
(1.02802 0.00564279 0)
(1.02694 0.00354349 0)
(1.02591 0.0016311 0)
(1.02482 0.000255293 0)
(1.02376 -0.000679354 0)
(1.02268 -0.00126997 0)
(1.02161 -0.00157175 0)
(1.02058 -0.00171465 0)
(1.01964 -0.00162662 0)
(1.01877 -0.00150455 0)
(1.01804 -0.00115257 0)
(1.01745 -0.000722875 0)
(1.01712 -0.000321224 0)
(0.954214 0.328687 0)
(0.937959 0.293187 0)
(1.01811 0.234732 0)
(0.94157 0.220347 0)
(1.02495 0.152003 0)
(0.989143 0.153046 0)
(0.9977 0.11078 0)
(1.00123 0.0954959 0)
(1.00896 0.0751045 0)
(1.01791 0.0590529 0)
(1.02237 0.0497646 0)
(1.02793 0.042314 0)
(1.03066 0.0369565 0)
(1.03321 0.0329866 0)
(1.03545 0.0273944 0)
(1.03589 0.0222177 0)
(1.0351 0.0164021 0)
(1.03326 0.0117844 0)
(1.03131 0.00790459 0)
(1.02935 0.00500061 0)
(1.02765 0.00271607 0)
(1.02601 0.00106231 0)
(1.02447 -9.39248e-05 0)
(1.02305 -0.000834037 0)
(1.02177 -0.0012147 0)
(1.02068 -0.00128756 0)
(1.01975 -0.00126888 0)
(1.01896 -0.000993175 0)
(1.01836 -0.000630972 0)
(1.01802 -0.000286627 0)
(0.880922 0.334685 0)
(0.872135 0.305565 0)
(0.955645 0.25995 0)
(0.884789 0.241974 0)
(0.966538 0.191066 0)
(0.959539 0.170064 0)
(0.98841 0.129247 0)
(0.99448 0.10983 0)
(1.00281 0.085782 0)
(1.0084 0.0693501 0)
(1.01538 0.0528737 0)
(1.01754 0.0411872 0)
(1.02144 0.0314114 0)
(1.0222 0.0234714 0)
(1.02153 0.0184474 0)
(1.02157 0.0141485 0)
(1.02177 0.010928 0)
(1.02222 0.00782821 0)
(1.02241 0.00535922 0)
(1.02259 0.00323137 0)
(1.02249 0.0016901 0)
(1.0222 0.000623105 0)
(1.0217 -0.000148345 0)
(1.02101 -0.000626719 0)
(1.02026 -0.00095788 0)
(1.0195 -0.0010414 0)
(1.01877 -0.00105736 0)
(1.01812 -0.000854439 0)
(1.01759 -0.00054806 0)
(1.0173 -0.000253852 0)
(0.81229 0.300077 0)
(0.797016 0.242459 0)
(0.864687 0.220134 0)
(0.837615 0.171079 0)
(0.888259 0.148634 0)
(0.899796 0.123626 0)
(0.925193 0.0991501 0)
(0.94997 0.0785487 0)
(0.971626 0.0608503 0)
(0.987069 0.046002 0)
(0.99744 0.0381412 0)
(1.00998 0.0319491 0)
(1.01647 0.0285729 0)
(1.02369 0.0260874 0)
(1.02902 0.0221853 0)
(1.0314 0.0184124 0)
(1.03188 0.014 0)
(1.03092 0.0105159 0)
(1.0297 0.00749939 0)
(1.02829 0.00510103 0)
(1.02692 0.00315809 0)
(1.02556 0.00162891 0)
(1.02422 0.000527936 0)
(1.02298 -0.000224435 0)
(1.02181 -0.000663132 0)
(1.02081 -0.000812659 0)
(1.01994 -0.000886963 0)
(1.01919 -0.000728797 0)
(1.01861 -0.000471993 0)
(1.01829 -0.000225043 0)
(0.739151 0.191051 0)
(0.76795 0.140107 0)
(0.829442 0.145839 0)
(0.825125 0.107539 0)
(0.876651 0.101457 0)
(0.903695 0.0780565 0)
(0.921565 0.0692126 0)
(0.941803 0.0692353 0)
(0.962915 0.0607264 0)
(0.983723 0.055368 0)
(1.00299 0.0458654 0)
(1.01035 0.0377534 0)
(1.01822 0.0301679 0)
(1.01849 0.0237967 0)
(1.01702 0.0195897 0)
(1.01655 0.0156828 0)
(1.01688 0.0124119 0)
(1.01813 0.00918735 0)
(1.01929 0.00652535 0)
(1.02034 0.00443254 0)
(1.02097 0.0028942 0)
(1.02127 0.00178195 0)
(1.02118 0.000875071 0)
(1.02075 0.000247808 0)
(1.02015 -0.000237864 0)
(1.0195 -0.000487529 0)
(1.01884 -0.000631326 0)
(1.01823 -0.000564068 0)
(1.01772 -0.000377493 0)
(1.01744 -0.000188581 0)
(0.679451 0.0639245 0)
(0.704302 0.0139187 0)
(0.764196 0.0139651 0)
(0.775266 0.0033397 0)
(0.820108 0.0278868 0)
(0.866324 0.00786704 0)
(0.911672 0.0102883 0)
(0.943343 0.00369507 0)
(0.955853 0.00511986 0)
(0.967934 0.0069406 0)
(0.976278 0.00796272 0)
(0.992838 0.0102208 0)
(1.00209 0.0112569 0)
(1.0139 0.011857 0)
(1.02192 0.0106899 0)
(1.026 0.00959401 0)
(1.0278 0.00782458 0)
(1.02786 0.00644734 0)
(1.02744 0.00511609 0)
(1.02661 0.00382679 0)
(1.02567 0.00264222 0)
(1.02467 0.00154559 0)
(1.02359 0.000744209 0)
(1.02258 0.000150012 0)
(1.02163 -0.000256918 0)
(1.02078 -0.000429503 0)
(1.02002 -0.000559109 0)
(1.01935 -0.000496231 0)
(1.0188 -0.000329866 0)
(1.01852 -0.000170415 0)
(0.679046 -0.0862968 0)
(0.706084 -0.106367 0)
(0.802339 -0.118726 0)
(0.861901 -0.123898 0)
(0.872459 -0.0706313 0)
(0.883381 -0.0237983 0)
(0.911606 0.0129883 0)
(0.936679 0.0230454 0)
(0.967675 0.0336181 0)
(0.989865 0.0311351 0)
(1.00872 0.0321497 0)
(1.01442 0.0271366 0)
(1.02049 0.0243278 0)
(1.01852 0.0207794 0)
(1.01517 0.0184714 0)
(1.01389 0.0153384 0)
(1.01366 0.0123585 0)
(1.01508 0.00941369 0)
(1.01666 0.00687285 0)
(1.01821 0.00504685 0)
(1.01934 0.00362117 0)
(1.01998 0.00256505 0)
(1.0202 0.00160488 0)
(1.02003 0.000861088 0)
(1.01965 0.000269007 0)
(1.01917 -8.53191e-05 0)
(1.01867 -0.000317512 0)
(1.01818 -0.000347262 0)
(1.01776 -0.000248613 0)
(1.01753 -0.000139084 0)
(0.608689 -0.110009 0)
(0.625489 -0.101227 0)
(1.09298 -0.0450668 3.30316e-20)
(1.04261 -0.0583046 -8.6848e-21)
(1.03727 -0.0660091 3.70257e-21)
(1.05608 -0.0734656 8.07924e-22)
(1.06853 -0.072338 -1.71498e-21)
(1.07027 -0.0688048 -7.70674e-22)
(1.0699 -0.0632011 4.25216e-22)
(1.06705 -0.0551231 -1.36847e-21)
(1.06061 -0.0442727 3.50124e-21)
(1.0574 -0.0391023 1.59095e-21)
(1.08344 -0.0337083 3.38644e-21)
(1.10771 -0.0410035 3.79479e-21)
(1.1029 -0.0531523 5.79416e-21)
(1.08477 -0.0554027 -4.54603e-22)
(1.07203 -0.0503022 -3.33114e-22)
(1.06932 -0.050221 -8.56246e-22)
(1.07469 -0.0548893 1.44442e-21)
(1.07388 -0.0521143 -3.17161e-21)
(1.06806 -0.047446 7.38267e-22)
(1.0673 -0.044584 5.33634e-22)
(1.06204 -0.0400931 9.07644e-22)
(1.05354 -0.0332923 -1.38172e-22)
(1.04869 -0.0296349 4.54947e-21)
(1.04365 -0.0258861 -3.78003e-21)
(1.03853 -0.0223322 -4.70029e-21)
(1.03557 -0.0196618 5.23167e-21)
(1.03298 -0.0174435 -6.15333e-21)
(1.03032 -0.0152517 4.05101e-21)
(1.02807 -0.0133964 1.39498e-21)
(1.0259 -0.011692 -1.1948e-21)
(1.02387 -0.0101362 3.38235e-22)
(1.02207 -0.00880924 8.52437e-22)
(1.02057 -0.00762817 -1.34101e-22)
(1.01909 -0.00648356 -1.64534e-21)
(1.01794 -0.00540177 1.14446e-21)
(1.01696 -0.00435556 -3.90011e-22)
(1.0161 -0.00342772 2.86743e-22)
(1.01546 -0.00225604 -5.27207e-22)
(1.01497 -0.0013453 -5.50962e-22)
(1.01468 -0.000603982 -1.49615e-21)
(1.01786 -0.0250485 1.17426e-20)
(1.01572 -0.0428994 -3.8564e-21)
(1.05184 -0.0625549 -2.15708e-21)
(1.0745 -0.0698689 1.30976e-21)
(1.07351 -0.0628914 -6.28346e-22)
(1.07188 -0.0579789 1.41913e-21)
(1.07466 -0.0531166 -9.45581e-22)
(1.07047 -0.0450184 2.94371e-21)
(1.06882 -0.0389941 -3.00105e-21)
(1.06982 -0.037769 -1.59824e-21)
(1.06285 -0.0327435 4.4085e-21)
(1.0556 -0.0298605 1.47154e-21)
(1.05148 -0.0289179 -2.14091e-21)
(1.04483 -0.0274665 -8.59569e-22)
(1.03949 -0.0252567 -2.35325e-21)
(1.0365 -0.0233243 1.78802e-21)
(1.03358 -0.0203647 1.24887e-21)
(1.03127 -0.0174962 3.77818e-21)
(1.02926 -0.0149417 -9.51756e-21)
(1.02715 -0.012768 3.62347e-21)
(1.025 -0.0108671 1.74063e-22)
(1.02314 -0.00932298 2.47575e-22)
(1.02146 -0.00795327 3.50219e-24)
(1.01986 -0.00666845 -6.58261e-22)
(1.01866 -0.00553434 1.42337e-21)
(1.01756 -0.00443102 -1.96035e-23)
(1.01663 -0.00348466 3.14727e-22)
(1.01594 -0.00231109 -6.00195e-22)
(1.0154 -0.00137105 8.5166e-22)
(1.01509 -0.000609488 2.61695e-22)
(1.08906 -0.0299184 -4.26246e-22)