/*--------------------------------*- C++ -*----------------------------------*\
| =========                 |                                                 |
| \\      /  F ield         | OpenFOAM: The Open Source CFD Toolbox           |
|  \\    /   O peration     | Version:                                        |
|   \\  /    A nd           | Website:  www.openfoam.com                      |
|    \\/     M anipulation  |                                                 |
\*---------------------------------------------------------------------------*/
FoamFile
{
    version     2.0;
    format      ascii;
    class       volVectorField;
    location    "91";
    object      U;
}
// * * * * * * * * * * * * * * * * * * * * * * * * * * * * * * * * * * * * * //

dimensions      [0 1 -1 0 0 0 0];


internalField   nonuniform List<vector> 
1147
(
(-0.187359 -0.150121 2.37337e-20)
(-0.141662 -0.173876 1.22854e-19)
(-0.194993 -0.161907 4.43293e-19)
(-0.280312 -0.080497 -6.26922e-19)
(-0.386671 -0.0281163 2.37386e-19)
(-0.332039 0.0630615 1.12896e-19)
(-0.210189 -0.0125383 -6.15668e-20)
(0.248856 -0.115563 3.91943e-19)
(0.630562 -0.100798 -7.10909e-20)
(0.816774 -0.14061 -6.9661e-20)
(-0.246161 -0.227059 1.47497e-19)
(-0.298974 -0.216505 6.58535e-19)
(-0.415538 -0.107891 -2.42827e-19)
(-0.0177869 0.0199939 -3.50157e-20)
(0.593792 0.0296928 3.49522e-19)
(0.954323 -0.00339252 -6.09618e-19)
(1.15918 -0.0757457 2.13431e-19)
(1.3837 -0.100038 -1.89589e-19)
(1.49512 -0.113273 8.45372e-20)
(1.59615 -0.153933 5.76187e-21)
(-0.299036 -0.146503 -5.48144e-20)
(0.139948 -0.0312174 -4.77759e-19)
(0.709554 0.044381 9.59579e-20)
(1.04189 0.0614173 -6.48507e-20)
(1.3306 0.0751821 -1.37462e-19)
(1.48796 0.0191028 2.15981e-19)
(1.61623 -0.0459086 -1.34703e-19)
(1.67056 -0.101924 -1.19725e-19)
(1.68433 -0.148593 6.71701e-21)
(1.69326 -0.197182 -1.31131e-20)
(0.619359 0.0751322 5.73296e-20)
(1.00608 0.136279 2.02468e-19)
(1.32072 0.167383 -6.44173e-20)
(1.48654 0.146553 -6.17317e-21)
(1.62049 0.113771 9.30021e-20)
(1.65828 0.0545495 1.81092e-19)
(1.70784 0.00174513 2.98759e-19)
(1.69049 -0.0619718 -1.04386e-19)
(1.69726 -0.114604 -1.20073e-19)
(1.66764 -0.171964 -2.26533e-20)
(1.19456 0.257884 5.56124e-19)
(1.43793 0.262686 -1.40612e-19)
(1.56877 0.238651 6.72795e-20)
(1.6414 0.195889 2.04088e-20)
(1.67678 0.141218 3.73234e-19)
(1.68153 0.0820219 -4.51341e-20)
(1.6821 0.0246971 -1.37223e-19)
(1.66234 -0.0368204 2.73491e-19)
(1.65476 -0.0942963 4.49763e-21)
(1.62656 -0.155384 5.04113e-20)
(1.47693 0.365857 -3.26618e-19)
(1.58395 0.326235 -1.4038e-19)
(1.63423 0.278173 1.31109e-19)
(1.65662 0.219212 -1.22752e-19)
(1.65306 0.158301 -6.44604e-20)
(1.65295 0.0981614 3.64077e-19)
(1.63361 0.0382945 -2.27987e-20)
(1.62585 -0.0191889 -4.1882e-20)
(1.60214 -0.0787001 -2.87998e-20)
(1.58795 -0.136868 2.07971e-20)
(1.56324 0.411043 1.26943e-20)
(1.60226 0.358671 1.79573e-19)
(1.62122 0.295577 -1.58796e-19)
(1.62014 0.231174 2.47836e-19)
(1.61447 0.169758 -6.44907e-19)
(1.60795 0.109128 -2.48499e-19)
(1.59217 0.0495318 -4.92754e-20)
(1.58357 -0.0051225 3.1482e-20)
(1.55871 -0.0641707 6.93098e-21)
(1.54703 -0.119678 -9.87216e-21)
(1.55671 0.430246 -6.01552e-20)
(1.57842 0.37239 4.66042e-19)
(1.57574 0.299636 -1.38881e-19)
(1.57799 0.240625 -2.40501e-20)
(1.57076 0.174967 2.80223e-19)
(1.56304 0.117797 1.37419e-19)
(1.55385 0.0585961 -1.44256e-19)
(1.5409 0.00452397 6.74246e-20)
(1.5209 -0.0513684 -5.71522e-20)
(1.50452 -0.105034 1.78455e-20)
(1.52858 0.438064 4.18214e-19)
(1.53434 0.372768 3.64958e-19)
(1.52764 0.303783 -2.93314e-19)
(1.53709 0.244487 1.4541e-21)
(1.52398 0.178832 1.74419e-19)
(1.52366 0.126799 -7.53908e-20)
(1.5128 0.0653003 5.57045e-20)
(1.50229 0.0143332 2.25187e-20)
(1.48487 -0.0396544 -8.32832e-20)
(1.464 -0.0911256 5.23822e-21)
(1.48876 0.43965 -3.35921e-19)
(1.48264 0.370229 -6.05427e-19)
(1.48867 0.306254 7.29177e-19)
(1.4881 0.245474 -1.45462e-19)
(1.48255 0.184491 -1.86299e-19)
(1.48602 0.130845 -4.10885e-20)
(1.46896 0.0744991 1.32057e-19)
(1.46973 0.021873 -1.28159e-19)
(1.44631 -0.029337 -9.26879e-21)
(1.42924 -0.0774233 -4.68325e-21)
(1.44054 0.367369 3.31307e-19)
(1.44728 0.306159 -3.06276e-19)
(1.44003 0.246046 1.04638e-19)
(1.45066 0.187502 1.12735e-19)
(1.44393 0.134856 -2.22912e-20)
(1.43498 0.0811102 4.54314e-20)
(1.43593 0.0290034 3.42559e-20)
(1.41218 -0.0181624 5.07667e-20)
(1.39931 -0.0676913 2.08859e-20)
(1.39896 0.363846 6.51832e-21)
(1.40425 0.306467 1.4958e-19)
(1.40538 0.243749 2.95468e-20)
(1.41135 0.18929 -2.02704e-19)
(1.40929 0.138008 -1.77485e-20)
(1.40377 0.0856256 -1.2358e-19)
(1.39927 0.0358756 -1.16544e-20)
(1.38624 -0.00941513 -2.08188e-20)
(1.3654 -0.0570075 -1.25504e-20)
(1.3669 0.300286 -1.70934e-19)
(1.36279 0.24191 7.8757e-20)
(1.38043 0.191533 -2.30709e-19)
(1.37236 0.138548 -6.34321e-20)
(1.36911 0.0905347 3.03284e-20)
(1.37147 0.0412212 -3.00525e-20)
(1.35149 -0.00101806 3.75725e-20)
(1.34019 -0.0477021 1.00205e-21)
(1.32213 0.29661 2.79529e-19)
(1.32802 0.240088 2.96704e-20)
(1.34607 0.188197 1.3406e-19)
(1.33901 0.142219 1.31095e-19)
(1.33771 0.0917461 6.40329e-20)
(1.34031 0.0454884 1.17652e-20)
(1.32602 0.00684696 -3.54185e-20)
(1.31089 -0.0402386 7.05283e-21)
(1.29461 0.23479 -6.48511e-20)
(1.31245 0.18587 -6.43045e-20)
(1.30862 0.141905 -9.73991e-20)
(1.31217 0.0941109 1.74276e-21)
(1.30887 0.0474744 -2.65867e-21)
(1.30337 0.0138622 8.07966e-21)
(1.28798 -0.0325977 5.98893e-21)
(1.26762 0.231629 8.1467e-20)
(1.27423 0.180197 1.20903e-19)
(1.28814 0.143216 -3.318e-20)
(1.27958 0.093406 -8.62344e-21)
(1.28422 0.0514307 7.74213e-20)
(1.27778 0.0159106 -3.58981e-20)
(1.26449 -0.0208978 3.97396e-21)
(1.23357 0.225828 5.26596e-20)
(1.24847 0.177257 -2.09327e-20)
(1.26031 0.137325 3.02609e-20)
(1.25537 0.099526 4.49696e-20)
(1.25973 0.0477275 1.98949e-20)
(1.25622 0.0226648 2.28458e-20)
(1.24328 -0.0164163 3.57467e-21)
(1.21408 0.167245 -9.63722e-20)
(1.23519 0.135794 -4.92943e-22)
(1.23332 0.0985237 -8.98189e-20)
(1.2318 0.050659 1.18526e-20)
(1.2397 0.0233897 -2.33879e-20)
(1.2211 -0.0100569 -6.15651e-21)
(1.18662 0.167608 -4.86931e-21)
(1.21368 0.1264 8.4851e-20)
(1.208 0.104091 -1.44509e-20)
(1.21341 0.050819 -2.3333e-21)
(1.2152 0.0233757 -4.50184e-21)
(1.2047 -0.00468826 -3.57872e-21)
(1.16982 0.164935 6.30699e-20)
(1.18177 0.122045 -1.71592e-19)
(1.19136 0.0963342 4.3273e-21)
(1.19374 0.053075 -1.42006e-20)
(1.19291 0.0163507 1.13626e-20)
(1.19463 -0.00305351 -8.23311e-22)
(0.169562 -0.774002 -3.3516e-20)
(0.136874 -0.530693 -7.29138e-20)
(0.0734099 -0.22593 -3.53748e-21)
(0.0116988 -0.00614802 -1.3828e-20)
(-0.0166139 0.0857335 2.39016e-19)
(-0.02491 0.0933771 -5.34148e-20)
(-0.0403374 0.0593264 4.76823e-20)
(-0.0848457 -0.0109545 4.29521e-19)
(-0.114742 -0.0765731 3.75858e-19)
(-0.162009 -0.131783 -7.29916e-19)
(0.139205 -1.10614 4.2326e-20)
(0.152401 -1.00015 -7.54757e-20)
(0.129574 -0.844547 -1.67206e-19)
(0.0626134 -0.643057 6.66549e-20)
(-0.0206118 -0.429255 -3.8688e-19)
(-0.104279 -0.262314 -1.53933e-19)
(-0.161261 -0.167884 -1.06682e-19)
(-0.233717 -0.156877 6.47527e-20)
(-0.25095 -0.171444 -1.82039e-19)
(-0.275747 -0.22524 2.43346e-19)
(0.2082 -1.05426 2.95621e-20)
(0.216901 -1.02227 4.78808e-20)
(0.206526 -0.94431 2.12709e-19)
(0.136277 -0.823682 -1.3247e-19)
(0.0166208 -0.650437 4.75614e-19)
(-0.0974361 -0.482103 9.02079e-20)
(-0.204316 -0.335894 3.4329e-19)
(-0.300399 -0.262463 1.15043e-20)
(-0.303327 -0.243521 8.05349e-20)
(-0.331506 -0.232443 -4.06245e-20)
(0.264373 -0.941213 -2.18684e-20)
(0.252835 -0.89494 -1.25968e-19)
(0.185511 -0.809433 5.85058e-20)
(0.103968 -0.658374 -1.07664e-19)
(-0.0534036 -0.512649 -3.94728e-19)
(-0.167826 -0.357304 1.0892e-19)
(-0.295364 -0.270535 -2.52702e-19)
(-0.289312 -0.172042 -8.52124e-19)
(0.133455 -0.0221124 -2.59024e-19)
(0.0726028 -0.416433 5.37094e-19)
(-0.151357 -0.309235 1.74442e-19)
(-0.0781079 -0.118037 -3.77694e-19)
(0.413908 0.0962845 3.98661e-19)
(0.854089 0.203048 4.14442e-19)
(0.100287 -0.117437 -9.69962e-20)
(0.542721 0.167973 -1.10639e-19)
(0.986672 0.312982 -4.73071e-19)
(1.27122 0.361351 -1.0099e-19)
(1.05306 0.389431 8.19192e-20)
(1.3043 0.445029 6.90303e-20)
(1.4716 0.455296 -2.59469e-20)
(1.45177 0.525403 2.09509e-19)
(1.53049 0.49293 1.27767e-19)
(1.51472 0.50395 -7.34786e-19)
(1.17535 0.00687586 -3.66583e-22)
(1.14744 0.00562867 3.02371e-21)
(1.13579 0.0118004 -3.322e-21)
(1.12586 0.002175 1.20662e-21)
(1.11661 -0.000987868 1.01769e-21)
(1.10503 -0.0029122 -1.82926e-22)
(1.09207 -0.00133693 -8.75436e-22)
(1.07978 0.00118685 2.50355e-22)
(1.06799 0.0040533 4.43389e-22)
(1.05764 0.00516408 -6.39741e-22)
(1.04907 0.00553052 2.32098e-22)
(1.04263 0.00470201 -2.09915e-23)
(1.03752 0.00384384 1.88414e-22)
(1.03267 0.0028973 -1.4727e-22)
(1.02864 0.00214203 5.24076e-23)
(1.02587 0.000728232 -8.21738e-24)
(1.0238 -0.000725674 -4.59147e-24)
(1.02219 -0.00216193 -1.17249e-23)
(1.02082 -0.00329626 -3.25349e-24)
(1.01963 -0.0040296 -3.06042e-24)
(1.01855 -0.00438813 -9.69404e-24)
(1.01762 -0.00444086 -4.17027e-23)
(1.01675 -0.00425807 8.76994e-24)
(1.01592 -0.0039111 -8.94276e-23)
(1.01518 -0.00342235 -2.6284e-23)
(1.0145 -0.0028383 6.05272e-23)
(1.01389 -0.00227263 -1.13634e-24)
(1.01343 -0.00142018 -6.1412e-24)
(1.01314 -0.000848872 5.52089e-23)
(1.01296 -0.000430655 -1.27797e-22)
(1.17202 0.0199568 -2.16734e-20)
(1.14964 0.0204044 6.43997e-21)
(1.13121 0.0339006 1.60707e-21)
(1.10641 0.0365339 5.12582e-22)
(1.08996 0.0401467 -2.36114e-22)
(1.07935 0.0366053 -3.97431e-22)
(1.0718 0.0300779 -1.40613e-21)
(1.06413 0.0236715 2.05265e-21)
(1.05659 0.0171431 4.74818e-22)
(1.04947 0.0126252 -1.79312e-21)
(1.04363 0.00844997 8.91012e-23)
(1.0387 0.00536852 -1.48449e-23)
(1.03455 0.00281851 1.444e-22)
(1.03135 0.000943895 -7.96805e-23)
(1.02893 -0.00084185 3.93706e-23)
(1.02699 -0.00238967 3.0871e-23)
(1.02557 -0.00375443 -2.26968e-23)
(1.02408 -0.0046455 1.32906e-22)
(1.02264 -0.00500078 -2.47544e-22)
(1.02116 -0.0050342 -2.15569e-23)
(1.01969 -0.00488894 2.0307e-22)
(1.01841 -0.0046643 1.47857e-22)
(1.01728 -0.00430622 -1.59373e-23)
(1.01632 -0.00383897 1.72179e-22)
(1.01553 -0.0032897 -1.18038e-23)
(1.01483 -0.00271151 -8.02586e-23)
(1.01423 -0.002204 7.31181e-23)
(1.01378 -0.00140881 9.94961e-24)
(1.01347 -0.000857702 -1.33935e-22)
(1.0133 -0.000434943 1.00248e-22)
(1.17015 0.0595988 2.35255e-20)
(1.14696 0.0526712 -2.73705e-22)
(1.13784 0.0492221 -1.10461e-20)
(1.12496 0.0330884 1.53957e-21)
(1.10846 0.0273199 -4.35342e-21)
(1.09146 0.0223988 5.19426e-21)
(1.07662 0.0203091 8.88878e-21)
(1.0654 0.0180831 -5.34332e-21)
(1.05586 0.016683 6.76379e-22)
(1.04734 0.0148592 1.72906e-21)
(1.04026 0.0129711 -1.69036e-21)
(1.03525 0.0102422 3.13908e-22)
(1.0312 0.00775393 1.25658e-22)
(1.0271 0.0056055 -3.26001e-22)
(1.0235 0.00416755 8.24305e-23)
(1.02127 0.00246835 4.59838e-23)
(1.01995 0.00086383 -2.35263e-22)
(1.01919 -0.00068749 9.44632e-23)
(1.01867 -0.00200057 1.55593e-23)
(1.01798 -0.00290359 7.07157e-24)
(1.01729 -0.00349386 1.58823e-22)
(1.0167 -0.00377431 -1.11982e-23)
(1.01605 -0.00376044 -3.23275e-23)
(1.01542 -0.00355854 -4.75446e-22)
(1.01486 -0.0031719 4.48388e-22)
(1.01433 -0.0026518 -4.69918e-22)
(1.01388 -0.00214782 -5.3681e-23)
(1.01354 -0.00135277 -1.3342e-22)
(1.01329 -0.000815013 -3.61299e-23)
(1.01313 -0.000418797 1.943e-22)
(1.168 0.0888497 4.24527e-20)
(1.129 0.0815807 -2.48171e-20)
(1.10193 0.0839624 -8.89298e-22)
(1.08177 0.0749165 4.0604e-21)
(1.07242 0.0683727 -6.86798e-21)
(1.06627 0.0566177 6.66667e-21)
(1.05985 0.0454486 3.0939e-22)
(1.05376 0.0350845 -5.49962e-21)
(1.04738 0.0256591 5.24655e-21)
(1.04087 0.0185374 -4.0679e-23)
(1.03529 0.012613 -1.45029e-21)
(1.03089 0.00836813 1.45981e-21)
(1.02805 0.00491649 -6.57422e-22)
(1.02624 0.00230201 -3.08791e-22)
(1.02464 8.36603e-05 1.23639e-23)
(1.02305 -0.00160297 1.96045e-22)
(1.02189 -0.00301511 1.48983e-22)
(1.02093 -0.00410436 5.8553e-23)
(1.02023 -0.00457547 -8.85172e-22)
(1.01928 -0.00462794 7.15976e-22)
(1.01842 -0.00454417 -1.22869e-22)
(1.01763 -0.00435464 -1.61872e-22)
(1.01677 -0.00401354 -3.712e-22)
(1.01603 -0.0036029 5.42843e-22)
(1.01539 -0.00310753 2.14285e-22)
(1.01479 -0.00257336 -2.8658e-22)
(1.0143 -0.00211936 2.06701e-23)
(1.01392 -0.00136535 2.59105e-22)
(1.01365 -0.000831993 1.69121e-22)
(1.01348 -0.000425127 -6.67325e-23)
(1.16072 0.119172 4.79878e-20)
(1.14423 0.1012 5.50427e-20)
(1.13204 0.0870441 -2.52031e-20)
(1.11152 0.0676987 -6.18878e-21)
(1.08862 0.0588546 -8.64232e-21)
(1.07162 0.0482744 9.71557e-21)
(1.06008 0.0398373 -7.94479e-21)
(1.05218 0.0325103 4.27448e-22)
(1.0458 0.0269755 4.11199e-21)
(1.03996 0.0220236 -1.95949e-21)
(1.0348 0.017629 1.37631e-21)
(1.03076 0.0132885 -1.94934e-22)
(1.02711 0.00968117 -6.38122e-23)
(1.02367 0.00670262 -2.89387e-23)
(1.02059 0.00473592 1.18934e-22)
(1.01885 0.00300873 -2.00192e-23)
(1.01784 0.00150109 -2.06832e-22)
(1.01778 -2.73021e-05 -4.80161e-23)
(1.01786 -0.00130636 2.77835e-22)
(1.01729 -0.00219153 4.76607e-22)
(1.01694 -0.00292693 -3.90444e-22)
(1.01652 -0.00330305 -2.51306e-22)
(1.01594 -0.00337408 2.54161e-22)
(1.01544 -0.00328248 -3.29344e-22)
(1.01493 -0.00296591 -3.08093e-22)
(1.01444 -0.00249706 3.71517e-22)
(1.01404 -0.00205164 -2.80332e-22)
(1.01371 -0.00130153 -1.57352e-22)
(1.01347 -0.000785375 5.96407e-23)
(1.0133 -0.000407389 -4.01403e-22)
(1.02819 0.0179264 -4.74285e-21)
(1.02487 0.0120348 1.17089e-21)
(1.02335 0.00713926 -1.56031e-21)
(1.02277 0.00335328 8.24132e-22)
(1.02194 0.00049012 8.83935e-23)
(1.02071 -0.00126605 -2.11679e-22)
(1.01938 -0.00254394 4.36547e-22)
(1.01907 -0.00376117 -4.17283e-22)
(1.01873 -0.00416196 9.62577e-23)
(1.01804 -0.00421889 -3.73112e-22)
(1.01783 -0.00427168 4.21673e-22)
(1.0173 -0.0040699 5.45138e-22)
(1.01665 -0.00374652 3.05578e-22)
(1.01611 -0.00339564 4.02783e-22)
(1.01553 -0.00293862 -8.25563e-22)
(1.01497 -0.00244853 5.88667e-23)
(1.01451 -0.00204473 1.4964e-22)
(1.01412 -0.00132541 5.77406e-22)
(1.01386 -0.000805265 -1.22593e-22)
(1.01368 -0.000413268 -1.15999e-22)
(1.05507 -0.177159 4.36408e-21)
(1.06003 -0.168446 7.31522e-22)
(1.06951 -0.156845 1.62983e-20)
(1.09838 -0.136556 3.10001e-20)
(1.11739 -0.126858 -2.84718e-20)
(1.13243 -0.109997 1.23057e-20)
(1.1473 -0.100205 2.70795e-20)
(1.15372 -0.0765839 1.04071e-20)
(1.17911 -0.0568148 -1.39448e-20)
(1.17434 -0.040233 7.78168e-22)
(1.04209 -0.183803 -1.66739e-21)
(1.06952 -0.188196 -2.13609e-20)
(1.06956 -0.179547 6.96781e-21)
(1.09217 -0.160785 -2.82937e-20)
(1.11905 -0.145576 -7.63174e-21)
(1.14244 -0.126227 4.93845e-20)
(1.16335 -0.113518 -9.59168e-21)
(1.16997 -0.0884225 -3.70006e-21)
(1.19119 -0.0631449 -3.79247e-21)
(1.19518 -0.0440605 -3.2307e-22)
(1.03025 -0.189074 -4.96528e-21)
(1.0725 -0.19941 1.34847e-20)
(1.08095 -0.19403 1.67212e-20)
(1.1013 -0.179352 -1.04789e-20)
(1.11843 -0.161242 -3.38769e-20)
(1.1474 -0.138961 -9.75359e-21)
(1.17312 -0.122959 -3.74974e-20)
(1.18701 -0.0971517 -1.89305e-20)
(1.20601 -0.0692444 -1.17959e-20)
(1.21913 -0.0464693 2.13804e-21)
(1.02109 -0.203489 -8.66268e-22)
(1.07082 -0.208422 6.72674e-21)
(1.09005 -0.205478 -6.16078e-20)
(1.11937 -0.19291 4.35937e-21)
(1.13496 -0.175383 -1.03042e-20)
(1.15662 -0.151122 4.8958e-21)
(1.18347 -0.132347 4.16804e-20)
(1.2005 -0.105851 -1.31862e-21)
(1.21945 -0.0771069 4.85638e-20)
(1.23357 -0.0520358 4.40866e-21)
(1.02237 -0.224379 5.07926e-22)
(1.06486 -0.223838 1.65078e-20)
(1.09501 -0.217066 4.90608e-20)
(1.12744 -0.208405 3.63247e-20)
(1.15441 -0.186742 1.9425e-20)
(1.17606 -0.166877 2.94591e-20)
(1.19852 -0.141775 -8.38512e-21)
(1.21833 -0.118282 1.41554e-20)
(1.23971 -0.0840531 -2.40378e-21)
(1.25069 -0.0617801 -6.67481e-21)
(1.03545 -0.250176 -7.82466e-21)
(1.06643 -0.245544 -4.05879e-21)
(1.10158 -0.232685 -1.41193e-20)
(1.13431 -0.226638 -6.33827e-20)
(1.16332 -0.20346 1.88133e-20)
(1.19339 -0.179834 -1.99647e-20)
(1.21806 -0.158898 -7.58467e-21)
(1.23215 -0.126969 -2.01993e-20)
(1.26477 -0.0981422 -3.34423e-21)
(1.27143 -0.0660034 8.95543e-21)
(1.04333 -0.273716 2.69514e-21)
(1.07522 -0.271864 -3.80145e-20)
(1.10981 -0.253915 2.60881e-20)
(1.14861 -0.245507 8.49775e-20)
(1.17359 -0.225861 4.39011e-20)
(1.20724 -0.196263 7.30559e-20)
(1.23619 -0.175799 2.592e-22)
(1.25165 -0.1417 2.58233e-21)
(1.28072 -0.109636 -8.22019e-21)
(1.29832 -0.0751464 8.37957e-21)
(1.04014 -0.296776 1.96692e-20)
(1.08448 -0.298136 -7.55773e-21)
(1.11738 -0.278106 -2.63809e-20)
(1.16318 -0.267815 -8.77778e-21)
(1.18959 -0.246907 -8.09954e-20)
(1.22557 -0.218341 -3.54673e-20)
(1.25467 -0.19202 4.38365e-20)
(1.2762 -0.1597 -5.16742e-20)
(1.3013 -0.122138 4.28687e-20)
(1.32332 -0.0863566 -9.9005e-21)
(1.04187 -0.323521 -2.59002e-20)
(1.08666 -0.324938 2.5206e-20)
(1.12837 -0.306255 -3.14207e-20)
(1.17299 -0.290528 -4.10034e-21)
(1.20592 -0.271128 -7.11889e-20)
(1.24315 -0.239268 1.75074e-20)
(1.27691 -0.211099 -7.66043e-20)
(1.30105 -0.176896 6.176e-21)
(1.32453 -0.137603 -1.13994e-20)
(1.35292 -0.0984496 -1.28611e-20)
(1.04764 -0.355255 2.65715e-20)
(1.09293 -0.354143 1.60888e-20)
(1.13918 -0.336872 -3.44883e-20)
(1.18795 -0.318148 -3.27976e-20)
(1.2239 -0.294927 1.48568e-19)
(1.26035 -0.264057 2.56967e-20)
(1.30034 -0.230477 1.89336e-20)
(1.32588 -0.194328 -1.02763e-20)
(1.35252 -0.15391 3.06123e-20)
(1.37783 -0.11139 1.18636e-20)
(1.05141 -0.390842 -7.31544e-20)
(1.10155 -0.387396 -5.8382e-20)
(1.14985 -0.370301 1.23235e-19)
(1.20475 -0.349533 -7.54335e-20)
(1.24527 -0.323015 3.68364e-20)
(1.2839 -0.289885 -8.27157e-20)
(1.3222 -0.253735 -1.51065e-20)
(1.35628 -0.214842 -5.93783e-21)
(1.37904 -0.169186 7.44272e-21)
(1.41036 -0.128504 -1.19884e-21)
(1.05388 -0.429396 5.43427e-20)
(1.1111 -0.424179 3.99887e-20)
(1.16369 -0.406204 -7.39483e-20)
(1.22003 -0.38346 1.32356e-20)
(1.2707 -0.354169 1.77164e-20)
(1.30904 -0.317753 -1.55466e-20)
(1.35215 -0.278736 1.33352e-20)
(1.3854 -0.236784 2.38353e-20)
(1.4132 -0.187526 -1.24676e-20)
(1.44341 -0.143454 -3.20396e-20)
(1.05588 -0.472999 3.97871e-21)
(1.12086 -0.466463 -2.31675e-20)
(1.18007 -0.446979 2.9801e-21)
(1.23624 -0.42097 2.51942e-20)
(1.2956 -0.389395 7.49331e-20)
(1.33545 -0.348921 4.14809e-20)
(1.38476 -0.305956 5.4865e-20)
(1.41602 -0.261693 -2.8557e-20)
(1.45139 -0.207509 -4.65235e-20)
(1.47551 -0.160392 3.64226e-20)
(1.05937 -0.521004 4.55429e-21)
(1.13181 -0.512617 2.92334e-20)
(1.20096 -0.491974 -4.07367e-20)
(1.25807 -0.462233 -1.7014e-20)
(1.32431 -0.427167 -2.38193e-19)
(1.36568 -0.38291 -9.62406e-20)
(1.42068 -0.334574 -1.72351e-19)
(1.45055 -0.286548 6.30627e-20)
(1.49266 -0.229762 1.76444e-20)
(1.51166 -0.177183 -2.50206e-20)
(1.0634 -0.577516 -2.17857e-20)
(1.14165 -0.566099 -7.99993e-21)
(1.22081 -0.543066 2.98969e-20)
(1.28407 -0.509444 -1.40838e-19)
(1.35419 -0.470083 -2.50934e-20)
(1.40216 -0.421736 1.03345e-19)
(1.45711 -0.367618 1.54589e-19)
(1.49194 -0.313727 -1.4945e-19)
(1.53281 -0.254294 6.52209e-20)
(1.55515 -0.19638 -1.20664e-21)
(1.07191 -0.639042 -6.72031e-20)
(1.1583 -0.625823 1.41883e-19)
(1.24287 -0.599346 1.11315e-20)
(1.31839 -0.559769 -1.68587e-20)
(1.38745 -0.514788 3.49014e-19)
(1.44878 -0.460867 -2.01585e-19)
(1.49693 -0.402455 -1.49772e-20)
(1.54352 -0.34121 8.88499e-20)
(1.57393 -0.278966 1.07605e-19)
(1.60881 -0.215039 1.12007e-20)
(1.07587 -0.71308 8.79877e-20)
(1.17548 -0.697541 -1.17844e-19)
(1.26546 -0.668719 -1.47802e-19)
(1.35382 -0.623205 2.11979e-19)
(1.42538 -0.568759 -1.05161e-19)
(1.49627 -0.504708 1.80007e-19)
(1.54531 -0.434887 3.28896e-19)
(1.59629 -0.365769 -8.42872e-20)
(1.62344 -0.29696 -1.09761e-19)
(1.6583 -0.231123 -3.03066e-20)
(1.08532 -0.793134 -3.28947e-19)
(1.19082 -0.777781 -9.52035e-20)
(1.294 -0.746598 -6.46113e-21)
(1.38354 -0.703579 6.32662e-20)
(1.4705 -0.64417 -1.36525e-19)
(1.53674 -0.578961 1.76234e-19)
(1.59933 -0.497324 -2.22084e-19)
(1.63633 -0.418069 4.36868e-20)
(1.67279 -0.334704 -3.11076e-20)
(1.68177 -0.263863 -1.20197e-20)
(1.1221 -0.878561 2.3245e-19)
(1.23498 -0.848489 1.00969e-19)
(1.3625 -0.798093 2.07623e-20)
(1.45271 -0.73569 -7.39079e-20)
(1.5523 -0.655608 1.54509e-19)
(1.60993 -0.572894 -1.99173e-19)
(1.66897 -0.479934 -2.45412e-19)
(1.68232 -0.38771 -1.03951e-20)
(1.68928 -0.296308 9.47782e-21)
(1.64671 -0.21739 7.63424e-20)
(0.841425 -0.859749 1.46045e-19)
(0.937715 -0.830912 -5.40223e-19)
(1.03246 -0.785031 -4.64858e-20)
(1.10283 -0.719753 5.65477e-19)
(1.15884 -0.640511 -5.5524e-19)
(1.18627 -0.550777 2.11464e-19)
(1.18577 -0.459618 -1.43314e-19)
(1.15881 -0.365052 4.17749e-20)
(1.08597 -0.279288 8.96102e-20)
(0.988825 -0.197538 5.64104e-20)
(0.932427 -0.150122 -6.59074e-20)
(0.954116 -0.155808 -4.94327e-20)
(0.975122 -0.172554 1.98788e-20)
(0.997971 -0.158094 2.20007e-21)
(0.91609 -0.145206 -3.83424e-20)
(0.936531 -0.159795 -1.22231e-20)
(0.9596 -0.161394 1.36097e-20)
(0.988614 -0.182382 3.27529e-20)
(1.00289 -0.167154 7.77022e-21)
(0.873486 -0.12083 -4.52686e-20)
(0.891996 -0.138763 1.61542e-20)
(0.912847 -0.155447 3.19212e-20)
(0.935518 -0.172657 9.72944e-20)
(0.959126 -0.172783 -1.40465e-20)
(0.992489 -0.19479 -4.50664e-20)
(1.00794 -0.187277 -6.43761e-21)
(0.821799 -0.0581373 -4.30447e-21)
(0.832252 -0.0841814 3.98202e-20)
(0.84643 -0.107391 4.0385e-21)
(0.863453 -0.131458 -4.59033e-21)
(0.883705 -0.151216 8.48751e-21)
(0.90648 -0.168161 -4.02633e-20)
(0.931422 -0.189544 -9.35716e-20)
(0.953189 -0.187821 7.67617e-20)
(0.987584 -0.209492 2.92016e-20)
(1.01353 -0.210512 -1.47474e-20)
(0.805557 -0.0637337 -3.56732e-21)
(0.816615 -0.0922816 9.50493e-21)
(0.83184 -0.117617 -4.46412e-22)
(0.849804 -0.14361 -1.13267e-20)
(0.871174 -0.165675 5.57854e-20)
(0.895006 -0.182514 1.86375e-20)
(0.923488 -0.208102 5.41304e-21)
(0.946287 -0.208388 9.82458e-21)
(0.976072 -0.223711 1.72234e-20)
(1.01953 -0.235748 -5.68121e-21)
(0.787214 -0.0695038 6.96044e-21)
(0.798396 -0.100853 2.79279e-20)
(0.814437 -0.128616 4.99185e-21)
(0.8338 -0.15711 1.70303e-20)
(0.857007 -0.182281 -8.53895e-20)
(0.881929 -0.198706 6.07459e-20)
(0.911651 -0.227309 -1.66356e-20)
(0.940721 -0.231609 -2.88628e-20)
(0.961143 -0.240669 -2.78901e-21)
(1.01697 -0.25684 -4.10735e-21)
(0.766237 -0.0754298 -6.26077e-21)
(0.77781 -0.110094 2.76973e-20)
(0.794536 -0.140469 -5.22422e-21)
(0.814859 -0.17107 -1.85311e-20)
(0.839717 -0.200356 -5.30556e-21)
(0.867531 -0.216942 -5.72407e-20)
(0.898778 -0.247321 7.6534e-20)
(0.936511 -0.257857 -3.0526e-20)
(0.954426 -0.261243 -4.85608e-21)
(1.00219 -0.277222 9.89113e-21)
(0.74287 -0.081546 -4.62684e-22)
(0.754992 -0.119718 -2.90463e-20)
(0.773262 -0.153628 -9.91387e-20)
(0.795547 -0.186401 8.49185e-21)
(0.821727 -0.219776 -3.86256e-20)
(0.851623 -0.236889 2.05725e-20)
(0.882752 -0.26703 -5.25652e-20)
(0.930057 -0.285106 4.6424e-20)
(0.956801 -0.287504 -8.10668e-21)
(0.995137 -0.300203 -9.18797e-21)
(0.716711 -0.0883255 1.04226e-20)
(0.729623 -0.130157 1.60902e-20)
(0.748806 -0.167564 7.54281e-20)
(0.773563 -0.202618 5.99578e-21)
(0.80271 -0.24122 -1.95714e-20)
(0.837277 -0.260649 5.36587e-21)
(0.867083 -0.288345 -4.62575e-20)
(0.915016 -0.311676 1.95245e-20)
(0.958482 -0.317124 -1.25351e-20)
(0.994852 -0.328217 5.27577e-21)
(0.687595 -0.0955695 -1.68151e-20)
(0.702032 -0.141894 -3.57687e-20)
(0.72291 -0.183723 -2.03974e-20)
(0.74957 -0.220128 4.80267e-20)
(0.779993 -0.263051 4.3535e-20)
(0.820858 -0.287681 2.50853e-20)
(0.85732 -0.314292 -3.3464e-20)
(0.898245 -0.338739 -2.88615e-21)
(0.953566 -0.348487 -8.6371e-21)
(0.995024 -0.359116 5.73385e-21)
(0.654821 -0.103758 1.76395e-20)
(0.670208 -0.154034 7.42698e-21)
(0.693046 -0.201831 2.79332e-20)
(0.72378 -0.24127 -7.63153e-20)
(0.756007 -0.286916 2.10342e-20)
(0.79735 -0.315946 -2.22544e-20)
(0.846347 -0.345446 -7.28762e-20)
(0.885215 -0.369822 -4.93367e-21)
(0.944374 -0.383181 -3.25434e-20)
(0.991443 -0.392318 7.35561e-21)
(0.618518 -0.11289 -3.48453e-20)
(0.635688 -0.168152 5.82709e-20)
(0.659211 -0.220845 3.76146e-20)
(0.693181 -0.264336 -3.00656e-20)
(0.732195 -0.315488 3.01554e-20)
(0.771748 -0.347006 3.73444e-20)
(0.829438 -0.379591 7.64724e-20)
(0.875388 -0.40449 5.49022e-20)
(0.937074 -0.422631 7.86675e-21)
(0.987674 -0.429866 -4.95941e-21)
(0.576768 -0.122425 2.25935e-20)
(0.595922 -0.183608 1.95847e-20)
(0.622135 -0.243834 -3.95774e-20)
(0.656671 -0.289298 1.97903e-20)
(0.703446 -0.346438 -1.13069e-19)
(0.746068 -0.383775 -1.18608e-20)
(0.805559 -0.418627 -1.73127e-20)
(0.861276 -0.443962 2.82351e-20)
(0.929034 -0.466187 -4.58436e-21)
(0.985173 -0.473675 3.6199e-20)
(0.530501 -0.133464 -4.02608e-21)
(0.550981 -0.199429 -4.63064e-20)
(0.581369 -0.269154 -1.88268e-20)
(0.617271 -0.319851 8.66268e-20)
(0.669017 -0.378644 2.01983e-19)
(0.720491 -0.425041 -2.8966e-20)
(0.781259 -0.463039 -5.4998e-20)
(0.845082 -0.48867 -1.15101e-20)
(0.920224 -0.513335 5.35317e-21)
(0.984086 -0.52267 9.70695e-21)
(0.477088 -0.146043 -1.46922e-20)
(0.498627 -0.218808 6.23751e-20)
(0.533611 -0.294247 -2.56766e-20)
(0.572423 -0.357854 -3.44943e-20)
(0.627426 -0.415667 -2.11853e-19)
(0.688943 -0.470216 1.10065e-19)
(0.754181 -0.514451 5.36319e-20)
(0.824611 -0.542467 -2.45139e-20)
(0.907894 -0.567475 8.22492e-21)
(0.982618 -0.578962 -3.32039e-20)
(0.418078 -0.157773 1.05939e-20)
(0.43956 -0.242727 2.554e-20)
(0.481795 -0.321458 4.98906e-21)
(0.522939 -0.398408 -6.74043e-20)
(0.582646 -0.460071 1.20548e-19)
(0.652375 -0.520009 -1.61358e-19)
(0.727047 -0.56984 2.18595e-20)
(0.80533 -0.602315 1.43096e-20)
(0.89493 -0.628167 1.59152e-20)
(0.982295 -0.640474 1.16321e-19)
(0.348053 -0.171769 1.4476e-20)
(0.369197 -0.269688 7.31986e-21)
(0.417468 -0.354417 5.5563e-20)
(0.464418 -0.444711 -7.39231e-20)
(0.529332 -0.513104 1.34948e-19)
(0.60689 -0.580633 3.44166e-20)
(0.690579 -0.635802 2.66567e-20)
(0.78042 -0.67491 -9.79891e-21)
(0.876795 -0.701395 -1.10955e-20)
(0.976843 -0.715802 -4.58327e-20)
(0.26952 -0.188331 -1.23891e-20)
(0.29389 -0.296538 -3.99428e-20)
(0.346436 -0.392309 -1.34476e-19)
(0.40191 -0.492515 1.13377e-19)
(0.472342 -0.569058 -1.48558e-19)
(0.560936 -0.646239 -3.29132e-20)
(0.655661 -0.703574 -2.69208e-20)
(0.757315 -0.751797 -9.26333e-21)
(0.864546 -0.778704 3.70001e-20)
(0.974346 -0.796101 8.29426e-20)
(0.171892 -0.209429 1.7535e-20)
(0.197325 -0.332256 -5.46997e-21)
(0.25004 -0.448431 1.59387e-20)
(0.318767 -0.560325 4.5847e-20)
(0.398341 -0.652854 1.17036e-19)
(0.497125 -0.737494 -9.79246e-21)
(0.613743 -0.803079 1.2675e-20)
(0.727359 -0.85237 -2.45552e-20)
(0.862563 -0.880796 6.79097e-20)
(0.982968 -0.890156 -2.03973e-20)
(0.0590576 -0.187984 6.6477e-21)
(0.0787213 -0.30374 -3.4182e-20)
(0.117571 -0.414834 3.69268e-20)
(0.17528 -0.520847 1.352e-20)
(0.240474 -0.619412 -7.36074e-21)
(0.323362 -0.701101 -4.28517e-20)
(0.417976 -0.77031 1.15417e-20)
(0.515148 -0.81943 4.97658e-20)
(0.626728 -0.85448 -1.0003e-19)
(0.729707 -0.864856 1.47151e-19)
(0.97455 -0.127595 -3.30344e-21)
(0.94592 -0.153133 1.42973e-20)
(0.959951 -0.167321 -5.72272e-20)
(0.992684 -0.152508 -1.70758e-20)
(1.01339 -0.120472 0)
(1.02351 -0.112445 0)
(1.01911 -0.104406 0)
(1.02205 -0.0946547 0)
(1.0315 -0.0867258 0)
(1.04025 -0.0798765 0)
(1.04446 -0.0727269 0)
(1.0442 -0.0649097 0)
(1.04293 -0.057662 0)
(1.04227 -0.0508668 0)
(1.04084 -0.0449613 0)
(1.03824 -0.0393135 0)
(1.03479 -0.0346864 0)
(1.03202 -0.0308761 0)
(1.03014 -0.02783 0)
(1.02855 -0.0248489 0)
(1.02662 -0.0216137 0)
(1.02462 -0.0184061 0)
(1.02288 -0.0154907 0)
(1.02133 -0.0130674 0)
(1.01981 -0.0110788 0)
(1.01834 -0.00942612 0)
(1.01696 -0.00800801 0)
(1.0157 -0.00674739 0)
(1.01454 -0.00560777 0)
(1.0135 -0.00452041 0)
(1.01265 -0.00338736 0)
(1.01206 -0.00187527 0)
(1.01098 -0.000888226 0)
(1.01073 -0.000411489 0)
(1.00047 -0.174278 0)
(1.01214 -0.150995 0)
(1.02815 -0.128104 0)
(1.03651 -0.113604 0)
(1.04131 -0.100581 0)
(1.04606 -0.0879455 0)
(1.0488 -0.0761313 0)
(1.04858 -0.0654347 0)
(1.04684 -0.055709 0)
(1.04521 -0.0480015 0)
(1.04422 -0.0410665 0)
(1.04253 -0.0352734 0)
(1.03992 -0.0300134 0)
(1.0372 -0.0257659 0)
(1.03524 -0.0225922 0)
(1.03361 -0.0199063 0)
(1.03151 -0.0173599 0)
(1.02893 -0.0149011 0)
(1.02622 -0.0129035 0)
(1.02367 -0.011309 0)
(1.0214 -0.0100018 0)
(1.01943 -0.00883091 0)
(1.01774 -0.00771211 0)
(1.01629 -0.00660553 0)
(1.015 -0.00552868 0)
(1.01387 -0.00447552 0)
(1.01295 -0.00338806 0)
(1.01233 -0.00185699 0)
(1.01145 -0.000859766 0)
(1.01122 -0.000416923 0)
(1.05639 -0.158545 -1.87476e-21)
(1.05612 -0.130972 1.69434e-21)
(1.05034 -0.116064 -3.13565e-21)
(1.05086 -0.103463 5.73261e-21)
(1.05758 -0.0927075 -4.77353e-21)
(1.06378 -0.0835941 -2.04585e-21)
(1.06607 -0.0745529 2.92954e-21)
(1.06375 -0.0649895 1.82505e-21)
(1.05971 -0.0562075 -4.91663e-21)
(1.05628 -0.048292 4.18418e-21)
(1.05295 -0.0419028 -3.33229e-21)
(1.04873 -0.036131 2.67414e-21)
(1.04387 -0.0313482 -1.20605e-21)
(1.03955 -0.0273951 2.12602e-22)
(1.03635 -0.0243189 5.32962e-22)
(1.03387 -0.0216911 1.34072e-23)
(1.03129 -0.0190545 4.87624e-23)
(1.0286 -0.01649 -2.50758e-22)
(1.02614 -0.0141076 3.06111e-22)
(1.02392 -0.0120844 -8.63757e-22)
(1.02185 -0.0103862 6.25127e-22)
(1.01992 -0.0089417 -3.74774e-22)
(1.01815 -0.00767222 7.69905e-22)
(1.01656 -0.006512 -7.3848e-22)
(1.01514 -0.00543624 5.07626e-22)
(1.01387 -0.00440772 -4.98699e-23)
(1.01286 -0.0033438 -3.72944e-22)
(1.01222 -0.00180431 1.44665e-22)
(1.01161 -0.000825196 -1.93026e-23)
(1.01141 -0.000415793 2.25718e-22)
(1.05189 -0.13683 6.31458e-21)
(1.05042 -0.11838 5.67409e-21)
(1.05863 -0.109916 -1.23499e-20)
(1.06973 -0.0973717 1.68494e-20)
(1.07352 -0.0861333 -1.56629e-21)
(1.07334 -0.0743559 -5.87477e-21)
(1.07098 -0.0629441 4.40147e-21)
(1.067 -0.0530119 -9.6971e-22)
(1.06338 -0.0444179 4.45983e-21)
(1.06036 -0.0381265 -2.04747e-21)
(1.05735 -0.0327775 -5.40223e-21)
(1.05353 -0.0283143 6.57232e-21)
(1.04934 -0.0242668 -3.33522e-21)
(1.04558 -0.0208553 -3.77356e-22)
(1.04275 -0.0183174 1.31518e-21)
(1.04026 -0.0161796 -1.15897e-21)
(1.03726 -0.0142436 1.50533e-22)
(1.03382 -0.0123936 -3.92144e-22)
(1.0303 -0.0109476 9.54656e-22)
(1.02699 -0.00980992 6.33783e-22)
(1.02404 -0.00885788 -1.48621e-21)
(1.0215 -0.00795843 -6.86419e-23)
(1.01932 -0.00704718 3.99543e-22)
(1.01746 -0.00609698 1.65074e-22)
(1.01584 -0.00513526 6.79743e-22)
(1.01441 -0.00418876 -5.25489e-22)
(1.01325 -0.00321082 -2.5583e-22)
(1.01252 -0.0017485 3.45465e-22)