/*--------------------------------*- C++ -*----------------------------------*\
| =========                 |                                                 |
| \\      /  F ield         | OpenFOAM: The Open Source CFD Toolbox           |
|  \\    /   O peration     | Version:                                        |
|   \\  /    A nd           | Website:  www.openfoam.com                      |
|    \\/     M anipulation  |                                                 |
\*---------------------------------------------------------------------------*/
FoamFile
{
    version     2.0;
    format      ascii;
    class       surfaceScalarField;
    location    "0.5";
    object      phi;
}
// * * * * * * * * * * * * * * * * * * * * * * * * * * * * * * * * * * * * * //

dimensions      [0 3 -1 0 0 0 0];
oriented        oriented;


internalField   nonuniform List<scalar> 
760
(
3.46778e-05
-1.09981e-07
3.47835e-05
-1.05685e-07
3.48851e-05
-1.01561e-07
3.49827e-05
-9.75998e-08
3.50765e-05
-9.37957e-08
3.51666e-05
-9.01426e-08
3.52533e-05
-8.66345e-08
3.53366e-05
-8.32658e-08
3.54166e-05
-8.0031e-08
3.54936e-05
-7.69247e-08
3.55675e-05
-7.39413e-08
3.56386e-05
-7.10751e-08
3.5707e-05
-6.83211e-08
3.57727e-05
-6.56753e-08
3.58359e-05
-6.31327e-08
3.58966e-05
-6.06903e-08
3.5955e-05
-5.834e-08
3.60111e-05
-5.60828e-08
3.60651e-05
-5.3906e-08
-5.18191e-08
3.46145e-05
-2.15476e-07
3.47159e-05
-2.07004e-07
3.48132e-05
-1.98876e-07
3.49066e-05
-1.91077e-07
3.49964e-05
-1.83593e-07
3.50827e-05
-1.76412e-07
3.51656e-05
-1.6952e-07
3.52452e-05
-1.62907e-07
3.53218e-05
-1.56559e-07
3.53953e-05
-1.50466e-07
3.5466e-05
-1.44618e-07
3.55339e-05
-1.39002e-07
3.55992e-05
-1.33609e-07
3.5662e-05
-1.2843e-07
3.57223e-05
-1.23454e-07
3.57803e-05
-1.18676e-07
3.5836e-05
-1.1408e-07
3.58896e-05
-1.09668e-07
3.59411e-05
-1.05415e-07
-1.01339e-07
3.44807e-05
-3.12161e-07
3.45735e-05
-2.99754e-07
3.46625e-05
-2.87868e-07
3.47479e-05
-2.76479e-07
3.48298e-05
-2.65564e-07
3.49085e-05
-2.55102e-07
3.49841e-05
-2.45072e-07
3.50566e-05
-2.35456e-07
3.51263e-05
-2.26234e-07
3.51932e-05
-2.17389e-07
3.52575e-05
-2.08904e-07
3.53193e-05
-2.00762e-07
3.53786e-05
-1.92949e-07
3.54356e-05
-1.85449e-07
3.54904e-05
-1.78248e-07
3.55431e-05
-1.71335e-07
3.55937e-05
-1.64689e-07
3.56423e-05
-1.58311e-07
3.56891e-05
-1.52167e-07
-1.46278e-07
3.42622e-05
-3.96086e-07
3.43426e-05
-3.80123e-07
3.44196e-05
-3.64858e-07
3.44933e-05
-3.50256e-07
3.45641e-05
-3.36285e-07
3.46319e-05
-3.22912e-07
3.46969e-05
-3.10109e-07
3.47593e-05
-2.97847e-07
3.48192e-05
-2.86102e-07
3.48766e-05
-2.74848e-07
3.49318e-05
-2.64062e-07
3.49847e-05
-2.53722e-07
3.50356e-05
-2.43805e-07
3.50844e-05
-2.34293e-07
3.51314e-05
-2.25166e-07
3.51764e-05
-2.16408e-07
3.52197e-05
-2.07993e-07
3.52614e-05
-1.99921e-07
3.53013e-05
-1.92149e-07
-1.84702e-07
3.39389e-05
-4.63873e-07
3.40037e-05
-4.44872e-07
3.40656e-05
-4.26743e-07
3.41247e-05
-4.09436e-07
3.41814e-05
-3.92906e-07
3.42356e-05
-3.77111e-07
3.42875e-05
-3.62012e-07
3.43372e-05
-3.47572e-07
3.43849e-05
-3.33758e-07
3.44305e-05
-3.20537e-07
3.44744e-05
-3.07879e-07
3.45164e-05
-2.95754e-07
3.45567e-05
-2.84138e-07
3.45954e-05
-2.73004e-07
3.46326e-05
-2.62328e-07
3.46683e-05
-2.5209e-07
3.47025e-05
-2.4226e-07
3.47355e-05
-2.32834e-07
3.47671e-05
-2.23763e-07
-2.15075e-07
3.34862e-05
-5.12913e-07
3.35328e-05
-4.91536e-07
3.35773e-05
-4.71188e-07
3.36196e-05
-4.51805e-07
3.36601e-05
-4.33328e-07
3.36987e-05
-4.15705e-07
3.37355e-05
-3.98886e-07
3.37708e-05
-3.82825e-07
3.38045e-05
-3.67481e-07
3.38368e-05
-3.52814e-07
3.38677e-05
-3.38788e-07
3.38973e-05
-3.25367e-07
3.39257e-05
-3.12521e-07
3.39529e-05
-3.00218e-07
3.3979e-05
-2.8843e-07
3.4004e-05
-2.77133e-07
3.40281e-05
-2.66294e-07
3.40511e-05
-2.55906e-07
3.40733e-05
-2.45913e-07
-2.36347e-07
3.28761e-05
-5.41561e-07
3.29032e-05
-5.18594e-07
3.29288e-05
-4.96784e-07
3.2953e-05
-4.76053e-07
3.2976e-05
-4.56332e-07
3.29979e-05
-4.37556e-07
3.30187e-05
-4.19667e-07
3.30385e-05
-4.0261e-07
3.30573e-05
-3.86338e-07
3.30753e-05
-3.70803e-07
3.30925e-05
-3.55964e-07
3.31089e-05
-3.4178e-07
3.31246e-05
-3.28216e-07
3.31396e-05
-3.15237e-07
3.3154e-05
-3.0281e-07
3.31678e-05
-2.9091e-07
3.3181e-05
-2.79499e-07
3.31936e-05
-2.68568e-07
3.32058e-05
-2.58059e-07
-2.48003e-07
3.208e-05
-5.4928e-07
3.2087e-05
-5.25597e-07
3.20934e-05
-5.03159e-07
3.20992e-05
-4.81876e-07
3.21046e-05
-4.61669e-07
3.21095e-05
-4.42464e-07
3.2114e-05
-4.24195e-07
3.21182e-05
-4.06803e-07
3.21221e-05
-3.90233e-07
3.21257e-05
-3.74432e-07
3.21291e-05
-3.59356e-07
3.21323e-05
-3.4496e-07
3.21353e-05
-3.31205e-07
3.21381e-05
-3.18055e-07
3.21408e-05
-3.05473e-07
3.21433e-05
-2.93432e-07
3.21457e-05
-2.81893e-07
3.2148e-05
-2.70844e-07
3.21501e-05
-2.60228e-07
-2.50073e-07
3.10698e-05
-5.36719e-07
3.10574e-05
-5.13231e-07
3.10453e-05
-4.91025e-07
3.10334e-05
-4.70003e-07
3.10218e-05
-4.50079e-07
3.10106e-05
-4.31174e-07
3.09996e-05
-4.13217e-07
3.09889e-05
-3.96145e-07
3.09786e-05
-3.79898e-07
3.09686e-05
-3.64425e-07
3.09589e-05
-3.49674e-07
3.09495e-05
-3.35603e-07
3.09405e-05
-3.22169e-07
3.09318e-05
-3.09334e-07
3.09234e-05
-2.97064e-07
3.09153e-05
-2.85326e-07
3.09075e-05
-2.74084e-07
3.08999e-05
-2.63324e-07
3.08927e-05
-2.5299e-07
-2.43108e-07
2.98202e-05
-5.0569e-07
2.97903e-05
-4.83282e-07
2.97614e-05
-4.62135e-07
2.97335e-05
-4.4215e-07
2.97067e-05
-4.23238e-07
2.96808e-05
-4.05318e-07
2.96559e-05
-3.88319e-07
2.9632e-05
-3.72175e-07
2.96089e-05
-3.56829e-07
2.95867e-05
-3.42227e-07
2.95654e-05
-3.28319e-07
2.95448e-05
-3.15062e-07
2.95251e-05
-3.02414e-07
2.95061e-05
-2.90338e-07
2.94878e-05
-2.78799e-07
2.94702e-05
-2.67765e-07
2.94534e-05
-2.57204e-07
2.94371e-05
-2.47097e-07
2.94215e-05
-2.37396e-07
-2.2812e-07
2.83104e-05
-4.59047e-07
2.82656e-05
-4.38507e-07
2.82226e-05
-4.19153e-07
2.81813e-05
-4.00887e-07
2.81417e-05
-3.83623e-07
2.81037e-05
-3.67284e-07
2.80672e-05
-3.51801e-07
2.80321e-05
-3.37111e-07
2.79984e-05
-3.23159e-07
2.79661e-05
-3.09892e-07
2.79351e-05
-2.97266e-07
2.79052e-05
-2.85237e-07
2.78766e-05
-2.73767e-07
2.78491e-05
-2.62822e-07
2.78226e-05
-2.52367e-07
2.77972e-05
-2.42374e-07
2.77729e-05
-2.32812e-07
2.77494e-05
-2.23663e-07
2.77269e-05
-2.14885e-07
-2.06492e-07
2.65247e-05
-4.00468e-07
2.64686e-05
-3.82428e-07
2.64149e-05
-3.65451e-07
2.63635e-05
-3.49444e-07
2.63142e-05
-3.34331e-07
2.62669e-05
-3.20039e-07
2.62216e-05
-3.06506e-07
2.61782e-05
-2.93675e-07
2.61365e-05
-2.81496e-07
2.60966e-05
-2.69922e-07
2.60582e-05
-2.58912e-07
2.60214e-05
-2.48428e-07
2.59861e-05
-2.38435e-07
2.59521e-05
-2.28902e-07
2.59196e-05
-2.19799e-07
2.58883e-05
-2.111e-07
2.58583e-05
-2.02778e-07
2.58294e-05
-1.94817e-07
2.58017e-05
-1.8718e-07
-1.79878e-07
2.44536e-05
-3.34171e-07
2.43902e-05
-3.19064e-07
2.43296e-05
-3.04857e-07
2.42716e-05
-2.91472e-07
2.42162e-05
-2.78842e-07
2.4163e-05
-2.66906e-07
2.41121e-05
-2.55608e-07
2.40634e-05
-2.44902e-07
2.40166e-05
-2.34744e-07
2.39718e-05
-2.25094e-07
2.39288e-05
-2.15917e-07
2.38875e-05
-2.0718e-07
2.38479e-05
-1.98855e-07
2.381e-05
-1.90913e-07
2.37735e-05
-1.83331e-07
2.37385e-05
-1.76087e-07
2.37049e-05
-1.69158e-07
2.36726e-05
-1.62528e-07
2.36416e-05
-1.56171e-07
-1.50091e-07
2.20932e-05
-2.6461e-07
2.20267e-05
-2.5264e-07
2.19633e-05
-2.41388e-07
2.19026e-05
-2.30792e-07
2.18445e-05
-2.20796e-07
2.1789e-05
-2.11352e-07
2.17358e-05
-2.02416e-07
2.16848e-05
-1.93949e-07
2.1636e-05
-1.85916e-07
2.15892e-05
-1.78287e-07
2.15443e-05
-1.71032e-07
2.15013e-05
-1.64126e-07
2.146e-05
-1.57545e-07
2.14203e-05
-1.51269e-07
2.13823e-05
-1.45276e-07
2.13457e-05
-1.39551e-07
2.13106e-05
-1.34074e-07
2.12769e-05
-1.28834e-07
2.12446e-05
-1.23809e-07
-1.19003e-07
1.94446e-05
-1.96188e-07
1.93793e-05
-1.87333e-07
1.93169e-05
-1.79009e-07
1.92573e-05
-1.71171e-07
1.92003e-05
-1.63777e-07
1.91457e-05
-1.56791e-07
1.90935e-05
-1.50181e-07
1.90435e-05
-1.43918e-07
1.89955e-05
-1.37976e-07
1.89496e-05
-1.32332e-07
1.89055e-05
-1.26965e-07
1.88632e-05
-1.21855e-07
1.88227e-05
-1.16986e-07
1.87838e-05
-1.12342e-07
1.87464e-05
-1.07907e-07
1.87105e-05
-1.03669e-07
1.8676e-05
-9.96152e-08
1.86429e-05
-9.57356e-08
1.86112e-05
-9.20162e-08
-8.84572e-08
1.65131e-05
-1.33031e-07
1.64528e-05
-1.27054e-07
1.63952e-05
-1.21434e-07
1.63402e-05
-1.16141e-07
1.62875e-05
-1.11147e-07
1.62372e-05
-1.06427e-07
1.6189e-05
-1.01961e-07
1.61428e-05
-9.77279e-08
1.60985e-05
-9.37112e-08
1.60561e-05
-8.98951e-08
1.60154e-05
-8.62654e-08
1.59763e-05
-8.28094e-08
1.59389e-05
-7.95152e-08
1.59029e-05
-7.63724e-08
1.58684e-05
-7.33707e-08
1.58352e-05
-7.0502e-08
1.58033e-05
-6.77572e-08
1.57727e-05
-6.513e-08
1.57433e-05
-6.26112e-08
-6.02004e-08
1.33061e-05
-7.88377e-08
1.32543e-05
-7.53188e-08
1.32049e-05
-7.20091e-08
1.31576e-05
-6.88902e-08
1.31124e-05
-6.59461e-08
1.30692e-05
-6.31627e-08
1.30277e-05
-6.05276e-08
1.2988e-05
-5.80295e-08
1.295e-05
-5.56582e-08
1.29135e-05
-5.34043e-08
1.28785e-05
-5.12598e-08
1.28449e-05
-4.92175e-08
1.28127e-05
-4.72701e-08
1.27817e-05
-4.54116e-08
1.2752e-05
-4.36359e-08
1.27234e-05
-4.19387e-08
1.2696e-05
-4.03143e-08
1.26696e-05
-3.87595e-08
1.26442e-05
-3.72683e-08
-3.58407e-08
9.83224e-06
-3.68245e-08
9.79212e-06
-3.51949e-08
9.75377e-06
-3.36612e-08
9.71709e-06
-3.22149e-08
9.682e-06
-3.08487e-08
9.64839e-06
-2.95564e-08
9.6162e-06
-2.83325e-08
9.58534e-06
-2.71714e-08
9.55575e-06
-2.60686e-08
9.52736e-06
-2.502e-08
9.50013e-06
-2.4022e-08
9.47398e-06
-2.30712e-08
9.44887e-06
-2.2164e-08
9.42476e-06
-2.12978e-08
9.40159e-06
-2.04701e-08
9.37933e-06
-1.96788e-08
9.35794e-06
-1.89211e-08
9.33738e-06
-1.81958e-08
9.31761e-06
-1.75e-08
-1.68338e-08
6.09993e-06
-9.74836e-09
6.07405e-06
-9.32216e-09
6.04931e-06
-8.92057e-09
6.02564e-06
-8.54145e-09
6.00297e-06
-8.18299e-09
5.98126e-06
-7.84366e-09
5.96045e-06
-7.52211e-09
5.9405e-06
-7.21679e-09
5.92135e-06
-6.92652e-09
5.90298e-06
-6.65044e-09
5.88535e-06
-6.38757e-09
5.86842e-06
-6.13681e-09
5.85215e-06
-5.89725e-09
5.83652e-06
-5.66867e-09
5.8215e-06
-5.45039e-09
5.80706e-06
-5.2414e-09
5.79318e-06
-5.04088e-09
5.77984e-06
-4.84925e-09
5.767e-06
-4.66534e-09
-4.48953e-09
2.11585e-06
2.10653e-06
2.09761e-06
2.08907e-06
2.08088e-06
2.07304e-06
2.06552e-06
2.0583e-06
2.05137e-06
2.04472e-06
2.03834e-06
2.0322e-06
2.0263e-06
2.02063e-06
2.01518e-06
2.00994e-06
2.0049e-06
2.00005e-06
1.99539e-06
)
;

boundaryField
{
    fixedWalls
    {
        type            calculated;
        value           uniform 0;
    }
    inlet
    {
        type            calculated;
        value           nonuniform 0();
    }
    outlet
    {
        type            calculated;
        value           nonuniform 0();
    }
    frontAndBack
    {
        type            empty;
        value           nonuniform 0();
    }
    procBoundary6to2
    {
        type            processor;
        value           nonuniform List<scalar> 
20
(
-9.01414e-12
-9.1476e-12
-1.00517e-11
-1.16952e-11
-1.3561e-11
-1.52557e-11
-1.65385e-11
-1.76414e-11
-1.89981e-11
-2.09841e-11
-2.38388e-11
-2.71459e-11
-3.05828e-11
-3.35962e-11
-3.69998e-11
-4.12826e-11
-4.5665e-11
-5.08939e-11
-5.77814e-11
-6.45811e-11
)
;
    }
    procBoundary6to5
    {
        type            processor;
        value           nonuniform List<scalar> 
20
(
-3.45678e-05
-3.4509e-05
-3.4384e-05
-3.41783e-05
-3.38711e-05
-3.34371e-05
-3.28475e-05
-3.20723e-05
-3.10824e-05
-2.98513e-05
-2.8357e-05
-2.65833e-05
-2.45199e-05
-2.21627e-05
-1.95131e-05
-1.65762e-05
-1.33602e-05
-9.87426e-06
-6.127e-06
-2.1256e-06
)
;
    }
    procBoundary6to7
    {
        type            processor;
        value           nonuniform List<scalar> 
20
(
3.6117e-05
3.59906e-05
3.5734e-05
3.53398e-05
3.47974e-05
3.40946e-05
3.32174e-05
3.21522e-05
3.08857e-05
2.94065e-05
2.77053e-05
2.57751e-05
2.36118e-05
2.12135e-05
1.85806e-05
1.57151e-05
1.26199e-05
9.2986e-06
5.75466e-06
1.9909e-06
)
;
    }
}


// ************************************************************************* //
