/*--------------------------------*- C++ -*----------------------------------*\
| =========                 |                                                 |
| \\      /  F ield         | OpenFOAM: The Open Source CFD Toolbox           |
|  \\    /   O peration     | Version:                                        |
|   \\  /    A nd           | Website:  www.openfoam.com                      |
|    \\/     M anipulation  |                                                 |
\*---------------------------------------------------------------------------*/
FoamFile
{
    version     2.0;
    format      ascii;
    class       volVectorField;
    location    "0.5";
    object      U;
}
// * * * * * * * * * * * * * * * * * * * * * * * * * * * * * * * * * * * * * //

dimensions      [0 1 -1 0 0 0 0];


internalField   nonuniform List<vector> 
400
(
(1.38496 -0.00111122 0)
(1.38927 -0.00106797 0)
(1.39341 -0.00102642 0)
(1.39739 -0.00098648 0)
(1.40122 -0.000948109 0)
(1.4049 -0.000911249 0)
(1.40843 -0.000875844 0)
(1.41183 -0.000841837 0)
(1.4151 -0.000809169 0)
(1.41823 -0.000777782 0)
(1.42125 -0.000747623 0)
(1.42415 -0.000718638 0)
(1.42694 -0.000690781 0)
(1.42962 -0.000664014 0)
(1.4322 -0.000638282 0)
(1.43467 -0.000613552 0)
(1.43706 -0.000589749 0)
(1.43934 -0.000566878 0)
(1.44155 -0.000544798 0)
(1.44366 -0.000523626 0)
(1.38251 -0.00328864 0)
(1.38665 -0.00316006 0)
(1.39062 -0.00303661 0)
(1.39443 -0.00291807 0)
(1.3981 -0.00280425 0)
(1.40162 -0.00269497 0)
(1.405 -0.00259004 0)
(1.40825 -0.00248929 0)
(1.41137 -0.00239255 0)
(1.41437 -0.00229966 0)
(1.41725 -0.00221046 0)
(1.42003 -0.00212477 0)
(1.42269 -0.00204245 0)
(1.42525 -0.00196338 0)
(1.42771 -0.0018874 0)
(1.43007 -0.00181441 0)
(1.43235 -0.0017442 0)
(1.43453 -0.00167677 0)
(1.43663 -0.00161176 0)
(1.43865 -0.00154944 0)
(1.37734 -0.00533163 0)
(1.38112 -0.00512128 0)
(1.38476 -0.00491956 0)
(1.38824 -0.00472609 0)
(1.39159 -0.00454053 0)
(1.3948 -0.00436252 0)
(1.39788 -0.00419175 0)
(1.40084 -0.00402792 0)
(1.40369 -0.00387072 0)
(1.40642 -0.00371986 0)
(1.40904 -0.00357508 0)
(1.41156 -0.0034361 0)
(1.41398 -0.00330266 0)
(1.41631 -0.00317454 0)
(1.41854 -0.00305147 0)
(1.42069 -0.0029333 0)
(1.42276 -0.00281966 0)
(1.42474 -0.00271058 0)
(1.42665 -0.00260546 0)
(1.42848 -0.00250471 0)
(1.36885 -0.00715657 0)
(1.37213 -0.00687058 0)
(1.37528 -0.00659681 0)
(1.37829 -0.00633465 0)
(1.38118 -0.00608356 0)
(1.38395 -0.00584301 0)
(1.3866 -0.00561253 0)
(1.38915 -0.00539164 0)
(1.39159 -0.00517991 0)
(1.39394 -0.00497691 0)
(1.39619 -0.00478224 0)
(1.39835 -0.00459552 0)
(1.40043 -0.00441638 0)
(1.40242 -0.00424447 0)
(1.40434 -0.00407944 0)
(1.40617 -0.00392105 0)
(1.40794 -0.00376882 0)
(1.40964 -0.00362275 0)
(1.41127 -0.00348205 0)
(1.41284 -0.00334724 0)
(1.35623 -0.00868911 0)
(1.35888 -0.00833645 0)
(1.36141 -0.00799955 0)
(1.36383 -0.00767756 0)
(1.36615 -0.0073697 0)
(1.36836 -0.00707525 0)
(1.37048 -0.00679352 0)
(1.37251 -0.00652389 0)
(1.37446 -0.00626575 0)
(1.37633 -0.00601852 0)
(1.37812 -0.00578168 0)
(1.37983 -0.00555472 0)
(1.38148 -0.00533715 0)
(1.38306 -0.00512853 0)
(1.38458 -0.0049284 0)
(1.38603 -0.00473641 0)
(1.38743 -0.00455202 0)
(1.38877 -0.00437517 0)
(1.39006 -0.00420491 0)
(1.3913 -0.00404183 0)
(1.33849 -0.00986836 0)
(1.3404 -0.00946088 0)
(1.34222 -0.0090725 0)
(1.34396 -0.0087021 0)
(1.34561 -0.00834866 0)
(1.34719 -0.00801121 0)
(1.3487 -0.00768888 0)
(1.35014 -0.00738083 0)
(1.35152 -0.00708632 0)
(1.35284 -0.00680461 0)
(1.3541 -0.00653504 0)
(1.35531 -0.00627697 0)
(1.35647 -0.00602982 0)
(1.35758 -0.00579302 0)
(1.35865 -0.00556604 0)
(1.35967 -0.00534844 0)
(1.36065 -0.00513958 0)
(1.36159 -0.00493936 0)
(1.3625 -0.00474672 0)
(1.36337 -0.00456225 0)
(1.31449 -0.0106509 0)
(1.3156 -0.0102032 0)
(1.31665 -0.00977747 0)
(1.31765 -0.0093724 0)
(1.31859 -0.00898665 0)
(1.31949 -0.00861905 0)
(1.32034 -0.00826851 0)
(1.32115 -0.00793403 0)
(1.32192 -0.0076147 0)
(1.32266 -0.00730965 0)
(1.32336 -0.00701808 0)
(1.32404 -0.00673924 0)
(1.32468 -0.00647246 0)
(1.32529 -0.00621708 0)
(1.32588 -0.00597248 0)
(1.32644 -0.00573815 0)
(1.32698 -0.00551339 0)
(1.3275 -0.00529802 0)
(1.32799 -0.00509092 0)
(1.32847 -0.0048927 0)
(1.28305 -0.0110142 0)
(1.28335 -0.0105431 0)
(1.28361 -0.0100962 0)
(1.28386 -0.00967195 0)
(1.28408 -0.00926872 0)
(1.28429 -0.00888516 0)
(1.28447 -0.00852002 0)
(1.28465 -0.00817214 0)
(1.28481 -0.00784048 0)
(1.28496 -0.00752405 0)
(1.2851 -0.00722197 0)
(1.28523 -0.00693337 0)
(1.28535 -0.00665751 0)
(1.28547 -0.00639367 0)
(1.28558 -0.00614115 0)
(1.28568 -0.0058994 0)
(1.28578 -0.00566767 0)
(1.28587 -0.00544574 0)
(1.28596 -0.00523244 0)
(1.28605 -0.00502837 0)
(1.24304 -0.0109594 0)
(1.24254 -0.010483 0)
(1.24205 -0.0100322 0)
(1.24157 -0.00960504 0)
(1.2411 -0.00919985 0)
(1.24065 -0.0088151 0)
(1.2402 -0.0084494 0)
(1.23977 -0.00810149 0)
(1.23935 -0.00777023 0)
(1.23894 -0.00745457 0)
(1.23855 -0.00715352 0)
(1.23817 -0.00686621 0)
(1.2378 -0.00659182 0)
(1.23744 -0.00632958 0)
(1.2371 -0.00607879 0)
(1.23677 -0.00583882 0)
(1.23645 -0.00560895 0)
(1.23615 -0.00538888 0)
(1.23585 -0.00517749 0)
(1.23557 -0.00497532 0)
(1.19342 -0.0105113 0)
(1.1922 -0.010048 0)
(1.19102 -0.00961042 0)
(1.18989 -0.00919659 0)
(1.1888 -0.00880469 0)
(1.18774 -0.00843314 0)
(1.18673 -0.00808048 0)
(1.18575 -0.0077454 0)
(1.18481 -0.00742673 0)
(1.1839 -0.00712338 0)
(1.18303 -0.00683435 0)
(1.1822 -0.00655874 0)
(1.18139 -0.00629573 0)
(1.18062 -0.00604454 0)
(1.17987 -0.00580446 0)
(1.17915 -0.00557486 0)
(1.17847 -0.00535504 0)
(1.1778 -0.00514466 0)
(1.17717 -0.00494268 0)
(1.17656 -0.00474955 0)
(1.13333 -0.00971753 0)
(1.1315 -0.00928437 0)
(1.12975 -0.00887597 0)
(1.12806 -0.00849031 0)
(1.12645 -0.00812562 0)
(1.12489 -0.00778031 0)
(1.1234 -0.00745294 0)
(1.12197 -0.00714222 0)
(1.1206 -0.006847 0)
(1.11928 -0.00656621 0)
(1.11801 -0.0062989 0)
(1.11679 -0.00604417 0)
(1.11563 -0.00580124 0)
(1.1145 -0.00556935 0)
(1.11342 -0.00534783 0)
(1.11239 -0.00513607 0)
(1.11139 -0.00493341 0)
(1.11044 -0.00473951 0)
(1.10952 -0.00455342 0)
(1.10864 -0.00437551 0)
(1.06213 -0.00864475 0)
(1.05984 -0.00825623 0)
(1.05765 -0.0078904 0)
(1.05555 -0.00754538 0)
(1.05353 -0.00721947 0)
(1.0516 -0.00691119 0)
(1.04975 -0.0066192 0)
(1.04798 -0.00634229 0)
(1.04628 -0.00607938 0)
(1.04465 -0.00582949 0)
(1.04308 -0.00559173 0)
(1.04158 -0.00536529 0)
(1.04014 -0.00514943 0)
(1.03875 -0.00494348 0)
(1.03742 -0.00474679 0)
(1.03615 -0.00455884 0)
(1.03492 -0.00437901 0)
(1.03374 -0.00420696 0)
(1.03261 -0.00404192 0)
(1.03153 -0.00388412 0)
(0.979439 -0.00737348 0)
(0.976848 -0.00704042 0)
(0.97437 -0.00672712 0)
(0.972 -0.00643189 0)
(0.969732 -0.00615324 0)
(0.967561 -0.00588984 0)
(0.965481 -0.00564052 0)
(0.963489 -0.00540421 0)
(0.96158 -0.00517996 0)
(0.959749 -0.00496691 0)
(0.957993 -0.00476428 0)
(0.956309 -0.00457137 0)
(0.954693 -0.00438752 0)
(0.953143 -0.00421216 0)
(0.951654 -0.00404472 0)
(0.950225 -0.00388474 0)
(0.948853 -0.0037317 0)
(0.947536 -0.0035853 0)
(0.94627 -0.00344488 0)
(0.945055 -0.00331061 0)
(0.885086 -0.00599207 0)
(0.882368 -0.00572089 0)
(0.879772 -0.00546596 0)
(0.87729 -0.00522585 0)
(0.874917 -0.00499933 0)
(0.872647 -0.0047853 0)
(0.870473 -0.00458278 0)
(0.868391 -0.00439088 0)
(0.866397 -0.00420883 0)
(0.864485 -0.00403591 0)
(0.862652 -0.00387149 0)
(0.860894 -0.00371497 0)
(0.859208 -0.00356582 0)
(0.857589 -0.00342357 0)
(0.856036 -0.00328776 0)
(0.854545 -0.003158 0)
(0.853113 -0.00303389 0)
(0.851738 -0.00291514 0)
(0.850418 -0.00280127 0)
(0.849149 -0.00269236 0)
(0.779122 -0.00459058 0)
(0.776449 -0.00438305 0)
(0.773897 -0.004188 0)
(0.771459 -0.00400433 0)
(0.769127 -0.00383108 0)
(0.766897 -0.0036674 0)
(0.764763 -0.00351253 0)
(0.762718 -0.0033658 0)
(0.76076 -0.00322661 0)
(0.758883 -0.0030944 0)
(0.757084 -0.00296868 0)
(0.755358 -0.00284901 0)
(0.753702 -0.00273497 0)
(0.752113 -0.0026262 0)
(0.750588 -0.00252235 0)
(0.749123 -0.00242313 0)
(0.747717 -0.0023282 0)
(0.746367 -0.00223737 0)
(0.745069 -0.00215029 0)
(0.743823 -0.00206697 0)
(0.661756 -0.00325509 0)
(0.659289 -0.00310849 0)
(0.656934 -0.00297069 0)
(0.654683 -0.00284092 0)
(0.652532 -0.00271849 0)
(0.650473 -0.00260281 0)
(0.648502 -0.00249334 0)
(0.646615 -0.00238961 0)
(0.644807 -0.00229119 0)
(0.643074 -0.0021977 0)
(0.641412 -0.00210878 0)
(0.639818 -0.00202413 0)
(0.638289 -0.00194345 0)
(0.63682 -0.00186648 0)
(0.635411 -0.00179298 0)
(0.634058 -0.00172274 0)
(0.632758 -0.00165553 0)
(0.631509 -0.00159122 0)
(0.630309 -0.00152955 0)
(0.629156 -0.00147054 0)
(0.533301 -0.00206275 0)
(0.531184 -0.00197042 0)
(0.529162 -0.00188361 0)
(0.52723 -0.00180181 0)
(0.525382 -0.00172461 0)
(0.523614 -0.00165164 0)
(0.521921 -0.00158257 0)
(0.520299 -0.0015171 0)
(0.518745 -0.00145496 0)
(0.517255 -0.00139591 0)
(0.515826 -0.00133974 0)
(0.514454 -0.00128624 0)
(0.513138 -0.00123524 0)
(0.511875 -0.00118657 0)
(0.510661 -0.00114008 0)
(0.509496 -0.00109564 0)
(0.508376 -0.00105312 0)
(0.507301 -0.00101241 0)
(0.506267 -0.00097338 0)
(0.505273 -0.000936014 0)
(0.394111 -0.00108264 0)
(0.392469 -0.00103459 0)
(0.390901 -0.000989379 0)
(0.389401 -0.000946755 0)
(0.387967 -0.000906502 0)
(0.386594 -0.000868433 0)
(0.385278 -0.000832379 0)
(0.384018 -0.000798188 0)
(0.38281 -0.000765719 0)
(0.381651 -0.000734849 0)
(0.380539 -0.000705471 0)
(0.379472 -0.000677484 0)
(0.378447 -0.000650789 0)
(0.377463 -0.000625305 0)
(0.376518 -0.000600953 0)
(0.37561 -0.000577671 0)
(0.374737 -0.000555385 0)
(0.373898 -0.00053405 0)
(0.373092 -0.000513584 0)
(0.372317 -0.000493987 0)
(0.244526 -0.000391218 0)
(0.243468 -0.000374072 0)
(0.242457 -0.000357921 0)
(0.241489 -0.000342676 0)
(0.240563 -0.000328265 0)
(0.239676 -0.000314626 0)
(0.238826 -0.0003017 0)
(0.238011 -0.00028943 0)
(0.237229 -0.000277769 0)
(0.236479 -0.000266675 0)
(0.23576 -0.000256113 0)
(0.235069 -0.000246042 0)
(0.234405 -0.000236428 0)
(0.233767 -0.000227247 0)
(0.233155 -0.000218473 0)
(0.232566 -0.000210081 0)
(0.232 -0.000202037 0)
(0.231455 -0.000194342 0)
(0.230932 -0.000186957 0)
(0.230428 -0.000179888 0)
(0.0848248 -6.42632e-05 0)
(0.0844437 -6.15111e-05 0)
(0.084079 -5.89129e-05 0)
(0.08373 -5.64556e-05 0)
(0.0833957 -5.41283e-05 0)
(0.0830754 -5.19219e-05 0)
(0.0827682 -4.98283e-05 0)
(0.0824736 -4.78377e-05 0)
(0.0821909 -4.59428e-05 0)
(0.0819194 -4.41387e-05 0)
(0.0816588 -4.24191e-05 0)
(0.0814084 -4.07765e-05 0)
(0.0811679 -3.92052e-05 0)
(0.0809366 -3.77057e-05 0)
(0.0807144 -3.62732e-05 0)
(0.0805006 -3.48999e-05 0)
(0.0802951 -3.35808e-05 0)
(0.0800973 -3.23213e-05 0)
(0.0799071 -3.11109e-05 0)
(0.0797241 -2.99543e-05 0)
)
;

boundaryField
{
    fixedWalls
    {
        type            noSlip;
    }
    inlet
    {
        type            fixedValue;
        value           nonuniform 0();
    }
    outlet
    {
        type            zeroGradient;
    }
    frontAndBack
    {
        type            empty;
    }
    procBoundary6to2
    {
        type            processor;
        value           nonuniform List<vector> 
20
(
(1.38496 0.00111158 0)
(1.38927 0.00106836 0)
(1.39341 0.00102684 0)
(1.39739 0.000986956 0)
(1.40122 0.000948648 0)
(1.4049 0.000911848 0)
(1.40843 0.000876497 0)
(1.41183 0.000842544 0)
(1.4151 0.00080994 0)
(1.41823 0.000778636 0)
(1.42125 0.000748581 0)
(1.42415 0.000719715 0)
(1.42694 0.000691988 0)
(1.42962 0.000665353 0)
(1.4322 0.000639774 0)
(1.43467 0.000615208 0)
(1.43705 0.000591593 0)
(1.43934 0.000568922 0)
(1.44155 0.000547114 0)
(1.44366 0.00052621 0)
)
;
    }
    procBoundary6to5
    {
        type            processor;
        value           nonuniform List<vector> 
20
(
(1.38047 -0.00115624 0)
(1.37821 -0.00342255 0)
(1.37339 -0.00555099 0)
(1.36542 -0.00745535 0)
(1.35346 -0.0090584 0)
(1.33648 -0.0102961 0)
(1.31331 -0.0111221 0)
(1.28273 -0.0115114 0)
(1.24355 -0.0114633 0)
(1.19468 -0.0110025 0)
(1.13523 -0.0101777 0)
(1.06453 -0.00905808 0)
(0.982151 -0.0077282 0)
(0.887933 -0.00628106 0)
(0.781923 -0.0048118 0)
(0.664342 -0.00341134 0)
(0.535519 -0.00216112 0)
(0.39583 -0.00113379 0)
(0.245634 -0.000409452 0)
(0.0852236 -6.7184e-05 0)
)
;
    }
    procBoundary6to7
    {
        type            processor;
        value           nonuniform List<vector> 
20
(
(1.4457 -0.000503218 0)
(1.4406 -0.00148938 0)
(1.43024 -0.00240761 0)
(1.41434 -0.00321736 0)
(1.39249 -0.00388476 0)
(1.3642 -0.00438467 0)
(1.32893 -0.00470193 0)
(1.28613 -0.00483201 0)
(1.23529 -0.0047808 0)
(1.17597 -0.00456375 0)
(1.10779 -0.00420435 0)
(1.03048 -0.0037323 0)
(0.943887 -0.00318141 0)
(0.847931 -0.00258754 0)
(0.742626 -0.00198677 0)
(0.628049 -0.00141372 0)
(0.504318 -0.000900023 0)
(0.371572 -0.000475108 0)
(0.229944 -0.000173068 0)
(0.079548 -2.88323e-05 0)
)
;
    }
}


// ************************************************************************* //
