/*--------------------------------*- C++ -*----------------------------------*\
| =========                 |                                                 |
| \\      /  F ield         | OpenFOAM: The Open Source CFD Toolbox           |
|  \\    /   O peration     | Version:                                        |
|   \\  /    A nd           | Website:  www.openfoam.com                      |
|    \\/     M anipulation  |                                                 |
\*---------------------------------------------------------------------------*/
FoamFile
{
    version     2.0;
    format      ascii;
    class       surfaceScalarField;
    location    "13.3";
    object      phi;
}
// * * * * * * * * * * * * * * * * * * * * * * * * * * * * * * * * * * * * * //

dimensions      [0 3 -1 0 0 0 0];
oriented        oriented;


internalField   nonuniform List<scalar> 
2257
(
-0.00361259
0.0381498
-0.00663116
0.0468862
-0.00877943
0.0521075
-0.00997008
0.0509894
-0.0104559
0.0458584
0.0411446
-0.00284543
0.0409952
-0.00510229
0.049143
-0.00663208
0.0536373
-0.00747738
0.0518347
-0.00801123
0.0463922
-0.00899311
0.0421264
-0.0104375
0.0414158
-0.0118143
0.0414635
-0.0130493
0.0399387
0.0369062
-0.00232285
0.0433179
-0.00409089
0.0509111
-0.00515363
0.0547
-0.00564328
0.0523244
-0.00607213
0.0468211
-0.00710443
0.0431587
-0.00859813
0.0429095
-0.00991642
0.0427818
-0.0110794
0.0411017
0.0381126
-0.0122858
-0.00189909
0.0452169
-0.00336516
0.0523772
-0.00422181
0.0555567
-0.00454306
0.0526456
-0.00485785
0.0471359
-0.0057425
0.0440434
-0.00709934
0.0442663
-0.00831822
0.0440006
-0.00934772
0.0421313
0.0392109
-0.010446
-0.00149797
0.0467148
-0.00266292
0.0535421
-0.00347822
0.056372
-0.00389782
0.0530652
-0.00424802
0.0474861
-0.0049609
0.0447563
-0.00603513
0.0453406
-0.00711924
0.0450848
-0.007999
0.043011
0.0401217
-0.00890979
-0.00117552
0.0478901
-0.00200364
0.0543702
-0.00267446
0.0570428
-0.00318557
0.0535763
-0.00364702
0.0479475
-0.00430522
0.0454145
-0.00510947
0.0461448
-0.00603869
0.046014
-0.00689917
0.0438715
0.0409045
-0.00768194
-0.00102396
0.048914
-0.00162681
0.0549731
-0.00197856
0.0573945
-0.00228717
0.0538849
-0.00273109
0.0483915
-0.00344237
0.0461258
-0.00415835
0.0468608
-0.00490836
0.046764
-0.00577002
0.0447332
0.0417095
-0.00657507
-0.0010235
0.0499373
-0.00159671
0.0555463
-0.00170482
0.0575026
-0.00168547
0.0538656
-0.00197145
0.0486774
-0.00268866
0.046843
-0.00345908
0.0476312
-0.00407313
0.047378
-0.00477661
0.0454366
0.0425155
-0.00558258
-0.00101328
0.0509505
-0.00161745
0.0561505
-0.00176518
0.0576504
-0.00170678
0.0538072
-0.00190751
0.0488782
-0.00247246
0.0474079
-0.00317207
0.0483308
-0.00371908
0.047925
-0.00420622
0.0459238
0.0431762
-0.00486696
-0.000858551
0.051809
-0.00135239
0.0566443
-0.00162628
0.0579243
-0.00179784
0.0539788
-0.00209474
0.0491751
-0.00248961
0.0478028
-0.00291812
0.0487593
-0.0033832
0.0483901
-0.00380041
0.046341
0.0436932
-0.00431737
-0.000645354
0.0524543
-0.000905231
0.0569042
-0.00106734
0.0580864
-0.00129726
0.0542087
-0.00171197
0.0495898
-0.0021434
0.0482342
-0.00241192
0.0490279
-0.00277611
0.0487543
-0.00324865
0.0468135
0.0442154
-0.00377091
-0.000539488
0.0529937
-0.000648547
0.0570132
-0.000515183
0.057953
-0.000483797
0.0541773
-0.000855403
0.0499614
-0.00145475
0.0488335
-0.00184611
0.0494192
-0.00216015
0.0490684
-0.00262775
0.0472811
0.044794
-0.00320631
-0.000549657
0.0535434
-0.000688341
0.0571519
-0.000428197
0.0576929
-0.000183221
0.0539323
-0.000424296
0.0502024
-0.0010524
0.0494617
-0.00158177
0.0499486
-0.00186215
0.0493487
-0.00219976
0.0476187
0.0453485
-0.00275429
-0.000524502
0.0540679
-0.000714184
0.0573416
-0.000597819
0.0575765
-0.000474549
0.053809
-0.000689495
0.0504174
-0.00114298
0.0499151
-0.00156564
0.0503712
-0.00175855
0.0495416
-0.00195028
0.0478105
0.0458174
-0.00241914
-0.0003807
0.0544486
-0.000459737
0.0574206
-0.000486604
0.0576034
-0.000652771
0.0539752
-0.00100236
0.050767
-0.00129352
0.0502063
-0.00149198
0.0505697
-0.00160847
0.0496581
-0.00176305
0.047965
0.0462179
-0.00216357
-0.000173679
0.0546223
1.58753e-05
0.0572311
9.84686e-05
0.0575208
-0.000198977
0.0542727
-0.000726633
0.0512946
-0.00104579
0.0505255
-0.00115796
0.0506819
-0.00129939
0.0497996
-0.00153115
0.0481968
0.0465987
-0.00191195
-5.75817e-06
0.0546281
0.000446062
0.0567793
0.000819962
0.0571469
0.0006199
0.0544727
2.60917e-05
0.0518884
-0.000430482
0.050982
-0.000624085
0.0508755
-0.000848202
0.0500237
-0.00117971
0.0485283
0.0470088
-0.00158978
0.000103657
0.0545244
0.000705224
0.0561777
0.00133294
0.0565192
0.00133245
0.0544732
0.000814409
0.0524065
0.000309609
0.0514868
5.02382e-05
0.0511348
-0.000210126
0.0502841
-0.00060138
0.0489196
0.0474887
-0.00108125
0.000170277
0.0543542
0.000789017
0.055559
0.00150102
0.0558071
0.0016616
0.0543126
0.00132839
0.0527397
0.00093759
0.0518776
0.000715751
0.0513567
0.000480934
0.0505189
6.72029e-05
0.0493333
0.04804
-0.000484171
0.000205923
0.0541483
0.000763265
0.0550016
0.00141981
0.0551506
0.00166448
0.054068
0.00153633
0.0528678
0.0013449
0.0520691
0.00122258
0.051479
0.00101334
0.0507281
0.000579196
0.0497674
0.0486168
2.47751e-06
0.000204651
0.0539436
0.000666378
0.0545399
0.00120494
0.054612
0.00146388
0.053809
0.00147559
0.0528561
0.00143042
0.0521143
0.00136723
0.0515422
0.00115283
0.0509425
0.000719903
0.0502004
0.0491744
0.000162247
0.000177504
0.0537661
0.000542856
0.0541745
0.000960671
0.0541942
0.00118658
0.0535831
0.00124016
0.0528025
0.00122781
0.0521266
0.00115671
0.0516133
0.000938605
0.0511606
0.000555335
0.0505836
0.0496711
5.86229e-05
0.000129614
0.0536365
0.000400614
0.0539035
0.000706177
0.0538887
0.000867561
0.0534217
0.000883661
0.0527864
0.000818691
0.0521916
0.000699048
0.0517329
0.00049755
0.0513621
0.000193303
0.0508879
0.050108
-0.000243545
8.28291e-05
0.0535537
0.000272058
0.0537143
0.00048348
0.0536772
0.00057784
0.0533274
0.000535971
0.0528283
0.000402934
0.0523246
0.000235262
0.0519006
5.32948e-05
0.0515441
-0.000187065
0.0511282
0.0504981
-0.000577186
4.74904e-05
0.0535062
0.000171723
0.0535901
0.000308763
0.0535402
0.000352598
0.0532835
0.000272404
0.0529085
0.000101475
0.0524955
-9.93233e-05
0.0521014
-0.000284857
0.0517296
-0.000507153
0.0513505
0.0508666
-0.000875638
4.23949e-05
0.0534639
0.000135535
0.0534969
0.000233378
0.0534424
0.000260678
0.0532562
0.000183852
0.0529853
2.08022e-05
0.0526586
-0.000184763
0.052307
-0.000392555
0.0519374
-0.000638201
0.0515962
0.0512353
-0.00100691
6.25065e-05
0.0534014
0.000153819
0.0534056
0.000242115
0.0533541
0.0002774
0.053221
0.000229814
0.0530329
0.000101199
0.0527872
-9.1182e-05
0.0524993
-0.00032716
0.0521734
-0.000617904
0.0518869
0.0516253
-0.00100792
0.000106042
0.0532953
0.000224145
0.0532875
0.000330585
0.0532476
0.000393912
0.0531576
0.000388203
0.0530386
0.000305088
0.0528703
0.000139383
0.052665
-0.000106566
0.0524193
-0.00043158
0.0522119
0.0520427
-0.000849002
0.000145916
0.0531494
0.000292283
0.0531412
0.000421279
0.0531186
0.000508827
0.0530701
0.000536411
0.0530111
0.00048562
0.0529211
0.000341242
0.0528094
8.88964e-05
0.0526717
-0.000263219
0.0525641
0.0524908
-0.000711346
0.000197846
0.000387061
0.000550883
0.000669955
0.000727775
0.000705119
0.000583305
0.000344514
-1.24713e-05
-0.000486725
-0.0134309
0.0521906
-0.0131833
0.0557966
-0.0126722
0.0606245
-0.012165
0.0651486
-0.0115825
0.0706068
-0.0109177
0.0760185
-0.01024
0.0819555
-0.00953885
0.0882213
-0.00881271
0.094895
-0.00807131
0.101952
-0.00732864
0.109465
-0.00659554
0.117424
-0.00588089
0.125882
-0.00519432
0.13485
-0.00454585
0.144373
-0.00393642
0.154478
-0.00337498
0.165216
-0.00286247
0.17663
-0.00239969
0.188774
-0.00198519
0.201705
-0.00161828
0.215485
-0.00129644
0.230189
-0.00101405
0.245886
-0.00076791
0.262664
-0.00055115
0.280614
-0.000356813
0.299837
-0.000177284
0.320446
0.342564
-0.0121287
0.0445563
-0.0119794
0.0473926
-0.0118065
0.0520177
-0.0117476
0.0557378
-0.0114151
0.060292
-0.0111265
0.06486
-0.0107299
0.0702102
-0.0102514
0.07554
-0.00972367
0.0814277
-0.00914743
0.087645
-0.0085247
0.0942723
-0.00788109
0.101309
-0.0072231
0.108807
-0.00656312
0.116764
-0.00590852
0.125228
-0.00527118
0.134212
-0.00465283
0.143754
-0.00406477
0.15389
-0.00351532
0.164667
-0.00300433
0.176119
-0.00253896
0.188309
-0.0021152
0.201282
-0.00173754
0.215107
-0.00140041
0.229852
-0.00110232
0.245588
-0.000838831
0.262401
-0.000603968
0.28038
-0.000391569
0.299625
-0.000189961
0.320245
0.342374
-0.010447
0.0445573
-0.0104366
0.0473821
-0.0104132
0.0519944
-0.0104414
0.055766
-0.0102367
0.0600873
-0.0101201
0.0647434
-0.00986024
0.0699503
-0.00952412
0.0752039
-0.00913731
0.0810409
-0.00867313
0.0871808
-0.00817133
0.0937705
-0.00762602
0.100763
-0.00705633
0.108238
-0.00646677
0.116175
-0.00587601
0.124637
-0.00528554
0.133622
-0.00470334
0.143172
-0.00414726
0.153334
-0.00361304
0.164132
-0.00311408
0.17562
-0.00264958
0.187844
-0.00222411
0.200856
-0.00183837
0.214721
-0.00149084
0.229504
-0.00117985
0.245277
-0.000902438
0.262123
-0.000653396
0.280131
-0.000426113
0.299398
-0.000216825
0.320035
0.342157
-0.00900866
0.0446562
-0.0091382
0.0475117
-0.00922985
0.052086
-0.00931393
0.05585
-0.00920276
0.0599762
-0.00917281
0.0647134
-0.00901046
0.069788
-0.00878433
0.0749778
-0.00850095
0.0807575
-0.00814955
0.0868294
-0.00774816
0.0933691
-0.00730018
0.100315
-0.00682165
0.107759
-0.00631629
0.115669
-0.00579644
0.124117
-0.00525653
0.133082
-0.00472504
0.142641
-0.00420087
0.15281
-0.00369216
0.163624
-0.00320941
0.175137
-0.00275312
0.187388
-0.00232978
0.200433
-0.00194098
0.214332
-0.00158566
0.229149
-0.00126438
0.244956
-0.000973221
0.261832
-0.000708539
0.279866
-0.00046413
0.299153
-0.000231818
0.319803
0.341925
-0.0077718
0.0447461
-0.00798996
0.0477298
-0.00815293
0.052249
-0.00827103
0.0559681
-0.00824157
0.0599467
-0.00827185
0.0647437
-0.00818108
0.0696972
-0.00805129
0.074848
-0.00786133
0.0805675
-0.00761269
0.0865808
-0.00729807
0.0930545
-0.00694027
0.0999576
-0.00653854
0.107358
-0.00610895
0.11524
-0.00564864
0.123657
-0.00516949
0.132603
-0.00469184
0.142163
-0.00420447
0.152322
-0.00372959
0.163149
-0.00326732
0.174675
-0.00282474
0.186945
-0.00240903
0.200017
-0.00201954
0.213943
-0.00166092
0.22879
-0.00133062
0.244625
-0.00102899
0.26153
-0.000750845
0.279588
-0.000492763
0.298895
-0.000239794
0.31955
0.341685
-0.00666325
0.0448342
-0.00689489
0.0479615
-0.00712655
0.0524807
-0.00727745
0.056119
-0.00729586
0.0599651
-0.00740785
0.0648557
-0.00736954
0.0696589
-0.00731523
0.0747937
-0.0072099
0.0804622
-0.00704199
0.0864129
-0.00682346
0.0928359
-0.00655544
0.0996896
-0.00623869
0.107041
-0.00588194
0.114883
-0.00547776
0.123253
-0.00506299
0.132188
-0.00462804
0.141728
-0.00418272
0.151877
-0.00374293
0.162709
-0.00330346
0.174235
-0.00288252
0.186524
-0.00247533
0.19961
-0.00209322
0.213561
-0.00173346
0.228431
-0.00140023
0.244292
-0.00109141
0.261222
-0.000804495
0.279301
-0.000533356
0.298624
-0.000275835
0.319293
0.341409
-0.00575528
0.0450069
-0.00597769
0.0481839
-0.00623171
0.0527347
-0.00642322
0.0563105
-0.00646997
0.0600119
-0.00663308
0.0650188
-0.00664114
0.0696669
-0.00663709
0.0747897
-0.00658639
0.0804115
-0.00647252
0.086299
-0.00631814
0.0926816
-0.00611709
0.0994885
-0.00587461
0.106798
-0.00558374
0.114592
-0.00525363
0.122923
-0.00490515
0.131839
-0.00451592
0.141339
-0.00412329
0.151484
-0.00371369
0.162299
-0.00330855
0.17383
-0.00290679
0.186123
-0.00251681
0.19922
-0.00214325
0.213187
-0.00178807
0.228075
-0.00145397
0.243958
-0.00114025
0.260908
-0.000844111
0.279005
-0.0005611
0.298341
-0.000286021
0.319018
0.341123
-0.00509559
0.0452356
-0.00532307
0.0484114
-0.00552222
0.0529338
-0.00571055
0.0564989
-0.00580839
0.0601097
-0.00596068
0.0651711
-0.00601143
0.0697177
-0.00604627
0.0748245
-0.00603311
0.0803984
-0.00597078
0.0862367
-0.00587013
0.0925809
-0.00572377
0.0993422
-0.00553298
0.106608
-0.00529006
0.114349
-0.00502678
0.122659
-0.00472271
0.131535
-0.00439171
0.141008
-0.00404344
0.151136
-0.00367343
0.161929
-0.00330185
0.173458
-0.00292286
0.185744
-0.00255125
0.198848
-0.00218784
0.212824
-0.00183655
0.227724
-0.00150199
0.243623
-0.00118168
0.260588
-0.000875979
0.278699
-0.000581597
0.298047
-0.000281144
0.318717
0.340842
-0.00449907
0.0454173
-0.00472786
0.0486401
-0.00487951
0.0530855
-0.00503085
0.0566502
-0.00517122
0.0602501
-0.00530004
0.0652999
-0.00537639
0.069794
-0.00544059
0.0748887
-0.00545713
0.0804149
-0.00543835
0.0862179
-0.00538486
0.0925274
-0.00529513
0.0992524
-0.00515515
0.106468
-0.00497411
0.114168
-0.00476626
0.122452
-0.00450452
0.131274
-0.00422848
0.140732
-0.00391516
0.150823
-0.00358991
0.161604
-0.00324981
0.173118
-0.00289957
0.185393
-0.00255215
0.198501
-0.00220282
0.212475
-0.00186459
0.227386
-0.0015341
0.243293
-0.00121554
0.260269
-0.000907715
0.278391
-0.000606531
0.297745
-0.000311921
0.318422
0.34053
-0.00390644
0.0455528
-0.00412633
0.04886
-0.00430337
0.0532625
-0.00443607
0.0567829
-0.0045947
0.0604087
-0.00473323
0.0654385
-0.00482231
0.0698831
-0.00491166
0.074978
-0.00495316
0.0804564
-0.00496541
0.0862302
-0.00493916
0.0925012
-0.00488242
0.0991957
-0.00477536
0.10636
-0.00465304
0.114046
-0.00448468
0.122283
-0.0042816
0.131071
-0.00405107
0.140501
-0.00378046
0.150552
-0.00349875
0.161322
-0.00318702
0.172807
-0.0028711
0.185077
-0.00254304
0.198173
-0.00221403
0.212146
-0.00188668
0.227059
-0.00156287
0.242969
-0.00124473
0.259951
-0.000933587
0.27808
-0.000625165
0.297437
-0.000329877
0.318127
0.3402
-0.00336938
0.0457159
-0.00357436
0.049065
-0.00378113
0.0534693
-0.00392711
0.0569289
-0.00408815
0.0605697
-0.00423211
0.0655824
-0.00433514
0.0699861
-0.00443054
0.0750734
-0.00449647
0.0805223
-0.00453212
0.0862658
-0.00453865
0.0925077
-0.00450571
0.0991628
-0.00442852
0.106283
-0.00433701
0.113954
-0.00419024
0.122136
-0.00403356
0.130914
-0.00383075
0.140299
-0.00361051
0.150332
-0.00336025
0.161072
-0.00308663
0.172533
-0.00279923
0.18479
-0.00249467
0.197868
-0.00218581
0.211837
-0.00187202
0.226745
-0.00155729
0.242654
-0.00124557
0.259639
-0.000935261
0.27777
-0.000627627
0.297129
-0.000305018
0.317805
0.339895
-0.0029693
0.0459309
-0.00315892
0.0492546
-0.00331939
0.0536298
-0.00346504
0.0570745
-0.00363755
0.0607423
-0.0037513
0.0656962
-0.0038696
0.0701044
-0.00395686
0.0751607
-0.00403735
0.0806028
-0.00408461
0.0863131
-0.00412415
0.0925472
-0.00412032
0.0991589
-0.00409535
0.106258
-0.00403175
0.113891
-0.00392825
0.122033
-0.00380142
0.130787
-0.00363169
0.140129
-0.00344782
0.150148
-0.00322638
0.160851
-0.00299108
0.172298
-0.00272996
0.184529
-0.00245401
0.197592
-0.00216755
0.21155
-0.00186957
0.226447
-0.00156968
0.242354
-0.00126617
0.259336
-0.000961009
0.277465
-0.000651819
0.29682
-0.000322183
0.317475
0.339573
-0.00265805
0.0461698
-0.00284533
0.0494419
-0.00291856
0.053703
-0.00302378
0.0571797
-0.00322426
0.0609427
-0.00329639
0.0657683
-0.00341833
0.0702264
-0.0035089
0.0752513
-0.00358565
0.0806795
-0.00364147
0.0863689
-0.00368845
0.0925942
-0.00369949
0.09917
-0.00370717
0.106266
-0.00366983
0.113853
-0.00361701
0.12198
-0.00352144
0.130691
-0.00339955
0.140007
-0.00324568
0.149994
-0.00306186
0.160667
-0.00285806
0.172094
-0.00262486
0.184296
-0.00238008
0.197348
-0.00211519
0.211285
-0.00183855
0.22617
-0.00155416
0.24207
-0.00126083
0.259042
-0.000962883
0.277167
-0.000654731
0.296512
-0.000357466
0.317178
0.339216
-0.00238412
0.0463903
-0.00258316
0.0496409
-0.00260349
0.0537233
-0.00265764
0.0572339
-0.00288333
0.0611684
-0.00293196
0.0658169
-0.00304599
0.0703404
-0.00315738
0.0753627
-0.00322326
0.0807454
-0.0033033
0.0864489
-0.00334644
0.0926374
-0.00337478
0.0991983
-0.00338531
0.106276
-0.00336575
0.113834
-0.00333318
0.121948
-0.00326333
0.130622
-0.00317772
0.139921
-0.0030523
0.149869
-0.00290822
0.160523
-0.00272856
0.171914
-0.00252718
0.184094
-0.00230574
0.197126
-0.00205983
0.211039
-0.00180102
0.225911
-0.00152792
0.241797
-0.00124134
0.258756
-0.000946618
0.276872
-0.000641666
0.296207
-0.000339175
0.316875
0.338876
-0.00207971
0.0465581
-0.00227828
0.0498395
-0.00229608
0.0537411
-0.00232208
0.0572599
-0.00254193
0.0613883
-0.00257743
0.0658524
-0.00268095
0.0704439
-0.00279396
0.0754757
-0.00285314
0.0808046
-0.00294981
0.0865456
-0.00299458
0.0926821
-0.00304803
0.0992518
-0.00306497
0.106293
-0.00307069
0.11384
-0.0030458
0.121923
-0.0030019
0.130578
-0.00293145
0.139851
-0.00283501
0.149772
-0.00271601
0.160404
-0.002562
0.17176
-0.00239233
0.183925
-0.00219231
0.196926
-0.00197146
0.210819
-0.00173383
0.225674
-0.00147753
0.241541
-0.00120707
0.258485
-0.000922807
0.276588
-0.0006291
0.295913
-0.00029295
0.316539
0.338584
-0.00171182
0.0466801
-0.00188924
0.0500169
-0.00193145
0.0537833
-0.00197828
0.0573067
-0.00216793
0.0615779
-0.00221111
0.0658956
-0.00232153
0.0705544
-0.00242135
0.0755755
-0.00249637
0.0808796
-0.0025902
0.0866394
-0.00265052
0.0927424
-0.00271638
0.0993176
-0.0027544
0.106331
-0.0027837
0.113869
-0.00278146
0.12192
-0.0027652
0.130561
-0.00271451
0.1398
-0.00264807
0.149706
-0.00254678
0.160302
-0.00242328
0.171637
-0.00227796
0.183779
-0.00210057
0.196749
-0.00190591
0.210624
-0.00168849
0.225456
-0.00144941
0.241302
-0.00119491
0.258231
-0.000922024
0.276315
-0.00063421
0.295626
-0.000308896
0.316214
0.338275
-0.001209
0.0468079
-0.00136559
0.0501735
-0.00144649
0.0538642
-0.00155085
0.0574111
-0.00170926
0.0617364
-0.0017893
0.0659756
-0.0019166
0.0706817
-0.00201735
0.0756762
-0.00212185
0.0809841
-0.00221449
0.0867321
-0.0022978
0.0928257
-0.00236794
0.0993878
-0.00242656
0.10639
-0.00246667
0.113909
-0.00248875
0.121942
-0.0024899
0.130563
-0.00246577
0.139776
-0.00242247
0.149662
-0.0023435
0.160223
-0.00224947
0.171543
-0.00212377
0.183654
-0.0019711
0.196596
-0.00180034
0.210453
-0.00160132
0.225257
-0.00138245
0.241083
-0.00114457
0.257993
-0.000888827
0.276059
-0.000611789
0.295349
-0.000348719
0.315951
0.337926
-0.000658215
0.0469819
-0.000813624
0.0503289
-0.000943548
0.0539942
-0.00111458
0.0575821
-0.00126082
0.0618826
-0.0013998
0.0661146
-0.0015415
0.0708233
-0.00166866
0.0758034
-0.00179701
0.0811125
-0.00190454
0.0868396
-0.00200796
0.0929292
-0.0020894
0.0994692
-0.00216479
0.106465
-0.00221359
0.113958
-0.00225411
0.121983
-0.00226588
0.130574
-0.00226593
0.139776
-0.00223543
0.149632
-0.00218163
0.16017
-0.0021081
0.171469
-0.00199897
0.183545
-0.00187038
0.196468
-0.00171532
0.210298
-0.00153324
0.225075
-0.00132983
0.240879
-0.00110517
0.257768
-0.000858457
0.275812
-0.000592382
0.295082
-0.000340464
0.315699
0.337585
-0.000203272
0.0471877
-0.000367309
0.050493
-0.00053899
0.0541659
-0.000744482
0.0577876
-0.000892514
0.0620306
-0.00106823
0.0662903
-0.00120977
0.0709649
-0.00135732
0.075951
-0.00148728
0.0812424
-0.00160906
0.0869614
-0.00171437
0.0930345
-0.00181078
0.0995656
-0.00188943
0.106544
-0.00195333
0.114022
-0.00200086
0.122031
-0.0020272
0.130601
-0.00203956
0.139788
-0.00202067
0.149613
-0.00198832
0.160137
-0.00192695
0.171408
-0.00183885
0.183456
-0.00173112
0.19636
-0.00159433
0.210161
-0.00143259
0.224913
-0.00124945
0.240696
-0.00104153
0.25756
-0.000807538
0.275578
-0.00056057
0.294835
-0.000266533
0.315405
0.337319
-2.84144e-05
0.0473783
-0.000198836
0.0506634
-0.000379223
0.0543462
-0.000581402
0.0579898
-0.000726689
0.0621759
-0.000902834
0.0664665
-0.00103655
0.0710986
-0.00117911
0.0760935
-0.00130056
0.0813639
-0.00141774
0.0870786
-0.00151766
0.0931344
-0.00161457
0.0996625
-0.00169223
0.106622
-0.00176366
0.114093
-0.00181383
0.122081
-0.00185347
0.13064
-0.00187006
0.139805
-0.00186523
0.149608
-0.0018456
0.160118
-0.00179515
0.171357
-0.00172539
0.183387
-0.00163309
0.196267
-0.00150966
0.210038
-0.00136727
0.224771
-0.0011959
0.240525
-0.00100256
0.257367
-0.000777589
0.275353
-0.000543006
0.294601
-0.000220115
0.315082
0.337099
-9.75549e-05
0.0475345
-0.000257732
0.0508236
-0.000408527
0.054497
-0.000571607
0.0581529
-0.000693263
0.0622976
-0.000831028
0.0666042
-0.000946149
0.0712137
-0.00105831
0.0762057
-0.00116446
0.08147
-0.00126093
0.087175
-0.00135102
0.0932245
-0.00143514
0.0997466
-0.00150598
0.106693
-0.00157227
0.114159
-0.00161869
0.122127
-0.00166042
0.130682
-0.00167543
0.13982
-0.00168237
0.149615
-0.00166738
0.160103
-0.00162856
0.171318
-0.0015752
0.183333
-0.00149283
0.196185
-0.00138805
0.209933
-0.00126117
0.224644
-0.00110733
0.240371
-0.000930996
0.257191
-0.000729116
0.275151
-0.000507737
0.29438
-0.000233741
0.314808
0.336865
-0.000364017
0.047655
-0.000494819
0.0509544
-0.000594551
0.0545968
-0.00070957
0.0582679
-0.000791622
0.0623796
-0.000883582
0.0666962
-0.000970589
0.0713007
-0.00104819
0.0762833
-0.00113455
0.0815564
-0.00120436
0.0872448
-0.00128443
0.0933046
-0.00134632
0.0998085
-0.00141362
0.10676
-0.00146305
0.114209
-0.00150962
0.122174
-0.00154265
0.130715
-0.00155985
0.139837
-0.00157149
0.149627
-0.00155678
0.160088
-0.00153001
0.171292
-0.00148124
0.183285
-0.00140888
0.196113
-0.00131519
0.209839
-0.00119998
0.224529
-0.0010567
0.240228
-0.000893459
0.257027
-0.000708108
0.274966
-0.000491615
0.294163
-0.000287486
0.314604
0.336578
-0.000663933
0.0477417
-0.000749631
0.0510401
-0.000794051
0.0546412
-0.000860731
0.0583346
-0.00089704
0.0624159
-0.000946367
0.0667455
-0.000995487
0.0713499
-0.00104381
0.0763316
-0.00109823
0.0816108
-0.00114684
0.0872935
-0.00120237
0.0933601
-0.00124648
0.0998526
-0.00129742
0.106811
-0.00133261
0.114244
-0.00137256
0.122214
-0.00139524
0.130738
-0.00141449
0.139857
-0.00142152
0.149634
-0.00140904
0.160076
-0.00138736
0.17127
-0.0013433
0.18324
-0.00128023
0.19605
-0.00120184
0.209761
-0.00109535
0.224423
-0.00097176
0.240104
-0.000821772
0.256877
-0.000657836
0.274802
-0.000456011
0.293961
-0.000298182
0.314446
0.336279
-0.000924617
0.0477907
-0.000967523
0.051083
-0.000972792
0.0546465
-0.00100803
0.0583698
-0.00101438
0.0624223
-0.00103914
0.0667703
-0.00105886
0.0713696
-0.0010896
0.0763623
-0.00111606
0.0816373
-0.00115156
0.087329
-0.00118437
0.0933929
-0.00121776
0.099886
-0.00125385
0.106847
-0.00127987
0.11427
-0.00131274
0.122246
-0.00132693
0.130752
-0.00134511
0.139875
-0.00134458
0.149633
-0.00133358
0.160065
-0.00131506
0.171252
-0.00127101
0.183196
-0.00122025
0.195999
-0.0011428
0.209684
-0.00104636
0.224326
-0.000930165
0.239988
-0.000787577
0.256735
-0.000630653
0.274645
-0.000439055
0.29377
-0.000270745
0.314278
0.336009
-0.00101837
0.0478022
-0.00102671
0.0510913
-0.00101122
0.054631
-0.00102427
0.0583828
-0.00101836
0.0624164
-0.00102797
0.0667799
-0.00103261
0.0713742
-0.0010526
0.0763823
-0.00105958
0.0816443
-0.00108912
0.0873585
-0.00109937
0.0934031
-0.0011312
0.0999179
-0.0011455
0.106861
-0.00117168
0.114296
-0.00118835
0.122263
-0.00120052
0.130764
-0.00121307
0.139887
-0.00120803
0.149628
-0.00120389
0.16006
-0.00118258
0.17123
-0.00114824
0.183162
-0.0011022
0.195953
-0.00103271
0.209614
-0.000947372
0.224241
-0.000844159
0.239885
-0.000714265
0.256605
-0.000570663
0.274502
-0.000398333
0.293597
-0.000210993
0.31409
0.335798
-0.000999577
0.0477938
-0.000995289
0.051087
-0.000981977
0.0546177
-0.000990461
0.0583913
-0.000992593
0.0624185
-0.00100097
0.0667883
-0.00100932
0.0713826
-0.00102489
0.0763979
-0.00103451
0.0816539
-0.00105861
0.0873826
-0.00106744
0.093412
-0.00109639
0.0999468
-0.00110437
0.106869
-0.00113187
0.114324
-0.00113856
0.12227
-0.00115609
0.130782
-0.00116062
0.139892
-0.00116071
0.149628
-0.00115529
0.160055
-0.00113507
0.17121
-0.001103
0.18313
-0.00105952
0.195909
-0.000991147
0.209546
-0.00091655
0.224166
-0.000812703
0.239781
-0.000691496
0.256484
-0.000547665
0.274358
-0.000383663
0.293433
-0.000179794
0.313886
0.335618
-0.000837497
0.0477823
-0.000832683
0.0510822
-0.000829056
0.054614
-0.000837916
0.0584002
-0.000850619
0.0624312
-0.000861903
0.0667995
-0.000878369
0.071399
-0.000895018
0.0764145
-0.000908433
0.0816673
-0.00093254
0.0874067
-0.000942408
0.0934218
-0.000972029
0.0999764
-0.000978597
0.106876
-0.0010085
0.114354
-0.00101255
0.122274
-0.00103466
0.130804
-0.00103647
0.139894
-0.00104088
0.149633
-0.00103732
0.160051
-0.00101613
0.171189
-0.000996085
0.18311
-0.000950643
0.195864
-0.000900233
0.209495
-0.000828979
0.224095
-0.000736202
0.239688
-0.000628971
0.256377
-0.000495404
0.274224
-0.000349415
0.293287
-0.000157046
0.313694
0.335461
-0.000709899
0.0477809
-0.000715576
0.0510879
-0.000727127
0.0546256
-0.000743737
0.0584168
-0.000770393
0.0624579
-0.000787777
0.0668169
-0.00081845
0.0714297
-0.000836489
0.0764326
-0.00086537
0.0816962
-0.000887486
0.0874288
-0.00091113
0.0934455
-0.000937669
0.100003
-0.000954266
0.106892
-0.000982893
0.114382
-0.000991288
0.122282
-0.00101603
0.130829
-0.00101572
0.139893
-0.00102715
0.149644
-0.00101743
0.160042
-0.00100488
0.171176
-0.000983254
0.183088
-0.000940308
0.195821
-0.000893034
0.209448
-0.000817908
0.22402
-0.000731396
0.239601
-0.000624787
0.25627
-0.000491867
0.274091
-0.000348094
0.293144
-0.000164579
0.31351
0.335296
-0.000500888
-0.000520523
-0.0005423
-0.000569182
-0.000599034
-0.000627514
-0.000660933
-0.000687744
-0.00072366
-0.00074898
-0.000784624
-0.000808046
-0.000841168
-0.000861198
-0.000888563
-0.000902666
-0.000920121
-0.000924311
-0.000927033
-0.000915714
-0.00089817
-0.000863304
-0.00081856
-0.00075417
-0.000674823
-0.000577563
-0.000457683
-0.000323561
-0.000164828
)
;

boundaryField
{
    outlet
    {
        type            calculated;
        value           nonuniform List<scalar> 
40
(
0.0529516
0.0529519
0.0529548
0.052951
0.0529532
0.0529438
0.0529312
0.0529105
0.052921
0.0529651
0.047795
0.0511075
0.0546474
0.0584437
0.0624877
0.0668454
0.0714631
0.0764594
0.0817321
0.0874541
0.0934811
0.100026
0.106926
0.114402
0.12231
0.130843
0.139911
0.149648
0.160044
0.171165
0.183071
0.195786
0.209403
0.223955
0.239522
0.256173
0.273971
0.293009
0.313352
0.335131
)
;
    }
    upperWall
    {
        type            symmetryPlane;
        value           nonuniform 0();
    }
    lowerWall
    {
        type            symmetryPlane;
        value           uniform 0;
    }
    inlet
    {
        type            calculated;
        value           nonuniform 0();
    }
    cylinder
    {
        type            calculated;
        value           nonuniform 0();
    }
    frontAndBack
    {
        type            empty;
        value           nonuniform 0();
    }
    procBoundary3to2
    {
        type            processor;
        value           nonuniform List<scalar> 
43
(
-0.0345372
-0.0438676
-0.0499592
-0.0497988
-0.0453725
-0.0404437
-0.0111568
-0.0399714
-0.0400866
-0.0387037
-0.0356498
-0.0143058
-0.0524945
-0.0560443
-0.0611356
-0.0656558
-0.0711893
-0.0766834
-0.0826331
-0.0889224
-0.0956212
-0.102694
-0.110208
-0.118157
-0.126597
-0.135536
-0.145021
-0.155087
-0.165777
-0.177142
-0.189237
-0.20212
-0.215852
-0.230511
-0.246168
-0.26291
-0.280831
-0.300032
-0.320626
-0.342741
-0.0447135
0.0137347
-0.0475418
)
;
    }
    procBoundary3to7
    {
        type            processor;
        value           nonuniform List<scalar> 
30
(
-9.77008e-09
4.99442e-08
9.3663e-08
1.18099e-07
1.2824e-07
1.3326e-07
1.34227e-07
1.27387e-07
1.11854e-07
9.00483e-08
6.52711e-08
3.97416e-08
1.71299e-08
-1.5617e-09
-1.52917e-08
-2.16015e-08
-2.42345e-08
-2.29037e-08
-1.91422e-08
-1.50984e-08
-1.22326e-08
-1.23373e-08
-1.45534e-08
-1.66633e-08
-1.62695e-08
-1.32638e-08
-8.05188e-09
-4.48198e-09
-2.07158e-09
5.91826e-10
)
;
    }
}


// ************************************************************************* //
