/*--------------------------------*- C++ -*----------------------------------*\
| =========                 |                                                 |
| \\      /  F ield         | OpenFOAM: The Open Source CFD Toolbox           |
|  \\    /   O peration     | Version:                                        |
|   \\  /    A nd           | Website:  www.openfoam.com                      |
|    \\/     M anipulation  |                                                 |
\*---------------------------------------------------------------------------*/
FoamFile
{
    version     2.0;
    format      ascii;
    class       surfaceScalarField;
    location    "0.4";
    object      phi;
}
// * * * * * * * * * * * * * * * * * * * * * * * * * * * * * * * * * * * * * //

dimensions      [0 3 -1 0 0 0 0];
oriented        oriented;


internalField   nonuniform List<scalar> 
760
(
1.9876e-06
4.17225e-09
1.98361e-06
3.9872e-09
1.97981e-06
3.8024e-09
1.97618e-06
3.62566e-09
1.97273e-06
3.45478e-09
1.96944e-06
3.28824e-09
1.96632e-06
3.12559e-09
1.96335e-06
2.96705e-09
1.96054e-06
2.81265e-09
1.95787e-06
2.66247e-09
1.95536e-06
2.51667e-09
1.95298e-06
2.3751e-09
1.95074e-06
2.23807e-09
1.94864e-06
2.10773e-09
1.94666e-06
1.9798e-09
1.94478e-06
1.87208e-09
1.94304e-06
1.74721e-09
1.94131e-06
1.73149e-09
1.93973e-06
1.57644e-09
2.44191e-09
5.74659e-06
1.55274e-08
5.73574e-06
1.48282e-08
5.72542e-06
1.41315e-08
5.71558e-06
1.34583e-08
5.70623e-06
1.28068e-08
5.69735e-06
1.21727e-08
5.68892e-06
1.15549e-08
5.68093e-06
1.09531e-08
5.67338e-06
1.03677e-08
5.66624e-06
9.79844e-09
5.65951e-06
9.24596e-09
5.65318e-06
8.7103e-09
5.64722e-06
8.19301e-09
5.64163e-06
7.69876e-09
5.63639e-06
7.2201e-09
5.63147e-06
6.79536e-09
5.62686e-06
6.35142e-09
5.62244e-06
6.14844e-09
5.61831e-06
5.71389e-09
6.80088e-09
9.28704e-06
3.29118e-08
9.27045e-06
3.14147e-08
9.25466e-06
2.99279e-08
9.23963e-06
2.84832e-08
9.22536e-06
2.70833e-08
9.21181e-06
2.57214e-08
9.19897e-06
2.43958e-08
9.18681e-06
2.31053e-08
9.17533e-06
2.18508e-08
9.1645e-06
2.06312e-08
9.1543e-06
1.94484e-08
9.1447e-06
1.83022e-08
9.1357e-06
1.71961e-08
9.12726e-06
1.61365e-08
9.11937e-06
1.51167e-08
9.11198e-06
1.41874e-08
9.10507e-06
1.32561e-08
9.09856e-06
1.26556e-08
9.09246e-06
1.18182e-08
1.23936e-08
1.26057e-05
5.51218e-08
1.25845e-05
5.25932e-08
1.25644e-05
5.00927e-08
1.25452e-05
4.76561e-08
1.2527e-05
4.52916e-08
1.25097e-05
4.29918e-08
1.24934e-05
4.07541e-08
1.24779e-05
3.85768e-08
1.24633e-05
3.64607e-08
1.24495e-05
3.44044e-08
1.24365e-05
3.2411e-08
1.24244e-05
3.04795e-08
1.24129e-05
2.86176e-08
1.24022e-05
2.68288e-08
1.23923e-05
2.51128e-08
1.23829e-05
2.35216e-08
1.23742e-05
2.19688e-08
1.23661e-05
2.07717e-08
1.23585e-05
1.9434e-08
1.907e-08
1.56989e-05
8.08587e-08
1.56744e-05
7.71237e-08
1.5651e-05
7.34474e-08
1.56288e-05
6.98608e-08
1.56077e-05
6.63764e-08
1.55877e-05
6.29868e-08
1.55688e-05
5.96891e-08
1.55509e-05
5.64816e-08
1.5534e-05
5.33649e-08
1.55181e-05
5.03367e-08
1.55031e-05
4.74031e-08
1.5489e-05
4.45591e-08
1.54758e-05
4.1819e-08
1.54634e-05
3.91809e-08
1.54519e-05
3.66597e-08
1.54411e-05
3.42834e-08
1.54311e-05
3.20176e-08
1.54218e-05
3.00544e-08
1.5413e-05
2.81865e-08
2.66229e-08
1.8563e-05
1.08701e-07
1.85365e-05
1.03654e-07
1.85112e-05
9.87074e-08
1.84872e-05
9.38811e-08
1.84644e-05
8.91884e-08
1.84428e-05
8.46231e-08
1.84223e-05
8.01818e-08
1.84029e-05
7.5862e-08
1.83846e-05
7.16655e-08
1.83674e-05
6.75875e-08
1.83511e-05
6.36387e-08
1.83359e-05
5.98095e-08
1.83216e-05
5.61232e-08
1.83082e-05
5.25621e-08
1.82957e-05
4.9174e-08
1.8284e-05
4.59303e-08
1.82731e-05
4.29124e-08
1.82631e-05
4.00552e-08
1.82536e-05
3.76807e-08
3.47809e-08
2.11952e-05
1.37101e-07
2.11681e-05
1.30712e-07
2.11423e-05
1.24475e-07
2.11178e-05
1.18394e-07
2.10945e-05
1.12478e-07
2.10724e-05
1.06721e-07
2.10515e-05
1.01121e-07
2.10317e-05
9.56736e-08
2.1013e-05
9.03828e-08
2.09953e-05
8.52409e-08
2.09787e-05
8.02632e-08
2.09631e-05
7.5432e-08
2.09484e-05
7.07872e-08
2.09347e-05
6.6283e-08
2.09218e-05
6.20206e-08
2.09099e-05
5.78733e-08
2.08987e-05
5.41162e-08
2.08885e-05
5.02887e-08
2.08787e-05
4.74682e-08
4.31965e-08
2.35935e-05
1.64409e-07
2.35675e-05
1.56734e-07
2.35427e-05
1.49264e-07
2.35191e-05
1.41989e-07
2.34967e-05
1.3491e-07
2.34754e-05
1.28019e-07
2.34552e-05
1.21316e-07
2.3436e-05
1.14795e-07
2.3418e-05
1.08463e-07
2.34009e-05
1.02307e-07
2.33848e-05
9.63499e-08
2.33697e-05
9.0561e-08
2.33555e-05
8.5004e-08
2.33422e-05
7.95927e-08
2.33297e-05
7.4505e-08
2.33181e-05
6.9469e-08
2.33072e-05
6.50347e-08
2.32972e-05
6.02211e-08
2.32877e-05
5.70393e-08
5.14464e-08
2.57579e-05
1.88923e-07
2.57345e-05
1.80105e-07
2.57122e-05
1.71538e-07
2.5691e-05
1.63206e-07
2.56708e-05
1.55099e-07
2.56517e-05
1.47206e-07
2.56334e-05
1.39527e-07
2.56162e-05
1.32057e-07
2.55998e-05
1.24802e-07
2.55844e-05
1.17747e-07
2.55698e-05
1.10923e-07
2.55561e-05
1.04282e-07
2.55432e-05
9.79193e-08
2.55311e-05
9.16931e-08
2.55197e-05
8.5883e-08
2.55092e-05
8.00291e-08
2.54992e-05
7.50241e-08
2.54901e-05
6.92757e-08
2.54813e-05
6.5832e-08
5.90454e-08
2.76903e-05
2.08972e-07
2.76712e-05
1.99236e-07
2.76529e-05
1.89786e-07
2.76355e-05
1.80608e-07
2.76189e-05
1.71677e-07
2.76032e-05
1.62981e-07
2.75882e-05
1.54522e-07
2.75739e-05
1.4629e-07
2.75604e-05
1.38296e-07
2.75477e-05
1.30519e-07
2.75356e-05
1.22999e-07
2.75242e-05
1.15671e-07
2.75135e-05
1.08664e-07
2.75034e-05
1.0177e-07
2.74939e-05
9.53903e-08
2.74851e-05
8.88469e-08
2.74767e-05
8.34153e-08
2.74691e-05
7.68531e-08
2.74617e-05
7.32549e-08
6.54729e-08
2.9395e-05
2.23012e-07
2.93816e-05
2.12654e-07
2.93688e-05
2.02605e-07
2.93565e-05
1.92854e-07
2.93449e-05
1.83368e-07
2.93337e-05
1.7413e-07
2.93231e-05
1.65143e-07
2.9313e-05
1.56395e-07
2.93034e-05
1.47902e-07
2.92943e-05
1.39634e-07
2.92856e-05
1.31644e-07
2.92774e-05
1.23845e-07
2.92697e-05
1.16404e-07
2.92624e-05
1.09041e-07
2.92555e-05
1.02287e-07
2.92491e-05
9.52377e-08
2.9243e-05
8.95524e-08
2.92375e-05
8.23644e-08
2.9232e-05
7.87226e-08
7.02072e-08
3.08789e-05
2.29733e-07
3.08724e-05
2.19106e-07
3.08662e-05
2.08794e-07
3.08603e-05
1.98797e-07
3.08546e-05
1.89074e-07
3.08491e-05
1.79603e-07
3.08439e-05
1.7039e-07
3.08388e-05
1.61419e-07
3.0834e-05
1.52711e-07
3.08294e-05
1.44228e-07
3.0825e-05
1.36035e-07
3.08209e-05
1.28023e-07
3.08169e-05
1.20398e-07
3.08131e-05
1.1281e-07
3.08095e-05
1.05911e-07
3.08061e-05
9.85878e-08
3.08028e-05
9.28413e-08
3.07999e-05
8.52753e-08
3.07969e-05
8.17004e-08
7.2768e-08
3.2151e-05
2.28154e-07
3.21525e-05
2.1765e-07
3.21538e-05
2.07454e-07
3.2155e-05
1.97573e-07
3.21561e-05
1.87966e-07
3.21571e-05
1.78606e-07
3.2158e-05
1.695e-07
3.21588e-05
1.60632e-07
3.21595e-05
1.52024e-07
3.21601e-05
1.43633e-07
3.21606e-05
1.35534e-07
3.2161e-05
1.27599e-07
3.21613e-05
1.20067e-07
3.21616e-05
1.12529e-07
3.21618e-05
1.05734e-07
3.2162e-05
9.84076e-08
3.2162e-05
9.28019e-08
3.21621e-05
8.51531e-08
3.21621e-05
8.17524e-08
7.27608e-08
3.32226e-05
2.17722e-07
3.32325e-05
2.07749e-07
3.32419e-05
1.98065e-07
3.32508e-05
1.8868e-07
3.32592e-05
1.79556e-07
3.32672e-05
1.70667e-07
3.32746e-05
1.62018e-07
3.32817e-05
1.53593e-07
3.32883e-05
1.45415e-07
3.32945e-05
1.3744e-07
3.33003e-05
1.29747e-07
3.33057e-05
1.22194e-07
3.33107e-05
1.15044e-07
3.33154e-05
1.0785e-07
3.33197e-05
1.01418e-07
3.33237e-05
9.4382e-08
3.33274e-05
8.91195e-08
3.33308e-05
8.17142e-08
3.3334e-05
7.85879e-08
6.99185e-08
3.41065e-05
1.98368e-07
3.41249e-05
1.89329e-07
3.41424e-05
1.8055e-07
3.4159e-05
1.72038e-07
3.41748e-05
1.63762e-07
3.41898e-05
1.55699e-07
3.4204e-05
1.47854e-07
3.42174e-05
1.4021e-07
3.423e-05
1.32791e-07
3.42419e-05
1.25551e-07
3.4253e-05
1.18572e-07
3.42635e-05
1.11709e-07
3.42733e-05
1.05227e-07
3.42825e-05
9.86728e-08
3.42911e-05
9.2856e-08
3.42991e-05
8.64122e-08
3.43065e-05
8.16864e-08
3.43133e-05
7.48613e-08
3.43198e-05
7.21001e-08
6.41376e-08
3.48159e-05
1.7054e-07
3.48424e-05
1.6281e-07
3.48677e-05
1.55305e-07
3.48917e-05
1.48019e-07
3.49145e-05
1.40933e-07
3.49362e-05
1.34029e-07
3.49567e-05
1.27311e-07
3.49762e-05
1.20766e-07
3.49946e-05
1.14413e-07
3.50119e-05
1.0821e-07
3.50282e-05
1.02234e-07
3.50436e-05
9.63489e-08
3.5058e-05
9.08021e-08
3.50715e-05
8.517e-08
3.50842e-05
8.02025e-08
3.5096e-05
7.46415e-08
3.5107e-05
7.06285e-08
3.51172e-05
6.47095e-08
3.51269e-05
6.23917e-08
5.55027e-08
3.53642e-05
1.35198e-07
3.53979e-05
1.29102e-07
3.543e-05
1.23194e-07
3.54606e-05
1.17444e-07
3.54897e-05
1.11847e-07
3.55173e-05
1.06394e-07
3.55435e-05
1.0109e-07
3.55684e-05
9.59203e-08
3.55919e-05
9.09032e-08
3.56141e-05
8.60026e-08
3.5635e-05
8.12843e-08
3.56547e-05
7.66316e-08
3.56733e-05
7.22543e-08
3.56907e-05
6.7794e-08
3.5707e-05
6.38802e-08
3.57222e-05
5.94621e-08
3.57365e-05
5.63134e-08
3.57496e-05
5.1594e-08
3.57622e-05
4.97829e-08
4.42926e-08
3.57633e-05
9.37751e-08
3.58029e-05
8.95631e-08
3.58405e-05
8.55097e-08
3.58764e-05
8.15472e-08
3.59106e-05
7.768e-08
3.59431e-05
7.39141e-08
3.59739e-05
7.02508e-08
3.60032e-05
6.66809e-08
3.60308e-05
6.32171e-08
3.6057e-05
5.98334e-08
3.60817e-05
5.65769e-08
3.6105e-05
5.33627e-08
3.61269e-05
5.03436e-08
3.61474e-05
4.72585e-08
3.61668e-05
4.45621e-08
3.61847e-05
4.14986e-08
3.62017e-05
3.93363e-08
3.62172e-05
3.6056e-08
3.62322e-05
3.48037e-08
3.09765e-08
3.60234e-05
4.80982e-08
3.6067e-05
4.59391e-08
3.61086e-05
4.38851e-08
3.61483e-05
4.18886e-08
3.6186e-05
3.99252e-08
3.62219e-05
3.80119e-08
3.6256e-05
3.61508e-08
3.62884e-05
3.43378e-08
3.6319e-05
3.25799e-08
3.6348e-05
3.0863e-08
3.63754e-05
2.92115e-08
3.64011e-05
2.75807e-08
3.64254e-05
2.6052e-08
3.64482e-05
2.44852e-08
3.64696e-05
2.3121e-08
3.64896e-05
2.15611e-08
3.65084e-05
2.04715e-08
3.65257e-05
1.87993e-08
3.65423e-05
1.81771e-08
1.62022e-08
3.61516e-05
3.61973e-05
3.62409e-05
3.62825e-05
3.63221e-05
3.63598e-05
3.63956e-05
3.64296e-05
3.64617e-05
3.64922e-05
3.65209e-05
3.6548e-05
3.65735e-05
3.65975e-05
3.662e-05
3.6641e-05
3.66608e-05
3.6679e-05
3.66965e-05
)
;

boundaryField
{
    fixedWalls
    {
        type            calculated;
        value           uniform 0;
    }
    inlet
    {
        type            calculated;
        value           nonuniform 0();
    }
    outlet
    {
        type            calculated;
        value           nonuniform List<scalar> 
20
(
1.93729e-06
5.61395e-06
9.08687e-06
1.23518e-05
1.54055e-05
1.82455e-05
2.08703e-05
2.32794e-05
2.54737e-05
2.74552e-05
2.92273e-05
3.07944e-05
3.21621e-05
3.33368e-05
3.43256e-05
3.51355e-05
3.57734e-05
3.62455e-05
3.65571e-05
3.6712e-05
)
;
    }
    frontAndBack
    {
        type            empty;
        value           nonuniform 0();
    }
    procBoundary3to2
    {
        type            processor;
        value           nonuniform List<scalar> 
20
(
-1.99177e-06
-5.75794e-06
-9.30442e-06
-1.26279e-05
-1.57246e-05
-1.85909e-05
-2.12236e-05
-2.36208e-05
-2.57824e-05
-2.77103e-05
-2.94091e-05
-3.08856e-05
-3.21494e-05
-3.32122e-05
-3.40871e-05
-3.47881e-05
-3.53288e-05
-3.57219e-05
-3.59777e-05
-3.61037e-05
)
;
    }
    procBoundary3to7
    {
        type            processor;
        value           nonuniform List<scalar> 
20
(
2.06659e-10
2.27963e-10
2.49652e-10
2.77389e-10
3.0792e-10
3.33597e-10
3.59742e-10
3.85062e-10
4.11507e-10
4.39155e-10
4.66519e-10
4.93359e-10
5.21742e-10
5.4812e-10
5.76209e-10
5.95658e-10
6.2204e-10
6.31261e-10
6.64761e-10
6.56348e-10
)
;
    }
}


// ************************************************************************* //
