/*--------------------------------*- C++ -*----------------------------------*\
| =========                 |                                                 |
| \\      /  F ield         | OpenFOAM: The Open Source CFD Toolbox           |
|  \\    /   O peration     | Version:                                        |
|   \\  /    A nd           | Website:  www.openfoam.com                      |
|    \\/     M anipulation  |                                                 |
\*---------------------------------------------------------------------------*/
FoamFile
{
    version     2.0;
    format      ascii;
    class       volVectorField;
    location    "0.4";
    object      U;
}
// * * * * * * * * * * * * * * * * * * * * * * * * * * * * * * * * * * * * * //

dimensions      [0 1 -1 0 0 0 0];


internalField   nonuniform List<vector> 
400
(
(0.0795857 2.81751e-05 0)
(0.0794225 2.69429e-05 0)
(0.0792667 2.57177e-05 0)
(0.0791182 2.45701e-05 0)
(0.0789767 2.34624e-05 0)
(0.0788419 2.23804e-05 0)
(0.0787136 2.13189e-05 0)
(0.0785918 2.02817e-05 0)
(0.0784763 1.92704e-05 0)
(0.0783668 1.82859e-05 0)
(0.0782633 1.73297e-05 0)
(0.0781655 1.64005e-05 0)
(0.0780733 1.54987e-05 0)
(0.0779864 1.46456e-05 0)
(0.0779048 1.37972e-05 0)
(0.0778276 1.3133e-05 0)
(0.0777559 1.22779e-05 0)
(0.0776853 1.25234e-05 0)
(0.0776239 1.14835e-05 0)
(0.0775234 2.15333e-05 0)
(0.230086 0.000166754 0)
(0.229642 0.000159329 0)
(0.229218 0.000151907 0)
(0.228815 0.000144783 0)
(0.228432 0.000137898 0)
(0.228067 0.00013119 0)
(0.227721 0.000124646 0)
(0.227393 0.000118268 0)
(0.227082 0.00011206 0)
(0.226788 0.00010602 0)
(0.226511 0.000100156 0)
(0.22625 9.44666e-05 0)
(0.226004 8.89668e-05 0)
(0.225773 8.37273e-05 0)
(0.225557 7.86239e-05 0)
(0.225354 7.4222e-05 0)
(0.225165 6.9405e-05 0)
(0.224981 6.81214e-05 0)
(0.224825 6.30747e-05 0)
(0.224598 8.52826e-05 0)
(0.371821 0.000454701 0)
(0.371142 0.000434142 0)
(0.370494 0.000413665 0)
(0.369878 0.00039383 0)
(0.369293 0.000374629 0)
(0.368736 0.000355948 0)
(0.368209 0.000337754 0)
(0.367709 0.000320036 0)
(0.367236 0.000302807 0)
(0.36679 0.000286054 0)
(0.36637 0.0002698 0)
(0.365974 0.000254048 0)
(0.365603 0.000238842 0)
(0.365254 0.000224297 0)
(0.364928 0.000210261 0)
(0.364621 0.000197652 0)
(0.364339 0.000184759 0)
(0.364062 0.000177703 0)
(0.363837 0.000165607 0)
(0.363515 0.000184625 0)
(0.504662 0.000858206 0)
(0.503795 0.000819025 0)
(0.502968 0.000780162 0)
(0.502181 0.00074234 0)
(0.501434 0.000705668 0)
(0.500725 0.00067 0)
(0.500052 0.000635289 0)
(0.499416 0.000601509 0)
(0.498815 0.000568674 0)
(0.498247 0.000536761 0)
(0.497713 0.000505815 0)
(0.49721 0.000475831 0)
(0.496739 0.000446914 0)
(0.496296 0.00041918 0)
(0.495884 0.000392526 0)
(0.495496 0.000368048 0)
(0.49514 0.000343818 0)
(0.49479 0.000326718 0)
(0.494515 0.000305255 0)
(0.494113 0.000309117 0)
(0.628459 0.0013451 0)
(0.627454 0.00128319 0)
(0.626496 0.00122208 0)
(0.625585 0.00116248 0)
(0.62472 0.00110462 0)
(0.623899 0.00104833 0)
(0.62312 0.000993574 0)
(0.622384 0.000940305 0)
(0.621688 0.00088854 0)
(0.621032 0.000838242 0)
(0.620413 0.0007895 0)
(0.619832 0.000742262 0)
(0.619287 0.000696734 0)
(0.618776 0.000652965 0)
(0.618299 0.000611044 0)
(0.617851 0.000571886 0)
(0.617442 0.000534047 0)
(0.617037 0.000503155 0)
(0.616727 0.00047114 0)
(0.616263 0.000452862 0)
(0.743065 0.00188833 0)
(0.741978 0.00180086 0)
(0.740943 0.00171495 0)
(0.739957 0.0016311 0)
(0.739021 0.00154959 0)
(0.738132 0.00147031 0)
(0.73729 0.00139318 0)
(0.736493 0.00131817 0)
(0.73574 0.00124529 0)
(0.735029 0.00117447 0)
(0.73436 0.00110588 0)
(0.73373 0.00103939 0)
(0.73314 0.000975343 0)
(0.732586 0.000913593 0)
(0.73207 0.000854688 0)
(0.731583 0.000798791 0)
(0.731143 0.000746042 0)
(0.7307 0.000698331 0)
(0.730373 0.00065576 0)
(0.729863 0.000611557 0)
(0.848361 0.00245884 0)
(0.847253 0.00234441 0)
(0.846196 0.00223251 0)
(0.845191 0.00212334 0)
(0.844235 0.00201715 0)
(0.843328 0.00191383 0)
(0.842467 0.00181333 0)
(0.841653 0.00171557 0)
(0.840882 0.00162061 0)
(0.840155 0.00152833 0)
(0.83947 0.00143899 0)
(0.838825 0.00135232 0)
(0.83822 0.00126894 0)
(0.837652 0.00118826 0)
(0.837123 0.00111166 0)
(0.836622 0.00103781 0)
(0.836173 0.000969889 0)
(0.835714 0.000903264 0)
(0.835385 0.00085103 0)
(0.834853 0.000779296 0)
(0.944273 0.00302452 0)
(0.943207 0.00288338 0)
(0.942191 0.00274583 0)
(0.941224 0.00261179 0)
(0.940304 0.00248136 0)
(0.939429 0.00235441 0)
(0.9386 0.00223092 0)
(0.937814 0.0021108 0)
(0.93707 0.00199414 0)
(0.936367 0.00188075 0)
(0.935705 0.001771 0)
(0.93508 0.00166443 0)
(0.934494 0.00156203 0)
(0.933943 0.00146256 0)
(0.93343 0.00136868 0)
(0.932943 0.00127663 0)
(0.932507 0.00119431 0)
(0.932057 0.0011078 0)
(0.931743 0.00104739 0)
(0.931217 0.000948328 0)
(1.03079 0.00355145 0)
(1.02984 0.00338559 0)
(1.02892 0.00322434 0)
(1.02806 0.00306741 0)
(1.02723 0.00291468 0)
(1.02644 0.00276601 0)
(1.02569 0.00262139 0)
(1.02498 0.00248069 0)
(1.02431 0.00234406 0)
(1.02368 0.00221121 0)
(1.02308 0.00208268 0)
(1.02251 0.00195771 0)
(1.02198 0.00183783 0)
(1.02148 0.00172085 0)
(1.02101 0.00161123 0)
(1.02057 0.00150182 0)
(1.02017 0.00140681 0)
(1.01976 0.00130075 0)
(1.01947 0.00123402 0)
(1.01899 0.00110945 0)
(1.108 0.00400543 0)
(1.10722 0.00381856 0)
(1.10647 0.00363714 0)
(1.10576 0.00346081 0)
(1.10508 0.00328923 0)
(1.10443 0.00312218 0)
(1.10382 0.00295966 0)
(1.10323 0.00280154 0)
(1.10268 0.00264799 0)
(1.10216 0.00249863 0)
(1.10166 0.00235418 0)
(1.10119 0.00221353 0)
(1.10075 0.00207888 0)
(1.10033 0.0019468 0)
(1.09994 0.00182401 0)
(1.09957 0.00169925 0)
(1.09924 0.00159408 0)
(1.09889 0.00147019 0)
(1.09866 0.00139923 0)
(1.09824 0.00125243 0)
(1.17608 0.00435376 0)
(1.17553 0.00415116 0)
(1.175 0.00395459 0)
(1.1745 0.00376376 0)
(1.17402 0.00357811 0)
(1.17357 0.00339733 0)
(1.17313 0.00322145 0)
(1.17272 0.00305028 0)
(1.17232 0.00288409 0)
(1.17195 0.00272234 0)
(1.17159 0.00256599 0)
(1.17126 0.00241351 0)
(1.17094 0.00226785 0)
(1.17064 0.00212416 0)
(1.17036 0.00199174 0)
(1.17009 0.00185475 0)
(1.16985 0.00174264 0)
(1.16959 0.00160404 0)
(1.16942 0.00153104 0)
(1.16911 0.00136667 0)
(1.23529 0.00456736 0)
(1.23502 0.00435561 0)
(1.23477 0.00415017 0)
(1.23453 0.00395093 0)
(1.2343 0.00375713 0)
(1.23407 0.00356839 0)
(1.23386 0.00338476 0)
(1.23365 0.003206 0)
(1.23346 0.00303246 0)
(1.23327 0.00286346 0)
(1.23309 0.00270019 0)
(1.23292 0.00254067 0)
(1.23275 0.00238867 0)
(1.2326 0.00223785 0)
(1.23245 0.00210008 0)
(1.23231 0.00195507 0)
(1.23218 0.00183973 0)
(1.23205 0.00169083 0)
(1.23195 0.00161802 0)
(1.23179 0.00144192 0)
(1.28601 0.00462281 0)
(1.28607 0.00440947 0)
(1.28613 0.00420242 0)
(1.28618 0.00400173 0)
(1.28622 0.00380658 0)
(1.28627 0.00361649 0)
(1.2863 0.00343155 0)
(1.28634 0.00325146 0)
(1.28637 0.00307664 0)
(1.28639 0.0029063 0)
(1.28641 0.00274184 0)
(1.28643 0.00258084 0)
(1.28645 0.00242782 0)
(1.28646 0.0022751 0)
(1.28647 0.00213685 0)
(1.28648 0.00198891 0)
(1.28648 0.00187432 0)
(1.28649 0.00172062 0)
(1.28648 0.00165021 0)
(1.28649 0.0014692 0)
(1.3287 0.00450439 0)
(1.32911 0.00429756 0)
(1.32949 0.00409674 0)
(1.32986 0.00390213 0)
(1.33021 0.00371294 0)
(1.33053 0.00352862 0)
(1.33084 0.0033493 0)
(1.33113 0.00317464 0)
(1.3314 0.00300509 0)
(1.33166 0.00283978 0)
(1.3319 0.00268028 0)
(1.33212 0.00252384 0)
(1.33233 0.00237555 0)
(1.33253 0.00222671 0)
(1.3327 0.00209313 0)
(1.33288 0.00194798 0)
(1.33302 0.00183824 0)
(1.33318 0.00168605 0)
(1.33327 0.00162013 0)
(1.33347 0.00144169 0)
(1.36388 0.00420561 0)
(1.36464 0.00401352 0)
(1.36535 0.00382693 0)
(1.36604 0.00364608 0)
(1.36669 0.00347028 0)
(1.3673 0.003299 0)
(1.36788 0.00313234 0)
(1.36843 0.00296998 0)
(1.36895 0.00281239 0)
(1.36944 0.00265864 0)
(1.3699 0.00251038 0)
(1.37034 0.00236471 0)
(1.37074 0.00222697 0)
(1.37113 0.00208801 0)
(1.37147 0.00196426 0)
(1.37182 0.00182795 0)
(1.3721 0.00172707 0)
(1.37243 0.00158312 0)
(1.37261 0.00152364 0)
(1.37301 0.00135554 0)
(1.39209 0.0037302 0)
(1.39318 0.00356074 0)
(1.39421 0.00339612 0)
(1.3952 0.00323643 0)
(1.39614 0.00308117 0)
(1.39703 0.00292991 0)
(1.39787 0.00278273 0)
(1.39867 0.00263932 0)
(1.39943 0.00250012 0)
(1.40014 0.00236423 0)
(1.40081 0.00223329 0)
(1.40145 0.00210442 0)
(1.40204 0.00198284 0)
(1.40261 0.00185962 0)
(1.40311 0.00175063 0)
(1.40363 0.00162919 0)
(1.40404 0.00154091 0)
(1.40454 0.00141193 0)
(1.40481 0.0013606 0)
(1.40539 0.00121046 0)
(1.41388 0.00309237 0)
(1.41526 0.00295265 0)
(1.41657 0.00281703 0)
(1.41783 0.00268523 0)
(1.41902 0.00255701 0)
(1.42015 0.00243209 0)
(1.42123 0.00231056 0)
(1.42225 0.00219212 0)
(1.42322 0.00207718 0)
(1.42413 0.00196491 0)
(1.42499 0.00185679 0)
(1.42581 0.00175023 0)
(1.42657 0.0016499 0)
(1.4273 0.00154782 0)
(1.42795 0.00145805 0)
(1.42861 0.00135706 0)
(1.42915 0.0012847 0)
(1.42979 0.001177 0)
(1.43014 0.00113524 0)
(1.4309 0.00101006 0)
(1.42972 0.00231633 0)
(1.43134 0.0022122 0)
(1.43289 0.00211155 0)
(1.43436 0.00201334 0)
(1.43576 0.00191764 0)
(1.43709 0.00182442 0)
(1.43836 0.00173374 0)
(1.43956 0.00164536 0)
(1.4407 0.00155961 0)
(1.44177 0.00147584 0)
(1.44279 0.00139519 0)
(1.44375 0.00131562 0)
(1.44465 0.00124084 0)
(1.44551 0.0011645 0)
(1.44628 0.00109767 0)
(1.44707 0.00102194 0)
(1.4477 0.000968263 0)
(1.44846 0.00088726 0)
(1.44888 0.000856221 0)
(1.44978 0.000761951 0)
(1.44004 0.00143543 0)
(1.44183 0.0013709 0)
(1.44353 0.00130925 0)
(1.44516 0.00124906 0)
(1.44671 0.0011901 0)
(1.44818 0.00113266 0)
(1.44958 0.00107678 0)
(1.45091 0.00102235 0)
(1.45216 0.00096953 0)
(1.45336 0.000917936 0)
(1.45448 0.000868308 0)
(1.45555 0.000819292 0)
(1.45654 0.000773296 0)
(1.4575 0.000726219 0)
(1.45836 0.00068516 0)
(1.45922 0.000638358 0)
(1.45993 0.000605484 0)
(1.46077 0.000555374 0)
(1.46124 0.00053638 0)
(1.46223 0.000477588 0)
(1.44513 0.000488762 0)
(1.447 0.000467129 0)
(1.44878 0.000446548 0)
(1.45049 0.0004267 0)
(1.45211 0.00040717 0)
(1.45366 0.000388083 0)
(1.45513 0.000369526 0)
(1.45652 0.000351438 0)
(1.45784 0.000333924 0)
(1.4591 0.000316833 0)
(1.46028 0.000300405 0)
(1.4614 0.00028418 0)
(1.46244 0.000269005 0)
(1.46344 0.000253417 0)
(1.46435 0.000239901 0)
(1.46526 0.000224301 0)
(1.466 0.000213553 0)
(1.46689 0.000196739 0)
(1.46738 0.000190778 0)
(1.46843 0.000170619 0)
)
;

boundaryField
{
    fixedWalls
    {
        type            noSlip;
    }
    inlet
    {
        type            fixedValue;
        value           nonuniform 0();
    }
    outlet
    {
        type            zeroGradient;
    }
    frontAndBack
    {
        type            empty;
    }
    procBoundary3to2
    {
        type            processor;
        value           nonuniform List<vector> 
20
(
(0.0797561 2.93106e-05 0)
(0.23055 0.000174027 0)
(0.372532 0.000475328 0)
(0.505571 0.00089805 0)
(0.629512 0.00140856 0)
(0.744205 0.0019784 0)
(0.849524 0.00257689 0)
(0.945391 0.00317011 0)
(1.0318 0.00372234 0)
(1.10882 0.00419766 0)
(1.17665 0.00456185 0)
(1.23556 0.00478453 0)
(1.28594 0.00484137 0)
(1.32827 0.00471615 0)
(1.36309 0.0044023 0)
(1.39095 0.00390394 0)
(1.41243 0.00323608 0)
(1.42803 0.00242413 0)
(1.43817 0.00150233 0)
(1.44317 0.000511163 0)
)
;
    }
    procBoundary3to7
    {
        type            processor;
        value           nonuniform List<vector> 
20
(
(1.44513 -0.000480472 0)
(1.447 -0.000458088 0)
(1.44879 -0.000436607 0)
(1.45049 -0.000415578 0)
(1.45212 -0.000394874 0)
(1.45366 -0.000374741 0)
(1.45513 -0.000355151 0)
(1.45653 -0.000336052 0)
(1.45785 -0.000317464 0)
(1.4591 -0.000299282 0)
(1.46028 -0.000281757 0)
(1.4614 -0.000264439 0)
(1.46245 -0.000248131 0)
(1.46345 -0.000231508 0)
(1.46436 -0.000216881 0)
(1.46527 -0.000200506 0)
(1.46601 -0.000188689 0)
(1.4669 -0.000171484 0)
(1.46739 -0.00016416 0)
(1.46844 -0.000144313 0)
)
;
    }
}


// ************************************************************************* //
