/*--------------------------------*- C++ -*----------------------------------*\
| =========                 |                                                 |
| \\      /  F ield         | OpenFOAM: The Open Source CFD Toolbox           |
|  \\    /   O peration     | Version:                                        |
|   \\  /    A nd           | Website:  www.openfoam.com                      |
|    \\/     M anipulation  |                                                 |
\*---------------------------------------------------------------------------*/
FoamFile
{
    version     2.0;
    format      ascii;
    class       volVectorField;
    location    "147";
    object      U;
}
// * * * * * * * * * * * * * * * * * * * * * * * * * * * * * * * * * * * * * //

dimensions      [0 1 -1 0 0 0 0];


internalField   nonuniform List<vector> 
1150
(
(0.854923 -0.0265564 -4.84218e-21)
(0.842848 -0.0294178 1.12767e-20)
(0.829737 -0.0327239 -6.20901e-21)
(0.852821 -0.00730071 -3.40144e-21)
(0.84016 -0.00819758 3.05349e-21)
(0.826901 -0.00906598 -3.18766e-20)
(0.853373 0.0107077 -5.70936e-21)
(0.841835 0.0115567 4.46448e-20)
(0.829215 0.0128954 -5.52191e-20)
(0.857185 0.0321669 1.87553e-21)
(0.846763 0.0343175 1.30496e-20)
(0.862655 0.0499027 6.1979e-21)
(0.854034 0.0531935 1.14659e-19)
(0.872169 0.0704381 -3.10025e-20)
(0.999643 -0.00034645 -2.10592e-22)
(1.00469 -0.00472945 -6.1359e-23)
(1.00289 -0.00890501 3.93796e-23)
(1.00214 0.000687817 -1.64487e-22)
(0.999556 -0.00116269 4.4553e-23)
(1.00024 -0.00090585 1.90446e-22)
(0.99788 0.00229532 -1.74735e-22)
(0.997736 -0.00255079 1.06483e-23)
(0.996716 -0.00712885 -1.01891e-22)
(0.995408 -0.0022411 1.59893e-22)
(0.993064 -0.00940561 -1.08383e-22)
(0.992025 -0.0086281 3.92225e-23)
(0.98998 -0.00706022 -3.72362e-22)
(0.986744 -0.00702011 3.02725e-22)
(0.983495 -0.00750599 -2.39986e-22)
(0.980239 -0.00630884 5.23136e-22)
(0.976299 -0.00619305 3.25418e-23)
(0.971861 -0.00589477 -1.07963e-21)
(0.966909 -0.00716102 1.14507e-21)
(0.962078 -0.00713755 -3.39564e-22)
(0.955905 -0.00879501 8.02315e-22)
(0.949609 -0.00928249 -2.02418e-21)
(0.94195 -0.0115661 2.69891e-22)
(0.934501 -0.0124583 1.26148e-21)
(0.92531 -0.0150184 3.43174e-22)
(0.916045 -0.0161061 -3.48161e-21)
(0.90524 -0.0186968 2.82964e-21)
(0.894084 -0.0199773 -1.59608e-22)
(0.881575 -0.0225812 5.71757e-22)
(0.868179 -0.0240391 2.86699e-21)
(0.99915 -0.00155593 9.05932e-22)
(1.00412 -0.00312645 -1.44217e-22)
(1.00504 -0.010563 -5.61046e-22)
(1.0022 0.00281543 2.37788e-22)
(0.998577 -0.00259804 -4.2259e-22)
(1.00013 0.00109526 6.86056e-22)
(0.996446 0.00106477 -2.68015e-22)
(0.996668 -0.00111162 -5.42433e-22)
(0.997103 -0.00785515 4.48269e-22)
(0.995624 -0.000564178 -8.05743e-22)
(0.993122 -0.0100443 3.76263e-22)
(0.992787 -0.00655478 -2.66306e-22)
(0.991182 -0.00695725 4.25417e-22)
(0.986433 -0.00465057 -2.54209e-22)
(0.983732 -0.0065485 2.25927e-21)
(0.979887 -0.00339737 -3.48168e-21)
(0.975657 -0.00455978 3.09858e-21)
(0.970809 -0.00228886 2.44287e-21)
(0.965515 -0.00443976 -3.08855e-21)
(0.960922 -0.00242081 3.13082e-21)
(0.954268 -0.00462958 -4.97503e-21)
(0.948259 -0.00307317 -1.70913e-21)
(0.940104 -0.00542711 -1.27745e-21)
(0.933162 -0.00403892 -2.14739e-21)
(0.923609 -0.00625239 5.77931e-21)
(0.914752 -0.00502295 1.12104e-21)
(0.903727 -0.00710895 -3.09385e-21)
(0.892873 -0.00581928 7.08786e-21)
(0.880019 -0.00770507 3.97025e-22)
(0.866621 -0.00616902 -8.2164e-21)
(0.998696 -0.00269308 -1.51238e-21)
(1.00353 -0.00180785 -2.76782e-22)
(1.0073 -0.012198 -1.87601e-22)
(1.00188 0.00533094 -1.12273e-21)
(0.997623 -0.00414576 1.90796e-22)
(0.9998 0.00335923 -1.57328e-21)
(0.994997 -0.000148182 1.32605e-21)
(0.995743 -9.86622e-05 1.56061e-21)
(0.997603 -0.00838894 -1.14919e-21)
(0.995812 0.000696516 -1.71088e-21)
(0.993344 -0.0109737 1.53846e-21)
(0.993526 -0.00402013 -1.83559e-21)
(0.99231 -0.00729126 3.32943e-21)
(0.985982 -0.00211173 -5.87494e-22)
(0.983883 -0.00538328 -1.16174e-21)
(0.97934 -0.000547161 2.11127e-21)
(0.974981 -0.00312862 -7.34674e-21)
(0.969592 0.000807175 1.02039e-20)
(0.9643 -0.00229676 -1.5338e-21)
(0.959761 0.00127125 -4.11316e-23)
(0.95277 -0.00156444 -2.93608e-21)
(0.947216 0.00177453 1.68689e-22)
(0.938656 -0.00103107 -6.34177e-21)
(0.932332 0.00236739 1.27238e-20)
(0.922363 -5.3154e-06 1.54669e-21)
(0.913822 0.00367161 -9.4466e-21)
(0.902373 0.00206491 3.69081e-21)
(0.891914 0.00635912 1.43649e-23)
(0.878931 0.00531707 -7.65661e-21)
(0.866083 0.0105759 1.6072e-20)
(0.998298 -0.00362308 1.00324e-21)
(1.00296 -0.000936378 6.90246e-22)
(1.00971 -0.0135626 3.26036e-22)
(1.00109 0.00786739 2.85235e-21)
(0.99667 -0.00544106 3.82203e-22)
(0.999283 0.00557842 -8.60518e-22)
(0.993526 -0.00136085 2.5754e-23)
(0.99502 0.000536414 -8.21099e-22)
(0.998353 -0.00885705 1.59546e-21)
(0.995859 0.00157312 -9.08241e-22)
(0.993951 -0.0118807 -1.83908e-21)
(0.994201 -0.00160711 1.20503e-21)
(0.993187 -0.00732541 1.44245e-21)
(0.985529 0.000482915 -3.31264e-21)
(0.983831 -0.0040418 7.08954e-21)
(0.978274 0.00238451 -9.58054e-21)
(0.974087 -0.00127007 4.81534e-21)
(0.968078 0.00448517 -7.06766e-21)
(0.962926 0.000504658 3.68182e-21)
(0.958561 0.005978 7.86097e-21)
(0.951435 0.00236238 -1.10496e-20)
(0.946202 0.00777255 1.41741e-20)
(0.937519 0.00477657 -1.56878e-20)
(0.931457 0.010513 6.38522e-21)
(0.921679 0.00840956 8.15141e-21)
(0.914066 0.0149062 1.05236e-20)
(0.902724 0.0139802 -3.56763e-20)
(0.893111 0.0216168 7.17616e-21)
(0.880513 0.021829 -1.77404e-21)
(0.868628 0.0307484 -5.46727e-21)
(0.997959 -0.00451843 4.32333e-22)
(1.00248 -0.000350857 -4.19888e-22)
(1.01215 -0.0148186 6.28746e-22)
(0.999793 0.0108684 -1.06114e-21)
(0.995746 -0.00697631 9.64438e-22)
(0.998518 0.0081191 -6.4249e-22)
(0.992141 -0.00284045 9.5216e-23)
(0.994635 0.000965353 -2.95172e-21)
(0.999317 -0.00917068 2.35691e-21)
(0.995785 0.00209483 1.8661e-21)
(0.994744 -0.012766 -3.2238e-21)
(0.994958 0.00136838 -7.82618e-22)
(0.993899 -0.00803539 3.86296e-21)
(0.984652 0.00372766 -2.52356e-21)
(0.983593 -0.00296375 9.41963e-22)
(0.97692 0.00539214 -1.12991e-21)
(0.973334 1.47304e-05 9.6881e-22)
(0.966682 0.00762999 -3.65427e-22)
(0.962158 0.00242002 -9.11587e-22)
(0.957561 0.00985403 1.41303e-20)
(0.950634 0.00501321 -1.2324e-20)
(0.945764 0.0124698 -1.25097e-20)
(0.937327 0.0090083 -2.57979e-21)
(0.932195 0.0170022 3.47617e-20)
(0.922215 0.014865 1.98758e-20)
(0.915378 0.0239093 -1.96057e-20)
(0.904297 0.0232077 1.34426e-20)
(0.895209 0.0337658 -2.62321e-20)
(0.88328 0.0349001 1.46738e-20)
(0.872478 0.0475811 -1.01706e-19)
(0.99774 -0.00511084 -2.2606e-21)
(1.00205 -0.000397793 8.90413e-22)
(1.01462 -0.015468 -1.52071e-21)
(0.99796 0.0135773 1.41513e-21)
(0.994774 -0.0079945 -1.85735e-21)
(0.997733 0.0101617 8.72922e-22)
(0.990814 -0.0041777 5.55952e-22)
(0.994701 0.000830625 1.06628e-21)
(1.00065 -0.00927794 6.3143e-23)
(0.995344 0.00216833 -3.76174e-21)
(0.996086 -0.0131828 1.01757e-21)
(0.995387 0.00364645 1.23662e-21)
(0.994138 -0.00766074 6.92994e-21)
(0.983742 0.00732548 -6.86805e-21)
(0.982837 -0.00116637 3.1729e-21)
(0.975087 0.00866818 4.58083e-21)
(0.972022 0.00274708 -4.56115e-21)
(0.964858 0.0111998 -1.05073e-20)
(0.961285 0.00533962 -4.8507e-21)
(0.956749 0.0146261 1.83075e-20)
(0.949742 0.00913398 7.45224e-21)
(0.945793 0.019029 -4.14322e-21)
(0.937235 0.0150333 6.45826e-21)
(0.932329 0.0256222 5.63747e-21)
(0.923581 0.0235871 -2.37874e-20)
(0.916767 0.0352547 -3.04014e-20)
(0.906909 0.0353813 1.46809e-20)
(0.898988 0.0492842 7.21405e-20)
(0.888042 0.051236 -1.03314e-19)
(0.879507 0.0676816 1.16101e-19)
(0.997684 -0.0057762 1.13492e-21)
(1.00184 -0.00057352 -1.17835e-21)
(1.01683 -0.0160368 -1.83709e-21)
(0.99557 0.0168713 1.17251e-21)
(0.993903 -0.00951449 7.77444e-22)
(0.996821 0.0127206 -1.78754e-21)
(0.989908 -0.0062228 1.64076e-21)
(0.995173 0.000984261 1.49949e-21)
(1.00238 -0.00950367 -2.25621e-22)
(0.995033 0.00217304 -1.22201e-21)
(0.997254 -0.0137077 4.7836e-21)
(0.995692 0.00678145 -3.41784e-21)
(0.994701 -0.00869571 6.43869e-21)
(0.982262 0.0125099 -1.06766e-20)
(0.981474 -0.00144145 1.27797e-20)
(0.973672 0.0126327 -5.41617e-21)
(0.97111 0.00272778 -1.05297e-20)
(0.963484 0.0140126 -6.328e-21)
(0.960892 0.00589523 -4.21946e-21)
(0.956463 0.0178892 -2.09075e-21)
(0.950541 0.0104582 3.20401e-20)
(0.946357 0.0222003 -3.45847e-20)
(0.939238 0.0177714 4.49662e-22)
(0.934192 0.0294447 2.269e-20)
(0.925956 0.0273436 -2.00624e-20)
(0.92093 0.0418765 1.24373e-20)
(0.911014 0.0412648 4.81664e-20)
(0.904762 0.0592523 -8.35726e-20)
(0.895055 0.0612718 6.25621e-20)
(0.887624 0.0821687 2.00518e-20)
(0.997853 -0.00606765 3.41623e-23)
(1.00192 -0.00151945 9.44909e-22)
(1.01889 -0.0155685 1.80205e-21)
(0.992117 0.0194054 1.22614e-21)
(0.993558 -0.0102471 -5.45483e-23)
(0.995507 0.0140663 -2.57081e-21)
(0.989762 -0.00767591 -1.51418e-21)
(0.996071 0.000124206 4.14554e-21)
(1.00416 -0.00907069 -5.19484e-21)
(0.9946 0.00180034 2.30381e-21)
(0.999371 -0.0123449 -6.93471e-22)
(0.99478 0.00845702 1.02013e-20)
(0.994661 -0.00635861 -1.96418e-21)
(0.980624 0.0173479 -2.19202e-21)
(0.979399 0.000419382 -7.90973e-21)
(0.971903 0.0159589 -6.66966e-21)
(0.969175 0.0062731 2.40401e-20)
(0.963075 0.0162004 -8.75145e-21)
(0.960546 0.0112453 -8.16878e-21)
(0.955193 0.0216889 -2.4481e-21)
(0.951276 0.0160821 2.07084e-20)
(0.946384 0.0293157 -8.20121e-21)
(0.940755 0.0246164 1.21924e-20)
(0.936265 0.0402551 8.17533e-21)
(0.92862 0.0364657 -6.46304e-20)
(0.924191 0.055444 1.11557e-20)
(0.916643 0.0545988 -9.66157e-21)
(0.911157 0.0758949 3.54299e-22)
(0.904964 0.0790468 5.38744e-20)
(0.997839 -0.00660499 9.7818e-22)
(1.0026 -0.00236723 -4.74789e-22)
(1.02084 -0.0149912 -9.86892e-22)
(0.987267 0.02255 1.41255e-21)
(0.993991 -0.0116084 1.47408e-21)
(0.993279 0.0160222 -2.8218e-22)
(0.990315 -0.0102652 -1.71139e-21)
(0.997088 6.95127e-05 2.34494e-21)
(1.0055 -0.00950301 -1.11547e-21)
(0.993661 0.00146166 2.89288e-22)
(1.002 -0.0123447 9.95438e-22)
(0.993486 0.0108876 -5.64712e-21)
(0.993806 -0.00746905 3.58622e-21)
(0.977129 0.0232116 1.67618e-21)
(0.979072 -0.00272459 -9.81814e-21)
(0.967769 0.0215115 1.25659e-20)
(0.97163 0.00250554 -1.17203e-20)
(0.9587 0.0193542 2.44407e-20)
(0.9655 0.00955419 -1.67291e-20)
(0.95225 0.0235182 1.20983e-20)
(0.953862 0.0138102 1.05301e-21)
(0.947464 0.030937 -4.04802e-20)
(0.943562 0.0235544 1.16604e-20)
(0.938712 0.0409024 5.47176e-21)
(0.935177 0.037945 2.20401e-20)
(0.928389 0.0571529 -2.42836e-20)
(0.925243 0.0572769 -2.58759e-21)
(0.919289 0.0818038 3.27725e-20)
(0.915609 0.0843672 2.28198e-20)
(0.997555 -0.00668743 -1.02851e-21)
(1.00387 -0.00414379 3.0373e-22)
(1.02261 -0.0125983 -1.47109e-21)
(0.983351 0.0242179 2.54392e-22)
(0.993229 -0.0121019 1.01866e-22)
(0.995584 0.016486 1.79707e-22)
(0.987144 -0.0117468 -5.70974e-22)
(1.00241 -0.00072297 7.79211e-22)
(1.00434 -0.00793492 -4.96788e-21)
(0.993987 0.000824985 6.82997e-21)
(1.00222 -0.00874617 5.55658e-21)
(0.994335 0.0123839 -5.9142e-21)
(0.993953 -0.0016279 -1.05057e-20)
(0.973046 0.0276163 1.96248e-20)
(0.975879 -0.000231375 -2.38868e-20)
(0.972118 0.0259955 1.73412e-20)
(0.964104 0.00573266 -2.3025e-21)
(0.968564 0.0224722 -1.83727e-20)
(0.957064 0.0175623 1.24274e-20)
(0.959301 0.027076 1.31282e-20)
(0.951197 0.0235361 1.27796e-20)
(0.950679 0.0380116 -3.26087e-20)
(0.943357 0.0344941 -2.48871e-20)
(0.943662 0.0524313 7.06823e-20)
(0.934818 0.0495449 -4.76385e-20)
(0.939044 0.074087 -1.12335e-21)
(0.928256 0.0700958 -2.07246e-20)
(0.935474 0.101358 8.1832e-20)
(1.00206 -0.00722575 0)
(0.99994 -0.00596048 0)
(1.02592 -0.0104228 0)
(0.976686 0.0266042 0)
(0.999301 -0.0143025 0)
(0.991623 0.0175086 0)
(0.991684 -0.0151863 0)
(1.00039 -0.00167871 0)
(1.00622 -0.00788444 0)
(0.989091 -0.000473955 0)
(1.00839 -0.00885799 0)
(0.989991 0.0125148 0)
(0.997378 -0.000505331 0)
(0.96593 0.0307248 0)
(0.98393 -0.0075699 0)
(0.966712 0.031428 0)
(0.973956 -0.00472341 0)
(0.966198 0.0262512 0)
(0.965302 0.0115521 0)
(0.956465 0.024189 0)
(0.960353 0.0178547 0)
(0.950687 0.0364568 0)
(0.952223 0.0260943 0)
(0.943965 0.0489972 0)
(0.951395 0.0432385 0)
(0.9363 0.0662705 0)
(0.952792 0.0655064 0)
(0.936764 0.0935184 0)
(1.00967 -0.00709118 0)
(0.992138 -0.00828186 0)
(1.02342 -0.00748222 0)
(0.974155 0.0276292 0)
(1.00697 -0.0144444 0)
(0.982613 0.0174468 0)
(1.0014 -0.0155373 0)
(0.989147 -0.00272172 0)
(1.00599 -0.00611533 0)
(0.98262 -0.00173178 0)
(1.01063 -0.00694469 0)
(0.982782 0.0130906 0)
(0.992001 0.0058852 0)
(0.965871 0.0303618 0)
(0.990374 -0.00441947 0)
(0.959479 0.03489 0)
(0.98625 -0.00493484 0)
(0.95386 0.0355772 0)
(0.976487 0.00990769 0)
(0.94986 0.0329596 0)
(0.964019 0.0207755 0)
(0.948338 0.0391103 0)
(0.957208 0.0352207 0)
(0.943764 0.0458311 0)
(0.9594 0.0543951 0)
(0.940391 0.0609784 0)
(0.963391 0.0745721 0)
(0.945154 0.0840245 0)
(1.01493 -0.00704886 0)
(0.985452 -0.00953648 0)
(1.01241 -0.0051504 0)
(0.982381 0.0273904 0)
(1.00878 -0.0136853 0)
(0.980766 0.0170632 0)
(1.00703 -0.0153727 0)
(0.97875 -0.00332239 0)
(1.00237 -0.00414922 0)
(0.979027 -0.00512168 0)
(1.00158 -0.00421239 0)
(0.980378 0.0145568 0)
(0.982945 0.0101812 0)
(0.97343 0.0269796 0)
(0.984628 -0.000355561 0)
(0.967345 0.0324415 0)
(0.9826 -0.00216853 0)
(0.954879 0.036058 0)
(0.977036 0.0111253 0)
(0.948906 0.0339581 0)
(0.964653 0.024142 0)
(0.947388 0.0354737 0)
(0.958346 0.0410122 0)
(0.945605 0.0398547 0)
(0.959686 0.0578565 0)
(0.949186 0.0572858 0)
(0.963073 0.0744156 0)
(0.956378 0.0780758 0)
(1.01563 -0.00655822 0)
(0.98273 -0.00961398 0)
(0.998411 -0.00442257 0)
(0.996243 0.0256513 0)
(1.00736 -0.0112315 0)
(0.986742 0.0152819 0)
(1.00871 -0.0129302 0)
(0.975436 -0.00380764 0)
(0.998724 -0.00229214 0)
(0.978077 -0.00727311 0)
(0.987729 -0.00115025 0)
(0.984378 0.0135976 0)
(0.980961 0.014039 0)
(0.981199 0.0236319 0)
(0.978658 0.00317259 0)
(0.979103 0.0310259 0)
(0.977918 0.00286773 0)
(0.965921 0.0350518 0)
(0.977276 0.0167426 0)
(0.954776 0.0317591 0)
(0.970774 0.0317954 0)
(0.951116 0.0318284 0)
(0.962017 0.0455103 0)
(0.951121 0.0381079 0)
(0.960465 0.056136 0)
(0.955959 0.056338 0)
(0.964772 0.0710568 0)
(0.962887 0.0740507 0)
(1.01469 -0.00587072 0)
(0.983305 -0.00861116 0)
(0.986992 -0.00513163 0)
(1.00552 0.0226461 0)
(1.00853 -0.00826862 0)
(0.992425 0.0133035 0)
(1.01097 -0.00920319 0)
(0.976787 -0.00394409 0)
(0.995634 -0.000296691 0)
(0.978706 -0.00750588 0)
(0.976879 0.000129841 0)
(0.988707 0.0102755 0)
(0.984871 0.0177234 0)
(0.986563 0.0221021 0)
(0.97882 0.00482216 0)
(0.984862 0.030544 0)
(0.980736 0.00631925 0)
(0.975039 0.0339662 0)
(0.984815 0.0228193 0)
(0.962326 0.0299754 0)
(0.978594 0.0374273 0)
(0.960325 0.0317333 0)
(0.968162 0.0478009 0)
(0.958338 0.0403251 0)
(0.963651 0.0530983 0)
(0.960529 0.0552844 0)
(0.967618 0.0671573 0)
(0.966945 0.0702122 0)
(1.01432 -0.0051215 0)
(0.985339 -0.00666537 0)
(0.980031 -0.00638557 0)
(1.00704 0.0178738 0)
(1.0118 -0.00477705 0)
(0.994517 0.0111323 0)
(1.01393 -0.00494887 0)
(0.979245 -0.00310566 0)
(0.99308 0.0016837 0)
(0.980482 -0.00585075 0)
(0.970989 2.17418e-05 0)
(0.988352 0.00586903 0)
(0.988747 0.0192231 0)
(0.98976 0.0232083 0)
(0.982782 0.00544302 0)
(0.986465 0.0299928 0)
(0.98582 0.00947954 0)
(0.979463 0.0307811 0)
(0.993768 0.0285663 0)
(0.970333 0.0298487 0)
(0.98508 0.041396 0)
(0.97033 0.0347476 0)
(0.97451 0.0484052 0)
(0.96613 0.0447589 0)
(0.969154 0.0512549 0)
(0.965557 0.0553899 0)
(0.9709 0.0626291 0)
(0.970455 0.0668105 0)
(1.01336 -0.00457844 0)
(0.987829 -0.00408461 0)
(0.979337 -0.00728676 0)
(1.0037 0.0119578 0)
(1.0128 -0.00176383 0)
(0.995516 0.00918579 0)
(1.01398 -0.00118351 0)
(0.982889 -0.000860607 0)
(0.991328 0.00294949 0)
(0.983028 -0.00262877 0)
(0.971738 -0.000624895 0)
(0.983629 0.00168016 0)
(0.990376 0.0174805 0)
(0.991337 0.0254811 0)
(0.987154 0.00643723 0)
(0.987433 0.0280869 0)
(0.989305 0.0129932 0)
(0.981993 0.0262501 0)
(0.99689 0.0323505 0)
(0.979469 0.0312766 0)
(0.987816 0.0437129 0)
(0.979469 0.0393411 0)
(0.979973 0.0479953 0)
(0.974969 0.049852 0)
(0.975471 0.0509253 0)
(0.972527 0.0564617 0)
(0.97588 0.0586697 0)
(0.974857 0.0643717 0)
(1.01066 -0.00411653 0)
(0.990116 -0.00173902 0)
(0.984849 -0.00760058 0)
(1.00027 0.00675929 0)
(1.00935 3.72501e-05 0)
(0.996535 0.00816849 0)
(1.01018 0.00161037 0)
(0.986899 0.00208399 0)
(0.991266 0.0037849 0)
(0.986629 0.000899299 0)
(0.978407 -0.00100379 0)
(0.97912 -0.000230425 0)
(0.990374 0.0129483 0)
(0.99259 0.0266604 0)
(0.990084 0.0085387 0)
(0.989403 0.0251454 0)
(0.990479 0.0170777 0)
(0.983788 0.0232959 0)
(0.994295 0.0332739 0)
(0.986196 0.0326022 0)
(0.988355 0.0445485 0)
(0.986856 0.043866 0)
(0.985117 0.0480281 0)
(0.983092 0.0533372 0)
(0.982541 0.0512314 0)
(0.980641 0.0575782 0)
(0.983694 0.0564404 0)
(0.981513 0.0622894 0)
(1.00673 -0.00354892 0)
(0.99148 -0.000432772 0)
(0.99446 -0.0079532 0)
(0.998991 0.00395376 0)
(1.00264 0.000754168 0)
(0.996879 0.00786042 0)
(1.0038 0.00355688 0)
(0.990161 0.00427661 0)
(0.992973 0.00417937 0)
(0.989999 0.00375369 0)
(0.988982 -0.000607327 0)
(0.97832 0.000243797 0)
(0.990717 0.00737449 0)
(0.993161 0.0260336 0)
(0.991307 0.0117966 0)
(0.991472 0.0226565 0)
(0.989572 0.0207637 0)
(0.985773 0.0221209 0)
(0.989199 0.0330474 0)
(0.989539 0.0334313 0)
(0.98723 0.0432516 0)
(0.991281 0.0468016 0)
(0.988853 0.0475839 0)
(0.989822 0.0546291 0)
(0.990175 0.0517244 0)
(0.988673 0.057818 0)
(0.993472 0.0554727 0)
(0.989647 0.06007 0)
(1.00267 -0.00263874 0)
(0.992846 -0.000740019 0)
(1.00362 -0.00884632 0)
(0.998922 0.0043816 0)
(0.996177 0.00106557 0)
(0.995786 0.0076681 0)
(0.99719 0.00527048 0)
(0.992854 0.00436529 0)
(0.994817 0.0044142 0)
(0.993364 0.00516346 0)
(0.999001 -0.000364336 0)
(0.981472 0.00352821 0)
(0.992056 0.00348079 0)
(0.992791 0.0235967 0)
(0.991567 0.0151599 0)
(0.991846 0.0219157 0)
(0.98815 0.0230464 0)
(0.987176 0.0233759 0)
(0.984642 0.0325065 0)
(0.990317 0.0336302 0)
(0.985585 0.0411034 0)
(0.992879 0.0460684 0)
(0.991426 0.0468676 0)
(0.994759 0.05297 0)
(0.996504 0.05138 0)
(0.996088 0.0558867 0)
(1.00191 0.054132 0)
(0.998855 0.0571614 0)
(0.999245 -0.00153912 0)
(0.995099 -0.00237265 0)
(1.00944 -0.00967832 0)
(0.998166 0.00696567 0)
(0.992175 0.00164562 0)
(0.994467 0.00752601 0)
(0.991902 0.00642571 0)
(0.995812 0.00280498 0)
(0.995721 0.0040199 0)
(0.996244 0.00561352 0)
(1.00583 5.53938e-06 0)
(0.985707 0.00728542 0)
(0.994295 0.00237671 0)
(0.991996 0.0214978 0)
(0.991342 0.0177348 0)
(0.990839 0.0229951 0)
(0.987035 0.0247862 0)
(0.988291 0.0249113 0)
(0.98233 0.0318014 0)
(0.990478 0.0333481 0)
(0.984731 0.0383074 0)
(0.99387 0.0432405 0)
(0.992681 0.0444545 0)
(0.998289 0.0491208 0)
(1.00056 0.0490551 0)
(1.00222 0.0520549 0)
(1.00791 0.0515843 0)
(1.00711 0.0531607 0)
(0.997504 -0.000426349 0)
(0.998164 -0.00494064 0)
(1.00956 -0.0099324 0)
(0.996564 0.0107365 0)
(0.992222 0.00221277 0)
(0.993323 0.00749736 0)
(0.990449 0.00700141 0)
(0.998739 0.000169079 0)
(0.995223 0.00343243 0)
(0.998278 0.00491851 0)
(1.00765 0.000289476 0)
(0.990008 0.0109464 0)
(0.995249 0.00421889 0)
(0.991201 0.020349 0)
(0.99228 0.0189603 0)
(0.989456 0.0254076 0)
(0.987934 0.0256191 0)
(0.989662 0.0268248 0)
(0.98402 0.0308131 0)
(0.99132 0.032465 0)
(0.986525 0.0359026 0)
(0.994865 0.03867 0)
(0.994492 0.0409705 0)
(1.00086 0.0432566 0)
(1.0032 0.0450494 0)
(1.00667 0.046345 0)
(1.01113 0.047369 0)
(1.01306 0.0478442 0)
(0.997056 0.000238636 0)
(1.00099 -0.0070431 0)
(1.00688 -0.00912981 0)
(0.994253 0.0134511 0)
(0.994467 0.00278017 0)
(0.993397 0.00753207 0)
(0.991222 0.00680708 0)
(1.00152 -0.00173596 0)
(0.994444 0.00258644 0)
(0.999 0.00426377 0)
(1.00631 0.00107683 0)
(0.992393 0.0128482 0)
(0.996039 0.00756825 0)
(0.990822 0.0203977 0)
(0.994021 0.019306 0)
(0.989345 0.0270694 0)
(0.989779 0.0261525 0)
(0.99193 0.0281136 0)
(0.98842 0.0295851 0)
(0.994073 0.0312907 0)
(0.990358 0.0333679 0)
(0.997362 0.0346262 0)
(0.997119 0.0367887 0)
(1.00371 0.0375186 0)
(1.00511 0.0399017 0)
(1.00984 0.0402224 0)
(1.01239 0.0420373 0)
(1.01633 0.0419477 0)
(0.997727 0.000655235 0)
(1.00249 -0.00910515 0)
(1.00249 -0.00722399 0)
(0.993286 0.0155494 0)
(0.997295 0.00270284 0)
(0.994317 0.00774666 0)
(0.993677 0.00609468 0)
(1.00299 -0.00328268 0)
(0.993925 0.00241054 0)
(0.998687 0.00327503 0)
(1.003 0.00254253 0)
(0.993914 0.0134463 0)
(0.995769 0.0108734 0)
(0.991472 0.021512 0)
(0.996091 0.0188823 0)
(0.991204 0.0279757 0)
(0.992677 0.0256419 0)
(0.994529 0.0289164 0)
(0.994017 0.0280636 0)
(0.997945 0.0296985 0)
(0.995791 0.0309314 0)
(1.0006 0.031067 0)
(1.00066 0.0330113 0)
(1.00652 0.0322164 0)
(1.00729 0.0349103 0)
(1.01203 0.0341161 0)
(1.01302 0.0366837 0)
(1.01746 0.0358004 0)
(0.999025 0.00060327 0)
(1.00285 -0.00960368 0)
(0.997272 -0.00517781 0)
(0.994121 0.0154738 0)
(0.999933 0.0026462 0)
(0.995599 0.00781256 0)
(0.997078 0.00534615 0)
(1.00314 -0.00315904 0)
(0.993856 0.00245814 0)
(0.998199 0.00311104 0)
(0.999029 0.00425151 0)
(0.995181 0.0129245 0)
(0.994853 0.0127743 0)
(0.993094 0.0222456 0)
(0.998017 0.0185752 0)
(0.994476 0.0272669 0)
(0.996291 0.0246142 0)
(0.997256 0.0284696 0)
(0.999445 0.0265855 0)
(1.00187 0.0279527 0)
(1.00163 0.0284791 0)
(1.00405 0.0283849 0)
(1.00451 0.0298383 0)
(1.00906 0.0285477 0)
(1.00974 0.0306968 0)
(1.01382 0.0295317 0)
(1.01376 0.03192 0)
(1.01779 0.0308699 0)
(0.999998 0.000397257 0)
(1.00254 -0.00917715 0)
(0.993667 -0.00334127 0)
(0.995807 0.0142027 0)
(1.00127 0.00246057 0)
(0.99707 0.00772653 0)
(0.999649 0.00475297 0)
(1.00268 -0.00222245 0)
(0.994401 0.00290465 0)
(0.997963 0.00320195 0)
(0.996438 0.00597633 0)
(0.99652 0.0122008 0)
(0.994549 0.0132578 0)
(0.994975 0.0221109 0)
(0.999381 0.0181622 0)
(0.998022 0.0257466 0)
(0.999712 0.0229841 0)
(1.00004 0.0271984 0)
(1.00321 0.0249147 0)
(1.00513 0.0261416 0)
(1.00607 0.0260249 0)
(1.00721 0.0259313 0)
(1.00766 0.0271426 0)
(1.01101 0.0257503 0)
(1.01187 0.0274887 0)
(1.0152 0.0259957 0)
(1.01488 0.0281568 0)
(1.01798 0.0269083 0)
(1.00052 3.51955e-05 0)
(1.00199 -0.00762509 0)
(0.991924 -0.0020933 0)
(0.997609 0.0117097 0)
(1.00164 0.0024428 0)
(0.998325 0.00732519 0)
(1.00121 0.00452573 0)
(1.00198 -0.000401167 0)
(0.995302 0.00346398 0)
(0.998167 0.00389337 0)
(0.995284 0.00711115 0)
(0.9979 0.0115554 0)
(0.995188 0.0127865 0)
(0.99701 0.0205613 0)
(1.00029 0.0176372 0)
(1.00103 0.0235191 0)
(1.00252 0.0212186 0)
(1.00262 0.0250768 0)
(1.00568 0.0232515 0)
(1.00732 0.0243185 0)
(1.009 0.0238255 0)
(1.00957 0.0238735 0)
(1.01002 0.0246724 0)
(1.01223 0.0237847 0)
(1.01319 0.0248607 0)
(1.01593 0.0236538 0)
(1.01575 0.0250823 0)
(1.01813 0.0241118 0)
(1.00051 -0.000252876 0)
(1.00141 -0.00588274 0)
(0.99228 -0.00133779 0)
(0.998977 0.00921009 0)
(1.00121 0.00242882 0)
(0.999172 0.00683058 0)
(1.00152 0.00458481 0)
(1.00148 0.00132869 0)
(0.996486 0.00414404 0)
(0.998819 0.00463973 0)
(0.995766 0.00758587 0)
(0.999186 0.0111284 0)
(0.996671 0.012019 0)
(0.999013 0.0184259 0)
(1.00106 0.0167108 0)
(1.00298 0.0212061 0)
(1.00432 0.0194166 0)
(1.00475 0.0226778 0)
(1.00698 0.0214356 0)
(1.00859 0.0224406 0)
(1.01041 0.0218417 0)
(1.01106 0.0219185 0)
(1.01149 0.022388 0)
(1.01301 0.0218932 0)
(1.01387 0.0225675 0)
(1.01616 0.0216778 0)
(1.01628 0.0225083 0)
(1.01821 0.021788 0)
(1.00028 -0.000463137 0)
(1.00104 -0.00412534 0)
(0.993521 -0.000941895 0)
(0.999738 0.00684295 0)
(1.00069 0.00258558 0)
(0.999659 0.00629356 0)
(1.00133 0.00472839 0)
(1.00132 0.00290442 0)
(0.99765 0.004664 0)
(0.999678 0.00539704 0)
(0.996991 0.00764359 0)
(1.00032 0.01059 0)
(0.998387 0.0113071 0)
(1.0008 0.0161301 0)
(1.00192 0.0154718 0)
(1.00421 0.0188648 0)
(1.00545 0.0177254 0)
(1.00622 0.0202129 0)
(1.00778 0.0194877 0)
(1.00926 0.0204939 0)
(1.01093 0.0199337 0)
(1.01184 0.0201034 0)
(1.01231 0.0202394 0)
(1.01351 0.0200782 0)
(1.01415 0.0204069 0)
(1.01609 0.0198837 0)
(1.01637 0.0202374 0)
(1.0181 0.0197546 0)
(0.999964 -0.000553399 0)
(1.00086 -0.00277809 0)
(0.995172 -0.000693643 0)
(0.99997 0.00512799 0)
(1.00009 0.0027335 0)
(1.00002 0.00576689 0)
(1.00105 0.0048123 0)
(1.00142 0.00395547 0)
(0.998785 0.00498941 0)
(1.00054 0.00588458 0)
(0.998477 0.00748368 0)
(1.00128 0.00991713 0)
(0.999955 0.0105839 0)
(1.00223 0.0141308 0)
(1.00287 0.0140668 0)
(1.00505 0.0167355 0)
(1.00609 0.0160509 0)
(1.0072 0.017949 0)
(1.00831 0.01752 0)
(1.00965 0.0184576 0)
(1.01099 0.01803 0)
(1.01213 0.0182306 0)
(1.01262 0.018171 0)
(1.01375 0.0181394 0)
(1.01421 0.0182539 0)
(1.01587 0.0179633 0)
(1.0162 0.0180528 0)
(1.01779 0.0177155 0)
(0.999717 -0.000614811 0)
(1.00079 -0.00175319 0)
(0.996588 -0.00039279 0)
(1.00002 0.00391643 0)
(0.99975 0.00273587 0)
(1.0003 0.00520076 0)
(1.00092 0.00475267 0)
(1.00158 0.00459058 0)
(0.999728 0.00519795 0)
(1.00136 0.00618835 0)
(0.999771 0.00718373 0)
(1.00211 0.00917541 0)
(1.00126 0.00972641 0)
(1.00331 0.012359 0)
(1.00379 0.012586 0)
(1.00565 0.0146549 0)
(1.0066 0.0144113 0)
(1.00781 0.0158258 0)
(1.00871 0.0156284 0)
(1.00993 0.0164199 0)
(1.01096 0.0161489 0)
(1.01217 0.016369 0)
(1.01266 0.0161969 0)
(1.01381 0.0162334 0)
(1.01412 0.0161635 0)
(1.01557 0.01604 0)
(1.01583 0.0159307 0)
(1.01729 0.0157321 0)
(0.999589 -0.000598878 0)
(1.00059 -0.00110445 0)
(0.997666 -0.000137641 0)
(1.00022 0.00319558 0)
(0.999733 0.00270874 0)
(1.00048 0.00467041 0)
(1.0008 0.00456428 0)
(1.00165 0.00477724 0)
(1.0004 0.00519382 0)
(1.00207 0.00617536 0)
(1.00094 0.006735 0)
(1.0029 0.0084431 0)
(1.00244 0.00881598 0)
(1.00415 0.0108339 0)
(1.00459 0.0111602 0)
(1.0061 0.0127425 0)
(1.00691 0.0128093 0)
(1.00812 0.0138312 0)
(1.00889 0.0138208 0)
(1.01007 0.0144199 0)
(1.01083 0.014271 0)
(1.01205 0.014471 0)
(1.01248 0.0142595 0)
(1.01366 0.0143134 0)
(1.01391 0.0141195 0)
(1.0152 0.0140817 0)
(1.01539 0.0138466 0)
(1.01668 0.0137443 0)
(0.999563 -0.00052602 0)
(1.00042 -0.00064626 0)
(0.998341 1.6095e-05 0)
(1.00037 0.00262506 0)
(0.999951 0.00270028 0)
(1.0007 0.00427422 0)
(1.0008 0.00432678 0)
(1.00181 0.00472647 0)
(1.00083 0.00492498 0)
(1.00257 0.00585127 0)
(1.00187 0.00614909 0)
(1.00345 0.00759889 0)
(1.00338 0.00792255 0)
(1.00475 0.00943565 0)
(1.00525 0.0098567 0)
(1.00648 0.011016 0)
(1.00714 0.0112616 0)
(1.00834 0.0120006 0)
(1.00894 0.0120647 0)
(1.01014 0.0125146 0)
(1.01065 0.012389 0)
(1.01187 0.0125884 0)
(1.0122 0.0123318 0)
(1.01338 0.0124158 0)
(1.01357 0.0121253 0)
(1.01473 0.0121467 0)
(1.01486 0.0118286 0)
(1.01596 0.0117972 0)
(0.999581 -0.000411415 0)
(1.00032 -0.000347562 0)
(0.998832 8.88822e-05 0)
(1.00042 0.00217849 0)
(1.00007 0.00261973 0)
(1.00092 0.00395528 0)
(1.00092 0.00406879 0)
(1.00202 0.00445594 0)
(1.00128 0.00450977 0)
(1.0029 0.0053092 0)
(1.00258 0.00544887 0)
(1.00381 0.00666567 0)
(1.00398 0.00699075 0)
(1.00515 0.00815217 0)
(1.00566 0.00859636 0)
(1.00676 0.00946049 0)
(1.00727 0.00975882 0)
(1.00846 0.0102939 0)
(1.00893 0.0103677 0)
(1.01012 0.0106897 0)
(1.01048 0.0105689 0)
(1.01163 0.0107274 0)
(1.01189 0.0104671 0)
(1.01299 0.0105368 0)
(1.01317 0.0102247 0)
(1.01417 0.0102509 0)
(1.0143 0.00992124 0)
(1.01519 0.00991129 0)
(0.999605 -0.000302951 0)
(1.00029 -0.000160121 0)
(0.999189 0.000163185 0)
(1.00039 0.00182281 0)
(1.00012 0.00241906 0)
(1.00111 0.00358713 0)
(1.00109 0.00369803 0)
(1.00225 0.00404439 0)
(1.00174 0.00405126 0)
(1.00311 0.00466247 0)
(1.00305 0.00474462 0)
(1.00405 0.0056939 0)
(1.00431 0.00601598 0)
(1.00539 0.00691699 0)
(1.00586 0.00729688 0)
(1.00692 0.0079748 0)
(1.00733 0.008228 0)
(1.00848 0.00864916 0)
(1.00888 0.00869659 0)
(1.01001 0.00893295 0)
(1.01031 0.00881631 0)
(1.01134 0.00892489 0)
(1.01157 0.00869796 0)
(1.01253 0.00873041 0)
(1.01272 0.00845559 0)
(1.01356 0.00845069 0)
(1.01369 0.00816445 0)
(1.01439 0.00813611 0)
(0.999644 -0.000202641 0)
(1.00028 -4.58663e-05 0)
(0.999419 0.000226078 0)
(1.00041 0.00156098 0)
(1.00019 0.00214656 0)
(1.00119 0.00309966 0)
(1.00124 0.00324088 0)
(1.0024 0.00352519 0)
(1.0021 0.00350911 0)
(1.00326 0.00397319 0)
(1.00335 0.00403308 0)
(1.00426 0.00473754 0)
(1.00451 0.00502456 0)
(1.00551 0.00570865 0)
(1.00594 0.00600785 0)
(1.00696 0.00652392 0)
(1.00732 0.0067184 0)
(1.00838 0.00703904 0)
(1.00875 0.00706228 0)
(1.00978 0.00722392 0)
(1.01007 0.00711856 0)
(1.01098 0.00718238 0)
(1.01121 0.00699811 0)
(1.01203 0.00700256 0)
(1.01222 0.00677954 0)
(1.01293 0.0067554 0)
(1.01305 0.00652454 0)
(1.01362 0.00648766 0)
(0.999681 -0.000134635 0)
(1.00027 5.28481e-05 0)
(0.999562 0.000275345 0)
(1.00041 0.00134931 0)
(1.00025 0.00180257 0)
(1.00125 0.00257196 0)
(1.00136 0.00268504 0)
(1.00244 0.00290857 0)
(1.00234 0.00287109 0)
(1.00335 0.00322959 0)
(1.0035 0.00325287 0)
(1.00438 0.00377287 0)
(1.00461 0.00397163 0)
(1.00554 0.00450021 0)
(1.00594 0.0046947 0)
(1.00689 0.00508582 0)
(1.00724 0.00519686 0)
(1.00818 0.00543347 0)
(1.00855 0.00541619 0)
(1.00947 0.00551749 0)
(1.00978 0.0054041 0)
(1.01058 0.00543007 0)
(1.01082 0.00526839 0)
(1.01153 0.00525807 0)
(1.01173 0.00507654 0)
(1.01234 0.00505472 0)
(1.01246 0.00487625 0)
(1.01293 0.00485778 0)
(0.999714 -6.25579e-05 0)
(1.00024 0.000142596 0)
(0.999631 0.000343718 0)
(1.00039 0.00114847 0)
(1.00029 0.00150346 0)
(1.00123 0.0020608 0)
(1.00137 0.00213742 0)
(1.0024 0.00230111 0)
(1.00244 0.00226293 0)
(1.00335 0.00250675 0)
(1.00354 0.00252309 0)
(1.0044 0.00287261 0)
(1.00462 0.00300937 0)
(1.00549 0.00338123 0)
(1.00584 0.00350582 0)
(1.00672 0.00377542 0)
(1.00705 0.00383084 0)
(1.00789 0.00398465 0)
(1.00823 0.00394092 0)
(1.00905 0.00397763 0)
(1.00936 0.00384571 0)
(1.0101 0.00380363 0)
(1.01036 0.00361968 0)
(1.01102 0.00353297 0)
(1.01125 0.00332217 0)
(1.01182 0.00321856 0)
(1.01197 0.00301071 0)
(1.01242 0.0029214 0)
(0.999743 -2.72645e-06 0)
(1.00023 0.000119926 0)
(0.999681 0.000308846 0)
(1.00036 0.000777428 0)
(1.00028 0.0010296 0)
(1.00118 0.0013266 0)
(1.00134 0.00140153 0)
(1.0023 0.00146657 0)
(1.00243 0.0014587 0)
(1.00329 0.00157373 0)
(1.0035 0.00160867 0)
(1.00434 0.0017895 0)
(1.00457 0.00189124 0)
(1.00538 0.00209112 0)
(1.00569 0.00218216 0)
(1.00651 0.00231946 0)
(1.00682 0.00236079 0)
(1.00756 0.00242588 0)
(1.00783 0.00240219 0)
(1.00851 0.00239155 0)
(1.00874 0.00230628 0)
(1.00932 0.00224157 0)