/*--------------------------------*- C++ -*----------------------------------*\
| =========                 |                                                 |
| \\      /  F ield         | OpenFOAM: The Open Source CFD Toolbox           |
|  \\    /   O peration     | Version:                                        |
|   \\  /    A nd           | Website:  www.openfoam.com                      |
|    \\/     M anipulation  |                                                 |
\*---------------------------------------------------------------------------*/
FoamFile
{
    version     2.0;
    format      ascii;
    class       volScalarField;
    location    "22.7";
    object      p;
}
// * * * * * * * * * * * * * * * * * * * * * * * * * * * * * * * * * * * * * //

dimensions      [0 2 -2 0 0 0 0];


internalField   nonuniform List<scalar> 
400
(
0.131056
0.124079
0.117138
0.110231
0.103355
0.0965115
0.0896976
0.0829131
0.0761556
0.0694259
0.0627201
0.0560418
0.0493818
0.0427521
0.0361291
0.0295497
0.0229475
0.0164318
0.00981145
0.00340983
0.131044
0.124069
0.117128
0.110221
0.103346
0.0965026
0.0896891
0.0829049
0.0761479
0.0694185
0.0627131
0.0560351
0.0493755
0.0427461
0.0361238
0.0295442
0.0229434
0.0164264
0.00980976
0.00340297
0.131023
0.124048
0.117108
0.110202
0.103328
0.0964853
0.0896726
0.0828891
0.0761328
0.0694041
0.0626995
0.056022
0.0493634
0.0427344
0.0361134
0.0295335
0.0229356
0.0164157
0.00980639
0.00338964
0.130992
0.124019
0.11708
0.110175
0.103302
0.0964606
0.0896489
0.0828665
0.0761112
0.0693835
0.06268
0.0560034
0.049346
0.0427176
0.0360986
0.0295182
0.0229244
0.0164006
0.0098016
0.00337059
0.130953
0.123982
0.117045
0.110141
0.10327
0.0964296
0.0896193
0.0828382
0.0760843
0.0693578
0.0626556
0.0559801
0.0493243
0.0426966
0.0360802
0.0294993
0.0229104
0.016382
0.00979565
0.00334691
0.130909
0.123939
0.117004
0.110102
0.103232
0.0963939
0.0895852
0.0828056
0.0760532
0.0693282
0.0626275
0.0559533
0.0492994
0.0426726
0.036059
0.0294777
0.0228945
0.0163609
0.00978888
0.0033199
0.13086
0.123892
0.116959
0.11006
0.103192
0.0963552
0.0895482
0.0827702
0.0760195
0.069296
0.0625971
0.0559243
0.0492724
0.0426467
0.0360361
0.0294546
0.0228773
0.0163385
0.00978161
0.00329102
0.13081
0.123844
0.116913
0.110016
0.10315
0.096315
0.0895098
0.0827335
0.0759845
0.0692627
0.0625656
0.0558942
0.0492445
0.04262
0.0360125
0.0294309
0.0228596
0.0163161
0.00977417
0.00326176
0.130759
0.123796
0.116867
0.109971
0.103108
0.0962747
0.0894714
0.0826968
0.0759496
0.0692293
0.0625341
0.0558643
0.0492167
0.0425934
0.035989
0.0294077
0.0228421
0.0162945
0.00976679
0.00323355
0.13071
0.123749
0.116822
0.109929
0.103067
0.0962356
0.089434
0.0826611
0.0759156
0.069197
0.0625035
0.0558352
0.0491896
0.0425678
0.0359662
0.0293856
0.0228252
0.0162747
0.00975966
0.00320769
0.130663
0.123704
0.11678
0.109888
0.103028
0.0961984
0.0893985
0.0826272
0.0758833
0.0691662
0.0624744
0.0558076
0.0491639
0.0425435
0.0359446
0.029365
0.0228091
0.0162571
0.00975281
0.00318523
0.130619
0.123662
0.11674
0.10985
0.102991
0.0961634
0.0893651
0.0825953
0.0758529
0.0691372
0.0624469
0.0557816
0.0491397
0.0425207
0.0359242
0.029346
0.022794
0.0162417
0.00974616
0.00316694
0.130578
0.123623
0.116702
0.109813
0.102957
0.0961304
0.0893336
0.0825652
0.0758243
0.0691099
0.062421
0.055757
0.0491167
0.0424992
0.0359047
0.0293281
0.0227794
0.0162284
0.00973943
0.00315322
0.130539
0.123585
0.116666
0.109779
0.102924
0.0960989
0.0893035
0.0825364
0.0757968
0.0690837
0.0623961
0.0557333
0.0490945
0.0424783
0.0358856
0.0293109
0.0227647
0.0162165
0.00973211
0.00314405
0.1305
0.123548
0.11663
0.109745
0.102891
0.0960678
0.0892737
0.0825079
0.0757695
0.0690576
0.0623712
0.0557096
0.0490721
0.0424573
0.0358661
0.0292933
0.0227491
0.0162048
0.00972342
0.00313888
0.130461
0.123511
0.116594
0.10971
0.102858
0.0960359
0.089243
0.0824785
0.0757413
0.0690306
0.0623455
0.055685
0.0490486
0.0424351
0.0358452
0.0292744
0.0227317
0.016192
0.00971234
0.00313668
0.130419
0.123471
0.116556
0.109674
0.102823
0.0960019
0.0892104
0.0824472
0.0757113
0.0690018
0.0623178
0.0556585
0.0490233
0.042411
0.0358222
0.0292532
0.0227114
0.0161768
0.00969766
0.00313603
0.130372
0.123426
0.116513
0.109632
0.102783
0.0959637
0.0891737
0.0824119
0.0756773
0.0689691
0.0622863
0.0556283
0.0489942
0.0423832
0.0357954
0.0292281
0.0226868
0.016157
0.00967693
0.00313435
0.130314
0.123369
0.116459
0.10958
0.102733
0.0959154
0.0891272
0.0823671
0.0756342
0.0689276
0.0622464
0.0555898
0.0489571
0.0423474
0.0357608
0.029195
0.0226542
0.0161279
0.0096449
0.00312491
0.130244
0.123302
0.116394
0.109518
0.102673
0.0958579
0.0890718
0.0823138
0.0755828
0.0688781
0.0621987
0.0555438
0.0489127
0.0423045
0.0357192
0.0291548
0.0226144
0.0160898
0.00960301
0.00310065
)
;

boundaryField
{
    fixedWalls
    {
        type            zeroGradient;
    }
    inlet
    {
        type            zeroGradient;
    }
    outlet
    {
        type            fixedValue;
        value           uniform 0;
    }
    frontAndBack
    {
        type            empty;
    }
    procBoundary7to3
    {
        type            processor;
        value           nonuniform List<scalar> 
20
(
0.131056
0.124079
0.117138
0.11023
0.103355
0.0965116
0.0896975
0.0829129
0.0761556
0.0694261
0.0627201
0.0560416
0.0493816
0.0427523
0.0361292
0.0295496
0.0229473
0.0164318
0.00981154
0.00340987
)
;
    }
    procBoundary7to6
    {
        type            processor;
        value           nonuniform List<scalar> 
20
(
0.138068
0.138056
0.138034
0.138002
0.137961
0.137914
0.137864
0.137811
0.137758
0.137706
0.137657
0.137611
0.137568
0.137527
0.137486
0.137445
0.137402
0.137353
0.137292
0.13722
)
;
    }
}


// ************************************************************************* //
