/*--------------------------------*- C++ -*----------------------------------*\
| =========                 |                                                 |
| \\      /  F ield         | OpenFOAM: The Open Source CFD Toolbox           |
|  \\    /   O peration     | Version:                                        |
|   \\  /    A nd           | Website:  www.openfoam.com                      |
|    \\/     M anipulation  |                                                 |
\*---------------------------------------------------------------------------*/
FoamFile
{
    version     2.0;
    format      ascii;
    class       surfaceScalarField;
    location    "31";
    object      phi;
}
// * * * * * * * * * * * * * * * * * * * * * * * * * * * * * * * * * * * * * //

dimensions      [0 3 -1 0 0 0 0];
oriented        oriented;


internalField   nonuniform List<scalar> 
2194
(
0.0195641
0.000222565
0.022474
0.00222381
-0.00722002
0.0264072
0.00328676
0.0305434
-0.00976658
0.0306577
0.00551605
0.0367336
-0.012172
0.0360396
0.0067902
-0.0185877
0.0431492
0.0484742
-0.0150993
0.0415711
0.00956779
-0.0212891
0.049339
0.0517023
-0.0176868
0.0481997
0.0110582
-0.0233818
0.0550341
0.0542479
-0.0208456
0.0543364
0.0147088
-0.025781
0.0599695
-0.0267073
0.0551742
0.0451661
-0.0232814
0.0612146
0.0164033
-0.0269724
0.0636606
-0.0277974
0.0559992
0.0467904
-0.025896
0.0212611
0.0658495
-0.0291908
0.0669553
-0.0289565
0.0557649
0.0490117
-0.00985384
0.00250713
-0.0123982
0.00467772
-0.0105995
0.00636005
-0.00813849
0.00755493
-0.00545109
-0.00264135
0.00252915
-0.0149771
0.00470054
-0.0127709
0.00637374
-0.00981168
0.00753229
-0.00660964
0.00817608
-0.00328514
-4.37812e-05
0.00256578
-0.017604
0.0047536
-0.0149587
0.00641716
-0.0114752
0.00752687
-0.00771935
0.0080867
-0.00384496
0.00811691
-7.39946e-05
0.0034581
0.00261768
-0.0202927
0.00483194
-0.017173
0.00647631
-0.0131196
0.00752314
-0.00876619
0.00798025
-0.00430207
0.00791707
-1.08156e-05
0.00731284
0.00406234
0.00766109
0.00268254
-0.0230548
0.00492573
-0.0194162
0.00654929
-0.0147432
0.0075316
-0.00974849
0.00789934
-0.00466982
0.00760714
0.000281389
0.00692985
0.00473962
0.0058101
0.00878085
0.0119319
0.00275732
-0.0258992
0.00503557
-0.0216944
0.0066375
-0.0163451
0.00754715
-0.0106581
0.00778129
-0.00490395
0.00740197
0.000660703
0.00626767
0.00587392
0.00460001
0.0104485
0.00250334
0.0140286
0.016476
0.002843
-0.0288356
0.00515761
-0.024009
0.00673113
-0.0179186
0.00756359
-0.0114906
0.00766137
-0.00500173
0.0070849
0.00123717
0.00604122
0.0069176
0.00447628
0.0120134
0.00240843
0.0160964
0.019107
0.0029368
-0.031871
0.00528788
-0.0263601
0.00684151
-0.0194723
0.00759608
-0.0122452
0.00757747
-0.00498311
0.00670463
0.00211001
0.00505864
0.00856359
0.00265963
0.0144125
9.63226e-05
0.0186597
0.0214272
0.00304042
-0.0350144
0.00543471
-0.0287544
0.00695829
-0.0209958
0.00761906
-0.012906
0.00739025
-0.0047543
0.00651692
0.00298334
0.00493985
0.0101407
0.00294587
0.0164064
0.000191015
0.0214146
0.024905
0.00315453
-0.0382751
0.00558729
-0.0311871
0.0070779
-0.0224864
0.00765398
-0.013482
0.00731147
-0.00441179
0.00590009
0.00439471
0.00364153
0.0123992
0.000471355
0.0195766
-0.00264585
0.0245318
0.0277752
0.00327858
-0.0416622
0.00575582
-0.0336644
0.00721937
-0.02395
0.00768948
-0.0139521
0.00714622
-0.00386853
0.00578937
0.00575156
0.00368301
0.0145056
0.00104691
0.0222127
-0.00243928
0.028018
0.0321261
0.00341335
-0.0451853
0.00593837
-0.0361894
0.00734427
-0.0253559
0.00770889
-0.0143168
0.00689699
-0.00305664
0.00500867
0.00763989
0.00191782
0.0175964
-0.00193281
0.0260633
-0.00576657
0.0318517
0.0359273
0.00355304
-0.048848
0.00612294
-0.0387593
0.00748943
-0.0267224
0.00771408
-0.0145414
0.00682438
-0.00216694
0.00479366
0.00967061
0.00210061
0.0202895
-0.00135319
0.0295171
-0.00558983
0.0360884
0.0413956
0.00368847
-0.0526443
0.00631436
-0.0413852
0.00763092
-0.028039
0.00767985
-0.0145903
0.00637197
-0.000859067
0.0039353
0.0121073
3.18108e-06
0.0242216
-0.00461356
0.0341339
-0.00960421
0.041079
0.0465002
0.0038129
-0.0565612
0.00647356
-0.0440458
0.00769695
-0.0292623
0.00767193
-0.0145653
0.00622669
0.000586175
0.00357882
0.0147551
9.24146e-05
0.027708
-0.00428642
0.0385127
-0.00954252
0.0463351
0.053361
0.00393859
-0.0605989
0.0066003
-0.0467075
0.00781304
-0.0304751
0.00738631
-0.0141386
0.00589588
0.0020766
0.00238144
0.0182696
-0.00240385
0.0324933
-0.00773251
0.0438414
-0.0138898
0.0524924
0.0607323
0.00157378
-0.0622952
0.00331182
-0.0484456
0.00518265
-0.0323459
0.00696696
-0.0159229
0.00844387
0.000599694
0.0103879
0.0163255
0.0119012
0.03098
0.0129129
0.0428297
0.0136453
0.05176
0.0594288
0.0149489
0.00126265
-0.063667
0.00261448
-0.0497974
0.00393509
-0.0336665
0.00545004
-0.0174378
0.00711482
-0.00106508
0.00889995
0.0145404
0.0105193
0.0293607
0.0118189
0.04153
0.0129779
0.050601
0.0578538
0.0145529
0.00118361
-0.0649421
0.00243214
-0.051046
0.00382123
-0.0350556
0.00537377
-0.0189904
0.006552
-0.00224331
0.00795729
0.0131351
0.00961857
0.0276994
0.0111509
0.0399977
0.0125809
0.0491709
0.0562948
0.0141399
0.000812742
-0.0658235
0.0016669
-0.0519001
0.00262782
-0.0360165
0.00388966
-0.0202522
0.00531274
-0.00366638
0.00684349
0.0116044
0.00853544
0.0260075
0.0101407
0.0383925
0.0117324
0.0475792
0.0546285
0.0133987
0.000722567
-0.0665852
0.00138211
-0.0525597
0.00218956
-0.036824
0.00304089
-0.0211035
0.00405037
-0.00467587
0.00544232
0.0102124
0.00709498
0.0243548
0.00872043
0.036767
0.0104583
0.0458413
0.0528614
0.0122255
0.0002967
-0.0668836
0.000569583
-0.0528325
0.000968152
-0.0372225
0.00166145
-0.0217968
0.00263704
-0.00565145
0.00388097
0.00896849
0.0054338
0.022802
0.00701066
0.0351902
0.00885916
0.0439928
0.0510385
0.0106821
0.000159482
-0.0670119
0.000206413
-0.0528795
0.000380361
-0.0373965
0.000717357
-0.0221338
0.00128205
-0.00621614
0.00237905
0.00787149
0.0036948
0.0214862
0.00533253
0.0335524
0.00697525
0.0423501
0.04923
0.00878369
-0.000328458
-0.0666103
-0.000739874
-0.0524681
-0.000919811
-0.0372166
-0.000740989
-0.0223127
-0.000223551
-0.00673358
0.000551385
0.00709656
0.00165911
0.0203785
0.00317272
0.0320388
0.00481348
0.0407093
0.0473744
0.00666907
-0.000481415
-0.0660108
-0.00117429
-0.0517752
-0.00176835
-0.0366225
-0.00205001
-0.022031
-0.00181654
-0.00696705
-0.00142815
0.00670817
-0.000546907
0.0194973
0.00062106
0.0308709
0.00234207
0.0389883
0.0454343
0.00428216
-0.00105645
-0.064788
-0.00226616
-0.0505655
-0.00321661
-0.035672
-0.0037395
-0.0215081
-0.00379764
-0.00690891
-0.00369493
0.00660546
-0.00299616
0.0187985
-0.0019976
0.0298723
-0.000445936
0.0374367
0.0436759
0.0013125
-0.00123732
-0.0633388
-0.00282498
-0.0489778
-0.00440195
-0.0340951
-0.00558057
-0.0203295
-0.00612508
-0.0063644
-0.00632529
0.00680567
-0.00575277
0.018226
-0.00482458
0.0289441
-0.00335474
0.0359668
0.04212
-0.00179881
-0.00185561
-0.0612179
-0.00396165
-0.0468718
-0.00590426
-0.0321525
-0.00752339
-0.0187104
-0.00861282
-0.00527497
-0.00909126
0.00728412
-0.00869703
0.0178318
-0.00785592
0.028103
-0.0065159
0.0346268
0.0407378
-0.00513373
-0.00193092
-0.0589841
-0.00437873
-0.044424
-0.00691868
-0.0296125
-0.00908904
-0.01654
-0.01067
-0.00369405
-0.0115007
0.00811487
-0.0114842
0.0178153
-0.0109133
0.027532
-0.0098926
0.0336061
0.0397036
-0.0088584
-0.00254924
-0.0560858
-0.00542305
-0.0415502
-0.00821532
-0.0268202
-0.010789
-0.0139663
-0.0129021
-0.00158091
-0.0141516
0.00936437
-0.0145685
0.0182322
-0.0140961
0.0270597
-0.0134441
0.032954
0.0391597
-0.0129001
-0.00248246
-0.0532368
-0.00553581
-0.0384968
-0.00882323
-0.0235328
-0.0116823
-0.0111073
-0.0140745
0.000811302
-0.0157926
0.0110825
-0.0168987
0.0193383
-0.0171154
0.0272763
-0.0171539
0.0329925
0.0392442
-0.0172384
-0.00326635
-0.0495636
-0.00652124
-0.0352419
-0.00983264
-0.0202214
-0.013027
-0.00791291
-0.0156431
0.0034274
-0.0177515
0.0131908
-0.0194251
0.0210119
-0.0204629
0.0283142
-0.0212369
0.0337665
0.0398261
-0.0218189
-0.00321969
-0.04593
-0.00710183
-0.0313598
-0.0110776
-0.0162456
-0.0146968
-0.00429377
-0.017743
0.00647363
-0.020291
0.0157388
-0.0225293
0.0232502
-0.0243307
0.0301156
-0.0258932
0.035329
0.0405516
-0.0266187
-0.00389457
-0.0416209
-0.00792332
-0.027331
-0.0120618
-0.0121071
-0.016263
-9.25807e-05
-0.0198724
0.010083
-0.0231387
0.0190051
-0.0263216
0.0264331
-0.0291285
0.0329225
-0.0311043
0.0373048
0.0408573
-0.0314099
-0.00404627
-0.0372272
-0.00854567
-0.0228316
-0.012988
-0.00766477
-0.0177753
0.0046947
-0.0225629
0.0148706
-0.0272638
0.023706
-0.0316167
0.030786
-0.0348049
0.0361107
-0.0361607
0.0386607
0.0402145
-0.0355179
-0.00636249
-0.0124993
-0.0185191
-0.0240931
-0.0295326
-0.0344302
-0.0381393
0.0344951
-0.0399555
0.0379269
-0.03981
0.0385152
0.0386502
-0.0382458
-0.0426584
-0.0427351
-0.0415507
-0.0395515
0.0161284
0.0632568
-0.0644364
0.0157213
0.0703021
-0.069895
0.0145754
0.0733035
-0.0721576
0.0129705
0.0767294
-0.0751244
0.0117085
0.0809414
-0.0796793
0.0106047
0.0852757
-0.084172
0.00939773
0.0897576
-0.0885506
0.00829069
0.0946357
-0.0935287
0.00735189
0.099951
-0.0990122
0.00646537
0.105606
-0.10472
0.00565455
0.111526
-0.110715
0.00495983
0.117771
-0.117077
0.00433817
0.124454
-0.123832
0.00376918
0.131624
-0.131055
0.00326125
0.139291
-0.138783
0.00280982
0.147481
-0.14703
0.0024066
0.15624
-0.155837
0.00204991
0.165611
-0.165255
0.00173663
0.175641
-0.175327
0.00146168
0.186379
-0.186104
0.00122111
0.197883
-0.197643
0.00101145
0.210215
-0.210005
0.000828944
0.223442
-0.22326
0.000669777
0.237639
-0.237479
0.000530325
0.252889
-0.252749
0.000406996
0.269287
-0.269163
0.000296218
0.28694
-0.286829
0.000194302
0.305974
-0.305872
9.72971e-05
0.326538
-0.326441
0.348813
-0.348715
0.0154206
0.0623891
0.0151184
0.0706043
0.0139377
0.0744842
0.012677
0.07799
0.0115076
0.0821108
0.0103433
0.0864401
0.00919717
0.0909037
0.00814539
0.0956875
0.0071824
0.100914
0.00630094
0.106488
0.00551556
0.112311
0.00482674
0.11846
0.00421357
0.125067
0.00366175
0.132176
0.0031678
0.139785
0.00272721
0.147922
0.00233527
0.156632
0.00198913
0.165958
0.00168501
0.175945
0.00141835
0.186646
0.00118527
0.198116
0.000982144
0.210418
0.000805334
0.223619
0.00065115
0.237793
0.000516057
0.253024
0.000396526
0.269406
0.00028903
0.287047
0.000189903
0.306073
9.50137e-05
0.326633
0.348908
0.0151723
0.0613567
0.0145659
0.0712107
0.0132818
0.0757683
0.0120859
0.0791859
0.0110047
0.083192
0.00989821
0.0875466
0.00882763
0.0919743
0.00782331
0.0966918
0.00688543
0.101852
0.00603257
0.107341
0.0052782
0.113066
0.00461299
0.119125
0.00402283
0.125657
0.00349622
0.132703
0.0030248
0.140257
0.0026035
0.148343
0.00222945
0.157006
0.00189937
0.166288
0.0016092
0.176235
0.00135481
0.1869
0.00113257
0.198339
0.00093894
0.210612
0.000770365
0.223787
0.00062338
0.23794
0.000494573
0.253153
0.000380526
0.26952
0.000277835
0.28715
0.000182877
0.306168
9.19955e-05
0.326723
0.349
0.0143753
0.0603801
0.0138783
0.0717078
0.0126113
0.0770353
0.0113713
0.0804259
0.0102958
0.0842674
0.00928167
0.0885607
0.00828845
0.0929675
0.00734381
0.0976364
0.00646137
0.102734
0.00565787
0.108144
0.00494579
0.113778
0.00431899
0.119752
0.00376543
0.126211
0.00327342
0.133195
0.00283261
0.140698
0.00243854
0.148737
0.00208888
0.157356
0.00178047
0.166596
0.00150925
0.176506
0.00127152
0.187138
0.00106382
0.198546
0.000882653
0.210793
0.000724828
0.223945
0.000587076
0.238077
0.000466213
0.253274
0.000359047
0.269627
0.000262365
0.287247
0.000172813
0.306258
8.66081e-05
0.32681
0.349086
0.0131582
0.0594474
0.0128398
0.0720261
0.0117148
0.0781603
0.0105143
0.0816264
0.00947366
0.0853081
0.00850732
0.0895271
0.00758763
0.0938872
0.00671958
0.0985045
0.00591106
0.103543
0.0051746
0.108881
0.0045202
0.114432
0.00394626
0.120326
0.00344143
0.126716
0.00299301
0.133643
0.00259179
0.141099
0.00223289
0.149096
0.00191414
0.157674
0.00163269
0.166878
0.00138503
0.176754
0.00116776
0.187355
0.000977781
0.198736
0.000811996
0.210959
0.000667421
0.22409
0.000541093
0.238204
0.000430113
0.253385
0.000331559
0.269726
0.000242535
0.287336
0.000159884
0.30634
8.06152e-05
0.326889
0.349167
0.0115841
0.0585453
0.0114157
0.0721945
0.0104971
0.0790789
0.00943843
0.0826851
0.00845444
0.086292
0.00755504
0.0904265
0.00672228
0.09472
0.00594811
0.0992786
0.00523161
0.104259
0.00457909
0.109533
0.00399957
0.115012
0.00349269
0.120833
0.00304836
0.12716
0.0026545
0.134037
0.00230151
0.141452
0.00198557
0.149412
0.00170448
0.157955
0.00145609
0.167126
0.00123712
0.176973
0.00104478
0.187548
0.000876309
0.198905
0.000728885
0.211106
0.000600037
0.224219
0.000487167
0.238317
0.000387736
0.253484
0.000299198
0.269814
0.000218979
0.287416
0.000144402
0.306415
7.23554e-05
0.326961
0.349239
0.00957333
0.0577557
0.00955564
0.0722122
0.00890532
0.0797292
0.00803117
0.0835593
0.00717032
0.0871529
0.00638734
0.0912095
0.00567903
0.0954283
0.00502374
0.0999339
0.00441616
0.104867
0.00386631
0.110083
0.00338025
0.115498
0.00295606
0.121257
0.0025848
0.127531
0.00225537
0.134366
0.00196038
0.141747
0.00169559
0.149677
0.00145926
0.158192
0.00124948
0.167336
0.00106409
0.177158
0.000900702
0.187711
0.000757114
0.199048
0.000631135
0.211232
0.000520672
0.224329
0.000423563
0.238414
0.000337724
0.25357
0.000261017
0.269891
0.000191357
0.287486
0.000126324
0.30648
6.37263e-05
0.327024
0.349303
0.00723189
0.0571929
0.00728552
0.0721586
0.00689739
0.0801173
0.00625191
0.0842047
0.00558151
0.0878233
0.00498032
0.0918107
0.00443305
0.0959755
0.00392414
0.100443
0.00345257
0.105338
0.0030281
0.110507
0.00265558
0.11587
0.00233034
0.121582
0.00204483
0.127817
0.00179177
0.13462
0.00156454
0.141974
0.00135957
0.149882
0.00117553
0.158376
0.00101151
0.1675
0.0008655
0.177304
0.000736084
0.187841
0.000621647
0.199163
0.000520488
0.211333
0.000431165
0.224418
0.000352106
0.238493
0.000281736
0.25364
0.000218434
0.269954
0.000160496
0.287543
0.000106153
0.306534
5.32084e-05
0.327076
0.349356
0.00450707
0.056968
0.00464836
0.0720173
0.00448057
0.0802851
0.00408367
0.0846016
0.00367261
0.0882344
0.003304
0.0921793
0.00296469
0.0963148
0.00263786
0.10077
0.00233024
0.105646
0.0020569
0.110781
0.00181925
0.116108
0.00161067
0.121791
0.00142568
0.128002
0.00126022
0.134785
0.00111106
0.142123
0.00097456
0.150018
0.000850865
0.158499
0.000738771
0.167612
0.000637733
0.177405
0.000547031
0.187931
0.000465736
0.199244
0.000392994
0.211406
0.000327971
0.224483
0.000269651
0.238551
0.000217086
0.253693
0.0001692
0.270002
0.000124953
0.287588
8.29169e-05
0.306576
4.18109e-05
0.327118
0.349398
0.00142438
0.0568561
0.00172171
0.07172
0.00167579
0.080331
0.00153202
0.0847454
0.00143701
0.0883294
0.00135375
0.0922625
0.00125445
0.0964141
0.00114502
0.100879
0.00103855
0.105753
0.000944987
0.110874
0.000864688
0.116188
0.000790543
0.121865
0.000720442
0.128072
0.000655432
0.13485
0.000595334
0.142183
0.000537188
0.150077
0.000482119
0.158555
0.000429866
0.167664
0.0003805
0.177455
0.000334199
0.187978
0.000290936
0.199287
0.000250548
0.211446
0.000213008
0.224521
0.000178126
0.238586
0.000145598
0.253725
0.000115017
0.270033
8.58013e-05
0.287617
5.74111e-05
0.306605
2.8968e-05
0.327146
0.349427
-0.00183985
0.0568971
-0.00171819
0.0715983
-0.00154935
0.0801622
-0.00129697
0.084493
-0.0010523
0.0880847
-0.000846258
0.0920565
-0.000673537
0.0962414
-0.000530997
0.100737
-0.000410777
0.105632
-0.000303366
0.110767
-0.000209234
0.116094
-0.000133681
0.12179
-7.52843e-05
0.128014
-2.88507e-05
0.134804
8.32784e-06
0.142146
4.06649e-05
0.150044
6.38704e-05
0.158531
7.90555e-05
0.167649
8.79296e-05
0.177446
9.17594e-05
0.187974
9.13643e-05
0.199288
8.76685e-05
0.21145
8.14132e-05
0.224527
7.313e-05
0.238594
6.33439e-05
0.253735
5.23518e-05
0.270044
4.0472e-05
0.287629
2.76999e-05
0.306617
1.39704e-05
0.32716
0.349441
-0.00564145
0.0574048
-0.00559689
0.0715538
-0.00501917
0.0795845
-0.00435652
0.0838304
-0.00377327
0.0875014
-0.00324177
0.091525
-0.0027674
0.0957671
-0.00235152
0.100321
-0.001982
0.105263
-0.00165139
0.110436
-0.00136339
0.115806
-0.00112393
0.12155
-0.00092579
0.127816
-0.000757762
0.134636
-0.000612525
0.142001
-0.000489158
0.149921
-0.000385386
0.158428
-0.000298845
0.167562
-0.000227813
0.177375
-0.000170416
0.187916
-0.000124733
0.199242
-8.90392e-05
0.211414
-6.16387e-05
0.2245
-4.10816e-05
0.238574
-2.61485e-05
0.25372
-1.56871e-05
0.270033
-8.83201e-06
0.287622
-4.47061e-06
0.306613
-1.75926e-06
0.327157
0.349439
-0.00964393
0.0581904
-0.00953476
0.0714446
-0.00869886
0.0787486
-0.00766104
0.0827926
-0.00669586
0.0865363
-0.00583139
0.0906605
-0.00504227
0.0949779
-0.00433083
0.0996092
-0.00369344
0.104625
-0.00312413
0.109867
-0.00263145
0.115313
-0.00221638
0.121135
-0.00186632
0.127465
-0.00156499
0.134334
-0.00130365
0.14174
-0.00107746
0.149695
-0.000883084
0.158233
-0.000717636
0.167397
-0.000578094
0.177235
-0.000461162
0.187799
-0.000364231
0.199145
-0.000284604
0.211335
-0.000219705
0.224435
-0.000167204
0.238521
-0.00012487
0.253678
-9.08371e-05
0.269999
-6.31223e-05
0.287594
-4.00111e-05
0.30659
-1.99051e-05
0.327137
0.349419
-0.0138339
0.0591241
-0.0135914
0.0712021
-0.0124422
0.0775994
-0.0110506
0.081401
-0.00973793
0.0852236
-0.00853795
0.0894605
-0.00743536
0.0938753
-0.00642761
0.0986015
-0.00551209
0.10371
-0.00469877
0.109054
-0.00399494
0.11461
-0.00339486
0.120535
-0.00288228
0.126953
-0.00243981
0.133892
-0.00205382
0.141354
-0.00171705
0.149358
-0.00142515
0.157941
-0.00117409
0.167146
-0.000959661
0.177021
-0.000778171
0.187618
-0.000625629
0.198993
-0.000498263
0.211207
-0.000392417
0.224329
-0.000304785
0.238434
-0.000232356
0.253605
-0.000172139
0.269939
-0.000121579
0.287544
-7.78414e-05
0.306546
-3.80008e-05
0.327097
0.349381
-0.0181955
0.0600812
-0.0176916
0.0706982
-0.016133
0.0760407
-0.0143926
0.0796607
-0.0127805
0.0836114
-0.0112864
0.0879665
-0.00988367
0.0924726
-0.00858328
0.0973011
-0.00739912
0.102526
-0.00634779
0.108002
-0.00543404
0.113696
-0.00464728
0.119748
-0.00396791
0.126274
-0.00337645
0.1333
-0.0028593
0.140836
-0.00240708
0.148906
-0.0020126
0.157547
-0.00167075
0.166804
-0.0013769
0.176727
-0.00112596
0.187367
-0.000913265
0.19878
-0.000734044
0.211028
-0.00058367
0.224179
-0.000457798
0.238308
-0.000352235
0.2535
-0.000263343
0.26985
-0.000187316
0.287468
-0.000120709
0.30648
-5.98836e-05
0.327036
0.349321
-0.0225911
0.0608534
-0.0216238
0.069731
-0.0196664
0.0740833
-0.0176208
0.0776151
-0.0157465
0.0817371
-0.0139766
0.0861965
-0.0122963
0.0907923
-0.0107298
0.0957346
-0.00930274
0.101099
-0.00803378
0.106733
-0.00692093
0.112583
-0.00594966
0.118777
-0.0051012
0.125425
-0.00435921
0.132558
-0.00370793
0.140185
-0.00313557
0.148333
-0.00263388
0.157045
-0.00219732
0.166367
-0.00182004
0.17635
-0.00149641
0.187043
-0.00122053
0.198504
-0.000986581
0.210794
-0.000788835
0.223981
-0.000621914
0.238141
-0.000480898
0.253359
-0.00036083
0.26973
-0.000257417
0.287364
-0.000166071
0.306388
-8.20507e-05
0.326952
0.349239
-0.0268954
0.0611301
-0.0253457
0.0681812
-0.0229325
0.0716701
-0.0206601
0.0753427
-0.0185462
0.0796233
-0.0165234
0.0841736
-0.0145993
0.0888683
-0.012808
0.0939434
-0.0111829
0.0994735
-0.0097239
0.105274
-0.00842726
0.111286
-0.00728179
0.117631
-0.00627171
0.124415
-0.00538048
0.131667
-0.00459399
0.139399
-0.00390023
0.14764
-0.00329008
0.156435
-0.00275653
0.165834
-0.00229317
0.175886
-0.00189357
0.186644
-0.00155116
0.198162
-0.00125925
0.210502
-0.0010112
0.223733
-0.000800748
0.23793
-0.000621632
0.25318
-0.000468346
0.269577
-0.000335251
0.287231
-0.000216984
0.30627
-0.00010741
0.326843
0.349132
-0.0308022
0.0605224
-0.0286506
0.0660297
-0.0259165
0.0689361
-0.0234008
0.072827
-0.0210614
0.0772839
-0.0188367
0.0819489
-0.0167224
0.086754
-0.0147637
0.0919847
-0.0129794
0.0976892
-0.0113619
0.103657
-0.00990763
0.109832
-0.0086062
0.11633
-0.00744476
0.123254
-0.0064118
0.130634
-0.00549427
0.138481
-0.00468031
0.146826
-0.00396158
0.155716
-0.00333082
0.165203
-0.00278149
0.175337
-0.00230588
0.186168
-0.00189648
0.197752
-0.00154565
0.210151
-0.00124593
0.223433
-0.000990029
0.237674
-0.000771286
0.252961
-0.000582856
0.269388
-0.000418468
0.287067
-0.000271406
0.306123
-0.000135283
0.326707
0.348997
-0.0340126
0.0590171
-0.0312655
0.0632826
-0.0282702
0.0659408
-0.0256757
0.0702324
-0.0232248
0.0748331
-0.0208667
0.0795908
-0.0186239
0.0845112
-0.0165594
0.0899201
-0.0146657
0.0957955
-0.0129263
0.101917
-0.0113397
0.108246
-0.0099025
0.114893
-0.00860858
0.12196
-0.00744551
0.129471
-0.00640224
0.137438
-0.00547294
0.145896
-0.00464896
0.154892
-0.00392383
0.164478
-0.00328879
0.174702
-0.00273628
0.185616
-0.00225846
0.197274
-0.00184717
0.20974
-0.00149411
0.22308
-0.00119144
0.237372
-0.00093113
0.252701
-0.000705869
0.269163
-0.000508152
0.286869
-0.000330403
0.305945
-0.000163432
0.32654
0.348833
-0.0360829
0.0568542
-0.0328911
0.0600907
-0.0298758
0.0629255
-0.0273414
0.067698
-0.0249114
0.0724031
-0.0225477
0.0772271
-0.0202551
0.0822186
-0.0181325
0.0877975
-0.0161679
0.0938309
-0.0143451
0.100095
-0.0126631
0.106564
-0.0111253
0.113355
-0.00972148
0.120556
-0.00844012
0.12819
-0.00728347
0.136281
-0.00624652
0.144859
-0.00532516
0.153971
-0.00451076
0.163664
-0.00379546
0.173987
-0.00317059
0.184991
-0.00262733
0.196731
-0.00215694
0.20927
-0.00175095
0.222674
-0.00140082
0.237022
-0.00109834
0.252398
-0.000835128
0.2689
-0.000602907
0.286637
-0.000392882
0.305735
-0.000196856
0.326344
0.348636
-0.0369571
0.0542597
-0.0336082
0.0567419
-0.030899
-0.0285935
-0.0262231
-0.0238024
-0.0215137
-0.0194112
-0.0174478
-0.0155942
-0.0138569
-0.0122425
-0.0107475
-0.00937703
-0.00812975
-0.00700404
-0.00599539
-0.00509848
-0.00430596
-0.00361021
-0.00300254
-0.00247388
-0.00201512
-0.00161737
-0.00127165
-0.000969144
-0.000700853
-0.000457362
-0.000226592
-0.0365257
0.045442
0.055462
0.0408942
0.0612974
0.0391311
0.0641175
0.0389934
0.0668594
0.0382307
0.0711281
0.0366365
0.0763744
0.035103
0.0813095
0.0336411
0.0864655
0.0321113
0.0920758
0.0978249
0.0507012
0.0537726
0.0499043
0.0620942
0.0468224
0.0671995
0.0437683
0.0699135
0.0414907
0.0734057
0.0398643
0.0780007
0.0384891
0.0826848
0.037045
0.0879096
0.035532
0.0935888
0.0340514
0.0993055
0.03257
0.105274
0.0310775
0.111701
0.0296027
0.118522
0.0281333
0.125756
0.0266547
0.133478
0.0251727
0.141707
0.0236843
0.150468
0.0221797
0.159815
0.0206536
0.169792
0.0191
0.180445
0.017511
0.191829
0.015878
0.204007
0.0141922
0.217043
0.0124438
0.231008
0.0106224
0.245984
0.00871702
0.262063
0.00671613
0.279348
0.00460673
0.29796
0.00237378
0.318041
0.339765
0.0511604
0.0583772
0.0502813
0.0629733
0.0507787
0.0667021
0.0497256
0.0709666
0.0473317
0.0757996
0.0452342
0.0800982
0.043482
0.0844369
0.0417337
0.0896579
0.0400068
0.0953157
0.0383113
0.101001
0.0366058
0.10698
0.0349154
0.113391
0.033254
0.120184
0.0316002
0.12741
0.0299481
0.13513
0.0282974
0.143357
0.026638
0.152128
0.0249605
0.161493
0.0232586
0.171494
0.0215237
0.182179
0.0197465
0.193606
0.0179174
0.205836
0.0160263
0.218934
0.0140617
0.232972
0.0120118
0.248034
0.00986406
0.26421
0.00760496
0.281607
0.00521963
0.300345
0.00269108
0.320569
0.342456
0.0616155
0.063717
0.056739
0.0678497
0.0541395
0.0693016
0.0524908
0.0726154
0.0506957
0.0775947
0.0487409
0.0820529
0.0468077
0.0863701
0.045003
0.0914626
0.0432735
0.0970453
0.0415142
0.10276
0.0397385
0.108755
0.0379899
0.11514
0.0362553
0.121919
0.0345146
0.12915
0.0327675
0.136877
0.0310109
0.145114
0.0292359
0.153903
0.0274343
0.163294
0.0255983
0.17333
0.0237186
0.184059
0.0217854
0.195539
0.019789
0.207832
0.0177182
0.221005
0.0155611
0.23513
0.0133047
0.25029
0.0109352
0.26658
0.00843769
0.284104
0.00579549
0.302987
0.00298992
0.323375
0.345446
0.0651302
0.0630849
0.0602289
0.0577198
0.0556352
0.0535161
0.0513356
0.0492696
0.0473027
0.0453431
0.0433832
0.0414465
0.0395326
0.0376277
0.0357213
0.0338052
0.0318714
0.0299107
0.0279131
0.0258679
0.0237645
0.0215915
0.0193367
0.0169869
0.014528
0.0119446
0.00921991
0.0063352
0.00326946
)
;

boundaryField
{
    outlet
    {
        type            calculated;
        value           nonuniform 0();
    }
    upperWall
    {
        type            symmetryPlane;
        value           nonuniform 0();
    }
    lowerWall
    {
        type            symmetryPlane;
        value           uniform 0;
    }
    inlet
    {
        type            calculated;
        value           nonuniform 0();
    }
    cylinder
    {
        type            calculated;
        value           nonuniform 0();
    }
    frontAndBack
    {
        type            empty;
        value           nonuniform 0();
    }
    procBoundary2to1
    {
        type            processor;
        value           nonuniform List<scalar> 
63
(
-0.0167044
0.000654042
-0.00308227
-0.00513372
-0.0246421
-0.0131213
-0.0159568
-0.0438494
-0.0232125
-0.0245172
-0.0259275
-0.0442222
-0.0276512
-0.0294217
-0.0311779
-0.0480073
0.00732459
0.00250598
0.0084289
0.00645615
0.00425622
0.00195643
0.00823984
-8.52986e-05
0.00830516
-0.00303731
0.00769611
-0.00651762
0.00616937
-0.0104779
0.00435612
-0.0146267
-0.0528966
-0.0567496
-0.0623544
-0.0667217
-0.0703654
-0.0747801
-0.0797761
-0.0850035
-0.0905461
-0.0963325
0.030619
-0.103793
-0.110209
-0.117048
-0.124287
-0.131999
-0.140225
-0.14898
-0.158311
-0.168266
-0.178891
-0.19024
-0.202374
-0.215357
-0.229259
-0.244163
-0.260157
-0.277347
-0.29585
-0.315808
-0.337391
)
;
    }
    procBoundary2to3
    {
        type            processor;
        value           nonuniform List<scalar> 
43
(
-0.0306415
-0.0166949
-0.00164495
0.0102687
0.0203102
0.0286036
0.0405977
0.0365558
0.0380037
0.0373307
0.0366511
0.0392003
0.0602162
0.0653925
0.0700327
0.0748064
0.0799299
0.085695
0.0918675
0.0982409
0.104826
0.111741
0.119061
0.126819
0.135034
0.143734
0.152962
0.162767
0.173194
0.184295
0.196124
0.208741
0.222215
0.236624
0.252052
0.268597
0.286369
0.305492
0.326113
0.34841
0.0515851
-0.0334319
0.0536482
)
;
    }
    procBoundary2to6
    {
        type            processor;
        value           nonuniform List<scalar> 
37
(
2.32661e-05
3.7249e-05
4.97123e-05
6.11289e-05
7.09849e-05
7.96146e-05
8.70371e-05
9.33879e-05
9.86657e-05
0.000102924
0.000106193
0.000108513
0.00010975
0.000109669
0.000107802
0.000104005
9.91438e-05
0.000122511
0.000109139
9.14925e-05
6.871e-05
3.91165e-05
1.64697e-06
-3.11825e-05
-7.30758e-05
-0.000118105
-0.000166347
-0.000211908
-0.000265305
-0.000302865
-0.000349075
-0.000366518
-0.000406849
-0.00041394
-0.000414478
-0.000347468
-0.000223149
)
;
    }
}


// ************************************************************************* //
