/*--------------------------------*- C++ -*----------------------------------*\
| =========                 |                                                 |
| \\      /  F ield         | OpenFOAM: The Open Source CFD Toolbox           |
|  \\    /   O peration     | Version:                                        |
|   \\  /    A nd           | Website:  www.openfoam.com                      |
|    \\/     M anipulation  |                                                 |
\*---------------------------------------------------------------------------*/
FoamFile
{
    version     2.0;
    format      ascii;
    class       volVectorField;
    location    "142.2";
    object      U;
}
// * * * * * * * * * * * * * * * * * * * * * * * * * * * * * * * * * * * * * //

dimensions      [0 1 -1 0 0 0 0];


internalField   nonuniform List<vector> 
1153
(
(0.13985 -0.237491 1.11091e-19)
(-0.0602864 -0.284138 -1.84173e-19)
(-0.300516 -0.197611 9.71976e-21)
(-0.489706 -0.0986251 -3.65245e-20)
(-0.573991 -0.0699317 -2.59498e-19)
(-0.494836 -0.110154 1.53999e-19)
(-0.219767 -0.136692 7.73194e-22)
(0.0592445 -0.134186 3.47924e-20)
(0.388306 -0.10367 -1.14551e-19)
(0.690372 -0.0582448 8.46723e-20)
(0.0547973 -0.112394 -3.76658e-20)
(-0.0938743 -0.15734 -2.0957e-19)
(-0.301477 -0.111536 1.75554e-19)
(-0.436086 -0.0448826 -6.92828e-20)
(-0.413696 -0.0313927 7.91332e-20)
(-0.205562 -0.0497633 8.37076e-20)
(0.237617 -0.0649429 -9.33282e-20)
(0.607863 -0.0577069 -2.14973e-19)
(0.924794 -0.0178998 -1.23369e-19)
(1.14869 0.0282767 1.99396e-19)
(1.27405 0.0744976 -8.449e-20)
(1.32559 0.107764 4.08716e-21)
(-0.0112048 -0.0202794 -1.2702e-19)
(-0.12182 -0.0191159 7.00284e-20)
(-0.238039 0.00786537 -3.5181e-20)
(-0.272781 0.0810729 2.4348e-20)
(-0.268285 0.0783439 1.7746e-19)
(0.233523 0.085138 -2.63497e-19)
(0.709279 0.0778156 8.66366e-20)
(1.05891 0.0895743 6.46158e-20)
(1.25909 0.101313 1.10127e-19)
(1.32768 0.110326 -2.64727e-19)
(1.31934 0.112711 9.51575e-20)
(1.27464 0.11453 -3.60806e-20)
(1.2481 0.118161 3.71871e-20)
(1.2768 0.119 -5.64764e-20)
(-0.0293457 0.0109964 1.71298e-19)
(-0.11411 0.0375544 1.02603e-20)
(-0.175093 0.0921938 2.13382e-20)
(-0.22849 0.127511 1.02028e-21)
(0.0537795 0.145133 -1.7612e-20)
(0.66031 0.1827 5.63142e-20)
(1.09719 0.197239 -2.63039e-19)
(1.30809 0.18537 1.37714e-19)
(1.35425 0.162376 -2.02725e-22)
(1.32456 0.142916 5.05282e-20)
(1.29315 0.139108 -3.7588e-20)
(1.2981 0.143026 -1.20876e-20)
(1.31266 0.138415 -2.11839e-20)
(1.29495 0.137996 -6.89318e-21)
(1.26058 0.125316 1.37781e-20)
(1.2487 0.12687 -1.38878e-20)
(1.25005 0.0982248 -6.21073e-21)
(-0.040536 0.0153419 -6.17172e-20)
(-0.125499 0.0471994 -6.53391e-21)
(-0.158871 0.0725033 -4.00977e-20)
(-0.0642539 0.0967037 -2.46114e-20)
(0.556525 0.193824 -1.44518e-19)
(1.05692 0.255014 1.23685e-20)
(1.29905 0.261494 2.81477e-19)
(1.35147 0.233408 -1.21066e-19)
(1.33264 0.203901 -6.66945e-20)
(1.32011 0.188047 6.6767e-20)
(1.31884 0.175236 -3.09992e-20)
(1.29289 0.16098 1.18108e-19)
(1.25628 0.155887 -1.82122e-20)
(1.24622 0.141782 -3.13685e-20)
(1.25699 0.138537 1.31311e-20)
(1.25212 0.121128 -2.01114e-20)
(1.24216 0.119317 5.1651e-21)
(1.23147 0.110638 1.26563e-20)
(1.22262 0.0919302 -1.83374e-22)
(1.21592 0.0824193 -2.65172e-21)
(-0.0374331 0.0092768 -2.70119e-20)
(-0.126943 0.0368376 1.45948e-19)
(-0.15917 -0.00143426 -5.16715e-20)
(0.4583 0.152912 -5.15031e-20)
(0.982676 0.265173 8.2495e-21)
(1.23942 0.304521 -1.30535e-19)
(1.31548 0.29032 8.82863e-20)
(1.32655 0.260643 -4.66644e-20)
(1.32665 0.232342 2.97175e-20)
(1.30906 0.20738 1.35746e-20)
(1.27655 0.191832 5.63472e-21)
(1.26225 0.182769 5.92759e-20)
(1.26647 0.167791 -1.2717e-20)
(1.26364 0.164001 -2.94876e-20)
(1.24141 0.149722 1.826e-20)
(1.22532 0.143833 4.63845e-21)
(1.21901 0.129554 -3.96683e-21)
(1.21629 0.115357 -1.41091e-23)
(1.20746 0.108649 -4.47466e-21)
(1.19757 0.0979306 5.03279e-21)
(-0.0598003 0.0245804 -2.70723e-20)
(-0.1736 -0.0258872 -5.01067e-20)
(0.284823 0.0817487 3.4394e-20)
(0.874126 0.251533 -7.68333e-20)
(1.16185 0.315746 3.70855e-20)
(1.26778 0.31816 5.62466e-20)
(1.30727 0.300239 -3.09344e-20)
(1.31209 0.275884 4.74431e-20)
(1.29032 0.252056 -1.728e-20)
(1.27502 0.234834 -3.70259e-20)
(1.27322 0.217513 -1.19417e-20)
(1.25934 0.199978 3.13493e-20)
(1.23951 0.190809 -7.46902e-21)
(1.22421 0.174327 -1.21364e-20)
(1.21731 0.165106 1.4756e-22)
(1.20975 0.151662 1.36085e-21)
(1.20546 0.141147 -3.39892e-21)
(1.19995 0.135722 8.06282e-21)
(1.18798 0.118604 -5.10463e-23)
(1.17766 0.11172 -1.40348e-21)
(-0.12403 -0.00857047 -5.47912e-20)
(-0.0733924 -0.050431 4.51847e-20)
(0.725762 0.224937 -4.18916e-21)
(1.08737 0.315444 5.74988e-20)
(1.23126 0.33447 -7.37801e-20)
(1.28179 0.329425 1.14192e-20)
(1.2843 0.31276 -8.48303e-21)
(1.27139 0.292036 -1.94836e-20)
(1.26974 0.270105 -4.86345e-21)
(1.2622 0.248933 3.51112e-20)
(1.23978 0.231536 -8.99135e-21)
(1.22559 0.216975 2.87854e-21)
(1.22326 0.200534 5.06674e-21)
(1.21966 0.192002 -2.63197e-21)
(1.20447 0.177815 -1.07866e-21)
(1.1932 0.166651 -9.52019e-21)
(1.18812 0.156977 -8.14799e-22)
(1.18105 0.141026 -2.14343e-22)
(1.17188 0.134664 1.58858e-22)
(1.16193 0.12961 -1.19795e-21)
(-0.149085 -0.0831741 1.90282e-20)
(0.429752 0.110441 -2.09544e-20)
(0.949514 0.288153 -1.8605e-21)
(1.173 0.345741 2.33115e-20)
(1.24578 0.352473 -9.49195e-22)
(1.25415 0.339753 7.72239e-21)
(1.25387 0.321024 -1.82992e-21)
(1.25167 0.300941 8.4237e-21)
(1.23727 0.282757 1.92875e-20)
(1.22548 0.26566 1.35528e-21)
(1.22082 0.247933 -1.14053e-20)
(1.21201 0.230837 3.44298e-21)
(1.20244 0.219068 -6.187e-21)
(1.18832 0.202453 5.19998e-21)
(1.17782 0.190616 -2.17666e-21)
(1.17327 0.17944 2.65011e-21)
(1.16906 0.167014 6.47503e-22)
(1.16368 0.158387 2.12464e-22)
(1.15234 0.144017 1.33107e-22)
(1.14245 0.138388 1.50738e-21)
(-0.095207 -0.111571 1.8616e-20)
(0.721686 0.245698 -1.69865e-21)
(1.08752 0.355712 3.58721e-21)
(1.21288 0.380234 1.20883e-20)
(1.23929 0.368813 -1.20257e-20)
(1.2407 0.351717 -4.84836e-21)
(1.23017 0.33347 2.11776e-21)
(1.21707 0.315409 2.1324e-21)
(1.21474 0.295831 -1.37466e-21)
(1.20804 0.278073 8.29134e-22)
(1.19282 0.260477 -3.52531e-21)
(1.18297 0.245518 1.89841e-21)
(1.17814 0.229467 -3.84407e-22)
(1.17272 0.216777 -7.06612e-22)
(1.16121 0.201059 7.33572e-22)
(1.15485 0.188548 -2.14805e-22)
(1.15187 0.180137 1.27136e-22)
(1.14503 0.166576 -5.67124e-23)
(1.13895 0.157673 -2.33664e-22)
(1.12947 0.150687 -1.45545e-22)
(0.0823265 -0.745634 9.11843e-21)
(0.0632546 -0.85107 -4.66472e-20)
(0.0573198 -0.721351 -3.25181e-20)
(0.114064 -0.751952 8.11507e-20)
(0.0879002 -0.83912 8.25221e-20)
(0.0536912 -0.705369 -5.25516e-20)
(0.0136337 -0.544233 2.38583e-20)
(0.154718 -0.719556 -2.36366e-21)
(0.111353 -0.803574 1.69183e-19)
(0.0381085 -0.650983 -2.26107e-19)
(-0.0355689 -0.522643 1.32905e-19)
(0.198057 -0.663295 4.77219e-22)
(0.144823 -0.753094 -6.43956e-20)
(0.039257 -0.58447 1.3266e-19)
(-0.0752243 -0.488008 -5.44328e-20)
(0.234632 -0.598793 -2.17876e-19)
(0.176097 -0.678899 3.36755e-19)
(0.0473319 -0.485746 -4.21633e-19)
(-0.0966677 -0.421084 9.75282e-20)
(0.266129 -0.546314 3.34491e-20)
(0.207812 -0.601909 1.19538e-19)
(0.0387443 -0.381758 -7.64321e-20)
(-0.126474 -0.279446 3.2673e-19)
(-0.266126 -0.239126 -4.81273e-19)
(0.307255 -0.50357 -2.8337e-19)
(0.242006 -0.516565 6.89926e-20)
(0.0552467 -0.324986 -2.38334e-19)
(-0.0957976 -0.146728 -7.74624e-20)
(-0.239538 -0.158422 -1.21448e-19)
(-0.325755 -0.121507 7.48638e-20)
(0.335096 -0.467266 -6.45486e-20)
(0.232982 -0.45916 -3.77853e-20)
(0.0274989 -0.24813 -4.99441e-21)
(-0.147717 -0.0379962 1.65311e-19)
(-0.28198 0.000350567 2.45256e-19)
(-0.365795 -0.00753736 5.49531e-20)
(-0.379645 0.0055758 -5.00657e-20)
(0.324305 -0.404119 -2.12429e-19)
(0.203839 -0.403056 9.68341e-20)
(-0.00103612 -0.222195 -4.84338e-20)
(-0.172109 -0.0348501 4.69044e-19)
(-0.256056 0.0458878 -2.06154e-19)
(-0.279195 0.0374785 2.28029e-19)
(-0.267916 0.0268502 -4.38951e-20)
(-0.269514 0.0246547 -7.53779e-20)
(0.260615 -0.337848 3.52263e-19)
(0.110521 -0.356119 -1.21337e-19)
(-0.108268 -0.227512 6.02648e-21)
(-0.296928 -0.0804025 1.14002e-19)
(-0.411244 0.00144642 -2.0278e-19)
(-0.489236 -0.00392683 4.71124e-20)
(-0.464017 -0.0507343 1.18046e-20)
(-0.299773 -0.0689972 -2.00597e-20)
(-0.108688 -0.0581783 2.1026e-19)
(1.12173 0.13036 -1.29776e-22)
(1.14 0.12795 -2.82814e-21)
(1.1537 0.111935 1.60706e-21)
(1.16874 0.107605 2.52349e-21)
(1.18514 0.0875424 -1.70364e-21)
(1.11913 0.124237 8.17239e-22)
(1.13466 0.116414 3.89102e-21)
(1.14679 0.10694 2.04166e-22)
(1.15839 0.0942459 -2.41125e-21)
(1.17387 0.0882213 5.9381e-21)
(1.11668 0.111295 -1.11541e-21)
(1.12376 0.0926905 -5.50272e-21)
(1.13735 0.0965495 -3.36169e-21)
(1.14734 0.072809 -5.26192e-22)
(1.15822 0.0799514 -2.22233e-21)
(1.11319 0.10444 4.48058e-22)
(1.11677 0.0771114 3.37982e-21)
(1.12807 0.0887833 -4.20198e-22)
(1.13753 0.0586152 1.44619e-21)
(1.14247 0.0692118 -1.23158e-21)
(1.10578 0.0927945 6.1393e-22)
(1.11027 0.0628224 2.52237e-23)
(1.11656 0.0785553 -3.8987e-21)
(1.12644 0.0476867 -4.15316e-21)
(1.12963 0.060713 -4.86188e-21)
(1.14651 0.0329765 9.16226e-21)
(1.09875 0.0818113 -2.62683e-23)
(1.10347 0.0541728 -1.5106e-22)
(1.1072 0.0680791 2.39466e-21)
(1.11681 0.0423104 4.54977e-21)
(1.11975 0.0512582 6.68805e-21)
(1.13858 0.0321 4.53181e-21)
(1.09341 0.0708548 -7.70029e-22)
(1.09566 0.0471069 -1.3325e-21)
(1.10008 0.0582552 8.69067e-21)
(1.10721 0.0382957 6.3402e-22)
(1.10897 0.040532 -7.55385e-21)
(1.12477 0.0280486 -1.259e-20)
(1.08757 0.0611617 2.1086e-22)
(1.08778 0.0421795 2.55039e-21)
(1.0913 0.0488132 -6.25244e-21)
(1.09705 0.034259 -7.56934e-21)
(1.09564 0.0312862 -8.73539e-22)
(1.10821 0.0228447 8.66791e-21)
(1.08027 0.0518561 6.60881e-22)
(1.07914 0.038305 1.29376e-21)
(1.08134 0.0402428 8.14163e-22)
(1.08606 0.0316484 8.36551e-21)
(1.0844 0.0258154 6.45838e-21)
(1.09457 0.0219451 -1.2896e-20)
(1.07162 0.0436586 -1.17432e-21)
(1.07062 0.035528 -3.29263e-21)
(1.07177 0.0341776 4.38918e-21)
(1.07539 0.0299207 5.00307e-22)
(1.07565 0.0235457 -4.6013e-21)
(1.08182 0.0214941 -2.70314e-21)
(1.06434 0.0373009 4.40789e-22)
(1.06133 0.0331021 6.10702e-23)
(1.0645 0.0298059 -4.46456e-21)
(1.06404 0.0280369 -4.21718e-21)
(1.06741 0.0212682 4.0077e-21)
(1.06759 0.0202334 8.00035e-21)
(1.05724 0.0325139 -1.49069e-22)
(1.05393 0.0306304 -2.5662e-22)
(1.05723 0.026407 1.3262e-21)
(1.05485 0.0260981 7.06493e-21)
(1.059 0.0195277 -5.52432e-22)
(1.0572 0.0197962 5.55791e-21)
(1.05116 0.0288817 8.81512e-22)
(1.04782 0.0281319 5.69869e-22)
(1.05122 0.0238923 1.50203e-21)
(1.04788 0.0244383 -2.51386e-21)
(1.05283 0.0185502 -4.80265e-22)
(1.04995 0.0195539 -1.31515e-20)
(1.0458 0.0261634 -9.948e-22)
(1.04324 0.0254248 -1.08578e-21)
(1.04619 0.0219929 -3.30823e-21)
(1.04315 0.0226149 -3.28235e-21)
(1.04744 0.0174529 -1.79171e-21)
(1.04476 0.0186807 7.24443e-21)
(1.04044 0.0234296 5.61696e-22)
(1.03999 0.0225539 -8.19661e-22)
(1.04096 0.0198727 4.38254e-22)
(1.03999 0.020437 3.38528e-21)
(1.04192 0.0159908 5.48018e-22)
(1.04147 0.0174498 1.74937e-22)
(1.03558 0.0207194 -3.8957e-22)
(1.0372 0.019721 1.4582e-21)
(1.03615 0.0176807 2.82207e-22)
(1.0374 0.0181946 -5.35146e-21)
(1.03712 0.0144844 1.50911e-21)
(1.03882 0.016061 4.02901e-21)
(1.03154 0.0179145 1.70436e-22)
(1.03458 0.0170142 2.25624e-22)
(1.03212 0.0154277 3.10677e-21)
(1.03489 0.0158512 -4.39311e-22)
(1.03298 0.0129001 1.95341e-21)
(1.03599 0.0142191 -4.84721e-21)
(1.02843 0.0153928 8.33272e-23)
(1.03175 0.0146433 -1.26453e-21)
(1.02889 0.0134127 -1.17949e-21)
(1.03203 0.0136714 1.84751e-22)
(1.02956 0.0114565 -1.17851e-24)
(1.03288 0.0123962 2.75843e-21)
(1.02595 0.013134 9.26961e-24)
(1.02901 0.012537 1.75044e-21)
(1.02629 0.011642 -2.71593e-22)
(1.02925 0.0117232 5.49431e-21)
(1.02681 0.0102147 -1.79417e-21)
(1.02991 0.0107556 -7.18192e-22)
(1.02386 0.0112591 2.63401e-23)
(1.02633 0.0107399 8.89656e-24)
(1.02412 0.0101499 -2.06403e-22)
(1.02654 0.0100874 -3.93376e-21)
(1.0245 0.0090899 -2.24317e-21)
(1.0271 0.00934571 1.77745e-21)
(1.02198 0.00961485 3.08024e-23)
(1.0239 0.00921199 -9.74424e-22)
(1.02217 0.00878592 -7.83486e-22)
(1.02401 0.00868079 6.63106e-22)
(1.02234 0.00800425 1.95379e-21)
(1.02435 0.00812073 -2.03625e-21)
(1.0203 0.00821971 1.70069e-22)
(1.02178 0.00802338 -5.88472e-22)
(1.02046 0.00761202 9.91833e-23)
(1.02185 0.00761412 6.39542e-22)
(1.02061 0.00708329 1.06115e-21)
(1.02222 0.00722335 -2.19021e-21)
(1.01892 0.00702147 -2.24152e-22)
(1.02003 0.00695844 2.6962e-22)
(1.01918 0.00660539 1.75761e-22)
(1.02016 0.00664035 1.28924e-21)
(1.01931 0.00624828 -9.15825e-22)
(1.02039 0.00631265 -1.00421e-21)
(1.01772 0.00591013 3.17142e-22)
(1.01851 0.00590867 -5.95102e-22)
(1.018 0.00563097 1.6331e-21)
(1.01864 0.00565684 -1.87403e-21)
(1.01808 0.00539012 1.11798e-21)
(1.01881 0.00540848 -1.24564e-21)
(1.01663 0.00483692 8.39049e-23)
(1.01722 0.00484995 4.06919e-23)
(1.01693 0.00467049 -1.44396e-21)
(1.01743 0.00469627 -6.68422e-22)
(1.0171 0.00454403 9.60969e-22)
(1.01768 0.00456683 2.69037e-21)
(1.0157 0.00384705 -1.88041e-22)
(1.01619 0.00385732 2.49644e-22)
(1.01601 0.00375796 1.44981e-21)
(1.01645 0.0037738 8.78604e-22)
(1.01619 0.00369064 -1.14124e-21)
(1.01667 0.00370081 -1.94862e-22)
(1.01489 0.00298967 5.24739e-24)
(1.01535 0.0030054 -2.18571e-22)
(1.0152 0.00294717 1.48249e-22)
(1.01561 0.00296975 -5.86916e-23)
(1.0154 0.00292235 8.29439e-22)
(1.01585 0.00294895 -4.63288e-22)
(1.01426 0.00186864 1.83293e-23)
(1.01468 0.0018949 -2.67371e-23)
(1.01457 0.00187167 3.7842e-22)
(1.01498 0.00190168 -1.27769e-21)
(1.01481 0.0018828 4.51989e-22)
(1.01523 0.00191854 -1.66011e-21)
(1.01389 0.00110925 -1.55323e-22)
(1.01427 0.00112806 3.77562e-22)
(1.01415 0.00112143 1.01428e-22)
(1.01453 0.00113743 2.50858e-23)
(1.01439 0.00112977 -1.63966e-22)
(1.01478 0.00114771 3.46528e-22)
(1.01364 0.000543994 3.56426e-22)
(1.01399 0.000547914 -2.79616e-22)
(1.01387 0.000543953 -5.40715e-22)
(1.01424 0.000547011 1.8479e-22)
(1.01411 0.000542997 1.11564e-21)
(1.01449 0.000547485 3.19469e-22)
(0.970684 0.164955 7.80166e-20)
(0.961461 0.170224 -9.78343e-20)
(0.952907 0.173972 -7.99924e-20)
(0.943795 0.182908 -5.87566e-20)
(0.935779 0.198533 -1.79859e-21)
(0.929414 0.215004 -3.9625e-20)
(0.920633 0.232632 4.47405e-20)
(0.909642 0.250583 1.35888e-19)
(0.900015 0.270175 -1.26196e-19)
(0.895076 0.292468 9.19637e-20)
(0.88983 0.317907 -2.44558e-19)
(0.880031 0.345499 1.06989e-19)
(0.867971 0.375855 -4.51972e-20)
(0.861174 0.410052 -1.13686e-20)
(0.854307 0.450912 -1.69913e-20)
(0.846218 0.49436 -3.58707e-20)
(0.834023 0.548096 1.98529e-20)
(0.833717 0.605667 -8.00308e-20)
(0.846471 0.670639 4.12383e-20)
(0.623328 0.623269 -9.7075e-21)
(0.975542 0.158343 -1.67388e-21)
(0.972685 0.174889 -9.66562e-20)
(0.967267 0.183957 8.75398e-20)
(0.961521 0.193247 4.30766e-20)
(0.955183 0.205878 6.81144e-20)
(0.951667 0.223368 -7.13147e-21)
(0.948414 0.241037 -1.04895e-19)
(0.941369 0.259365 -3.21907e-20)
(0.931892 0.279584 5.03756e-20)
(0.927301 0.302804 4.05922e-20)
(0.926139 0.329446 -7.47841e-20)
(0.922691 0.356362 4.47313e-20)
(0.913266 0.385858 -2.76972e-20)
(0.908826 0.419684 3.36818e-21)
(0.90897 0.459468 -2.21674e-20)
(0.910846 0.501408 4.02434e-20)
(0.909956 0.553219 -4.20277e-20)
(0.908623 0.609908 -1.85882e-21)
(0.918352 0.656999 -1.85123e-20)
(0.683355 0.599112 6.95975e-20)
(0.99536 0.165328 4.10077e-20)
(0.991763 0.183325 1.93826e-20)
(0.987586 0.194575 3.04868e-20)
(0.982763 0.203253 -1.35846e-19)
(0.97929 0.215161 2.24477e-21)
(0.977359 0.230213 7.72119e-20)
(0.977156 0.248796 5.29474e-20)
(0.974495 0.266662 -4.02005e-20)
(0.967823 0.28471 -3.29199e-20)
(0.963546 0.306236 -1.77583e-20)
(0.963245 0.332636 8.27384e-20)
(0.964654 0.360342 -5.37063e-20)
(0.963158 0.388624 3.38991e-21)
(0.95979 0.419547 -1.53207e-20)
(0.960692 0.45731 2.58887e-20)
(0.96672 0.495534 -2.92977e-20)
(0.971772 0.541837 4.6279e-21)
(0.986711 0.596919 7.0655e-21)
(1.01477 0.629447 6.47696e-21)
(0.739357 0.558676 1.80338e-20)
(1.00925 0.163323 5.52677e-20)
(1.00719 0.183085 -5.18793e-20)
(1.00567 0.198568 -1.5566e-20)
(1.00271 0.209015 1.75198e-20)
(0.999025 0.219831 4.4324e-20)
(0.999869 0.234889 -6.03592e-20)
(1.00212 0.252582 7.61456e-20)
(1.00304 0.272128 -9.3457e-21)
(0.998824 0.291056 1.55057e-21)
(0.997049 0.3106 -1.69863e-20)
(0.999461 0.334263 -2.58723e-20)
(1.00047 0.360368 2.09703e-21)
(1.00244 0.387998 -1.49454e-20)
(1.0084 0.417159 1.86747e-20)
(1.01384 0.450735 -1.14324e-20)
(1.02389 0.486355 2.35531e-21)
(1.03293 0.527995 -1.1017e-20)
(1.03964 0.578679 -1.0231e-20)
(1.05967 0.592204 9.02102e-21)
(0.762263 0.503022 -1.28513e-19)
(1.0215 0.164552 -4.11282e-20)
(1.02609 0.18241 -9.38325e-21)
(1.02761 0.196309 -3.65124e-20)
(1.0267 0.208924 -2.70577e-21)
(1.02425 0.2201 1.77191e-20)
(1.02408 0.233288 1.62716e-20)
(1.02904 0.251238 1.86399e-20)
(1.03263 0.269499 1.86153e-20)
(1.03149 0.288622 -5.58987e-20)
(1.02903 0.308953 5.08822e-20)
(1.03418 0.332235 1.09453e-20)
(1.04069 0.356095 3.17606e-21)
(1.04092 0.381349 2.63174e-21)
(1.0443 0.408609 -4.28182e-21)
(1.05353 0.440011 1.07442e-20)
(1.06682 0.469525 -2.41562e-20)
(1.0821 0.502818 1.0941e-20)
(1.10444 0.547948 -1.9755e-20)
(1.12118 0.549383 1.44961e-20)
(0.764173 0.443129 1.27095e-19)
(1.03996 0.167858 1.15266e-20)
(1.04245 0.183566 4.23632e-20)
(1.05013 0.198708 -7.06168e-21)
(1.0512 0.210414 4.67858e-21)
(1.04783 0.222471 1.35387e-20)
(1.04757 0.235547 -9.31751e-21)
(1.05185 0.250935 2.20138e-20)
(1.05765 0.269647 -5.36378e-22)
(1.05955 0.286591 -2.1833e-20)
(1.06142 0.305114 1.6393e-21)
(1.06485 0.326737 -8.749e-21)
(1.07267 0.350236 3.45703e-21)
(1.08139 0.373496 5.18359e-21)
(1.08979 0.397318 6.56689e-21)
(1.09768 0.425142 -4.31754e-21)
(1.11137 0.453598 2.54656e-20)
(1.12392 0.482039 -2.48189e-20)
(1.12974 0.515302 -3.57102e-20)
(1.12317 0.498807 4.07583e-20)
(0.734963 0.37428 -4.48079e-20)
(1.05433 0.163737 1.51121e-20)
(1.05714 0.177837 -6.12848e-21)
(1.06435 0.189393 -1.68168e-20)
(1.07278 0.203383 2.01876e-20)
(1.07283 0.216471 -3.59171e-21)
(1.07211 0.230428 -2.44548e-21)
(1.0787 0.247456 4.12721e-22)
(1.08508 0.263521 5.34279e-21)
(1.08634 0.281415 -6.30209e-21)
(1.08805 0.298801 5.64537e-22)
(1.09628 0.31937 2.13799e-21)
(1.10338 0.339734 -5.29658e-22)
(1.10645 0.361848 -3.46604e-21)
(1.11489 0.384738 5.3967e-21)
(1.12821 0.409448 -3.90001e-21)
(1.14229 0.433038 3.80386e-21)
(1.1588 0.458089 -5.89021e-20)
(1.17396 0.484358 4.21877e-20)
(1.13356 0.452893 5.0517e-20)
(0.656991 0.307946 -9.72086e-21)
(1.08009 0.167693 4.60687e-21)
(1.08071 0.179552 -1.19454e-21)
(1.08603 0.19106 -5.70713e-21)
(1.09084 0.199659 1.23289e-21)
(1.09254 0.211858 1.81933e-21)
(1.0931 0.225686 -5.25089e-21)
(1.09799 0.241656 -2.81509e-22)
(1.1086 0.259845 -4.36645e-21)
(1.11453 0.274462 6.78111e-22)
(1.11819 0.291902 -1.00385e-21)
(1.12319 0.311032 2.89601e-21)
(1.13382 0.331567 -1.35151e-22)
(1.14488 0.350704 3.43074e-21)
(1.15291 0.370591 -8.26791e-21)
(1.16072 0.393212 2.44157e-20)
(1.17522 0.415188 -1.62156e-20)
(1.18395 0.43834 3.75916e-20)
(1.17056 0.456486 -3.28584e-20)
(1.07262 0.406688 6.75478e-22)
(0.54974 0.237166 2.9846e-20)
(1.0938 0.159251 -4.40595e-21)
(1.0984 0.170853 -6.00306e-22)
(1.1049 0.182311 3.93896e-21)
(1.11391 0.196441 2.94748e-21)
(1.11593 0.20615 -2.17133e-22)
(1.11776 0.218028 3.31877e-22)
(1.12573 0.233966 4.30445e-22)
(1.131 0.24927 -6.39971e-22)
(1.13512 0.266286 5.25743e-23)
(1.14188 0.281911 -3.46128e-21)
(1.15289 0.300742 -1.81039e-21)
(1.15976 0.318264 6.88473e-22)
(1.16336 0.337903 3.71117e-21)
(1.1747 0.357438 -2.77388e-21)
(1.18814 0.377677 -1.16429e-20)
(1.19762 0.397697 -2.17103e-20)
(1.20565 0.420058 1.71931e-20)
(1.18771 0.435053 6.54935e-21)
(1.02218 0.377154 -1.66254e-21)
(0.333345 0.184022 -1.56432e-20)
(1.11478 0.156753 1.73763e-22)
(1.11762 0.16479 5.63057e-23)
(1.12304 0.176591 5.35234e-22)
(1.129 0.1858 4.36262e-22)
(1.13353 0.20003 -3.70685e-22)
(1.13654 0.212363 -8.63735e-23)
(1.14463 0.226061 -3.78997e-22)
(1.15726 0.24254 3.85039e-22)
(1.16301 0.255508 1.33785e-21)
(1.16871 0.272456 -1.49226e-21)
(1.17504 0.290521 1.18293e-22)
(1.18609 0.309297 5.0623e-21)
(1.19803 0.325824 -2.36625e-21)
(1.20356 0.344172 4.85678e-21)
(1.20979 0.363596 2.39886e-22)
(1.22145 0.381554 -2.66429e-21)
(1.21592 0.400422 1.262e-20)
(1.14612 0.406229 2.99184e-21)
(0.848291 0.32659 -1.75625e-20)
(0.00859626 0.0331995 -1.09027e-20)
(0.816039 -0.0277846 5.0334e-21)
(0.799848 -0.0303169 4.08424e-21)
(0.781567 -0.0328018 -7.84069e-21)
(0.760462 -0.0351312 6.74388e-21)
(0.736725 -0.0377711 6.60849e-22)
(0.709878 -0.0406549 -1.12193e-20)
(0.680404 -0.0437542 1.8221e-20)
(0.647072 -0.0470143 -1.89928e-20)
(0.610461 -0.050121 3.78734e-20)
(0.568508 -0.0530751 -2.47631e-20)
(0.521823 -0.0560121 4.49382e-21)
(0.467911 -0.058442 1.59469e-20)
(0.407272 -0.0611386 -1.18716e-20)
(0.335781 -0.0629606 -1.50964e-20)
(0.256861 -0.0652459 1.32411e-20)
(0.158038 -0.0676913 -1.95974e-20)
(0.0499675 -0.0595512 6.04503e-21)
(0.815484 -0.000911713 -4.70823e-20)
(0.799729 -0.000816847 -1.13597e-20)
(0.781676 -0.000369309 -3.36153e-20)
(0.760429 0.000401809 -3.2444e-20)
(0.736458 0.00137167 3.35944e-20)
(0.709375 0.00251045 -1.8594e-20)
(0.680044 0.0038442 -1.0668e-20)
(0.647151 0.00549363 4.8025e-20)
(0.611262 0.00743549 -6.6487e-20)
(0.570273 0.0102796 1.76186e-20)
(0.524453 0.0134752 8.19916e-21)
(0.471406 0.0180913 -7.18231e-20)
(0.411794 0.0233214 -3.06697e-20)
(0.341185 0.0300771 -7.98215e-21)
(0.264297 0.0399164 4.63933e-20)
(0.168511 0.0571114 5.63647e-21)
(0.059112 0.0567639 4.07072e-20)
(0.818756 0.024458 -6.28387e-21)
(0.803299 0.0269976 -1.02479e-22)
(0.785758 0.0298556 -7.51057e-21)
(0.764869 0.0331435 5.76694e-21)
(0.741579 0.0370901 1.23116e-19)
(0.714915 0.0417406 -9.36055e-20)
(0.686109 0.04742 2.66082e-20)
(0.653667 0.0542586 -3.6819e-20)
(0.618444 0.0621982 -4.70828e-20)
(0.579194 0.0720176 4.9229e-20)
(0.535992 0.0831664 2.25207e-20)
(0.486641 0.0968167 2.92041e-20)
(0.43039 0.111463 -5.70507e-21)
(0.361636 0.128048 -6.93358e-20)
(0.28571 0.14509 1.71548e-19)
(0.194095 0.1748 -1.73407e-20)
(0.0819027 0.167534 -4.38779e-20)
(0.838607 0.0461958 6.31941e-20)
(0.82617 0.0502785 6.86222e-21)
(0.811078 0.055406 1.62566e-20)
(0.793752 0.0611495 -2.48616e-20)
(0.773148 0.0674642 2.40626e-20)
(0.751019 0.0739506 -1.22651e-20)
(0.72609 0.0811281 -9.16959e-21)
(0.699411 0.0889008 -6.12255e-20)
(0.668542 0.0979323 4.33701e-20)
(0.633596 0.108313 3.93773e-20)
(0.593244 0.120847 -2.38268e-20)
(0.549495 0.136595 -1.18824e-19)
(0.501515 0.157078 4.15618e-20)
(0.450863 0.182486 9.59652e-20)
(0.389173 0.212425 1.05372e-19)
(0.3199 0.242525 -1.55164e-19)
(0.230847 0.288819 -6.43016e-20)
(0.113926 0.273348 -8.13576e-21)
(0.848162 0.0680329 -2.2576e-20)
(0.836794 0.0736142 -1.2665e-20)
(0.822652 0.0803079 -8.1277e-20)
(0.806017 0.0885625 1.29267e-19)
(0.785618 0.0986718 8.29408e-21)
(0.763441 0.10976 5.34599e-20)
(0.739514 0.122081 2.86788e-20)
(0.715731 0.135614 -6.43663e-20)
(0.69043 0.150723 2.71185e-20)
(0.662601 0.166952 8.39529e-20)
(0.627642 0.184524 2.54631e-20)
(0.587054 0.202519 -3.09114e-19)
(0.539474 0.225197 3.16688e-19)
(0.492346 0.253478 -1.84313e-19)
(0.434714 0.290747 -2.15258e-19)
(0.374423 0.330983 2.43688e-19)
(0.291224 0.389476 -2.05952e-19)
(0.164071 0.36483 2.89868e-20)
(0.870841 0.0844557 6.61972e-20)
(0.861402 0.0911837 -5.30343e-20)
(0.850758 0.0989514 6.74913e-20)
(0.837683 0.10671 -2.93019e-20)
(0.822386 0.114892 -1.02746e-19)
(0.804785 0.124723 9.92669e-20)
(0.783484 0.136271 -3.32379e-20)
(0.758817 0.149174 -1.23623e-20)
(0.732576 0.164073 -4.91229e-20)
(0.706172 0.182366 4.03795e-20)
(0.68188 0.204361 -6.73875e-20)
(0.654238 0.230708 1.9635e-20)
(0.621502 0.257678 4.00467e-20)
(0.579267 0.287045 -1.9946e-19)
(0.537268 0.3207 2.91406e-19)
(0.48911 0.363791 -7.16084e-20)
(0.437572 0.408284 6.39531e-20)
(0.371504 0.476817 1.20205e-20)
(0.230271 0.448501 1.72473e-19)
(0.889438 0.0951045 1.18955e-19)
(0.88441 0.100472 2.91194e-20)
(0.876918 0.108574 -1.93935e-19)
(0.866168 0.1195 1.88561e-19)
(0.853486 0.132385 -1.04802e-20)
(0.837833 0.145083 -6.93315e-20)
(0.822518 0.158126 -9.23759e-20)
(0.807193 0.17237 1.1041e-19)
(0.788834 0.187482 9.11571e-20)
(0.766497 0.203032 6.24302e-20)
(0.739959 0.220157 1.57904e-19)
(0.713856 0.240828 -1.59064e-19)
(0.689272 0.268033 -8.07719e-20)
(0.662513 0.299742 2.59713e-19)
(0.62847 0.334357 -1.34011e-19)
(0.589775 0.373159 -7.40541e-20)
(0.549983 0.4228 -9.82296e-20)
(0.506521 0.475472 8.54709e-20)
(0.448464 0.552371 -1.88048e-20)
(0.298511 0.521596 -5.12635e-20)
(0.906164 0.116045 1.11917e-19)
(0.902645 0.120962 -3.09581e-20)
(0.896006 0.12701 2.90435e-20)
(0.885987 0.135232 -1.92332e-19)
(0.873442 0.147199 -2.51007e-20)
(0.858177 0.161947 8.16414e-20)
(0.840904 0.177919 1.31961e-19)
(0.825748 0.195484 -1.20104e-19)
(0.811981 0.215289 -5.01435e-20)
(0.796794 0.236065 -1.04956e-21)
(0.776693 0.257532 2.13654e-20)
(0.75314 0.279795 -1.48812e-19)
(0.730246 0.307703 -6.77838e-20)
(0.708123 0.341315 5.79552e-20)
(0.681155 0.379377 1.22664e-19)
(0.650373 0.420138 -1.20835e-19)
(0.613964 0.472654 -1.46769e-20)
(0.586837 0.528746 3.57023e-20)
(0.544301 0.607793 -6.76969e-20)
(0.378143 0.572828 -2.29043e-20)
(0.921546 0.127679 -3.58331e-20)
(0.920464 0.136299 -1.05479e-19)
(0.915695 0.148212 1.40174e-19)
(0.906941 0.158765 -1.04271e-19)
(0.895679 0.170021 -7.24959e-20)
(0.883017 0.182595 1.87402e-20)
(0.867451 0.197533 2.14999e-20)
(0.852237 0.214107 1.75445e-20)
(0.838355 0.233765 3.4496e-20)
(0.826399 0.256429 1.71394e-19)
(0.811116 0.281181 -2.30741e-20)
(0.79302 0.306165 -2.14113e-20)
(0.773904 0.335094 3.0518e-20)
(0.757609 0.370299 5.35676e-20)
(0.736938 0.411512 -1.74023e-19)
(0.716753 0.455033 2.15225e-19)
(0.68931 0.508959 -8.75816e-20)
(0.665422 0.566485 8.77994e-20)
(0.646429 0.64786 7.20476e-20)
(0.463173 0.611122 -5.53462e-20)
(0.939035 0.146609 -5.6395e-21)
(0.935288 0.146905 -2.67658e-20)
(0.929078 0.156355 1.87115e-20)
(0.922253 0.17186 1.23943e-19)
(0.913939 0.187432 1.60055e-22)
(0.904767 0.203287 2.41991e-20)
(0.892844 0.219151 -8.23859e-20)
(0.880806 0.236109 7.12521e-20)
(0.870003 0.255278 -1.223e-19)
(0.861338 0.277609 6.74011e-20)
(0.850063 0.303772 1.45474e-19)
(0.83524 0.330817 -1.63049e-19)
(0.819302 0.360334 2.20049e-19)
(0.807429 0.395176 -2.54889e-21)
(0.793058 0.437044 -8.04316e-20)
(0.77812 0.482003 1.69312e-19)
(0.763346 0.537453 -1.06341e-19)
(0.751681 0.595973 2.18334e-20)
(0.734624 0.667817 -3.81697e-20)
(0.538593 0.624874 2.63281e-20)
(0.909076 0.111331 -3.14626e-20)
(0.921006 0.124378 1.39711e-19)
(0.935724 0.110217 -7.01468e-22)
(0.943729 0.148599 4.90072e-20)
(0.966151 0.107896 0)
(0.950645 0.134971 0)
(0.977823 0.113294 0)
(0.963726 0.12033 0)
(0.978635 0.109629 0)
(0.973367 0.113609 0)
(0.979226 0.1021 0)
(0.977738 0.107223 0)
(0.982925 0.0942805 0)
(0.982799 0.0999214 0)
(0.987703 0.085685 0)
(0.989168 0.0930247 0)
(0.99128 0.0763311 0)
(0.995034 0.0851263 0)
(0.995132 0.0673632 0)
(0.999612 0.0763097 0)
(1.00119 0.0595885 0)
(1.00467 0.0673117 0)
(1.00893 0.0536611 0)
(1.01154 0.0589186 0)
(1.01655 0.0486278 0)
(1.01908 0.0516075 0)
(1.0224 0.0444734 0)
(1.02527 0.0453435 0)
(1.02507 0.0401589 0)
(1.02881 0.0400238 0)
(1.02501 0.0359049 0)
(1.02912 0.0349684 0)
(1.02335 0.0315244 0)
(1.02726 0.0305443 0)
(1.02163 0.0276696 0)
(1.02493 0.026606 0)
(1.0204 0.0241981 0)
(1.023 0.0234565 0)
(1.0198 0.0211937 0)
(1.0218 0.0206786 0)
(1.01938 0.0184941 0)
(1.02098 0.0181916 0)
(1.01897 0.0160644 0)
(1.0203 0.0158476 0)
(1.0184 0.013884 0)
(1.01954 0.0137114 0)
(1.01768 0.0118974 0)
(1.01868 0.0117518 0)
(1.01675 0.010045 0)
(1.01765 0.00996083 0)
(1.01575 0.00834251 0)
(1.01651 0.0083007 0)
(1.01475 0.00680035 0)
(1.01535 0.00676522 0)
(1.01383 0.00539364 0)
(1.01428 0.00536198 0)
(1.01304 0.00402698 0)
(1.01337 0.00402186 0)
(1.0125 0.00226485 0)
(1.01278 0.00222395 0)
(1.01136 0.00110853 0)
(1.01184 0.00105728 0)
(1.01117 0.000506337 0)
(1.01164 0.000507037 0)
(0.977157 0.14417 -4.38386e-20)
(0.974738 0.133633 3.28065e-20)
(1.00399 0.142141 -8.2938e-20)
(1.00949 0.138538 3.00949e-21)
(1.02367 0.145942 1.95667e-20)
(1.0422 0.146792 -2.23949e-20)
(1.05628 0.143367 -1.91487e-20)
(1.08218 0.147902 -8.30973e-21)
(1.09026 0.137685 6.50165e-21)
(1.11417 0.141967 1.34009e-22)
(0.984509 0.138857 3.61638e-20)
(0.974547 0.129519 2.46128e-20)
(1.01219 0.143178 4.22232e-20)
(1.0086 0.134224 -6.41933e-21)
(1.03374 0.14798 1.69509e-20)
(1.0398 0.141485 -3.4419e-20)
(1.06155 0.142248 1.19285e-20)
(1.0789 0.138315 -2.22127e-22)
(1.09129 0.133551 -2.02353e-21)
(1.10877 0.132086 -9.69337e-22)
(0.983163 0.130667 -3.71072e-20)
(0.97628 0.118328 -4.77075e-20)
(1.01076 0.131952 2.27166e-20)
(1.01034 0.116539 -2.76127e-20)
(1.04117 0.133839 -1.0574e-20)
(1.03726 0.11953 1.52249e-20)
(1.06531 0.128866 1.06911e-21)
(1.07217 0.115729 6.29749e-21)
(1.09264 0.11972 -7.44169e-22)
(1.10027 0.108484 1.24886e-21)
(0.983859 0.120591 5.74291e-20)
(0.982479 0.109531 6.42306e-20)
(1.0119 0.125145 -1.1719e-20)
(1.01836 0.10816 -6.1158e-23)
(1.04771 0.128581 -5.61508e-21)
(1.04273 0.107706 5.08176e-21)
(1.06912 0.126561 -3.069e-21)
(1.07129 0.102556 1.06603e-22)
(1.09514 0.115448 -5.95093e-22)
(1.09693 0.0930468 -5.0391e-22)
(0.988203 0.110807 -3.9017e-20)
(0.990463 0.101629 -6.30315e-21)
(1.01451 0.115527 -3.08084e-20)
(1.02568 0.0979677 -1.33159e-20)
(1.05042 0.117386 3.63047e-21)
(1.04809 0.0928433 8.64082e-21)
(1.0685 0.115147 6.18968e-21)
(1.07107 0.0868411 4.62939e-21)
(1.09125 0.103938 -5.13212e-23)
(1.0939 0.0770198 -5.48336e-22)
(0.994488 0.100504 -1.14166e-20)
(0.997515 0.0931944 -2.06048e-20)
(1.017 0.104185 3.3904e-20)
(1.03106 0.0891685 1.87303e-20)
(1.04994 0.105512 -7.28193e-21)
(1.05331 0.0831715 -1.14509e-20)
(1.06558 0.10342 -6.20229e-21)
(1.07261 0.0782759 -3.4548e-21)
(1.08518 0.0930055 -6.49061e-23)
(1.09187 0.0688074 5.05592e-23)
(0.99983 0.0890279 1.88738e-20)
(1.00242 0.0843104 1.51114e-20)
(1.01907 0.0916333 -1.12779e-20)
(1.03347 0.0805604 1.64247e-20)
(1.04895 0.0918989 2.12199e-20)
(1.05497 0.0744377 1.06982e-20)
(1.06261 0.0890045 -2.93218e-22)
(1.07133 0.0694029 -1.07662e-20)
(1.07988 0.0803576 1.36042e-21)