/*--------------------------------*- C++ -*----------------------------------*\
| =========                 |                                                 |
| \\      /  F ield         | OpenFOAM: The Open Source CFD Toolbox           |
|  \\    /   O peration     | Version:                                        |
|   \\  /    A nd           | Website:  www.openfoam.com                      |
|    \\/     M anipulation  |                                                 |
\*---------------------------------------------------------------------------*/
FoamFile
{
    version     2.0;
    format      ascii;
    class       volScalarField;
    location    "24.4";
    object      p;
}
// * * * * * * * * * * * * * * * * * * * * * * * * * * * * * * * * * * * * * //

dimensions      [0 2 -2 0 0 0 0];


internalField   nonuniform List<scalar> 
1164
(
0.16686
0.156687
0.13583
0.107481
0.0745925
0.0413503
0.197784
0.189671
0.171614
0.145617
0.115036
0.0839206
0.054236
0.0275646
0.00247586
-0.0262944
0.202905
0.196528
0.181237
0.15895
0.132903
0.106573
0.081652
0.0589509
0.0371783
0.0119743
0.189941
0.185426
0.173473
0.156132
0.136066
0.115734
0.0959434
0.0773694
0.0592771
0.0389443
0.168805
0.165337
0.156631
0.144208
0.130022
0.11603
0.101709
0.0871228
0.072092
0.056097
0.146007
0.143381
0.137398
0.128744
0.118989
0.109491
0.0996933
0.0896803
0.0783578
0.0656454
0.124746
0.123094
0.119051
0.113087
0.106434
0.100048
0.0933042
0.0865086
0.0790636
0.0691395
0.105956
0.10493
0.102232
0.0982302
0.0937312
0.089516
0.0849772
0.0801544
0.0755448
0.0685858
0.0898984
0.089126
0.08732
0.0847132
0.0817302
0.0789438
0.0760028
0.0725241
0.0695355
0.0650932
0.0766165
0.0760193
0.0747728
0.0730512
0.0710909
0.0691757
0.06725
0.0647476
0.0626192
0.059838
0.0657248
0.0652986
0.0644211
0.063227
0.0619179
0.0605397
0.0592005
0.0574167
0.0557782
0.0540148
0.0564726
0.056181
0.0555598
0.0546968
0.0537967
0.0528166
0.0518729
0.0506408
0.049362
0.0482458
0.0485071
0.0482948
0.0478472
0.0472149
0.0465823
0.0459045
0.045242
0.0444215
0.0434319
0.0427419
0.0417758
0.0416143
0.0412772
0.040793
0.0403296
0.0398518
0.0393595
0.0388201
0.0380428
0.0376197
0.0359349
0.035812
0.0355766
0.0352262
0.0348913
0.0345534
0.034168
0.0338161
0.0332003
0.0329425
0.0308542
0.0307568
0.0305906
0.03034
0.0300953
0.0298659
0.0295652
0.0293383
0.0288513
0.0286932
0.0265717
0.0264968
0.0263629
0.0261683
0.0259726
0.0258065
0.025556
0.025404
0.0250127
0.0249095
0.0228188
0.0227648
0.0226599
0.0225107
0.0223545
0.0222377
0.0220323
0.0219283
0.021614
0.0215416
0.0193949
0.0193514
0.0192781
0.0191742
0.019053
0.0189876
0.0188356
0.0187753
0.0185326
0.0184848
0.0164996
0.0164627
0.0164166
0.0163656
0.016275
0.0162318
0.0161
0.0160618
0.0158659
0.0158303
0.0140962
0.014067
0.014012
0.0139512
0.0138668
0.0138268
0.0137131
0.013676
0.0135154
0.0134789
0.0118713
0.011847
0.0118078
0.0117715
0.0116992
0.0116735
0.0115727
0.0115472
0.0114136
0.0113814
0.00993021
0.00990803
0.00987768
0.00984992
0.00979707
0.00977259
0.00969899
0.0096709
0.00956887
0.00953656
0.00827961
0.00825955
0.00822995
0.00821033
0.00815987
0.00810612
0.00802304
0.00801184
0.00792183
0.00789575
0.00680507
0.00678716
0.00675487
0.00672594
0.00668066
0.00664186
0.00657603
0.0065393
0.00646503
0.00642962
0.00536742
0.00535435
0.00531398
0.00526921
0.00523035
0.00521122
0.00517462
0.00514885
0.00509707
0.00507256
0.00405157
0.00404155
0.00402873
0.00402077
0.00399393
0.00397818
0.00395143
0.00392926
0.00389508
0.0038694
0.00290689
0.0028973
0.00288086
0.00286522
0.00284469
0.00283146
0.00280655
0.002788
0.00275351
0.00273187
0.00169945
0.00169133
0.00167124
0.00164918
0.00163712
0.00163887
0.00162935
0.00162983
0.0016087
0.00159746
0.000555283
0.000552996
0.000547686
0.000543349
0.000539728
0.000540769
0.00054017
0.000539126
0.000534973
0.000531923
-0.0478923
-0.0525865
-0.0606804
-0.0635326
-0.0673907
-0.0706887
-0.0728997
-0.074178
-0.0745992
-0.0742466
-0.0732246
-0.0715714
-0.0693933
-0.0667987
-0.0638735
-0.0607167
-0.0574327
-0.0540957
-0.0507931
-0.047592
-0.0445543
-0.0417341
-0.0391764
-0.0369249
-0.0350183
-0.0334987
-0.0324141
-0.0318279
0.00273902
-0.00745002
-0.0161191
-0.0235189
-0.0328675
-0.0372841
-0.043965
-0.0491596
-0.0531464
-0.056271
-0.0585544
-0.0600454
-0.060734
-0.0606882
-0.0600032
-0.0587657
-0.0570595
-0.0549988
-0.0526678
-0.0501624
-0.0475716
-0.0449705
-0.0424338
-0.0400228
-0.0377968
-0.0358058
-0.0340992
-0.0327266
-0.0317411
-0.0312069
0.0287489
0.0181578
0.00907948
0.00012838
-0.00963986
-0.0155528
-0.0241467
-0.0301834
-0.0354265
-0.0399931
-0.0438052
-0.0467728
-0.0488965
-0.0502347
-0.0508647
-0.0508442
-0.0502669
-0.0492238
-0.0478005
-0.0461005
-0.0442051
-0.0422032
-0.0401706
-0.0381802
-0.0362953
-0.0345756
-0.0330782
-0.0318576
-0.0309732
-0.0304909
0.046088
0.0359938
0.02717
0.0179384
0.00839793
0.00152307
-0.00781603
-0.0140436
-0.0201654
-0.0257956
-0.0306743
-0.0347187
-0.0379492
-0.04041
-0.0421394
-0.0431717
-0.0435953
-0.0434698
-0.0428943
-0.0419488
-0.0407247
-0.0393062
-0.0377761
-0.036208
-0.0346736
-0.0332389
-0.031964
-0.0309102
-0.0301386
-0.0297149
0.0565758
0.0472944
0.0389944
0.0301158
0.021357
0.0142897
0.00511679
-0.000998857
-0.00781291
-0.0140129
-0.0194414
-0.0241507
-0.0281378
-0.031442
-0.0340232
-0.0359288
-0.0371913
-0.0378742
-0.0380515
-0.0377996
-0.0372015
-0.0363404
-0.035295
-0.0341443
-0.032962
-0.0318154
-0.0307713
-0.0298927
-0.0292407
-0.0288802
0.0616491
0.0533561
0.0459127
0.0377907
0.0299945
0.0232021
0.0147128
0.00881733
0.00165231
-0.00456728
-0.0101713
-0.0151786
-0.01963
-0.0234711
-0.0266611
-0.0292213
-0.0311549
-0.0325136
-0.0333433
-0.0337081
-0.0336806
-0.0333348
-0.0327495
-0.0320016
-0.0311614
-0.0303023
-0.02949
-0.0287893
-0.0282615
-0.0279673
0.0625964
0.0553553
0.0490715
0.0419469
0.0351151
0.0287919
0.0212129
0.0156284
0.00860191
0.00273629
-0.00276555
-0.00783588
-0.0124996
-0.0166141
-0.0201842
-0.0231765
-0.0256038
-0.027485
-0.0288475
-0.029738
-0.0302123
-0.0303336
-0.0301746
-0.0298011
-0.029289
-0.0287047
-0.0281146
-0.0275831
-0.0271707
-0.0269371
0.0604506
0.0543562
0.0493064
0.0432569
0.0374009
0.0317224
0.0251181
0.0199974
0.0134902
0.00815437
0.00295265
-0.00203811
-0.00668338
-0.0108823
-0.0146201
-0.017863
-0.0206194
-0.0228804
-0.0246567
-0.0259763
-0.026873
-0.0274051
-0.0276233
-0.0275976
-0.0273883
-0.0270612
-0.0266813
-0.0263093
-0.0260055
-0.0258283
0.0562868
0.0513426
0.0474041
0.0423542
0.0375383
0.0326552
0.0270063
0.0225119
0.0166846
0.0119938
0.00712286
0.00236275
-0.00208109
-0.00619725
-0.00993047
-0.0132733
-0.0162054
-0.0187063
-0.0207775
-0.0224212
-0.023666
-0.0245399
-0.0250933
-0.0253759
-0.0254449
-0.0253622
-0.0251849
-0.0249716
-0.0247797
-0.0246618
0.0512436
0.047311
0.0442587
0.0400679
0.036242
0.032175
0.0274334
0.0236174
0.0184978
0.0144805
0.009945
0.00556223
0.00142495
-0.00247699
-0.00610038
-0.00943065
-0.012421
-0.0150486
-0.0172981
-0.0191695
-0.0206709
-0.0218205
-0.0226507
-0.0231972
-0.0235146
-0.0236491
-0.023657
-0.0235919
-0.023505
-0.0234437
0.0460766
0.0429677
0.040593
0.0371475
0.0341479
0.0307941
0.0268948
0.0236758
0.0192641
0.0158564
0.0117177
0.00781416
0.00404885
0.000437979
-0.00299764
-0.00621909
-0.00917386
-0.0118368
-0.0141784
-0.0161938
-0.0178718
-0.0192291
-0.0202748
-0.0210475
-0.0215757
-0.0219059
-0.0220852
-0.0221611
-0.0221769
-0.0221731
0.0410872
0.0386245
0.0367841
0.033985
0.0316079
0.0288444
0.0256755
0.0229412
0.0192096
0.0163178
0.0126409
0.00924755
0.00589052
0.00260512
-0.000588803
-0.00363015
-0.00647898
-0.00909048
-0.0114434
-0.0135133
-0.0152989
-0.0167922
-0.0180055
-0.0189511
-0.0196537
-0.0201526
-0.0204805
-0.0206795
-0.0207857
-0.0208312
0.0363751
0.0344213
0.0330071
0.030748
0.0288501
0.0265621
0.0239978
0.0216899
0.0185719
0.0161338
0.0129356
0.0100406
0.00709671
0.00413929
0.00122215
-0.00159881
-0.00428473
-0.00679235
-0.00909357
-0.0111651
-0.0129952
-0.01457
-0.0158932
-0.0169634
-0.017809
-0.0184427
-0.0188964
-0.0192018
-0.0193872
-0.0194756
0.0320012
0.0304432
0.0293592
0.0275304
0.0260287
0.0241342
0.0220592
0.0201465
0.0175556
0.0155273
0.0127768
0.0103443
0.00777551
0.0051477
0.00253316
-2.84762e-05
-0.00249744
-0.00484818
-0.00704602
-0.00907519
-0.0108978
-0.0125097
-0.0138903
-0.0150572
-0.0160062
-0.0167499
-0.0173123
-0.0177108
-0.0179668
-0.0180948
0.0279725
0.0267373
0.0259007
0.0244196
0.0232486
0.0216773
0.0200011
0.0184316
0.0162856
0.0146131
0.0122603
0.0102334
0.00798461
0.00567732
0.00336415
0.00107317
-0.00117016
-0.00333595
-0.00540302
-0.00733202
-0.00910451
-0.0106956
-0.0121023
-0.0133153
-0.0143202
-0.0151375
-0.0157708
-0.0162334
-0.0165379
-0.0166934
0.0243544
0.0233699
0.0227206
0.0215185
0.0206133
0.0193129
0.0179669
0.0166814
0.0149167
0.0135477
0.0115516
0.00987836
0.00791813
0.00591476
0.00388939
0.00186134
-0.000152366
-0.00212644
-0.0040372
-0.00584636
-0.00753866
-0.0090863
-0.0104858
-0.0116968
-0.0127339
-0.013593
-0.0142742
-0.0147837
-0.0151284
-0.0153073
0.0211065
0.0203217
0.0198113
0.0188379
0.0181346
0.017067
0.0159891
0.0149342
0.0134905
0.0123668
0.0106822
0.00930002
0.00760239
0.00587812
0.00412238
0.00234426
0.000562398
-0.00120661
-0.00293178
-0.00460093
-0.00618382
-0.00766848
-0.00901045
-0.0101999
-0.0112399
-0.012114
-0.0128176
-0.0133542
-0.0137227
-0.0139144
0.0181567
0.0175312
0.0171422
0.0163579
0.015814
0.0149455
0.0140842
0.0132194
0.01204
0.0111137
0.00969437
0.00855447
0.00708789
0.00562357
0.00411904
0.00257579
0.00100721
-0.000568554
-0.00212576
-0.00364707
-0.00510836
-0.00648535
-0.00774195
-0.00888836
-0.00990189
-0.0107611
-0.0114618
-0.012005
-0.0123775
-0.0125743
0.0155752
0.0150774
0.014776
0.0141408
0.0137174
0.0130068
0.0123244
0.0116145
0.0106515
0.00989288
0.00870944
0.00778313
0.0065387
0.00532307
0.00405287
0.00273188
0.00136844
-1.62875e-05
-0.0014094
-0.00278068
-0.00411559
-0.00537405
-0.00655307
-0.007647
-0.00862089
-0.00945721
-0.0101572
-0.0107007
-0.011078
-0.0112789
0.0132758
0.0128783
0.0126377
0.0121237
0.0117882
0.0112033
0.0106682
0.0100825
0.00929843
0.00867894
0.0076975
0.00694737
0.00589925
0.00490554
0.00383832
0.00270474
0.00152616
0.000321209
-0.000890537
-0.00209483
-0.00327403
-0.00440515
-0.00549369
-0.00650639
-0.00741091
-0.00820807
-0.00888337
-0.00941274
-0.00978913
-0.00998942
0.0112206
0.0108978
0.0107112
0.0102918
0.0100339
0.0095539
0.00914096
0.00866532
0.00803347
0.00753539
0.00672596
0.00612317
0.0052384
0.00443124
0.00353693
0.00257487
0.00156588
0.000524795
-0.000524965
-0.00157714
-0.00260346
-0.00360986
-0.0045808
-0.0054818
-0.00629989
-0.00703696
-0.00766242
-0.0081705
-0.00854029
-0.00874186
0.00941
0.00916288
0.00901459
0.00868654
0.00848838
0.00810176
0.00778653
0.00740287
0.0069022
0.00650449
0.00584635
0.00536945
0.00463228
0.003984
0.00323771
0.00244428
0.00160982
0.000745954
-0.000146719
-0.00105234
-0.00195819
-0.00285678
-0.0037188
-0.00452263
-0.00527205
-0.005947
-0.00652185
-0.00699163
-0.0073258
-0.00751092
0.00779594
0.00759313
0.00747998
0.00721069
0.00705986
0.0067401
0.00649521
0.00618239
0.00578012
0.00545692
0.00491809
0.00453656
0.00392144
0.00339989
0.00276916
0.00210409
0.00141281
0.000701414
-3.69899e-05
-0.0007921
-0.00156536
-0.00233731
-0.00308323
-0.00379108
-0.00446026
-0.00504928
-0.00555698
-0.00595463
-0.00623004
-0.00637959
0.00633952
0.00618164
0.00608165
0.00586697
0.00574462
0.00548421
0.00529022
0.00503793
0.00471463
0.00445624
0.0040169
0.00371771
0.00320754
0.0027978
0.00227288
0.00172055
0.00114799
0.000552525
-6.2827e-05
-0.000692694
-0.00133062
-0.00196385
-0.00257416
-0.00317155
-0.00372365
-0.004219
-0.0046539
-0.00499739
-0.00525489
-0.00538745
0.00501174
0.00489429
0.00482672
0.00466492
0.00458014
0.00437966
0.00424012
0.0040462
0.00380356
0.00360979
0.00327246
0.00305459
0.00265428
0.00235601
0.00194489
0.00152762
0.00108797
0.000618999
0.000122324
-0.000390038
-0.000911424
-0.00141971
-0.00192167
-0.00241058
-0.00285948
-0.00328522
-0.00365335
-0.00396785
-0.00420807
-0.00433617
0.00382675
0.003732
0.00368817
0.00355776
0.00350515
0.00334683
0.00325283
0.0031027
0.0029241
0.00278702
0.00253118
0.00238185
0.00207374
0.00186669
0.00155133
0.00125149
0.000933602
0.000585219
0.000216944
-0.000171139
-0.00056446
-0.000958658
-0.00136158
-0.00174206
-0.00210911
-0.00244553
-0.00273396
-0.0029808
-0.00314862
-0.00324997
0.00269387
0.00262768
0.00258923
0.00249621
0.00245539
0.00233921
0.00227298
0.00215869
0.00203185
0.0019324
0.00174295
0.00164328
0.00140837
0.00127304
0.0010308
0.000823974
0.000593068
0.000342035
7.90415e-05
-0.000191422
-0.000460619
-0.000744294
-0.00102477
-0.00129339
-0.00155605
-0.00178289
-0.00198714
-0.00214739
-0.00225634
-0.00231963
0.0015811
0.0015377
0.00152573
0.00146109
0.0014521
0.0013701
0.00134487
0.00126882
0.00119291
0.00114075
0.0010158
0.000972145
0.000813443
0.000750807
0.00058945
0.000475181
0.000329825
0.000172418
1.03555e-05
-0.000149646
-0.000316437
-0.000486983
-0.000648323
-0.000809591
-0.000959441
-0.00109654
-0.00122252
-0.00132145
-0.00140027
-0.00143912
0.000530069
0.000510014
0.0005151
0.000482103
0.000494017
0.000452075
0.000458879
0.000425069
0.000399906
0.000392449
0.000337829
0.000343069
0.000270692
0.000271957
0.000200703
0.000177797
0.000122892
7.00969e-05
1.9118e-05
-3.4885e-05
-9.38654e-05
-0.000150072
-0.000204988
-0.000260263
-0.000309628
-0.000359622
-0.000402732
-0.000439569
-0.000469855
-0.000484852
)
;

boundaryField
{
    outlet
    {
        type            fixedValue;
        value           uniform 0;
    }
    upperWall
    {
        type            symmetryPlane;
    }
    lowerWall
    {
        type            symmetryPlane;
    }
    inlet
    {
        type            zeroGradient;
    }
    cylinder
    {
        type            zeroGradient;
    }
    frontAndBack
    {
        type            empty;
    }
    procBoundary3to2
    {
        type            processor;
        value           nonuniform List<scalar> 
43
(
0.103848
0.090872
0.0689635
0.0405468
0.00909258
-0.0221397
0.00951259
0.00951259
-0.0186881
-0.0452434
-0.0752832
-0.0327233
-0.0857951
-0.0868271
-0.0921779
-0.0933382
-0.0940641
-0.094537
-0.0943036
-0.0932634
-0.0915022
-0.0890537
-0.086056
-0.0826211
-0.0788134
-0.0747512
-0.0705363
-0.0662471
-0.0619783
-0.0578078
-0.0537961
-0.0500066
-0.0464837
-0.0432701
-0.040399
-0.0378999
-0.0358032
-0.0341425
-0.0329612
-0.032324
-0.0327233
-0.0408762
-0.0408762
)
;
    }
    procBoundary3to7
    {
        type            processor;
        value           nonuniform List<scalar> 
30
(
0.166829
0.197771
0.2029
0.18994
0.168806
0.146009
0.124747
0.105957
0.0898993
0.0766171
0.0657249
0.0564723
0.0485066
0.0417752
0.0359343
0.0308535
0.0265711
0.0228183
0.0193944
0.0164993
0.0140959
0.0118711
0.00993011
0.00827964
0.00680508
0.00536743
0.00405159
0.0029069
0.00169946
0.000555289
)
;
    }
}


// ************************************************************************* //
