/*--------------------------------*- C++ -*----------------------------------*\
| =========                 |                                                 |
| \\      /  F ield         | OpenFOAM: The Open Source CFD Toolbox           |
|  \\    /   O peration     | Version:                                        |
|   \\  /    A nd           | Website:  www.openfoam.com                      |
|    \\/     M anipulation  |                                                 |
\*---------------------------------------------------------------------------*/
FoamFile
{
    version     2.0;
    format      ascii;
    class       volVectorField;
    location    "175";
    object      U;
}
// * * * * * * * * * * * * * * * * * * * * * * * * * * * * * * * * * * * * * //

dimensions      [0 1 -1 0 0 0 0];


internalField   nonuniform List<vector> 
1139
(
(1.02825 0.244412 6.40847e-20)
(1.11305 0.193576 -1.52434e-19)
(1.15629 0.131496 1.77613e-20)
(1.23088 0.0360388 7.83415e-20)
(1.16016 0.051838 -1.28982e-20)
(1.16955 0.00518352 -9.68453e-21)
(1.15551 -0.00271998 -2.31665e-21)
(1.12433 -0.0224462 -2.57792e-21)
(1.16558 -0.0477852 -3.11165e-20)
(1.1338 -0.0587538 3.15603e-21)
(1.09716 -0.0461378 2.79099e-20)
(1.18006 -0.0593539 4.74813e-20)
(1.12229 -0.0944674 -8.43962e-21)
(1.08871 -0.0541917 -7.87575e-22)
(1.19992 -0.0867659 -3.68579e-20)
(1.12826 -0.094595 1.64456e-21)
(1.10808 -0.0931833 1.48396e-21)
(1.20968 -0.0750063 1.20372e-20)
(1.11822 -0.0927765 3.21004e-20)
(1.05346 -0.125752 -9.05917e-21)
(1.16775 -0.0830809 1.27631e-20)
(1.17153 -0.088823 7.00993e-22)
(1.12957 -0.0936944 -1.15309e-20)
(1.10317 -0.124859 -1.77667e-20)
(1.22517 -0.0849891 -1.63898e-20)
(1.13819 -0.0996715 3.90791e-22)
(1.1633 -0.0762855 -3.23557e-21)
(0.181361 0.917432 -4.66004e-20)
(0.187762 0.775895 5.43271e-20)
(0.113758 0.780746 4.29539e-20)
(0.022099 0.78646 -2.6825e-19)
(-0.0718885 0.787419 -6.21629e-20)
(-0.185589 0.751334 -6.67231e-20)
(0.185184 0.564522 -8.53094e-22)
(0.0981635 0.583201 -7.41065e-21)
(-0.00416763 0.597839 9.02672e-20)
(-0.11287 0.640341 2.0449e-19)
(-0.249421 0.647223 4.37194e-19)
(-0.38113 0.662765 3.57773e-19)
(0.19717 0.313865 -2.32966e-20)
(0.087834 0.363685 1.78322e-19)
(-0.0250217 0.401871 1.50104e-19)
(-0.139387 0.481913 -1.74413e-19)
(-0.293899 0.539822 -6.13109e-19)
(-0.449712 0.604394 -1.60992e-20)
(-0.557894 0.604164 -2.50119e-19)
(0.233645 0.057537 3.4635e-20)
(0.104879 0.137566 -1.23466e-19)
(-0.0259346 0.201145 -6.82843e-20)
(-0.148494 0.3035 -5.60964e-20)
(-0.304447 0.395375 6.78109e-19)
(-0.478379 0.498794 -1.46556e-19)
(-0.588922 0.567289 -5.9165e-20)
(-0.547125 0.554179 -5.17025e-20)
(0.253205 -0.159011 2.19709e-20)
(0.121953 -0.0611743 -4.8157e-20)
(-0.018083 0.0218992 -1.22576e-19)
(-0.150823 0.140904 3.36529e-20)
(-0.311501 0.264443 -3.01394e-20)
(-0.490575 0.404605 -8.54701e-20)
(-0.586319 0.521719 -4.78197e-19)
(-0.50796 0.556943 -2.05186e-19)
(-0.283254 0.49839 -6.25987e-20)
(0.286345 -0.390288 -5.7472e-20)
(0.143601 -0.277292 1.08721e-20)
(-0.00733492 -0.176583 1.71891e-19)
(-0.148554 -0.0370339 1.01582e-19)
(-0.302686 0.112577 -3.90834e-19)
(-0.470953 0.279235 2.36204e-19)
(-0.545379 0.451577 1.20567e-19)
(-0.432176 0.530015 3.66958e-19)
(-0.126 0.501989 1.65978e-19)
(0.377616 0.426246 7.55168e-20)
(0.38187 -0.710601 4.06355e-20)
(0.202944 -0.56778 1.02317e-19)
(0.021957 -0.438647 -3.38472e-20)
(-0.135676 -0.258895 -1.94326e-19)
(-0.283204 -0.0659622 1.84063e-19)
(-0.442923 0.144217 -3.15145e-20)
(-0.49006 0.360793 -6.54005e-20)
(-0.339351 0.465661 1.24923e-19)
(0.0380167 0.462786 -2.11434e-19)
(0.569918 0.392722 2.06914e-20)
(0.466562 -1.03602 -4.51602e-20)
(0.27578 -0.883866 -4.24477e-20)
(0.0768125 -0.718288 -2.39681e-19)
(-0.0904112 -0.504976 -1.42063e-20)
(-0.236167 -0.269294 -3.2397e-20)
(-0.381974 -0.0131842 1.52891e-19)
(-0.40951 0.266069 -6.15599e-20)
(-0.247407 0.386466 4.27738e-20)
(0.179831 0.387918 -1.1043e-20)
(0.731588 0.320073 -1.36558e-19)
(0.528602 -1.25837 -3.47059e-20)
(0.347045 -1.14735 1.55836e-19)
(0.126288 -0.995155 2.67636e-19)
(-0.0406128 -0.742235 2.27216e-19)
(-0.183338 -0.502416 6.74095e-20)
(-0.303239 -0.20966 -2.34963e-19)
(-0.291119 0.162104 1.16158e-19)
(-0.100721 0.329475 8.98928e-21)
(0.311625 0.273216 -2.04473e-20)
(0.832918 0.232456 4.22759e-20)
(0.543697 -1.3482 2.88971e-20)
(0.410021 -1.27006 -3.02425e-20)
(0.242042 -1.1602 -1.448e-20)
(0.0732364 -0.938143 6.00439e-20)
(-0.0653587 -0.633188 -9.27031e-20)
(-0.157959 -0.363369 9.2625e-20)
(-0.239414 -0.150934 -2.19452e-20)
(-0.0744162 0.0885532 -1.72809e-20)
(0.432326 0.187435 -9.78224e-21)
(0.946976 0.133991 -3.20231e-21)
(0.526472 -1.35885 3.01842e-20)
(0.402132 -1.31469 -1.17394e-20)
(0.244622 -1.22656 -9.36017e-20)
(0.120237 -1.01341 1.02398e-20)
(0.0150375 -0.749534 -5.11826e-20)
(-0.125934 -0.443697 5.6359e-20)
(-0.112702 -0.0898316 1.88126e-20)
(0.165356 0.0641199 -5.81523e-20)
(0.574828 0.0517023 -5.81381e-20)
(0.999017 0.0247358 -2.11338e-20)
(0.556335 -1.30888 -2.23914e-20)
(0.480976 -1.3068 6.13864e-20)
(0.380431 -1.26858 -2.32205e-20)
(0.252261 -1.12805 -6.71498e-20)
(0.156229 -0.858187 -9.43059e-20)
(0.0987764 -0.5737 1.37757e-20)
(0.0441142 -0.322231 1.61748e-20)
(0.204414 -0.103098 -1.99818e-20)
(0.674994 -0.0313795 2.08164e-20)
(1.09527 -0.0342487 2.69912e-20)
(0.49614 -1.284 -1.4167e-20)
(0.441578 -1.26706 2.02116e-19)
(0.37187 -1.21723 -6.48116e-21)
(0.302016 -1.10984 -8.65886e-20)
(0.270534 -0.896629 5.69568e-20)
(0.0864193 -0.729218 1.0576e-20)
(0.0197198 -0.460502 -6.40017e-20)
(0.374759 -0.192149 1.71982e-19)
(0.849865 -0.1274 9.75161e-20)
(1.12778 -0.128136 -5.59688e-20)
(0.549952 -1.23679 -4.43037e-20)
(0.532458 -1.24095 -1.44341e-20)
(0.45973 -1.18128 -2.41829e-19)
(0.405589 -1.04413 -2.57154e-20)
(0.364844 -0.874842 2.99265e-20)
(0.255407 -0.73215 -1.32631e-20)
(0.342963 -0.453449 6.47417e-20)
(0.599796 -0.257193 -8.13781e-20)
(0.933016 -0.201965 -1.39155e-19)
(1.18985 -0.14645 6.40095e-20)
(0.475503 -1.17183 -4.57066e-22)
(0.518107 -1.18075 -3.40344e-20)
(0.495862 -1.1427 1.92422e-19)
(0.457609 -1.05576 1.28726e-19)
(0.369948 -0.98343 6.92958e-20)
(0.244771 -0.877446 -9.55884e-21)
(0.333445 -0.599045 -1.74742e-20)
(0.678027 -0.367729 -2.79179e-20)
(1.12302 -0.245239 1.33591e-19)
(1.27524 -0.174613 2.61016e-20)
(0.535466 -1.19623 1.8058e-20)
(0.577449 -1.19993 -9.20508e-21)
(0.540916 -1.12917 1.88283e-20)
(0.4866 -1.01236 -1.17906e-19)
(0.445712 -0.931897 -1.99763e-19)
(0.482187 -0.774312 5.32733e-20)
(0.706193 -0.50923 3.52707e-21)
(1.02765 -0.322398 1.39109e-20)
(1.26954 -0.22414 -9.64225e-20)
(1.22393 -0.158833 9.36585e-21)
(0.453001 -1.28574 -2.16656e-20)
(0.55144 -1.29786 1.41112e-20)
(0.550672 -1.20828 -1.08783e-20)
(0.523234 -1.0252 1.10668e-19)
(0.537177 -0.867115 1.80741e-19)
(0.627008 -0.701087 -6.41329e-20)
(0.838465 -0.497918 -1.53183e-20)
(1.11947 -0.336857 -2.73417e-20)
(1.34091 -0.229572 1.8722e-20)
(1.25897 -0.165897 7.01383e-22)
(0.500342 -1.1358 5.34312e-21)
(0.624554 -1.15552 4.2643e-20)
(0.675979 -1.0834 -1.60023e-20)
(0.688376 -0.920599 -5.52291e-20)
(0.713043 -0.758528 3.12988e-20)
(0.80511 -0.601963 1.90851e-20)
(0.982663 -0.439873 9.06461e-21)
(1.2205 -0.30042 8.26555e-21)
(1.41895 -0.191649 1.70932e-20)
(1.30079 -0.159815 3.49275e-22)
(0.547735 -0.744677 1.46303e-20)
(0.715507 -0.735727 5.76171e-21)
(0.826118 -0.70864 -2.90341e-20)
(0.877535 -0.63148 -1.17729e-19)
(0.924266 -0.528694 -3.12786e-19)
(1.02185 -0.404383 -1.14142e-19)
(1.18403 -0.275292 9.74174e-20)
(1.39684 -0.165883 -3.37263e-20)
(1.51053 -0.110845 -6.21118e-22)
(1.33558 -0.133806 4.99332e-21)
(0.638334 -0.158668 -3.04924e-20)
(0.827516 -0.135063 -4.98592e-20)
(0.962044 -0.155474 -1.22588e-19)
(1.06577 -0.140023 8.08081e-20)
(1.16802 -0.101418 2.50246e-19)
(1.29493 -0.0444026 1.12422e-20)
(1.44759 0.0104535 9.80347e-21)
(1.58015 0.0327708 5.5691e-20)
(1.55667 -0.0092564 -6.63675e-21)
(1.37497 -0.0745651 -1.00366e-20)
(0.70038 0.416491 2.22402e-20)
(0.922392 0.460654 -3.4919e-20)
(1.09384 0.428055 1.34228e-19)
(1.23722 0.409925 -8.15857e-20)
(1.3621 0.383901 1.86873e-20)
(1.4869 0.357668 1.74007e-19)
(1.59322 0.306326 -1.09612e-19)
(1.62752 0.217076 -6.63945e-20)
(1.53261 0.0960848 -1.29675e-20)
(1.39323 0.00573965 7.09048e-21)
(0.736612 0.831921 -6.14757e-21)
(0.943611 0.88913 1.81851e-20)
(1.12785 0.851846 1.90991e-20)
(1.29529 0.806899 1.1084e-19)
(1.42919 0.720187 -7.98675e-20)
(1.53402 0.624021 -1.06473e-19)
(1.58617 0.493251 -6.67041e-20)
(1.57084 0.349526 -1.61846e-20)
(1.49341 0.208892 2.07149e-20)
(1.41158 0.101798 -1.45467e-20)
(0.765415 1.01538 -3.35956e-21)
(0.938023 1.06836 1.08365e-20)
(1.09725 1.02822 -5.87397e-20)
(1.24765 0.976056 -6.64485e-20)
(1.35496 0.855241 -3.2167e-21)
(1.43689 0.735166 4.54001e-20)
(1.4787 0.581774 3.67991e-20)
(1.47033 0.435093 2.28344e-21)
(1.42776 0.30459 -5.63734e-21)
(1.37901 0.193725 2.01809e-20)
(0.793085 1.05826 6.19477e-21)
(0.914672 1.06772 -2.53508e-20)
(1.02369 1.01879 8.81941e-21)
(1.14549 0.968032 8.93325e-21)
(1.23402 0.859583 1.98103e-20)
(1.31346 0.754087 -9.15482e-20)
(1.35652 0.617769 8.94166e-21)
(1.36417 0.496149 7.48151e-20)
(1.36515 0.376926 4.29491e-20)
(1.34683 0.277544 -7.84536e-21)
(0.779379 1.00656 -3.07439e-21)
(0.854484 0.99169 2.81843e-20)
(0.947618 0.965478 -6.09723e-21)
(1.04947 0.907306 5.22836e-20)
(1.11563 0.818181 5.49477e-20)
(1.17902 0.733533 1.12618e-19)
(1.22291 0.616527 5.21227e-21)
(1.25728 0.536126 -1.61578e-20)
(1.27572 0.434034 -6.87734e-20)
(1.27984 0.334404 -1.3699e-20)
(0.794084 0.942835 8.04039e-21)
(0.82209 0.911244 1.42705e-20)
(0.879383 0.892133 9.51157e-21)
(0.942175 0.842223 -1.137e-20)
(1.01103 0.783567 -3.52172e-20)
(1.07103 0.717328 -2.89874e-20)
(1.13465 0.616125 7.33869e-21)
(1.18114 0.544436 1.49261e-20)
(1.19179 0.467288 3.01635e-20)
(1.21278 0.390624 1.86684e-20)
(0.760026 0.916818 -8.10095e-22)
(0.766403 0.86895 -4.43415e-21)
(0.810778 0.838274 3.00127e-20)
(0.865398 0.78397 1.69739e-20)
(0.941298 0.739484 -2.17425e-20)
(0.954755 0.682872 2.73912e-20)
(1.01196 0.619897 1.00122e-23)
(1.0716 0.54792 2.03609e-21)
(1.1045 0.471922 -3.9139e-22)
(1.13854 0.402185 -8.0337e-21)
(0.706913 0.941073 6.97146e-23)
(0.708841 0.879904 -2.20543e-20)
(0.73101 0.826233 -3.20693e-21)
(0.761698 0.746997 -1.07979e-20)
(0.843361 0.697404 2.70722e-21)
(0.87893 0.632007 -4.86376e-20)
(0.946297 0.58879 3.30843e-20)
(0.980433 0.536917 -8.90764e-21)
(1.00712 0.488489 2.33099e-21)
(1.05745 0.423264 -1.03431e-20)
(0.641726 0.970508 -4.06759e-21)
(0.621779 0.894584 -4.03466e-21)
(0.61639 0.827641 9.86242e-21)
(0.650985 0.750861 1.53419e-20)
(0.737 0.684378 -2.13492e-20)
(0.77589 0.600829 2.09654e-20)
(0.836582 0.545238 -1.31757e-20)
(0.888431 0.489395 -1.35929e-20)
(0.930354 0.466071 7.33035e-21)
(0.979529 0.424327 3.74812e-21)
(0.54026 0.888719 -4.23089e-21)
(0.502477 0.813263 3.98005e-20)
(0.498566 0.732487 -1.83765e-20)
(0.523344 0.670202 -2.96693e-20)
(0.574278 0.620694 -1.03434e-20)
(0.642582 0.561653 1.50125e-20)
(0.739409 0.508305 -1.11157e-20)
(0.807773 0.450304 -4.47577e-21)
(0.85807 0.414714 -1.31897e-20)
(0.898849 0.389533 4.59276e-21)
(0.43017 0.738684 3.81028e-21)
(0.37862 0.695212 -3.31455e-20)
(0.369008 0.629265 1.35093e-20)
(0.416272 0.595023 -1.12893e-20)
(0.495912 0.540555 2.36039e-20)
(0.561954 0.506502 -1.36441e-21)
(0.623581 0.471761 1.43412e-20)
(0.692271 0.433258 5.19796e-21)
(0.773242 0.398699 4.10601e-21)
(0.835256 0.367017 -1.15807e-21)
(0.404029 0.365883 6.19228e-22)
(0.299962 0.350499 1.69884e-20)
(0.266292 0.305795 -2.16316e-20)
(0.295178 0.311279 3.06609e-20)
(0.333619 0.309486 -6.40434e-21)
(0.426792 0.323623 -1.61123e-20)
(0.534996 0.325734 -4.11645e-21)
(0.616826 0.326604 -2.47719e-21)
(0.687874 0.328134 -1.73842e-22)
(0.753093 0.333551 1.52405e-21)
(0.336223 -0.0626804 7.56877e-22)
(0.232751 -0.0177966 1.64629e-21)
(0.20272 0.0104098 -2.52541e-20)
(0.265119 0.0595722 -6.68452e-21)
(0.341194 0.0781762 1.68849e-20)
(0.419498 0.124972 -3.24764e-21)
(0.46242 0.151511 -6.06195e-21)
(0.52211 0.182564 2.30579e-21)
(0.616977 0.198032 3.03885e-22)
(0.702005 0.224174 3.49208e-21)
(0.410404 -0.482047 3.61736e-21)
(0.327126 -0.413167 -2.36854e-20)
(0.291183 -0.350193 2.73488e-20)
(0.287539 -0.245515 5.19131e-21)
(0.303604 -0.163337 4.48676e-21)
(0.388475 -0.0800182 -5.21436e-21)
(0.46362 -0.0436833 -1.27807e-20)
(0.52615 0.0138841 1.89769e-22)
(0.581758 0.0545344 -3.58206e-22)
(0.624556 0.0980081 -3.37346e-21)
(0.437435 -0.726407 -6.27224e-21)
(0.380768 -0.646535 3.04698e-20)
(0.379727 -0.585058 1.96138e-20)
(0.405012 -0.508055 -2.25581e-20)
(0.434824 -0.427917 -1.92508e-20)
(0.4437 -0.313073 1.18123e-21)
(0.458993 -0.231581 5.53294e-21)
(0.511959 -0.16025 -5.68658e-23)
(0.572141 -0.122184 1.08744e-21)
(0.6018 -0.0741142 -1.05847e-21)
(0.544971 -0.817192 2.51807e-21)
(0.515396 -0.745901 -1.16718e-20)
(0.498578 -0.671771 -1.01726e-20)
(0.502937 -0.571109 4.1081e-21)
(0.550531 -0.491636 1.75916e-20)
(0.58159 -0.409587 2.96531e-20)
(0.610646 -0.320108 1.78718e-20)
(0.591453 -0.238911 1.13111e-21)
(0.595784 -0.181442 -1.51564e-21)
(0.615165 -0.152779 1.10508e-21)
(0.700895 -0.416874 -6.39102e-21)
(0.693205 -0.327825 1.26547e-22)
(0.70873 -0.211815 2.5338e-21)
(0.674025 -0.169743 -5.52856e-24)
(1.20231 -0.10463 0)
(1.20766 -0.0810121 0)
(1.19593 -0.0639638 0)
(1.18514 -0.0493021 0)
(1.17499 -0.0417799 0)
(1.16161 -0.035971 0)
(1.15019 -0.030791 0)
(1.13662 -0.0236041 0)
(1.11982 -0.0192587 0)
(1.10537 -0.0154217 0)
(1.09334 -0.0142997 0)
(1.08105 -0.0131064 0)
(1.06916 -0.0128766 0)
(1.05989 -0.012013 0)
(1.0524 -0.0116427 0)
(1.04651 -0.0107004 0)
(1.04206 -0.0101328 0)
(1.03794 -0.00943342 0)
(1.03413 -0.00882925 0)
(1.03058 -0.00813043 0)
(1.0276 -0.00750783 0)
(1.02491 -0.00689237 0)
(1.02257 -0.00619479 0)
(1.02082 -0.0055497 0)
(1.01924 -0.00478443 0)
(1.01795 -0.00393046 0)
(1.01695 -0.00320682 0)
(1.01614 -0.00216081 0)
(1.01558 -0.00128706 0)
(1.01523 -0.00057947 0)
(1.24866 -0.0998714 0)
(1.24018 -0.0790679 0)
(1.21984 -0.0575903 0)
(1.19905 -0.0412184 0)
(1.1811 -0.0257069 0)
(1.16567 -0.0173126 0)
(1.14955 -0.00896726 0)
(1.13313 -0.00407895 0)
(1.11655 -0.00107949 0)
(1.10172 -0.00302841 0)
(1.08869 -0.0044245 0)
(1.0759 -0.00767295 0)
(1.06585 -0.0101623 0)
(1.05741 -0.0125254 0)
(1.05043 -0.012675 0)
(1.04538 -0.0122801 0)
(1.04156 -0.011134 0)
(1.03786 -0.0101259 0)
(1.03437 -0.0091714 0)
(1.031 -0.00839394 0)
(1.02806 -0.00765996 0)
(1.02534 -0.00695379 0)
(1.0231 -0.00620865 0)
(1.02132 -0.00550606 0)
(1.01972 -0.00471779 0)
(1.01844 -0.00387352 0)
(1.0174 -0.00316446 0)
(1.01657 -0.00214348 0)
(1.01601 -0.00127834 0)
(1.01564 -0.000571886 0)
(1.29297 -0.0736727 0)
(1.27202 -0.0542283 0)
(1.24082 -0.0369161 0)
(1.22085 -0.022337 0)
(1.20455 -0.0164951 0)
(1.18675 -0.0131034 0)
(1.16794 -0.0107422 0)
(1.14783 -0.00564474 0)
(1.12857 -0.0041495 0)
(1.11053 -0.00226121 0)
(1.09425 -0.00249412 0)
(1.08153 -0.00280747 0)
(1.07039 -0.00463075 0)
(1.06114 -0.00495218 0)
(1.05411 -0.0057042 0)
(1.04861 -0.00589258 0)
(1.0439 -0.00623721 0)
(1.03932 -0.00631251 0)
(1.03523 -0.00646329 0)
(1.03146 -0.0063776 0)
(1.02826 -0.00622028 0)
(1.02535 -0.00593591 0)
(1.02307 -0.00554754 0)
(1.02116 -0.00509182 0)
(1.01951 -0.00444987 0)
(1.01824 -0.00371428 0)
(1.01719 -0.00306622 0)
(1.01636 -0.00209271 0)
(1.01582 -0.00125368 0)
(1.01546 -0.000558245 0)
(1.3464 -0.0316294 0)
(1.30536 -0.0231872 0)
(1.26449 0.00024809 0)
(1.22875 0.00943114 0)
(1.20187 0.0177814 0)
(1.18102 0.0228161 0)
(1.16192 0.0268215 0)
(1.14371 0.0253175 0)
(1.12548 0.0232869 0)
(1.10729 0.0177389 0)
(1.09152 0.0126735 0)
(1.07796 0.00577262 0)
(1.06734 0.000676383 0)
(1.05838 -0.00370347 0)
(1.05148 -0.00554181 0)
(1.0465 -0.00654571 0)
(1.04236 -0.00646932 0)
(1.03864 -0.00649236 0)
(1.03505 -0.00647871 0)
(1.03176 -0.00641914 0)
(1.02867 -0.00619619 0)
(1.02597 -0.005876 0)
(1.02379 -0.00545849 0)
(1.02184 -0.00494378 0)
(1.02021 -0.00432094 0)
(1.0189 -0.00361192 0)
(1.01777 -0.0029859 0)
(1.0169 -0.00205719 0)
(1.01632 -0.00123573 0)
(1.01593 -0.000545356 0)
(1.35473 0.0172032 0)
(1.31192 0.0203423 0)
(1.27229 0.0279245 0)
(1.24137 0.0277022 0)
(1.22029 0.0241332 0)
(1.19587 0.0231605 0)
(1.17195 0.0192016 0)
(1.14931 0.0182007 0)
(1.12622 0.0160165 0)
(1.10624 0.0143767 0)
(1.08964 0.0110684 0)
(1.07773 0.00839 0)
(1.06782 0.00497511 0)
(1.0604 0.00305897 0)
(1.05495 0.000797244 0)
(1.05004 -0.00058163 0)
(1.04534 -0.00194605 0)
(1.04073 -0.00294235 0)
(1.03651 -0.0038967 0)
(1.03263 -0.00442507 0)
(1.02916 -0.00473586 0)
(1.02631 -0.00487325 0)
(1.0239 -0.00477191 0)
(1.02182 -0.00450261 0)
(1.02012 -0.00403509 0)
(1.01876 -0.00342112 0)
(1.0176 -0.00285965 0)
(1.01671 -0.00198758 0)
(1.01611 -0.00119879 0)
(1.01572 -0.000527048 0)
(1.36898 0.0846397 0)
(1.31412 0.0831533 0)
(1.26591 0.0841536 0)
(1.2315 0.0785606 0)
(1.19818 0.0773457 0)
(1.17603 0.0729532 0)
(1.16043 0.0661888 0)
(1.14218 0.0574817 0)
(1.12362 0.0490583 0)
(1.10537 0.0388186 0)
(1.08937 0.0296743 0)
(1.07566 0.0201536 0)
(1.06534 0.012678 0)
(1.05735 0.00639682 0)
(1.05082 0.00280875 0)
(1.04632 0.000330503 0)
(1.04231 -0.000989455 0)
(1.03888 -0.00230147 0)
(1.03547 -0.00333719 0)
(1.03222 -0.00402975 0)
(1.02924 -0.00443135 0)
(1.02676 -0.00459011 0)
(1.02451 -0.00447897 0)
(1.02253 -0.0042074 0)
(1.02089 -0.00379792 0)
(1.01948 -0.00323568 0)
(1.01827 -0.00272128 0)
(1.01733 -0.00191248 0)
(1.01667 -0.00115775 0)
(1.01626 -0.000506884 0)
(1.33806 0.137049 0)
(1.28645 0.126597 0)
(1.25321 0.11083 0)
(1.22655 0.0876695 0)
(1.20029 0.0772717 0)
(1.17935 0.0646436 0)
(1.15532 0.0523494 0)
(1.13116 0.0447625 0)
(1.10923 0.037381 0)
(1.09102 0.0304338 0)
(1.07628 0.0244689 0)
(1.06678 0.0194436 0)
(1.05996 0.0145589 0)
(1.05542 0.0108601 0)
(1.05229 0.00733883 0)
(1.04853 0.00469397 0)
(1.04469 0.00232062 0)
(1.0403 0.000386199 0)
(1.03633 -0.00123221 0)
(1.03248 -0.00233627 0)
(1.02933 -0.00318476 0)
(1.02659 -0.0037079 0)
(1.02416 -0.003842 0)
(1.02218 -0.00379667 0)
(1.02051 -0.00350671 0)
(1.01912 -0.00301865 0)
(1.01796 -0.00256974 0)
(1.01704 -0.00181766 0)
(1.01639 -0.0011038 0)
(1.016 -0.000484227 0)
(1.31669 0.205836 0)
(1.26836 0.205648 0)
(1.23038 0.17202 0)
(1.19602 0.153371 0)
(1.16949 0.138895 0)
(1.15294 0.120069 0)
(1.14032 0.10245 0)
(1.12563 0.087208 0)
(1.11131 0.0702596 0)
(1.09484 0.0565721 0)
(1.08048 0.0440388 0)
(1.06759 0.0331041 0)
(1.05915 0.0237207 0)
(1.05205 0.0164906 0)
(1.04652 0.0114833 0)
(1.04293 0.007607 0)
(1.03961 0.00479442 0)
(1.03664 0.00220995 0)
(1.03376 9.73516e-05 0)
(1.03094 -0.0014154 0)
(1.02857 -0.00252967 0)
(1.02629 -0.00310644 0)
(1.0243 -0.00334032 0)
(1.02256 -0.00336071 0)
(1.02101 -0.00316206 0)
(1.0197 -0.00276603 0)
(1.01856 -0.00238383 0)
(1.01764 -0.00170736 0)
(1.01698 -0.00104319 0)
(1.01659 -0.000458123 0)
(1.2671 0.243597 0)
(1.21593 0.241373 0)
(1.20291 0.174018 0)
(1.17604 0.154069 0)
(1.15604 0.131547 0)
(1.1427 0.104473 0)
(1.11818 0.0883604 0)
(1.10005 0.0709075 0)
(1.08166 0.0579967 0)
(1.06799 0.0456665 0)
(1.05655 0.0369629 0)
(1.05135 0.0288488 0)
(1.04801 0.0226761 0)
(1.04647 0.0174355 0)
(1.04598 0.0127501 0)
(1.04387 0.00897514 0)
(1.04086 0.00591108 0)
(1.03734 0.00325658 0)
(1.0339 0.00113747 0)
(1.03068 -0.000473527 0)
(1.02801 -0.00174347 0)
(1.02554 -0.00252953 0)
(1.02351 -0.00292218 0)
(1.0218 -0.00306836 0)
(1.02031 -0.00293041 0)
(1.0191 -0.00257537 0)
(1.01807 -0.00223834 0)
(1.01722 -0.00160993 0)
(1.01661 -0.000985865 0)
(1.01625 -0.000434348 0)
(1.22216 0.304849 0)
(1.17101 0.305549 0)
(1.16552 0.23357 0)
(1.1374 0.22211 0)
(1.12775 0.18575 0)
(1.11326 0.156961 0)
(1.10866 0.130002 0)
(1.09906 0.106684 0)
(1.09038 0.0843099 0)
(1.07796 0.068517 0)
(1.06767 0.0536806 0)
(1.05733 0.0426649 0)
(1.05083 0.0328077 0)
(1.04523 0.0256508 0)
(1.04106 0.0194747 0)
(1.03837 0.0146538 0)
(1.03571 0.0103553 0)
(1.03367 0.00650204 0)
(1.03124 0.00342089 0)
(1.0292 0.00111611 0)
(1.02727 -0.000597541 0)
(1.02542 -0.00158823 0)
(1.02382 -0.00220628 0)
(1.0223 -0.00248668 0)
(1.02093 -0.00249946 0)
(1.01976 -0.00228 0)
(1.01873 -0.00202349 0)
(1.01789 -0.00148021 0)
(1.01726 -0.000915251 0)
(1.0169 -0.000404333 0)
(1.15876 0.317942 0)
(1.10292 0.308953 0)
(1.1265 0.220302 0)
(1.09182 0.221532 0)
(1.09503 0.167505 0)
(1.08529 0.142999 0)
(1.07022 0.12017 0)
(1.06096 0.0956868 0)
(1.05071 0.077052 0)
(1.04364 0.0594609 0)
(1.03718 0.0473105 0)
(1.0364 0.036039 0)
(1.03612 0.0286236 0)
(1.03763 0.0216273 0)
(1.03914 0.0162593 0)
(1.03831 0.0118302 0)
(1.03666 0.00830412 0)
(1.03401 0.0052738 0)
(1.03129 0.00297784 0)
(1.02893 0.000994193 0)
(1.02671 -0.000479344 0)
(1.02477 -0.00148546 0)
(1.02307 -0.00206542 0)
(1.02157 -0.00233678 0)
(1.02026 -0.00234628 0)
(1.01917 -0.00211821 0)
(1.01822 -0.00188579 0)
(1.01743 -0.00138408 0)
(1.01683 -0.000855572 0)
(1.01649 -0.000379637 0)
(1.09588 0.344225 0)
(1.04345 0.34433 0)
(1.08732 0.25079 0)
(1.05337 0.259224 0)
(1.06109 0.196987 0)
(1.05656 0.175601 0)
(1.06067 0.139648 0)
(1.06025 0.112241 0)
(1.05902 0.0886931 0)
(1.05473 0.072835 0)
(1.05149 0.0577604 0)
(1.04578 0.0481495 0)
(1.0428 0.0388892 0)
(1.03921 0.0326658 0)
(1.03651 0.0260703 0)
(1.03481 0.0205791 0)
(1.03311 0.0149708 0)
(1.03144 0.0102591 0)
(1.02976 0.0063265 0)
(1.02824 0.00340461 0)
(1.02674 0.00125328 0)
(1.02528 -0.000128994 0)
(1.02387 -0.00106123 0)
(1.02248 -0.00158299 0)
(1.02118 -0.00180577 0)
(1.02005 -0.00175738 0)
(1.01904 -0.0016292 0)
(1.0182 -0.00122427 0)
(1.01756 -0.000767248 0)
(1.0172 -0.000344435 0)
(1.02594 0.351064 0)
(0.969116 0.326763 0)
(1.02484 0.267346 0)
(0.98879 0.245324 0)
(1.023 0.187569 0)
(1.01182 0.170097 0)
(1.01323 0.139281 0)
(1.01667 0.112448 0)
(1.01777 0.0902687 0)
(1.0189 0.0686857 0)
(1.01865 0.0533655 0)
(1.02247 0.0396162 0)
(1.02502 0.031028 0)
(1.029 0.0227301 0)
(1.03175 0.0172784 0)
(1.03229 0.0126529 0)
(1.03172 0.00931832 0)
(1.03018 0.00637472 0)
(1.02859 0.00410482 0)
(1.02703 0.0020686 0)
(1.02549 0.000560271 0)
(1.02408 -0.000534257 0)
(1.02271 -0.00120552 0)
(1.02147 -0.00156564 0)
(1.02032 -0.00170502 0)
(1.01931 -0.0016024 0)
(1.0184 -0.0014822 0)
(1.01764 -0.00111745 0)
(1.01704 -0.000697746 0)
(1.0167 -0.000317372 0)
(0.943958 0.329428 0)
(0.920695 0.294372 0)
(0.992072 0.250718 0)
(0.920252 0.244152 0)
(0.98458 0.183375 0)
(0.975464 0.167281 0)
(0.998732 0.126746 0)
(1.00627 0.103006 0)
(1.01425 0.0823161 0)
(1.02222 0.0678971 0)
(1.0286 0.0554107 0)
(1.03037 0.0481943 0)
(1.03243 0.040777 0)
(1.03196 0.0360938 0)
(1.03139 0.0297794 0)
(1.03091 0.0241913 0)
(1.02999 0.017928 0)
(1.02901 0.0127705 0)
(1.02796 0.00841407 0)
(1.02692 0.00523684 0)
(1.0259 0.00282788 0)
(1.02477 0.00119587 0)
(1.0236 3.16686e-05 0)
(1.02238 -0.000695819 0)
(1.0212 -0.00109473 0)
(1.02017 -0.00120159 0)
(1.01922 -0.0012023 0)
(1.01844 -0.000938313 0)
(1.01782 -0.000597553 0)
(1.01748 -0.000279321 0)
(0.868384 0.310977 0)
(0.849992 0.272575 0)
(0.957259 0.212277 0)
(0.890554 0.202587 0)
(0.944714 0.155721 0)
(0.935298 0.155637 0)
(0.953837 0.127615 0)
(0.968442 0.109489 0)
(0.984216 0.0875632 0)
(0.992819 0.0671739 0)
(0.999562 0.0510935 0)
(1.00718 0.037353 0)
(1.01278 0.0284208 0)
(1.01862 0.0200285 0)
(1.02194 0.0153474 0)
(1.02359 0.0113688 0)
(1.02424 0.00879877 0)
(1.02426 0.00634039 0)
(1.024 0.00446171 0)
(1.02361 0.00263851 0)
(1.02302 0.00128099 0)
(1.02235 0.000254862 0)
(1.02157 -0.000424597 0)
(1.02072 -0.000827918 0)
(1.0199 -0.00107342 0)
(1.01909 -0.00108452 0)
(1.01835 -0.00107179 0)
(1.01769 -0.000842156 0)
(1.01715 -0.000533078 0)
(1.01686 -0.000253858 0)
(0.803474 0.300564 0)
(0.781078 0.271879 0)
(0.872547 0.23577 0)
(0.852014 0.199633 0)
(0.913968 0.156316 0)
(0.931826 0.122289 0)
(0.945149 0.0916184 0)
(0.957291 0.0755781 0)
(0.969931 0.0616339 0)
(0.98839 0.0519222 0)
(1.00325 0.0452149 0)
(1.01338 0.0409595 0)
(1.02062 0.0364711 0)
(1.0238 0.0338548 0)
(1.02582 0.0287598 0)
(1.02668 0.0238631 0)
(1.02671 0.017909 0)
(1.02634 0.0131271 0)
(1.02588 0.00904379 0)
(1.02533 0.00607157 0)
(1.02474 0.00373929 0)
(1.02394 0.00206521 0)
(1.02301 0.000825018 0)
(1.022 -1.44718e-05 0)
(1.021 -0.000524031 0)
(1.02009 -0.000731966 0)
(1.01928 -0.000833143 0)
(1.01858 -0.000686007 0)
(1.01802 -0.000445923 0)
(1.01771 -0.000220386 0)
(0.765311 0.220825 0)
(0.760912 0.17149 0)
(0.812966 0.175453 0)
(0.808889 0.139355 0)
(0.831033 0.136371 0)
(0.864109 0.115533 0)
(0.908075 0.0972358 0)
(0.937781 0.079919 0)
(0.961696 0.0641739 0)
(0.974424 0.0515262 0)
(0.98717 0.0386709 0)
(0.996946 0.0284917 0)
(1.00508 0.0211452 0)
(1.01118 0.0143736 0)
(1.01405 0.0111369 0)
(1.01604 0.00837892 0)
(1.0175 0.00692998 0)
(1.01884 0.00529146 0)
(1.01983 0.00400548 0)
(1.02062 0.00262228 0)
(1.02092 0.00159742 0)
(1.02096 0.00078504 0)
(1.02069 0.000182563 0)
(1.02021 -0.000220791 0)
(1.01962 -0.000536416 0)
(1.01896 -0.000642546 0)
(1.01833 -0.000721024 0)
(1.01774 -0.000604583 0)
(1.01725 -0.000391723 0)
(1.01698 -0.000197773 0)
(0.683936 0.102284 0)
(0.709918 0.0400285 0)
(0.772047 0.0410413 0)
(0.794505 0.00610174 0)
(0.839199 0.0084241 0)
(0.871331 0.00515393 0)
(0.889248 0.0111492 0)
(0.91759 0.0178001 0)
(0.941561 0.0209673 0)
(0.967132 0.0217679 0)
(0.985712 0.0240249 0)
(1.00179 0.0245888 0)
(1.01167 0.024627 0)
(1.01836 0.0246883 0)
(1.02302 0.0217879 0)
(1.02506 0.0186146 0)
(1.02578 0.0142539 0)
(1.02571 0.0108445 0)
(1.02557 0.00782167 0)
(1.02516 0.00560895 0)
(1.02464 0.00377509 0)
(1.02391 0.00232457 0)
(1.02302 0.00120254 0)
(1.02208 0.000390024 0)
(1.0211 -0.000128829 0)
(1.02024 -0.000382162 0)
(1.01946 -0.000545591 0)
(1.01877 -0.000482958 0)
(1.01822 -0.000322387 0)
(1.01793 -0.000171271 0)
(0.652773 -0.0484272 0)
(0.693763 -0.0679772 0)
(0.769175 -0.061507 0)
(0.799845 -0.0544496 0)
(0.843344 -0.0245108 0)
(0.885179 -0.0197086 0)
(0.925252 -0.00584143 0)
(0.946998 0.00420147 0)
(0.960958 0.0115961 0)
(0.973475 0.0175341 0)
(0.987343 0.0164401 0)
(0.995804 0.0149213 0)
(1.00445 0.0117831 0)
(1.00863 0.00801063 0)
(1.00959 0.00656534 0)
(1.01084 0.00519846 0)
(1.01243 0.00474916 0)
(1.01466 0.00386487 0)
(1.01656 0.00315365 0)
(1.01818 0.00234625 0)
(1.01921 0.00171038 0)
(1.01983 0.0011607 0)
(1.01999 0.000663355 0)
(1.01978 0.000285091 0)
(1.01938 -8.03922e-05 0)
(1.01887 -0.000276144 0)
(1.01831 -0.000426951 0)
(1.01778 -0.000402921 0)
(1.01731 -0.000271948 0)
(1.01706 -0.000150556 0)
(0.648801 -0.143051 0)
(0.668889 -0.150174 0)
(0.757283 -0.159741 0)
(0.838484 -0.15549 0)
(0.871691 -0.109571 0)
(0.896739 -0.0708055 0)
(0.924565 -0.0424863 0)
(0.945115 -0.0335542 0)
(0.962539 -0.0210466 0)
(0.974392 -0.0157912 0)
(0.983516 -0.00613657 0)
(0.997194 -0.000236189 0)
(1.00493 0.00529976 0)
(1.01367 0.00881635 0)
(1.02013 0.00917208 0)
(1.02339 0.00865271 0)
(1.02481 0.0070283 0)
(1.02503 0.00590989 0)
(1.02501 0.00475368 0)
(1.02462 0.00378974 0)
(1.02409 0.00279767 0)
(1.02336 0.00184335 0)
(1.02251 0.00107077 0)
(1.02168 0.000443463 0)
(1.02087 8.64029e-06 0)
(1.02012 -0.000205335 0)
(1.01946 -0.000377105 0)
(1.01887 -0.000358577 0)
(1.01837 -0.000243123 0)
(1.01811 -0.000139493 0)
(0.668059 -0.148689 0)
(0.698263 -0.112069 0)
(0.796247 -0.111289 0)
(0.913723 -0.126472 0)
(0.978451 -0.114564 0)
(0.986309 -0.0705823 0)
(0.978108 -0.0511533 0)
(0.973115 -0.0217588 0)
(0.981382 -0.0118576 0)
(0.991279 -0.000879869 0)
(1.00517 0.00251909 0)
(1.00736 0.00484041 0)
(1.01339 0.00464446 0)
(1.01166 0.0036364 0)
(1.00934 0.00365158 0)
(1.00861 0.00313087 0)
(1.00943 0.00318629 0)
(1.01175 0.00272329 0)
(1.01402 0.00234242 0)
(1.01608 0.00197574 0)
(1.01753 0.00165355 0)
(1.01848 0.00134271 0)
(1.01896 0.000917311 0)
(1.01902 0.000531297 0)
(1.01884 0.000139167 0)
(1.01849 -0.000101758 0)
(1.0181 -0.000289995 0)
(1.01769 -0.000310056 0)
(1.01731 -0.000216869 0)
(1.01711 -0.000127671 0)
(0.732048 -0.0901311 0)
(0.716026 -0.0236817 0)
(1.12572 -0.0976262 9.50171e-21)
(1.12062 -0.0886019 -1.04945e-21)
(1.12664 -0.0790816 -1.35069e-21)
(1.12684 -0.0748734 -2.42242e-21)
(1.12044 -0.0699635 1.75573e-22)
(1.11553 -0.0670063 -3.42624e-21)
(1.10904 -0.0620856 9.65988e-21)
(1.09706 -0.0521753 -6.88557e-21)
(1.08582 -0.0445267 1.04421e-20)
(1.07811 -0.0401405 3.00807e-21)
(1.17235 -0.0692287 3.43299e-21)
(1.15289 -0.079639 1.7593e-21)
(1.13289 -0.0752552 -4.10305e-21)
(1.11802 -0.0603762 -8.67331e-22)
(1.10806 -0.0500487 -4.79401e-21)
(1.10485 -0.0475083 6.15916e-21)
(1.10003 -0.0420462 7.63137e-21)
(1.09161 -0.0351723 -1.24734e-20)
(1.08749 -0.0337211 3.00091e-21)
(1.08454 -0.033466 1.36645e-21)
(1.07499 -0.0298432 1.94204e-21)
(1.06571 -0.0264257 -3.87443e-22)
(1.05824 -0.0243391 8.14778e-21)
(1.05016 -0.0211696 -6.87231e-21)
(1.04371 -0.0184413 -7.78529e-21)
(1.03953 -0.0163106 8.47758e-21)
(1.0358 -0.0144691 -9.58094e-21)
(1.03253 -0.0128289 6.28431e-21)
(1.02963 -0.0114893 2.07083e-21)
(1.02699 -0.0101932 -1.74845e-21)
(1.02455 -0.00898521 4.92565e-22)
(1.0226 -0.00795726 1.19501e-21)
(1.02089 -0.00697193 -1.98401e-22)
(1.01928 -0.00598685 -2.24023e-21)
(1.0181 -0.00505228 1.56005e-21)
(1.01704 -0.0041038 -5.25253e-22)
(1.01617 -0.00325869 3.82325e-22)
(1.01552 -0.00214512 -6.98801e-22)
(1.01501 -0.00128371 -7.2664e-22)
(1.01473 -0.000588115 -1.97018e-21)
(1.11998 -0.0844429 -5.36673e-21)
(1.13894 -0.0812245 3.43938e-21)
(1.14974 -0.0798999 3.95422e-21)
(1.14522 -0.0722962 -1.72407e-21)
(1.13768 -0.0663514 -9.05869e-21)
(1.13209 -0.0617422 1.06378e-20)
(1.11689 -0.0500479 -4.27709e-21)
(1.10132 -0.0384409 8.2402e-21)
(1.09477 -0.0341472 -7.83729e-21)
(1.08556 -0.031154 -3.44759e-21)
(1.07326 -0.026853 9.09487e-21)
(1.06457 -0.0258712 2.41758e-21)
(1.05676 -0.024882 -3.95982e-21)
(1.04904 -0.0233536 -1.53809e-21)
(1.04437 -0.0216659 -3.80296e-21)
(1.04095 -0.0198391 2.89988e-21)
(1.0377 -0.0172586 1.92033e-21)
(1.0348 -0.0149165 5.6049e-21)
(1.03188 -0.0128153 -1.40707e-20)
(1.02902 -0.0110621 5.33078e-21)
(1.02623 -0.00956118 2.70916e-22)
(1.02404 -0.00839153 3.62069e-22)
(1.02196 -0.00724561 1.90904e-23)
(1.02019 -0.006166 -8.81286e-22)
(1.01889 -0.00518654 1.93448e-21)
(1.01768 -0.00417667 -2.50546e-23)
(1.01672 -0.00331878 4.16857e-22)
(1.01601 -0.00219971 -7.91738e-22)
(1.01545 -0.00130908 1.12447e-21)
(1.01513 -0.000594455 3.44948e-22)