/*--------------------------------*- C++ -*----------------------------------*\
| =========                 |                                                 |
| \\      /  F ield         | OpenFOAM: The Open Source CFD Toolbox           |
|  \\    /   O peration     | Version:                                        |
|   \\  /    A nd           | Website:  www.openfoam.com                      |
|    \\/     M anipulation  |                                                 |
\*---------------------------------------------------------------------------*/
FoamFile
{
    version     2.0;
    format      ascii;
    class       volVectorField;
    location    "83.4";
    object      U;
}
// * * * * * * * * * * * * * * * * * * * * * * * * * * * * * * * * * * * * * //

dimensions      [0 1 -1 0 0 0 0];


internalField   nonuniform List<vector> 
1153
(
(0.00562693 -0.0181201 4.02507e-19)
(0.0309583 -0.0756341 -5.853e-19)
(0.149637 -0.178283 7.16275e-20)
(0.594245 -0.303821 -7.3906e-20)
(1.04891 -0.403438 -6.96663e-19)
(1.30621 -0.459963 4.08683e-19)
(1.39 -0.487619 -1.918e-20)
(1.36647 -0.497276 6.61836e-20)
(1.29856 -0.493007 -4.99238e-19)
(1.23049 -0.479593 3.87916e-19)
(-0.00300418 0.00343709 -1.56743e-19)
(0.0439539 -0.0746931 -8.48209e-19)
(0.363909 -0.210872 6.21651e-19)
(0.968666 -0.312145 -2.66814e-19)
(1.29709 -0.375882 1.71807e-19)
(1.41069 -0.409336 1.71163e-19)
(1.4079 -0.424986 -2.22392e-19)
(1.36343 -0.426837 -5.68236e-19)
(1.3201 -0.419642 -4.31219e-19)
(1.28657 -0.405973 7.10193e-19)
(1.25658 -0.384296 -3.7651e-19)
(1.22334 -0.36111 -1.45559e-21)
(-0.0068838 0.0149517 -5.74362e-19)
(0.0877809 -0.110299 3.15438e-19)
(0.759044 -0.216556 -1.21423e-19)
(1.22872 -0.292542 8.43498e-20)
(1.41865 -0.335595 4.24945e-19)
(1.45853 -0.355477 -6.23542e-19)
(1.44207 -0.359125 1.94563e-19)
(1.41414 -0.353376 1.68443e-19)
(1.38392 -0.342648 3.50946e-19)
(1.34296 -0.328864 -8.6745e-19)
(1.29494 -0.32005 3.58191e-19)
(1.23538 -0.309954 -1.67685e-19)
(1.19868 -0.300694 1.85366e-19)
(1.12693 -0.273154 -2.94497e-19)
(-0.047999 -0.00481931 8.02688e-19)
(0.257067 -0.161027 4.50284e-20)
(1.08099 -0.203699 7.94819e-20)
(1.40133 -0.259956 8.30986e-21)
(1.5033 -0.286939 -2.43289e-20)
(1.51039 -0.293564 1.5176e-19)
(1.48079 -0.292966 -6.44537e-19)
(1.4348 -0.290591 3.39649e-19)
(1.37747 -0.284891 -1.53409e-21)
(1.32163 -0.277436 1.72282e-19)
(1.2669 -0.263213 -1.2528e-19)
(1.22696 -0.250261 -3.74413e-20)
(1.17548 -0.232141 -9.03172e-20)
(1.16013 -0.228729 -3.27764e-20)
(1.14936 -0.214887 6.79206e-20)
(1.12383 -0.190517 -8.3818e-20)
(1.09293 -0.156586 -5.07862e-20)
(-0.0773661 -0.057273 -2.97406e-19)
(0.701299 -0.144751 -4.21494e-20)
(1.2686 -0.188018 -1.9106e-19)
(1.5008 -0.212334 -1.16126e-19)
(1.5523 -0.221525 -4.62264e-19)
(1.52638 -0.224137 8.1475e-20)
(1.47447 -0.225273 7.90737e-19)
(1.41645 -0.222777 -3.42184e-19)
(1.36582 -0.218642 -2.09775e-19)
(1.32388 -0.210657 2.23007e-19)
(1.29543 -0.202984 -1.31242e-19)
(1.26582 -0.189306 4.86504e-19)
(1.25112 -0.182052 -7.18152e-20)
(1.21992 -0.158335 -1.51429e-19)
(1.17668 -0.145603 7.03703e-20)
(1.1453 -0.134687 -1.32233e-19)
(1.13265 -0.133856 2.27832e-20)
(1.11109 -0.115767 1.03132e-19)
(1.08344 -0.103649 4.89558e-21)
(1.06535 -0.0873989 -6.70841e-20)
(-0.0272303 -0.10873 -1.38202e-19)
(1.03419 -0.0820925 7.51006e-19)
(1.4507 -0.121194 -2.67002e-19)
(1.57214 -0.143742 -2.22434e-19)
(1.56621 -0.153509 5.54133e-20)
(1.52242 -0.157939 -4.45839e-19)
(1.47679 -0.158418 3.04216e-19)
(1.43841 -0.156789 -1.66885e-19)
(1.40527 -0.151732 9.18181e-20)
(1.37376 -0.145037 5.02981e-20)
(1.33796 -0.136791 2.69971e-20)
(1.30332 -0.13634 2.71255e-19)
(1.25702 -0.128143 -4.60333e-20)
(1.21321 -0.134763 -1.53314e-19)
(1.18666 -0.127649 1.1287e-19)
(1.16585 -0.118739 3.74037e-20)
(1.13605 -0.0981633 -3.50417e-20)
(1.11277 -0.0852064 5.237e-22)
(1.10801 -0.0767338 -9.3778e-20)
(1.08391 -0.0640336 1.89641e-19)
(0.135715 -0.0943172 -1.41557e-19)
(1.18785 -0.0335366 -2.6166e-19)
(1.52684 -0.0427093 1.64684e-19)
(1.58945 -0.0705848 -3.6406e-19)
(1.56677 -0.0868744 1.6747e-19)
(1.527 -0.0929061 2.16032e-19)
(1.48719 -0.0957577 -1.11125e-19)
(1.44394 -0.0980766 1.75266e-19)
(1.39609 -0.102148 -6.75726e-20)
(1.34935 -0.106532 -1.59425e-19)
(1.30786 -0.109539 -5.43537e-20)
(1.26815 -0.101848 1.48224e-19)
(1.23928 -0.10078 -3.62016e-20)
(1.22147 -0.0843929 -7.59907e-20)
(1.20117 -0.0775636 -1.29965e-21)
(1.17968 -0.0669836 1.09408e-20)
(1.16838 -0.0642294 -5.32827e-20)
(1.15863 -0.0562067 1.05219e-19)
(1.12555 -0.0498428 1.67358e-20)
(1.10862 -0.0371205 -4.37146e-21)
(0.354597 -0.000858537 -2.84303e-19)
(1.33599 0.0324982 2.39314e-19)
(1.59108 0.030389 -1.38658e-20)
(1.60891 -0.00724499 2.71487e-19)
(1.56987 -0.0235516 -3.3192e-19)
(1.52121 -0.0324725 5.09393e-20)
(1.47275 -0.038886 -3.82046e-20)
(1.42459 -0.0431739 -8.18071e-20)
(1.38399 -0.0455691 -2.71736e-20)
(1.34954 -0.0437852 1.54844e-19)
(1.32206 -0.0394688 -4.11816e-20)
(1.30023 -0.0419911 1.39832e-20)
(1.27913 -0.0365661 3.63085e-20)
(1.24927 -0.0427591 -1.4429e-20)
(1.22346 -0.0406998 3.39824e-21)
(1.20373 -0.0415164 -9.31079e-20)
(1.17803 -0.0344051 -2.42781e-20)
(1.14403 -0.0292616 -1.41984e-20)
(1.13306 -0.0258364 2.78065e-21)
(1.10896 -0.0207492 1.74771e-20)
(0.662786 0.0687279 9.41397e-20)
(1.45504 0.0669986 -1.043e-19)
(1.61166 0.0833672 -7.16218e-21)
(1.60287 0.0555873 1.11617e-19)
(1.55754 0.0403352 -5.3725e-21)
(1.50897 0.0296534 3.48303e-20)
(1.46712 0.0232783 -8.51363e-21)
(1.43189 0.0182536 3.83435e-20)
(1.39893 0.0137979 1.0145e-19)
(1.36898 0.00786932 1.14223e-20)
(1.33615 0.000482415 -6.19327e-20)
(1.29918 -0.000847927 2.55284e-20)
(1.25925 -0.00848709 -4.61141e-20)
(1.23075 -0.00581672 4.33186e-20)
(1.20777 -0.00810561 -2.71194e-20)
(1.18593 -0.00427006 4.39495e-20)
(1.16993 -0.00522451 1.86182e-20)
(1.16486 -0.00452225 -1.45888e-20)
(1.14014 -0.000569068 5.44774e-21)
(1.12561 0.0103554 -1.41912e-20)
(0.866118 0.0988022 8.67349e-20)
(1.54169 0.117919 -6.24822e-21)
(1.62116 0.148588 1.60773e-20)
(1.59158 0.120068 5.99809e-20)
(1.54419 0.106316 -6.01442e-20)
(1.49828 0.0935977 -2.49504e-20)
(1.4564 0.0803921 1.17667e-20)
(1.41156 0.0690682 9.50802e-21)
(1.36868 0.0568583 -6.44143e-21)
(1.32725 0.0475513 5.72224e-21)
(1.29332 0.0411768 -2.5512e-20)
(1.26581 0.0332135 1.53559e-20)
(1.25061 0.033173 -1.19375e-21)
(1.23315 0.0282079 -8.70636e-21)
(1.21766 0.0284698 9.90835e-21)
(1.20439 0.0241317 -4.90145e-21)
(1.18611 0.0253902 -4.50844e-21)
(1.15447 0.0252014 7.66068e-21)
(1.14089 0.021907 4.49871e-21)
(1.12261 0.02315 1.05775e-21)
(-0.0620864 0.333008 7.59466e-21)
(-0.199905 0.197988 -4.21638e-20)
(-0.276395 -0.0154712 -2.84771e-20)
(-0.0841658 0.458338 7.89887e-20)
(-0.171369 0.315469 8.0222e-20)
(-0.207704 0.0691262 -5.32511e-20)
(-0.216448 -0.193784 2.27759e-20)
(-0.092098 0.506197 9.15769e-21)
(-0.125414 0.378708 2.13661e-19)
(-0.1003 0.132581 -2.71107e-19)
(-0.0624036 -0.139662 1.67775e-19)
(-0.0902718 0.505712 2.16343e-20)
(-0.0723281 0.42108 -8.22628e-20)
(0.0110398 0.184392 2.02438e-19)
(0.0916676 -0.0829714 -7.22163e-20)
(-0.0737068 0.438496 -3.05562e-19)
(-0.0200396 0.403718 5.20025e-19)
(0.104047 0.194371 -6.81217e-19)
(0.222107 -0.0616388 1.58301e-19)
(-0.0375035 0.310675 6.45913e-20)
(0.0326892 0.334705 1.92163e-19)
(0.177626 0.180162 -1.45481e-19)
(0.318591 -0.0300874 5.9831e-19)
(0.434766 -0.231955 -8.88515e-19)
(0.00909989 0.149153 -4.88523e-19)
(0.071857 0.212337 1.38295e-19)
(0.213868 0.11696 -4.67625e-19)
(0.358097 -0.0432424 -1.68719e-19)
(0.455062 -0.204697 -2.67559e-19)
(0.502555 -0.353596 1.56098e-19)
(0.0401797 0.0158132 -1.16802e-19)
(0.0926074 0.0617556 -8.31452e-20)
(0.206794 0.00978188 -1.90715e-20)
(0.312428 -0.100697 3.48099e-19)
(0.385111 -0.230042 5.6103e-19)
(0.503621 -0.373934 1.61637e-19)
(0.716306 -0.525389 -1.18788e-19)
(0.0408214 -0.0414017 -4.82307e-19)
(0.085616 -0.0526266 2.31962e-19)
(0.153895 -0.0903465 -1.06641e-19)
(0.225143 -0.182319 1.10447e-18)
(0.395303 -0.312674 -5.18878e-19)
(0.699852 -0.455585 6.26524e-19)
(1.00549 -0.571828 -9.81445e-20)
(1.20658 -0.64198 -2.7356e-19)
(0.025087 -0.0410497 9.3681e-19)
(0.0525488 -0.0878313 -3.12666e-19)
(0.0924866 -0.141053 5.16229e-20)
(0.280817 -0.251156 3.28205e-19)
(0.675546 -0.383261 -5.34709e-19)
(1.0525 -0.486399 1.26795e-19)
(1.28267 -0.546331 2.84376e-20)
(1.36691 -0.575024 -1.5726e-19)
(1.34331 -0.582649 9.10689e-19)
(1.09044 0.0175687 4.75627e-22)
(1.1217 0.00580477 2.70034e-20)
(1.08296 -0.02139 -2.86016e-20)
(1.09062 -0.0360462 -4.89691e-20)
(1.07128 -0.0581109 -5.32701e-20)
(1.0776 0.025222 -3.90988e-21)
(1.08892 0.00972559 -2.2421e-20)
(1.07779 -0.00596799 2.86082e-22)
(1.05189 -0.0234742 2.91208e-20)
(1.06829 -0.0385683 -6.18584e-20)
(1.092 0.0163535 4.34122e-21)
(1.04916 0.00167925 2.30687e-20)
(1.08303 -0.00428666 1.39528e-20)
(1.02147 -0.0189876 1.14269e-21)
(1.06142 -0.026388 2.81422e-20)
(1.09319 0.0209606 -1.58771e-21)
(1.02979 0.0103029 -1.16166e-20)
(1.07668 0.00721974 -1.7373e-21)
(1.01625 -0.00502042 -4.99324e-21)
(1.04875 -0.00832181 7.16164e-21)
(1.07615 0.0146827 -1.37501e-21)
(1.03047 0.0115832 2.81386e-22)
(1.05975 0.00858917 6.07683e-21)
(1.02255 -0.000875791 8.80514e-21)
(1.03681 0.00052983 1.06672e-20)
(1.01233 -0.0148877 -2.26098e-20)
(1.05753 0.0141454 2.38103e-22)
(1.03464 0.0174834 5.12748e-22)
(1.04641 0.0123467 -6.76977e-21)
(1.02497 0.00375585 -8.65924e-21)
(1.03188 0.00967061 -1.22137e-20)
(1.01114 -0.00781486 -5.56572e-21)
(1.0464 0.0148125 1.20983e-21)
(1.03401 0.01716 1.97189e-21)
(1.04022 0.0153376 -1.25179e-20)
(1.02261 0.00493765 -4.92912e-22)
(1.03118 0.0159763 1.03722e-20)
(1.01204 -0.000430357 1.84799e-20)
(1.04218 0.0179617 -3.45125e-22)
(1.03137 0.016706 -2.98337e-21)
(1.03823 0.0188833 7.72178e-21)
(1.02123 0.00738767 7.91389e-21)
(1.03066 0.0193102 -3.4918e-22)
(1.01432 0.00664083 -9.36327e-21)
(1.04015 0.0213894 -6.4127e-22)
(1.02978 0.0157007 -7.93674e-22)
(1.03672 0.021348 -9.84721e-22)
(1.02255 0.0103159 -7.73813e-21)
(1.02887 0.0198047 -5.78657e-21)
(1.01798 0.0121098 1.01655e-20)
(1.03718 0.022642 9.52083e-22)
(1.02977 0.0161283 2.76468e-21)
(1.03348 0.0216711 -3.00339e-21)
(1.02552 0.0132833 9.59583e-23)
(1.026 0.0196597 2.96027e-21)
(1.02135 0.0152974 1.73403e-22)
(1.03353 0.022359 -3.47326e-22)
(1.0299 0.0165607 -1.24005e-22)
(1.03015 0.0209717 2.84113e-21)
(1.02757 0.0157287 2.41953e-21)
(1.02466 0.0195661 -2.18461e-21)
(1.0245 0.0182203 -4.83742e-21)
(1.03 0.0207724 4.37027e-23)
(1.02989 0.0167804 5.28303e-23)
(1.02762 0.0198916 -6.00376e-22)
(1.02867 0.0168437 -2.84266e-21)
(1.0251 0.0196293 3.12052e-22)
(1.02687 0.018665 -2.05362e-21)
(1.02763 0.0191546 -3.41881e-22)
(1.02874 0.0163039 -2.637e-22)
(1.02602 0.0187258 -3.73155e-22)
(1.02763 0.01632 1.19694e-21)
(1.02466 0.0187639 1.38622e-22)
(1.0251 0.0172238 3.33208e-21)
(1.02635 0.0177244 3.01139e-22)
(1.02672 0.0157628 2.44197e-22)
(1.02497 0.017334 8.87279e-22)
(1.02523 0.0153973 8.35288e-22)
(1.0243 0.0177918 2.51363e-22)
(1.02383 0.0163518 -1.77091e-21)
(1.02592 0.0171089 -1.28709e-22)
(1.02523 0.0148405 5.12554e-23)
(1.02498 0.0166437 -1.68646e-22)
(1.02391 0.0140763 -4.58514e-22)
(1.0249 0.0171674 -2.13245e-22)
(1.02327 0.0146469 -1.30916e-22)
(1.02597 0.0166477 5.29038e-23)
(1.02437 0.0142618 -2.22122e-22)
(1.02539 0.0161295 -1.0135e-22)
(1.02313 0.013011 4.33928e-22)
(1.02459 0.0161111 -1.57259e-22)
(1.02166 0.0126755 -1.5932e-22)
(1.02537 0.015902 -1.16144e-23)
(1.02302 0.0132262 5.43713e-24)
(1.02524 0.0155677 -8.68814e-23)
(1.02238 0.0122263 -1.47986e-22)
(1.02465 0.0155181 3.94834e-23)
(1.02178 0.0120524 -4.20695e-23)
(1.02367 0.0145885 6.90945e-24)
(1.02181 0.0119142 -3.08971e-23)
(1.02382 0.0144191 2.63674e-23)
(1.02201 0.0112834 -1.07384e-22)
(1.02379 0.0145246 6.4816e-23)
(1.02207 0.0113193 1.51004e-22)
(1.02284 0.0131382 2.03734e-24)
(1.02037 0.0109947 1.2841e-22)
(1.02283 0.0129254 1.36146e-23)
(1.02078 0.0103024 5.08118e-22)
(1.02263 0.0129252 -1.62069e-22)
(1.02103 0.0102496 -4.64581e-23)
(1.02312 0.0116922 2.33226e-24)
(1.01834 0.010661 2.90954e-23)
(1.02284 0.0111248 1.64904e-23)
(1.01914 0.0101759 -4.79336e-22)
(1.02227 0.0107795 -3.73222e-22)
(1.01999 0.0102434 2.98175e-22)
(1.02235 0.00982822 9.56879e-24)
(1.01734 0.0109072 -1.63263e-22)
(1.02191 0.00877232 -1.18348e-22)
(1.01861 0.0108825 8.32381e-23)
(1.02119 0.00807076 2.919e-22)
(1.01976 0.0110148 -3.31563e-22)
(1.01996 0.00757674 3.78925e-23)
(1.01761 0.0112386 -1.34445e-22)
(1.0198 0.00630939 2.93858e-24)
(1.01873 0.0114291 1.41341e-22)
(1.01957 0.0055878 2.14506e-22)
(1.0195 0.0113942 -4.87225e-22)
(1.01743 0.00602335 -5.53818e-23)
(1.01794 0.0105237 5.95108e-23)
(1.01775 0.00489634 2.3108e-23)
(1.01854 0.0107029 3.51579e-22)
(1.01824 0.00434275 -2.36354e-22)
(1.0188 0.0105412 -2.98434e-22)
(1.01582 0.00523096 8.6926e-23)
(1.01768 0.00885775 -1.66503e-22)
(1.0164 0.00448761 4.55749e-22)
(1.018 0.00886064 -5.15157e-22)
(1.01723 0.00416428 3.16573e-22)
(1.01802 0.00860108 -4.0616e-22)
(1.01519 0.00476692 2.64004e-23)
(1.01682 0.00686946 1.08982e-23)
(1.01572 0.00432492 -4.42661e-22)
(1.01708 0.00677648 -2.13848e-22)
(1.01647 0.00411803 3.06713e-22)
(1.01717 0.00656268 8.1294e-22)
(1.01475 0.00415436 -6.13706e-23)
(1.01599 0.00515178 8.12095e-23)
(1.01519 0.00389316 4.7146e-22)
(1.01633 0.00504966 2.86793e-22)
(1.01581 0.00375371 -3.7163e-22)
(1.01659 0.00492024 -5.68608e-23)
(1.01432 0.0034085 1.04235e-24)
(1.01533 0.00384797 -7.45991e-23)
(1.01472 0.00324902 5.58574e-23)
(1.01571 0.00378096 -2.13955e-23)
(1.01523 0.00314518 2.85351e-22)
(1.01601 0.00371472 -1.49641e-22)
(1.01397 0.00228579 6.28982e-24)
(1.01484 0.00251512 -1.04178e-23)
(1.01436 0.00219913 1.37861e-22)
(1.0152 0.00248791 -4.61957e-22)
(1.01478 0.0021359 1.61874e-22)
(1.01551 0.0024701 -5.94689e-22)
(1.01377 0.00136258 -5.72176e-23)
(1.01452 0.00150568 1.38731e-22)
(1.01413 0.001317 3.74156e-23)
(1.01485 0.00149449 8.42258e-24)
(1.01452 0.00127587 -6.24398e-23)
(1.01516 0.00148694 1.26751e-22)
(1.01367 0.000585847 1.32719e-22)
(1.01432 0.000637745 -1.04096e-22)
(1.01399 0.00056842 -2.02076e-22)
(1.01461 0.000630978 6.95249e-23)
(1.01432 0.000548976 4.18107e-22)
(1.0149 0.000622945 1.21595e-22)
(1.01138 0.150381 -1.39755e-20)
(1.00756 0.159401 1.31765e-20)
(1.00365 0.164824 1.57794e-20)
(0.999479 0.174456 8.46666e-21)
(0.99749 0.191595 1.98006e-21)
(1.00269 0.211491 1.40552e-20)
(1.00742 0.234442 -8.7994e-21)
(1.00063 0.255596 -3.70771e-20)
(0.99395 0.280728 4.12646e-20)
(0.997093 0.3096 -3.73762e-20)
(0.999262 0.342294 9.77754e-20)
(0.995568 0.376626 -6.61437e-20)
(0.991659 0.414455 -3.35752e-21)
(0.994516 0.459074 -5.19482e-21)
(0.999964 0.513003 2.08319e-20)
(1.00666 0.573197 6.43897e-20)
(1.00866 0.644625 -8.6084e-20)
(1.01215 0.721297 3.01108e-19)
(1.02617 0.806653 -3.62596e-19)
(0.778032 0.790015 3.10736e-20)
(1.02805 0.141651 -1.02896e-21)
(1.02357 0.161193 3.66717e-20)
(1.02519 0.173068 -2.66668e-20)
(1.02693 0.181106 -1.36071e-20)
(1.02282 0.192021 -2.89392e-20)
(1.01845 0.209504 6.4552e-21)
(1.02841 0.230077 5.80924e-20)
(1.03979 0.254904 1.1604e-20)
(1.03901 0.279177 -3.46091e-20)
(1.03592 0.306047 -2.12213e-20)
(1.04216 0.337647 7.02808e-20)
(1.05766 0.375036 -4.8721e-20)
(1.06945 0.417093 2.62713e-20)
(1.07511 0.461045 -2.98614e-20)
(1.07667 0.510014 9.64196e-21)
(1.08542 0.565285 -1.40416e-19)
(1.09736 0.633111 1.17135e-19)
(1.11506 0.70582 9.2975e-20)
(1.15516 0.778928 -9.37757e-20)
(0.886166 0.768666 4.97977e-19)
(1.04303 0.126617 -2.5386e-20)
(1.03823 0.148798 -1.0936e-20)
(1.03906 0.163803 -2.46245e-20)
(1.04908 0.177774 9.29371e-20)
(1.06309 0.190864 4.68699e-21)
(1.06511 0.205795 -6.35617e-20)
(1.06182 0.224475 -3.77928e-20)
(1.07015 0.243727 3.61176e-20)
(1.08152 0.268334 4.00979e-20)
(1.09112 0.295852 4.07419e-20)
(1.09624 0.326602 -1.45965e-19)
(1.10049 0.358914 8.79179e-20)
(1.10959 0.394937 -2.59652e-21)
(1.12555 0.436142 4.37747e-20)
(1.14564 0.485328 -1.95331e-19)
(1.16934 0.540621 1.66616e-19)
(1.19013 0.608487 1.48979e-19)
(1.21159 0.683613 5.41332e-21)
(1.25919 0.741343 -2.27357e-20)
(0.966376 0.731607 4.42926e-20)
(1.06046 0.12089 -4.67627e-20)
(1.06414 0.139341 4.23243e-20)
(1.06819 0.151691 1.44755e-20)
(1.06393 0.161749 -7.974e-21)
(1.06873 0.176211 -5.03405e-20)
(1.08469 0.193636 8.43658e-20)
(1.09673 0.213932 -1.11576e-19)
(1.10567 0.236705 1.19752e-20)
(1.11359 0.256478 5.69202e-21)
(1.12006 0.278159 4.12969e-20)
(1.1336 0.304956 9.01518e-20)
(1.15617 0.33847 -1.56216e-20)
(1.17932 0.377459 9.86128e-20)
(1.20006 0.418738 -1.19862e-19)
(1.21734 0.463201 1.51519e-19)
(1.24113 0.511065 1.61154e-20)
(1.27105 0.57114 -2.17506e-19)
(1.30411 0.64342 -6.2311e-20)
(1.36409 0.679799 7.26932e-20)
(1.0475 0.668177 -5.47669e-19)
(1.06237 0.108888 4.16996e-20)
(1.06732 0.12876 1.10798e-20)
(1.08811 0.141972 4.79552e-20)
(1.1081 0.151748 1.28684e-20)
(1.10943 0.162828 -2.68042e-20)
(1.11293 0.176414 -2.5021e-20)
(1.12036 0.192914 -5.56992e-20)
(1.13549 0.212192 -6.72586e-20)
(1.15485 0.237512 2.08761e-19)
(1.17515 0.262796 -1.82032e-19)
(1.18907 0.289202 -4.45841e-20)
(1.20152 0.316028 -2.08479e-20)
(1.21869 0.346293 -8.31887e-20)
(1.24273 0.379978 2.64724e-19)
(1.27276 0.420697 2.33387e-20)
(1.30904 0.465367 -3.76342e-19)
(1.3455 0.520994 1.1209e-19)
(1.38404 0.591651 -9.47597e-20)
(1.45292 0.611444 1.04011e-19)
(1.10069 0.600341 5.45579e-19)
(1.10501 0.0970114 -1.73599e-20)
(1.09498 0.112814 -6.90946e-20)
(1.09263 0.125914 1.34358e-20)
(1.1078 0.133764 -6.77844e-21)
(1.12435 0.144539 -3.85412e-20)
(1.13631 0.160251 2.59245e-20)
(1.15262 0.176745 -9.25773e-20)
(1.16434 0.194188 -2.82612e-20)
(1.17828 0.210048 1.20938e-19)
(1.18984 0.228432 -3.11621e-20)
(1.20845 0.249724 9.83158e-20)
(1.23529 0.275856 1.69948e-20)
(1.26729 0.307204 -4.85467e-20)
(1.30083 0.342072 1.06337e-19)
(1.33284 0.379028 -1.16002e-19)
(1.37022 0.417019 2.18117e-19)
(1.41341 0.463058 -1.92822e-19)
(1.45763 0.532609 -1.82655e-19)
(1.51623 0.533083 2.04497e-19)
(1.13086 0.512388 -2.18784e-19)
(1.09007 0.0908606 -3.66586e-20)
(1.11795 0.0987775 1.31207e-20)
(1.12929 0.107964 4.98365e-20)
(1.14059 0.120674 -5.56714e-20)
(1.15349 0.126695 1.08853e-20)
(1.15955 0.136169 9.44872e-21)
(1.16832 0.148989 -5.41013e-22)
(1.18812 0.163794 -5.46631e-20)
(1.21061 0.183173 9.43632e-20)
(1.24033 0.204527 -2.38255e-20)
(1.26475 0.227553 1.79608e-20)
(1.28799 0.250238 -1.54095e-20)
(1.31225 0.274446 -6.34641e-20)
(1.34091 0.299177 7.881e-20)
(1.37464 0.328815 -4.60289e-20)
(1.41718 0.359844 1.51237e-20)
(1.46474 0.393526 -3.59416e-19)
(1.51632 0.454062 2.42502e-19)
(1.57948 0.44548 2.59813e-19)
(1.1485 0.429198 -6.52773e-20)
(1.11595 0.0742337 -1.39895e-20)
(1.1117 0.0857187 4.88479e-21)
(1.13193 0.0874068 2.48115e-20)
(1.14302 0.092413 1.43066e-21)
(1.15903 0.105893 -1.81627e-20)
(1.17971 0.115798 2.62837e-20)
(1.19829 0.129357 -2.89196e-21)
(1.21593 0.141874 6.49722e-20)
(1.23682 0.154254 -7.67103e-21)
(1.25147 0.166011 1.24647e-20)
(1.27114 0.180149 6.92278e-21)
(1.29731 0.197268 -2.87732e-20)
(1.33338 0.218713 3.31474e-20)
(1.37551 0.244824 -7.31672e-20)
(1.41919 0.272803 1.714e-19)
(1.46583 0.3015 -1.00767e-19)
(1.51632 0.329126 2.15118e-19)
(1.5615 0.381854 -1.80231e-19)
(1.59438 0.362413 1.11081e-20)
(1.11135 0.337009 1.70775e-19)
(1.11928 0.0591927 1.8213e-20)
(1.13774 0.0630395 4.8667e-21)
(1.14657 0.0715251 -2.19864e-20)
(1.17118 0.0767286 -2.22481e-20)
(1.18413 0.0784402 3.04385e-21)
(1.19271 0.0864376 -1.12527e-20)
(1.20491 0.0921357 1.02207e-20)
(1.2231 0.101754 -5.3511e-20)
(1.24396 0.111896 1.43003e-20)
(1.27729 0.126942 -3.73278e-20)
(1.31026 0.142943 -8.42238e-21)
(1.34479 0.160198 1.55145e-20)
(1.37781 0.178701 2.77462e-20)
(1.4124 0.196027 -2.10788e-20)
(1.44848 0.216561 -7.58733e-20)
(1.49379 0.236708 -1.23828e-19)
(1.5459 0.255191 9.55472e-20)
(1.59604 0.293339 3.47809e-20)
(1.61703 0.267841 -1.02601e-20)
(1.08295 0.254565 -9.67663e-20)
(1.12042 0.0486681 -1.00498e-21)
(1.13312 0.0453085 3.92061e-22)
(1.15444 0.0425983 -2.78295e-21)
(1.16086 0.0475719 -5.59983e-21)
(1.17947 0.0556821 8.44048e-21)
(1.20182 0.0592579 4.2034e-21)
(1.22541 0.0691781 -1.04431e-20)
(1.2524 0.0763967 1.23462e-20)
(1.28484 0.0880877 1.58372e-20)
(1.30815 0.0952516 -1.45444e-20)
(1.33054 0.104409 1.49519e-21)
(1.35416 0.11303 3.85976e-20)
(1.38707 0.123361 -1.57798e-20)
(1.42777 0.137518 2.96874e-20)
(1.47512 0.1534 1.26603e-21)
(1.52648 0.171458 -1.33288e-20)
(1.57776 0.189251 6.62219e-20)
(1.61293 0.223091 1.40383e-20)
(1.57471 0.194437 -8.84566e-20)
(0.965155 0.17702 -6.43521e-20)
(0.820221 0.0168893 4.53662e-21)
(0.803922 0.0187449 3.76849e-21)
(0.785748 0.0205907 -7.33485e-21)
(0.764955 0.0227378 6.61144e-21)
(0.741819 0.0253152 4.57583e-22)
(0.715356 0.0283138 -1.09723e-20)
(0.686258 0.0316693 1.76788e-20)
(0.653078 0.0354482 -1.8537e-20)
(0.616664 0.0394703 3.65874e-20)
(0.575042 0.0441398 -2.37169e-20)
(0.528701 0.0492335 4.22767e-21)
(0.47522 0.0551946 1.54363e-20)
(0.415183 0.0619153 -1.11475e-20)
(0.343926 0.0694234 -1.51933e-20)
(0.265441 0.0775008 1.30512e-20)
(0.166994 0.0873017 -1.86486e-20)
(0.0566962 0.0896138 5.92409e-21)
(0.825693 0.0427603 -4.19253e-20)
(0.809572 0.0474889 -1.00232e-20)
(0.791876 0.0525482 -2.92433e-20)
(0.771749 0.0579801 -2.89411e-20)
(0.74952 0.0641106 3.03473e-20)
(0.723968 0.0709326 -1.68036e-20)
(0.695731 0.0786782 -1.01703e-20)
(0.663407 0.0872984 4.42785e-20)
(0.627977 0.0970234 -6.1005e-20)
(0.587264 0.107918 1.71144e-20)
(0.542397 0.120252 7.3931e-21)
(0.489806 0.134229 -6.56185e-20)
(0.431398 0.15017 -2.70655e-20)
(0.360181 0.168157 -7.78732e-21)
(0.282378 0.189079 4.25663e-20)
(0.181973 0.215896 5.77801e-21)
(0.0697371 0.205454 3.69608e-20)
(0.834825 0.0650521 -4.06375e-21)
(0.819397 0.0721706 5.52189e-22)
(0.802354 0.0798624 -4.99237e-21)
(0.783 0.0882027 5.57101e-21)
(0.761758 0.0973778 1.0266e-19)
(0.737408 0.107603 -7.81066e-20)
(0.71049 0.118996 2.10771e-20)
(0.679865 0.131946 -2.89354e-20)
(0.64615 0.146272 -3.92268e-20)
(0.607645 0.162998 4.13422e-20)
(0.565634 0.181554 1.97693e-20)
(0.516447 0.203284 2.71879e-20)
(0.462724 0.227648 -5.14511e-21)
(0.398223 0.256962 -5.96225e-20)
(0.325876 0.287211 1.45309e-19)
(0.233281 0.329309 -1.65346e-20)
(0.110145 0.315564 -3.98578e-20)
(0.85928 0.0817691 4.63761e-20)
(0.847808 0.090131 4.68243e-21)
(0.833526 0.0996748 1.16312e-20)
(0.817483 0.109953 -1.72449e-20)
(0.799515 0.121228 1.91578e-20)
(0.77966 0.133434 -8.58984e-21)
(0.757156 0.147282 -6.00171e-21)
(0.732205 0.162403 -4.9766e-20)
(0.703592 0.17953 3.7735e-20)
(0.672481 0.198619 3.1365e-20)
(0.635458 0.219884 -2.06117e-20)
(0.595197 0.244802 -9.13848e-20)
(0.548644 0.273259 3.60202e-20)
(0.497003 0.305849 7.24416e-20)
(0.435896 0.344051 8.10214e-20)
(0.370941 0.388447 -1.23196e-19)
(0.283075 0.447817 -5.08081e-20)
(0.15215 0.422849 -1.28966e-20)
(0.874237 0.0989736 -1.6565e-20)
(0.864108 0.10893 -8.64727e-21)
(0.850874 0.120494 -5.6856e-20)
(0.835913 0.132986 8.64923e-20)
(0.819226 0.14654 5.36181e-21)
(0.801286 0.161497 3.94424e-20)
(0.780696 0.178294 1.98983e-20)
(0.758628 0.197605 -4.44441e-20)
(0.733456 0.218742 1.94113e-20)
(0.70605 0.242709 5.98036e-20)
(0.676071 0.26955 1.82959e-20)
(0.638818 0.298201 -2.13404e-19)
(0.596412 0.33254 2.25613e-19)
(0.551016 0.372339 -1.29683e-19)
(0.497426 0.420176 -1.49325e-19)
(0.437357 0.46983 1.67626e-19)
(0.361514 0.543039 -1.36709e-19)
(0.220415 0.521687 1.15755e-20)
(0.896468 0.109621 3.74259e-20)
(0.891968 0.118388 -3.17798e-20)
(0.883454 0.129868 4.00703e-20)
(0.871632 0.142938 -1.87979e-20)
(0.858219 0.157319 -6.03534e-20)
(0.843433 0.172454 5.65187e-20)
(0.827653 0.188927 -2.05352e-20)
(0.810017 0.207327 -5.1545e-21)
(0.789307 0.228496 -2.47889e-20)
(0.767827 0.253718 2.26133e-20)
(0.742379 0.281238 -3.79693e-20)
(0.715883 0.313932 1.23813e-20)
(0.689821 0.350954 3.0599e-20)
(0.652898 0.390138 -1.20046e-19)
(0.609134 0.433359 1.76913e-19)
(0.560707 0.487508 -4.00628e-20)
(0.514802 0.548752 3.71914e-20)
(0.444834 0.633695 9.04239e-21)
(0.28855 0.608589 7.04878e-20)
(0.912391 0.114611 6.3169e-20)
(0.914668 0.120598 1.1183e-20)
(0.911848 0.131551 -9.27368e-20)
(0.904515 0.144975 8.96441e-20)
(0.89407 0.161044 -5.24214e-21)
(0.882174 0.178239 -3.30404e-20)
(0.869707 0.196898 -4.4013e-20)
(0.85623 0.216119 5.03659e-20)
(0.842801 0.237 4.54813e-20)
(0.826536 0.259015 3.37922e-20)
(0.807271 0.284542 7.34865e-20)
(0.789094 0.314461 -7.69421e-20)
(0.76372 0.347406 -4.38646e-20)
(0.737707 0.386339 1.26198e-19)
(0.714503 0.434649 -5.90151e-20)
(0.68686 0.486697 -2.7018e-20)
(0.642917 0.546409 -3.60123e-20)
(0.602514 0.610634 3.54229e-20)
(0.554734 0.703081 -1.37759e-20)
(0.382293 0.678019 -3.98793e-20)
(0.931087 0.126791 4.44245e-20)
(0.936507 0.131345 -1.21975e-20)
(0.93488 0.140448 1.34014e-20)
(0.928687 0.153942 -6.89042e-20)
(0.919521 0.16897 -8.74965e-21)
(0.90961 0.186832 2.47613e-20)
(0.899811 0.206966 5.08472e-20)
(0.889501 0.229678 -4.18966e-20)
(0.877324 0.254904 -1.81135e-20)
(0.867068 0.282622 3.58714e-21)
(0.850826 0.311642 5.51067e-21)
(0.834099 0.344037 -5.33454e-20)
(0.821086 0.382583 -2.86449e-20)
(0.803715 0.423854 1.33516e-20)
(0.776806 0.470435 3.12784e-20)
(0.754074 0.524076 -1.95455e-20)
(0.72715 0.588834 7.58723e-21)
(0.697685 0.658437 1.17336e-20)
(0.661999 0.757051 8.95483e-21)
(0.473913 0.736829 -2.92816e-20)
(0.952205 0.13787 -1.82935e-20)
(0.959321 0.145379 -2.62676e-20)
(0.95852 0.158854 3.7445e-20)
(0.952718 0.173733 -2.28965e-20)
(0.945014 0.190389 -1.20285e-20)
(0.936842 0.205608 1.14681e-21)
(0.928851 0.223498 3.17992e-21)
(0.924798 0.243675 7.36791e-21)
(0.917521 0.267197 1.10068e-20)
(0.90973 0.294638 3.14438e-20)
(0.903563 0.326588 1.62274e-21)
(0.890087 0.360246 -8.12807e-21)
(0.871126 0.397915 4.58458e-21)
(0.860115 0.442679 -4.27048e-21)
(0.851904 0.496344 -1.37253e-20)
(0.839913 0.555944 -3.53048e-21)
(0.819045 0.624872 2.60805e-21)
(0.802736 0.697409 -2.65151e-20)
(0.783656 0.793671 -5.14045e-20)
(0.575094 0.770961 7.4698e-20)
(0.978458 0.131216 -1.89414e-21)
(0.984706 0.136905 -6.19603e-21)
(0.982244 0.150162 5.32996e-21)
(0.977862 0.169833 3.15349e-21)
(0.97351 0.190738 4.51179e-21)
(0.969766 0.212747 2.17742e-21)
(0.960738 0.232584 -2.47569e-21)
(0.953499 0.255175 3.34287e-21)
(0.952819 0.280356 5.07421e-21)
(0.949687 0.307896 -1.28892e-20)
(0.94519 0.339341 -1.73658e-20)
(0.946581 0.375461 1.12897e-20)
(0.944589 0.416727 -4.59725e-20)
(0.935793 0.461166 -1.06014e-20)
(0.92287 0.511278 3.0711e-20)
(0.917265 0.568664 -1.06878e-19)
(0.909153 0.639114 3.74138e-20)
(0.904212 0.712599 -7.51822e-20)
(0.909981 0.807061 1.60823e-20)
(0.683094 0.792297 -1.19549e-19)
(0.923452 0.12613 -1.29297e-20)
(0.939158 0.134653 4.92561e-20)
(0.960194 0.100139 3.92564e-21)
(0.962755 0.128589 1.37331e-20)
(0.982085 0.0977481 0)
(0.989126 0.143178 0)
(0.988621 0.0998631 0)
(1.00069 0.113688 0)
(0.991445 0.0932783 0)
(1.00565 0.0967828 0)
(0.996417 0.0850364 0)
(1.00852 0.0860965 0)
(1.00292 0.076589 0)
(1.01341 0.0781365 0)
(1.00829 0.0686375 0)
(1.01855 0.0718278 0)
(1.01154 0.0617194 0)
(1.0223 0.0664029 0)
(1.01359 0.0556828 0)
(1.02449 0.0616114 0)
(1.01566 0.0507123 0)
(1.02429 0.0568594 0)
(1.01744 0.0465641 0)
(1.02284 0.0518465 0)
(1.0187 0.0425728 0)
(1.02119 0.0472215 0)
(1.01951 0.0391917 0)
(1.02031 0.0431496 0)
(1.01987 0.0361696 0)
(1.02024 0.0399609 0)
(1.02008 0.0330221 0)
(1.02058 0.0366704 0)
(1.02 0.0295566 0)
(1.02055 0.0334665 0)
(1.01889 0.0259702 0)
(1.0197 0.029926 0)
(1.01809 0.0229192 0)
(1.01844 0.0263911 0)
(1.0182 0.0209733 0)
(1.01784 0.0236576 0)
(1.0178 0.0194159 0)
(1.0177 0.0211231 0)
(1.01736 0.0182836 0)
(1.01677 0.0178181 0)
(1.01743 0.0173485 0)
(1.01531 0.0143359 0)
(1.01687 0.0157501 0)
(1.01473 0.0118608 0)
(1.01572 0.0133334 0)
(1.01467 0.0104195 0)
(1.01461 0.0107256 0)
(1.0144 0.00936778 0)
(1.01365 0.0085122 0)
(1.01387 0.00813753 0)
(1.01285 0.00666986 0)
(1.0132 0.00672074 0)
(1.01221 0.00496778 0)
(1.01265 0.00512538 0)
(1.01177 0.00302922 0)
(1.01231 0.00312604 0)
(1.01081 0.00159508 0)
(1.01161 0.0016296 0)
(1.01059 0.000618038 0)
(1.01145 0.000643334 0)
(1.01668 0.129558 6.76571e-21)
(1.03729 0.11091 -1.1057e-20)
(1.05357 0.0983938 4.87851e-20)
(1.05968 0.0972466 -3.49348e-21)
(1.0721 0.0797508 -2.16281e-20)
(1.09944 0.0789957 3.50856e-20)
(1.07758 0.0651497 3.94425e-20)
(1.1306 0.0547763 2.40172e-20)
(1.08456 0.0464049 -2.44262e-20)
(1.13338 0.0337831 -4.33382e-22)
(1.0163 0.111444 -5.73718e-21)
(1.03586 0.0949737 -9.4662e-21)
(1.05287 0.0937119 -2.53363e-20)
(1.05082 0.0915211 4.59572e-21)
(1.07431 0.0789147 -1.89574e-20)
(1.07206 0.0839934 5.02616e-20)
(1.08642 0.0611623 -2.39804e-20)
(1.0991 0.0647497 2.49058e-22)
(1.07925 0.0472281 7.26684e-21)
(1.11002 0.0372069 3.8576e-21)
(1.01475 0.0994535 7.53414e-21)
(1.03684 0.0851855 1.95736e-20)
(1.04901 0.0845989 -1.46741e-20)
(1.0542 0.0743815 2.41523e-20)
(1.07109 0.0677919 1.18678e-20)
(1.06197 0.0649499 -2.2455e-20)
(1.09376 0.0463067 -1.62373e-21)
(1.06704 0.0514027 -1.39851e-20)
(1.0981 0.0301279 2.14134e-21)
(1.06848 0.0266907 -4.24391e-21)
(1.01623 0.0876905 -1.26108e-20)
(1.03835 0.0758249 -2.65555e-20)
(1.04593 0.0745954 7.63248e-21)
(1.05732 0.0663907 1.20352e-22)
(1.06093 0.0631387 6.17185e-21)
(1.06183 0.0595206 -7.1027e-21)
(1.08048 0.0480107 5.07137e-21)
(1.0559 0.0508377 9.57814e-22)
(1.09506 0.0320122 1.23959e-21)
(1.04454 0.0333623 1.58881e-21)
(1.01918 0.0768279 9.50853e-21)
(1.04071 0.0691427 2.52482e-21)
(1.0432 0.0666526 1.95539e-20)
(1.05782 0.0610134 1.12146e-20)
(1.05249 0.0546177 -4.36371e-21)
(1.06267 0.052851 -1.08974e-20)
(1.06366 0.0398382 -8.87831e-21)
(1.05772 0.0431553 -6.56706e-21)
(1.07562 0.0242658 -1.29258e-22)
(1.04284 0.0300424 1.16619e-21)
(1.02187 0.0676691 3.43611e-21)
(1.04221 0.0647932 8.92914e-21)
(1.04039 0.0590683 -2.13703e-20)
(1.05721 0.0573709 -1.61434e-20)
(1.04623 0.0477326 6.77824e-21)
(1.06227 0.0503502 1.37289e-20)
(1.05169 0.0352029 8.54733e-21)
(1.05961 0.0425775 6.80968e-21)
(1.05769 0.022421 -8.70133e-23)
(1.0469 0.0324723 -2.66115e-22)
(1.02366 0.0606045 -5.23654e-21)
(1.0426 0.0608872 -6.60489e-21)
(1.03905 0.0526141 6.89652e-21)
(1.0552 0.0547396 -1.2642e-20)
(1.0428 0.0421349 -2.06442e-20)
(1.05986 0.0479008 -1.16257e-20)
(1.04545 0.0308635 1.11977e-22)