/*--------------------------------*- C++ -*----------------------------------*\
| =========                 |                                                 |
| \\      /  F ield         | OpenFOAM: The Open Source CFD Toolbox           |
|  \\    /   O peration     | Version:                                        |
|   \\  /    A nd           | Website:  www.openfoam.com                      |
|    \\/     M anipulation  |                                                 |
\*---------------------------------------------------------------------------*/
FoamFile
{
    version     2.0;
    format      ascii;
    class       volVectorField;
    location    "105.7";
    object      U;
}
// * * * * * * * * * * * * * * * * * * * * * * * * * * * * * * * * * * * * * //

dimensions      [0 1 -1 0 0 0 0];


internalField   nonuniform List<vector> 
1139
(
(0.922141 0.0964995 2.00834e-20)
(1.08461 0.0273314 -6.1462e-20)
(1.20213 -0.0322671 6.00732e-21)
(1.27443 -0.0840339 4.00429e-20)
(1.26755 -0.0941452 -4.03621e-21)
(1.23771 -0.0934421 -5.57559e-21)
(1.29919 -0.119833 2.08148e-21)
(1.18571 -0.0990518 -4.18683e-21)
(1.24602 -0.111321 -2.14566e-20)
(1.29563 -0.126185 -1.92547e-22)
(1.17523 -0.113525 2.1175e-20)
(1.27913 -0.0948104 3.37539e-20)
(1.22142 -0.139206 1.98748e-22)
(1.22586 -0.0930898 -2.83576e-22)
(1.2635 -0.11093 -2.81437e-20)
(1.20414 -0.104326 1.68984e-21)
(1.28072 -0.0936563 -4.28936e-21)
(1.226 -0.09555 1.00294e-20)
(1.21408 -0.0986198 2.25639e-20)
(1.23172 -0.11528 -8.64149e-23)
(1.28334 -0.0709355 -1.0849e-20)
(1.20915 -0.0961899 -1.53437e-21)
(1.22026 -0.0935094 -7.54189e-21)
(1.30138 -0.0323251 4.83293e-21)
(1.2702 -0.0656694 5.37692e-21)
(1.21879 -0.0777281 1.07171e-21)
(1.21682 -0.0732606 -1.74503e-21)
(0.104822 0.703916 -4.83941e-20)
(0.111101 0.460104 5.64121e-20)
(0.0611481 0.497296 4.34028e-20)
(-0.0101843 0.495909 -2.69314e-19)
(-0.0788483 0.51704 -6.27873e-20)
(-0.17022 0.497541 -6.4563e-20)
(0.120909 0.168842 -4.68085e-22)
(0.0477752 0.234558 -6.55369e-21)
(-0.0363954 0.255298 9.02093e-20)
(-0.122107 0.320423 1.97703e-19)
(-0.24212 0.349211 4.22029e-19)
(-0.323387 0.349093 3.4478e-19)
(0.150847 -0.117911 -2.31744e-20)
(0.0553845 -0.0352071 1.76618e-19)
(-0.0486668 0.00896214 1.46126e-19)
(-0.139665 0.109209 -1.71142e-19)
(-0.28826 0.181308 -5.86288e-19)
(-0.381272 0.257759 -1.98374e-20)
(-0.454905 0.257447 -2.19362e-19)
(0.172686 -0.347214 3.40082e-20)
(0.0668661 -0.263405 -1.20387e-19)
(-0.0464924 -0.211223 -6.65866e-20)
(-0.146727 -0.0948983 -5.14085e-20)
(-0.308084 0.0059064 6.32669e-19)
(-0.417645 0.127553 -1.30925e-19)
(-0.494268 0.178035 -4.29122e-20)
(-0.414676 0.206223 -2.94714e-20)
(0.192136 -0.549487 2.1479e-20)
(0.0738957 -0.458141 -4.33336e-20)
(-0.0400167 -0.402923 -1.15616e-19)
(-0.142623 -0.281474 3.20225e-20)
(-0.310176 -0.163829 -3.16192e-20)
(-0.444004 -0.0100083 -7.62853e-20)
(-0.509294 0.0857189 -3.8037e-19)
(-0.400243 0.147199 -1.29598e-19)
(-0.328118 0.165354 -2.72774e-20)
(0.244698 -0.789208 -5.46478e-20)
(0.0969521 -0.679413 1.33834e-20)
(-0.0291838 -0.603308 1.5745e-19)
(-0.134307 -0.462239 9.06255e-20)
(-0.299374 -0.333906 -3.52015e-19)
(-0.442921 -0.15607 2.04618e-19)
(-0.489587 -0.00887572 1.04914e-19)
(-0.35458 0.0791278 2.45656e-19)
(-0.217643 0.128802 7.30113e-20)
(0.148703 0.187089 2.94218e-20)
(0.32544 -1.04424 3.7391e-20)
(0.141621 -0.926225 9.50492e-20)
(0.00443837 -0.828652 -2.99665e-20)
(-0.108185 -0.64973 -1.74042e-19)
(-0.28379 -0.501866 1.61988e-19)
(-0.424155 -0.306228 -3.15743e-20)
(-0.416066 -0.0995315 -5.16923e-20)
(-0.246693 0.0334045 6.97059e-20)
(-0.0554638 0.0852203 -9.75313e-20)
(0.385808 0.14115 -3.24809e-21)
(0.390548 -1.24146 -4.10978e-20)
(0.188588 -1.14238 -3.81695e-20)
(0.0521586 -1.02316 -2.14062e-19)
(-0.0580888 -0.834217 -1.29341e-20)
(-0.241739 -0.654363 -2.82131e-20)
(-0.37629 -0.424945 1.24704e-19)
(-0.348818 -0.238933 -4.53376e-20)
(-0.154081 -0.0745602 2.16514e-20)
(0.11943 0.0312349 -1.09927e-20)
(0.615496 0.0739147 -3.38065e-20)
(0.430182 -1.35229 -3.17524e-20)
(0.231348 -1.30575 1.41455e-19)
(0.106409 -1.17109 2.40772e-19)
(-0.0145455 -0.990196 2.03824e-19)
(-0.188483 -0.817059 6.15298e-20)
(-0.27244 -0.505967 -1.97945e-19)
(-0.184047 -0.220738 8.85981e-20)
(0.0181201 -0.101886 5.49436e-21)
(0.31072 -0.0502664 -5.04906e-21)
(0.812736 0.00143695 4.43107e-22)
(0.444737 -1.37282 2.66662e-20)
(0.295405 -1.36196 -2.76581e-20)
(0.196388 -1.23581 -9.71385e-21)
(0.0520164 -1.05932 5.93842e-20)
(-0.086564 -0.901356 -8.3023e-20)
(-0.177672 -0.725572 8.16949e-20)
(-0.111308 -0.47014 -1.47376e-20)
(0.134094 -0.219352 -1.36528e-20)
(0.511383 -0.0920417 -2.58005e-21)
(1.00555 -0.0567749 4.40459e-21)
(0.395757 -1.35808 2.97488e-20)
(0.298943 -1.35793 -1.34398e-20)
(0.222611 -1.28122 -9.02379e-20)
(0.087099 -1.13342 1.54358e-20)
(-0.0405856 -0.947351 -4.61134e-20)
(-0.0898068 -0.722142 6.27565e-20)
(0.0733216 -0.438659 -1.9292e-21)
(0.35095 -0.254008 -2.82647e-20)
(0.722475 -0.175768 -2.95342e-20)
(1.15808 -0.128565 -1.3434e-20)
(0.460923 -1.31032 -2.2983e-20)
(0.376211 -1.3426 6.15665e-20)
(0.279809 -1.30855 -2.36858e-20)
(0.184306 -1.18581 -7.02204e-20)
(0.089772 -1.06622 -1.09469e-19)
(0.0610634 -0.88937 1.31399e-20)
(0.248982 -0.574853 1.02053e-21)
(0.539579 -0.336258 8.5383e-21)
(0.933392 -0.197487 1.59843e-20)
(1.29267 -0.134845 1.36442e-20)
(0.378613 -1.2339 -1.52214e-20)
(0.323477 -1.26671 2.24352e-19)
(0.25293 -1.25844 -5.85185e-21)
(0.165562 -1.17832 -1.01002e-19)
(0.101681 -1.06323 7.29795e-20)
(0.229579 -0.801921 4.05132e-20)
(0.532435 -0.482563 1.24765e-20)
(0.807776 -0.314781 3.26573e-20)
(1.15727 -0.213391 1.8344e-20)
(1.39594 -0.163824 -6.49575e-21)
(0.442398 -1.28754 -5.08419e-20)
(0.3554 -1.30501 -1.44983e-20)
(0.287312 -1.23239 -2.82638e-19)
(0.300137 -1.10037 -3.98754e-20)
(0.405634 -0.934676 3.62235e-20)
(0.600931 -0.689926 -6.11758e-20)
(0.784292 -0.474809 -3.99908e-20)
(1.00881 -0.32515 -1.66137e-20)
(1.3557 -0.18157 -1.04691e-20)
(1.41684 -0.122202 9.07259e-21)
(0.375553 -1.27163 -8.92733e-22)
(0.366066 -1.25032 -4.00125e-20)
(0.366787 -1.09279 2.26937e-19)
(0.436392 -0.912625 1.84364e-19)
(0.567946 -0.734059 1.48574e-19)
(0.751715 -0.5366 -6.44787e-20)
(0.983242 -0.361297 3.26315e-20)
(1.3053 -0.202107 2.21655e-21)
(1.52405 -0.110838 -2.40972e-20)
(1.33916 -0.124782 7.91967e-22)
(0.408539 -1.18803 2.28306e-20)
(0.462145 -1.08676 -1.09961e-20)
(0.544252 -0.854293 2.31996e-20)
(0.68509 -0.650924 -1.80006e-19)
(0.869263 -0.497714 -3.99385e-19)
(1.07772 -0.354661 1.56898e-19)
(1.30132 -0.220814 -2.20807e-21)
(1.5012 -0.112858 -2.27164e-20)
(1.49091 -0.0827608 4.73017e-20)
(1.29334 -0.0914117 -1.20947e-21)
(0.469875 -0.903093 -2.71545e-20)
(0.600989 -0.804656 1.72407e-20)
(0.711818 -0.625772 -1.36911e-20)
(0.83167 -0.452879 1.64699e-19)
(0.991551 -0.306346 3.41524e-19)
(1.2002 -0.173406 -1.8853e-19)
(1.42259 -0.0528602 -5.44446e-21)
(1.57086 0.0130531 6.17737e-20)
(1.4857 -0.0101431 -3.41003e-21)
(1.32782 -0.0337862 -1.30044e-21)
(0.59674 -0.342445 6.91834e-21)
(0.76281 -0.252897 4.63331e-20)
(0.891301 -0.157107 -2.23588e-20)
(1.02332 -0.0481891 -8.40184e-20)
(1.19622 0.0586875 1.29471e-20)
(1.39091 0.139142 5.55392e-20)
(1.55348 0.1736 4.88623e-20)
(1.59678 0.140561 -3.06942e-20)
(1.46557 0.051691 -1.83742e-20)
(1.35961 0.013059 -2.86787e-21)
(0.709491 0.277986 1.41282e-20)
(0.910135 0.362136 -1.65926e-21)
(1.07089 0.393999 -3.09005e-20)
(1.23954 0.436744 -1.24167e-19)
(1.40966 0.449284 -3.74428e-19)
(1.54917 0.423019 -1.21253e-19)
(1.62236 0.34999 1.16179e-19)
(1.57704 0.233415 -5.46847e-20)
(1.45291 0.126075 3.58268e-22)
(1.38607 0.0780352 -2.17816e-20)
(0.784355 0.761876 -2.56477e-20)
(0.994098 0.819075 -4.63083e-20)
(1.16869 0.806055 -9.49118e-20)
(1.33206 0.784184 8.82491e-20)
(1.4619 0.709135 2.57006e-19)
(1.55046 0.606427 4.18424e-20)
(1.57093 0.465543 -1.98231e-20)
(1.51149 0.317536 7.49669e-20)
(1.43866 0.208126 -1.24715e-20)
(1.38929 0.138185 1.90115e-20)
(0.805989 1.00029 1.69016e-20)
(0.990355 1.04479 -2.32981e-20)
(1.15349 1.00587 1.06391e-19)
(1.29766 0.943292 -5.29637e-20)
(1.40142 0.823246 5.37913e-21)
(1.46194 0.693323 1.38661e-19)
(1.4655 0.538012 -9.69925e-20)
(1.43377 0.406447 -6.37899e-20)
(1.40042 0.301 -1.304e-20)
(1.36406 0.210477 2.78341e-20)
(0.807047 1.04545 -4.08808e-21)
(0.956508 1.07728 1.29058e-20)
(1.08035 1.02788 1.17856e-20)
(1.19116 0.963165 7.55599e-20)
(1.2762 0.845177 -5.51576e-20)
(1.32914 0.720981 -7.38398e-20)
(1.35853 0.576973 -4.69909e-20)
(1.3602 0.462921 -1.00955e-20)
(1.34759 0.358885 2.70566e-20)
(1.3266 0.274531 -3.40658e-20)
(0.81207 1.03034 -2.29608e-21)
(0.92462 1.03846 6.7417e-21)
(1.01138 0.978849 -3.71222e-20)
(1.09719 0.914816 -4.20559e-20)
(1.16592 0.811487 -2.02763e-21)
(1.20981 0.72102 3.00926e-20)
(1.24704 0.602881 2.67491e-20)
(1.26538 0.509372 4.17017e-21)
(1.27637 0.406843 -5.40136e-21)
(1.27382 0.3289 2.98889e-20)
(0.800985 0.982102 4.16985e-21)
(0.864039 0.969074 -1.80726e-20)
(0.917262 0.926063 4.41135e-21)
(0.98491 0.865304 4.00673e-21)
(1.05254 0.771395 1.28223e-20)
(1.10888 0.701906 -6.19223e-20)
(1.14823 0.600026 6.26406e-21)
(1.18544 0.527769 5.77558e-20)
(1.2103 0.451974 3.61096e-20)
(1.2258 0.376522 -1.13043e-20)
(0.805411 0.935492 -2.56233e-21)
(0.823202 0.893187 1.97073e-20)
(0.852484 0.858096 -6.28335e-21)
(0.89174 0.816028 3.53445e-20)
(0.957397 0.746041 3.86777e-20)
(1.01271 0.690784 7.68118e-20)
(1.04849 0.607514 3.54688e-21)
(1.10876 0.533508 -1.22781e-20)
(1.13484 0.469807 -5.54474e-20)
(1.15042 0.405014 -1.33282e-20)
(0.763631 0.953722 7.8152e-21)
(0.752353 0.885758 1.32422e-20)
(0.783717 0.829132 5.01689e-21)
(0.804854 0.770328 -8.45213e-21)
(0.879313 0.71246 -2.37228e-20)
(0.926021 0.65373 -2.01655e-20)
(0.96262 0.604439 5.10448e-21)
(1.02699 0.545038 1.01701e-20)
(1.06649 0.479075 2.32391e-20)
(1.09407 0.421384 1.61368e-20)
(0.709119 0.995743 4.41467e-23)
(0.666884 0.914302 -2.50602e-21)
(0.68824 0.846214 2.72343e-20)
(0.697481 0.759994 1.50826e-20)
(0.779122 0.693689 -1.61788e-20)
(0.836596 0.613298 2.04398e-20)
(0.886254 0.562176 1.04762e-23)
(0.931076 0.521086 6.37668e-22)
(0.965263 0.478128 -3.02206e-22)
(1.00816 0.419826 -6.58809e-21)
(0.632895 0.988457 9.19748e-22)
(0.567217 0.900413 -2.7505e-20)
(0.567609 0.831235 -2.05756e-21)
(0.574629 0.749957 -9.30604e-21)
(0.648075 0.687123 2.56561e-21)
(0.721982 0.603143 -3.81526e-20)
(0.801561 0.534781 2.3635e-20)
(0.868109 0.476057 -6.35162e-21)
(0.903945 0.455554 1.29583e-21)
(0.939333 0.426598 -5.83312e-21)
(0.536602 0.874709 -5.75588e-21)
(0.456707 0.791563 -7.46534e-21)
(0.446872 0.72006 1.44286e-20)
(0.459657 0.656439 2.00642e-20)
(0.517426 0.61245 -2.37743e-20)
(0.588097 0.555747 1.71282e-20)
(0.670084 0.500094 -8.69485e-21)
(0.75293 0.435272 -8.38345e-21)
(0.82325 0.391404 2.888e-21)
(0.871693 0.373916 3.38555e-21)
(0.439568 0.616423 -6.00297e-21)
(0.336701 0.569333 5.67257e-20)
(0.309031 0.521187 -2.52016e-20)
(0.339244 0.493014 -3.83255e-20)
(0.406497 0.470566 -1.48094e-20)
(0.48371 0.452411 1.68865e-20)
(0.569404 0.434333 -9.47498e-21)
(0.653278 0.410762 -3.09022e-21)
(0.739367 0.374365 -4.57764e-21)
(0.810603 0.35043 1.66133e-21)
(0.395058 0.205336 5.39335e-21)
(0.281318 0.20744 -4.45716e-20)
(0.239343 0.197588 1.71232e-20)
(0.263698 0.224837 -1.29679e-20)
(0.322109 0.237826 2.93004e-20)
(0.403 0.264138 2.0455e-22)
(0.492696 0.283077 1.70086e-20)
(0.568988 0.297589 3.33661e-21)
(0.646548 0.304968 8.47409e-23)
(0.732788 0.309479 -4.51308e-21)
(0.379403 -0.256536 6.67395e-22)
(0.264261 -0.199351 1.90388e-20)
(0.218593 -0.159606 -2.41302e-20)
(0.248713 -0.0821083 3.62881e-20)
(0.294062 -0.0300223 -6.41894e-21)
(0.375404 0.0384441 -2.03466e-20)
(0.444115 0.0837286 -4.53578e-21)
(0.510841 0.130876 -4.24947e-21)
(0.588411 0.159787 5.13941e-22)
(0.665019 0.204307 4.26072e-21)
(0.42362 -0.61819 6.08116e-22)
(0.336746 -0.530687 2.28791e-22)
(0.306597 -0.457197 -2.09001e-20)
(0.326475 -0.351703 -7.34833e-21)
(0.349073 -0.270399 1.80353e-20)
(0.41263 -0.167572 -2.99516e-21)
(0.451505 -0.112394 -7.99899e-21)
(0.498098 -0.0394593 3.77086e-21)
(0.560546 0.00118506 -6.81795e-22)
(0.618778 0.0550633 2.18073e-21)
(0.485851 -0.806643 2.65356e-21)
(0.437741 -0.722383 -1.93358e-20)
(0.420709 -0.651204 2.46493e-20)
(0.428398 -0.549405 4.65418e-21)
(0.448393 -0.459272 4.2434e-21)
(0.4772 -0.343276 -5.18568e-21)
(0.501991 -0.271921 -1.43455e-20)
(0.540194 -0.188335 3.23183e-22)
(0.578316 -0.137101 2.23313e-21)
(0.588585 -0.0892645 -2.26057e-21)
(0.580918 -0.860802 -4.73895e-21)
(0.56616 -0.799444 2.50338e-20)
(0.554866 -0.745393 1.7395e-20)
(0.562418 -0.654899 -2.14362e-20)
(0.587036 -0.56992 -1.91163e-20)
(0.585882 -0.465577 1.05002e-21)
(0.604513 -0.368695 6.30008e-21)
(0.597247 -0.286642 -4.00408e-23)
(0.611871 -0.224449 6.74875e-22)
(0.614121 -0.186583 2.41791e-22)
(0.64847 -0.876266 2.01004e-21)
(0.64597 -0.855793 -9.31698e-21)
(0.662985 -0.814555 -9.02895e-21)
(0.684784 -0.744728 1.93515e-21)
(0.712808 -0.656155 1.94831e-20)
(0.728406 -0.558261 3.60267e-20)
(0.744914 -0.437537 2.25936e-20)
(0.704307 -0.348355 1.48245e-21)
(0.703935 -0.238402 -2.80876e-21)
(0.667356 -0.203941 -6.67131e-22)
(0.874545 -0.581466 -6.49631e-21)
(0.864459 -0.469087 7.73918e-22)
(0.838186 -0.304162 7.05267e-21)
(0.744467 -0.208232 -1.77405e-21)
(1.30978 -0.00638976 0)
(1.27846 -0.00884776 0)
(1.23914 0.0032149 0)
(1.20931 0.0116978 0)
(1.18744 0.0144203 0)
(1.16765 0.0150614 0)
(1.15062 0.016721 0)
(1.13399 0.0169492 0)
(1.11782 0.0166492 0)
(1.10434 0.0154238 0)
(1.09386 0.0119494 0)
(1.08364 0.00834208 0)
(1.07401 0.0045079 0)
(1.06591 0.00141418 0)
(1.05802 -0.00187213 0)
(1.05113 -0.00464487 0)
(1.04456 -0.00734994 0)
(1.03787 -0.00858174 0)
(1.03231 -0.00876229 0)
(1.02808 -0.00803131 0)
(1.0255 -0.00727083 0)
(1.02329 -0.00646482 0)
(1.02147 -0.00566088 0)
(1.02001 -0.00499903 0)
(1.01856 -0.00426169 0)
(1.01737 -0.00348622 0)
(1.0164 -0.00285801 0)
(1.01562 -0.00191666 0)
(1.01515 -0.00114075 0)
(1.01479 -0.000529087 0)
(1.3353 0.019215 0)
(1.29693 0.0137307 0)
(1.26158 0.015573 0)
(1.23233 0.0201839 0)
(1.20821 0.021257 0)
(1.18313 0.0234464 0)
(1.15714 0.0256046 0)
(1.13474 0.0259051 0)
(1.11407 0.025194 0)
(1.09769 0.0211377 0)
(1.08514 0.016611 0)
(1.07502 0.0106587 0)
(1.06698 0.00543659 0)
(1.05895 0.00024251 0)
(1.0517 -0.00330953 0)
(1.04591 -0.00688961 0)
(1.04096 -0.00900937 0)
(1.03587 -0.01008 0)
(1.03151 -0.00967995 0)
(1.02805 -0.00872815 0)
(1.02572 -0.00765698 0)
(1.02361 -0.00666815 0)
(1.02195 -0.00577669 0)
(1.02045 -0.00502263 0)
(1.01901 -0.00423744 0)
(1.01786 -0.00344779 0)
(1.01687 -0.00280974 0)
(1.01607 -0.00188277 0)
(1.01561 -0.00111718 0)
(1.01523 -0.000514511 0)
(1.34995 0.0676385 0)
(1.30877 0.0650776 0)
(1.26723 0.0686571 0)
(1.23324 0.0651295 0)
(1.20744 0.0576995 0)
(1.18419 0.0528392 0)
(1.16425 0.0460487 0)
(1.14285 0.0409636 0)
(1.12361 0.03489 0)
(1.10714 0.0300102 0)
(1.09344 0.0233541 0)
(1.08252 0.0176632 0)
(1.07316 0.0113041 0)
(1.06508 0.00649728 0)
(1.05745 0.00150026 0)
(1.05097 -0.00245228 0)
(1.04484 -0.00606325 0)
(1.03877 -0.00780287 0)
(1.03357 -0.00824087 0)
(1.02944 -0.00752369 0)
(1.02655 -0.00669233 0)
(1.02407 -0.00585129 0)
(1.02221 -0.00516629 0)
(1.02046 -0.00457578 0)
(1.01891 -0.00392928 0)
(1.01769 -0.00325568 0)
(1.01664 -0.00269546 0)
(1.01582 -0.00183438 0)
(1.01536 -0.00109741 0)
(1.01499 -0.00050213 0)
(1.34533 0.102843 0)
(1.30704 0.0987995 0)
(1.27027 0.0920088 0)
(1.2375 0.080545 0)
(1.20917 0.0760627 0)
(1.18328 0.0712486 0)
(1.1566 0.065964 0)
(1.13396 0.058032 0)
(1.11278 0.0518921 0)
(1.09551 0.0422059 0)
(1.08205 0.0341537 0)
(1.07199 0.0243897 0)
(1.06414 0.0163577 0)
(1.05638 0.00827441 0)
(1.04951 0.00249702 0)
(1.0443 -0.00289645 0)
(1.04016 -0.00614948 0)
(1.03632 -0.00812178 0)
(1.03261 -0.00825927 0)
(1.02954 -0.00759145 0)
(1.0269 -0.00664154 0)
(1.02473 -0.00577839 0)
(1.02293 -0.00507433 0)
(1.02116 -0.004436 0)
(1.01964 -0.00380231 0)
(1.01838 -0.00313795 0)
(1.01727 -0.00258818 0)
(1.01641 -0.00176831 0)
(1.0159 -0.00105693 0)
(1.01549 -0.000480688 0)
(1.32829 0.154568 0)
(1.28651 0.156824 0)
(1.24818 0.139636 0)
(1.22602 0.122115 0)
(1.2004 0.106099 0)
(1.17763 0.0912062 0)
(1.1587 0.0737351 0)
(1.13615 0.0627869 0)
(1.11615 0.0508491 0)
(1.09939 0.0423874 0)
(1.08593 0.0326714 0)
(1.07585 0.0252933 0)
(1.06761 0.0170868 0)
(1.06136 0.0109042 0)
(1.05511 0.00455001 0)
(1.04961 -0.000205029 0)
(1.04464 -0.00440144 0)
(1.03971 -0.00647952 0)
(1.03524 -0.00716546 0)
(1.03128 -0.00652485 0)
(1.02801 -0.00572207 0)
(1.02547 -0.00501305 0)
(1.02327 -0.0044518 0)
(1.02127 -0.00397795 0)
(1.01961 -0.00348396 0)
(1.01822 -0.00292171 0)
(1.01705 -0.00245287 0)
(1.01615 -0.00170276 0)
(1.01562 -0.00102422 0)
(1.01521 -0.0004636 0)
(1.30441 0.198467 0)
(1.25918 0.194367 0)
(1.23137 0.170836 0)
(1.20156 0.146729 0)
(1.17329 0.136274 0)
(1.15431 0.120885 0)
(1.13408 0.106934 0)
(1.11527 0.0913886 0)
(1.09858 0.0782207 0)
(1.08401 0.0626057 0)
(1.07238 0.0505671 0)
(1.06342 0.0374544 0)
(1.05695 0.0269144 0)
(1.05041 0.016413 0)
(1.04492 0.00893378 0)
(1.04096 0.00215663 0)
(1.03823 -0.0020771 0)
(1.03608 -0.00496338 0)
(1.03346 -0.00580531 0)
(1.03066 -0.00559002 0)
(1.02804 -0.00503965 0)
(1.02585 -0.00450624 0)
(1.02377 -0.00403443 0)
(1.02192 -0.00362125 0)
(1.02031 -0.0031992 0)
(1.01892 -0.0026884 0)
(1.01774 -0.0022675 0)
(1.0168 -0.00158482 0)
(1.0162 -0.000955707 0)
(1.01578 -0.00043461 0)
(1.25892 0.239358 0)
(1.21749 0.247573 0)
(1.1998 0.195354 0)
(1.17715 0.173794 0)
(1.16283 0.147751 0)
(1.1473 0.1211 0)
(1.12803 0.0964236 0)
(1.10855 0.0798774 0)
(1.09182 0.0622038 0)
(1.07827 0.0501458 0)
(1.06797 0.0383116 0)
(1.0605 0.0297749 0)
(1.05571 0.0205675 0)
(1.052 0.0137635 0)
(1.04837 0.0069093 0)
(1.04463 0.00202504 0)
(1.04173 -0.00229743 0)
(1.03845 -0.00450361 0)
(1.03514 -0.00531569 0)
(1.03154 -0.00488655 0)
(1.02854 -0.00436763 0)
(1.02585 -0.00388269 0)
(1.02351 -0.00350019 0)
(1.02155 -0.00323006 0)
(1.01986 -0.00290577 0)
(1.01847 -0.002476 0)
(1.01731 -0.00212607 0)
(1.0164 -0.00150388 0)
(1.01583 -0.000910161 0)
(1.01544 -0.000413989 0)
(1.23132 0.284832 0)
(1.17943 0.292395 0)
(1.16674 0.225545 0)
(1.13957 0.210453 0)
(1.11814 0.18766 0)
(1.1054 0.161112 0)
(1.09305 0.141809 0)
(1.08394 0.118267 0)
(1.07453 0.098373 0)
(1.06501 0.0789168 0)
(1.05643 0.0635525 0)
(1.05014 0.0481948 0)
(1.04558 0.0359255 0)
(1.04071 0.0244179 0)
(1.03709 0.015792 0)
(1.03514 0.00824233 0)
(1.03406 0.00318625 0)
(1.03378 -0.000503115 0)
(1.03236 -0.00219831 0)
(1.03025 -0.00277718 0)
(1.02797 -0.00292205 0)
(1.02566 -0.00282403 0)
(1.02367 -0.00275013 0)
(1.02191 -0.0026533 0)
(1.02035 -0.00247041 0)
(1.01906 -0.00215174 0)
(1.01795 -0.00188059 0)
(1.01704 -0.00134768 0)
(1.01646 -0.000823709 0)
(1.01605 -0.000380494 0)
(1.16788 0.311718 0)
(1.11546 0.310619 0)
(1.13059 0.231008 0)
(1.11179 0.21551 0)
(1.11076 0.17239 0)
(1.09873 0.140592 0)
(1.08374 0.111538 0)
(1.06876 0.0883659 0)
(1.05672 0.0687045 0)
(1.04873 0.0536554 0)
(1.04353 0.0409079 0)
(1.041 0.0312272 0)
(1.03951 0.0223396 0)
(1.03921 0.01551 0)
(1.03863 0.00882764 0)
(1.03716 0.0043775 0)
(1.03632 0.000489802 0)
(1.03509 -0.00171761 0)
(1.03316 -0.00268567 0)
(1.03046 -0.00275257 0)
(1.02774 -0.0026579 0)
(1.02513 -0.00252055 0)
(1.02299 -0.0024647 0)
(1.02115 -0.00241851 0)
(1.0196 -0.00227811 0)
(1.01837 -0.00200096 0)
(1.01734 -0.00176792 0)
(1.01651 -0.00127567 0)
(1.016 -0.000778811 0)
(1.01563 -0.00035919 0)
(1.12475 0.340855 0)
(1.0734 0.342739 0)
(1.09435 0.261321 0)
(1.0578 0.263496 0)
(1.05503 0.215082 0)
(1.04659 0.189911 0)
(1.04706 0.161528 0)
(1.04758 0.134826 0)
(1.0477 0.109758 0)
(1.04391 0.0891808 0)
(1.04022 0.0712098 0)
(1.03663 0.0558339 0)
(1.0342 0.0431444 0)
(1.03163 0.0318068 0)
(1.03005 0.0228917 0)
(1.02979 0.0154439 0)
(1.03039 0.00967296 0)
(1.03168 0.00514864 0)
(1.03122 0.00238841 0)
(1.02982 0.000714386 0)
(1.02764 -0.000325241 0)
(1.02544 -0.000891778 0)
(1.02353 -0.00135084 0)
(1.02182 -0.00160563 0)
(1.02035 -0.00170495 0)
(1.01914 -0.00159994 0)
(1.0181 -0.00147803 0)
(1.01725 -0.00109722 0)
(1.0167 -0.000683922 0)
(1.01631 -0.000323654 0)
(1.0554 0.335903 0)
(1.0044 0.328486 0)
(1.05307 0.238936 0)
(1.02804 0.232251 0)
(1.04094 0.175562 0)
(1.03907 0.14851 0)
(1.02913 0.119408 0)
(1.02337 0.0929348 0)
(1.01789 0.0733427 0)
(1.01812 0.0559011 0)
(1.01906 0.0429169 0)
(1.02203 0.032014 0)
(1.02431 0.0235995 0)
(1.02724 0.0167064 0)
(1.02921 0.0110015 0)
(1.02978 0.00718566 0)
(1.03132 0.00399696 0)
(1.03161 0.00194892 0)
(1.0311 0.000705832 0)
(1.02936 -0.000121944 0)
(1.02699 -0.000620814 0)
(1.02469 -0.00102659 0)
(1.02267 -0.00135117 0)
(1.02097 -0.00155433 0)
(1.01954 -0.0016261 0)
(1.0184 -0.00150535 0)
(1.01744 -0.0013895 0)
(1.01666 -0.00103062 0)
(1.01615 -0.000635369 0)
(1.01581 -0.000300559 0)
(0.988603 0.358529 0)
(0.949864 0.336838 0)
(1.00161 0.282614 0)
(0.961916 0.268489 0)
(0.989434 0.215556 0)
(0.981015 0.19455 0)
(0.996251 0.160415 0)
(1.00729 0.133559 0)
(1.01694 0.10862 0)
(1.02036 0.0902271 0)
(1.0233 0.0725195 0)
(1.02375 0.0595366 0)
(1.02475 0.0478945 0)
(1.02495 0.0383119 0)
(1.02562 0.0299371 0)
(1.02713 0.0230229 0)
(1.02878 0.0167429 0)
(1.03073 0.0116344 0)
(1.03102 0.00753097 0)
(1.02992 0.00463819 0)
(1.02788 0.00255296 0)
(1.02574 0.00118018 0)
(1.02379 0.000147725 0)
(1.02209 -0.000505675 0)
(1.02062 -0.000903585 0)
(1.01941 -0.00101776 0)
(1.01837 -0.00105236 0)
(1.01752 -0.000826174 0)
(1.01693 -0.000529041 0)
(1.01655 -0.000263282 0)
(0.914546 0.321966 0)
(0.88138 0.277643 0)
(0.967027 0.230227 0)
(0.908839 0.216631 0)
(0.966212 0.160816 0)
(0.964332 0.143649 0)
(0.971233 0.116475 0)
(0.975921 0.0935884 0)
(0.980112 0.0758121 0)
(0.989153 0.0571615 0)
(0.996345 0.0445425 0)
(1.0047 0.0326812 0)
(1.0101 0.0249018 0)
(1.01571 0.017904 0)
(1.01971 0.0134969 0)
(1.0223 0.0103146 0)
(1.02531 0.00817344 0)
(1.02719 0.00620802 0)
(1.02804 0.00453946 0)
(1.02728 0.00286165 0)
(1.02561 0.00161048 0)
(1.02379 0.000579288 0)
(1.02208 -0.000156235 0)
(1.02063 -0.000633689 0)
(1.0194 -0.000919849 0)
(1.01837 -0.000961467 0)
(1.01749 -0.000972704 0)
(1.01677 -0.000753597 0)
(1.01627 -0.000470338 0)
(1.01595 -0.000236934 0)
(0.845081 0.296389 0)
(0.817264 0.269252 0)
(0.925899 0.207359 0)
(0.869094 0.206247 0)
(0.911914 0.162076 0)
(0.914906 0.152759 0)
(0.94339 0.122772 0)
(0.961131 0.106211 0)
(0.979003 0.0885659 0)
(0.990833 0.0772024 0)
(1.00185 0.0644666 0)
(1.00791 0.0567116 0)
(1.01413 0.0482131 0)
(1.01808 0.0418689 0)
(1.02158 0.0348456 0)
(1.02463 0.0292044 0)
(1.02684 0.0228577 0)
(1.02901 0.0174295 0)
(1.02955 0.0122576 0)
(1.02872 0.00832494 0)
(1.02703 0.00524586 0)
(1.02513 0.00311941 0)
(1.02338 0.0015543 0)
(1.02184 0.000522445 0)
(1.02051 -0.000141537 0)
(1.0194 -0.000453304 0)
(1.01844 -0.000635503 0)
(1.01765 -0.000553801 0)
(1.01711 -0.000370516 0)
(1.01676 -0.000203216 0)
(0.794692 0.274435 0)
(0.761322 0.244619 0)
(0.852441 0.207452 0)
(0.8538 0.167335 0)
(0.895979 0.131912 0)
(0.915184 0.111089 0)
(0.92593 0.0919568 0)
(0.940236 0.0779804 0)
(0.953908 0.0654062 0)
(0.967694 0.050887 0)
(0.978671 0.0411891 0)
(0.989833 0.0306596 0)
(0.996932 0.0243897 0)
(1.00381 0.0180534 0)
(1.00889 0.0153457 0)
(1.01295 0.0128798 0)
(1.01703 0.0118959 0)
(1.02026 0.0100205 0)
(1.02234 0.00803336 0)
(1.02294 0.00556393 0)
(1.02243 0.00359947 0)
(1.02153 0.00201328 0)
(1.02053 0.000911933 0)
(1.01959 0.000197988 0)
(1.01875 -0.000276709 0)
(1.01799 -0.00046161 0)
(1.01732 -0.000586355 0)
(1.01672 -0.000493797 0)
(1.01631 -0.000315772 0)
(1.01603 -0.000177216 0)
(0.741569 0.200868 0)
(0.738439 0.157567 0)
(0.784518 0.167258 0)
(0.793997 0.132931 0)
(0.828568 0.119651 0)
(0.866971 0.0891265 0)
(0.903836 0.0671876 0)
(0.929152 0.0557124 0)
(0.948581 0.0487443 0)
(0.966567 0.0476125 0)
(0.983088 0.0445192 0)
(0.994809 0.0438636 0)
(1.00581 0.0407031 0)
(1.0133 0.0389138 0)
(1.0194 0.0342884 0)
(1.0234 0.0307001 0)
(1.02568 0.0251443 0)
(1.02721 0.0202644 0)
(1.0275 0.0148863 0)
(1.0269 0.0105304 0)
(1.02565 0.00693072 0)
(1.02417 0.00435557 0)
(1.02273 0.00247991 0)
(1.02144 0.00121772 0)
(1.02028 0.000387486 0)
(1.01929 -4.74627e-05 0)
(1.01845 -0.000327391 0)
(1.01773 -0.000348095 0)
(1.01724 -0.000249571 0)
(1.01692 -0.000154644 0)
(0.688194 0.0678301 0)
(0.715176 0.00782831 0)
(0.771006 0.0165684 0)
(0.792094 -0.00759227 0)
(0.816437 0.00858675 0)
(0.850391 0.019561 0)
(0.889018 0.0277489 0)
(0.92384 0.0302717 0)
(0.949729 0.0307331 0)
(0.964455 0.028745 0)
(0.975495 0.0265412 0)
(0.985231 0.0221878 0)
(0.99141 0.0198912 0)
(0.997131 0.0160179 0)
(1.00176 0.0154452 0)
(1.00615 0.0138283 0)
(1.01027 0.0139064 0)
(1.01398 0.0122567 0)
(1.0168 0.0101759 0)
(1.01864 0.00725858 0)
(1.01933 0.0048874 0)
(1.01947 0.00298991 0)
(1.01923 0.00167911 0)
(1.01885 0.000822505 0)
(1.01833 0.000228449 0)
(1.01777 -6.78353e-05 0)
(1.01723 -0.000279759 0)
(1.01671 -0.000286062 0)
(1.01633 -0.000193487 0)
(1.01607 -0.000128021 0)
(0.631842 -0.0717138 0)
(0.67466 -0.0987035 0)
(0.753125 -0.0990274 0)
(0.797901 -0.099906 0)
(0.853374 -0.0767509 0)
(0.889859 -0.0609013 0)
(0.909252 -0.0409175 0)
(0.930152 -0.0226261 0)
(0.946017 -0.00911397 0)
(0.965376 0.00207127 0)
(0.980088 0.011311 0)
(0.992943 0.0187111 0)
(1.00408 0.0224783 0)
(1.01329 0.0259088 0)
(1.02036 0.0249629 0)
(1.02442 0.0244559 0)
(1.02625 0.0211043 0)
(1.02647 0.0180812 0)
(1.02614 0.0138838 0)
(1.02541 0.0102445 0)
(1.02453 0.00698416 0)
(1.02347 0.00451287 0)
(1.02235 0.00270031 0)
(1.02127 0.00145548 0)
(1.02024 0.00063131 0)
(1.01933 0.000169239 0)
(1.01854 -0.000142032 0)
(1.01785 -0.000215822 0)
(1.01737 -0.00016811 0)
(1.01707 -0.000119638 0)
(0.647062 -0.1622 0)
(0.688223 -0.154626 0)
(0.776762 -0.150938 0)
(0.844785 -0.129859 0)
(0.878705 -0.0833862 0)
(0.911233 -0.0564299 0)
(0.946912 -0.0329503 0)
(0.962651 -0.0218965 0)
(0.976075 -0.00969041 0)
(0.982217 -0.00113175 0)
(0.988815 0.00498033 0)
(0.992259 0.00890256 0)
(0.995351 0.0118452 0)
(0.997148 0.0116282 0)
(0.999298 0.0133963 0)
(1.0025 0.012695 0)
(1.00544 0.0134295 0)
(1.00878 0.0120533 0)
(1.01159 0.01024 0)
(1.01421 0.00750809 0)
(1.01602 0.00519086 0)
(1.01722 0.00335272 0)
(1.0178 0.00206192 0)
(1.01795 0.0012038 0)
(1.01782 0.000567753 0)
(1.01749 0.000205804 0)
(1.01709 -5.909e-05 0)
(1.01666 -0.000134998 0)
(1.01632 -0.000104626 0)
(1.01609 -9.26643e-05 0)
(0.670838 -0.176193 0)
(0.696861 -0.146224 0)
(0.796953 -0.146866 0)
(0.906613 -0.14812 0)
(0.954778 -0.122055 0)
(0.960977 -0.0788385 0)
(0.957717 -0.0625115 0)
(0.963007 -0.0477365 0)
(0.975663 -0.0411046 0)
(0.985469 -0.0343099 0)
(0.992919 -0.0241458 0)
(1.00101 -0.0143775 0)
(1.00779 -0.0059016 0)
(1.01547 0.00222595 0)
(1.0214 0.00596981 0)
(1.02465 0.00937398 0)
(1.02586 0.00970448 0)
(1.0248 0.00987763 0)
(1.02378 0.00847 0)
(1.02294 0.00681968 0)
(1.02247 0.00492166 0)
(1.02191 0.00326686 0)
(1.02123 0.00200873 0)
(1.02051 0.00109103 0)
(1.01976 0.000466705 0)
(1.01905 0.000122893 0)
(1.01841 -0.000132881 0)
(1.01786 -0.000194659 0)
(1.01745 -0.000147202 0)
(1.0172 -0.000107103 0)
(0.753351 -0.123477 0)
(0.759141 -0.0534163 0)
(0.800524 -0.0237204 0)
(0.899664 -0.0346757 0)
(0.982524 -0.0462056 0)
(1.00119 -0.0471228 0)
(0.990915 -0.0456356 0)
(0.987394 -0.0305276 0)
(0.988743 -0.0241199 0)
(1.00005 -0.0131382 0)
(1.00857 -0.00760669 0)
(1.00936 -0.000750016 0)
(1.01019 0.00385226 0)
(1.00613 0.00649794 0)
(1.00467 0.00935704 0)
(1.00451 0.00958315 0)
(1.00482 0.010388 0)
(1.0066 0.00925504 0)
(1.00844 0.00792016 0)
(1.01101 0.00598678 0)
(1.01333 0.00427701 0)
(1.01521 0.00292826 0)
(1.01639 0.0018982 0)
(1.01701 0.00116856 0)
(1.01718 0.000588356 0)
(1.01708 0.000239111 0)
(1.01684 -2.53698e-05 0)
(1.01654 -0.00011375 0)
(1.01627 -9.32816e-05 0)
(1.01609 -8.5995e-05 0)
(0.934476 -0.204189 0)
(0.885075 -0.122436 0)
(1.17601 -0.0902367 3.45305e-21)
(1.16608 -0.0768458 5.28928e-22)
(1.15661 -0.0622592 -2.37202e-21)
(1.14335 -0.0526495 -3.25135e-21)
(1.13162 -0.0472886 6.81913e-22)
(1.12651 -0.0454246 -4.09518e-21)
(1.11901 -0.0415731 1.19077e-20)
(1.10888 -0.0353622 -8.29247e-21)
(1.10029 -0.0332057 1.21376e-20)
(1.0919 -0.0315201 3.49621e-21)
(1.19901 -0.0763285 1.89282e-21)
(1.18063 -0.0788289 2.06559e-21)
(1.15744 -0.062222 -3.98034e-21)
(1.1378 -0.0444206 -1.12197e-21)
(1.1235 -0.0368373 -5.4442e-21)
(1.11334 -0.0309187 7.13766e-21)
(1.10023 -0.0196148 8.98579e-21)
(1.08901 -0.0122801 -1.44589e-20)
(1.08732 -0.0116898 3.43546e-21)
(1.08544 -0.0123641 1.53883e-21)
(1.07931 -0.0112112 2.2018e-21)
(1.07312 -0.0112298 -4.49491e-22)
(1.0664 -0.0109158 9.09917e-21)
(1.05871 -0.00966073 -7.68965e-21)
(1.05225 -0.00934057 -8.58153e-21)
(1.04642 -0.00941302 9.31428e-21)
(1.03935 -0.00928703 -1.04518e-20)
(1.03286 -0.00882179 6.85098e-21)
(1.02811 -0.00839046 2.23606e-21)
(1.02506 -0.00785305 -1.88228e-21)
(1.02291 -0.00733175 5.30518e-22)
(1.02149 -0.00681062 1.27325e-21)
(1.02003 -0.00609576 -2.14114e-22)
(1.01862 -0.00530079 -2.36868e-21)
(1.01756 -0.00451544 1.65037e-21)
(1.01654 -0.00367484 -5.54207e-22)
(1.0157 -0.00294039 4.02321e-22)
(1.01508 -0.00193052 -7.3359e-22)
(1.01463 -0.00115568 -7.61721e-22)
(1.01434 -0.000546217 -2.06504e-21)
(1.21598 -0.0600761 2.78534e-21)
(1.20789 -0.0548456 -1.09388e-21)
(1.1905 -0.0477498 3.87518e-21)
(1.17018 -0.0383363 -1.81977e-21)
(1.16086 -0.0367914 -9.63461e-21)
(1.15079 -0.0344914 1.14268e-20)
(1.13053 -0.0253054 -4.76461e-21)
(1.11444 -0.0184251 9.08354e-21)
(1.105 -0.0175786 -8.64389e-21)
(1.09243 -0.0153307 -3.87904e-21)
(1.0804 -0.0135681 1.01359e-20)
(1.07255 -0.0139483 2.68015e-21)
(1.06444 -0.0137842 -4.38813e-21)
(1.05674 -0.0131829 -1.70486e-21)
(1.05107 -0.0131772 -4.15974e-21)
(1.0455 -0.0133707 3.17486e-21)
(1.03949 -0.0127875 2.08295e-21)
(1.03373 -0.0119493 6.04162e-21)
(1.02926 -0.0107433 -1.51569e-20)
(1.02618 -0.00955693 5.73731e-21)
(1.02398 -0.00845494 2.95972e-22)
(1.02252 -0.00758341 3.89163e-22)
(1.02086 -0.00656925 2.38211e-23)
(1.01943 -0.00561692 -9.27406e-22)
(1.01828 -0.00473047 2.04369e-21)
(1.01714 -0.00379549 -2.61419e-23)
(1.01626 -0.00301934 4.3753e-22)
(1.01558 -0.00198077 -8.29614e-22)
(1.01509 -0.00117146 1.17934e-21)
(1.01478 -0.000547664 3.6176e-22)