/*--------------------------------*- C++ -*----------------------------------*\
| =========                 |                                                 |
| \\      /  F ield         | OpenFOAM: The Open Source CFD Toolbox           |
|  \\    /   O peration     | Version:                                        |
|   \\  /    A nd           | Website:  www.openfoam.com                      |
|    \\/     M anipulation  |                                                 |
\*---------------------------------------------------------------------------*/
FoamFile
{
    version     2.0;
    format      ascii;
    class       surfaceScalarField;
    location    "81";
    object      phi;
}
// * * * * * * * * * * * * * * * * * * * * * * * * * * * * * * * * * * * * * //

dimensions      [0 3 -1 0 0 0 0];
oriented        oriented;


internalField   nonuniform List<scalar> 
2227
(
0.048149
0.00338769
-0.0512109
0.0451931
0.00328156
0.0032104
0.0479771
0.00644992
-0.0510394
0.045007
0.00625165
0.00610449
0.0474615
0.00949541
-0.050507
0.0445081
0.00920506
0.0465656
0.012504
-0.0495742
0.0121304
0.0453476
0.0154198
-0.0482634
-0.0465482
0.053888
-0.00156157
0.0537546
0.000431429
0.0545694
0.00122029
0.0544628
0.00108647
0.0551897
-0.000432863
0.0550848
0.00115489
0.0556924
-0.000818798
0.0556001
-0.000453671
0.0560568
0.000429831
0.056007
0.00025519
0.0562705
3.18453e-05
0.0561904
0.00124102
0.0564095
0.000645331
0.0563142
0.000907464
0.0564382
0.000737223
0.0563152
0.000946269
0.0563416
0.000667422
0.0561588
0.000740526
0.0560869
0.000593012
0.0558462
0.000683638
0.0556755
0.000584411
0.0553524
0.000681944
0.0550721
0.000632051
0.0546531
0.000756513
0.0542551
0.000741965
0.0537306
0.000871773
0.053213
0.000872836
0.0525784
0.0010001
0.0519441
0.00100915
0.00112442
0.0538976
-0.00242621
0.0537296
0.000599463
0.0544252
0.000524676
0.0543472
0.00116449
0.0550659
-0.00115154
0.0549589
0.00126188
0.0556294
-0.00148926
0.0554876
-0.00031195
0.0559254
-7.94799e-06
0.0559015
0.000279143
0.0560646
-0.000131333
0.055985
0.0013207
0.0561893
0.000440987
0.0560476
0.00104921
0.0561741
0.000610721
0.0560569
0.00106346
0.0560955
0.000628776
0.0559174
0.000918606
0.055863
0.00064744
0.0556371
0.000909521
0.0554838
0.000737749
0.0551754
0.000990291
0.0549125
0.000894942
0.0545067
0.00116235
0.054122
0.0011267
0.0536044
0.00138932
0.0530901
0.00138715
0.0524528
0.00163745
0.0518067
0.0016552
0.00189176
0.0538734
-0.00326659
0.0536438
0.000828998
0.0541839
-1.5381e-05
0.0541304
0.00121797
0.0548103
-0.0018314
0.0546982
0.00137391
0.0553962
-0.00218724
0.0551871
-0.000102787
0.0555936
-0.000414456
0.0555612
0.000311482
0.0556121
-0.000182224
0.0555161
0.00141672
0.0556899
0.000267176
0.0554966
0.00124252
0.055622
0.000485275
0.0554951
0.00119044
0.0555345
0.000589301
0.0553562
0.00109697
0.0553116
0.000691983
0.055089
0.00113212
0.054946
0.00088075
0.0546413
0.001295
0.0543835
0.00115275
0.053982
0.00156384
0.0535999
0.0015088
0.0530847
0.00190451
0.052571
0.00190088
0.0519292
0.00227931
0.051282
0.00230238
0.00266678
0.0538174
-0.00405095
0.053493
0.00115336
0.0538451
-0.000367513
0.0538143
0.0012488
0.0544315
-0.00244861
0.0543074
0.00149806
0.0550049
-0.00288472
0.0546944
0.000207688
0.0550657
-0.000785796
0.0549671
0.000410112
0.0549108
-0.000125982
0.0547907
0.00153683
0.0549086
0.000149354
0.0546795
0.00147157
0.0547948
0.00036999
0.0546381
0.00134718
0.0546777
0.000549641
0.0544841
0.00129064
0.054442
0.000733998
0.0542112
0.00136294
0.0540663
0.00102562
0.0537577
0.00160368
0.0534947
0.00141568
0.0530865
0.00197208
0.0527027
0.00189261
0.0521788
0.00242839
0.0516638
0.0024159
0.0510107
0.00293242
0.0503573
0.00295572
0.00344987
0.0537288
-0.00474676
0.0532763
0.00160584
0.0534081
-0.00049928
0.0534076
0.00124925
0.0539315
-0.00297247
0.0538044
0.00162514
0.0544476
-0.00352786
0.0540247
0.000630588
0.0543325
-0.00109367
0.0541359
0.000606735
0.0539436
6.63433e-05
0.0538084
0.001672
0.0538433
0.000114516
0.0535972
0.00171763
0.0536918
0.00027534
0.0534966
0.00154246
0.0535243
0.000521864
0.0533195
0.00149545
0.0532668
0.000786688
0.0530232
0.00160662
0.0528694
0.00117935
0.0525481
0.00192497
0.0522758
0.001688
0.0518493
0.00239865
0.0514543
0.00228755
0.0509139
0.00296876
0.0503858
0.00294406
0.0497244
0.00359375
0.0490614
0.00361877
0.00424791
0.053608
-0.00532179
0.0529897
0.00222415
0.0528818
-0.000391363
0.0529169
0.00121415
0.0533308
-0.00338636
0.0531832
0.00177269
0.0537403
-0.0040849
0.0531559
0.00121496
0.0534066
-0.00134436
0.0530365
0.000976828
0.0527465
0.000356348
0.0525769
0.00184162
0.0525248
0.000166635
0.0522679
0.00197446
0.0523458
0.000197465
0.0520809
0.00180736
0.0521068
0.00049601
0.0518437
0.0017585
0.05181
0.000820401
0.0515141
0.00190251
0.0513516
0.00134183
0.0509854
0.00229125
0.0506986
0.00197474
0.0502415
0.00285581
0.0498295
0.00269954
0.0492586
0.00353962
0.0487217
0.00348092
0.0480349
0.00428063
0.0473641
0.00428955
0.00506381
0.0534518
-0.00574059
0.0526288
0.00304714
0.0522721
-3.4641e-05
0.0523632
0.00112304
0.0526287
-0.00365188
0.0524654
0.00193603
0.0528595
-0.00447899
0.0521224
0.00195202
0.0522578
-0.00147977
0.0517194
0.00151526
0.0512906
0.00078518
0.0511086
0.00202359
0.0509336
0.000341653
0.0507487
0.00215929
0.0507183
0.000227883
0.0504535
0.00207216
0.0504436
0.000505972
0.0501488
0.00205325
0.0500574
0.000911765
0.0497619
0.00219802
0.0495387
0.0015651
0.0491687
0.00266125
0.0488036
0.00233984
0.0483339
0.00332544
0.0478632
0.00317026
0.0472634
0.00413946
0.046687
0.0040573
0.0459819
0.00498574
0.0453138
0.00495766
0.0532598
-0.00596738
0.0521832
0.00412369
0.051591
0.000557589
0.0517555
0.000958547
0.0518414
-0.0037378
0.0516291
0.0021484
0.0518283
-0.00467827
0.0509064
0.00287397
0.0509091
-0.00148248
0.050136
0.00228834
0.0496575
0.00126365
0.0494168
0.00226437
0.0491596
0.000598858
0.0490012
0.00231764
0.0488897
0.000339339
0.0485322
0.00242972
0.0485551
0.000483048
0.048134
0.00247432
0.0480889
0.000956915
0.0476079
0.00267902
0.0474426
0.00173036
0.0469096
0.00319426
0.0465792
0.00267025
0.0459934
0.0039113
0.0455099
0.00365371
0.0448677
0.0047817
0.0442689
0.00465606
0.043546
0.00570865
0.00567324
0.0530356
-0.00596997
0.0516555
0.00550377
0.0508222
0.00139087
0.0511166
0.000664185
0.0509498
-0.00357099
0.0506888
0.00240937
0.0505882
-0.00457763
0.0495292
0.00393295
0.0493374
-0.00129068
0.0483091
0.00331664
0.0477768
0.00179591
0.0475476
0.00249362
0.047164
0.000982485
0.0470894
0.00239224
0.0467875
0.000641168
0.0464792
0.00273802
0.0463561
0.000606208
0.0459775
0.00285287
0.0458032
0.00113127
0.0453469
0.00313527
0.0449879
0.00208935
0.0445117
0.00367054
0.0439903
0.00319163
0.0434328
0.00446881
0.0428057
0.0042808
0.042113
0.00547439
0.0414716
0.00529741
0.0407007
0.00647959
0.0528059
-0.00574288
0.0511206
0.00718912
0.050035
0.00247646
0.0504726
0.000226545
0.0500067
-0.00310512
0.0495944
0.00282174
0.0492573
-0.00424061
0.0479419
0.00524836
0.0476181
-0.000966885
0.0464386
0.00449616
0.0457512
0.00248335
0.0455048
0.00274006
0.0451546
0.00133263
0.0450231
0.00252377
0.0444691
0.00119513
0.0441857
0.00302141
0.0439751
0.000816851
0.0433834
0.00344453
0.0433027
0.00121205
0.0424947
0.00394324
0.0423274
0.00225667
0.0414539
0.00454397
0.0410606
0.00358491
0.0402255
0.00530397
0.0396251
0.00488114
0.0388967
0.00620287
0.0383143
0.00587981
0.00718216
0.048264
-0.00617834
0.047461
0.00799212
0.0469904
0.00294706
0.0481047
-0.000887749
0.0480938
-0.00309416
0.0482143
0.00270118
0.0483534
-0.0043797
0.0477081
0.00589368
0.0478696
-0.00112839
0.0472748
0.00509094
0.0469911
0.00276705
0.0471189
0.00261228
0.0471802
0.00127136
0.0473195
0.00238441
0.0469912
0.00152349
0.0471978
0.00281474
0.0470909
0.000923824
0.0470113
0.00352409
0.0472261
0.000997208
0.0467623
0.00440707
0.0473052
0.00171377
0.0466195
0.00522964
0.0471079
0.00309651
0.0465228
0.00588908
0.0468082
0.00459579
0.0463939
0.00661714
0.0465575
0.00571622
0.00726533
0.0513776
-0.00640792
0.0507075
0.00866226
0.0504368
0.00321774
0.0515514
-0.00200239
0.0512553
-0.00279799
0.0515071
0.00244931
0.0513197
-0.00419228
0.0509918
0.00622153
0.0509463
-0.00108289
0.0503692
0.00566813
0.0502672
0.00286902
0.0507249
0.00215452
0.0503775
0.00161877
0.050647
0.00211498
0.0502013
0.00196912
0.0506077
0.00240841
0.0501262
0.00140532
0.0506109
0.00303937
0.0502599
0.00134818
0.0504289
0.00423804
0.050257
0.00188566
0.0501703
0.00531634
0.0501694
0.00309744
0.0500242
0.00603433
0.0500187
0.00460126
0.0500401
0.00659571
0.0501171
0.00563924
0.00678531
0.0546006
-0.00631069
0.0543026
0.00896027
0.0543423
0.00317801
0.0550646
-0.00272463
0.0545832
-0.00231659
0.0548582
0.00217428
0.0543452
-0.00367925
0.0544065
0.00616016
0.0540678
-0.000744168
0.0537798
0.00595614
0.0538701
0.00277876
0.0543947
0.0016299
0.0537905
0.00222294
0.0541149
0.00179062
0.053617
0.00246701
0.0540502
0.00197519
0.0535509
0.00190467
0.0540735
0.00251672
0.0536205
0.00180121
0.0539798
0.00387876
0.0534374
0.002428
0.053633
0.0051208
0.0532735
0.00345696
0.0535238
0.00578397
0.0533846
0.00474043
0.0537713
0.00620904
0.0537991
0.00561148
0.006269
0.0581148
-0.00593146
0.0583833
0.00869175
0.0585537
0.00300761
0.0587015
-0.00287246
0.0581743
-0.00178938
0.0584212
0.00192744
0.0577059
-0.00296398
0.0580761
0.00578995
0.0575974
-0.000265489
0.0577865
0.00576711
0.0578976
0.00266758
0.0582002
0.00132732
0.0576495
0.00277367
0.0579773
0.00146284
0.0574388
0.00300543
0.0577705
0.00164356
0.0574091
0.00226604
0.0576698
0.00225605
0.0573005
0.00217047
0.0575453
0.003634
0.0570738
0.00289944
0.0571753
0.00501935
0.0568145
0.00381773
0.0571377
0.0054608
0.0570906
0.00478748
0.0575596
0.00574008
0.0577277
0.00544342
0.0057432
0.0620084
-0.00538618
0.0628337
0.00786641
0.0629662
0.00287518
0.062586
-0.00249229
0.0620956
-0.00129902
0.0623666
0.00165642
0.0615557
-0.00215302
0.0620925
0.00525312
0.0616832
0.000143841
0.0621893
0.00526104
0.0622803
0.00257658
0.0623365
0.00127105
0.0619552
0.00315496
0.0621615
0.00125659
0.0617178
0.00344911
0.0618069
0.00155447
0.0615428
0.00253016
0.0615702
0.00222858
0.0612816
0.00245913
0.0613518
0.0035638
0.0610937
0.00315752
0.0612305
0.0048825
0.0609799
0.00406833
0.0613009
0.00513989
0.0613682
0.00472014
0.0617978
0.00531046
0.0621343
0.00510698
0.00526579
0.0662461
-0.00473717
0.0674167
0.00669579
0.0675685
0.00272333
0.0668259
-0.00174967
0.066383
-0.000856146
0.0667054
0.00133408
0.0658773
-0.0013249
0.0664549
0.00467546
0.066186
0.000412803
0.0667224
0.00472457
0.0668127
0.00248634
0.0667506
0.00133312
0.0665642
0.00334138
0.066539
0.00128177
0.0663426
0.00364553
0.066126
0.00177101
0.065909
0.0027472
0.0658128
0.00232483
0.0655914
0.00268054
0.0656361
0.00351908
0.0655169
0.0032767
0.065816
0.00458336
0.0657117
0.00417263
0.0660284
0.00482319
0.0662039
0.00454467
0.0665921
0.00492229
0.0670248
0.00467418
0.00484131
0.0708361
-0.0040355
0.0720094
0.00552253
0.0723385
0.00239415
0.0714739
-0.00088509
0.0710219
-0.000404077
0.0713048
0.00105116
0.0706053
-0.000625457
0.0711111
0.00416967
0.0710019
0.000522023
0.0713731
0.00435338
0.0714253
0.00243417
0.0713318
0.0014266
0.0713542
0.00331898
0.0711393
0.00149664
0.0712055
0.00357938
0.0708449
0.00213159
0.0706234
0.00296867
0.0704893
0.00245891
0.0702931
0.0028768
0.0703908
0.00342134
0.0703133
0.00335418
0.0706992
0.00419746
0.0707927
0.00407921
0.0711315
0.00448439
0.0714281
0.00424806
0.0717934
0.00455701
0.0722539
0.00421365
0.00443237
0.0758563
-0.0033891
0.0767723
0.0046065
0.0772374
0.0019291
0.0764832
-0.000130912
0.0760222
5.69087e-05
0.0761143
0.000959022
0.0757009
-0.000211994
0.0760688
0.00380172
0.0760914
0.000499459
0.0763242
0.00412059
0.0762885
0.00246983
0.0762065
0.00150859
0.0763442
0.00318132
0.0760961
0.00174469
0.0762838
0.00339178
0.0759463
0.002469
0.0757685
0.00314647
0.0756161
0.00261139
0.0754384
0.00305442
0.0755785
0.00328126
0.0755311
0.00340164
0.0759036
0.00382489
0.0761272
0.00385563
0.07648
0.00413164
0.0768506
0.0038774
0.0772319
0.00417569
0.0776924
0.00375319
0.00400742
0.0813141
-0.00289106
0.0819663
0.00395431
0.0823859
0.00150958
0.0817949
0.000460086
0.0814582
0.000393599
0.0812878
0.00112938
0.0811199
-4.41092e-05
0.0814073
0.00351432
0.0814335
0.000473241
0.081659
0.00389515
0.0815865
0.00254228
0.0815434
0.00155178
0.0816871
0.00303752
0.0814209
0.00201097
0.0815992
0.00321345
0.0813764
0.00269179
0.0812843
0.00323856
0.0811768
0.00271892
0.0810649
0.00316633
0.0812258
0.00312031
0.0812336
0.00339387
0.0815386
0.00351991
0.081792
0.00360218
0.0821371
0.00378661
0.0825079
0.0035066
0.0829098
0.00377375
0.0833383
0.0033247
0.0035725
0.0871265
-0.00252735
0.08764
0.00344075
0.0878954
0.00125423
0.0874335
0.000921936
0.0873008
0.000526353
0.0869753
0.00145489
0.0868554
7.57715e-05
0.0871567
0.00321298
0.0870877
0.000542244
0.0873786
0.00360424
0.0873512
0.0025697
0.0873334
0.00156954
0.0874624
0.00290859
0.0871706
0.00230272
0.0872382
0.00314587
0.0871531
0.00277688
0.0871408
0.00325086
0.0871329
0.00272684
0.0871089
0.0031903
0.0872803
0.00294893
0.0873616
0.0033126
0.0876138
0.00326773
0.0878702
0.00334571
0.0881921
0.00346475
0.0885216
0.0031771
0.0889115
0.00338381
0.0892879
0.00294836
0.00314906
0.0932688
-0.00223395
0.0937011
0.00300847
0.0938674
0.00108796
0.0934974
0.00129193
0.0934944
0.000529327
0.0931466
0.00180269
0.0929748
0.000247586
0.0932957
0.00289209
0.0931543
0.000683584
0.0935173
0.00324124
0.0935227
0.00256432
0.0934633
0.00162898
0.09361
0.00276184
0.0933843
0.00252843
0.0933396
0.00319062
0.0933299
0.00278653
0.0933494
0.00323143
0.0934333
0.00264289
0.0935006
0.00312305
0.0936837
0.00276581
0.0938569
0.00313939
0.0941033
0.00302128
0.0943634
0.00308567
0.0946784
0.00314972
0.094967
0.00288852
0.0953343
0.00301649
0.09566
0.00262263
0.00275961
0.0997993
-0.00197748
0.100136
0.00267136
0.10031
0.000913999
0.100033
0.0015689
0.100028
0.00053505
0.0997347
0.00209568
0.099538
0.000444249
0.0998446
0.00258548
0.0997136
0.000814617
0.100102
0.00285251
0.100071
0.00259593
0.0999641
0.0017356
0.100113
0.00261286
0.100022
0.00261966
0.0999632
0.00324923
0.0999699
0.00277987
0.099997
0.00320434
0.100118
0.00252229
0.10025
0.00299032
0.100476
0.0025399
0.100713
0.00290305
0.100997
0.00273719
0.101267
0.00281537
0.101585
0.00283127
0.101852
0.00262186
0.102182
0.00268684
0.102462
0.00234249
0.00242501
0.10677
-0.0017478
0.107031
0.00241044
0.107223
0.000721774
0.107012
0.0017798
0.106932
0.000615232
0.106747
0.00228118
0.106594
0.000596949
0.106875
0.00230437
0.106796
0.000893448
0.107114
0.00253524
0.10701
0.00269944
0.106919
0.00182709
0.107007
0.0025249
0.107071
0.00255514
0.107098
0.00322267
0.107145
0.00273255
0.107187
0.0031619
0.107317
0.00239272
0.107458
0.00284886
0.107702
0.00229646
0.107948
0.00265693
0.108259
0.00242647
0.108534
0.00253961
0.108851
0.00251504
0.109109
0.00236313
0.109406
0.00239026
0.109658
0.0020904
0.00213733
0.114218
-0.00153959
0.114444
0.00218425
0.114627
0.000538814
0.114434
0.00197271
0.114293
0.000755876
0.114231
0.00234363
0.114178
0.000650231
0.114425
0.00205687
0.114337
0.000982002
0.114568
0.00230332
0.114431
0.00283658
0.114356
0.00190272
0.114421
0.00245988
0.114628
0.00234831
0.114736
0.00311406
0.114879
0.00258998
0.114921
0.00311919
0.115052
0.00226172
0.115158
0.00274354
0.115365
0.00208888
0.115589
0.00243321
0.115888
0.00212799
0.116171
0.00225578
0.116497
0.00218987
0.116765
0.00209425
0.11706
0.00209613
0.117297
0.00185257
0.0018748
0.12218
-0.00135179
0.12239
0.00197372
0.122534
0.000395075
0.122317
0.0021898
0.122232
0.000840694
0.122305
0.00227026
0.122262
0.000693818
0.122389
0.00192921
0.122322
0.00104925
0.122558
0.00206705
0.122454
0.0029413
0.122401
0.00195566
0.122427
0.00243345
0.122697
0.00207816
0.122854
0.0029578
0.123098
0.00234583
0.123156
0.00306137
0.123307
0.00210993
0.123385
0.00266553
0.123555
0.0019195
0.123732
0.00225638
0.12399
0.00186975
0.124259
0.00198646
0.124572
0.0018768
0.124858
0.00180837
0.125149
0.00180536
0.125402
0.00159964
0.00162745
0.130687
-0.00117913
0.130892
0.00176961
0.130963
0.000323921
0.13076
0.00239238
0.13078
0.000820683
0.130955
0.00209526
0.130892
0.000757161
0.130827
0.00199403
0.130776
0.00110053
0.1311
0.00174236
0.131149
0.00289303
0.131141
0.00196311
0.131058
0.00251684
0.131279
0.00185675
0.131415
0.0028218
0.131741
0.00202053
0.131865
0.00293671
0.132097
0.00187797
0.132203
0.00255957
0.132383
0.00173968
0.132513
0.002126
0.132714
0.00166868
0.132916
0.00178464
0.133171
0.00162219
0.133423
0.00155628
0.133683
0.00154566
0.133929
0.0013528
0.00139584
0.139791
-0.00102777
0.139953
0.00160725
0.139967
0.000309561
0.139885
0.00247507
0.139958
0.000747879
0.140038
0.00201513
0.140044
0.000750432
0.140059
0.00197998
0.139888
0.00127094
0.140092
0.00153829
0.140348
0.00263674
0.140477
0.00183501
0.140419
0.0025743
0.140552
0.00172422
0.140589
0.00278417
0.140911
0.00169848
0.141042
0.00280608
0.141355
0.00156472
0.141507
0.00240775
0.141753
0.00149326
0.1419
0.00197989
0.142087
0.00148104
0.14225
0.00162137
0.142437
0.00143602
0.142636
0.00135678
0.142827
0.00135452
0.143035
0.00114543
0.001216
0.149515
-0.000888335
0.14965
0.00147188
0.14962
0.000340324
0.149684
0.00241118
0.149771
0.000660698
0.14973
0.00205572
0.14973
0.000750503
0.149928
0.00178215
0.149853
0.00134562
0.149805
0.00158669
0.149992
0.00244926
0.150336
0.0014917
0.150318
0.00259226
0.150547
0.0014948
0.150533
0.00279875
0.150796
0.00143457
0.150904
0.0026985
0.151171
0.00129751
0.151347
0.00223204
0.151598
0.00124198
0.151786
0.00179161
0.151987
0.00128004
0.152162
0.00144687
0.152327
0.00127055
0.152506
0.00117806
0.152656
0.00120491
0.152832
0.000968846
0.0010847
0.159903
-0.000749991
0.160057
0.00131713
0.159977
0.000420599
0.160162
0.00222608
0.160161
0.000662042
0.160244
0.0019726
0.160144
0.000849976
0.160292
0.00163456
0.160445
0.00119265
0.160441
0.00159117
0.160392
0.00249809
0.160797
0.00108618
0.160787
0.0026024
0.161083
0.00119937
0.161165
0.00271664
0.161382
0.00121757
0.161529
0.00255126
0.161732
0.00109422
0.16188
0.00208472
0.162102
0.00101922
0.162259
0.00163488
0.162474
0.0010653
0.162633
0.00128712
0.162811
0.00109326
0.162978
0.00101085
0.163121
0.00106198
0.163289
0.000800344
0.000977912
0.171022
-0.000623962
0.17119
0.00114908
0.171091
0.00051981
0.171359
0.00195767
0.171231
0.000790972
0.17149
0.00171308
0.171367
0.000972548
0.171476
0.00152574
0.171521
0.00114774
0.171768
0.00134487
0.171733
0.0025327
0.171957
0.000862393
0.172052
0.00250701
0.17224
0.00101156
0.172441
0.00251584
0.172649
0.00100881
0.172827
0.0023733
0.173042
0.000879798
0.173153
0.00197403
0.173362
0.000809538
0.173475
0.00152241
0.173668
0.000872098
0.173809
0.00114628
0.173963
0.000939457
0.174127
0.000846295
0.174243
0.000945707
0.174416
0.000627483
0.000896538
0.182909
-0.00050694
0.183087
0.000971035
0.182984
0.000623129
0.183295
0.00164646
0.183135
0.000951496
0.183431
0.0014164
0.183316
0.00108794
0.183554
0.00128747
0.183399
0.0013028
0.183713
0.00103119
0.183852
0.00239377
0.18393
0.000784137
0.184099
0.00233817
0.184236
0.000874109
0.184439
0.00231284
0.184652
0.000795879
0.184848
0.00217749
0.185041
0.000686815
0.185203
0.00181257
0.185339
0.000673481
0.185501
0.00135964
0.18561
0.000763525
0.185787
0.000969255
0.185877
0.000849177
0.186054
0.00066963
0.186132
0.00086815
0.186296
0.000462717
0.000829695
0.195623
-0.000400728
0.195789
0.000805147
0.195717
0.000695074
0.196002
0.00136079
0.195885
0.0010691
0.196169
0.00113254
0.19607
0.00118681
0.19637
0.000986807
0.19622
0.00145311
0.196454
0.000797715
0.196698
0.00214925
0.196749
0.000732933
0.196957
0.0021307
0.197061
0.000770179
0.197307
0.00206634
0.197422
0.000681378
0.197721
0.00187856
0.19778
0.000627011
0.19807
0.00152315
0.198088
0.000655189
0.198338
0.0011098
0.198369
0.000732373
0.198573
0.000765841
0.198632
0.000789954
0.198787
0.000514826
0.198867
0.000787226
0.198982
0.000348582
0.000739088
0.209215
-0.000302431
0.20936
0.000659899
0.209327
0.000727941
0.209554
0.00113366
0.209527
0.00109673
0.20974
0.00091903
0.209726
0.00120114
0.209964
0.000748379
0.209965
0.00145255
0.210097
0.000665843
0.210382
0.00186418
0.21042
0.000695107
0.210693
0.00185714
0.210737
0.000726505
0.211062
0.00174103
0.211068
0.000675038
0.211439
0.00150802
0.211412
0.0006541
0.21175
0.00118553
0.211732
0.000672946
0.211986
0.000855144
0.212018
0.00070061
0.21219
0.00059382
0.212274
0.00070644
0.212377
0.000411368
0.212491
0.000673599
0.212547
0.000292876
0.000614724
0.223754
-0.000216658
0.223876
0.000537969
0.223887
0.000716915
0.224071
0.000949722
0.224116
0.00105154
0.224272
0.000762944
0.224352
0.0011218
0.224492
0.000607946
0.224626
0.00131838
0.224691
0.000600832
0.224997
0.00155814
0.225024
0.000668377
0.225336
0.00154552
0.225359
0.000703718
0.225694
0.00140506
0.225694
0.000675794
0.22603
0.00117161
0.22603
0.00065387
0.22631
0.000906214
0.226341
0.000642104
0.226534
0.000661295
0.22661
0.000624515
0.226729
0.000475105
0.226842
0.000593611
0.226905
0.000348105
0.227035
0.00054419
0.227064
0.000264029
0.000482851
0.239304
-0.00014591
0.239408
0.000434568
0.239459
0.000666078
0.239615
0.000793408
0.239719
0.000947827
0.239836
0.000645757
0.239974
0.000983896
0.240058
0.000523394
0.240258
0.00111903
0.240304
0.000554305
0.240603
0.00125952
0.24064
0.000631046
0.240948
0.00123775
0.240991
0.000660446
0.241293
0.00110303
0.241333
0.000635508
0.241602
0.000903061
0.241657
0.000599088
0.241865
0.000698172
0.241945
0.000561557
0.242086
0.000520605
0.242191
0.000519189
0.242279
0.000387995
0.242399
0.000473198
0.24245
0.000297002
0.242572
0.000422429
0.242601
0.000234991
0.000369221
0.255935
-9.20045e-05
0.256023
0.000345791
0.256107
0.000582626
0.256251
0.000649588
0.256389
0.000809218
0.256492
0.00054306
0.256657
0.000818335
0.256726
0.000454988
0.25694
0.000904411
0.256997
0.000497786
0.25727
0.000986175
0.257336
0.000565317
0.257613
0.000960448
0.257691
0.000582796
0.257949
0.000845262
0.258032
0.000552376
0.258248
0.000686865
0.258341
0.000506658
0.258505
0.000533422
0.25861
0.000456457
0.258726
0.000404563
0.258838
0.000407415
0.258917
0.000308884
0.25903
0.000360923
0.259084
0.000242607
0.259189
0.000316992
0.259228
0.000196548
0.000274728
0.273716
-5.30871e-05
0.273796
0.000265906
0.273905
0.000472878
0.274044
0.000510676
0.274208
0.000645446
0.274311
0.000439875
0.274488
0.000641546
0.274562
0.000381449
0.274771
0.000695014
0.274844
0.000424599
0.275085
0.000744983
0.275175
0.000475393
0.275419
0.000716524
0.275523
0.000478567
0.275746
0.000622472
0.275856
0.000442817
0.276042
0.000501084
0.276157
0.000391128
0.276304
0.000386094
0.276421
0.000340036
0.276529
0.000296549
0.276638
0.000298285
0.276717
0.000229535
0.276822
0.000256685
0.276885
0.000179413
0.276982
0.000219617
0.277035
0.000143703
0.000187192
0.292725
-2.44054e-05
0.292809
0.000182181
0.292938
0.000343546
0.293086
0.000362713
0.293266
0.000465809
0.29338
0.000325427
0.293562
0.000459859
0.293654
0.000290079
0.293861
0.000487741
0.293966
0.000319073
0.294199
0.000511896
0.294323
0.000352298
0.294546
0.000492788
0.294671
0.00035361
0.294862
0.000431724
0.294979
0.000326229
0.295129
0.000350949
0.295237
0.000282707
0.295358
0.000265565
0.295466
0.000231241
0.295567
0.000195651
0.295679
0.000186899
0.295766
0.000141881
0.295875
0.00014848
0.295952
0.000102205
0.296054
0.000116984
0.296124
7.43997e-05
9.30181e-05
0.313054
-6.41067e-06
0.313141
9.47886e-05
0.313296
0.000188955
0.313464
0.000194307
0.31368
0.000250649
0.313833
0.00017196
0.314056
0.000237028
0.314197
0.000149295
0.314441
0.000242978
0.3146
0.000160891
0.31486
0.000251671
0.315035
0.00017754
0.315285
0.00024255
0.31546
0.000177988
0.31568
0.000212048
0.315843
0.000163159
0.316021
0.000172841
0.316163
0.000141345
0.316293
0.000134962
0.316404
0.000120329
0.316495
0.000104512
0.316584
9.87052e-05
0.316647
7.80271e-05
0.316717
7.88014e-05
0.316762
5.71839e-05
0.316817
6.17185e-05
0.31685
4.15936e-05
4.80766e-05
0.334794
0.334888
0.335077
0.335272
0.335522
0.335694
0.335931
0.336081
0.336324
0.336485
0.336736
0.336914
0.337156
0.337334
0.337546
0.337709
0.337882
0.338024
0.338159
0.338279
0.338383
0.338482
0.33856
0.338639
0.338696
0.338758
0.338799
)
;

boundaryField
{
    outlet
    {
        type            calculated;
        value           nonuniform 0();
    }
    upperWall
    {
        type            symmetryPlane;
        value           uniform 0;
    }
    lowerWall
    {
        type            symmetryPlane;
        value           nonuniform 0();
    }
    inlet
    {
        type            calculated;
        value           nonuniform List<scalar> 
40
(
-0.053033
-0.053033
-0.053033
-0.053033
-0.053033
-0.053033
-0.053033
-0.053033
-0.053033
-0.053033
-0.0478286
-0.051148
-0.0546978
-0.058494
-0.0625537
-0.0668951
-0.0715378
-0.0765027
-0.0818122
-0.0874902
-0.0935622
-0.100056
-0.107
-0.114426
-0.122367
-0.13086
-0.139942
-0.149655
-0.160041
-0.171148
-0.183026
-0.195729
-0.209313
-0.22384
-0.239375
-0.255988
-0.273755
-0.292754
-0.313072
-0.3348
)
;
    }
    cylinder
    {
        type            calculated;
        value           nonuniform 0();
    }
    frontAndBack
    {
        type            empty;
        value           nonuniform 0();
    }
    procBoundary4to0
    {
        type            processor;
        value           nonuniform List<scalar> 
33
(
-0.000325852
-0.000325606
-0.000328314
0.000706623
-0.000298123
-0.00203505
-0.00097982
-0.000294045
-0.00105001
0.000211231
0.00054593
-0.000886544
-0.000205406
-0.000295364
-0.00116092
-0.00086439
-0.00081214
-0.000861291
-0.000823225
-0.00069378
-0.000557748
-0.000521125
-0.000442928
-0.000413697
-0.000358923
-0.000351746
-0.000337452
-0.000344022
-0.000347221
-0.000355211
-0.0003655
-0.000374875
-0.000391203
)
;
    }
    procBoundary4to5
    {
        type            processor;
        value           nonuniform List<scalar> 
45
(
0.042311
0.042113
0.0416309
0.00898164
0.0436403
0.0424975
0.0149805
0.0436702
0.0182978
0.0444978
0.00587977
0.0428304
0.0400232
0.00635073
0.0376117
0.0464743
0.0505971
0.0543154
0.0582535
0.0626117
0.0674493
0.0726628
0.0781174
0.0837732
0.0897113
0.0960495
0.102796
0.109946
0.11756
0.125649
0.134161
0.143214
0.152964
0.163396
0.174498
0.186363
0.199072
0.212671
0.227195
0.242714
0.259322
0.277123
0.296218
0.316895
0.338848
)
;
    }
}


// ************************************************************************* //
