/*--------------------------------*- C++ -*----------------------------------*\
| =========                 |                                                 |
| \\      /  F ield         | OpenFOAM: The Open Source CFD Toolbox           |
|  \\    /   O peration     | Version:                                        |
|   \\  /    A nd           | Website:  www.openfoam.com                      |
|    \\/     M anipulation  |                                                 |
\*---------------------------------------------------------------------------*/
FoamFile
{
    version     2.0;
    format      ascii;
    class       volVectorField;
    location    "133.2";
    object      U;
}
// * * * * * * * * * * * * * * * * * * * * * * * * * * * * * * * * * * * * * //

dimensions      [0 1 -1 0 0 0 0];


internalField   nonuniform List<vector> 
1161
(
(1.33801 0.103847 -4.07429e-20)
(1.46865 0.104495 6.54701e-20)
(1.4641 0.0912211 -1.20936e-20)
(1.43528 0.0621894 -5.51435e-21)
(1.43677 0.0224751 1.50931e-20)
(1.43609 -0.0104995 -1.18637e-21)
(1.41925 -0.0356766 -2.77072e-20)
(1.39505 -0.0851211 -1.08966e-20)
(1.36872 -0.0696101 -2.44614e-20)
(1.32677 -0.161985 -3.68113e-20)
(1.39881 0.0833727 -5.17359e-20)
(1.41154 0.0595347 1.32835e-20)
(1.40847 0.0400054 3.41046e-20)
(1.39138 0.0161685 -5.9308e-20)
(1.37119 -0.0153753 6.53283e-21)
(1.35449 -0.0295354 2.5299e-20)
(1.32623 -0.0587918 6.47934e-20)
(1.3088 -0.0809728 -4.59256e-20)
(1.36716 0.0579703 -3.88086e-20)
(1.35113 0.0345063 1.19137e-20)
(1.34126 0.0237397 5.47616e-20)
(1.31964 -0.00936393 -2.29483e-20)
(1.29948 -0.0127719 6.66684e-21)
(1.28021 -0.0351684 -4.13967e-21)
(1.29605 0.026943 -3.19181e-20)
(1.27727 0.0173418 1.10802e-20)
(1.25969 -0.0157613 4.3239e-21)
(-0.219071 -0.00406999 4.46035e-20)
(-0.24137 0.250302 -5.11316e-20)
(-0.242876 0.503284 -7.77255e-22)
(-0.235807 0.724746 2.06131e-20)
(-0.2349 0.920175 -2.89603e-20)
(-0.24766 1.10949 -2.12061e-20)
(-0.257142 1.28289 4.83701e-20)
(-0.245007 1.41672 -3.32729e-20)
(-0.224025 1.49952 3.62998e-20)
(-0.176005 1.50272 3.03655e-20)
(-0.0894588 1.38631 -2.63797e-20)
(0.0678131 1.12457 -3.31906e-20)
(0.230914 0.870493 2.73145e-20)
(0.384584 0.541394 1.9115e-20)
(0.539037 0.266793 6.65745e-20)
(0.6315 -0.0623751 8.79051e-22)
(0.774051 -0.448177 -2.42515e-20)
(-0.327597 0.257189 -3.06584e-20)
(-0.357397 0.481473 7.99726e-21)
(-0.388961 0.699267 -4.01993e-20)
(-0.416975 0.911178 4.85646e-21)
(-0.427965 1.09956 3.28913e-20)
(-0.40861 1.23499 -1.54664e-19)
(-0.373256 1.32315 5.52273e-20)
(-0.300002 1.34836 3.36071e-20)
(-0.167797 1.28234 -1.24647e-19)
(-0.0276591 1.13498 2.43736e-20)
(0.183045 0.79911 1.5597e-20)
(0.389309 0.553659 -7.00341e-20)
(0.545426 0.288235 -2.89227e-19)
(0.706575 0.0938096 1.52688e-20)
(0.825878 -0.221079 5.50598e-20)
(1.0085 -0.581572 7.30275e-20)
(-0.391467 0.265475 1.95803e-19)
(-0.456306 0.481077 -5.75622e-20)
(-0.498899 0.690925 -1.02932e-19)
(-0.511151 0.872991 4.59514e-20)
(-0.484951 0.998637 8.47245e-20)
(-0.432864 1.09574 -1.04058e-19)
(-0.360645 1.16628 1.82491e-20)
(-0.223933 1.14572 1.73794e-19)
(-0.037749 1.03618 -2.01319e-19)
(0.150186 0.907958 -4.27094e-21)
(0.399526 0.571029 9.31065e-20)
(0.596599 0.350964 2.53754e-20)
(0.715677 0.144863 -1.86515e-22)
(0.873677 -0.0260529 4.05643e-19)
(1.03586 -0.358445 -3.19785e-19)
(1.22847 -0.657591 1.41345e-19)
(-0.36353 0.331979 3.48777e-20)
(-0.42973 0.493314 -1.14019e-19)
(-0.4537 0.644131 1.10361e-19)
(-0.448815 0.771844 2.57833e-20)
(-0.415408 0.884513 -1.74021e-20)
(-0.359467 0.978436 3.26119e-20)
(-0.210252 0.991643 1.16863e-19)
(-0.0335505 0.974196 1.92899e-20)
(0.147333 0.862125 -1.87307e-19)
(0.377015 0.724126 -8.26569e-20)
(0.635689 0.414052 -4.68369e-20)
(0.789302 0.245718 1.0974e-19)
(0.888329 0.0579503 1.74788e-19)
(1.08367 -0.138806 7.81048e-20)
(1.27306 -0.474217 -2.74872e-19)
(1.42174 -0.684752 2.25726e-19)
(-0.276652 0.380435 3.29891e-20)
(-0.32643 0.517356 -2.34454e-19)
(-0.366048 0.64687 3.29165e-19)
(-0.350989 0.754109 -1.67419e-19)
(-0.288072 0.838064 -1.54881e-19)
(-0.172686 0.867141 1.29666e-19)
(0.0178765 0.785658 -1.10936e-19)
(0.162367 0.784435 2.28908e-20)
(0.352472 0.670999 -9.40189e-20)
(0.619292 0.510588 9.51073e-20)
(0.811018 0.288458 6.96159e-20)
(0.924656 0.191334 2.43031e-19)
(1.07661 -0.0270943 -1.59184e-19)
(1.32845 -0.248898 -6.24665e-20)
(1.48641 -0.533145 -2.16235e-19)
(1.54677 -0.636577 5.04465e-19)
(-0.23649 0.554129 -1.98257e-19)
(-0.228594 0.634445 1.04933e-20)
(-0.163134 0.6922 7.18025e-20)
(-0.0873515 0.71581 4.68868e-20)
(0.0302063 0.719699 -1.26044e-19)
(0.185035 0.667385 1.6088e-20)
(0.3542 0.628803 -1.40272e-19)
(0.586376 0.484407 3.10987e-19)
(0.776513 0.369264 -1.26452e-19)
(0.887867 0.239713 -2.00707e-19)
(1.07427 0.122374 -7.32269e-21)
(1.33332 -0.1414 -1.69802e-19)
(1.56015 -0.326789 2.09439e-19)
(1.61252 -0.508209 1.17777e-19)
(1.57972 -0.531774 -2.04134e-19)
(-0.0957208 0.623502 -1.07037e-20)
(-0.0676688 0.64399 1.44537e-19)
(0.0194841 0.66574 2.3188e-19)
(0.174253 0.648269 -4.72854e-20)
(0.37092 0.566306 6.73938e-20)
(0.544783 0.461632 9.33798e-20)
(0.683466 0.380167 -2.34776e-19)
(0.813197 0.305741 -3.87298e-20)
(1.04682 0.167582 4.29617e-19)
(1.35585 -0.0138904 -1.05815e-20)
(1.58861 -0.223064 -3.02482e-19)
(1.66757 -0.313408 2.63348e-19)
(1.61059 -0.411157 -1.32717e-19)
(1.53591 -0.400361 -9.8792e-21)
(0.0490472 0.599894 1.19247e-20)
(0.17886 0.551194 7.44636e-20)
(0.290279 0.482232 -1.34148e-19)
(0.397794 0.434936 -6.26625e-20)
(0.52948 0.37476 -5.93804e-20)
(0.743571 0.308109 2.05726e-20)
(1.04708 0.173056 -1.12842e-19)
(1.39347 0.033381 -1.56105e-19)
(1.61387 -0.10907 -4.29641e-21)
(1.6627 -0.197707 2.99385e-19)
(1.60742 -0.230983 -1.25216e-19)
(1.53308 -0.302206 -4.92885e-20)
(1.47764 -0.294764 4.73248e-20)
(0.0068096 0.37889 5.86371e-21)
(0.175948 0.342366 2.57028e-20)
(0.432202 0.29102 1.01817e-20)
(0.76243 0.220055 -1.28419e-20)
(1.12843 0.142201 3.3935e-20)
(1.4503 0.0463958 6.86899e-22)
(1.61907 -0.0139621 -9.56645e-20)
(1.61099 -0.0822193 3.73145e-20)
(1.55438 -0.109414 1.33394e-19)
(1.50246 -0.163993 -1.93623e-19)
(1.46645 -0.21911 2.12348e-19)
(1.42727 -0.216797 -1.88972e-19)
(0.516888 0.150289 -1.51079e-20)
(0.903687 0.12925 -2.99245e-20)
(1.2524 0.108994 8.32719e-20)
(1.49289 0.0781012 -7.73663e-20)
(1.56193 0.0502251 2.89365e-20)
(1.52043 0.0180818 -6.60162e-20)
(1.48215 -0.0365473 7.43611e-20)
(1.46791 -0.0634383 -8.8e-20)
(1.44097 -0.132332 1.01766e-19)
(1.41731 -0.140851 4.76369e-20)
(1.37949 -0.167684 1.75396e-20)
(0.853658 -0.82675 2.64778e-20)
(0.862178 -1.06628 -6.15342e-21)
(0.852738 -1.10091 3.86142e-21)
(0.843214 -1.0552 1.89246e-21)
(0.816771 -1.00121 -8.49626e-21)
(0.795996 -0.964852 2.45271e-21)
(0.7785 -0.95087 2.37694e-21)
(0.739283 -1.02443 -3.86091e-21)
(0.679892 -1.05252 3.82868e-21)
(0.579237 -0.977544 -1.43492e-20)
(0.504804 -0.695591 -5.22157e-22)
(0.428033 -0.282843 -1.68114e-22)
(0.419209 0.20111 9.99246e-21)
(0.428697 0.613886 5.41953e-21)
(0.492494 0.819286 -4.73914e-21)
(0.575682 0.907207 -3.98304e-22)
(0.658551 0.863831 -3.64513e-22)
(0.701071 0.910225 -2.02494e-21)
(0.699923 0.890028 4.02614e-21)
(0.601086 0.919027 -2.23538e-21)
(1.06115 -0.913835 -1.76176e-20)
(1.03269 -1.08834 -2.79297e-20)
(0.977757 -1.09222 5.80597e-21)
(0.92923 -1.03488 2.36987e-20)
(0.857846 -0.979547 1.22024e-20)
(0.809895 -0.946074 -5.76238e-21)
(0.764585 -0.911088 -3.68125e-21)
(0.691917 -0.958778 1.95332e-20)
(0.604619 -0.960534 -2.01803e-20)
(0.491146 -0.88808 -2.3191e-20)
(0.39855 -0.624022 3.04706e-21)
(0.288383 -0.267311 4.88609e-20)
(0.302943 0.167445 -3.666e-20)
(0.31964 0.525971 -2.25922e-20)
(0.437254 0.723967 3.78444e-20)
(0.544217 0.831341 -1.27601e-20)
(0.64317 0.812628 -6.07968e-22)
(0.687824 0.903706 1.5143e-20)
(0.748553 0.916597 -2.60167e-20)
(0.665113 0.961948 9.17876e-21)
(1.23389 -0.91203 -1.32512e-19)
(1.16583 -1.02038 2.21018e-20)
(1.08734 -1.01255 1.77667e-20)
(1.01295 -0.961258 -2.05694e-20)
(0.925748 -0.917794 1.21745e-20)
(0.855673 -0.896955 -7.04024e-21)
(0.782866 -0.851623 2.43461e-20)
(0.693651 -0.880995 2.66419e-22)
(0.570086 -0.88535 1.25152e-20)
(0.46082 -0.825869 2.45877e-22)
(0.354397 -0.56734 -4.43033e-20)
(0.235182 -0.266313 4.38147e-21)
(0.246353 0.12193 -1.6651e-20)
(0.273257 0.447334 3.13366e-20)
(0.397872 0.635061 -1.4267e-20)
(0.534912 0.783985 1.79262e-20)
(0.649019 0.780878 1.71256e-20)
(0.708574 0.864295 -1.77044e-20)
(0.818516 0.925745 -2.09943e-20)
(0.757169 0.990559 1.14345e-20)
(1.36417 -0.868522 -1.52945e-19)
(1.26045 -0.927252 7.18001e-20)
(1.16896 -0.920053 6.62781e-20)
(1.06983 -0.891347 -4.67108e-20)
(0.988722 -0.859672 2.76061e-20)
(0.907653 -0.84765 -3.9195e-20)
(0.825265 -0.793595 2.67715e-20)
(0.737292 -0.778 1.29979e-21)
(0.587916 -0.789782 -2.85485e-20)
(0.474843 -0.76054 9.28867e-21)
(0.339752 -0.536314 1.97347e-20)
(0.26326 -0.269258 -2.65934e-20)
(0.229919 0.0468705 1.60309e-20)
(0.297259 0.352139 6.09388e-21)
(0.396766 0.501628 8.20979e-21)
(0.522636 0.669855 -3.05283e-20)
(0.675721 0.702789 5.753e-21)
(0.733447 0.79915 -5.47373e-21)
(0.853177 0.917052 3.00623e-20)
(0.871923 0.999493 3.44698e-21)
(1.43809 -0.755774 -3.35156e-19)
(1.31111 -0.790643 1.87167e-20)
(1.22551 -0.781813 2.16508e-19)
(1.12625 -0.787822 -1.37836e-19)
(1.04255 -0.772193 -3.12166e-21)
(0.935516 -0.765038 2.88487e-20)
(0.839143 -0.738108 1.62738e-21)
(0.752295 -0.702321 -7.99923e-21)
(0.637114 -0.704838 -3.21727e-20)
(0.512884 -0.693158 1.57662e-20)
(0.370602 -0.526093 1.68312e-20)
(0.320257 -0.291995 -3.78591e-21)
(0.268321 -0.0255188 3.25292e-20)
(0.325472 0.261789 1.1935e-20)
(0.417095 0.420051 -3.37609e-20)
(0.504955 0.568101 -1.44899e-20)
(0.682052 0.632032 3.37286e-21)
(0.759882 0.714192 -6.86841e-21)
(0.897803 0.83178 2.75816e-20)
(0.988325 0.958566 -3.79917e-20)
(1.44796 -0.617073 2.08339e-19)
(1.33105 -0.667229 -5.35415e-20)
(1.26505 -0.682027 7.0915e-20)
(1.1746 -0.69862 -2.8994e-20)
(1.08094 -0.686616 -7.74669e-20)
(0.986726 -0.677997 4.1092e-20)
(0.900425 -0.663358 -1.69513e-20)
(0.80416 -0.631895 3.70008e-20)
(0.724932 -0.613868 -4.72845e-20)
(0.569427 -0.616128 1.33616e-20)
(0.455271 -0.508824 -2.05072e-20)
(0.37537 -0.321292 8.79502e-21)
(0.346359 -0.0909962 1.17715e-20)
(0.35553 0.140564 1.23227e-20)
(0.471328 0.303029 1.21405e-21)
(0.526937 0.439298 -9.36292e-21)
(0.660127 0.518258 3.30175e-21)
(0.781682 0.607806 8.73295e-21)
(0.898772 0.741342 4.5241e-21)
(1.04855 0.904284 -8.26918e-20)
(1.42733 -0.485759 -1.2096e-20)
(1.34037 -0.54379 -5.55101e-20)
(1.27816 -0.567485 2.0639e-21)
(1.20229 -0.592133 -6.29942e-20)
(1.11336 -0.596326 6.34595e-20)
(1.03397 -0.598296 2.74381e-20)
(0.950883 -0.596862 -1.6131e-20)
(0.857934 -0.580289 -3.89743e-21)
(0.797534 -0.534178 -2.11478e-21)
(0.665271 -0.528945 -2.60065e-21)
(0.552785 -0.486394 8.56075e-22)
(0.445171 -0.350285 -3.11148e-21)
(0.426148 -0.14879 -9.84176e-21)
(0.410124 0.0621952 1.09869e-20)
(0.479144 0.228455 -2.00352e-20)
(0.530233 0.371671 6.32501e-21)
(0.647628 0.428225 8.45986e-21)
(0.796408 0.493255 1.80608e-20)
(0.89671 0.596224 -3.6247e-21)
(1.08731 0.768582 -5.71251e-20)
(1.19793 0.882291 1.75648e-20)
(1.39866 -0.385944 -1.21683e-19)
(1.33714 -0.44444 5.49701e-20)
(1.28826 -0.480189 5.53906e-20)
(1.21863 -0.511839 -6.96296e-20)
(1.13733 -0.526858 4.93797e-20)
(1.0643 -0.529452 3.91977e-21)
(0.99707 -0.524372 -5.51268e-21)
(0.915648 -0.530419 -3.34499e-20)
(0.848773 -0.492867 6.86517e-21)
(0.770355 -0.44739 -3.48503e-21)
(0.653233 -0.429017 4.64603e-22)
(0.543765 -0.356712 1.43378e-21)
(0.482236 -0.21722 3.74729e-21)
(0.482208 -0.0151781 4.648e-21)
(0.498364 0.136797 -4.2884e-21)
(0.561924 0.265897 5.78058e-21)
(0.622292 0.329734 -5.34151e-21)
(0.736285 0.399684 -3.81271e-22)
(0.873808 0.488134 2.69754e-22)
(1.06376 0.640137 -4.31012e-21)
(1.22158 0.800315 -2.67158e-21)
(1.3742 -0.306822 2.64791e-20)
(1.33212 -0.351139 5.13372e-20)
(1.29451 -0.386597 -1.32112e-21)
(1.22766 -0.417597 1.32321e-20)
(1.16714 -0.44272 9.26353e-21)
(1.09769 -0.467429 -2.40241e-20)
(1.04661 -0.474359 3.77356e-21)
(0.978329 -0.473402 -2.05485e-20)
(0.902073 -0.46988 2.82649e-20)
(0.842408 -0.413724 -1.01012e-20)
(0.750076 -0.378891 1.56441e-22)
(0.657373 -0.324116 4.37703e-22)
(0.548471 -0.247504 2.85948e-21)
(0.543836 -0.0765388 -4.08402e-21)
(0.535966 0.0900841 4.07809e-22)
(0.58666 0.217464 6.58843e-22)
(0.621956 0.270353 1.32131e-21)
(0.719351 0.281019 5.69367e-22)
(0.851391 0.325774 -6.36665e-21)
(1.00671 0.46764 7.10393e-21)
(1.23315 0.691658 -3.06645e-20)
(1.34611 -0.244601 2.16794e-21)
(1.31304 -0.280265 4.14054e-21)
(1.28983 -0.316707 3.8245e-20)
(1.23202 -0.356186 -3.9889e-20)
(1.18936 -0.386205 -3.6076e-20)
(1.12675 -0.410176 3.86165e-20)
(1.07636 -0.432824 -2.68372e-20)
(1.01843 -0.424493 9.84756e-21)
(0.945485 -0.434931 7.25816e-21)
(0.881363 -0.393961 -6.16868e-21)
(0.816363 -0.359036 2.04034e-21)
(0.752823 -0.311193 -4.81732e-21)
(0.659396 -0.268256 -3.02944e-21)
(0.614194 -0.16099 6.1532e-21)
(0.577727 0.00873352 4.82184e-21)
(0.587466 0.154451 -3.67834e-21)
(0.602165 0.247202 -8.77166e-24)
(0.656176 0.248927 9.10359e-23)
(0.771379 0.256836 -7.98825e-22)
(0.90086 0.305282 5.5684e-21)
(1.12977 0.508159 1.14729e-20)
(1.31394 -0.16877 0)
(1.29166 -0.206552 0)
(1.28478 -0.239105 0)
(1.23794 -0.261347 0)
(1.20179 -0.291578 0)
(1.15107 -0.307465 0)
(1.10037 -0.34322 0)
(1.0429 -0.332385 0)
(0.980079 -0.346729 0)
(0.924771 -0.338173 0)
(0.862869 -0.304405 0)
(0.825273 -0.257457 0)
(0.753161 -0.218253 0)
(0.708308 -0.16522 0)
(0.670241 -0.0189949 0)
(0.632538 0.130242 0)
(0.635047 0.213597 0)
(0.678779 0.195069 0)
(0.78484 0.169322 0)
(0.905884 0.186969 0)
(1.10822 0.36994 0)
(1.2761 0.531618 0)
(1.26891 -0.146925 0)
(1.25648 -0.185753 0)
(1.24274 -0.230914 0)
(1.19717 -0.254758 0)
(1.16411 -0.297501 0)
(1.10439 -0.308086 0)
(1.05662 -0.334435 0)
(0.991956 -0.324606 0)
(0.947379 -0.34045 0)
(0.892266 -0.308461 0)
(0.811129 -0.277302 0)
(0.782807 -0.242613 0)
(0.71899 -0.18877 0)
(0.719363 -0.129191 0)
(0.699115 0.038784 0)
(0.688489 0.151639 0)
(0.696919 0.21135 0)
(0.735692 0.156507 0)
(0.793846 0.116608 0)
(0.864353 0.111435 0)
(1.03838 0.272664 0)
(1.24988 0.46656 0)
(1.227 -0.134526 0)
(1.22156 -0.160175 0)
(1.21418 -0.196063 0)
(1.18052 -0.214455 0)
(1.15199 -0.245394 0)
(1.09959 -0.241119 0)
(1.06924 -0.273372 0)
(1.02968 -0.249136 0)
(0.987617 -0.268091 0)
(0.955027 -0.248097 0)
(0.900316 -0.21838 0)
(0.876304 -0.190109 0)
(0.791895 -0.146082 0)
(0.762815 -0.14778 0)
(0.73993 0.0205316 0)
(0.758008 0.144586 0)
(0.788903 0.208863 0)
(0.834533 0.143655 0)
(0.864251 0.0972558 0)
(0.87508 0.0663332 0)
(1.00154 0.175601 0)
(1.25341 0.388606 0)
(1.19849 -0.112025 0)
(1.1942 -0.134214 0)
(1.18444 -0.171672 0)
(1.16143 -0.18127 0)
(1.12597 -0.220588 0)
(1.09096 -0.215878 0)
(1.04927 -0.254127 0)
(1.01076 -0.230541 0)
(0.968812 -0.250895 0)
(0.929035 -0.229237 0)
(0.876397 -0.206866 0)
(0.856185 -0.189962 0)
(0.821327 -0.110073 0)
(0.796655 -0.123277 0)
(0.76858 0.0364417 0)
(0.796681 0.118331 0)
(0.859955 0.185265 0)
(0.915528 0.117359 0)
(0.947603 0.0907847 0)
(0.939238 0.0571999 0)
(0.965164 0.0944782 0)
(1.14194 0.293671 0)
(1.16953 -0.0989706 0)
(1.17202 -0.112749 0)
(1.15549 -0.150678 0)
(1.14378 -0.155372 0)
(1.10771 -0.193873 0)
(1.08368 -0.18362 0)
(1.04514 -0.213445 0)
(1.01057 -0.195546 0)
(0.983859 -0.204114 0)
(0.943933 -0.192942 0)
(0.925643 -0.153878 0)
(0.877726 -0.160128 0)
(0.86212 -0.0755037 0)
(0.824199 -0.111932 0)
(0.808944 0.0309287 0)
(0.832847 0.0781157 0)
(0.901411 0.137506 0)
(0.952617 0.0896678 0)
(0.967857 0.0732163 0)
(0.986309 0.0657124 0)
(0.917907 0.0605649 0)
(1.01058 0.246992 0)
(1.1473 -0.0878387 0)
(1.15046 -0.0948961 0)
(1.13756 -0.129268 0)
(1.12649 -0.129774 0)
(1.09867 -0.161529 0)
(1.07293 -0.155393 0)
(1.04121 -0.17825 0)
(1.00861 -0.171175 0)
(0.988866 -0.168091 0)
(0.945061 -0.171752 0)
(0.939463 -0.128373 0)
(0.888176 -0.149489 0)
(0.895424 -0.0581959 0)
(0.852306 -0.0945531 0)
(0.855548 0.0283041 0)
(0.866562 0.0446098 0)
(0.922434 0.0997703 0)
(0.965603 0.0754756 0)
(0.961303 0.0509145 0)
(0.991074 0.0898285 0)
(0.934795 0.075579 0)
(0.976006 0.185852 0)
(1.13264 -0.0736975 0)
(1.13132 -0.0763481 0)
(1.12379 -0.106398 0)
(1.1087 -0.105422 0)
(1.09107 -0.133093 0)
(1.06054 -0.130912 0)
(1.04284 -0.144625 0)
(1.00477 -0.148191 0)
(0.995019 -0.133878 0)
(0.95314 -0.154113 0)
(0.952241 -0.09864 0)
(0.913564 -0.132683 0)
(0.912546 -0.0430813 0)
(0.890937 -0.0775264 0)
(0.882998 0.0181654 0)
(0.909434 0.0283034 0)
(0.926049 0.0649306 0)
(0.976301 0.0690349 0)
(0.958151 0.0461209 0)
(0.978172 0.090025 0)
(0.976863 0.0684823 0)
(0.988763 0.153209 0)
(1.11803 -0.0595076 0)
(1.11239 -0.0614274 0)
(1.1102 -0.0851068 0)
(1.09248 -0.0866418 0)
(1.08419 -0.106105 0)
(1.05251 -0.108411 0)
(1.04387 -0.115304 0)
(1.00602 -0.123408 0)
(1.00186 -0.108131 0)
(0.96545 -0.12862 0)
(0.961448 -0.0807503 0)
(0.93713 -0.114075 0)
(0.925123 -0.0364786 0)
(0.924459 -0.0671041 0)
(0.905737 0.0116679 0)
(0.940646 0.0140074 0)
(0.935908 0.0449387 0)
(0.978371 0.0586883 0)
(0.966975 0.0392693 0)
(0.984385 0.0822413 0)
(0.99469 0.0705948 0)
(1.00441 0.113402 0)
(1.10347 -0.047666 0)
(1.09367 -0.0479048 0)
(1.09847 -0.067256 0)
(1.07836 -0.0679978 0)
(1.07835 -0.0833876 0)
(1.04719 -0.0866659 0)
(1.04522 -0.0900808 0)
(1.0104 -0.10103 0)
(1.00799 -0.0847737 0)
(0.979138 -0.107321 0)
(0.970914 -0.0656781 0)
(0.959169 -0.0958683 0)
(0.936437 -0.034401 0)
(0.952447 -0.056489 0)
(0.921101 0.00217084 0)
(0.965311 0.00605581 0)
(0.946123 0.0292743 0)
(0.986516 0.0475201 0)
(0.979902 0.0379351 0)
(0.988843 0.0687336 0)
(1.01148 0.0588137 0)
(1.02297 0.0896007 0)
(1.08958 -0.0368328 0)
(1.07793 -0.0365742 0)
(1.08652 -0.0516257 0)
(1.06648 -0.0523484 0)
(1.07206 -0.0647248 0)
(1.04313 -0.0670463 0)
(1.04568 -0.0715468 0)
(1.01458 -0.0786028 0)
(1.01455 -0.0693322 0)
(0.991563 -0.0839784 0)
(0.982464 -0.0560934 0)
(0.976749 -0.0771039 0)
(0.952411 -0.0321819 0)
(0.970886 -0.0497898 0)
(0.939594 -0.00243492 0)
(0.980044 -0.00459753 0)
(0.957972 0.0226811 0)
(0.995924 0.0319793 0)
(0.985627 0.0352643 0)
(1.00751 0.0546217 0)
(1.01419 0.0506164 0)
(1.03193 0.0686863 0)
(1.07625 -0.0282725 0)
(1.06447 -0.0265309 0)
(1.07434 -0.0401995 0)
(1.05692 -0.038951 0)
(1.06429 -0.0508461 0)
(1.03992 -0.0511896 0)
(1.04375 -0.0564897 0)
(1.01911 -0.0607002 0)
(1.01938 -0.0550229 0)
(1.00216 -0.0656208 0)
(0.99413 -0.0460216 0)
(0.99133 -0.0610578 0)
(0.96901 -0.0296741 0)
(0.98609 -0.0417747 0)
(0.955847 -0.00804386 0)
(0.992462 -0.00932953 0)
(0.966757 0.0136128 0)
(1.00567 0.0200713 0)
(0.989304 0.0304399 0)
(1.01679 0.0390145 0)
(1.01723 0.042893 0)
(1.03702 0.0493779 0)
(1.06372 -0.0209892 0)
(1.05453 -0.0191512 0)
(1.06323 -0.0309968 0)
(1.04925 -0.0289073 0)
(1.05661 -0.040339 0)
(1.03701 -0.0382179 0)
(1.04219 -0.0457068 0)
(1.02144 -0.0450305 0)
(1.02371 -0.0459414 0)
(1.00883 -0.0485605 0)
(1.00526 -0.039874 0)
(1.00043 -0.0461361 0)
(0.986018 -0.0274217 0)
(0.994816 -0.0345332 0)
(0.974619 -0.00963416 0)
(0.99799 -0.0141065 0)
(0.979642 0.0100544 0)
(1.00774 0.00705352 0)
(0.994312 0.0267722 0)
(1.02071 0.023957 0)
(1.01587 0.0373128 0)
(1.03686 0.0345364 0)
(1.05442 -0.0151194 0)
(1.04749 -0.0129185 0)
(1.05435 -0.0235969 0)
(1.04438 -0.0208339 0)
(1.05009 -0.031627 0)
(1.03572 -0.0284527 0)
(1.03897 -0.0366362 0)
(1.0236 -0.0342343 0)
(1.02531 -0.0375957 0)
(1.01399 -0.0369917 0)
(1.01243 -0.0336699 0)
(1.00745 -0.0353809 0)
(0.998644 -0.0247355 0)
(1.00222 -0.0275975 0)
(0.988926 -0.0111175 0)
(1.00361 -0.0143101 0)
(0.989345 0.00518566 0)
(1.01082 0.000344161 0)
(0.997626 0.021112 0)
(1.02063 0.0132637 0)
(1.01307 0.0308413 0)
(1.03273 0.0222058 0)
(1.0469 -0.0103103 0)
(1.04368 -0.00785277 0)
(1.04725 -0.0178846 0)
(1.0415 -0.0142058 0)
(1.04437 -0.0252275 0)
(1.03491 -0.0202529 0)
(1.03634 -0.0304292 0)
(1.02515 -0.0246043 0)
(1.02652 -0.0320293 0)
(1.0172 -0.0267312 0)
(1.01776 -0.0294786 0)
(1.01152 -0.0260998 0)
(1.00817 -0.0222064 0)
(1.00625 -0.0219114 0)
(1.00068 -0.0102946 0)
(1.00608 -0.0146393 0)
(0.999542 0.00450687 0)
(1.01061 -0.00577478 0)
(1.00269 0.0188307 0)
(1.01826 0.00345945 0)
(1.01178 0.0276824 0)
(1.02886 0.0121821 0)
(1.04108 -0.00645061 0)
(1.04098 -0.00416646 0)
(1.04182 -0.0128618 0)
(1.04003 -0.00935952 0)
(1.04055 -0.0190087 0)
(1.03486 -0.0143349 0)
(1.03467 -0.02357 0)
(1.02664 -0.0180173 0)
(1.02754 -0.0254518 0)
(1.01912 -0.0202271 0)
(1.02171 -0.023994 0)
(1.01353 -0.0202903 0)
(1.01519 -0.0185801 0)
(1.00809 -0.0178872 0)
(1.00934 -0.00921503 0)
(1.00727 -0.0132828 0)
(1.00711 0.00276285 0)
(1.01082 -0.0072469 0)
(1.0066 0.0145691 0)
(1.01759 -5.70789e-05 0)
(1.0098 0.0218988 0)
(1.02743 0.00721939 0)
(1.03681 -0.0036197 0)
(1.03839 -0.0016483 0)
(1.03796 -0.00886077 0)
(1.03805 -0.00574014 0)
(1.03738 -0.0140538 0)
(1.03425 -0.00976267 0)
(1.03327 -0.0181314 0)
(1.02723 -0.0129496 0)
(1.02761 -0.020187 0)
(1.02094 -0.0148647 0)
(1.02371 -0.0192907 0)
(1.01612 -0.0153719 0)
(1.01874 -0.0151661 0)
(1.01096 -0.0142829 0)
(1.01383 -0.00764417 0)
(1.00973 -0.0115968 0)
(1.01136 0.00205522 0)
(1.01218 -0.0075854 0)
(1.00929 0.0115419 0)
(1.01739 -0.00220556 0)
(1.00961 0.0172666 0)
(1.02587 0.00399719 0)
(1.03311 -0.00140872 0)
(1.0355 -5.80239e-05 0)
(1.03416 -0.00552393 0)
(1.03564 -0.00340381 0)
(1.03431 -0.00962312 0)
(1.03282 -0.00671739 0)
(1.03098 -0.012953 0)
(1.02712 -0.00936685 0)
(1.02713 -0.0145506 0)
(1.02212 -0.0109678 0)
(1.02429 -0.0141435 0)
(1.01786 -0.0116628 0)
(1.02057 -0.011381 0)
(1.01329 -0.011062 0)
(1.01659 -0.00605073 0)
(1.01195 -0.00912162 0)
(1.01424 0.000881751 0)
(1.0137 -0.00603746 0)
(1.01162 0.00777571 0)
(1.01766 -0.00178833 0)
(1.01045 0.0120926 0)
(1.02471 0.00310617 0)
(1.02996 0.00036848 0)
(1.03233 0.00114065 0)
(1.03092 -0.0028754 0)
(1.0327 -0.00149765 0)
(1.03118 -0.00608401 0)
(1.03081 -0.00411574 0)
(1.02903 -0.00872 0)
(1.02666 -0.00619521 0)
(1.02586 -0.0102129 0)
(1.02256 -0.00769919 0)
(1.02378 -0.0102451 0)
(1.01949 -0.00839954 0)
(1.02101 -0.0084432 0)
(1.0158 -0.00813085 0)
(1.0178 -0.0047064 0)
(1.01453 -0.00682531 0)
(1.0159 0.000280767 0)
(1.01565 -0.00457137 0)
(1.01347 0.00531529 0)
(1.01823 -0.00143499 0)
(1.01202 0.0086329 0)
(1.02349 0.00218652 0)
(1.02683 0.00170912 0)
(1.02897 0.00197178 0)
(1.02784 -0.000722184 0)
(1.02986 -0.00011029 0)
(1.02863 -0.00321497 0)
(1.02878 -0.00224286 0)
(1.02689 -0.0054121 0)
(1.02537 -0.0040954 0)
(1.02448 -0.00681073 0)
(1.02257 -0.00531259 0)
(1.02329 -0.00701128 0)
(1.02042 -0.00588604 0)
(1.02121 -0.00598417 0)
(1.01751 -0.00570155 0)
(1.01863 -0.00354628 0)
(1.01649 -0.00466605 0)
(1.01712 -0.000131665 0)
(1.01719 -0.0029589 0)
(1.01486 0.00337809 0)
(1.01881 -0.000657892 0)
(1.01326 0.00587465 0)
(1.02259 0.00185898 0)
(1.02449 0.00242575 0)
(1.02643 0.00247013 0)
(1.02553 0.000556753 0)
(1.02717 0.000764399 0)
(1.02604 -0.00149262 0)
(1.02639 -0.00102237 0)
(1.02483 -0.00329044 0)
(1.02411 -0.00245258 0)
(1.0232 -0.00437885 0)
(1.02218 -0.00336916 0)
(1.02235 -0.00466457 0)
(1.0207 -0.00384344 0)
(1.02081 -0.0040407 0)
(1.01854 -0.00371021 0)
(1.01886 -0.00235207 0)
(1.01783 -0.00291987 0)
(1.01775 4.50683e-05 0)
(1.01829 -0.00172382 0)
(1.01592 0.00252479 0)
(1.01923 -0.000138706 0)
(1.01448 0.00431431 0)
(1.02184 0.00154204 0)
(1.02298 0.00314828 0)
(1.02427 0.00294218 0)
(1.02352 0.00158067 0)
(1.02488 0.00148214 0)
(1.02414 -3.5705e-05 0)
(1.02454 6.12069e-05 0)
(1.02322 -0.00145208 0)
(1.02264 -0.00113697 0)
(1.0217 -0.00245002 0)
(1.02112 -0.0019686 0)
(1.02103 -0.00285679 0)
(1.02014 -0.00238453 0)
(1.01982 -0.0025909 0)
(1.01859 -0.00229195 0)
(1.01835 -0.00152382 0)
(1.01827 -0.00167048 0)
(1.01769 7.94738e-05 0)
(1.01888 -0.000753344 0)
(1.01651 0.00180756 0)
(1.01964 0.000387961 0)
(1.01557 0.00312135 0)
(1.02158 0.00154162 0)
(1.02144 0.00358989 0)
(1.02248 0.00338308 0)
(1.0221 0.00249277 0)
(1.02327 0.00233444 0)
(1.02268 0.0013001 0)
(1.02297 0.00117985 0)
(1.02175 0.000113823 0)
(1.02143 0.000120519 0)
(1.02046 -0.000783392 0)
(1.02032 -0.000656976 0)
(1.01986 -0.00129965 0)
(1.0196 -0.00117586 0)
(1.0188 -0.00140206 0)
(1.01842 -0.00131965 0)
(1.01766 -0.000928441 0)
(1.01828 -0.00102998 0)
(1.01734 -2.19052e-05 0)
(1.01888 -0.000433279 0)
(1.01669 0.00108845 0)
(1.01949 0.000427745 0)
(1.01629 0.00208692 0)
(1.02099 0.0014225 0)
(1.01998 0.00376602 0)
(1.02083 0.00362516 0)
(1.0206 0.00310683 0)
(1.02154 0.00291414 0)
(1.02109 0.00225695 0)
(1.02149 0.00205244 0)
(1.02049 0.00137296 0)
(1.02051 0.00123704 0)
(1.01954 0.000622772 0)
(1.01981 0.000534284 0)
(1.01908 2.08383e-05 0)
(1.01939 -7.35227e-05 0)
(1.01825 -0.000389708 0)
(1.01852 -0.0004607 0)
(1.01732 -0.000438207 0)
(1.0184 -0.000522494 0)
(1.01712 -0.000135304 0)
(1.01877 -0.000292816 0)
(1.01666 0.00043417 0)
(1.01901 0.000285635 0)
(1.01647 0.00119094 0)
(1.01997 0.00115128 0)
(1.01834 0.00365672 0)
(1.01903 0.00354685 0)
(1.01883 0.00322535 0)
(1.01973 0.0030598 0)
(1.01942 0.00265101 0)
(1.01999 0.00244694 0)
(1.01916 0.00200939 0)
(1.01949 0.00181054 0)
(1.01861 0.00139864 0)
(1.01923 0.00120352 0)
(1.01846 0.000828903 0)
(1.01913 0.000609715 0)
(1.01793 0.000327495 0)
(1.01857 0.000142608 0)
(1.0173 5.16966e-05 0)
(1.01849 -8.10677e-05 0)
(1.01715 1.49009e-05 0)
(1.01859 -6.71157e-05 0)
(1.0167 0.000236977 0)
(1.01851 0.000319029 0)
(1.01646 0.000751476 0)
(1.01895 0.00102454 0)
(1.01692 0.00324086 0)
(1.01755 0.00316068 0)
(1.01739 0.00295423 0)
(1.01824 0.00282922 0)
(1.01795 0.00254809 0)
(1.01859 0.00237434 0)
(1.01789 0.00206074 0)
(1.01841 0.00188553 0)
(1.01764 0.00158936 0)
(1.01842 0.00141213 0)
(1.0177 0.00112735 0)
(1.01854 0.000925128 0)
(1.01746 0.000693157 0)
(1.01826 0.000524276 0)
(1.01708 0.000415446 0)
(1.01822 0.000290798 0)
(1.01701 0.000296362 0)
(1.01826 0.000239332 0)
(1.01667 0.00038914 0)
(1.01803 0.000486195 0)
(1.0164 0.000733331 0)
(1.01821 0.00100124 0)
(1.01601 0.00273372 0)
(1.01656 0.00266113 0)
(1.01638 0.00252134 0)
(1.01711 0.00240029 0)
(1.01684 0.00220043 0)
(1.01746 0.00203675 0)
(1.01689 0.00181721 0)
(1.01745 0.00165544 0)
(1.01681 0.00145103 0)
(1.01758 0.00129165 0)
(1.01695 0.00109249 0)
(1.01777 0.000920657 0)
(1.01685 0.00075034 0)
(1.01764 0.000618032 0)
(1.01663 0.000526479 0)
(1.01769 0.000453309 0)
(1.01664 0.000429969 0)
(1.01776 0.000421726 0)
(1.01642 0.000480467 0)
(1.01761 0.000598768 0)
(1.01625 0.000732762 0)
(1.01775 0.000965161 0)
(1.01529 0.00231046 0)
(1.01577 0.00224983 0)
(1.01556 0.00214387 0)
(1.01618 0.00204582 0)
(1.01592 0.00189797 0)
(1.01652 0.0017657 0)
(1.01604 0.00160309 0)
(1.01661 0.00146764 0)
(1.01607 0.00131761 0)
(1.01679 0.00118224 0)
(1.01622 0.00103969 0)
(1.01698 0.000896505 0)
(1.01622 0.000780587 0)
(1.01698 0.000671514 0)
(1.01613 0.000618331 0)
(1.01708 0.000558253 0)
(1.01618 0.000549183 0)
(1.0172 0.00054142 0)
(1.01608 0.000584772 0)
(1.01718 0.00067975 0)
(1.01601 0.000766892 0)
(1.01736 0.00094234 0)
(1.01473 0.00153623 0)
(1.01515 0.00150549 0)
(1.01494 0.00144947 0)
(1.01548 0.00139544 0)
(1.01522 0.00130781 0)
(1.01577 0.00122691 0)
(1.01536 0.00112371 0)
(1.01592 0.00103937 0)
(1.01545 0.000942135 0)
(1.01612 0.000858313 0)
(1.01561 0.000763149 0)
(1.01633 0.000674441 0)
(1.01566 0.000595941 0)
(1.0164 0.00053123 0)
(1.01564 0.000496195 0)
(1.01653 0.000463463 0)
(1.01572 0.000459774 0)
(1.01669 0.000458795 0)
(1.01571 0.000494522 0)
(1.01677 0.000558354 0)
(1.01572 0.000628592 0)
(1.01699 0.000740112 0)
(1.0144 0.000923044 0)
(1.01481 0.000904431 0)
(1.01458 0.000872822 0)
(1.01506 0.000839788 0)
(1.01478 0.000789496 0)
(1.01529 0.000740616 0)
(1.01493 0.000681937 0)
(1.01547 0.00063166 0)
(1.01505 0.000576515 0)
(1.01567 0.000526208 0)
(1.01518 0.000470702 0)
(1.01585 0.000417089 0)
(1.01526 0.000370309 0)
(1.01598 0.000332713 0)
(1.01529 0.000311667 0)
(1.01613 0.000295313 0)
(1.01536 0.000291669 0)
(1.01629 0.000294346 0)
(1.0154 0.000313176 0)
(1.01644 0.000354394 0)
(1.01546 0.000395026 0)
(1.01668 0.000461951 0)
(1.01408 0.000455662 0)
(1.01447 0.000442939 0)
(1.01425 0.000424377 0)
(1.0147 0.000406656 0)
(1.01443 0.000382951 0)
(1.01493 0.000361312 0)
(1.01459 0.000335851 0)
(1.01514 0.000313802 0)
(1.01474 0.000289819 0)
(1.01534 0.000267962 0)
(1.01488 0.000245374 0)
(1.01554 0.000223288 0)
(1.01498 0.000205002 0)
(1.0157 0.000188036 0)
(1.01505 0.000178742 0)
(1.01586 0.000168785 0)
(1.01513 0.000166647 0)
(1.01604 0.000164514 0)
(1.0152 0.000171289 0)
(1.01623 0.000182982 0)
(1.01529 0.000196805 0)
(1.01648 0.000217715 0)
(1.22397 0.0223762 -4.82788e-21)
(1.23929 -0.00192825 -1.90819e-21)
(1.25648 -0.0414722 -1.85398e-20)
(1.2756 -0.053534 1.62979e-20)
(1.30094 -0.124805 -1.65434e-20)
(1.19742 0.0105279 -1.22434e-22)
(1.21152 0.00518742 -2.66475e-21)
(1.22367 -0.0476988 8.69022e-21)
(1.23423 -0.0521803 6.25674e-21)
(1.25646 -0.109778 1.1354e-20)
(1.17568 -0.00286189 2.40065e-21)
(1.18201 -0.00190948 1.18523e-21)
(1.19204 -0.0521804 -1.8251e-21)
(1.19656 -0.0597172 2.23862e-21)
(1.21696 -0.10054 -2.15612e-21)
(1.15911 -0.00735232 3.20762e-21)
(1.163 -0.00333684 1.07368e-21)
(1.17325 -0.0464474 8.96647e-22)
(1.17628 -0.0518676 -4.48538e-21)
(1.1936 -0.0870829 2.0177e-22)
(1.1517 -0.000339201 5.48322e-21)
(1.16 -0.0364126 8.37646e-21)
(1.16099 -0.0424332 -1.81661e-22)
(1.17254 -0.0698911 2.98107e-21)
(1.13762 -0.00378334 -6.85356e-21)
(1.14306 -0.0313568 -1.05467e-20)
(1.13953 -0.0416901 5.21748e-21)
(1.15021 -0.0597685 -5.93447e-21)
(1.11966 -0.00631218 -9.39566e-21)
(1.1246 -0.0271491 4.76215e-21)
(1.1221 -0.0369172 -5.18426e-21)
(1.13364 -0.0495688 4.92472e-21)
(1.10383 -0.00572745 1.53066e-20)
(1.11062 -0.0192719 -9.17239e-21)
(1.10933 -0.0287031 1.15411e-21)
(1.11789 -0.0383253 -3.89157e-21)
(1.09062 -0.00371251 -3.7425e-21)
(1.09489 -0.0125307 8.81995e-21)
(1.09489 -0.022961 -8.4131e-21)
(1.09865 -0.0298421 1.26654e-20)
(1.07742 -0.00222578 -1.63432e-20)
(1.07779 -0.00847995 4.07521e-21)
(1.08062 -0.0180986 2.82297e-21)
(1.08179 -0.0229821 -1.20988e-20)
(1.06705 -0.000214896 1.08274e-20)
(1.06424 -0.00393503 -1.06272e-20)
(1.06999 -0.012938 1.46454e-20)
(1.06804 -0.0158772 1.24896e-20)
(1.05842 0.00246675 1.35832e-20)
(1.05549 0.000157617 -2.89239e-21)