/*--------------------------------*- C++ -*----------------------------------*\
| =========                 |                                                 |
| \\      /  F ield         | OpenFOAM: The Open Source CFD Toolbox           |
|  \\    /   O peration     | Version:                                        |
|   \\  /    A nd           | Website:  www.openfoam.com                      |
|    \\/     M anipulation  |                                                 |
\*---------------------------------------------------------------------------*/
FoamFile
{
    version     2.0;
    format      ascii;
    class       volScalarField;
    location    "194";
    object      p;
}
// * * * * * * * * * * * * * * * * * * * * * * * * * * * * * * * * * * * * * //

dimensions      [0 2 -2 0 0 0 0];


internalField   nonuniform List<scalar> 
1147
(
-1.1602
-1.17952
-1.22341
-1.28897
-1.30377
-1.26567
-1.20951
-1.2056
-1.24319
-1.28531
-1.17507
-1.18155
-1.17896
-1.24254
-1.29307
-1.28093
-1.21824
-1.18405
-1.17988
-1.18471
-1.15065
-1.17962
-1.18913
-1.19129
-1.19284
-1.17656
-1.14626
-1.11976
-1.0988
-1.08265
-1.12328
-1.12695
-1.12379
-1.1084
-1.08774
-1.06575
-1.0446
-1.02382
-1.00235
-0.978658
-1.05982
-1.0489
-1.03415
-1.01356
-0.990082
-0.967673
-0.949625
-0.930534
-0.909589
-0.883138
-0.979466
-0.96153
-0.942333
-0.922202
-0.90097
-0.881019
-0.864251
-0.845321
-0.823766
-0.79661
-0.89575
-0.874914
-0.855225
-0.837392
-0.819772
-0.802643
-0.787189
-0.769068
-0.746471
-0.719392
-0.813788
-0.793269
-0.774631
-0.758831
-0.745525
-0.730883
-0.716578
-0.700504
-0.677559
-0.650697
-0.735635
-0.717349
-0.700742
-0.68633
-0.677192
-0.665285
-0.651464
-0.638145
-0.616066
-0.589405
-0.661938
-0.646996
-0.633269
-0.620068
-0.614026
-0.605424
-0.591862
-0.580855
-0.56104
-0.53468
-0.582251
-0.571184
-0.55998
-0.555926
-0.550352
-0.537875
-0.528115
-0.511189
-0.485818
-0.522443
-0.513614
-0.505174
-0.503049
-0.499354
-0.489052
-0.480049
-0.465509
-0.442069
-0.460915
-0.454084
-0.455023
-0.452584
-0.444395
-0.436869
-0.423648
-0.402673
-0.411924
-0.406899
-0.410424
-0.410401
-0.402963
-0.398141
-0.385591
-0.36681
-0.364308
-0.368877
-0.371491
-0.365479
-0.362054
-0.351813
-0.333817
-0.324379
-0.331398
-0.334988
-0.331314
-0.328827
-0.320572
-0.304717
-0.288221
-0.296984
-0.301417
-0.299927
-0.298525
-0.291721
-0.278467
-0.265456
-0.270729
-0.271215
-0.27089
-0.265481
-0.25447
-0.236886
-0.242708
-0.244778
-0.245766
-0.241231
-0.232421
-0.210388
-0.217089
-0.21972
-0.222172
-0.218344
-0.211486
-1.23506
-1.22282
-1.19
-1.14958
-1.1169
-1.09769
-1.08989
-1.09187
-1.10804
-1.1324
-1.21402
-1.20771
-1.17815
-1.13648
-1.09912
-1.07577
-1.06944
-1.08063
-1.10336
-1.13413
-1.22771
-1.2239
-1.19108
-1.13973
-1.08807
-1.05388
-1.04528
-1.06329
-1.09976
-1.12795
-1.25542
-1.21791
-1.15726
-1.09002
-1.04258
-1.02934
-1.05134
-1.08442
-1.11529
-1.05132
-1.03315
-1.04697
-1.06221
-1.06628
-1.04599
-1.03221
-1.01662
-0.997522
-0.992782
-0.953896
-0.921302
-0.881616
-0.842791
-0.764428
-0.192396
-0.171608
-0.151776
-0.134615
-0.1181
-0.103578
-0.0900945
-0.0780079
-0.0671948
-0.0574644
-0.0487326
-0.0409729
-0.034044
-0.0278307
-0.0222958
-0.0174077
-0.0129986
-0.00897924
-0.00536248
-0.00203909
0.000952209
0.00355975
0.0058245
0.00776544
0.00938813
0.0107443
0.0118466
0.0126469
0.013121
0.0133818
-0.19467
-0.170353
-0.148727
-0.131092
-0.11467
-0.100328
-0.0869711
-0.0750958
-0.0643892
-0.0547834
-0.0462643
-0.0387628
-0.0321061
-0.0261372
-0.0208118
-0.0161096
-0.0118365
-0.00800503
-0.00462149
-0.00146209
0.00138605
0.00388658
0.00608457
0.0079608
0.00951486
0.0108077
0.0118401
0.0125888
0.0130531
0.0133158
-0.196387
-0.169412
-0.146925
-0.128414
-0.111274
-0.0965099
-0.0832686
-0.0717748
-0.0615173
-0.0523505
-0.0441951
-0.0369781
-0.0305446
-0.0247938
-0.0196768
-0.0151544
-0.010946
-0.00727504
-0.00407582
-0.00103659
0.00166052
0.00405616
0.00620442
0.00803534
0.00955587
0.0108185
0.011809
0.0125287
0.0129854
0.0132502
-0.192227
-0.164929
-0.142829
-0.124981
-0.108668
-0.0942979
-0.0812492
-0.0699246
-0.0597798
-0.0506843
-0.0427152
-0.0356741
-0.029365
-0.0236838
-0.0187494
-0.0144026
-0.0102237
-0.00676677
-0.00368252
-0.000702884
0.00184069
0.00413987
0.00623341
0.00801412
0.00952197
0.0107733
0.0117471
0.0124615
0.012916
0.0131867
-0.189986
-0.162675
-0.140779
-0.122576
-0.105532
-0.090728
-0.0781104
-0.0673634
-0.0574948
-0.0487019
-0.0410748
-0.0342856
-0.0281563
-0.0225644
-0.0179083
-0.0136529
-0.00949491
-0.00633452
-0.00327532
-0.000350513
0.00202993
0.00425097
0.0062705
0.00798408
0.00947753
0.0107098
0.0116766
0.0123971
0.0128493
0.0131282
-0.0396841
-0.0330362
-0.0269682
-0.0214905
-0.0171814
-0.0128047
-0.00877831
-0.00594995
-0.00277954
2.97408e-05
0.00226676
0.0044442
0.0063716
0.00801258
0.0094785
0.0106692
0.0116272
0.0123489
0.0127925
0.0130779
-0.0364701
-0.0610254
-0.0776966
-0.0970634
-0.118594
-0.140008
-0.159851
-0.177122
-0.190276
-0.201846
-0.0358333
-0.0611803
-0.0811535
-0.102829
-0.126804
-0.150481
-0.17233
-0.191769
-0.207705
-0.22139
-0.0358562
-0.0641968
-0.0890519
-0.113644
-0.139638
-0.165375
-0.189377
-0.20985
-0.227681
-0.242949
-0.0371095
-0.069351
-0.0995243
-0.12761
-0.155726
-0.182443
-0.208548
-0.23016
-0.249319
-0.265731
-0.0403413
-0.0763434
-0.111202
-0.142972
-0.173385
-0.201281
-0.228832
-0.25195
-0.272648
-0.291206
-0.045957
-0.0851686
-0.123747
-0.159132
-0.192027
-0.221723
-0.250814
-0.275731
-0.298271
-0.318977
-0.0537225
-0.096079
-0.137482
-0.176539
-0.212144
-0.24422
-0.275423
-0.301774
-0.327138
-0.349211
-0.0632397
-0.109164
-0.153161
-0.195921
-0.234684
-0.269543
-0.303442
-0.331075
-0.359229
-0.383031
-0.0743199
-0.124538
-0.171496
-0.218115
-0.260148
-0.298383
-0.335208
-0.364565
-0.394899
-0.420916
-0.087305
-0.142396
-0.193138
-0.243786
-0.289251
-0.331021
-0.371037
-0.402747
-0.434759
-0.463257
-0.102995
-0.163196
-0.218747
-0.273637
-0.322837
-0.368121
-0.411319
-0.446072
-0.479511
-0.510332
-0.122178
-0.187766
-0.248913
-0.308553
-0.361859
-0.410761
-0.457001
-0.495095
-0.530118
-0.562774
-0.14575
-0.217308
-0.284522
-0.349494
-0.407533
-0.46026
-0.50959
-0.550928
-0.587533
-0.621787
-0.174715
-0.253085
-0.326935
-0.397689
-0.461186
-0.518105
-0.570592
-0.615238
-0.653462
-0.68875
-0.21068
-0.296827
-0.378011
-0.454982
-0.524566
-0.586033
-0.641813
-0.689532
-0.729489
-0.765162
-0.255273
-0.350758
-0.440334
-0.523933
-0.599971
-0.66606
-0.725023
-0.775159
-0.816793
-0.852236
-0.311214
-0.417329
-0.517376
-0.608893
-0.692064
-0.762651
-0.82291
-0.874325
-0.916694
-0.950587
-0.381695
-0.499163
-0.610221
-0.712175
-0.80554
-0.886726
-0.951097
-1.00072
-1.03758
-1.06326
-0.469717
-0.598128
-0.716786
-0.827483
-0.926119
-1.01264
-1.08324
-1.13758
-1.17064
-1.18449
-0.61482
-0.763048
-0.902508
-1.02666
-1.13097
-1.21522
-1.27652
-1.31376
-1.32644
-1.31602
0.0940685
0.0682623
0.0399987
0.00629267
0.115223
0.0891697
0.0602013
0.0293555
-0.00305168
0.165101
0.142079
0.116252
0.0882185
0.0573404
0.0254851
-0.00525152
0.226162
0.212038
0.194138
0.172783
0.148158
0.120527
0.0910119
0.0589955
0.026095
-0.00525417
0.23914
0.224359
0.205419
0.182785
0.156745
0.127328
0.096231
0.0629749
0.0280345
-0.00574467
0.253578
0.238212
0.218302
0.194347
0.166836
0.135489
0.102311
0.0672105
0.0295072
-0.00789336
0.269448
0.253332
0.232304
0.206801
0.177574
0.144085
0.108243
0.0705901
0.0296067
-0.0119138
0.286711
0.269608
0.247225
0.219864
0.188562
0.152638
0.113588
0.0727143
0.0283569
-0.0174879
0.305336
0.287063
0.263094
0.233562
0.199768
0.161092
0.118321
0.0736273
0.0257894
-0.0243545
0.325305
0.305741
0.279998
0.248018
0.211267
0.169455
0.122668
0.0735554
0.021773
-0.0327299
0.346575
0.325626
0.297881
0.263202
0.223072
0.177688
0.12656
0.0726032
0.0159347
-0.0431219
0.36908
0.346585
0.316632
0.27897
0.234913
0.185555
0.129606
0.0704847
0.00785735
-0.05627
0.392706
0.36848
0.335948
0.295088
0.246489
0.192512
0.131291
0.0663672
-0.00300256
-0.0731123
0.417227
0.39109
0.355554
0.311058
0.257635
0.197813
0.130897
0.0592669
-0.0174293
-0.0946952
0.442292
0.413965
0.375182
0.326064
0.267729
0.200886
0.127441
0.0479969
-0.0365961
-0.122337
0.467332
0.436489
0.394083
0.339638
0.275411
0.20092
0.119653
0.0312675
-0.0622229
-0.1577
0.491262
0.457699
0.410876
0.350557
0.278973
0.196363
0.105447
0.00694886
-0.0966645
-0.203581
0.512831
0.476106
0.423951
0.357122
0.276756
0.184778
0.082698
-0.0274528
-0.142797
-0.262575
0.529858
0.488838
0.430073
0.355256
0.265078
0.161202
0.0458333
-0.0769507
-0.206545
-0.338981
0.54025
0.494459
0.428871
0.344341
0.241848
0.120559
-0.0120998
-0.155078
-0.307479
-0.46
0.0410424
0.0774471
0.0555533
0.0242321
0.0185464
0.00684174
-0.000734615
-0.00691234
-0.0118012
-0.015381
-0.0178444
-0.01928
-0.019763
-0.0195349
-0.0187106
-0.0172875
-0.0154348
-0.0132985
-0.0109827
-0.0085338
-0.00595485
-0.00328287
-0.000632475
0.00189181
0.0042193
0.00633268
0.00823751
0.00994182
0.0114606
0.0127893
0.0138473
0.0145548
0.0157426
0.0159506
-0.00620915
-0.012472
-0.0178499
-0.0224469
-0.025799
-0.0280888
-0.029435
-0.0298022
-0.0292768
-0.0280245
-0.0261367
-0.0237249
-0.0209548
-0.0179418
-0.0148351
-0.0117272
-0.00863631
-0.00556682
-0.00256524
0.000299223
0.00295138
0.00535387
0.00749979
0.00939233
0.0110576
0.0125082
0.013654
0.0143866
0.0153695
0.0155641
-0.0356449
-0.0359262
-0.0388189
-0.0410542
-0.0427373
-0.0435661
-0.0435235
-0.0426075
-0.0408957
-0.0384695
-0.0354095
-0.0318912
-0.0280654
-0.0240344
-0.0199563
-0.0159484
-0.0120885
-0.00840296
-0.0049066
-0.00162046
0.00141123
0.00415585
0.00659648
0.00872993
0.0105859
0.0121955
0.0134649
0.0142431
0.0149725
0.0151574
-0.0631903
-0.064134
-0.0642494
-0.0634569
-0.0626849
-0.0612669
-0.0591419
-0.0563174
-0.0528951
-0.0489374
-0.044526
-0.0398324
-0.0349566
-0.0300081
-0.0250804
-0.0202554
-0.0156307
-0.0112792
-0.00724153
-0.00352415
-0.000132551
0.00292627
0.00564142
0.00800923
0.0100556
0.0118279
0.0132399
0.014081
0.0145939
0.0147699
-0.079165
-0.0816817
-0.0812816
-0.0792183
-0.0766675
-0.0731563
-0.0690424
-0.0643725
-0.0592827
-0.0539173
-0.0484244
-0.0429118
-0.0374466
-0.0321034
-0.026928
-0.021925
-0.0171187
-0.0125584
-0.00831409
-0.00442539
-0.000905565
0.00225589
0.00506437
0.00752483
0.0096553
0.0115084
0.0130164
0.0139131
0.0142808
0.0144427
-0.0958075
-0.0954713
-0.0928342
-0.0896836
-0.0855877
-0.0802703
-0.074484
-0.0683143
-0.0619609
-0.0555581
-0.0492323
-0.0430959
-0.0371952
-0.0316058
-0.0263505
-0.0214148
-0.0167585
-0.0123507
-0.00821138
-0.00438873
-0.000924748
0.00217713
0.0049292
0.0073479
0.00944875
0.0112852
0.0128169
0.0137472
0.0140364
0.0141811
-0.114308
-0.110197
-0.104117
-0.0987552
-0.0927175
-0.0860165
-0.0789882
-0.0716186
-0.0642108
-0.0569206
-0.0498882
-0.0431792
-0.0368419
-0.0309233
-0.0254424
-0.0204172
-0.0158131
-0.0115626
-0.00760783
-0.00394522
-0.000609107
0.00238114
0.00502993
0.00735513
0.00937329
0.0111353
0.0126334
0.0135772
0.0138439
0.0139788
-0.133954
-0.127251
-0.118167
-0.109989
-0.101216
-0.0923905
-0.0837703
-0.0752068
-0.0668866
-0.0588698
-0.0512385
-0.0440472
-0.0373227
-0.0310766
-0.0253049
-0.0200335
-0.0152768
-0.0110041
-0.00712648
-0.0035811
-0.000352198
0.00254955
0.00512116
0.00737268
0.00931865
0.0110022
0.0124438
0.0133918
0.0136815
0.0138236
-0.150917
-0.141525
-0.130513
-0.120363
-0.109344
-0.0987164
-0.0885146
-0.0786638
-0.0693723
-0.0606482
-0.0525299
-0.0449976
-0.0380341
-0.0316053
-0.0256668
-0.0202129
-0.015274
-0.0108684
-0.00694612
-0.003433
-0.000261558
0.00258707
0.00511521
0.00732614
0.00923083
0.0108584
0.0122439
0.0131922
0.0135353
0.0137023
-0.16517
-0.153285
-0.139872
-0.127449
-0.114764
-0.102837
-0.091509
-0.0808681
-0.0709778
-0.061757
-0.0532398
-0.04543
-0.038309
-0.0318002
-0.0258423
-0.0203756
-0.015386
-0.0108968
-0.0069032
-0.00336506
-0.000204707
0.00261228
0.00510253
0.00727708
0.00914561
0.0107281
0.0120592
0.0129983
0.0134032
0.0136044
-0.177003
-0.162614
-0.147521
-0.133496
-0.119348
-0.105916
-0.0933485
-0.081706
-0.071109
-0.0614659
-0.0527176
-0.0447764
-0.0375837
-0.0310921
-0.0252402
-0.0199242
-0.015078
-0.0106586
-0.00667881
-0.00313949
8.93913e-06
0.00278416
0.00521529
0.00732939
0.00913676
0.01066
0.0119266
0.0128368
0.0132895
0.0135221
-0.186587
-0.168593
-0.150409
-0.134126
-0.118876
-0.105204
-0.0925309
-0.0807467
-0.0699728
-0.0601479
-0.0512588
-0.0432527
-0.0360838
-0.0296655
-0.0239387
-0.0188267
-0.014211
-0.00997716
-0.00613479
-0.00266655
0.000433115
0.00313864
0.00548738
0.00751562
0.00923272
0.0106748
0.0118619
0.0127222
0.0131969
0.0134495
)
;

boundaryField
{
    outlet
    {
        type            fixedValue;
        value           nonuniform 0();
    }
    upperWall
    {
        type            symmetryPlane;
    }
    lowerWall
    {
        type            symmetryPlane;
    }
    inlet
    {
        type            zeroGradient;
    }
    cylinder
    {
        type            zeroGradient;
    }
    frontAndBack
    {
        type            empty;
    }
    procBoundary1to0
    {
        type            processor;
        value           nonuniform List<scalar> 
45
(
0.117315
0.117315
0.0991949
0.159955
0.138945
0.138945
0.214638
0.201498
0.184957
0.184957
0.0494427
0.0824586
0.0638264
0.0638264
0.0991949
0.0333671
0.0215483
0.012933
0.00575862
-6.00809e-05
-0.00452608
-0.00775902
-0.0100896
-0.0116186
-0.0123653
-0.0124563
-0.0118827
-0.0107941
-0.00936962
-0.00764672
-0.00564624
-0.0034222
-0.00108611
0.00121294
0.00338114
0.00538975
0.00724053
0.00893951
0.0104888
0.0118871
0.0131142
0.014102
0.0147924
0.0160886
0.0163093
)
;
    }
    procBoundary1to2
    {
        type            processor;
        value           nonuniform List<scalar> 
63
(
-0.592722
-0.688511
-0.592722
-0.527798
-0.465812
-0.465812
-0.412644
-0.365472
-0.365472
-0.324195
-0.286042
-0.25543
-0.25543
-0.225192
-0.19787
-0.1813
-1.2584
-1.2584
-1.29165
-1.2511
-1.18409
-1.106
-1.106
-1.07244
-1.07244
-1.03429
-1.03429
-0.929895
-0.929895
-0.804734
-0.804734
-0.688511
-0.1813
-0.155063
-0.136096
-0.11991
-0.103166
-0.0884611
-0.0762893
-0.0655984
-0.0556384
-0.0470336
-0.0470336
-0.0383504
-0.0319735
-0.0259481
-0.020752
-0.0167885
-0.011989
-0.00836045
-0.00569302
-0.00229244
0.000291522
0.00248461
0.00465983
0.00650216
0.00809581
0.00952539
0.010662
0.0116099
0.0123203
0.0127488
0.0130369
)
;
    }
    procBoundary1to5
    {
        type            processor;
        value           nonuniform List<scalar> 
20
(
-1.21822
-1.19043
-1.20121
0.236261
0.249414
0.264066
0.280345
0.298222
0.317533
0.338153
0.36003
0.383156
0.40749
0.432887
0.459013
0.485325
0.510848
0.534192
0.552746
0.564519
)
;
    }
}


// ************************************************************************* //
