/*--------------------------------*- C++ -*----------------------------------*\
| =========                 |                                                 |
| \\      /  F ield         | OpenFOAM: The Open Source CFD Toolbox           |
|  \\    /   O peration     | Version:                                        |
|   \\  /    A nd           | Website:  www.openfoam.com                      |
|    \\/     M anipulation  |                                                 |
\*---------------------------------------------------------------------------*/
FoamFile
{
    version     2.0;
    format      ascii;
    class       volVectorField;
    location    "23.5";
    object      U;
}
// * * * * * * * * * * * * * * * * * * * * * * * * * * * * * * * * * * * * * //

dimensions      [0 1 -1 0 0 0 0];


internalField   nonuniform List<vector> 
1161
(
(0.415787 0.323251 -9.69185e-20)
(0.495357 0.312027 1.50724e-19)
(0.596341 0.31711 -2.90961e-20)
(0.694557 0.31023 -1.67513e-20)
(0.812662 0.329025 2.666e-20)
(0.925192 0.315982 -1.85146e-21)
(1.04457 0.348987 -7.87289e-20)
(1.15399 0.316804 -3.55189e-20)
(1.24977 0.357935 -6.02633e-20)
(1.33948 0.295682 -1.51654e-19)
(0.778678 0.300459 -1.17064e-19)
(0.931503 0.338369 3.47162e-20)
(1.05315 0.351099 1.00173e-19)
(1.18192 0.385324 -1.76292e-19)
(1.25176 0.376072 1.11176e-20)
(1.34109 0.39345 7.5824e-20)
(1.34594 0.363179 3.0727e-19)
(1.3917 0.353411 -2.76188e-19)
(1.2627 0.43072 -1.20207e-19)
(1.27853 0.4069 2.19585e-20)
(1.30517 0.410053 2.13857e-19)
(1.27138 0.361818 -8.40269e-20)
(1.25214 0.339893 4.9915e-20)
(1.23234 0.303692 -2.55381e-21)
(1.13674 0.300119 -1.62035e-19)
(1.17167 0.303007 7.30431e-20)
(1.16306 0.271574 6.48781e-20)
(-0.381986 0.0504929 5.01786e-21)
(-0.462738 0.0450605 -5.58084e-21)
(-0.532516 0.0409776 6.1164e-22)
(-0.596574 0.0375579 4.0674e-21)
(-0.653476 0.0348725 -6.45773e-21)
(-0.706168 0.0325334 -4.7119e-21)
(-0.753775 0.0306223 1.39602e-20)
(-0.798306 0.0288638 -1.21803e-20)
(-0.83915 0.0273957 1.4853e-20)
(-0.877786 0.0260201 1.6213e-20)
(-0.913617 0.0248557 -1.39345e-20)
(-0.947539 0.0237594 -1.99557e-20)
(-0.978707 0.0227726 1.6651e-20)
(-1.00734 0.0217423 1.2071e-20)
(-1.0324 0.0206712 4.12137e-20)
(-1.05412 0.0194162 1.17304e-21)
(-1.07218 0.0180459 -1.7644e-20)
(-0.412415 0.142733 -5.84607e-21)
(-0.469885 0.131526 1.95978e-21)
(-0.52223 0.121937 -5.48036e-21)
(-0.567793 0.113826 1.114e-21)
(-0.609232 0.106936 1.45335e-20)
(-0.645789 0.100758 -5.41842e-20)
(-0.678804 0.0954025 2.53116e-20)
(-0.708181 0.0905222 1.90762e-20)
(-0.734878 0.0860584 -6.80091e-20)
(-0.758515 0.0820798 1.26974e-20)
(-0.780116 0.0782932 8.45788e-21)
(-0.798602 0.0747905 -4.37051e-20)
(-0.814339 0.0713545 -1.84494e-19)
(-0.826074 0.0675306 8.48524e-21)
(-0.833466 0.0632537 3.77038e-20)
(-0.836701 0.0579809 5.48857e-20)
(-0.35106 0.227061 4.32054e-20)
(-0.393707 0.209287 -1.60958e-20)
(-0.432204 0.194181 -3.11312e-20)
(-0.46429 0.182339 1.44177e-20)
(-0.493337 0.171522 3.02373e-20)
(-0.516159 0.162586 -5.50171e-20)
(-0.536257 0.154672 1.48848e-20)
(-0.552351 0.147061 1.064e-19)
(-0.564558 0.140796 -1.247e-19)
(-0.574911 0.134546 -4.99292e-21)
(-0.581656 0.128724 5.80793e-20)
(-0.585478 0.12397 1.53769e-20)
(-0.587752 0.118231 -2.9732e-21)
(-0.584364 0.113062 2.81979e-19)
(-0.578213 0.106765 -2.23143e-19)
(-0.566806 0.097257 1.26657e-19)
(-0.290106 0.297187 1.39205e-20)
(-0.318231 0.277172 -5.09408e-20)
(-0.34125 0.261279 3.62154e-20)
(-0.360926 0.246196 2.01393e-20)
(-0.373673 0.233139 -9.46923e-21)
(-0.3826 0.22229 9.71654e-21)
(-0.390165 0.210545 8.71756e-20)
(-0.388821 0.202048 1.2209e-20)
(-0.389436 0.193474 -1.39377e-19)
(-0.38443 0.184422 -6.18136e-20)
(-0.373737 0.179328 -3.84784e-20)
(-0.367293 0.170867 8.03003e-20)
(-0.35001 0.164477 1.30045e-19)
(-0.334044 0.160472 6.83493e-20)
(-0.317282 0.149043 -2.38106e-19)
(-0.287555 0.14105 2.23016e-19)
(-0.232074 0.360726 1.79328e-20)
(-0.242715 0.339712 -1.17372e-19)
(-0.252936 0.318292 1.67488e-19)
(-0.253544 0.300428 -9.33046e-20)
(-0.251893 0.285761 -1.10814e-19)
(-0.250885 0.270083 1.02362e-19)
(-0.236549 0.259681 -9.25299e-20)
(-0.226887 0.249638 1.9322e-20)
(-0.213329 0.237535 -8.97655e-20)
(-0.18489 0.233257 8.25699e-20)
(-0.172965 0.222813 6.10852e-20)
(-0.140646 0.214946 2.0664e-19)
(-0.10581 0.21378 -1.31184e-19)
(-0.0845539 0.198083 -4.56979e-20)
(-0.0368075 0.19784 -2.43402e-19)
(0.000359415 0.192153 6.0359e-19)
(-0.172666 0.382033 -1.07209e-19)
(-0.162945 0.364134 -1.90621e-21)
(-0.153216 0.346962 5.48027e-20)
(-0.141289 0.329535 3.96729e-20)
(-0.115485 0.318596 -1.16188e-19)
(-0.0977702 0.304268 3.30854e-21)
(-0.0711541 0.291143 -1.55755e-19)
(-0.0318342 0.286477 3.25344e-19)
(-0.00983707 0.270408 -1.21957e-19)
(0.0378975 0.268705 -1.91658e-19)
(0.0800797 0.258553 4.67074e-22)
(0.107729 0.247012 -1.76788e-19)
(0.193977 0.253067 2.25421e-19)
(0.190414 0.225473 1.6039e-19)
(0.317932 0.241011 -3.06736e-19)
(-0.0861075 0.400882 -2.51113e-20)
(-0.0575841 0.381422 1.36133e-19)
(-0.0234051 0.366834 2.74856e-19)
(-0.00275474 0.344907 -3.56721e-20)
(0.046965 0.338106 8.26742e-20)
(0.0862455 0.323017 1.21609e-19)
(0.111555 0.311533 -2.89381e-19)
(0.207028 0.31096 -3.06116e-20)
(0.186636 0.289292 4.90292e-19)
(0.335918 0.3003 -4.80245e-21)
(0.29025 0.272382 -3.6978e-19)
(0.462338 0.286794 3.56663e-19)
(0.417689 0.257874 -1.65056e-19)
(0.587699 0.267387 2.38826e-20)
(0.0234689 0.405549 2.75207e-20)
(0.0638359 0.390864 1.49206e-19)
(0.137639 0.379656 -2.32785e-19)
(0.128829 0.356965 -1.36861e-19)
(0.276169 0.359405 -1.03263e-19)
(0.218165 0.331531 2.78081e-20)
(0.412253 0.34093 -1.65079e-19)
(0.337183 0.312545 -2.02603e-19)
(0.542568 0.323316 -1.95939e-20)
(0.477278 0.296333 4.68248e-19)
(0.675704 0.306855 -2.09655e-19)
(0.629312 0.279253 -8.08691e-20)
(0.812465 0.285755 1.46902e-19)
(0.117166 0.387477 3.3367e-20)
(0.273322 0.383446 6.40435e-20)
(0.221436 0.359556 1.71591e-20)
(0.40851 0.356257 -2.51668e-20)
(0.349413 0.338393 6.84081e-20)
(0.546338 0.335929 6.90584e-21)
(0.486889 0.320149 -1.56767e-19)
(0.691483 0.322455 4.91543e-20)
(0.634464 0.302451 2.76988e-19)
(0.847117 0.309751 -4.58463e-19)
(0.801048 0.282243 5.30226e-19)
(1.01088 0.291632 -5.3348e-19)
(0.324126 0.3767 -4.25246e-20)
(0.348539 0.371439 -8.05337e-20)
(0.462542 0.344063 2.13444e-19)
(0.490575 0.34996 -1.69267e-19)
(0.613173 0.326043 6.25686e-20)
(0.637037 0.337649 -1.40865e-19)
(0.785355 0.315567 1.57255e-19)
(0.801024 0.324441 -2.26524e-19)
(0.986673 0.3094 2.36631e-19)
(0.988425 0.304715 1.5429e-19)
(1.2098 0.30516 7.2436e-20)
(-1.09005 0.0161353 2.04116e-20)
(-1.11977 0.0114586 -4.9526e-21)
(-1.12931 0.00877692 6.27227e-21)
(-1.14503 0.00359777 5.25661e-21)
(-1.14088 0.00056799 -1.58933e-20)
(-1.14127 -0.00495385 5.13055e-21)
(-1.12143 -0.00758574 4.51576e-21)
(-1.10481 -0.0131025 -7.42844e-21)
(-1.06755 -0.0151095 5.00879e-21)
(-1.03359 -0.0206605 -1.39311e-20)
(-0.980639 -0.0209226 1.96099e-21)
(-0.932574 -0.025834 1.19536e-21)
(-0.867379 -0.0241776 5.36524e-21)
(-0.806369 -0.0294755 2.57792e-21)
(-0.727957 -0.0269626 -2.24604e-21)
(-0.652724 -0.0342362 -1.73816e-22)
(-0.561243 -0.0293508 -8.41924e-23)
(-0.447142 -0.0428712 1.00609e-22)
(-0.321054 -0.0446503 -5.0545e-22)
(-0.164018 -0.0498539 5.99483e-22)
(-0.836279 0.0504564 -1.39122e-20)
(-0.881379 0.033699 -3.39759e-20)
(-0.87479 0.0249154 -8.27685e-22)
(-0.902872 0.00765407 3.62474e-20)
(-0.88529 -0.00110241 2.68934e-20)
(-0.896098 -0.018813 -1.15568e-20)
(-0.86468 -0.0266956 -8.84391e-21)
(-0.857381 -0.0440591 3.79045e-20)
(-0.810276 -0.0501823 -4.04109e-20)
(-0.783406 -0.0668799 -2.65442e-20)
(-0.722471 -0.0685677 8.68977e-21)
(-0.679889 -0.0808068 3.66808e-20)
(-0.610212 -0.0777666 -2.46311e-20)
(-0.551586 -0.0896437 -1.32997e-20)
(-0.473266 -0.0864927 2.22841e-20)
(-0.392667 -0.100581 -6.67261e-21)
(-0.316364 -0.102678 8.01722e-22)
(-0.189963 -0.123044 1.62149e-21)
(-0.0767022 -0.144316 3.2774e-21)
(0.0814317 -0.153222 -1.29963e-21)
(-0.546901 0.0851593 -1.21742e-19)
(-0.606735 0.0567227 2.03139e-20)
(-0.587283 0.0431431 2.64844e-20)
(-0.625102 0.0154378 -3.96965e-20)
(-0.600167 -0.000652253 2.48242e-20)
(-0.618526 -0.0291606 -1.92754e-20)
(-0.584029 -0.0444801 6.71198e-20)
(-0.581589 -0.0707638 -2.739e-21)
(-0.535578 -0.0838802 1.90568e-20)
(-0.508175 -0.107347 -1.30688e-20)
(-0.45073 -0.116702 -6.34685e-20)
(-0.402094 -0.128129 7.95129e-21)
(-0.343458 -0.132891 -1.31141e-20)
(-0.274886 -0.140829 2.68368e-20)
(-0.210132 -0.152016 -1.10643e-20)
(-0.119211 -0.157797 1.22364e-20)
(-0.0411827 -0.169585 4.29304e-21)
(0.0734318 -0.202171 -8.4986e-21)
(0.203525 -0.228355 1.51136e-21)
(0.338222 -0.238436 -1.45495e-21)
(-0.258119 0.131641 -1.81455e-19)
(-0.311519 0.0833954 9.11806e-20)
(-0.297965 0.0671998 1.28014e-19)
(-0.330808 0.0289919 -8.86338e-20)
(-0.316371 0.00451002 8.21471e-20)
(-0.325715 -0.0307383 -1.11853e-19)
(-0.304479 -0.0567354 9.12249e-20)
(-0.291834 -0.086344 3.55365e-21)
(-0.266028 -0.114888 -9.42407e-20)
(-0.230042 -0.140574 2.51234e-20)
(-0.189788 -0.165363 3.40444e-20)
(-0.135261 -0.17575 -4.67696e-20)
(-0.0864701 -0.182327 2.17911e-20)
(-0.0242471 -0.194616 5.76517e-21)
(0.0402151 -0.206007 6.97865e-21)
(0.119171 -0.22355 -3.07251e-20)
(0.208998 -0.238621 5.4681e-21)
(0.322524 -0.274095 -4.44743e-22)
(0.445797 -0.308048 -8.29669e-22)
(0.566113 -0.316087 -3.05807e-21)
(0.022044 0.156879 -4.77075e-19)
(-0.00643303 0.11169 -6.27e-21)
(-0.012952 0.0875042 4.79763e-19)
(-0.0217036 0.0541724 -3.40218e-19)
(-0.0225483 0.0120262 -2.37181e-20)
(-0.0176644 -0.0273904 1.01038e-19)
(-0.0112702 -0.0661366 8.96671e-21)
(0.00333432 -0.0992902 -3.55698e-20)
(0.0218271 -0.132612 -1.40207e-19)
(0.0482125 -0.169842 7.99833e-20)
(0.0836143 -0.198748 6.33088e-20)
(0.125032 -0.217856 -9.07259e-21)
(0.169666 -0.226683 6.88726e-20)
(0.223207 -0.24006 1.64995e-20)
(0.284557 -0.258171 -6.43425e-20)
(0.355554 -0.274801 -2.07532e-20)
(0.440074 -0.299908 6.79206e-21)
(0.55327 -0.343294 -3.24661e-22)
(0.670027 -0.376838 4.19646e-21)
(0.757336 -0.373898 3.04555e-21)
(0.288915 0.199677 3.72496e-19)
(0.282661 0.147256 -1.06913e-19)
(0.276442 0.109869 2.10275e-19)
(0.269586 0.0734364 -5.46046e-20)
(0.264711 0.032647 -2.8488e-19)
(0.265761 -0.0115174 1.8032e-19)
(0.269378 -0.0534191 -8.45009e-20)
(0.278546 -0.0936057 2.34322e-19)
(0.298636 -0.134318 -3.06249e-19)
(0.325393 -0.176237 9.04012e-20)
(0.349278 -0.213156 -1.1297e-19)
(0.379362 -0.237438 5.96435e-20)
(0.40955 -0.252112 5.04613e-20)
(0.451378 -0.270147 3.95355e-20)
(0.508023 -0.292243 -2.65172e-21)
(0.574653 -0.320026 -2.81735e-20)
(0.662577 -0.356876 2.28977e-21)
(0.76987 -0.401747 1.16227e-21)
(0.854524 -0.426013 -7.7977e-21)
(0.893128 -0.406641 2.87134e-21)
(0.55113 0.2299 6.45838e-21)
(0.545874 0.181986 -1.44522e-19)
(0.549812 0.142154 6.70874e-21)
(0.545887 0.101846 -2.58482e-19)
(0.540631 0.0547615 2.64326e-19)
(0.54089 0.00802043 1.67805e-19)
(0.544115 -0.0432539 -7.97011e-20)
(0.551188 -0.0937823 -1.36675e-20)
(0.561129 -0.141489 -6.27181e-21)
(0.573171 -0.188255 -2.10808e-20)
(0.585632 -0.225776 8.6058e-21)
(0.606882 -0.258005 -3.92058e-20)
(0.629953 -0.28194 -8.12841e-20)
(0.665376 -0.306027 8.24068e-20)
(0.718178 -0.335469 -1.06148e-19)
(0.784549 -0.368099 4.32159e-20)
(0.870352 -0.409585 3.5043e-20)
(0.950191 -0.446442 2.75178e-20)
(0.986433 -0.450949 -1.90315e-20)
(0.972431 -0.414989 -5.9687e-21)
(0.933446 -0.355405 3.08233e-21)
(0.777211 0.248394 -3.45784e-19)
(0.769011 0.208478 1.69637e-19)
(0.777859 0.175994 2.23052e-19)
(0.777972 0.135334 -2.98616e-19)
(0.775308 0.0909525 2.6342e-19)
(0.77189 0.0407295 6.11467e-20)
(0.770775 -0.00258645 3.79161e-21)
(0.774302 -0.0510013 -3.11421e-19)
(0.780259 -0.0997133 6.79966e-20)
(0.788796 -0.147448 -9.34753e-20)
(0.796865 -0.191506 -3.78904e-20)
(0.810858 -0.233389 4.30268e-20)
(0.830656 -0.271239 1.22626e-19)
(0.865884 -0.308206 6.79829e-20)
(0.917271 -0.34978 -7.1466e-20)
(0.982365 -0.394835 4.68017e-20)
(1.0503 -0.438344 -4.64352e-20)
(1.08355 -0.459889 -3.39737e-21)
(1.06358 -0.446402 -3.70032e-22)
(1.01001 -0.40204 -1.47179e-21)
(0.952359 -0.345375 9.94094e-22)
(0.976515 0.253102 5.53744e-20)
(0.964825 0.223767 1.90997e-19)
(0.969595 0.196345 -4.64361e-21)
(0.969118 0.152989 7.35068e-20)
(0.968116 0.103544 7.6658e-20)
(0.971085 0.0520779 -1.60278e-19)
(0.975102 0.000738892 3.49594e-20)
(0.973046 -0.0558822 -2.69457e-19)
(0.975749 -0.108318 4.49539e-19)
(0.979831 -0.158324 -2.06819e-19)
(0.985997 -0.20487 2.24607e-21)
(0.998742 -0.248132 -2.83983e-20)
(1.02091 -0.287944 -1.31333e-19)
(1.05705 -0.328881 2.56064e-19)
(1.10311 -0.371212 -1.37597e-19)
(1.15493 -0.414402 4.31205e-20)
(1.18178 -0.44601 1.83822e-20)
(1.15791 -0.449742 -2.79014e-21)
(1.09709 -0.426603 -3.65841e-20)
(1.02991 -0.384773 1.66028e-20)
(0.973089 -0.336468 -3.28787e-21)
(1.18398 0.269827 1.30114e-20)
(1.16714 0.255604 2.18578e-20)
(1.15636 0.239411 2.02572e-19)
(1.14451 0.210831 -1.94586e-19)
(1.13497 0.173436 -2.45657e-19)
(1.13019 0.13043 2.98618e-19)
(1.1281 0.0758752 -2.6793e-19)
(1.13004 0.0204175 9.83268e-20)
(1.13716 -0.0354479 1.44887e-19)
(1.1478 -0.0938597 -2.05198e-19)
(1.16335 -0.153456 8.94223e-20)
(1.18477 -0.21361 1.83557e-19)
(1.21307 -0.272508 -9.64709e-21)
(1.24432 -0.329057 -1.24356e-19)
(1.26985 -0.378507 -1.1795e-19)
(1.27755 -0.420107 9.64559e-20)
(1.24882 -0.440817 4.20505e-20)
(1.18649 -0.438829 -4.17045e-20)
(1.11533 -0.41639 -1.75816e-20)
(1.05348 -0.383772 2.67333e-20)
(1.00092 -0.345718 -4.5687e-21)
(1.40076 0.286227 0)
(1.41061 0.255619 0)
(1.40842 0.22614 0)
(1.40007 0.193571 0)
(1.39058 0.155352 0)
(1.38383 0.111788 0)
(1.37944 0.0632239 0)
(1.37964 0.0127484 0)
(1.38239 -0.038225 0)
(1.38615 -0.0897369 0)
(1.39035 -0.139753 0)
(1.39335 -0.187306 0)
(1.39348 -0.230983 0)
(1.38522 -0.268825 0)
(1.36318 -0.299857 0)
(1.32318 -0.320787 0)
(1.26523 -0.328971 0)
(1.20014 -0.326324 0)
(1.13739 -0.313623 0)
(1.07956 -0.297342 0)
(1.02867 -0.275608 0)
(0.988657 -0.249122 0)
(1.37233 0.278492 0)
(1.41532 0.249956 0)
(1.44269 0.221824 0)
(1.45869 0.192485 0)
(1.46867 0.159382 0)
(1.47637 0.121192 0)
(1.48222 0.0783097 0)
(1.48629 0.0304442 0)
(1.48663 -0.0207387 0)
(1.48217 -0.0734332 0)
(1.47174 -0.125369 0)
(1.45408 -0.175193 0)
(1.42802 -0.222134 0)
(1.39095 -0.265446 0)
(1.34266 -0.302154 0)
(1.28464 -0.329914 0)
(1.22128 -0.346772 0)
(1.15837 -0.351556 0)
(1.09852 -0.346524 0)
(1.04654 -0.331253 0)
(1.0053 -0.308686 0)
(0.976531 -0.280928 0)
(1.324 0.24881 0)
(1.36951 0.224819 0)
(1.4027 0.198206 0)
(1.42488 0.170508 0)
(1.44017 0.140013 0)
(1.45193 0.105275 0)
(1.46015 0.0655813 0)
(1.465 0.0210034 0)
(1.46483 -0.026953 0)
(1.45912 -0.0758697 0)
(1.44545 -0.123787 0)
(1.42332 -0.168215 0)
(1.39202 -0.208324 0)
(1.35331 -0.241884 0)
(1.30888 -0.266503 0)
(1.26127 -0.280463 0)
(1.21321 -0.283017 0)
(1.16653 -0.278018 0)
(1.12331 -0.266955 0)
(1.08549 -0.251556 0)
(1.05352 -0.234196 0)
(1.02699 -0.21494 0)
(1.30038 0.22314 0)
(1.33933 0.202004 0)
(1.36962 0.176916 0)
(1.3902 0.149904 0)
(1.40375 0.120988 0)
(1.41325 0.0890979 0)
(1.4199 0.0541321 0)
(1.42379 0.016145 0)
(1.4238 -0.0238492 0)
(1.41875 -0.0650191 0)
(1.40709 -0.105856 0)
(1.38812 -0.144313 0)
(1.36154 -0.178892 0)
(1.32892 -0.207573 0)
(1.29165 -0.23083 0)
(1.25105 -0.247684 0)
(1.20737 -0.260443 0)
(1.16266 -0.269777 0)
(1.11854 -0.274235 0)
(1.07718 -0.27244 0)
(1.04007 -0.26392 0)
(1.00808 -0.250333 0)
(1.28437 0.198529 0)
(1.31902 0.180236 0)
(1.34654 0.157939 0)
(1.36555 0.133261 0)
(1.37758 0.106636 0)
(1.38535 0.0782202 0)
(1.3904 0.0476894 0)
(1.39285 0.0151271 0)
(1.39205 -0.0193378 0)
(1.38701 -0.0550548 0)
(1.37658 -0.0908588 0)
(1.36006 -0.125453 0)
(1.33701 -0.157009 0)
(1.30824 -0.184398 0)
(1.27442 -0.206987 0)
(1.23677 -0.224952 0)
(1.19677 -0.237541 0)
(1.15717 -0.243485 0)
(1.11953 -0.241084 0)
(1.08576 -0.231019 0)
(1.05653 -0.216805 0)
(1.03206 -0.200205 0)
(1.26334 0.173542 0)
(1.29476 0.157856 0)
(1.31986 0.138678 0)
(1.33759 0.116959 0)
(1.34883 0.093443 0)
(1.3557 0.0684519 0)
(1.35957 0.0417897 0)
(1.36086 0.0134799 0)
(1.35915 -0.016335 0)
(1.35379 -0.0471825 0)
(1.34394 -0.0781972 0)
(1.32905 -0.108356 0)
(1.30858 -0.136315 0)
(1.28306 -0.161028 0)
(1.253 -0.181784 0)
(1.22019 -0.198174 0)
(1.18593 -0.209354 0)
(1.1521 -0.215177 0)
(1.11924 -0.216221 0)
(1.08847 -0.214165 0)
(1.06032 -0.210934 0)
(1.03454 -0.205346 0)
(1.24061 0.150524 0)
(1.26753 0.136941 0)
(1.28936 0.120467 0)
(1.30504 0.101718 0)
(1.31499 0.0813631 0)
(1.32086 0.0596474 0)
(1.32379 0.0366637 0)
(1.32436 0.0123792 0)
(1.32229 -0.0130217 0)
(1.31731 -0.039224 0)
(1.30861 -0.0656886 0)
(1.29603 -0.0916077 0)
(1.279 -0.116203 0)
(1.25793 -0.138359 0)
(1.23326 -0.157663 0)
(1.20621 -0.17321 0)
(1.17771 -0.184771 0)
(1.1489 -0.192389 0)
(1.12038 -0.196378 0)
(1.09348 -0.197127 0)
(1.06838 -0.194618 0)
(1.0453 -0.186565 0)
(1.21966 0.130813 0)
(1.24201 0.118875 0)
(1.26025 0.104594 0)
(1.27333 0.0885176 0)
(1.28154 0.0708907 0)
(1.28623 0.0522399 0)
(1.28841 0.0324415 0)
(1.28873 0.0117541 0)
(1.28695 -0.00986657 0)
(1.28302 -0.0321765 0)
(1.27625 -0.0547454 0)
(1.26661 -0.0772183 0)
(1.25344 -0.0987661 0)
(1.23705 -0.11887 0)
(1.21758 -0.13671 0)
(1.19564 -0.151588 0)
(1.17186 -0.163311 0)
(1.14721 -0.171776 0)
(1.12245 -0.177061 0)
(1.09854 -0.179269 0)
(1.0754 -0.177604 0)
(1.05361 -0.171224 0)
(1.20105 0.114636 0)
(1.21991 0.104053 0)
(1.23506 0.0915971 0)
(1.24579 0.077547 0)
(1.25235 0.0622376 0)
(1.25597 0.0459861 0)
(1.25761 0.0288399 0)
(1.25779 0.01099 0)
(1.25653 -0.00765347 0)
(1.25368 -0.026769 0)
(1.24879 -0.046275 0)
(1.24167 -0.0656945 0)
(1.2317 -0.0846446 0)
(1.21913 -0.102508 0)
(1.20354 -0.118643 0)
(1.1856 -0.132575 0)
(1.16554 -0.143942 0)
(1.14444 -0.15272 0)
(1.12285 -0.158825 0)
(1.1013 -0.161754 0)
(1.08016 -0.161058 0)
(1.05976 -0.156407 0)
(1.18445 0.101133 0)
(1.20059 0.0918041 0)
(1.21349 0.080791 0)
(1.22252 0.0684372 0)
(1.22788 0.0549724 0)
(1.23076 0.0406865 0)
(1.2319 0.025675 0)
(1.23202 0.0100362 0)
(1.23096 -0.00614682 0)
(1.22884 -0.0227532 0)
(1.2251 -0.0396182 0)
(1.21965 -0.0564218 0)
(1.2119 -0.072915 0)
(1.20186 -0.0885039 0)
(1.18926 -0.102937 0)
(1.17448 -0.115614 0)
(1.15773 -0.126418 0)
(1.13983 -0.135163 0)
(1.12095 -0.1414 0)
(1.10188 -0.144777 0)
(1.08278 -0.145021 0)
(1.06394 -0.141878 0)
(1.16916 0.0890738 0)
(1.18321 0.0808334 0)
(1.1945 0.0711681 0)
(1.20235 0.0603488 0)
(1.20699 0.0485494 0)
(1.20934 0.0360528 0)
(1.21021 0.0228737 0)
(1.21014 0.00923033 0)
(1.20914 -0.00490947 0)
(1.2073 -0.0193244 0)
(1.20414 -0.0339272 0)
(1.19971 -0.0484942 0)
(1.19331 -0.0627274 0)
(1.18519 -0.0763748 0)
(1.17487 -0.0890809 0)
(1.16277 -0.100558 0)
(1.14895 -0.110631 0)
(1.13373 -0.118892 0)
(1.11758 -0.125029 0)
(1.10084 -0.128665 0)
(1.08366 -0.12978 0)
(1.06704 -0.127982 0)
(1.15501 0.0778576 0)
(1.16736 0.0706512 0)
(1.17732 0.0622373 0)
(1.18429 0.0528631 0)
(1.18833 0.0426355 0)
(1.19038 0.031805 0)
(1.19101 0.0203835 0)
(1.19086 0.00854998 0)
(1.18988 -0.00369395 0)
(1.18819 -0.0161665 0)
(1.18547 -0.0288024 0)
(1.18165 -0.0413838 0)
(1.17637 -0.0537509 0)
(1.16966 -0.065639 0)
(1.16121 -0.0768816 0)
(1.15135 -0.0871714 0)
(1.13975 -0.0963526 0)
(1.12706 -0.103989 0)
(1.11322 -0.109844 0)
(1.09855 -0.113737 0)
(1.0838 -0.115413 0)
(1.06917 -0.114586 0)
(1.14212 0.0676856 0)
(1.15289 0.0614205 0)
(1.16164 0.0541474 0)
(1.16773 0.0460531 0)
(1.17129 0.0372551 0)
(1.173 0.0279447 0)
(1.1735 0.0181359 0)
(1.17331 0.0079815 0)
(1.17237 -0.00254613 0)
(1.17094 -0.0132535 0)
(1.16853 -0.0241513 0)
(1.1654 -0.0350076 0)
(1.16096 -0.0457405 0)
(1.15547 -0.0561565 0)
(1.14854 -0.0660359 0)
(1.14031 -0.0752526 0)
(1.13076 -0.0834753 0)
(1.12001 -0.0904627 0)
(1.10822 -0.0960697 0)
(1.09583 -0.0998987 0)
(1.08306 -0.101995 0)
(1.07029 -0.102165 0)
(1.13026 0.0586179 0)
(1.13956 0.053209 0)
(1.14713 0.0469153 0)
(1.15245 0.0399733 0)
(1.15552 0.0324152 0)
(1.15699 0.0244582 0)
(1.15735 0.0160855 0)
(1.15713 0.00740856 0)
(1.15632 -0.00155718 0)
(1.15507 -0.0107354 0)
(1.15311 -0.0200573 0)
(1.1505 -0.0294076 0)
(1.14688 -0.0387108 0)
(1.14241 -0.0477457 0)
(1.13664 -0.0564632 0)
(1.1299 -0.0645545 0)
(1.1219 -0.0719141 0)
(1.11287 -0.0782876 0)
(1.10305 -0.0834592 0)
(1.09244 -0.0872584 0)
(1.08157 -0.0897263 0)
(1.07054 -0.0904593 0)
(1.11917 0.050556 0)
(1.12714 0.0458816 0)
(1.1337 0.0404944 0)
(1.1383 0.034553 0)
(1.14097 0.0281109 0)
(1.14222 0.0213381 0)
(1.14248 0.014215 0)
(1.14229 0.00685579 0)
(1.14154 -0.000774715 0)
(1.14054 -0.00857998 0)
(1.13888 -0.0165309 0)
(1.1368 -0.0245588 0)
(1.13383 -0.0325266 0)
(1.13018 -0.0403901 0)
(1.12548 -0.0479358 0)
(1.1199 -0.0550532 0)
(1.11328 -0.0615926 0)
(1.10581 -0.0672955 0)
(1.09756 -0.0721212 0)
(1.08862 -0.0758237 0)
(1.07944 -0.0784006 0)
(1.06995 -0.0796408 0)
(1.10878 0.0433888 0)
(1.11561 0.0393999 0)
(1.12127 0.0348053 0)
(1.12526 0.0297596 0)
(1.12758 0.0242938 0)
(1.12865 0.0185501 0)
(1.12886 0.0125261 0)
(1.12865 0.00629469 0)
(1.12801 -0.000161532 0)
(1.12717 -0.00676745 0)
(1.12581 -0.0135378 0)
(1.12414 -0.020351 0)
(1.12173 -0.0271971 0)
(1.11879 -0.0339154 0)
(1.11496 -0.0404629 0)
(1.11038 -0.0466477 0)
(1.10498 -0.052408 0)
(1.09876 -0.0575042 0)
(1.09196 -0.0619637 0)
(1.08446 -0.0654298 0)
(1.07674 -0.0681229 0)
(1.06862 -0.0696371 0)
(1.09914 0.0370817 0)
(1.10496 0.0336868 0)
(1.10981 0.029802 0)
(1.11327 0.0255287 0)
(1.11528 0.0209173 0)
(1.11622 0.0160647 0)
(1.11637 0.0109909 0)
(1.1162 0.00573232 0)
(1.11563 0.000301229 0)
(1.11494 -0.00528451 0)
(1.11381 -0.0109838 0)
(1.11247 -0.0167715 0)
(1.11053 -0.0225718 0)
(1.10817 -0.0283143 0)
(1.10507 -0.0339314 0)
(1.10136 -0.0392799 0)
(1.09696 -0.0443162 0)
(1.09185 -0.0488503 0)
(1.08628 -0.0528683 0)
(1.08002 -0.0561518 0)
(1.07356 -0.0587885 0)
(1.06667 -0.0605211 0)
(1.09023 0.0315336 0)
(1.09514 0.028672 0)
(1.0993 0.0253917 0)
(1.10227 0.0218049 0)
(1.10402 0.0179183 0)
(1.10484 0.0138551 0)
(1.10497 0.00958025 0)
(1.10481 0.00518769 0)
(1.10433 0.000610185 0)
(1.10376 -0.00405539 0)
(1.10284 -0.00886643 0)
(1.10176 -0.013707 0)
(1.10021 -0.0186313 0)
(1.09832 -0.0234714 0)
(1.09585 -0.0282883 0)
(1.09284 -0.032851 0)
(1.0893 -0.0372568 0)
(1.08512 -0.0412063 0)
(1.08058 -0.0448504 0)
(1.07538 -0.0478535 0)
(1.07003 -0.0504131 0)
(1.06424 -0.0521874 0)
(1.08201 0.0266731 0)
(1.08614 0.0242651 0)
(1.08968 0.0215276 0)
(1.09224 0.0185204 0)
(1.09376 0.0152814 0)
(1.09448 0.0118783 0)
(1.0946 0.00832075 0)
(1.09447 0.00464479 0)
(1.09404 0.000838734 0)
(1.09358 -0.00306437 0)
(1.09282 -0.00707476 0)
(1.09197 -0.0111346 0)
(1.09073 -0.0152559 0)
(1.08923 -0.0193462 0)
(1.08726 -0.0234115 0)
(1.08485 -0.0273232 0)
(1.08201 -0.031094 0)
(1.07861 -0.0345652 0)
(1.07494 -0.0377691 0)
(1.07066 -0.040528 0)
(1.06627 -0.0428914 0)
(1.06139 -0.0447121 0)
(1.07452 0.0224211 0)
(1.07795 0.0204277 0)
(1.08095 0.0181403 0)
(1.08312 0.0156544 0)
(1.08445 0.0129496 0)
(1.08508 0.0101386 0)
(1.0852 0.00716839 0)
(1.08509 0.00413731 0)
(1.08473 0.000958992 0)
(1.08435 -0.00225635 0)
(1.08374 -0.0056111 0)
(1.08306 -0.00896223 0)
(1.08207 -0.0124241 0)
(1.08089 -0.0158192 0)
(1.07933 -0.0192663 0)
(1.0774 -0.0225505 0)
(1.07515 -0.0257968 0)
(1.07239 -0.0287713 0)
(1.06945 -0.0316015 0)
(1.06594 -0.0340486 0)
(1.06234 -0.0362516 0)
(1.05829 -0.0379704 0)
(1.06771 0.0187347 0)
(1.07053 0.017083 0)
(1.07305 0.0152018 0)
(1.0749 0.0131427 0)
(1.07605 0.0109188 0)
(1.07661 0.00858911 0)
(1.07673 0.00614946 0)
(1.07664 0.00363865 0)
(1.07634 0.00103113 0)
(1.07603 -0.00163331 0)
(1.07553 -0.00438685 0)
(1.075 -0.00717167 0)
(1.07421 -0.0100224 0)
(1.07328 -0.0128593 0)
(1.07205 -0.0157204 0)
(1.07052 -0.0184963 0)
(1.06874 -0.0212268 0)
(1.06651 -0.0237904 0)
(1.06418 -0.0262205 0)
(1.06128 -0.0284035 0)
(1.0584 -0.0303624 0)
(1.05501 -0.0319919 0)
(1.06157 0.0155361 0)
(1.06386 0.0141931 0)
(1.06596 0.012642 0)
(1.06751 0.0109669 0)
(1.06851 0.00913081 0)
(1.069 0.00723626 0)
(1.06912 0.00522108 0)
(1.06906 0.00318234 0)
(1.06881 0.00103015 0)
(1.06856 -0.00113364 0)
(1.06815 -0.00340637 0)
(1.06774 -0.00567374 0)
(1.06712 -0.00803313 0)
(1.06639 -0.0103543 0)
(1.06543 -0.0127389 0)
(1.0642 -0.0150313 0)
(1.06281 -0.0173404 0)
(1.06102 -0.0194867 0)
(1.05916 -0.0215906 0)
(1.05681 -0.0234594 0)
(1.05448 -0.0252189 0)
(1.05169 -0.0266808 0)
(1.05607 0.0127754 0)
(1.0579 0.0116807 0)
(1.05963 0.0104311 0)
(1.06092 0.00906271 0)
(1.06179 0.00758054 0)
(1.06222 0.00603136 0)
(1.06235 0.00440425 0)
(1.06231 0.00273934 0)
(1.06211 0.00100199 0)
(1.06191 -0.000762799 0)
(1.06158 -0.00260088 0)
(1.06126 -0.00445071 0)
(1.06077 -0.00636587 0)
(1.0602 -0.00826692 0)
(1.05944 -0.0102127 0)
(1.05846 -0.0121095 0)
(1.05739 -0.0140128 0)
(1.05592 -0.0158188 0)
(1.05449 -0.0175814 0)
(1.05255 -0.0191893 0)
(1.05071 -0.0207088 0)
(1.04839 -0.0220099 0)
(1.05122 0.0103801 0)
(1.05264 0.00951345 0)
(1.05404 0.00850561 0)
(1.05509 0.00741508 0)
(1.05584 0.00621663 0)
(1.05623 0.00497855 0)
(1.05637 0.00366394 0)
(1.05634 0.00233353 0)
(1.05619 0.000931988 0)
(1.05603 -0.000477912 0)
(1.05577 -0.00196226 0)
(1.05552 -0.00343989 0)
(1.05514 -0.00499237 0)
(1.05469 -0.00651174 0)
(1.0541 -0.00810108 0)
(1.05332 -0.00962395 0)
(1.05247 -0.0111986 0)
(1.0513 -0.0126677 0)
(1.05018 -0.014146 0)
(1.04859 -0.0154852 0)
(1.04713 -0.0167804 0)
(1.0452 -0.0179087 0)
(1.04699 0.00830308 0)
(1.04806 0.00762089 0)
(1.04916 0.00683246 0)
(1.05001 0.00596643 0)
(1.05065 0.00502287 0)
(1.05099 0.00403756 0)
(1.05115 0.00300204 0)
(1.05114 0.0019454 0)
(1.05103 0.000841647 0)
(1.0509 -0.000276984 0)
(1.0507 -0.00144769 0)
(1.0505 -0.00262045 0)
(1.05022 -0.00384682 0)
(1.04986 -0.00505389 0)
(1.04941 -0.00631528 0)
(1.04876 -0.00753072 0)
(1.04812 -0.0087954 0)
(1.04714 -0.00997903 0)
(1.04629 -0.0111868 0)
(1.04498 -0.0122799 0)
(1.04383 -0.0133593 0)
(1.04222 -0.0143061 0)
(1.04339 0.00647782 0)
(1.04415 0.00596233 0)
(1.04499 0.00535627 0)
(1.04565 0.00469014 0)
(1.0462 0.00395905 0)
(1.04651 0.0031973 0)
(1.04668 0.00239565 0)
(1.04669 0.00158027 0)
(1.04662 0.000726357 0)
(1.04651 -0.000135975 0)
(1.04636 -0.00104437 0)
(1.04621 -0.00194722 0)
(1.046 -0.00290135 0)
(1.04572 -0.00382766 0)
(1.04537 -0.00481258 0)
(1.04483 -0.00574892 0)
(1.04432 -0.00674455 0)
(1.04351 -0.0076696 0)
(1.04285 -0.00862873 0)
(1.04177 -0.00949911 0)
(1.04086 -0.0103641 0)
(1.03951 -0.0111378 0)
(1.04045 0.0048527 0)
(1.04094 0.00447912 0)
(1.04154 0.00403545 0)
(1.04203 0.00354094 0)
(1.0425 0.00299845 0)
(1.04279 0.00242896 0)
(1.04297 0.00183467 0)
(1.043 0.00122614 0)
(1.04296 0.000594437 0)
(1.04286 -4.94e-05 0)
(1.04276 -0.000723311 0)
(1.04263 -0.00139732 0)
(1.04251 -0.00210697 0)
(1.04227 -0.00279395 0)
(1.042 -0.00352939 0)
(1.04153 -0.00422188 0)
(1.04113 -0.00497541 0)
(1.04045 -0.00566461 0)
(1.03993 -0.00640126 0)
(1.03903 -0.00705672 0)
(1.03831 -0.00772611 0)
(1.03715 -0.00832146 0)
(1.03819 0.00337475 0)
(1.03845 0.00312693 0)
(1.03884 0.00282456 0)
(1.03919 0.00248424 0)
(1.03959 0.00210964 0)
(1.03985 0.00171162 0)
(1.04006 0.00130272 0)
(1.0401 0.000876453 0)
(1.04008 0.000443913 0)
(1.03998 -6.92794e-06 0)
(1.03992 -0.000470429 0)
(1.03982 -0.000940904 0)
(1.03975 -0.00143217 0)
(1.03955 -0.00190569 0)
(1.03936 -0.00241716 0)
(1.03893 -0.00289136 0)
(1.0386 -0.00342052 0)
(1.03799 -0.00389911 0)
(1.03759 -0.00441936 0)
(1.03683 -0.00488449 0)
(1.03623 -0.00535418 0)
(1.03524 -0.00578701 0)
(1.03662 0.00199626 0)
(1.03673 0.00185605 0)
(1.03695 0.00168114 0)
(1.0372 0.00148302 0)
(1.03751 0.00126245 0)
(1.03777 0.00102752 0)
(1.03798 0.000785862 0)
(1.03804 0.000533506 0)
(1.03804 0.000278649 0)
(1.03794 1.15324e-05 0)
(1.03791 -0.000261595 0)
(1.03781 -0.00054104 0)
(1.03781 -0.000831134 0)
(1.03763 -0.00111088 0)
(1.03749 -0.00141424 0)
(1.03708 -0.0016914 0)
(1.03678 -0.00201042 0)
(1.03625 -0.00228828 0)
(1.0359 -0.00260908 0)
(1.03525 -0.00287726 0)
(1.03473 -0.0031698 0)
(1.03384 -0.0034213 0)
(1.03581 0.000657696 0)
(1.03582 0.000620581 0)
(1.03595 0.000560135 0)
(1.03612 0.00048867 0)
(1.03641 0.000429352 0)
(1.03665 0.000327225 0)
(1.03687 0.000276901 0)
(1.03694 0.000157522 0)
(1.03694 0.000107095 0)
(1.03686 -9.96209e-06 0)
(1.03682 -8.47662e-05 0)
(1.03675 -0.000175854 0)
(1.03676 -0.000294271 0)
(1.0366 -0.000346554 0)
(1.03649 -0.00050051 0)
(1.03607 -0.000536507 0)
(1.03583 -0.000684707 0)
(1.03527 -0.000762237 0)
(1.035 -0.000846823 0)
(1.03438 -0.000996343 0)
(1.0339 -0.00100832 0)
(1.0331 -0.00117864 0)
(1.22406 0.305111 -1.12511e-19)
(1.25587 0.307164 1.21059e-20)
(1.17925 0.273217 -2.17724e-19)
(1.34399 0.33325 9.02581e-20)
(1.37799 0.328764 -1.21339e-19)
(1.15735 0.261382 4.23885e-20)
(1.28655 0.306001 -1.22516e-19)
(1.21587 0.272111 1.12305e-19)
(1.25932 0.278692 6.67324e-20)
(1.32497 0.305402 9.7518e-20)
(1.15285 0.224827 -2.65801e-20)
(1.23113 0.249208 2.95315e-20)
(1.24397 0.25527 5.46732e-20)
(1.23448 0.232031 -1.09131e-19)
(1.27739 0.266919 -8.85935e-20)
(1.17255 0.213283 -1.31552e-20)
(1.18821 0.202577 -5.28291e-22)
(1.23129 0.233805 -2.57954e-20)
(1.24576 0.210514 1.42189e-19)
(1.26399 0.237949 1.36478e-19)
(1.18444 0.178542 -2.78675e-20)
(1.20777 0.209376 -6.62152e-20)
(1.23773 0.1909 -1.5616e-20)
(1.25304 0.212021 -8.89935e-20)
(1.18388 0.161091 4.10669e-20)
(1.19156 0.183209 7.18699e-20)
(1.21373 0.165833 -4.14514e-20)
(1.23422 0.184922 6.21694e-20)
(1.17399 0.14359 3.34302e-20)
(1.18293 0.160798 -2.31051e-20)
(1.19653 0.144842 2.91948e-20)
(1.21601 0.160357 -3.93135e-20)
(1.16304 0.129755 -4.97772e-20)
(1.17521 0.143568 3.22972e-20)
(1.18535 0.129761 -6.50984e-21)
(1.19982 0.139929 2.02773e-20)
(1.15295 0.117905 1.21235e-20)
(1.16373 0.127811 -2.94317e-20)
(1.17278 0.116491 2.6868e-20)
(1.18431 0.122874 -5.12741e-20)
(1.14256 0.10592 3.77064e-20)
(1.15067 0.112613 -9.42334e-21)
(1.15957 0.103815 -1.2448e-20)
(1.16996 0.108413 4.4747e-20)
(1.133 0.0945524 -2.48126e-20)
(1.13946 0.0992344 2.48499e-20)
(1.14761 0.0921159 -3.7612e-20)
(1.15667 0.0955597 -3.54676e-20)
(1.12437 0.0840992 -2.43818e-20)
(1.12964 0.087419 4.41324e-21)
(1.13649 0.0811466 4.53994e-20)
(1.1441 0.0836448 3.00962e-20)
(1.11588 0.074225 3.69851e-20)
(1.12027 0.0765107 -9.51926e-21)
(1.12601 0.0710102 -2.52526e-20)