/*--------------------------------*- C++ -*----------------------------------*\
| =========                 |                                                 |
| \\      /  F ield         | OpenFOAM: The Open Source CFD Toolbox           |
|  \\    /   O peration     | Version:                                        |
|   \\  /    A nd           | Website:  www.openfoam.com                      |
|    \\/     M anipulation  |                                                 |
\*---------------------------------------------------------------------------*/
FoamFile
{
    version     2.0;
    format      ascii;
    class       volScalarField;
    location    "0.7";
    object      p;
}
// * * * * * * * * * * * * * * * * * * * * * * * * * * * * * * * * * * * * * //

dimensions      [0 2 -2 0 0 0 0];


internalField   nonuniform List<scalar> 
400
(
0.467089
0.455903
0.445017
0.434405
0.424045
0.413915
0.403995
0.39427
0.384724
0.375343
0.366116
0.357032
0.348082
0.339256
0.330548
0.32195
0.313457
0.305063
0.296762
0.28855
0.466958
0.455782
0.444907
0.434304
0.423952
0.413829
0.403917
0.394198
0.384657
0.375281
0.366059
0.356979
0.348032
0.33921
0.330505
0.32191
0.313419
0.305027
0.296728
0.288518
0.466696
0.455543
0.444687
0.434103
0.423768
0.41366
0.403761
0.394054
0.384525
0.375159
0.365945
0.356873
0.347934
0.339118
0.330419
0.32183
0.313344
0.304957
0.296662
0.288456
0.466307
0.455187
0.444362
0.433806
0.423496
0.41341
0.403532
0.393844
0.38433
0.374979
0.365779
0.356719
0.347791
0.338985
0.330295
0.321714
0.313236
0.304855
0.296567
0.288366
0.465794
0.454719
0.443935
0.433416
0.42314
0.413085
0.403234
0.39357
0.384079
0.374748
0.365565
0.356522
0.347607
0.338815
0.330136
0.321566
0.313097
0.304725
0.296445
0.288252
0.465163
0.454145
0.443414
0.432942
0.422709
0.412692
0.402875
0.393242
0.383778
0.374471
0.365311
0.356286
0.34739
0.338613
0.329949
0.321391
0.312934
0.304573
0.296302
0.288118
0.464425
0.453478
0.44281
0.432395
0.422213
0.412242
0.402466
0.392869
0.383437
0.374159
0.365024
0.356022
0.347146
0.338387
0.329739
0.321196
0.312753
0.304404
0.296144
0.28797
0.463597
0.452732
0.442138
0.431791
0.421667
0.411748
0.402018
0.392462
0.383067
0.373821
0.364714
0.355738
0.346884
0.338146
0.329516
0.320989
0.312561
0.304225
0.295977
0.287814
0.462701
0.451931
0.44142
0.431147
0.421088
0.411228
0.401548
0.392037
0.382681
0.373469
0.364393
0.355444
0.346615
0.337897
0.329287
0.320777
0.312364
0.304042
0.295807
0.287655
0.461767
0.451099
0.44068
0.430486
0.420498
0.410698
0.401072
0.391608
0.382292
0.373117
0.364073
0.355151
0.346346
0.337651
0.32906
0.320568
0.31217
0.303862
0.295639
0.287498
0.460826
0.450268
0.439943
0.429832
0.419916
0.410179
0.400607
0.391189
0.381915
0.372775
0.363762
0.354869
0.346088
0.337414
0.328842
0.320366
0.311984
0.303689
0.295478
0.287349
0.459916
0.449467
0.439237
0.429208
0.419362
0.409686
0.400166
0.390794
0.381559
0.372454
0.363471
0.354603
0.345845
0.337191
0.328637
0.320178
0.311809
0.303527
0.295328
0.287209
0.459065
0.448722
0.438583
0.428631
0.418851
0.409231
0.399761
0.390431
0.381232
0.372158
0.363203
0.354359
0.345622
0.336987
0.328449
0.320004
0.311648
0.303378
0.295189
0.287079
0.458297
0.448051
0.437994
0.428111
0.418391
0.408822
0.399396
0.390103
0.380937
0.371891
0.362959
0.354137
0.345418
0.336799
0.328276
0.319844
0.3115
0.30324
0.295061
0.286959
0.457621
0.447459
0.437473
0.427651
0.417983
0.408458
0.399068
0.389808
0.38067
0.371648
0.362737
0.353933
0.345231
0.336627
0.328116
0.319696
0.311362
0.303111
0.29494
0.286846
0.45703
0.446939
0.437014
0.427243
0.417618
0.40813
0.398772
0.389539
0.380425
0.371424
0.362532
0.353744
0.345056
0.336464
0.327965
0.319554
0.311229
0.302987
0.294823
0.286736
0.456509
0.446476
0.436601
0.426873
0.417284
0.407828
0.398497
0.389288
0.380194
0.371211
0.362334
0.353561
0.344885
0.336305
0.327815
0.319414
0.311098
0.302863
0.294706
0.286626
0.456021
0.44604
0.436208
0.426517
0.41696
0.407531
0.398225
0.389036
0.379961
0.370994
0.362133
0.353372
0.344709
0.336139
0.327659
0.319267
0.310958
0.302731
0.294581
0.286507
0.455496
0.445565
0.435776
0.426122
0.416598
0.407197
0.397916
0.388749
0.379693
0.370744
0.361898
0.353151
0.344501
0.335942
0.327474
0.319091
0.310792
0.302573
0.294431
0.286364
0.454925
0.445047
0.435302
0.425687
0.416196
0.406825
0.397569
0.388426
0.379391
0.37046
0.361631
0.352899
0.344263
0.335717
0.32726
0.318888
0.310599
0.302389
0.294256
0.286197
)
;

boundaryField
{
    fixedWalls
    {
        type            zeroGradient;
    }
    inlet
    {
        type            zeroGradient;
    }
    outlet
    {
        type            fixedValue;
        value           nonuniform 0();
    }
    frontAndBack
    {
        type            empty;
    }
    procBoundary5to1
    {
        type            processor;
        value           nonuniform List<scalar> 
20
(
0.467089
0.455903
0.445017
0.434405
0.424045
0.413915
0.403995
0.39427
0.384724
0.375343
0.366116
0.357032
0.348082
0.339256
0.330548
0.32195
0.313457
0.305063
0.296762
0.28855
)
;
    }
    procBoundary5to4
    {
        type            processor;
        value           nonuniform List<scalar> 
20
(
0.478602
0.47846
0.478175
0.47775
0.477188
0.476494
0.47568
0.474761
0.47376
0.472709
0.471645
0.470607
0.469634
0.468752
0.467976
0.467301
0.466709
0.466161
0.465577
0.464945
)
;
    }
    procBoundary5to6
    {
        type            processor;
        value           nonuniform List<scalar> 
20
(
0.280423
0.280393
0.280334
0.28025
0.280142
0.280016
0.279878
0.279731
0.279582
0.279436
0.279297
0.279166
0.279045
0.278932
0.278826
0.278722
0.278618
0.278505
0.278369
0.27821
)
;
    }
}


// ************************************************************************* //
