/*--------------------------------*- C++ -*----------------------------------*\
| =========                 |                                                 |
| \\      /  F ield         | OpenFOAM: The Open Source CFD Toolbox           |
|  \\    /   O peration     | Version:                                        |
|   \\  /    A nd           | Website:  www.openfoam.com                      |
|    \\/     M anipulation  |                                                 |
\*---------------------------------------------------------------------------*/
FoamFile
{
    version     2.0;
    format      ascii;
    class       surfaceScalarField;
    location    "0.7";
    object      phi;
}
// * * * * * * * * * * * * * * * * * * * * * * * * * * * * * * * * * * * * * //

dimensions      [0 3 -1 0 0 0 0];
oriented        oriented;


internalField   nonuniform List<scalar> 
760
(
3.13714e-05
-2.46849e-07
3.16081e-05
-2.36675e-07
3.18351e-05
-2.27005e-07
3.20529e-05
-2.17805e-07
3.22619e-05
-2.09039e-07
3.24626e-05
-2.00676e-07
3.26553e-05
-1.92688e-07
3.28404e-05
-1.85049e-07
3.30181e-05
-1.77735e-07
3.31888e-05
-1.70729e-07
3.33528e-05
-1.64011e-07
3.35104e-05
-1.57567e-07
3.36618e-05
-1.51382e-07
3.38072e-05
-1.45446e-07
3.3947e-05
-1.39746e-07
3.40813e-05
-1.34273e-07
3.42103e-05
-1.29017e-07
3.43342e-05
-1.23968e-07
3.44534e-05
-1.1912e-07
-1.14463e-07
3.14031e-05
-4.90581e-07
3.16363e-05
-4.69831e-07
3.18594e-05
-4.50136e-07
3.2073e-05
-4.31426e-07
3.22776e-05
-4.13632e-07
3.24736e-05
-3.96688e-07
3.26615e-05
-3.80537e-07
3.28415e-05
-3.65123e-07
3.30142e-05
-3.50399e-07
3.31798e-05
-3.36322e-07
3.33386e-05
-3.22853e-07
3.3491e-05
-3.09958e-07
3.36373e-05
-2.97606e-07
3.37776e-05
-2.85771e-07
3.39123e-05
-2.74427e-07
3.40415e-05
-2.63551e-07
3.41656e-05
-2.53121e-07
3.42848e-05
-2.43118e-07
3.43992e-05
-2.33523e-07
-2.2432e-07
3.14614e-05
-7.27407e-07
3.16869e-05
-6.95336e-07
3.19017e-05
-6.64968e-07
3.21065e-05
-6.36196e-07
3.23018e-05
-6.08916e-07
3.24881e-05
-5.83024e-07
3.2666e-05
-5.58425e-07
3.28359e-05
-5.3503e-07
3.29983e-05
-5.12757e-07
3.31535e-05
-4.91535e-07
3.33019e-05
-4.71295e-07
3.3444e-05
-4.51979e-07
3.35799e-05
-4.33532e-07
3.371e-05
-4.15907e-07
3.38347e-05
-3.99057e-07
3.3954e-05
-3.82943e-07
3.40685e-05
-3.67526e-07
3.41781e-05
-3.52773e-07
3.42832e-05
-3.38651e-07
-3.25129e-07
3.15353e-05
-9.52281e-07
3.17479e-05
-9.07926e-07
3.1949e-05
-8.66079e-07
3.21394e-05
-8.26594e-07
3.23198e-05
-7.89315e-07
3.24909e-05
-7.54091e-07
3.26532e-05
-7.20777e-07
3.28074e-05
-6.89237e-07
3.2954e-05
-6.59346e-07
3.30935e-05
-6.30989e-07
3.32262e-05
-6.0406e-07
3.33527e-05
-5.78465e-07
3.34733e-05
-5.54118e-07
3.35883e-05
-5.30939e-07
3.36981e-05
-5.08857e-07
3.3803e-05
-4.87807e-07
3.39032e-05
-4.6773e-07
3.3999e-05
-4.4857e-07
3.40906e-05
-4.30277e-07
-4.12804e-07
3.16063e-05
-1.15849e-06
3.17993e-05
-1.10089e-06
3.198e-05
-1.04683e-06
3.21495e-05
-9.96084e-07
3.23087e-05
-9.48439e-07
3.24582e-05
-9.03671e-07
3.2599e-05
-8.61566e-07
3.27317e-05
-8.21922e-07
3.28569e-05
-7.84551e-07
3.29752e-05
-7.49283e-07
3.30871e-05
-7.1596e-07
3.31931e-05
-6.84437e-07
3.32936e-05
-6.54587e-07
3.33889e-05
-6.26291e-07
3.34795e-05
-5.99443e-07
3.35656e-05
-5.73946e-07
3.36476e-05
-5.49711e-07
3.37257e-05
-5.2666e-07
3.38001e-05
-5.04717e-07
-4.83817e-07
3.16469e-05
-1.3376e-06
3.18121e-05
-1.2661e-06
3.19647e-05
-1.19943e-06
3.21059e-05
-1.13727e-06
3.22367e-05
-1.07929e-06
3.23582e-05
-1.02516e-06
3.24712e-05
-9.74581e-07
3.25766e-05
-9.2725e-07
3.26749e-05
-8.829e-07
3.27669e-05
-8.41286e-07
3.28531e-05
-8.02182e-07
3.29341e-05
-7.65386e-07
3.30102e-05
-7.30712e-07
3.30819e-05
-6.97996e-07
3.31496e-05
-6.67089e-07
3.32135e-05
-6.37856e-07
3.32739e-05
-6.10176e-07
3.33312e-05
-5.8394e-07
3.33855e-05
-5.59047e-07
-5.35407e-07
3.16184e-05
-1.47977e-06
3.17467e-05
-1.39444e-06
3.18628e-05
-1.31549e-06
3.1968e-05
-1.24244e-06
3.20635e-05
-1.17481e-06
3.21504e-05
-1.11212e-06
3.22298e-05
-1.05395e-06
3.23024e-05
-9.99881e-07
3.23691e-05
-9.49539e-07
3.24304e-05
-9.02588e-07
3.24869e-05
-8.58722e-07
3.25392e-05
-8.17667e-07
3.25877e-05
-7.79178e-07
3.26327e-05
-7.43035e-07
3.26747e-05
-7.09042e-07
3.27138e-05
-6.77024e-07
3.27505e-05
-6.46824e-07
3.27848e-05
-6.18301e-07
3.28171e-05
-5.91328e-07
-5.65791e-07
3.1471e-05
-1.57476e-06
3.15533e-05
-1.47676e-06
3.16247e-05
-1.38689e-06
3.16867e-05
-1.30444e-06
3.17406e-05
-1.22871e-06
3.17876e-05
-1.15906e-06
3.18285e-05
-1.09489e-06
3.18643e-05
-1.03565e-06
3.18956e-05
-9.80858e-07
3.19231e-05
-9.30065e-07
3.19472e-05
-8.82882e-07
3.19685e-05
-8.3896e-07
3.19874e-05
-7.9799e-07
3.2004e-05
-7.59697e-07
3.20188e-05
-7.23839e-07
3.2032e-05
-6.90202e-07
3.20438e-05
-6.58592e-07
3.20543e-05
-6.28842e-07
3.20638e-05
-6.00799e-07
-5.74328e-07
3.11442e-05
-1.61338e-06
3.11727e-05
-1.50533e-06
3.1193e-05
-1.40717e-06
3.12065e-05
-1.31791e-06
3.12144e-05
-1.2366e-06
3.12177e-05
-1.16241e-06
3.12174e-05
-1.09454e-06
3.1214e-05
-1.03233e-06
3.12083e-05
-9.75139e-07
3.12007e-05
-9.22443e-07
3.11916e-05
-8.73762e-07
3.11813e-05
-8.28679e-07
3.11701e-05
-7.86826e-07
3.11583e-05
-7.47881e-07
3.1146e-05
-7.11562e-07
3.11335e-05
-6.77621e-07
3.11207e-05
-6.45838e-07
3.11079e-05
-6.1602e-07
3.10951e-05
-5.87998e-07
-5.61618e-07
3.05701e-05
-1.58939e-06
3.05402e-05
-1.47543e-06
3.05059e-05
-1.3729e-06
3.04685e-05
-1.28049e-06
3.04289e-05
-1.19701e-06
3.03879e-05
-1.12142e-06
3.03461e-05
-1.05276e-06
3.0304e-05
-9.90221e-07
3.0262e-05
-9.33086e-07
3.02203e-05
-8.8073e-07
3.01791e-05
-8.32611e-07
3.01387e-05
-7.88258e-07
3.00991e-05
-7.47262e-07
3.00605e-05
-7.09267e-07
3.00229e-05
-6.73965e-07
2.99864e-05
-6.41086e-07
2.99509e-05
-6.10393e-07
2.99166e-05
-5.81681e-07
2.98834e-05
-5.54767e-07
-5.29493e-07
2.96792e-05
-1.50143e-06
2.95907e-05
-1.38699e-06
2.95029e-05
-1.28501e-06
2.94163e-05
-1.1939e-06
2.93315e-05
-1.11224e-06
2.92489e-05
-1.03882e-06
2.91687e-05
-9.72569e-07
2.90911e-05
-9.1259e-07
2.90161e-05
-8.58091e-07
2.89437e-05
-8.084e-07
2.88741e-05
-7.62938e-07
2.8807e-05
-7.21209e-07
2.87425e-05
-6.82783e-07
2.86806e-05
-6.47295e-07
2.8621e-05
-6.14425e-07
2.85638e-05
-5.839e-07
2.85089e-05
-5.55479e-07
2.84562e-05
-5.28957e-07
2.84056e-05
-5.04151e-07
-4.80903e-07
2.84073e-05
-1.35437e-06
2.82659e-05
-1.24559e-06
2.81304e-05
-1.14952e-06
2.80009e-05
-1.06437e-06
2.78772e-05
-9.88615e-07
2.77594e-05
-9.2094e-07
2.7647e-05
-8.60237e-07
2.754e-05
-8.05565e-07
2.7438e-05
-7.56125e-07
2.73409e-05
-7.11239e-07
2.72483e-05
-6.7033e-07
2.716e-05
-6.32911e-07
2.70757e-05
-5.98563e-07
2.69954e-05
-5.6693e-07
2.69187e-05
-5.37705e-07
2.68454e-05
-5.10628e-07
2.67754e-05
-4.85471e-07
2.67085e-05
-4.62038e-07
2.66445e-05
-4.4016e-07
-4.19687e-07
2.67036e-05
-1.15967e-06
2.65204e-05
-1.06248e-06
2.63482e-05
-9.77324e-07
2.61863e-05
-9.02391e-07
2.60338e-05
-8.3614e-07
2.58901e-05
-7.77289e-07
2.57547e-05
-7.24763e-07
2.56268e-05
-6.77663e-07
2.55059e-05
-6.35237e-07
2.53915e-05
-5.96851e-07
2.52831e-05
-5.61973e-07
2.51804e-05
-5.30157e-07
2.50828e-05
-5.01022e-07
2.49902e-05
-4.74248e-07
2.4902e-05
-4.49559e-07
2.48181e-05
-4.26723e-07
2.47382e-05
-4.05539e-07
2.4662e-05
-3.85833e-07
2.45893e-05
-3.67457e-07
-3.5028e-07
2.45367e-05
-9.34397e-07
2.43278e-05
-8.53504e-07
2.41336e-05
-7.83124e-07
2.39527e-05
-7.21559e-07
2.3784e-05
-6.67411e-07
2.36263e-05
-6.19529e-07
2.34784e-05
-5.76961e-07
2.33397e-05
-5.38922e-07
2.32092e-05
-5.04757e-07
2.30863e-05
-4.73926e-07
2.29703e-05
-4.45974e-07
2.28607e-05
-4.20524e-07
2.27569e-05
-3.97258e-07
2.26586e-05
-3.75907e-07
2.25653e-05
-3.56244e-07
2.24766e-05
-3.38076e-07
2.23923e-05
-3.21237e-07
2.23121e-05
-3.05587e-07
2.22356e-05
-2.91003e-07
-2.7738e-07
2.18981e-05
-6.98963e-07
2.16817e-05
-6.37102e-07
2.14822e-05
-5.83575e-07
2.12976e-05
-5.36973e-07
2.11263e-05
-4.96149e-07
2.0967e-05
-4.60172e-07
2.08183e-05
-4.2828e-07
2.06792e-05
-3.99848e-07
2.05488e-05
-3.74363e-07
2.04263e-05
-3.51403e-07
2.03109e-05
-3.30615e-07
2.02021e-05
-3.11709e-07
2.00993e-05
-2.94441e-07
2.0002e-05
-2.78605e-07
1.99098e-05
-2.64031e-07
1.98223e-05
-2.50571e-07
1.97391e-05
-2.381e-07
1.96601e-05
-2.26514e-07
1.95848e-05
-2.15719e-07
-2.05637e-07
1.88002e-05
-4.74309e-07
1.85949e-05
-4.31813e-07
1.84065e-05
-3.95193e-07
1.8233e-05
-3.63418e-07
1.80725e-05
-3.35661e-07
1.79236e-05
-3.11254e-07
1.77849e-05
-2.89656e-07
1.76555e-05
-2.70429e-07
1.75344e-05
-2.53213e-07
1.74207e-05
-2.37714e-07
1.73137e-05
-2.23689e-07
1.7213e-05
-2.10939e-07
1.71178e-05
-1.99295e-07
1.70278e-05
-1.88619e-07
1.69426e-05
-1.78792e-07
1.68618e-05
-1.69716e-07
1.6785e-05
-1.61307e-07
1.67119e-05
-1.53492e-07
1.66424e-05
-1.4621e-07
-1.39408e-07
1.52715e-05
-2.79238e-07
1.50938e-05
-2.54138e-07
1.49312e-05
-2.32569e-07
1.47816e-05
-2.13893e-07
1.46436e-05
-1.97605e-07
1.45156e-05
-1.833e-07
1.43966e-05
-1.70651e-07
1.42856e-05
-1.59395e-07
1.41817e-05
-1.49319e-07
1.40842e-05
-1.40247e-07
1.39926e-05
-1.32036e-07
1.39062e-05
-1.24569e-07
1.38246e-05
-1.17747e-07
1.37475e-05
-1.11489e-07
1.36744e-05
-1.05725e-07
1.36051e-05
-1.00399e-07
1.35393e-05
-9.54618e-08
1.34767e-05
-9.08707e-08
1.3417e-05
-8.65903e-08
-8.25899e-08
1.13485e-05
-1.28701e-07
1.12115e-05
-1.17191e-07
1.10863e-05
-1.07314e-07
1.09711e-05
-9.87717e-08
1.08649e-05
-9.13257e-08
1.07664e-05
-8.47871e-08
1.06747e-05
-7.90048e-08
1.05892e-05
-7.38573e-08
1.05091e-05
-6.92461e-08
1.04339e-05
-6.50913e-08
1.03632e-05
-6.13277e-08
1.02966e-05
-5.79014e-08
1.02336e-05
-5.4768e-08
1.0174e-05
-5.18905e-08
1.01175e-05
-4.92379e-08
1.00639e-05
-4.67841e-08
1.00129e-05
-4.45071e-08
9.96445e-06
-4.2388e-08
9.91827e-06
-4.04104e-08
-3.85607e-08
7.06778e-06
-3.33177e-08
6.98098e-06
-3.03815e-08
6.90153e-06
-2.78634e-08
6.82844e-06
-2.56854e-08
6.7609e-06
-2.37862e-08
6.69823e-06
-2.21169e-08
6.63986e-06
-2.0639e-08
6.58533e-06
-1.93215e-08
6.53422e-06
-1.81393e-08
6.4862e-06
-1.70723e-08
6.44098e-06
-1.6104e-08
6.3983e-06
-1.5221e-08
6.35794e-06
-1.4412e-08
6.31972e-06
-1.36676e-08
6.28346e-06
-1.29803e-08
6.24902e-06
-1.23436e-08
6.21627e-06
-1.17518e-08
6.18508e-06
-1.12002e-08
6.15535e-06
-1.06847e-08
-1.0202e-08
2.45917e-06
2.42879e-06
2.40092e-06
2.37524e-06
2.35145e-06
2.32934e-06
2.3087e-06
2.28938e-06
2.27124e-06
2.25416e-06
2.23806e-06
2.22284e-06
2.20843e-06
2.19476e-06
2.18178e-06
2.16943e-06
2.15768e-06
2.14648e-06
2.1358e-06
)
;

boundaryField
{
    fixedWalls
    {
        type            calculated;
        value           uniform 0;
    }
    inlet
    {
        type            calculated;
        value           nonuniform 0();
    }
    outlet
    {
        type            calculated;
        value           nonuniform 0();
    }
    frontAndBack
    {
        type            empty;
        value           nonuniform 0();
    }
    procBoundary5to1
    {
        type            processor;
        value           nonuniform List<scalar> 
20
(
-4.98871e-13
-1.04492e-12
-6.29315e-13
-1.2434e-12
-1.28578e-12
-1.1339e-12
-9.85428e-13
-1.05678e-12
-1.14559e-12
-1.0756e-12
-1.20587e-12
-1.17922e-12
-1.19661e-12
-1.37805e-12
-1.42179e-12
-1.42212e-12
-1.46328e-12
-1.96075e-12
-1.82258e-12
-2.18072e-12
)
;
    }
    procBoundary5to4
    {
        type            processor;
        value           nonuniform List<scalar> 
20
(
-3.11246e-05
-3.11594e-05
-3.12246e-05
-3.13104e-05
-3.14001e-05
-3.14678e-05
-3.14762e-05
-3.1376e-05
-3.11056e-05
-3.05941e-05
-2.97671e-05
-2.85543e-05
-2.68983e-05
-2.4762e-05
-2.21335e-05
-1.90248e-05
-1.54665e-05
-1.1499e-05
-7.16317e-06
-2.49249e-06
)
;
    }
    procBoundary5to6
    {
        type            processor;
        value           nonuniform List<scalar> 
20
(
3.45678e-05
3.45091e-05
3.4384e-05
3.41783e-05
3.38712e-05
3.34371e-05
3.28475e-05
3.20723e-05
3.10824e-05
2.98513e-05
2.8357e-05
2.65833e-05
2.45199e-05
2.21627e-05
1.9513e-05
1.65762e-05
1.33602e-05
9.87424e-06
6.12699e-06
2.1256e-06
)
;
    }
}


// ************************************************************************* //
