/*--------------------------------*- C++ -*----------------------------------*\
| =========                 |                                                 |
| \\      /  F ield         | OpenFOAM: The Open Source CFD Toolbox           |
|  \\    /   O peration     | Version:                                        |
|   \\  /    A nd           | Website:  www.openfoam.com                      |
|    \\/     M anipulation  |                                                 |
\*---------------------------------------------------------------------------*/
FoamFile
{
    version     2.0;
    format      ascii;
    class       volScalarField;
    location    "188.2";
    object      p;
}
// * * * * * * * * * * * * * * * * * * * * * * * * * * * * * * * * * * * * * //

dimensions      [0 2 -2 0 0 0 0];


internalField   nonuniform List<scalar> 
1153
(
-0.824977
-0.820926
-0.83926
-0.833036
-0.82338
-0.77883
-0.717432
-0.655434
-0.598727
-0.54813
-0.832401
-0.823636
-0.802432
-0.834535
-0.810559
-0.757696
-0.694733
-0.632462
-0.575358
-0.524071
-0.477362
-0.434084
-0.835122
-0.846228
-0.804019
-0.811629
-0.7856
-0.732221
-0.670968
-0.611397
-0.556099
-0.505244
-0.458825
-0.416448
-0.376463
-0.339047
-0.835729
-0.814833
-0.834129
-0.804534
-0.76042
-0.705966
-0.64755
-0.590717
-0.537984
-0.48964
-0.445081
-0.40366
-0.365491
-0.329703
-0.296057
-0.264508
-0.235116
-0.891402
-0.816614
-0.840267
-0.801155
-0.743317
-0.684387
-0.627036
-0.572497
-0.521533
-0.474623
-0.431749
-0.392219
-0.355637
-0.321918
-0.290487
-0.260964
-0.233439
-0.207223
-0.183152
-0.160018
-0.940183
-0.902604
-0.847372
-0.787253
-0.724232
-0.66406
-0.60796
-0.555736
-0.506883
-0.461212
-0.419123
-0.380739
-0.344922
-0.311828
-0.281579
-0.253692
-0.227798
-0.204215
-0.18238
-0.161741
-0.919975
-0.937379
-0.851834
-0.771936
-0.703789
-0.643584
-0.588738
-0.538366
-0.49182
-0.448359
-0.407744
-0.370186
-0.336067
-0.304354
-0.274951
-0.247853
-0.222736
-0.19904
-0.177307
-0.157192
-0.828532
-0.872287
-0.828029
-0.753181
-0.685032
-0.624877
-0.570351
-0.519982
-0.473794
-0.431683
-0.392943
-0.357082
-0.323917
-0.293696
-0.265818
-0.24029
-0.217048
-0.19553
-0.175098
-0.154946
-0.805199
-0.821512
-0.797624
-0.734972
-0.668325
-0.606823
-0.551394
-0.501096
-0.454841
-0.412515
-0.374179
-0.339364
-0.307423
-0.278283
-0.251806
-0.227522
-0.205504
-0.185477
-0.166941
-0.149515
-0.855141
-0.824724
-0.779662
-0.716323
-0.649608
-0.586441
-0.52939
-0.478563
-0.433021
-0.391807
-0.35443
-0.320643
-0.290178
-0.262351
-0.237125
-0.214279
-0.193343
-0.174015
-0.155923
-0.139555
-1.02242
-1.01144
-1.03435
-0.970725
-0.974427
-0.998982
-1.02273
-0.949075
-0.956041
-0.95993
-0.958447
-0.964222
-0.958192
-0.923612
-0.889146
-0.957092
-0.941051
-0.890315
-0.826351
-0.91944
-0.907668
-0.860647
-0.787058
-0.725266
-0.877139
-0.873601
-0.837928
-0.7715
-0.712464
-0.674489
-0.840534
-0.842907
-0.823336
-0.78094
-0.736105
-0.713055
-0.699978
-0.821697
-0.823833
-0.817691
-0.808753
-0.782533
-0.759373
-0.726647
-0.69004
-0.821906
-0.824353
-0.824973
-0.819754
-0.819702
-0.784055
-0.731269
-0.676639
-0.625968
-0.124946
-0.130645
-0.133166
-0.135207
-0.138166
-0.109042
-0.110802
-0.111537
-0.111259
-0.113626
-0.0932416
-0.0929844
-0.0925624
-0.0912329
-0.0936545
-0.0795127
-0.0780969
-0.0770734
-0.0756432
-0.0772745
-0.0670593
-0.0646948
-0.0631116
-0.0617185
-0.0621896
-0.0616878
-0.0558885
-0.0529099
-0.0507802
-0.0494235
-0.0490622
-0.0487658
-0.0456783
-0.0424761
-0.0399152
-0.038713
-0.0379746
-0.0379313
-0.036397
-0.0332119
-0.0305488
-0.0295317
-0.0287718
-0.0288183
-0.0281651
-0.0251852
-0.0225858
-0.0216053
-0.0208474
-0.0206765
-0.0208497
-0.018085
-0.015613
-0.0145894
-0.0139029
-0.0135904
-0.0143622
-0.0118018
-0.00954768
-0.00851834
-0.00800115
-0.007703
-0.0086241
-0.00627112
-0.00429444
-0.00330552
-0.00288995
-0.00260299
-0.00356521
-0.00141174
0.000307403
0.00125097
0.00164089
0.00193799
0.000894438
0.00283813
0.00435724
0.00521325
0.00554714
0.0058124
0.00478492
0.00651638
0.0078802
0.00864186
0.00895569
0.00916595
0.00819643
0.00971205
0.0109408
0.0116375
0.0118977
0.012036
0.0112345
0.0125094
0.0136166
0.0142768
0.0145737
0.0147761
0.013971
0.0150191
0.0159692
0.0165528
0.0167761
0.016822
0.0164101
0.0172267
0.017952
0.0183801
0.0185202
0.0185874
0.0185755
0.019237
0.019818
0.0201907
0.0203841
0.0205415
0.0205123
0.0210671
0.0215209
0.0217695
0.0218366
0.0218352
0.0221484
0.0225833
0.0229104
0.0230487
0.0230467
0.0230322
0.0235396
0.023883
0.0241477
0.0242598
0.0242544
0.0242262
0.0247377
0.0249956
0.025197
0.0252686
0.0252261
0.0251475
0.0257284
0.025892
0.0260204
0.0260564
0.026008
0.0259355
0.0265455
0.0266304
0.0267019
0.0267163
0.0266693
0.0265951
0.0272137
0.0272241
0.0272344
0.0272131
0.0271536
0.0270775
0.0276725
0.0276257
0.0275888
0.0275436
0.0274843
0.0274209
0.0279134
0.027858
0.0278058
0.027749
0.0276852
0.0276188
0.028047
0.0279908
0.0279328
0.0278728
0.0278121
0.0277539
0.00893416
0.0108064
0.0122643
0.012892
0.0117929
0.0085783
0.00343128
-0.00340105
-0.0119184
-0.0223754
-0.0354092
-0.0518229
-0.0725848
-0.0987784
-0.131843
-0.17362
-0.227226
-0.295124
-0.379622
-0.521019
-0.0111689
-0.00968901
-0.0103977
-0.0130667
-0.0172781
-0.0234826
-0.031947
-0.0424623
-0.0547729
-0.0691805
-0.0864963
-0.107585
-0.133584
-0.165697
-0.205809
-0.25574
-0.318226
-0.39593
-0.488892
-0.650255
-0.0249335
-0.0264871
-0.0313823
-0.0381903
-0.0462309
-0.0551888
-0.0657771
-0.0786737
-0.0942277
-0.112594
-0.134259
-0.160128
-0.191316
-0.228947
-0.274809
-0.331574
-0.40267
-0.489318
-0.588768
-0.765979
-0.0392304
-0.0433059
-0.0515546
-0.0622187
-0.0738126
-0.0861577
-0.0994491
-0.114552
-0.132258
-0.153361
-0.178455
-0.208092
-0.243374
-0.285737
-0.336808
-0.398887
-0.476647
-0.573279
-0.677766
-0.862418
-0.0569255
-0.062272
-0.0719585
-0.0847087
-0.0986472
-0.11339
-0.129496
-0.147485
-0.168012
-0.191839
-0.219823
-0.252788
-0.29154
-0.33736
-0.392018
-0.457493
-0.538398
-0.643691
-0.752701
-0.937463
-0.074877
-0.0818932
-0.0928044
-0.106337
-0.121532
-0.13784
-0.155616
-0.175868
-0.199032
-0.225531
-0.256126
-0.291683
-0.33326
-0.382193
-0.440013
-0.508116
-0.589109
-0.698428
-0.812373
-0.985863
-0.092462
-0.10169
-0.114293
-0.128637
-0.144386
-0.161857
-0.18121
-0.202988
-0.227898
-0.256401
-0.288946
-0.326333
-0.369538
-0.419831
-0.479171
-0.548815
-0.63046
-0.735814
-0.852198
-1.00864
-0.106465
-0.117879
-0.1323
-0.147912
-0.164554
-0.182764
-0.203612
-0.22738
-0.254217
-0.284427
-0.318758
-0.357878
-0.402402
-0.453424
-0.512628
-0.58131
-0.660735
-0.758655
-0.868812
-1.0037
-0.119883
-0.132555
-0.147895
-0.164528
-0.182598
-0.202251
-0.223927
-0.248724
-0.276905
-0.308498
-0.343834
-0.384
-0.42996
-0.482039
-0.541052
-0.607819
-0.682918
-0.76967
-0.865269
-0.973114
-0.131899
-0.14648
-0.162917
-0.180394
-0.199437
-0.220628
-0.244064
-0.269981
-0.299217
-0.331835
-0.368136
-0.408607
-0.454302
-0.506216
-0.564861
-0.62994
-0.700215
-0.773774
-0.845672
-0.919259
0.217258
0.22994
0.244155
0.259866
0.276984
0.295433
0.315172
0.336174
0.358433
0.381823
0.406206
0.431176
0.456005
0.479753
0.501253
0.51785
0.527487
0.208969
0.221054
0.234889
0.250181
0.266663
0.284196
0.302799
0.322487
0.343251
0.365008
0.387469
0.410323
0.432958
0.454012
0.471894
0.484021
0.489339
0.196963
0.208171
0.221252
0.23568
0.251066
0.267242
0.284258
0.302146
0.320823
0.340109
0.359713
0.379092
0.397599
0.414236
0.427238
0.433255
0.431674
0.173761
0.181507
0.191618
0.203609
0.216728
0.23046
0.24465
0.259357
0.274725
0.290736
0.306955
0.32292
0.337935
0.351327
0.361821
0.36798
0.365828
0.35439
0.15647
0.16288
0.171778
0.182457
0.194056
0.205929
0.217837
0.229752
0.241681
0.253736
0.265796
0.277405
0.287613
0.295264
0.298637
0.296108
0.283842
0.259627
0.134255
0.136192
0.141052
0.148511
0.15757
0.167285
0.17701
0.186445
0.195556
0.204301
0.212438
0.219614
0.225421
0.229204
0.229826
0.225344
0.213627
0.189429
0.147731
0.116588
0.113723
0.113921
0.117383
0.123408
0.130629
0.137927
0.144683
0.150642
0.155919
0.160692
0.164693
0.167191
0.167279
0.164133
0.156729
0.143007
0.120462
0.083961
0.0251647
0.0957183
0.0899731
0.0887275
0.091453
0.0964647
0.101925
0.106759
0.110464
0.112977
0.114395
0.114701
0.11366
0.110687
0.104712
0.0943526
0.078272
0.0545506
0.0208916
-0.0283867
-0.107689
0.0728605
0.064707
0.06238
0.0644057
0.0680588
0.0714588
0.073507
0.0739619
0.0728437
0.0702036
0.0658997
0.059574
0.0506279
0.0380566
0.0204173
-0.00400698
-0.0376758
-0.0832359
-0.145331
-0.244887
0.0440144
0.0371911
0.0365723
0.0380985
0.0395564
0.0399184
0.0386187
0.0355605
0.0308462
0.024334
0.0156272
0.00418012
-0.0108026
-0.0303457
-0.0558223
-0.0890805
-0.132504
-0.189037
-0.263102
-0.384879
0.101926
0.0840636
0.0708442
0.0587644
0.0514472
0.0333508
0.0399456
0.0257238
0.0327665
0.0200867
0.02695
0.0151554
0.0221065
0.0109984
0.0182406
0.00786441
0.0152861
0.0056955
0.0130701
0.00434758
0.0114469
0.00369155
0.0104785
0.00367746
0.0101926
0.00418486
0.0104283
0.00514046
0.0110883
0.00648916
0.0120213
0.00806432
0.0131696
0.00977832
0.0145458
0.0116064
0.016113
0.013541
0.0177845
0.0155586
0.0194495
0.0175799
0.0210189
0.0195099
0.022471
0.0212936
0.023806
0.0229089
0.0250263
0.0243573
0.0261381
0.0256461
0.0271505
0.0267953
0.0280427
0.0278046
0.0287489
0.0285951
0.0291724
0.0290476
0.030155
0.0298234
0.0302557
0.0299139
0.0083051
-0.0140121
-0.027071
-0.0390898
-0.055263
-0.0710908
-0.0865156
-0.0985756
-0.110477
-0.119639
0.00712592
-0.0153574
-0.0303292
-0.0399114
-0.0534805
-0.0670701
-0.0807442
-0.0905018
-0.0998204
-0.106542
0.00393429
-0.01643
-0.0315212
-0.0393127
-0.0500267
-0.0609776
-0.0729544
-0.0810549
-0.0881387
-0.0925534
0.000795863
-0.0170426
-0.0309709
-0.0382621
-0.0467423
-0.0555494
-0.0656338
-0.0724506
-0.0774443
-0.0804821
-0.0019062
-0.0175699
-0.0298725
-0.0366011
-0.0430637
-0.0499904
-0.0577273
-0.0634563
-0.066715
-0.0687894
-0.00393001
-0.017721
-0.0280851
-0.0338806
-0.0386851
-0.0441487
-0.0498615
-0.0546325
-0.0566903
-0.0578916
-0.0052468
-0.0174221
-0.0258555
-0.0305557
-0.0341218
-0.0384075
-0.0425338
-0.0462776
-0.0474456
-0.0478019
-0.00579703
-0.0165876
-0.0232462
-0.0267967
-0.0292986
-0.0325755
-0.0355076
-0.0382521
-0.0388283
-0.0385424
-0.0055655
-0.0151425
-0.0203541
-0.022742
-0.0243652
-0.026796
-0.0288942
-0.0307984
-0.0310002
-0.0303023
-0.00464067
-0.0131212
-0.0171983
-0.0185508
-0.0194284
-0.0211366
-0.0226709
-0.0239315
-0.0238947
-0.0229419
-0.00320229
-0.0106122
-0.0138149
-0.0143552
-0.014603
-0.0157107
-0.0168398
-0.0176737
-0.017471
-0.0163927
-0.0013332
-0.00774511
-0.0102786
-0.0102524
-0.00999723
-0.0106024
-0.011426
-0.0119789
-0.011683
-0.0105578
0.000852411
-0.00468237
-0.00671568
-0.00632367
-0.00566783
-0.00585857
-0.00641934
-0.00680018
-0.00647535
-0.00535793
0.00322379
-0.0015121
-0.00319275
-0.00259419
-0.0016525
-0.0014856
-0.00181951
-0.00209399
-0.00179409
-0.000745778
0.00568539
0.00168278
0.000251924
0.000904223
0.00201719
0.00249319
0.00238542
0.00219818
0.00243103
0.00334058
0.0081492
0.00480752
0.00358438
0.00418924
0.00535809
0.0060683
0.00619052
0.00609829
0.00625227
0.00697305
0.0105912
0.00780304
0.00676963
0.00728983
0.00840477
0.00924046
0.00956337
0.00958596
0.00970346
0.0102433
0.0130186
0.0106547
0.00977384
0.0102106
0.0112143
0.0120697
0.0125131
0.0126438
0.012769
0.0131831
0.0154049
0.0133693
0.012582
0.0129355
0.0138141
0.0146197
0.0150992
0.0152965
0.0154432
0.0157872
0.0176985
0.0159517
0.0152071
0.015456
0.0162045
0.0169354
0.0173984
0.0176084
0.0177559
0.0180571
0.0198386
0.018374
0.0176587
0.0177803
0.0183812
0.019022
0.0194462
0.0196446
0.0197817
0.0200542
0.0217848
0.0206012
0.0199337
0.0199275
0.0203635
0.0208932
0.021267
0.0214447
0.0215568
0.0217765
0.023522
0.0226045
0.0220119
0.0219032
0.0221722
0.022568
0.0228722
0.0230182
0.0230977
0.0232547
0.0250441
0.0243586
0.0238592
0.0236877
0.0238109
0.0240666
0.0242831
0.0243866
0.0244333
0.0245339
0.0263749
0.0258788
0.0254736
0.02527
0.0252741
0.025394
0.0255109
0.0255593
0.0255669
0.02561
0.027537
0.0272037
0.026892
0.026679
0.0265884
0.0265798
0.0265846
0.0265586
0.026515
0.0265013
0.0284441
0.0282498
0.0280402
0.0278563
0.0277198
0.0276197
0.0275261
0.02742
0.0273138
0.0272395
0.0289435
0.0288155
0.0286714
0.0285287
0.028397
0.0282722
0.0281422
0.0280021
0.0278639
0.0277499
0.0294637
0.0291194
0.0288368
0.0286241
0.0284699
0.0283532
0.0282527
0.0281562
0.0280633
0.027981
0.0295469
0.0291966
0.0289041
0.0286761
0.0285074
0.0283858
0.0282956
0.0282238
0.0281612
0.0281032
)
;

boundaryField
{
    outlet
    {
        type            fixedValue;
        value           nonuniform 0();
    }
    upperWall
    {
        type            symmetryPlane;
    }
    lowerWall
    {
        type            symmetryPlane;
    }
    inlet
    {
        type            zeroGradient;
    }
    cylinder
    {
        type            zeroGradient;
    }
    frontAndBack
    {
        type            empty;
    }
    procBoundary5to1
    {
        type            processor;
        value           nonuniform List<scalar> 
20
(
-1.05125
-1.01953
-1.04104
0.221657
0.234445
0.248637
0.264362
0.281685
0.300537
0.320806
0.342375
0.36516
0.389118
0.414149
0.439945
0.466025
0.491474
0.514968
0.533321
0.544599
)
;
    }
    procBoundary5to4
    {
        type            processor;
        value           nonuniform List<scalar> 
45
(
0.206027
0.198691
0.187897
0.187897
0.168147
0.152575
0.152575
0.134772
0.134772
0.118912
0.118912
0.103957
0.0887849
0.0887849
0.076333
0.0630421
0.0518192
0.0437737
0.0371895
0.0316451
0.0270478
0.0231641
0.0200282
0.0176834
0.0161207
0.0153301
0.0150432
0.0151245
0.0155384
0.0162644
0.0172962
0.0185253
0.0198193
0.021093
0.022307
0.0234694
0.0245827
0.0256327
0.0266117
0.0275159
0.028313
0.0289518
0.0293548
0.0304506
0.0305616
)
;
    }
    procBoundary5to6
    {
        type            processor;
        value           nonuniform List<scalar> 
63
(
-0.502017
-0.578878
-0.502017
-0.458178
-0.393504
-0.393504
-0.354794
-0.303925
-0.303925
-0.271346
-0.240536
-0.207857
-0.207857
-0.182547
-0.160998
-0.135035
-1.06867
-1.06867
-1.05486
-0.966023
-0.866409
-0.777269
-0.777269
-0.682525
-0.682525
-0.676774
-0.676774
-0.691592
-0.691592
-0.652672
-0.652672
-0.578878
-0.135035
-0.110139
-0.0909558
-0.0760406
-0.0760406
-0.0597493
-0.0467184
-0.0364544
-0.0276552
-0.0196623
-0.012908
-0.00731436
-0.0022723
0.00219938
0.00600135
0.00929817
0.0121711
0.0149543
0.0167745
0.0187128
0.0206718
0.0218148
0.0230759
0.0242276
0.0250982
0.0258912
0.0265296
0.0270118
0.0273659
0.0275559
0.0277007
)
;
    }
}


// ************************************************************************* //
