/*--------------------------------*- C++ -*----------------------------------*\
| =========                 |                                                 |
| \\      /  F ield         | OpenFOAM: The Open Source CFD Toolbox           |
|  \\    /   O peration     | Version:                                        |
|   \\  /    A nd           | Website:  www.openfoam.com                      |
|    \\/     M anipulation  |                                                 |
\*---------------------------------------------------------------------------*/
FoamFile
{
    version     2.0;
    format      ascii;
    class       volVectorField;
    location    "53.5";
    object      U;
}
// * * * * * * * * * * * * * * * * * * * * * * * * * * * * * * * * * * * * * //

dimensions      [0 1 -1 0 0 0 0];


internalField   nonuniform List<vector> 
1164
(
(1.16682 -0.84026 1.81012e-22)
(1.07096 -0.820945 -6.37435e-21)
(0.987969 -0.829771 1.33258e-20)
(0.906652 -0.769813 -9.79021e-21)
(0.786911 -0.711951 2.07323e-20)
(0.681683 -0.613134 1.26154e-19)
(1.15554 -0.797143 -8.27872e-22)
(1.07003 -0.781275 1.43951e-20)
(1.0379 -0.747593 -1.11342e-20)
(0.966831 -0.722989 -2.30974e-20)
(0.938827 -0.654883 -1.32526e-20)
(0.837238 -0.59322 -2.76151e-20)
(0.760382 -0.502422 1.71301e-20)
(0.675881 -0.422609 -8.20008e-21)
(0.688693 -0.363133 4.9921e-20)
(0.639138 -0.295518 -4.38139e-20)
(1.19889 -0.822411 1.81272e-21)
(1.17213 -0.772562 -4.58258e-21)
(1.10778 -0.725418 3.05571e-21)
(1.07488 -0.659412 4.33667e-21)
(1.05857 -0.612388 -7.64287e-22)
(0.977047 -0.555609 -5.27975e-20)
(0.942542 -0.488503 -3.21873e-20)
(0.838442 -0.4038 -1.17155e-20)
(0.828093 -0.348743 -2.08899e-20)
(0.791567 -0.287546 3.42514e-20)
(1.29565 -0.933012 2.29022e-22)
(1.25277 -0.873015 2.92311e-21)
(1.23829 -0.820741 -2.06067e-21)
(1.18135 -0.745735 8.81209e-21)
(1.12772 -0.685437 2.37589e-20)
(1.09212 -0.622434 5.44927e-20)
(1.03891 -0.56017 1.35395e-20)
(0.971113 -0.481621 9.42418e-21)
(0.938073 -0.41995 -2.7228e-20)
(0.898442 -0.343582 -2.00653e-20)
(1.34865 -0.933935 -2.75602e-21)
(1.3419 -0.952202 -4.02991e-22)
(1.33503 -0.879168 -1.2374e-20)
(1.26279 -0.87552 -3.33585e-21)
(1.25262 -0.776124 -9.75533e-21)
(1.17385 -0.754687 -3.08055e-20)
(1.14433 -0.655473 1.07375e-20)
(1.08718 -0.610975 -3.02223e-21)
(1.04372 -0.52923 5.203e-21)
(0.983489 -0.458438 -2.07263e-20)
(1.32328 -0.756511 1.4178e-21)
(1.38117 -0.822902 -1.02048e-20)
(1.35601 -0.808033 -2.12789e-21)
(1.37173 -0.800257 1.72625e-21)
(1.33075 -0.812176 -1.35647e-20)
(1.2833 -0.759586 -1.41418e-21)
(1.26742 -0.752471 1.35847e-20)
(1.182 -0.676107 1.70822e-20)
(1.17651 -0.653604 -1.29434e-21)
(1.09217 -0.569268 -7.63309e-21)
(1.26859 -0.451246 -7.8137e-22)
(1.30534 -0.471735 1.2151e-20)
(1.35972 -0.583538 2.7056e-20)
(1.32023 -0.546897 -1.65743e-20)
(1.35337 -0.675513 3.6206e-21)
(1.34225 -0.651725 -2.5985e-21)
(1.30301 -0.709633 -1.50806e-20)
(1.28774 -0.671428 1.63528e-21)
(1.25095 -0.721467 1.98548e-20)
(1.19424 -0.652427 1.76729e-20)
(1.14521 -0.0461246 2.551e-21)
(1.17956 -0.0567131 -2.66266e-22)
(1.25806 -0.210483 -1.6133e-21)
(1.20401 -0.223494 6.86793e-21)
(1.2891 -0.340178 8.33907e-21)
(1.25256 -0.430211 1.0347e-20)
(1.27968 -0.451545 -9.5271e-21)
(1.2472 -0.5825 1.5713e-20)
(1.2319 -0.578082 -1.00331e-20)
(1.21816 -0.661166 -6.57815e-21)
(0.965134 0.411174 -1.6905e-21)
(1.03952 0.352306 -7.67921e-21)
(1.07686 0.220768 -1.00124e-21)
(1.11911 0.186619 2.10351e-21)
(1.15174 0.0383126 1.09694e-20)
(1.14607 -0.0209494 5.61643e-21)
(1.17492 -0.127909 1.24369e-20)
(1.14286 -0.226167 -1.04335e-20)
(1.18321 -0.273846 4.95365e-22)
(1.14375 -0.413604 7.51382e-21)
(0.772325 0.696154 -3.73748e-22)
(0.846727 0.705091 2.99434e-21)
(0.888979 0.553085 -8.22174e-21)
(0.963 0.567469 8.99448e-21)
(1.02852 0.382313 -1.5759e-20)
(1.0522 0.387086 -8.19973e-21)
(1.0932 0.229663 9.30822e-21)
(1.1039 0.195248 -2.25413e-22)
(1.11859 0.103284 1.26405e-20)
(1.13075 0.00263109 -2.7282e-21)
(0.674622 0.799947 5.19272e-22)
(0.710907 0.793436 6.94173e-22)
(0.768692 0.734837 -4.917e-21)
(0.79913 0.695734 5.45026e-22)
(0.856345 0.641319 1.17694e-20)
(0.903586 0.576577 -2.43438e-21)
(0.968132 0.519747 -6.05121e-21)
(1.0293 0.433926 -8.38762e-21)
(1.04849 0.394349 -4.60319e-21)
(1.10098 0.29428 1.46915e-20)
(0.549403 0.832974 -3.87565e-22)
(0.596314 0.726954 2.47132e-21)
(0.662612 0.755212 1.05789e-21)
(0.720453 0.652713 -7.96299e-21)
(0.764381 0.678502 -7.58947e-22)
(0.796897 0.593951 7.54554e-22)
(0.826795 0.607989 1.8446e-21)
(0.87521 0.527977 9.61411e-22)
(0.91856 0.523684 2.21901e-21)
(0.984318 0.439497 -4.35285e-21)
(0.439333 0.731971 4.09429e-22)
(0.480096 0.65997 -1.00912e-21)
(0.525729 0.672426 2.83322e-22)
(0.579992 0.599307 3.89215e-21)
(0.647397 0.59757 -6.47621e-22)
(0.709628 0.533019 2.2269e-21)
(0.764336 0.533602 -3.34281e-22)
(0.801584 0.494175 1.59601e-21)
(0.828023 0.502474 7.77046e-22)
(0.870345 0.469627 -2.17523e-21)
(0.359793 0.539927 -3.07495e-22)
(0.405597 0.512857 7.17871e-22)
(0.449726 0.516736 3.56191e-22)
(0.477148 0.488852 -3.00449e-23)
(0.517235 0.482415 3.08854e-22)
(0.56514 0.442539 -8.12023e-22)
(0.633111 0.422985 -1.37509e-21)
(0.70407 0.389324 2.51198e-21)
(0.766656 0.380884 7.98369e-22)
(0.817997 0.368976 -3.7146e-21)
(0.320616 0.309063 2.0745e-22)
(0.364329 0.303199 -6.13923e-22)
(0.412384 0.310865 -1.76143e-22)
(0.434611 0.304342 -4.41495e-23)
(0.452461 0.311039 -7.6869e-22)
(0.467159 0.297577 7.86051e-22)
(0.502311 0.291181 -5.08698e-22)
(0.554579 0.267108 -2.80557e-21)
(0.623457 0.250095 3.91308e-21)
(0.698306 0.226195 -1.93157e-21)
(0.32883 0.0969049 7.93311e-24)
(0.370619 0.110025 -3.53736e-23)
(0.415118 0.121573 -9.60499e-22)
(0.434154 0.125161 1.23943e-22)
(0.445261 0.13812 3.19998e-23)
(0.44044 0.139078 -2.14105e-22)
(0.453659 0.150043 2.20773e-21)
(0.479286 0.147528 -2.49649e-21)
(0.529369 0.14856 -3.44967e-21)
(0.590462 0.135077 5.4114e-21)
(0.386282 -0.0665094 7.31348e-23)
(0.414452 -0.0425124 5.55026e-25)
(0.436161 -0.0369098 1.00841e-21)
(0.443438 -0.0255571 -2.36767e-22)
(0.451907 -0.0125235 2.89105e-22)
(0.450956 0.00381587 -8.16883e-22)
(0.467154 0.0285889 -1.62468e-22)
(0.490386 0.048928 1.67158e-21)
(0.531657 0.072136 -7.06527e-22)
(0.580946 0.085746 1.61145e-21)
(0.445241 -0.181483 -8.21781e-23)
(0.448738 -0.159702 -2.64725e-22)
(0.456173 -0.155904 -1.80703e-22)
(0.478507 -0.132773 7.89535e-23)
(0.502865 -0.121548 2.33213e-22)
(0.527677 -0.0911163 1.00097e-21)
(0.55474 -0.0651335 1.20725e-21)
(0.58089 -0.0305502 8.45355e-22)
(0.618328 -0.000290132 6.43581e-22)
(0.653505 0.0322141 1.79176e-21)
(0.489466 -0.271418 -1.58573e-22)
(0.500334 -0.258592 8.03423e-22)
(0.512743 -0.243811 1.47944e-23)
(0.54363 -0.220799 2.93178e-22)
(0.569042 -0.209093 1.03277e-22)
(0.605776 -0.181717 -6.49077e-22)
(0.634786 -0.171361 -1.38139e-21)
(0.664762 -0.143116 -2.18732e-22)
(0.692197 -0.130784 1.08315e-21)
(0.72146 -0.102472 -7.64999e-22)
(0.533851 -0.304825 1.10131e-22)
(0.555689 -0.301963 -3.08369e-22)
(0.577171 -0.287057 -9.27608e-22)
(0.605345 -0.29306 -6.59866e-22)
(0.620551 -0.288825 3.98037e-22)
(0.639361 -0.29587 6.28766e-22)
(0.648191 -0.300043 -1.31289e-21)
(0.670045 -0.303215 -3.26899e-22)
(0.68033 -0.31044 -2.28732e-22)
(0.709742 -0.307218 -2.52572e-22)
(0.570234 -0.329391 7.636e-23)
(0.563235 -0.340585 -1.25243e-22)
(0.551941 -0.343103 1.15284e-21)
(0.547032 -0.367568 1.92627e-21)
(0.545482 -0.373533 -1.02013e-21)
(0.552479 -0.404599 7.27125e-22)
(0.561254 -0.410708 1.01872e-21)
(0.580704 -0.441715 3.86609e-21)
(0.594248 -0.447536 -6.27371e-22)
(0.623803 -0.473517 3.40462e-22)
(0.516827 -0.32865 3.36376e-23)
(0.505188 -0.344178 -4.49503e-23)
(0.496986 -0.353837 -6.42903e-22)
(0.4939 -0.367737 -3.19929e-21)
(0.495268 -0.373373 2.71404e-21)
(0.502004 -0.391284 -2.01426e-21)
(0.512156 -0.396539 -2.02781e-21)
(0.526684 -0.419403 -3.27801e-21)
(0.542117 -0.422229 -1.46792e-21)
(0.562712 -0.451566 2.1721e-21)
(0.480036 -0.264375 1.70006e-22)
(0.476912 -0.265058 -3.65064e-22)
(0.481275 -0.259365 -3.05609e-22)
(0.485493 -0.254225 3.87911e-21)
(0.490671 -0.248654 -2.30518e-21)
(0.499339 -0.246002 1.13259e-21)
(0.511876 -0.242105 2.60547e-21)
(0.526498 -0.2417 -1.09102e-21)
(0.542844 -0.240566 -9.5568e-22)
(0.563494 -0.246105 -8.5306e-21)
(0.532181 -0.14393 -1.05064e-23)
(0.545737 -0.127971 3.58968e-23)
(0.554515 -0.108551 -8.67129e-22)
(0.560255 -0.0918124 -2.35709e-22)
(0.569344 -0.0759409 -8.42824e-22)
(0.581601 -0.0609253 -3.02367e-21)
(0.595183 -0.0467777 2.30083e-21)
(0.607345 -0.033256 4.63951e-23)
(0.621677 -0.0238907 5.18814e-21)
(0.639849 -0.011656 8.51822e-21)
(0.622195 -0.00307324 5.70407e-24)
(0.637933 0.0150658 -5.41831e-22)
(0.641564 0.0348673 7.74226e-22)
(0.642989 0.0554071 -9.25728e-22)
(0.651448 0.0762059 1.63735e-21)
(0.665631 0.0951698 2.75208e-21)
(0.679226 0.11305 -3.47384e-21)
(0.690597 0.13026 -5.57366e-22)
(0.704261 0.147131 -1.63617e-21)
(0.722598 0.164075 -4.84834e-21)
(0.694729 0.0680811 -1.6914e-24)
(0.710153 0.0863761 1.97815e-22)
(0.732339 0.102725 1.14153e-22)
(0.748176 0.120001 8.67737e-24)
(0.75399 0.138323 3.84166e-22)
(0.760523 0.155279 -1.14277e-21)
(0.770138 0.170963 3.53895e-22)
(0.782266 0.185765 -8.69976e-22)
(0.794962 0.201278 2.22053e-22)
(0.807333 0.215971 4.03677e-22)
(0.800501 0.130681 3.42509e-23)
(0.794186 0.145338 -1.14213e-22)
(0.794932 0.157517 -2.40004e-24)
(0.80577 0.168284 -3.68586e-22)
(0.813277 0.179368 6.71175e-22)
(0.817915 0.190693 1.43684e-22)
(0.821641 0.201696 9.06807e-22)
(0.828879 0.21202 1.9329e-22)
(0.842827 0.221608 3.01364e-22)
(0.859063 0.229689 1.2084e-21)
(0.826234 0.124952 -5.3763e-23)
(0.836192 0.131343 4.09724e-24)
(0.842631 0.138364 2.11982e-22)
(0.851371 0.145501 2.10964e-23)
(0.860178 0.152448 1.75382e-22)
(0.867699 0.159765 -5.64924e-22)
(0.872041 0.167334 -1.13056e-22)
(0.873952 0.175241 1.30859e-22)
(0.879691 0.182476 6.02099e-24)
(0.891267 0.187418 -1.31017e-22)
(0.857388 0.143416 -9.57924e-24)
(0.859095 0.148762 -1.85009e-23)
(0.865017 0.153434 -3.00306e-23)
(0.873529 0.157988 1.5293e-22)
(0.881828 0.161974 -1.17638e-22)
(0.889651 0.165747 1.26512e-22)
(0.895502 0.169164 -2.02254e-22)
(0.89808 0.173021 1.04772e-22)
(0.900019 0.177092 -4.92631e-23)
(0.904824 0.179589 1.04626e-22)
(0.887558 0.104554 3.34617e-24)
(0.888335 0.107663 -8.67516e-24)
(0.89052 0.110378 1.97208e-24)
(0.894783 0.1128 2.09365e-23)
(0.899583 0.114774 -3.46529e-23)
(0.90454 0.116564 3.47443e-23)
(0.90891 0.117994 -4.75895e-23)
(0.912113 0.119463 6.4959e-23)
(0.914287 0.121163 9.8154e-24)
(0.916669 0.122544 -4.1045e-23)
(0.790929 -0.0989284 0)
(0.890963 -0.0571782 0)
(0.89896 -0.0106744 0)
(0.827205 0.0221248 0)
(0.770503 0.0132632 0)
(0.799746 -0.018223 0)
(0.8527 -0.0335458 0)
(0.883603 -0.0388259 0)
(0.904729 -0.0436739 0)
(0.927423 -0.0480904 0)
(0.949918 -0.0517024 0)
(0.969731 -0.0507035 0)
(0.987039 -0.0478241 0)
(1.00079 -0.0436401 0)
(1.01155 -0.0392568 0)
(1.0196 -0.03505 0)
(1.02549 -0.0311505 0)
(1.02966 -0.0276385 0)
(1.03246 -0.0244702 0)
(1.03419 -0.0216052 0)
(1.03513 -0.0189761 0)
(1.03547 -0.0164998 0)
(1.03539 -0.0141022 0)
(1.03504 -0.011724 0)
(1.03454 -0.00929891 0)
(1.03401 -0.00680142 0)
(1.03356 -0.00418552 0)
(1.03329 -0.00141551 0)
(0.822233 -0.249081 0)
(0.836764 -0.197562 0)
(0.879168 -0.153348 0)
(0.92199 -0.12752 0)
(0.925888 -0.109997 0)
(0.851418 -0.115731 0)
(0.78511 -0.0956418 0)
(0.793741 -0.0695516 0)
(0.84004 -0.0699752 0)
(0.879305 -0.0774432 0)
(0.90375 -0.0799831 0)
(0.927687 -0.0806895 0)
(0.951417 -0.07596 0)
(0.97444 -0.069572 0)
(0.992501 -0.0621474 0)
(1.00601 -0.0542734 0)
(1.01605 -0.0470619 0)
(1.02335 -0.0405951 0)
(1.0286 -0.0350182 0)
(1.03224 -0.030271 0)
(1.03463 -0.0262528 0)
(1.03607 -0.0228107 0)
(1.0368 -0.0197872 0)
(1.037 -0.0170478 0)
(1.03684 -0.0144701 0)
(1.03644 -0.0119675 0)
(1.03592 -0.00945658 0)
(1.03538 -0.00689758 0)
(1.03493 -0.00423833 0)
(1.03466 -0.00143125 0)
(0.903589 -0.318596 0)
(0.92097 -0.266407 0)
(0.938924 -0.249387 0)
(0.971422 -0.214758 0)
(0.934899 -0.19628 0)
(0.854509 -0.181276 0)
(0.825537 -0.11631 0)
(0.826603 -0.08324 0)
(0.836348 -0.0856771 0)
(0.861561 -0.104028 0)
(0.896523 -0.119406 0)
(0.930811 -0.118964 0)
(0.96086 -0.106813 0)
(0.985137 -0.0923172 0)
(1.00237 -0.0773654 0)
(1.01473 -0.0646314 0)
(1.02315 -0.0540429 0)
(1.02897 -0.0453526 0)
(1.03293 -0.038295 0)
(1.03553 -0.0325536 0)
(1.03712 -0.0278447 0)
(1.03796 -0.0239195 0)
(1.03826 -0.0205695 0)
(1.03816 -0.0176043 0)
(1.03778 -0.0148678 0)
(1.03722 -0.0122512 0)
(1.0366 -0.00965467 0)
(1.03599 -0.00702796 0)
(1.03548 -0.00431256 0)
(1.03519 -0.00145253 0)
(0.992633 -0.412256 0)
(0.985888 -0.382002 0)
(0.986804 -0.362272 0)
(1.00872 -0.327975 0)
(0.99734 -0.328302 0)
(0.991579 -0.300893 0)
(0.945663 -0.223736 0)
(0.855648 -0.190888 0)
(0.804858 -0.191614 0)
(0.828333 -0.20121 0)
(0.889401 -0.195531 0)
(0.942513 -0.169607 0)
(0.980535 -0.139941 0)
(1.00333 -0.11344 0)
(1.01774 -0.0915366 0)
(1.02651 -0.07412 0)
(1.03197 -0.0601322 0)
(1.03564 -0.0492875 0)
(1.03802 -0.0408184 0)
(1.03946 -0.0341796 0)
(1.0402 -0.0289202 0)
(1.04046 -0.0246584 0)
(1.04035 -0.0210849 0)
(1.04 -0.017965 0)
(1.03947 -0.0151207 0)
(1.03883 -0.0124245 0)
(1.03815 -0.00976993 0)
(1.03752 -0.00709916 0)
(1.03701 -0.00435155 0)
(1.03672 -0.00146341 0)
(1.07978 -0.530838 0)
(1.0635 -0.520004 0)
(1.04694 -0.484966 0)
(1.01977 -0.45521 0)
(1.01633 -0.462608 0)
(1.03478 -0.464515 0)
(1.03951 -0.443891 0)
(0.920073 -0.436125 0)
(0.806658 -0.417857 0)
(0.838391 -0.363235 0)
(0.939444 -0.299248 0)
(1.00368 -0.228724 0)
(1.02893 -0.172948 0)
(1.03802 -0.130832 0)
(1.04262 -0.101268 0)
(1.04388 -0.0793099 0)
(1.0443 -0.0633196 0)
(1.04431 -0.0513632 0)
(1.0441 -0.0421825 0)
(1.04378 -0.0351245 0)
(1.04333 -0.029604 0)
(1.04275 -0.0251745 0)
(1.04208 -0.0214929 0)
(1.04134 -0.0182988 0)
(1.04053 -0.0153902 0)
(1.03971 -0.0126371 0)
(1.0389 -0.00993012 0)
(1.03818 -0.00720956 0)
(1.03761 -0.0044164 0)
(1.03728 -0.00148564 0)
(1.16578 -0.659946 0)
(1.14912 -0.646526 0)
(1.10297 -0.631398 0)
(1.07104 -0.596251 0)
(1.01791 -0.596071 0)
(0.991829 -0.57519 0)
(0.99929 -0.567947 0)
(0.930236 -0.568784 0)
(0.896007 -0.504634 0)
(0.973196 -0.398198 0)
(1.05889 -0.294285 0)
(1.097 -0.220693 0)
(1.09204 -0.167082 0)
(1.08109 -0.128019 0)
(1.07039 -0.0992347 0)
(1.06263 -0.0777679 0)
(1.05732 -0.0621923 0)
(1.05342 -0.0503504 0)
(1.05066 -0.0414912 0)
(1.04858 -0.0347426 0)
(1.04692 -0.029426 0)
(1.04556 -0.025132 0)
(1.04441 -0.0215294 0)
(1.04337 -0.0183672 0)
(1.0424 -0.0154657 0)
(1.04148 -0.0127037 0)
(1.04063 -0.00998094 0)
(1.03988 -0.00724337 0)
(1.0393 -0.00443481 0)
(1.03897 -0.0014914 0)
(1.1766 -0.662398 0)
(1.13745 -0.679165 0)
(1.12101 -0.67975 0)
(1.11652 -0.668835 0)
(1.06341 -0.649736 0)
(1.06685 -0.591588 0)
(1.03453 -0.549919 0)
(1.02239 -0.496419 0)
(1.06019 -0.386207 0)
(1.14664 -0.289941 0)
(1.18187 -0.20457 0)
(1.16968 -0.161501 0)
(1.13993 -0.12614 0)
(1.11468 -0.103652 0)
(1.09402 -0.0836181 0)
(1.07966 -0.0687251 0)
(1.06902 -0.0564539 0)
(1.06171 -0.0467568 0)
(1.0566 -0.0392928 0)
(1.05284 -0.0333712 0)
(1.05005 -0.0286517 0)
(1.04791 -0.0247707 0)
(1.04621 -0.0214186 0)
(1.04478 -0.0184011 0)
(1.04354 -0.0155664 0)
(1.04243 -0.0128228 0)
(1.04143 -0.0100902 0)
(1.04059 -0.0073255 0)
(1.03994 -0.00448576 0)
(1.03957 -0.00151323 0)
(1.12489 -0.422726 0)
(1.1004 -0.438576 0)
(1.12364 -0.43306 0)
(1.14252 -0.442211 0)
(1.1746 -0.409286 0)
(1.17712 -0.390481 0)
(1.18537 -0.33496 0)
(1.21713 -0.281999 0)
(1.23907 -0.203858 0)
(1.24899 -0.139495 0)
(1.25127 -0.120135 0)
(1.20651 -0.0958714 0)
(1.16988 -0.0866189 0)
(1.13467 -0.0739074 0)
(1.11037 -0.0632576 0)
(1.09195 -0.0545029 0)
(1.07843 -0.046599 0)
(1.06883 -0.0404168 0)
(1.0618 -0.0351851 0)
(1.05676 -0.0308165 0)
(1.05315 -0.0271313 0)
(1.05048 -0.023882 0)
(1.04847 -0.0209271 0)
(1.04686 -0.0181442 0)
(1.04552 -0.0154398 0)
(1.04435 -0.0127632 0)
(1.04333 -0.0100599 0)
(1.04247 -0.00730868 0)
(1.04181 -0.00447508 0)
(1.04143 -0.00151253 0)
(1.12374 -0.0406693 0)
(1.14356 -0.0146718 0)
(1.145 -0.0245127 0)
(1.16643 -0.0135392 0)
(1.20424 -0.0056766 0)
(1.20721 -0.0135206 0)
(1.26259 0.0143756 0)
(1.26933 0.0146754 0)
(1.30594 0.00966082 0)
(1.27719 0.0108841 0)
(1.24914 -0.0105437 0)
(1.20882 -0.0197076 0)
(1.17233 -0.0335745 0)
(1.14089 -0.035297 0)
(1.11666 -0.0379377 0)
(1.09727 -0.0364952 0)
(1.08326 -0.0346028 0)
(1.07278 -0.0322705 0)
(1.06507 -0.0298245 0)
(1.05947 -0.0274878 0)
(1.05534 -0.0251531 0)
(1.05229 -0.0227998 0)
(1.04998 -0.0204025 0)
(1.04814 -0.0179383 0)
(1.04662 -0.0154019 0)
(1.04531 -0.0127973 0)
(1.04416 -0.0101154 0)
(1.0432 -0.00735634 0)
(1.04247 -0.00450629 0)
(1.04205 -0.00152493 0)
(1.0927 0.25106 0)
(1.14133 0.24818 0)
(1.1517 0.215381 0)
(1.19091 0.22106 0)
(1.18704 0.186979 0)
(1.23153 0.21288 0)
(1.24279 0.170092 0)
(1.20806 0.168429 0)
(1.21313 0.134764 0)
(1.22584 0.0937113 0)
(1.18632 0.0755196 0)
(1.17497 0.0302749 0)
(1.14401 0.0160791 0)
(1.12596 -0.00193355 0)
(1.10821 -0.012492 0)
(1.09366 -0.0186314 0)
(1.0819 -0.0223972 0)
(1.07263 -0.0239961 0)
(1.06571 -0.0244055 0)
(1.06054 -0.0239542 0)
(1.05676 -0.0229172 0)
(1.05395 -0.0214432 0)
(1.05179 -0.0195987 0)
(1.05006 -0.0174768 0)
(1.04861 -0.0151356 0)
(1.04733 -0.0126362 0)
(1.0462 -0.0100084 0)
(1.04524 -0.00728272 0)
(1.04451 -0.00446023 0)
(1.04409 -0.00150843 0)
(1.00244 0.395455 0)
(1.03186 0.368792 0)
(1.0505 0.322534 0)
(1.11092 0.311816 0)
(1.12816 0.229139 0)
(1.1979 0.255947 0)
(1.14443 0.146818 0)
(1.18938 0.147859 0)
(1.1834 0.103829 0)
(1.17883 0.0810694 0)
(1.14369 0.0577702 0)
(1.13523 0.0367232 0)
(1.12142 0.0247866 0)
(1.10909 0.00890052 0)
(1.09681 0.000455506 0)
(1.08676 -0.00739567 0)
(1.07801 -0.013167 0)
(1.07075 -0.017189 0)
(1.06493 -0.0197293 0)
(1.0605 -0.0209766 0)
(1.0572 -0.0211815 0)
(1.05467 -0.0204877 0)
(1.05269 -0.0191335 0)
(1.05104 -0.0172927 0)
(1.04958 -0.0150926 0)
(1.04824 -0.012649 0)
(1.04703 -0.010035 0)
(1.04598 -0.00730338 0)
(1.04516 -0.00447175 0)
(1.04471 -0.00151026 0)
(0.908586 0.433679 0)
(0.943829 0.413848 0)
(0.967578 0.381087 0)
(0.992314 0.376207 0)
(1.00359 0.324824 0)
(1.04606 0.31781 0)
(1.01595 0.225673 0)
(1.09966 0.221364 0)
(1.11866 0.166924 0)
(1.10797 0.135708 0)
(1.14053 0.0787637 0)
(1.11471 0.0719242 0)
(1.10789 0.0424293 0)
(1.09613 0.0276159 0)
(1.0864 0.0139469 0)
(1.07799 0.00282798 0)
(1.07122 -0.00559922 0)
(1.06606 -0.0116445 0)
(1.06217 -0.015831 0)
(1.05933 -0.0184281 0)
(1.05715 -0.0195657 0)
(1.05546 -0.0195174 0)
(1.05406 -0.0185655 0)
(1.05279 -0.0169369 0)
(1.05156 -0.014842 0)
(1.05036 -0.0124499 0)
(1.04921 -0.00986945 0)
(1.04818 -0.00716899 0)
(1.04737 -0.00438154 0)
(1.04691 -0.00147186 0)
(0.851911 0.351904 0)
(0.877631 0.322963 0)
(0.934197 0.311171 0)
(0.954193 0.28396 0)
(0.987946 0.286387 0)
(0.960299 0.270395 0)
(0.959697 0.250539 0)
(1.02983 0.239285 0)
(1.04918 0.221569 0)
(0.985222 0.198763 0)
(1.04912 0.157772 0)
(1.0531 0.120672 0)
(1.06199 0.079877 0)
(1.06254 0.0527332 0)
(1.06249 0.0294761 0)
(1.06143 0.0123648 0)
(1.05989 0.000117583 0)
(1.0585 -0.00846831 0)
(1.05748 -0.0142355 0)
(1.0567 -0.0177059 0)
(1.05602 -0.0193327 0)
(1.05534 -0.0195647 0)
(1.05454 -0.0187198 0)
(1.05358 -0.0171069 0)
(1.05247 -0.014978 0)
(1.05126 -0.0125319 0)
(1.05004 -0.00990017 0)
(1.04891 -0.00716905 0)
(1.04801 -0.00437076 0)
(1.0475 -0.00146469 0)
(0.767936 0.218457 0)
(0.78732 0.173537 0)
(0.846906 0.163409 0)
(0.873198 0.113264 0)
(0.953281 0.103811 0)
(0.950041 0.0681707 0)
(0.963163 0.0776704 0)
(0.976391 0.0551651 0)
(1.04783 0.0365075 0)
(0.990025 0.0229102 0)
(0.991875 0.0443063 0)
(0.98711 0.0354456 0)
(1.00241 0.0338149 0)
(1.02008 0.0228117 0)
(1.03241 0.0130805 0)
(1.04065 0.0040551 0)
(1.0462 -0.00402938 0)
(1.04984 -0.0106452 0)
(1.05225 -0.0155731 0)
(1.05395 -0.0186701 0)
(1.05513 -0.0200738 0)
(1.05575 -0.0200473 0)
(1.05585 -0.0189538 0)
(1.05546 -0.0171381 0)
(1.05467 -0.0148598 0)
(1.05361 -0.0123203 0)
(1.05244 -0.00966072 0)
(1.05132 -0.00695051 0)
(1.0504 -0.00421671 0)
(1.04987 -0.00141635 0)
(0.664151 0.133079 0)
(0.702794 0.0996547 0)
(0.742945 0.0897072 0)
(0.771455 0.0521573 0)
(0.85903 0.0270252 0)
(0.892107 -0.0141547 0)
(0.942182 -0.0270966 0)
(0.920357 -0.049994 0)
(0.98108 -0.0735062 0)
(1.00564 -0.106186 0)
(1.05491 -0.100335 0)
(1.05084 -0.0805391 0)
(1.04228 -0.0456033 0)
(1.0394 -0.0248641 0)
(1.03982 -0.0142322 0)
(1.04124 -0.0118305 0)
(1.04356 -0.0137548 0)
(1.04645 -0.0171583 0)
(1.04963 -0.0202412 0)
(1.05257 -0.022226 0)
(1.05482 -0.022737 0)
(1.05621 -0.0219652 0)
(1.05677 -0.0202572 0)
(1.05658 -0.0179427 0)
(1.0558 -0.0152863 0)
(1.05465 -0.0124963 0)
(1.05332 -0.00968523 0)
(1.05203 -0.00690681 0)
(1.05098 -0.00416522 0)
(1.05037 -0.001397 0)
(0.640356 0.100717 0)
(0.677201 0.0949676 0)
(0.706281 0.104048 0)
(0.718685 0.098404 0)
(0.780674 0.0953663 0)
(0.837558 0.0807661 0)
(0.887035 0.0674925 0)
(0.896284 0.0703217 0)
(0.939432 0.0748097 0)
(0.956997 0.0707372 0)
(1.03975 0.058232 0)
(1.08701 0.0404224 0)
(1.09398 0.0375684 0)
(1.07383 0.0297785 0)
(1.05365 0.0182022 0)
(1.04321 0.00296738 0)
(1.04065 -0.00990719 0)
(1.04269 -0.0185358 0)
(1.04713 -0.0237083 0)
(1.05179 -0.025722 0)
(1.05556 -0.0254363 0)
(1.05803 -0.0237219 0)
(1.05924 -0.0211751 0)
(1.05935 -0.018221 0)
(1.05867 -0.0151499 0)
(1.05748 -0.012133 0)
(1.05606 -0.00924792 0)
(1.05468 -0.00651194 0)
(1.05355 -0.00389224 0)
(1.05289 -0.00129819 0)
(0.699651 0.0555452 0)
(0.730654 0.0633014 0)
(0.753909 0.0812296 0)
(0.770833 0.095031 0)
(0.799597 0.114119 0)
(0.851423 0.126347 0)
(0.915015 0.140135 0)
(0.942079 0.157322 0)
(0.990959 0.186 0)
(0.998987 0.220211 0)
(0.999275 0.246191 0)
(0.996412 0.234073 0)
(0.996893 0.192096 0)
(0.992457 0.127009 0)
(0.991194 0.0653297 0)
(0.999202 0.0172993 0)
(1.01314 -0.0113913 0)
(1.02842 -0.0261113 0)
(1.04114 -0.0323161 0)
(1.05044 -0.0330805 0)
(1.05658 -0.0309152 0)
(1.06007 -0.02737 0)
(1.06148 -0.0233529 0)
(1.06141 -0.0193518 0)
(1.06038 -0.0156021 0)
(1.05879 -0.0121845 0)
(1.057 -0.0091092 0)
(1.05531 -0.00631879 0)
(1.05396 -0.00373741 0)
(1.05318 -0.00123713 0)
(0.747223 -0.0864103 0)
(0.774561 -0.0813827 0)
(0.80052 -0.0741797 0)
(0.822947 -0.0697489 0)
(0.861702 -0.0558045 0)
(0.896256 -0.0490358 0)
(0.954131 -0.0352149 0)
(1.00517 -0.0207952 0)
(1.04768 -0.0054736 0)
(1.08377 0.0103815 0)
(1.09106 0.0393899 0)
(1.01848 0.0636982 0)
(0.907721 0.0581028 0)
(0.849494 0.0170561 0)
(0.871782 -0.0280137 0)
(0.926533 -0.0546372 0)
(0.977558 -0.061444 0)
(1.0147 -0.0592442 0)
(1.03863 -0.0528573 0)
(1.05315 -0.0452399 0)
(1.06129 -0.0376089 0)
(1.06523 -0.030587 0)
(1.06641 -0.0244495 0)
(1.06589 -0.0192434 0)
(1.06435 -0.0148754 0)
(1.06231 -0.0112353 0)
(1.06016 -0.00817561 0)
(1.0582 -0.0055557 0)
(1.05667 -0.00324137 0)
(1.05579 -0.00106446 0)
(0.731643 -0.306629 0)
(0.752115 -0.311881 0)
(0.786246 -0.318284 0)
(0.812017 -0.332285 0)
(0.853402 -0.343122 0)
(0.904971 -0.350267 0)
(0.940601 -0.362912 0)
(1.00103 -0.367078 0)
(1.05977 -0.372346 0)
(1.07077 -0.394264 0)
(1.09981 -0.388917 0)
(1.0732 -0.380529 0)
(0.938595 -0.369676 0)
(0.842586 -0.322827 0)
(0.873277 -0.25955 0)
(0.951587 -0.200388 0)
(1.0093 -0.149536 0)
(1.04146 -0.110617 0)
(1.05914 -0.0821551 0)
(1.06843 -0.0614 0)
(1.07251 -0.0460707 0)
(1.0733 -0.0346462 0)
(1.07212 -0.026056 0)
(1.06978 -0.0195244 0)
(1.06691 -0.0145102 0)
(1.06387 -0.0106123 0)
(1.06101 -0.00752556 0)
(1.05855 -0.00501385 0)
(1.0567 -0.00288293 0)
(1.05567 -0.000941363 0)
(0.647344 -0.477174 0)
(0.668334 -0.486149 0)
(0.704381 -0.500495 0)
(0.7368 -0.523793 0)
(0.778138 -0.543556 0)
(0.835319 -0.560614 0)
(0.872094 -0.583711 0)
(0.933752 -0.597932 0)
(0.993188 -0.615214 0)
(1.01228 -0.63195 0)
(1.06721 -0.625129 0)
(1.08495 -0.611172 0)
(1.02123 -0.567425 0)
(1.00292 -0.464983 0)
(1.05449 -0.343036 0)
(1.09961 -0.244911 0)
(1.11124 -0.174031 0)
(1.10794 -0.123642 0)
(1.10231 -0.088148 0)
(1.0968 -0.0628971 0)
(1.09152 -0.0449574 0)
(1.08639 -0.0321797 0)
(1.08137 -0.023033 0)
(1.07657 -0.0164476 0)
(1.07207 -0.0116754 0)
(1.06798 -0.00817732 0)
(1.06442 -0.00558294 0)
(1.06151 -0.00360005 0)
(1.05939 -0.00202186 0)
(1.05823 -0.000650583 0)
(0.585349 -0.449831 0)
(0.611953 -0.455903 0)
(0.647736 -0.465758 0)
(0.684334 -0.478339 0)
(0.731449 -0.48615 0)
(0.787016 -0.496827 0)
(0.844435 -0.50067 0)
(0.920852 -0.504059 0)
(0.997936 -0.500012 0)
(1.06799 -0.486351 0)
(1.14976 -0.46387 0)
(1.19601 -0.432564 0)
(1.20768 -0.378709 0)
(1.23069 -0.297237 0)
(1.24902 -0.217801 0)
(1.23467 -0.161805 0)
(1.20099 -0.121166 0)
(1.16854 -0.0908847 0)
(1.14306 -0.0673174 0)
(1.1239 -0.0492235 0)
(1.10925 -0.0356336 0)
(1.09774 -0.0255333 0)
(1.08842 -0.0181113 0)
(1.08074 -0.0127196 0)
(1.07429 -0.00880995 0)
(1.06891 -0.00599836 0)
(1.0645 -0.00396669 0)
(1.06104 -0.00247939 0)
(1.0586 -0.00135726 0)
(1.05728 -0.00042887 0)
(0.586504 -0.244797 0)
(0.615835 -0.232838 0)
(0.651628 -0.227839 0)
(0.696802 -0.216192 0)
(0.753919 -0.206999 0)
(0.8212 -0.194179 0)
(0.897867 -0.178949 0)
(0.98481 -0.164956 0)
(1.07312 -0.146669 0)
(1.1583 -0.130034 0)
(1.24049 -0.111067 0)
(1.29343 -0.0969787 0)
(1.32088 -0.0782249 0)
(1.33001 -0.0562606 0)
(1.31492 -0.0452988 0)
(1.27532 -0.0404244 0)
(1.232 -0.0370341 0)
(1.19423 -0.0319852 0)
(1.16386 -0.0259649 0)
(1.14026 -0.0200758 0)
(1.12176 -0.0147827 0)
(1.10717 -0.0104058 0)
(1.09554 -0.00698229 0)
(1.08614 -0.0044296 0)
(1.07851 -0.00262093 0)
(1.07231 -0.00141335 0)
(1.06736 -0.000655607 0)
(1.06356 -0.000235242 0)
(1.06091 -4.63166e-05 0)
(1.05949 3.64575e-06 0)
(0.661276 -0.00712436 0)
(0.69257 0.0202291 0)
(0.727932 0.0316286 0)
(0.775093 0.05749 0)
(0.828482 0.0720127 0)
(0.891192 0.0953159 0)
(0.958063 0.108209 0)
(1.03145 0.1255 0)
(1.10531 0.131574 0)
(1.17992 0.138584 0)
(1.24205 0.136124 0)
(1.28055 0.122406 0)
(1.30163 0.110334 0)
(1.30203 0.0890488 0)
(1.28182 0.0652203 0)
(1.24986 0.0449877 0)
(1.21732 0.0273696 0)
(1.18736 0.0168647 0)
(1.1616 0.0102461 0)
(1.1401 0.0062299 0)
(1.12219 0.00424842 0)
(1.10745 0.00323725 0)
(1.09534 0.00278672 0)
(1.0854 0.00255327 0)
(1.07727 0.00236048 0)
(1.07067 0.00211877 0)
(1.06543 0.00179082 0)
(1.06143 0.00137556 0)
(1.05866 0.000872682 0)
(1.05719 0.000303606 0)
(0.746236 0.16948 0)
(0.776693 0.194703 0)
(0.807037 0.204706 0)
(0.845526 0.22842 0)
(0.886291 0.237818 0)
(0.934644 0.256071 0)
(0.9835 0.257948 0)
(1.03907 0.26947 0)
(1.09172 0.260194 0)
(1.14613 0.260912 0)
(1.18463 0.236598 0)
(1.21084 0.215777 0)
(1.22765 0.188386 0)
(1.22968 0.15478 0)
(1.21796 0.125146 0)
(1.20243 0.0982336 0)
(1.18427 0.074367 0)
(1.16551 0.057767 0)
(1.14826 0.0440108 0)
(1.13235 0.033681 0)
(1.11816 0.0261754 0)
(1.10575 0.0204576 0)
(1.09506 0.0161485 0)
(1.08597 0.0127956 0)
(1.07832 0.0101135 0)
(1.07199 0.00786698 0)
(1.06688 0.00591439 0)
(1.06295 0.00414669 0)
(1.06021 0.00247337 0)
(1.05875 0.000829029 0)
(0.823669 0.222223 0)
(0.847085 0.239068 0)
(0.870859 0.246015 0)
(0.898332 0.261117 0)
(0.924317 0.2652 0)
(0.955799 0.276778 0)
(0.988999 0.272317 0)
(1.02845 0.278346 0)
(1.06333 0.264474 0)
(1.09768 0.263446 0)
(1.1197 0.233161 0)
(1.14 0.218995 0)
(1.15431 0.19115 0)
(1.15859 0.162319 0)
(1.15561 0.138988 0)
(1.15191 0.113069 0)
(1.14329 0.0924018 0)
(1.13392 0.0751352 0)
(1.12403 0.0597462 0)
(1.11374 0.0476 0)
(1.10385 0.0378223 0)
(1.09458 0.0299025 0)
(1.08615 0.0236051 0)
(1.07864 0.0185624 0)
(1.07211 0.0144816 0)
(1.06657 0.0111034 0)
(1.062 0.00823461 0)
(1.05845 0.00570392 0)
(1.05594 0.00337636 0)
(1.0546 0.00112568 0)
(0.874426 0.233749 0)
(0.889751 0.242978 0)
(0.905698 0.246991 0)
(0.924682 0.254828 0)
(0.9433 0.254489 0)
(0.963941 0.259386 0)
(0.984759 0.253947 0)
(1.0126 0.255216 0)
(1.03779 0.242759 0)
(1.05536 0.240508 0)
(1.07043 0.213155 0)
(1.08932 0.208699 0)
(1.10034 0.181645 0)
(1.10664 0.164327 0)
(1.11079 0.144391 0)
(1.1127 0.123455 0)
(1.111 0.106604 0)
(1.1084 0.0899034 0)
(1.10421 0.0749752 0)
(1.09894 0.0622459 0)
(1.0932 0.0511214 0)
(1.08722 0.0415869 0)
(1.0813 0.0335356 0)
(1.07566 0.0267538 0)
(1.07047 0.0210353 0)
(1.06586 0.0161766 0)
(1.06193 0.0119851 0)
(1.05879 0.00828283 0)
(1.05653 0.00488876 0)
(1.05531 0.00162559 0)
(0.906299 0.189822 0)
(0.920065 0.194018 0)
(0.930157 0.196296 0)
(0.938523 0.20136 0)
(0.946884 0.201047 0)
(0.961104 0.202778 0)
(0.97824 0.19803 0)
(0.99518 0.197752 0)
(1.01141 0.190123 0)
(1.0212 0.188403 0)
(1.03204 0.168569 0)
(1.04788 0.169838 0)
(1.05611 0.148165 0)
(1.06308 0.139941 0)
(1.06993 0.124537 0)
(1.07405 0.110222 0)
(1.07611 0.097931 0)
(1.07743 0.0843783 0)
(1.07691 0.0725131 0)
(1.07539 0.0616541 0)
(1.07307 0.0517443 0)
(1.07014 0.0429768 0)
(1.06686 0.0352951 0)
(1.06345 0.0286052 0)
(1.0601 0.0227939 0)
(1.05696 0.0177199 0)
(1.05419 0.0132425 0)
(1.0519 0.00921244 0)
(1.05023 0.00546098 0)
(1.0493 0.00181992 0)
(0.914492 0.180258 0)
(0.927422 0.181495 0)
(0.939664 0.180635 0)
(0.948259 0.182196 0)
(0.95114 0.181679 0)
(0.954308 0.181729 0)
(0.967165 0.178696 0)
(0.98649 0.175002 0)
(0.999593 0.170055 0)
(1.00107 0.168875 0)
(1.01238 0.152182 0)
(1.02776 0.157261 0)
(1.03355 0.135909 0)
(1.04117 0.134941 0)
(1.04995 0.119155 0)
(1.05443 0.110255 0)
(1.05944 0.0990071 0)
(1.06261 0.0874202 0)
(1.06449 0.077008 0)
(1.06533 0.0666926 0)
(1.06515 0.0570527 0)
(1.06413 0.0481921 0)
(1.06249 0.0401305 0)
(1.06043 0.0328839 0)
(1.05813 0.0264126 0)
(1.05579 0.0206435 0)
(1.05359 0.0154792 0)
(1.05168 0.010784 0)
(1.05024 0.00639619 0)
(1.04944 0.00213114 0)
(0.920499 0.123221 0)
(0.926786 0.123871 0)
(0.935106 0.123298 0)
(0.943592 0.1232 0)
(0.949135 0.122986 0)
(0.950993 0.122766 0)
(0.955346 0.122172 0)
(0.967388 0.120516 0)
(0.980657 0.1163 0)
(0.980554 0.118045 0)
(0.988141 0.106898 0)
(1.00025 0.112688 0)
(1.00479 0.0977487 0)
(1.01214 0.100549 0)
(1.01939 0.0888874 0)
(1.02481 0.0855819 0)
(1.03041 0.0775527 0)
(1.03485 0.0707676 0)
(1.03856 0.0637623 0)
(1.04143 0.0566758 0)
(1.04348 0.049808 0)
(1.04478 0.0431969 0)
(1.0454 0.0369119 0)
(1.04547 0.0310052 0)
(1.0451 0.0254864 0)
(1.04443 0.0203448 0)
(1.0436 0.0155365 0)
(1.04278 0.0109871 0)
(1.04208 0.00658827 0)
(1.04167 0.00220774 0)
)
;

boundaryField
{
    outlet
    {