/*--------------------------------*- C++ -*----------------------------------*\
| =========                 |                                                 |
| \\      /  F ield         | OpenFOAM: The Open Source CFD Toolbox           |
|  \\    /   O peration     | Version:                                        |
|   \\  /    A nd           | Website:  www.openfoam.com                      |
|    \\/     M anipulation  |                                                 |
\*---------------------------------------------------------------------------*/
FoamFile
{
    version     2.0;
    format      ascii;
    class       surfaceScalarField;
    location    "103";
    object      phi;
}
// * * * * * * * * * * * * * * * * * * * * * * * * * * * * * * * * * * * * * //

dimensions      [0 3 -1 0 0 0 0];
oriented        oriented;


internalField   nonuniform List<scalar> 
2201
(
0.000749148
-0.000293715
-0.000455432
0.000883623
-0.000134475
0.00150287
-0.000619245
0.00159963
-9.67665e-05
0.000188249
0.00141139
-0.00228853
0.00247678
-0.0060601
0.00377156
-0.0106403
0.0045802
-0.0141953
0.00355505
0.00265373
-0.0168491
-0.00056646
-0.000186877
0.000459621
-0.00210082
0.00139988
-0.00620484
0.00348478
-0.0117231
0.00542148
-0.0172498
0.00693809
-0.0215539
0.00678088
-0.0246142
0.00683188
-0.0263663
0.00633234
-0.0277508
0.00493949
0.00392609
-0.0290231
-0.00832381
0.00412263
0.0040143
-0.0142394
0.00731544
-0.0198031
0.00904851
-0.0236253
0.00924372
-0.0262239
0.00953663
-0.0285719
0.00912889
-0.029982
0.00824198
-0.0304962
0.00684653
-0.0307944
0.00523766
0.00406927
-0.0309375
-0.0192392
0.0102133
0.0131486
-0.0236365
0.0117128
-0.0266498
0.0120617
-0.0289601
0.0115541
-0.030241
0.0108175
-0.0310181
0.0099059
-0.031385
0.00860892
-0.0314725
0.00693405
-0.0315366
0.00530178
0.00390517
-0.0313725
-0.02589
0.0141753
0.021928
-0.0283282
0.0141509
-0.0298745
0.013608
-0.0309656
0.0126452
-0.0315311
0.011383
-0.0317535
0.0101284
-0.0317566
0.00861198
-0.0317217
0.00689911
-0.0317047
0.0052848
0.00369812
-0.0314976
-0.029128
0.015996
0.0273073
-0.0303629
0.0153859
-0.031149
0.014394
-0.0315857
0.0130819
-0.0318732
0.0116705
-0.031989
0.0102442
-0.0319368
0.00855981
-0.0319081
0.00687035
-0.0318304
0.00520718
0.00348995
-0.0316223
-0.0305021
0.0166269
0.0298713
-0.0312225
0.0161063
-0.0315962
0.0147677
-0.0317764
0.0132621
-0.0320472
0.0119414
-0.0321478
0.0103448
-0.0321296
0.00854166
-0.0321511
0.00689187
-0.0320318
0.00508783
0.00328503
-0.0318269
-0.03109
0.0169436
0.0307732
-0.0316077
0.016624
-0.0317388
0.0148989
-0.0318709
0.0133942
-0.0322204
0.0122908
-0.0322831
0.0104074
-0.0323283
0.00858687
-0.0324088
0.00697241
-0.0322458
0.00492478
0.00311115
-0.0320719
-0.0313903
0.0173783
0.0309556
-0.0317274
0.0169611
-0.0317777
0.0149492
-0.0320021
0.0136187
-0.0323954
0.0126841
-0.0324479
0.01046
-0.0325718
0.00871072
-0.0326999
0.00710056
-0.0325126
0.00473743
0.00298707
-0.0323885
-0.0314916
-0.0316929
0.0171623
-0.0318021
0.0150585
-0.0321835
0.014
-0.0325922
0.0130928
-0.0326916
0.0105594
-0.03288
0.00889904
-0.0330542
0.00727482
-0.0328515
0.00453473
0.00293438
-0.0327988
-0.031612
0.0173266
-0.0318155
0.015262
-0.0324674
0.0146519
-0.0327892
0.0134146
-0.0330133
0.0107835
-0.0332783
0.00916401
-0.0334138
0.00741031
-0.0333134
0.00443436
0.00284367
-0.0332227
-0.0314569
-0.031943
0.0157481
-0.0326999
0.0154087
-0.0330021
0.0137168
-0.033367
0.0111484
-0.0336827
0.00947971
-0.0338041
0.00753167
-0.0337852
0.00441552
0.00273371
-0.0336753
-0.0320078
0.0163073
-0.0328718
0.0162727
-0.0333055
0.0141506
-0.0336494
0.0114923
-0.0341911
0.0100213
-0.0341734
0.00751405
-0.0343317
0.00457381
0.0025495
-0.0341475
-0.0321757
-0.033029
0.017126
-0.0335674
0.0146889
-0.0340213
0.0119463
-0.0346845
0.0106845
-0.0346335
0.007463
-0.0349436
0.00488389
0.00230265
-0.0346967
-0.0331539
0.0178649
-0.0338666
0.0154016
-0.0345698
0.0126495
-0.035132
0.0112467
-0.0352915
0.00762248
-0.0355879
0.00518027
0.00210068
-0.0353859
-0.0334383
0.0188789
-0.0342215
0.0161847
-0.0352042
0.0136323
-0.035635
0.0116775
-0.0360486
0.0080361
-0.0362468
0.00537843
0.00201226
-0.0361584
-0.0337984
-0.0347009
0.0170872
-0.0357792
0.0147106
-0.036244
0.0121423
-0.0367539
0.00854602
-0.0369231
0.00554761
0.00202067
-0.0369315
-0.035199
0.0181595
-0.0363395
0.0158511
-0.0368546
0.0126575
-0.0374166
0.00910796
-0.0376646
0.00579567
0.00198989
-0.0376339
-0.0357839
0.0193253
-0.0368703
0.0169375
-0.0375423
0.0133295
-0.0380799
0.00964555
-0.0384445
0.00616024
0.00195825
-0.0384128
-0.0361893
-0.0373933
0.0181416
-0.0382194
0.0141555
-0.0387665
0.0101926
-0.0392282
0.00662199
0.00209676
-0.0393667
0.0103664
-0.000790428
0.0102294
0.000137073
0.00919002
0.00103934
0.00719141
0.00199861
0.00459837
0.00259305
0.00207322
0.00252515
0.00038888
0.00168434
-0.000201012
0.000589892
1.99491e-06
-0.000203007
-0.000453438
0.00948134
-0.00186977
0.00984579
-0.000227374
0.00923153
0.0016536
0.00773057
0.00349957
0.0056399
0.00468372
0.00322505
0.00494
0.00107541
0.00383398
-0.000301942
0.00196724
-0.000598475
9.35261e-05
-0.000592291
0.00561257
0.00561053
-0.000225335
0.00506432
0.0021998
0.00405816
0.00450573
0.0026145
0.00612738
0.000888976
0.00666552
-0.000766856
0.00548981
-0.00171065
0.00291104
-0.00225603
0.000638906
0.00116598
0.000104275
-0.000396312
-0.00119616
-0.00228788
-0.00340287
0.00778052
-0.00414762
0.00623455
-0.00487019
0.00363362
-0.00762495
0.00339366
0.00668959
-0.00786684
-0.00826651
0.00663422
-0.0106958
0.00606291
-0.0161749
0.00887278
0.0124427
-0.013854
-0.0184092
0.0106181
-0.0238234
0.014287
0.0159265
-0.0253411
-0.0286341
0.01758
0.0171637
-0.0308805
0.0170563
0.00186683
0.0513772
-0.0511472
0.00187245
0.0537025
-0.0537082
0.00192581
0.0565403
-0.0565936
0.00179969
0.0596661
-0.05954
0.00163702
0.0630874
-0.0629248
0.00158182
0.0668489
-0.0667937
0.00170865
0.0709887
-0.0711155
0.00188759
0.0755835
-0.0757624
0.00201026
0.0806125
-0.0807352
0.00203937
0.0860334
-0.0860625
0.00200624
0.0917994
-0.0917662
0.00191652
0.0979921
-0.0979024
0.00179085
0.104662
-0.104536
0.00166253
0.111813
-0.111685
0.00154671
0.119489
-0.119373
0.00144768
0.127772
-0.127673
0.00138898
0.136658
-0.1366
0.00134166
0.146108
-0.146061
0.00128637
0.156078
-0.156023
0.00121781
0.166619
-0.16655
0.00113585
0.177834
-0.177752
0.00104104
0.189839
-0.189744
0.000936374
0.202705
-0.2026
0.000819654
0.216501
-0.216384
0.000695643
0.231281
-0.231157
0.000564482
0.247111
-0.24698
0.000425929
0.264071
-0.263933
0.00028743
0.282252
-0.282114
0.000148622
0.301747
-0.301608
0.322632
-0.322483
0.00635028
0.0516489
0.00598804
0.0540648
0.00582658
0.0567017
0.00583822
0.0596544
0.00590385
0.0630218
0.00589791
0.0668549
0.00578633
0.0711003
0.00565041
0.0757194
0.00552389
0.080739
0.00543032
0.086127
0.00534414
0.0918856
0.00523716
0.0980991
0.00510615
0.104793
0.00497857
0.11194
0.00482131
0.119646
0.00465469
0.127938
0.00450742
0.136806
0.00434815
0.146268
0.00416068
0.156265
0.00393734
0.166842
0.00367218
0.178099
0.00337241
0.190139
0.00304185
0.203035
0.00267979
0.216863
0.00229685
0.231664
0.00188582
0.247522
0.00145094
0.264506
0.000996741
0.282707
0.000513378
0.30223
0.323145
0.0104197
0.0514218
0.0106957
0.0537887
0.0108536
0.0565438
0.0108094
0.0596987
0.0107026
0.0631286
0.0106929
0.0668645
0.0107435
0.0710497
0.0107147
0.0757483
0.0105675
0.0808862
0.010351
0.0863434
0.0100849
0.0921517
0.00974314
0.0984408
0.00937092
0.105165
0.00901458
0.112297
0.00862283
0.120038
0.0082371
0.128324
0.00789151
0.137151
0.00752375
0.146636
0.00713326
0.156656
0.00670216
0.167273
0.00622213
0.178579
0.00570059
0.19066
0.00513402
0.203602
0.00452741
0.21747
0.003885
0.232307
0.00319811
0.248209
0.00246755
0.265237
0.0016965
0.283478
0.000874145
0.303053
0.324019
0.0141643
0.0514131
0.0142095
0.0537435
0.0143836
0.0563697
0.0144768
0.0596054
0.0143688
0.0632367
0.0141356
0.0670976
0.0139005
0.0712848
0.0137027
0.0759461
0.0135299
0.081059
0.0133742
0.0864991
0.0131757
0.0923502
0.0128692
0.0987473
0.0125433
0.105491
0.0121993
0.112641
0.0117496
0.120487
0.0113161
0.128758
0.0108909
0.137577
0.0104185
0.147108
0.00991385
0.157161
0.00933811
0.167849
0.00868758
0.17923
0.00796922
0.191379
0.00718239
0.204388
0.00634123
0.218311
0.00544624
0.233202
0.00448842
0.249167
0.00346914
0.266256
0.00238583
0.284561
0.0012309
0.304208
0.32525
0.0187144
0.019066
0.019294
0.0194398
0.0195504
0.0196142
0.0194858
0.0191448
0.0187282
0.0183242
0.0178456
0.0928288
0.0172628
0.0993301
0.0167485
0.106005
0.0161657
0.113223
0.0154774
0.121176
0.0148572
0.129378
0.0142024
0.138231
0.0135076
0.147803
0.0127951
0.157873
0.0120065
0.168638
0.0111476
0.180088
0.01021
0.192316
0.00920212
0.205396
0.00812632
0.219387
0.00697977
0.234348
0.00575277
0.250394
0.00444809
0.267561
0.00305867
0.28595
0.00157827
0.305688
0.326828
0.0208037
0.0202679
0.0197785
0.0190921
0.0183741
0.0177309
0.016964
0.0161933
0.0153813
0.0144647
0.0134546
0.0123453
0.0111408
0.00984786
0.00846197
0.00697858
0.00540007
0.00371504
0.00191747
0.030069
0.0330053
-0.0286953
-0.034379
0.0318746
0.0296533
-0.0314588
0.033847
0.0267256
-0.0286981
0.0351722
0.023393
-0.0247183
0.0366672
0.0193322
-0.0208272
0.0378781
0.0161005
-0.0173114
0.0383913
0.0120552
-0.0125684
0.0391308
0.00788329
-0.00862272
0.0393802
0.00399675
-0.00424624
-0.000370529
0.000384039
0.0293947
0.0311554
-0.0275447
0.0310982
0.0279498
0.0330057
0.0248181
0.0344349
0.0219638
0.0354597
0.0183075
0.0368189
0.0147412
0.0375834
0.0112907
0.038071
0.00739569
0.0385142
0.00355361
-0.000269195
0.0286634
0.0291316
-0.0266397
0.0303792
0.026234
0.0320595
0.0231378
0.03373
0.0202933
0.0347613
0.0172761
0.0357469
0.0137556
0.0367111
0.0103265
0.037219
0.00688778
0.0376122
0.0031605
-0.000290905
0.0279713
0.0270971
-0.0259368
0.029781
0.0244244
0.0312121
0.0217066
0.0328216
0.0186838
0.0340981
0.0159996
0.0350812
0.0127725
0.0358221
0.00958562
0.0364746
0.00623534
0.0367657
0.0028693
-0.000456664
0.0272549
0.0252012
-0.025359
0.0291441
0.0225351
0.0306176
0.0202332
0.0319894
0.0173119
0.0332464
0.0147427
0.0343185
0.0117004
0.035084
0.00882016
0.0356996
0.00561976
0.0360316
0.00253733
-0.000583467
0.026696
0.0234209
-0.0249157
0.0283963
0.0208349
0.0299998
0.0186297
0.0313236
0.0159882
0.0325249
0.0135414
0.033516
0.0107092
0.0342983
0.00803785
0.034906
0.00501213
0.0352909
0.00215243
-0.000678502
0.0263122
0.0215088
-0.0244001
0.0278523
0.0192947
0.0293591
0.0171229
0.0306775
0.0146697
0.0318428
0.0123761
0.03284
0.00971201
0.0335782
0.00729968
0.0341856
0.00440473
0.0345657
0.00177229
-0.000809479
0.0258153
0.0195388
-0.0238453
0.0274541
0.0176559
0.0288716
0.0157054
0.0301604
0.0133809
0.0312683
0.0112682
0.0322353
0.00874509
0.0329797
0.00655528
0.033581
0.00380342
0.0339355
0.00141772
-0.00102146
0.0252601
0.0177233
-0.0234446
0.0269711
0.0159449
0.0284197
0.0142569
0.0296822
0.0121184
0.0307989
0.0101515
0.0317185
0.0078255
0.0324769
0.00579685
0.0330619
0.00321847
0.0334032
0.00107646
-0.00129357
0.0248485
0.0160429
-0.0231681
0.0264847
0.0143087
0.0279537
0.0127879
0.0292062
0.0108658
0.0303289
0.00902876
0.0312379
0.00691656
0.0320056
0.00502913
0.0325767
0.00264731
0.032935
0.000718239
-0.00158132
0.0246044
0.0143479
-0.0229093
0.026098
0.012815
0.0275692
0.0113167
0.0287697
0.0096653
0.0298957
0.0079028
0.0307751
0.00603714
0.03155
0.0042542
0.0321128
0.00208448
0.0324767
0.0003544
-0.00190347
0.024425
0.0126062
-0.0226833
0.0258665
0.0113735
0.0272992
0.00988401
0.028472
0.00849256
0.0295638
0.00681099
0.0304126
0.00518826
0.0311827
0.00348417
0.031705
0.00156216
0.0321203
-6.08527e-05
-0.00217171
0.024217
0.0109007
-0.0225115
0.0257059
0.00988455
0.0270859
0.008504
0.028272
0.00730649
0.0293279
0.00575512
0.0301672
0.00434895
0.0309103
0.00274109
0.0314076
0.00106487
0.0318475
-0.000500759
-0.00239613
0.0240529
0.00927191
-0.0224241
0.0255914
0.00834604
0.0269279
0.00716758
0.0281355
0.00609886
0.0291622
0.00472841
0.0300107
0.00350048
0.0307164
0.00203537
0.0312034
0.000577831
0.0316386
-0.000935976
-0.00258436
0.02399
0.00769238
-0.0224104
0.0255207
0.00681526
0.0268314
0.00585692
0.0280294
0.00490081
0.0290336
0.00372427
0.0298945
0.00263959
0.0305629
0.00136696
0.0310463
9.43908e-05
0.0314536
-0.00134329
-0.00275301
0.0240908
0.00608811
-0.0224865
0.0255889
0.00531717
0.0268823
0.00456344
0.0280517
0.00373142
0.0290012
0.00277478
0.0298809
0.00175997
0.0305105
0.000737336
0.0309951
-0.000390185
0.0313509
-0.00169912
-0.00289974
0.0242702
0.00444407
-0.0226262
0.0257748
0.00381263
0.027062
0.00327626
0.0282347
0.00255867
0.0290924
0.00191709
0.0298759
0.000976448
0.0305682
4.50258e-05
0.0310103
-0.000832254
0.0312768
-0.00196558
-0.00299552
0.0244967
0.00278336
-0.022836
0.0260016
0.00230767
0.0272744
0.00200345
0.0285162
0.00131692
0.0294516
0.000981657
0.0301451
0.000283005
0.0305279
-0.000337821
0.0309335
-0.00123789
0.0310155
-0.00204754
-0.00291755
0.025022
0.00113173
-0.0233704
0.0264374
0.000892237
0.0277007
0.000740226
0.0287902
0.000227362
0.0296216
0.000150309
0.0302681
-0.000363508
0.0305094
-0.000579131
0.0303471
-0.00107562
0.0298038
-0.00150424
-0.00213687
0.0204983
-0.0193666
0.0213906
0.0221308
0.0223581
0.0225085
0.0221449
0.0215658
0.0204902
0.0189859
0.0206867
0.0421453
0.0231007
0.0401261
-0.0425401
0.0256759
0.0375015
-0.0400768
0.035076
-0.0380954
0.017575
0.0411807
0.0202198
0.0395005
0.022685
0.0376609
0.0252416
0.0349449
0.0327729
0.011829
0.0409051
0.0145605
0.0399097
0.0171959
0.0385454
0.0197879
0.0369085
0.0222399
0.0352088
0.0245495
0.0326354
0.0306826
0.0033171
0.0395176
0.00611065
0.0393457
0.00887804
0.0389154
0.0116014
0.0381817
0.0142702
0.037241
0.0168396
0.035976
0.0193605
0.0343876
0.0217145
0.0328548
0.0238569
0.030493
0.0286028
0.00329092
0.0367703
0.00602538
0.0366112
0.00873132
0.0362095
0.0113894
0.0355236
0.0139924
0.034638
0.0164908
0.0334776
0.0189298
0.0319486
0.0212319
0.0305528
0.0232949
0.0284299
0.0265387
0.00326538
0.0340768
0.00594299
0.0339336
0.00858942
0.0335631
0.0111858
0.0329273
0.0137327
0.032091
0.0161654
0.0310449
0.0185219
0.0295921
0.0207684
0.0283063
0.0228102
0.0263881
0.0244332
0.00324089
0.031438
0.0058619
0.0313126
0.00845469
0.0309703
0.010994
0.030388
0.013483
0.029602
0.0158708
0.0286571
0.0181587
0.0273043
0.0203762
0.0260887
0.0223334
0.0244309
0.0223665
0.00322465
0.0288514
0.00579285
0.0287444
0.00833098
0.0284321
0.0108183
0.0279007
0.0132601
0.0271602
0.0156032
0.026314
0.0178172
0.0250902
0.0200455
0.0238605
0.0219787
0.0224977
0.0204998
0.00321574
0.0263151
0.00573436
0.0262257
0.00822734
0.0259392
0.0106614
0.0254667
0.0130493
0.0247722
0.0153808
0.0239825
0.017546
0.022925
0.0197009
0.0217056
0.0216853
0.0205134
0.0187405
0.0032145
0.0238232
0.00568957
0.0237507
0.0081392
0.0234895
0.0105424
0.0230634
0.0128712
0.0224434
0.0151577
0.0216961
0.0173281
0.0207546
0.0194321
0.0196015
0.0213872
0.0185583
0.0169596
0.00321944
0.021369
0.00565821
0.0213119
0.00806995
0.0210778
0.0104393
0.0206941
0.0127388
0.0201439
0.0149881
0.0194468
0.0171042
0.0186384
0.019199
0.0175068
0.0211521
0.0166053
0.0152023
0.00323149
0.0189481
0.00563852
0.0189049
0.00802155
0.0186948
0.0103753
0.0183404
0.012625
0.0178943
0.0148614
0.0172104
0.0169639
0.0165359
0.0189581
0.0155125
0.0209668
0.0145966
0.0134859
0.00325016
0.0165513
0.00563675
0.0165183
0.00798297
0.0163485
0.0103337
0.0159896
0.0125834
0.0156446
0.0147406
0.0150531
0.0168879
0.0143887
0.0188026
0.0135979
0.0207778
0.0126214
0.0117522
0.00327791
0.0141707
0.00565556
0.0141407
0.00797909
0.014025
0.0102945
0.0136742
0.012586
0.013353
0.0147173
0.0129218
0.0168196
0.0122864
0.0187729
0.0116445
0.0206435
0.0107508
0.00997151
0.00331121
0.0118027
0.00569309
0.0117588
0.00801138
0.0117067
0.0102975
0.0113881
0.0125632
0.0110873
0.0147755
0.0107096
0.0168225
0.0102394
0.018819
0.00964802
0.0206161
0.00895371
0.00817717
0.00335454
0.00942847
0.00575695
0.00935635
0.00807346
0.00939021
0.010371
0.00909056
0.012585
0.0088733
0.0148048
0.00848975
0.0168998
0.00814441
0.0189083
0.00763951
0.0207281
0.00713397
0.00641874
0.00339965
0.0070446
0.00584183
0.00691417
0.0081856
0.00704645
0.0104903
0.0067859
0.0127323
0.00663122
0.0149022
0.00631992
0.0170276
0.00601898
0.0190184
0.00564874
0.0209128
0.00523955
0.00470535
0.00345994
0.00464693
0.00592302
0.00445109
0.0083096
0.00465987
0.0106486
0.0044469
0.0128965
0.00438335
0.0150965
0.00411989
0.0172341
0.00388135
0.0191909
0.00369195
0.0211444
0.00328606
0.00301378
0.00359489
0.00215094
0.00607245
0.00197352
0.00856491
0.00216741
0.0109945
0.00201729
0.0133237
0.00205416
0.0155815
0.0018621
0.0177448
0.00171804
0.0197511
0.0016857
0.0216768
0.00136036
0.00132017
0.00320783
0.00518136
0.00734877
0.00936605
0.0114202
0.0132823
0.0150004
0.0166861
0.0180464
0.0386155
0.00573347
0.00636752
0.00697207
0.00749218
0.00502893
0.047223
0.00495275
0.0508516
0.00462852
0.0547429
0.0041744
0.0589548
0.00368781
0.06353
0.00320912
0.0682924
0.00277556
0.0731244
0.00240444
0.0780851
0.00211034
0.0833014
0.00189514
0.0889115
0.00176024
0.0950209
0.0016915
0.101697
0.0016529
0.108913
0.0016212
0.116559
0.001584
0.124649
0.00153646
0.133314
0.00145008
0.142602
0.001309
0.15245
0.00113263
0.162896
0.000953688
0.17402
0.000795616
0.185928
0.000661768
0.19867
0.000548208
0.212293
0.000449155
0.226846
0.00036045
0.242396
0.000280273
0.259022
0.000198626
0.276847
0.000102265
0.295963
5.51438e-05
0.316616
0.338543
0.00615793
0.0485572
0.00529517
0.0517143
0.00460519
0.0554329
0.00411114
0.0594488
0.00373544
0.0639057
0.00340329
0.0686246
0.00308452
0.0734432
0.00278098
0.0783887
0.00249475
0.0835876
0.00224223
0.089164
0.00204238
0.0952208
0.0018969
0.101842
0.00179618
0.109014
0.00171377
0.116641
0.00164115
0.124721
0.00156633
0.133389
0.00146395
0.142705
0.00131362
0.1526
0.00112945
0.163081
0.000943003
0.174207
0.000777829
0.186093
0.000640488
0.198807
0.00052631
0.212408
0.000428571
0.226943
0.000341195
0.242483
0.000263813
0.259099
0.000185377
0.276926
9.50657e-05
0.296053
5.01703e-05
0.31666
0.338593
-0.0341822
0.0483604
-0.034405
0.0519371
-0.0345593
0.0555872
-0.0347259
0.0596154
-0.0347936
0.0639734
-0.0346699
0.0685009
-0.0343518
0.0731251
-0.0339154
0.0779523
-0.0334061
0.0830783
-0.0328296
0.0885875
-0.0321831
0.0945742
-0.0314484
0.101108
-0.030607
0.108172
-0.0296535
0.115688
-0.028616
0.123684
-0.0275124
0.132285
-0.0263489
0.141541
-0.025122
0.151373
-0.0238112
0.16177
-0.0223925
0.172788
-0.0208447
0.184546
-0.0191564
0.197119
-0.0173224
0.210574
-0.0153407
0.224962
-0.0132102
0.240352
-0.0109249
0.256814
-0.00846938
0.27447
-0.00586737
0.293451
-0.00301777
0.313811
0.335575
-0.0318916
0.0487932
-0.0320944
0.0521399
-0.0322535
0.0557463
-0.0323238
0.0596857
-0.0322292
0.0638788
-0.0319331
0.0682048
-0.0315126
0.0727045
-0.0310156
0.0774552
-0.0304616
0.0825243
-0.029873
0.0879989
-0.0292472
0.0939484
-0.0285614
0.100422
-0.0277886
0.107399
-0.026931
0.11483
-0.0260014
0.122754
-0.0250127
0.131297
-0.0239688
0.140497
-0.0228619
0.150267
-0.0216728
0.160581
-0.0203799
0.171495
-0.0189671
0.183133
-0.0174261
0.195578
-0.0157541
0.208902
-0.0139493
0.223157
-0.0120104
0.238413
-0.00993259
0.254736
-0.00770318
0.272241
-0.00532588
0.291074
-0.00274797
0.311233
0.332827
-0.0291589
0.0492541
-0.0291534
0.0521344
-0.0290326
0.0556254
-0.02894
0.0595931
-0.0287724
0.0637113
-0.0285362
0.0679685
-0.0282296
0.0723979
-0.02785
0.0770757
-0.0274251
0.0820994
-0.0269519
0.0875257
-0.0264153
0.0934118
-0.0257934
0.0998
-0.0250832
0.106689
-0.0242907
0.114038
-0.0234384
0.121902
-0.0225347
0.130393
-0.0215772
0.13954
-0.0205596
0.149249
-0.0194632
0.159484
-0.0182766
0.170308
-0.0169887
0.181845
-0.0155943
0.194183
-0.0140887
0.207396
-0.0124687
0.221537
-0.010731
0.236676
-0.00887246
0.252877
-0.00688265
0.270251
-0.00475371
0.288945
-0.0024591
0.308938
0.330368
-0.0246622
0.049198
-0.024932
0.0524042
-0.0253317
0.0560251
-0.025442
0.0597034
-0.0252716
0.063541
-0.0249415
0.0676384
-0.0245411
0.0719976
-0.0241348
0.0766693
-0.0237173
0.0816819
-0.0232751
0.0870836
-0.0227944
0.0929311
-0.0222598
0.0992654
-0.0216589
0.106088
-0.0210004
0.113379
-0.0202981
0.1212
-0.0195532
0.129648
-0.0187625
0.138749
-0.0179104
0.148397
-0.0169778
0.158552
-0.015953
0.169284
-0.0148317
0.180724
-0.0136141
0.192966
-0.0123001
0.206082
-0.010888
0.220125
-0.00937323
0.235161
-0.00775248
0.251257
-0.00601636
0.268515
-0.00415263
0.287081
-0.00215192
0.306938
0.328216
-0.0215233
0.0498941
-0.0218584
0.0527393
-0.0218079
0.0559747
-0.0216302
0.0595257
-0.0214427
0.0633534
-0.0212336
0.0674292
-0.0209803
0.0717444
-0.0206657
0.0763547
-0.0203094
0.0813256
-0.0199225
0.0866966
-0.0194942
0.0925029
-0.0190115
0.0987827
-0.0184777
0.105554
-0.0179032
0.112805
-0.0172977
0.120594
-0.0166589
0.129009
-0.0159791
0.138069
-0.0152503
0.147668
-0.0144543
0.157756
-0.0135816
0.168411
-0.0126238
0.179766
-0.0115807
0.191923
-0.0104538
0.204955
-0.00924724
0.218918
-0.0079575
0.233871
-0.00658082
0.24988
-0.00510809
0.267042
-0.00352392
0.285497
-0.00182782
0.305242
0.326388
-0.0170516
0.0496343
-0.0167886
0.0524763
-0.016927
0.0561131
-0.0170669
0.0596655
-0.0170176
0.0633041
-0.0168355
0.0672472
-0.0166003
0.0715091
-0.0163801
0.0761345
-0.0161633
0.0811088
-0.0159194
0.0864527
-0.0156302
0.0922137
-0.0152857
0.0984382
-0.0148835
0.105152
-0.0144378
0.112359
-0.0139635
0.12012
-0.0134587
0.128505
-0.0129256
0.137536
-0.0123517
0.147094
-0.0117229
0.157127
-0.0110297
0.167718
-0.0102656
0.179002
-0.00942791
0.191085
-0.00851675
0.204044
-0.00753479
0.217936
-0.00648543
0.232822
-0.0053662
0.248761
-0.00416712
0.265843
-0.00287324
0.284203
-0.00149025
0.303859
0.324898
-0.0130389
0.0501048
-0.0137262
0.0531637
-0.0139445
0.0563314
-0.0137866
0.0595076
-0.0135914
0.0631089
-0.013412
0.0670679
-0.0132143
0.0713114
-0.0129712
0.0758914
-0.0126926
0.0808302
-0.0124114
0.0861716
-0.0121249
0.0919271
-0.0118215
0.0981348
-0.0114958
0.104826
-0.0111556
0.112019
-0.0107939
0.119758
-0.0104017
0.128112
-0.00997289
0.137107
-0.00951023
0.146632
-0.00900985
0.156627
-0.00846991
0.167178
-0.0078782
0.17841
-0.00723348
0.19044
-0.00653421
0.203345
-0.0057795
0.217181
-0.00497196
0.232015
-0.00411403
0.247903
-0.00319626
0.264926
-0.00220326
0.28321
-0.00114213
0.302797
0.323756
-0.00899157
0.0504736
-0.00882669
0.0529988
-0.00864454
0.0561492
-0.00860094
0.059464
-0.0085515
0.0630595
-0.0084635
0.0669799
-0.00840376
0.0712516
-0.00839225
0.0758799
-0.00839832
0.0808362
-0.008369
0.0861422
-0.00828121
0.0918393
-0.00812939
0.097983
-0.00792473
0.104622
-0.00768723
0.111781
-0.00742741
0.119498
-0.0071448
0.12783
-0.00684323
0.136806
-0.00651406
0.146302
-0.00615938
0.156272
-0.0057815
0.1668
-0.00537798
0.178006
-0.00494212
0.190005
-0.00447019
0.202873
-0.0039613
0.216673
-0.0034147
0.231468
-0.00283057
0.247319
-0.00220273
0.264298
-0.00151851
0.282526
-0.000786202
0.302065
0.32297
-0.0044091
0.0506365
-0.00473813
0.0533278
-0.0050549
0.056466
-0.00526717
0.0596763
-0.00528735
0.0630797
-0.00522013
0.0669127
-0.00502943
0.0710609
-0.00479523
0.0756457
-0.00457175
0.0806127
-0.00441238
0.0859829
-0.00429739
0.0917244
-0.00420953
0.0978952
-0.0041343
0.104547
-0.00405971
0.111707
-0.00396325
0.119402
-0.00384099
0.127707
-0.00368249
0.136647
-0.00349785
0.146118
-0.00329901
0.156073
-0.00309112
0.166592
-0.0028696
0.177785
-0.00263511
0.18977
-0.00238471
0.202622
-0.00211728
0.216405
-0.00182972
0.23118
-0.00152141
0.24701
-0.00119007
0.263966
-0.000822737
0.282158
-0.000425399
0.301668
0.322544
-0.000126714
-0.000507029
-0.00063465
-0.000498368
-0.000343473
-0.000224541
-0.000279144
-0.000395912
-0.000518347
-0.000597997
-0.000639877
-0.000647104
-0.000636574
-0.000614324
-0.000585417
-0.000550647
-0.000503057
-0.000446515
-0.000396148
-0.000354498
-0.000321433
-0.000295674
-0.000273156
-0.000252388
-0.000229226
-0.000198962
-0.000165272
-0.000120778
-6.11107e-05
)
;

boundaryField
{
    outlet
    {
        type            calculated;
        value           nonuniform 0();
    }
    upperWall
    {
        type            symmetryPlane;
        value           nonuniform 0();
    }
    lowerWall
    {
        type            symmetryPlane;
        value           uniform 0;
    }
    inlet
    {
        type            calculated;
        value           nonuniform 0();
    }
    cylinder
    {
        type            calculated;
        value           uniform 0;
    }
    frontAndBack
    {
        type            empty;
        value           nonuniform 0();
    }
    procBoundary1to0
    {
        type            processor;
        value           nonuniform List<scalar> 
45
(
-0.0180418
-0.0438751
-0.0447903
-0.0437004
-0.0148807
-0.0426412
-0.0423214
-0.0421392
-0.00903376
-0.0416828
-0.0386607
-0.0432045
-0.00568822
-0.0406813
-0.00570306
-0.0465185
-0.0507754
-0.0544187
-0.0585007
-0.0630435
-0.0678137
-0.0726908
-0.077714
-0.0830073
-0.0886963
-0.094886
-0.101628
-0.108874
-0.116527
-0.124612
-0.133266
-0.142516
-0.152309
-0.16272
-0.173841
-0.18577
-0.198536
-0.21218
-0.226746
-0.242307
-0.258942
-0.276766
-0.295866
-0.316568
-0.338487
)
;
    }
    procBoundary1to2
    {
        type            processor;
        value           nonuniform List<scalar> 
63
(
0.0179416
0.0309284
0.0314477
0.0312671
0.0175164
0.0314487
0.0311905
0.0172926
0.032415
0.0324243
0.0326065
0.0200708
0.0341268
0.0346181
0.0349085
0.0206061
-0.00270708
-0.000397427
6.78165e-05
0.00270039
0.00530558
0.0072191
0.00755963
0.00808773
0.0121454
0.00834284
0.020689
0.0152702
0.0298412
0.0186193
0.0314241
0.0165878
0.0508402
0.053392
0.0561416
0.0594596
0.0631261
0.0670338
0.0714133
0.076287
0.0814756
0.0869031
-0.021259
0.0932841
0.099866
0.106495
0.11391
0.121894
0.130021
0.138998
0.148573
0.158685
0.169554
0.181099
0.193426
0.206601
0.22068
0.235734
0.251877
0.269139
0.287635
0.307486
0.328746
)
;
    }
    procBoundary1to5
    {
        type            processor;
        value           nonuniform List<scalar> 
20
(
-0.00957601
-0.008402
-0.00477526
-0.000513312
-0.000543626
-0.000571852
-0.00060209
-0.000638094
-0.000679419
-0.000722646
-0.000765222
-0.000810635
-0.000853278
-0.000897356
-0.000943181
-0.000980329
-0.00101578
-0.00106228
-0.0010989
-0.00105689
)
;
    }
}


// ************************************************************************* //
