/*--------------------------------*- C++ -*----------------------------------*\
| =========                 |                                                 |
| \\      /  F ield         | OpenFOAM: The Open Source CFD Toolbox           |
|  \\    /   O peration     | Version:                                        |
|   \\  /    A nd           | Website:  www.openfoam.com                      |
|    \\/     M anipulation  |                                                 |
\*---------------------------------------------------------------------------*/
FoamFile
{
    version     2.0;
    format      ascii;
    class       volScalarField;
    location    "150";
    object      p;
}
// * * * * * * * * * * * * * * * * * * * * * * * * * * * * * * * * * * * * * //

dimensions      [0 2 -2 0 0 0 0];


internalField   nonuniform List<scalar> 
1150
(
0.189091
0.199036
0.209532
0.191461
0.201032
0.210966
0.191345
0.19999
0.208987
0.1885
0.195735
0.182983
0.18835
0.17481
0.0562282
0.0513338
0.0541443
0.0542392
0.0560005
0.055942
0.0574094
0.05784
0.0594237
0.0607685
0.0623997
0.0642203
0.0667513
0.0689695
0.0717185
0.0750241
0.0787295
0.0826456
0.0872172
0.0923589
0.0979721
0.104051
0.110871
0.118353
0.126434
0.135363
0.144993
0.155268
0.166265
0.177988
0.0564148
0.0515864
0.0543486
0.0545602
0.0561902
0.0562429
0.0579268
0.0580334
0.0597711
0.0615154
0.0627303
0.0646303
0.0677566
0.0696841
0.072381
0.0759504
0.0798612
0.0837666
0.0883889
0.093654
0.0994294
0.105619
0.112565
0.120143
0.128439
0.137409
0.147147
0.157521
0.168635
0.180466
0.0565337
0.051912
0.0545299
0.0548768
0.0563503
0.0565514
0.0584118
0.0582101
0.0601327
0.0621861
0.0630103
0.0650887
0.0687264
0.0703381
0.0730833
0.0768772
0.080887
0.0847887
0.0894988
0.0948095
0.100668
0.10691
0.113899
0.121481
0.129803
0.138719
0.148386
0.15865
0.169609
0.1811
0.056589
0.0522643
0.0548174
0.0551835
0.0564878
0.0568614
0.0588595
0.0583593
0.0605448
0.0627525
0.0632214
0.0656249
0.0695387
0.0709294
0.0738668
0.0777005
0.0818353
0.0857136
0.0905142
0.0958167
0.10168
0.107899
0.114845
0.122303
0.13048
0.139156
0.148551
0.158418
0.168902
0.179614
0.0565797
0.0526621
0.0549722
0.0554814
0.0565982
0.0571916
0.059243
0.0586273
0.0610019
0.0632522
0.063409
0.0662604
0.0702624
0.0714553
0.0746665
0.0784443
0.0825618
0.0864875
0.0913293
0.0965656
0.10234
0.108468
0.115277
0.122503
0.130403
0.138667
0.147597
0.156811
0.166453
0.175979
0.0565172
0.0530871
0.0551388
0.0557614
0.0566979
0.0575121
0.0595579
0.0588039
0.0615424
0.0635997
0.0637686
0.0669835
0.0708281
0.0720118
0.0755768
0.0790799
0.0834
0.0871898
0.0922091
0.0972046
0.102982
0.108875
0.115513
0.122333
0.129797
0.137432
0.145564
0.153826
0.162263
0.170044
0.056403
0.0535456
0.055293
0.0560336
0.0567794
0.0578519
0.0597772
0.0590615
0.0620314
0.0638727
0.064072
0.0677622
0.0711386
0.0725635
0.0763051
0.0795715
0.0838516
0.0877083
0.0926287
0.0975457
0.102973
0.108814
0.114959
0.121474
0.128229
0.135137
0.142366
0.149187
0.156134
0.161588
0.0562529
0.0540245
0.0554768
0.0562793
0.0568685
0.0581699
0.0599194
0.0593202
0.0625653
0.0640353
0.0644832
0.0684961
0.0714893
0.0732561
0.0772198
0.0800949
0.0847739
0.0882008
0.0935467
0.0977988
0.103556
0.108683
0.114786
0.120372
0.126583
0.13214
0.138141
0.143235
0.148162
0.0560735
0.0545138
0.055626
0.0565188
0.0569679
0.0584747
0.0599851
0.0596229
0.0629443
0.0641767
0.0649012
0.0690858
0.0714971
0.0738932
0.0774597
0.0804075
0.0848559
0.0883292
0.0935028
0.0974619
0.102752
0.107786
0.113001
0.118252
0.123092
0.128093
0.132242
0.135716
0.138033
0.0558896
0.0549993
0.0557683
0.0567252
0.057091
0.0587768
0.0599983
0.0599831
0.0633507
0.0644071
0.0655582
0.0696934
0.0719213
0.0748201
0.0782789
0.0812439
0.0858984
0.0889855
0.094613
0.097694
0.103685
0.107638
0.112886
0.116703
0.120832
0.12341
0.125953
0.125914
0.0556967
0.0554475
0.055907
0.0569294
0.057174
0.0589971
0.0599716
0.0601637
0.0633509
0.0645362
0.0658871
0.0698228
0.0717674
0.0751464
0.077876
0.0812931
0.0853986
0.088414
0.093802
0.0957552
0.102043
0.104738
0.109446
0.112345
0.115034
0.11772
0.117467
0.116729
0.0555317
0.0558772
0.0560302
0.057143
0.0572531
0.0592061
0.0599486
0.060426
0.0631874
0.0647375
0.0660126
0.0697748
0.0714937
0.0751356
0.0772536
0.0810525
0.0840367
0.0877034
0.0917879
0.0939533
0.0992297
0.101621
0.105194
0.107463
0.109165
0.110831
0.108875
0.106776
0.0554396
0.056299
0.0561594
0.0573543
0.0573748
0.0594109
0.0599888
0.0607486
0.0630924
0.0649572
0.0659986
0.0697285
0.0712335
0.074886
0.0768515
0.0804115
0.083036
0.0868186
0.0899053
0.0922832
0.0963659
0.0984408
0.100912
0.102717
0.103159
0.10364
0.101095
0.0980551
0.0554101
0.0567086
0.0563287
0.057569
0.0575499
0.0595647
0.0600731
0.0611278
0.0630482
0.0650947
0.0660649
0.0694995
0.0710191
0.0744423
0.0765333
0.0793664
0.0821362
0.0855312
0.0880106
0.0900889
0.0934263
0.0952086
0.0966447
0.0978673
0.0974271
0.0970433
0.0943504
0.0910792
0.0554352
0.0570792
0.0565575
0.0577512
0.0577805
0.0596352
0.0602232
0.0614858
0.063035
0.0651341
0.0661872
0.0690685
0.0709228
0.073681
0.0761603
0.0782859
0.0809106
0.0841547
0.0859536
0.0876201
0.0903765
0.0918902
0.0922867
0.0929203
0.09231
0.0911715
0.0883694
0.0849066
0.0555115
0.0573731
0.0568445
0.0578965
0.0580691
0.0596312
0.0604168
0.0617556
0.06305
0.0650737
0.0662878
0.0685788
0.0708497
0.0727228
0.0755943
0.0774074
0.079289
0.082569
0.0839332
0.085092
0.0870806
0.0883818
0.0881405
0.0881954
0.0875421
0.0859138
0.0829701
0.0793107
0.0556414
0.0575584
0.0571687
0.0580028
0.0584127
0.0595454
0.0605967
0.0619585
0.062942
0.0649582
0.0663662
0.0680086
0.0706928
0.0718051
0.0746435
0.0765935
0.077592
0.0806676
0.0818405
0.082531
0.0837236
0.0848549
0.0843652
0.0836581
0.0828937
0.081185
0.0782227
0.0744151
0.0558171
0.057613
0.0575028
0.0580978
0.0587473
0.0594558
0.0606589
0.0621654
0.0626782
0.0647726
0.0664777
0.0673304
0.0703377
0.0711122
0.0733529
0.0756583
0.0760584
0.0784263
0.0795345
0.0800107
0.0805402
0.081306
0.0807329
0.0794566
0.0784728
0.0768683
0.0740874
0.0702094
0.0560268
0.0575536
0.0577853
0.0582245
0.0590117
0.0594134
0.0604911
0.0623486
0.0624265
0.0644394
0.0665867
0.0666567
0.0696614
0.0706152
0.0719103
0.074362
0.0746373
0.0761095
0.0770695
0.0774294
0.0774976
0.077795
0.0772577
0.0757143
0.0743715
0.0728247
0.0703433
0.0666574
0.0562497
0.0574989
0.0579799
0.0583628
0.059225
0.0594192
0.0603625
0.0624823
0.0622117
0.063936
0.066607
0.0661192
0.0686071
0.070147
0.0706383
0.0726506
0.0731594
0.0739798
0.0745676
0.0747608
0.0745835
0.0744881
0.0739086
0.0723303
0.0706973
0.0690897
0.0669149
0.0636258
0.0564679
0.0574993
0.0580765
0.0584764
0.059387
0.0594605
0.0601801
0.0625171
0.062079
0.0633075
0.0664253
0.0657849
0.067324
0.0694109
0.0696501
0.0708117
0.0713978
0.0719403
0.0722321
0.0721912
0.071782
0.0713649
0.0707059
0.06927
0.0675127
0.0657648
0.0637561
0.0609114
0.0566665
0.0575667
0.0581197
0.058547
0.0594967
0.0595085
0.0599983
0.0624313
0.0620018
0.0626343
0.0659492
0.0655905
0.0660051
0.0682024
0.0688055
0.0691419
0.069411
0.0698602
0.0700761
0.0698411
0.069152
0.0684412
0.067694
0.0664438
0.0647614
0.0629387
0.0609866
0.058513
0.0568362
0.0576724
0.0581595
0.0585785
0.0595398
0.0595501
0.0598336
0.0622112
0.061936
0.0620065
0.0651705
0.065379
0.0648929
0.0666501
0.0678068
0.0677946
0.0674821
0.0676773
0.0679486
0.0677214
0.0668102
0.0657876
0.0648856
0.0638125
0.0623783
0.0606358
0.0587134
0.0564549
0.0569887
0.0577743
0.058198
0.0585896
0.0595322
0.0595588
0.0596939
0.0618721
0.0618189
0.0614914
0.0641755
0.0649836
0.0640564
0.0649659
0.0664634
0.0666309
0.0658404
0.0655128
0.0657396
0.0657233
0.0648075
0.0635097
0.0623696
0.0613689
0.0602176
0.0587209
0.0569058
0.0548052
0.0571373
0.0578576
0.0582378
0.0585924
0.0594752
0.059527
0.0595755
0.0614479
0.0616071
0.0610791
0.0630884
0.0642869
0.0634058
0.063447
0.0648425
0.0653698
0.0644813
0.0636107
0.0635259
0.063714
0.0630468
0.0616434
0.0602425
0.0591794
0.0582401
0.057064
0.0554927
0.0535652
0.0572844
0.0579219
0.0582662
0.0585823
0.0593795
0.0594489
0.0594648
0.0609789
0.0612619
0.0607308
0.0620507
0.063311
0.0627845
0.062225
0.0631435
0.0638982
0.0632405
0.0620599
0.0615333
0.061679
0.061324
0.0601013
0.0585781
0.0573644
0.056482
0.0555671
0.0543039
0.0526266
0.0574231
0.0579655
0.0582748
0.0585522
0.0592429
0.0593205
0.0593342
0.0604956
0.0607923
0.0603833
0.0611564
0.062165
0.0620162
0.0612548
0.0615964
0.0622831
0.0619252
0.0607842
0.0599026
0.0597852
0.0595877
0.0586854
0.0572697
0.0559578
0.0550213
0.0542356
0.0532499
0.0518824
0.0575434
0.0579885
0.0582536
0.0584949
0.059065
0.0591372
0.059159
0.060007
0.0602461
0.0599728
0.0603779
0.0610267
0.0610686
0.0604163
0.0603039
0.0606837
0.0605226
0.059608
0.058595
0.0581761
0.0579351
0.0572896
0.0561505
0.0549012
0.0539053
0.0531355
0.0523244
0.0512428
0.0576355
0.0579911
0.0582044
0.0583995
0.0588479
0.0589062
0.0589158
0.0595131
0.0596705
0.0594728
0.0596608
0.0600039
0.0600476
0.0595572
0.0592168
0.0592641
0.0591208
0.0584343
0.0574964
0.0568763
0.0564988
0.05598
0.0551127
0.0540487
0.0530746
0.0522876
0.0515567
0.0506905
0.0576962
0.0579679
0.0581245
0.0582727
0.0585968
0.0586226
0.0586223
0.0590155
0.059083
0.0589254
0.0589771
0.0590941
0.059052
0.0586628
0.0582635
0.0580567
0.0578305
0.0572996
0.0565083
0.0558218
0.0553228
0.0548276
0.0541473
0.0532944
0.0524257
0.0516636
0.0509766
0.0502496
0.0577187
0.057918
0.0580198
0.058113
0.0583203
0.0583083
0.0582959
0.0585183
0.0584956
0.0583674
0.058316
0.0582626
0.058132
0.0577793
0.0573862
0.0570445
0.0567183
0.056244
0.055584
0.0549374
0.0543827
0.0538738
0.0532901
0.052606
0.0518805
0.051196
0.0505597
0.0499253
0.0577013
0.0578402
0.0578901
0.0579293
0.058034
0.0579765
0.0579394
0.0580308
0.05793
0.0578043
0.0576823
0.0575055
0.0573001
0.0569569
0.056575
0.0561726
0.0557682
0.0553085
0.0547478
0.0541709
0.0536158
0.053098
0.0525669
0.0520018
0.0514079
0.050822
0.0502567
0.0497032
0.0576438
0.0577357
0.0577403
0.0577251
0.0577465
0.05764
0.0575643
0.0575709
0.0573973
0.0572405
0.0570875
0.0568268
0.0565547
0.0562091
0.0558328
0.0554132
0.0549705
0.0545154
0.0540126
0.0535006
0.0529807
0.0524796
0.0519864
0.0514962
0.0510016
0.0505108
0.0500275
0.0495532
0.0575519
0.0576028
0.0575696
0.0575112
0.0574631
0.0573105
0.057196
0.0571328
0.0569026
0.0567068
0.0565325
0.0562292
0.0558987
0.0555428
0.0551754
0.0547599
0.0543052
0.0538499
0.0533854
0.0529271
0.0524541
0.0519844
0.0515265
0.0510908
0.0506714
0.0502617
0.0498563
0.0494587
0.0574299
0.0574498
0.0573882
0.0572889
0.0571851
0.0570046
0.0568434
0.0567208
0.0564678
0.056225
0.0560185
0.055703
0.0553379
0.0549697
0.0546054
0.054203
0.0537554
0.0533068
0.0528686
0.0524487
0.0520211
0.0515906
0.0511707
0.0507774
0.0504124
0.0500673
0.049734
0.0494131
0.0572894
0.0572828
0.0571955
0.0570672
0.0569268
0.0567197
0.0565177
0.0563524
0.0560874
0.0558062
0.0555644
0.0552511
0.0548781
0.0544969
0.0541293
0.053742
0.0533151
0.0528808
0.052461
0.0520671
0.0516763
0.0512838
0.0508995
0.0505408
0.0502157
0.0499197
0.0496455
0.0493917
0.0571301
0.0571072
0.0570086
0.0568605
0.0566879
0.0564685
0.0562442
0.0560353
0.0557585
0.055457
0.0551823
0.05487
0.0545039
0.0541227
0.0537559
0.053385
0.0529864
0.052574
0.052171
0.0517924
0.0514257
0.0510625
0.0507064
0.0503714
0.0500687
0.0497998
0.0495619
0.0493545
0.056955
0.0569243
0.0568288
0.056681
0.0565002
0.0562762
0.0560306
0.0557899
0.0555097
0.0551974
0.0548938
0.0545774
0.0542261
0.0538588
0.053501
0.0531504
0.0527868
0.0524097
0.0520325
0.0516689
0.0513144
0.0509625
0.0506133
0.0502763
0.0499638
0.0496833
0.0494383
0.0492316
0.0567355
0.0567105
0.0566282
0.0565005
0.0563364
0.0561273
0.0558831
0.0556245
0.0553332
0.0550092
0.0546847
0.0543622
0.0540215
0.0536672
0.0533205
0.0529915
0.0526718
0.0523572
0.0520555
0.0517788
0.0515272
0.0512928
0.0510669
0.0508459
0.0506283
0.05041
0.0501823
0.0499333
0.0566358
0.0566006
0.0565323
0.0564262
0.0562776
0.0560773
0.0558272
0.0555498
0.0552468
0.0549144
0.0545772
0.0542495
0.0539169
0.0535781
0.0532469
0.052935
0.052637
0.0523443
0.0520584
0.0517868
0.0515345
0.0512966
0.0510648
0.0508335
0.0506007
0.0503642
0.0501182
0.0498524
)
;

boundaryField
{
    outlet
    {
        type            fixedValue;
        value           nonuniform 0();
    }
    upperWall
    {
        type            symmetryPlane;
    }
    lowerWall
    {
        type            symmetryPlane;
    }
    inlet
    {
        type            zeroGradient;
    }
    cylinder
    {
        type            zeroGradient;
    }
    frontAndBack
    {
        type            empty;
    }
    procBoundary4to0
    {
        type            processor;
        value           nonuniform List<scalar> 
33
(
0.1843
0.194026
0.204532
0.0559764
0.0511311
0.0539102
0.0539167
0.0557879
0.0556347
0.0568751
0.0576256
0.0590545
0.0599787
0.0620438
0.0637802
0.0657346
0.0681549
0.0709825
0.0740021
0.0774728
0.0813589
0.0858672
0.090849
0.0962196
0.102075
0.108713
0.115967
0.123452
0.132347
0.141664
0.151573
0.162235
0.173621
)
;
    }
    procBoundary4to5
    {
        type            processor;
        value           nonuniform List<scalar> 
45
(
0.221107
0.222015
0.219236
0.20358
0.20358
0.194733
0.178279
0.178279
0.163658
0.163658
0.151417
0.151417
0.138204
0.126148
0.126148
0.11245
0.101137
0.0931604
0.086574
0.0806635
0.0753199
0.0705464
0.0663315
0.0627803
0.059864
0.0574543
0.0554687
0.0537861
0.0524166
0.0513762
0.0506458
0.0501656
0.0498302
0.0495704
0.0493601
0.0492054
0.0491126
0.0490683
0.0490656
0.0491059
0.0491617
0.0491814
0.0490681
0.0496509
0.0495551
)
;
    }
}


// ************************************************************************* //
