/*--------------------------------*- C++ -*----------------------------------*\
| =========                 |                                                 |
| \\      /  F ield         | OpenFOAM: The Open Source CFD Toolbox           |
|  \\    /   O peration     | Version:                                        |
|   \\  /    A nd           | Website:  www.openfoam.com                      |
|    \\/     M anipulation  |                                                 |
\*---------------------------------------------------------------------------*/
FoamFile
{
    version     2.0;
    format      ascii;
    class       volScalarField;
    location    "115.8";
    object      p;
}
// * * * * * * * * * * * * * * * * * * * * * * * * * * * * * * * * * * * * * //

dimensions      [0 2 -2 0 0 0 0];


internalField   nonuniform List<scalar> 
1147
(
-1.18337
-1.19891
-1.2124
-1.23811
-1.28349
-1.28161
-1.24007
-1.20034
-1.19143
-1.20799
-1.1853
-1.2077
-1.21659
-1.21258
-1.2474
-1.27397
-1.23967
-1.18181
-1.14875
-1.13338
-1.18392
-1.19275
-1.201
-1.19782
-1.18604
-1.17779
-1.14536
-1.10662
-1.0752
-1.04501
-1.16577
-1.15828
-1.14336
-1.12947
-1.10462
-1.07497
-1.04257
-1.01243
-0.982912
-0.949403
-1.11711
-1.09061
-1.06447
-1.04295
-1.01481
-0.981463
-0.950842
-0.923514
-0.895001
-0.86166
-1.04377
-1.00656
-0.977866
-0.953555
-0.926231
-0.896604
-0.869088
-0.842821
-0.814415
-0.781736
-0.956428
-0.917738
-0.890772
-0.866638
-0.842081
-0.817957
-0.79433
-0.769395
-0.742116
-0.709839
-0.864133
-0.829612
-0.807177
-0.784027
-0.763236
-0.74484
-0.724622
-0.702018
-0.677137
-0.645394
-0.772338
-0.744824
-0.728653
-0.706787
-0.690482
-0.677484
-0.659496
-0.640169
-0.618052
-0.587364
-0.682828
-0.664231
-0.654548
-0.635911
-0.623632
-0.616007
-0.599218
-0.583386
-0.564067
-0.534704
-0.587905
-0.583775
-0.570478
-0.562443
-0.559511
-0.543922
-0.531446
-0.514637
-0.48678
-0.516222
-0.516303
-0.509053
-0.506462
-0.506576
-0.49364
-0.48404
-0.469298
-0.443657
-0.453367
-0.451646
-0.454644
-0.456892
-0.447743
-0.44068
-0.427689
-0.405022
-0.396354
-0.398477
-0.40693
-0.410413
-0.40582
-0.400618
-0.389565
-0.370009
-0.350884
-0.362959
-0.367798
-0.367194
-0.363912
-0.354331
-0.338266
-0.309609
-0.322164
-0.32951
-0.331365
-0.330336
-0.32211
-0.308985
-0.271784
-0.285918
-0.294512
-0.298683
-0.299455
-0.292787
-0.282276
-0.253275
-0.262757
-0.268976
-0.271157
-0.266241
-0.257793
-0.223261
-0.234518
-0.24144
-0.245218
-0.24243
-0.234939
-0.195568
-0.208476
-0.215974
-0.220406
-0.220361
-0.213953
-1.01058
-1.15019
-1.24514
-1.28336
-1.26889
-1.22287
-1.17747
-1.15664
-1.15741
-1.16743
-1.0411
-1.18067
-1.2715
-1.30609
-1.28447
-1.22942
-1.17341
-1.14626
-1.14802
-1.16509
-1.10068
-1.24295
-1.3333
-1.35619
-1.32263
-1.25421
-1.18104
-1.14346
-1.14211
-1.16363
-1.30202
-1.38645
-1.39708
-1.35303
-1.27462
-1.19116
-1.14378
-1.13796
-1.15491
-1.27858
-1.19262
-1.14316
-1.1329
-1.13228
-1.18214
-1.13552
-1.11243
-1.0839
-1.10589
-1.06305
-1.01102
-0.984397
-0.921357
-0.822724
-0.194356
-0.172961
-0.152949
-0.135842
-0.119205
-0.104468
-0.090564
-0.078042
-0.0667382
-0.0566686
-0.0476667
-0.0397123
-0.0326838
-0.0263532
-0.0206439
-0.0155489
-0.0109024
-0.00671187
-0.00296405
0.00045215
0.0035202
0.00620972
0.00852151
0.0104567
0.012044
0.0133514
0.0144024
0.0151722
0.0156124
0.01586
-0.196526
-0.171457
-0.149384
-0.131165
-0.114675
-0.100445
-0.0871358
-0.0751985
-0.0644738
-0.0547552
-0.0459449
-0.038153
-0.0312868
-0.0250671
-0.0195475
-0.014646
-0.0100953
-0.00605774
-0.00247157
0.00080936
0.00375056
0.00635936
0.00864044
0.0105546
0.0121223
0.0133956
0.014395
0.0151259
0.0155648
0.0158218
-0.193971
-0.167672
-0.145473
-0.12786
-0.111628
-0.0971219
-0.083688
-0.0719997
-0.0616454
-0.0522405
-0.0437723
-0.0363821
-0.0297622
-0.0236345
-0.018406
-0.0137277
-0.00929434
-0.00547232
-0.00203213
0.00112754
0.00392246
0.00642849
0.00865719
0.0105396
0.0121101
0.0133772
0.0143584
0.0150756
0.0155161
0.0157834
-0.189155
-0.161643
-0.138958
-0.12159
-0.10578
-0.091663
-0.0790951
-0.0684407
-0.0586224
-0.0494786
-0.0413377
-0.034406
-0.0280179
-0.0220114
-0.0171882
-0.0126476
-0.00835015
-0.00481761
-0.00150099
0.00152605
0.00415926
0.00654869
0.00868711
0.0105063
0.0120703
0.0133278
0.0143079
0.0150277
0.0154698
0.0157473
-0.180495
-0.154459
-0.135422
-0.119635
-0.103034
-0.0878451
-0.0753205
-0.0649022
-0.0552412
-0.0462783
-0.0386363
-0.032344
-0.0260012
-0.0202765
-0.015991
-0.0113998
-0.00731742
-0.00408861
-0.00083924
0.00201985
0.00449729
0.00677869
0.0088012
0.0105388
0.0120721
0.0132952
0.0142728
0.0149948
0.0154328
0.0157171
-0.0367696
-0.0308907
-0.0241477
-0.0190236
-0.0150916
-0.0101641
-0.00650182
-0.00344155
-0.000189737
0.00248112
0.00486454
0.00707016
0.0089812
0.0106502
0.0121318
0.0133007
0.0142696
0.0149823
0.0154097
0.0156954
-0.0309423
-0.0547843
-0.0735342
-0.0945804
-0.117448
-0.140335
-0.161012
-0.178314
-0.19288
-0.204296
-0.03056
-0.0547909
-0.0763807
-0.100177
-0.125743
-0.150482
-0.173493
-0.193407
-0.209891
-0.224326
-0.0307257
-0.058287
-0.0840866
-0.110541
-0.138377
-0.165212
-0.189857
-0.211679
-0.230087
-0.245114
-0.0319246
-0.063917
-0.0943588
-0.123736
-0.153401
-0.18219
-0.208557
-0.231449
-0.251627
-0.268024
-0.0346733
-0.0707552
-0.105529
-0.138076
-0.169609
-0.200033
-0.228447
-0.253197
-0.274451
-0.293419
-0.0391378
-0.0786307
-0.117062
-0.152953
-0.186853
-0.219165
-0.24958
-0.276678
-0.299753
-0.320962
-0.0452743
-0.0877891
-0.129598
-0.168834
-0.205602
-0.240214
-0.27302
-0.302295
-0.327753
-0.351461
-0.0528867
-0.0984924
-0.143727
-0.186603
-0.226717
-0.263603
-0.299366
-0.330614
-0.358973
-0.384998
-0.0619357
-0.111185
-0.159899
-0.206619
-0.250683
-0.290138
-0.329004
-0.362074
-0.393616
-0.421951
-0.0725356
-0.126298
-0.178672
-0.229436
-0.277537
-0.320248
-0.362372
-0.397273
-0.432108
-0.46236
-0.0850494
-0.14426
-0.200582
-0.255847
-0.307642
-0.35442
-0.39982
-0.436972
-0.474932
-0.506776
-0.100231
-0.165506
-0.226316
-0.286664
-0.341926
-0.393412
-0.441801
-0.482106
-0.522257
-0.556188
-0.119086
-0.190541
-0.256933
-0.322611
-0.381911
-0.438086
-0.489544
-0.53359
-0.575509
-0.611646
-0.142668
-0.220315
-0.293516
-0.36469
-0.428959
-0.4896
-0.544405
-0.592488
-0.635749
-0.674262
-0.172118
-0.256616
-0.337526
-0.414455
-0.484652
-0.549452
-0.608003
-0.659894
-0.70461
-0.745304
-0.208718
-0.301647
-0.390851
-0.47412
-0.550792
-0.619366
-0.681674
-0.736541
-0.783297
-0.825386
-0.255051
-0.357883
-0.456456
-0.547407
-0.631198
-0.703609
-0.767452
-0.824527
-0.872847
-0.914623
-0.313895
-0.427378
-0.535814
-0.636118
-0.7295
-0.811339
-0.88021
-0.933655
-0.9781
-1.014
-0.388618
-0.512477
-0.627772
-0.735758
-0.834017
-0.92035
-0.993976
-1.05176
-1.09204
-1.11451
-0.510842
-0.653058
-0.786195
-0.907512
-1.00822
-1.09274
-1.15459
-1.19593
-1.21671
-1.21809
0.0957745
0.0704575
0.0430885
0.00958836
0.117345
0.0918863
0.0634787
0.0337735
0.00120825
0.166562
0.144421
0.119364
0.0920524
0.0617259
0.0308609
-6.93367e-05
0.224503
0.211906
0.195274
0.175009
0.151315
0.124559
0.0957361
0.0641316
0.0320591
0.000604886
0.237607
0.224487
0.206897
0.185398
0.160364
0.132015
0.101604
0.0685422
0.0344026
0.000718884
0.252143
0.238379
0.219861
0.197131
0.170707
0.140642
0.108288
0.0732693
0.0363085
-0.000673388
0.26814
0.253565
0.233998
0.209883
0.181823
0.149732
0.115012
0.0775421
0.0372996
-0.00352605
0.285649
0.270154
0.249368
0.223638
0.193608
0.159099
0.121514
0.0811194
0.0374522
-0.00743043
0.304665
0.288208
0.266038
0.238446
0.206108
0.168816
0.127853
0.0840347
0.0368335
-0.0122328
0.32513
0.3077
0.283982
0.254276
0.219311
0.17893
0.134143
0.0863662
0.0352518
-0.0181852
0.346982
0.328521
0.303078
0.270986
0.233033
0.189263
0.140304
0.0879943
0.0324984
-0.0258829
0.370124
0.350545
0.323178
0.288438
0.247071
0.199465
0.146062
0.0885129
0.0281455
-0.0357873
0.394468
0.373639
0.34412
0.306417
0.261241
0.209142
0.150912
0.0875582
0.021363
-0.0484182
0.419858
0.397639
0.365678
0.324652
0.275241
0.218076
0.154091
0.0846946
0.0113386
-0.0646377
0.445955
0.422219
0.387469
0.342677
0.288385
0.225713
0.15496
0.0788085
-0.00270267
-0.0857811
0.472209
0.44689
0.408938
0.359729
0.299944
0.230745
0.152787
0.0684156
-0.0218081
-0.113728
0.497676
0.470548
0.42904
0.374565
0.308522
0.231588
0.145536
0.0516153
-0.0480023
-0.150764
0.520974
0.49173
0.446204
0.385795
0.312282
0.226607
0.130847
0.026159
-0.084077
-0.198959
0.539616
0.507476
0.457551
0.39025
0.307742
0.21161
0.103812
-0.0128739
-0.13581
-0.262819
0.551358
0.515724
0.461823
0.387225
0.294129
0.183495
0.0595567
-0.0746251
-0.21815
-0.363366
0.04234
0.0790559
0.0566629
0.0272221
0.020991
0.00935306
0.00169317
-0.00443487
-0.00920496
-0.012818
-0.0153333
-0.0167933
-0.0173632
-0.0171636
-0.016261
-0.014814
-0.0129208
-0.010676
-0.00824569
-0.00574581
-0.00323994
-0.000748059
0.00171393
0.00411461
0.00639871
0.00852061
0.0104482
0.0121619
0.0136698
0.0149734
0.015994
0.0166697
0.0178349
0.0180398
-0.00123529
-0.00811697
-0.0138628
-0.0185784
-0.0220807
-0.0244527
-0.0257876
-0.0262394
-0.0258662
-0.0247175
-0.022901
-0.0205931
-0.0178792
-0.0148724
-0.0117076
-0.0085247
-0.00543319
-0.00248149
0.000315842
0.00295778
0.00543341
0.00772462
0.00981194
0.011676
0.0133196
0.0147436
0.0158538
0.0165488
0.0175042
0.0176859
-0.0296042
-0.0304885
-0.0333597
-0.0358242
-0.0377347
-0.0387711
-0.0388847
-0.0381124
-0.0365456
-0.0342335
-0.0313183
-0.0279587
-0.0242627
-0.020357
-0.016343
-0.0123443
-0.00847813
-0.00483846
-0.00148138
0.00158022
0.00435988
0.00687612
0.00914101
0.0111595
0.0129401
0.0144945
0.0157173
0.0164511
0.0171498
0.017314
-0.0576968
-0.058766
-0.0586943
-0.0581031
-0.0574732
-0.0563066
-0.0544433
-0.0518552
-0.0485525
-0.0446155
-0.0402486
-0.0355878
-0.0307536
-0.0258776
-0.0210321
-0.0162865
-0.0117066
-0.00738535
-0.00341319
0.000150393
0.00330462
0.00608285
0.00852816
0.0106802
0.0125677
0.0142265
0.0155605
0.0163403
0.0168154
0.0169645
-0.0759077
-0.0787953
-0.0782359
-0.0764107
-0.0738043
-0.0702842
-0.0662089
-0.0615985
-0.0564669
-0.050967
-0.045291
-0.0395532
-0.0338778
-0.0283548
-0.0230491
-0.0179961
-0.0131928
-0.00865714
-0.00444385
-0.000632618
0.00273586
0.00567113
0.00821377
0.010418
0.0123316
0.0140168
0.015409
0.0162232
0.0165429
0.0166751
-0.0934041
-0.0935169
-0.0912566
-0.0888572
-0.0849219
-0.0797871
-0.0739277
-0.0675726
-0.0609802
-0.0543098
-0.04768
-0.0411832
-0.034916
-0.0289432
-0.0233257
-0.0181052
-0.0132729
-0.00879686
-0.00464879
-0.000859792
0.00253253
0.00551099
0.0080888
0.0103014
0.0121992
0.0138579
0.0152571
0.0160951
0.0163306
0.0164484
-0.113397
-0.109728
-0.103915
-0.09901
-0.0930591
-0.0865782
-0.0795372
-0.0720704
-0.0644363
-0.0568764
-0.0495366
-0.042477
-0.0357664
-0.0294235
-0.0235041
-0.018054
-0.0131049
-0.00863278
-0.00457455
-0.000893992
0.00242273
0.0053746
0.00795786
0.0101785
0.0120696
0.0136986
0.0150827
0.0159444
0.0161617
0.0162771
-0.134421
-0.127771
-0.118628
-0.110878
-0.102103
-0.0934474
-0.0846845
-0.0759627
-0.0674293
-0.0592062
-0.0513472
-0.0438965
-0.0368675
-0.0302666
-0.0241195
-0.0184491
-0.013306
-0.00870906
-0.00461872
-0.000976006
0.00228038
0.0051894
0.00776042
0.00999055
0.0118932
0.0135116
0.0148791
0.0157689
0.0160207
0.0161506
-0.151761
-0.142075
-0.13048
-0.120046
-0.108903
-0.0986093
-0.0885759
-0.0789296
-0.0696744
-0.0608609
-0.0525607
-0.0447936
-0.037556
-0.0308259
-0.0246055
-0.0188714
-0.0136416
-0.00893448
-0.00474937
-0.00105771
0.00219653
0.00507327
0.00760763
0.00981815
0.0117168
0.0133257
0.0146722
0.0155848
0.0159
0.0160581
-0.166781
-0.154728
-0.141221
-0.128889
-0.1157
-0.103391
-0.0916095
-0.0806859
-0.0705699
-0.0612366
-0.0525985
-0.044627
-0.0372739
-0.030525
-0.0243592
-0.0187271
-0.0135942
-0.00891954
-0.00470825
-0.000969852
0.00231047
0.0051648
0.00764154
0.00979044
0.0116364
0.0132038
0.0145072
0.0154205
0.0158
0.0159904
-0.179062
-0.163789
-0.14759
-0.133172
-0.118433
-0.105279
-0.0927127
-0.0810166
-0.0702193
-0.0604066
-0.0514828
-0.0433911
-0.0360457
-0.0293685
-0.0233156
-0.0178665
-0.01293
-0.00840845
-0.00429813
-0.000597389
0.00266568
0.00548257
0.00789135
0.00995257
0.0117041
0.0131884
0.0144169
0.015299
0.0157217
0.0159395
-0.188552
-0.170747
-0.151591
-0.136208
-0.119436
-0.105546
-0.0920478
-0.0799148
-0.068765
-0.0587459
-0.0496678
-0.0415846
-0.0343695
-0.0278386
-0.0219372
-0.0166685
-0.0119019
-0.00755998
-0.00362807
-5.334e-05
0.0031321
0.00589237
0.00824244
0.0102239
0.0118758
0.0132606
0.0143954
0.0152225
0.015662
0.0158981
)
;

boundaryField
{
    outlet
    {
        type            fixedValue;
        value           nonuniform 0();
    }
    upperWall
    {
        type            symmetryPlane;
    }
    lowerWall
    {
        type            symmetryPlane;
    }
    inlet
    {
        type            zeroGradient;
    }
    cylinder
    {
        type            zeroGradient;
    }
    frontAndBack
    {
        type            empty;
    }
    procBoundary1to0
    {
        type            processor;
        value           nonuniform List<scalar> 
45
(
0.11856
0.11856
0.10043
0.160504
0.140338
0.140338
0.212763
0.200813
0.185377
0.185377
0.0506545
0.0835165
0.0643794
0.0643794
0.10043
0.0358783
0.0239898
0.0148741
0.00760444
0.00182562
-0.00274968
-0.00622158
-0.00855304
-0.00991038
-0.0105532
-0.0104985
-0.00981752
-0.0086494
-0.0071001
-0.00531363
-0.00336219
-0.0012722
0.000928672
0.0031712
0.00538078
0.00747293
0.00939727
0.0111329
0.0126773
0.0140441
0.0152353
0.0161843
0.0168558
0.0181376
0.0183662
)
;
    }
    procBoundary1to2
    {
        type            processor;
        value           nonuniform List<scalar> 
63
(
-0.595855
-0.721198
-0.595855
-0.513333
-0.449056
-0.449056
-0.386728
-0.344517
-0.344517
-0.297176
-0.257032
-0.237801
-0.237801
-0.207599
-0.180135
-0.166533
-1.15235
-1.15235
-1.34262
-1.4143
-1.41226
-1.36111
-1.36111
-1.26218
-1.26218
-1.15556
-1.15556
-1.04306
-1.04306
-0.884281
-0.884281
-0.721198
-0.166533
-0.141757
-0.125336
-0.111848
-0.0966529
-0.0830252
-0.0722873
-0.0625067
-0.0527677
-0.043803
-0.043803
-0.0355335
-0.0294434
-0.0224878
-0.0185329
-0.0142451
-0.00912736
-0.00611166
-0.00290386
0.00030798
0.00280513
0.00517564
0.00732927
0.00916054
0.0107961
0.0122179
0.0133358
0.0142935
0.014985
0.0153996
0.0156831
)
;
    }
    procBoundary1to5
    {
        type            processor;
        value           nonuniform List<scalar> 
20
(
-0.853657
-0.871692
-0.905997
0.232912
0.246166
0.261036
0.277546
0.29558
0.315025
0.335813
0.357936
0.381387
0.406077
0.431869
0.458388
0.485045
0.510824
0.53443
0.553567
0.56597
)
;
    }
}


// ************************************************************************* //
