/*--------------------------------*- C++ -*----------------------------------*\
| =========                 |                                                 |
| \\      /  F ield         | OpenFOAM: The Open Source CFD Toolbox           |
|  \\    /   O peration     | Version:                                        |
|   \\  /    A nd           | Website:  www.openfoam.com                      |
|    \\/     M anipulation  |                                                 |
\*---------------------------------------------------------------------------*/
FoamFile
{
    version     2.0;
    format      ascii;
    class       surfaceScalarField;
    location    "34.9";
    object      phi;
}
// * * * * * * * * * * * * * * * * * * * * * * * * * * * * * * * * * * * * * //

dimensions      [0 3 -1 0 0 0 0];
oriented        oriented;


internalField   nonuniform List<scalar> 
2238
(
0.0191246
-2.3066e-05
0.0219537
0.00188849
0.0256613
-0.00664404
0.00293639
0.0297837
-0.0090923
0.00496994
0.0349007
-0.0113683
0.00625129
0.040303
-0.0141492
0.00874685
0.0467406
-0.0167174
0.0102798
0.0528455
-0.0196769
0.013572
0.0598577
-0.0223171
0.0153049
-0.0248035
0.0197695
0.0648917
0.0294683
0.0355315
0.0418455
-0.0176823
0.0481537
-0.0204573
0.0539176
-0.0224813
0.0592788
-0.0250381
0.0632076
-0.0262459
-0.0285444
0.0669485
0.0479054
0.0514067
0.0543862
0.0556701
-0.026322
0.0567408
-0.0273165
-0.0285366
0.056733
0.0454976
0.0470375
0.0489109
-0.00971567
-0.0122331
0.00220584
-0.0147858
0.00223743
-0.0173857
0.00228803
-0.0200454
0.0023572
-0.0227754
0.0024417
-0.0255834
0.00253865
-0.0284782
0.00264847
-0.0314662
0.00276836
-0.0345565
0.00290047
-0.0377585
0.00304474
-0.0410821
0.00320143
-0.0445376
0.00337122
-0.0481293
0.00354913
-0.0518533
0.00372788
-0.0557065
0.00389906
0.00407679
-0.0596909
-0.0105269
0.00437323
-0.0127003
0.00441083
-0.0148924
0.00448013
-0.01711
0.00457481
-0.0193545
0.0046862
-0.0216309
0.00481497
-0.0239384
0.00495604
-0.0262782
0.00510809
-0.0286546
0.00527691
-0.0310636
0.00545371
-0.0335129
0.00565077
-0.0360036
0.00586191
-0.038535
0.0060805
-0.0411156
0.00630845
-0.0437261
0.0065096
0.00669666
-0.046346
-0.00815435
0.00606952
-0.00984344
0.00609991
-0.0115206
0.00615729
-0.0131752
0.00622938
-0.0148059
0.00631694
-0.0164094
0.00641848
-0.0179807
0.00652737
-0.0195272
0.00665455
-0.0210368
0.0067865
-0.0225108
0.00692772
-0.0239488
0.00708872
-0.0253258
0.00723896
-0.0266629
0.00741755
-0.0279391
0.00758467
-0.0291382
0.00770876
0.00790112
-0.0303427
-0.00554175
0.00728487
-0.00671971
0.00727787
-0.00784693
0.00728451
-0.00891054
0.00729299
-0.0099079
0.00731431
-0.0108304
0.00734092
-0.0116765
0.00737348
-0.0124421
0.00742014
-0.0131146
0.00745904
-0.0137027
0.00751578
-0.0141838
0.00756991
-0.0145678
0.00762294
-0.014821
0.00767069
-0.0149291
0.00769283
-0.0149886
0.00776826
0.00756364
-0.0146511
-0.00279448
-0.0034649
0.00794829
-0.00404891
0.00786853
-0.00454094
0.00778502
-0.00493938
0.00771275
-0.00520255
0.00760409
-0.00534347
0.0075144
-0.00536286
0.00743954
-0.00518503
0.0072812
-0.00490296
0.00723372
-0.00441643
0.00708338
-0.00372166
0.00692817
-0.00291592
0.00686495
-0.00173904
0.00651596
-0.000452483
0.0064817
0.00620867
0.000902486
-0.000279466
-0.00035527
0.00794433
-0.000319879
0.00774962
-7.83446e-05
0.00747122
0.000240188
0.00728556
0.000772905
0.00698168
0.00153951
0.00667293
0.00235039
0.00647033
0.00363913
0.00594497
0.0048807
0.00584181
0.00663783
0.00517104
0.00850392
0.00499886
0.0107343
0.00428556
0.0132331
0.00398287
0.00303731
0.0164045
0.00312727
0.00365903
0.00721786
0.0042955
0.00683475
0.00533819
0.00624287
0.00631245
0.00600742
0.00785652
0.00512886
0.00932781
0.00499903
0.0114261
0.00384666
0.0134193
0.00384867
0.0162768
0.00231352
0.0188095
0.00246615
0.0225271
0.000567983
0.025804
0.000705944
-0.00151905
0.0303604
0.00723272
0.00828377
0.00578369
0.00985256
0.00467408
0.0113501
0.00450992
0.013604
0.00287495
0.0155123
0.00309072
0.0185389
0.000820084
0.0210279
0.00135962
0.0247473
-0.00140584
0.028012
-0.000798604
0.0324633
-0.00388333
0.0366262
-0.00345694
-0.00669244
0.0417996
0.0114346
0.0134301
0.00267862
0.0153952
0.0025448
0.0178986
0.000371509
0.0205515
0.000437883
0.0235639
-0.00219237
0.0269258
-0.00200222
0.0306442
-0.00512433
0.0347556
-0.00490993
0.0395695
-0.00869728
0.0446364
-0.00852378
-0.0126948
0.0506388
0.0159723
0.018494
0.020754
0.0241283
0.0269058
0.0311549
0.0347774
0.0401473
0.045022
0.0518031
0.0588777
-0.0613688
0.00187659
-0.062763
0.00168053
-0.0640961
0.00170803
-0.0650866
0.00146449
-0.0659765
0.00146162
-0.0664702
0.0011784
-0.0668842
0.00120248
-0.0668469
0.000859763
-0.0666626
0.000792408
-0.0659212
0.000324165
-0.0649903
0.000173214
-0.0634391
-0.00037447
-0.0617185
-0.000526085
-0.0593273
-0.00115966
-0.056863
-0.00127055
-0.0537744
-0.00194959
-0.0505487
-0.00226394
-0.0466117
-0.00316637
-0.0429438
-0.00334906
-0.00543574
-0.048043
0.00357364
-0.0493983
0.00303583
-0.0506636
0.0029733
-0.0515944
0.00239529
-0.0523796
0.00224687
-0.0528229
0.00162171
-0.0531013
0.00148083
-0.0530126
0.000771102
-0.0526501
0.000429858
-0.0518575
-0.000468443
-0.0507565
-0.00092778
-0.0491467
-0.00198427
-0.0472021
-0.00247068
-0.0447855
-0.0035762
-0.0420045
-0.00405157
-0.0390267
-0.00492742
-0.0356257
-0.00566496
-0.0318537
-0.00693838
-0.0278453
-0.00735742
-0.00970807
-0.0321393
0.00537027
-0.0334642
0.00436066
-0.0348866
0.0043957
-0.0359132
0.00342189
-0.0368321
0.00316578
-0.0374172
0.00220685
-0.0377629
0.00182649
-0.0378154
0.000823624
-0.0376117
0.00022617
-0.0370634
-0.00101673
-0.0360433
-0.00194786
-0.0345824
-0.00344524
-0.0325498
-0.00450328
-0.0302766
-0.00584936
-0.0273124
-0.00701578
-0.0242749
-0.00796492
-0.0207264
-0.00921345
-0.0170936
-0.0105712
-0.0130482
-0.0114028
-0.0141266
-0.0164306
0.00714977
-0.0179513
0.0058813
-0.0195616
0.00600603
-0.0208012
0.00466149
-0.0217351
0.00409969
-0.02251
0.00298173
-0.0229842
0.00230066
-0.0233772
0.0012166
-0.0233718
0.000220776
-0.0231884
-0.00120013
-0.0224748
-0.00266138
-0.0214074
-0.00451273
-0.0197233
-0.00618737
-0.0176785
-0.00789417
-0.0151386
-0.00955567
-0.0122106
-0.0108929
-0.00897415
-0.0124499
-0.00515173
-0.0143936
-0.00120383
-0.0153507
-0.018644
-0.000546651
0.00859891
-0.00216345
0.0074981
-0.00337174
0.00721431
-0.00480619
0.00609595
-0.00584158
0.00513508
-0.00685972
0.00399987
-0.0075628
0.00300374
-0.00817057
0.00182438
-0.00860413
0.000654333
-0.00888306
-0.000921193
-0.00872827
-0.00281617
-0.00805156
-0.00518944
-0.00695617
-0.00728275
-0.00528285
-0.00956749
-0.00317341
-0.0116651
-0.000707759
-0.0133586
0.00207157
-0.0152292
0.00513391
-0.017456
0.00884365
-0.0190604
-0.0233408
0.0144719
0.0105315
0.0127317
0.00923828
0.011392
0.00855403
0.00984603
0.00764193
0.00844894
0.00653217
0.00719007
0.00525874
0.00618959
0.00400422
0.00531654
0.00269742
0.00470741
0.00126346
0.00443215
-0.000645927
0.00439692
-0.00278094
0.00466511
-0.00545763
0.00522927
-0.00784692
0.00612363
-0.0104618
0.00755143
-0.0130929
0.00935994
-0.0151671
0.0114977
-0.017367
0.014044
-0.0200023
0.0175512
-0.0225676
-0.028024
0.0287355
0.0121563
0.0270198
0.010954
0.0253373
0.0102365
0.0236319
0.00934734
0.0219843
0.00817975
0.0204189
0.00682418
0.0190268
0.00539625
0.0179109
0.0038134
0.0170954
0.0020789
0.0163563
9.32368e-05
0.0158325
-0.00225715
0.0153599
-0.00498504
0.0152341
-0.00772114
0.0154772
-0.0107049
0.0162183
-0.013834
0.017456
-0.0164048
0.019193
-0.0191039
0.0214548
-0.0222641
0.0249509
-0.0260638
0.0293805
-0.0324536
-0.0400927
0.0406646
0.0132914
0.039244
0.0123746
0.0376367
0.0118438
0.035953
0.011031
0.0342687
0.009864
0.0326279
0.00846498
0.0311195
0.00690469
0.0296239
0.00530897
0.0283082
0.00339464
0.0273544
0.00104698
0.0265613
-0.00146403
0.0258576
-0.00428138
0.0253447
-0.00720818
0.0250179
-0.0103781
0.024807
-0.0136231
0.025189
-0.0167869
0.0262752
-0.0201901
0.0281678
-0.0241567
0.0313431
-0.029239
0.0347142
-0.0358248
-0.0419491
0.0498194
0.0141107
0.0486076
0.0135864
0.0471759
0.0132755
0.0456075
0.0125995
0.0439167
0.0115548
0.0421471
0.0102346
0.0403725
0.0086793
0.0388034
0.00687808
0.0373472
0.00485083
0.0358721
0.0025221
0.0345363
-0.000128297
0.033277
-0.00302205
0.0321728
-0.00610398
0.0312814
-0.00948668
0.0307019
-0.0130436
0.0307267
-0.0168117
0.0315481
-0.0210115
0.0333708
-0.0259794
0.0358179
-0.0316861
0.0375237
-0.0375305
-0.042061
0.0573777
0.0156108
0.0557116
0.0152526
0.0540842
0.0149028
0.0524224
0.0142613
0.0506919
0.0132852
0.0489659
0.0119606
0.0472676
0.0103776
0.0456248
0.00852092
0.0439805
0.00649507
0.0422656
0.00423702
0.0406561
0.00148119
0.0392025
-0.00156838
0.0379103
-0.00481182
0.0369372
-0.00851361
0.0364852
-0.0125916
0.0367207
-0.0170472
0.0375639
-0.0218547
0.0387153
-0.0271307
0.0395493
-0.0325201
0.0393971
-0.0373784
-0.040913
0.0611029
0.0168951
-0.0623872
0.0599841
0.0163714
0.0585921
0.0162948
0.0572475
0.0156059
0.0559454
0.0145874
0.0547264
0.0131795
0.0536498
0.0114542
0.0527796
0.00939113
0.0522026
0.00707214
0.0520198
0.00441974
0.0520792
0.00142185
0.0522608
-0.00175
0.0529237
-0.00547467
0.0540022
-0.00959217
0.0553188
-0.0139082
0.0568033
-0.0185317
0.0582585
-0.0233099
0.0592573
-0.0281295
0.0593929
-0.0326557
0.0585492
-0.0365347
0.0568388
-0.0392026
-0.040427
0.0691792
0.0166907
-0.0689749
0.0692848
0.0162659
0.0696596
0.01592
0.0698646
0.0154009
0.0698879
0.0145641
0.0697176
0.0133499
0.0694337
0.011738
0.0690976
0.00972731
0.0688092
0.00736048
0.0685654
0.00466353
0.0682736
0.00171368
0.0683123
-0.00178868
0.0685958
-0.00575821
0.0688842
-0.00988056
0.0691648
-0.0141888
0.0692856
-0.0186526
0.0690471
-0.0230714
0.0681271
-0.0272095
0.0664897
-0.0310183
0.0640377
-0.0340827
0.060859
-0.0360239
-0.0368087
0.0726967
0.0156196
-0.0716256
0.0738591
0.0151035
0.0751333
0.0146459
0.0763602
0.0141739
0.0774379
0.0134865
0.0783027
0.012485
0.0789118
0.011129
0.0792806
0.00935846
0.0794573
0.00718376
0.079521
0.00459987
0.0795853
0.00164936
0.0794908
-0.00169413
0.0791145
-0.00538195
0.0785738
-0.00933981
0.0777529
-0.0133679
0.0765152
-0.0174148
0.074774
-0.0213303
0.0725137
-0.0249492
0.0697361
-0.0282407
0.066523
-0.0308696
0.0631763
-0.0326773
-0.0337521
0.0761538
0.0139284
-0.0744626
0.0774903
0.0137669
0.0787751
0.0133611
0.0801119
0.0128372
0.0814231
0.0121752
0.0826231
0.0112851
0.0836385
0.0101135
0.0844391
0.00855791
0.0850203
0.0066025
0.0853671
0.00425313
0.0854952
0.00152122
0.0852834
-0.00148238
0.0846787
-0.00477717
0.0837109
-0.00837209
0.082376
-0.012033
0.0806366
-0.0156754
0.0785226
-0.0192163
0.0761347
-0.0225612
0.0734922
-0.0255983
0.0707295
-0.0281068
0.0680786
-0.0300264
-0.0313685
0.0803592
0.0126047
-0.0790356
0.0815769
0.0125492
0.0827459
0.0121921
0.0839401
0.011643
0.0851221
0.0109932
0.0862476
0.0101596
0.0872937
0.00906749
0.0881823
0.00766924
0.0888526
0.00593221
0.0892554
0.00385033
0.0893507
0.001426
0.0891285
-0.00126018
0.0885539
-0.00420257
0.0875627
-0.00738091
0.0862208
-0.0106911
0.0845579
-0.0140125
0.0826117
-0.0172702
0.080424
-0.0203735
0.0780005
-0.0231747
0.0754695
-0.0255758
0.0729012
-0.0274582
-0.0288157
0.084936
0.0115067
-0.083838
0.0861337
0.0113515
0.0872985
0.0110273
0.0883969
0.0105446
0.0894705
0.00991951
0.0905088
0.00912134
0.0914669
0.00810931
0.0922891
0.00684713
0.0929115
0.00530973
0.0932925
0.00346938
0.0933792
0.00133926
0.0931806
-0.00106159
0.092659
-0.00368092
0.0917851
-0.00650704
0.0905659
-0.00947187
0.0890376
-0.0124842
0.0872206
-0.0154531
0.0851251
-0.0182781
0.0827844
-0.020834
0.0802777
-0.023069
0.0776955
-0.024876
-0.0261481
0.0896597
0.0102819
-0.0884349
0.0908441
0.0101672
0.0919734
0.00989798
0.0930448
0.00947319
0.0940734
0.00889099
0.095045
0.00814967
0.095929
0.00722531
0.0966804
0.00609572
0.0972564
0.00473378
0.0976104
0.00311533
0.0977137
0.00123596
0.0975362
-0.000884058
0.0970462
-0.0031909
0.0962293
-0.00569015
0.0950765
-0.00831906
0.0935997
-0.0110074
0.0918121
-0.0136656
0.0897332
-0.0161991
0.0874288
-0.0185296
0.0849628
-0.020603
0.0824227
-0.0223359
-0.0236225
0.0944868
0.00912242
-0.0933274
0.0955968
0.00905722
0.0966763
0.00881849
0.0977143
0.00843517
0.0986992
0.00790603
0.0996121
0.00723679
0.10043
0.00640779
0.101119
0.00540599
0.101649
0.00420424
0.101977
0.0027869
0.102074
0.00113923
0.1019
-0.000710232
0.101426
-0.0027162
0.100639
-0.00490327
0.0995312
-0.00721154
0.098108
-0.0095842
0.0963907
-0.0119483
0.0944265
-0.0142349
0.0922815
-0.0163846
0.0900182
-0.0183398
0.0877132
-0.0200309
-0.0213752
0.0996714
0.00813108
-0.09868
0.100701
0.00802784
0.101715
0.0078039
0.102689
0.00746149
0.103601
0.00699383
0.104438
0.00640032
0.105178
0.00566711
0.105801
0.00478324
0.106276
0.00372984
0.106568
0.0024948
0.10664
0.0010665
0.106468
-0.000537481
0.106028
-0.00227708
0.105305
-0.00417979
0.10429
-0.0061963
0.103
-0.00829445
0.101459
-0.0104071
0.099716
-0.0124921
0.0978127
-0.0144813
0.0958072
-0.0163343
0.09375
-0.0179737
-0.0193311
0.105417
0.00719302
-0.104479
0.106356
0.00708874
0.107272
0.00688717
0.108149
0.00658462
0.108969
0.00617428
0.109718
0.00565122
0.110378
0.00500688
0.110931
0.00423086
0.111349
0.00331181
0.111604
0.00223915
0.111667
0.0010037
0.111516
-0.000386419
0.111136
-0.00189722
0.110508
-0.0035514
0.109631
-0.00532
0.108513
-0.00717578
0.107175
-0.00906894
0.105645
-0.0109628
0.103957
-0.0127932
0.102144
-0.0145216
0.100238
-0.0160674
-0.0173724
0.111559
0.00632573
-0.110692
0.112402
0.00624564
0.11322
0.00606935
0.114003
0.00580154
0.114739
0.00543893
0.115411
0.00497936
0.116002
0.00441501
0.116496
0.0037377
0.116869
0.00293856
0.1171
0.00200764
0.117166
0.000938258
0.117049
-0.000269545
0.11673
-0.00157851
0.116198
-0.00301951
0.115447
-0.00456902
0.114478
-0.00620612
0.113302
-0.00789305
0.111933
-0.00959407
0.110396
-0.0112557
0.108705
-0.0128309
0.106895
-0.0142571
-0.0154811
0.117962
0.00556959
-0.117206
0.11872
0.00548751
0.119463
0.00532622
0.120176
0.0050884
0.120846
0.00476922
0.121458
0.00436768
0.121997
0.00387632
0.122445
0.00328884
0.122787
0.00259684
0.123003
0.00179186
0.123073
0.000867688
0.122983
-0.000179527
0.122716
-0.00131071
0.122259
-0.0025633
0.121605
-0.00391448
0.12075
-0.00535138
0.119696
-0.00683904
0.118452
-0.00834979
0.117031
-0.0098348
0.115452
-0.0112519
0.113751
-0.012556
-0.0136956
0.124723
0.00488454
-0.124038
0.12541
0.00479999
0.126085
0.00465158
0.126734
0.00443997
0.127343
0.00416023
0.1279
0.00381072
0.128391
0.00338507
0.128802
0.00287776
0.129117
0.00228141
0.129321
0.00158859
0.129395
0.00079352
0.129325
-0.000110185
0.129099
-0.00108478
0.128704
-0.00216794
0.128129
-0.00333922
0.127367
-0.00459003
0.126419
-0.0058902
0.125287
-0.00721775
0.123983
-0.00853155
0.12253
-0.00979887
0.120959
-0.010985
-0.0120444
0.13196
0.00425567
-0.131331
0.132581
0.00417969
0.133185
0.00404737
0.133765
0.00386005
0.13431
0.00361479
0.13481
0.00331069
0.135253
0.00294251
0.135625
0.00250566
0.135913
0.00199315
0.136102
0.00139928
0.136178
0.000717506
0.136127
-5.9001e-05
0.135937
-0.000894871
0.135595
-0.0018255
0.13509
-0.00283416
0.134414
-0.00391444
0.133565
-0.00504099
0.132546
-0.00619866
0.131367
-0.00735305
0.130049
-0.00848055
0.128617
-0.00955261
-0.010531
0.139704
0.0036943
-0.139143
0.140258
0.0036257
0.140797
0.00350842
0.141314
0.00334365
0.141799
0.00312976
0.142244
0.00286583
0.142638
0.00254837
0.142971
0.00217273
0.14323
0.00173383
0.143404
0.00122556
0.143478
0.000643328
0.143441
-2.20966e-05
0.143281
-0.000734345
0.142984
-0.00152909
0.142543
-0.00239267
0.141946
-0.00331827
0.141194
-0.00428892
0.140287
-0.00529146
0.139234
-0.0063001
0.138051
-0.00729727
0.136755
-0.00825702
-0.00915525
0.147969
0.00319363
-0.147468
0.148464
0.0031306
0.148945
0.00302694
0.149406
0.00288332
0.149837
0.00269808
0.150232
0.00247068
0.150583
0.00219807
0.150879
0.00187663
0.151111
0.00150197
0.151267
0.00106897
0.151337
0.000573942
0.151309
5.57521e-06
0.151172
-0.000597108
0.150915
-0.00127269
0.15053
-0.00200713
0.150008
-0.0027967
0.149347
-0.00362808
0.148547
-0.00449145
0.147616
-0.00536826
0.146561
-0.0062429
0.1454
-0.00709538
-0.00790821
0.156792
0.00274358
-0.156342
0.157235
0.00268799
0.157664
0.00259797
0.158073
0.00247389
0.158457
0.00231463
0.158808
0.00211974
0.159119
0.00188703
0.159382
0.0016133
0.159589
0.0012952
0.15973
0.000928155
0.159794
0.000509367
0.159769
3.09575e-05
0.159653
-0.000480602
0.159431
-0.00105124
0.159097
-0.00167271
0.158643
-0.00234281
0.158066
-0.00305105
0.157365
-0.003791
0.156545
-0.00454802
0.155612
-0.0053096
0.154577
-0.00606017
-0.00678737
0.166221
0.00234317
-0.165821
0.166614
0.00229485
0.166995
0.00221753
0.167358
0.00211111
0.167697
0.00197514
0.168008
0.00180913
0.168283
0.00161169
0.168516
0.0013801
0.1687
0.00111177
0.168825
0.000802734
0.168884
0.000450813
0.168865
4.94151e-05
0.168766
-0.000381449
0.168576
-0.000860923
0.168287
-0.0013842
0.167894
-0.00195002
0.167394
-0.00255031
0.166783
-0.00318076
0.166065
-0.00382995
0.165244
-0.00448855
0.164329
-0.00514456
-0.00578653
0.1763
0.00198967
-0.175947
0.176647
0.00194767
0.176983
0.00188157
0.177304
0.00179097
0.177603
0.00167571
0.177877
0.00153533
0.17812
0.00136896
0.178325
0.00117434
0.178488
0.00094944
0.178599
0.000690963
0.178653
0.000396917
0.17864
6.23107e-05
0.178558
-0.00029869
0.178396
-0.000698991
0.178149
-0.0011373
0.177811
-0.00161201
0.177379
-0.00211817
0.17685
-0.00265161
0.176225
-0.00320493
0.175506
-0.00377023
0.1747
-0.00433852
-0.00489972
0.187082
0.00167801
-0.18677
0.187387
0.00164205
0.187683
0.00158611
0.187964
0.00150969
0.188227
0.00141273
0.188467
0.00129496
0.188681
0.00115575
0.188862
0.000993373
0.189005
0.000806147
0.189104
0.000591405
0.189154
0.000347345
0.189146
7.01864e-05
0.189078
-0.000230262
0.188941
-0.000562584
0.188731
-0.000927214
0.188442
-0.00132316
0.188071
-0.0017469
0.187615
-0.00219549
0.187073
-0.00266336
0.186448
-0.00314485
0.185742
-0.00363287
-0.00411915
0.198623
0.00140438
-0.19835
0.198891
0.00137412
0.19915
0.00132732
0.199396
0.00126357
0.199626
0.00118269
0.199836
0.00108477
0.200023
0.00096911
0.200182
0.000834738
0.200308
0.000679899
0.200396
0.000502912
0.200442
0.000301639
0.200439
7.36888e-05
0.200383
-0.000174573
0.200269
-0.000448467
0.200091
-0.000749677
0.199846
-0.00107754
0.199528
-0.00142958
0.199137
-0.00180405
0.19867
-0.0021962
0.198128
-0.002603
0.197513
-0.00301783
-0.00343548
0.210987
0.00116515
-0.210748
0.211221
0.00114007
0.211447
0.00110139
0.211662
0.00104876
0.211863
0.000981968
0.212046
0.000901265
0.212209
0.000806023
0.212348
0.00069574
0.212459
0.000568779
0.212538
0.000424062
0.21258
0.000259542
0.21258
7.34808e-05
0.212536
-0.000129802
0.212441
-0.00035378
0.212292
-0.000600331
0.212084
-0.000869728
0.211814
-0.00115935
0.211479
-0.00146937
0.211077
-0.00179473
0.210609
-0.00213509
0.210075
-0.00248375
-0.00283852
0.22424
0.0009562
-0.224031
0.224444
0.000935753
0.224641
0.000904264
0.224829
0.000861373
0.225004
0.000806866
0.225164
0.000741071
0.225307
0.000663473
0.225428
0.000573864
0.225526
0.000470841
0.225597
0.000353679
0.225636
0.000220621
0.225639
7.02778e-05
0.225604
-9.44558e-05
0.225525
-0.000275647
0.2254
-0.000475374
0.225225
-0.000694349
0.224996
-0.000930067
0.22471
-0.00118384
0.224366
-0.00145064
0.223963
-0.00173194
0.2235
-0.00202112
-0.00231839
0.238458
0.000773418
-0.238275
0.238636
0.000757122
0.238809
0.000732029
0.238972
0.000697619
0.239125
0.000653861
0.239265
0.000600931
0.23939
0.000538622
0.239498
0.000466703
0.239584
0.00038428
0.239647
0.000290591
0.239683
0.000184503
0.239689
6.45841e-05
0.239662
-6.70053e-05
0.239597
-0.000211579
0.239493
-0.00037106
0.239345
-0.000546592
0.239151
-0.000735755
0.238908
-0.000940306
0.238613
-0.00115594
0.238265
-0.00138454
0.237865
-0.00162071
-0.00186533
0.253725
0.000612774
-0.253564
0.253881
0.000600227
0.254033
0.000580752
0.254177
0.00055381
0.254311
0.0005194
0.254434
0.000477685
0.254544
0.000428565
0.254639
0.000371936
0.254716
0.000307156
0.254773
0.000233686
0.254807
0.000150639
0.254815
5.69173e-05
0.254794
-4.61963e-05
0.254741
-0.000159207
0.254654
-0.000284088
0.25453
-0.000421978
0.254365
-0.0005708
0.254157
-0.000732288
0.253904
-0.000902872
0.253604
-0.00108461
0.253256
-0.00127321
-0.00146988
0.270138
0.000470401
-0.269996
0.270277
0.000461149
0.270411
0.000446658
0.270539
0.000426256
0.270658
0.000400097
0.270767
0.000368182
0.270865
0.000330613
0.27095
0.000287265
0.271019
0.000237797
0.271071
0.000181822
0.271103
0.000118689
0.271113
4.76337e-05
0.271097
-3.07569e-05
0.271054
-0.000116347
0.270981
-0.00021128
0.270876
-0.000316239
0.270735
-0.000429931
0.270556
-0.000553314
0.270337
-0.000684121
0.270076
-0.000823771
0.269773
-0.000969643
-0.00112241
0.287808
0.000342334
-0.28768
0.287933
0.000336026
0.288054
0.00032585
0.288169
0.000311307
0.288277
0.000292404
0.288376
0.00026929
0.288464
0.00024191
0.288541
0.000210404
0.288605
0.000174407
0.288653
0.000133869
0.288683
8.82413e-05
0.288694
3.70242e-05
0.288682
-1.947e-05
0.288647
-8.11126e-05
0.288585
-0.000149464
0.288495
-0.000225558
0.288372
-0.000307734
0.288217
-0.000397424
0.288025
-0.000492179
0.287795
-0.000594033
0.287526
-0.000700731
-0.000813088
0.306864
0.00022451
-0.306747
0.30698
0.000220692
0.307091
0.000214323
0.307198
0.000204963
0.307297
0.000192669
0.307389
0.000177504
0.307471
0.000159506
0.307543
0.000138755
0.307602
0.000115118
0.307648
8.85445e-05
0.307677
5.87925e-05
0.307689
2.54468e-05
0.307681
-1.12947e-05
0.307651
-5.13495e-05
0.307597
-9.58518e-05
0.307517
-0.000145561
0.307409
-0.00019928
0.307269
-0.000257897
0.307097
-0.000319925
0.30689
-0.000386633
0.306646
-0.000457061
-0.000531256
0.327459
0.000112028
-0.327346
0.327569
0.000110639
0.327676
0.000107133
0.327778
0.000103115
0.327874
9.63753e-05
0.327962
8.95384e-05
0.328042
7.9776e-05
0.32811
7.01385e-05
0.328168
5.761e-05
0.328212
4.48524e-05
0.328241
2.96454e-05
0.328253
1.2975e-05
0.328247
-4.99803e-06
0.328221
-2.57656e-05
0.328172
-4.66137e-05
0.3281
-7.31606e-05
0.327998
-9.77945e-05
0.32787
-0.000129222
0.327708
-0.000157962
0.327514
-0.000193076
0.327284
-0.000227479
-0.0002649
0.349779
-0.349667
0.34989
0.349997
0.3501
0.350196
0.350286
0.350366
0.350436
0.350493
0.350538
0.350568
0.350581
0.350576
0.35055
0.350504
0.35043
0.350333
0.350203
0.350045
0.349852
0.349625
0.0546201
0.0463384
0.0530069
0.0505242
0.0581168
0.051623
0.0624236
0.0626418
0.0649281
0.0609322
0.0415768
0.0610256
0.0504308
0.0625267
0.050122
0.0675173
0.0576511
0.0634705
0.0638702
0.0393484
0.0665653
0.0477357
0.065943
0.0507442
0.0689142
0.0546799
0.0607591
0.0665062
0.0695831
0.0446588
0.0701261
0.0502012
0.0718933
0.0529127
0.0581899
0.0732421
0.0422545
0.0753908
0.0480525
0.077014
0.0512895
0.0561683
0.077968
0.0405517
0.0800655
0.0459549
0.0818716
0.0494834
0.054202
0.0824329
0.0390815
0.084279
0.0441089
0.0862861
0.0474763
0.0520531
0.0874314
0.0375684
0.0892351
0.0423052
0.0911696
0.0455419
0.0498953
0.0931895
0.0360498
0.0949157
0.040579
0.0966552
0.0438024
0.0478704
0.099123
0.0345845
0.100819
0.0388834
0.102535
0.0420864
0.0459265
0.10524
0.0330938
0.106968
0.0371558
0.108746
0.0403078
0.0439808
0.111746
0.0315756
0.11346
0.0354418
0.115247
0.0385216
0.0420213
0.118635
0.0300757
0.120318
0.0337591
0.122086
0.0367534
0.0400692
0.125943
0.0285804
0.127624
0.0320781
0.129391
0.034986
0.0381288
0.133741
0.0270725
0.135427
0.0303927
0.137203
0.0332098
0.0361886
0.142038
0.025558
0.143725
0.0287058
0.145516
0.0314195
0.0342362
0.150863
0.0240355
0.152559
0.0270093
0.15437
0.0296084
0.032264
0.160269
0.0224969
0.161984
0.0252949
0.163821
0.0277705
0.0302645
0.170301
0.0209374
0.172039
0.0235569
0.173911
0.0258987
0.0282284
0.181004
0.0193516
0.182773
0.0217873
0.184688
0.0239843
0.026146
0.192434
0.0177314
0.194245
0.0199769
0.196211
0.0220182
0.0240072
0.204653
0.0160686
0.206513
0.0181163
0.208541
0.0199903
0.0218007
0.217722
0.0143543
0.219644
0.0161951
0.221744
0.0178894
0.0195141
0.231717
0.012579
0.233709
0.0142022
0.235895
0.0157037
0.0171343
0.246717
0.0107326
0.248794
0.0121261
0.251077
0.0134204
0.0146472
0.262819
0.00880403
0.264991
0.00995387
0.267386
0.0110259
0.0120373
0.280127
0.0067811
0.282409
0.00767185
0.284931
0.00850471
0.00928778
0.298766
0.00465033
0.301174
0.00526445
0.303838
0.00584001
0.00637962
0.31888
0.00239614
0.321431
0.00271408
0.324258
0.00301233
0.00329185
0.340649
0.343363
0.346375
)
;

boundaryField
{
    outlet
    {
        type            calculated;
        value           nonuniform 0();
    }
    upperWall
    {
        type            symmetryPlane;
        value           uniform 0;
    }
    lowerWall
    {
        type            symmetryPlane;
        value           nonuniform 0();
    }
    inlet
    {
        type            calculated;
        value           nonuniform 0();
    }
    cylinder
    {
        type            calculated;
        value           nonuniform 0();
    }
    frontAndBack
    {
        type            empty;
        value           nonuniform 0();
    }
    procBoundary6to2
    {
        type            processor;
        value           nonuniform List<scalar> 
37
(
0.000300192
0.000311631
0.000315196
0.000311863
0.000302585
0.000288209
0.000269355
0.000246329
0.000219721
0.000189826
0.000157221
0.000122145
8.43371e-05
4.25698e-05
-3.85746e-06
-4.59473e-05
-9.23394e-05
-0.000198729
-0.000286259
-0.000374958
-0.000474014
-0.000571714
-0.000684668
-0.000788548
-0.000897014
-0.000976711
-0.00106561
-0.00110405
-0.00117673
-0.00119458
-0.00123151
-0.00119379
-0.00113893
-0.000961828
-0.000770547
-0.00031885
0.000441368
)
;
    }
    procBoundary6to5
    {
        type            processor;
        value           nonuniform List<scalar> 
63
(
-0.0163473
0.000829246
-0.00275417
-0.00471764
-0.0237765
-0.0123359
-0.0151555
-0.0429606
-0.0226271
-0.0239586
-0.0254607
-0.0447641
-0.0270555
-0.0288564
-0.0304101
-0.0481944
0.00721481
0.00220066
0.00835956
0.00645806
0.00432639
0.00207999
0.00799937
0.000118508
0.00810924
-0.00274559
0.00756265
-0.00615955
0.0061447
-0.0100226
0.0043717
-0.0141229
-0.0527641
-0.0561707
-0.0616417
-0.0664277
0.0392698
-0.0708378
-0.0762652
-0.0809627
-0.0859183
-0.0916709
-0.0976577
-0.103749
-0.110228
-0.117135
-0.124447
-0.132233
-0.140524
-0.14934
-0.15873
-0.168741
-0.179418
-0.190814
-0.20299
-0.216008
-0.229941
-0.244871
-0.26089
-0.278104
-0.296635
-0.316626
-0.338253
)
;
    }
    procBoundary6to7
    {
        type            processor;
        value           nonuniform List<scalar> 
42
(
-0.0379495
-0.023573
-0.0086297
0.00331358
0.0135405
0.0222344
0.0364931
0.0329801
0.0365706
0.0376355
0.0382491
0.0428884
0.0543773
0.0572408
0.0601197
0.065695
0.0703484
0.0750279
0.0798972
0.0854659
0.0917059
0.0982794
0.105003
0.111965
0.119308
0.127103
0.13538
0.144153
0.153456
0.163328
0.173813
0.184962
0.196829
0.209478
0.22298
0.237412
0.252861
0.269425
0.287217
0.306364
0.327018
0.34936
)
;
    }
}


// ************************************************************************* //
