/*--------------------------------*- C++ -*----------------------------------*\
| =========                 |                                                 |
| \\      /  F ield         | OpenFOAM: The Open Source CFD Toolbox           |
|  \\    /   O peration     | Version:                                        |
|   \\  /    A nd           | Website:  www.openfoam.com                      |
|    \\/     M anipulation  |                                                 |
\*---------------------------------------------------------------------------*/
FoamFile
{
    version     2.0;
    format      ascii;
    class       volScalarField;
    location    "0.7";
    object      p;
}
// * * * * * * * * * * * * * * * * * * * * * * * * * * * * * * * * * * * * * //

dimensions      [0 2 -2 0 0 0 0];


internalField   nonuniform List<scalar> 
400
(
0.726489
0.723555
0.716924
0.706924
0.694499
0.680394
0.665174
0.64932
0.633218
0.617148
0.601306
0.585821
0.570772
0.5562
0.54212
0.528528
0.515406
0.502731
0.490473
0.478602
0.727446
0.724439
0.717653
0.707456
0.694842
0.680573
0.665221
0.649268
0.633096
0.61698
0.60111
0.585611
0.570558
0.55599
0.541918
0.528336
0.515226
0.502563
0.490318
0.47846
0.729383
0.726225
0.719118
0.708519
0.69552
0.680922
0.665307
0.649155
0.632844
0.616637
0.600713
0.585188
0.570128
0.555567
0.541511
0.527951
0.514866
0.502228
0.490009
0.478175
0.732349
0.72895
0.721334
0.710109
0.696519
0.681422
0.665409
0.648963
0.632445
0.616105
0.600103
0.584541
0.569475
0.554927
0.540897
0.527371
0.514324
0.501726
0.489546
0.47775
0.736422
0.73267
0.724322
0.712216
0.697815
0.682043
0.665499
0.648661
0.631875
0.615364
0.599265
0.58366
0.56859
0.554063
0.540072
0.526594
0.5136
0.501058
0.488932
0.477188
0.741717
0.737465
0.728107
0.714826
0.699374
0.682741
0.665531
0.648212
0.631101
0.614386
0.598177
0.582529
0.567461
0.55297
0.539033
0.52562
0.512698
0.500227
0.488171
0.476494
0.748391
0.743442
0.732715
0.717911
0.701143
0.683456
0.665447
0.647562
0.630078
0.613139
0.596815
0.58113
0.56608
0.551641
0.537779
0.524453
0.511621
0.499242
0.487274
0.47568
0.756668
0.750737
0.738169
0.721427
0.70305
0.68411
0.665172
0.646647
0.628757
0.611584
0.595152
0.579448
0.564438
0.550078
0.536316
0.523101
0.510384
0.498117
0.486255
0.474761
0.766852
0.759521
0.744481
0.725301
0.704998
0.684598
0.66461
0.645391
0.627079
0.609683
0.593166
0.577473
0.562538
0.548289
0.534659
0.521585
0.509007
0.496875
0.485139
0.47376
0.779375
0.770004
0.751631
0.729421
0.706848
0.684787
0.66365
0.643708
0.624988
0.607401
0.590845
0.575212
0.560396
0.546301
0.53284
0.519937
0.507526
0.49555
0.483958
0.472709
0.794847
0.782429
0.759552
0.733616
0.708419
0.68451
0.662161
0.641513
0.622437
0.604728
0.588201
0.572692
0.558054
0.544161
0.530908
0.518208
0.505988
0.494187
0.482753
0.471645
0.814158
0.797065
0.768081
0.737635
0.709472
0.683574
0.660015
0.638739
0.619412
0.601685
0.585283
0.569978
0.555581
0.541939
0.528931
0.516461
0.504451
0.492837
0.48157
0.470607
0.838632
0.814174
0.776904
0.741114
0.709709
0.681771
0.657106
0.635369
0.615955
0.598352
0.582189
0.567173
0.553077
0.539728
0.526993
0.514769
0.502977
0.491554
0.480453
0.469634
0.870302
0.833944
0.785475
0.743558
0.708791
0.678924
0.653405
0.631471
0.612187
0.594871
0.57906
0.564408
0.55066
0.537628
0.525175
0.513198
0.50162
0.490382
0.479438
0.468752
0.912215
0.856345
0.792919
0.744353
0.706396
0.674962
0.649013
0.627228
0.60831
0.591432
0.576062
0.561819
0.548436
0.535722
0.523542
0.511798
0.500418
0.489346
0.478543
0.467976
0.968498
0.880788
0.797977
0.742914
0.702409
0.670047
0.644211
0.622924
0.604568
0.588228
0.573338
0.55951
0.546477
0.534058
0.522125
0.510587
0.499378
0.48845
0.477767
0.467301
1.04469
0.905886
0.799081
0.738934
0.697079
0.664602
0.639388
0.618845
0.601155
0.58538
0.570958
0.557513
0.544795
0.532633
0.520911
0.509548
0.498483
0.487675
0.477092
0.466709
1.15278
0.930421
0.794518
0.732013
0.690499
0.658823
0.634648
0.615004
0.598027
0.582815
0.568836
0.555742
0.543304
0.531368
0.519831
0.508617
0.497676
0.486971
0.476472
0.466161
1.31939
0.953902
0.781878
0.71997
0.681213
0.651805
0.629315
0.610854
0.594734
0.580156
0.566656
0.55393
0.54178
0.530073
0.518719
0.507655
0.496837
0.486232
0.475818
0.465577
1.53898
0.969751
0.760556
0.701757
0.668647
0.643288
0.623208
0.606247
0.591146
0.577293
0.564325
0.552002
0.540162
0.528699
0.517539
0.506632
0.495941
0.485441
0.475113
0.464945
)
;

boundaryField
{
    fixedWalls
    {
        type            zeroGradient;
    }
    inlet
    {
        type            zeroGradient;
    }
    outlet
    {
        type            fixedValue;
        value           nonuniform 0();
    }
    frontAndBack
    {
        type            empty;
    }
    procBoundary4to0
    {
        type            processor;
        value           nonuniform List<scalar> 
20
(
0.72649
0.723555
0.716924
0.706924
0.694499
0.680394
0.665174
0.64932
0.633218
0.617148
0.601306
0.585821
0.570772
0.5562
0.54212
0.528528
0.515406
0.502731
0.490473
0.478602
)
;
    }
    procBoundary4to5
    {
        type            processor;
        value           nonuniform List<scalar> 
20
(
0.467089
0.466958
0.466696
0.466307
0.465794
0.465163
0.464425
0.463597
0.462701
0.461767
0.460826
0.459916
0.459065
0.458297
0.457621
0.45703
0.456509
0.456021
0.455496
0.454925
)
;
    }
}


// ************************************************************************* //
