/*--------------------------------*- C++ -*----------------------------------*\
| =========                 |                                                 |
| \\      /  F ield         | OpenFOAM: The Open Source CFD Toolbox           |
|  \\    /   O peration     | Version:                                        |
|   \\  /    A nd           | Website:  www.openfoam.com                      |
|    \\/     M anipulation  |                                                 |
\*---------------------------------------------------------------------------*/
FoamFile
{
    version     2.0;
    format      ascii;
    class       volScalarField;
    location    "563";
    object      p;
}
// * * * * * * * * * * * * * * * * * * * * * * * * * * * * * * * * * * * * * //

dimensions      [0 2 -2 0 0 0 0];


internalField   nonuniform List<scalar> 
1250
(
0.41597
0.414105
0.412242
0.410382
0.408524
0.406668
0.404815
0.402964
0.401115
0.399269
0.397424
0.395582
0.393743
0.391905
0.39007
0.388237
0.386406
0.384578
0.382751
0.380927
0.379105
0.377285
0.375467
0.373651
0.371837
0.370025
0.368216
0.366408
0.364603
0.362799
0.360998
0.359198
0.357401
0.355605
0.353812
0.35202
0.35023
0.348443
0.346657
0.344873
0.343091
0.341311
0.339533
0.337756
0.335982
0.334209
0.332439
0.33067
0.328902
0.327137
0.325374
0.323612
0.321852
0.320094
0.318337
0.316582
0.31483
0.313078
0.311329
0.309581
0.307835
0.30609
0.304348
0.302607
0.300867
0.29913
0.297393
0.295659
0.293926
0.292195
0.290465
0.288737
0.287011
0.285286
0.283563
0.281841
0.280121
0.278403
0.276686
0.27497
0.273256
0.271544
0.269833
0.268124
0.266416
0.26471
0.263005
0.261301
0.259599
0.257899
0.2562
0.254502
0.252806
0.251112
0.249418
0.247726
0.246036
0.244347
0.242659
0.240973
0.239288
0.237605
0.235923
0.234242
0.232563
0.230885
0.229208
0.227533
0.225859
0.224186
0.222515
0.220845
0.219176
0.217509
0.215843
0.214178
0.212514
0.210852
0.209191
0.207532
0.205873
0.204216
0.20256
0.200905
0.199252
0.415949
0.414084
0.412221
0.410361
0.408503
0.406647
0.404794
0.402943
0.401095
0.399249
0.397405
0.395563
0.393723
0.391886
0.390051
0.388218
0.386387
0.384559
0.382733
0.380909
0.379086
0.377267
0.375449
0.373633
0.37182
0.370008
0.368199
0.366391
0.364586
0.362782
0.360981
0.359182
0.357384
0.355589
0.353796
0.352004
0.350215
0.348427
0.346641
0.344858
0.343076
0.341296
0.339518
0.337742
0.335967
0.334195
0.332424
0.330655
0.328888
0.327123
0.32536
0.323598
0.321838
0.32008
0.318324
0.316569
0.314816
0.313065
0.311316
0.309568
0.307822
0.306078
0.304335
0.302594
0.300855
0.299117
0.297381
0.295647
0.293914
0.292183
0.290453
0.288725
0.286999
0.285274
0.283551
0.28183
0.28011
0.278391
0.276674
0.274959
0.273245
0.271533
0.269822
0.268113
0.266405
0.264699
0.262994
0.261291
0.259589
0.257889
0.25619
0.254492
0.252796
0.251101
0.249408
0.247717
0.246026
0.244337
0.24265
0.240964
0.239279
0.237595
0.235913
0.234233
0.232554
0.230876
0.229199
0.227524
0.22585
0.224177
0.222506
0.220836
0.219167
0.2175
0.215834
0.214169
0.212506
0.210844
0.209183
0.207523
0.205865
0.204208
0.202552
0.200897
0.199244
0.415929
0.414064
0.412202
0.410342
0.408484
0.406629
0.404776
0.402925
0.401077
0.399231
0.397387
0.395545
0.393706
0.391869
0.390034
0.388201
0.386371
0.384542
0.382716
0.380892
0.37907
0.37725
0.375433
0.373617
0.371804
0.369992
0.368183
0.366376
0.364571
0.362767
0.360966
0.359167
0.35737
0.355574
0.353781
0.35199
0.3502
0.348413
0.346627
0.344844
0.343062
0.341282
0.339504
0.337728
0.335954
0.334182
0.332411
0.330642
0.328875
0.32711
0.325347
0.323585
0.321826
0.320068
0.318311
0.316557
0.314804
0.313053
0.311304
0.309556
0.30781
0.306066
0.304324
0.302583
0.300843
0.299106
0.29737
0.295636
0.293903
0.292172
0.290443
0.288715
0.286989
0.285264
0.283541
0.28182
0.2801
0.278381
0.276664
0.274949
0.273235
0.271523
0.269812
0.268103
0.266396
0.264689
0.262985
0.261281
0.25958
0.257879
0.25618
0.254483
0.252787
0.251093
0.249399
0.247708
0.246017
0.244329
0.242641
0.240955
0.23927
0.237587
0.235905
0.234224
0.232545
0.230867
0.229191
0.227516
0.225842
0.224169
0.222498
0.220828
0.21916
0.217492
0.215826
0.214162
0.212498
0.210836
0.209175
0.207516
0.205857
0.2042
0.202545
0.20089
0.199237
0.415912
0.414047
0.412185
0.410325
0.408468
0.406612
0.40476
0.402909
0.401061
0.399215
0.397371
0.39553
0.39369
0.391853
0.390019
0.388186
0.386356
0.384528
0.382702
0.380878
0.379056
0.377236
0.375419
0.373603
0.37179
0.369979
0.36817
0.366362
0.364557
0.362754
0.360953
0.359154
0.357357
0.355562
0.353769
0.351977
0.350188
0.348401
0.346615
0.344832
0.34305
0.34127
0.339493
0.337717
0.335942
0.33417
0.3324
0.330631
0.328864
0.327099
0.325336
0.323575
0.321815
0.320057
0.318301
0.316546
0.314794
0.313043
0.311294
0.309546
0.3078
0.306056
0.304314
0.302573
0.300834
0.299096
0.29736
0.295626
0.293894
0.292163
0.290433
0.288706
0.286979
0.285255
0.283532
0.281811
0.280091
0.278372
0.276656
0.27494
0.273227
0.271515
0.269804
0.268095
0.266387
0.264681
0.262976
0.261273
0.259572
0.257871
0.256172
0.254475
0.252779
0.251085
0.249392
0.2477
0.24601
0.244321
0.242634
0.240948
0.239263
0.23758
0.235898
0.234217
0.232538
0.23086
0.229184
0.227509
0.225835
0.224162
0.222491
0.220821
0.219153
0.217486
0.21582
0.214155
0.212492
0.21083
0.209169
0.207509
0.205851
0.204194
0.202538
0.200884
0.19923
0.415897
0.414033
0.412171
0.410311
0.408453
0.406598
0.404746
0.402895
0.401047
0.399201
0.397358
0.395516
0.393677
0.39184
0.390006
0.388173
0.386343
0.384515
0.382689
0.380865
0.379044
0.377224
0.375407
0.373591
0.371778
0.369967
0.368158
0.366351
0.364546
0.362743
0.360942
0.359143
0.357346
0.355551
0.353758
0.351967
0.350177
0.34839
0.346605
0.344821
0.34304
0.34126
0.339482
0.337707
0.335932
0.33416
0.33239
0.330621
0.328855
0.32709
0.325326
0.323565
0.321805
0.320048
0.318292
0.316537
0.314785
0.313034
0.311285
0.309537
0.307791
0.306047
0.304305
0.302564
0.300825
0.299088
0.297352
0.295618
0.293885
0.292154
0.290425
0.288698
0.286971
0.285247
0.283524
0.281803
0.280083
0.278365
0.276648
0.274933
0.273219
0.271507
0.269797
0.268087
0.26638
0.264674
0.262969
0.261266
0.259564
0.257864
0.256165
0.254468
0.252772
0.251078
0.249385
0.247693
0.246003
0.244314
0.242627
0.240941
0.239256
0.237573
0.235891
0.234211
0.232532
0.230854
0.229177
0.227502
0.225829
0.224156
0.222485
0.220815
0.219147
0.21748
0.215814
0.214149
0.212486
0.210824
0.209163
0.207503
0.205845
0.204188
0.202533
0.200878
0.199225
0.415884
0.41402
0.412158
0.410298
0.408441
0.406586
0.404733
0.402883
0.401035
0.399189
0.397346
0.395505
0.393666
0.391829
0.389994
0.388162
0.386332
0.384504
0.382678
0.380854
0.379033
0.377213
0.375396
0.373581
0.371768
0.369957
0.368148
0.366341
0.364536
0.362733
0.360932
0.359133
0.357336
0.355541
0.353748
0.351957
0.350168
0.348381
0.346595
0.344812
0.343031
0.341251
0.339473
0.337698
0.335924
0.334151
0.332381
0.330613
0.328846
0.327081
0.325318
0.323557
0.321797
0.320039
0.318283
0.316529
0.314776
0.313026
0.311277
0.309529
0.307783
0.306039
0.304297
0.302556
0.300817
0.29908
0.297344
0.29561
0.293878
0.292147
0.290418
0.28869
0.286964
0.28524
0.283517
0.281796
0.280076
0.278358
0.276641
0.274926
0.273212
0.2715
0.26979
0.268081
0.266373
0.264667
0.262963
0.261259
0.259558
0.257858
0.256159
0.254462
0.252766
0.251071
0.249379
0.247687
0.245997
0.244308
0.242621
0.240935
0.23925
0.237567
0.235885
0.234205
0.232526
0.230848
0.229172
0.227497
0.225823
0.22415
0.222479
0.22081
0.219141
0.217474
0.215808
0.214144
0.21248
0.210818
0.209158
0.207498
0.20584
0.204183
0.202527
0.200873
0.19922
0.415873
0.414008
0.412146
0.410287
0.40843
0.406575
0.404722
0.402872
0.401024
0.399178
0.397335
0.395494
0.393655
0.391818
0.389984
0.388152
0.386321
0.384494
0.382668
0.380844
0.379023
0.377203
0.375386
0.373571
0.371758
0.369947
0.368138
0.366331
0.364526
0.362723
0.360922
0.359124
0.357327
0.355532
0.353739
0.351948
0.350159
0.348372
0.346587
0.344803
0.343022
0.341242
0.339465
0.337689
0.335915
0.334143
0.332373
0.330604
0.328838
0.327073
0.32531
0.323548
0.321789
0.320031
0.318275
0.316521
0.314769
0.313018
0.311269
0.309521
0.307776
0.306032
0.304289
0.302549
0.30081
0.299073
0.297337
0.295603
0.293871
0.29214
0.290411
0.288683
0.286957
0.285233
0.28351
0.281789
0.280069
0.278351
0.276634
0.274919
0.273206
0.271494
0.269783
0.268074
0.266367
0.264661
0.262956
0.261253
0.259551
0.257851
0.256153
0.254455
0.25276
0.251065
0.249372
0.247681
0.245991
0.244302
0.242615
0.240929
0.239244
0.237561
0.235879
0.234199
0.23252
0.230842
0.229166
0.227491
0.225817
0.224145
0.222474
0.220804
0.219136
0.217468
0.215803
0.214138
0.212475
0.210813
0.209152
0.207493
0.205835
0.204178
0.202522
0.200867
0.199214
0.415861
0.413996
0.412135
0.410275
0.408418
0.406563
0.404711
0.402861
0.401013
0.399167
0.397324
0.395483
0.393644
0.391807
0.389973
0.388141
0.386311
0.384483
0.382657
0.380834
0.379012
0.377193
0.375376
0.373561
0.371748
0.369937
0.368128
0.366321
0.364516
0.362714
0.360913
0.359114
0.357317
0.355522
0.35373
0.351939
0.35015
0.348363
0.346577
0.344794
0.343013
0.341233
0.339456
0.33768
0.335906
0.334134
0.332364
0.330596
0.328829
0.327064
0.325301
0.32354
0.321781
0.320023
0.318267
0.316513
0.31476
0.31301
0.311261
0.309513
0.307768
0.306024
0.304282
0.302541
0.300802
0.299065
0.297329
0.295595
0.293863
0.292132
0.290403
0.288675
0.28695
0.285225
0.283502
0.281781
0.280062
0.278343
0.276627
0.274912
0.273198
0.271486
0.269776
0.268067
0.26636
0.264654
0.262949
0.261246
0.259544
0.257844
0.256146
0.254449
0.252753
0.251059
0.249366
0.247674
0.245984
0.244295
0.242608
0.240922
0.239238
0.237555
0.235873
0.234193
0.232514
0.230836
0.22916
0.227485
0.225811
0.224139
0.222468
0.220798
0.21913
0.217462
0.215797
0.214132
0.212469
0.210807
0.209146
0.207487
0.205829
0.204172
0.202516
0.200862
0.199209
0.415846
0.413982
0.41212
0.410261
0.408404
0.406549
0.404697
0.402847
0.400999
0.399153
0.39731
0.395469
0.393631
0.391794
0.38996
0.388128
0.386298
0.38447
0.382644
0.380821
0.379
0.37718
0.375363
0.373548
0.371735
0.369924
0.368116
0.366309
0.364504
0.362701
0.360901
0.359102
0.357305
0.355511
0.353718
0.351927
0.350138
0.348351
0.346566
0.344783
0.343001
0.341222
0.339444
0.337669
0.335895
0.334123
0.332353
0.330585
0.328818
0.327053
0.32529
0.323529
0.32177
0.320012
0.318256
0.316502
0.31475
0.312999
0.31125
0.309503
0.307758
0.306014
0.304272
0.302531
0.300792
0.299055
0.297319
0.295585
0.293853
0.292122
0.290393
0.288666
0.28694
0.285216
0.283493
0.281772
0.280052
0.278334
0.276618
0.274903
0.273189
0.271477
0.269767
0.268058
0.266351
0.264645
0.26294
0.261237
0.259536
0.257836
0.256137
0.25444
0.252744
0.25105
0.249357
0.247666
0.245976
0.244287
0.2426
0.240914
0.23923
0.237546
0.235865
0.234184
0.232505
0.230828
0.229152
0.227477
0.225803
0.224131
0.22246
0.22079
0.219122
0.217455
0.215789
0.214124
0.212461
0.210799
0.209139
0.207479
0.205821
0.204164
0.202509
0.200854
0.199201
0.415831
0.413967
0.412105
0.410246
0.408389
0.406535
0.404682
0.402832
0.400985
0.399139
0.397296
0.395455
0.393617
0.39178
0.389946
0.388114
0.386284
0.384456
0.382631
0.380808
0.378986
0.377167
0.37535
0.373535
0.371722
0.369912
0.368103
0.366296
0.364492
0.362689
0.360888
0.35909
0.357293
0.355498
0.353706
0.351915
0.350126
0.348339
0.346554
0.344771
0.34299
0.34121
0.339433
0.337657
0.335884
0.334112
0.332342
0.330573
0.328807
0.327042
0.325279
0.323518
0.321759
0.320001
0.318246
0.316492
0.314739
0.312989
0.31124
0.309493
0.307747
0.306003
0.304261
0.302521
0.300782
0.299045
0.297309
0.295575
0.293843
0.292112
0.290383
0.288656
0.28693
0.285206
0.283483
0.281762
0.280043
0.278325
0.276608
0.274893
0.27318
0.271468
0.269758
0.268049
0.266341
0.264635
0.262931
0.261228
0.259527
0.257827
0.256128
0.254431
0.252735
0.251041
0.249348
0.247657
0.245967
0.244278
0.242591
0.240905
0.239221
0.237538
0.235856
0.234176
0.232497
0.230819
0.229143
0.227468
0.225795
0.224122
0.222452
0.220782
0.219114
0.217447
0.215781
0.214116
0.212453
0.210791
0.209131
0.207471
0.205813
0.204157
0.202501
0.200847
0.199194
)
;

boundaryField
{
    inlet
    {
        type            zeroGradient;
    }
    outlet
    {
        type            fixedValue;
        value           nonuniform 0();
    }
    wall
    {
        type            zeroGradient;
    }
    back
    {
        type            wedge;
    }
    front
    {
        type            wedge;
    }
    axis
    {
        type            empty;
    }
    procBoundary6to2
    {
        type            processor;
        value           nonuniform List<scalar> 
125
(
0.415993
0.414128
0.412265
0.410404
0.408546
0.40669
0.404837
0.402985
0.401136
0.39929
0.397445
0.395603
0.393763
0.391926
0.39009
0.388257
0.386426
0.384597
0.382771
0.380946
0.379124
0.377304
0.375486
0.37367
0.371856
0.370044
0.368234
0.366426
0.364621
0.362817
0.361015
0.359216
0.357418
0.355623
0.353829
0.352037
0.350247
0.34846
0.346674
0.34489
0.343108
0.341327
0.339549
0.337773
0.335998
0.334225
0.332454
0.330685
0.328918
0.327152
0.325389
0.323627
0.321867
0.320108
0.318352
0.316597
0.314844
0.313093
0.311343
0.309595
0.307849
0.306104
0.304362
0.30262
0.300881
0.299143
0.297407
0.295672
0.293939
0.292208
0.290478
0.28875
0.287024
0.285299
0.283576
0.281854
0.280134
0.278415
0.276698
0.274983
0.273269
0.271556
0.269845
0.268136
0.266428
0.264721
0.263016
0.261313
0.259611
0.25791
0.256211
0.254514
0.252817
0.251123
0.249429
0.247737
0.246047
0.244358
0.24267
0.240984
0.239299
0.237615
0.235933
0.234252
0.232573
0.230895
0.229218
0.227543
0.225869
0.224196
0.222525
0.220855
0.219186
0.217518
0.215852
0.214187
0.212524
0.210861
0.2092
0.207541
0.205882
0.204225
0.202569
0.200914
0.199261
)
;
    }
    procBoundary6to5
    {
        type            processor;
        value           nonuniform List<scalar> 10(0.417838 0.417816 0.417796 0.417779 0.417764 0.417751 0.417739 0.417727 0.417713 0.417697);
    }
    procBoundary6to7
    {
        type            processor;
        value           nonuniform List<scalar> 10(0.1976 0.197592 0.197585 0.197578 0.197573 0.197568 0.197562 0.197557 0.197549 0.197542);
    }
}


// ************************************************************************* //
