/*--------------------------------*- C++ -*----------------------------------*\
| =========                 |                                                 |
| \\      /  F ield         | OpenFOAM: The Open Source CFD Toolbox           |
|  \\    /   O peration     | Version:                                        |
|   \\  /    A nd           | Website:  www.openfoam.com                      |
|    \\/     M anipulation  |                                                 |
\*---------------------------------------------------------------------------*/
FoamFile
{
    version     2.0;
    format      ascii;
    class       surfaceScalarField;
    location    "563";
    object      phi;
}
// * * * * * * * * * * * * * * * * * * * * * * * * * * * * * * * * * * * * * //

dimensions      [0 3 -1 0 0 0 0];
oriented        oriented;


internalField   nonuniform List<scalar> 
2365
(
1.31083e-05
-3.60321e-08
1.31099e-05
-3.58428e-08
1.31115e-05
-3.56549e-08
1.3113e-05
-3.54684e-08
1.31145e-05
-3.52834e-08
1.3116e-05
-3.50998e-08
1.31175e-05
-3.49175e-08
1.31189e-05
-3.47366e-08
1.31204e-05
-3.45571e-08
1.31218e-05
-3.43789e-08
1.31232e-05
-3.42021e-08
1.31246e-05
-3.40266e-08
1.3126e-05
-3.38524e-08
1.31273e-05
-3.36794e-08
1.31286e-05
-3.35078e-08
1.313e-05
-3.33374e-08
1.31313e-05
-3.31683e-08
1.31326e-05
-3.30005e-08
1.31338e-05
-3.28338e-08
1.31351e-05
-3.26684e-08
1.31363e-05
-3.25042e-08
1.31375e-05
-3.23412e-08
1.31387e-05
-3.21793e-08
1.31399e-05
-3.20187e-08
1.31411e-05
-3.18592e-08
1.31423e-05
-3.17008e-08
1.31434e-05
-3.15436e-08
1.31446e-05
-3.13875e-08
1.31457e-05
-3.12325e-08
1.31468e-05
-3.10787e-08
1.31479e-05
-3.09259e-08
1.3149e-05
-3.07742e-08
1.315e-05
-3.06236e-08
1.31511e-05
-3.0474e-08
1.31521e-05
-3.03255e-08
1.31532e-05
-3.01781e-08
1.31542e-05
-3.00317e-08
1.31552e-05
-2.98863e-08
1.31562e-05
-2.97419e-08
1.31572e-05
-2.95985e-08
1.31581e-05
-2.94561e-08
1.31591e-05
-2.93147e-08
1.316e-05
-2.91743e-08
1.31609e-05
-2.90348e-08
1.31619e-05
-2.88963e-08
1.31628e-05
-2.87588e-08
1.31637e-05
-2.86222e-08
1.31646e-05
-2.84865e-08
1.31654e-05
-2.83517e-08
1.31663e-05
-2.82179e-08
1.31672e-05
-2.8085e-08
1.3168e-05
-2.79529e-08
1.31688e-05
-2.78218e-08
1.31697e-05
-2.76915e-08
1.31705e-05
-2.75621e-08
1.31713e-05
-2.74336e-08
1.31721e-05
-2.73059e-08
1.31729e-05
-2.71791e-08
1.31736e-05
-2.70532e-08
1.31744e-05
-2.6928e-08
1.31752e-05
-2.68037e-08
1.31759e-05
-2.66802e-08
1.31766e-05
-2.65575e-08
1.31774e-05
-2.64357e-08
1.31781e-05
-2.63146e-08
1.31788e-05
-2.61943e-08
1.31795e-05
-2.60748e-08
1.31802e-05
-2.59561e-08
1.31809e-05
-2.58381e-08
1.31816e-05
-2.5721e-08
1.31822e-05
-2.56045e-08
1.31829e-05
-2.54889e-08
1.31835e-05
-2.53739e-08
1.31842e-05
-2.52597e-08
1.31848e-05
-2.51462e-08
1.31854e-05
-2.50335e-08
1.31861e-05
-2.49215e-08
1.31867e-05
-2.48102e-08
1.31873e-05
-2.46996e-08
1.31879e-05
-2.45897e-08
1.31885e-05
-2.44804e-08
1.31891e-05
-2.43719e-08
1.31896e-05
-2.42641e-08
1.31902e-05
-2.41569e-08
1.31908e-05
-2.40504e-08
1.31913e-05
-2.39446e-08
1.31919e-05
-2.38394e-08
1.31924e-05
-2.37349e-08
1.3193e-05
-2.3631e-08
1.31935e-05
-2.35278e-08
1.3194e-05
-2.34252e-08
1.31945e-05
-2.33232e-08
1.3195e-05
-2.32219e-08
1.31955e-05
-2.31212e-08
1.3196e-05
-2.30211e-08
1.31965e-05
-2.29216e-08
1.3197e-05
-2.28227e-08
1.31975e-05
-2.27244e-08
1.3198e-05
-2.26267e-08
1.31984e-05
-2.25296e-08
1.31989e-05
-2.24331e-08
1.31993e-05
-2.23372e-08
1.31998e-05
-2.22419e-08
1.32002e-05
-2.21471e-08
1.32007e-05
-2.20529e-08
1.32011e-05
-2.19592e-08
1.32015e-05
-2.18661e-08
1.3202e-05
-2.17736e-08
1.32024e-05
-2.16816e-08
1.32028e-05
-2.15902e-08
1.32032e-05
-2.14993e-08
1.32036e-05
-2.14089e-08
1.3204e-05
-2.1319e-08
1.32044e-05
-2.12297e-08
1.32048e-05
-2.11409e-08
1.32052e-05
-2.10527e-08
1.32055e-05
-2.09649e-08
1.32059e-05
-2.08777e-08
1.32063e-05
-2.07909e-08
1.32067e-05
-2.07047e-08
1.3207e-05
-2.0619e-08
1.32074e-05
-2.05337e-08
1.32077e-05
-2.0449e-08
1.32081e-05
-2.03647e-08
-2.02809e-08
1.37344e-05
-3.57416e-08
1.37341e-05
-3.55427e-08
1.37338e-05
-3.53455e-08
1.37335e-05
-3.51498e-08
1.37332e-05
-3.49558e-08
1.37328e-05
-3.47634e-08
1.37325e-05
-3.45725e-08
1.37321e-05
-3.43832e-08
1.37318e-05
-3.41954e-08
1.37314e-05
-3.40092e-08
1.3731e-05
-3.38244e-08
1.37306e-05
-3.36412e-08
1.37302e-05
-3.34594e-08
1.37298e-05
-3.3279e-08
1.37294e-05
-3.31001e-08
1.3729e-05
-3.29226e-08
1.37286e-05
-3.27466e-08
1.37282e-05
-3.25719e-08
1.37277e-05
-3.23986e-08
1.37273e-05
-3.22266e-08
1.37268e-05
-3.2056e-08
1.37264e-05
-3.18867e-08
1.37259e-05
-3.17188e-08
1.37255e-05
-3.15522e-08
1.3725e-05
-3.13868e-08
1.37245e-05
-3.12227e-08
1.3724e-05
-3.10599e-08
1.37235e-05
-3.08984e-08
1.3723e-05
-3.0738e-08
1.37225e-05
-3.05789e-08
1.3722e-05
-3.04211e-08
1.37215e-05
-3.02644e-08
1.3721e-05
-3.01089e-08
1.37205e-05
-2.99545e-08
1.372e-05
-2.98014e-08
1.37194e-05
-2.96494e-08
1.37189e-05
-2.94985e-08
1.37184e-05
-2.93488e-08
1.37178e-05
-2.92001e-08
1.37173e-05
-2.90526e-08
1.37167e-05
-2.89062e-08
1.37162e-05
-2.87608e-08
1.37156e-05
-2.86165e-08
1.37151e-05
-2.84733e-08
1.37145e-05
-2.83311e-08
1.37139e-05
-2.819e-08
1.37134e-05
-2.80499e-08
1.37128e-05
-2.79108e-08
1.37122e-05
-2.77728e-08
1.37116e-05
-2.76357e-08
1.3711e-05
-2.74996e-08
1.37104e-05
-2.73645e-08
1.37099e-05
-2.72303e-08
1.37093e-05
-2.70972e-08
1.37087e-05
-2.69649e-08
1.37081e-05
-2.68336e-08
1.37075e-05
-2.67033e-08
1.37069e-05
-2.65739e-08
1.37062e-05
-2.64453e-08
1.37056e-05
-2.63177e-08
1.3705e-05
-2.6191e-08
1.37044e-05
-2.60652e-08
1.37038e-05
-2.59402e-08
1.37032e-05
-2.58161e-08
1.37025e-05
-2.56929e-08
1.37019e-05
-2.55706e-08
1.37013e-05
-2.5449e-08
1.37007e-05
-2.53284e-08
1.37e-05
-2.52085e-08
1.36994e-05
-2.50895e-08
1.36988e-05
-2.49713e-08
1.36981e-05
-2.48539e-08
1.36975e-05
-2.47373e-08
1.36969e-05
-2.46214e-08
1.36962e-05
-2.45064e-08
1.36956e-05
-2.43922e-08
1.36949e-05
-2.42787e-08
1.36943e-05
-2.4166e-08
1.36937e-05
-2.4054e-08
1.3693e-05
-2.39428e-08
1.36924e-05
-2.38323e-08
1.36917e-05
-2.37226e-08
1.36911e-05
-2.36136e-08
1.36904e-05
-2.35053e-08
1.36898e-05
-2.33977e-08
1.36891e-05
-2.32909e-08
1.36884e-05
-2.31847e-08
1.36878e-05
-2.30792e-08
1.36871e-05
-2.29745e-08
1.36865e-05
-2.28704e-08
1.36858e-05
-2.2767e-08
1.36852e-05
-2.26642e-08
1.36845e-05
-2.25622e-08
1.36838e-05
-2.24608e-08
1.36832e-05
-2.236e-08
1.36825e-05
-2.22599e-08
1.36819e-05
-2.21604e-08
1.36812e-05
-2.20616e-08
1.36805e-05
-2.19634e-08
1.36799e-05
-2.18658e-08
1.36792e-05
-2.17689e-08
1.36785e-05
-2.16725e-08
1.36779e-05
-2.15768e-08
1.36772e-05
-2.14817e-08
1.36765e-05
-2.13871e-08
1.36759e-05
-2.12932e-08
1.36752e-05
-2.11999e-08
1.36745e-05
-2.11071e-08
1.36739e-05
-2.10149e-08
1.36732e-05
-2.09233e-08
1.36725e-05
-2.08323e-08
1.36719e-05
-2.07418e-08
1.36712e-05
-2.06519e-08
1.36705e-05
-2.05625e-08
1.36699e-05
-2.04737e-08
1.36692e-05
-2.03854e-08
1.36685e-05
-2.02977e-08
1.36679e-05
-2.02105e-08
1.36672e-05
-2.01238e-08
1.36665e-05
-2.00377e-08
1.36659e-05
-1.99521e-08
1.36652e-05
-1.9867e-08
1.36645e-05
-1.97824e-08
1.36639e-05
-1.96984e-08
-1.96148e-08
1.40416e-05
-3.34592e-08
1.40393e-05
-3.32639e-08
1.40371e-05
-3.30704e-08
1.40348e-05
-3.28786e-08
1.40325e-05
-3.26885e-08
1.40303e-05
-3.25e-08
1.4028e-05
-3.23132e-08
1.40257e-05
-3.21279e-08
1.40235e-05
-3.19443e-08
1.40212e-05
-3.17623e-08
1.4019e-05
-3.15818e-08
1.40168e-05
-3.14028e-08
1.40145e-05
-3.12254e-08
1.40123e-05
-3.10495e-08
1.40101e-05
-3.0875e-08
1.40079e-05
-3.07021e-08
1.40056e-05
-3.05306e-08
1.40034e-05
-3.03605e-08
1.40012e-05
-3.01918e-08
1.3999e-05
-3.00246e-08
1.39968e-05
-2.98587e-08
1.39946e-05
-2.96942e-08
1.39924e-05
-2.95311e-08
1.39903e-05
-2.93693e-08
1.39881e-05
-2.92089e-08
1.39859e-05
-2.90497e-08
1.39837e-05
-2.88918e-08
1.39816e-05
-2.87353e-08
1.39794e-05
-2.858e-08
1.39773e-05
-2.84259e-08
1.39751e-05
-2.82731e-08
1.3973e-05
-2.81215e-08
1.39708e-05
-2.79711e-08
1.39687e-05
-2.7822e-08
1.39666e-05
-2.7674e-08
1.39645e-05
-2.75272e-08
1.39623e-05
-2.73815e-08
1.39602e-05
-2.7237e-08
1.39581e-05
-2.70936e-08
1.3956e-05
-2.69514e-08
1.39539e-05
-2.68102e-08
1.39518e-05
-2.66702e-08
1.39497e-05
-2.65312e-08
1.39477e-05
-2.63934e-08
1.39456e-05
-2.62565e-08
1.39435e-05
-2.61208e-08
1.39415e-05
-2.59861e-08
1.39394e-05
-2.58524e-08
1.39373e-05
-2.57197e-08
1.39353e-05
-2.5588e-08
1.39333e-05
-2.54574e-08
1.39312e-05
-2.53277e-08
1.39292e-05
-2.5199e-08
1.39272e-05
-2.50713e-08
1.39251e-05
-2.49445e-08
1.39231e-05
-2.48187e-08
1.39211e-05
-2.46938e-08
1.39191e-05
-2.45698e-08
1.39171e-05
-2.44468e-08
1.39151e-05
-2.43247e-08
1.39131e-05
-2.42034e-08
1.39112e-05
-2.40831e-08
1.39092e-05
-2.39637e-08
1.39072e-05
-2.38451e-08
1.39052e-05
-2.37274e-08
1.39033e-05
-2.36105e-08
1.39013e-05
-2.34945e-08
1.38994e-05
-2.33793e-08
1.38974e-05
-2.32649e-08
1.38955e-05
-2.31514e-08
1.38936e-05
-2.30387e-08
1.38916e-05
-2.29268e-08
1.38897e-05
-2.28157e-08
1.38878e-05
-2.27054e-08
1.38859e-05
-2.25958e-08
1.3884e-05
-2.24871e-08
1.38821e-05
-2.23791e-08
1.38802e-05
-2.22719e-08
1.38783e-05
-2.21654e-08
1.38764e-05
-2.20596e-08
1.38745e-05
-2.19546e-08
1.38727e-05
-2.18504e-08
1.38708e-05
-2.17468e-08
1.38689e-05
-2.1644e-08
1.38671e-05
-2.15419e-08
1.38652e-05
-2.14405e-08
1.38634e-05
-2.13397e-08
1.38615e-05
-2.12397e-08
1.38597e-05
-2.11404e-08
1.38579e-05
-2.10417e-08
1.38561e-05
-2.09437e-08
1.38542e-05
-2.08464e-08
1.38524e-05
-2.07497e-08
1.38506e-05
-2.06537e-08
1.38488e-05
-2.05583e-08
1.3847e-05
-2.04636e-08
1.38452e-05
-2.03694e-08
1.38434e-05
-2.0276e-08
1.38417e-05
-2.01831e-08
1.38399e-05
-2.00909e-08
1.38381e-05
-1.99993e-08
1.38364e-05
-1.99082e-08
1.38346e-05
-1.98178e-08
1.38328e-05
-1.9728e-08
1.38311e-05
-1.96387e-08
1.38294e-05
-1.95501e-08
1.38276e-05
-1.9462e-08
1.38259e-05
-1.93745e-08
1.38242e-05
-1.92876e-08
1.38224e-05
-1.92012e-08
1.38207e-05
-1.91154e-08
1.3819e-05
-1.90301e-08
1.38173e-05
-1.89454e-08
1.38156e-05
-1.88612e-08
1.38139e-05
-1.87776e-08
1.38122e-05
-1.86945e-08
1.38105e-05
-1.86119e-08
1.38088e-05
-1.85299e-08
1.38072e-05
-1.84484e-08
1.38055e-05
-1.83673e-08
1.38038e-05
-1.82868e-08
1.38022e-05
-1.82069e-08
1.38005e-05
-1.81274e-08
1.37989e-05
-1.80484e-08
-1.79699e-08
1.39568e-05
-2.93359e-08
1.39527e-05
-2.91583e-08
1.39487e-05
-2.89823e-08
1.39446e-05
-2.88079e-08
1.39405e-05
-2.86351e-08
1.39365e-05
-2.84639e-08
1.39325e-05
-2.82943e-08
1.39285e-05
-2.81262e-08
1.39245e-05
-2.79596e-08
1.39205e-05
-2.77945e-08
1.39166e-05
-2.76309e-08
1.39126e-05
-2.74687e-08
1.39087e-05
-2.7308e-08
1.39048e-05
-2.71487e-08
1.39009e-05
-2.69909e-08
1.38971e-05
-2.68344e-08
1.38932e-05
-2.66793e-08
1.38894e-05
-2.65256e-08
1.38856e-05
-2.63732e-08
1.38818e-05
-2.62221e-08
1.3878e-05
-2.60723e-08
1.38742e-05
-2.59239e-08
1.38704e-05
-2.57767e-08
1.38667e-05
-2.56308e-08
1.3863e-05
-2.54861e-08
1.38593e-05
-2.53427e-08
1.38556e-05
-2.52004e-08
1.38519e-05
-2.50594e-08
1.38482e-05
-2.49196e-08
1.38446e-05
-2.4781e-08
1.3841e-05
-2.46435e-08
1.38374e-05
-2.45071e-08
1.38338e-05
-2.43719e-08
1.38302e-05
-2.42379e-08
1.38266e-05
-2.41049e-08
1.38231e-05
-2.3973e-08
1.38195e-05
-2.38423e-08
1.3816e-05
-2.37126e-08
1.38125e-05
-2.35839e-08
1.3809e-05
-2.34563e-08
1.38055e-05
-2.33298e-08
1.3802e-05
-2.32042e-08
1.37986e-05
-2.30797e-08
1.37952e-05
-2.29562e-08
1.37917e-05
-2.28337e-08
1.37883e-05
-2.27122e-08
1.37849e-05
-2.25916e-08
1.37815e-05
-2.2472e-08
1.37782e-05
-2.23533e-08
1.37748e-05
-2.22356e-08
1.37715e-05
-2.21188e-08
1.37682e-05
-2.20029e-08
1.37649e-05
-2.18879e-08
1.37616e-05
-2.17738e-08
1.37583e-05
-2.16607e-08
1.3755e-05
-2.15484e-08
1.37517e-05
-2.14369e-08
1.37485e-05
-2.13263e-08
1.37453e-05
-2.12166e-08
1.37421e-05
-2.11077e-08
1.37388e-05
-2.09997e-08
1.37357e-05
-2.08924e-08
1.37325e-05
-2.0786e-08
1.37293e-05
-2.06804e-08
1.37262e-05
-2.05756e-08
1.3723e-05
-2.04716e-08
1.37199e-05
-2.03683e-08
1.37168e-05
-2.02659e-08
1.37137e-05
-2.01642e-08
1.37106e-05
-2.00632e-08
1.37075e-05
-1.9963e-08
1.37045e-05
-1.98636e-08
1.37014e-05
-1.97649e-08
1.36984e-05
-1.96669e-08
1.36953e-05
-1.95696e-08
1.36923e-05
-1.9473e-08
1.36893e-05
-1.93772e-08
1.36863e-05
-1.9282e-08
1.36834e-05
-1.91876e-08
1.36804e-05
-1.90938e-08
1.36774e-05
-1.90007e-08
1.36745e-05
-1.89082e-08
1.36716e-05
-1.88165e-08
1.36686e-05
-1.87254e-08
1.36657e-05
-1.86349e-08
1.36628e-05
-1.85451e-08
1.366e-05
-1.84559e-08
1.36571e-05
-1.83673e-08
1.36542e-05
-1.82794e-08
1.36514e-05
-1.81921e-08
1.36485e-05
-1.81054e-08
1.36457e-05
-1.80193e-08
1.36429e-05
-1.79338e-08
1.36401e-05
-1.78489e-08
1.36373e-05
-1.77646e-08
1.36345e-05
-1.76809e-08
1.36317e-05
-1.75978e-08
1.3629e-05
-1.75152e-08
1.36262e-05
-1.74332e-08
1.36235e-05
-1.73518e-08
1.36208e-05
-1.72709e-08
1.3618e-05
-1.71906e-08
1.36153e-05
-1.71108e-08
1.36126e-05
-1.70316e-08
1.361e-05
-1.69528e-08
1.36073e-05
-1.68747e-08
1.36046e-05
-1.6797e-08
1.3602e-05
-1.67199e-08
1.35993e-05
-1.66433e-08
1.35967e-05
-1.65672e-08
1.35941e-05
-1.64916e-08
1.35914e-05
-1.64165e-08
1.35888e-05
-1.63419e-08
1.35863e-05
-1.62678e-08
1.35837e-05
-1.61942e-08
1.35811e-05
-1.61211e-08
1.35785e-05
-1.60484e-08
1.3576e-05
-1.59762e-08
1.35734e-05
-1.59045e-08
1.35709e-05
-1.58333e-08
1.35684e-05
-1.57625e-08
1.35659e-05
-1.56922e-08
1.35634e-05
-1.56223e-08
1.35609e-05
-1.55529e-08
-1.54839e-08
1.34116e-05
-2.3786e-08
1.34061e-05
-2.3638e-08
1.34006e-05
-2.34913e-08
1.33951e-05
-2.33462e-08
1.33897e-05
-2.32024e-08
1.33843e-05
-2.30599e-08
1.33789e-05
-2.29188e-08
1.33736e-05
-2.2779e-08
1.33682e-05
-2.26405e-08
1.33629e-05
-2.25032e-08
1.33577e-05
-2.23674e-08
1.33524e-05
-2.22326e-08
1.33472e-05
-2.20992e-08
1.33421e-05
-2.1967e-08
1.33369e-05
-2.1836e-08
1.33318e-05
-2.17062e-08
1.33267e-05
-2.15775e-08
1.33216e-05
-2.14501e-08
1.33165e-05
-2.13238e-08
1.33115e-05
-2.11986e-08
1.33065e-05
-2.10745e-08
1.33015e-05
-2.09516e-08
1.32966e-05
-2.08296e-08
1.32917e-05
-2.0709e-08
1.32868e-05
-2.05892e-08
1.32819e-05
-2.04705e-08
1.32771e-05
-2.03529e-08
1.32722e-05
-2.02363e-08
1.32674e-05
-2.01208e-08
1.32627e-05
-2.00061e-08
1.32579e-05
-1.98927e-08
1.32532e-05
-1.978e-08
1.32485e-05
-1.96684e-08
1.32438e-05
-1.95576e-08
1.32391e-05
-1.9448e-08
1.32345e-05
-1.93392e-08
1.32299e-05
-1.92313e-08
1.32253e-05
-1.91243e-08
1.32207e-05
-1.90183e-08
1.32162e-05
-1.8913e-08
1.32117e-05
-1.88088e-08
1.32072e-05
-1.87054e-08
1.32027e-05
-1.86028e-08
1.31983e-05
-1.85011e-08
1.31938e-05
-1.84002e-08
1.31894e-05
-1.83002e-08
1.3185e-05
-1.82009e-08
1.31806e-05
-1.81025e-08
1.31763e-05
-1.80049e-08
1.3172e-05
-1.79081e-08
1.31677e-05
-1.78121e-08
1.31634e-05
-1.77168e-08
1.31591e-05
-1.76223e-08
1.31549e-05
-1.75286e-08
1.31506e-05
-1.74356e-08
1.31464e-05
-1.73434e-08
1.31423e-05
-1.72519e-08
1.31381e-05
-1.71611e-08
1.31339e-05
-1.7071e-08
1.31298e-05
-1.69816e-08
1.31257e-05
-1.6893e-08
1.31216e-05
-1.68051e-08
1.31176e-05
-1.67178e-08
1.31135e-05
-1.66312e-08
1.31095e-05
-1.65453e-08
1.31055e-05
-1.64601e-08
1.31015e-05
-1.63755e-08
1.30975e-05
-1.62915e-08
1.30935e-05
-1.62082e-08
1.30896e-05
-1.61255e-08
1.30857e-05
-1.60435e-08
1.30818e-05
-1.59621e-08
1.30779e-05
-1.58813e-08
1.3074e-05
-1.58011e-08
1.30702e-05
-1.57215e-08
1.30664e-05
-1.56426e-08
1.30625e-05
-1.55641e-08
1.30587e-05
-1.54863e-08
1.3055e-05
-1.54091e-08
1.30512e-05
-1.53324e-08
1.30475e-05
-1.52564e-08
1.30437e-05
-1.51809e-08
1.304e-05
-1.51059e-08
1.30363e-05
-1.50314e-08
1.30327e-05
-1.49576e-08
1.3029e-05
-1.48842e-08
1.30253e-05
-1.48114e-08
1.30217e-05
-1.47391e-08
1.30181e-05
-1.46674e-08
1.30145e-05
-1.45961e-08
1.30109e-05
-1.45254e-08
1.30074e-05
-1.44552e-08
1.30038e-05
-1.43855e-08
1.30003e-05
-1.43162e-08
1.29968e-05
-1.42475e-08
1.29933e-05
-1.41793e-08
1.29898e-05
-1.41115e-08
1.29863e-05
-1.40442e-08
1.29829e-05
-1.39774e-08
1.29794e-05
-1.39111e-08
1.2976e-05
-1.38452e-08
1.29726e-05
-1.37798e-08
1.29692e-05
-1.37148e-08
1.29658e-05
-1.36502e-08
1.29624e-05
-1.35862e-08
1.29591e-05
-1.35226e-08
1.29557e-05
-1.34594e-08
1.29524e-05
-1.33967e-08
1.29491e-05
-1.33343e-08
1.29458e-05
-1.32724e-08
1.29425e-05
-1.32109e-08
1.29393e-05
-1.31498e-08
1.2936e-05
-1.30893e-08
1.29328e-05
-1.3029e-08
1.29296e-05
-1.29692e-08
1.29263e-05
-1.29097e-08
1.29231e-05
-1.28507e-08
1.292e-05
-1.27921e-08
1.29168e-05
-1.27338e-08
1.29136e-05
-1.26759e-08
1.29105e-05
-1.26185e-08
1.29074e-05
-1.25614e-08
1.29042e-05
-1.25046e-08
1.29011e-05
-1.24482e-08
-1.23923e-08
1.23462e-05
-1.74402e-08
1.23399e-05
-1.73297e-08
1.23337e-05
-1.72202e-08
1.23274e-05
-1.71118e-08
1.23212e-05
-1.70045e-08
1.23151e-05
-1.68982e-08
1.23089e-05
-1.67929e-08
1.23028e-05
-1.66886e-08
1.22968e-05
-1.65854e-08
1.22908e-05
-1.64831e-08
1.22848e-05
-1.63818e-08
1.22788e-05
-1.62814e-08
1.22729e-05
-1.6182e-08
1.2267e-05
-1.60835e-08
1.22612e-05
-1.5986e-08
1.22554e-05
-1.58893e-08
1.22496e-05
-1.57936e-08
1.22438e-05
-1.56987e-08
1.22381e-05
-1.56047e-08
1.22324e-05
-1.55116e-08
1.22268e-05
-1.54193e-08
1.22211e-05
-1.53279e-08
1.22156e-05
-1.52373e-08
1.221e-05
-1.51475e-08
1.22045e-05
-1.50585e-08
1.2199e-05
-1.49703e-08
1.21935e-05
-1.48829e-08
1.2188e-05
-1.47963e-08
1.21826e-05
-1.47105e-08
1.21773e-05
-1.46254e-08
1.21719e-05
-1.45411e-08
1.21666e-05
-1.44575e-08
1.21613e-05
-1.43746e-08
1.2156e-05
-1.42925e-08
1.21508e-05
-1.42111e-08
1.21456e-05
-1.41304e-08
1.21404e-05
-1.40504e-08
1.21352e-05
-1.39711e-08
1.21301e-05
-1.38924e-08
1.2125e-05
-1.38145e-08
1.21199e-05
-1.37372e-08
1.21149e-05
-1.36605e-08
1.21099e-05
-1.35845e-08
1.21049e-05
-1.35092e-08
1.20999e-05
-1.34345e-08
1.2095e-05
-1.33604e-08
1.20901e-05
-1.32869e-08
1.20852e-05
-1.32141e-08
1.20803e-05
-1.31418e-08
1.20755e-05
-1.30702e-08
1.20707e-05
-1.29991e-08
1.20659e-05
-1.29286e-08
1.20611e-05
-1.28587e-08
1.20564e-05
-1.27894e-08
1.20517e-05
-1.27206e-08
1.2047e-05
-1.26524e-08
1.20423e-05
-1.25848e-08
1.20377e-05
-1.25177e-08
1.2033e-05
-1.24511e-08
1.20284e-05
-1.23851e-08
1.20239e-05
-1.23196e-08
1.20193e-05
-1.22546e-08
1.20148e-05
-1.21901e-08
1.20103e-05
-1.21262e-08
1.20058e-05
-1.20627e-08
1.20013e-05
-1.19998e-08
1.19969e-05
-1.19373e-08
1.19925e-05
-1.18753e-08
1.19881e-05
-1.18139e-08
1.19837e-05
-1.17528e-08
1.19794e-05
-1.16923e-08
1.1975e-05
-1.16322e-08
1.19707e-05
-1.15726e-08
1.19664e-05
-1.15135e-08
1.19622e-05
-1.14548e-08
1.19579e-05
-1.13966e-08
1.19537e-05
-1.13387e-08
1.19495e-05
-1.12814e-08
1.19453e-05
-1.12245e-08
1.19412e-05
-1.1168e-08
1.1937e-05
-1.11119e-08
1.19329e-05
-1.10562e-08
1.19288e-05
-1.1001e-08
1.19247e-05
-1.09462e-08
1.19206e-05
-1.08917e-08
1.19166e-05
-1.08377e-08
1.19126e-05
-1.07841e-08
1.19085e-05
-1.07309e-08
1.19046e-05
-1.0678e-08
1.19006e-05
-1.06256e-08
1.18966e-05
-1.05735e-08
1.18927e-05
-1.05219e-08
1.18888e-05
-1.04705e-08
1.18849e-05
-1.04196e-08
1.1881e-05
-1.0369e-08
1.18772e-05
-1.03188e-08
1.18733e-05
-1.0269e-08
1.18695e-05
-1.02195e-08
1.18657e-05
-1.01704e-08
1.18619e-05
-1.01216e-08
1.18581e-05
-1.00731e-08
1.18544e-05
-1.0025e-08
1.18506e-05
-9.97729e-09
1.18469e-05
-9.92987e-09
1.18432e-05
-9.88278e-09
1.18395e-05
-9.83603e-09
1.18358e-05
-9.78959e-09
1.18322e-05
-9.74349e-09
1.18286e-05
-9.6977e-09
1.18249e-05
-9.65223e-09
1.18213e-05
-9.60707e-09
1.18177e-05
-9.56222e-09
1.18142e-05
-9.51768e-09
1.18106e-05
-9.47345e-09
1.18071e-05
-9.42952e-09
1.18036e-05
-9.38589e-09
1.18e-05
-9.34255e-09
1.17966e-05
-9.29951e-09
1.17931e-05
-9.25676e-09
1.17896e-05
-9.21429e-09
1.17862e-05
-9.17212e-09
1.17827e-05
-9.13022e-09
1.17793e-05
-9.08861e-09
1.17759e-05
-9.04727e-09
-9.00621e-09
1.07122e-05
-1.10681e-08
1.07059e-05
-1.09972e-08
1.06996e-05
-1.0927e-08
1.06934e-05
-1.08575e-08
1.06872e-05
-1.07887e-08
1.0681e-05
-1.07205e-08
1.06748e-05
-1.0653e-08
1.06687e-05
-1.05862e-08
1.06627e-05
-1.052e-08
1.06566e-05
-1.04545e-08
1.06506e-05
-1.03895e-08
1.06447e-05
-1.03253e-08
1.06388e-05
-1.02616e-08
1.06329e-05
-1.01985e-08
1.0627e-05
-1.0136e-08
1.06212e-05
-1.00741e-08
1.06154e-05
-1.00128e-08
1.06097e-05
-9.95209e-09
1.0604e-05
-9.89193e-09
1.05983e-05
-9.83232e-09
1.05927e-05
-9.77326e-09
1.0587e-05
-9.71476e-09
1.05815e-05
-9.65678e-09
1.05759e-05
-9.59934e-09
1.05704e-05
-9.54243e-09
1.05649e-05
-9.48603e-09
1.05595e-05
-9.43014e-09
1.0554e-05
-9.37476e-09
1.05486e-05
-9.31987e-09
1.05433e-05
-9.26548e-09
1.0538e-05
-9.21157e-09
1.05327e-05
-9.15815e-09
1.05274e-05
-9.10519e-09
1.05221e-05
-9.05271e-09
1.05169e-05
-9.00069e-09
1.05118e-05
-8.94912e-09
1.05066e-05
-8.89801e-09
1.05015e-05
-8.84734e-09
1.04964e-05
-8.79711e-09
1.04913e-05
-8.74732e-09
1.04863e-05
-8.69796e-09
1.04813e-05
-8.64902e-09
1.04763e-05
-8.6005e-09
1.04713e-05
-8.55239e-09
1.04664e-05
-8.5047e-09
1.04615e-05
-8.45741e-09
1.04566e-05
-8.41052e-09
1.04518e-05
-8.36402e-09
1.04469e-05
-8.31791e-09
1.04421e-05
-8.2722e-09
1.04374e-05
-8.22686e-09
1.04326e-05
-8.1819e-09
1.04279e-05
-8.13731e-09
1.04232e-05
-8.09309e-09
1.04185e-05
-8.04924e-09
1.04139e-05
-8.00574e-09
1.04093e-05
-7.9626e-09
1.04047e-05
-7.91981e-09
1.04001e-05
-7.87738e-09
1.03955e-05
-7.83528e-09
1.0391e-05
-7.79352e-09
1.03865e-05
-7.75211e-09
1.0382e-05
-7.71102e-09
1.03776e-05
-7.67026e-09
1.03732e-05
-7.62983e-09
1.03687e-05
-7.58972e-09
1.03644e-05
-7.54992e-09
1.036e-05
-7.51044e-09
1.03556e-05
-7.47128e-09
1.03513e-05
-7.43242e-09
1.0347e-05
-7.39386e-09
1.03428e-05
-7.3556e-09
1.03385e-05
-7.31765e-09
1.03343e-05
-7.27998e-09
1.03301e-05
-7.24261e-09
1.03259e-05
-7.20553e-09
1.03217e-05
-7.16873e-09
1.03175e-05
-7.13221e-09
1.03134e-05
-7.09597e-09
1.03093e-05
-7.06001e-09
1.03052e-05
-7.02432e-09
1.03011e-05
-6.9889e-09
1.02971e-05
-6.95375e-09
1.02931e-05
-6.91886e-09
1.02891e-05
-6.88424e-09
1.02851e-05
-6.84987e-09
1.02811e-05
-6.81576e-09
1.02772e-05
-6.7819e-09
1.02732e-05
-6.7483e-09
1.02693e-05
-6.71494e-09
1.02654e-05
-6.68183e-09
1.02616e-05
-6.64896e-09
1.02577e-05
-6.61633e-09
1.02539e-05
-6.58395e-09
1.025e-05
-6.55179e-09
1.02463e-05
-6.51987e-09
1.02425e-05
-6.48819e-09
1.02387e-05
-6.45673e-09
1.0235e-05
-6.42549e-09
1.02312e-05
-6.39449e-09
1.02275e-05
-6.3637e-09
1.02238e-05
-6.33313e-09
1.02202e-05
-6.30278e-09
1.02165e-05
-6.27265e-09
1.02129e-05
-6.24273e-09
1.02092e-05
-6.21302e-09
1.02056e-05
-6.18352e-09
1.0202e-05
-6.15423e-09
1.01985e-05
-6.12514e-09
1.01949e-05
-6.09626e-09
1.01914e-05
-6.06758e-09
1.01879e-05
-6.03909e-09
1.01843e-05
-6.01081e-09
1.01809e-05
-5.98272e-09
1.01774e-05
-5.95482e-09
1.01739e-05
-5.92711e-09
1.01705e-05
-5.8996e-09
1.01671e-05
-5.87227e-09
1.01636e-05
-5.84513e-09
1.01602e-05
-5.81817e-09
1.01569e-05
-5.79139e-09
1.01535e-05
-5.7648e-09
1.01501e-05
-5.73839e-09
1.01468e-05
-5.71215e-09
-5.68609e-09
8.47151e-06
-5.49548e-09
8.46597e-06
-5.46011e-09
8.46047e-06
-5.42509e-09
8.455e-06
-5.39041e-09
8.44957e-06
-5.35608e-09
8.44417e-06
-5.32209e-09
8.43881e-06
-5.28843e-09
8.43348e-06
-5.2551e-09
8.42818e-06
-5.22209e-09
8.42291e-06
-5.18941e-09
8.41768e-06
-5.15704e-09
8.41248e-06
-5.12498e-09
8.40731e-06
-5.09323e-09
8.40217e-06
-5.06179e-09
8.39707e-06
-5.03064e-09
8.39199e-06
-4.99979e-09
8.38695e-06
-4.96923e-09
8.38194e-06
-4.93896e-09
8.37696e-06
-4.90897e-09
8.372e-06
-4.87927e-09
8.36708e-06
-4.84984e-09
8.36218e-06
-4.82068e-09
8.35732e-06
-4.79179e-09
8.35248e-06
-4.76317e-09
8.34768e-06
-4.73481e-09
8.3429e-06
-4.70671e-09
8.33815e-06
-4.67887e-09
8.33342e-06
-4.65128e-09
8.32873e-06
-4.62394e-09
8.32406e-06
-4.59685e-09
8.31942e-06
-4.57e-09
8.3148e-06
-4.54339e-09
8.31021e-06
-4.51701e-09
8.30565e-06
-4.49087e-09
8.30112e-06
-4.46497e-09
8.29661e-06
-4.43929e-09
8.29212e-06
-4.41384e-09
8.28766e-06
-4.38861e-09
8.28323e-06
-4.3636e-09
8.27882e-06
-4.33881e-09
8.27444e-06
-4.31423e-09
8.27008e-06
-4.28987e-09
8.26574e-06
-4.26571e-09
8.26143e-06
-4.24177e-09
8.25715e-06
-4.21803e-09
8.25288e-06
-4.19449e-09
8.24864e-06
-4.17115e-09
8.24443e-06
-4.14801e-09
8.24023e-06
-4.12506e-09
8.23606e-06
-4.10231e-09
8.23192e-06
-4.07975e-09
8.22779e-06
-4.05737e-09
8.22369e-06
-4.03519e-09
8.21961e-06
-4.01318e-09
8.21555e-06
-3.99136e-09
8.21152e-06
-3.96972e-09
8.2075e-06
-3.94826e-09
8.20351e-06
-3.92697e-09
8.19954e-06
-3.90586e-09
8.19559e-06
-3.88492e-09
8.19166e-06
-3.86415e-09
8.18775e-06
-3.84355e-09
8.18386e-06
-3.82311e-09
8.17999e-06
-3.80284e-09
8.17615e-06
-3.78273e-09
8.17232e-06
-3.76278e-09
8.16851e-06
-3.74299e-09
8.16473e-06
-3.72336e-09
8.16096e-06
-3.70388e-09
8.15721e-06
-3.68455e-09
8.15348e-06
-3.66538e-09
8.14977e-06
-3.64636e-09
8.14608e-06
-3.62749e-09
8.14241e-06
-3.60876e-09
8.13876e-06
-3.59018e-09
8.13513e-06
-3.57174e-09
8.13151e-06
-3.55345e-09
8.12791e-06
-3.5353e-09
8.12433e-06
-3.51728e-09
8.12077e-06
-3.49941e-09
8.11723e-06
-3.48166e-09
8.11371e-06
-3.46406e-09
8.1102e-06
-3.44659e-09
8.10671e-06
-3.42925e-09
8.10324e-06
-3.41204e-09
8.09978e-06
-3.39496e-09
8.09635e-06
-3.37801e-09
8.09292e-06
-3.36118e-09
8.08952e-06
-3.34448e-09
8.08613e-06
-3.32791e-09
8.08276e-06
-3.31145e-09
8.07941e-06
-3.29512e-09
8.07607e-06
-3.27891e-09
8.07275e-06
-3.26282e-09
8.06945e-06
-3.24684e-09
8.06616e-06
-3.23098e-09
8.06288e-06
-3.21524e-09
8.05963e-06
-3.19961e-09
8.05639e-06
-3.1841e-09
8.05316e-06
-3.16869e-09
8.04995e-06
-3.1534e-09
8.04675e-06
-3.13822e-09
8.04357e-06
-3.12314e-09
8.04041e-06
-3.10817e-09
8.03726e-06
-3.09331e-09
8.03413e-06
-3.07856e-09
8.03101e-06
-3.0639e-09
8.0279e-06
-3.04936e-09
8.02481e-06
-3.03491e-09
8.02174e-06
-3.02057e-09
8.01867e-06
-3.00632e-09
8.01563e-06
-2.99218e-09
8.0126e-06
-2.97813e-09
8.00958e-06
-2.96418e-09
8.00657e-06
-2.95033e-09
8.00358e-06
-2.93657e-09
8.00061e-06
-2.92291e-09
7.99764e-06
-2.90934e-09
7.99469e-06
-2.89586e-09
7.99176e-06
-2.88248e-09
7.98883e-06
-2.86919e-09
7.98593e-06
-2.85598e-09
7.98303e-06
-2.84287e-09
7.98015e-06
-2.82985e-09
-2.81691e-09
5.59325e-06
-1.54251e-09
5.58932e-06
-1.53258e-09
5.58542e-06
-1.52274e-09
5.58154e-06
-1.513e-09
5.57769e-06
-1.50336e-09
5.57386e-06
-1.49382e-09
5.57006e-06
-1.48437e-09
5.56628e-06
-1.47501e-09
5.56252e-06
-1.46574e-09
5.55879e-06
-1.45657e-09
5.55508e-06
-1.44748e-09
5.55139e-06
-1.43848e-09
5.54773e-06
-1.42956e-09
5.54409e-06
-1.42073e-09
5.54047e-06
-1.41199e-09
5.53687e-06
-1.40333e-09
5.5333e-06
-1.39475e-09
5.52975e-06
-1.38625e-09
5.52622e-06
-1.37783e-09
5.52271e-06
-1.36949e-09
5.51922e-06
-1.36123e-09
5.51575e-06
-1.35304e-09
5.5123e-06
-1.34493e-09
5.50888e-06
-1.33689e-09
5.50547e-06
-1.32893e-09
5.50208e-06
-1.32104e-09
5.49872e-06
-1.31323e-09
5.49537e-06
-1.30548e-09
5.49205e-06
-1.29781e-09
5.48874e-06
-1.2902e-09
5.48545e-06
-1.28266e-09
5.48218e-06
-1.27519e-09
5.47894e-06
-1.26779e-09
5.47571e-06
-1.26045e-09
5.47249e-06
-1.25318e-09
5.4693e-06
-1.24597e-09
5.46613e-06
-1.23882e-09
5.46297e-06
-1.23174e-09
5.45983e-06
-1.22472e-09
5.45671e-06
-1.21776e-09
5.45361e-06
-1.21086e-09
5.45052e-06
-1.20402e-09
5.44745e-06
-1.19724e-09
5.4444e-06
-1.19052e-09
5.44137e-06
-1.18386e-09
5.43835e-06
-1.17725e-09
5.43535e-06
-1.1707e-09
5.43236e-06
-1.1642e-09
5.4294e-06
-1.15776e-09
5.42645e-06
-1.15137e-09
5.42351e-06
-1.14504e-09
5.42059e-06
-1.13876e-09
5.41769e-06
-1.13253e-09
5.4148e-06
-1.12636e-09
5.41193e-06
-1.12023e-09
5.40908e-06
-1.11416e-09
5.40624e-06
-1.10813e-09
5.40341e-06
-1.10216e-09
5.4006e-06
-1.09623e-09
5.39781e-06
-1.09036e-09
5.39503e-06
-1.08453e-09
5.39226e-06
-1.07874e-09
5.38951e-06
-1.07301e-09
5.38678e-06
-1.06732e-09
5.38406e-06
-1.06167e-09
5.38135e-06
-1.05607e-09
5.37866e-06
-1.05052e-09
5.37598e-06
-1.04501e-09
5.37331e-06
-1.03954e-09
5.37066e-06
-1.03412e-09
5.36803e-06
-1.02874e-09
5.3654e-06
-1.0234e-09
5.36279e-06
-1.0181e-09
5.3602e-06
-1.01285e-09
5.35762e-06
-1.00763e-09
5.35505e-06
-1.00246e-09
5.35249e-06
-9.97323e-10
5.34995e-06
-9.92229e-10
5.34742e-06
-9.87173e-10
5.3449e-06
-9.82156e-10
5.3424e-06
-9.77192e-10
5.3399e-06
-9.72221e-10
5.33742e-06
-9.67333e-10
5.33496e-06
-9.62468e-10
5.3325e-06
-9.57638e-10
5.33006e-06
-9.52845e-10
5.32763e-06
-9.48088e-10
5.32521e-06
-9.43366e-10
5.32281e-06
-9.38679e-10
5.32041e-06
-9.34028e-10
5.31803e-06
-9.29411e-10
5.31566e-06
-9.24828e-10
5.3133e-06
-9.20278e-10
5.31096e-06
-9.15777e-10
5.30862e-06
-9.11264e-10
5.3063e-06
-9.06829e-10
5.30398e-06
-9.02412e-10
5.30168e-06
-8.98026e-10
5.29939e-06
-8.93672e-10
5.29711e-06
-8.8935e-10
5.29484e-06
-8.85058e-10
5.29259e-06
-8.80798e-10
5.29034e-06
-8.76582e-10
5.2881e-06
-8.72352e-10
5.28588e-06
-8.68197e-10
5.28366e-06
-8.64057e-10
5.28146e-06
-8.59946e-10
5.27927e-06
-8.55864e-10
5.27708e-06
-8.51811e-10
5.27491e-06
-8.47786e-10
5.27275e-06
-8.43803e-10
5.2706e-06
-8.39805e-10
5.26845e-06
-8.35879e-10
5.26632e-06
-8.31965e-10
5.2642e-06
-8.28092e-10
5.26209e-06
-8.24203e-10
5.25998e-06
-8.20384e-10
5.25789e-06
-8.16577e-10
5.25581e-06
-8.12796e-10
5.25374e-06
-8.09041e-10
5.25167e-06
-8.05311e-10
5.24962e-06
-8.01607e-10
5.24757e-06
-7.97927e-10
5.24554e-06
-7.94286e-10
-7.90627e-10
2.04943e-06
2.0479e-06
2.04637e-06
2.04486e-06
2.04336e-06
2.04186e-06
2.04038e-06
2.0389e-06
2.03744e-06
2.03598e-06
2.03453e-06
2.03309e-06
2.03166e-06
2.03024e-06
2.02883e-06
2.02743e-06
2.02603e-06
2.02465e-06
2.02327e-06
2.0219e-06
2.02054e-06
2.01919e-06
2.01784e-06
2.0165e-06
2.01518e-06
2.01385e-06
2.01254e-06
2.01124e-06
2.00994e-06
2.00865e-06
2.00737e-06
2.00609e-06
2.00482e-06
2.00356e-06
2.00231e-06
2.00106e-06
1.99982e-06
1.99859e-06
1.99737e-06
1.99615e-06
1.99494e-06
1.99373e-06
1.99254e-06
1.99135e-06
1.99016e-06
1.98899e-06
1.98782e-06
1.98665e-06
1.98549e-06
1.98434e-06
1.9832e-06
1.98206e-06
1.98093e-06
1.9798e-06
1.97868e-06
1.97756e-06
1.97646e-06
1.97535e-06
1.97426e-06
1.97317e-06
1.97208e-06
1.971e-06
1.96993e-06
1.96886e-06
1.9678e-06
1.96675e-06
1.9657e-06
1.96465e-06
1.96361e-06
1.96258e-06
1.96155e-06
1.96053e-06
1.95951e-06
1.95849e-06
1.95749e-06
1.95648e-06
1.95549e-06
1.95449e-06
1.95351e-06
1.95253e-06
1.95155e-06
1.95058e-06
1.94961e-06
1.94865e-06
1.94769e-06
1.94674e-06
1.94579e-06
1.94484e-06
1.94391e-06
1.94297e-06
1.94204e-06
1.94112e-06
1.9402e-06
1.93928e-06
1.93837e-06
1.93746e-06
1.93656e-06
1.93566e-06
1.93477e-06
1.93388e-06
1.93299e-06
1.93211e-06
1.93124e-06
1.93036e-06
1.9295e-06
1.92863e-06
1.92777e-06
1.92692e-06
1.92606e-06
1.92522e-06
1.92437e-06