/*--------------------------------*- C++ -*----------------------------------*\
| =========                 |                                                 |
| \\      /  F ield         | OpenFOAM: The Open Source CFD Toolbox           |
|  \\    /   O peration     | Version:                                        |
|   \\  /    A nd           | Website:  www.openfoam.com                      |
|    \\/     M anipulation  |                                                 |
\*---------------------------------------------------------------------------*/
FoamFile
{
    version     2.0;
    format      ascii;
    class       volVectorField;
    location    "563";
    object      U;
}
// * * * * * * * * * * * * * * * * * * * * * * * * * * * * * * * * * * * * * //

dimensions      [0 1 -1 0 0 0 0];


internalField   nonuniform List<vector> 
1250
(
(1.43515 -0.00486337 -1.46396e-12)
(1.43532 -0.00483857 -1.46017e-12)
(1.43549 -0.00481396 -1.45663e-12)
(1.43566 -0.00478953 -1.45326e-12)
(1.43583 -0.00476527 -1.45015e-12)
(1.43599 -0.00474119 -1.44716e-12)
(1.43616 -0.00471728 -1.44435e-12)
(1.43632 -0.00469355 -1.44164e-12)
(1.43647 -0.00466999 -1.4391e-12)
(1.43663 -0.0046466 -1.43665e-12)
(1.43679 -0.00462337 -1.43433e-12)
(1.43694 -0.00460032 -1.43203e-12)
(1.43709 -0.00457742 -1.42983e-12)
(1.43724 -0.00455469 -1.42766e-12)
(1.43739 -0.00453213 -1.42561e-12)
(1.43753 -0.00450972 -1.42353e-12)
(1.43767 -0.00448747 -1.42154e-12)
(1.43782 -0.00446538 -1.41954e-12)
(1.43796 -0.00444344 -1.41765e-12)
(1.43809 -0.00442166 -1.41569e-12)
(1.43823 -0.00440003 -1.41386e-12)
(1.43837 -0.00437855 -1.41194e-12)
(1.4385 -0.00435722 -1.41019e-12)
(1.43863 -0.00433604 -1.40823e-12)
(1.43876 -0.00431501 -1.40657e-12)
(1.43889 -0.00429412 -1.40454e-12)
(1.43901 -0.00427338 -1.40298e-12)
(1.43914 -0.00425278 -1.40085e-12)
(1.43926 -0.00423232 -1.39945e-12)
(1.43939 -0.004212 -1.39715e-12)
(1.43951 -0.00419182 -1.39596e-12)
(1.43963 -0.00417178 -1.39342e-12)
(1.43974 -0.00415188 -1.39249e-12)
(1.43986 -0.00413211 -1.38966e-12)
(1.43997 -0.00411248 -1.38898e-12)
(1.44009 -0.00409298 -1.38599e-12)
(1.4402 -0.00407361 -1.38524e-12)
(1.44031 -0.00405437 -1.3827e-12)
(1.44042 -0.00403526 -1.38074e-12)
(1.44053 -0.00401628 -1.38064e-12)
(1.44063 -0.00399742 -1.37418e-12)
(1.44074 -0.00397869 -1.38192e-12)
(1.44084 -0.00396009 -1.36216e-12)
(1.44094 -0.00394161 -1.39175e-12)
(1.44105 -0.00392325 -1.33669e-12)
(1.44115 -0.00390501 -1.25004e-12)
(1.44125 -0.0038869 -1.26274e-12)
(1.44134 -0.0038689 -1.27288e-12)
(1.44144 -0.00385102 -1.28264e-12)
(1.44153 -0.00383326 -1.28994e-12)
(1.44163 -0.00381562 -1.29736e-12)
(1.44172 -0.00379809 -1.30268e-12)
(1.44181 -0.00378067 -1.30784e-12)
(1.4419 -0.00376337 -1.31237e-12)
(1.44199 -0.00374618 -1.31437e-12)
(1.44208 -0.0037291 -1.32065e-12)
(1.44217 -0.00371213 -1.31634e-12)
(1.44226 -0.00369527 -1.33025e-12)
(1.44234 -0.00367852 -1.31094e-12)
(1.44243 -0.00366188 -1.34667e-12)
(1.44251 -0.00364534 -1.29079e-12)
(1.44259 -0.00362891 -1.19717e-12)
(1.44267 -0.00361258 -1.22143e-12)
(1.44275 -0.00359636 -1.21638e-12)
(1.44283 -0.00358024 -1.26224e-12)
(1.44291 -0.00356422 -1.21218e-12)
(1.44299 -0.00354831 -1.13357e-12)
(1.44306 -0.00353249 -1.14598e-12)
(1.44314 -0.00351677 -1.18535e-12)
(1.44321 -0.00350115 -1.16944e-12)
(1.44329 -0.00348563 -1.24093e-12)
(1.44336 -0.00347021 -1.35476e-12)
(1.44343 -0.00345488 -1.33902e-12)
(1.4435 -0.00343965 -1.35583e-12)
(1.44357 -0.00342451 -1.31693e-12)
(1.44364 -0.00340946 -1.37221e-12)
(1.44371 -0.00339451 -1.46979e-12)
(1.44378 -0.00337965 -1.44041e-12)
(1.44385 -0.00336488 -1.44328e-12)
(1.44391 -0.00335021 -1.39211e-12)
(1.44398 -0.00333562 -1.43994e-12)
(1.44404 -0.00332112 -1.52454e-12)
(1.4441 -0.00330671 -1.49811e-12)
(1.44417 -0.00329239 -1.47203e-12)
(1.44423 -0.00327815 -1.45174e-12)
(1.44429 -0.003264 -1.42989e-12)
(1.44435 -0.00324994 -1.41458e-12)
(1.44441 -0.00323596 -1.39587e-12)
(1.44447 -0.00322207 -1.38436e-12)
(1.44453 -0.00320826 -1.36853e-12)
(1.44459 -0.00319453 -1.35878e-12)
(1.44464 -0.00318088 -1.34761e-12)
(1.4447 -0.00316732 -1.33483e-12)
(1.44475 -0.00315383 -1.3349e-12)
(1.44481 -0.00314043 -1.30704e-12)
(1.44486 -0.0031271 -1.3368e-12)
(1.44492 -0.00311386 -1.26333e-12)
(1.44497 -0.00310069 -1.15982e-12)
(1.44502 -0.0030876 -1.15878e-12)
(1.44507 -0.00307459 -1.19059e-12)
(1.44512 -0.00306165 -1.1604e-12)
(1.44517 -0.00304879 -1.23145e-12)
(1.44522 -0.00303601 -1.3461e-12)
(1.44527 -0.00302329 -1.32345e-12)
(1.44532 -0.00301066 -1.33243e-12)
(1.44537 -0.00299809 -1.28455e-12)
(1.44542 -0.0029856 -1.34073e-12)
(1.44546 -0.00297319 -1.43861e-12)
(1.44551 -0.00296084 -1.41303e-12)
(1.44555 -0.00294856 -1.39019e-12)
(1.4456 -0.00293636 -1.36977e-12)
(1.44564 -0.00292422 -1.35145e-12)
(1.44569 -0.00291216 -1.33499e-12)
(1.44573 -0.00290016 -1.32019e-12)
(1.44577 -0.00288823 -1.30679e-12)
(1.44582 -0.00287637 -1.29467e-12)
(1.44586 -0.00286458 -1.28368e-12)
(1.4459 -0.00285285 -1.27366e-12)
(1.44594 -0.00284119 -1.26453e-12)
(1.44598 -0.0028296 -1.25615e-12)
(1.44602 -0.00281807 -1.24847e-12)
(1.44606 -0.00280661 -1.24137e-12)
(1.4461 -0.00279521 -1.23482e-12)
(1.44614 -0.00278387 -1.22874e-12)
(1.44617 -0.0027726 -1.2231e-12)
(1.37304 -0.00452334 -1.6462e-12)
(1.37301 -0.00449879 -1.64282e-12)
(1.37298 -0.00447443 -1.6394e-12)
(1.37294 -0.00445026 -1.63593e-12)
(1.37291 -0.00442629 -1.63243e-12)
(1.37288 -0.00440251 -1.62886e-12)
(1.37284 -0.00437891 -1.6253e-12)
(1.37281 -0.0043555 -1.62172e-12)
(1.37277 -0.00433227 -1.61808e-12)
(1.37274 -0.00430923 -1.6145e-12)
(1.3727 -0.00428636 -1.6109e-12)
(1.37266 -0.00426368 -1.60727e-12)
(1.37262 -0.00424116 -1.60368e-12)
(1.37258 -0.00421883 -1.60008e-12)
(1.37254 -0.00419666 -1.59649e-12)
(1.3725 -0.00417467 -1.59287e-12)
(1.37246 -0.00415284 -1.58928e-12)
(1.37242 -0.00413119 -1.58568e-12)
(1.37237 -0.00410969 -1.58213e-12)
(1.37233 -0.00408837 -1.57856e-12)
(1.37229 -0.0040672 -1.57504e-12)
(1.37224 -0.00404619 -1.57148e-12)
(1.3722 -0.00402534 -1.56796e-12)
(1.37215 -0.00400465 -1.56442e-12)
(1.3721 -0.00398412 -1.56096e-12)
(1.37205 -0.00396374 -1.55742e-12)
(1.37201 -0.00394351 -1.55399e-12)
(1.37196 -0.00392343 -1.55044e-12)
(1.37191 -0.0039035 -1.54705e-12)
(1.37186 -0.00388372 -1.5435e-12)
(1.37181 -0.00386408 -1.54015e-12)
(1.37176 -0.00384459 -1.53661e-12)
(1.37171 -0.00382525 -1.53323e-12)
(1.37165 -0.00380604 -1.52978e-12)
(1.3716 -0.00378698 -1.52631e-12)
(1.37155 -0.00376805 -1.52304e-12)
(1.3715 -0.00374926 -1.51938e-12)
(1.37144 -0.00373061 -1.51637e-12)
(1.37139 -0.00371209 -1.51238e-12)
(1.37134 -0.00369371 -1.50985e-12)
(1.37128 -0.00367546 -1.50535e-12)
(1.37123 -0.00365734 -1.5033e-12)
(1.37117 -0.00363935 -1.49868e-12)
(1.37111 -0.00362149 -1.49595e-12)
(1.37106 -0.00360376 -1.49377e-12)
(1.371 -0.00358615 -1.48513e-12)
(1.37094 -0.00356867 -1.47761e-12)
(1.37089 -0.00355131 -1.47099e-12)
(1.37083 -0.00353407 -1.46511e-12)
(1.37077 -0.00351696 -1.45993e-12)
(1.37071 -0.00349996 -1.45511e-12)
(1.37065 -0.00348308 -1.45107e-12)
(1.37059 -0.00346633 -1.44681e-12)
(1.37054 -0.00344968 -1.44374e-12)
(1.37048 -0.00343316 -1.43966e-12)
(1.37042 -0.00341675 -1.43745e-12)
(1.37036 -0.00340045 -1.43331e-12)
(1.3703 -0.00338426 -1.43166e-12)
(1.37023 -0.00336819 -1.42791e-12)
(1.37017 -0.00335222 -1.42529e-12)
(1.37011 -0.00333637 -1.42486e-12)
(1.37005 -0.00332062 -1.41529e-12)
(1.36999 -0.00330498 -1.40986e-12)
(1.36993 -0.00328945 -1.40206e-12)
(1.36987 -0.00327402 -1.39808e-12)
(1.3698 -0.0032587 -1.39401e-12)
(1.36974 -0.00324348 -1.38522e-12)
(1.36968 -0.00322836 -1.37599e-12)
(1.36962 -0.00321334 -1.3701e-12)
(1.36955 -0.00319843 -1.36445e-12)
(1.36949 -0.00318361 -1.35752e-12)
(1.36943 -0.00316889 -1.36057e-12)
(1.36936 -0.00315427 -1.36072e-12)
(1.3693 -0.00313975 -1.36255e-12)
(1.36923 -0.00312532 -1.36293e-12)
(1.36917 -0.00311099 -1.36067e-12)
(1.36911 -0.00309675 -1.36767e-12)
(1.36904 -0.00308261 -1.37037e-12)
(1.36898 -0.00306856 -1.37478e-12)
(1.36891 -0.0030546 -1.37581e-12)
(1.36885 -0.00304073 -1.3755e-12)
(1.36878 -0.00302695 -1.38165e-12)
(1.36872 -0.00301326 -1.38621e-12)
(1.36865 -0.00299966 -1.38884e-12)
(1.36859 -0.00298615 -1.39053e-12)
(1.36852 -0.00297272 -1.39075e-12)
(1.36846 -0.00295938 -1.39033e-12)
(1.36839 -0.00294613 -1.38904e-12)
(1.36833 -0.00293296 -1.38703e-12)
(1.36826 -0.00291988 -1.38494e-12)
(1.3682 -0.00290687 -1.38149e-12)
(1.36813 -0.00289395 -1.37931e-12)
(1.36806 -0.00288112 -1.3745e-12)
(1.368 -0.00286836 -1.37264e-12)
(1.36793 -0.00285568 -1.36691e-12)
(1.36787 -0.00284309 -1.36441e-12)
(1.3678 -0.00283057 -1.36089e-12)
(1.36773 -0.00281813 -1.35154e-12)
(1.36767 -0.00280577 -1.34095e-12)
(1.3676 -0.00279349 -1.33387e-12)
(1.36753 -0.00278128 -1.32646e-12)
(1.36747 -0.00276915 -1.31757e-12)
(1.3674 -0.00275709 -1.31955e-12)
(1.36733 -0.00274511 -1.31796e-12)
(1.36727 -0.0027332 -1.31868e-12)
(1.3672 -0.00272136 -1.31665e-12)
(1.36713 -0.0027096 -1.31338e-12)
(1.36707 -0.00269791 -1.31792e-12)
(1.367 -0.00268629 -1.32078e-12)
(1.36693 -0.00267474 -1.32225e-12)
(1.36687 -0.00266326 -1.32256e-12)
(1.3668 -0.00265185 -1.32192e-12)
(1.36673 -0.00264051 -1.32049e-12)
(1.36667 -0.00262924 -1.31842e-12)
(1.3666 -0.00261804 -1.31582e-12)
(1.36653 -0.0026069 -1.3128e-12)
(1.36647 -0.00259583 -1.30946e-12)
(1.3664 -0.00258483 -1.30583e-12)
(1.36633 -0.00257389 -1.302e-12)
(1.36627 -0.00256302 -1.29801e-12)
(1.3662 -0.00255221 -1.29389e-12)
(1.36613 -0.00254147 -1.28971e-12)
(1.36607 -0.00253079 -1.28545e-12)
(1.366 -0.00252017 -1.28118e-12)
(1.36593 -0.00250962 -1.27687e-12)
(1.29154 -0.00400928 -1.74248e-12)
(1.29133 -0.00398633 -1.73806e-12)
(1.29112 -0.00396358 -1.73365e-12)
(1.29091 -0.00394103 -1.72918e-12)
(1.2907 -0.00391866 -1.72468e-12)
(1.29049 -0.00389649 -1.72013e-12)
(1.29028 -0.0038745 -1.71557e-12)
(1.29008 -0.0038527 -1.71095e-12)
(1.28987 -0.00383108 -1.70631e-12)
(1.28966 -0.00380965 -1.70164e-12)
(1.28946 -0.00378839 -1.69697e-12)
(1.28925 -0.00376731 -1.6923e-12)
(1.28904 -0.00374641 -1.68758e-12)
(1.28884 -0.00372567 -1.68285e-12)
(1.28863 -0.00370511 -1.67812e-12)
(1.28843 -0.00368472 -1.67339e-12)
(1.28823 -0.0036645 -1.66866e-12)
(1.28802 -0.00364444 -1.66391e-12)
(1.28782 -0.00362454 -1.65918e-12)
(1.28762 -0.00360481 -1.65443e-12)
(1.28741 -0.00358524 -1.64968e-12)
(1.28721 -0.00356582 -1.64494e-12)
(1.28701 -0.00354656 -1.64021e-12)
(1.28681 -0.00352746 -1.63547e-12)
(1.28661 -0.00350851 -1.63073e-12)
(1.28641 -0.00348971 -1.62599e-12)
(1.28621 -0.00347106 -1.62131e-12)
(1.28601 -0.00345256 -1.61659e-12)
(1.28581 -0.0034342 -1.61189e-12)
(1.28561 -0.00341599 -1.60718e-12)
(1.28542 -0.00339792 -1.60254e-12)
(1.28522 -0.00338 -1.59785e-12)
(1.28502 -0.00336221 -1.59318e-12)
(1.28482 -0.00334456 -1.58854e-12)
(1.28463 -0.00332705 -1.58388e-12)
(1.28443 -0.00330968 -1.57931e-12)
(1.28424 -0.00329244 -1.57463e-12)
(1.28404 -0.00327534 -1.5701e-12)
(1.28385 -0.00325836 -1.56544e-12)
(1.28366 -0.00324152 -1.56096e-12)
(1.28346 -0.0032248 -1.55634e-12)
(1.28327 -0.00320821 -1.55182e-12)
(1.28308 -0.00319175 -1.54733e-12)
(1.28289 -0.00317541 -1.5427e-12)
(1.2827 -0.00315919 -1.53837e-12)
(1.28251 -0.0031431 -1.53379e-12)
(1.28232 -0.00312713 -1.529e-12)
(1.28213 -0.00311128 -1.52412e-12)
(1.28194 -0.00309555 -1.51912e-12)
(1.28175 -0.00307993 -1.51418e-12)
(1.28156 -0.00306443 -1.50914e-12)
(1.28137 -0.00304904 -1.50419e-12)
(1.28119 -0.00303377 -1.49918e-12)
(1.281 -0.00301861 -1.49435e-12)
(1.28081 -0.00300357 -1.48942e-12)
(1.28063 -0.00298863 -1.48468e-12)
(1.28044 -0.0029738 -1.4799e-12)
(1.28026 -0.00295908 -1.47519e-12)
(1.28007 -0.00294447 -1.47069e-12)
(1.27989 -0.00292996 -1.46593e-12)
(1.27971 -0.00291556 -1.46172e-12)
(1.27952 -0.00290126 -1.45706e-12)
(1.27934 -0.00288706 -1.45243e-12)
(1.27916 -0.00287297 -1.4476e-12)
(1.27898 -0.00285898 -1.44272e-12)
(1.2788 -0.00284508 -1.438e-12)
(1.27862 -0.00283129 -1.4331e-12)
(1.27844 -0.00281759 -1.42801e-12)
(1.27826 -0.00280399 -1.42272e-12)
(1.27808 -0.00279049 -1.41768e-12)
(1.2779 -0.00277708 -1.41224e-12)
(1.27773 -0.00276376 -1.40723e-12)
(1.27755 -0.00275054 -1.40253e-12)
(1.27737 -0.00273741 -1.39794e-12)
(1.2772 -0.00272438 -1.39387e-12)
(1.27702 -0.00271143 -1.38949e-12)
(1.27685 -0.00269857 -1.38573e-12)
(1.27667 -0.0026858 -1.38218e-12)
(1.2765 -0.00267312 -1.37891e-12)
(1.27633 -0.00266053 -1.37595e-12)
(1.27615 -0.00264802 -1.37282e-12)
(1.27598 -0.0026356 -1.37006e-12)
(1.27581 -0.00262326 -1.36759e-12)
(1.27564 -0.00261101 -1.36527e-12)
(1.27547 -0.00259884 -1.36307e-12)
(1.2753 -0.00258675 -1.36091e-12)
(1.27513 -0.00257474 -1.3587e-12)
(1.27496 -0.00256282 -1.35653e-12)
(1.27479 -0.00255097 -1.3542e-12)
(1.27462 -0.0025392 -1.35193e-12)
(1.27445 -0.00252752 -1.34937e-12)
(1.27428 -0.00251591 -1.34697e-12)
(1.27412 -0.00250437 -1.34421e-12)
(1.27395 -0.00249292 -1.34159e-12)
(1.27378 -0.00248154 -1.33871e-12)
(1.27362 -0.00247023 -1.3358e-12)
(1.27345 -0.002459 -1.33293e-12)
(1.27329 -0.00244785 -1.32978e-12)
(1.27312 -0.00243676 -1.32627e-12)
(1.27296 -0.00242575 -1.32244e-12)
(1.2728 -0.00241481 -1.31873e-12)
(1.27264 -0.00240394 -1.3144e-12)
(1.27247 -0.00239314 -1.31052e-12)
(1.27231 -0.00238241 -1.30675e-12)
(1.27215 -0.00237175 -1.30307e-12)
(1.27199 -0.00236116 -1.2997e-12)
(1.27183 -0.00235064 -1.29605e-12)
(1.27167 -0.00234018 -1.29285e-12)
(1.27151 -0.0023298 -1.28988e-12)
(1.27135 -0.00231947 -1.28712e-12)
(1.27119 -0.00230922 -1.28446e-12)
(1.27104 -0.00229902 -1.28189e-12)
(1.27088 -0.0022889 -1.27931e-12)
(1.27072 -0.00227883 -1.27676e-12)
(1.27057 -0.00226883 -1.27413e-12)
(1.27041 -0.0022589 -1.2715e-12)
(1.27026 -0.00224902 -1.26875e-12)
(1.2701 -0.00223921 -1.26598e-12)
(1.26995 -0.00222946 -1.26311e-12)
(1.26979 -0.00221977 -1.26021e-12)
(1.26964 -0.00221013 -1.2572e-12)
(1.26949 -0.00220056 -1.25415e-12)
(1.26933 -0.00219105 -1.25102e-12)
(1.26918 -0.0021816 -1.24786e-12)
(1.26903 -0.0021722 -1.24462e-12)
(1.18873 -0.00336179 -1.74834e-12)
(1.18838 -0.00334172 -1.74227e-12)
(1.18803 -0.00332183 -1.73622e-12)
(1.18768 -0.00330211 -1.73021e-12)
(1.18733 -0.00328258 -1.72416e-12)
(1.18699 -0.00326322 -1.71816e-12)
(1.18665 -0.00324403 -1.7122e-12)
(1.18631 -0.00322501 -1.70622e-12)
(1.18597 -0.00320617 -1.70032e-12)
(1.18563 -0.00318749 -1.69437e-12)
(1.18529 -0.00316897 -1.68844e-12)
(1.18495 -0.00315062 -1.68257e-12)
(1.18462 -0.00313242 -1.67668e-12)
(1.18429 -0.00311439 -1.67082e-12)
(1.18396 -0.00309651 -1.66497e-12)
(1.18363 -0.00307879 -1.65915e-12)
(1.1833 -0.00306122 -1.65337e-12)
(1.18297 -0.0030438 -1.64757e-12)
(1.18264 -0.00302653 -1.6418e-12)
(1.18232 -0.00300941 -1.63605e-12)
(1.182 -0.00299244 -1.6303e-12)
(1.18167 -0.00297561 -1.6246e-12)
(1.18135 -0.00295892 -1.6189e-12)
(1.18103 -0.00294238 -1.61322e-12)
(1.18072 -0.00292597 -1.60755e-12)
(1.1804 -0.0029097 -1.60191e-12)
(1.18009 -0.00289357 -1.59631e-12)
(1.17977 -0.00287757 -1.5907e-12)
(1.17946 -0.0028617 -1.58513e-12)
(1.17915 -0.00284597 -1.57955e-12)
(1.17884 -0.00283036 -1.57403e-12)
(1.17853 -0.00281489 -1.5685e-12)
(1.17822 -0.00279954 -1.56299e-12)
(1.17792 -0.00278432 -1.55751e-12)
(1.17761 -0.00276922 -1.55206e-12)
(1.17731 -0.00275424 -1.54664e-12)
(1.17701 -0.00273939 -1.54122e-12)
(1.17671 -0.00272465 -1.53585e-12)
(1.17641 -0.00271003 -1.53046e-12)
(1.17611 -0.00269554 -1.52514e-12)
(1.17581 -0.00268115 -1.51982e-12)
(1.17552 -0.00266689 -1.51451e-12)
(1.17522 -0.00265273 -1.50926e-12)
(1.17493 -0.00263869 -1.50399e-12)
(1.17464 -0.00262476 -1.49878e-12)
(1.17435 -0.00261094 -1.49357e-12)
(1.17406 -0.00259722 -1.48837e-12)
(1.17377 -0.00258362 -1.48321e-12)
(1.17348 -0.00257012 -1.47802e-12)
(1.17319 -0.00255673 -1.47286e-12)
(1.17291 -0.00254344 -1.46768e-12)
(1.17263 -0.00253025 -1.4625e-12)
(1.17234 -0.00251717 -1.45733e-12)
(1.17206 -0.00250418 -1.45218e-12)
(1.17178 -0.0024913 -1.44703e-12)
(1.1715 -0.00247851 -1.44189e-12)
(1.17122 -0.00246582 -1.43677e-12)
(1.17095 -0.00245323 -1.43166e-12)
(1.17067 -0.00244074 -1.4266e-12)
(1.1704 -0.00242834 -1.42152e-12)
(1.17012 -0.00241603 -1.41652e-12)
(1.16985 -0.00240381 -1.41152e-12)
(1.16958 -0.00239169 -1.40655e-12)
(1.16931 -0.00237966 -1.4016e-12)
(1.16904 -0.00236771 -1.39663e-12)
(1.16877 -0.00235586 -1.3917e-12)
(1.16851 -0.00234409 -1.38674e-12)
(1.16824 -0.00233241 -1.38183e-12)
(1.16798 -0.00232082 -1.37686e-12)
(1.16771 -0.00230931 -1.37193e-12)
(1.16745 -0.00229788 -1.36697e-12)
(1.16719 -0.00228654 -1.36199e-12)
(1.16693 -0.00227528 -1.35705e-12)
(1.16667 -0.00226411 -1.35211e-12)
(1.16641 -0.00225301 -1.34724e-12)
(1.16615 -0.002242 -1.34242e-12)
(1.1659 -0.00223106 -1.33762e-12)
(1.16564 -0.00222021 -1.33291e-12)
(1.16539 -0.00220943 -1.32825e-12)
(1.16514 -0.00219872 -1.3237e-12)
(1.16488 -0.0021881 -1.31919e-12)
(1.16463 -0.00217755 -1.31477e-12)
(1.16438 -0.00216707 -1.31042e-12)
(1.16413 -0.00215667 -1.30618e-12)
(1.16389 -0.00214634 -1.30202e-12)
(1.16364 -0.00213609 -1.29795e-12)
(1.16339 -0.0021259 -1.29395e-12)
(1.16315 -0.00211579 -1.29005e-12)
(1.1629 -0.00210575 -1.28618e-12)
(1.16266 -0.00209578 -1.28239e-12)
(1.16242 -0.00208587 -1.27862e-12)
(1.16218 -0.00207604 -1.27492e-12)
(1.16194 -0.00206627 -1.27125e-12)
(1.1617 -0.00205657 -1.26761e-12)
(1.16146 -0.00204694 -1.26399e-12)
(1.16122 -0.00203737 -1.26037e-12)
(1.16098 -0.00202787 -1.2568e-12)
(1.16075 -0.00201843 -1.25322e-12)
(1.16051 -0.00200906 -1.24967e-12)
(1.16028 -0.00199975 -1.24605e-12)
(1.16005 -0.0019905 -1.24246e-12)
(1.15982 -0.00198132 -1.23879e-12)
(1.15958 -0.0019722 -1.23512e-12)
(1.15935 -0.00196314 -1.23144e-12)
(1.15913 -0.00195413 -1.22775e-12)
(1.1589 -0.00194519 -1.22408e-12)
(1.15867 -0.00193631 -1.22042e-12)
(1.15844 -0.00192749 -1.21676e-12)
(1.15822 -0.00191873 -1.21315e-12)
(1.15799 -0.00191002 -1.20955e-12)
(1.15777 -0.00190137 -1.20603e-12)
(1.15755 -0.00189278 -1.20252e-12)
(1.15732 -0.00188424 -1.19908e-12)
(1.1571 -0.00187576 -1.19567e-12)
(1.15688 -0.00186734 -1.1923e-12)
(1.15666 -0.00185897 -1.18897e-12)
(1.15644 -0.00185065 -1.18565e-12)
(1.15623 -0.00184239 -1.18236e-12)
(1.15601 -0.00183418 -1.17908e-12)
(1.15579 -0.00182602 -1.17584e-12)
(1.15558 -0.00181792 -1.1726e-12)
(1.15536 -0.00180987 -1.16935e-12)
(1.15515 -0.00180187 -1.1661e-12)
(1.15494 -0.00179392 -1.16287e-12)
(1.15472 -0.00178602 -1.15963e-12)
(1.06357 -0.00263733 -1.65117e-12)
(1.06313 -0.00262107 -1.644e-12)
(1.0627 -0.00260497 -1.63687e-12)
(1.06226 -0.00258901 -1.62978e-12)
(1.06183 -0.0025732 -1.62282e-12)
(1.0614 -0.00255755 -1.61587e-12)
(1.06097 -0.00254203 -1.60906e-12)
(1.06055 -0.00252666 -1.60223e-12)
(1.06012 -0.00251144 -1.59549e-12)
(1.0597 -0.00249635 -1.58874e-12)
(1.05929 -0.0024814 -1.58205e-12)
(1.05887 -0.00246659 -1.57544e-12)
(1.05846 -0.00245191 -1.56887e-12)
(1.05804 -0.00243737 -1.56234e-12)
(1.05763 -0.00242296 -1.55583e-12)
(1.05723 -0.00240868 -1.54937e-12)
(1.05682 -0.00239452 -1.54294e-12)
(1.05642 -0.0023805 -1.53658e-12)
(1.05602 -0.00236659 -1.53019e-12)
(1.05562 -0.00235281 -1.52388e-12)
(1.05522 -0.00233916 -1.51759e-12)
(1.05482 -0.00232562 -1.51138e-12)
(1.05443 -0.00231221 -1.50515e-12)
(1.05404 -0.00229891 -1.49895e-12)
(1.05365 -0.00228572 -1.49282e-12)
(1.05326 -0.00227266 -1.48672e-12)
(1.05288 -0.0022597 -1.48067e-12)
(1.05249 -0.00224686 -1.47462e-12)
(1.05211 -0.00223413 -1.46866e-12)
(1.05173 -0.0022215 -1.46265e-12)
(1.05136 -0.00220899 -1.45674e-12)
(1.05098 -0.00219658 -1.45084e-12)
(1.05061 -0.00218428 -1.445e-12)
(1.05023 -0.00217208 -1.43914e-12)
(1.04986 -0.00215999 -1.43335e-12)
(1.0495 -0.00214799 -1.42758e-12)
(1.04913 -0.0021361 -1.42186e-12)
(1.04876 -0.00212431 -1.41617e-12)
(1.0484 -0.00211261 -1.41054e-12)
(1.04804 -0.00210102 -1.40488e-12)
(1.04768 -0.00208952 -1.39928e-12)
(1.04732 -0.00207811 -1.39372e-12)
(1.04697 -0.0020668 -1.3882e-12)
(1.04661 -0.00205558 -1.38271e-12)
(1.04626 -0.00204445 -1.37725e-12)
(1.04591 -0.00203341 -1.37184e-12)
(1.04556 -0.00202247 -1.36643e-12)
(1.04521 -0.00201161 -1.36106e-12)
(1.04487 -0.00200084 -1.35572e-12)
(1.04452 -0.00199015 -1.35044e-12)
(1.04418 -0.00197956 -1.34515e-12)
(1.04384 -0.00196904 -1.3399e-12)
(1.0435 -0.00195861 -1.33466e-12)
(1.04317 -0.00194827 -1.32949e-12)
(1.04283 -0.001938 -1.32427e-12)
(1.0425 -0.00192782 -1.31913e-12)
(1.04216 -0.00191771 -1.314e-12)
(1.04183 -0.00190769 -1.30888e-12)
(1.0415 -0.00189775 -1.30384e-12)
(1.04117 -0.00188788 -1.29876e-12)
(1.04085 -0.00187809 -1.29373e-12)
(1.04052 -0.00186837 -1.28873e-12)
(1.0402 -0.00185873 -1.28375e-12)
(1.03988 -0.00184917 -1.2788e-12)
(1.03956 -0.00183967 -1.27389e-12)
(1.03924 -0.00183026 -1.26899e-12)
(1.03892 -0.00182091 -1.26412e-12)
(1.03861 -0.00181163 -1.25927e-12)
(1.03829 -0.00180243 -1.25443e-12)
(1.03798 -0.00179329 -1.24963e-12)
(1.03767 -0.00178422 -1.24484e-12)
(1.03736 -0.00177523 -1.24008e-12)
(1.03705 -0.0017663 -1.23531e-12)
(1.03674 -0.00175743 -1.23059e-12)
(1.03644 -0.00174863 -1.22585e-12)
(1.03613 -0.0017399 -1.22115e-12)
(1.03583 -0.00173123 -1.21649e-12)
(1.03553 -0.00172263 -1.21184e-12)
(1.03523 -0.00171409 -1.20725e-12)
(1.03493 -0.00170561 -1.20264e-12)
(1.03463 -0.0016972 -1.19807e-12)
(1.03433 -0.00168885 -1.19356e-12)
(1.03404 -0.00168055 -1.18907e-12)
(1.03374 -0.00167232 -1.18463e-12)
(1.03345 -0.00166415 -1.18023e-12)
(1.03316 -0.00165603 -1.17588e-12)
(1.03287 -0.00164798 -1.17154e-12)
(1.03258 -0.00163998 -1.16729e-12)
(1.0323 -0.00163204 -1.16306e-12)
(1.03201 -0.00162416 -1.15888e-12)
(1.03173 -0.00161633 -1.15473e-12)
(1.03144 -0.00160856 -1.15064e-12)
(1.03116 -0.00160085 -1.14657e-12)
(1.03088 -0.00159319 -1.14257e-12)
(1.0306 -0.00158558 -1.13861e-12)
(1.03032 -0.00157803 -1.13466e-12)
(1.03005 -0.00157053 -1.13076e-12)
(1.02977 -0.00156308 -1.1269e-12)
(1.0295 -0.00155568 -1.12308e-12)
(1.02922 -0.00154834 -1.11926e-12)
(1.02895 -0.00154104 -1.1155e-12)
(1.02868 -0.0015338 -1.11172e-12)
(1.02841 -0.00152661 -1.10801e-12)
(1.02814 -0.00151946 -1.10429e-12)
(1.02787 -0.00151237 -1.10061e-12)
(1.02761 -0.00150532 -1.09691e-12)
(1.02734 -0.00149832 -1.09328e-12)
(1.02708 -0.00149137 -1.08961e-12)
(1.02681 -0.00148447 -1.08602e-12)
(1.02655 -0.00147761 -1.08239e-12)
(1.02629 -0.0014708 -1.07885e-12)
(1.02603 -0.00146404 -1.07526e-12)
(1.02577 -0.00145732 -1.07175e-12)
(1.02552 -0.00145064 -1.06825e-12)
(1.02526 -0.00144402 -1.06476e-12)
(1.02501 -0.00143743 -1.0613e-12)
(1.02475 -0.00143089 -1.05787e-12)
(1.0245 -0.00142439 -1.05449e-12)
(1.02425 -0.00141794 -1.05111e-12)
(1.024 -0.00141152 -1.04776e-12)
(1.02375 -0.00140515 -1.04444e-12)
(1.0235 -0.00139882 -1.04112e-12)
(1.02325 -0.00139254 -1.03786e-12)
(1.023 -0.00138629 -1.03457e-12)
(1.02276 -0.00138009 -1.03132e-12)
(0.915965 -0.00190072 -1.45345e-12)
(0.915495 -0.00188873 -1.44649e-12)
(0.915029 -0.00187687 -1.43956e-12)
(0.914565 -0.00186512 -1.43265e-12)
(0.914104 -0.00185348 -1.42583e-12)
(0.913646 -0.00184195 -1.41898e-12)
(0.91319 -0.00183053 -1.41223e-12)
(0.912737 -0.00181923 -1.40546e-12)
(0.912287 -0.00180803 -1.39878e-12)
(0.911839 -0.00179693 -1.39204e-12)
(0.911394 -0.00178594 -1.38544e-12)
(0.910951 -0.00177506 -1.37886e-12)
(0.910511 -0.00176427 -1.3723e-12)
(0.910073 -0.00175359 -1.3658e-12)
(0.909638 -0.001743 -1.35936e-12)
(0.909205 -0.00173252 -1.35292e-12)
(0.908775 -0.00172213 -1.34652e-12)
(0.908347 -0.00171183 -1.34021e-12)
(0.907922 -0.00170163 -1.33395e-12)
(0.907499 -0.00169153 -1.32771e-12)
(0.907078 -0.00168151 -1.32149e-12)
(0.90666 -0.00167159 -1.31536e-12)
(0.906244 -0.00166175 -1.30923e-12)
(0.90583 -0.001652 -1.30316e-12)
(0.905419 -0.00164235 -1.29716e-12)
(0.90501 -0.00163277 -1.2912e-12)
(0.904603 -0.00162329 -1.28531e-12)
(0.904199 -0.00161388 -1.27943e-12)
(0.903796 -0.00160456 -1.27362e-12)
(0.903396 -0.00159532 -1.26779e-12)
(0.902998 -0.00158617 -1.26206e-12)
(0.902602 -0.00157709 -1.25634e-12)
(0.902208 -0.00156809 -1.25071e-12)
(0.901817 -0.00155917 -1.24509e-12)
(0.901427 -0.00155033 -1.2395e-12)
(0.90104 -0.00154156 -1.23397e-12)
(0.900655 -0.00153287 -1.22852e-12)
(0.900271 -0.00152425 -1.22304e-12)
(0.89989 -0.00151571 -1.21768e-12)
(0.899511 -0.00150724 -1.21227e-12)
(0.899134 -0.00149884 -1.20694e-12)
(0.898759 -0.00149052 -1.20166e-12)
(0.898386 -0.00148226 -1.19642e-12)
(0.898014 -0.00147407 -1.19121e-12)
(0.897645 -0.00146595 -1.18605e-12)
(0.897278 -0.0014579 -1.18092e-12)
(0.896912 -0.00144992 -1.17583e-12)
(0.896549 -0.001442 -1.17077e-12)
(0.896187 -0.00143414 -1.16574e-12)
(0.895827 -0.00142636 -1.16077e-12)
(0.895469 -0.00141863 -1.15583e-12)
(0.895113 -0.00141097 -1.15091e-12)
(0.894759 -0.00140337 -1.14603e-12)
(0.894407 -0.00139584 -1.14121e-12)
(0.894056 -0.00138836 -1.13636e-12)
(0.893707 -0.00138095 -1.13157e-12)
(0.89336 -0.00137359 -1.12682e-12)
(0.893015 -0.00136629 -1.12211e-12)
(0.892671 -0.00135906 -1.11743e-12)
(0.89233 -0.00135187 -1.11274e-12)
(0.89199 -0.00134475 -1.10812e-12)
(0.891651 -0.00133768 -1.10353e-12)
(0.891315 -0.00133067 -1.09898e-12)
(0.89098 -0.00132372 -1.09444e-12)
(0.890646 -0.00131682 -1.08993e-12)
(0.890315 -0.00130997 -1.08545e-12)
(0.889985 -0.00130318 -1.081e-12)
(0.889656 -0.00129644 -1.07658e-12)
(0.88933 -0.00128975 -1.07219e-12)
(0.889004 -0.00128311 -1.06782e-12)
(0.888681 -0.00127653 -1.06347e-12)
(0.888359 -0.00126999 -1.05917e-12)
(0.888039 -0.00126351 -1.05485e-12)
(0.88772 -0.00125707 -1.05062e-12)
(0.887403 -0.00125068 -1.04633e-12)
(0.887087 -0.00124435 -1.04211e-12)
(0.886773 -0.00123806 -1.03791e-12)
(0.88646 -0.00123182 -1.03374e-12)
(0.886149 -0.00122562 -1.02962e-12)
(0.885839 -0.00121947 -1.02546e-12)
(0.885531 -0.00121337 -1.02136e-12)
(0.885224 -0.00120731 -1.0173e-12)
(0.884919 -0.0012013 -1.01325e-12)
(0.884616 -0.00119533 -1.00924e-12)
(0.884313 -0.00118941 -1.00522e-12)
(0.884012 -0.00118353 -1.00127e-12)
(0.883713 -0.00117769 -9.97306e-13)
(0.883415 -0.0011719 -9.93402e-13)
(0.883118 -0.00116615 -9.89534e-13)
(0.882823 -0.00116044 -9.8566e-13)
(0.882529 -0.00115477 -9.81844e-13)
(0.882237 -0.00114914 -9.78043e-13)
(0.881946 -0.00114356 -9.74303e-13)
(0.881656 -0.00113801 -9.70507e-13)
(0.881368 -0.00113251 -9.66828e-13)
(0.881081 -0.00112704 -9.63136e-13)
(0.880795 -0.00112161 -9.59533e-13)
(0.880511 -0.00111622 -9.55885e-13)
(0.880228 -0.00111087 -9.52315e-13)
(0.879946 -0.00110556 -9.48739e-13)
(0.879666 -0.00110028 -9.45253e-13)
(0.879387 -0.00109505 -9.41713e-13)
(0.879109 -0.00108985 -9.38264e-13)
(0.878832 -0.00108468 -9.34825e-13)
(0.878557 -0.00107955 -9.31402e-13)
(0.878283 -0.00107446 -9.27978e-13)
(0.87801 -0.0010694 -9.24638e-13)
(0.877738 -0.00106438 -9.21269e-13)
(0.877468 -0.00105939 -9.1798e-13)
(0.877199 -0.00105444 -9.14639e-13)
(0.876931 -0.00104952 -9.11391e-13)
(0.876664 -0.00104463 -9.08125e-13)
(0.876399 -0.00103978 -9.04894e-13)
(0.876135 -0.00103496 -9.01642e-13)
(0.875871 -0.00103018 -8.98475e-13)
(0.875609 -0.00102542 -8.95303e-13)
(0.875349 -0.0010207 -8.92192e-13)
(0.875089 -0.00101601 -8.89038e-13)
(0.874831 -0.00101135 -8.85954e-13)
(0.874573 -0.00100673 -8.8287e-13)
(0.874317 -0.00100213 -8.7984e-13)
(0.874062 -0.000997566 -8.76784e-13)
(0.873808 -0.000993031 -8.73797e-13)
(0.873555 -0.000988526 -8.70799e-13)
(0.873304 -0.000984051 -8.67819e-13)
(0.746604 -0.00121707 -1.18081e-12)
(0.746161 -0.00120929 -1.17458e-12)
(0.745721 -0.00120159 -1.16833e-12)
(0.745284 -0.00119396 -1.1621e-12)
(0.74485 -0.00118641 -1.15584e-12)
(0.744418 -0.00117893 -1.14961e-12)
(0.743989 -0.00117152 -1.1434e-12)
(0.743562 -0.00116419 -1.13726e-12)
(0.743138 -0.00115693 -1.13114e-12)
(0.742717 -0.00114974 -1.12501e-12)
(0.742298 -0.00114261 -1.11896e-12)
(0.741882 -0.00113556 -1.11297e-12)
(0.741468 -0.00112857 -1.10705e-12)
(0.741057 -0.00112165 -1.10118e-12)
(0.740648 -0.00111479 -1.09539e-12)
(0.740242 -0.001108 -1.08959e-12)
(0.739838 -0.00110127 -1.08389e-12)
(0.739436 -0.0010946 -1.07823e-12)
(0.739037 -0.001088 -1.07261e-12)
(0.73864 -0.00108146 -1.06708e-12)
(0.738246 -0.00107497 -1.06159e-12)
(0.737853 -0.00106855 -1.05614e-12)
(0.737463 -0.00106219 -1.05076e-12)
(0.737076 -0.00105588 -1.04541e-12)
(0.73669 -0.00104963 -1.04015e-12)
(0.736307 -0.00104344 -1.03493e-12)
(0.735926 -0.00103731 -1.02976e-12)
(0.735547 -0.00103123 -1.02464e-12)
(0.735171 -0.0010252 -1.01957e-12)
(0.734796 -0.00101923 -1.01453e-12)
(0.734424 -0.00101331 -1.00956e-12)
(0.734053 -0.00100744 -1.00464e-12)
(0.733685 -0.00100163 -9.99751e-13)
(0.733319 -0.000995868 -9.94901e-13)
(0.732955 -0.000990155 -9.90105e-13)
(0.732593 -0.000984493 -9.85344e-13)
(0.732233 -0.000978881 -9.80656e-13)
(0.731875 -0.000973317 -9.75977e-13)
(0.731519 -0.000967801 -9.71364e-13)
(0.731165 -0.000962333 -9.66763e-13)
(0.730813 -0.000956912 -9.62208e-13)
(0.730463 -0.000951538 -9.57697e-13)
(0.730115 -0.000946209 -9.53253e-13)
(0.729768 -0.000940926 -9.48811e-13)
(0.729424 -0.000935688 -9.44438e-13)
(0.729081 -0.000930494 -9.40074e-13)
(0.728741 -0.000925344 -9.35756e-13)
(0.728402 -0.000920237 -9.31469e-13)
(0.728065 -0.000915173 -9.27237e-13)
(0.72773 -0.000910152 -9.23025e-13)
(0.727396 -0.000905172 -9.18856e-13)
(0.727065 -0.000900233 -9.14722e-13)
(0.726735 -0.000895335 -9.1061e-13)
(0.726407 -0.000890478 -9.06532e-13)
(0.72608 -0.000885661 -9.02493e-13)
(0.725756 -0.000880883 -8.98492e-13)
(0.725433 -0.000876144 -8.94518e-13)
(0.725112 -0.000871443 -8.90575e-13)
(0.724792 -0.000866781 -8.86642e-13)
(0.724474 -0.000862157 -8.82745e-13)
(0.724158 -0.000857569 -8.78872e-13)
(0.723843 -0.000853019 -8.75042e-13)
(0.723531 -0.000848505 -8.71263e-13)
(0.723219 -0.000844027 -8.67477e-13)
(0.72291 -0.000839585 -8.63738e-13)
(0.722602 -0.000835178 -8.60017e-13)
(0.722295 -0.000830805 -8.56323e-13)
(0.72199 -0.000826468 -8.52665e-13)
(0.721687 -0.000822164 -8.49028e-13)
(0.721385 -0.000817894 -8.45417e-13)
(0.721085 -0.000813657 -8.41814e-13)
(0.720786 -0.000809454 -8.38262e-13)
(0.720489 -0.000805283 -8.34715e-13)
(0.720193 -0.000801144 -8.31205e-13)
(0.719899 -0.000797037 -8.27692e-13)
(0.719606 -0.000792962 -8.24234e-13)
(0.719315 -0.000788918 -8.20775e-13)
(0.719025 -0.000784905 -8.17338e-13)
(0.718737 -0.000780923 -8.13925e-13)
(0.71845 -0.000776971 -8.10556e-13)
(0.718164 -0.000773049 -8.07205e-13)
(0.71788 -0.000769156 -8.03874e-13)