/*--------------------------------*- C++ -*----------------------------------*\
| =========                 |                                                 |
| \\      /  F ield         | OpenFOAM: The Open Source CFD Toolbox           |
|  \\    /   O peration     | Version:                                        |
|   \\  /    A nd           | Website:  www.openfoam.com                      |
|    \\/     M anipulation  |                                                 |
\*---------------------------------------------------------------------------*/
FoamFile
{
    version     2.0;
    format      ascii;
    class       volScalarField;
    location    "0.5";
    object      p;
}
// * * * * * * * * * * * * * * * * * * * * * * * * * * * * * * * * * * * * * //

dimensions      [0 2 -2 0 0 0 0];


internalField   nonuniform List<scalar> 
400
(
0.466913
0.455727
0.444842
0.43423
0.42387
0.41374
0.403821
0.394096
0.38455
0.375169
0.365942
0.356858
0.347907
0.339082
0.330374
0.321776
0.313283
0.304888
0.296587
0.288375
0.466782
0.455607
0.444732
0.434129
0.423777
0.413655
0.403742
0.394023
0.384483
0.375107
0.365884
0.356804
0.347858
0.339035
0.33033
0.321735
0.313244
0.304852
0.296553
0.288343
0.466521
0.455368
0.444512
0.433928
0.423593
0.413486
0.403587
0.39388
0.38435
0.374985
0.365771
0.356699
0.34776
0.338944
0.330245
0.321655
0.31317
0.304782
0.296487
0.288281
0.466132
0.455012
0.444187
0.433631
0.423321
0.413236
0.403357
0.393669
0.384156
0.374805
0.365605
0.356545
0.347616
0.338811
0.33012
0.321539
0.313061
0.30468
0.296392
0.288191
0.465618
0.454544
0.44376
0.433241
0.422965
0.41291
0.403059
0.393396
0.383905
0.374574
0.365391
0.356347
0.347433
0.33864
0.329962
0.321391
0.312922
0.30455
0.29627
0.288077
0.464987
0.45397
0.443238
0.432767
0.422534
0.412517
0.402701
0.393067
0.383604
0.374297
0.365136
0.356112
0.347215
0.338438
0.329774
0.321216
0.312759
0.304398
0.296127
0.287943
0.46425
0.453302
0.442634
0.43222
0.422038
0.412067
0.402291
0.392694
0.383262
0.373984
0.364849
0.355847
0.346971
0.338212
0.329565
0.321022
0.312578
0.304229
0.295969
0.287795
0.463422
0.452557
0.441963
0.431615
0.421492
0.411574
0.401844
0.392287
0.382892
0.373646
0.364539
0.355563
0.34671
0.337971
0.329341
0.320815
0.312386
0.30405
0.295802
0.287639
0.462526
0.451755
0.441245
0.430971
0.420913
0.411053
0.401374
0.391862
0.382506
0.373295
0.364219
0.35527
0.34644
0.337723
0.329112
0.320603
0.312189
0.303867
0.295632
0.28748
0.461591
0.450924
0.440505
0.430311
0.420323
0.410523
0.400898
0.391433
0.382118
0.372942
0.363898
0.354977
0.346172
0.337476
0.328885
0.320393
0.311995
0.303687
0.295464
0.287323
0.460651
0.450092
0.439768
0.429657
0.419741
0.410004
0.400432
0.391014
0.38174
0.372601
0.363588
0.354694
0.345913
0.337239
0.328667
0.320192
0.311809
0.303514
0.295304
0.287174
0.45974
0.449291
0.439062
0.429033
0.419187
0.409511
0.399991
0.390619
0.381384
0.372279
0.363296
0.354428
0.34567
0.337017
0.328462
0.320003
0.311634
0.303352
0.295153
0.287034
0.45889
0.448546
0.438407
0.428456
0.418676
0.409056
0.399586
0.390256
0.381057
0.371984
0.363028
0.354184
0.345447
0.336812
0.328274
0.319829
0.311473
0.303203
0.295014
0.286904
0.458122
0.447875
0.437818
0.427936
0.418216
0.408647
0.399221
0.389928
0.380762
0.371716
0.362784
0.353962
0.345243
0.336625
0.328101
0.319669
0.311325
0.303065
0.294886
0.286784
0.457445
0.447283
0.437298
0.427476
0.417807
0.408283
0.398893
0.389633
0.380495
0.371473
0.362563
0.353759
0.345057
0.336452
0.327942
0.319521
0.311187
0.302936
0.294765
0.286671
0.456855
0.446763
0.436838
0.427068
0.417442
0.407955
0.398597
0.389364
0.38025
0.371249
0.362357
0.353569
0.344881
0.336289
0.32779
0.319379
0.311054
0.302812
0.294648
0.286561
0.456333
0.446301
0.436426
0.426698
0.417109
0.407652
0.398322
0.389113
0.380019
0.371036
0.36216
0.353386
0.34471
0.33613
0.327641
0.31924
0.310923
0.302688
0.294531
0.286451
0.455845
0.445864
0.436032
0.426341
0.416784
0.407356
0.39805
0.388861
0.379786
0.37082
0.361958
0.353197
0.344534
0.335964
0.327485
0.319092
0.310784
0.302556
0.294407
0.286332
0.45532
0.445389
0.435601
0.425947
0.416422
0.407022
0.39774
0.388574
0.379518
0.370569
0.361723
0.352976
0.344326
0.335768
0.327299
0.318916
0.310617
0.302398
0.294256
0.286189
0.45475
0.444871
0.435127
0.425512
0.416021
0.40665
0.397394
0.388251
0.379216
0.370285
0.361456
0.352725
0.344088
0.335543
0.327086
0.318714
0.310424
0.302214
0.294081
0.286022
)
;

boundaryField
{
    fixedWalls
    {
        type            zeroGradient;
    }
    inlet
    {
        type            zeroGradient;
    }
    outlet
    {
        type            fixedValue;
        value           nonuniform 0();
    }
    frontAndBack
    {
        type            empty;
    }
    procBoundary5to1
    {
        type            processor;
        value           nonuniform List<scalar> 
20
(
0.466913
0.455727
0.444842
0.43423
0.42387
0.41374
0.403821
0.394096
0.38455
0.375169
0.365942
0.356858
0.347907
0.339082
0.330374
0.321776
0.313283
0.304888
0.296587
0.288375
)
;
    }
    procBoundary5to4
    {
        type            processor;
        value           nonuniform List<scalar> 
20
(
0.478427
0.478284
0.477999
0.477574
0.477012
0.476319
0.475504
0.474585
0.473585
0.472534
0.471469
0.470432
0.469458
0.468577
0.4678
0.467125
0.466533
0.465985
0.465401
0.464769
)
;
    }
    procBoundary5to6
    {
        type            processor;
        value           nonuniform List<scalar> 
20
(
0.280248
0.280218
0.280159
0.280074
0.279967
0.279841
0.279702
0.279556
0.279407
0.279261
0.279122
0.278991
0.27887
0.278757
0.278651
0.278547
0.278443
0.27833
0.278194
0.278035
)
;
    }
}


// ************************************************************************* //
