/*--------------------------------*- C++ -*----------------------------------*\
| =========                 |                                                 |
| \\      /  F ield         | OpenFOAM: The Open Source CFD Toolbox           |
|  \\    /   O peration     | Version:                                        |
|   \\  /    A nd           | Website:  www.openfoam.com                      |
|    \\/     M anipulation  |                                                 |
\*---------------------------------------------------------------------------*/
FoamFile
{
    version     2.0;
    format      ascii;
    class       surfaceScalarField;
    location    "0.5";
    object      phi;
}
// * * * * * * * * * * * * * * * * * * * * * * * * * * * * * * * * * * * * * //

dimensions      [0 3 -1 0 0 0 0];
oriented        oriented;


internalField   nonuniform List<scalar> 
760
(
3.13714e-05
-2.46848e-07
3.16081e-05
-2.36674e-07
3.18351e-05
-2.27004e-07
3.20529e-05
-2.17803e-07
3.22619e-05
-2.09037e-07
3.24626e-05
-2.00674e-07
3.26553e-05
-1.92686e-07
3.28404e-05
-1.85046e-07
3.30181e-05
-1.77732e-07
3.31888e-05
-1.70725e-07
3.33528e-05
-1.64006e-07
3.35104e-05
-1.57562e-07
3.36618e-05
-1.51378e-07
3.38072e-05
-1.45441e-07
3.3947e-05
-1.39741e-07
3.40812e-05
-1.34267e-07
3.42103e-05
-1.2901e-07
3.43342e-05
-1.2396e-07
3.44533e-05
-1.19111e-07
-1.14454e-07
3.14031e-05
-4.9058e-07
3.16363e-05
-4.6983e-07
3.18594e-05
-4.50135e-07
3.2073e-05
-4.31424e-07
3.22776e-05
-4.1363e-07
3.24736e-05
-3.96686e-07
3.26615e-05
-3.80534e-07
3.28415e-05
-3.6512e-07
3.30142e-05
-3.50395e-07
3.31798e-05
-3.36317e-07
3.33386e-05
-3.22847e-07
3.3491e-05
-3.09952e-07
3.36373e-05
-2.97601e-07
3.37776e-05
-2.85765e-07
3.39123e-05
-2.7442e-07
3.40415e-05
-2.63543e-07
3.41656e-05
-2.53112e-07
3.42848e-05
-2.43108e-07
3.43992e-05
-2.33512e-07
-2.24307e-07
3.14614e-05
-7.27407e-07
3.16869e-05
-6.95335e-07
3.19017e-05
-6.64966e-07
3.21065e-05
-6.36194e-07
3.23018e-05
-6.08914e-07
3.24881e-05
-5.83022e-07
3.2666e-05
-5.58422e-07
3.28359e-05
-5.35026e-07
3.29983e-05
-5.12753e-07
3.31535e-05
-4.9153e-07
3.33019e-05
-4.71289e-07
3.3444e-05
-4.51973e-07
3.35799e-05
-4.33526e-07
3.371e-05
-4.159e-07
3.38346e-05
-3.99049e-07
3.3954e-05
-3.82934e-07
3.40684e-05
-3.67516e-07
3.41781e-05
-3.52761e-07
3.42832e-05
-3.38636e-07
-3.25113e-07
3.15353e-05
-9.5228e-07
3.17479e-05
-9.07925e-07
3.1949e-05
-8.66078e-07
3.21394e-05
-8.26592e-07
3.23198e-05
-7.89312e-07
3.24909e-05
-7.54088e-07
3.26532e-05
-7.20773e-07
3.28074e-05
-6.89233e-07
3.2954e-05
-6.59341e-07
3.30935e-05
-6.30983e-07
3.32262e-05
-6.04054e-07
3.33527e-05
-5.78459e-07
3.34733e-05
-5.5411e-07
3.35883e-05
-5.30931e-07
3.36981e-05
-5.08848e-07
3.3803e-05
-4.87797e-07
3.39032e-05
-4.67718e-07
3.3999e-05
-4.48556e-07
3.40906e-05
-4.3026e-07
-4.12785e-07
3.16063e-05
-1.15849e-06
3.17993e-05
-1.10089e-06
3.198e-05
-1.04683e-06
3.21495e-05
-9.96082e-07
3.23087e-05
-9.48437e-07
3.24582e-05
-9.03668e-07
3.2599e-05
-8.61562e-07
3.27317e-05
-8.21917e-07
3.28569e-05
-7.84547e-07
3.29752e-05
-7.49278e-07
3.30871e-05
-7.15953e-07
3.31931e-05
-6.8443e-07
3.32936e-05
-6.54579e-07
3.33889e-05
-6.26282e-07
3.34795e-05
-5.99433e-07
3.35656e-05
-5.73934e-07
3.36476e-05
-5.49698e-07
3.37257e-05
-5.26644e-07
3.38001e-05
-5.04698e-07
-4.83796e-07
3.16469e-05
-1.33759e-06
3.18121e-05
-1.2661e-06
3.19647e-05
-1.19943e-06
3.21059e-05
-1.13727e-06
3.22367e-05
-1.07929e-06
3.23582e-05
-1.02516e-06
3.24712e-05
-9.74577e-07
3.25766e-05
-9.27245e-07
3.26749e-05
-8.82895e-07
3.27669e-05
-8.4128e-07
3.28531e-05
-8.02176e-07
3.29341e-05
-7.65378e-07
3.30102e-05
-7.30704e-07
3.30819e-05
-6.97987e-07
3.31495e-05
-6.67078e-07
3.32135e-05
-6.37844e-07
3.32739e-05
-6.10162e-07
3.33312e-05
-5.83923e-07
3.33855e-05
-5.59026e-07
-5.35385e-07
3.16184e-05
-1.47977e-06
3.17467e-05
-1.39444e-06
3.18628e-05
-1.31549e-06
3.1968e-05
-1.24244e-06
3.20635e-05
-1.1748e-06
3.21504e-05
-1.11212e-06
3.22298e-05
-1.05395e-06
3.23024e-05
-9.99877e-07
3.23691e-05
-9.49534e-07
3.24304e-05
-9.02582e-07
3.24869e-05
-8.58716e-07
3.25392e-05
-8.1766e-07
3.25877e-05
-7.79169e-07
3.26327e-05
-7.43025e-07
3.26747e-05
-7.09031e-07
3.27138e-05
-6.77011e-07
3.27505e-05
-6.46809e-07
3.27848e-05
-6.18283e-07
3.28171e-05
-5.91306e-07
-5.65767e-07
3.1471e-05
-1.57476e-06
3.15533e-05
-1.47676e-06
3.16247e-05
-1.38689e-06
3.16867e-05
-1.30444e-06
3.17406e-05
-1.22871e-06
3.17876e-05
-1.15906e-06
3.18285e-05
-1.09489e-06
3.18643e-05
-1.03565e-06
3.18956e-05
-9.80853e-07
3.19231e-05
-9.3006e-07
3.19472e-05
-8.82876e-07
3.19685e-05
-8.38953e-07
3.19874e-05
-7.97981e-07
3.2004e-05
-7.59687e-07
3.20188e-05
-7.23828e-07
3.2032e-05
-6.90188e-07
3.20438e-05
-6.58577e-07
3.20543e-05
-6.28824e-07
3.20638e-05
-6.00778e-07
-5.74304e-07
3.11442e-05
-1.61338e-06
3.11727e-05
-1.50532e-06
3.1193e-05
-1.40717e-06
3.12065e-05
-1.3179e-06
3.12144e-05
-1.2366e-06
3.12177e-05
-1.1624e-06
3.12174e-05
-1.09454e-06
3.1214e-05
-1.03232e-06
3.12083e-05
-9.75134e-07
3.12007e-05
-9.22437e-07
3.11916e-05
-8.73756e-07
3.11813e-05
-8.28672e-07
3.11701e-05
-7.86817e-07
3.11583e-05
-7.47872e-07
3.1146e-05
-7.11551e-07
3.11335e-05
-6.77608e-07
3.11207e-05
-6.45822e-07
3.11079e-05
-6.16003e-07
3.10951e-05
-5.87976e-07
-5.61594e-07
3.05701e-05
-1.58939e-06
3.05402e-05
-1.47543e-06
3.05059e-05
-1.37289e-06
3.04685e-05
-1.28049e-06
3.04289e-05
-1.19701e-06
3.03879e-05
-1.12141e-06
3.03461e-05
-1.05276e-06
3.0304e-05
-9.90217e-07
3.0262e-05
-9.33081e-07
3.02203e-05
-8.80725e-07
3.01791e-05
-8.32605e-07
3.01387e-05
-7.88251e-07
3.00991e-05
-7.47254e-07
3.00605e-05
-7.09258e-07
3.00229e-05
-6.73955e-07
2.99864e-05
-6.41073e-07
2.9951e-05
-6.10378e-07
2.99166e-05
-5.81664e-07
2.98834e-05
-5.54747e-07
-5.2947e-07
2.96792e-05
-1.50143e-06
2.95907e-05
-1.38699e-06
2.95029e-05
-1.28501e-06
2.94163e-05
-1.1939e-06
2.93315e-05
-1.11224e-06
2.92489e-05
-1.03881e-06
2.91687e-05
-9.72566e-07
2.90911e-05
-9.12586e-07
2.90161e-05
-8.58087e-07
2.89437e-05
-8.08395e-07
2.88741e-05
-7.62933e-07
2.8807e-05
-7.21202e-07
2.87425e-05
-6.82776e-07
2.86806e-05
-6.47286e-07
2.8621e-05
-6.14415e-07
2.85638e-05
-5.83888e-07
2.85089e-05
-5.55466e-07
2.84562e-05
-5.28941e-07
2.84056e-05
-5.04132e-07
-4.80881e-07
2.84073e-05
-1.35437e-06
2.82659e-05
-1.24559e-06
2.81304e-05
-1.14952e-06
2.80009e-05
-1.06437e-06
2.78772e-05
-9.88613e-07
2.77594e-05
-9.20937e-07
2.7647e-05
-8.60234e-07
2.754e-05
-8.05562e-07
2.7438e-05
-7.56121e-07
2.73409e-05
-7.11234e-07
2.72483e-05
-6.70325e-07
2.716e-05
-6.32905e-07
2.70757e-05
-5.98556e-07
2.69954e-05
-5.66922e-07
2.69187e-05
-5.37697e-07
2.68454e-05
-5.10618e-07
2.67754e-05
-4.85459e-07
2.67085e-05
-4.62024e-07
2.66445e-05
-4.40143e-07
-4.19668e-07
2.67036e-05
-1.15967e-06
2.65204e-05
-1.06247e-06
2.63482e-05
-9.77323e-07
2.61863e-05
-9.02389e-07
2.60338e-05
-8.36138e-07
2.58901e-05
-7.77287e-07
2.57547e-05
-7.24761e-07
2.56268e-05
-6.77661e-07
2.55059e-05
-6.35233e-07
2.53915e-05
-5.96847e-07
2.52831e-05
-5.61969e-07
2.51804e-05
-5.30152e-07
2.50828e-05
-5.01016e-07
2.49902e-05
-4.74241e-07
2.4902e-05
-4.49552e-07
2.48181e-05
-4.26714e-07
2.47382e-05
-4.05529e-07
2.4662e-05
-3.85821e-07
2.45893e-05
-3.67443e-07
-3.50264e-07
2.45367e-05
-9.34396e-07
2.43278e-05
-8.53504e-07
2.41336e-05
-7.83123e-07
2.39527e-05
-7.21558e-07
2.3784e-05
-6.6741e-07
2.36263e-05
-6.19527e-07
2.34785e-05
-5.76959e-07
2.33397e-05
-5.38919e-07
2.32092e-05
-5.04754e-07
2.30863e-05
-4.73922e-07
2.29703e-05
-4.45971e-07
2.28607e-05
-4.2052e-07
2.27569e-05
-3.97253e-07
2.26586e-05
-3.75902e-07
2.25653e-05
-3.56238e-07
2.24766e-05
-3.38069e-07
2.23923e-05
-3.21229e-07
2.23121e-05
-3.05578e-07
2.22356e-05
-2.90992e-07
-2.77367e-07
2.18981e-05
-6.98963e-07
2.16817e-05
-6.37101e-07
2.14822e-05
-5.83575e-07
2.12976e-05
-5.36972e-07
2.11263e-05
-4.96148e-07
2.0967e-05
-4.60171e-07
2.08183e-05
-4.28278e-07
2.06792e-05
-3.99846e-07
2.05488e-05
-3.74361e-07
2.04263e-05
-3.514e-07
2.03109e-05
-3.30612e-07
2.02021e-05
-3.11706e-07
2.00993e-05
-2.94437e-07
2.0002e-05
-2.78601e-07
1.99098e-05
-2.64026e-07
1.98223e-05
-2.50565e-07
1.97391e-05
-2.38094e-07
1.96601e-05
-2.26506e-07
1.95848e-05
-2.15711e-07
-2.05628e-07
1.88002e-05
-4.74309e-07
1.85949e-05
-4.31813e-07
1.84065e-05
-3.95192e-07
1.8233e-05
-3.63417e-07
1.80725e-05
-3.3566e-07
1.79236e-05
-3.11253e-07
1.77849e-05
-2.89655e-07
1.76555e-05
-2.70428e-07
1.75344e-05
-2.53211e-07
1.74207e-05
-2.37712e-07
1.73138e-05
-2.23688e-07
1.7213e-05
-2.10937e-07
1.71178e-05
-1.99293e-07
1.70279e-05
-1.88616e-07
1.69426e-05
-1.78789e-07
1.68618e-05
-1.69712e-07
1.6785e-05
-1.61302e-07
1.6712e-05
-1.53487e-07
1.66424e-05
-1.46204e-07
-1.39401e-07
1.52715e-05
-2.79237e-07
1.50938e-05
-2.54138e-07
1.49312e-05
-2.32568e-07
1.47816e-05
-2.13893e-07
1.46436e-05
-1.97604e-07
1.45156e-05
-1.83299e-07
1.43966e-05
-1.7065e-07
1.42856e-05
-1.59394e-07
1.41817e-05
-1.49318e-07
1.40842e-05
-1.40246e-07
1.39926e-05
-1.32035e-07
1.39062e-05
-1.24568e-07
1.38247e-05
-1.17745e-07
1.37475e-05
-1.11487e-07
1.36745e-05
-1.05723e-07
1.36051e-05
-1.00397e-07
1.35393e-05
-9.54592e-08
1.34767e-05
-9.08678e-08
1.34171e-05
-8.65871e-08
-8.25861e-08
1.13485e-05
-1.287e-07
1.12115e-05
-1.1719e-07
1.10863e-05
-1.07314e-07
1.09711e-05
-9.87715e-08
1.08649e-05
-9.13254e-08
1.07664e-05
-8.47868e-08
1.06747e-05
-7.90045e-08
1.05892e-05
-7.38569e-08
1.05091e-05
-6.92456e-08
1.04339e-05
-6.50908e-08
1.03632e-05
-6.13271e-08
1.02966e-05
-5.79008e-08
1.02336e-05
-5.47673e-08
1.0174e-05
-5.18896e-08
1.01175e-05
-4.92369e-08
1.00639e-05
-4.6783e-08
1.00129e-05
-4.45059e-08
9.96446e-06
-4.23867e-08
9.91828e-06
-4.0409e-08
-3.8559e-08
7.06778e-06
-3.33177e-08
6.98098e-06
-3.03815e-08
6.90152e-06
-2.78634e-08
6.82844e-06
-2.56853e-08
6.7609e-06
-2.37861e-08
6.69823e-06
-2.21168e-08
6.63986e-06
-2.06389e-08
6.58533e-06
-1.93214e-08
6.53422e-06
-1.81392e-08
6.4862e-06
-1.70722e-08
6.44098e-06
-1.61039e-08
6.3983e-06
-1.52209e-08
6.35794e-06
-1.44118e-08
6.31972e-06
-1.36674e-08
6.28346e-06
-1.29801e-08
6.24903e-06
-1.23432e-08
6.21627e-06
-1.17514e-08
6.18508e-06
-1.11999e-08
6.15536e-06
-1.06844e-08
-1.02016e-08
2.45917e-06
2.42879e-06
2.40092e-06
2.37524e-06
2.35145e-06
2.32934e-06
2.3087e-06
2.28938e-06
2.27124e-06
2.25416e-06
2.23806e-06
2.22284e-06
2.20843e-06
2.19476e-06
2.18178e-06
2.16944e-06
2.15768e-06
2.14649e-06
2.1358e-06
)
;

boundaryField
{
    fixedWalls
    {
        type            calculated;
        value           uniform 0;
    }
    inlet
    {
        type            calculated;
        value           nonuniform 0();
    }
    outlet
    {
        type            calculated;
        value           nonuniform 0();
    }
    frontAndBack
    {
        type            empty;
        value           nonuniform 0();
    }
    procBoundary5to1
    {
        type            processor;
        value           nonuniform List<scalar> 
20
(
-1.47606e-12
-1.60357e-12
-1.84696e-12
-2.16244e-12
-2.46564e-12
-2.68478e-12
-2.83242e-12
-2.99372e-12
-3.23175e-12
-3.52292e-12
-3.81827e-12
-4.10985e-12
-4.50062e-12
-5.02439e-12
-5.59527e-12
-6.07967e-12
-6.42679e-12
-6.75321e-12
-7.31313e-12
-8.13611e-12
)
;
    }
    procBoundary5to4
    {
        type            processor;
        value           nonuniform List<scalar> 
20
(
-3.11246e-05
-3.11594e-05
-3.12246e-05
-3.13104e-05
-3.14001e-05
-3.14678e-05
-3.14762e-05
-3.1376e-05
-3.11055e-05
-3.05941e-05
-2.97671e-05
-2.85543e-05
-2.68983e-05
-2.4762e-05
-2.21335e-05
-1.90248e-05
-1.54665e-05
-1.1499e-05
-7.16317e-06
-2.49249e-06
)
;
    }
    procBoundary5to6
    {
        type            processor;
        value           nonuniform List<scalar> 
20
(
3.45678e-05
3.4509e-05
3.4384e-05
3.41783e-05
3.38711e-05
3.34371e-05
3.28475e-05
3.20723e-05
3.10824e-05
2.98513e-05
2.8357e-05
2.65833e-05
2.45199e-05
2.21627e-05
1.95131e-05
1.65762e-05
1.33602e-05
9.87426e-06
6.127e-06
2.1256e-06
)
;
    }
}


// ************************************************************************* //
