/*--------------------------------*- C++ -*----------------------------------*\
| =========                 |                                                 |
| \\      /  F ield         | OpenFOAM: The Open Source CFD Toolbox           |
|  \\    /   O peration     | Version:                                        |
|   \\  /    A nd           | Website:  www.openfoam.com                      |
|    \\/     M anipulation  |                                                 |
\*---------------------------------------------------------------------------*/
FoamFile
{
    version     2.0;
    format      ascii;
    class       volVectorField;
    location    "0.5";
    object      U;
}
// * * * * * * * * * * * * * * * * * * * * * * * * * * * * * * * * * * * * * //

dimensions      [0 1 -1 0 0 0 0];


internalField   nonuniform List<vector> 
400
(
(1.25003 -0.00247592 0)
(1.25969 -0.00237524 0)
(1.26896 -0.00227949 0)
(1.27785 -0.00218831 0)
(1.28638 -0.00210136 0)
(1.29458 -0.00201833 0)
(1.30244 -0.00193892 0)
(1.30999 -0.0018629 0)
(1.31724 -0.00179005 0)
(1.32421 -0.00172017 0)
(1.3309 -0.0016531 0)
(1.33733 -0.00158869 0)
(1.34351 -0.00152682 0)
(1.34944 -0.00146738 0)
(1.35514 -0.00141025 0)
(1.36062 -0.00135534 0)
(1.36588 -0.00130257 0)
(1.37094 -0.00125184 0)
(1.3758 -0.00120309 0)
(1.38047 -0.00115624 0)
(1.25136 -0.00739841 0)
(1.26089 -0.00709222 0)
(1.27001 -0.00680127 0)
(1.27874 -0.00652448 0)
(1.2871 -0.00626084 0)
(1.29511 -0.00600939 0)
(1.30278 -0.00576927 0)
(1.31014 -0.0055397 0)
(1.31719 -0.00532002 0)
(1.32395 -0.00510961 0)
(1.33044 -0.00490795 0)
(1.33666 -0.00471457 0)
(1.34263 -0.00452905 0)
(1.34836 -0.00435102 0)
(1.35385 -0.00418012 0)
(1.35913 -0.00401605 0)
(1.36419 -0.00385852 0)
(1.36906 -0.00370726 0)
(1.37373 -0.00356201 0)
(1.37821 -0.00342255 0)
(1.25384 -0.0122258 0)
(1.26308 -0.0117022 0)
(1.27188 -0.0112055 0)
(1.28027 -0.0107339 0)
(1.28826 -0.0102859 0)
(1.29589 -0.00985963 0)
(1.30317 -0.0094537 0)
(1.31012 -0.00906671 0)
(1.31676 -0.00869741 0)
(1.32311 -0.00834469 0)
(1.32918 -0.00800755 0)
(1.33498 -0.0076851 0)
(1.34054 -0.00737653 0)
(1.34586 -0.00708111 0)
(1.35095 -0.00679817 0)
(1.35583 -0.00652711 0)
(1.3605 -0.00626736 0)
(1.36498 -0.00601842 0)
(1.36927 -0.00577977 0)
(1.37339 -0.00555099 0)
(1.25704 -0.0168724 0)
(1.26579 -0.0161134 0)
(1.27405 -0.0153955 0)
(1.28187 -0.0147163 0)
(1.28928 -0.0140732 0)
(1.29631 -0.0134638 0)
(1.30297 -0.0128858 0)
(1.30929 -0.0123369 0)
(1.3153 -0.0118153 0)
(1.32102 -0.011319 0)
(1.32646 -0.0108465 0)
(1.33164 -0.0103962 0)
(1.33658 -0.00996685 0)
(1.34129 -0.00955715 0)
(1.34578 -0.009166 0)
(1.35007 -0.00879238 0)
(1.35417 -0.00843533 0)
(1.35809 -0.00809401 0)
(1.36183 -0.00776758 0)
(1.36542 -0.00745535 0)
(1.26027 -0.0212222 0)
(1.26824 -0.0202072 0)
(1.27571 -0.0192514 0)
(1.2827 -0.0183512 0)
(1.28927 -0.0175031 0)
(1.29543 -0.0167035 0)
(1.30123 -0.0159489 0)
(1.30669 -0.0152361 0)
(1.31185 -0.014562 0)
(1.31671 -0.0139238 0)
(1.32131 -0.0133191 0)
(1.32566 -0.0127454 0)
(1.32979 -0.0122007 0)
(1.3337 -0.0116831 0)
(1.33741 -0.0111908 0)
(1.34095 -0.0107223 0)
(1.34431 -0.010276 0)
(1.3475 -0.00985078 0)
(1.35055 -0.00944526 0)
(1.35346 -0.0090584 0)
(1.26244 -0.025123 0)
(1.26931 -0.0238341 0)
(1.27566 -0.0226273 0)
(1.28152 -0.0214976 0)
(1.28695 -0.0204398 0)
(1.29199 -0.0194485 0)
(1.29667 -0.0185187 0)
(1.30103 -0.0176455 0)
(1.3051 -0.0168246 0)
(1.3089 -0.0160518 0)
(1.31246 -0.0153234 0)
(1.3158 -0.0146359 0)
(1.31893 -0.0139863 0)
(1.32189 -0.0133719 0)
(1.32467 -0.01279 0)
(1.3273 -0.0122384 0)
(1.32978 -0.011715 0)
(1.33213 -0.011218 0)
(1.33436 -0.0107455 0)
(1.33648 -0.0102961 0)
(1.26204 -0.0283889 0)
(1.26744 -0.026818 0)
(1.27231 -0.0253578 0)
(1.27672 -0.0240007 0)
(1.28072 -0.022739 0)
(1.28436 -0.0215648 0)
(1.28768 -0.0204709 0)
(1.29071 -0.0194504 0)
(1.29349 -0.0184969 0)
(1.29604 -0.0176048 0)
(1.29839 -0.0167687 0)
(1.30056 -0.015984 0)
(1.30257 -0.0152463 0)
(1.30444 -0.0145518 0)
(1.30618 -0.0138971 0)
(1.3078 -0.013279 0)
(1.30931 -0.0126949 0)
(1.31073 -0.0121422 0)
(1.31206 -0.0116186 0)
(1.31331 -0.0111221 0)
(1.25708 -0.030813 0)
(1.26061 -0.0289702 0)
(1.26367 -0.0272718 0)
(1.26632 -0.0257063 0)
(1.26862 -0.0242621 0)
(1.27063 -0.0229283 0)
(1.27238 -0.0216946 0)
(1.27391 -0.0205517 0)
(1.27524 -0.0194909 0)
(1.27641 -0.0185045 0)
(1.27744 -0.0175854 0)
(1.27834 -0.0167276 0)
(1.27914 -0.0159253 0)
(1.27985 -0.0151737 0)
(1.28047 -0.0144683 0)
(1.28103 -0.0138052 0)
(1.28153 -0.013181 0)
(1.28197 -0.0125924 0)
(1.28237 -0.0120367 0)
(1.28273 -0.0115114 0)
(1.24511 -0.0321916 0)
(1.24643 -0.0301135 0)
(1.24739 -0.0282161 0)
(1.24805 -0.0264824 0)
(1.24847 -0.0248964 0)
(1.24868 -0.0234432 0)
(1.24874 -0.0221091 0)
(1.24866 -0.0208817 0)
(1.24847 -0.01975 0)
(1.2482 -0.0187041 0)
(1.24786 -0.0177352 0)
(1.24747 -0.0168357 0)
(1.24704 -0.0159986 0)
(1.24657 -0.0152181 0)
(1.24609 -0.0144888 0)
(1.24559 -0.0138059 0)
(1.24508 -0.0131654 0)
(1.24457 -0.0125636 0)
(1.24406 -0.0119972 0)
(1.24355 -0.0114633 0)
(1.22335 -0.0323601 0)
(1.22226 -0.0301144 0)
(1.22096 -0.0280839 0)
(1.21952 -0.0262456 0)
(1.21797 -0.0245781 0)
(1.21635 -0.0230622 0)
(1.21469 -0.0216807 0)
(1.21301 -0.0204184 0)
(1.21132 -0.0192618 0)
(1.20964 -0.0181992 0)
(1.20798 -0.0172202 0)
(1.20635 -0.0163158 0)
(1.20475 -0.0154782 0)
(1.20318 -0.0147005 0)
(1.20166 -0.0139766 0)
(1.20018 -0.0133014 0)
(1.19874 -0.0126702 0)
(1.19734 -0.012079 0)
(1.19599 -0.0115241 0)
(1.19468 -0.0110025 0)
(1.18894 -0.031233 0)
(1.1854 -0.0289177 0)
(1.18186 -0.0268449 0)
(1.17837 -0.0249851 0)
(1.17494 -0.0233121 0)
(1.17159 -0.0218027 0)
(1.16833 -0.0204367 0)
(1.16517 -0.0191965 0)
(1.16212 -0.0180668 0)
(1.15917 -0.0170345 0)
(1.15633 -0.0160881 0)
(1.1536 -0.0152178 0)
(1.15097 -0.0144151 0)
(1.14844 -0.0136726 0)
(1.14601 -0.012984 0)
(1.14368 -0.0123437 0)
(1.14143 -0.0117468 0)
(1.13928 -0.0111892 0)
(1.13722 -0.0106673 0)
(1.13523 -0.0101777 0)
(1.13918 -0.0288399 0)
(1.13341 -0.026575 0)
(1.12787 -0.0245665 0)
(1.12257 -0.0227797 0)
(1.1175 -0.0211849 0)
(1.11268 -0.019756 0)
(1.10807 -0.0184711 0)
(1.10369 -0.0173113 0)
(1.09951 -0.0162602 0)
(1.09553 -0.0153043 0)
(1.09174 -0.0144317 0)
(1.08812 -0.0136324 0)
(1.08468 -0.0128977 0)
(1.08139 -0.0122203 0)
(1.07825 -0.0115939 0)
(1.07525 -0.0110129 0)
(1.07238 -0.0104727 0)
(1.06965 -0.00996911 0)
(1.06703 -0.00949861 0)
(1.06453 -0.00905808 0)
(1.07192 -0.0253459 0)
(1.06437 -0.0232572 0)
(1.05727 -0.0214211 0)
(1.05059 -0.0198004 0)
(1.04431 -0.0183637 0)
(1.03839 -0.0170845 0)
(1.03282 -0.0159405 0)
(1.02756 -0.0149129 0)
(1.02259 -0.0139858 0)
(1.01789 -0.0131459 0)
(1.01344 -0.0123819 0)
(1.00922 -0.0116841 0)
(1.00521 -0.0110447 0)
(1.00141 -0.0104565 0)
(0.9978 -0.00991385 0)
(0.994362 -0.00941157 0)
(0.991088 -0.00894536 0)
(0.987967 -0.00851149 0)
(0.984992 -0.0081067 0)
(0.982151 -0.0077282 0)
(0.985807 -0.0210453 0)
(0.977137 -0.0192444 0)
(0.969088 -0.0176733 0)
(0.961601 -0.0162958 0)
(0.954621 -0.0150818 0)
(0.948102 -0.0140064 0)
(0.942 -0.013049 0)
(0.936278 -0.0121924 0)
(0.930901 -0.0114222 0)
(0.925839 -0.0107266 0)
(0.921067 -0.0100954 0)
(0.916559 -0.00952044 0)
(0.912296 -0.00899448 0)
(0.908258 -0.00851161 0)
(0.904429 -0.00806674 0)
(0.900793 -0.00765555 0)
(0.897337 -0.00727436 0)
(0.894049 -0.00691998 0)
(0.890918 -0.00658967 0)
(0.887933 -0.00628106 0)
(0.880433 -0.0163279 0)
(0.871419 -0.0148925 0)
(0.86312 -0.0136481 0)
(0.855455 -0.0125629 0)
(0.848353 -0.011611 0)
(0.841754 -0.0107711 0)
(0.835604 -0.0100259 0)
(0.829859 -0.00936103 0)
(0.824478 -0.00876474 0)
(0.819427 -0.00822725 0)
(0.814676 -0.00774046 0)
(0.810199 -0.00729761 0)
(0.805971 -0.00689303 0)
(0.801973 -0.00652197 0)
(0.798187 -0.00618042 0)
(0.794596 -0.00586496 0)
(0.791187 -0.00557268 0)
(0.787945 -0.00530111 0)
(0.784861 -0.0050481 0)
(0.781923 -0.0048118 0)
(0.756296 -0.0116223 0)
(0.747723 -0.0105837 0)
(0.739872 -0.00968765 0)
(0.732652 -0.00890933 0)
(0.725987 -0.00822887 0)
(0.719813 -0.00763017 0)
(0.714073 -0.00710014 0)
(0.708723 -0.00662813 0)
(0.70372 -0.0062054 0)
(0.699031 -0.00582479 0)
(0.694625 -0.00548037 0)
(0.690476 -0.00516725 0)
(0.686563 -0.00488132 0)
(0.682865 -0.00461916 0)
(0.679364 -0.00437791 0)
(0.676046 -0.00415511 0)
(0.672896 -0.0039487 0)
(0.669902 -0.00375692 0)
(0.667054 -0.00357823 0)
(0.664342 -0.00341134 0)
(0.614574 -0.00733252 0)
(0.607145 -0.00667315 0)
(0.60036 -0.0061061 0)
(0.594134 -0.00561486 0)
(0.588398 -0.00518627 0)
(0.58309 -0.00480977 0)
(0.578161 -0.00447683 0)
(0.573569 -0.00418056 0)
(0.569278 -0.00391535 0)
(0.565258 -0.00367662 0)
(0.561481 -0.0034606 0)
(0.557925 -0.00326418 0)
(0.554571 -0.00308478 0)
(0.551402 -0.00292024 0)
(0.548401 -0.00276876 0)
(0.545556 -0.00262881 0)
(0.542856 -0.0024991 0)
(0.540289 -0.00237852 0)
(0.537846 -0.00226613 0)
(0.535519 -0.00216112 0)
(0.456805 -0.00380147 0)
(0.451075 -0.00346072 0)
(0.445848 -0.00316824 0)
(0.441055 -0.0029152 0)
(0.436638 -0.00269462 0)
(0.432552 -0.00250093 0)
(0.428757 -0.00232967 0)
(0.425221 -0.00217723 0)
(0.421914 -0.00204072 0)
(0.418815 -0.00191775 0)
(0.415902 -0.00180639 0)
(0.413158 -0.00170505 0)
(0.410568 -0.00161241 0)
(0.40812 -0.00152736 0)
(0.405801 -0.00144898 0)
(0.403601 -0.00137651 0)
(0.401511 -0.00130927 0)
(0.399525 -0.00124672 0)
(0.397633 -0.00118836 0)
(0.39583 -0.00113379 0)
(0.284528 -0.00134238 0)
(0.280897 -0.00122381 0)
(0.277583 -0.0011221 0)
(0.274541 -0.00103413 0)
(0.271736 -0.000957407 0)
(0.269138 -0.000889986 0)
(0.266722 -0.000830302 0)
(0.264468 -0.000777104 0)
(0.262359 -0.000729383 0)
(0.26038 -0.000686324 0)
(0.258517 -0.00064726 0)
(0.256762 -0.000611644 0)
(0.255103 -0.000579023 0)
(0.253533 -0.000549022 0)
(0.252045 -0.000521326 0)
(0.250633 -0.000495673 0)
(0.24929 -0.000471838 0)
(0.248012 -0.00044963 0)
(0.246795 -0.000428882 0)
(0.245634 -0.000409452 0)
(0.0990021 -0.000210479 0)
(0.0977326 -0.000192554 0)
(0.0965714 -0.000177175 0)
(0.0955034 -0.000163856 0)
(0.0945164 -0.000152218 0)
(0.0936005 -0.000141962 0)
(0.0927471 -0.000132853 0)
(0.0919493 -0.000124704 0)
(0.0912013 -0.000117366 0)
(0.0904982 -0.000110718 0)
(0.0898355 -0.000104662 0)
(0.0892098 -9.91182e-05 0)
(0.0886179 -9.40205e-05 0)
(0.0880569 -8.93142e-05 0)
(0.0875245 -8.4954e-05 0)
(0.0870185 -8.09017e-05 0)
(0.086537 -7.71249e-05 0)
(0.0860783 -7.35957e-05 0)
(0.085641 -7.02888e-05 0)
(0.0852236 -6.7184e-05 0)
)
;

boundaryField
{
    fixedWalls
    {
        type            noSlip;
    }
    inlet
    {
        type            fixedValue;
        value           nonuniform 0();
    }
    outlet
    {
        type            zeroGradient;
    }
    frontAndBack
    {
        type            empty;
    }
    procBoundary5to1
    {
        type            processor;
        value           nonuniform List<vector> 
20
(
(1.25003 0.00247598 0)
(1.25969 0.0023753 0)
(1.26896 0.00227957 0)
(1.27785 0.0021884 0)
(1.28638 0.00210146 0)
(1.29458 0.00201843 0)
(1.30244 0.00193904 0)
(1.30999 0.00186302 0)
(1.31724 0.00179018 0)
(1.32421 0.00172031 0)
(1.3309 0.00165325 0)
(1.33733 0.00158886 0)
(1.34351 0.00152701 0)
(1.34944 0.00146758 0)
(1.35514 0.00141047 0)
(1.36062 0.00135558 0)
(1.36588 0.00130282 0)
(1.37094 0.00125212 0)
(1.3758 0.00120339 0)
(1.38047 0.00115657 0)
)
;
    }
    procBoundary5to4
    {
        type            processor;
        value           nonuniform List<vector> 
20
(
(1.23994 -0.00258189 0)
(1.2414 -0.00772086 0)
(1.24413 -0.012778 0)
(1.2478 -0.0176748 0)
(1.25175 -0.0222993 0)
(1.25499 -0.0264985 0)
(1.25606 -0.0300776 0)
(1.25301 -0.0328113 0)
(1.24334 -0.0344674 0)
(1.22418 -0.0348457 0)
(1.19244 -0.0338234 0)
(1.14517 -0.0314009 0)
(1.07995 -0.0277309 0)
(0.995161 -0.0231196 0)
(0.890255 -0.0179932 0)
(0.765696 -0.012834 0)
(0.622751 -0.00810497 0)
(0.463119 -0.00420166 0)
(0.288528 -0.00148182 0)
(0.100398 -0.000231574 0)
)
;
    }
    procBoundary5to6
    {
        type            processor;
        value           nonuniform List<vector> 
20
(
(1.38496 -0.00111122 0)
(1.38251 -0.00328864 0)
(1.37734 -0.00533163 0)
(1.36885 -0.00715657 0)
(1.35623 -0.00868911 0)
(1.33849 -0.00986836 0)
(1.31449 -0.0106509 0)
(1.28305 -0.0110142 0)
(1.24304 -0.0109594 0)
(1.19342 -0.0105113 0)
(1.13333 -0.00971753 0)
(1.06213 -0.00864475 0)
(0.979439 -0.00737348 0)
(0.885086 -0.00599207 0)
(0.779122 -0.00459058 0)
(0.661756 -0.00325509 0)
(0.533301 -0.00206275 0)
(0.394111 -0.00108264 0)
(0.244526 -0.000391218 0)
(0.0848248 -6.42632e-05 0)
)
;
    }
}


// ************************************************************************* //
