/*--------------------------------*- C++ -*----------------------------------*\
| =========                 |                                                 |
| \\      /  F ield         | OpenFOAM: The Open Source CFD Toolbox           |
|  \\    /   O peration     | Version:                                        |
|   \\  /    A nd           | Website:  www.openfoam.com                      |
|    \\/     M anipulation  |                                                 |
\*---------------------------------------------------------------------------*/
FoamFile
{
    version     2.0;
    format      ascii;
    class       volScalarField;
    location    "0.2";
    object      p;
}
// * * * * * * * * * * * * * * * * * * * * * * * * * * * * * * * * * * * * * //

dimensions      [0 2 -2 0 0 0 0];


internalField   nonuniform List<scalar> 
400
(
1.52886
0.959631
0.750436
0.691636
0.658526
0.633166
0.613087
0.596125
0.581026
0.567174
0.554209
0.541889
0.530054
0.518598
0.507448
0.496554
0.48588
0.475403
0.465105
0.454976
1.30927
0.943782
0.771757
0.709848
0.671091
0.641683
0.619193
0.600732
0.584613
0.570036
0.556538
0.543816
0.53167
0.51997
0.508625
0.497573
0.486771
0.476188
0.465803
0.455599
1.14266
0.9203
0.784398
0.721891
0.680377
0.648701
0.624526
0.604882
0.587905
0.572694
0.558717
0.545626
0.533192
0.521262
0.509732
0.498531
0.487605
0.47692
0.466449
0.456173
1.03457
0.895766
0.788961
0.728813
0.686957
0.65448
0.629266
0.608723
0.591033
0.575258
0.560838
0.547396
0.534681
0.522524
0.51081
0.499457
0.488407
0.477618
0.46706
0.456711
0.958379
0.870668
0.787857
0.732794
0.692288
0.659926
0.634089
0.612802
0.594447
0.578107
0.563218
0.549392
0.536362
0.523948
0.512022
0.500494
0.489299
0.478389
0.46773
0.457295
0.902096
0.846225
0.7828
0.734234
0.696276
0.664842
0.638892
0.617107
0.598189
0.581312
0.565943
0.551703
0.538322
0.525613
0.51344
0.501705
0.490337
0.479283
0.468503
0.457967
0.860183
0.823825
0.775356
0.73344
0.698672
0.668805
0.643285
0.621352
0.602068
0.584753
0.568943
0.554293
0.540548
0.527521
0.515075
0.503108
0.491542
0.480321
0.469399
0.458744
0.828514
0.804056
0.766786
0.730996
0.699591
0.671653
0.646988
0.625252
0.605838
0.588236
0.572075
0.557061
0.54297
0.529626
0.516897
0.504683
0.492903
0.481499
0.47042
0.459631
0.80404
0.786947
0.757963
0.727517
0.699354
0.673456
0.649898
0.628623
0.609297
0.591572
0.575172
0.55987
0.545477
0.531841
0.518841
0.506381
0.494385
0.482789
0.471546
0.460614
0.784729
0.772311
0.749434
0.723499
0.698302
0.674394
0.652046
0.631398
0.612324
0.594617
0.578093
0.562588
0.547954
0.534068
0.520824
0.508135
0.49593
0.484148
0.472739
0.461663
0.769257
0.759886
0.741514
0.719304
0.696732
0.674671
0.653535
0.633595
0.614876
0.597292
0.580739
0.56511
0.550301
0.536213
0.522762
0.509872
0.497477
0.485521
0.473956
0.46274
0.756735
0.749404
0.734364
0.715185
0.694882
0.674483
0.654496
0.635279
0.616969
0.599575
0.583062
0.567375
0.552446
0.538206
0.524586
0.511526
0.498966
0.486855
0.475148
0.463804
0.74655
0.74062
0.728053
0.711311
0.692935
0.673995
0.655058
0.636535
0.618648
0.601478
0.58505
0.569352
0.554349
0.539998
0.526247
0.513047
0.500349
0.488105
0.476273
0.464816
0.738274
0.733325
0.722598
0.707796
0.691028
0.673342
0.655334
0.637451
0.61997
0.603035
0.586715
0.571036
0.555993
0.541564
0.527714
0.514404
0.501592
0.489237
0.4773
0.465744
0.7316
0.727349
0.71799
0.704711
0.689259
0.672627
0.655419
0.638101
0.620993
0.604283
0.588078
0.572436
0.557377
0.542895
0.528971
0.515575
0.502673
0.490228
0.478204
0.466567
0.726306
0.722553
0.714206
0.702101
0.687701
0.671929
0.655387
0.638552
0.621768
0.605261
0.589167
0.573569
0.558506
0.54399
0.530013
0.516552
0.503579
0.491063
0.478969
0.467266
0.722233
0.718834
0.711218
0.699993
0.686405
0.671309
0.655298
0.638853
0.622339
0.606002
0.590006
0.574451
0.559393
0.544855
0.530839
0.517331
0.504305
0.491734
0.479588
0.467833
0.719267
0.716109
0.709002
0.698404
0.685406
0.670809
0.655195
0.639046
0.622738
0.606534
0.590616
0.575097
0.560047
0.545497
0.531455
0.517912
0.504849
0.492239
0.480053
0.468261
0.71733
0.714323
0.707537
0.697341
0.684728
0.670461
0.65511
0.63916
0.62299
0.606878
0.591013
0.575521
0.560477
0.54592
0.531862
0.518298
0.505211
0.492575
0.480364
0.468548
0.716373
0.713439
0.706808
0.696809
0.684386
0.670282
0.655063
0.639212
0.623112
0.607046
0.59121
0.575731
0.560691
0.546131
0.532065
0.518491
0.505392
0.492744
0.48052
0.468691
)
;

boundaryField
{
    fixedWalls
    {
        type            zeroGradient;
    }
    inlet
    {
        type            zeroGradient;
    }
    outlet
    {
        type            fixedValue;
        value           nonuniform 0();
    }
    frontAndBack
    {
        type            empty;
    }
    procBoundary0to1
    {
        type            processor;
        value           nonuniform List<scalar> 
20
(
0.445007
0.445566
0.446079
0.446555
0.447067
0.447652
0.448328
0.449101
0.449961
0.450885
0.45184
0.452789
0.453697
0.454537
0.455283
0.455921
0.45644
0.456833
0.457096
0.457228
)
;
    }
    procBoundary0to4
    {
        type            processor;
        value           nonuniform List<scalar> 
20
(
0.716373
0.713439
0.706808
0.696809
0.684386
0.670282
0.655063
0.639212
0.623112
0.607047
0.59121
0.575731
0.560691
0.546131
0.532065
0.518491
0.505392
0.492743
0.48052
0.468691
)
;
    }
}


// ************************************************************************* //
