/*--------------------------------*- C++ -*----------------------------------*\
| =========                 |                                                 |
| \\      /  F ield         | OpenFOAM: The Open Source CFD Toolbox           |
|  \\    /   O peration     | Version:                                        |
|   \\  /    A nd           | Website:  www.openfoam.com                      |
|    \\/     M anipulation  |                                                 |
\*---------------------------------------------------------------------------*/
FoamFile
{
    version     2.0;
    format      ascii;
    class       surfaceScalarField;
    location    "145.2";
    object      phi;
}
// * * * * * * * * * * * * * * * * * * * * * * * * * * * * * * * * * * * * * //

dimensions      [0 3 -1 0 0 0 0];
oriented        oriented;


internalField   nonuniform List<scalar> 
2213
(
-0.000519075
0.00332713
-0.00280805
-0.000487926
0.00567137
-0.00570252
2.97565e-05
0.00770792
-0.0082256
0.00735518
-0.00139907
-0.00592635
0.0157924
-0.0154136
0.00697634
0.0218391
-0.0243294
0.0182827
0.0253545
-0.0289839
0.0254685
0.0271232
-0.0311536
0.0293849
0.0279242
-0.0321679
0.031367
-0.0328495
-3.45644e-05
0.00336169
-0.000958532
0.00659533
0.0027245
0.00402489
0.0124327
-0.0111073
0.0190135
-0.0219943
0.0226084
-0.0279244
0.0243202
-0.0306957
0.0251194
-0.0319529
0.025643
-0.0326915
0.0260675
-0.0332739
0.0263647
-0.0337567
-0.0342817
0.000101484
0.00326021
-0.000107232
0.00680405
0.00794048
-0.00402283
0.0151797
-0.0183465
0.0194692
-0.0262838
0.0215007
-0.0299559
0.0224316
-0.0316266
0.0229573
-0.0324786
0.0233228
-0.0330569
0.0235845
-0.0335357
0.0238732
-0.0340454
0.0241955
-0.0346039
0.0245246
-0.0351352
-0.0356838
-0.00148927
0.00474948
0.00175588
0.0035589
0.0113653
-0.0136322
0.0164576
-0.0234388
0.0187988
-0.028625
0.0198642
-0.0310213
0.0203437
-0.032106
0.0206009
-0.0327358
0.0208093
-0.0332653
0.0210729
-0.0337993
0.0213643
-0.0343368
0.0216233
-0.0348629
0.0219193
-0.0354313
0.0221714
-0.0359359
0.0224685
-0.0365128
0.0228021
-0.0370278
-0.0376248
-0.00155436
0.00630384
0.00592808
-0.00392354
0.0118522
-0.0195564
0.0155314
-0.027118
0.0171719
-0.0302656
0.0177732
-0.0316225
0.0180363
-0.0323691
0.0182309
-0.0329304
0.0184251
-0.0334596
0.0186035
-0.0339777
0.0187531
-0.0344864
0.0189555
-0.0350654
0.0191816
-0.0356573
0.0194896
-0.0362439
0.0197779
-0.0368011
0.0201726
-0.0374225
0.0205547
-0.0380069
0.020942
-0.0386222
0.0215168
-0.0393758
-0.0400145
0.00055228
0.00575156
0.00858525
-0.0119565
0.0126271
-0.0235982
0.0145435
-0.0290344
0.0153602
-0.0310822
0.0156604
-0.0319227
0.0157784
-0.0324872
0.0158488
-0.0330007
0.0159255
-0.0335363
0.0160082
-0.0340604
0.0161557
-0.0346339
0.0163106
-0.0352203
0.0164572
-0.0358039
0.0166081
-0.0363948
0.016881
-0.037074
0.0171393
-0.0376808
0.0174707
-0.0383383
0.0179068
-0.0390583
0.0182586
-0.0397276
-0.0405401
0.0187842
0.00194559
0.00380597
0.00845763
-0.0184685
0.0119516
-0.0270922
0.0130856
-0.0301683
0.0133305
-0.0313272
0.0133507
-0.0319429
0.0133457
-0.0324823
0.0133729
-0.033028
0.0134116
-0.033575
0.0134779
-0.0341268
0.0135181
-0.034674
0.0135654
-0.0352676
0.0136548
-0.0358932
0.0137769
-0.0365169
0.0138701
-0.0371672
0.0140291
-0.0378397
0.0142415
-0.0385507
0.0145108
-0.0393276
0.0148407
-0.0400575
-0.0408521
0.0151526
0.00497882
-0.00117285
0.00873883
-0.0222286
0.0105687
-0.028922
0.0110859
-0.0306856
0.0111405
-0.0313817
0.0110999
-0.0319023
0.0110512
-0.0324336
0.0109673
-0.032944
0.0108818
-0.0334895
0.0107923
-0.0340372
0.010741
-0.0346228
0.0107153
-0.0352419
0.0106871
-0.035865
0.0106706
-0.0365005
0.0106928
-0.0371894
0.010744
-0.0378908
0.0108323
-0.0386391
0.0110294
-0.0395247
0.0113003
-0.0403283
-0.0410675
0.0115156
0.00630513
-0.00747797
0.00817379
-0.0240972
0.00860416
-0.0293524
0.00877994
-0.0308613
0.00881811
-0.0314199
0.00876821
-0.0318524
0.00866395
-0.0323294
0.00856288
-0.032843
0.00844818
-0.0333748
0.00830692
-0.033896
0.00815131
-0.0344672
0.00798293
-0.0350735
0.00782716
-0.0357092
0.00770625
-0.0363795
0.00763371
-0.0371169
0.00752397
-0.0377811
0.00738072
-0.0384958
0.00727564
-0.0394197
0.00721707
-0.0402698
-0.0411749
0.00732448
0.00461
-0.012088
0.00666451
-0.0261517
0.00692954
-0.0296174
0.00688386
-0.0308157
0.00679527
-0.0313313
0.00664887
-0.031706
0.00644812
-0.0321286
0.00618604
-0.0325809
0.00590205
-0.0330908
0.00563148
-0.0336254
0.00535408
-0.0341898
0.00509806
-0.0348175
0.00482589
-0.0354371
0.00454937
-0.036103
0.00427704
-0.0368446
0.00411045
-0.0376145
0.00400215
-0.0383875
0.00388057
-0.0392981
0.00378103
-0.0401702
0.0036208
-0.0410146
0.00282791
0.0119346
0.00413857
0.0188934
0.0204348
0.00502916
0.00690542
0.00693368
0.0169889
0.00792881
0.0194397
0.0194878
0.00552711
0.00137831
0.00859981
0.0139162
0.0104084
0.0176311
0.0177991
0.00305803
-0.00167972
0.00772144
0.00925275
0.0108113
0.0145412
0.0156247
0.00115069
-0.0028304
0.00516489
0.00523855
0.00853366
0.0111725
0.0131428
-0.000259764
-0.00257064
0.00197811
0.00300067
0.0044782
0.00867238
0.00677414
0.0108468
0.0102596
-0.00104392
-0.00152672
-0.000625931
0.00258269
0.000695065
0.00735138
0.00194704
0.00959486
0.00236386
0.00984276
0.00682996
-0.00155328
2.65586e-05
-0.00249951
0.00352892
-0.00267681
0.00752868
-0.00273587
0.00965391
-0.0011823
0.00828919
0.00600012
-0.000352452
-0.0110538
-0.00164233
0.00166889
-0.00306039
0.00494698
-0.00340045
0.00786874
-0.00295863
0.0092121
0.00325063
0.00207992
0.0128082
-0.00991005
0.0215793
-0.0198249
-0.0260839
-0.00113917
-0.0018947
-0.00225156
0.00103418
0.0100904
0.0184631
0.0241067
0.0274077
0.0541269
0.00283356
-0.0533397
0.0546132
0.00683815
0.0548733
0.0112555
0.0554617
0.0145643
0.0188986
0.0566872
0.00253736
-0.056391
0.0572322
0.00629307
0.0572208
0.011267
0.0577592
0.0140259
0.0190699
0.0598718
0.00255985
-0.0598942
0.0603895
0.00577534
0.0603071
0.0113494
0.0606197
0.0137132
0.019213
0.063243
0.002588
-0.0632712
0.0635457
0.00547269
0.0636115
0.0112836
0.0637102
0.0136145
0.0192222
0.0669381
0.00247012
-0.0668202
0.0670287
0.00538209
0.0672037
0.0111086
0.067194
0.0136241
0.0672607
0.0191555
0.0209697
0.0707425
0.00224303
-0.0705154
0.0707174
0.00540716
0.0709504
0.0108756
0.0709105
0.0136641
0.0710834
0.0189826
0.0213088
0.0746575
0.00199698
-0.0744114
0.0746191
0.00544553
0.074899
0.0105957
0.0748471
0.013716
0.0751456
0.0186841
0.0215531
0.0787929
0.00175959
-0.0785555
0.0787642
0.0054742
0.0791029
0.010257
0.0791047
0.0137143
0.079497
0.0182918
0.0215617
0.0832172
0.0015687
-0.0830263
0.0832327
0.00545872
0.0835796
0.00991012
0.0837074
0.0135864
0.0841082
0.017891
0.0213552
0.0880469
0.00145284
-0.087931
0.0881134
0.00539218
0.0884151
0.00960839
0.088644
0.0133576
0.0890459
0.0174891
0.0210017
0.0933777
0.00141192
-0.0933368
0.0934867
0.00528322
0.0937283
0.00936678
0.0940303
0.0130556
0.0944431
0.0170763
0.0205282
0.0992982
0.00141826
-0.0993045
0.0994345
0.00514691
0.0996408
0.0091605
0.0999733
0.0127231
0.100401
0.0166483
0.0200109
0.105817
0.00143319
-0.105832
0.105961
0.00500308
0.106157
0.00896489
0.106494
0.0123857
0.106913
0.0162298
0.0194775
0.112889
0.00144343
-0.112899
0.113034
0.00485807
0.113235
0.00876342
0.113584
0.0120369
0.114012
0.0158019
0.0189134
0.120477
0.00142882
-0.120462
0.120622
0.00471226
0.12087
0.00851633
0.121239
0.0116675
0.121727
0.0153136
0.0183091
0.128549
0.00138964
-0.128509
0.128701
0.0045594
0.129004
0.00821345
0.129412
0.0112597
0.129974
0.014752
0.0176664
0.137133
0.00132855
-0.137072
0.137287
0.00440524
0.137634
0.00786631
0.138056
0.0108382
0.138656
0.014152
0.0169973
0.146257
0.00125958
-0.146188
0.146423
0.00423847
0.146807
0.00748247
0.14728
0.0103656
0.14797
0.0134617
0.0161942
0.15603
0.00118297
-0.155953
0.156232
0.004036
0.156664
0.00705038
0.157215
0.00981469
0.157977
0.0126994
0.0153338
0.166493
0.00110167
-0.166412
0.166724
0.00380507
0.167175
0.00659951
0.16776
0.0092291
0.168546
0.0119142
0.0144145
0.177693
0.00102095
-0.177612
0.177947
0.0035507
0.178428
0.00611862
0.179079
0.00857817
0.179953
0.0110401
0.0133691
0.189712
0.000931547
-0.189622
0.19
0.00326237
0.190524
0.00559479
0.191242
0.00786028
0.192184
0.0100978
0.0122556
0.202605
0.000835436
-0.202509
0.202919
0.00294826
0.203474
0.00503943
0.204242
0.00709279
0.205235
0.00910478
0.0110616
0.216414
0.000734788
-0.216314
0.216756
0.00260665
0.217346
0.00444942
0.21817
0.00626844
0.219234
0.00804137
0.00977362
0.231211
0.000627047
-0.231103
0.231581
0.00223704
0.23221
0.00382
0.233092
0.00538617
0.234222
0.00691151
0.00840258
0.247049
0.000512818
-0.246934
0.247445
0.0018403
0.248115
0.00315001
0.249057
0.00444477
0.250264
0.00570467
0.00693466
0.264009
0.000390338
-0.263886
0.264431
0.00141845
0.265147
0.00243385
0.266154
0.00343703
0.267445
0.00441367
0.00536676
0.282189
0.000263563
-0.282062
0.282633
0.000973733
0.283393
0.00167411
0.284466
0.00236448
0.285842
0.00303757
0.00369449
0.301672
0.000137789
-0.301547
0.302143
0.000502838
0.302953
0.000864107
0.304097
0.00122079
0.305566
0.00156842
0.00190702
0.322551
-0.322413
0.323054
0.323918
0.325139
0.326707
0.0325655
0.0313149
-0.0298442
-0.0340362
0.0304412
0.0306268
-0.0285026
0.0282069
0.0297204
-0.0274861
0.0261171
0.0288641
-0.0267743
0.024302
0.0281465
-0.0263314
0.0225694
0.0276994
-0.0259668
0.0206932
0.0272604
-0.0253842
0.0187896
0.0266862
-0.0247826
0.0170221
0.0261713
-0.0244038
0.0153304
0.0258217
-0.02413
0.0136448
0.0254967
-0.0238111
0.0120082
0.0251833
-0.0235467
0.0104407
0.0249462
-0.0233787
0.00888378
0.0248288
-0.0232719
0.00727176
0.0247935
-0.0231815
0.00563162
0.0248313
-0.0231912
0.00406338
0.0249309
-0.0233627
0.0025465
0.0251147
-0.0235978
0.00104539
0.0256127
-0.0241115
0.0206922
-0.0196468
0.0292598
0.0328778
-0.0308227
0.0275398
0.0323469
0.0256346
0.0316256
0.0236948
0.0308039
0.0218423
0.0299989
0.0201699
0.0293718
0.0185494
0.0288809
0.0168901
0.0283455
0.0152654
0.027796
0.0136991
0.0273881
0.0121448
0.027051
0.0105894
0.0267387
0.00906787
0.0264678
0.00761321
0.0262834
0.00623324
0.0261735
0.00487449
0.0261901
0.00344859
0.0263568
0.00205215
0.0265111
0.000764377
0.0269004
0.0214566
0.0255764
0.0347205
-0.0274192
0.024002
0.0339213
0.0223903
0.0332374
0.0207384
0.0324558
0.0191483
0.031589
0.0176277
0.0308924
0.0161421
0.0303666
0.0146488
0.0298387
0.0131778
0.029267
0.0117917
0.0287742
0.0104456
0.0283971
0.00911422
0.0280701
0.00780331
0.0277787
0.00651
0.0275767
0.00520987
0.0274736
0.00395216
0.0274478
0.00276405
0.027545
0.00151791
0.0277573
0.000339494
0.0280789
0.0217961
0.0221953
0.0364721
-0.0239469
0.020694
0.0354226
0.0193209
0.0346104
0.0178333
0.0339434
0.0163417
0.0330806
0.0149712
0.0322629
0.0136865
0.0316513
0.0123965
0.0311287
0.0110877
0.0305758
0.00979998
0.0300618
0.00857701
0.0296201
0.00738177
0.0292653
0.0061932
0.0289672
0.00506021
0.0287097
0.00401726
0.0285166
0.00301012
0.0284549
0.00203048
0.0285246
0.000994333
0.0287934
0.000133546
0.0289396
0.0219296
0.0184292
0.0378572
-0.0198143
0.0171127
0.0367391
0.0159363
0.0357868
0.0147778
0.0351018
0.0135066
0.0343518
0.0122585
0.033511
0.0110779
0.0328319
0.00995081
0.0322559
0.00884029
0.0316863
0.00774555
0.0311566
0.00668252
0.0306831
0.00567512
0.0302727
0.00470382
0.0299385
0.00371255
0.029701
0.00271977
0.0295094
0.00178892
0.0293858
0.0010651
0.0292484
0.000328208
0.0295303
-0.000364938
0.0296328
0.0215647
0.0147453
0.0391055
-0.0159936
0.0134887
0.0379957
0.0123934
0.0368821
0.0113927
0.0361025
0.0103295
0.0354151
0.00929148
0.034549
0.00832838
0.033795
0.00737867
0.0332056
0.00644965
0.0326153
0.00551437
0.0320919
0.00458533
0.0316122
0.0036957
0.0311623
0.0028666
0.0307676
0.00211937
0.0304482
0.00143571
0.030193
0.000750151
0.0300713
-8.20023e-06
0.0300068
-0.000364631
0.0298867
-0.000646108
0.0299143
0.0209186
0.0110159
0.0398592
-0.0117697
0.0100365
0.0389752
0.00902381
0.0378948
0.00819381
0.0369325
0.0073706
0.0362383
0.00641372
0.0355059
0.0055226
0.0346861
0.00471224
0.0340159
0.00394646
0.0333811
0.00323252
0.0328058
0.00252117
0.0323235
0.00180129
0.0318822
0.00111286
0.0314561
0.000439426
0.0311216
-0.000186293
0.0308188
-0.000700364
0.0305854
-0.00113129
0.0304377
-0.00144248
0.0301979
-0.00121024
0.029682
0.0197083
0.00641193
0.0404384
-0.00699112
0.00584626
0.0395409
0.00521419
0.0385268
0.00455381
0.0375929
0.00398142
0.0368107
0.00342691
0.0360604
0.00274897
0.0353641
0.0020742
0.0346907
0.00140574
0.0340496
0.00078321
0.0334283
0.000215058
0.0328917
-0.000311221
0.0324085
-0.000816355
0.0319612
-0.00128204
0.0315873
-0.00170229
0.031239
-0.00208096
0.0309641
-0.0023418
0.0306985
-0.0023702
0.0302263
-0.00172839
0.0290402
0.01798
0.00262514
0.0409669
-0.00315358
0.00206244
0.0401036
0.00151608
0.0390732
0.00105038
0.0380586
0.000573776
0.0372873
0.000104111
0.03653
-0.000298771
0.035767
-0.0007424
0.0351343
-0.00118447
0.0344916
-0.00163718
0.033881
-0.0020688
0.0333233
-0.00250133
0.032841
-0.00290342
0.0323633
-0.00326558
0.0319495
-0.00359915
0.0315726
-0.00385376
0.0312187
-0.00392903
0.0307738
-0.00368809
0.0299854
-0.00251486
0.027867
0.0154651
-0.00168826
0.00164048
-0.00175492
-0.00197981
-0.00230871
-0.00263589
-0.00295044
-0.00328649
-0.00358924
-0.00391507
-0.0042238
-0.00452589
-0.00477571
-0.00499329
-0.00517241
-0.00530581
-0.00541845
-0.00546031
-0.00509236
-0.00337712
0.0395086
0.00406972
0.0367518
0.00407905
0.0340558
0.00408254
0.0314183
0.00408149
0.0288323
0.00408212
0.0263006
0.00408032
0.0238116
0.00409436
0.0213576
0.00411499
0.0189392
0.00413957
0.0165343
0.00418598
0.0141411
0.00422881
0.0117743
0.00427054
0.00943416
0.00432375
0.00709329
0.00440574
0.00469844
0.00451794
0.00216694
0.00474394
0.00397838
0.0393582
0.00689462
0.0366044
0.00683278
0.0339104
0.0067766
0.0312797
0.00671213
0.0287011
0.00666077
0.0261737
0.00660774
0.023701
0.00656699
0.0212633
0.00655277
0.0188601
0.00654278
0.0164929
0.00655318
0.0141176
0.00660405
0.0117218
0.00666633
0.00931777
0.0067278
0.00690657
0.00681694
0.00450785
0.00691666
0.00206086
0.00719093
0.00603924
0.0389573
0.00970625
0.0362232
0.00956686
0.0335528
0.00944699
0.0309421
0.00932285
0.0283898
0.00921303
0.0258743
0.00912323
0.0234082
0.00903312
0.0209847
0.00897629
0.0185798
0.00894768
0.0162223
0.0089106
0.0139168
0.00890964
0.0116126
0.00897044
0.00927496
0.00906548
0.00690079
0.00919111
0.00451469
0.00930276
0.00208818
0.00961744
0.00812742
0.0409918
0.0126928
0.0382235
0.0124745
0.0355315
0.0122589
0.0329111
0.0120673
0.0303499
0.0118841
0.0278579
0.0117051
0.0254144
0.0115667
0.0230071
0.0114404
0.0206493
0.0113341
0.0183027
0.0112944
0.0159312
0.011282
0.0135853
0.0112556
0.0112955
0.0112602
0.00902559
0.0113354
0.00673678
0.0114799
0.00439875
0.0116408
0.00198642
0.0120298
0.0101138
0.0399331
0.0154808
0.03721
0.0151976
0.034558
0.0149109
0.0319882
0.0146372
0.0294745
0.0143978
0.0270149
0.0141647
0.0246089
0.0139727
0.0222309
0.0138184
0.019922
0.013643
0.0177129
0.0135035
0.0155318
0.0134632
0.0133089
0.0134785
0.0110648
0.0135043
0.00883336
0.0135668
0.00659164
0.0137216
0.00435829
0.0138741
0.00204065
0.0143474
0.0121545
0.0412448
0.0185246
0.0385916
0.0181339
0.0359881
0.0178011
0.0334199
0.0174791
0.030923
0.0171341
0.0285055
0.0168153
0.0261597
0.0165105
0.0238903
0.0162421
0.0216204
0.0160883
0.0192897
0.0159737
0.0169701
0.015823
0.0147462
0.015687
0.0125892
0.0156356
0.010445
0.0156484
0.00831058
0.0157013
0.00618195
0.0158503
0.00398305
0.016073
0.00173926
0.0165912
0.0138938
0.0420062
0.0217267
0.0393142
0.0212166
0.0366975
0.0207507
0.0342132
0.0202854
0.0318171
0.0198752
0.029437
0.0195141
0.0270811
0.0191711
0.0247547
0.0188369
0.022537
0.0184598
0.0204639
0.0181614
0.0184376
0.0180001
0.0163612
0.0178994
0.0142571
0.0177911
0.0121625
0.0177301
0.0100768
0.0177342
0.0079802
0.0177978
0.00589627
0.0179342
0.00387119
0.0180981
0.00179387
0.0186685
0.0156876
0.0400636
0.0240686
-0.0424055
0.0374964
0.0237838
0.0348802
0.023367
0.0323946
0.022771
0.0300999
0.0221699
0.0279885
0.0216255
0.0258971
0.0212625
0.0237044
0.0210296
0.0214235
0.0207407
0.0192137
0.0203712
0.0171524
0.0200613
0.0151728
0.019879
0.0132151
0.0197489
0.0112722
0.019673
0.00932848
0.0196779
0.00739088
0.0197354
0.00544311
0.019882
0.00343959
0.0201016
0.00144946
0.0206587
0.0171371
0.0369958
0.0265424
-0.0394696
0.0346257
0.0261538
0.0324432
0.0255494
0.0302497
0.0249646
0.0279736
0.024446
0.0257577
0.0238413
0.0237784
0.0232418
0.0219386
0.0228694
0.0200392
0.0226401
0.0180567
0.0223538
0.0160898
0.0220282
0.014178
0.0217908
0.0123006
0.0216263
0.0104688
0.0215048
0.00867299
0.0214737
0.00684009
0.0215683
0.00500612
0.0217159
0.00321994
0.0218878
0.0014235
0.0224551
0.0185606
0.03419
-0.0374917
0.0318412
0.0299045
0.0280948
0.0262094
0.024084
0.0219416
0.0200284
0.0182647
0.0164884
0.0147055
0.0129497
0.0111972
0.00943015
0.00772231
0.00609945
0.00445269
0.00274269
0.00108624
0.00747665
0.00822564
0.0379455
0.00716456
0.00867947
0.0479101
0.00627576
0.00757404
0.0490155
0.0516025
0.00591387
0.00690873
0.0522678
0.0555286
0.00557462
0.00611437
0.056323
0.0598003
0.00517128
0.00538094
0.0605337
0.0643882
0.00474571
0.00471856
0.0650506
0.0692149
0.00431625
0.00409271
0.0698407
0.0742936
0.00387556
0.00353767
0.0748486
0.0796587
0.00344547
0.00306903
0.0801273
0.0852993
0.00302875
0.00267951
0.0856888
0.0911632
0.00264078
0.00236028
0.0914825
0.0972339
0.00230381
0.00209802
0.0974962
0.10363
0.00201551
0.00188454
0.103844
0.110458
0.00177706
0.00170459
0.110638
0.11782
0.00157118
0.00153915
0.117986
0.125753
0.00138506
0.0013719
0.12592
0.13425
0.00120716
0.00119941
0.134422
0.143338
0.00103805
0.00102505
0.143512
0.153049
0.000882096
0.000864019
0.15321
0.163425
0.000744577
0.000723351
0.163566
0.174513
0.000628038
0.000606372
0.17463
0.186367
0.000532108
0.000507977
0.186466
0.199045
0.000451091
0.000426509
0.199127
0.212606
0.000380033
0.000357361
0.212675
0.227108
0.000314748
0.000295652
0.22717
0.242615
0.000252322
0.000237038
0.242673
0.259209
0.000195726
0.000184509
0.259262
0.277004
0.000134635
0.000126413
0.277062
0.29609
6.07183e-05
5.69769e-05
0.296159
0.316735
3.31456e-05
3.02299e-05
0.316762
0.338647
0.338677
0.0489305
-0.0339512
0.0491877
-0.0310799
0.0498909
-0.0281224
0.0503006
-0.0243566
0.0506976
-0.0202113
0.0511846
-0.0164806
0.0514533
-0.0120384
0.0521418
-0.0076796
0.0527788
-0.00379057
0.00107963
0.0527082
-0.0343916
0.052955
-0.0313266
0.0533984
-0.0285658
0.053721
-0.0246793
0.0541112
-0.0206015
0.0544613
-0.0168307
0.0547861
-0.0123633
0.0554781
-0.00837153
0.0557611
-0.00407358
0.000449751
0.0565392
-0.0346078
0.0568435
-0.0316309
0.0570318
-0.0287542
0.0574313
-0.0250787
0.0577696
-0.0209398
0.0581612
-0.0172222
0.0584382
-0.0126403
0.0590992
-0.00903261
0.0591245
-0.00409885
-0.000319989
0.0607128
-0.0347869
0.0610409
-0.031959
0.0611126
-0.0288258
0.0614803
-0.0254465
0.0616702
-0.0211297
0.0620695
-0.0176216
0.0621874
-0.0127582
0.0627119
-0.00955711
0.0626531
-0.00404002
-0.000938057
0.0651915
-0.0349278
0.0653746
-0.0321421
0.0653984
-0.0288497
0.0656375
-0.0256856
0.0657385
-0.0212307
0.0660479
-0.0179309
0.0661159
-0.0128262
0.0664307
-0.00987191
0.066487
-0.00409636
-0.00127124
0.0698266
-0.0349137
0.0698983
-0.0322138
0.0698859
-0.0288373
0.0699623
-0.025762
0.0699961
-0.0212644
0.0701115
-0.0180463
0.0701844
-0.0128992
0.0702575
-0.00994497
0.0704423
-0.0042812
-0.00134427
0.0746866
-0.0347517
0.0746507
-0.0321779
0.07452
-0.0287066
0.0744255
-0.0256675
0.07436
-0.0211989
0.074277
-0.0179634
0.0743388
-0.012961
0.0742359
-0.00984207
0.0744682
-0.00451357
-0.00128749
0.079831
-0.0344554
0.0796177
-0.0319645
0.0793473
-0.0284362
0.0790983
-0.0254185
0.0789174
-0.021018
0.0786803
-0.0177262
0.0786813
-0.012962
0.0784736
-0.00963434
0.0786672
-0.00470718
-0.00117582
0.0852464
-0.0340131
0.0848312
-0.0315493
0.0844331
-0.0280381
0.0840379
-0.0250232
0.0837393
-0.0207195
0.0833902
-0.0173771
0.0832881
-0.01286
0.0830315
-0.00937775
0.0831352
-0.00481081
-0.001067
0.0908915
-0.0334221
0.090289
-0.0309468
0.0897718
-0.0275209
0.0892599
-0.0245113
0.0888679
-0.0203275
0.0884593
-0.0169685
0.0882576
-0.0126583
0.0880035
-0.0091236
0.0880077
-0.0048151
-0.000990274
0.0967842
-0.0327101
0.0960419
-0.0302045
0.0954454
-0.0269244
0.0948537
-0.0239197
0.0944148
-0.0198885
0.0939738
-0.0165276
0.0937081
-0.0123926
0.0934647
-0.00888021
0.0933854
-0.00473573
-0.000941739
0.103044
-0.0319108
0.102217
-0.0293773
0.101567
-0.0262747
0.100927
-0.0232795
0.100465
-0.019426
0.100007
-0.0160695
0.0997047
-0.0120905
0.0994653
-0.00864077
0.0993333
-0.00460374
-0.00091296
0.109771
-0.0310442
0.108896
-0.0285023
0.1082
-0.0255787
0.107527
-0.0226066
0.107045
-0.0189436
0.106572
-0.0155963
0.106253
-0.0117717
0.106001
-0.00838911
0.105855
-0.00445793
-0.000890026
0.117063
-0.0301216
0.116148
-0.0275869
0.115397
-0.0248282
0.114687
-0.021897
0.114173
-0.0184296
0.113682
-0.0151053
0.113346
-0.0114354
0.113077
-0.00812003
0.112925
-0.00430641
-0.000863771
0.124925
-0.0291264
0.123967
-0.026629
0.123144
-0.0240057
0.122389
-0.0211416
0.121824
-0.0178649
0.121309
-0.0145897
0.120947
-0.0110738
0.120654
-0.00782708
0.1205
-0.00415254
-0.000825526
0.133341
-0.0280454
0.13233
-0.0256176
0.131426
-0.0231014
0.130611
-0.020327
0.129977
-0.0172307
0.129427
-0.0140402
0.129031
-0.0106772
0.128714
-0.00750993
0.128555
-0.00399436
-0.000779504
0.142335
-0.0268679
0.141253
-0.0245358
0.140264
-0.0221124
0.139381
-0.0194446
0.138668
-0.0165176
0.138075
-0.0134471
0.137641
-0.0102426
0.137297
-0.0071664
0.137132
-0.00382909
-0.000719457
0.151928
-0.0255859
0.150756
-0.0233631
0.14968
-0.0210362
0.148722
-0.0184871
0.147927
-0.0157228
0.147282
-0.0128018
0.146804
-0.00976505
0.146438
-0.00679995
0.146258
-0.00364863
-0.000649502
0.162175
-0.0241952
0.1609
-0.0220883
0.159734
-0.0198703
0.158699
-0.0174518
0.157827
-0.0148513
0.157124
-0.0120984
0.156602
-0.00924312
0.156213
-0.00641111
0.156017
-0.00345277
-0.000585085
0.173126
-0.0226914
0.171744
-0.0207064
0.170484
-0.0186101
0.169368
-0.0163361
0.168421
-0.0139047
0.167657
-0.0113338
0.167087
-0.00867378
0.166677
-0.00600093
0.166467
-0.00324238
-0.00052984
0.184844
-0.0210703
0.183355
-0.0192168
0.181998
-0.0172536
0.180801
-0.0151388
0.179781
-0.0128846
0.178956
-0.0105086
0.178334
-0.00805217
0.177897
-0.00556379
0.177665
-0.00301061
-0.000476808
0.197383
-0.0193263
0.195782
-0.0176164
0.194328
-0.0157994
0.193046
-0.0138569
0.191952
-0.0117903
0.191065
-0.00962108
0.19039
-0.00737784
0.18992
-0.0050939
0.18967
-0.00276067
-0.000428691
0.210802
-0.0174539
0.209087
-0.0159008
0.207534
-0.0142465
0.206166
-0.0124886
0.204998
-0.0106229
0.204048
-0.00867062
0.203323
-0.0066536
0.202821
-0.00459148
0.202554
-0.00249375
-0.000383489
0.225162
-0.0154464
0.223326
-0.0140643
0.22167
-0.0125905
0.220211
-0.0110305
0.218969
-0.00938057
0.217955
-0.00765679
0.21718
-0.00587792
0.216644
-0.00405589
0.216358
-0.00220739
-0.000339513
0.240524
-0.0132968
0.23856
-0.012101
0.236796
-0.0108262
0.235245
-0.0094795
0.233925
-0.00806013
0.232847
-0.00657958
0.232022
-0.00505227
0.231453
-0.00348743
0.231147
-0.00190104
-0.000295878
0.256959
-0.0109944
0.254861
-0.0100021
0.252979
-0.00894486
0.251329
-0.00782941
0.249926
-0.00665707
0.248783
-0.00543611
0.247907
-0.00417675
0.247306
-0.00288601
0.246981
-0.00157645
-0.000249294
0.274592
-0.00852434
0.272346
-0.00775602
0.270337
-0.00693599
0.268578
-0.00606996
0.267082
-0.00516118
0.265862
-0.00421593
0.264926
-0.00324123
0.264283
-0.00224242
0.263935
-0.00122861
-0.00020082
0.293541
-0.00590543
0.291146
-0.00536196
0.289
-0.00478926
0.287117
-0.00418731
0.285514
-0.00355803
0.284203
-0.00290522
0.283195
-0.00223321
0.282498
-0.00154563
0.282118
-0.000848348
-0.000144546
0.313894
-0.00303735
0.311298
-0.0027663
0.308985
-0.00247659
0.306966
-0.00216858
0.305252
-0.00184385
0.303853
-0.00150547
0.302776
-0.0011564
0.30203
-0.000799427
0.301619
-0.000437552
-7.24861e-05
0.33564
0.332874
0.330397
0.328228
0.326384
0.324879
0.323723
0.322923
0.322486
)
;

boundaryField
{
    outlet
    {
        type            calculated;
        value           nonuniform 0();
    }
    upperWall
    {
        type            symmetryPlane;
        value           uniform 0;
    }
    lowerWall
    {
        type            symmetryPlane;
        value           nonuniform 0();
    }
    inlet
    {
        type            calculated;
        value           nonuniform 0();
    }
    cylinder
    {
        type            calculated;
        value           uniform 0;
    }
    frontAndBack
    {
        type            empty;
        value           nonuniform 0();
    }
    procBoundary5to1
    {
        type            processor;
        value           nonuniform List<scalar> 
20
(
-0.0147625
-0.0202041
-0.0211645
-0.00125192
-0.00132222
-0.00138653
-0.00144402
-0.0014961
-0.00154864
-0.0016054
-0.00166093
-0.00172119
-0.00178107
-0.00183565
-0.00190375
-0.00198358
-0.00206488
-0.00212308
-0.00221244
-0.00181144
)
;
    }
    procBoundary5to4
    {
        type            processor;
        value           nonuniform List<scalar> 
45
(
-0.0423264
-0.0421831
-0.0417689
-0.00985205
-0.0438325
-0.0427211
-0.0158086
-0.0439608
-0.0190101
-0.0447228
-0.00679426
-0.0430879
-0.0402186
-0.00699266
-0.0381174
-0.0470213
-0.0512406
-0.0551893
-0.0593969
-0.0639626
-0.0687854
-0.0738529
-0.0792286
-0.0848825
-0.0907753
-0.096897
-0.103342
-0.110219
-0.117614
-0.125566
-0.134072
-0.143169
-0.152893
-0.163287
-0.174396
-0.186271
-0.198964
-0.212534
-0.227043
-0.242552
-0.259153
-0.276943
-0.296016
-0.316707
-0.338614
)
;
    }
    procBoundary5to6
    {
        type            processor;
        value           nonuniform List<scalar> 
63
(
0.028405
0.0323687
0.0334595
0.0339729
0.0266735
0.0348061
0.0352841
0.0249244
0.0362157
0.0366942
0.0372173
0.0232096
0.0382349
0.038801
0.0395759
0.0219554
0.00486826
-0.0207019
0.00914293
0.0120971
0.0129857
0.0110156
-0.0124387
0.00895328
-0.00836633
0.00390022
0.00108509
0.0159688
0.0203762
0.0272871
0.0296241
0.0291506
0.0553473
0.0575878
0.0604766
0.0637011
-0.020752
0.067043
0.0707443
0.0749013
0.0794884
0.0843147
0.0893994
0.0949165
0.100919
0.107446
0.114576
0.122331
0.130616
0.139325
0.148773
0.158838
0.169465
0.180998
0.193298
0.206429
0.220522
0.235593
0.251732
0.269013
0.287514
0.307354
0.328614
)
;
    }
}


// ************************************************************************* //
