/*--------------------------------*- C++ -*----------------------------------*\
| =========                 |                                                 |
| \\      /  F ield         | OpenFOAM: The Open Source CFD Toolbox           |
|  \\    /   O peration     | Version:                                        |
|   \\  /    A nd           | Website:  www.openfoam.com                      |
|    \\/     M anipulation  |                                                 |
\*---------------------------------------------------------------------------*/
FoamFile
{
    version     2.0;
    format      ascii;
    class       volScalarField;
    location    "0.2";
    object      p;
}
// * * * * * * * * * * * * * * * * * * * * * * * * * * * * * * * * * * * * * //

dimensions      [0 2 -2 0 0 0 0];


internalField   nonuniform List<scalar> 
400
(
0.457228
0.446105
0.435294
0.424772
0.414518
0.404512
0.394737
0.385178
0.375822
0.366657
0.357671
0.348855
0.340199
0.331696
0.323337
0.315115
0.307021
0.299048
0.291194
0.283442
0.457096
0.445983
0.435182
0.424669
0.414423
0.404424
0.394656
0.385103
0.375753
0.366593
0.357611
0.3488
0.340148
0.331648
0.323293
0.315074
0.306984
0.299013
0.291161
0.283413
0.456832
0.445741
0.43496
0.424465
0.414235
0.404251
0.394496
0.384956
0.375616
0.366466
0.357494
0.348691
0.340047
0.331555
0.323207
0.314994
0.30691
0.298945
0.291098
0.283358
0.456439
0.44538
0.434629
0.424161
0.413956
0.403994
0.39426
0.384738
0.375415
0.366279
0.357321
0.348531
0.339899
0.331418
0.32308
0.314877
0.306803
0.298846
0.291007
0.283275
0.45592
0.444905
0.434195
0.423764
0.413592
0.40366
0.393952
0.384454
0.375153
0.366038
0.357098
0.348324
0.339708
0.331242
0.322917
0.314727
0.306665
0.298719
0.29089
0.28317
0.455281
0.444323
0.433664
0.423279
0.413149
0.403254
0.39358
0.384112
0.374839
0.365748
0.35683
0.348077
0.33948
0.331032
0.322724
0.314549
0.306501
0.29857
0.290754
0.283045
0.454534
0.443645
0.433048
0.422719
0.412638
0.402788
0.393154
0.383722
0.37448
0.365419
0.356528
0.347799
0.339224
0.330796
0.322507
0.31435
0.306319
0.298403
0.290602
0.282907
0.453695
0.442886
0.432362
0.422098
0.412075
0.402276
0.392687
0.383296
0.37409
0.365061
0.3562
0.347498
0.338948
0.330542
0.322275
0.314137
0.306125
0.298227
0.290442
0.282762
0.452786
0.44207
0.431627
0.421435
0.411476
0.401734
0.392196
0.382849
0.373683
0.364689
0.355859
0.347187
0.338663
0.330282
0.322037
0.313921
0.305928
0.298049
0.290281
0.282616
0.451837
0.441222
0.430868
0.420755
0.410865
0.401183
0.391698
0.382397
0.373273
0.364316
0.35552
0.346877
0.338381
0.330026
0.321804
0.313709
0.305736
0.297877
0.290126
0.282476
0.450882
0.440374
0.430114
0.420083
0.410263
0.400644
0.391212
0.381959
0.372877
0.363957
0.355195
0.346582
0.338114
0.329783
0.321585
0.313512
0.305559
0.297718
0.289983
0.282349
0.449958
0.439559
0.429393
0.419442
0.409693
0.400134
0.390756
0.381549
0.372508
0.363625
0.354895
0.346312
0.33787
0.329564
0.321388
0.313336
0.305401
0.297578
0.289859
0.282239
0.449097
0.438804
0.428728
0.418855
0.409172
0.399671
0.390343
0.38118
0.372177
0.363329
0.354629
0.346074
0.337657
0.329374
0.321218
0.313185
0.305267
0.29746
0.289756
0.282149
0.448324
0.438127
0.428134
0.418332
0.408711
0.399262
0.389979
0.380856
0.371889
0.363072
0.3544
0.34587
0.337476
0.329213
0.321077
0.31306
0.305159
0.297365
0.289674
0.282078
0.447647
0.437537
0.427616
0.417877
0.408309
0.398906
0.389664
0.380577
0.371641
0.362852
0.354206
0.345698
0.337325
0.329081
0.320961
0.312959
0.305072
0.297291
0.28961
0.282025
0.447062
0.437024
0.427167
0.41748
0.407959
0.398597
0.38939
0.380335
0.371427
0.362663
0.354039
0.345552
0.337197
0.328969
0.320864
0.312877
0.305001
0.297231
0.28956
0.281983
0.44655
0.436574
0.426769
0.417129
0.407647
0.39832
0.389145
0.380117
0.371234
0.362492
0.353889
0.34542
0.337082
0.328869
0.320778
0.312803
0.304938
0.297178
0.289517
0.281947
0.446074
0.436152
0.426393
0.416793
0.407347
0.398052
0.388905
0.379903
0.371043
0.362322
0.353738
0.345287
0.336965
0.328767
0.320689
0.312726
0.304873
0.297123
0.28947
0.281908
0.445562
0.435692
0.42598
0.41642
0.40701
0.397748
0.38863
0.379654
0.370818
0.36212
0.353557
0.345124
0.33682
0.328638
0.320576
0.312627
0.304786
0.297047
0.289405
0.281852
0.445002
0.435187
0.425522
0.416004
0.406632
0.397402
0.388314
0.379366
0.370556
0.361882
0.35334
0.344929
0.336643
0.32848
0.320434
0.3125
0.304673
0.296948
0.289318
0.281777
)
;

boundaryField
{
    fixedWalls
    {
        type            zeroGradient;
    }
    inlet
    {
        type            zeroGradient;
    }
    outlet
    {
        type            fixedValue;
        value           nonuniform 0();
    }
    frontAndBack
    {
        type            empty;
    }
    procBoundary5to1
    {
        type            processor;
        value           nonuniform List<scalar> 
20
(
0.457228
0.446105
0.435294
0.424773
0.414518
0.404512
0.394737
0.385178
0.375822
0.366657
0.357671
0.348855
0.340199
0.331696
0.323337
0.315115
0.307021
0.299048
0.291194
0.283442
)
;
    }
    procBoundary5to4
    {
        type            processor;
        value           nonuniform List<scalar> 
20
(
0.468691
0.468547
0.46826
0.467832
0.467265
0.466565
0.465742
0.464813
0.463801
0.462737
0.46166
0.46061
0.459627
0.45874
0.457962
0.457291
0.456707
0.456169
0.455594
0.454971
)
;
    }
    procBoundary5to6
    {
        type            processor;
        value           nonuniform List<scalar> 
20
(
0.275783
0.275758
0.275707
0.275632
0.275536
0.275424
0.2753
0.27517
0.275041
0.274917
0.274806
0.27471
0.274632
0.274572
0.274527
0.274493
0.274463
0.274431
0.274383
0.274318
)
;
    }
}


// ************************************************************************* //
