/*--------------------------------*- C++ -*----------------------------------*\
| =========                 |                                                 |
| \\      /  F ield         | OpenFOAM: The Open Source CFD Toolbox           |
|  \\    /   O peration     | Version:                                        |
|   \\  /    A nd           | Website:  www.openfoam.com                      |
|    \\/     M anipulation  |                                                 |
\*---------------------------------------------------------------------------*/
FoamFile
{
    version     2.0;
    format      ascii;
    class       surfaceScalarField;
    location    "0.2";
    object      phi;
}
// * * * * * * * * * * * * * * * * * * * * * * * * * * * * * * * * * * * * * //

dimensions      [0 3 -1 0 0 0 0];
oriented        oriented;


internalField   nonuniform List<scalar> 
760
(
3.13548e-05
-2.43316e-07
3.15872e-05
-2.32322e-07
3.18089e-05
-2.21701e-07
3.20203e-05
-2.11414e-07
3.22217e-05
-2.01408e-07
3.24134e-05
-1.91644e-07
3.25955e-05
-1.82093e-07
3.27682e-05
-1.72731e-07
3.29318e-05
-1.6354e-07
3.30863e-05
-1.54504e-07
3.3232e-05
-1.45614e-07
3.33689e-05
-1.36865e-07
3.34972e-05
-1.28261e-07
3.3617e-05
-1.19792e-07
3.37285e-05
-1.11491e-07
3.38319e-05
-1.03326e-07
3.39273e-05
-9.53938e-08
3.4015e-05
-8.76011e-08
3.4095e-05
-7.99812e-08
-7.2921e-08
3.13866e-05
-4.8354e-07
3.16155e-05
-4.61169e-07
3.18334e-05
-4.39592e-07
3.20407e-05
-4.18722e-07
3.22377e-05
-3.98464e-07
3.24248e-05
-3.78742e-07
3.26022e-05
-3.59494e-07
3.27702e-05
-3.40669e-07
3.29289e-05
-3.22226e-07
3.30785e-05
-3.04132e-07
3.32192e-05
-2.86369e-07
3.33513e-05
-2.68919e-07
3.34748e-05
-2.51787e-07
3.359e-05
-2.34961e-07
3.3697e-05
-2.18486e-07
3.3796e-05
-2.02325e-07
3.38872e-05
-1.86619e-07
3.39709e-05
-1.71241e-07
3.40472e-05
-1.56308e-07
-1.42298e-07
3.14452e-05
-7.16923e-07
3.16665e-05
-6.82458e-07
3.18762e-05
-6.49305e-07
3.20748e-05
-6.1733e-07
3.22627e-05
-5.86401e-07
3.24404e-05
-5.56398e-07
3.26081e-05
-5.27221e-07
3.27662e-05
-4.98786e-07
3.2915e-05
-4.71025e-07
3.30548e-05
-4.4388e-07
3.31857e-05
-4.17315e-07
3.33081e-05
-3.91301e-07
3.34222e-05
-3.65833e-07
3.35281e-05
-3.40896e-07
3.36261e-05
-3.16537e-07
3.37165e-05
-2.92729e-07
3.37995e-05
-2.69604e-07
3.38754e-05
-2.4709e-07
3.39444e-05
-2.25301e-07
-2.0461e-07
3.15195e-05
-9.38477e-07
3.17281e-05
-8.90995e-07
3.19243e-05
-8.45507e-07
3.21088e-05
-8.0183e-07
3.22822e-05
-7.5978e-07
3.24449e-05
-7.19186e-07
3.25976e-05
-6.79899e-07
3.27406e-05
-6.41791e-07
3.28744e-05
-6.04754e-07
3.29992e-05
-5.68698e-07
3.31154e-05
-5.3356e-07
3.32234e-05
-4.99289e-07
3.33234e-05
-4.65864e-07
3.34158e-05
-4.33265e-07
3.35008e-05
-4.01525e-07
3.35787e-05
-3.70634e-07
3.36498e-05
-3.40687e-07
3.37144e-05
-3.11694e-07
3.37728e-05
-2.8371e-07
-2.57022e-07
3.15914e-05
-1.14157e-06
3.17805e-05
-1.08017e-06
3.19567e-05
-1.02168e-06
3.21207e-05
-9.65839e-07
3.22733e-05
-9.12397e-07
3.24153e-05
-8.61112e-07
3.25471e-05
-8.11767e-07
3.26695e-05
-7.64169e-07
3.27829e-05
-7.18159e-07
3.28878e-05
-6.73599e-07
3.29846e-05
-6.30387e-07
3.30738e-05
-5.88441e-07
3.31556e-05
-5.47715e-07
3.32306e-05
-5.08174e-07
3.32989e-05
-4.69827e-07
3.33609e-05
-4.32679e-07
3.3417e-05
-3.96779e-07
3.34675e-05
-3.62203e-07
3.35127e-05
-3.28951e-07
-2.97222e-07
3.16331e-05
-1.31787e-06
3.17949e-05
-1.24199e-06
3.19435e-05
-1.1702e-06
3.20798e-05
-1.10216e-06
3.22049e-05
-1.03749e-06
3.23196e-05
-9.75855e-07
3.24248e-05
-9.16939e-07
3.25211e-05
-8.60467e-07
3.26091e-05
-8.06203e-07
3.26895e-05
-7.53949e-07
3.27627e-05
-7.03549e-07
3.28291e-05
-6.5488e-07
3.28892e-05
-6.0786e-07
3.29435e-05
-5.6243e-07
3.29922e-05
-5.18571e-07
3.30359e-05
-4.76288e-07
3.30747e-05
-4.35589e-07
3.3109e-05
-3.96585e-07
3.31393e-05
-3.59231e-07
-3.2366e-07
3.16065e-05
-1.45769e-06
3.1732e-05
-1.36749e-06
3.18447e-05
-1.28287e-06
3.19458e-05
-1.20331e-06
3.20366e-05
-1.12828e-06
3.21181e-05
-1.0573e-06
3.21911e-05
-9.89925e-07
3.22564e-05
-9.2578e-07
3.23147e-05
-8.6453e-07
3.23666e-05
-8.05899e-07
3.24128e-05
-7.49668e-07
3.24535e-05
-6.9566e-07
3.24894e-05
-6.43748e-07
3.25208e-05
-5.93845e-07
3.25482e-05
-5.45898e-07
3.25718e-05
-4.999e-07
3.2592e-05
-4.55825e-07
3.26092e-05
-4.1379e-07
3.26237e-05
-3.73715e-07
-3.35687e-07
3.14617e-05
-1.55093e-06
3.15419e-05
-1.44773e-06
3.16109e-05
-1.35182e-06
3.167e-05
-1.26241e-06
3.17205e-05
-1.17879e-06
3.17635e-05
-1.1003e-06
3.17999e-05
-1.02634e-06
3.18305e-05
-9.56405e-07
3.1856e-05
-8.90047e-07
3.18771e-05
-8.26905e-07
3.18941e-05
-7.66685e-07
3.19076e-05
-7.09156e-07
3.1918e-05
-6.54142e-07
3.19256e-05
-6.01521e-07
3.19309e-05
-5.51208e-07
3.19342e-05
-5.03171e-07
3.19358e-05
-4.57361e-07
3.19358e-05
-4.13875e-07
3.19347e-05
-3.72613e-07
-3.33631e-07
3.11382e-05
-1.58857e-06
3.11657e-05
-1.47515e-06
3.11846e-05
-1.37076e-06
3.11965e-05
-1.27434e-06
3.12027e-05
-1.18492e-06
3.1204e-05
-1.10163e-06
3.12014e-05
-1.02372e-06
3.11955e-05
-9.50533e-07
3.1187e-05
-8.81516e-07
3.11763e-05
-8.16219e-07
3.11639e-05
-7.54277e-07
3.11501e-05
-6.95405e-07
3.11354e-05
-6.39383e-07
3.11199e-05
-5.86052e-07
3.1104e-05
-5.35301e-07
3.10879e-05
-4.87069e-07
3.10718e-05
-4.41291e-07
3.1056e-05
-3.98027e-07
3.10405e-05
-3.57172e-07
-3.18762e-07
3.05684e-05
-1.56451e-06
3.05384e-05
-1.44521e-06
3.05041e-05
-1.33649e-06
3.04668e-05
-1.23697e-06
3.04273e-05
-1.14544e-06
3.03865e-05
-1.06082e-06
3.0345e-05
-9.82212e-07
3.03033e-05
-9.08822e-07
3.02617e-05
-8.4001e-07
3.02208e-05
-7.7525e-07
3.01806e-05
-7.14119e-07
3.01415e-05
-6.56289e-07
3.01036e-05
-6.01508e-07
3.00672e-05
-5.49587e-07
3.00323e-05
-5.00393e-07
2.9999e-05
-4.53844e-07
2.99676e-05
-4.09863e-07
2.9938e-05
-3.68469e-07
2.99104e-05
-3.29562e-07
-2.93164e-07
2.96822e-05
-1.47747e-06
2.9595e-05
-1.35793e-06
2.95085e-05
-1.25003e-06
2.94237e-05
-1.15213e-06
2.9341e-05
-1.06277e-06
2.92609e-05
-9.80745e-07
2.91837e-05
-9.05006e-07
2.91096e-05
-8.34694e-07
2.90387e-05
-7.691e-07
2.89711e-05
-7.07655e-07
2.89069e-05
-6.49903e-07
2.88461e-05
-5.95493e-07
2.87887e-05
-5.44157e-07
2.87348e-05
-4.95691e-07
2.86844e-05
-4.49951e-07
2.86374e-05
-4.06839e-07
2.85938e-05
-3.66274e-07
2.85536e-05
-3.28238e-07
2.85166e-05
-2.92649e-07
-2.59508e-07
2.84154e-05
-1.33232e-06
2.82764e-05
-1.21888e-06
2.81438e-05
-1.1174e-06
2.80177e-05
-1.02605e-06
2.78982e-05
-9.43248e-07
2.77851e-05
-8.67701e-07
2.76784e-05
-7.98322e-07
2.7578e-05
-7.34219e-07
2.74835e-05
-6.74671e-07
2.7395e-05
-6.19104e-07
2.73121e-05
-5.67065e-07
2.72348e-05
-5.18203e-07
2.71629e-05
-4.72254e-07
2.70963e-05
-4.29019e-07
2.70347e-05
-3.88352e-07
2.6978e-05
-3.50152e-07
2.6926e-05
-3.14338e-07
2.68787e-05
-2.80867e-07
2.68357e-05
-2.49683e-07
-2.20757e-07
2.67166e-05
-1.14045e-06
2.65369e-05
-1.03921e-06
2.63689e-05
-9.49358e-07
2.62118e-05
-8.69023e-07
2.60652e-05
-7.96645e-07
2.59285e-05
-7.30941e-07
2.5801e-05
-6.70865e-07
2.56824e-05
-6.15567e-07
2.55721e-05
-5.64368e-07
2.54697e-05
-5.16734e-07
2.53749e-05
-4.72246e-07
2.52872e-05
-4.30584e-07
2.52065e-05
-3.91507e-07
2.51323e-05
-3.54834e-07
2.50644e-05
-3.20433e-07
2.50025e-05
-2.88209e-07
2.49462e-05
-2.58087e-07
2.48953e-05
-2.30014e-07
2.48496e-05
-2.03956e-07
-1.79856e-07
2.45537e-05
-9.18696e-07
2.4349e-05
-8.34508e-07
2.416e-05
-7.6029e-07
2.39853e-05
-6.94305e-07
2.38237e-05
-6.35137e-07
2.36744e-05
-5.81636e-07
2.35364e-05
-5.32876e-07
2.3409e-05
-4.88117e-07
2.32914e-05
-4.46771e-07
2.3183e-05
-4.08381e-07
2.30834e-05
-3.72593e-07
2.2992e-05
-3.39139e-07
2.29083e-05
-3.07816e-07
2.28319e-05
-2.78474e-07
2.27625e-05
-2.51005e-07
2.26996e-05
-2.25327e-07
2.26429e-05
-2.01377e-07
2.2592e-05
-1.79106e-07
2.25465e-05
-1.58494e-07
-1.39463e-07
2.19175e-05
-6.87164e-07
2.17059e-05
-6.22823e-07
2.1512e-05
-5.66401e-07
2.13341e-05
-5.16453e-07
2.11708e-05
-4.71821e-07
2.10207e-05
-4.31574e-07
2.08828e-05
-3.94971e-07
2.07561e-05
-3.61427e-07
2.06399e-05
-3.30481e-07
2.05332e-05
-3.01777e-07
2.04357e-05
-2.75044e-07
2.03466e-05
-2.50077e-07
2.02655e-05
-2.26722e-07
2.01919e-05
-2.04867e-07
2.01254e-05
-1.8443e-07
2.00654e-05
-1.6535e-07
2.00116e-05
-1.47578e-07
1.99636e-05
-1.31077e-07
1.99209e-05
-1.15834e-07
-1.01767e-07
1.882e-05
-4.66387e-07
1.86194e-05
-4.22218e-07
1.84366e-05
-3.83636e-07
1.82698e-05
-3.49583e-07
1.81172e-05
-3.19222e-07
1.79775e-05
-2.91888e-07
1.78496e-05
-2.67055e-07
1.77324e-05
-2.44312e-07
1.76253e-05
-2.23336e-07
1.75274e-05
-2.03882e-07
1.74381e-05
-1.85764e-07
1.73569e-05
-1.68843e-07
1.72832e-05
-1.53015e-07
1.72165e-05
-1.38206e-07
1.71565e-05
-1.2436e-07
1.71025e-05
-1.1144e-07
1.70544e-05
-9.9409e-08
1.70115e-05
-8.82462e-08
1.69737e-05
-7.79401e-08
-6.84227e-08
1.52893e-05
-2.74738e-07
1.51158e-05
-2.48679e-07
1.49581e-05
-2.25976e-07
1.48145e-05
-2.05975e-07
1.46834e-05
-1.88164e-07
1.45637e-05
-1.72138e-07
1.44542e-05
-1.5758e-07
1.43541e-05
-1.44242e-07
1.42627e-05
-1.31933e-07
1.41794e-05
-1.20508e-07
1.41035e-05
-1.09859e-07
1.40345e-05
-9.99025e-08
1.39721e-05
-9.05813e-08
1.39157e-05
-8.18533e-08
1.38651e-05
-7.36866e-08
1.38197e-05
-6.60603e-08
1.37792e-05
-5.89537e-08
1.37433e-05
-5.23578e-08
1.37117e-05
-4.6262e-08
-4.0623e-08
1.13622e-05
-1.26786e-07
1.12284e-05
-1.1486e-07
1.11069e-05
-1.04488e-07
1.09963e-05
-9.53583e-08
1.08954e-05
-8.72312e-08
1.08031e-05
-7.99171e-08
1.07188e-05
-7.32684e-08
1.06418e-05
-6.71699e-08
1.05714e-05
-6.15334e-08
1.05071e-05
-5.62924e-08
1.04487e-05
-5.13979e-08
1.03956e-05
-4.68132e-08
1.03475e-05
-4.25119e-08
1.03041e-05
-3.84763e-08
1.02651e-05
-3.46926e-08
1.02302e-05
-3.11525e-08
1.01991e-05
-2.78466e-08
1.01715e-05
-2.47728e-08
1.01472e-05
-2.19245e-08
-1.92812e-08
7.07595e-06
-3.29086e-08
6.99097e-06
-2.98802e-08
6.91373e-06
-2.72494e-08
6.84331e-06
-2.49349e-08
6.77895e-06
-2.28743e-08
6.72006e-06
-2.10179e-08
6.66611e-06
-1.93279e-08
6.61672e-06
-1.77748e-08
6.57152e-06
-1.63351e-08
6.53022e-06
-1.49918e-08
6.49256e-06
-1.3733e-08
6.45829e-06
-1.25498e-08
6.42722e-06
-1.14352e-08
6.39912e-06
-1.03849e-08
6.37383e-06
-9.39638e-09
6.35114e-06
-8.46742e-09
6.33089e-06
-7.59583e-09
6.3129e-06
-6.78241e-09
6.297e-06
-6.02454e-09
-5.31643e-09
2.46147e-06
2.43159e-06
2.40434e-06
2.3794e-06
2.35653e-06
2.33551e-06
2.31618e-06
2.29841e-06
2.28207e-06
2.26708e-06
2.25335e-06
2.2408e-06
2.22936e-06
2.21898e-06
2.20958e-06
2.20112e-06
2.19352e-06
2.18674e-06
2.18071e-06
)
;

boundaryField
{
    fixedWalls
    {
        type            calculated;
        value           uniform 0;
    }
    inlet
    {
        type            calculated;
        value           nonuniform 0();
    }
    outlet
    {
        type            calculated;
        value           nonuniform 0();
    }
    frontAndBack
    {
        type            empty;
        value           nonuniform 0();
    }
    procBoundary5to1
    {
        type            processor;
        value           nonuniform List<scalar> 
20
(
-4.37963e-13
-4.16939e-12
-7.24317e-12
-7.48641e-12
-7.85827e-12
-1.06931e-11
-1.52347e-11
-1.99453e-11
-2.41194e-11
-2.78748e-11
-3.19868e-11
-3.45232e-11
-3.63722e-11
-3.87366e-11
-3.88274e-11
-3.97088e-11
-4.26319e-11
-4.14024e-11
-4.40762e-11
-1.90217e-11
)
;
    }
    procBoundary5to4
    {
        type            processor;
        value           nonuniform List<scalar> 
20
(
-3.11115e-05
-3.11464e-05
-3.12118e-05
-3.1298e-05
-3.13883e-05
-3.14568e-05
-3.14667e-05
-3.13684e-05
-3.11006e-05
-3.05924e-05
-2.97693e-05
-2.85606e-05
-2.69084e-05
-2.47755e-05
-2.21491e-05
-1.90408e-05
-1.5481e-05
-1.15102e-05
-7.16983e-06
-2.49438e-06
)
;
    }
    procBoundary5to6
    {
        type            processor;
        value           nonuniform List<scalar> 
20
(
3.41679e-05
3.41166e-05
3.40067e-05
3.38252e-05
3.35529e-05
3.31658e-05
3.26357e-05
3.19327e-05
3.10257e-05
2.98848e-05
2.8483e-05
2.6797e-05
2.48087e-05
2.25061e-05
1.98832e-05
1.69403e-05
1.36839e-05
1.01259e-05
6.28304e-06
2.1754e-06
)
;
    }
}


// ************************************************************************* //
