/*--------------------------------*- C++ -*----------------------------------*\
| =========                 |                                                 |
| \\      /  F ield         | OpenFOAM: The Open Source CFD Toolbox           |
|  \\    /   O peration     | Version:                                        |
|   \\  /    A nd           | Website:  www.openfoam.com                      |
|    \\/     M anipulation  |                                                 |
\*---------------------------------------------------------------------------*/
FoamFile
{
    version     2.0;
    format      ascii;
    class       volVectorField;
    location    "0.2";
    object      U;
}
// * * * * * * * * * * * * * * * * * * * * * * * * * * * * * * * * * * * * * //

dimensions      [0 1 -1 0 0 0 0];


internalField   nonuniform List<vector> 
400
(
(1.24944 -0.00244055 0)
(1.25895 -0.00233158 0)
(1.26803 -0.00222625 0)
(1.27669 -0.00212417 0)
(1.28494 -0.00202479 0)
(1.2928 -0.00192768 0)
(1.30027 -0.00183253 0)
(1.30737 -0.00173918 0)
(1.31409 -0.00164743 0)
(1.32045 -0.00155713 0)
(1.32645 -0.00146819 0)
(1.3321 -0.0013806 0)
(1.33741 -0.00129437 0)
(1.34237 -0.00120939 0)
(1.34699 -0.00112606 0)
(1.35129 -0.00104402 0)
(1.35526 -0.000964267 0)
(1.35892 -0.000885864 0)
(1.36228 -0.000808944 0)
(1.36532 -0.00073815 0)
(1.25078 -0.00729245 0)
(1.26016 -0.00696174 0)
(1.26909 -0.00664234 0)
(1.27759 -0.00633298 0)
(1.28567 -0.00603218 0)
(1.29335 -0.00573878 0)
(1.30064 -0.00545188 0)
(1.30754 -0.00517076 0)
(1.31407 -0.00489486 0)
(1.32024 -0.00462371 0)
(1.32604 -0.00435707 0)
(1.3315 -0.00409471 0)
(1.33661 -0.00383672 0)
(1.34138 -0.00358292 0)
(1.34582 -0.00333417 0)
(1.34994 -0.00308966 0)
(1.35374 -0.00285199 0)
(1.35724 -0.00261867 0)
(1.36044 -0.00239128 0)
(1.36334 -0.00217948 0)
(1.25327 -0.0120501 0)
(1.26235 -0.0114861 0)
(1.27097 -0.0109426 0)
(1.27913 -0.0104172 0)
(1.28686 -0.00990776 0)
(1.29417 -0.00941233 0)
(1.30107 -0.00892932 0)
(1.30758 -0.00845744 0)
(1.31372 -0.00799562 0)
(1.31949 -0.00754302 0)
(1.3249 -0.00709911 0)
(1.32996 -0.00666346 0)
(1.33469 -0.0062361 0)
(1.33909 -0.00581678 0)
(1.34316 -0.00540652 0)
(1.34693 -0.00500458 0)
(1.3504 -0.00461386 0)
(1.35357 -0.00423223 0)
(1.35647 -0.00386222 0)
(1.35909 -0.00351267 0)
(1.25649 -0.0166287 0)
(1.26508 -0.0158143 0)
(1.27317 -0.0150318 0)
(1.28078 -0.0142783 0)
(1.28793 -0.0135507 0)
(1.29465 -0.012846 0)
(1.30095 -0.0121619 0)
(1.30686 -0.0114964 0)
(1.31239 -0.0108477 0)
(1.31756 -0.0102145 0)
(1.32238 -0.00959576 0)
(1.32686 -0.00899077 0)
(1.33102 -0.00839932 0)
(1.33486 -0.00782109 0)
(1.33841 -0.00725691 0)
(1.34166 -0.00670645 0)
(1.34464 -0.00617203 0)
(1.34734 -0.00565308 0)
(1.34981 -0.00515133 0)
(1.35202 -0.00467335 0)
(1.25974 -0.0209136 0)
(1.26758 -0.019829 0)
(1.27487 -0.0187921 0)
(1.28167 -0.0177986 0)
(1.28799 -0.0168442 0)
(1.29388 -0.0159251 0)
(1.29935 -0.0150377 0)
(1.30443 -0.0141788 0)
(1.30914 -0.0133459 0)
(1.3135 -0.0125367 0)
(1.31753 -0.0117498 0)
(1.32124 -0.0109839 0)
(1.32466 -0.0102382 0)
(1.32779 -0.00951237 0)
(1.33065 -0.00880678 0)
(1.33326 -0.00812147 0)
(1.33562 -0.00745789 0)
(1.33774 -0.00681698 0)
(1.33966 -0.00619929 0)
(1.34136 -0.00560963 0)
(1.26195 -0.0247546 0)
(1.2687 -0.0233833 0)
(1.2749 -0.0220806 0)
(1.28058 -0.0208405 0)
(1.2858 -0.019657 0)
(1.29059 -0.0185246 0)
(1.29498 -0.017438 0)
(1.29901 -0.0163929 0)
(1.30269 -0.0153852 0)
(1.30605 -0.0144117 0)
(1.30911 -0.0134699 0)
(1.3119 -0.0125578 0)
(1.31443 -0.0116743 0)
(1.31671 -0.0108183 0)
(1.31877 -0.00998979 0)
(1.32061 -0.009189 0)
(1.32226 -0.00841644 0)
(1.32371 -0.00767409 0)
(1.32501 -0.00696149 0)
(1.32614 -0.0062819 0)
(1.26162 -0.0279683 0)
(1.26691 -0.0263041 0)
(1.27166 -0.0247354 0)
(1.27592 -0.0232535 0)
(1.27975 -0.0218499 0)
(1.28318 -0.0205166 0)
(1.28626 -0.0192461 0)
(1.28902 -0.0180321 0)
(1.29149 -0.0168689 0)
(1.29369 -0.0157519 0)
(1.29565 -0.0146774 0)
(1.29738 -0.0136424 0)
(1.29891 -0.0126449 0)
(1.30025 -0.0116834 0)
(1.30142 -0.0107573 0)
(1.30244 -0.00986648 0)
(1.30331 -0.00901087 0)
(1.30405 -0.00819277 0)
(1.30469 -0.00741098 0)
(1.30521 -0.00666759 0)
(1.25674 -0.0303507 0)
(1.2602 -0.0284064 0)
(1.26316 -0.0265899 0)
(1.26571 -0.0248887 0)
(1.26789 -0.0232904 0)
(1.26975 -0.0217839 0)
(1.27133 -0.020359 0)
(1.27266 -0.0190067 0)
(1.27378 -0.0177194 0)
(1.27471 -0.0164907 0)
(1.27546 -0.0153155 0)
(1.27607 -0.0141898 0)
(1.27654 -0.0131105 0)
(1.2769 -0.0120755 0)
(1.27715 -0.0110835 0)
(1.27732 -0.010134 0)
(1.27742 -0.00922633 0)
(1.27744 -0.00836266 0)
(1.27743 -0.00754118 0)
(1.27736 -0.00676328 0)
(1.24489 -0.0317013 0)
(1.24617 -0.0295167 0)
(1.24708 -0.0274954 0)
(1.24769 -0.0256194 0)
(1.24804 -0.023872 0)
(1.24818 -0.022238 0)
(1.24814 -0.0207039 0)
(1.24797 -0.019258 0)
(1.24767 -0.0178903 0)
(1.24729 -0.0165927 0)
(1.24682 -0.0153586 0)
(1.24629 -0.0141827 0)
(1.24572 -0.013061 0)
(1.24511 -0.0119907 0)
(1.24448 -0.0109699 0)
(1.24384 -0.00999748 0)
(1.24319 -0.00907242 0)
(1.24255 -0.00819627 0)
(1.24193 -0.00736693 0)
(1.24132 -0.00658533 0)
(1.22329 -0.0318588 0)
(1.22219 -0.0295051 0)
(1.22089 -0.0273493 0)
(1.21945 -0.0253669 0)
(1.2179 -0.0235363 0)
(1.21629 -0.0218378 0)
(1.21463 -0.0202545 0)
(1.21297 -0.018772 0)
(1.2113 -0.0173782 0)
(1.20964 -0.0160633 0)
(1.20802 -0.0148191 0)
(1.20643 -0.0136397 0)
(1.20489 -0.01252 0)
(1.2034 -0.0114566 0)
(1.20197 -0.0104469 0)
(1.20061 -0.00948964 0)
(1.19932 -0.00858321 0)
(1.19809 -0.00772845 0)
(1.19695 -0.00692324 0)
(1.19589 -0.00616817 0)
(1.18904 -0.0307398 0)
(1.18554 -0.0283193 0)
(1.18206 -0.0261242 0)
(1.17863 -0.0241242 0)
(1.17527 -0.0222922 0)
(1.17201 -0.020605 0)
(1.16886 -0.0190427 0)
(1.16584 -0.0175887 0)
(1.16293 -0.0162293 0)
(1.16016 -0.0149531 0)
(1.15753 -0.0137514 0)
(1.15503 -0.0126172 0)
(1.15266 -0.0115452 0)
(1.15044 -0.0105313 0)
(1.14835 -0.00957275 0)
(1.1464 -0.00866771 0)
(1.14459 -0.00781452 0)
(1.14291 -0.00701318 0)
(1.14137 -0.00626184 0)
(1.13996 -0.00556071 0)
(1.13946 -0.0283753 0)
(1.13378 -0.026012 0)
(1.12834 -0.0238891 0)
(1.12316 -0.0219712 0)
(1.11825 -0.0202276 0)
(1.1136 -0.0186325 0)
(1.10921 -0.0171642 0)
(1.10507 -0.0158049 0)
(1.10117 -0.0145399 0)
(1.09751 -0.0133577 0)
(1.09409 -0.0122488 0)
(1.09089 -0.0112062 0)
(1.0879 -0.0102244 0)
(1.08513 -0.00929924 0)
(1.08257 -0.00842784 0)
(1.08021 -0.00760812 0)
(1.07803 -0.0068384 0)
(1.07605 -0.00611803 0)
(1.07425 -0.00544562 0)
(1.07261 -0.00482088 0)
(1.07238 -0.0249294 0)
(1.06495 -0.022753 0)
(1.058 -0.0208148 0)
(1.05151 -0.019077 0)
(1.04544 -0.0175075 0)
(1.03978 -0.0160798 0)
(1.0345 -0.0147722 0)
(1.02958 -0.0135668 0)
(1.02501 -0.0124493 0)
(1.02076 -0.0114085 0)
(1.01682 -0.0104355 0)
(1.01317 -0.00952331 0)
(1.00981 -0.00866691 0)
(1.00671 -0.00786239 0)
(1.00387 -0.00710693 0)
(1.00128 -0.00639848 0)
(0.998919 -0.00573547 0)
(0.996779 -0.00511689 0)
(0.99485 -0.00454181 0)
(0.993122 -0.00400937 0)
(0.986409 -0.0206934 0)
(0.977894 -0.0188186 0)
(0.970032 -0.0171615 0)
(0.962768 -0.015685 0)
(0.956054 -0.0143588 0)
(0.949847 -0.0131578 0)
(0.944109 -0.012062 0)
(0.938808 -0.0110553 0)
(0.933913 -0.0101246 0)
(0.9294 -0.00925983 0)
(0.925245 -0.00845326 0)
(0.921428 -0.00769884 0)
(0.91793 -0.00699208 0)
(0.914733 -0.00632963 0)
(0.911821 -0.00570904 0)
(0.909178 -0.0051285 0)
(0.90679 -0.00458662 0)
(0.904642 -0.00408234 0)
(0.902718 -0.0036151 0)
(0.901005 -0.00318353 0)
(0.881125 -0.0160517 0)
(0.872282 -0.0145584 0)
(0.864189 -0.0132465 0)
(0.85677 -0.0120833 0)
(0.849961 -0.0110428 0)
(0.843705 -0.0101037 0)
(0.837956 -0.00924906 0)
(0.832672 -0.00846552 0)
(0.82782 -0.00774247 0)
(0.823369 -0.00707169 0)
(0.819292 -0.00644686 0)
(0.815565 -0.00586319 0)
(0.812167 -0.00531713 0)
(0.809078 -0.00480605 0)
(0.806279 -0.00432799 0)
(0.803752 -0.00388155 0)
(0.801481 -0.00346558 0)
(0.799448 -0.0030792 0)
(0.797638 -0.00272208 0)
(0.796036 -0.00239258 0)
(0.757003 -0.0114258 0)
(0.7486 -0.0103459 0)
(0.740954 -0.00940144 0)
(0.733979 -0.00856712 0)
(0.727604 -0.00782278 0)
(0.72177 -0.00715238 0)
(0.716429 -0.00654322 0)
(0.711537 -0.00598531 0)
(0.70706 -0.0054708 0)
(0.702966 -0.00499372 0)
(0.699228 -0.0045495 0)
(0.695823 -0.0041347 0)
(0.692729 -0.0037468 0)
(0.689927 -0.00338395 0)
(0.687397 -0.00304476 0)
(0.685121 -0.00272826 0)
(0.683084 -0.00243361 0)
(0.681268 -0.00216022 0)
(0.679657 -0.00190784 0)
(0.678237 -0.00167492 0)
(0.615213 -0.00721108 0)
(0.607934 -0.00652599 0)
(0.60133 -0.00592868 0)
(0.595321 -0.00540218 0)
(0.589841 -0.00493319 0)
(0.584836 -0.00451119 0)
(0.580261 -0.00412787 0)
(0.576078 -0.00377679 0)
(0.572255 -0.00345293 0)
(0.568766 -0.00315246 0)
(0.565585 -0.00287254 0)
(0.562693 -0.002611 0)
(0.56007 -0.0023663 0)
(0.557699 -0.00213728 0)
(0.555562 -0.00192313 0)
(0.553645 -0.00172327 0)
(0.551932 -0.00153714 0)
(0.550408 -0.00136447 0)
(0.549061 -0.00120504 0)
(0.547874 -0.0010577 0)
(0.457297 -0.00374191 0)
(0.451682 -0.00338839 0)
(0.446591 -0.00308074 0)
(0.441962 -0.00280987 0)
(0.437742 -0.00256869 0)
(0.433888 -0.00235166 0)
(0.430364 -0.00215441 0)
(0.427143 -0.00197355 0)
(0.424198 -0.0018065 0)
(0.421511 -0.00165129 0)
(0.419061 -0.00150645 0)
(0.416834 -0.00137089 0)
(0.414814 -0.00124385 0)
(0.412989 -0.00112477 0)
(0.411344 -0.00101324 0)
(0.409869 -0.000908992 0)
(0.408552 -0.000811768 0)
(0.407381 -0.000721455 0)
(0.406345 -0.000637884 0)
(0.405434 -0.000560464 0)
(0.284821 -0.00132433 0)
(0.281257 -0.00120177 0)
(0.278022 -0.00109523 0)
(0.275077 -0.00100146 0)
(0.272388 -0.000917937 0)
(0.269929 -0.000842684 0)
(0.267676 -0.000774182 0)
(0.265613 -0.00071124 0)
(0.263725 -0.00065293 0)
(0.261998 -0.000598572 0)
(0.260421 -0.000547681 0)
(0.258985 -0.000499887 0)
(0.25768 -0.000454924 0)
(0.256499 -0.000412618 0)
(0.255433 -0.000372855 0)
(0.254475 -0.000335548 0)
(0.253618 -0.000300596 0)
(0.252855 -0.00026803 0)
(0.252179 -0.000237747 0)
(0.251583 -0.000209526 0)
(0.0990848 -0.000208774 0)
(0.0978334 -0.000190428 0)
(0.0966942 -0.000174498 0)
(0.0956533 -0.000160473 0)
(0.0946994 -0.000147964 0)
(0.0938234 -0.000136676 0)
(0.0930179 -0.000126359 0)
(0.0922772 -0.000116826 0)
(0.091596 -0.000107942 0)
(0.0909704 -9.9597e-05 0)
(0.0903968 -9.1728e-05 0)
(0.0898719 -8.42846e-05 0)
(0.0893929 -7.72155e-05 0)
(0.0889572 -7.05135e-05 0)
(0.0885622 -6.41616e-05 0)
(0.0882055 -5.81319e-05 0)
(0.0878849 -5.24526e-05 0)
(0.0875979 -4.71022e-05 0)
(0.0873423 -4.20757e-05 0)
(0.087116 -3.73391e-05 0)
)
;

boundaryField
{
    fixedWalls
    {
        type            noSlip;
    }
    inlet
    {
        type            fixedValue;
        value           nonuniform 0();
    }
    outlet
    {
        type            zeroGradient;
    }
    frontAndBack
    {
        type            empty;
    }
    procBoundary5to1
    {
        type            processor;
        value           nonuniform List<vector> 
20
(
(1.24944 0.00244055 0)
(1.25895 0.00233174 0)
(1.26803 0.00222653 0)
(1.27669 0.00212448 0)
(1.28494 0.00202513 0)
(1.2928 0.00192812 0)
(1.30027 0.00183314 0)
(1.30737 0.00173996 0)
(1.31409 0.00164838 0)
(1.32045 0.00155823 0)
(1.32645 0.00146946 0)
(1.3321 0.00138197 0)
(1.33741 0.00129581 0)
(1.34237 0.00121093 0)
(1.34699 0.00112761 0)
(1.35129 0.0010456 0)
(1.35526 0.000965966 0)
(1.35892 0.000887552 0)
(1.36227 0.000810942 0)
(1.36532 0.000738996 0)
)
;
    }
    procBoundary5to4
    {
        type            processor;
        value           nonuniform List<vector> 
20
(
(1.23949 -0.00255331 0)
(1.24094 -0.00763528 0)
(1.24368 -0.012636 0)
(1.24736 -0.0174777 0)
(1.25133 -0.0220495 0)
(1.2546 -0.0261999 0)
(1.25572 -0.0297361 0)
(1.25274 -0.0324351 0)
(1.24316 -0.0340677 0)
(1.22411 -0.0344361 0)
(1.19251 -0.0334197 0)
(1.14539 -0.0310199 0)
(1.0803 -0.0273889 0)
(0.995635 -0.0228304 0)
(0.890806 -0.0177661 0)
(0.766263 -0.0126724 0)
(0.623266 -0.00800517 0)
(0.463519 -0.00415278 0)
(0.288767 -0.00146706 0)
(0.100466 -0.000230199 0)
)
;
    }
    procBoundary5to6
    {
        type            processor;
        value           nonuniform List<vector> 
20
(
(1.36811 -0.00066881 0)
(1.36598 -0.00197155 0)
(1.36145 -0.00317205 0)
(1.354 -0.00421342 0)
(1.34287 -0.00504735 0)
(1.32712 -0.00563838 0)
(1.30565 -0.00596773 0)
(1.27726 -0.00603473 0)
(1.24074 -0.00585667 0)
(1.1949 -0.00546706 0)
(1.13868 -0.00491185 0)
(1.07114 -0.00424425 0)
(0.991578 -0.00351898 0)
(0.899486 -0.00278674 0)
(0.794622 -0.00209016 0)
(0.67699 -0.00146158 0)
(0.546837 -0.000922984 0)
(0.404638 -0.000489797 0)
(0.251062 -0.000183771 0)
(0.0869169 -3.30228e-05 0)
)
;
    }
}


// ************************************************************************* //
