/*--------------------------------*- C++ -*----------------------------------*\
| =========                 |                                                 |
| \\      /  F ield         | OpenFOAM: The Open Source CFD Toolbox           |
|  \\    /   O peration     | Version:                                        |
|   \\  /    A nd           | Website:  www.openfoam.com                      |
|    \\/     M anipulation  |                                                 |
\*---------------------------------------------------------------------------*/
FoamFile
{
    version     2.0;
    format      ascii;
    class       surfaceScalarField;
    location    "140";
    object      phi;
}
// * * * * * * * * * * * * * * * * * * * * * * * * * * * * * * * * * * * * * //

dimensions      [0 3 -1 0 0 0 0];
oriented        oriented;


internalField   nonuniform List<scalar> 
445
(
2.67315e-05
-1.10021e-07
2.67263e-05
-1.05731e-07
2.67211e-05
-1.01646e-07
2.67161e-05
-9.77539e-08
2.67113e-05
-9.40422e-08
2.67065e-05
-9.05002e-08
2.67019e-05
-8.71179e-08
2.66974e-05
-8.3886e-08
2.66931e-05
-8.0796e-08
2.66888e-05
-7.78399e-08
2.66847e-05
-7.50103e-08
2.66807e-05
-7.23004e-08
2.66768e-05
-6.97039e-08
2.6673e-05
-6.72149e-08
2.66694e-05
-6.48277e-08
2.66658e-05
-6.25372e-08
2.66624e-05
-6.03386e-08
2.6659e-05
-5.82274e-08
2.66558e-05
-5.61993e-08
2.66527e-05
-5.42504e-08
2.66496e-05
-5.23769e-08
2.66467e-05
-5.05754e-08
2.66438e-05
-4.88424e-08
2.66411e-05
-4.7175e-08
2.66384e-05
-4.55701e-08
2.66358e-05
-4.40251e-08
2.66333e-05
-4.25373e-08
2.66309e-05
-4.11041e-08
2.66285e-05
-3.97234e-08
2.66262e-05
-3.83928e-08
2.6624e-05
-3.71103e-08
2.66219e-05
-3.58739e-08
2.66198e-05
-3.46817e-08
2.66178e-05
-3.35318e-08
2.66159e-05
-3.24226e-08
2.6614e-05
-3.13525e-08
2.66122e-05
-3.03199e-08
2.66104e-05
-2.93234e-08
2.66087e-05
-2.83614e-08
2.66071e-05
-2.74328e-08
2.66055e-05
-2.65362e-08
2.66039e-05
-2.56704e-08
2.66024e-05
-2.48343e-08
2.6601e-05
-2.40266e-08
2.65996e-05
-2.32465e-08
2.65982e-05
-2.24927e-08
2.65969e-05
-2.17645e-08
2.65956e-05
-2.10608e-08
2.65944e-05
-2.03807e-08
-1.97235e-08
2.66995e-05
-8.51202e-08
2.66755e-05
-8.17641e-08
2.66524e-05
-7.85725e-08
2.66302e-05
-7.55346e-08
2.66088e-05
-7.26407e-08
2.65882e-05
-6.98818e-08
2.65683e-05
-6.72498e-08
2.65492e-05
-6.47369e-08
2.65307e-05
-6.23363e-08
2.65129e-05
-6.00414e-08
2.64958e-05
-5.78463e-08
2.64792e-05
-5.57455e-08
2.64632e-05
-5.37337e-08
2.64478e-05
-5.18063e-08
2.6433e-05
-4.99587e-08
2.64186e-05
-4.81869e-08
2.64048e-05
-4.64869e-08
2.63914e-05
-4.48552e-08
2.63785e-05
-4.32883e-08
2.6366e-05
-4.17832e-08
2.6354e-05
-4.03368e-08
2.63423e-05
-3.89464e-08
2.63311e-05
-3.76093e-08
2.63203e-05
-3.63231e-08
2.63098e-05
-3.50855e-08
2.62996e-05
-3.38942e-08
2.62899e-05
-3.27473e-08
2.62804e-05
-3.16428e-08
2.62712e-05
-3.05789e-08
2.62624e-05
-2.95538e-08
2.62539e-05
-2.85658e-08
2.62456e-05
-2.76135e-08
2.62376e-05
-2.66953e-08
2.62299e-05
-2.58099e-08
2.62224e-05
-2.49559e-08
2.62152e-05
-2.4132e-08
2.62082e-05
-2.33371e-08
2.62015e-05
-2.257e-08
2.61949e-05
-2.18296e-08
2.61886e-05
-2.11148e-08
2.61825e-05
-2.04247e-08
2.61766e-05
-1.97584e-08
2.61709e-05
-1.91149e-08
2.61653e-05
-1.84934e-08
2.616e-05
-1.78931e-08
2.61548e-05
-1.73131e-08
2.61498e-05
-1.67527e-08
2.61449e-05
-1.62112e-08
2.61403e-05
-1.56879e-08
-1.51822e-08
2.37331e-05
-4.92563e-08
2.36987e-05
-4.73096e-08
2.36655e-05
-4.5459e-08
2.36337e-05
-4.36981e-08
2.36031e-05
-4.20213e-08
2.35736e-05
-4.04232e-08
2.35453e-05
-3.88989e-08
2.3518e-05
-3.74441e-08
2.34917e-05
-3.60545e-08
2.34664e-05
-3.47265e-08
2.3442e-05
-3.34565e-08
2.34185e-05
-3.22412e-08
2.33958e-05
-3.10776e-08
2.3374e-05
-2.99629e-08
2.33529e-05
-2.88946e-08
2.33326e-05
-2.78701e-08
2.3313e-05
-2.68873e-08
2.32941e-05
-2.59441e-08
2.32759e-05
-2.50384e-08
2.32582e-05
-2.41684e-08
2.32412e-05
-2.33324e-08
2.32248e-05
-2.25288e-08
2.3209e-05
-2.17561e-08
2.31937e-05
-2.10128e-08
2.31789e-05
-2.02976e-08
2.31646e-05
-1.96091e-08
2.31508e-05
-1.89463e-08
2.31374e-05
-1.8308e-08
2.31246e-05
-1.76932e-08
2.31121e-05
-1.71007e-08
2.31001e-05
-1.65298e-08
2.30884e-05
-1.59794e-08
2.30772e-05
-1.54487e-08
2.30663e-05
-1.49369e-08
2.30558e-05
-1.44433e-08
2.30456e-05
-1.39671e-08
2.30358e-05
-1.35076e-08
2.30263e-05
-1.30641e-08
2.30171e-05
-1.26361e-08
2.30082e-05
-1.22228e-08
2.29996e-05
-1.18239e-08
2.29913e-05
-1.14386e-08
2.29832e-05
-1.10665e-08
2.29755e-05
-1.07071e-08
2.29679e-05
-1.036e-08
2.29606e-05
-1.00245e-08
2.29536e-05
-9.70046e-09
2.29468e-05
-9.38728e-09
2.29402e-05
-9.08461e-09
-8.79206e-09
1.72927e-05
-1.57764e-08
1.72606e-05
-1.51561e-08
1.72297e-05
-1.45662e-08
1.72e-05
-1.40048e-08
1.71714e-05
-1.347e-08
1.7144e-05
-1.29601e-08
1.71175e-05
-1.24738e-08
1.70921e-05
-1.20094e-08
1.70676e-05
-1.15658e-08
1.7044e-05
-1.11417e-08
1.70213e-05
-1.0736e-08
1.69994e-05
-1.03477e-08
1.69783e-05
-9.97588e-09
1.6958e-05
-9.61959e-09
1.69383e-05
-9.27803e-09
1.69194e-05
-8.95042e-09
1.69012e-05
-8.63607e-09
1.68836e-05
-8.3343e-09
1.68666e-05
-8.04448e-09
1.68502e-05
-7.76604e-09
1.68343e-05
-7.49842e-09
1.68191e-05
-7.24112e-09
1.68043e-05
-6.99364e-09
1.679e-05
-6.75554e-09
1.67763e-05
-6.52639e-09
1.6763e-05
-6.30579e-09
1.67501e-05
-6.09336e-09
1.67377e-05
-5.88874e-09
1.67257e-05
-5.6916e-09
1.67141e-05
-5.50162e-09
1.67029e-05
-5.31849e-09
1.6692e-05
-5.14192e-09
1.66816e-05
-4.97166e-09
1.66714e-05
-4.80743e-09
1.66616e-05
-4.64899e-09
1.66522e-05
-4.49612e-09
1.6643e-05
-4.34859e-09
1.66341e-05
-4.20619e-09
1.66256e-05
-4.06872e-09
1.66173e-05
-3.93599e-09
1.66093e-05
-3.80782e-09
1.66015e-05
-3.68404e-09
1.6594e-05
-3.56447e-09
1.65868e-05
-3.44897e-09
1.65797e-05
-3.33738e-09
1.65729e-05
-3.22955e-09
1.65664e-05
-3.12536e-09
1.656e-05
-3.02466e-09
1.65538e-05
-2.92733e-09
-2.83325e-09
6.90194e-06
6.88678e-06
6.87222e-06
6.85821e-06
6.84474e-06
6.83178e-06
6.81931e-06
6.8073e-06
6.79573e-06
6.78459e-06
6.77386e-06
6.76351e-06
6.75353e-06
6.74391e-06
6.73464e-06
6.72568e-06
6.71705e-06
6.70871e-06
6.70067e-06
6.6929e-06
6.68541e-06
6.67816e-06
6.67117e-06
6.66442e-06
6.65789e-06
6.65158e-06
6.64549e-06
6.6396e-06
6.63391e-06
6.62841e-06
6.62309e-06
6.61795e-06
6.61297e-06
6.60817e-06
6.60352e-06
6.59902e-06
6.59467e-06
6.59047e-06
6.5864e-06
6.58246e-06
6.57865e-06
6.57497e-06
6.57141e-06
6.56796e-06
6.56462e-06
6.56139e-06
6.55826e-06
6.55524e-06
6.55231e-06
)
;

boundaryField
{
    inlet
    {
        type            calculated;
        value           nonuniform 0();
    }
    outlet
    {
        type            calculated;
        value           nonuniform 0();
    }
    wall
    {
        type            calculated;
        value           uniform 0;
    }
    back
    {
        type            wedge;
        value           nonuniform List<scalar> 
250
(
8.75092e-18
6.35564e-18
3.71065e-18
-3.87933e-18
1.63804e-19
8.40715e-18
6.09383e-18
3.54907e-18
-3.73515e-18
1.55644e-19
8.0832e-18
5.84993e-18
3.39957e-18
-3.60056e-18
1.44967e-19
7.76913e-18
5.61528e-18
3.25992e-18
-3.46773e-18
1.36621e-19
7.46491e-18
5.38735e-18
3.12256e-18
-3.34326e-18
1.29165e-19
7.18138e-18
5.17868e-18
2.99699e-18
-3.2183e-18
1.24108e-19
6.90575e-18
4.97166e-18
2.87416e-18
-3.09888e-18
1.18374e-19
6.64499e-18
4.77661e-18
2.76049e-18
-2.98956e-18
1.12934e-19
6.39936e-18
4.59513e-18
2.65197e-18
-2.88526e-18
1.06362e-19
6.16056e-18
4.42249e-18
2.55015e-18
-2.77973e-18
1.01601e-19
5.93193e-18
4.25631e-18
2.45005e-18
-2.68263e-18
9.59588e-20
5.71267e-18
4.09354e-18
2.35519e-18
-2.58794e-18
9.12653e-20
5.50072e-18
3.93827e-18
2.26371e-18
-2.49789e-18
8.70749e-20
5.2998e-18
3.79146e-18
2.17742e-18
-2.41183e-18
8.31112e-20
5.10715e-18
3.65348e-18
2.09657e-18
-2.33021e-18
7.97961e-20
4.91994e-18
3.51835e-18
2.02091e-18
-2.24844e-18
7.65216e-20
4.74612e-18
3.39106e-18
1.94491e-18
-2.17435e-18
7.23937e-20
4.57773e-18
3.27028e-18
1.87701e-18
-2.09519e-18
7.03419e-20
4.4105e-18
3.1494e-18
1.8106e-18
-2.02349e-18
6.84546e-20
4.25806e-18
3.03718e-18
1.74189e-18
-1.95482e-18
6.74664e-20
4.10681e-18
2.92684e-18
1.67627e-18
-1.88762e-18
6.52589e-20
3.96195e-18
2.82222e-18
1.61793e-18
-1.82564e-18
6.20851e-20
3.82413e-18
2.71963e-18
1.55997e-18
-1.76276e-18
6.07798e-20
3.69504e-18
2.62605e-18
1.49983e-18
-1.70419e-18
5.84385e-20
3.56477e-18
2.53274e-18
1.44993e-18
-1.647e-18
5.58051e-20
3.43812e-18
2.44023e-18
1.39948e-18
-1.59277e-18
5.41395e-20
3.31972e-18
2.35769e-18
1.35081e-18
-1.53765e-18
5.35333e-20
3.21153e-18
2.28097e-18
1.30241e-18
-1.48331e-18
5.08622e-20
3.0999e-18
2.20112e-18
1.25722e-18
-1.43641e-18
4.87241e-20
2.98874e-18
2.12048e-18
1.21677e-18
-1.3877e-18
4.66348e-20
2.89071e-18
2.05128e-18
1.17597e-18
-1.34229e-18
4.64416e-20
2.79564e-18
1.98244e-18
1.13289e-18
-1.29597e-18
4.43422e-20
2.69913e-18
1.91528e-18
1.09753e-18
-1.25401e-18
4.17097e-20
2.6056e-18
1.84886e-18
1.05688e-18
-1.21663e-18
3.78752e-20
2.51618e-18
1.7862e-18
1.02114e-18
-1.17639e-18
3.5798e-20
2.42736e-18
1.72652e-18
9.85051e-19
-1.14374e-18
3.25018e-20
2.34579e-18
1.66718e-18
9.4853e-19
-1.11012e-18
3.00175e-20
2.26617e-18
1.60948e-18
9.16813e-19
-1.07489e-18
2.89128e-20
2.19029e-18
1.55694e-18
8.83993e-19
-1.04144e-18
2.6918e-20
2.11547e-18
1.50061e-18
8.50622e-19
-1.00951e-18
2.48323e-20
2.04428e-18
1.44678e-18
8.2322e-19
-9.75643e-19
2.40655e-20
1.97344e-18
1.39906e-18
7.9873e-19
-9.3934e-19
2.43313e-20
1.90935e-18
1.35282e-18
7.68979e-19
-9.13851e-19
2.28957e-20
1.84193e-18
1.30458e-18
7.40938e-19
-8.83938e-19
2.29484e-20
1.78091e-18
1.2607e-18
7.15412e-19
-8.55521e-19
2.26684e-20
1.72256e-18
1.2144e-18
6.88929e-19
-8.30607e-19
2.21797e-20
1.66105e-18
1.17091e-18
6.67545e-19
-8.01291e-19
2.20561e-20
1.60474e-18
1.13245e-18
6.45599e-19
-7.77435e-19
2.17977e-20
1.55984e-18
1.10069e-18
6.19958e-19
-7.49493e-19
2.09239e-20
1.49969e-18
1.05975e-18
5.99306e-19
-7.28105e-19
2.0953e-20
)
;
    }
    front
    {
        type            wedge;
        value           nonuniform List<scalar> 
250
(
9.60094e-18
6.93932e-18
4.05417e-18
-3.70175e-18
2.2323e-19
9.23027e-18
6.67552e-18
3.90726e-18
-3.54645e-18
2.16257e-19
8.87378e-18
6.41964e-18
3.76361e-18
-3.39635e-18
2.12537e-19
8.5393e-18
6.17864e-18
3.62444e-18
-3.25832e-18
2.07175e-19
8.22491e-18
5.95353e-18
3.49637e-18
-3.12488e-18
2.01567e-19
7.91801e-18
5.73036e-18
3.36905e-18
-3.00403e-18
1.94166e-19
7.6297e-18
5.52544e-18
3.25077e-18
-2.88902e-18
1.8801e-19
7.35152e-18
5.32726e-18
3.13438e-18
-2.77458e-18
1.82095e-19
7.08178e-18
5.13312e-18
3.02323e-18
-2.66518e-18
1.77815e-19
6.82749e-18
4.94674e-18
2.91516e-18
-2.56646e-18
1.72199e-19
6.58407e-18
4.76955e-18
2.81459e-18
-2.46825e-18
1.67911e-19
6.3512e-18
4.60374e-18
2.71748e-18
-2.37603e-18
1.63097e-19
6.1299e-18
4.4444e-18
2.62521e-18
-2.28713e-18
1.58181e-19
5.91545e-18
4.28982e-18
2.53553e-18
-2.20176e-18
1.53416e-19
5.70969e-18
4.13894e-18
2.44775e-18
-2.11908e-18
1.48361e-19
5.51463e-18
3.99708e-18
2.36175e-18
-2.04329e-18
1.43606e-19
5.32147e-18
3.85865e-18
2.2827e-18
-1.96622e-18
1.40027e-19
5.13747e-18
3.72441e-18
2.20182e-18
-1.9003e-18
1.34678e-19
4.96616e-18
3.60043e-18
2.1254e-18
-1.8327e-18
1.29457e-19
4.79327e-18
3.47747e-18
2.05694e-18
-1.76755e-18
1.23614e-19
4.63177e-18
3.36183e-18
1.99078e-18
-1.70617e-18
1.19255e-19
4.47588e-18
3.24924e-18
1.92247e-18
-1.64453e-18
1.16114e-19
4.3244e-18
3.14297e-18
1.85866e-18
-1.58853e-18
1.11344e-19
4.17512e-18
3.03567e-18
1.8017e-18
-1.53275e-18
1.0784e-19
4.03747e-18
2.93571e-18
1.73893e-18
-1.4799e-18
1.04846e-19
3.90619e-18
2.8422e-18
1.68096e-18
-1.42822e-18
1.01094e-19
3.77621e-18
2.74567e-18
1.62526e-18
-1.38135e-18
9.64822e-20
3.64515e-18
2.64996e-18
1.57316e-18
-1.33748e-18
9.41264e-20
3.52629e-18
2.56373e-18
1.52156e-18
-1.28976e-18
9.14204e-20
3.41532e-18
2.48436e-18
1.46875e-18
-1.24731e-18
8.88409e-20
3.29925e-18
2.39938e-18
1.4197e-18
-1.20485e-18
8.45329e-20
3.18793e-18
2.3196e-18
1.37617e-18
-1.16646e-18
8.22921e-20
3.08542e-18
2.24349e-18
1.32803e-18
-1.12675e-18
8.07386e-20
2.98702e-18
2.17175e-18
1.28817e-18
-1.08535e-18
8.0535e-20
2.89129e-18
2.10117e-18
1.24627e-18
-1.0496e-18
7.87161e-20
2.8015e-18
2.03233e-18
1.20747e-18
-1.00895e-18
7.82526e-20
2.71072e-18
1.96767e-18
1.17173e-18
-9.71828e-19
7.71081e-20
2.62401e-18
1.90572e-18
1.13371e-18
-9.38781e-19
7.47099e-20
2.53934e-18
1.84278e-18
1.09924e-18
-9.06324e-19
7.33227e-20
2.45918e-18
1.78765e-18
1.06765e-18
-8.74631e-19
7.21426e-20
2.38074e-18
1.73388e-18
1.03234e-18
-8.47067e-19
6.97556e-20
2.3071e-18
1.6777e-18
9.96278e-19
-8.24043e-19
6.64436e-20
2.23165e-18
1.62361e-18
9.67555e-19
-7.92232e-19
6.49366e-20
2.1643e-18
1.57497e-18
9.39121e-19
-7.66796e-19
6.20409e-20
2.09513e-18
1.52525e-18
9.10096e-19
-7.41742e-19
5.9574e-20
2.02772e-18
1.48114e-18
8.83881e-19
-7.14993e-19
5.74084e-20
1.96772e-18
1.43729e-18
8.5435e-19
-6.9439e-19
5.49669e-20
1.90662e-18
1.39136e-18
8.27099e-19
-6.70003e-19
5.27462e-20
1.83805e-18
1.34156e-18
8.05197e-19
-6.51319e-19
5.12238e-20
1.78854e-18
1.30368e-18
7.79902e-19
-6.27641e-19
4.88779e-20
)
;
    }
    axis
    {
        type            empty;
        value           nonuniform 0();
    }
    procBoundary5to1
    {
        type            processor;
        value           nonuniform List<scalar> 
50
(
1.15381e-07
1.10971e-07
1.06764e-07
1.02747e-07
9.89102e-08
9.52424e-08
9.17344e-08
8.83775e-08
8.51635e-08
8.20848e-08
7.91343e-08
7.63054e-08
7.35919e-08
7.09881e-08
6.84885e-08
6.6088e-08
6.37819e-08
6.15658e-08
5.94354e-08
5.73868e-08
5.54162e-08
5.35201e-08
5.16952e-08
4.99385e-08
4.82468e-08
4.66174e-08
4.50477e-08
4.35352e-08
4.20773e-08
4.0672e-08
3.9317e-08
3.80103e-08
3.67499e-08
3.55341e-08
3.4361e-08
3.32289e-08
3.21363e-08
3.10816e-08
3.00634e-08
2.90803e-08
2.81309e-08
2.72141e-08
2.63285e-08
2.5473e-08
2.46465e-08
2.38479e-08
2.30763e-08
2.23306e-08
2.16099e-08
2.09133e-08
)
;
    }
    procBoundary5to4
    {
        type            processor;
        value           nonuniform List<scalar> 5(-2.67369e-05 -2.67244e-05 -2.3769e-05 -1.73262e-05 -6.91772e-06);
    }
    procBoundary5to6
    {
        type            processor;
        value           nonuniform List<scalar> 5(2.65932e-05 2.61357e-05 2.29338e-05 1.65479e-05 6.54948e-06);
    }
}


// ************************************************************************* //
