/*--------------------------------*- C++ -*----------------------------------*\
| =========                 |                                                 |
| \\      /  F ield         | OpenFOAM: The Open Source CFD Toolbox           |
|  \\    /   O peration     | Version:                                        |
|   \\  /    A nd           | Website:  www.openfoam.com                      |
|    \\/     M anipulation  |                                                 |
\*---------------------------------------------------------------------------*/
FoamFile
{
    version     2.0;
    format      ascii;
    class       volVectorField;
    location    "140";
    object      U;
}
// * * * * * * * * * * * * * * * * * * * * * * * * * * * * * * * * * * * * * //

dimensions      [0 1 -1 0 0 0 0];


internalField   nonuniform List<vector> 
250
(
(1.39704 -0.00607605 1.70513e-14)
(1.39676 -0.00584057 1.64346e-14)
(1.39649 -0.00561621 1.57778e-14)
(1.39623 -0.00540229 1.54879e-14)
(1.39597 -0.00519818 1.52823e-14)
(1.39572 -0.0050033 1.47593e-14)
(1.39547 -0.00481712 1.45556e-14)
(1.39524 -0.00463913 1.41178e-14)
(1.395 -0.00446889 1.35782e-14)
(1.39478 -0.00430595 1.33455e-14)
(1.39456 -0.00414994 1.30426e-14)
(1.39435 -0.00400047 1.28189e-14)
(1.39414 -0.0038572 1.26512e-14)
(1.39394 -0.00371982 1.23578e-14)
(1.39375 -0.00358803 1.21388e-14)
(1.39356 -0.00346154 1.19225e-14)
(1.39338 -0.00334009 1.14271e-14)
(1.3932 -0.00322345 1.12432e-14)
(1.39303 -0.00311137 1.11728e-14)
(1.39286 -0.00300365 1.06976e-14)
(1.3927 -0.00290008 1.05067e-14)
(1.39254 -0.00280046 1.02053e-14)
(1.39239 -0.00270463 9.83075e-15)
(1.39225 -0.0026124 9.6513e-15)
(1.3921 -0.00252362 9.4665e-15)
(1.39197 -0.00243814 9.33096e-15)
(1.39183 -0.00235582 9.02798e-15)
(1.3917 -0.00227651 8.72828e-15)
(1.39158 -0.0022001 8.54378e-15)
(1.39146 -0.00212645 8.51666e-15)
(1.39134 -0.00205546 8.0026e-15)
(1.39123 -0.00198701 7.84471e-15)
(1.39112 -0.00192101 7.73917e-15)
(1.39101 -0.00185734 7.62869e-15)
(1.39091 -0.00179593 7.58579e-15)
(1.39081 -0.00173667 7.56943e-15)
(1.39071 -0.00167949 7.25418e-15)
(1.39062 -0.0016243 7.18388e-15)
(1.39053 -0.00157103 6.95186e-15)
(1.39044 -0.0015196 6.86985e-15)
(1.39036 -0.00146994 6.67953e-15)
(1.39027 -0.00142199 6.69739e-15)
(1.39019 -0.00137567 6.38607e-15)
(1.39012 -0.00133094 6.45659e-15)
(1.39004 -0.00128772 6.24815e-15)
(1.38997 -0.00124597 6.05577e-15)
(1.3899 -0.00120563 6.21205e-15)
(1.38983 -0.00116665 5.90172e-15)
(1.38977 -0.00112898 5.53158e-15)
(1.38971 -0.00109257 5.74705e-15)
(1.18112 -0.00438954 1.17276e-14)
(1.18004 -0.00421677 1.15505e-14)
(1.179 -0.00405243 1.13201e-14)
(1.178 -0.00389598 1.12887e-14)
(1.17703 -0.00374691 1.13941e-14)
(1.1761 -0.00360477 1.10023e-14)
(1.17521 -0.00346914 1.1256e-14)
(1.17435 -0.00333964 1.09439e-14)
(1.17352 -0.0032159 1.0713e-14)
(1.17271 -0.00309759 1.04017e-14)
(1.17194 -0.00298442 1.02117e-14)
(1.1712 -0.00287609 1.02583e-14)
(1.17048 -0.00277235 1.01183e-14)
(1.16978 -0.00267295 9.9656e-15)
(1.16911 -0.00257765 9.6519e-15)
(1.16847 -0.00248626 9.59807e-15)
(1.16785 -0.00239856 9.27514e-15)
(1.16724 -0.00231439 9.13526e-15)
(1.16666 -0.00223355 9.17237e-15)
(1.1661 -0.00215589 8.78547e-15)
(1.16556 -0.00208126 8.80172e-15)
(1.16504 -0.00200952 8.52801e-15)
(1.16453 -0.00194052 8.53653e-15)
(1.16404 -0.00187415 8.26854e-15)
(1.16357 -0.00181029 8.29082e-15)
(1.16312 -0.00174881 8.12098e-15)
(1.16268 -0.00168963 7.73218e-15)
(1.16225 -0.00163263 7.3468e-15)
(1.16184 -0.00157772 7.40755e-15)
(1.16144 -0.00152482 7.32616e-15)
(1.16106 -0.00147383 6.99795e-15)
(1.16069 -0.00142468 6.82356e-15)
(1.16033 -0.00137729 6.50827e-15)
(1.15998 -0.0013316 6.45131e-15)
(1.15964 -0.00128752 6.27883e-15)
(1.15932 -0.001245 6.04324e-15)
(1.15901 -0.00120398 5.96795e-15)
(1.1587 -0.00116439 5.92078e-15)
(1.15841 -0.00112618 5.70616e-15)
(1.15813 -0.00108929 5.81919e-15)
(1.15785 -0.00105368 5.81338e-15)
(1.15758 -0.00101929 5.54358e-15)
(1.15733 -0.000986083 5.50153e-15)
(1.15708 -0.000954009 5.525e-15)
(1.15684 -0.000923028 5.35086e-15)
(1.15661 -0.000893097 5.55615e-15)
(1.15638 -0.00086418 5.37587e-15)
(1.15616 -0.000836237 5.12941e-15)
(1.15595 -0.000809234 4.76794e-15)
(1.15575 -0.000783137 5.03653e-15)
(0.910164 -0.00252551 6.74834e-15)
(0.908818 -0.0024256 7.23668e-15)
(0.907523 -0.00233063 7.25417e-15)
(0.90628 -0.00224027 7.3118e-15)
(0.905083 -0.00215422 7.53604e-15)
(0.903933 -0.00207221 7.46546e-15)
(0.902826 -0.001994 7.56773e-15)
(0.90176 -0.00191935 7.45211e-15)
(0.900734 -0.00184806 7.47404e-15)
(0.899745 -0.00177992 7.2597e-15)
(0.898793 -0.00171476 7.34076e-15)
(0.897876 -0.00165241 7.28532e-15)
(0.896992 -0.00159272 7.31563e-15)
(0.89614 -0.00153554 7.16856e-15)
(0.895318 -0.00148074 7.03601e-15)
(0.894525 -0.00142819 6.79468e-15)
(0.893761 -0.00137778 6.74621e-15)
(0.893023 -0.0013294 6.40637e-15)
(0.892311 -0.00128295 6.22065e-15)
(0.891624 -0.00123834 6.37693e-15)
(0.890961 -0.00119547 6.32629e-15)
(0.890321 -0.00115426 6.11426e-15)
(0.889703 -0.00111463 6.11544e-15)
(0.889106 -0.00107652 6.07126e-15)
(0.888529 -0.00103984 5.70596e-15)
(0.887973 -0.00100455 5.68514e-15)
(0.887435 -0.000970564 5.60246e-15)
(0.886915 -0.00093784 5.42147e-15)
(0.886413 -0.000906318 5.27877e-15)
(0.885927 -0.000875947 4.95859e-15)
(0.885458 -0.000846678 4.96721e-15)
(0.885005 -0.000818465 4.823e-15)
(0.884566 -0.000791263 4.53555e-15)
(0.884143 -0.000765032 4.71512e-15)
(0.883733 -0.000739731 4.45047e-15)
(0.883337 -0.000715324 4.46785e-15)
(0.882954 -0.000691774 4.48489e-15)
(0.882584 -0.000669047 4.36551e-15)
(0.882225 -0.000647112 4.37448e-15)
(0.881879 -0.000625937 4.39108e-15)
(0.881544 -0.000605493 4.11495e-15)
(0.88122 -0.000585752 3.91405e-15)
(0.880906 -0.000566687 4.00553e-15)
(0.880603 -0.000548272 3.9685e-15)
(0.880309 -0.000530485 3.90817e-15)
(0.880025 -0.0005133 3.96539e-15)
(0.879751 -0.000496696 3.70612e-15)
(0.879485 -0.000480651 3.74563e-15)
(0.879228 -0.000465146 3.78135e-15)
(0.878979 -0.000450159 3.65782e-15)
(0.585276 -0.000975781 3.49309e-15)
(0.584167 -0.000937384 3.72984e-15)
(0.583102 -0.000900872 4.15862e-15)
(0.582078 -0.000866122 4.19184e-15)
(0.581094 -0.000833023 4.42104e-15)
(0.580147 -0.00080147 4.2201e-15)
(0.579237 -0.000771369 4.1294e-15)
(0.57836 -0.000742632 4.36812e-15)
(0.577517 -0.00071518 4.49592e-15)
(0.576704 -0.000688937 4.19323e-15)
(0.575922 -0.000663834 4.32075e-15)
(0.575168 -0.000639809 4.20026e-15)
(0.574441 -0.000616801 4.19061e-15)
(0.57374 -0.000594757 4.1866e-15)
(0.573065 -0.000573624 4.22159e-15)
(0.572414 -0.000553357 4.09536e-15)
(0.571786 -0.000533909 4.26738e-15)
(0.57118 -0.00051524 3.82827e-15)
(0.570595 -0.000497312 3.85928e-15)
(0.57003 -0.000480088 3.82415e-15)
(0.569485 -0.000463533 3.55076e-15)
(0.568959 -0.000447618 3.67809e-15)
(0.568452 -0.00043231 3.34755e-15)
(0.567961 -0.000417584 3.52822e-15)
(0.567487 -0.000403411 3.39487e-15)
(0.56703 -0.000389767 3.26889e-15)
(0.566588 -0.000376629 2.87958e-15)
(0.566161 -0.000363975 2.90335e-15)
(0.565748 -0.000351783 2.93168e-15)
(0.565349 -0.000340035 2.80639e-15)
(0.564963 -0.00032871 2.54642e-15)
(0.564591 -0.000317792 2.60596e-15)
(0.564231 -0.000307264 2.52246e-15)
(0.563882 -0.000297109 2.60126e-15)
(0.563545 -0.000287313 2.49289e-15)
(0.56322 -0.000277861 2.74064e-15)
(0.562905 -0.000268739 2.8252e-15)
(0.5626 -0.000259935 2.76485e-15)
(0.562306 -0.000251436 2.71794e-15)
(0.562021 -0.00024323 2.70897e-15)
(0.561746 -0.000235307 2.4849e-15)
(0.561479 -0.000227654 2.22507e-15)
(0.561221 -0.000220263 2.50193e-15)
(0.560972 -0.000213123 2.29004e-15)
(0.56073 -0.000206225 2.3459e-15)
(0.560497 -0.00019956 2.3522e-15)
(0.560271 -0.000193119 2.06967e-15)
(0.560052 -0.000186895 2.01426e-15)
(0.55984 -0.000180878 1.92527e-15)
(0.559636 -0.000175063 1.92686e-15)
(0.209045 -7.54756e-05 1.25077e-15)
(0.208577 -7.26075e-05 1.41392e-15)
(0.208128 -6.98729e-05 1.63525e-15)
(0.207696 -6.72637e-05 1.64831e-15)
(0.20728 -6.47722e-05 1.60756e-15)
(0.206881 -6.23917e-05 1.66456e-15)
(0.206496 -6.01156e-05 1.45843e-15)
(0.206126 -5.79381e-05 1.54593e-15)
(0.205769 -5.58537e-05 1.62558e-15)
(0.205426 -5.38572e-05 1.6238e-15)
(0.205095 -5.19439e-05 1.65711e-15)
(0.204776 -5.01094e-05 1.69066e-15)
(0.204469 -4.83497e-05 1.64826e-15)
(0.204173 -4.66608e-05 1.58186e-15)
(0.203887 -4.50392e-05 1.54358e-15)
(0.203611 -4.34815e-05 1.45471e-15)
(0.203345 -4.19847e-05 1.5711e-15)
(0.203089 -4.05458e-05 1.47281e-15)
(0.202841 -3.91621e-05 1.13324e-15)
(0.202602 -3.7831e-05 1.11268e-15)
(0.202371 -3.655e-05 1.07057e-15)
(0.202148 -3.53169e-05 1.14214e-15)
(0.201933 -3.41296e-05 9.40982e-16)
(0.201725 -3.29859e-05 9.55158e-16)
(0.201524 -3.18841e-05 9.71716e-16)
(0.20133 -3.08223e-05 8.75592e-16)
(0.201143 -2.97988e-05 8.83875e-16)
(0.200961 -2.88119e-05 8.04486e-16)
(0.200786 -2.78603e-05 9.42762e-16)
(0.200617 -2.69423e-05 8.11544e-16)
(0.200453 -2.60567e-05 6.99526e-16)
(0.200295 -2.52021e-05 7.23538e-16)
(0.200142 -2.43774e-05 9.32496e-16)
(0.199994 -2.35812e-05 9.92952e-16)
(0.199851 -2.28125e-05 9.99624e-16)
(0.199713 -2.20703e-05 1.11144e-15)
(0.199579 -2.13535e-05 1.0606e-15)
(0.19945 -2.06611e-05 1.0197e-15)
(0.199325 -1.99923e-05 1.14142e-15)
(0.199204 -1.93461e-05 1.16426e-15)
(0.199087 -1.87217e-05 1.14588e-15)
(0.198973 -1.81184e-05 1.02223e-15)
(0.198864 -1.75352e-05 9.54212e-16)
(0.198758 -1.69716e-05 8.47111e-16)
(0.198655 -1.64267e-05 7.13238e-16)
(0.198556 -1.59e-05 7.84852e-16)
(0.19846 -1.53908e-05 5.85597e-16)
(0.198367 -1.48985e-05 7.04462e-16)
(0.198276 -1.44225e-05 6.00968e-16)
(0.198189 -1.39621e-05 5.7572e-16)
)
;

boundaryField
{
    inlet
    {
        type            fixedValue;
        value           nonuniform 0();
    }
    outlet
    {
        type            zeroGradient;
    }
    wall
    {
        type            noSlip;
    }
    back
    {
        type            wedge;
    }
    front
    {
        type            wedge;
    }
    axis
    {
        type            empty;
    }
    procBoundary5to1
    {
        type            processor;
        value           nonuniform List<vector> 
50
(
(1.55981 -0.00712336 1.97261e-14)
(1.56078 -0.00685405 1.87264e-14)
(1.56171 -0.00659682 1.81551e-14)
(1.56259 -0.00635099 1.75384e-14)
(1.56344 -0.00611593 1.70922e-14)
(1.56424 -0.00589103 1.6799e-14)
(1.56502 -0.00567575 1.62835e-14)
(1.56576 -0.00546958 1.5674e-14)
(1.56648 -0.00527204 1.53784e-14)
(1.56716 -0.00508269 1.47191e-14)
(1.56782 -0.0049011 1.4344e-14)
(1.56845 -0.00472689 1.40967e-14)
(1.56906 -0.00455969 1.38249e-14)
(1.56964 -0.00439916 1.32618e-14)
(1.5702 -0.00424498 1.30613e-14)
(1.57074 -0.00409684 1.30496e-14)
(1.57126 -0.00395447 1.24547e-14)
(1.57176 -0.0038176 1.21299e-14)
(1.57224 -0.00368597 1.18264e-14)
(1.5727 -0.00355934 1.10496e-14)
(1.57315 -0.0034375 1.14208e-14)
(1.57358 -0.00332022 1.07684e-14)
(1.57399 -0.00320732 1.07807e-14)
(1.57439 -0.0030986 9.84338e-15)
(1.57478 -0.00299388 1.04004e-14)
(1.57515 -0.002893 9.9245e-15)
(1.57551 -0.00279578 1.00075e-14)
(1.57586 -0.00270209 9.16022e-15)
(1.57619 -0.00261177 9.30039e-15)
(1.57652 -0.00252468 8.99937e-15)
(1.57683 -0.0024407 8.74722e-15)
(1.57713 -0.0023597 8.45008e-15)
(1.57742 -0.00228156 8.17825e-15)
(1.5777 -0.00220617 8.30034e-15)
(1.57797 -0.00213342 8.02886e-15)
(1.57824 -0.0020632 8.10015e-15)
(1.57849 -0.00199543 8.07764e-15)
(1.57873 -0.00193 7.85078e-15)
(1.57897 -0.00186683 7.49885e-15)
(1.5792 -0.00180583 7.34989e-15)
(1.57942 -0.00174691 7.39511e-15)
(1.57964 -0.00169001 7.22733e-15)
(1.57984 -0.00163505 7.11241e-15)
(1.58004 -0.00158195 7.00567e-15)
(1.58024 -0.00153065 6.30561e-15)
(1.58042 -0.00148108 6.73049e-15)
(1.58061 -0.00143318 6.29077e-15)
(1.58078 -0.00138688 6.56999e-15)
(1.58095 -0.00134214 5.75882e-15)
(1.58111 -0.00129889 6.40008e-15)
)
;
    }
    procBoundary5to4
    {
        type            processor;
        value           nonuniform List<vector> 5((1.39732 -0.00632339 1.74589e-14) (1.18224 -0.00457132 1.16403e-14) (0.911566 -0.00263071 6.64872e-15) (0.586432 -0.0010162 3.39572e-15) (0.209532 -7.84859e-05 1.42299e-15));
    }
    procBoundary5to6
    {
        type            processor;
        value           nonuniform List<vector> 5((1.38964 -0.00105737 5.31085e-15) (1.15555 -0.000757911 4.9338e-15) (0.878738 -0.000435673 3.71111e-15) (0.559437 -0.000169441 1.70085e-15) (0.198105 -1.35167e-05 3.55964e-16));
    }
}


// ************************************************************************* //
