/*--------------------------------*- C++ -*----------------------------------*\
| =========                 |                                                 |
| \\      /  F ield         | OpenFOAM: The Open Source CFD Toolbox           |
|  \\    /   O peration     | Version:                                        |
|   \\  /    A nd           | Website:  www.openfoam.com                      |
|    \\/     M anipulation  |                                                 |
\*---------------------------------------------------------------------------*/
FoamFile
{
    version     2.0;
    format      ascii;
    class       surfaceScalarField;
    location    "0.2";
    object      phi;
}
// * * * * * * * * * * * * * * * * * * * * * * * * * * * * * * * * * * * * * //

dimensions      [0 3 -1 0 0 0 0];
oriented        oriented;


internalField   nonuniform List<scalar> 
760
(
2.14557e-06
5.63622e-11
2.14552e-06
4.72989e-11
2.14548e-06
4.08352e-11
2.14545e-06
2.90514e-11
2.14544e-06
1.63376e-11
2.14543e-06
7.64366e-12
2.14543e-06
3.23976e-12
2.14543e-06
9.22415e-13
2.14543e-06
-1.54151e-15
2.14543e-06
-6.14067e-14
2.14543e-06
9.96169e-14
2.14543e-06
2.60499e-13
2.14543e-06
3.75955e-13
2.14542e-06
5.24079e-13
2.14542e-06
9.26355e-13
2.14542e-06
1.31023e-12
2.14542e-06
2.68918e-12
2.14542e-06
3.54583e-12
2.14541e-06
8.27594e-12
1.79235e-11
6.207e-06
1.85065e-10
6.2069e-06
1.49819e-10
6.20681e-06
1.28416e-10
6.20675e-06
9.33573e-11
6.20671e-06
5.53551e-11
6.20669e-06
2.71677e-11
6.20668e-06
1.16179e-11
6.20668e-06
3.78364e-12
6.20668e-06
4.40362e-13
6.20668e-06
-4.64329e-13
6.20668e-06
-2.01238e-13
6.20668e-06
5.50954e-13
6.20668e-06
1.31227e-12
6.20667e-06
2.36558e-12
6.20667e-06
4.35879e-12
6.20667e-06
5.95502e-12
6.20666e-06
1.01913e-11
6.20665e-06
1.41539e-11
6.20662e-06
3.36427e-11
5.24214e-11
1.0011e-05
3.71236e-10
1.00109e-05
2.8666e-10
1.00108e-05
2.43289e-10
1.00107e-05
1.80446e-10
1.00106e-05
1.11358e-10
1.00106e-05
5.81213e-11
1.00106e-05
2.65204e-11
1.00106e-05
9.94275e-12
1.00106e-05
2.39954e-12
1.00106e-05
-3.70677e-14
1.00106e-05
-2.48132e-14
1.00106e-05
1.2663e-12
1.00106e-05
3.36792e-12
1.00105e-05
5.42959e-12
1.00105e-05
8.97708e-12
1.00105e-05
1.24872e-11
1.00105e-05
2.02814e-11
1.00105e-05
2.74507e-11
1.00105e-05
6.00066e-11
8.51923e-11
1.35339e-05
6.29829e-10
1.35337e-05
4.61786e-10
1.35336e-05
3.80299e-10
1.35335e-05
2.83625e-10
1.35334e-05
1.8049e-10
1.35334e-05
9.98095e-11
1.35334e-05
4.90506e-11
1.35333e-05
2.09937e-11
1.35333e-05
7.41936e-12
1.35333e-05
2.31826e-12
1.35333e-05
1.67895e-12
1.35333e-05
2.75209e-12
1.35333e-05
5.66524e-12
1.35333e-05
9.45104e-12
1.35333e-05
1.50248e-11
1.35333e-05
1.9898e-11
1.35333e-05
3.10665e-11
1.35333e-05
4.09607e-11
1.35333e-05
7.99545e-11
1.09699e-10
1.67579e-05
9.88824e-10
1.67577e-05
6.9798e-10
1.67575e-05
5.47346e-10
1.67574e-05
4.02085e-10
1.67573e-05
2.60274e-10
1.67573e-05
1.50818e-10
1.67572e-05
7.97486e-11
1.67572e-05
3.84949e-11
1.67572e-05
1.71191e-11
1.67572e-05
7.32679e-12
1.67572e-05
4.66262e-12
1.67572e-05
5.94274e-12
1.67572e-05
9.68502e-12
1.67572e-05
1.3759e-11
1.67572e-05
2.05688e-11
1.67572e-05
2.7366e-11
1.67571e-05
4.14248e-11
1.67571e-05
5.33193e-11
1.67571e-05
9.31649e-11
1.2536e-10
1.9672e-05
1.47284e-09
1.96717e-05
1.02631e-09
1.96715e-05
7.63599e-10
1.96713e-05
5.4249e-10
1.96712e-05
3.51447e-10
1.96712e-05
2.10644e-10
1.96711e-05
1.18835e-10
1.96711e-05
6.32789e-11
1.96711e-05
3.24928e-11
1.96711e-05
1.71952e-11
1.96711e-05
1.11182e-11
1.96711e-05
1.0286e-11
1.96711e-05
1.35956e-11
1.96711e-05
1.84518e-11
1.9671e-05
2.66605e-11
1.9671e-05
3.45619e-11
1.9671e-05
4.99718e-11
1.9671e-05
6.35872e-11
1.9671e-05
1.00947e-10
1.33418e-10
2.22724e-05
2.08998e-09
2.2272e-05
1.47161e-09
2.22717e-05
1.05133e-09
2.22715e-05
7.17118e-10
2.22714e-05
4.59388e-10
2.22713e-05
2.81743e-10
2.22713e-05
1.67558e-10
2.22712e-05
9.68316e-11
2.22712e-05
5.487e-11
2.22712e-05
3.18487e-11
2.22712e-05
2.0987e-11
2.22712e-05
1.74488e-11
2.22712e-05
1.92416e-11
2.22712e-05
2.34479e-11
2.22712e-05
3.21771e-11
2.22712e-05
4.09024e-11
2.22712e-05
5.65791e-11
2.22712e-05
7.14406e-11
2.22712e-05
1.04682e-10
1.35721e-10
2.45625e-05
2.82553e-09
2.4562e-05
2.0381e-09
2.45616e-05
1.42566e-09
2.45614e-05
9.40436e-10
2.45612e-05
5.92964e-10
2.45612e-05
3.68262e-10
2.45611e-05
2.27506e-10
2.45611e-05
1.3963e-10
2.4561e-05
8.52586e-11
2.4561e-05
5.31099e-11
2.4561e-05
3.55884e-11
2.4561e-05
2.77034e-11
2.4561e-05
2.6879e-11
2.4561e-05
2.91467e-11
2.4561e-05
3.70802e-11
2.4561e-05
4.61871e-11
2.45609e-05
6.13518e-11
2.45609e-05
7.66874e-11
2.45609e-05
1.05381e-10
1.33911e-10
2.65524e-05
3.64316e-09
2.65517e-05
2.70383e-09
2.65513e-05
1.8829e-09
2.6551e-05
1.21844e-09
2.65508e-05
7.59374e-10
2.65507e-05
4.74679e-10
2.65506e-05
3.01161e-10
2.65506e-05
1.93094e-10
2.65505e-05
1.24298e-10
2.65505e-05
8.14277e-11
2.65505e-05
5.55761e-11
2.65505e-05
4.12446e-11
2.65505e-05
3.63641e-11
2.65505e-05
3.60634e-11
2.65504e-05
4.2124e-11
2.65504e-05
5.04852e-11
2.65504e-05
6.42796e-11
2.65504e-05
7.92119e-11
2.65504e-05
1.03653e-10
1.29077e-10
2.82576e-05
4.48818e-09
2.82569e-05
3.41981e-09
2.82564e-05
2.39518e-09
2.82561e-05
1.54183e-09
2.82559e-05
9.5884e-10
2.82557e-05
6.03199e-10
2.82557e-05
3.89675e-10
2.82556e-05
2.5743e-10
2.82555e-05
1.7163e-10
2.82555e-05
1.15866e-10
2.82555e-05
8.03257e-11
2.82555e-05
5.82914e-11
2.82555e-05
4.78415e-11
2.82554e-05
4.4175e-11
2.82554e-05
4.75096e-11
2.82554e-05
5.38876e-11
2.82554e-05
6.54755e-11
2.82554e-05
7.91295e-11
2.82554e-05
9.97726e-11
1.21716e-10
2.96985e-05
5.29229e-09
2.96978e-05
4.11539e-09
2.96973e-05
2.91129e-09
2.96969e-05
1.88343e-09
2.96967e-05
1.17989e-09
2.96966e-05
7.49736e-10
2.96965e-05
4.90822e-10
2.96964e-05
3.30325e-10
2.96963e-05
2.25253e-10
2.96963e-05
1.54762e-10
2.96963e-05
1.08354e-10
2.96963e-05
7.8096e-11
2.96962e-05
6.09793e-11
2.96962e-05
5.29394e-11
2.96962e-05
5.27867e-11
2.96962e-05
5.64438e-11
2.96962e-05
6.52189e-11
2.96962e-05
7.67539e-11
2.96962e-05
9.37403e-11
1.11885e-10
3.08983e-05
5.97812e-09
3.08977e-05
4.70738e-09
3.08973e-05
3.36243e-09
3.0897e-05
2.20012e-09
3.08967e-05
1.39888e-09
3.08966e-05
9.01837e-10
3.08965e-05
5.97684e-10
3.08964e-05
4.06844e-10
3.08964e-05
2.81305e-10
3.08963e-05
1.95358e-10
3.08963e-05
1.37343e-10
3.08963e-05
9.8732e-11
3.08963e-05
7.46198e-11
3.08962e-05
6.16187e-11
3.08962e-05
5.73712e-11
3.08962e-05
5.81377e-11
3.08962e-05
6.37189e-11
3.08962e-05
7.2422e-11
3.08963e-05
8.53695e-11
9.93789e-11
3.18822e-05
6.46519e-09
3.18818e-05
5.11051e-09
3.18815e-05
3.67287e-09
3.18813e-05
2.43877e-09
3.18811e-05
1.58322e-09
3.1881e-05
1.03996e-09
3.18809e-05
6.98525e-10
3.18808e-05
4.79393e-10
3.18807e-05
3.33947e-10
3.18807e-05
2.33381e-10
3.18807e-05
1.6405e-10
3.18806e-05
1.17488e-10
3.18806e-05
8.69289e-11
3.18806e-05
6.92464e-11
3.18806e-05
6.06714e-11
3.18806e-05
5.87868e-11
3.18806e-05
6.0947e-11
3.18806e-05
6.64577e-11
3.18806e-05
7.43954e-11
8.38224e-11
3.26757e-05
6.67919e-09
3.26756e-05
5.24708e-09
3.26755e-05
3.77301e-09
3.26753e-05
2.54663e-09
3.26752e-05
1.69706e-09
3.26751e-05
1.14087e-09
3.2675e-05
7.78144e-10
3.2675e-05
5.38102e-10
3.26749e-05
3.75928e-10
3.26749e-05
2.63208e-10
3.26749e-05
1.8444e-10
3.26749e-05
1.31372e-10
3.26749e-05
9.57955e-11
3.26749e-05
7.45381e-11
3.26749e-05
6.19703e-11
3.26749e-05
5.80287e-11
3.26749e-05
5.66731e-11
3.26749e-05
5.92569e-11
3.26749e-05
6.07006e-11
6.48457e-11
3.33034e-05
6.56121e-09
3.33036e-05
5.05853e-09
3.33037e-05
3.61318e-09
3.33038e-05
2.48471e-09
3.33038e-05
1.70946e-09
3.33038e-05
1.18175e-09
3.33037e-05
8.20225e-10
3.33037e-05
5.71489e-10
3.33037e-05
3.99505e-10
3.33036e-05
2.7919e-10
3.33036e-05
1.94595e-10
3.33036e-05
1.37695e-10
3.33036e-05
9.92758e-11
3.33036e-05
7.60792e-11
3.33036e-05
6.04489e-11
3.33036e-05
5.53765e-11
3.33036e-05
5.0598e-11
3.33036e-05
5.13818e-11
3.33037e-05
4.46591e-11
4.25665e-11
3.37882e-05
6.07299e-09
3.37887e-05
4.52533e-09
3.37892e-05
3.18291e-09
3.37894e-05
2.23934e-09
3.37895e-05
1.60083e-09
3.37896e-05
1.14263e-09
3.37896e-05
8.08713e-10
3.37896e-05
5.67895e-10
3.37896e-05
3.96902e-10
3.37896e-05
2.76166e-10
3.37896e-05
1.91069e-10
3.37896e-05
1.34224e-10
3.37896e-05
9.58119e-11
3.37896e-05
7.25943e-11
3.37896e-05
5.5432e-11
3.37896e-05
5.0506e-11
3.37896e-05
4.2716e-11
3.37896e-05
4.35279e-11
3.37896e-05
2.74316e-11
1.8291e-11
3.41503e-05
5.19971e-09
3.41511e-05
3.68206e-09
3.41518e-05
2.52999e-09
3.41522e-05
1.83269e-09
3.41524e-05
1.36788e-09
3.41526e-05
1.00903e-09
3.41527e-05
7.28359e-10
3.41527e-05
5.15373e-10
3.41527e-05
3.60109e-10
3.41528e-05
2.49416e-10
3.41528e-05
1.71158e-10
3.41528e-05
1.19308e-10
3.41528e-05
8.44211e-11
3.41528e-05
6.34303e-11
3.41528e-05
4.67951e-11
3.41528e-05
4.32939e-11
3.41528e-05
3.36183e-11
3.41529e-05
3.63793e-11
3.41529e-05
1.13044e-11
-4.39831e-12
3.44066e-05
3.93445e-09
3.44076e-05
2.62728e-09
3.44084e-05
1.77596e-09
3.44089e-05
1.32896e-09
3.44092e-05
1.02938e-09
3.44095e-05
7.77571e-10
3.44096e-05
5.69698e-10
3.44097e-05
4.05325e-10
3.44098e-05
2.8308e-10
3.44099e-05
1.95769e-10
3.44099e-05
1.33725e-10
3.44099e-05
9.24339e-11
3.44099e-05
6.48618e-11
3.441e-05
4.86526e-11
3.441e-05
3.51645e-11
3.441e-05
3.38035e-11
3.441e-05
2.46818e-11
3.441e-05
2.98861e-11
3.441e-05
-1.31483e-12
-1.96998e-11
3.45702e-05
2.17586e-09
3.45713e-05
1.48902e-09
3.45721e-05
1.01927e-09
3.45726e-05
8.10024e-10
3.4573e-05
6.22423e-10
3.45733e-05
4.65518e-10
3.45735e-05
3.39098e-10
3.45737e-05
2.40938e-10
3.45738e-05
1.67861e-10
3.45739e-05
1.15895e-10
3.4574e-05
7.98673e-11
3.4574e-05
5.54746e-11
3.4574e-05
3.86534e-11
3.4574e-05
2.9316e-11
3.45741e-05
2.16449e-11
3.45741e-05
2.21602e-11
3.45741e-05
1.72e-11
3.45741e-05
2.60557e-11
3.45741e-05
1.49043e-11
-1.99257e-13
3.46498e-05
3.46511e-05
3.46518e-05
3.46523e-05
3.46527e-05
3.46531e-05
3.46534e-05
3.46535e-05
3.46537e-05
3.46538e-05
3.46538e-05
3.46539e-05
3.46539e-05
3.46539e-05
3.4654e-05
3.4654e-05
3.4654e-05
3.4654e-05
3.4654e-05
)
;

boundaryField
{
    fixedWalls
    {
        type            calculated;
        value           uniform 0;
    }
    inlet
    {
        type            calculated;
        value           nonuniform 0();
    }
    outlet
    {
        type            calculated;
        value           nonuniform List<scalar> 
20
(
2.14539e-06
6.20659e-06
1.00105e-05
1.35332e-05
1.67571e-05
1.9671e-05
2.22712e-05
2.45609e-05
2.65504e-05
2.82554e-05
2.96962e-05
3.08963e-05
3.18807e-05
3.26749e-05
3.33037e-05
3.37897e-05
3.41529e-05
3.441e-05
3.4574e-05
3.46539e-05
)
;
    }
    frontAndBack
    {
        type            empty;
        value           nonuniform 0();
    }
    procBoundary3to2
    {
        type            processor;
        value           nonuniform List<scalar> 
20
(
-2.14563e-06
-6.20713e-06
-1.00112e-05
-1.35342e-05
-1.67583e-05
-1.96725e-05
-2.2273e-05
-2.45633e-05
-2.65532e-05
-2.82585e-05
-2.96993e-05
-3.0899e-05
-3.18827e-05
-3.26759e-05
-3.33033e-05
-3.37877e-05
-3.41494e-05
-3.44053e-05
-3.45684e-05
-3.46478e-05
)
;
    }
    procBoundary3to7
    {
        type            processor;
        value           nonuniform List<scalar> 
20
(
1.06324e-10
2.39186e-10
3.31635e-10
2.84691e-10
1.87199e-10
1.13803e-10
6.98402e-11
4.49074e-11
2.94688e-11
2.11695e-11
1.51735e-11
1.07265e-11
8.31092e-12
7.17109e-12
6.57698e-12
8.04777e-12
9.87439e-12
1.41234e-11
3.29073e-11
3.43013e-11
)
;
    }
}


// ************************************************************************* //
