/*--------------------------------*- C++ -*----------------------------------*\
| =========                 |                                                 |
| \\      /  F ield         | OpenFOAM: The Open Source CFD Toolbox           |
|  \\    /   O peration     | Version:                                        |
|   \\  /    A nd           | Website:  www.openfoam.com                      |
|    \\/     M anipulation  |                                                 |
\*---------------------------------------------------------------------------*/
FoamFile
{
    version     2.0;
    format      ascii;
    class       volVectorField;
    location    "0.2";
    object      U;
}
// * * * * * * * * * * * * * * * * * * * * * * * * * * * * * * * * * * * * * //

dimensions      [0 1 -1 0 0 0 0];


internalField   nonuniform List<vector> 
400
(
(0.0858239 4.86166e-07 0)
(0.0858218 4.25779e-07 0)
(0.0858201 3.59442e-07 0)
(0.0858187 2.41222e-07 0)
(0.0858178 1.24059e-07 0)
(0.0858173 5.24378e-08 0)
(0.0858171 2.46684e-08 0)
(0.0858171 6.42605e-09 0)
(0.085817 -1.65989e-09 0)
(0.085817 -1.68762e-09 0)
(0.085817 4.1341e-09 0)
(0.085817 6.51404e-09 0)
(0.085817 3.99655e-09 0)
(0.085817 3.28478e-09 0)
(0.085817 9.87493e-09 0)
(0.0858169 1.44866e-08 0)
(0.0858169 2.53209e-08 0)
(0.0858168 3.82614e-08 0)
(0.0858165 9.5174e-08 0)
(0.0858159 1.81368e-07 0)
(0.248282 2.13729e-06 0)
(0.248278 1.79364e-06 0)
(0.248274 1.54322e-06 0)
(0.248271 1.09727e-06 0)
(0.248269 6.25027e-07 0)
(0.248268 2.9056e-07 0)
(0.248267 1.16718e-07 0)
(0.248267 3.04118e-08 0)
(0.248267 -4.89331e-09 0)
(0.248267 -1.17885e-08 0)
(0.248267 -8.64301e-09 0)
(0.248267 -1.60002e-09 0)
(0.248267 7.99021e-09 0)
(0.248267 2.14442e-08 0)
(0.248267 4.00198e-08 0)
(0.248267 5.40232e-08 0)
(0.248267 1.07989e-07 0)
(0.248266 1.55169e-07 0)
(0.248266 3.8472e-07 0)
(0.248264 6.77937e-07 0)
(0.400443 5.20511e-06 0)
(0.400437 4.16696e-06 0)
(0.400432 3.58387e-06 0)
(0.400428 2.6292e-06 0)
(0.400425 1.58122e-06 0)
(0.400424 7.90321e-07 0)
(0.400423 3.41482e-07 0)
(0.400422 1.14064e-07 0)
(0.400422 1.54821e-08 0)
(0.400422 -1.29636e-08 0)
(0.400422 -2.84452e-09 0)
(0.400422 2.13714e-08 0)
(0.400422 4.32137e-08 0)
(0.400422 7.01055e-08 0)
(0.400422 1.30238e-07 0)
(0.400422 1.84406e-07 0)
(0.400421 3.01541e-07 0)
(0.400421 4.14447e-07 0)
(0.40042 9.50127e-07 0)
(0.400418 1.39503e-06 0)
(0.54136 9.53556e-06 0)
(0.541352 7.21104e-06 0)
(0.541346 6.09565e-06 0)
(0.541341 4.55334e-06 0)
(0.541338 2.84984e-06 0)
(0.541336 1.52456e-06 0)
(0.541335 7.1449e-07 0)
(0.541334 2.79156e-07 0)
(0.541334 7.97929e-08 0)
(0.541334 1.4087e-08 0)
(0.541334 8.07229e-09 0)
(0.541333 3.61717e-08 0)
(0.541333 9.15091e-08 0)
(0.541333 1.48567e-07 0)
(0.541333 2.38494e-07 0)
(0.541333 3.24321e-07 0)
(0.541332 5.1609e-07 0)
(0.541332 6.89118e-07 0)
(0.541331 1.4259e-06 0)
(0.54133 1.98649e-06 0)
(0.670322 1.55789e-05 0)
(0.67031 1.11764e-05 0)
(0.670303 9.05363e-06 0)
(0.670297 6.75524e-06 0)
(0.670293 4.34936e-06 0)
(0.670291 2.45658e-06 0)
(0.670289 1.24248e-06 0)
(0.670288 5.5918e-07 0)
(0.670288 2.19978e-07 0)
(0.670288 8.18175e-08 0)
(0.670287 5.3095e-08 0)
(0.670287 7.90396e-08 0)
(0.670287 1.55067e-07 0)
(0.670287 2.3894e-07 0)
(0.670287 3.55417e-07 0)
(0.670287 4.71137e-07 0)
(0.670286 7.35691e-07 0)
(0.670286 9.54981e-07 0)
(0.670285 1.75808e-06 0)
(0.670285 2.39048e-06 0)
(0.786888 2.39251e-05 0)
(0.786872 1.66771e-05 0)
(0.786862 1.27654e-05 0)
(0.786855 9.28215e-06 0)
(0.78685 6.03854e-06 0)
(0.786847 3.55963e-06 0)
(0.786846 1.93758e-06 0)
(0.786844 9.7917e-07 0)
(0.786844 4.65709e-07 0)
(0.786843 2.2144e-07 0)
(0.786843 1.46513e-07 0)
(0.786843 1.55948e-07 0)
(0.786842 2.23958e-07 0)
(0.786842 3.20158e-07 0)
(0.786842 4.79731e-07 0)
(0.786842 6.26408e-07 0)
(0.786841 9.22516e-07 0)
(0.786841 1.18003e-06 0)
(0.78684 1.96332e-06 0)
(0.786841 2.62061e-06 0)
(0.890907 3.49563e-05 0)
(0.890886 2.43462e-05 0)
(0.890872 1.76999e-05 0)
(0.890863 1.23468e-05 0)
(0.890858 7.98427e-06 0)
(0.890854 4.85492e-06 0)
(0.890852 2.81309e-06 0)
(0.89085 1.55704e-06 0)
(0.890849 8.3864e-07 0)
(0.890849 4.60173e-07 0)
(0.890848 2.97428e-07 0)
(0.890848 2.65794e-07 0)
(0.890848 3.24394e-07 0)
(0.890847 4.19342e-07 0)
(0.890847 5.92939e-07 0)
(0.890847 7.59324e-07 0)
(0.890847 1.07283e-06 0)
(0.890847 1.36201e-06 0)
(0.890846 2.07354e-06 0)
(0.890846 2.71551e-06 0)
(0.982515 4.86169e-05 0)
(0.982488 3.4511e-05 0)
(0.98247 2.42927e-05 0)
(0.982459 1.62739e-05 0)
(0.982452 1.03558e-05 0)
(0.982448 6.405e-06 0)
(0.982445 3.88726e-06 0)
(0.982443 2.31158e-06 0)
(0.982441 1.35758e-06 0)
(0.98244 8.17524e-07 0)
(0.98244 5.42405e-07 0)
(0.982439 4.38949e-07 0)
(0.982439 4.55665e-07 0)
(0.982439 5.20787e-07 0)
(0.982438 6.91651e-07 0)
(0.982438 8.76074e-07 0)
(0.982438 1.18833e-06 0)
(0.982438 1.49363e-06 0)
(0.982437 2.11289e-06 0)
(0.982438 2.71282e-06 0)
(1.06211 6.4383e-05 0)
(1.06208 4.70236e-05 0)
(1.06206 3.27e-05 0)
(1.06204 2.13013e-05 0)
(1.06203 1.33356e-05 0)
(1.06203 8.31146e-06 0)
(1.06203 5.21033e-06 0)
(1.06202 3.27186e-06 0)
(1.06202 2.05196e-06 0)
(1.06202 1.31452e-06 0)
(1.06202 8.88239e-07 0)
(1.06202 6.71942e-07 0)
(1.06202 6.22722e-07 0)
(1.06202 6.45398e-07 0)
(1.06202 7.90494e-07 0)
(1.06202 9.73488e-07 0)
(1.06202 1.26592e-06 0)
(1.06202 1.57024e-06 0)
(1.06202 2.09922e-06 0)
(1.06202 2.64206e-06 0)
(1.13032 8.13276e-05 0)
(1.13029 6.11562e-05 0)
(1.13026 4.26113e-05 0)
(1.13025 2.7419e-05 0)
(1.13024 1.70291e-05 0)
(1.13023 1.06674e-05 0)
(1.13023 6.83336e-06 0)
(1.13022 4.4543e-06 0)
(1.13022 2.92061e-06 0)
(1.13022 1.94473e-06 0)
(1.13022 1.33767e-06 0)
(1.13022 9.77162e-07 0)
(1.13022 8.3123e-07 0)
(1.13022 7.97822e-07 0)
(1.13022 8.96672e-07 0)
(1.13022 1.04983e-06 0)
(1.13022 1.30587e-06 0)
(1.13022 1.59343e-06 0)
(1.13022 2.0425e-06 0)
(1.13022 2.51929e-06 0)
(1.18795 9.81994e-05 0)
(1.18792 7.56631e-05 0)
(1.1879 5.32202e-05 0)
(1.18788 3.42677e-05 0)
(1.18787 2.13352e-05 0)
(1.18787 1.34648e-05 0)
(1.18786 8.75255e-06 0)
(1.18786 5.84286e-06 0)
(1.18785 3.94389e-06 0)
(1.18785 2.68822e-06 0)
(1.18785 1.87465e-06 0)
(1.18785 1.353e-06 0)
(1.18785 1.08082e-06 0)
(1.18785 9.69445e-07 0)
(1.18785 1.00496e-06 0)
(1.18785 1.10688e-06 0)
(1.18785 1.31388e-06 0)
(1.18785 1.5697e-06 0)
(1.18785 1.94519e-06 0)
(1.18785 2.34808e-06 0)
(1.23595 0.000113523 0)
(1.23592 8.89538e-05 0)
(1.2359 6.32754e-05 0)
(1.23588 4.11227e-05 0)
(1.23587 2.58928e-05 0)
(1.23587 1.65381e-05 0)
(1.23586 1.08809e-05 0)
(1.23586 7.36926e-06 0)
(1.23586 5.06752e-06 0)
(1.23585 3.50267e-06 0)
(1.23585 2.46023e-06 0)
(1.23585 1.7703e-06 0)
(1.23585 1.35599e-06 0)
(1.23585 1.14769e-06 0)
(1.23585 1.10685e-06 0)
(1.23585 1.14936e-06 0)
(1.23585 1.29547e-06 0)
(1.23585 1.50319e-06 0)
(1.23585 1.80395e-06 0)
(1.23585 2.1259e-06 0)
(1.2753 0.000125671 0)
(1.27528 9.93207e-05 0)
(1.27527 7.12706e-05 0)
(1.27526 4.69679e-05 0)
(1.27525 3.01139e-05 0)
(1.27524 1.95546e-05 0)
(1.27524 1.30314e-05 0)
(1.27523 8.90659e-06 0)
(1.27523 6.18941e-06 0)
(1.27523 4.31541e-06 0)
(1.27523 3.03567e-06 0)
(1.27523 2.1792e-06 0)
(1.27523 1.62659e-06 0)
(1.27523 1.31679e-06 0)
(1.27522 1.19023e-06 0)
(1.27522 1.17691e-06 0)
(1.27522 1.25373e-06 0)
(1.27523 1.39676e-06 0)
(1.27522 1.61009e-06 0)
(1.27523 1.847e-06 0)
(1.30703 0.000133022 0)
(1.30703 0.000105083 0)
(1.30702 7.57042e-05 0)
(1.30702 5.06792e-05 0)
(1.30701 3.32748e-05 0)
(1.30701 2.20677e-05 0)
(1.307 1.49225e-05 0)
(1.307 1.028e-05 0)
(1.307 7.1757e-06 0)
(1.307 5.02284e-06 0)
(1.307 3.52545e-06 0)
(1.307 2.51908e-06 0)
(1.307 1.85055e-06 0)
(1.30699 1.45475e-06 0)
(1.30699 1.23965e-06 0)
(1.30699 1.17852e-06 0)
(1.30699 1.18608e-06 0)
(1.307 1.26131e-06 0)
(1.30699 1.35772e-06 0)
(1.307 1.50055e-06 0)
(1.33213 0.000134242 0)
(1.33214 0.000104758 0)
(1.33215 7.52679e-05 0)
(1.33215 5.12826e-05 0)
(1.33215 3.46732e-05 0)
(1.33215 2.36056e-05 0)
(1.33215 1.62305e-05 0)
(1.33215 1.1263e-05 0)
(1.33215 7.87003e-06 0)
(1.33215 5.5075e-06 0)
(1.33215 3.85126e-06 0)
(1.33214 2.73488e-06 0)
(1.33214 1.98288e-06 0)
(1.33214 1.53095e-06 0)
(1.33214 1.24232e-06 0)
(1.33214 1.14461e-06 0)
(1.33214 1.07997e-06 0)
(1.33215 1.10717e-06 0)
(1.33214 1.05874e-06 0)
(1.33215 1.08574e-06 0)
(1.35151 0.000128316 0)
(1.35154 9.75144e-05 0)
(1.35156 6.92743e-05 0)
(1.35157 4.81755e-05 0)
(1.35158 3.37676e-05 0)
(1.35158 2.37146e-05 0)
(1.35158 1.66193e-05 0)
(1.35158 1.16204e-05 0)
(1.35158 8.11921e-06 0)
(1.35158 5.6637e-06 0)
(1.35158 3.93722e-06 0)
(1.35158 2.7766e-06 0)
(1.35158 1.98946e-06 0)
(1.35158 1.51422e-06 0)
(1.35158 1.17713e-06 0)
(1.35158 1.06965e-06 0)
(1.35158 9.3988e-07 0)
(1.35159 9.46398e-07 0)
(1.35158 7.17223e-07 0)
(1.35159 6.10032e-07 0)
(1.36599 0.00011477 0)
(1.36603 8.34962e-05 0)
(1.36606 5.8004e-05 0)
(1.36608 4.13965e-05 0)
(1.36609 3.0285e-05 0)
(1.3661 2.20265e-05 0)
(1.3661 1.57629e-05 0)
(1.36611 1.11163e-05 0)
(1.36611 7.76175e-06 0)
(1.36611 5.38753e-06 0)
(1.36611 3.72034e-06 0)
(1.36611 2.60373e-06 0)
(1.36611 1.83927e-06 0)
(1.36611 1.37909e-06 0)
(1.36611 1.03537e-06 0)
(1.36611 9.51369e-07 0)
(1.36611 7.69766e-07 0)
(1.36611 7.98081e-07 0)
(1.36611 3.71487e-07 0)
(1.36612 1.14571e-07 0)
(1.37624 9.36345e-05 0)
(1.37629 6.40239e-05 0)
(1.37632 4.33762e-05 0)
(1.37635 3.18706e-05 0)
(1.37636 2.43856e-05 0)
(1.37637 1.83292e-05 0)
(1.37638 1.33652e-05 0)
(1.37639 9.49861e-06 0)
(1.37639 6.64727e-06 0)
(1.37639 4.58518e-06 0)
(1.3764 3.13546e-06 0)
(1.3764 2.19272e-06 0)
(1.3764 1.55058e-06 0)
(1.3764 1.15328e-06 0)
(1.3764 8.3064e-07 0)
(1.3764 7.81002e-07 0)
(1.3764 5.81671e-07 0)
(1.3764 6.64424e-07 0)
(1.3764 3.82582e-08 0)
(1.3764 -3.21957e-07 0)
(1.38278 6.31105e-05 0)
(1.38284 4.18649e-05 0)
(1.38287 2.7853e-05 0)
(1.38289 2.139e-05 0)
(1.38291 1.67475e-05 0)
(1.38293 1.27219e-05 0)
(1.38294 9.38018e-06 0)
(1.38295 6.67673e-06 0)
(1.38295 4.67499e-06 0)
(1.38295 3.25032e-06 0)
(1.38296 2.19317e-06 0)
(1.38296 1.49082e-06 0)
(1.38296 1.06053e-06 0)
(1.38296 8.15443e-07 0)
(1.38296 5.80563e-07 0)
(1.38296 5.61331e-07 0)
(1.38296 4.11726e-07 0)
(1.38296 5.77715e-07 0)
(1.38296 1.02521e-07 0)
(1.38296 -3.05441e-07 0)
(1.38596 2.36862e-05 0)
(1.38603 1.76737e-05 0)
(1.38606 1.34883e-05 0)
(1.38608 1.106e-05 0)
(1.3861 8.16753e-06 0)
(1.38612 5.86868e-06 0)
(1.38613 4.16008e-06 0)
(1.38614 2.9366e-06 0)
(1.38615 2.02802e-06 0)
(1.38615 1.41105e-06 0)
(1.38615 9.80835e-07 0)
(1.38615 6.76135e-07 0)
(1.38616 4.82292e-07 0)
(1.38616 3.79307e-07 0)
(1.38616 2.85146e-07 0)
(1.38616 3.00033e-07 0)
(1.38616 2.6527e-07 0)
(1.38616 4.22225e-07 0)
(1.38616 5.10942e-07 0)
(1.38616 3.12692e-07 0)
)
;

boundaryField
{
    fixedWalls
    {
        type            noSlip;
    }
    inlet
    {
        type            fixedValue;
        value           nonuniform 0();
    }
    outlet
    {
        type            zeroGradient;
    }
    frontAndBack
    {
        type            empty;
    }
    procBoundary3to2
    {
        type            processor;
        value           nonuniform List<vector> 
20
(
(0.0858264 6.41277e-07 0)
(0.248288 3.0997e-06 0)
(0.400452 7.86565e-06 0)
(0.541373 1.47723e-05 0)
(0.67034 2.40305e-05 0)
(0.786912 3.59154e-05 0)
(0.890936 5.04794e-05 0)
(0.982548 6.75058e-05 0)
(1.06215 8.65102e-05 0)
(1.13036 0.00010668 0)
(1.18799 0.0001268 0)
(1.23598 0.000145206 0)
(1.27532 0.000159906 0)
(1.30704 0.000168837 0)
(1.33213 0.000170158 0)
(1.3515 0.000162578 0)
(1.36596 0.000145129 0)
(1.37618 0.000116926 0)
(1.38269 7.63242e-05 0)
(1.38586 2.74665e-05 0)
)
;
    }
    procBoundary3to7
    {
        type            processor;
        value           nonuniform List<vector> 
20
(
(1.38597 -1.99671e-05 0)
(1.38604 -8.3187e-06 0)
(1.38607 -2.46676e-07 0)
(1.38609 2.92615e-07 0)
(1.38611 -6.57623e-07 0)
(1.38613 -1.28507e-06 0)
(1.38614 -1.36403e-06 0)
(1.38615 -1.11833e-06 0)
(1.38616 -8.41322e-07 0)
(1.38616 -5.89245e-07 0)
(1.38616 -3.6006e-07 0)
(1.38617 -2.09787e-07 0)
(1.38617 -1.37371e-07 0)
(1.38617 -9.94618e-08 0)
(1.38617 -2.76172e-08 0)
(1.38617 2.40073e-08 0)
(1.38617 1.32649e-07 0)
(1.38617 1.19126e-07 0)
(1.38617 7.32846e-07 0)
(1.38617 1.03797e-06 0)
)
;
    }
}


// ************************************************************************* //
