/*--------------------------------*- C++ -*----------------------------------*\
| =========                 |                                                 |
| \\      /  F ield         | OpenFOAM: The Open Source CFD Toolbox           |
|  \\    /   O peration     | Version:                                        |
|   \\  /    A nd           | Website:  www.openfoam.com                      |
|    \\/     M anipulation  |                                                 |
\*---------------------------------------------------------------------------*/
FoamFile
{
    version     2.0;
    format      ascii;
    class       volScalarField;
    location    "108.6";
    object      p;
}
// * * * * * * * * * * * * * * * * * * * * * * * * * * * * * * * * * * * * * //

dimensions      [0 2 -2 0 0 0 0];


internalField   nonuniform List<scalar> 
1161
(
-0.562961
-0.428387
-0.308079
-0.210666
-0.137915
-0.0819898
-0.0404545
-0.00778599
0.0125268
0.0272309
-0.316802
-0.242479
-0.181546
-0.131328
-0.0909927
-0.0585171
-0.0342714
-0.0128282
-0.207552
-0.163177
-0.12543
-0.0950896
-0.069535
-0.0467479
-0.120483
-0.0940835
-0.0712559
-0.949772
-1.01744
-1.08519
-1.15049
-1.21008
-1.2643
-1.30562
-1.33118
-1.34704
-1.33832
-1.26775
-1.13253
-0.969037
-0.814701
-0.69138
-0.603904
-0.55004
-0.977262
-1.05313
-1.12328
-1.18639
-1.24143
-1.28264
-1.30822
-1.31866
-1.28976
-1.19798
-1.0566
-0.894901
-0.747948
-0.628913
-0.547766
-0.50315
-0.912706
-0.988843
-1.05819
-1.11952
-1.16731
-1.19747
-1.20948
-1.19691
-1.14531
-1.02028
-0.879266
-0.72276
-0.59355
-0.493736
-0.431146
-0.397271
-0.845658
-0.916867
-0.977716
-1.02383
-1.04802
-1.05065
-1.02922
-0.974077
-0.877491
-0.754692
-0.615223
-0.481718
-0.378236
-0.302406
-0.257287
-0.230791
-0.812053
-0.876832
-0.922244
-0.939303
-0.926018
-0.885461
-0.814985
-0.714942
-0.588424
-0.443872
-0.31315
-0.213164
-0.147643
-0.0935136
-0.0664529
-0.0562894
-0.899339
-0.931182
-0.920218
-0.866283
-0.773123
-0.647514
-0.507664
-0.36568
-0.226035
-0.102154
-0.0203596
0.0211137
0.0758971
0.077909
0.0745488
-0.993297
-0.966203
-0.883323
-0.749561
-0.5776
-0.397852
-0.240727
-0.107639
0.0110312
0.109383
0.130513
0.159242
0.169328
0.159107
-1.02716
-0.940426
-0.793576
-0.601294
-0.395873
-0.220713
-0.0821977
0.0456091
0.155473
0.185418
0.175033
0.190613
0.181069
-0.960174
-0.828627
-0.64711
-0.447518
-0.271032
-0.126648
-0.011663
0.0662981
0.117163
0.124875
0.135341
0.136088
-0.779985
-0.621369
-0.450689
-0.301824
-0.180584
-0.0892885
-0.0232228
0.0189857
0.0447484
0.0632403
0.0734288
-0.512409
-0.51016
-0.556857
-0.663365
-0.832986
-1.0072
-1.09891
-1.04137
-0.870152
-0.667063
-0.497927
-0.390443
-0.3336
-0.313253
-0.328997
-0.38988
-0.503552
-0.636708
-0.707337
-0.656809
-0.477441
-0.490722
-0.555263
-0.679174
-0.860545
-1.03927
-1.14255
-1.10332
-0.932316
-0.712667
-0.524076
-0.397418
-0.321991
-0.287032
-0.285659
-0.320399
-0.397424
-0.494252
-0.551602
-0.519515
-0.375463
-0.400617
-0.475969
-0.598799
-0.770043
-0.943089
-1.06062
-1.05938
-0.918868
-0.706623
-0.519364
-0.389963
-0.305818
-0.257031
-0.239167
-0.250933
-0.295731
-0.359005
-0.404495
-0.38957
-0.214879
-0.257899
-0.335933
-0.437094
-0.576186
-0.733118
-0.867539
-0.910604
-0.824258
-0.651208
-0.482434
-0.361819
-0.279499
-0.227231
-0.199047
-0.192638
-0.211223
-0.246748
-0.278885
-0.275783
-0.0574104
-0.119424
-0.194284
-0.268828
-0.371026
-0.499306
-0.633136
-0.714848
-0.684049
-0.56019
-0.422178
-0.317667
-0.243409
-0.193358
-0.16218
-0.145954
-0.145878
-0.160644
-0.179721
-0.185191
0.0576506
-0.0155865
-0.0814925
-0.136877
-0.211953
-0.307989
-0.424296
-0.520677
-0.530827
-0.45521
-0.353798
-0.268514
-0.204389
-0.1583
-0.127019
-0.10624
-0.0960191
-0.0982002
-0.107321
-0.116633
0.138988
0.0760066
0.0210816
-0.0276724
-0.0897919
-0.165389
-0.263219
-0.356611
-0.386716
-0.345565
-0.279034
-0.217404
-0.166795
-0.126455
-0.0976322
-0.0756894
-0.0608593
-0.0542575
-0.0570735
-0.0681697
-0.0625381
0.167347
0.139787
0.10666
0.0646571
0.00838092
-0.061105
-0.148565
-0.229459
-0.261646
-0.245583
-0.20827
-0.167767
-0.131881
-0.0997563
-0.0741971
-0.0530061
-0.0360952
-0.0238543
-0.022371
-0.038984
-0.0339548
0.123888
0.128472
0.131465
0.117121
0.0797269
0.0256543
-0.0463336
-0.120344
-0.151442
-0.159609
-0.148322
-0.126864
-0.102336
-0.0776616
-0.056049
-0.0386911
-0.0217776
-0.00809238
-0.000356612
-0.00978984
-0.0122245
0.0764183
0.100395
0.114161
0.110638
0.098177
0.07937
0.0425319
-0.00552018
-0.0433125
-0.0659154
-0.0755777
-0.0748939
-0.0657026
-0.0517572
-0.0359235
-0.0234139
-0.00882701
0.00324161
0.0152027
0.0108159
0.00315961
0.0642529
0.0862991
0.0982098
0.100884
0.0980717
0.0872437
0.0607321
0.0263644
-0.00467206
-0.0261506
-0.0373022
-0.0406806
-0.0346965
-0.0243776
-0.0130783
-0.00375042
0.00815645
0.0178109
0.0266491
0.0263413
0.0175941
0.00175179
0.0370903
0.0629473
0.0788925
0.0837061
0.081628
0.0750464
0.0604515
0.0400308
0.0179194
0.000459944
-0.00940144
-0.0134222
-0.0111087
-0.00512063
0.00294914
0.00937598
0.0206416
0.0302581
0.0361453
0.0357337
0.0262942
0.0048067
0.021154
0.044244
0.0596029
0.0653845
0.0657239
0.0645444
0.0590306
0.0481773
0.0340247
0.0195383
0.00978025
0.00389938
0.00464518
0.0104542
0.017135
0.0203107
0.0289771
0.0384342
0.0434243
0.0442602
0.0343908
0.00496897
0.016265
0.0311914
0.0437213
0.0510966
0.0544446
0.0559892
0.0545491
0.0491317
0.0397945
0.0292907
0.0224293
0.0188263
0.0196974
0.0244074
0.0299422
0.0316931
0.036946
0.0427582
0.0446155
0.044324
0.0383567
0.00844577
0.0119283
0.0217033
0.0321968
0.0399201
0.0444152
0.0471651
0.0486913
0.0479712
0.0441468
0.0380095
0.0325388
0.0285885
0.0273387
0.0293049
0.0335239
0.0352673
0.0402495
0.049034
0.0513065
0.0485568
0.0425737
0.019022
0.00872146
0.0165957
0.0248673
0.0312818
0.0361615
0.0403692
0.0438138
0.0451992
0.0443223
0.0406601
0.0366172
0.0337411
0.0338483
0.0373582
0.0415609
0.0434901
0.0452522
0.0491999
0.050076
0.0465965
0.0424686
0.0288594
0.0105542
0.015106
0.0207052
0.0261656
0.0311322
0.0356312
0.0395885
0.0418187
0.0430839
0.042005
0.0402197
0.0390127
0.0388556
0.0401159
0.0424114
0.0439196
0.0450204
0.0483498
0.0501188
0.0470961
0.0424477
0.0351837
0.0126154
0.0149301
0.0192187
0.0236992
0.0278059
0.0317304
0.0358205
0.0393287
0.0419159
0.0423587
0.0416032
0.0406879
0.0401895
0.0412938
0.0437518
0.0460367
0.0466819
0.0478263
0.048604
0.045663
0.0420438
0.0384914
0.0145757
0.0165828
0.0193183
0.0221234
0.0254378
0.0292468
0.0335182
0.0370858
0.0398902
0.0412343
0.0413902
0.0411456
0.0410908
0.0424321
0.0442029
0.0457862
0.0460528
0.0459761
0.0465997
0.0448031
0.0419695
0.0395826
0.0183423
0.0185196
0.0196963
0.0218034
0.024768
0.0281322
0.0317738
0.0351098
0.0380528
0.0400485
0.0407973
0.0410917
0.0412272
0.0422006
0.0435309
0.0447062
0.0452579
0.044648
0.0449334
0.0438066
0.0415177
0.0397316
0.0201236
0.0197544
0.0209892
0.0229595
0.0251484
0.0276012
0.030589
0.0337331
0.0366654
0.0388518
0.0398789
0.0403883
0.0405847
0.0413787
0.0425832
0.0435808
0.0441175
0.0433507
0.0433232
0.0426623
0.0408948
0.0393611
0.0216522
0.0221528
0.0231841
0.02432
0.0256684
0.027573
0.0300339
0.0328831
0.0355272
0.0376448
0.0387537
0.039384
0.0397
0.0403499
0.0415435
0.0423374
0.0428271
0.0421376
0.0418803
0.0414407
0.0402686
0.038816
0.0248919
0.0247025
0.0248568
0.0254641
0.0265021
0.0280484
0.0300215
0.0323707
0.0346015
0.0365764
0.0377506
0.0384012
0.0387752
0.0393408
0.0404333
0.0411173
0.0415323
0.0409624
0.0406413
0.0403474
0.0395435
0.0383153
0.0267797
0.0262015
0.0263128
0.0269474
0.0277276
0.0287822
0.0301646
0.0320869
0.0340871
0.0358897
0.0369698
0.0375346
0.0379116
0.0383654
0.0393292
0.0399615
0.0403509
0.0399073
0.0395954
0.0392777
0.0389026
0.0379318
0.0280038
0.0278624
0.0280993
0.0285088
0.0288872
0.029526
0.0305638
0.0321573
0.0338802
0.0353837
0.0363233
0.0367999
0.0371385
0.0375167
0.0383758
0.0390105
0.0393492
0.0389754
0.0386889
0.0385554
0.0383483
0.0376405
0.0298549
0.0296735
0.0296745
0.0298109
0.029984
0.0303983
0.0311681
0.032425
0.0338325
0.0350878
0.0359192
0.0363191
0.0365744
0.0368964
0.0376301
0.038228
0.0384933
0.0382031
0.037983
0.0379252
0.037853
0.0374371
0.0313738
0.0310457
0.0309678
0.0310452
0.0311275
0.0313541
0.0318634
0.0327873
0.0339557
0.0350546
0.0357394
0.0359949
0.0361504
0.0364377
0.0370549
0.0376056
0.0378229
0.0376163
0.0374268
0.03745
0.0375247
0.0373129
0.0325196
0.0323023
0.0322769
0.0322989
0.0322409
0.0322572
0.0325521
0.0332801
0.0342375
0.0351084
0.0356275
0.035839
0.0359348
0.0361678
0.0366725
0.0371727
0.0373602
0.0371953
0.0370504
0.0371245
0.0373042
0.0371835
0.0337026
0.0335228
0.033449
0.0333792
0.0332296
0.033131
0.0332776
0.0338219
0.0345976
0.0353331
0.0357449
0.0358583
0.0358636
0.0360343
0.0364667
0.0369032
0.0370616
0.0369065
0.0368092
0.0369085
0.0371376
0.0371034
0.0347274
0.0345517
0.0344548
0.034338
0.0341343
0.0339922
0.034074
0.0344821
0.0350638
0.0356074
0.0358845
0.0359356
0.035917
0.0360504
0.036409
0.0367628
0.0368912
0.0367473
0.036691
0.0367911
0.037038
0.0370627
0.035574
0.0353962
0.0352967
0.0351888
0.0349967
0.0348163
0.0347901
0.0350362
0.0354702
0.035899
0.036119
0.0361289
0.0360814
0.0361544
0.0364323
0.0367088
0.0368168
0.0366965
0.0366494
0.0367475
0.0369732
0.0370447
0.0363307
0.0362064
0.0361135
0.0359666
0.0357252
0.0354867
0.0354031
0.0355846
0.0359398
0.0362735
0.0364175
0.0363717
0.0362834
0.0363108
0.036532
0.036752
0.0368276
0.0367134
0.0366612
0.0367562
0.0369593
0.0370473
0.0370839
0.0369407
0.0368049
0.0366247
0.0363803
0.0361563
0.0360685
0.0361813
0.0364271
0.036651
0.0367256
0.0366501
0.0365544
0.036564
0.0367227
0.03688
0.0369108
0.036804
0.0367463
0.036832
0.036994
0.0370806
0.0376036
0.0374678
0.0373655
0.0372315
0.0370268
0.036806
0.0366744
0.0367046
0.0368594
0.0370083
0.0370422
0.0369553
0.0368549
0.0368406
0.0369415
0.0370395
0.037037
0.036935
0.0368682
0.0369256
0.0370443
0.0371088
0.0380375
0.0379519
0.0378743
0.0377466
0.037546
0.0373273
0.0371851
0.037175
0.0372631
0.0373472
0.0373448
0.0372507
0.0371411
0.0370967
0.0371419
0.0371983
0.0371782
0.0370787
0.0369975
0.0370172
0.037089
0.0371227
0.0384212
0.0383255
0.0382282
0.0380997
0.0379298
0.0377498
0.0376166
0.037568
0.0375895
0.0376143
0.0375817
0.0374845
0.0373756
0.0373162
0.0373237
0.0373396
0.0372937
0.0371924
0.0371046
0.0370919
0.0371179
0.0371162
0.0386685
0.038585
0.038504
0.0384012
0.0382637
0.0381096
0.0379787
0.037901
0.0378703
0.0378461
0.0377891
0.0376935
0.0375903
0.0375175
0.0374835
0.037455
0.0373908
0.0372929
0.0372
0.0371526
0.0371314
0.0370944
0.0388155
0.0387544
0.0386875
0.0385985
0.0384816
0.0383514
0.0382336
0.0381467
0.0380865
0.03803
0.0379538
0.0378559
0.0377534
0.0376697
0.0376092
0.0375545
0.037478
0.0373795
0.037281
0.0372084
0.0371519
0.037085
0.0388387
0.038769
0.0386928
0.0386078
0.0385143
0.0384185
0.0383271
0.0382446
0.0381683
0.0380918
0.0380082
0.0379181
0.0378259
0.0377401
0.0376615
0.0375846
0.0374987
0.037404
0.0373073
0.0372184
0.037134
0.0370445
0.0389219
0.0388609
0.0387907
0.0387109
0.038623
0.0385321
0.0384413
0.038353
0.0382653
0.0381771
0.0380862
0.0379941
0.0379014
0.0378107
0.0377211
0.0376322
0.0375397
0.0374432
0.0373434
0.0372437
0.0371439
0.0370409
-0.0681257
-0.0469114
-0.0216365
0.00733493
0.0386749
-0.0469662
-0.0302
-0.0120682
0.00262895
0.0177747
-0.0365231
-0.0277686
-0.0182766
-0.0103518
0.00254175
-0.0298623
-0.0244475
-0.0165246
-0.00712738
0.00386081
-0.0145101
-0.00588151
0.00226707
0.00706912
-0.00508173
0.000186863
0.00388566
0.00527847
-0.000885557
0.00169476
0.00489363
0.00764078
0.00450876
0.00797446
0.0111799
0.0123232
0.0119749
0.0133507
0.0137101
0.0138548
0.0141359
0.0141754
0.0158517
0.0179426
0.016774
0.0189857
0.0213365
0.0214742
0.022134
0.0232665
0.0229282
0.0219754
0.0241647
0.0238072
0.0239499
0.0246766
0.0257805
0.0264309
0.0273337
0.0275122
0.0286472
0.0290679
0.0290144
0.0285177
0.0302872
0.0301922
0.0300861
0.0300452
0.0316565
0.0317537
0.0318416
0.0317478
0.0332095
0.0332433
0.033128
0.0328626
0.0343702
0.0342907
0.0341372
0.0339433
0.0353649
0.035284
0.0351415
0.0349566
0.036275
0.0361928
0.0360271
0.0358117
0.0370378
0.0369136
0.0367206
0.0365165
0.0376423
0.037545
0.0374003
0.0372452
0.0382187
0.0381345
0.0379758
0.0377859
0.0385707
0.0384659
0.0383142
0.0381615
0.0388082
0.0387394
0.0386395
0.0385284
0.0390214
0.0389595
0.0388697
0.0387663
0.039102
0.0390364
0.0389618
0.0388848
0.0391068
0.0390419
0.0389759
0.0389073
0.0391646
0.0390982
0.0390378
0.0389798
)
;

boundaryField
{
    outlet
    {
        type            fixedValue;
        value           nonuniform 0();
    }
    upperWall
    {
        type            symmetryPlane;
    }
    lowerWall
    {
        type            symmetryPlane;
    }
    inlet
    {
        type            zeroGradient;
    }
    cylinder
    {
        type            zeroGradient;
    }
    frontAndBack
    {
        type            empty;
    }
    procBoundary6to2
    {
        type            processor;
        value           nonuniform List<scalar> 
37
(
-0.963627
-1.01763
-1.07509
-1.13421
-1.19157
-1.24614
-1.28423
-1.30521
-1.32167
-1.31675
-1.24909
-1.11706
-0.959215
-0.81045
-0.690761
-0.602681
-0.545117
-0.49901
-0.481387
-0.508286
-0.586434
-0.722392
-0.8685
-0.94613
-0.897397
-0.752976
-0.585792
-0.452842
-0.372265
-0.33226
-0.327037
-0.361565
-0.448809
-0.600085
-0.767862
-0.851567
-0.781292
)
;
    }
    procBoundary6to5
    {
        type            processor;
        value           nonuniform List<scalar> 
63
(
-0.691619
-0.691619
-0.51112
-0.4089
-0.4089
-0.323735
-0.260257
-0.260257
-0.225191
-0.185425
-0.15122
-0.15122
-0.140302
-0.115913
-0.0928586
-0.0928586
-0.900457
-0.904936
-0.904936
-0.834864
-0.767921
-0.735707
-0.83698
-0.83698
-0.967012
-0.967012
-1.05419
-1.05419
-1.03158
-1.03158
-0.890329
-0.890329
-0.08347
-0.0595909
-0.0431547
-0.0329404
-0.0204578
-0.0204578
-0.00997415
-0.00315581
0.00183896
0.00920193
0.0138128
0.0157801
0.0202576
0.0238915
0.0254947
0.027975
0.0300932
0.0315079
0.0330115
0.0342922
0.0353248
0.0362408
0.0370438
0.0376607
0.0382199
0.0386111
0.0388457
0.0390615
0.0391619
0.0391753
0.0392385
)
;
    }
    procBoundary6to7
    {
        type            processor;
        value           nonuniform List<scalar> 
42
(
-0.52896
-0.431557
-0.336337
-0.246527
-0.167901
-0.105837
-0.105837
-0.0616866
-0.0342498
-0.0167731
-0.00557338
-0.00557338
0.00369562
0.000568751
-0.00421696
-0.00342925
0.00864232
0.0199032
0.0274517
0.031365
0.0340319
0.0353372
0.0361508
0.0366062
0.0367035
0.0367019
0.0366139
0.0366726
0.0367209
0.0367947
0.0368634
0.0369114
0.0369318
0.0369645
0.0370096
0.0370446
0.0370576
0.0370432
0.0370127
0.0369887
0.036942
0.036931
)
;
    }
}


// ************************************************************************* //
