/*--------------------------------*- C++ -*----------------------------------*\
| =========                 |                                                 |
| \\      /  F ield         | OpenFOAM: The Open Source CFD Toolbox           |
|  \\    /   O peration     | Version:                                        |
|   \\  /    A nd           | Website:  www.openfoam.com                      |
|    \\/     M anipulation  |                                                 |
\*---------------------------------------------------------------------------*/
FoamFile
{
    version     2.0;
    format      ascii;
    class       volScalarField;
    location    "195";
    object      p;
}
// * * * * * * * * * * * * * * * * * * * * * * * * * * * * * * * * * * * * * //

dimensions      [0 2 -2 0 0 0 0];


internalField   nonuniform List<scalar> 
1139
(
-0.416189
-0.384514
-0.352954
-0.326622
-0.321562
-0.296448
-0.291243
-0.265786
-0.249266
-0.261213
-0.236926
-0.2225
-0.231516
-0.209215
-0.196556
-0.201845
-0.183434
-0.171964
-0.163272
-0.170748
-0.157781
-0.148532
-0.141913
-0.139481
-0.133722
-0.12593
-0.122236
-0.881121
-0.939272
-0.917561
-0.864524
-0.78787
-0.708208
-1.00181
-0.966592
-0.895969
-0.794867
-0.6743
-0.579957
-1.06639
-1.01868
-0.930729
-0.808483
-0.664852
-0.551422
-0.486541
-1.12818
-1.07067
-0.971626
-0.830483
-0.678826
-0.54616
-0.497477
-0.506457
-1.18815
-1.126
-1.01443
-0.86076
-0.703369
-0.581435
-0.536105
-0.525123
-0.523232
-1.23835
-1.17094
-1.05008
-0.89591
-0.741792
-0.638406
-0.577698
-0.542371
-0.510779
-0.479065
-1.26823
-1.1957
-1.07464
-0.927715
-0.790871
-0.686233
-0.606967
-0.54551
-0.493965
-0.450803
-1.28673
-1.21011
-1.09319
-0.955422
-0.823591
-0.706621
-0.6086
-0.530756
-0.47112
-0.421867
-1.29848
-1.21906
-1.09976
-0.958868
-0.815904
-0.688035
-0.581965
-0.501359
-0.440774
-0.392099
-1.27462
-1.19112
-1.06301
-0.91163
-0.764364
-0.639027
-0.538788
-0.463605
-0.404925
-0.360011
-1.18278
-1.09944
-0.97023
-0.82412
-0.688091
-0.576634
-0.489618
-0.421732
-0.36684
-0.326057
-1.03767
-0.960551
-0.843746
-0.718588
-0.606323
-0.512766
-0.438853
-0.379293
-0.331126
-0.290875
-0.878122
-0.814141
-0.719187
-0.61863
-0.529417
-0.452888
-0.391555
-0.338142
-0.295543
-0.257444
-0.737497
-0.688353
-0.612173
-0.532988
-0.461288
-0.397175
-0.344817
-0.299175
-0.262233
-0.226046
-0.627733
-0.592406
-0.528479
-0.461596
-0.399592
-0.345885
-0.302126
-0.263772
-0.230906
-0.197194
-0.550164
-0.519747
-0.463311
-0.40193
-0.345962
-0.297879
-0.259552
-0.228275
-0.198064
-0.168669
-0.487291
-0.455559
-0.403473
-0.341565
-0.288095
-0.245601
-0.210876
-0.187194
-0.164502
-0.148435
-0.450033
-0.410793
-0.363565
-0.304426
-0.248523
-0.207964
-0.17644
-0.158463
-0.144828
-0.138303
-0.455124
-0.400466
-0.343221
-0.283608
-0.224504
-0.181751
-0.150415
-0.132621
-0.123112
-0.120708
-0.500904
-0.420741
-0.33978
-0.270699
-0.204393
-0.154404
-0.122592
-0.10369
-0.0961218
-0.0961437
-0.602893
-0.48291
-0.365753
-0.271808
-0.19331
-0.134195
-0.0972016
-0.07622
-0.0687705
-0.0706539
-0.749504
-0.577968
-0.416528
-0.289886
-0.191751
-0.119973
-0.0750773
-0.0516314
-0.0429935
-0.0469908
-0.878444
-0.680194
-0.485362
-0.322635
-0.201065
-0.117268
-0.0618142
-0.0310577
-0.0188436
-0.0233542
-0.916188
-0.714006
-0.512286
-0.341633
-0.212105
-0.118413
-0.0535761
-0.0150358
0.00200713
-0.00218406
-0.837186
-0.658961
-0.48751
-0.333799
-0.207961
-0.120883
-0.0518164
-0.00336318
0.0226536
0.0201436
-0.683272
-0.550735
-0.420219
-0.298074
-0.193214
-0.110891
-0.0462821
-0.00671074
0.0282425
0.036341
-0.525989
-0.442714
-0.353895
-0.261776
-0.174151
-0.101492
-0.0455919
-0.00401463
0.0313142
0.0463266
-0.413316
-0.364517
-0.30429
-0.234271
-0.162254
-0.10084
-0.0503455
-0.0121356
0.0199554
0.0434037
-0.350432
-0.324364
-0.282717
-0.221539
-0.154433
-0.096683
-0.0507829
-0.018015
0.00783038
0.0288905
-0.323411
-0.31436
-0.284698
-0.232555
-0.167469
-0.104528
-0.0558788
-0.0210575
0.000583157
0.016161
-0.33482
-0.339867
-0.318493
-0.266973
-0.196015
-0.126304
-0.0676113
-0.0251743
-0.00278277
0.0120405
-0.387366
-0.414467
-0.411752
-0.357658
-0.275746
-0.185403
-0.108121
-0.0499854
-0.016527
0.00314478
-0.502546
-0.556551
-0.565015
-0.51706
-0.424225
-0.304719
-0.200982
-0.111325
-0.0562703
-0.0255664
-0.670665
-0.750017
-0.775948
-0.73185
-0.617386
-0.475559
-0.330998
-0.201912
-0.111318
-0.0596042
-0.802175
-0.903693
-0.949402
-0.918178
-0.818683
-0.661786
-0.47707
-0.315153
-0.19219
-0.112342
-0.805874
-0.906813
-0.963156
-0.948759
-0.895758
-0.745198
-0.567035
-0.405963
-0.266381
-0.151049
-0.544676
-0.419002
-0.292267
-0.159584
-0.117583
-0.0923324
-0.0750101
-0.0585085
-0.042924
-0.0307584
-0.0206263
-0.0116588
-0.00419909
0.0018589
0.00707937
0.0117282
0.0154766
0.0189263
0.0218184
0.0245034
0.0263377
0.0284646
0.0302204
0.0311149
0.0324865
0.0334449
0.0341235
0.0347708
0.0352621
0.0355782
0.0358701
0.0360172
0.0360074
0.0361117
-0.118757
-0.097698
-0.0795736
-0.0623031
-0.0473763
-0.0352101
-0.0246621
-0.0155009
-0.00786992
-0.00157509
0.00394135
0.00873353
0.0127479
0.0164458
0.0195683
0.0223803
0.0244762
0.0269924
0.0286297
0.0299462
0.0315003
0.0325325
0.0334251
0.0342284
0.0348326
0.0352708
0.0356542
0.0358653
0.0358938
0.0360216
-0.104678
-0.0865578
-0.071566
-0.056274
-0.0437603
-0.0330322
-0.0235265
-0.0151556
-0.00822825
-0.00240058
0.00289064
0.00731612
0.0112855
0.0148579
0.0180727
0.0207123
0.0231527
0.025665
0.027279
0.0289867
0.0305412
0.0316919
0.0327586
0.0336749
0.03439
0.0349475
0.0354136
0.0356981
0.0357761
0.0359251
-0.080521
-0.0641509
-0.0524161
-0.0410282
-0.0319032
-0.0237603
-0.016303
-0.00989208
-0.00467494
-2.02549e-06
0.00436162
0.00799195
0.0114795
0.0146726
0.0176176
0.0200497
0.0226772
0.0248368
0.0265889
0.0284242
0.0299033
0.031159
0.0323058
0.0332724
0.0340599
0.0346917
0.0352047
0.0355465
0.0356636
0.0358257
-0.0538343
-0.0394653
-0.0302831
-0.0225169
-0.0159492
-0.0103829
-0.00548366
-0.00146645
0.00191422
0.00520245
0.00816191
0.0108054
0.0134842
0.0160485
0.0183702
0.0206739
0.023014
0.0248108
0.0266671
0.0283649
0.0297653
0.0310349
0.0321563
0.0331073
0.0339046
0.0345471
0.0350618
0.0354287
0.0355609
0.0357253
-0.0291034
-0.0156747
-0.00964393
-0.00419805
0.000122582
0.00326263
0.00584859
0.0078318
0.00966234
0.0114342
0.0130087
0.0147342
0.016548
0.0183112
0.0200765
0.0221569
0.0239223
0.0255273
0.0272599
0.0287174
0.0300334
0.0312218
0.0322536
0.0331421
0.0338965
0.0344984
0.0349803
0.0353408
0.0354669
0.0356249
-0.00879274
0.00285278
0.00749374
0.0127971
0.014874
0.0157444
0.0161807
0.0164898
0.0169923
0.0174499
0.0180021
0.0188509
0.01981
0.0208311
0.0222032
0.0237793
0.0250699
0.0265403
0.02799
0.0292406
0.0304385
0.0315021
0.0324277
0.0332376
0.0339338
0.0344779
0.0349197
0.0352591
0.0353742
0.0355226
0.00869566
0.0167445
0.0198457
0.0242253
0.0252063
0.0255081
0.0248828
0.0239177
0.0230212
0.0223982
0.0221158
0.0221657
0.0224568
0.0229701
0.0239728
0.0250079
0.0260477
0.0273215
0.0285035
0.0296092
0.0306933
0.0316554
0.0325065
0.0332567
0.0339138
0.0344176
0.0348365
0.0351596
0.0352754
0.0354172
0.0276884
0.0319407
0.0334236
0.0347251
0.0334208
0.0323947
0.030855
0.0291402
0.0275416
0.0262024
0.0251256
0.0245136
0.0242972
0.0244863
0.0250677
0.0257472
0.0266487
0.0277091
0.0287203
0.0297378
0.0307271
0.0316287
0.0324373
0.0331635
0.0338049
0.0342985
0.0347183
0.0350378
0.035169
0.0353089
0.0449495
0.0457668
0.0467687
0.0455617
0.0424737
0.0397738
0.0365576
0.0335976
0.0311551
0.0290958
0.0274574
0.0263919
0.0257697
0.0256232
0.0258585
0.0263157
0.0270627
0.0279469
0.0288413
0.029788
0.0307092
0.0315686
0.0323472
0.0330632
0.0336819
0.0341747
0.0345963
0.0349147
0.0350625
0.035201
0.0565157
0.0560242
0.0568301
0.0536804
0.0499334
0.0457942
0.0415886
0.0377637
0.0345298
0.0318196
0.0297363
0.0283146
0.0273767
0.0269438
0.02689
0.0271645
0.0277165
0.0284284
0.0292046
0.0300487
0.0308797
0.0316662
0.0323896
0.0330709
0.0336388
0.0341123
0.0345118
0.0348164
0.0349653
0.0350973
0.0623403
0.0597935
0.060943
0.058221
0.0544637
0.0497988
0.0450183
0.0406129
0.0370387
0.0341353
0.0319526
0.0302806
0.0291462
0.028459
0.0281908
0.028299
0.0286439
0.0291609
0.0298134
0.0305341
0.0312582
0.0319426
0.0325948
0.0331991
0.0336935
0.0341222
0.0344726
0.0347481
0.0348791
0.0349988
0.0490416
0.0521061
0.0540023
0.0529999
0.0505473
0.047452
0.0439197
0.0406336
0.0375921
0.0350999
0.0331841
0.0316496
0.0305008
0.029781
0.0293877
0.0293547
0.0295442
0.0299277
0.0304623
0.0310426
0.0316517
0.0322397
0.0328229
0.0333345
0.0337724
0.034149
0.0344465
0.0346901
0.0347965
0.034903
0.0301118
0.0352369
0.0388577
0.0415377
0.0422945
0.0411548
0.0394103
0.0376368
0.0360568
0.0346527
0.0333124
0.0320446
0.031092
0.0304411
0.0300959
0.0300015
0.0301159
0.0304328
0.0308591
0.0313453
0.0318827
0.0324138
0.0329331
0.0333778
0.0337896
0.0341267
0.0343926
0.0346162
0.0347085
0.0348064
0.0174233
0.0183909
0.0210732
0.0260647
0.0301904
0.032084
0.032585
0.0331075
0.0332865
0.0331296
0.0325458
0.0318544
0.0311876
0.0306294
0.0303281
0.030232
0.0303567
0.0306423
0.0309872
0.0314338
0.0319196
0.032415
0.0328885
0.0333165
0.0337219
0.0340413
0.034302
0.0345195
0.0346128
0.0347073
0.00958939
0.00966551
0.0120912
0.0170775
0.0226266
0.0258072
0.028385
0.0301605
0.0311496
0.0315715
0.0315197
0.0313418
0.0309751
0.0306875
0.0305081
0.0304483
0.0305619
0.0307878
0.0311076
0.031526
0.0319666
0.0324146
0.0328444
0.033261
0.0336401
0.0339478
0.0342065
0.0344185
0.0345168
0.034608
-0.00743076
-0.00195365
0.00196316
0.00785063
0.0150017
0.0202404
0.0247751
0.027926
0.0300086
0.0309396
0.0313831
0.0313217
0.0310773
0.0309023
0.0308007
0.0308072
0.0309361
0.0311421
0.0314329
0.0317812
0.0321549
0.0325469
0.0329368
0.033309
0.0336392
0.0339159
0.0341484
0.0343392
0.0344286
0.0345105
-0.0268997
-0.0157348
-0.0126477
-0.00174885
0.00991287
0.0171898
0.0225763
0.02635
0.0287071
0.0301297
0.0310115
0.0313194
0.0314779
0.0315359
0.0314892
0.031512
0.0316043
0.0317748
0.0320052
0.0322739
0.0325658
0.0328764
0.0331842
0.0334703
0.0337322
0.033951
0.0341342
0.0342862
0.0343508
0.0344172
-0.0592295
-0.0443509
-0.0333508
-0.0115188
0.0050644
0.015338
0.02232
0.026556
0.0288017
0.0301357
0.0309268
0.0312764
0.0316519
0.0317935
0.0319463
0.0320933
0.0322428
0.0323815
0.0325465
0.0327447
0.0329692
0.0332057
0.033437
0.0336456
0.0338445
0.0339985
0.0341282
0.0342384
0.034275
0.0343248
-0.0941006
-0.0674645
-0.0386438
-0.0128131
0.00146501
0.0120667
0.0186776
0.0240332
0.0269993
0.0294517
0.0304826
0.031475
0.0319521
0.0322393
0.0324179
0.0325673
0.0326844
0.0328199
0.0329626
0.0331116
0.0332549
0.0334168
0.033574
0.0337306
0.0338815
0.0339935
0.0340905
0.0341726
0.0341929
0.0342313
-0.109636
-0.0680287
-0.0331142
-0.0135554
0.00100868
0.0108475
0.0179177
0.0221505
0.0254844
0.0276822
0.0292394
0.0304823
0.031359
0.0319813
0.0324086
0.0326754
0.0328704
0.0330082
0.0331287
0.0332416
0.0333628
0.0334932
0.0336185
0.0337404
0.0338566
0.0339465
0.0340202
0.0340866
0.0341008
0.0341316
-0.124921
-0.0639429
-0.0964639
-0.0735875
-0.0562894
-0.0432001
-0.0310463
-0.0195778
-0.0100244
-0.0024201
0.00411228
0.00982454
-0.101686
-0.0771023
-0.0579161
-0.0443553
-0.0313606
-0.0193443
-0.0100616
-0.0027128
0.00392776
0.0096085
0.0140639
0.0178728
0.0213186
0.0240915
0.0264083
0.0283593
0.0301625
0.031395
0.0323791
0.0336373
0.0341736
0.0347147
0.035333
0.0356804
0.0359843
0.0362274
0.0363622
0.0364359
0.036438
0.0364741
-0.100231
-0.073857
-0.0578058
-0.0458281
-0.0322332
-0.01981
-0.0108009
-0.00326842
0.00367547
0.0092297
0.0135459
0.017454
0.0209255
0.0236526
0.0260159
0.0280312
0.0299027
0.0310185
0.032267
0.0334881
0.0339292
0.0346285
0.0352079
0.0355346
0.0358692
0.0360985
0.0362452
0.0363345
0.0363287
0.0363789
-0.105012
-0.0755618
-0.0593323
-0.0466486
-0.0323695
-0.0204354
-0.0118646
-0.00414123
0.0028218
0.00816919
0.0125048
0.0165673
0.0200293
0.0228011
0.0252652
0.0274488
0.0292679
0.0304535
0.0320659
0.0330427
0.0336276
0.0344938
0.0350153
0.0353863
0.0357532
0.0359698
0.0361412
0.0362397
0.0362221
0.0362878
-0.106924
-0.0798964
-0.065024
-0.0513031
-0.0359312
-0.0240365
-0.0150858
-0.00680344
0.000272669
0.005687
0.0103237
0.0146168
0.0181199
0.0211692
0.0238588
0.0262869
0.0280497
0.0296463
0.0314366
0.0322118
0.0331881
0.0341286
0.0346661
0.035157
0.0355704
0.035809
0.0360274
0.036139
0.0361159
0.036199
)
;

boundaryField
{
    outlet
    {
        type            fixedValue;
        value           nonuniform 0();
    }
    upperWall
    {
        type            symmetryPlane;
    }
    lowerWall
    {
        type            symmetryPlane;
    }
    inlet
    {
        type            zeroGradient;
    }
    cylinder
    {
        type            zeroGradient;
    }
    frontAndBack
    {
        type            empty;
    }
    procBoundary2to1
    {
        type            processor;
        value           nonuniform List<scalar> 
63
(
-0.450077
-0.450077
-0.389061
-0.357306
-0.357306
-0.304816
-0.276265
-0.276265
-0.233902
-0.209001
-0.185797
-0.185797
-0.156127
-0.136813
-0.118472
-0.118472
-0.83323
-0.872202
-0.872202
-0.838122
-0.792844
-0.749687
-0.635832
-0.635832
-0.524679
-0.524679
-0.499745
-0.499745
-0.533167
-0.533167
-0.509617
-0.509617
-0.0960271
-0.0746078
-0.0561205
-0.0418889
-0.0293881
-0.0182654
-0.00894797
-0.00143407
0.00478012
0.010219
0.0144123
0.0144123
0.0182073
0.0215559
0.0243554
0.0266651
0.028623
0.0303424
0.0316742
0.0325727
0.0337052
0.0343875
0.0348606
0.0354655
0.0358547
0.0361304
0.036368
0.0364944
0.0365469
0.0365499
0.0365735
)
;
    }
    procBoundary2to3
    {
        type            processor;
        value           nonuniform List<scalar> 
43
(
-0.691801
-0.776064
-0.822392
-0.823842
-0.77623
-0.67856
-0.67856
-0.42867
-0.348746
-0.256049
-0.154296
-0.154296
-0.0474735
-0.022936
-0.00680798
0.00482695
0.0158067
0.0209884
0.0258599
0.0277258
0.0297723
0.0304229
0.0317491
0.0321665
0.0325203
0.0328438
0.0331058
0.0332901
0.0334058
0.0334905
0.0335577
0.0336323
0.0337052
0.0337841
0.0338633
0.0339181
0.0339635
0.0340076
0.0340085
0.0340291
-0.103107
-0.0474735
-0.0669607
)
;
    }
    procBoundary2to6
    {
        type            processor;
        value           nonuniform List<scalar> 
37
(
-0.861135
-0.930192
-1.0058
-1.07927
-1.14897
-1.21213
-1.26325
-1.2966
-1.31815
-1.32388
-1.29234
-1.1951
-1.04453
-0.879546
-0.734057
-0.622319
-0.548482
-0.491377
-0.465464
-0.488191
-0.557551
-0.690442
-0.874611
-1.0313
-1.07714
-0.982454
-0.79481
-0.598317
-0.449459
-0.362843
-0.319528
-0.313763
-0.344819
-0.42953
-0.556007
-0.661977
-0.671478
)
;
    }
}


// ************************************************************************* //
