/*--------------------------------*- C++ -*----------------------------------*\
| =========                 |                                                 |
| \\      /  F ield         | OpenFOAM: The Open Source CFD Toolbox           |
|  \\    /   O peration     | Version:                                        |
|   \\  /    A nd           | Website:  www.openfoam.com                      |
|    \\/     M anipulation  |                                                 |
\*---------------------------------------------------------------------------*/
FoamFile
{
    version     2.0;
    format      ascii;
    class       surfaceScalarField;
    location    "63.1";
    object      phi;
}
// * * * * * * * * * * * * * * * * * * * * * * * * * * * * * * * * * * * * * //

dimensions      [0 3 -1 0 0 0 0];
oriented        oriented;


internalField   nonuniform List<scalar> 
2202
(
0.0337507
-0.0575283
0.0362737
-0.0824354
0.0376977
-0.0913789
0.0359259
-0.0895551
0.0312945
-0.0892374
0.0263095
-0.0862682
0.0237577
-0.0607478
0.0258717
-0.0140657
0.0303947
0.038517
0.0346434
0.0728095
0.0347855
0.0924208
0.0288888
0.107487
0.0257817
0.106827
0.0296392
0.0542
0.036126
-0.0170603
0.0395812
-0.0751179
0.0414015
-0.102256
0.0452765
-0.0912162
0.0465356
-0.0849588
0.0484635
-0.108998
0.0555853
-0.123959
0.0607035
-0.0751771
0.0569332
-0.00935395
0.0511295
0.094075
0.055582
0.134727
0.0647381
0.0659365
0.0674517
-0.0204717
0.0613487
-0.0669293
0.0513035
-0.0206589
0.00522991
0.0388785
-0.0564233
0.0385221
-0.0820791
0.0380554
-0.0909121
0.0354351
-0.0869349
0.0298623
-0.0836645
0.0241407
-0.0805466
0.0219335
-0.0585406
0.025021
-0.0171532
0.0312165
0.0323215
0.0366629
0.0673631
0.0360334
0.0930503
0.0310793
0.112441
0.0297228
0.108183
0.0321647
0.0517581
0.0379449
-0.0228405
0.0416768
-0.0788498
0.0422608
-0.10284
0.0457425
-0.0946979
0.0474767
-0.0866931
0.0477499
-0.109271
0.0527341
-0.128943
0.0570126
-0.0794555
0.0537189
-0.00606024
0.0490931
0.0987007
0.0548419
0.128978
0.0642079
0.0565705
0.0666931
-0.0229569
0.0605862
-0.0608224
0.0506038
-0.0106765
0.00941518
0.0456151
-0.0520951
0.0414168
-0.0778808
0.0383932
-0.0878886
0.0354579
-0.0839996
0.029672
-0.0778786
0.0228889
-0.0737635
0.0207533
-0.0564051
0.0256332
-0.022033
0.033613
0.0243416
0.0390421
0.0619341
0.0392016
0.0928907
0.0365146
0.115128
0.0360371
0.108661
0.0372796
0.0505156
0.0409703
-0.0265312
0.0438717
-0.0817512
0.0430336
-0.102002
0.0451013
-0.0967656
0.0465995
-0.0881912
0.0450233
-0.107695
0.0481175
-0.132037
0.0521623
-0.0835004
0.0496031
-0.003501
0.0464385
0.101865
0.0541497
0.121267
0.0642787
0.0464414
0.0659237
-0.0246019
0.0587934
-0.0536921
0.0488849
-0.00076809
0.013042
0.0527939
-0.0445589
0.0459342
-0.0710211
0.0406621
-0.0826165
0.0368739
-0.0802114
0.0305005
-0.0715052
0.0228522
-0.0661151
0.0211308
-0.0546838
0.0270972
-0.0279994
0.0354242
0.0160146
0.0414607
0.0558976
0.0431364
0.091215
0.0416601
0.116604
0.0419729
0.108348
0.0426085
0.0498799
0.0439154
-0.0278381
0.0461711
-0.0840068
0.0445592
-0.100391
0.0447563
-0.0969627
0.0463197
-0.0897546
0.0435683
-0.104944
0.0436718
-0.132141
0.04624
-0.0860686
0.0444321
-0.00169315
0.0433339
0.102964
0.0527574
0.111843
0.0630812
0.0361176
0.0647077
-0.0262284
0.0578728
-0.0468571
0.0479945
0.00911021
0.0165732
0.0596791
-0.0345332
0.0502143
-0.0615563
0.0423788
-0.0747809
0.0379075
-0.0757401
0.0321646
-0.0657623
0.0242094
-0.0581599
0.0215097
-0.051984
0.027059
-0.0335487
0.0366252
0.00644842
0.0446082
0.0479146
0.0480236
0.0877996
0.0487815
0.115846
0.049709
0.107421
0.04921
0.0503789
0.0481349
-0.0267629
0.0483799
-0.0842519
0.0457695
-0.0977801
0.0442805
-0.0954738
0.0456167
-0.0910908
0.0420278
-0.101355
0.0391214
-0.129235
0.0399002
-0.0868474
0.0387887
-0.000581661
0.0400503
0.101702
0.0516705
0.100223
0.0624116
0.0253765
0.0631539
-0.0269706
0.0557494
-0.0394526
0.046149
0.0187106
0.0196448
0.0656538
0.0541982
-0.0501007
0.0446712
-0.0652539
0.0391562
-0.0702251
0.034025
-0.0606311
0.0266215
-0.0507563
0.0226044
-0.047967
0.0269796
-0.0379239
0.0371054
-0.00367738
0.0465295
0.0384905
0.051986
0.0823431
0.0539061
0.113926
0.0548141
0.106513
0.0536913
0.0515017
0.0515027
-0.0245743
0.0503843
-0.0831335
0.0476312
-0.095027
0.0444562
-0.0922987
0.0446975
-0.0913321
0.0405266
-0.0971839
0.0345237
-0.123232
0.0330805
-0.0854041
0.0324383
6.0534e-05
0.0366453
0.097495
0.0502656
0.0866029
0.0610355
0.0146066
0.0616812
-0.0276164
0.0543723
-0.0321437
0.0447577
0.0283252
0.0225398
0.0574899
-0.0379239
0.0462755
-0.0540395
0.0395581
-0.0635077
0.03577
-0.056843
0.0297366
-0.0447229
0.0239596
-0.04219
0.0249396
-0.038904
0.0351963
-0.0139341
0.0482186
0.0254683
0.0564343
0.0741273
0.0597066
0.110654
0.061161
0.105058
0.059853
0.0528097
0.0559303
-0.0206516
0.0519685
-0.0791717
0.0481327
-0.0911912
0.0437116
-0.0878777
0.0431698
-0.0907903
0.0391995
-0.0932136
0.0306197
-0.114652
0.0267201
-0.0815045
0.0263197
0.000460924
0.0334933
0.0903213
0.0492285
0.0708678
0.0598152
0.00401987
0.0596718
-0.027473
0.0520828
-0.0245546
0.0428274
0.0375806
0.0249913
0.0582346
-0.0262674
0.0474624
-0.0432673
0.0397874
-0.0558327
0.0369105
-0.0539662
0.032255
-0.0400674
0.0254969
-0.0354319
0.0238504
-0.0372574
0.0336
-0.0236837
0.0479222
0.0111461
0.0579907
0.0640588
0.0629486
0.105696
0.0638205
0.104186
0.0619604
0.0546699
0.05809
-0.0167812
0.0533036
-0.0743853
0.0491405
-0.0870281
0.0436201
-0.0823572
0.0418656
-0.0890358
0.0384616
-0.0898096
0.027865
-0.104055
0.0207097
-0.0743491
0.020663
0.00050761
0.0310927
0.0798916
0.0483372
0.0536233
0.0583286
-0.00597155
0.0578861
-0.0270304
0.0504738
-0.0171423
0.0413435
0.0467109
0.0272401
0.0614957
-0.0141367
0.0501361
-0.0319077
0.0404839
-0.0461805
0.0377386
-0.0512209
0.0354972
-0.0378259
0.0284159
-0.0283505
0.0232348
-0.0320763
0.0297759
-0.0302248
0.045843
-0.00492095
0.0601329
0.0497689
0.0667361
0.0990927
0.0676552
0.103267
0.065865
0.0564601
0.0606988
-0.011615
0.0538483
-0.0675349
0.0486356
-0.0818154
0.0429471
-0.0766687
0.0402544
-0.0863431
0.0375418
-0.087097
0.026497
-0.0930105
0.0168459
-0.0646979
0.0173944
-4.08916e-05
0.0303381
0.0669478
0.0479952
0.0359662
0.0569198
-0.0148962
0.0557513
-0.0258619
0.0482907
-0.00968165
0.0394945
0.0555071
0.0292148
0.0581718
0.049577
-0.0233129
0.040333
-0.0369365
0.0364729
-0.0473608
0.0365956
-0.0379486
0.0317093
-0.0234642
0.024641
-0.0250081
0.0268462
-0.03243
0.0412131
-0.0192879
0.057344
0.033638
0.0672152
0.0892216
0.0696996
0.100783
0.0670539
0.0591058
0.0617661
-0.00632724
0.054903
-0.0606718
0.0492833
-0.0761956
0.0433693
-0.0707548
0.0395658
-0.0825396
0.0372009
-0.0847321
0.0264762
-0.0822858
0.0146417
-0.0528634
0.0157418
-0.00114105
0.0307326
0.051957
0.0476947
0.0190041
0.055256
-0.0224575
0.0538547
-0.0244605
0.046365
-0.002192
0.0376178
0.0642543
0.0309572
0.0604934
-0.020699
0.0549935
-0.0314365
0.0492982
-0.0416655
0.0467193
-0.0353698
0.0425613
-0.0193062
0.0356855
-0.0181323
0.03338
-0.0301245
0.0391589
-0.0250667
0.0471755
0.0256213
0.0531232
0.083274
0.0585622
0.0953438
0.0644425
0.0532255
0.0662535
-0.00813822
0.0621975
-0.0566158
0.0557254
-0.0697235
0.0493556
-0.064385
0.0446327
-0.0778167
0.0417618
-0.0818612
0.0312267
-0.0717507
0.0168809
-0.0385176
0.0158762
-0.00013638
0.0305601
0.0372731
0.0460112
0.00355299
0.0512034
-0.0276497
0.0483841
-0.0216412
0.0404545
0.00573758
0.0324134
0.0722954
0.032463
0.063075
-0.0180887
0.0582076
-0.0265692
0.0517315
-0.0351894
0.0487901
-0.0324283
0.0470756
-0.0175917
0.0415109
-0.0125676
0.0377013
-0.0263149
0.042134
-0.0294995
0.0507482
0.0170071
0.0579943
0.0760279
0.0655673
0.0877708
0.0719153
0.0468775
0.0720075
-0.00823045
0.0666829
-0.0512912
0.0594282
-0.0624688
0.0528781
-0.0578349
0.0479613
-0.0729
0.043935
-0.0778349
0.034007
-0.0618226
0.0215704
-0.026081
0.0218881
-0.000454161
0.0366438
0.0225174
0.0502586
-0.0100617
0.0537082
-0.0310994
0.0497289
-0.0176619
0.0408811
0.0145854
0.0327082
0.0804682
0.0337588
0.0674845
-0.015851
0.0639333
-0.023018
0.057472
-0.0287281
0.0535273
-0.0284836
0.0538509
-0.0179153
0.0504344
-0.00915107
0.0447704
-0.0206509
0.0462732
-0.0310022
0.0542767
0.00900357
0.0627692
0.0675354
0.072027
0.078513
0.0787197
0.0401849
0.0776944
-0.00720521
0.0709477
-0.0445445
0.063444
-0.0549651
0.0571044
-0.0514953
0.0518879
-0.0676835
0.0477983
-0.0737452
0.0394614
-0.0534857
0.028972
-0.0155917
0.0297765
-0.00125858
0.0433451
0.0089488
0.0545567
-0.0212733
0.0561726
-0.0327152
0.0513627
-0.012852
0.041786
0.0241622
0.0331826
0.0890716
0.0350717
0.0693997
-0.0116944
0.0653277
-0.0189461
0.0599811
-0.0233815
0.0554777
-0.0239803
0.0562281
-0.0186657
0.0560365
-0.00895942
0.0512721
-0.0158866
0.0501038
-0.0298339
0.056615
0.00249241
0.0659118
0.0582386
0.0773033
0.0671215
0.0841797
0.0333085
0.0816527
-0.00467825
0.0738642
-0.036756
0.0663896
-0.0474904
0.0608387
-0.0459444
0.0555476
-0.0623924
0.0501564
-0.068354
0.0431847
-0.046514
0.0362305
-0.00863751
0.037845
-0.00287312
0.0495652
-0.00277135
0.0586092
-0.0303174
0.0581286
-0.0322346
0.0517033
-0.00642672
0.041598
0.0342674
0.0333036
0.0973661
0.0362958
0.0739484
-0.00926044
0.0717591
-0.0167568
0.0680947
-0.0197171
0.0631732
-0.0190588
0.0617351
-0.0172276
0.0618855
-0.0091099
0.0576228
-0.0116238
0.0524797
-0.0246908
0.0552811
-0.000309016
0.0667944
0.0467253
0.0811892
0.0527267
0.0875157
0.026982
0.084177
-0.00133959
0.0770481
-0.0296271
0.0706708
-0.0411132
0.0653181
-0.0405917
0.0597166
-0.0567909
0.0540322
-0.0626695
0.0477734
-0.0402553
0.0427821
-0.00364617
0.0450605
-0.00515155
0.0551007
-0.0128115
0.0621944
-0.0374111
0.0605924
-0.0306325
0.05344
0.000725669
0.0426237
0.0450837
0.0341111
0.105879
0.0380479
0.0769861
-0.00634708
0.0724205
-0.0121912
0.0680245
-0.0153212
0.0647213
-0.0157556
0.0635676
-0.0160739
0.064422
-0.00996424
0.0623489
-0.00955072
0.056118
-0.0184599
0.0568997
-0.00109072
0.0694098
0.0342152
0.083679
0.0384575
0.0888015
0.0218595
0.0857544
0.00170747
0.0791598
-0.0230325
0.073087
-0.0350403
0.068204
-0.0357087
0.062599
-0.0511859
0.0565314
-0.056602
0.0515128
-0.0352366
0.0486938
-0.000827155
0.0512977
-0.00775552
0.0596534
-0.0211672
0.0650336
-0.0427913
0.0616801
-0.0272791
0.0538159
0.00858984
0.0435909
0.0553088
0.0351679
0.114302
0.0406599
0.081153
-0.00517372
0.0790282
-0.0100663
0.0763262
-0.0126192
0.0730867
-0.0125161
0.0701945
-0.0131817
0.0696915
-0.00946122
0.0681306
-0.00798978
0.0626582
-0.0129876
0.0627622
-0.00119471
0.0731954
0.023782
0.0837947
0.0278582
0.0876522
0.018002
0.0864971
0.00286256
0.0827455
-0.0192809
0.0786111
-0.0309059
0.0740463
-0.031144
0.068085
-0.0452247
0.061619
-0.050136
0.0570222
-0.0306398
0.0550863
0.00110867
0.0568478
-0.00951698
0.0628189
-0.0271383
0.0671836
-0.0471559
0.0637205
-0.0238159
0.0552982
0.0170121
0.0449548
0.0656522
0.0362338
0.123023
0.044393
0.084331
-0.00347917
0.0817795
-0.00751471
0.0797698
-0.0106095
0.0771857
-0.00993205
0.07504
-0.011036
0.074676
-0.00909721
0.0729558
-0.00626958
0.0694541
-0.00948598
0.0694707
-0.00121129
0.0758474
0.0174053
0.0841469
0.0195587
0.0891308
0.0130182
0.0891514
0.00284188
0.0863468
-0.0164762
0.0821747
-0.0267338
0.0769812
-0.0259504
0.071338
-0.0395815
0.0656714
-0.0444693
0.0619614
-0.0269299
0.0605677
0.00250245
0.0618538
-0.0108032
0.0655389
-0.0308234
0.06792
-0.049537
0.0640745
-0.0199705
0.0567032
0.0243834
0.0475873
0.0747681
0.0380316
0.132578
0.0501166
0.0891254
-0.00268271
0.0873859
-0.00577518
0.0857215
-0.0089451
0.0830575
-0.00726799
0.081296
-0.0092745
0.0804635
-0.00826479
0.0784134
-0.00421947
0.0765362
-0.00760874
0.0764809
-0.00115595
0.0804587
0.0134275
0.0876409
0.0123766
0.0916807
0.00897837
0.0914094
0.00311314
0.0903128
-0.0153796
0.0885116
-0.0249327
0.0840293
-0.021468
0.0790158
-0.034568
0.0747603
-0.0402138
0.0709667
-0.0231363
0.0678685
0.00560071
0.0675071
-0.0104418
0.0692974
-0.0326138
0.0705209
-0.0507604
0.0662819
-0.0157316
0.0581261
0.0325392
0.0486122
0.084282
0.0385099
0.142681
0.0570096
0.0935931
-0.00175778
0.0923167
-0.00449881
0.0908301
-0.00745842
0.0888329
-0.00527081
0.0875535
-0.00799506
0.0863552
-0.00706655
0.0848355
-0.0026998
0.0839225
-0.0066957
0.0834067
-0.000640148
0.0862925
0.0105417
0.0924896
0.00617952
0.0960221
0.00544585
0.096144
0.00299122
0.0947565
-0.0139921
0.0912852
-0.0214614
0.0854512
-0.015634
0.0809649
-0.0300818
0.0786681
-0.037917
0.0768898
-0.021358
0.0751907
0.00729976
0.0753136
-0.0105646
0.0746712
-0.0319714
0.0725936
-0.0486828
0.0671757
-0.0103137
0.0601002
0.0396148
0.0520664
0.0923158
0.0407407
0.154006
0.0658914
0.0991065
-0.0015266
0.0978618
-0.00325408
0.0967373
-0.00633396
0.0952454
-0.00377885
0.0937038
-0.00645349
0.0929985
-0.00636123
0.0917351
-0.00143639
0.0905065
-0.00546719
0.091202
-0.00133561
0.0937079
0.00803583
0.0968505
0.00303684
0.100074
0.00222219
0.101467
0.00159815
0.099026
-0.0115508
0.0969925
-0.0194279
0.0948262
-0.0134677
0.0901658
-0.0254215
0.0844254
-0.0321766
0.0816669
-0.0185994
0.0820441
0.00692258
0.0838968
-0.0124174
0.0827722
-0.0308468
0.0788486
-0.0447592
0.071994
-0.00345903
0.0636668
0.0479419
0.0554853
0.100497
0.0426727
0.166819
0.0765089
0.105076
-0.00162214
0.103722
-0.00189928
0.103019
-0.00563128
0.102046
-0.00280612
0.1002
-0.00460737
0.0999897
-0.00615077
0.0992865
-0.000733227
0.0978568
-0.00403742
0.0988998
-0.00237868
0.100995
0.0059404
0.102987
0.00104502
0.105712
-0.000502906
0.10662
0.000689924
0.104009
-0.00893908
0.10241
-0.0178295
0.100263
-0.0113201
0.0951413
-0.0203
0.0899985
-0.0270338
0.089023
-0.017624
0.0884572
0.00748838
0.0855989
-0.00955909
0.0817107
-0.0269586
0.0785573
-0.0416057
0.0733731
0.00172519
0.0666723
0.0546426
0.0603672
0.106802
0.0467597
0.180426
0.0889529
0.111336
-0.00178935
0.110428
-0.000991348
0.109631
-0.00483415
0.109042
-0.00221668
0.107633
-0.00319917
0.10726
-0.00577773
0.106771
-0.000243573
0.105783
-0.00304991
0.106865
-0.00346064
0.108147
0.00465838
0.109455
-0.000263236
0.111706
-0.00275392
0.111834
0.000561792
0.109953
-0.00705787
0.10962
-0.0174962
0.106577
-0.0082768
0.101288
-0.0150115
0.0979236
-0.0236692
0.0980212
-0.0177216
0.0974446
0.00806502
0.0947923
-0.00690678
0.088928
-0.0210943
0.0833566
-0.0360344
0.0780622
0.00701961
0.0722397
0.0604652
0.0685485
0.110494
0.0535553
0.195419
0.104327
0.118339
-0.002201
0.117513
-0.000165566
0.116796
-0.00411645
0.116697
-0.00211772
0.115241
-0.00174353
0.114894
-0.00543046
0.115013
-0.00036236
0.113812
-0.00184932
0.114583
-0.00423113
0.11614
0.00310061
0.116397
-0.000519816
0.117696
-0.00405305
0.118954
-0.00069604
0.116552
-0.00465575
0.114616
-0.0155602
0.113599
-0.00726042
0.110086
-0.011498
0.105188
-0.0187715
0.103956
-0.0164894
0.103951
0.00807014
0.101991
-0.00494718
0.0962103
-0.0153133
0.0895074
-0.0293315
0.0836837
0.0128433
0.0781392
0.0660097
0.0758084
0.112825
0.0605462
0.210682
0.120535
0.125565
-0.00217883
0.125505
-0.000105121
0.124467
-0.00307898
0.124523
-0.00217347
0.123811
-0.0010311
0.122828
-0.00444809
0.123504
-0.00103835
0.122431
-0.000776081
0.122661
-0.00446142
0.124265
0.001497
0.12394
-0.000194727
0.124867
-0.00498048
0.125733
-0.00156183
0.123349
-0.00227168
0.122509
-0.01472
0.121454
-0.00620581
0.117237
-0.00728117
0.112579
-0.0141129
0.11254
-0.0164505
0.112702
0.00790758
0.108815
-0.00106022
0.1018
-0.0082983
0.0957207
-0.023252
0.0910583
0.0175057
0.0867629
0.0703052
0.0895453
0.110042
0.0749629
0.225264
0.139301
0.133426
-0.00155695
0.13392
-0.000599163
0.132936
-0.00209457
0.132713
-0.00195083
0.132863
-0.00118033
0.13127
-0.00285569
0.132246
-0.00201462
0.131615
-0.000144486
0.130992
-0.00383845
0.132839
-0.000350375
0.132213
0.000431106
0.132298
-0.00506538
0.13361
-0.00287373
0.131415
-7.64979e-05
0.129892
-0.0131973
0.129235
-0.005548
0.12601
-0.00405699
0.121964
-0.0100668
0.120982
-0.0154677
0.120452
0.00843665
0.118051
0.00134154
0.109934
-0.000181589
0.101527
-0.0148447
0.0970408
0.0219917
0.0957338
0.0716122
0.103208
0.102568
0.0900658
0.238406
0.15861
0.142397
-0.00102249
0.142541
-0.000742676
0.142324
-0.00187767
0.141507
-0.00113375
0.141994
-0.00166723
0.141021
-0.00188283
0.140793
-0.00178717
0.141434
-0.000785281
0.140391
-0.00279531
0.140866
-0.000825801
0.142015
-0.000717213
0.140605
-0.00365554
0.140991
-0.00325986
0.140944
-2.92915e-05
0.138149
-0.0104024
0.137175
-0.00457439
0.135813
-0.00269439
0.13109
-0.00534402
0.130293
-0.0146709
0.130064
0.00866573
0.125462
0.00594314
0.119733
0.00554749
0.113943
-0.00905478
0.107706
0.0282287
0.107666
0.0716529
0.122817
0.0874174
0.114062
0.24716
0.177493
0.152226
-0.000984876
0.151919
-0.000435673
0.152005
-0.00196404
0.151463
-0.000591471
0.151328
-0.00153267
0.151337
-0.00189216
0.150441
-0.000890962
0.151012
-0.0013562
0.15085
-0.00263316
0.149825
0.000199505
0.151493
-0.00238547
0.150475
-0.00263712
0.14898
-0.00176583
0.150447
-0.00149547
0.148152
-0.00810736
0.144723
-0.00114602
0.145141
-0.00311207
0.143375
-0.00357837
0.13901
-0.0103059
0.136567
0.0111091
0.136254
0.00625581
0.134532
0.00727008
0.128523
-0.00304579
0.122101
0.0346501
0.122071
0.0716832
0.144384
0.0651043
0.142107
0.249437
0.194804
0.162502
-0.00104067
0.162363
-0.000296806
0.162107
-0.0017072
0.162112
-0.000596592
0.161672
-0.00109267
0.161646
-0.00186617
0.161386
-0.000631102
0.161067
-0.00103748
0.161343
-0.00290932
0.160648
0.000894883
0.160822
-0.00256006
0.161045
-0.00285921
0.159243
3.60423e-05
0.159357
-0.0016098
0.159134
-0.00788407
0.155101
0.00288663
0.153716
-0.0017273
0.155982
-0.00584366
0.148769
-0.00309343
0.143023
0.0168556
0.148045
0.00123342
0.150542
0.00477328
0.133863
0.0136327
0.118742
0.0497715
0.129736
0.0606893
0.165425
0.0294153
0.172458
0.242404
0.205725
0.173457
-0.000954049
0.173519
-0.000358204
0.173122
-0.00131033
0.173182
-0.000657095
0.172984
-0.000893936
0.172549
-0.0014315
0.172747
-0.000829142
0.17231
-0.000600648
0.172006
-0.00260571
0.172298
0.000603005
0.171595
-0.00185636
0.171324
-0.00258899
0.171163
0.000197396
0.169894
-0.000340953
0.169055
-0.0070446
0.168029
0.00391202
0.165112
0.00118954
0.165747
-0.00647806
0.16201
0.000643476
0.157517
0.0213491
0.157149
0.00160083
0.163506
-0.00158367
0.145632
0.0315072
0.12859
0.0668133
0.143711
0.0455684
0.184317
-0.0111907
0.207858
0.218862
0.205629
0.185277
-0.000806099
0.185346
-0.000427123
0.18503
-0.00099407
0.184991
-0.000618808
0.184927
-0.000829289
0.184461
-0.00096578
0.184574
-0.000942481
0.184383
-0.000409698
0.183719
-0.00194087
0.184154
0.000167175
0.183594
-0.00129616
0.182651
-0.00164534
0.183084
-0.000236215
0.182243
0.000500205
0.179836
-0.00463727
0.180679
0.00306852
0.179042
0.00282695
0.176082
-0.00351853
0.174716
0.0020101
0.176118
0.0199467
0.170538
0.00718041
0.171555
-0.00260067
0.167521
0.0355415
0.167674
0.0666608
0.16995
0.0432917
0.181308
-0.0225481
0.220506
0.179664
0.183915
0.197983
-0.000670935
0.197987
-0.000431506
0.197777
-0.000783476
0.197676
-0.000518118
0.197612
-0.000765612
0.19728
-0.000633554
0.197221
-0.000882927
0.197132
-0.000321035
0.196517
-0.00132553
0.196716
-3.18994e-05
0.196346
-0.000926665
0.195405
-0.000703894
0.195573
-0.000404767
0.195223
0.000850486
0.19275
-0.00216407
0.193393
0.00242567
0.193075
0.00314451
0.189448
0.000108328
0.187789
0.0036691
0.192279
0.0154573
0.187606
0.0118533
0.182638
0.00236718
0.185757
0.0324222
0.198857
0.0535609
0.193734
0.0484153
0.17743
-0.00624424
0.221053
0.13604
0.144194
0.211588
-0.000556772
0.211542
-0.000385913
0.211389
-0.000630786
0.211282
-0.000410625
0.211176
-0.000659947
0.210963
-0.000420937
0.210809
-0.000728694
0.210722
-0.000233305
0.210269
-0.000872701
0.210259
-2.26819e-05
0.209943
-0.000610062
0.209317
-7.84347e-05
0.209113
-0.000200068
0.20895
0.0010131
0.207181
-0.00039531
0.207321
0.00228562
0.207253
0.00321279
0.204804
0.00255786
0.203181
0.00529186
0.206805
0.0118335
0.205001
0.0136571
0.199405
0.00796322
0.202767
0.0290597
0.216775
0.0395534
0.216574
0.0486158
0.195813
0.0145173
0.231534
0.100319
0.105452
0.226138
-0.000457058
0.226072
-0.000319977
0.225946
-0.000505063
0.225846
-0.000310574
0.225718
-0.000531895
0.225574
-0.000276443
0.225395
-0.000550097
0.225296
-0.000134691
0.224968
-0.000544312
0.224873
7.22458e-05
0.224581
-0.000318095
0.2242
0.000303104
0.22388
0.000119478
0.223739
0.00115457
0.22267
0.000672859
0.222603
0.00235305
0.222471
0.00334444
0.221286
0.00374308
0.220296
0.00628174
0.222444
0.00968549
0.222408
0.013693
0.21937
0.0110011
0.22242
0.0260105
0.231813
0.03016
0.23649
0.0439391
0.226037
0.02497
0.251435
0.0749207
0.0761297
0.241708
-0.000366193
0.241638
-0.000249821
0.241524
-0.00039153
0.241438
-0.000224268
0.241307
-0.000400884
0.241202
-0.00017107
0.241032
-0.000380856
0.240938
-4.04008e-05
0.240696
-0.000302598
0.240594
0.000174867
0.240344
-6.84956e-05
0.240138
0.000509125
0.239847
0.000410785
0.239759
0.00124259
0.239189
0.00124306
0.239152
0.00238947
0.239102
0.00339478
0.238728
0.00411715
0.238528
0.00648151
0.239872
0.00834098
0.240862
0.0127037
0.240165
0.0116981
0.243513
0.0226624
0.249704
0.023969
0.256613
0.0370295
0.254769
0.026814
0.273722
0.0559682
0.0547512
0.25837
-0.000279802
0.258304
-0.000183616
0.258201
-0.000289388
0.258129
-0.000151748
0.25801
-0.000282154
0.257931
-9.23157e-05
0.25779
-0.00023935
0.257716
3.33484e-05
0.257544
-0.000130077
0.257475
0.000243626
0.257295
0.000111299
0.257212
0.000592012
0.257033
0.000589813
0.257042
0.00123413
0.256827
0.00145812
0.25694
0.00227577
0.257102
0.00323276
0.25727
0.00394951
0.257716
0.00603586
0.258917
0.00713952
0.260566
0.011055
0.261432
0.0108321
0.265316
0.018778
0.270194
0.0190915
0.277759
0.0294643
0.280599
0.0239738
0.295519
0.0410487
0.0387422
0.276206
-0.000200271
0.276148
-0.000125976
0.276059
-0.000199881
0.276001
-9.41222e-05
0.275902
-0.00018314
0.275847
-3.71356e-05
0.27574
-0.000132474
0.275698
7.52327e-05
0.275588
-1.9866e-05
0.275571
0.000260837
0.275478
0.000203795
0.275501
0.000569721
0.275461
0.000629304
0.275592
0.00110347
0.275659
0.00139094
0.275961
0.00197413
0.276398
0.00279528
0.276966
0.00338168
0.277933
0.00506908
0.279299
0.00577328
0.281491
0.00886314
0.283367
0.00895568
0.287649
0.0144958
0.29223
0.0145106
0.299788
0.0219062
0.304807
0.018955
0.317005
0.0288507
0.0264037
0.295298
-0.000128448
0.295249
-7.72986e-05
0.295173
-0.000123651
0.29513
-5.13122e-05
0.295053
-0.0001058
0.295022
-6.2163e-06
0.294951
-6.1519e-05
0.294946
8.00092e-05
0.294894
3.20246e-05
0.294935
0.000220555
0.294932
0.000206032
0.295049
0.000453163
0.29515
0.000528083
0.29541
0.000843227
0.295709
0.00109278
0.296207
0.00147594
0.29692
0.00208178
0.297811
0.00249108
0.299198
0.00368225
0.300848
0.00412277
0.303473
0.00623809
0.306026
0.00640263
0.310609
0.00991343
0.315242
0.00987721
0.322594
0.014554
0.328552
0.0129971
0.338946
0.018457
0.0165034
0.315742
-6.29249e-05
0.315701
-3.64238e-05
0.315636
-5.8731e-05
0.315606
-2.14398e-05
0.315547
-4.73282e-05
0.315537
4.14962e-06
0.315497
-2.1319e-05
0.315525
5.13456e-05
0.315525
3.23662e-05
0.315617
0.000128525
0.315694
0.000129677
0.315891
0.000255821
0.316113
0.000305813
0.316491
0.000465278
0.316975
0.00060926
0.317648
0.000802254
0.318602
0.00112819
0.319753
0.00134038
0.321471
0.00196342
0.323412
0.00218211
0.326389
0.00326153
0.32942
0.00337115
0.334244
0.0050897
0.339055
0.0050659
0.346278
0.0073315
0.352629
0.00664533
0.361992
0.00909485
0.0080151
0.337624
0.337587
0.337528
0.337507
0.33746
0.337464
0.337443
0.337494
0.337526
0.337655
0.337784
0.33804
0.338346
0.338811
0.339421
0.340223
0.341351
0.342691
0.344655
0.346837
0.350098
0.35347
0.358559
0.363625
0.370957
0.377602
0.386697
)
;

boundaryField
{
    outlet
    {
        type            calculated;
        value           nonuniform List<scalar> 
40
(
0.0469266
0.0464185
0.0452581
0.0444633
0.0430773
0.0418627
0.0403759
0.0390946
0.0375198
0.0358754
0.0309076
0.0314124
0.0318698
0.0320794
0.032359
0.0325559
0.0325007
0.032308
0.031617
0.0318588
0.0320552
0.0343157
0.0381811
0.0443386
0.0561965
0.0707571
0.0951789
0.124796
0.161537
0.207954
0.24222
0.260774
0.270276
0.280758
0.2951
0.311528
0.329344
0.348846
0.37048
0.394712
)
;
    }
    upperWall
    {
        type            symmetryPlane;
        value           uniform 0;
    }
    lowerWall
    {
        type            symmetryPlane;
        value           nonuniform 0();
    }
    inlet
    {
        type            calculated;
        value           nonuniform 0();
    }
    cylinder
    {
        type            calculated;
        value           nonuniform 0();
    }
    frontAndBack
    {
        type            empty;
        value           nonuniform 0();
    }
    procBoundary7to3
    {
        type            processor;
        value           nonuniform List<scalar> 
30
(
0.0559512
0.0799125
0.0899549
0.091327
0.0938688
0.0912532
0.0632995
0.0119517
-0.04304
-0.0770582
-0.0925629
-0.10159
-0.10372
-0.0580575
0.0105735
0.0716627
0.100436
0.0873412
0.0836997
0.10707
0.116837
0.0700589
0.0131242
-0.0882713
-0.139179
-0.0750926
0.0177581
0.0730323
0.0307041
-0.000852953
)
;
    }
    procBoundary7to6
    {
        type            processor;
        value           nonuniform List<scalar> 
42
(
-0.0321736
-0.0399835
-0.0499434
-0.0603301
-0.0697048
-0.0780538
-0.0221332
-0.0696667
-0.0698911
-0.0736264
-0.0677715
-0.00453706
-0.0631073
-0.0656853
-0.0697222
-0.0735563
-0.0763823
-0.0798994
-0.0823264
-0.0860256
-0.0899219
-0.0945181
-0.0993377
-0.104981
-0.111169
-0.117928
-0.125587
-0.134048
-0.142932
-0.152263
-0.162446
-0.173544
-0.185425
-0.198118
-0.211702
-0.226238
-0.241799
-0.258456
-0.276286
-0.29537
-0.315807
-0.337687
)
;
    }
}


// ************************************************************************* //
