/*--------------------------------*- C++ -*----------------------------------*\
| =========                 |                                                 |
| \\      /  F ield         | OpenFOAM: The Open Source CFD Toolbox           |
|  \\    /   O peration     | Version:                                        |
|   \\  /    A nd           | Website:  www.openfoam.com                      |
|    \\/     M anipulation  |                                                 |
\*---------------------------------------------------------------------------*/
FoamFile
{
    version     2.0;
    format      ascii;
    class       volVectorField;
    location    "50";
    object      U;
}
// * * * * * * * * * * * * * * * * * * * * * * * * * * * * * * * * * * * * * //

dimensions      [0 1 -1 0 0 0 0];


internalField   nonuniform List<vector> 
1136
(
(0.555535 1.18885 -1.71652e-22)
(0.446327 1.09589 9.01039e-22)
(0.462044 0.99379 -1.94154e-21)
(0.320048 0.985183 -1.83873e-22)
(0.17887 0.894393 2.52354e-21)
(0.109621 0.653436 -1.30845e-21)
(0.125404 0.291775 6.74985e-22)
(0.186309 -0.0983472 -2.094e-21)
(0.260141 -0.378815 1.38427e-21)
(0.377676 -0.511112 3.19133e-22)
(0.438536 -0.55175 -1.25933e-21)
(0.510074 -0.552409 1.29703e-21)
(0.523527 -0.543752 -5.52377e-22)
(0.525783 -0.501256 5.09281e-22)
(0.546944 -0.428006 -3.44809e-22)
(0.471181 -0.366847 -2.58546e-24)
(0.431826 -0.259696 -6.22796e-23)
(0.507983 -0.105903 1.20466e-22)
(0.611803 0.0248964 1.08693e-22)
(0.725296 0.104706 -5.38467e-23)
(0.808128 0.135642 -1.59955e-23)
(0.848992 0.153528 -3.13092e-24)
(0.844204 0.14856 -1.5344e-23)
(0.874154 0.131241 -4.01109e-25)
(0.911365 0.100141 -1.82222e-25)
(0.882713 0.0871433 6.39023e-26)
(0.846172 0.0721262 -2.56015e-24)
(0.823258 0.0510437 7.36852e-24)
(0.849767 0.0236398 2.54017e-24)
(0.920625 -0.00808091 -1.51423e-24)
(0.470328 1.15163 8.28072e-21)
(0.429251 1.06227 -1.74302e-20)
(0.420724 1.0118 5.56543e-21)
(0.23894 1.07911 -3.39483e-21)
(0.125768 1.00368 5.02282e-22)
(0.128612 0.690049 1.2052e-20)
(0.161656 0.28398 -1.4137e-20)
(0.242979 -0.117175 6.87802e-22)
(0.311418 -0.407995 7.95763e-21)
(0.393611 -0.558274 -3.03463e-21)
(0.472528 -0.599239 -5.53588e-22)
(0.524674 -0.573696 -6.77527e-22)
(0.581852 -0.527365 -1.04972e-21)
(0.550816 -0.485964 -1.936e-21)
(0.569108 -0.415066 1.69756e-21)
(0.52964 -0.346897 3.08656e-23)
(0.457993 -0.263539 -3.73755e-24)
(0.503688 -0.133623 1.76501e-22)
(0.601826 -0.00900116 -5.74092e-22)
(0.711558 0.0766834 1.92482e-22)
(0.776941 0.122546 3.46682e-23)
(0.802809 0.149856 9.1554e-24)
(0.838307 0.141584 -7.11179e-24)
(0.882258 0.121357 -7.34318e-25)
(0.900312 0.101281 2.15806e-23)
(0.839786 0.0967619 -8.43083e-24)
(0.821488 0.0761218 7.57441e-24)
(0.841782 0.0474753 -6.19631e-26)
(0.893928 0.0123675 4.56625e-24)
(0.962252 -0.0154505 4.21553e-24)
(0.476275 1.22334 -1.74673e-20)
(0.419245 1.1451 1.48735e-20)
(0.390388 1.10716 -4.51933e-21)
(0.245135 1.15814 3.29478e-21)
(0.209897 0.985998 1.87004e-20)
(0.169151 0.670101 4.02052e-21)
(0.192264 0.266605 -4.19886e-20)
(0.267358 -0.146268 3.30998e-21)
(0.360311 -0.439585 2.30984e-21)
(0.429376 -0.586174 1.1294e-20)
(0.518555 -0.619134 6.97514e-21)
(0.542128 -0.605688 -1.55907e-21)
(0.586821 -0.558577 -8.32959e-22)
(0.573313 -0.503912 -3.10198e-21)
(0.566375 -0.42739 1.31576e-21)
(0.57931 -0.335741 3.19997e-21)
(0.50419 -0.256787 -2.42008e-21)
(0.504183 -0.153494 4.70894e-22)
(0.585794 -0.0368076 1.37146e-22)
(0.678155 0.0568413 3.24655e-22)
(0.737102 0.11297 -2.39016e-22)
(0.784878 0.139034 8.31703e-23)
(0.858848 0.128712 4.42632e-23)
(0.885108 0.116819 3.25503e-23)
(0.86229 0.109285 -2.29389e-23)
(0.805823 0.105242 -5.65635e-24)
(0.824187 0.0724156 8.3433e-25)
(0.881099 0.0370078 -3.12168e-23)
(0.94504 0.000755987 9.60864e-24)
(0.992935 -0.0210904 -5.72552e-25)
(0.342772 1.213 9.09961e-21)
(0.382696 1.12935 3.68211e-20)
(0.354483 1.12624 -7.27871e-21)
(0.235477 1.20081 -1.56516e-20)
(0.152777 1.08799 6.02013e-21)
(0.172757 0.745348 -3.12057e-21)
(0.248541 0.287118 3.32105e-20)
(0.318239 -0.155345 -1.48332e-20)
(0.402656 -0.46592 -3.88822e-21)
(0.483051 -0.628254 -1.49474e-20)
(0.548536 -0.656486 -2.52064e-21)
(0.611302 -0.614791 1.95364e-20)
(0.625428 -0.55123 -1.1622e-20)
(0.637312 -0.487699 1.2013e-21)
(0.582573 -0.427343 -3.63285e-22)
(0.606134 -0.334839 -4.68698e-22)
(0.571674 -0.245582 1.89674e-21)
(0.522621 -0.162288 -4.64788e-22)
(0.562868 -0.0623135 -3.43423e-22)
(0.650491 0.032237 2.39633e-22)
(0.733177 0.0926069 -2.1831e-22)
(0.810972 0.118687 2.4281e-22)
(0.877716 0.117046 -1.74852e-22)
(0.862377 0.121012 1.21461e-23)
(0.812233 0.119403 2.19149e-23)
(0.793987 0.106238 -6.77016e-24)
(0.854654 0.0613884 3.49358e-23)
(0.927667 0.0234499 3.31e-23)
(0.987014 -0.0089262 -1.60493e-23)
(1.01166 -0.0245161 -8.20186e-24)
(0.367015 1.25686 -2.88815e-20)
(0.404043 1.1712 2.71557e-20)
(0.35188 1.1878 3.40244e-21)
(0.239588 1.26657 -5.11832e-20)
(0.232525 1.0656 2.26413e-20)
(0.282721 0.699081 3.56244e-20)
(0.320362 0.283682 -1.00884e-20)
(0.388558 -0.153945 -2.27382e-20)
(0.453868 -0.478864 -2.49377e-20)
(0.548279 -0.644329 3.31618e-20)
(0.586536 -0.683989 -2.53937e-20)
(0.635873 -0.649248 5.71161e-22)
(0.635562 -0.582798 -2.53755e-21)
(0.659338 -0.500062 7.44505e-21)
(0.624066 -0.428268 -3.87483e-21)
(0.606078 -0.344308 -6.87039e-22)
(0.626221 -0.241044 1.40089e-21)
(0.580388 -0.157845 9.77087e-22)
(0.560158 -0.0784278 1.07845e-22)
(0.626924 0.0056581 4.1333e-23)
(0.727259 0.0668781 1.45215e-22)
(0.811859 0.101068 -1.05841e-22)
(0.843934 0.115481 9.08795e-23)
(0.804872 0.13205 3.40981e-23)
(0.771809 0.12512 -2.98495e-23)
(0.811268 0.0972556 -5.21638e-24)
(0.902113 0.0457389 -5.77682e-23)
(0.971212 0.0105674 -6.04308e-23)
(1.01471 -0.0153022 5.87399e-24)
(1.01993 -0.0257799 1.08471e-23)
(0.276183 1.22429 -2.20607e-19)
(0.337769 1.16063 4.88175e-20)
(0.311938 1.20561 1.28458e-19)
(0.223373 1.29252 -1.39334e-19)
(0.235685 1.15925 8.53322e-20)
(0.248669 0.843096 5.85674e-21)
(0.351949 0.356945 9.30035e-21)
(0.445187 -0.127805 -3.36828e-20)
(0.520678 -0.489213 -1.57502e-20)
(0.588468 -0.674723 2.25251e-20)
(0.65592 -0.706374 7.87057e-21)
(0.680777 -0.65514 4.5559e-21)
(0.694082 -0.579652 -1.23763e-20)
(0.677371 -0.500139 -3.83013e-21)
(0.676591 -0.421665 2.4503e-21)
(0.625579 -0.348758 -6.46133e-22)
(0.639202 -0.25036 -1.29039e-21)
(0.647995 -0.153072 1.53872e-21)
(0.605284 -0.0819758 -1.92335e-22)
(0.617671 -0.0157936 -4.90388e-22)
(0.685727 0.0439325 -5.39229e-23)
(0.746901 0.0903466 5.41251e-23)
(0.757886 0.119011 -1.7189e-23)
(0.740218 0.138696 2.90261e-23)
(0.7651 0.119362 -5.59271e-23)
(0.85611 0.0796585 6.74289e-23)
(0.953567 0.0295422 -1.84916e-23)
(1.00385 0.00111117 8.31786e-23)
(1.02803 -0.0182261 -2.69461e-23)
(1.02195 -0.0255053 -1.01409e-23)
(0.344652 1.16827 -3.96676e-20)
(0.30256 1.24059 9.27256e-20)
(0.260661 1.31879 -3.49966e-20)
(0.272508 1.14227 -3.17317e-20)
(0.381124 0.73386 -4.94031e-20)
(0.444136 0.307885 5.99878e-20)
(0.498161 -0.128498 3.63166e-20)
(0.589183 -0.484372 -5.05848e-20)
(0.651031 -0.68378 -3.01302e-20)
(0.69705 -0.729448 2.34133e-20)
(0.706784 -0.68345 -7.23147e-21)
(0.713753 -0.600643 -1.08881e-21)
(0.697826 -0.512121 -1.96794e-21)
(0.694948 -0.426096 3.39048e-22)
(0.671407 -0.346509 3.63331e-21)
(0.64327 -0.261788 -3.51678e-22)
(0.67613 -0.159948 7.83581e-22)
(0.671862 -0.0784467 -9.09961e-22)
(0.652262 -0.0199892 1.87171e-22)
(0.656631 0.0342037 -7.54309e-23)
(0.67577 0.0848896 -8.7297e-24)
(0.688057 0.117408 -5.39972e-24)
(0.718618 0.131745 4.45201e-24)
(0.804458 0.101427 3.92539e-23)
(0.916879 0.0585247 -3.35626e-23)
(0.997061 0.0164715 -3.22056e-23)
(1.02254 -0.00408874 3.07752e-23)
(1.03125 -0.0187857 3.07392e-24)
(1.02209 -0.0246655 1.87919e-23)
(0.310629 1.15119 2.7548e-20)
(0.307873 1.21853 4.2275e-20)
(0.258 1.33627 -2.75647e-20)
(0.294758 1.21024 1.72384e-20)
(0.367189 0.940505 -6.90957e-20)
(0.446107 0.488829 -7.65697e-21)
(0.559593 -0.0457416 -7.47668e-20)
(0.643951 -0.467415 5.16284e-20)
(0.724072 -0.691389 3.15653e-21)
(0.746622 -0.739661 3.03623e-20)
(0.766045 -0.686843 2.42092e-21)
(0.741051 -0.603616 -7.52405e-21)
(0.729571 -0.515853 2.48908e-21)
(0.707428 -0.431806 -6.24102e-21)
(0.701766 -0.348165 -2.71461e-21)
(0.672024 -0.266894 1.9277e-21)
(0.681625 -0.174033 4.21446e-22)
(0.709615 -0.0854548 -1.26855e-22)
(0.710404 -0.0196735 -1.16553e-22)
(0.682782 0.0338189 1.20776e-22)
(0.670117 0.0813164 -1.15525e-22)
(0.694511 0.108221 -1.73585e-23)
(0.76481 0.113987 -6.85008e-24)
(0.876755 0.0789588 -1.6279e-23)
(0.974199 0.0407555 4.61403e-23)
(1.02398 0.00907377 -4.71474e-23)
(1.02891 -0.00537893 -1.7515e-23)
(1.03027 -0.0180764 -1.50658e-23)
(1.02292 -0.0237628 -1.40122e-23)
(0.302866 1.13244 -1.55141e-19)
(0.303415 1.23853 7.26145e-20)
(0.273029 1.33639 1.11766e-19)
(0.348517 1.20589 -1.11437e-20)
(0.432875 0.839253 1.60491e-20)
(0.563353 0.385035 -9.4712e-20)
(0.628831 -0.0553269 5.98889e-20)
(0.707842 -0.458159 -1.30573e-20)
(0.776814 -0.700635 -6.35161e-20)
(0.799942 -0.76669 2.29798e-20)
(0.79077 -0.718182 -2.86215e-21)
(0.774249 -0.625079 -1.50556e-20)
(0.745953 -0.532241 3.21891e-21)
(0.728436 -0.443612 4.9469e-21)
(0.717995 -0.357501 -4.54482e-21)
(0.702707 -0.274277 -4.55656e-22)
(0.695922 -0.185774 4.25221e-22)
(0.719704 -0.0970332 1.95384e-22)
(0.747499 -0.0211247 -6.08249e-23)
(0.735644 0.0374375 -8.20784e-23)
(0.728306 0.0783112 -5.09494e-23)
(0.769759 0.0939438 4.51906e-24)
(0.853086 0.0924719 5.86584e-23)
(0.948853 0.0592644 2.76702e-24)
(1.01066 0.0292844 1.89588e-23)
(1.03344 0.0062083 -2.51494e-23)
(1.02859 -0.00512659 2.96492e-23)
(1.03006 -0.0176415 6.38447e-25)
(1.02463 -0.0233558 -1.07653e-24)
(0.244694 1.08385 1.52995e-19)
(0.295964 1.17443 -1.34588e-19)
(0.279504 1.3272 8.22493e-20)
(0.332593 1.26809 1.01574e-19)
(0.453922 1.02412 5.57725e-20)
(0.526796 0.633689 -8.76634e-20)
(0.642663 0.0834591 4.74865e-20)
(0.773395 -0.41146 -5.30253e-20)
(0.835059 -0.687472 1.08195e-20)
(0.864452 -0.75817 -8.54333e-20)
(0.837122 -0.712268 3.63835e-20)
(0.813171 -0.622888 -3.37901e-20)
(0.776494 -0.530491 4.99985e-21)
(0.746727 -0.446998 2.59167e-21)
(0.7339 -0.362491 7.42584e-21)
(0.724786 -0.281169 1.67354e-21)
(0.719208 -0.197158 6.91981e-22)
(0.728997 -0.113756 -2.90654e-22)
(0.761624 -0.0344682 1.12643e-23)
(0.776386 0.031607 -1.74308e-23)
(0.798138 0.0711442 6.67321e-23)
(0.854369 0.0802365 -2.18416e-22)
(0.929457 0.0769675 1.48494e-22)
(0.991075 0.0488153 7.57019e-24)
(1.02201 0.0247716 2.83517e-23)
(1.03244 0.00606687 -4.63558e-23)
(1.02753 -0.00441453 -6.65836e-24)
(1.03188 -0.0171275 1.25678e-23)
(1.02559 -0.0226269 6.18468e-24)
(0.29714 1.15305 0)
(0.302769 1.28011 0)
(0.370869 1.20634 0)
(0.50568 0.951903 0)
(0.588581 0.541104 0)
(0.728072 0.0803537 0)
(0.834929 -0.345892 0)
(0.900359 -0.620631 0)
(0.904481 -0.710488 0)
(0.883259 -0.676999 0)
(0.839971 -0.597841 0)
(0.810987 -0.509563 0)
(0.771846 -0.431286 0)
(0.750042 -0.353503 0)
(0.739859 -0.275443 0)
(0.738181 -0.194621 0)
(0.742593 -0.116819 0)
(0.769967 -0.0420436 0)
(0.80292 0.022857 0)
(0.850614 0.0589089 0)
(0.909669 0.0652861 0)
(0.967254 0.0644509 0)
(1.00237 0.0421541 0)
(1.01995 0.0222304 0)
(1.03018 0.00601151 0)
(1.02838 -0.00448457 0)
(1.03347 -0.0171638 0)
(1.02426 -0.0222471 0)
(0.301175 1.11835 0)
(0.324981 1.24396 0)
(0.427452 1.12621 0)
(0.551081 0.859953 0)
(0.674024 0.516747 0)
(0.823205 0.0196854 0)
(0.942034 -0.443307 0)
(0.987423 -0.694342 0)
(0.961116 -0.738894 0)
(0.91833 -0.676438 0)
(0.864968 -0.587516 0)
(0.832072 -0.500025 0)
(0.798581 -0.422388 0)
(0.769032 -0.348353 0)
(0.754098 -0.273982 0)
(0.753429 -0.195034 0)
(0.760034 -0.119686 0)
(0.783953 -0.0490947 0)
(0.821308 0.011703 0)
(0.877065 0.0455149 0)
(0.927944 0.0528445 0)
(0.97147 0.0553404 0)
(0.998604 0.0370004 0)
(1.01731 0.0185804 0)
(1.03028 0.00402418 0)
(1.02942 -0.00535031 0)
(1.03236 -0.0167032 0)
(1.02092 -0.0211711 0)
(0.307865 1.0999 0)
(0.340602 1.18265 0)
(0.482632 1.04227 0)
(0.621152 0.82501 0)
(0.772745 0.464428 0)
(0.917531 -0.0181351 0)
(1.02689 -0.415907 0)
(1.0511 -0.630398 0)
(1.00764 -0.680518 0)
(0.958433 -0.635953 0)
(0.906994 -0.561998 0)
(0.867524 -0.482705 0)
(0.837421 -0.40779 0)
(0.802584 -0.338021 0)
(0.777365 -0.269805 0)
(0.77001 -0.195703 0)
(0.77521 -0.12423 0)
(0.798441 -0.0569629 0)
(0.835414 0.00196385 0)
(0.889693 0.0362712 0)
(0.932484 0.0460504 0)
(0.970568 0.0505643 0)
(1.00045 0.0339007 0)
(1.02114 0.0165459 0)
(1.03153 0.00403062 0)
(1.02813 -0.00439385 0)
(1.02749 -0.0152121 0)
(1.01691 -0.0199306 0)
(0.335034 1.07148 0)
(0.348605 1.1287 0)
(0.546202 0.99197 0)
(0.705826 0.768451 0)
(0.856206 0.420338 0)
(1.02384 -0.0599522 0)
(1.13118 -0.486547 0)
(1.13348 -0.69501 0)
(1.0657 -0.711313 0)
(0.994254 -0.642184 0)
(0.938238 -0.557513 0)
(0.892229 -0.477496 0)
(0.863153 -0.400829 0)
(0.834488 -0.328855 0)
(0.803652 -0.263556 0)
(0.7903 -0.194197 0)
(0.793957 -0.1274 0)
(0.813674 -0.0656475 0)
(0.844269 -0.0120313 0)
(0.892818 0.021395 0)
(0.933132 0.033015 0)
(0.971241 0.038922 0)
(1.00201 0.0253524 0)
(1.01817 0.0115803 0)
(1.02358 0.00212917 0)
(1.02035 -0.00511458 0)
(1.02097 -0.0153149 0)
(1.01514 -0.0197121 0)
(0.295096 1.08962 0)
(0.372224 1.08659 0)
(0.621344 0.894297 0)
(0.776958 0.699661 0)
(0.94659 0.346476 0)
(1.13665 -0.13448 0)
(1.22651 -0.482939 0)
(1.19116 -0.621054 0)
(1.11354 -0.626116 0)
(1.04184 -0.580579 0)
(0.986507 -0.51925 0)
(0.934799 -0.454372 0)
(0.892139 -0.387851 0)
(0.867386 -0.318113 0)
(0.838004 -0.254929 0)
(0.814816 -0.191718 0)
(0.811666 -0.129747 0)
(0.82905 -0.0701462 0)
(0.856927 -0.0185227 0)
(0.900258 0.014358 0)
(0.936379 0.0272073 0)
(0.970782 0.0340483 0)
(0.996827 0.0233412 0)
(1.00988 0.012003 0)
(1.01782 0.00382673 0)
(1.01984 -0.00335877 0)
(1.02283 -0.0134827 0)
(1.01729 -0.0181575 0)
(0.20813 1.07467 0)
(0.452639 0.946391 0)
(0.680655 0.77352 0)
(0.843604 0.602679 0)
(1.04385 0.259054 0)
(1.25508 -0.174634 0)
(1.3234 -0.507785 0)
(1.25806 -0.654615 0)
(1.16357 -0.655307 0)
(1.07934 -0.593827 0)
(1.00932 -0.516828 0)
(0.954842 -0.441754 0)
(0.901782 -0.376578 0)
(0.871488 -0.311158 0)
(0.855811 -0.247123 0)
(0.841465 -0.186604 0)
(0.832899 -0.132861 0)
(0.84231 -0.0809364 0)
(0.865705 -0.0340285 0)
(0.904735 -0.00174669 0)
(0.937225 0.0132239 0)
(0.970086 0.0224829 0)
(0.994594 0.0151338 0)
(1.00893 0.00618681 0)
(1.01778 -0.000776735 0)
(1.02073 -0.00681543 0)
(1.02116 -0.015554 0)
(1.01331 -0.0192546 0)
(0.285117 0.952224 0)
(0.564522 0.780824 0)
(0.741896 0.645579 0)
(0.915732 0.494855 0)
(1.16465 0.160714 0)
(1.38191 -0.264093 0)
(1.39928 -0.517062 0)
(1.29832 -0.572472 0)
(1.20046 -0.545336 0)
(1.12469 -0.504053 0)
(1.04668 -0.458266 0)
(0.98356 -0.404306 0)
(0.929317 -0.350883 0)
(0.885783 -0.298751 0)
(0.862743 -0.243137 0)
(0.857438 -0.182286 0)
(0.857585 -0.127059 0)
(0.865215 -0.0778263 0)
(0.88153 -0.0357796 0)
(0.911749 -0.00567168 0)
(0.938807 0.00922624 0)
(0.967664 0.0181985 0)
(0.99059 0.0131945 0)
(1.00342 0.00631175 0)
(1.00988 0.00117129 0)
(1.01321 -0.00373765 0)
(1.0138 -0.0110642 0)
(1.01027 -0.0156077 0)
(0.488072 0.803624 0)
(0.705092 0.635097 0)
(0.848329 0.534125 0)
(1.04685 0.378892 0)
(1.34422 0.0235543 0)
(1.49071 -0.305208 0)
(1.4435 -0.470551 0)
(1.35262 -0.545335 0)
(1.25352 -0.564292 0)
(1.14747 -0.529491 0)
(1.04562 -0.466707 0)
(0.971911 -0.402555 0)
(0.928489 -0.342848 0)
(0.898828 -0.287145 0)
(0.872132 -0.237986 0)
(0.85882 -0.188057 0)
(0.859811 -0.139805 0)
(0.872231 -0.0930091 0)
(0.890887 -0.0519227 0)
(0.918105 -0.0208885 0)
(0.942513 -0.00417444 0)
(0.967277 0.00697125 0)
(0.987963 0.00480049 0)
(0.999506 0.000834743 0)
(1.00747 -0.00375198 0)
(1.01263 -0.00823501 0)
(1.01589 -0.0155302 0)
(1.01373 -0.0191466 0)
(0.748226 0.66636 0)
(0.929873 0.522945 0)
(1.05314 0.42301 0)
(1.27966 0.215689 0)
(1.51393 -0.0759834 0)
(1.55994 -0.306879 0)
(1.4881 -0.455222 0)
(1.37698 -0.500233 0)
(1.24495 -0.464723 0)
(1.13651 -0.408652 0)
(1.07154 -0.364348 0)
(1.02955 -0.332821 0)
(0.992031 -0.303965 0)
(0.963111 -0.264306 0)
(0.93682 -0.217435 0)
(0.914288 -0.168689 0)
(0.898998 -0.124774 0)
(0.897274 -0.0844363 0)
(0.906449 -0.0494008 0)
(0.926859 -0.0220609 0)
(0.94686 -0.00641662 0)
(0.968191 0.00359019 0)
(0.986322 0.00325328 0)
(0.997694 0.000649301 0)
(1.00609 -0.00264073 0)
(1.01144 -0.00617741 0)
(1.01423 -0.0112896 0)
(1.01166 -0.0146994 0)
(1.07106 0.55377 0)
(1.2124 0.428517 0)
(1.32978 0.290641 0)
(1.5075 0.0947961 0)
(1.60776 -0.122331 0)
(1.58291 -0.302263 0)
(1.48888 -0.391164 0)
(1.36568 -0.406548 0)
(1.25499 -0.40835 0)
(1.1744 -0.412385 0)
(1.10903 -0.402763 0)
(1.051 -0.369622 0)
(0.994468 -0.32429 0)
(0.94923 -0.27599 0)
(0.920174 -0.22973 0)
(0.908116 -0.183108 0)
(0.904836 -0.140068 0)
(0.908879 -0.0994813 0)
(0.917963 -0.0642945 0)
(0.935002 -0.0358157 0)
(0.952262 -0.0185516 0)
(0.970604 -0.00640914 0)
(0.986825 -0.00485118 0)
(0.997323 -0.00529925 0)
(1.00515 -0.00773296 0)
(1.01013 -0.0103544 0)
(1.01313 -0.0151904 0)
(1.0117 -0.0183093 0)
(1.32149 0.457871 0)
(1.42398 0.329653 0)
(1.51742 0.192851 0)
(1.59712 0.0378474 0)
(1.60715 -0.128216 0)
(1.55704 -0.245669 0)
(1.46034 -0.311181 0)
(1.34983 -0.357025 0)
(1.25928 -0.373373 0)
(1.18678 -0.35353 0)
(1.11565 -0.318675 0)
(1.05593 -0.284374 0)
(1.01295 -0.252301 0)
(0.982526 -0.21989 0)
(0.956126 -0.18747 0)
(0.937339 -0.153298 0)
(0.926407 -0.120263 0)
(0.924861 -0.0883425 0)
(0.929847 -0.0599774 0)
(0.942952 -0.0359175 0)
(0.957452 -0.0201969 0)
(0.973181 -0.00918107 0)
(0.987363 -0.00637949 0)
(0.996831 -0.00586094 0)
(1.00443 -0.00737775 0)
(1.00907 -0.00925535 0)
(1.01233 -0.0124657 0)
(1.01118 -0.0147378 0)
(1.40799 0.363296 0)
(1.49008 0.257677 0)
(1.5432 0.14272 0)
(1.56583 0.0201545 0)
(1.55393 -0.0936611 0)
(1.4985 -0.188592 0)
(1.41693 -0.262437 0)
(1.33775 -0.298672 0)
(1.25984 -0.305318 0)
(1.18651 -0.304396 0)
(1.12393 -0.301705 0)
(1.07359 -0.290868 0)
(1.02967 -0.270644 0)
(0.995042 -0.24104 0)
(0.968575 -0.206863 0)
(0.951962 -0.169421 0)
(0.942126 -0.133708 0)
(0.939798 -0.099691 0)
(0.942336 -0.0704467 0)
(0.951838 -0.0458192 0)
(0.963257 -0.0294623 0)
(0.976398 -0.0172894 0)
(0.988362 -0.0130882 0)
(0.996975 -0.0108748 0)
(1.00379 -0.0113856 0)
(1.00802 -0.0124373 0)
(1.01082 -0.0151497 0)
(1.01033 -0.0173426 0)
(1.38874 0.289191 0)
(1.45161 0.208473 0)
(1.48675 0.117548 0)
(1.4957 0.0247804 0)
(1.47972 -0.0663437 0)
(1.43938 -0.148235 0)
(1.38098 -0.20693 0)
(1.31577 -0.241754 0)
(1.24869 -0.262846 0)
(1.18663 -0.27264 0)
(1.13239 -0.267295 0)
(1.08776 -0.248511 0)
(1.04858 -0.223832 0)
(1.01585 -0.197098 0)
(0.988651 -0.170784 0)
(0.969589 -0.143593 0)
(0.957375 -0.117189 0)
(0.952686 -0.0909596 0)
(0.95323 -0.067451 0)
(0.959959 -0.0466455 0)
(0.96897 -0.0318192 0)
(0.979526 -0.0204953 0)
(0.989737 -0.0154745 0)
(0.997065 -0.0124734 0)
(1.00342 -0.0122468 0)
(1.00718 -0.0125076 0)
(1.01017 -0.0141132 0)
(1.00993 -0.015284 0)
(1.34049 0.231482 0)
(1.38797 0.170926 0)
(1.41546 0.100077 0)
(1.42506 0.0272584 0)
(1.41369 -0.0461168 0)
(1.38523 -0.111897 0)
(1.34327 -0.16222 0)
(1.29086 -0.199504 0)
(1.23536 -0.22364 0)
(1.18585 -0.231521 0)
(1.13941 -0.228974 0)
(1.09606 -0.221705 0)
(1.05698 -0.21069 0)
(1.02604 -0.193224 0)
(1.00147 -0.17137 0)
(0.984094 -0.145777 0)
(0.971986 -0.120144 0)
(0.966229 -0.0944793 0)
(0.964836 -0.0716736 0)
(0.968833 -0.051527 0)
(0.975193 -0.0370487 0)
(0.983358 -0.0255402 0)
(0.991451 -0.0197879 0)
(0.997818 -0.0158483 0)
(1.00333 -0.0147222 0)
(1.00669 -0.0143877 0)
(1.00919 -0.0154441 0)
(1.00932 -0.0165682 0)
(1.29462 0.183872 0)
(1.33092 0.138167 0)
(1.35445 0.0847374 0)
(1.36264 0.0265555 0)
(1.35666 -0.0312387 0)
(1.33772 -0.0834265 0)
(1.30488 -0.128881 0)
(1.26546 -0.163251 0)
(1.22371 -0.184325 0)
(1.18101 -0.195896 0)
(1.13858 -0.200841 0)
(1.10086 -0.197462 0)
(1.06771 -0.186753 0)
(1.03983 -0.170458 0)
(1.01622 -0.151778 0)
(0.998265 -0.131066 0)
(0.985345 -0.110454 0)
(0.978089 -0.0894048 0)
(0.97524 -0.0702842 0)
(0.976972 -0.0527124 0)
(0.981319 -0.0395153 0)
(0.987194 -0.0287236 0)
(0.993712 -0.0226347 0)
(0.998702 -0.0181397 0)
(1.00354 -0.0165178 0)
(1.00629 -0.0154242 0)
(1.00874 -0.0158086 0)
(1.00895 -0.0159763 0)
(1.25688 0.145543 0)
(1.28428 0.111294 0)
(1.30253 0.0697931 0)
(1.31072 0.0249035 0)
(1.30763 -0.0202258 0)
(1.29385 -0.0635847 0)
(1.27107 -0.101335 0)
(1.24206 -0.130579 0)
(1.20778 -0.152459 0)
(1.17239 -0.166388 0)
(1.13759 -0.172227 0)
(1.10525 -0.170658 0)
(1.07516 -0.164241 0)
(1.04922 -0.153312 0)
(1.02718 -0.139554 0)
(1.01008 -0.12283 0)
(0.997296 -0.105313 0)
(0.989386 -0.0868656 0)
(0.985314 -0.069863 0)
(0.985098 -0.0540192 0)
(0.987443 -0.0418315 0)
(0.991355 -0.0315801 0)
(0.996146 -0.025273 0)
(1.00003 -0.0203791 0)
(1.00408 -0.0180217 0)
(1.0063 -0.0164156 0)
(1.00837 -0.0162026 0)
(1.00855 -0.0161914 0)
(1.22507 0.115311 0)
(1.24537 0.0887522 0)
(1.25976 0.0571103 0)
(1.26675 0.0224351 0)
(1.26542 -0.0135007 0)
(1.25661 -0.0479364 0)
(1.24033 -0.0790002 0)
(1.21806 -0.105202 0)
(1.19159 -0.125468 0)
(1.16337 -0.138683 0)
(1.13432 -0.145871 0)
(1.10627 -0.147283 0)
(1.08006 -0.144075 0)
(1.05689 -0.13627 0)
(1.03683 -0.1256 0)
(1.02058 -0.112051 0)
(1.00813 -0.0976287 0)
(0.999569 -0.0821344 0)
(0.99453 -0.0678058 0)
(0.992619 -0.0540498 0)
(0.993367 -0.0431045 0)
(0.995497 -0.0334886 0)
(0.998965 -0.0271898 0)
(1.00164 -0.0219801 0)
(1.00484 -0.0193822 0)
(1.00639 -0.0173509 0)
(1.00812 -0.0168812 0)
(1.0082 -0.0162798 0)
(1.19799 0.0910979 0)
(1.21315 0.0705422 0)
(1.22422 0.0461729 0)
(1.23005 0.0192324 0)
(1.22999 -0.00882472 0)
(1.22407 -0.0363246 0)
(1.21237 -0.0620755 0)
(1.1959 -0.0842372 0)
(1.1756 -0.102056 0)
(1.15296 -0.114832 0)
(1.12915 -0.122873 0)
(1.10559 -0.125848 0)
(1.0831 -0.124752 0)
(1.06254 -0.119668 0)
(1.04452 -0.111923 0)
(1.02936 -0.101423 0)
(1.01742 -0.0899075 0)
(1.0085 -0.077209 0)
(1.0028 -0.0651932 0)
(0.999607 -0.0532795 0)
(0.999108 -0.0434138 0)
(0.999705 -0.0345598 0)
(1.00186 -0.0284756 0)
(1.00332 -0.0233727 0)
(1.00575 -0.0205099 0)
(1.00661 -0.0181595 0)
(1.00806 -0.017269 0)
(1.00789 -0.0162113 0)
(1.17499 0.0718443 0)
(1.18627 0.0557906 0)
(1.19475 0.0368843 0)
(1.19945 0.0160382 0)
(1.19992 -0.00595635 0)
(1.19596 -0.0278296 0)
(1.18772 -0.0486581 0)
(1.17544 -0.0671022 0)
(1.15992 -0.0826735 0)
(1.14204 -0.0944287 0)
(1.12291 -0.102474 0)
(1.10329 -0.106418 0)
(1.08425 -0.10701 0)
(1.06633 -0.104067 0)
(1.0504 -0.0987266 0)
(1.03643 -0.0908421 0)
(1.02519 -0.0819092 0)
(1.01618 -0.0716305 0)
(1.01016 -0.0616491 0)
(1.00604 -0.0514561 0)
(1.00448 -0.0428423 0)
(1.00367 -0.0349305 0)
(1.00472 -0.0292573 0)
(1.00511 -0.0242662 0)
(1.0068 -0.0212482 0)
(1.00699 -0.0186188 0)
(1.00811 -0.017462 0)
(1.00758 -0.0160891 0)
(1.15531 0.0564869 0)
(1.16366 0.0438838 0)
(1.17012 0.0291833 0)
(1.17378 0.0130178 0)
(1.17451 -0.00417029 0)
(1.17182 -0.0214099 0)
(1.16598 -0.0381598 0)
(1.15681 -0.0533664 0)
(1.14508 -0.0666165 0)
(1.13108 -0.0770526 0)
(1.11586 -0.0847458 0)
(1.09972 -0.0891852 0)
(1.08391 -0.09087 0)
(1.06845 -0.089545 0)
(1.05456 -0.0861584 0)
(1.04185 -0.0804634 0)
(1.0315 -0.0736952 0)
(1.02268 -0.0655176 0)
(1.01657 -0.0574044 0)
(1.01169 -0.0489259 0)
(1.00932 -0.0415938 0)
(1.00739 -0.0345998 0)
(1.00752 -0.029367 0)
(1.00691 -0.024601 0)
(1.00795 -0.0215622 0)
(1.00744 -0.0187916 0)
(1.00821 -0.0175168 0)
(1.00728 -0.0158685 0)
(1.13837 0.0442481 0)
(1.14452 0.0343379 0)
(1.14945 0.0228805 0)
(1.15221 0.0103487 0)
(1.15297 -0.00305726 0)
(1.15108 -0.0165942 0)
(1.14696 -0.029966 0)
(1.14009 -0.0423147 0)
(1.13131 -0.0533852 0)
(1.12035 -0.0624419 0)
(1.10842 -0.0694996 0)
(1.09528 -0.0740139 0)
(1.08231 -0.0763737 0)
(1.06911 -0.0762326 0)
(1.0572 -0.0743425 0)
(1.04579 -0.0703934 0)
(1.03646 -0.065426 0)
(1.02795 -0.0591092 0)
(1.0219 -0.0527124 0)
(1.01653 -0.0457861 0)
(1.01364 -0.0396193 0)
(1.01078 -0.0335337 0)
(1.01017 -0.0288266 0)
(1.00868 -0.0243972 0)
(1.0091 -0.021479 0)
(1.0079 -0.0186884 0)
(1.00838 -0.0173485 0)
(1.00699 -0.0154909 0)
(1.12373 0.034513 0)
(1.12822 0.0267201 0)
(1.13198 0.0177835 0)
(1.13399 0.00806194 0)
(1.13474 -0.00236254 0)
(1.13333 -0.0129373 0)
(1.13045 -0.023523 0)
(1.12525 -0.0334387 0)
(1.11871 -0.0425611 0)
(1.11016 -0.0502384 0)
(1.10091 -0.0564992 0)
(1.09025 -0.0608297 0)
(1.07977 -0.0635106 0)
(1.0686 -0.064155 0)
(1.05855 -0.0633562 0)
(1.04841 -0.0607777 0)
(1.04011 -0.0573025 0)
(1.03202 -0.0525678 0)
(1.02624 -0.047627 0)
(1.02058 -0.0420657 0)
(1.01736 -0.0369932 0)
(1.01381 -0.0318069 0)
(1.0126 -0.0276904 0)
(1.01031 -0.0236949 0)
(1.01023 -0.020973 0)
(1.00839 -0.0182342 0)
(1.00858 -0.0168955 0)
(1.00671 -0.0149248 0)
(1.11106 0.0267691 0)
(1.11431 0.0206589 0)
(1.11719 0.0136986 0)
(1.11862 0.00618615 0)
(1.11931 -0.00189547 0)
(1.1182 -0.0101123 0)
(1.1162 -0.0184257 0)
(1.1122 -0.0263097 0)
(1.10738 -0.0337095 0)
(1.10067 -0.0400856 0)
(1.09357 -0.0454942 0)
(1.08495 -0.0494504 0)
(1.07658 -0.0521831 0)
(1.06719 -0.053296 0)
(1.05882 -0.0532596 0)
(1.04986 -0.0517319 0)
(1.04261 -0.0494223 0)
(1.03503 -0.0459675 0)
(1.02961 -0.0422612 0)
(1.02384 -0.0378954 0)
(1.02049 -0.0338164 0)
(1.01639 -0.0295133 0)
(1.01474 -0.0260176 0)
(1.0118 -0.0224763 0)
(1.01131 -0.0200041 0)
(1.00885 -0.0174147 0)
(1.0088 -0.0161414 0)
(1.00643 -0.0141445 0)
(1.10013 0.0206057 0)
(1.10246 0.0158409 0)
(1.1047 0.0104484 0)
(1.10565 0.00467122 0)
(1.10628 -0.00155961 0)
(1.10535 -0.00789113 0)
(1.104 -0.0143651 0)
(1.10087 -0.020551 0)
(1.09734 -0.0264645 0)
(1.09202 -0.03166 0)
(1.08662 -0.0362059 0)
(1.07962 -0.0396844 0)
(1.07303 -0.0422752 0)
(1.06513 -0.0436121 0)
(1.05824 -0.0440647 0)
(1.05038 -0.0432841 0)
(1.04413 -0.041854 0)
(1.03708 -0.0394294 0)
(1.03213 -0.0367296 0)
(1.02636 -0.0333857 0)
(1.02299 -0.0302075 0)
(1.01851 -0.0267186 0)
(1.01659 -0.0238121 0)
(1.01311 -0.02076 0)
(1.01227 -0.018599 0)
(1.00927 -0.0162282 0)
(1.00901 -0.0150637 0)
(1.00616 -0.0131249 0)
(1.09078 0.0156743 0)
(1.09242 0.0120007 0)
(1.0942 0.00786196 0)
(1.09479 0.0034629 0)
(1.09537 -0.00128917 0)
(1.09454 -0.00611402 0)
(1.09365 -0.0110873 0)
(1.09113 -0.015867 0)
(1.08858 -0.0205112 0)
(1.08431 -0.0246497 0)
(1.08023 -0.0283702 0)
(1.07451 -0.031314 0)
(1.06935 -0.0336372 0)
(1.06268 -0.0350116 0)
(1.05709 -0.0357194 0)
(1.05017 -0.0354484 0)
(1.04485 -0.0346573 0)
(1.03834 -0.0330192 0)
(1.03387 -0.0311258 0)
(1.02819 -0.0286462 0)
(1.02492 -0.0262279 0)
(1.0202 -0.0234659 0)
(1.0181 -0.0211405 0)
(1.01419 -0.018592 0)
(1.01312 -0.0167605 0)
(1.00962 -0.0146704 0)
(1.0092 -0.0136496 0)
(1.0059 -0.0118455 0)
(1.08289 0.0117011 0)
(1.08403 0.0089215 0)
(1.08547 0.0058024 0)
(1.0858 0.00251309 0)
(1.08635 -0.00104847 0)
(1.08558 -0.00465295 0)
(1.08502 -0.00839907 0)
(1.08294 -0.0120097 0)
(1.0811 -0.0155692 0)
(1.0776 -0.0187751 0)
(1.07454 -0.0217212 0)
(1.06979 -0.024115 0)
(1.06577 -0.0260891 0)
(1.0601 -0.0273607 0)
(1.05557 -0.0281541 0)
(1.04947 -0.0281948 0)
(1.04497 -0.0278286 0)
(1.03895 -0.0267837 0)
(1.03497 -0.0255157 0)
(1.02945 -0.0237273 0)
(1.02633 -0.0219516 0)
(1.02146 -0.019848 0)
(1.01929 -0.0180518 0)
(1.01507 -0.0159962 0)
(1.01382 -0.0145128 0)
(1.00991 -0.0127481 0)
(1.00937 -0.0118898 0)
(1.00566 -0.0102933 0)
(1.07642 0.00844421 0)
(1.07719 0.00641527 0)
(1.07841 0.00414298 0)
(1.07853 0.00176401 0)
(1.07907 -0.000817852 0)
(1.07833 -0.00342284 0)
(1.07802 -0.00614804 0)
(1.07623 -0.00877855 0)
(1.07493 -0.0114038 0)
(1.07199 -0.0137863 0)
(1.06968 -0.0160163 0)
(1.06565 -0.017864 0)
(1.06251 -0.0194381 0)
(1.0576 -0.0205155 0)
(1.05393 -0.0212628 0)
(1.04849 -0.0214529 0)
(1.04469 -0.0213505 0)
(1.0391 -0.0207262 0)
(1.03558 -0.0199169 0)
(1.03023 -0.0186879 0)
(1.0273 -0.0174437 0)
(1.02235 -0.0159077 0)
(1.02017 -0.0145884 0)
(1.01572 -0.013015 0)
(1.01436 -0.0118744 0)
(1.01012 -0.0104658 0)
(1.0095 -0.00978813 0)
(1.00544 -0.00846318 0)
(1.07138 0.00571016 0)
(1.07189 0.00432443 0)
(1.07296 0.00277483 0)
(1.07294 0.00116293 0)
(1.07348 -0.000590449 0)
(1.07274 -0.00235348 0)
(1.07261 -0.00420864 0)
(1.07102 -0.00599956 0)
(1.07009 -0.00780494 0)
(1.06753 -0.00945095 0)
(1.06577 -0.0110148 0)
(1.06226 -0.0123265 0)
(1.05976 -0.0134748 0)
(1.05542 -0.0142925 0)
(1.05239 -0.0148957 0)
(1.04746 -0.0151218 0)
(1.04421 -0.0151467 0)
(1.03898 -0.0148057 0)
(1.03584 -0.0143312 0)
(1.03066 -0.0135415 0)
(1.02791 -0.0127289 0)
(1.02293 -0.011689 0)
(1.02077 -0.0107946 0)
(1.01618 -0.00968013 0)
(1.01476 -0.00887332 0)
(1.01026 -0.00784998 0)
(1.0096 -0.00735932 0)
(1.00526 -0.00635846 0)
(1.06782 0.00331849 0)
(1.06817 0.00250729 0)
(1.06916 0.00160092 0)
(1.06904 0.000662927 0)
(1.06958 -0.000359253 0)
(1.06885 -0.00138357 0)
(1.06883 -0.00246661 0)
(1.06736 -0.00351167 0)
(1.06667 -0.00457259 0)
(1.06437 -0.00554439 0)
(1.06296 -0.00647437 0)
(1.05979 -0.00726386 0)
(1.05771 -0.00796408 0)
(1.05375 -0.00847719 0)
(1.05117 -0.00887047 0)
(1.04659 -0.00904315 0)
(1.04372 -0.00910027 0)
(1.03875 -0.00893988 0)
(1.03589 -0.00869927 0)
(1.03085 -0.00825926 0)
(1.02824 -0.007805 0)
(1.02326 -0.00720363 0)
(1.02115 -0.00668346 0)
(1.01647 -0.00601845 0)
(1.01501 -0.005537 0)
(1.01033 -0.00491035 0)
(1.00965 -0.00461248 0)
(1.00512 -0.00398502 0)
(1.06592 0.00108366 0)
(1.06619 0.000820055 0)
(1.06712 0.000522754 0)
(1.06696 0.000217868 0)
(1.0675 -0.000119719 0)
(1.06678 -0.000460369 0)
(1.06681 -0.000818978 0)
(1.0654 -0.00116958 0)
(1.06483 -0.00151973 0)
(1.06265 -0.0018375 0)
(1.06143 -0.00214313 0)
(1.05843 -0.00241205 0)
(1.05658 -0.00265131 0)
(1.05281 -0.00282602 0)
(1.05046 -0.00296176 0)
(1.04607 -0.00302478 0)
(1.04341 -0.00305327 0)
(1.03857 -0.00300614 0)
(1.03587 -0.00293431 0)
(1.03091 -0.00279329 0)
(1.02839 -0.00264587 0)
(1.0234 -0.00244992 0)
(1.02132 -0.0022784 0)
(1.01661 -0.00205643 0)
(1.01514 -0.0018967 0)
(1.01036 -0.00168366 0)
(1.00968 -0.00158328 0)
(1.00503 -0.00136861 0)
)
;

boundaryField
{
    outlet
    {
        type            zeroGradient;
    }
    upperWall
    {
        type            symmetryPlane;
    }
    lowerWall
    {
        type            symmetryPlane;
    }
    inlet
    {
        type            fixedValue;
        value           nonuniform 0();
    }
    cylinder
    {