/*--------------------------------*- C++ -*----------------------------------*\
| =========                 |                                                 |
| \\      /  F ield         | OpenFOAM: The Open Source CFD Toolbox           |
|  \\    /   O peration     | Version:                                        |
|   \\  /    A nd           | Website:  www.openfoam.com                      |
|    \\/     M anipulation  |                                                 |
\*---------------------------------------------------------------------------*/
FoamFile
{
    version     2.0;
    format      ascii;
    class       surfaceScalarField;
    location    "71";
    object      phi;
}
// * * * * * * * * * * * * * * * * * * * * * * * * * * * * * * * * * * * * * //

dimensions      [0 3 -1 0 0 0 0];
oriented        oriented;


internalField   nonuniform List<scalar> 
2365
(
1.32158e-05
2.50171e-11
1.32158e-05
1.65822e-11
1.32158e-05
9.00457e-12
1.32158e-05
2.36388e-12
1.32158e-05
-2.88403e-12
1.32158e-05
-7.43194e-12
1.32158e-05
-1.07861e-11
1.32158e-05
-1.36777e-11
1.32158e-05
-1.56009e-11
1.32158e-05
-1.72936e-11
1.32158e-05
-1.82065e-11
1.32158e-05
-1.90654e-11
1.32158e-05
-1.92827e-11
1.32158e-05
-1.95769e-11
1.32158e-05
-1.9328e-11
1.32158e-05
-1.92485e-11
1.32158e-05
-1.86951e-11
1.32158e-05
-1.83796e-11
1.32158e-05
-1.76387e-11
1.32158e-05
-1.71829e-11
1.32158e-05
-1.63352e-11
1.32158e-05
-1.58081e-11
1.32158e-05
-1.49128e-11
1.32158e-05
-1.43609e-11
1.32158e-05
-1.34564e-11
1.32158e-05
-1.29125e-11
1.32158e-05
-1.20258e-11
1.32158e-05
-1.15081e-11
1.32158e-05
-1.06534e-11
1.32158e-05
-1.01741e-11
1.32158e-05
-9.36161e-12
1.32158e-05
-8.9262e-12
1.32158e-05
-8.15965e-12
1.32158e-05
-7.77164e-12
1.32158e-05
-7.05373e-12
1.32158e-05
-6.71168e-12
1.32158e-05
-6.04025e-12
1.32158e-05
-5.74347e-12
1.32158e-05
-5.11832e-12
1.32158e-05
-4.86414e-12
1.32158e-05
-4.2825e-12
1.32158e-05
-4.06983e-12
1.32158e-05
-3.53042e-12
1.32158e-05
-3.35533e-12
1.32158e-05
-2.85398e-12
1.32158e-05
-2.71459e-12
1.32158e-05
-2.25025e-12
1.32158e-05
-2.14362e-12
1.32158e-05
-1.71335e-12
1.32158e-05
-1.63889e-12
1.32158e-05
-1.24174e-12
1.32158e-05
-1.19624e-12
1.32158e-05
-8.2881e-13
1.32158e-05
-8.11384e-13
1.32158e-05
-4.73457e-13
1.32158e-05
-4.82296e-13
1.32158e-05
-1.71854e-13
1.32158e-05
-2.07324e-13
1.32158e-05
7.57789e-14
1.32158e-05
1.6034e-14
1.32158e-05
2.74649e-13
1.32158e-05
1.90944e-13
1.32158e-05
4.25083e-13
1.32158e-05
3.18922e-13
1.32158e-05
5.30582e-13
1.32158e-05
4.01696e-13
1.32158e-05
5.91319e-13
1.32158e-05
4.42406e-13
1.32158e-05
6.13359e-13
1.32158e-05
4.45242e-13
1.32158e-05
5.9823e-13
1.32158e-05
4.13109e-13
1.32158e-05
5.50907e-13
1.32158e-05
3.49247e-13
1.32158e-05
4.72889e-13
1.32158e-05
2.5809e-13
1.32158e-05
3.71411e-13
1.32158e-05
1.44753e-13
1.32158e-05
2.48586e-13
1.32158e-05
1.23195e-14
1.32158e-05
1.08929e-13
1.32158e-05
-1.37059e-13
1.32158e-05
-4.81743e-14
1.32158e-05
-3.0225e-13
1.32158e-05
-2.20172e-13
1.32158e-05
-4.84412e-13
1.32158e-05
-4.13289e-13
1.32158e-05
-6.91094e-13
1.32158e-05
-6.36293e-13
1.32158e-05
-9.3671e-13
1.32158e-05
-9.10051e-13
1.32158e-05
-1.24462e-12
1.32158e-05
-1.26134e-12
1.32158e-05
-1.65103e-12
1.32158e-05
-1.73778e-12
1.32158e-05
-2.21214e-12
1.32158e-05
-2.40528e-12
1.32158e-05
-3.00931e-12
1.32158e-05
-3.36272e-12
1.32158e-05
-4.15719e-12
1.32158e-05
-4.74341e-12
1.32158e-05
-5.81595e-12
1.32158e-05
-6.73922e-12
1.32158e-05
-8.2096e-12
1.32158e-05
-9.61097e-12
1.32158e-05
-1.16447e-11
1.32158e-05
-1.37165e-11
1.32158e-05
-1.65325e-11
1.32158e-05
-1.95284e-11
1.32158e-05
-2.34188e-11
1.32158e-05
-2.76732e-11
1.32158e-05
-3.3012e-11
1.32158e-05
-3.89349e-11
1.32158e-05
-4.61494e-11
1.32158e-05
-5.41501e-11
1.32158e-05
-6.35901e-11
1.32158e-05
-7.39187e-11
1.32158e-05
-8.56654e-11
1.32158e-05
-9.81929e-11
1.32158e-05
-1.1187e-10
1.32158e-05
-1.25831e-10
1.32158e-05
-1.39673e-10
1.32158e-05
-1.52724e-10
1.32158e-05
-1.63715e-10
-1.64333e-10
1.33792e-05
2.30362e-11
1.33792e-05
1.54397e-11
1.33792e-05
8.47873e-12
1.33792e-05
2.48126e-12
1.33792e-05
-2.52492e-12
1.33792e-05
-6.72837e-12
1.33792e-05
-1.00854e-11
1.33792e-05
-1.28038e-11
1.33792e-05
-1.48533e-11
1.33792e-05
-1.64428e-11
1.33792e-05
-1.75254e-11
1.33792e-05
-1.82963e-11
1.33792e-05
-1.86896e-11
1.33792e-05
-1.8889e-11
1.33792e-05
-1.88106e-11
1.33792e-05
-1.86258e-11
1.33792e-05
-1.82364e-11
1.33792e-05
-1.78062e-11
1.33792e-05
-1.72251e-11
1.33792e-05
-1.6649e-11
1.33792e-05
-1.59592e-11
1.33792e-05
-1.53081e-11
1.33792e-05
-1.45698e-11
1.33792e-05
-1.38921e-11
1.33792e-05
-1.31441e-11
1.33792e-05
-1.24719e-11
1.33792e-05
-1.17406e-11
1.33792e-05
-1.10932e-11
1.33792e-05
-1.03929e-11
1.33792e-05
-9.78227e-12
1.33792e-05
-9.12286e-12
1.33792e-05
-8.55521e-12
1.33792e-05
-7.94023e-12
1.33792e-05
-7.41852e-12
1.33792e-05
-6.85036e-12
1.33792e-05
-6.37426e-12
1.33792e-05
-5.85118e-12
1.33792e-05
-5.42005e-12
1.33792e-05
-4.94205e-12
1.33792e-05
-4.55421e-12
1.33792e-05
-4.11865e-12
1.33792e-05
-3.7724e-12
1.33792e-05
-3.378e-12
1.33792e-05
-3.07037e-12
1.33792e-05
-2.71342e-12
1.33792e-05
-2.4424e-12
1.33792e-05
-2.12193e-12
1.33792e-05
-1.88531e-12
1.33792e-05
-1.59841e-12
1.33792e-05
-1.39456e-12
1.33792e-05
-1.14013e-12
1.33792e-05
-9.66508e-13
1.33792e-05
-7.41382e-13
1.33792e-05
-5.96661e-13
1.33792e-05
-4.00626e-13
1.33792e-05
-2.83414e-13
1.33792e-05
-1.14362e-13
1.33792e-05
-2.38702e-14
1.33792e-05
1.18542e-13
1.33792e-05
1.84131e-13
1.33792e-05
3.02439e-13
1.33792e-05
3.43933e-13
1.33792e-05
4.38015e-13
1.33792e-05
4.56494e-13
1.33792e-05
5.28291e-13
1.33792e-05
5.24539e-13
1.33792e-05
5.74562e-13
1.33792e-05
5.5064e-13
1.33792e-05
5.81822e-13
1.33792e-05
5.39051e-13
1.33792e-05
5.51898e-13
1.33792e-05
4.92095e-13
1.33792e-05
4.89417e-13
1.33792e-05
4.14246e-13
1.33792e-05
3.97434e-13
1.33792e-05
3.09932e-13
1.33792e-05
2.82819e-13
1.33792e-05
1.85161e-13
1.33792e-05
1.48938e-13
1.33792e-05
4.34176e-14
1.33792e-05
9.97711e-16
1.33792e-05
-1.1094e-13
1.33792e-05
-1.59068e-13
1.33792e-05
-2.75873e-13
1.33792e-05
-3.28256e-13
1.33792e-05
-4.51017e-13
1.33792e-05
-5.10978e-13
1.33792e-05
-6.43098e-13
1.33792e-05
-7.15065e-13
1.33792e-05
-8.64117e-13
1.33792e-05
-9.58693e-13
1.33792e-05
-1.13635e-12
1.33792e-05
-1.2679e-12
1.33792e-05
-1.49393e-12
1.33792e-05
-1.68767e-12
1.33792e-05
-1.99096e-12
1.33792e-05
-2.2811e-12
1.33792e-05
-2.70378e-12
1.33792e-05
-3.14106e-12
1.33792e-05
-3.74157e-12
1.33792e-05
-4.39475e-12
1.33792e-05
-5.25609e-12
1.33792e-05
-6.224e-12
1.33792e-05
-7.46089e-12
1.33792e-05
-8.87744e-12
1.33792e-05
-1.06474e-11
1.33792e-05
-1.26962e-11
1.33791e-05
-1.52105e-11
1.33791e-05
-1.81362e-11
1.33791e-05
-2.16773e-11
1.33791e-05
-2.58033e-11
1.33791e-05
-3.07317e-11
1.33791e-05
-3.64428e-11
1.33791e-05
-4.31473e-11
1.33791e-05
-5.08093e-11
1.33791e-05
-5.96025e-11
1.33791e-05
-6.94252e-11
1.33791e-05
-8.03578e-11
1.33791e-05
-9.22022e-11
1.33791e-05
-1.04891e-10
1.33791e-05
-1.17942e-10
1.33791e-05
-1.30637e-10
1.33791e-05
-1.42526e-10
1.33791e-05
-1.52569e-10
-1.53572e-10
1.32425e-05
2.01726e-11
1.32426e-05
1.38908e-11
1.32426e-05
7.96305e-12
1.32426e-05
2.72625e-12
1.32426e-05
-1.78775e-12
1.32426e-05
-5.63004e-12
1.32426e-05
-8.79313e-12
1.32426e-05
-1.13672e-11
1.32426e-05
-1.33748e-11
1.32426e-05
-1.49202e-11
1.32426e-05
-1.60257e-11
1.32426e-05
-1.67918e-11
1.32425e-05
-1.72337e-11
1.32425e-05
-1.74432e-11
1.32425e-05
-1.74231e-11
1.32425e-05
-1.72539e-11
1.32425e-05
-1.69279e-11
1.32425e-05
-1.65166e-11
1.32425e-05
-1.60016e-11
1.32425e-05
-1.5446e-11
1.32425e-05
-1.48247e-11
1.32425e-05
-1.41954e-11
1.32425e-05
-1.35262e-11
1.32425e-05
-1.28696e-11
1.32425e-05
-1.21902e-11
1.32425e-05
-1.15378e-11
1.32425e-05
-1.08731e-11
1.32425e-05
-1.02427e-11
1.32425e-05
-9.60653e-12
1.32425e-05
-9.01048e-12
1.32425e-05
-8.41201e-12
1.32425e-05
-7.85549e-12
1.32425e-05
-7.29847e-12
1.32425e-05
-6.78502e-12
1.32425e-05
-6.27127e-12
1.32425e-05
-5.80032e-12
1.32425e-05
-5.32921e-12
1.32425e-05
-4.90124e-12
1.32425e-05
-4.47257e-12
1.32425e-05
-4.08562e-12
1.32425e-05
-3.69749e-12
1.32425e-05
-3.35071e-12
1.32425e-05
-3.00153e-12
1.32425e-05
-2.6917e-12
1.32425e-05
-2.37885e-12
1.32425e-05
-2.10497e-12
1.32425e-05
-1.82708e-12
1.32425e-05
-1.5865e-12
1.32425e-05
-1.34118e-12
1.32425e-05
-1.13269e-12
1.32425e-05
-9.1825e-13
1.32425e-05
-7.38858e-13
1.32425e-05
-5.52912e-13
1.32425e-05
-4.02004e-13
1.32425e-05
-2.43829e-13
1.32425e-05
-1.19248e-13
1.32425e-05
1.29334e-14
1.32425e-05
1.116e-13
1.32425e-05
2.18775e-13
1.32425e-05
2.93866e-13
1.32425e-05
3.77763e-13
1.32425e-05
4.29355e-13
1.32425e-05
4.9029e-13
1.32425e-05
5.20145e-13
1.32425e-05
5.5959e-13
1.32425e-05
5.67994e-13
1.32425e-05
5.87026e-13
1.32425e-05
5.76415e-13
1.32425e-05
5.77084e-13
1.32425e-05
5.48137e-13
1.32425e-05
5.31389e-13
1.32425e-05
4.8662e-13
1.32425e-05
4.54998e-13
1.32425e-05
3.95751e-13
1.32425e-05
3.51451e-13
1.32425e-05
2.81659e-13
1.32425e-05
2.2804e-13
1.32425e-05
1.49537e-13
1.32425e-05
8.88201e-14
1.32425e-05
5.05086e-15
1.32425e-05
-5.96838e-14
1.32425e-05
-1.47069e-13
1.32425e-05
-2.1408e-13
1.32425e-05
-3.02334e-13
1.32425e-05
-3.70254e-13
1.32425e-05
-4.60547e-13
1.32425e-05
-5.31345e-13
1.32425e-05
-6.25729e-13
1.32425e-05
-7.03385e-13
1.32425e-05
-8.08884e-13
1.32425e-05
-9.02281e-13
1.32425e-05
-1.02893e-12
1.32425e-05
-1.15166e-12
1.32425e-05
-1.31829e-12
1.32425e-05
-1.49279e-12
1.32425e-05
-1.72502e-12
1.32425e-05
-1.98265e-12
1.32425e-05
-2.31911e-12
1.32425e-05
-2.70526e-12
1.32425e-05
-3.19814e-12
1.32425e-05
-3.77538e-12
1.32425e-05
-4.50046e-12
1.32425e-05
-5.35767e-12
1.32425e-05
-6.41827e-12
1.32425e-05
-7.6771e-12
1.32425e-05
-9.21684e-12
1.32425e-05
-1.10449e-11
1.32425e-05
-1.32572e-11
1.32425e-05
-1.58795e-11
1.32425e-05
-1.90271e-11
1.32425e-05
-2.2742e-11
1.32425e-05
-2.71516e-11
1.32425e-05
-3.23033e-11
1.32425e-05
-3.83174e-11
1.32425e-05
-4.52209e-11
1.32425e-05
-5.3098e-11
1.32425e-05
-6.19306e-11
1.32425e-05
-7.16999e-11
1.32424e-05
-8.22682e-11
1.32424e-05
-9.35105e-11
1.32424e-05
-1.05036e-10
1.32424e-05
-1.16054e-10
1.32424e-05
-1.26224e-10
1.32424e-05
-1.34933e-10
-1.36293e-10
1.27796e-05
1.68467e-11
1.27796e-05
1.20513e-11
1.27796e-05
7.33654e-12
1.27796e-05
2.98613e-12
1.27796e-05
-9.12924e-13
1.27796e-05
-4.30411e-12
1.27796e-05
-7.17083e-12
1.27796e-05
-9.52652e-12
1.27796e-05
-1.14068e-11
1.27796e-05
-1.2853e-11
1.27796e-05
-1.39173e-11
1.27796e-05
-1.46482e-11
1.27796e-05
-1.50982e-11
1.27796e-05
-1.53106e-11
1.27796e-05
-1.53283e-11
1.27796e-05
-1.51863e-11
1.27796e-05
-1.49189e-11
1.27796e-05
-1.4551e-11
1.27796e-05
-1.41074e-11
1.27796e-05
-1.36051e-11
1.27796e-05
-1.30631e-11
1.27796e-05
-1.24932e-11
1.27796e-05
-1.19062e-11
1.27796e-05
-1.13101e-11
1.27796e-05
-1.07137e-11
1.27796e-05
-1.01208e-11
1.27796e-05
-9.53539e-12
1.27796e-05
-8.9613e-12
1.27796e-05
-8.40203e-12
1.27796e-05
-7.85789e-12
1.27796e-05
-7.33119e-12
1.27796e-05
-6.82177e-12
1.27796e-05
-6.33237e-12
1.27796e-05
-5.86133e-12
1.27796e-05
-5.40988e-12
1.27796e-05
-4.97679e-12
1.27796e-05
-4.56438e-12
1.27796e-05
-4.17043e-12
1.27796e-05
-3.79598e-12
1.27796e-05
-3.43931e-12
1.27796e-05
-3.10252e-12
1.27796e-05
-2.7828e-12
1.27796e-05
-2.48117e-12
1.27796e-05
-2.19583e-12
1.27796e-05
-1.92787e-12
1.27796e-05
-1.67608e-12
1.27796e-05
-1.44056e-12
1.27796e-05
-1.21919e-12
1.27796e-05
-1.01439e-12
1.27796e-05
-8.23225e-13
1.27796e-05
-6.46136e-13
1.27796e-05
-4.81128e-13
1.27796e-05
-3.31548e-13
1.27796e-05
-1.93292e-13
1.27796e-05
-6.83239e-14
1.27796e-05
4.58856e-14
1.27796e-05
1.46508e-13
1.27796e-05
2.36944e-13
1.27796e-05
3.15406e-13
1.27796e-05
3.84493e-13
1.27796e-05
4.41094e-13
1.27796e-05
4.88486e-13
1.27796e-05
5.2471e-13
1.27796e-05
5.52018e-13
1.27796e-05
5.6865e-13
1.27796e-05
5.76287e-13
1.27796e-05
5.74308e-13
1.27796e-05
5.65116e-13
1.27796e-05
5.45746e-13
1.27796e-05
5.19228e-13
1.27796e-05
4.8525e-13
1.27796e-05
4.44758e-13
1.27796e-05
3.9646e-13
1.27796e-05
3.43685e-13
1.27796e-05
2.85336e-13
1.27796e-05
2.23865e-13
1.27796e-05
1.58351e-13
1.27796e-05
9.04595e-14
1.27796e-05
2.04791e-14
1.27796e-05
-4.9253e-14
1.27796e-05
-1.20722e-13
1.27796e-05
-1.90682e-13
1.27796e-05
-2.60106e-13
1.27796e-05
-3.2727e-13
1.27796e-05
-3.93539e-13
1.27796e-05
-4.58425e-13
1.27796e-05
-5.22792e-13
1.27796e-05
-5.86055e-13
1.27796e-05
-6.52207e-13
1.27796e-05
-7.20809e-13
1.27796e-05
-7.94592e-13
1.27796e-05
-8.76542e-13
1.27796e-05
-9.72239e-13
1.27796e-05
-1.08402e-12
1.27796e-05
-1.21976e-12
1.27796e-05
-1.38297e-12
1.27796e-05
-1.58644e-12
1.27796e-05
-1.83565e-12
1.27796e-05
-2.14414e-12
1.27796e-05
-2.52345e-12
1.27796e-05
-2.99136e-12
1.27796e-05
-3.56539e-12
1.27796e-05
-4.26853e-12
1.27796e-05
-5.12483e-12
1.27796e-05
-6.16795e-12
1.27796e-05
-7.43063e-12
1.27796e-05
-8.95673e-12
1.27796e-05
-1.07937e-11
1.27796e-05
-1.30009e-11
1.27796e-05
-1.56414e-11
1.27796e-05
-1.87874e-11
1.27796e-05
-2.25137e-11
1.27795e-05
-2.68949e-11
1.27795e-05
-3.19943e-11
1.27795e-05
-3.78676e-11
1.27795e-05
-4.45498e-11
1.27795e-05
-5.20474e-11
1.27795e-05
-6.02928e-11
1.27795e-05
-6.91719e-11
1.27795e-05
-7.8524e-11
1.27795e-05
-8.80292e-11
1.27794e-05
-9.69341e-11
1.27794e-05
-1.04948e-10
1.27794e-05
-1.11967e-10
-1.13764e-10
1.19641e-05
1.30766e-11
1.19641e-05
9.94909e-12
1.19641e-05
6.54488e-12
1.19641e-05
3.0986e-12
1.19641e-05
-8.79711e-14
1.19641e-05
-2.93194e-12
1.19641e-05
-5.4709e-12
1.19641e-05
-7.50254e-12
1.19641e-05
-9.1336e-12
1.19641e-05
-1.04352e-11
1.19641e-05
-1.13599e-11
1.19641e-05
-1.20382e-11
1.19641e-05
-1.24246e-11
1.19641e-05
-1.26468e-11
1.19641e-05
-1.26549e-11
1.19641e-05
-1.25689e-11
1.19641e-05
-1.23286e-11
1.19641e-05
-1.20454e-11
1.19641e-05
-1.1607e-11
1.19641e-05
-1.12553e-11
1.19641e-05
-1.08243e-11
1.19641e-05
-1.03213e-11
1.19641e-05
-9.80584e-12
1.19641e-05
-9.3274e-12
1.19641e-05
-8.8032e-12
1.19641e-05
-8.27965e-12
1.19641e-05
-7.85621e-12
1.19641e-05
-7.34916e-12
1.19641e-05
-6.85499e-12
1.19641e-05
-6.41732e-12
1.19641e-05
-5.95028e-12
1.19641e-05
-5.54275e-12
1.19641e-05
-5.10666e-12
1.19641e-05
-4.73007e-12
1.19641e-05
-4.32612e-12
1.19641e-05
-3.98303e-12
1.19641e-05
-3.61224e-12
1.19641e-05
-3.3015e-12
1.19641e-05
-2.96359e-12
1.19641e-05
-2.68638e-12
1.19641e-05
-2.38095e-12
1.19641e-05
-2.13467e-12
1.19641e-05
-1.86008e-12
1.19641e-05
-1.59921e-12
1.19641e-05
-1.44606e-12
1.19641e-05
-1.21346e-12
1.19641e-05
-9.96932e-13
1.19641e-05
-8.38287e-13
1.19641e-05
-6.48504e-13
1.19641e-05
-4.69012e-13
1.19641e-05
-3.49619e-13
1.19641e-05
-2.86292e-13
1.19641e-05
-9.86838e-14
1.19641e-05
-1.12935e-14
1.19641e-05
1.08828e-13
1.19641e-05
1.74177e-13
1.19641e-05
2.73498e-13
1.19641e-05
3.1965e-13
1.19641e-05
3.99796e-13
1.19641e-05
4.26317e-13
1.19641e-05
4.8774e-13
1.19641e-05
4.96772e-13
1.19641e-05
5.40453e-13
1.19641e-05
5.76874e-13
1.19641e-05
5.11745e-13
1.19641e-05
5.32427e-13
1.19641e-05
5.43146e-13
1.19641e-05
5.02043e-13
1.19641e-05
4.97861e-13
1.19641e-05
4.89177e-13
1.19641e-05
3.80414e-13
1.19641e-05
3.58804e-13
1.19641e-05
3.30501e-13
1.19641e-05
2.54477e-13
1.19641e-05
2.1846e-13
1.19641e-05
1.81078e-13
1.19641e-05
4.86402e-14
1.19641e-05
9.00451e-15
1.19641e-05
-3.3036e-14
1.19641e-05
-1.18727e-13
1.19641e-05
-1.58839e-13
1.19641e-05
-2.40005e-13
1.19641e-05
-2.74799e-13
1.19641e-05
-3.04863e-13
1.19641e-05
-4.24708e-13
1.19641e-05
-4.47213e-13
1.19641e-05
-4.69012e-13
1.19641e-05
-5.32648e-13
1.19641e-05
-5.51016e-13
1.19641e-05
-5.67027e-13
1.19641e-05
-6.79052e-13
1.19641e-05
-7.02616e-13
1.19641e-05
-7.35887e-13
1.19641e-05
-8.24144e-13
1.19641e-05
-8.39888e-13
1.19641e-05
-1.0589e-12
1.19641e-05
-1.12516e-12
1.19641e-05
-1.31632e-12
1.19641e-05
-1.50912e-12
1.19641e-05
-1.756e-12
1.19641e-05
-2.16433e-12
1.19641e-05
-2.56184e-12
1.19641e-05
-3.06214e-12
1.19641e-05
-3.72796e-12
1.19641e-05
-4.49509e-12
1.19641e-05
-5.47986e-12
1.19641e-05
-6.62903e-12
1.19641e-05
-8.02508e-12
1.19641e-05
-9.80789e-12
1.19641e-05
-1.18453e-11
1.1964e-05
-1.42896e-11
1.1964e-05
-1.7245e-11
1.1964e-05
-2.0679e-11
1.1964e-05
-2.47342e-11
1.1964e-05
-2.9315e-11
1.1964e-05
-3.47148e-11
1.1964e-05
-4.05631e-11
1.1964e-05
-4.70518e-11
1.1964e-05
-5.39152e-11
1.1964e-05
-6.1053e-11
1.19639e-05
-6.8282e-11
1.19639e-05
-7.48732e-11
1.19639e-05
-8.0412e-11
1.19639e-05
-8.54441e-11
-8.77704e-11
1.07698e-05
9.48726e-12
1.07698e-05
7.76975e-12
1.07698e-05
5.53137e-12
1.07699e-05
2.9567e-12
1.07699e-05
4.90039e-13
1.07699e-05
-1.82582e-12
1.07698e-05
-3.77375e-12
1.07698e-05
-5.46799e-12
1.07698e-05
-6.76296e-12
1.07698e-05
-7.83555e-12
1.07698e-05
-8.5579e-12
1.07698e-05
-9.12653e-12
1.07698e-05
-9.41281e-12
1.07698e-05
-9.61911e-12
1.07698e-05
-9.60336e-12
1.07698e-05
-9.56496e-12
1.07698e-05
-9.35104e-12
1.07698e-05
-9.16089e-12
1.07698e-05
-8.82749e-12
1.07698e-05
-8.54804e-12
1.07698e-05
-8.14788e-12
1.07698e-05
-7.82441e-12
1.07698e-05
-7.39433e-12
1.07698e-05
-7.05384e-12
1.07698e-05
-6.61505e-12
1.07698e-05
-6.27662e-12
1.07698e-05
-5.84549e-12
1.07698e-05
-5.51816e-12
1.07698e-05
-5.1009e-12
1.07698e-05
-4.79371e-12
1.07698e-05
-4.39795e-12
1.07698e-05
-4.11223e-12
1.07698e-05
-3.73934e-12
1.07698e-05
-3.47919e-12
1.07698e-05
-3.13258e-12
1.07698e-05
-2.89688e-12
1.07698e-05
-2.57582e-12
1.07698e-05
-2.3672e-12
1.07698e-05
-2.07384e-12
1.07698e-05
-1.89005e-12
1.07698e-05
-1.62236e-12
1.07698e-05
-1.46476e-12
1.07698e-05
-1.22365e-12
1.07698e-05
-1.08881e-12
1.07698e-05
-8.72078e-13
1.07698e-05
-7.61373e-13
1.07698e-05
-5.68648e-13
1.07698e-05
-4.78974e-13
1.07698e-05
-3.07567e-13
1.07698e-05
-2.38721e-13
1.07698e-05
-8.87866e-14
1.07698e-05
-3.80643e-14
1.07698e-05
9.40121e-14
1.07698e-05
1.26407e-13
1.07698e-05
2.39356e-13
1.07698e-05
2.56367e-13
1.07698e-05
3.53354e-13
1.07698e-05
3.53987e-13
1.07698e-05
4.34363e-13
1.07698e-05
4.21384e-13
1.07698e-05
4.87479e-13
1.07698e-05
4.59204e-13
1.07698e-05
5.09791e-13
1.07698e-05
4.69021e-13
1.07698e-05
5.06131e-13
1.07698e-05
4.51222e-13
1.07698e-05
4.75127e-13
1.07698e-05
4.08665e-13
1.07698e-05
4.21691e-13
1.07698e-05
3.43374e-13
1.07698e-05
3.44969e-13
1.07698e-05
2.58157e-13
1.07698e-05
2.53286e-13
1.07698e-05
1.58169e-13
1.07698e-05
1.4764e-13
1.07698e-05
4.99133e-14
1.07698e-05
3.82245e-14
1.07698e-05
-6.1397e-14
1.07698e-05
-7.16501e-14
1.07698e-05
-1.68007e-13
1.07698e-05
-1.72193e-13
1.07698e-05
-2.63802e-13
1.07698e-05
-2.60793e-13
1.07698e-05
-3.42914e-13
1.07698e-05
-3.29934e-13
1.07698e-05
-4.04118e-13
1.07698e-05
-3.82076e-13
1.07698e-05
-4.4741e-13
1.07698e-05
-4.17291e-13
1.07698e-05
-4.78247e-13
1.07698e-05
-4.46923e-13
1.07698e-05
-5.0791e-13
1.07698e-05
-4.81026e-13
1.07698e-05
-5.54224e-13
1.07698e-05
-5.45659e-13
1.07698e-05
-6.43043e-13
1.07698e-05
-6.68092e-13
1.07698e-05
-8.0985e-13
1.07698e-05
-8.92928e-13
1.07698e-05
-1.10336e-12
1.07698e-05
-1.27401e-12
1.07698e-05
-1.59191e-12
1.07698e-05
-1.89373e-12
1.07698e-05
-2.36786e-12
1.07698e-05
-2.85926e-12
1.07698e-05
-3.56166e-12
1.07698e-05
-4.32821e-12
1.07698e-05
-5.35548e-12
1.07698e-05
-6.51446e-12
1.07698e-05
-8.00879e-12
1.07697e-05
-9.71721e-12
1.07697e-05
-1.18482e-11
1.07697e-05
-1.4284e-11
1.07697e-05
-1.72214e-11
1.07697e-05
-2.0524e-11
1.07697e-05
-2.43616e-11
1.07697e-05
-2.85519e-11
1.07697e-05
-3.31679e-11
1.07697e-05
-3.79273e-11
1.07697e-05
-4.28759e-11
1.07696e-05
-4.76588e-11
1.07696e-05
-5.18374e-11
1.07696e-05
-5.48178e-11
1.07696e-05
-5.76055e-11
-6.05097e-11
9.17056e-06
6.00261e-12
9.17057e-06
5.84937e-12
9.17057e-06
4.1299e-12
9.17057e-06
2.74599e-12
9.17057e-06
5.2176e-13
9.17057e-06
-7.06901e-13
9.17057e-06
-2.56588e-12
9.17057e-06
-3.31107e-12
9.17057e-06
-4.69751e-12
9.17057e-06
-4.97229e-12
9.17056e-06
-5.95212e-12
9.17056e-06
-5.85906e-12
9.17056e-06
-6.54257e-12
9.17056e-06
-6.18678e-12
9.17055e-06
-6.66821e-12
9.17055e-06
-6.13788e-12
9.17055e-06
-6.49432e-12
9.17055e-06
-5.85249e-12
9.17055e-06
-6.13402e-12
9.17054e-06
-5.42691e-12
9.17054e-06
-5.67171e-12
9.17054e-06
-4.92861e-12
9.17054e-06
-5.15686e-12
9.17054e-06
-4.39885e-12
9.17053e-06
-4.62729e-12
9.17053e-06
-3.8659e-12
9.17053e-06
-4.09988e-12
9.17053e-06
-3.34463e-12
9.17053e-06
-3.59196e-12
9.17053e-06
-2.84723e-12
9.17052e-06
-3.10782e-12
9.17052e-06
-2.37861e-12
9.17052e-06
-2.6565e-12
9.17052e-06
-1.94421e-12
9.17052e-06
-2.23715e-12
9.17052e-06
-1.5448e-12
9.17052e-06
-1.85566e-12
9.17051e-06
-1.18335e-12
9.17051e-06
-1.50935e-12
9.17051e-06
-8.58914e-13
9.17051e-06
-1.20212e-12
9.17051e-06
-5.72422e-13
9.17051e-06
-9.29389e-13
9.17051e-06
-3.21217e-13
9.17051e-06
-6.93627e-13
9.17051e-06
-1.05124e-13
9.17051e-06
-4.89688e-13
9.17051e-06
7.90118e-14
9.17051e-06
-3.19011e-13
9.17051e-06
2.32288e-13
9.1705e-06
-1.75502e-13
9.1705e-06
3.58577e-13
9.1705e-06
-6.07531e-14
9.1705e-06
4.5842e-13
9.1705e-06
3.08727e-14
9.1705e-06
5.34917e-13
9.1705e-06
9.71582e-14
9.1705e-06
5.88365e-13
9.1705e-06
1.43367e-13
9.1705e-06
6.21431e-13
9.1705e-06
1.66586e-13
9.1705e-06
6.3336e-13
9.1705e-06
1.70977e-13
9.1705e-06
6.25958e-13
9.1705e-06
1.53494e-13
9.1705e-06
5.99034e-13
9.1705e-06
1.19034e-13
9.1705e-06
5.55245e-13
9.1705e-06
6.53306e-14
9.1705e-06
4.94881e-13
9.1705e-06
-1.54357e-15
9.1705e-06
4.2232e-13
9.1705e-06
-8.21779e-14
9.1705e-06
3.40116e-13
9.1705e-06
-1.67799e-13
9.1705e-06
2.54698e-13
9.1705e-06
-2.5686e-13
9.1705e-06
1.70168e-13
9.1705e-06
-3.3994e-13
9.1705e-06
9.35537e-14
9.1705e-06
-4.14862e-13
9.1705e-06
2.88823e-14
9.1705e-06
-4.72506e-13
9.1705e-06
-1.81866e-14
9.1705e-06
-5.13407e-13
9.1705e-06
-4.69372e-14
9.1705e-06
-5.3281e-13
9.1705e-06
-5.65656e-14
9.1705e-06
-5.36402e-13
9.1705e-06
-5.23827e-14
9.1705e-06
-5.25856e-13
9.1705e-06
-4.03463e-14
9.1705e-06
-5.15007e-13
9.1705e-06
-3.45041e-14
9.1705e-06
-5.14984e-13
9.1705e-06
-5.08129e-14
9.1705e-06
-5.49772e-13
9.1705e-06
-1.14016e-13
9.1705e-06
-6.42494e-13
9.1705e-06
-2.53521e-13
9.1705e-06
-8.33015e-13
9.1705e-06
-5.12644e-13
9.17049e-06
-1.16731e-12
9.17049e-06
-9.47714e-13
9.17049e-06
-1.7163e-12
9.17049e-06
-1.63999e-12
9.17049e-06
-2.53911e-12
9.17049e-06
-2.73706e-12
9.17048e-06
-3.87742e-12
9.17048e-06
-4.30874e-12
9.17047e-06
-5.82561e-12
9.17047e-06
-6.67243e-12
9.17046e-06
-8.65355e-12
9.17046e-06
-1.00227e-11
9.17045e-06
-1.25546e-11
9.17044e-06
-1.4487e-11
9.17043e-06
-1.75417e-11
9.17042e-06
-1.99216e-11
9.1704e-06
-2.32423e-11
9.17038e-06
-2.57109e-11
9.17037e-06
-2.87848e-11
9.17034e-06
-3.04525e-11
9.1703e-06
-3.15423e-11
9.17032e-06
-3.21367e-11
-3.52433e-11
7.14018e-06
4.56956e-12
7.14018e-06
3.86393e-12
7.14019e-06
3.74303e-12
7.14019e-06
1.74828e-12
7.14019e-06
1.31005e-12
7.14019e-06
-5.37244e-13
7.14019e-06
-6.19551e-13
7.14019e-06
-2.12604e-12
7.14019e-06
-1.85656e-12
7.14018e-06
-3.07862e-12
7.14018e-06
-2.54533e-12
7.14018e-06
-3.56969e-12
7.14018e-06
-2.85054e-12
7.14018e-06
-3.74678e-12
7.14017e-06
-2.90458e-12
7.14017e-06
-3.72313e-12
7.14017e-06
-2.79919e-12
7.14017e-06
-3.57404e-12
7.14017e-06
-2.60035e-12
7.14016e-06
-3.35397e-12
7.14016e-06
-2.34894e-12
7.14016e-06
-3.09511e-12
7.14016e-06
-2.07446e-12
7.14015e-06
-2.82079e-12
7.14015e-06
-1.79268e-12
7.14015e-06
-2.54375e-12
7.14015e-06
-1.51421e-12
7.14015e-06
-2.27208e-12
7.14015e-06
-1.24586e-12
7.14015e-06
-2.01114e-12
7.14015e-06
-9.91529e-13
7.14014e-06
-1.76492e-12
7.14014e-06
-7.53578e-13
7.14014e-06
-1.53397e-12
7.14014e-06
-5.34764e-13
7.14014e-06
-1.32185e-12
7.14014e-06
-3.34415e-13
7.14014e-06
-1.12759e-12
7.14014e-06
-1.55066e-13
7.14013e-06
-9.54003e-13
7.14014e-06
5.00477e-15
7.14013e-06
-7.98343e-13
7.14013e-06
1.43956e-13
7.14013e-06
-6.6396e-13
7.14013e-06
2.65802e-13
7.14013e-06
-5.4599e-13
7.14013e-06
3.67409e-13
7.14013e-06
-4.47967e-13
7.14013e-06
4.53925e-13
7.14013e-06
-3.64263e-13
7.14013e-06
5.22934e-13
7.14013e-06
-2.97819e-13
7.14013e-06
5.79551e-13
7.14013e-06
-2.43937e-13
7.14013e-06
6.21457e-13
7.14013e-06
-2.04336e-13
7.14013e-06
6.52009e-13
7.14013e-06
-1.75935e-13
7.14013e-06
6.70424e-13
7.14013e-06
-1.60123e-13
7.14013e-06
6.78971e-13
7.14013e-06
-1.54555e-13
7.14013e-06
6.76729e-13
7.14013e-06
-1.61742e-13
7.14013e-06
6.64174e-13
7.14013e-06
-1.77569e-13
7.14013e-06
6.42338e-13
7.14013e-06
-2.05675e-13
7.14013e-06
6.11488e-13
7.14013e-06
-2.41056e-13
7.14013e-06
5.72525e-13
7.14013e-06
-2.86008e-13
7.14013e-06
5.28371e-13
7.14013e-06
-3.35515e-13
7.14013e-06
4.79914e-13
7.14013e-06
-3.8866e-13
7.14013e-06
4.31899e-13
7.14013e-06
-4.39962e-13
7.14013e-06
3.85705e-13
7.14013e-06
-4.87919e-13
7.14013e-06
3.46558e-13
7.14013e-06
-5.26661e-13
7.14013e-06
3.15951e-13
7.14013e-06
-5.54522e-13
7.14013e-06
2.97376e-13
7.14013e-06
-5.69137e-13
7.14013e-06
2.91506e-13
7.14013e-06
-5.70022e-13
7.14013e-06
2.97449e-13
7.14013e-06
-5.58508e-13
7.14013e-06
3.13256e-13
7.14013e-06
-5.38427e-13
7.14013e-06
3.34353e-13
7.14013e-06
-5.14313e-13
7.14013e-06
3.52424e-13
7.14013e-06
-4.96686e-13
7.14013e-06
3.60195e-13
7.14013e-06
-4.95308e-13
7.14013e-06
3.41696e-13
7.14012e-06
-5.25541e-13
7.14012e-06
2.83268e-13
7.14012e-06
-6.07021e-13
7.14012e-06
1.59672e-13
7.14012e-06
-7.68008e-13
7.14012e-06
-5.86201e-14
7.14012e-06
-1.04294e-12
7.14012e-06
-4.19309e-13
7.14011e-06
-1.49207e-12
7.14011e-06
-9.9216e-13
7.14011e-06
-2.19839e-12
7.14011e-06
-1.88184e-12
7.1401e-06
-3.28157e-12
7.1401e-06
-3.20188e-12
7.14009e-06
-4.85204e-12
7.14008e-06
-5.04329e-12
7.14007e-06
-6.94088e-12
7.14007e-06
-7.37229e-12
7.14006e-06
-9.46232e-12
7.14005e-06
-1.01076e-11
7.14003e-06
-1.20664e-11
7.14002e-06
-1.25289e-11
7.14e-06
-1.41082e-11
7.13996e-06
-1.42034e-11
7.13998e-06
-1.19225e-11
-1.45959e-11
4.65263e-06
2.42064e-12
4.65264e-06
3.02341e-12
4.65264e-06
2.21629e-12
4.65264e-06
1.81253e-12
4.65264e-06
8.18366e-13
4.65264e-06
6.23531e-13
4.65264e-06
-1.08234e-13
4.65264e-06
-4.16735e-14
4.65264e-06
-5.93766e-13
4.65264e-06
-4.05789e-13
4.65264e-06
-8.42914e-13
4.65264e-06
-5.69532e-13
4.65263e-06
-9.51491e-13
4.65263e-06
-6.27618e-13
4.65263e-06
-9.7974e-13
4.65263e-06
-6.25062e-13
4.65263e-06
-9.62295e-13
4.65263e-06
-5.89179e-13
4.65262e-06
-9.19708e-13
4.65262e-06
-5.35673e-13
4.65262e-06
-8.64846e-13
4.65262e-06
-4.75198e-13
4.65262e-06
-8.05139e-13
4.65262e-06
-4.25469e-13
4.65261e-06
-7.3205e-13
4.65261e-06
-3.51689e-13
4.65261e-06
-6.85538e-13
4.65261e-06
-3.05369e-13
4.65261e-06
-6.15622e-13
4.65261e-06
-2.36806e-13
4.65261e-06
-5.73575e-13
4.65261e-06
-1.83673e-13
4.6526e-06
-5.21244e-13
4.65261e-06
-1.33682e-13
4.6526e-06
-4.71039e-13
4.6526e-06
-8.60234e-14
4.6526e-06
-4.23204e-13
4.6526e-06
-4.14371e-14
4.6526e-06
-3.77933e-13
4.6526e-06
4.69235e-16
4.6526e-06
-3.35414e-13
4.6526e-06
2.64752e-14
4.6526e-06
-2.8294e-13
4.6526e-06
7.52235e-14
4.6526e-06
-2.59139e-13
4.6526e-06
9.49472e-14
4.6526e-06
-2.1331e-13
4.6526e-06
1.3685e-13
4.6526e-06
-1.96568e-13
4.6526e-06
1.4966e-13
4.6526e-06
-1.57721e-13
4.6526e-06
1.8496e-13
4.6526e-06
-1.4782e-13
4.6526e-06
2.04072e-13
4.6526e-06
-1.28426e-13
4.6526e-06
2.205e-13
4.65259e-06
-1.11919e-13
4.6526e-06
2.34323e-13
4.65259e-06
-9.76626e-14
4.6526e-06
2.4661e-13
4.65259e-06
-8.54818e-14
4.6526e-06
2.57098e-13
4.65259e-06
-8.78137e-14
4.6526e-06
2.79156e-13
4.65259e-06
-6.65467e-14
4.6526e-06
2.74034e-13
4.65259e-06
-7.25392e-14
4.6526e-06
2.93008e-13
4.6526e-06
-5.55393e-14
4.6526e-06
2.83827e-13
4.6526e-06
-5.43468e-14
4.6526e-06
2.8457e-13
4.6526e-06
-5.69879e-14
4.6526e-06
2.81502e-13
4.6526e-06
-6.35373e-14
4.6526e-06
2.74875e-13
4.6526e-06
-7.42226e-14
4.6526e-06
2.63986e-13
4.6526e-06
-8.87059e-14
4.6526e-06
2.49814e-13
4.6526e-06
-1.06202e-13
4.6526e-06
2.32825e-13
4.6526e-06
-1.25059e-13
4.6526e-06
2.02381e-13
4.6526e-06
-1.31113e-13
4.6526e-06
1.97517e-13
4.6526e-06
-1.60926e-13
4.6526e-06
1.69457e-13
4.6526e-06
-1.62002e-13
4.6526e-06
1.70039e-13
4.6526e-06
-1.83823e-13
4.6526e-06
1.62749e-13
4.6526e-06
-1.87609e-13
4.6526e-06
1.59918e-13
4.65259e-06
-1.8621e-13
4.6526e-06
1.61706e-13
4.65259e-06
-1.93575e-13
4.6526e-06
1.78571e-13
4.65259e-06
-1.73986e-13
4.65259e-06
1.69333e-13
4.65259e-06
-1.70463e-13
4.65259e-06
1.65929e-13
4.65259e-06
-1.77444e-13
4.65259e-06
1.4749e-13
4.65259e-06
-2.05664e-13
4.65259e-06
8.63171e-14
4.65259e-06
-2.61735e-13
4.65259e-06
-5.27134e-15
4.65259e-06
-4.16466e-13
4.65259e-06
-2.15813e-13
4.65258e-06
-6.56686e-13
4.65258e-06
-5.24411e-13
4.65258e-06
-1.05611e-12
4.65257e-06
-9.84165e-13
4.65257e-06
-1.58024e-12
4.65256e-06
-1.56031e-12
4.65256e-06
-2.19062e-12
4.65255e-06
-2.3355e-12
4.65254e-06
-3.13604e-12
4.65254e-06
-3.30577e-12
4.65253e-06
-3.70398e-12
4.65251e-06
-5.12743e-12
4.65248e-06
-4.90141e-12
4.65251e-06
8.27877e-12
6.55596e-12
1.68193e-06
1.68193e-06
1.68193e-06
1.68194e-06
1.68194e-06
1.68194e-06
1.68194e-06
1.68194e-06
1.68194e-06
1.68194e-06
1.68193e-06
1.68193e-06
1.68193e-06
1.68193e-06
1.68193e-06
1.68193e-06
1.68193e-06
1.68193e-06
1.68193e-06
1.68193e-06
1.68193e-06
1.68193e-06
1.68193e-06
1.68193e-06
1.68193e-06
1.68193e-06
1.68192e-06
1.68192e-06
1.68192e-06
1.68192e-06
1.68192e-06
1.68192e-06
1.68192e-06
1.68192e-06
1.68192e-06
1.68192e-06
1.68192e-06
1.68192e-06
1.68192e-06
1.68192e-06
1.68192e-06
1.68192e-06
1.68192e-06
1.68192e-06
1.68192e-06
1.68192e-06
1.68192e-06
1.68192e-06
1.68192e-06
1.68192e-06
1.68192e-06
1.68192e-06
1.68192e-06
1.68192e-06
1.68192e-06
1.68192e-06
1.68192e-06
1.68192e-06
1.68192e-06
1.68192e-06
1.68192e-06
1.68192e-06
1.68192e-06
1.68192e-06
1.68192e-06
1.68192e-06
1.68192e-06
1.68192e-06
1.68192e-06
1.68192e-06
1.68192e-06
1.68192e-06
1.68192e-06
1.68192e-06
1.68192e-06
1.68192e-06
1.68192e-06
1.68192e-06
1.68192e-06
1.68192e-06
1.68192e-06
1.68192e-06
1.68192e-06
1.68192e-06
1.68192e-06
1.68192e-06
1.68192e-06
1.68192e-06
1.68192e-06
1.68192e-06
1.68192e-06
1.68192e-06
1.68192e-06
1.68192e-06
1.68192e-06
1.68192e-06
1.68192e-06
1.68192e-06
1.68192e-06
1.68192e-06
1.68192e-06
1.68192e-06
1.68192e-06
1.68192e-06
1.68192e-06
1.68192e-06
1.68192e-06
1.68192e-06
1.68192e-06
1.68192e-06
1.68191e-06
1.68191e-06
1.68191e-06
1.68191e-06
1.68191e-06
1.68191e-06
1.6819e-06
1.6819e-06
1.6819e-06
1.6819e-06
1.68189e-06
1.68189e-06
1.68188e-06
1.68189e-06
)
;

boundaryField
{
    inlet
    {
        type            calculated;
        value           nonuniform 0();
    }