/*--------------------------------*- C++ -*----------------------------------*\
| =========                 |                                                 |
| \\      /  F ield         | OpenFOAM: The Open Source CFD Toolbox           |
|  \\    /   O peration     | Version:                                        |
|   \\  /    A nd           | Website:  www.openfoam.com                      |
|    \\/     M anipulation  |                                                 |
\*---------------------------------------------------------------------------*/
FoamFile
{
    version     2.0;
    format      ascii;
    class       volVectorField;
    location    "71";
    object      U;
}
// * * * * * * * * * * * * * * * * * * * * * * * * * * * * * * * * * * * * * //

dimensions      [0 1 -1 0 0 0 0];


internalField   nonuniform List<vector> 
1250
(
(1.447 3.44469e-06 1.55299e-12)
(1.447 2.2834e-06 1.45191e-12)
(1.447 1.20552e-06 1.36192e-12)
(1.447 3.07055e-07 1.28325e-12)
(1.447 -4.47366e-07 1.21691e-12)
(1.447 -1.05003e-06 1.165e-12)
(1.447 -1.53881e-06 1.13054e-12)
(1.447 -1.90683e-06 1.11835e-12)
(1.447 -2.19532e-06 1.13549e-12)
(1.447 -2.39485e-06 1.19208e-12)
(1.447 -2.54386e-06 1.30215e-12)
(1.447 -2.62825e-06 1.4843e-12)
(1.447 -2.68318e-06 1.76143e-12)
(1.447 -2.69051e-06 2.15695e-12)
(1.447 -2.68308e-06 2.6838e-12)
(1.447 -2.63991e-06 3.31795e-12)
(1.447 -2.5923e-06 3.94937e-12)
(1.447 -2.51708e-06 4.32376e-12)
(1.447 -2.44468e-06 4.08026e-12)
(1.447 -2.35047e-06 3.164e-12)
(1.447 -2.26421e-06 2.02474e-12)
(1.447 -2.16007e-06 1.09901e-12)
(1.447 -2.0675e-06 5.14118e-13)
(1.447 -1.95992e-06 2.54814e-13)
(1.447 -1.86641e-06 2.76272e-13)
(1.447 -1.75965e-06 5.48471e-13)
(1.447 -1.66857e-06 1.06383e-12)
(1.447 -1.56543e-06 1.82694e-12)
(1.447 -1.47893e-06 2.8279e-12)
(1.447 -1.38097e-06 3.99616e-12)
(1.447 -1.3002e-06 5.1483e-12)
(1.447 -1.2084e-06 6.03887e-12)
(1.447 -1.13408e-06 6.7855e-12)
(1.447 -1.04883e-06 8.05933e-12)
(1.447 -9.81068e-07 1.04238e-11)
(1.447 -9.02451e-07 1.32683e-11)
(1.447 -8.41188e-07 1.14886e-11)
(1.447 -7.68959e-07 4.01641e-12)
(1.447 -7.13904e-07 -1.04479e-12)
(1.447 -6.47889e-07 -1.20973e-12)
(1.447 -5.98847e-07 4.95409e-14)
(1.447 -5.38715e-07 1.44067e-12)
(1.447 -4.95288e-07 2.76301e-12)
(1.447 -4.407e-07 4.60918e-12)
(1.447 -4.02531e-07 7.54591e-12)
(1.447 -3.53047e-07 1.09996e-11)
(1.447 -3.19712e-07 9.92573e-12)
(1.447 -2.75087e-07 3.34213e-12)
(1.447 -2.46392e-07 -5.29463e-13)
(1.447 -2.06296e-07 9.26066e-13)
(1.447 -1.81901e-07 4.21665e-12)
(1.447 -1.46091e-07 7.08308e-12)
(1.447 -1.25747e-07 3.89625e-12)
(1.447 -9.38946e-08 -6.21072e-12)
(1.447 -7.73214e-08 -1.47872e-11)
(1.447 -4.93217e-08 -1.84485e-11)
(1.447 -3.64746e-08 -1.55865e-11)
(1.447 -1.21418e-08 -6.55275e-12)
(1.447 -2.81936e-09 1.80245e-13)
(1.447 1.79729e-08 2.50956e-12)
(1.447 2.39063e-08 4.30008e-12)
(1.447 4.14003e-08 6.79453e-12)
(1.447 4.41417e-08 9.49141e-12)
(1.447 5.83991e-08 7.24131e-12)
(1.447 5.79805e-08 -1.12927e-12)
(1.447 6.9191e-08 -7.53051e-12)
(1.447 6.58391e-08 -8.6452e-12)
(1.447 7.41819e-08 -2.83332e-12)
(1.447 6.81087e-08 9.17644e-12)
(1.447 7.39314e-08 1.43754e-11)
(1.447 6.54519e-08 9.63794e-12)
(1.447 6.89513e-08 6.60934e-12)
(1.447 5.82326e-08 8.76645e-12)
(1.447 5.9735e-08 1.1994e-11)
(1.447 4.71468e-08 1.01032e-11)
(1.447 4.69526e-08 2.06411e-12)
(1.447 3.28072e-08 -3.89276e-12)
(1.447 3.13381e-08 -5.4354e-12)
(1.447 1.59844e-08 -5.88667e-12)
(1.447 1.34279e-08 -5.8331e-12)
(1.447 -3.02598e-09 -5.10472e-12)
(1.447 -6.49495e-09 -3.5376e-12)
(1.447 -2.38981e-08 -9.76991e-13)
(1.447 -2.83043e-08 2.63876e-12)
(1.447 -4.67769e-08 6.53782e-12)
(1.447 -5.22842e-08 5.64332e-12)
(1.447 -7.21805e-08 -9.91844e-13)
(1.447 -7.95117e-08 -5.06141e-12)
(1.447 -1.01821e-07 -3.77602e-12)
(1.447 -1.12138e-07 -2.98123e-13)
(1.447 -1.38291e-07 3.57528e-12)
(1.447 -1.53537e-07 2.41697e-12)
(1.447 -1.85907e-07 -4.89342e-12)
(1.447 -2.089e-07 -1.02142e-11)
(1.447 -2.50943e-07 -1.09507e-11)
(1.447 -2.86069e-07 -1.0361e-11)
(1.447 -3.43017e-07 -9.47221e-12)
(1.447 -3.96408e-07 -8.59314e-12)
(1.447 -4.75502e-07 -7.80306e-12)
(1.447 -5.55859e-07 -7.11042e-12)
(1.447 -6.67347e-07 -6.50424e-12)
(1.447 -7.86678e-07 -5.9704e-12)
(1.447 -9.44696e-07 -5.49625e-12)
(1.447 -1.11978e-06 -5.07152e-12)
(1.447 -1.34391e-06 -4.68819e-12)
(1.447 -1.59746e-06 -4.33993e-12)
(1.447 -1.91399e-06 -4.02176e-12)
(1.447 -2.27643e-06 -3.72983e-12)
(1.447 -2.72028e-06 -3.46105e-12)
(1.447 -3.23157e-06 -3.2129e-12)
(1.447 -3.84821e-06 -2.98329e-12)
(1.447 -4.55961e-06 -2.77053e-12)
(1.447 -5.40525e-06 -2.57319e-12)
(1.447 -6.3759e-06 -2.39013e-12)
(1.447 -7.50896e-06 -2.22038e-12)
(1.447 -8.79104e-06 -2.06312e-12)
(1.447 -1.02509e-05 -1.91781e-12)
(1.447 -1.1862e-05 -1.78407e-12)
(1.447 -1.36347e-05 -1.66174e-12)
(1.447 -1.55221e-05 -1.55103e-12)
(1.447 -1.74846e-05 -1.45251e-12)
(1.447 -1.93916e-05 -1.36736e-12)
(1.447 -2.1196e-05 -1.2975e-12)
(1.447 -2.27008e-05 -1.24595e-12)
(1.447 -2.27943e-05 -1.21734e-12)
(1.33751 3.01792e-06 1.42012e-12)
(1.33751 2.01279e-06 1.33257e-12)
(1.33751 1.09617e-06 1.25404e-12)
(1.33751 3.05075e-07 1.18494e-12)
(1.33751 -3.4087e-07 1.12645e-12)
(1.33751 -8.86142e-07 1.08037e-12)
(1.33751 -1.30923e-06 1.04915e-12)
(1.33751 -1.65731e-06 1.03663e-12)
(1.33751 -1.90909e-06 1.04791e-12)
(1.33751 -2.11157e-06 1.08984e-12)
(1.33751 -2.23985e-06 1.17132e-12)
(1.33751 -2.33895e-06 1.30268e-12)
(1.33751 -2.38067e-06 1.49441e-12)
(1.33751 -2.40856e-06 1.7536e-12)
(1.33751 -2.39155e-06 2.07623e-12)
(1.33751 -2.37186e-06 2.43446e-12)
(1.33751 -2.3163e-06 2.76056e-12)
(1.33751 -2.26636e-06 2.94105e-12)
(1.33751 -2.18704e-06 2.85447e-12)
(1.33751 -2.11909e-06 2.48129e-12)
(1.33751 -2.02629e-06 1.95216e-12)
(1.33751 -1.94913e-06 1.43588e-12)
(1.33751 -1.85031e-06 1.03867e-12)
(1.33751 -1.76992e-06 8.05904e-13)
(1.33751 -1.66996e-06 7.49664e-13)
(1.33751 -1.5904e-06 8.70529e-13)
(1.33751 -1.49263e-06 1.16701e-12)
(1.33751 -1.41627e-06 1.63441e-12)
(1.33751 -1.32245e-06 2.25534e-12)
(1.33751 -1.25081e-06 2.98629e-12)
(1.33751 -1.1622e-06 3.75288e-12)
(1.33751 -1.09599e-06 4.48664e-12)
(1.33751 -1.01304e-06 5.22226e-12)
(1.33751 -9.52678e-07 6.1029e-12)
(1.33751 -8.7568e-07 7.14644e-12)
(1.33751 -8.21046e-07 7.88027e-12)
(1.33751 -7.49751e-07 7.08533e-12)
(1.33751 -7.00754e-07 4.63232e-12)
(1.33751 -6.35135e-07 2.38558e-12)
(1.33751 -5.91511e-07 1.44134e-12)
(1.33751 -5.31233e-07 1.42425e-12)
(1.33751 -4.92803e-07 1.8935e-12)
(1.33751 -4.377e-07 2.6466e-12)
(1.33751 -4.0403e-07 3.70168e-12)
(1.33751 -3.53612e-07 5.02045e-12)
(1.33751 -3.24462e-07 6.11424e-12)
(1.33751 -2.78588e-07 5.77063e-12)
(1.33751 -2.53654e-07 3.87717e-12)
(1.33751 -2.11981e-07 2.30525e-12)
(1.33751 -1.91109e-07 2.09802e-12)
(1.33751 -1.53511e-07 2.64043e-12)
(1.33751 -1.36352e-07 2.80154e-12)
(1.33751 -1.0242e-07 1.00327e-12)
(1.33751 -8.88374e-08 -2.90469e-12)
(1.33751 -5.85383e-08 -6.80031e-12)
(1.33751 -4.83455e-08 -8.9325e-12)
(1.33751 -2.14439e-08 -8.39147e-12)
(1.33751 -1.46005e-08 -5.49791e-12)
(1.33751 8.93537e-09 -2.36457e-12)
(1.33751 1.26883e-08 -1.13206e-13)
(1.33751 3.31945e-08 1.63328e-12)
(1.33751 3.39369e-08 3.13198e-12)
(1.33751 5.14094e-08 4.03561e-12)
(1.33751 4.92988e-08 3.18705e-12)
(1.33751 6.39702e-08 5.25372e-13)
(1.33751 5.90523e-08 -1.88751e-12)
(1.33751 7.09854e-08 -2.39192e-12)
(1.33751 6.35546e-08 -2.53469e-13)
(1.33751 7.31419e-08 3.73814e-12)
(1.33751 6.33382e-08 6.36824e-12)
(1.33751 7.06505e-08 6.41182e-12)
(1.33751 5.87149e-08 6.02495e-12)
(1.33751 6.4076e-08 6.45784e-12)
(1.33751 5.01411e-08 6.92299e-12)
(1.33751 5.37014e-08 5.84142e-12)
(1.33751 3.81485e-08 2.94735e-12)
(1.33751 4.03751e-08 7.28737e-14)
(1.33751 2.34197e-08 -1.70149e-12)
(1.33751 2.44215e-08 -2.6603e-12)
(1.33751 6.33676e-09 -3.02128e-12)
(1.33751 6.41373e-09 -2.82818e-12)
(1.33751 -1.27241e-08 -2.07803e-12)
(1.33751 -1.35658e-08 -8.02977e-13)
(1.33751 -3.35684e-08 8.0872e-13)
(1.33751 -3.51811e-08 2.15668e-12)
(1.33751 -5.62411e-08 1.9781e-12)
(1.33751 -5.90818e-08 1.60894e-13)
(1.33751 -8.16265e-08 -1.37701e-12)
(1.33751 -8.63133e-08 -1.49343e-12)
(1.33751 -1.11374e-07 -6.49167e-13)
(1.33751 -1.19279e-07 1.94672e-13)
(1.33751 -1.48311e-07 -4.73299e-13)
(1.33751 -1.61278e-07 -2.9242e-12)
(1.33751 -1.96811e-07 -5.34071e-12)
(1.33751 -2.18066e-07 -6.6078e-12)
(1.33751 -2.63775e-07 -7.03448e-12)
(1.33751 -2.97733e-07 -6.99555e-12)
(1.33751 -3.59073e-07 -6.73063e-12)
(1.33751 -4.12271e-07 -6.36979e-12)
(1.33751 -4.96718e-07 -5.97851e-12)
(1.33751 -5.7802e-07 -5.58812e-12)
(1.33751 -6.96272e-07 -5.21274e-12)
(1.33751 -8.184e-07 -4.85801e-12)
(1.33751 -9.85185e-07 -4.5255e-12)
(1.33751 -1.16539e-06 -4.215e-12)
(1.33751 -1.40098e-06 -3.92544e-12)
(1.3375 -1.66284e-06 -3.65546e-12)
(1.3375 -1.99423e-06 -3.40372e-12)
(1.3375 -2.36899e-06 -3.16892e-12)
(1.3375 -2.83225e-06 -2.94983e-12)
(1.3375 -3.36124e-06 -2.74539e-12)
(1.3375 -4.00256e-06 -2.55464e-12)
(1.3375 -4.73571e-06 -2.3767e-12)
(1.3375 -5.60625e-06 -2.21084e-12)
(1.3375 -6.59195e-06 -2.05647e-12)
(1.3375 -7.73267e-06 -1.91307e-12)
(1.3375 -8.999e-06 -1.78025e-12)
(1.3375 -1.04178e-05 -1.65784e-12)
(1.3375 -1.1948e-05 -1.54585e-12)
(1.3375 -1.35987e-05 -1.44455e-12)
(1.3375 -1.52958e-05 -1.35453e-12)
(1.3375 -1.69617e-05 -1.27692e-12)
(1.3375 -1.85304e-05 -1.21354e-12)
(1.3375 -1.98495e-05 -1.16708e-12)
(1.3375 -1.99531e-05 -1.14153e-12)
(1.21794 2.48803e-06 1.25962e-12)
(1.21794 1.68534e-06 1.1871e-12)
(1.21794 9.43274e-07 1.12139e-12)
(1.21794 2.96016e-07 1.06312e-12)
(1.21794 -2.50187e-07 1.01348e-12)
(1.21794 -7.13641e-07 9.74024e-13)
(1.21794 -1.08755e-06 9.46904e-13)
(1.21794 -1.39323e-06 9.34918e-13)
(1.21794 -1.62597e-06 9.41556e-13)
(1.21794 -1.80795e-06 9.71358e-13)
(1.21794 -1.93333e-06 1.02963e-12)
(1.21794 -2.02342e-06 1.12176e-12)
(1.21794 -2.07085e-06 1.25171e-12)
(1.21794 -2.09589e-06 1.41991e-12)
(1.21794 -2.08937e-06 1.61894e-12)
(1.21794 -2.07032e-06 1.82819e-12)
(1.21794 -2.0281e-06 2.00991e-12)
(1.21794 -1.98085e-06 2.11239e-12)
(1.21794 -1.91658e-06 2.08846e-12)
(1.21794 -1.85253e-06 1.9289e-12)
(1.21794 -1.77579e-06 1.67666e-12)
(1.21794 -1.70314e-06 1.40057e-12)
(1.21794 -1.6208e-06 1.16163e-12)
(1.21794 -1.54502e-06 1.0012e-12)
(1.21794 -1.46152e-06 9.42723e-13)
(1.21794 -1.38631e-06 9.98157e-13)
(1.21794 -1.30461e-06 1.17194e-12)
(1.21794 -1.2321e-06 1.4618e-12)
(1.21794 -1.15382e-06 1.85588e-12)
(1.21794 -1.08541e-06 2.33041e-12)
(1.21794 -1.01167e-06 2.85154e-12)
(1.21794 -9.48013e-07 3.38929e-12)
(1.21794 -8.79226e-07 3.93721e-12)
(1.21794 -8.20697e-07 4.49855e-12)
(1.21794 -7.57106e-07 5.01027e-12)
(1.21794 -7.03643e-07 5.25776e-12)
(1.21794 -6.45105e-07 4.91981e-12)
(1.21794 -5.96708e-07 3.99779e-12)
(1.21794 -5.43221e-07 2.98889e-12)
(1.21794 -4.9967e-07 2.32231e-12)
(1.21794 -4.50968e-07 2.06932e-12)
(1.21794 -4.12124e-07 2.14987e-12)
(1.21794 -3.68043e-07 2.4758e-12)
(1.21794 -3.33547e-07 2.98204e-12)
(1.21794 -2.93713e-07 3.55943e-12)
(1.21794 -2.63395e-07 3.96591e-12)
(1.21794 -2.27699e-07 3.8636e-12)
(1.21794 -2.01268e-07 3.23721e-12)
(1.21794 -1.6939e-07 2.54984e-12)
(1.21794 -1.46704e-07 2.14831e-12)
(1.21794 -1.18487e-07 1.92529e-12)
(1.21794 -9.92023e-08 1.48337e-12)
(1.21794 -7.43329e-08 3.60682e-13)
(1.21794 -5.83618e-08 -1.45567e-12)
(1.21794 -3.67786e-08 -3.3327e-12)
(1.21794 -2.39087e-08 -4.54785e-12)
(1.21794 -5.38758e-09 -4.65841e-12)
(1.21794 4.4439e-09 -3.72607e-12)
(1.21794 1.99775e-08 -2.33432e-12)
(1.21794 2.70206e-08 -9.72867e-13)
(1.21794 3.98196e-08 2.15121e-13)
(1.21794 4.4115e-08 1.15937e-12)
(1.21794 5.41869e-08 1.67618e-12)
(1.21794 5.58999e-08 1.48946e-12)
(1.21794 6.34558e-08 6.74336e-13)
(1.21794 6.26459e-08 -1.32807e-13)
(1.21794 6.77578e-08 -2.67669e-13)
(1.21794 6.46998e-08 5.81496e-13)
(1.21794 6.76695e-08 2.11604e-12)
(1.21794 6.24518e-08 3.44371e-12)
(1.21794 6.33636e-08 4.07462e-12)
(1.21794 5.62469e-08 4.32998e-12)
(1.21794 5.53951e-08 4.52247e-12)
(1.21794 4.65468e-08 4.49969e-12)
(1.21794 4.41414e-08 3.87987e-12)
(1.21794 3.3956e-08 2.6091e-12)
(1.21794 3.04236e-08 1.15913e-12)
(1.21794 1.91248e-08 -3.86884e-14)
(1.21794 1.46354e-08 -8.66755e-13)
(1.21794 2.56731e-09 -1.31741e-12)
(1.21794 -2.52116e-09 -1.39816e-12)
(1.21794 -1.51942e-08 -1.12968e-12)
(1.21794 -2.07531e-08 -5.7433e-13)
(1.21794 -3.3776e-08 1.16217e-13)
(1.21794 -3.9627e-08 6.52618e-13)
(1.21794 -5.3129e-08 6.67177e-13)
(1.21794 -5.95979e-08 1.39641e-13)
(1.21794 -7.38715e-08 -4.45036e-13)
(1.21794 -8.14242e-08 -6.91716e-13)
(1.21794 -9.73239e-08 -6.40348e-13)
(1.21794 -1.07074e-07 -6.26681e-13)
(1.21794 -1.25826e-07 -1.10174e-12)
(1.21794 -1.39392e-07 -2.15761e-12)
(1.21794 -1.63216e-07 -3.348e-12)
(1.21794 -1.83348e-07 -4.25798e-12)
(1.21794 -2.15373e-07 -4.80496e-12)
(1.21794 -2.45836e-07 -5.0527e-12)
(1.21794 -2.90736e-07 -5.09257e-12)
(1.21794 -3.37069e-07 -5.00076e-12)
(1.21794 -4.01208e-07 -4.83091e-12)
(1.21794 -4.70977e-07 -4.61807e-12)
(1.21794 -5.6351e-07 -4.38419e-12)
(1.21794 -6.67567e-07 -4.14271e-12)
(1.21794 -8.01055e-07 -3.90172e-12)
(1.21794 -9.54131e-07 -3.66599e-12)
(1.21794 -1.14596e-06 -3.43834e-12)
(1.21794 -1.36831e-06 -3.2203e-12)
(1.21794 -1.64183e-06 -3.01263e-12)
(1.21794 -1.96056e-06 -2.81563e-12)
(1.21794 -2.34722e-06 -2.62936e-12)
(1.21794 -2.79825e-06 -2.45368e-12)
(1.21794 -3.33767e-06 -2.28834e-12)
(1.21794 -3.96298e-06 -2.13298e-12)
(1.21794 -4.69723e-06 -1.98735e-12)
(1.21793 -5.53583e-06 -1.85123e-12)
(1.21793 -6.49751e-06 -1.72434e-12)
(1.21793 -7.57149e-06 -1.60652e-12)
(1.21793 -8.76515e-06 -1.49777e-12)
(1.21793 -1.00556e-05 -1.39823e-12)
(1.21793 -1.14354e-05 -1.30826e-12)
(1.21793 -1.28511e-05 -1.22841e-12)
(1.21793 -1.42187e-05 -1.15978e-12)
(1.21793 -1.5491e-05 -1.10403e-12)
(1.21793 -1.65713e-05 -1.06346e-12)
(1.21793 -1.67067e-05 -1.04135e-12)
(1.0883 1.96514e-06 1.08339e-12)
(1.0883 1.37596e-06 1.0258e-12)
(1.0883 8.12028e-07 9.7295e-13)
(1.0883 3.03553e-07 9.25673e-13)
(1.0883 -1.42479e-07 8.85103e-13)
(1.0883 -5.27244e-07 8.52622e-13)
(1.0883 -8.47933e-07 8.29923e-13)
(1.0883 -1.11125e-06 8.19082e-13)
(1.0883 -1.31866e-06 8.22582e-13)
(1.0883 -1.4792e-06 8.4321e-13)
(1.0883 -1.59523e-06 8.83965e-13)
(1.0883 -1.67611e-06 9.47338e-13)
(1.0883 -1.72389e-06 1.03446e-12)
(1.0883 -1.74725e-06 1.14349e-12)
(1.0883 -1.74712e-06 1.26791e-12)
(1.0883 -1.73119e-06 1.39417e-12)
(1.0883 -1.69935e-06 1.50175e-12)
(1.0883 -1.65831e-06 1.56585e-12)
(1.0883 -1.60685e-06 1.56592e-12)
(1.0883 -1.55085e-06 1.49711e-12)
(1.0883 -1.48841e-06 1.37544e-12)
(1.0883 -1.4248e-06 1.23092e-12)
(1.0883 -1.35737e-06 1.09627e-12)
(1.0883 -1.29089e-06 9.99218e-13)
(1.0883 -1.22239e-06 9.59833e-13)
(1.0883 -1.15629e-06 9.90835e-13)
(1.0883 -1.08915e-06 1.09876e-12)
(1.0883 -1.02522e-06 1.28401e-12)
(1.0883 -9.60988e-07 1.54033e-12)
(1.0883 -9.00498e-07 1.85464e-12)
(1.0883 -8.4001e-07 2.20872e-12)
(1.0883 -7.83484e-07 2.58334e-12)
(1.0883 -7.27196e-07 2.96108e-12)
(1.0883 -6.7501e-07 3.31864e-12)
(1.0883 -6.23055e-07 3.60524e-12)
(1.0883 -5.75163e-07 3.72963e-12)
(1.0883 -5.27567e-07 3.59746e-12)
(1.0883 -4.84055e-07 3.22103e-12)
(1.0883 -4.40754e-07 2.75596e-12)
(1.0883 -4.01424e-07 2.3727e-12)
(1.0883 -3.623e-07 2.1552e-12)
(1.0883 -3.27084e-07 2.11364e-12)
(1.0883 -2.9192e-07 2.22138e-12)
(1.0883 -2.60509e-07 2.43221e-12)
(1.0883 -2.29099e-07 2.67118e-12)
(1.0883 -2.01399e-07 2.82562e-12)
(1.0883 -1.73586e-07 2.78084e-12)
(1.0883 -1.49304e-07 2.52452e-12)
(1.0883 -1.24878e-07 2.17377e-12)
(1.0883 -1.03915e-07 1.83439e-12)
(1.0883 -8.2626e-08 1.48786e-12)
(1.0883 -6.46306e-08 1.01106e-12)
(1.0883 -4.63294e-08 2.74755e-13)
(1.0883 -3.12829e-08 -7.01619e-13)
(1.0883 -1.57943e-08 -1.69383e-12)
(1.0883 -3.44338e-09 -2.40895e-12)
(1.0883 9.35225e-09 -2.64057e-12)
(1.0883 1.90522e-08 -2.37169e-12)
(1.0883 2.9326e-08 -1.77235e-12)
(1.0883 3.66226e-08 -1.04785e-12)
(1.0883 4.44824e-08 -3.39171e-13)
(1.0883 4.93669e-08 2.50679e-13)
(1.0883 5.49075e-08 6.19468e-13)
(1.0883 5.7562e-08 6.8911e-13)
(1.0883 6.0897e-08 5.13531e-13)
(1.0883 6.13597e-08 3.17906e-13)
(1.0883 6.26213e-08 3.59625e-13)
(1.0883 6.11567e-08 7.71254e-13)
(1.0883 6.05066e-08 1.46257e-12)
(1.0883 5.71457e-08 2.16172e-12)
(1.0883 5.47711e-08 2.66584e-12)
(1.0883 4.9811e-08 2.9707e-12)
(1.0883 4.58853e-08 3.11886e-12)
(1.0883 3.9487e-08 3.06665e-12)
(1.0883 3.43455e-08 2.72305e-12)
(1.0883 2.69204e-08 2.0899e-12)
(1.0883 2.08858e-08 1.31678e-12)
(1.0883 1.26518e-08 5.81153e-13)
(1.0883 6.00913e-09 -7.48888e-15)
(1.0883 -2.61837e-09 -3.97238e-13)
(1.0883 -9.5498e-09 -5.70427e-13)
(1.0883 -1.83749e-08 -5.36973e-13)
(1.0883 -2.53107e-08 -3.40434e-13)
(1.0883 -3.40196e-08 -6.88692e-14)
(1.0883 -4.08327e-08 1.46327e-13)
(1.0883 -4.95118e-08 1.76278e-13)
(1.0883 -5.63486e-08 4.9767e-15)
(1.0883 -6.51519e-08 -2.41077e-13)
(1.0883 -7.24247e-08 -4.34941e-13)
(1.0883 -8.20664e-08 -5.68313e-13)
(1.0883 -9.0566e-08 -7.45045e-13)
(1.0883 -1.02019e-07 -1.10205e-12)
(1.0883 -1.13208e-07 -1.67114e-12)
(1.0883 -1.28355e-07 -2.32895e-12)
(1.0883 -1.44396e-07 -2.92142e-12)
(1.0883 -1.65758e-07 -3.36792e-12)
(1.0883 -1.89804e-07 -3.65432e-12)
(1.0883 -2.21251e-07 -3.80107e-12)
(1.0883 -2.57716e-07 -3.83931e-12)
(1.0883 -3.04387e-07 -3.79898e-12)
(1.0883 -3.59506e-07 -3.70468e-12)
(1.0883 -4.28886e-07 -3.57502e-12)
(1.0883 -5.1142e-07 -3.42345e-12)
(1.0883 -6.13703e-07 -3.25951e-12)
(1.0883 -7.35735e-07 -3.08983e-12)
(1.0883 -8.85185e-07 -2.91902e-12)
(1.0883 -1.06329e-06 -2.75016e-12)
(1.0883 -1.2792e-06 -2.58536e-12)
(1.0883 -1.53597e-06 -2.42606e-12)
(1.0883 -1.84459e-06 -2.27313e-12)
(1.0883 -2.20969e-06 -2.12714e-12)
(1.08829 -2.64347e-06 -1.98839e-12)
(1.08829 -3.15095e-06 -1.85705e-12)
(1.08829 -3.74329e-06 -1.73317e-12)
(1.08829 -4.42343e-06 -1.61681e-12)
(1.08829 -5.1992e-06 -1.50796e-12)
(1.08829 -6.06852e-06 -1.40665e-12)
(1.08829 -7.02831e-06 -1.31299e-12)
(1.08829 -8.06372e-06 -1.22722e-12)
(1.08829 -9.16067e-06 -1.14972e-12)
(1.08829 -1.02799e-05 -1.08111e-12)
(1.08829 -1.13404e-05 -1.02237e-12)
(1.08828 -1.23081e-05 -9.74878e-13)
(1.08828 -1.31442e-05 -9.40554e-13)
(1.08828 -1.3311e-05 -9.22067e-13)
(0.948589 1.47363e-06 9.01008e-13)
(0.948589 1.08417e-06 8.57096e-13)
(0.948589 6.87087e-07 8.16216e-13)
(0.94859 3.04539e-07 7.79301e-13)
(0.94859 -4.43134e-08 7.47375e-13)
(0.94859 -3.54756e-07 7.21658e-13)
(0.948589 -6.18119e-07 7.03456e-13)
(0.948589 -8.38531e-07 6.94281e-13)
(0.948589 -1.01338e-06 6.95857e-13)
(0.948589 -1.15067e-06 7.09918e-13)
(0.948589 -1.25009e-06 7.37941e-13)
(0.948589 -1.32087e-06 7.81029e-13)
(0.948589 -1.3629e-06 8.39055e-13)
(0.948588 -1.38509e-06 9.09837e-13)
(0.948588 -1.38666e-06 9.88553e-13)
(0.948588 -1.37576e-06 1.06672e-12)
(0.948588 -1.35067e-06 1.13312e-12)
(0.948588 -1.31865e-06 1.17518e-12)
(0.948588 -1.27712e-06 1.18331e-12)
(0.948588 -1.23268e-06 1.15481e-12)
(0.948587 -1.18204e-06 1.09649e-12)
(0.948587 -1.13122e-06 1.02254e-12)
(0.948587 -1.0764e-06 9.50537e-13)
(0.948587 -1.02322e-06 8.97398e-13)
(0.948587 -9.67473e-07 8.77162e-13)
(0.948587 -9.1447e-07 9.00037e-13)
(0.948587 -8.59733e-07 9.72019e-13)
(0.948587 -8.0847e-07 1.09464e-12)
(0.948586 -7.56039e-07 1.26499e-12)
(0.948586 -7.07447e-07 1.47557e-12)
(0.948586 -6.57974e-07 1.71519e-12)
(0.948586 -6.12592e-07 1.97012e-12)
(0.948586 -5.66499e-07 2.22412e-12)
(0.948586 -5.24559e-07 2.45569e-12)
(0.948586 -4.81943e-07 2.63333e-12)
(0.948586 -4.43541e-07 2.71701e-12)
(0.948586 -4.04508e-07 2.67546e-12)
(0.948586 -3.69658e-07 2.51715e-12)
(0.948585 -3.34148e-07 2.29868e-12)
(0.948585 -3.02809e-07 2.09146e-12)
(0.948585 -2.70783e-07 1.94624e-12)
(0.948585 -2.4282e-07 1.88372e-12)
(0.948585 -2.14081e-07 1.89965e-12)
(0.948585 -1.8936e-07 1.97058e-12)
(0.948585 -1.638e-07 2.05579e-12)
(0.948585 -1.42158e-07 2.10223e-12)
(0.948585 -1.19603e-07 2.06242e-12)
(0.948585 -1.00883e-07 1.92343e-12)
(0.948585 -8.11909e-08 1.71175e-12)
(0.948585 -6.52065e-08 1.45668e-12)
(0.948585 -4.81271e-08 1.15505e-12)
(0.948585 -3.46789e-08 7.73042e-13)
(0.948585 -2.01161e-08 2.81165e-13)
(0.948585 -9.07997e-09 -2.9722e-13)
(0.948585 3.16213e-09 -8.6855e-13)
(0.948585 1.19149e-08 -1.3081e-12)
(0.948584 2.1912e-08 -1.51888e-12)
(0.948584 2.85255e-08 -1.47546e-12)
(0.948584 3.64635e-08 -1.22812e-12)
(0.948584 4.10464e-08 -8.62875e-13)
(0.948584 4.6967e-08 -4.63621e-13)
(0.948584 4.95978e-08 -1.02206e-13)
(0.948584 5.36168e-08 1.63105e-13)
(0.948584 5.4354e-08 3.01993e-13)
(0.948584 5.65281e-08 3.39693e-13)
(0.948584 5.55023e-08 3.61574e-13)
(0.948584 5.59847e-08 4.68193e-13)
(0.948584 5.332e-08 7.16196e-13)
(0.948584 5.21989e-08 1.08124e-12)
(0.948584 4.8015e-08 1.47316e-12)
(0.948584 4.55016e-08 1.80455e-12)
(0.948584 3.99847e-08 2.03546e-12)
(0.948584 3.62281e-08 2.1504e-12)
(0.948584 2.9654e-08 2.12653e-12)
(0.948584 2.50159e-08 1.94036e-12)
(0.948584 1.76735e-08 1.60241e-12)
(0.948584 1.24294e-08 1.1717e-12)
(0.948584 4.6542e-09 7.27526e-13)
(0.948584 -8.46506e-10 3.36535e-13)
(0.948585 -8.72659e-09 4.2248e-14)
(0.948585 -1.41847e-08 -1.34381e-13)
(0.948585 -2.18419e-08 -1.93969e-13)
(0.948585 -2.69175e-08 -1.59532e-13)
(0.948585 -3.4135e-08 -7.64458e-14)
(0.948585 -3.87176e-08 -5.34917e-15)
(0.948585 -4.54259e-08 -4.33082e-17)
(0.948585 -4.95467e-08 -7.56009e-14)
(0.948585 -5.59193e-08 -2.02119e-13)
(0.948585 -5.99173e-08 -3.42226e-13)
(0.948585 -6.64159e-08 -4.90135e-13)
(0.948585 -7.08722e-08 -6.76659e-13)
(0.948585 -7.83579e-08 -9.42553e-13)
(0.948585 -8.44724e-08 -1.29623e-12)
(0.948584 -9.43465e-08 -1.69714e-12)
(0.948584 -1.03785e-07 -2.08444e-12)
(0.948584 -1.18107e-07 -2.41157e-12)
(0.948584 -1.33349e-07 -2.65643e-12)
(0.948584 -1.55016e-07 -2.81657e-12)
(0.948584 -1.79419e-07 -2.9008e-12)
(0.948584 -2.12473e-07 -2.9225e-12)
(0.948584 -2.5086e-07 -2.89569e-12)
(0.948584 -3.00948e-07 -2.83286e-12)
(0.948584 -3.5999e-07 -2.74434e-12)
(0.948584 -4.35006e-07 -2.6384e-12)
(0.948584 -5.2402e-07 -2.52137e-12)
(0.948583 -6.34882e-07 -2.39801e-12)
(0.948583 -7.66678e-07 -2.2719e-12)
(0.948583 -9.28526e-07 -2.14563e-12)
(0.948583 -1.12086e-06 -2.02114e-12)
(0.948582 -1.35422e-06 -1.89978e-12)
(0.948582 -1.63027e-06 -1.78249e-12)
(0.948582 -1.9605e-06 -1.66995e-12)
(0.948581 -2.34657e-06 -1.56257e-12)
(0.948581 -2.79904e-06 -1.46068e-12)
(0.94858 -3.31777e-06 -1.36453e-12)
(0.948579 -3.91037e-06 -1.27427e-12)
(0.948579 -4.57197e-06 -1.19007e-12)
(0.948578 -5.29993e-06 -1.11213e-12)
(0.948577 -6.07713e-06 -1.04075e-12)
(0.948575 -6.89334e-06 -9.763e-13)
(0.948574 -7.71635e-06 -9.19376e-13)
(0.948572 -8.47816e-06 -8.70847e-13)
(0.94857 -9.14779e-06 -8.31831e-13)
(0.948569 -9.74207e-06 -8.03853e-13)
(0.948568 -9.94459e-06 -7.88971e-13)
(0.798807 1.02951e-06 7.19652e-13)
(0.798808 8.13182e-07 6.87544e-13)
(0.798808 5.56852e-07 6.57202e-13)
(0.798808 2.85601e-07 6.29568e-13)
(0.798809 2.38386e-08 6.05535e-13)
(0.798808 -2.13549e-07 5.86029e-13)
(0.798808 -4.19883e-07 5.72111e-13)
(0.798808 -5.92367e-07 5.64861e-13)
(0.798808 -7.31525e-07 5.65472e-13)
(0.798808 -8.3946e-07 5.7487e-13)
(0.798808 -9.19382e-07 5.93921e-13)
(0.798808 -9.74851e-07 6.22842e-13)
(0.798808 -1.00945e-06 6.61206e-13)
(0.798807 -1.02672e-06 7.07034e-13)
(0.798807 -1.02963e-06 7.57109e-13)
(0.798807 -1.02106e-06 8.06206e-13)
(0.798807 -1.00321e-06 8.48109e-13)
(0.798807 -9.78321e-07 8.76124e-13)
(0.798806 -9.47841e-07 8.85685e-13)
(0.798806 -9.13438e-07 8.7532e-13)
(0.798806 -8.75961e-07 8.48222e-13)
(0.798806 -8.36706e-07 8.11716e-13)
(0.798806 -7.9606e-07 7.75358e-13)
(0.798806 -7.54987e-07 7.49261e-13)
(0.798806 -7.13556e-07 7.42466e-13)
(0.798805 -6.72591e-07 7.62116e-13)
(0.798805 -6.3193e-07 8.12776e-13)
(0.798805 -5.92226e-07 8.96159e-13)
(0.798805 -5.53197e-07 1.01084e-12)
(0.798805 -5.15492e-07 1.15224e-12)
(0.798805 -4.78711e-07 1.31322e-12)
(0.798805 -4.43395e-07 1.48413e-12)
(0.798805 -4.09108e-07 1.65285e-12)
(0.798805 -3.76408e-07 1.80431e-12)
(0.798805 -3.44814e-07 1.92026e-12)
(0.798804 -3.14811e-07 1.98203e-12)
(0.798804 -2.85937e-07 1.97787e-12)
(0.798804 -2.58702e-07 1.91255e-12)
(0.798804 -2.32619e-07 1.8093e-12)
(0.798804 -2.08114e-07 1.69978e-12)
(0.798804 -1.84723e-07 1.61098e-12)
(0.798804 -1.62889e-07 1.55797e-12)
(0.798804 -1.42141e-07 1.54241e-12)
(0.798804 -1.22851e-07 1.55388e-12)
(0.798804 -1.04601e-07 1.57201e-12)
(0.798804 -8.77708e-08 1.57132e-12)
(0.798804 -7.19373e-08 1.52907e-12)
(0.798804 -5.74082e-08 1.43477e-12)
(0.798803 -4.37973e-08 1.29143e-12)
(0.798803 -3.14267e-08 1.10566e-12)
(0.798803 -1.99316e-08 8.771e-13)
(0.798803 -9.55753e-09 5.98993e-13)
(0.798803 1.85706e-11 2.69795e-13)
(0.798803 8.51042e-09 -9.1389e-14)
(0.798803 1.62217e-08 -4.39847e-13)
(0.798803 2.29515e-08 -7.18549e-13)
(0.798803 2.89644e-08 -8.80424e-13)
(0.798803 3.40288e-08 -9.06912e-13)
(0.798803 3.83997e-08 -8.12429e-13)
(0.798803 4.19043e-08 -6.33482e-13)
(0.798803 4.47477e-08 -4.14074e-13)
(0.798803 4.67211e-08 -1.96038e-13)
(0.798803 4.80376e-08 -1.22252e-14)
(0.798803 4.85546e-08 1.21442e-13)
(0.798803 4.84587e-08 2.14012e-13)
(0.798803 4.75859e-08 2.98032e-13)
(0.798803 4.61408e-08 4.13013e-13)
(0.798803 4.39987e-08 5.82668e-13)
(0.798803 4.13491e-08 8.00489e-13)
(0.798803 3.803e-08 1.03354e-12)
(0.798803 3.42612e-08 1.24243e-12)
(0.798803 2.99564e-08 1.39779e-12)
(0.798803 2.53481e-08 1.48025e-12)
(0.798803 2.02913e-08 1.47508e-12)
(0.798803 1.50657e-08 1.37464e-12)
(0.798803 9.56832e-09 1.18713e-12)
(0.798803 4.07165e-09 9.39911e-13)
(0.798803 -1.58138e-09 6.71375e-13)
(0.798803 -7.06841e-09 4.18964e-13)
(0.798803 -1.25296e-08 2.11247e-13)
(0.798803 -1.7641e-08 6.46619e-14)
(0.798803 -2.26195e-08 -1.77064e-14)
(0.798803 -2.71221e-08 -4.62023e-14)
(0.798803 -3.13734e-08 -4.29015e-14)
(0.798803 -3.50753e-08 -3.65545e-14)
(0.798803 -3.85502e-08 -5.26503e-14)
(0.798803 -4.15038e-08 -1.02999e-13)
(0.798803 -4.42866e-08 -1.83823e-13)
(0.798803 -4.66673e-08 -2.86351e-13)
(0.798803 -4.91173e-08 -4.09256e-13)
(0.798803 -5.14666e-08 -5.61735e-13)
(0.798803 -5.42204e-08 -7.55132e-13)
(0.798803 -5.73277e-08 -9.89696e-13)
(0.798803 -6.14574e-08 -1.24877e-12)
(0.798803 -6.66594e-08 -1.5059e-12)
(0.798803 -7.3662e-08 -1.73634e-12)
(0.798803 -8.26802e-08 -1.92379e-12)
(0.798803 -9.46385e-08 -2.0613e-12)
(0.798803 -1.09957e-07 -2.1493e-12)
(0.798803 -1.29733e-07 -2.19256e-12)
(0.798803 -1.54706e-07 -2.19799e-12)
(0.798803 -1.86326e-07 -2.17306e-12)
(0.798803 -2.2571e-07 -2.12472e-12)
(0.798803 -2.74714e-07 -2.05903e-12)
(0.798802 -3.35028e-07 -1.98106e-12)
(0.798802 -4.09181e-07 -1.89494e-12)
(0.798802 -4.99645e-07 -1.80394e-12)
(0.798802 -6.09792e-07 -1.71056e-12)
(0.798802 -7.43193e-07 -1.61672e-12)
(0.798801 -9.04347e-07 -1.5239e-12)
(0.798801 -1.09766e-06 -1.43319e-12)
(0.798801 -1.32826e-06 -1.34537e-12)
(0.7988 -1.60053e-06 -1.26097e-12)
(0.7988 -1.91881e-06 -1.18044e-12)
(0.798799 -2.28576e-06 -1.10413e-12)
(0.798798 -2.70296e-06 -1.03228e-12)
(0.798798 -3.16861e-06 -9.65124e-13)
(0.798797 -3.67499e-06 -9.02894e-13)
(0.798796 -4.20971e-06 -8.45935e-13)
(0.798794 -4.76174e-06 -7.94579e-13)
(0.798793 -5.30991e-06 -7.49309e-13)
(0.798791 -5.79345e-06 -7.10882e-13)
(0.798789 -6.18145e-06 -6.80203e-13)
(0.798788 -6.54198e-06 -6.58401e-13)
(0.798787 -6.78558e-06 -6.46942e-13)
(0.638964 6.54184e-07 5.44057e-13)
(0.638965 5.76126e-07 5.21748e-13)
(0.638965 4.17715e-07 5.00342e-13)
(0.638965 2.45685e-07 4.80649e-13)
(0.638965 5.07123e-08 4.6343e-13)
(0.638965 -1.07583e-07 4.49467e-13)
(0.638965 -2.66444e-07 4.39476e-13)
(0.638965 -3.78228e-07 4.34164e-13)
(0.638965 -4.88746e-07 4.34335e-13)
(0.638965 -5.53441e-07 4.40553e-13)
(0.638965 -6.21403e-07 4.53216e-13)
(0.638965 -6.483e-07 4.72259e-13)
(0.638964 -6.84312e-07 4.97135e-13)
(0.638964 -6.84103e-07 5.26425e-13)
(0.638964 -6.9811e-07 5.57996e-13)
(0.638964 -6.79766e-07 5.88704e-13)
(0.638964 -6.79656e-07 6.15066e-13)
(0.638964 -6.4996e-07 6.33565e-13)
(0.638963 -6.41359e-07 6.41809e-13)
(0.638963 -6.05033e-07 6.39198e-13)
(0.638963 -5.91879e-07 6.2749e-13)
(0.638963 -5.52149e-07 6.10439e-13)
(0.638963 -5.36937e-07 5.93467e-13)
(0.638963 -4.95857e-07 5.82517e-13)
(0.638962 -4.80238e-07 5.83167e-13)
(0.638962 -4.39131e-07 6.00046e-13)
(0.638962 -4.24039e-07 6.36249e-13)
(0.638962 -3.83695e-07 6.93052e-13)
(0.638962 -3.69769e-07 7.69673e-13)
(0.638962 -3.30749e-07 8.63394e-13)
(0.638962 -3.18314e-07 9.69484e-13)
(0.638962 -2.80903e-07 1.08151e-12)
(0.638962 -2.70208e-07 1.19137e-12)
(0.638962 -2.34628e-07 1.2895e-12)
(0.638961 -2.25745e-07 1.36556e-12)
(0.638961 -1.9208e-07 1.41034e-12)
(0.638961 -1.8511e-07 1.41888e-12)
(0.638961 -1.53472e-07 1.39372e-12)
(0.638961 -1.48404e-07 1.3452e-12)
(0.638961 -1.18777e-07 1.28803e-12)
(0.638961 -1.15615e-07 1.23598e-12)
(0.638961 -8.79954e-08 1.19797e-12)
(0.638961 -8.66467e-08 1.1763e-12)
(0.638961 -6.09358e-08 1.16655e-12)
(0.638961 -6.13504e-08 1.15891e-12)
(0.638961 -3.75165e-08 1.14086e-12)
(0.638961 -3.95696e-08 1.10072e-12)
(0.638961 -1.74791e-08 1.03127e-12)
(0.638961 -2.10778e-08 9.30484e-13)
(0.63896 -6.21543e-10 7.98997e-13)
(0.63896 -5.6323e-09 6.37154e-13)
(0.63896 1.33213e-08 4.45503e-13)
(0.63896 7.00198e-09 2.2868e-13)
(0.63896 2.45347e-08 1.13264e-16)
(0.63896 1.69943e-08 -2.1686e-13)
(0.63896 3.32257e-08 -3.94343e-13)
(0.63896 2.45208e-08 -5.08722e-13)
(0.63896 3.95094e-08 -5.48584e-13)
(0.63896 2.97379e-08 -5.17568e-13)
(0.63896 4.35818e-08 -4.31501e-13)
(0.63896 3.2741e-08 -3.12357e-13)
(0.63896 4.54438e-08 -1.82736e-13)
(0.63896 3.35885e-08 -6.08558e-14)
(0.63896 4.52263e-08 4.38234e-14)
(0.63896 3.23427e-08 1.33271e-13)
(0.63896 4.29673e-08 2.19358e-13)
(0.63896 2.91678e-08 3.17208e-13)
(0.63896 3.88755e-08 4.36226e-13)
(0.63896 2.41803e-08 5.74074e-13)
(0.63896 3.30833e-08 7.17191e-13)
(0.63896 1.76197e-08 8.46964e-13)
(0.63896 2.58989e-08 9.4611e-13)
(0.63896 9.83403e-09 1.00122e-12)
(0.63896 1.76874e-08 1.00311e-12)
(0.63896 1.27207e-09 9.48463e-13)
(0.63896 9.0149e-09 8.42303e-13)
(0.63896 -7.53811e-09 6.98455e-13)
(0.63896 3.30065e-10 5.36605e-13)
(0.63896 -1.60312e-08 3.77313e-13)
(0.63896 -7.7184e-09 2.37765e-13)
(0.63896 -2.36564e-08 1.28977e-13)
(0.63896 -1.46625e-08 5.44791e-14)
(0.63896 -2.9898e-08 1.02256e-14)
(0.63896 -1.99947e-08 -1.41896e-14)
(0.63896 -3.44443e-08 -3.26489e-14)
(0.63896 -2.36223e-08 -5.809e-14)