/*--------------------------------*- C++ -*----------------------------------*\
| =========                 |                                                 |
| \\      /  F ield         | OpenFOAM: The Open Source CFD Toolbox           |
|  \\    /   O peration     | Version:                                        |
|   \\  /    A nd           | Website:  www.openfoam.com                      |
|    \\/     M anipulation  |                                                 |
\*---------------------------------------------------------------------------*/
FoamFile
{
    version     2.0;
    format      ascii;
    class       volScalarField;
    location    "74";
    object      p;
}
// * * * * * * * * * * * * * * * * * * * * * * * * * * * * * * * * * * * * * //

dimensions      [0 2 -2 0 0 0 0];


internalField   nonuniform List<scalar> 
1150
(
0.196204
0.206147
0.216732
0.194358
0.204004
0.214384
0.189931
0.198529
0.208003
0.183066
0.189992
0.173514
0.178468
0.161305
0.0677524
0.062888
0.065618
0.0657064
0.0675686
0.0672582
0.0687505
0.0694822
0.0706852
0.0718105
0.0739033
0.0754257
0.0775055
0.0800994
0.0829126
0.0858106
0.089197
0.0931246
0.0975958
0.102387
0.107693
0.11361
0.120256
0.127472
0.135372
0.143966
0.153236
0.163191
0.173844
0.185268
0.0677297
0.0630226
0.0655502
0.0657265
0.067743
0.0671611
0.0686885
0.0698148
0.0705236
0.0715715
0.074304
0.0753971
0.0772126
0.0801708
0.0829155
0.0856355
0.0889632
0.0929465
0.0973885
0.102059
0.107284
0.113121
0.119686
0.126736
0.134435
0.142873
0.151874
0.161861
0.172523
0.183854
0.0676457
0.0632053
0.0654493
0.065757
0.0678801
0.0670505
0.0686466
0.0701133
0.0703383
0.0713685
0.0746587
0.0753162
0.0769877
0.080213
0.0828618
0.0854422
0.0887019
0.0926771
0.0970432
0.101482
0.106638
0.112376
0.118647
0.125896
0.133515
0.141513
0.15049
0.159707
0.169752
0.180374
0.0675099
0.0634305
0.0653185
0.0658006
0.0679854
0.0669196
0.0686456
0.0703584
0.0701273
0.0712372
0.074931
0.0751452
0.0768624
0.0801933
0.0827345
0.0853115
0.0884608
0.092432
0.0968234
0.101248
0.106072
0.111747
0.118219
0.124419
0.131488
0.139002
0.147356
0.156126
0.165584
0.175199
0.0673251
0.0636948
0.0651598
0.0658743
0.0680458
0.0669163
0.0686731
0.0705467
0.0698915
0.0712183
0.075094
0.0749292
0.0768211
0.080145
0.0825006
0.0850763
0.0880618
0.0918866
0.0961878
0.100278
0.105104
0.110196
0.11604
0.121952
0.128598
0.13554
0.143239
0.151123
0.159601
0.167747
0.0671073
0.0639891
0.0649868
0.0659334
0.0680594
0.0667831
0.0687693
0.0706537
0.0696428
0.0713038
0.0751398
0.0746521
0.0769692
0.0798435
0.0824007
0.0849623
0.087761
0.0915522
0.0957682
0.0996831
0.104234
0.109081
0.114575
0.120006
0.12614
0.13219
0.138963
0.145457
0.15236
0.158293
0.0668557
0.06431
0.0648077
0.0659957
0.0680135
0.0667046
0.0688575
0.0707064
0.0693989
0.0715177
0.0750385
0.0743809
0.0771223
0.0799703
0.0821159
0.0846542
0.0869016
0.090949
0.0947893
0.0982443
0.102559
0.106849
0.111883
0.116484
0.121872
0.126829
0.132379
0.137351
0.142592
0.146149
0.0665855
0.0646439
0.0646464
0.066034
0.0679253
0.0666195
0.0690041
0.0706912
0.0692029
0.0718536
0.074878
0.0742233
0.0773774
0.0796722
0.0822873
0.0846815
0.086964
0.0907925
0.0943688
0.0975825
0.101817
0.105739
0.110138
0.114075
0.118536
0.122087
0.12615
0.128772
0.131503
0.0662921
0.0649885
0.064526
0.066036
0.0678036
0.0665896
0.0690836
0.0706413
0.0690153
0.0721262
0.0745402
0.0740446
0.077342
0.079061
0.0821984
0.084015
0.0859937
0.0900661
0.0927483
0.0960355
0.0996315
0.102959
0.106634
0.109556
0.113001
0.11499
0.117429
0.117825
0.11812
0.065989
0.0653177
0.0644831
0.0659739
0.0676192
0.0666082
0.069246
0.070567
0.0690009
0.0725956
0.0742462
0.0741741
0.0774349
0.0790379
0.0825587
0.0836929
0.0861338
0.0901297
0.0925276
0.0956839
0.0989848
0.101596
0.104482
0.106412
0.10839
0.108374
0.10846
0.105334
0.0656979
0.0656079
0.0645087
0.0658788
0.0673466
0.0665973
0.0692086
0.070463
0.0689341
0.0728828
0.0737595
0.0742352
0.0769058
0.0782771
0.082296
0.0824903
0.0857492
0.0886756
0.0905665
0.0941137
0.0958977
0.0984102
0.09973
0.101557
0.101315
0.100892
0.0985913
0.0944091
0.0654105
0.0658609
0.0645909
0.0658374
0.0670519
0.0666199
0.0689007
0.0703502
0.0687666
0.0727463
0.0732312
0.0742425
0.0762879
0.0777055
0.0810641
0.0814567
0.0844281
0.0869705
0.0883849
0.0917556
0.0925897
0.094457
0.0951158
0.0957956
0.0944123
0.0932947
0.0889727
0.0840764
0.0651442
0.0660683
0.0647276
0.0658809
0.0667943
0.0666238
0.0686522
0.0702365
0.0685665
0.0726451
0.0727554
0.0740931
0.0757807
0.0771752
0.0800519
0.0806694
0.0828282
0.0854451
0.0861662
0.0889413
0.0896893
0.0902122
0.0906373
0.0900393
0.0879957
0.0857742
0.0808669
0.0755064
0.0648945
0.0662147
0.0648809
0.0660028
0.0665931
0.0666569
0.0684367
0.0700192
0.0684659
0.0723604
0.0723005
0.0737785
0.0752793
0.0765428
0.0791464
0.0797401
0.081211
0.0836162
0.0838646
0.0859717
0.0866182
0.0858634
0.086012
0.0846292
0.0818687
0.0789381
0.0741535
0.0687075
0.0646764
0.066291
0.0650263
0.0661345
0.0664954
0.0666668
0.0682586
0.0696988
0.0684459
0.071864
0.071961
0.073257
0.0747632
0.0757958
0.0780763
0.0786114
0.0796343
0.0814767
0.0816291
0.0828665
0.0833606
0.0817883
0.081253
0.0795843
0.0763647
0.0729751
0.0684939
0.0632079
0.0644974
0.0662771
0.0651753
0.0662323
0.066457
0.0666067
0.0681359
0.0692796
0.0684726
0.0712689
0.0716811
0.0725691
0.0741082
0.0750535
0.0766595
0.077331
0.0780624
0.0791809
0.0793397
0.079712
0.0799977
0.0779647
0.0766156
0.074911
0.0715861
0.0678665
0.0636168
0.0587943
0.0643671
0.0661583
0.0653453
0.0662545
0.0664338
0.0664915
0.0679869
0.0687963
0.0684942
0.0706434
0.0713129
0.0719248
0.0731819
0.0743197
0.0751333
0.0757938
0.076522
0.0768923
0.0769129
0.0765748
0.0765091
0.0744702
0.0724555
0.070565
0.0674024
0.0635551
0.0595418
0.0552173
0.0642854
0.0659347
0.0655049
0.0662156
0.0663794
0.0663704
0.0677452
0.0683071
0.0684582
0.0699982
0.0707786
0.0713633
0.0720563
0.0734431
0.0738397
0.0740792
0.0747941
0.0746757
0.0744288
0.0735669
0.0730853
0.0712479
0.0687813
0.0665636
0.0637159
0.0600723
0.0562494
0.0522866
0.064239
0.0656501
0.0655935
0.066147
0.0662696
0.0662734
0.0674199
0.0678192
0.0683294
0.0693415
0.0700734
0.0708355
0.0708905
0.0722882
0.0726767
0.0723174
0.072766
0.072504
0.0720205
0.0707971
0.0698386
0.0681246
0.0656086
0.0631575
0.0605424
0.057217
0.0535811
0.0499353
0.0642022
0.0653652
0.0655858
0.066049
0.0660998
0.0662002
0.067066
0.0672902
0.0681144
0.0687068
0.0692174
0.0702428
0.0698664
0.0708976
0.07141
0.0706832
0.0706449
0.0702859
0.0696933
0.0682597
0.0668953
0.0652398
0.0629033
0.0603457
0.0578021
0.0548227
0.051525
0.0482285
0.0641539
0.0651025
0.0654892
0.0659124
0.0658875
0.0661144
0.0667022
0.0667226
0.0678024
0.0681135
0.068254
0.0694919
0.0690053
0.0693793
0.0698798
0.0691696
0.068636
0.0680579
0.0674197
0.0659672
0.0643675
0.0626482
0.0605099
0.0580401
0.0555823
0.0529474
0.0500423
0.0470824
0.0640826
0.0648667
0.0653298
0.0657306
0.0656416
0.0659738
0.0663441
0.0661349
0.0673684
0.0675649
0.0672513
0.0685049
0.0681997
0.0679383
0.0681301
0.0676094
0.0668795
0.0660045
0.0652354
0.0638624
0.0621705
0.0604091
0.0584714
0.0561996
0.0538743
0.0514863
0.0489515
0.0463451
0.0639821
0.064654
0.0651316
0.0654915
0.0653604
0.0657651
0.0659898
0.0655537
0.0668131
0.0670153
0.0662775
0.0673177
0.0673374
0.0666822
0.0663393
0.0659516
0.0652983
0.0642168
0.0632273
0.0618799
0.0602597
0.0585621
0.0567815
0.0547262
0.0525655
0.0503933
0.0481978
0.0459563
0.0638556
0.0644465
0.0649043
0.0651983
0.0650531
0.0654865
0.0656119
0.0649957
0.0661563
0.0664211
0.0653922
0.06601
0.0662978
0.0655895
0.0647426
0.0642552
0.06375
0.0626711
0.0614855
0.0601022
0.058586
0.0570038
0.0554064
0.0535783
0.0516208
0.0496418
0.0477167
0.0458147
0.0637086
0.0642265
0.0646497
0.0648737
0.0647193
0.0651373
0.0652014
0.0644602
0.0654171
0.0657471
0.0645933
0.0646935
0.0650752
0.0645564
0.0634219
0.0626569
0.0622002
0.0612798
0.0600385
0.0585882
0.0571102
0.0556715
0.0542929
0.0527202
0.0509881
0.0491909
0.0474829
0.0458636
0.063542
0.0639859
0.0643658
0.0645248
0.0643653
0.0647338
0.06475
0.0639294
0.0646254
0.0649854
0.0638585
0.0634884
0.0637536
0.0634531
0.0623114
0.0612811
0.0607088
0.0599563
0.0588307
0.0573634
0.0558888
0.0545572
0.0533813
0.0520755
0.0505918
0.0489924
0.0474543
0.0460425
0.0633528
0.0637224
0.0640576
0.0641485
0.0639841
0.0642937
0.0642594
0.063408
0.0638227
0.0641246
0.0631387
0.0624451
0.0624379
0.0622737
0.0612979
0.060123
0.0593881
0.0587165
0.0577648
0.0563932
0.0549417
0.0536625
0.0526285
0.0515616
0.0503511
0.0489793
0.0476053
0.0463485
0.0631395
0.0634361
0.0637202
0.0637511
0.063576
0.0638096
0.0637377
0.0629003
0.0630147
0.0631999
0.0624109
0.0615559
0.0612573
0.0610702
0.060264
0.0591346
0.0582963
0.0576123
0.0567974
0.0556061
0.0542403
0.053
0.0520411
0.0511542
0.0501942
0.049067
0.047876
0.0467516
0.0629038
0.06313
0.0633541
0.0633357
0.0631354
0.0632809
0.0631814
0.0624043
0.0622636
0.0622739
0.0616238
0.0607721
0.0602448
0.0599258
0.059253
0.0582539
0.0573864
0.0566775
0.0559479
0.0549317
0.0537116
0.0525456
0.0516247
0.0508463
0.0500753
0.0491857
0.0481984
0.0472188
0.0626473
0.0628042
0.0629629
0.0629034
0.0626773
0.0627248
0.0625845
0.0619008
0.0615813
0.0613892
0.0608162
0.0600403
0.0593846
0.0589253
0.0582976
0.0574324
0.0566107
0.0559142
0.0552354
0.0543578
0.0533048
0.0522475
0.0513675
0.0506472
0.05
0.0493006
0.0485181
0.0477006
0.0623712
0.0624667
0.0625536
0.0624571
0.0622093
0.0621514
0.0619528
0.0613645
0.0609589
0.0606028
0.0600299
0.0593234
0.0586402
0.0580776
0.0574573
0.0567073
0.055946
0.0552688
0.0546372
0.0538857
0.0529859
0.0520516
0.0512297
0.0505506
0.0499771
0.0494134
0.048806
0.0481538
0.0620788
0.0621237
0.0621375
0.062
0.0617319
0.0615742
0.0613122
0.0607961
0.0603586
0.0598956
0.0593078
0.0586551
0.0579922
0.0573871
0.0567571
0.0560691
0.0553655
0.0547287
0.0541509
0.0535021
0.052737
0.0519266
0.0511818
0.0505455
0.0500164
0.0495362
0.049056
0.0485522
0.061774
0.0617804
0.0617255
0.0615404
0.0612481
0.0610146
0.0606855
0.0602031
0.0597667
0.0592688
0.0586776
0.0580516
0.0574153
0.0568105
0.0561842
0.0555458
0.0549023
0.0542953
0.0537426
0.0531734
0.0525366
0.0518514
0.0511913
0.0506013
0.0501056
0.0496798
0.0492892
0.0489027
0.0614569
0.0614301
0.0613194
0.0610878
0.0607705
0.060482
0.0601053
0.0596371
0.0592061
0.0587007
0.0581195
0.0575217
0.0569168
0.0563316
0.0557303
0.0551306
0.0545292
0.0539478
0.0534199
0.0529128
0.0523765
0.0518007
0.0512279
0.0506964
0.0502382
0.0498515
0.0495175
0.0492121
0.0611292
0.0610752
0.0609223
0.0606562
0.060316
0.0599865
0.0595868
0.0591239
0.0586852
0.0581895
0.057639
0.0570736
0.0564953
0.0559308
0.0553608
0.0547989
0.0542434
0.0536989
0.0531912
0.0527152
0.0522439
0.051759
0.0512728
0.0508062
0.0503887
0.050033
0.0497373
0.0494883
0.0607993
0.0607234
0.0605439
0.0602567
0.0599005
0.0595434
0.0591316
0.0586701
0.0582264
0.0577469
0.0572273
0.0566943
0.0561495
0.0556142
0.0550814
0.0545592
0.054044
0.0535323
0.0530423
0.0525848
0.0521513
0.0517253
0.0513042
0.050896
0.0505224
0.0502008
0.0499384
0.0497318
0.0604696
0.0603883
0.0601946
0.0598997
0.0595361
0.0591577
0.0587379
0.0582814
0.0578344
0.0573673
0.0568781
0.056386
0.0558884
0.0553938
0.0549024
0.0544213
0.0539468
0.0534713
0.0530018
0.0525507
0.0521243
0.0517188
0.0513307
0.050959
0.0506149
0.0503133
0.0500671
0.0498826
0.0601866
0.0600936
0.0598908
0.059595
0.0592282
0.0588348
0.058411
0.0579584
0.0575067
0.0570483
0.0565845
0.05613
0.0556848
0.0552484
0.0548188
0.0543979
0.0539804
0.0535546
0.0531189
0.0526833
0.0522604
0.0518561
0.0514691
0.051096
0.0507429
0.0504229
0.0501517
0.0499413
0.0599624
0.0598596
0.0596508
0.0593555
0.0589895
0.0585876
0.0581592
0.0577063
0.0572541
0.0568078
0.0563657
0.0559356
0.0555186
0.0551094
0.0547048
0.0543087
0.0539255
0.0535538
0.0531931
0.0528472
0.0525242
0.0522273
0.0519521
0.0516882
0.0514267
0.0511631
0.0508968
0.0506285
0.059829
0.0597145
0.0594996
0.0592077
0.0588505
0.0584578
0.0580443
0.0576086
0.0571651
0.056724
0.0562842
0.0558553
0.0554453
0.055049
0.054661
0.0542835
0.0539235
0.0535822
0.0532565
0.0529442
0.0526476
0.0523693
0.0521086
0.0518594
0.0516132
0.0513618
0.051099
0.0508192
)
;

boundaryField
{
    outlet
    {
        type            fixedValue;
        value           nonuniform 0();
    }
    upperWall
    {
        type            symmetryPlane;
    }
    lowerWall
    {
        type            symmetryPlane;
    }
    inlet
    {
        type            zeroGradient;
    }
    cylinder
    {
        type            zeroGradient;
    }
    frontAndBack
    {
        type            empty;
    }
    procBoundary4to0
    {
        type            processor;
        value           nonuniform List<scalar> 
33
(
0.195814
0.205311
0.215454
0.0677082
0.0628039
0.0656552
0.0656857
0.0673613
0.0673478
0.0688111
0.069139
0.0708185
0.0720099
0.0734774
0.0753938
0.077784
0.0799674
0.0828088
0.0858773
0.0893173
0.0931305
0.0976086
0.10245
0.107793
0.113705
0.120356
0.127569
0.135483
0.144053
0.153334
0.163251
0.173863
0.18519
)
;
    }
    procBoundary4to5
    {
        type            processor;
        value           nonuniform List<scalar> 
45
(
0.228297
0.225676
0.218598
0.198141
0.198141
0.185097
0.163948
0.163948
0.146432
0.146432
0.131791
0.131791
0.114943
0.101868
0.101868
0.0870798
0.0760987
0.0686751
0.0627054
0.0578566
0.0539952
0.0509378
0.0484998
0.0465588
0.0451915
0.0443243
0.0438692
0.0437817
0.0439593
0.0443142
0.0447498
0.0452511
0.0457912
0.0463661
0.046957
0.0475323
0.0480595
0.0485264
0.0489293
0.0492771
0.0495756
0.0497609
0.0497985
0.050358
0.0505155
)
;
    }
}


// ************************************************************************* //
