/*--------------------------------*- C++ -*----------------------------------*\
| =========                 |                                                 |
| \\      /  F ield         | OpenFOAM: The Open Source CFD Toolbox           |
|  \\    /   O peration     | Version:                                        |
|   \\  /    A nd           | Website:  www.openfoam.com                      |
|    \\/     M anipulation  |                                                 |
\*---------------------------------------------------------------------------*/
FoamFile
{
    version     2.0;
    format      ascii;
    class       volScalarField;
    location    "9";
    object      p;
}
// * * * * * * * * * * * * * * * * * * * * * * * * * * * * * * * * * * * * * //

dimensions      [0 2 -2 0 0 0 0];


internalField   nonuniform List<scalar> 
1161
(
-0.376317
-0.416379
-0.451387
-0.480031
-0.49903
-0.509967
-0.509161
-0.50008
-0.478585
-0.447525
-0.395696
-0.416077
-0.428149
-0.431099
-0.425825
-0.414267
-0.396403
-0.37989
-0.364829
-0.364289
-0.359902
-0.352574
-0.343634
-0.332637
-0.308502
-0.29957
-0.289963
-0.211555
-0.276327
-0.343845
-0.412173
-0.479992
-0.546129
-0.609559
-0.669268
-0.724344
-0.773773
-0.816342
-0.850501
-0.874408
-0.886212
-0.884726
-0.869898
-0.842889
-0.303198
-0.367851
-0.433919
-0.500044
-0.565093
-0.627861
-0.68726
-0.742282
-0.791895
-0.835056
-0.870361
-0.896201
-0.910858
-0.912833
-0.901226
-0.876278
-0.342422
-0.402234
-0.46465
-0.52828
-0.591627
-0.653374
-0.712399
-0.76737
-0.817517
-0.861847
-0.89872
-0.926866
-0.945036
-0.951565
-0.945812
-0.926428
-0.38223
-0.437226
-0.49573
-0.556033
-0.616695
-0.676715
-0.734345
-0.788791
-0.839084
-0.883521
-0.921755
-0.950501
-0.9707
-0.977294
-0.981823
-0.961018
-0.412711
-0.462784
-0.516526
-0.572566
-0.629928
-0.686657
-0.741765
-0.794754
-0.843701
-0.883065
-0.930126
-0.947361
-0.974038
-0.983591
-0.979618
-0.966912
-0.47121
-0.520111
-0.571654
-0.623846
-0.676235
-0.728663
-0.775248
-0.82334
-0.861142
-0.897882
-0.924068
-0.940917
-0.950168
-0.946774
-0.930672
-0.503154
-0.548314
-0.595774
-0.641472
-0.689034
-0.731952
-0.773527
-0.809806
-0.840366
-0.865203
-0.881112
-0.888074
-0.883278
-0.864185
-0.503165
-0.543523
-0.583847
-0.624109
-0.663072
-0.699536
-0.732911
-0.761489
-0.783725
-0.798645
-0.804489
-0.799447
-0.779498
-0.472278
-0.508173
-0.543893
-0.579808
-0.614
-0.644731
-0.670761
-0.689592
-0.702541
-0.706306
-0.70192
-0.682673
-0.4154
-0.450819
-0.489229
-0.52425
-0.555777
-0.579394
-0.59557
-0.602859
-0.600678
-0.591672
-0.571467
-0.799425
-0.731879
-0.646648
-0.545075
-0.431231
-0.314246
-0.198556
-0.0911653
0.00469166
0.0848215
0.147393
0.191672
0.21132
0.211278
0.196309
0.172701
0.146712
0.123106
0.103722
0.0877847
-0.834274
-0.764788
-0.678129
-0.578369
-0.463099
-0.34185
-0.226517
-0.114781
-0.0186211
0.0643851
0.128762
0.174728
0.196627
0.198309
0.185741
0.164598
0.1409
0.119135
0.10098
0.0859687
-0.890705
-0.817041
-0.730272
-0.629434
-0.516089
-0.393592
-0.27495
-0.159701
-0.0618279
0.0237943
0.0915375
0.140803
0.166334
0.171403
0.162826
0.146398
0.127614
0.109995
0.0948969
0.0820343
-0.929017
-0.875359
-0.779393
-0.685679
-0.573327
-0.450804
-0.330837
-0.214998
-0.114432
-0.0276943
0.0431393
0.0954243
0.124789
0.134893
0.133063
0.123703
0.111221
0.0988123
0.0876456
0.0774839
-0.935121
-0.886207
-0.814408
-0.724987
-0.619847
-0.506543
-0.388913
-0.27344
-0.171274
-0.0830608
-0.00937105
0.0457581
0.0795248
0.0958726
0.102009
0.101659
0.09638
0.0890601
0.0813784
0.0735227
-0.892234
-0.856953
-0.809816
-0.73541
-0.641463
-0.538858
-0.433527
-0.325447
-0.225517
-0.13699
-0.0604693
-0.00164835
0.0376008
0.0611045
0.0746143
0.0821603
0.0840399
0.0813955
0.0763847
0.0700796
-0.819568
-0.792437
-0.772031
-0.71861
-0.640064
-0.549415
-0.452167
-0.353153
-0.263529
-0.18203
-0.107055
-0.0453397
-0.000120064
0.0310733
0.051522
0.0642792
0.0712206
0.0728038
0.0704794
0.0658678
0.0601871
-0.730102
-0.710452
-0.708691
-0.672744
-0.611754
-0.53808
-0.455063
-0.365952
-0.281587
-0.208905
-0.142684
-0.0830093
-0.0345308
0.0021742
0.0284013
0.0460134
0.0569224
0.0620456
0.0625277
0.0599386
0.0556684
-0.636444
-0.626016
-0.635833
-0.614338
-0.570219
-0.513649
-0.444992
-0.369556
-0.294469
-0.227924
-0.168547
-0.113496
-0.0637258
-0.0229787
0.00703974
0.0277325
0.041316
0.0499828
0.0539087
0.0541958
0.0521997
-0.541846
-0.540416
-0.548992
-0.533051
-0.504174
-0.467186
-0.421112
-0.368298
-0.310054
-0.252356
-0.198722
-0.149872
-0.102855
-0.0598372
-0.0246229
0.00204702
0.0208089
0.0334119
0.0409639
0.0442873
0.0446365
-0.466045
-0.500386
-0.502012
-0.482951
-0.453807
-0.418936
-0.379295
-0.335355
-0.287742
-0.238897
-0.191134
-0.145327
-0.102627
-0.0640225
-0.0316136
-0.00653211
0.0118279
0.024848
0.0333897
0.0380513
0.0397787
0.0396274
-0.400431
-0.440603
-0.449537
-0.433287
-0.405559
-0.373369
-0.338623
-0.301378
-0.261798
-0.220664
-0.179389
-0.139453
-0.102401
-0.068785
-0.0393576
-0.0153608
0.00274227
0.015716
0.0246812
0.0301921
0.0328754
0.0336207
-0.343959
-0.383168
-0.396855
-0.385906
-0.362106
-0.334036
-0.304392
-0.273428
-0.240967
-0.207224
-0.172809
-0.138372
-0.105133
-0.0745242
-0.0473508
-0.0243073
-0.00607071
0.0074477
0.0171575
0.0238318
0.0277374
0.0294829
-0.29936
-0.33307
-0.347256
-0.341231
-0.322639
-0.299092
-0.273865
-0.247704
-0.220514
-0.191977
-0.162189
-0.131744
-0.102061
-0.07457
-0.050042
-0.0288006
-0.0114035
0.00164739
0.0109926
0.0176166
0.021966
0.0244608
-0.25911
-0.288262
-0.302409
-0.300221
-0.286414
-0.267188
-0.245986
-0.223917
-0.200997
-0.176905
-0.151693
-0.126015
-0.100994
-0.0775565
-0.0562213
-0.0371293
-0.0205937
-0.00742951
0.0024482
0.00976724
0.0149446
0.0183877
-0.224346
-0.250172
-0.263617
-0.263463
-0.253235
-0.237873
-0.220396
-0.201917
-0.182673
-0.162508
-0.141435
-0.119984
-0.0988529
-0.0782529
-0.0585912
-0.0404996
-0.0245362
-0.0115951
-0.00171559
0.00572041
0.0110857
0.0147787
-0.195783
-0.217495
-0.229379
-0.230429
-0.223061
-0.211033
-0.196854
-0.181595
-0.165607
-0.148833
-0.131376
-0.11351
-0.0954774
-0.0773801
-0.0598008
-0.043735
-0.0296886
-0.0180204
-0.00862386
-0.00118372
0.00435574
0.00847102
-0.170482
-0.188627
-0.199169
-0.201126
-0.196008
-0.186703
-0.175297
-0.16284
-0.149712
-0.135874
-0.121491
-0.106566
-0.0911509
-0.0755598
-0.0604311
-0.0465475
-0.0339563
-0.0228184
-0.0133495
-0.0055027
0.000489628
0.00496905
-0.147919
-0.163626
-0.173106
-0.175511
-0.171958
-0.164729
-0.155631
-0.145561
-0.134857
-0.12359
-0.111793
-0.0992659
-0.0862417
-0.0732039
-0.0604575
-0.0483491
-0.0368535
-0.0263548
-0.0172858
-0.00972359
-0.00402975
0.000259993
-0.128599
-0.142041
-0.150398
-0.152925
-0.150476
-0.144927
-0.137726
-0.129644
-0.121063
-0.111926
-0.102197
-0.0918788
-0.081236
-0.0704584
-0.0595427
-0.0488744
-0.0385702
-0.0290867
-0.0208901
-0.013795
-0.0080789
-0.00356901
-0.112036
-0.123287
-0.130538
-0.133077
-0.131505
-0.127265
-0.121588
-0.115157
-0.10826
-0.100875
-0.0930582
-0.0847679
-0.0760966
-0.0670752
-0.057685
-0.0485008
-0.039675
-0.0313665
-0.0238552
-0.0170089
-0.0113521
-0.00692223
-0.097232
-0.106707
-0.113033
-0.115584
-0.114704
-0.111535
-0.107109
-0.101988
-0.0965081
-0.0906492
-0.0844186
-0.0777689
-0.0706504
-0.0631157
-0.0553244
-0.0477069
-0.040104
-0.0326453
-0.0258488
-0.0195748
-0.0142186
-0.00994136
-0.0843584
-0.0924594
-0.0980241
-0.100465
-0.100036
-0.0976695
-0.0942087
-0.0901856
-0.0858499
-0.0811529
-0.0762053
-0.0708594
-0.0650782
-0.0590895
-0.0527699
-0.0462779
-0.0397094
-0.0332824
-0.0273252
-0.0215989
-0.016532
-0.0124476
-0.073183
-0.0800155
-0.084826
-0.0871195
-0.0870574
-0.0853387
-0.0826758
-0.0795109
-0.0760733
-0.0723783
-0.0684681
-0.064246
-0.0597503
-0.0549492
-0.0496646
-0.044284
-0.0388222
-0.0332847
-0.028034
-0.022903
-0.0182757
-0.0145196
-0.0635644
-0.0692971
-0.0734616
-0.0755919
-0.0757549
-0.0745101
-0.0724345
-0.0699326
-0.0672509
-0.0643709
-0.0613597
-0.0581064
-0.0545184
-0.0506301
-0.0464048
-0.0420533
-0.0374578
-0.0327274
-0.0282376
-0.0237426
-0.0195874
-0.0161457
-0.0551135
-0.0599279
-0.0635237
-0.0654709
-0.065789
-0.0649172
-0.0633402
-0.0614168
-0.0593441
-0.0571122
-0.0547811
-0.0522264
-0.0494337
-0.0464278
-0.0430646
-0.0395364
-0.0357501
-0.0317847
-0.0279676
-0.0240402
-0.0203389
-0.0172635
-0.0478154
-0.051855
-0.0549351
-0.0566662
-0.0570828
-0.0565315
-0.0553808
-0.0539155
-0.0523119
-0.0505625
-0.048747
-0.0467856
-0.0446704
-0.0423712
-0.0397179
-0.0368969
-0.0337953
-0.030481
-0.0272654
-0.0238902
-0.0206918
-0.0180255
-0.0414847
-0.0448403
-0.0474601
-0.0490213
-0.0495258
-0.0492271
-0.0483892
-0.0472533
-0.0459919
-0.0446367
-0.0432803
-0.0418057
-0.0402108
-0.0384602
-0.036373
-0.0341492
-0.0316473
-0.0289035
-0.0262445
-0.0234049
-0.0206606
-0.0183486
-0.0360571
-0.0388523
-0.0411053
-0.0425113
-0.0430268
-0.0428404
-0.0421902
-0.0413077
-0.0403402
-0.039317
-0.038322
-0.0372325
-0.0360536
-0.0347486
-0.0331523
-0.0314409
-0.0294346
-0.0271836
-0.0250101
-0.022628
-0.0203095
-0.0183792
-0.03139
-0.033712
-0.0356147
-0.036812
-0.037273
-0.0371732
-0.0367046
-0.0360693
-0.0353872
-0.0346549
-0.0339341
-0.0331215
-0.032263
-0.0313178
-0.0301065
-0.0288004
-0.0272114
-0.0253679
-0.0235939
-0.0216389
-0.0197304
-0.0181202
-0.0273934
-0.0292731
-0.0308266
-0.0318274
-0.0322732
-0.0323053
-0.0320428
-0.0316128
-0.0310998
-0.030533
-0.0300019
-0.0294052
-0.0287974
-0.0281338
-0.0272398
-0.0262759
-0.0250246
-0.0235137
-0.0220878
-0.0205073
-0.0189487
-0.0176302
-0.0239638
-0.0254581
-0.0267458
-0.0276329
-0.0280848
-0.0281688
-0.0279707
-0.0276328
-0.0272431
-0.026838
-0.0264963
-0.0260965
-0.0256922
-0.0252475
-0.024601
-0.0239014
-0.0229256
-0.0216965
-0.0205521
-0.019287
-0.0180524
-0.0170025
-0.0210572
-0.0222791
-0.0233484
-0.0240758
-0.0244253
-0.0244903
-0.0243572
-0.0241532
-0.0239329
-0.0236969
-0.0234939
-0.0232104
-0.0229317
-0.0226417
-0.0221908
-0.0217085
-0.0209607
-0.0199599
-0.0190418
-0.018046
-0.017088
-0.0162575
-0.0187066
-0.0196363
-0.0204371
-0.0209801
-0.0212623
-0.0213648
-0.0213343
-0.0212504
-0.021132
-0.0209815
-0.0208572
-0.0206601
-0.0204856
-0.0203246
-0.0200357
-0.0197233
-0.0191542
-0.0183384
-0.0176001
-0.0168252
-0.0161023
-0.0154622
-0.0167132
-0.0173908
-0.0179932
-0.0184216
-0.0186638
-0.0187707
-0.018772
-0.0187465
-0.0187078
-0.0186491
-0.0186079
-0.0184858
-0.0183847
-0.0183103
-0.01814
-0.0179561
-0.0175305
-0.0168636
-0.016264
-0.0156722
-0.0151482
-0.0146635
-0.0151023
-0.015608
-0.016048
-0.0163492
-0.0165139
-0.0166007
-0.0166357
-0.0166794
-0.0167197
-0.0167317
-0.0167382
-0.0166603
-0.0166058
-0.0165908
-0.0165114
-0.0164245
-0.0161132
-0.0155667
-0.0150749
-0.0146322
-0.014264
-0.0138973
-0.0138325
-0.0141839
-0.0144769
-0.0146751
-0.0147944
-0.0148826
-0.0149538
-0.015044
-0.0151274
-0.0151769
-0.01521
-0.015169
-0.0151499
-0.0151736
-0.0151589
-0.0151367
-0.0149154
-0.0144739
-0.0140685
-0.0137405
-0.0134849
-0.0132031
-0.0128216
-0.0130675
-0.0132681
-0.0134089
-0.0135067
-0.0135978
-0.0136899
-0.0138047
-0.0139153
-0.0139934
-0.0140448
-0.0140312
-0.014029
-0.0140652
-0.014084
-0.0140964
-0.013951
-0.013614
-0.0132892
-0.0130409
-0.0128454
-0.0126123
-0.0120866
-0.0122704
-0.0124243
-0.0125468
-0.0126498
-0.0127527
-0.0128597
-0.0129791
-0.0130951
-0.0131838
-0.0132447
-0.0132577
-0.0132638
-0.0132931
-0.0133128
-0.0133228
-0.0132371
-0.0130104
-0.0127669
-0.0125673
-0.0123854
-0.0121715
-0.0116613
-0.0118089
-0.0119443
-0.0120724
-0.0121975
-0.0123253
-0.0124536
-0.0125766
-0.0126872
-0.0127692
-0.0128265
-0.0128583
-0.0128721
-0.0128909
-0.0128959
-0.0128796
-0.0128228
-0.0126873
-0.0125137
-0.0123327
-0.0121363
-0.0119221
-0.249629
-0.281656
-0.320714
-0.363727
-0.410864
-0.231234
-0.257328
-0.285695
-0.313787
-0.348376
-0.202562
-0.220728
-0.24023
-0.261113
-0.294599
-0.178313
-0.192783
-0.210297
-0.231635
-0.260549
-0.174974
-0.191323
-0.208819
-0.228842
-0.158017
-0.169563
-0.181614
-0.19785
-0.138875
-0.147384
-0.158136
-0.173427
-0.122491
-0.130427
-0.140287
-0.152707
-0.109403
-0.116095
-0.123502
-0.13304
-0.0970001
-0.101895
-0.107607
-0.11584
-0.0852399
-0.0892605
-0.0943372
-0.101492
-0.0750912
-0.0786226
-0.0828808
-0.0886227
-0.0662778
-0.0690954
-0.0724149
-0.0771029
-0.0582081
-0.0603808
-0.0630903
-0.0670876
-0.0510652
-0.0528471
-0.0551464
-0.0585088
-0.0448751
-0.0463361
-0.0482056
-0.0509453
-0.0394366
-0.0405888
-0.0420941
-0.0443533
-0.0346234
-0.0355427
-0.0367768
-0.038638
-0.030431
-0.0311831
-0.0322026
-0.0337256
-0.0268249
-0.0274201
-0.0282408
-0.0294779
-0.0236498
-0.0241207
-0.0248126
-0.0258406
-0.0209384
-0.0213659
-0.0219566
-0.0227617
-0.0186746
-0.0190094
-0.0194662
-0.0200937
-0.016674
-0.0169755
-0.0173987
-0.0179414
-0.0150618
-0.0153659
-0.01574
-0.0161583
-0.0137086
-0.0139882
-0.0143172
-0.014668
-0.0125949
-0.0128735
-0.0131863
-0.0134974
-0.0117617
-0.0120224
-0.0122997
-0.0125643
-0.0111927
-0.0114231
-0.0116587
-0.0118822
-0.0109036
-0.0111079
-0.0113079
-0.0114956
)
;

boundaryField
{
    outlet
    {
        type            fixedValue;
        value           nonuniform 0();
    }
    upperWall
    {
        type            symmetryPlane;
    }
    lowerWall
    {
        type            symmetryPlane;
    }
    inlet
    {
        type            zeroGradient;
    }
    cylinder
    {
        type            zeroGradient;
    }
    frontAndBack
    {
        type            empty;
    }
    procBoundary6to2
    {
        type            processor;
        value           nonuniform List<scalar> 
37
(
-0.211555
-0.276326
-0.343845
-0.412173
-0.479992
-0.546128
-0.609559
-0.669268
-0.724343
-0.773773
-0.816342
-0.850501
-0.874408
-0.886212
-0.884726
-0.869898
-0.842889
-0.799425
-0.731879
-0.646648
-0.545075
-0.431231
-0.314247
-0.198556
-0.0911655
0.00469142
0.0848212
0.147393
0.191672
0.21132
0.211278
0.196309
0.172701
0.146712
0.123106
0.103722
0.0877847
)
;
    }
    procBoundary6to5
    {
        type            processor;
        value           nonuniform List<scalar> 
63
(
-0.335658
-0.335658
-0.334221
-0.367422
-0.367422
-0.347859
-0.359805
-0.359805
-0.316823
-0.317343
-0.314225
-0.314225
-0.268466
-0.260865
-0.254551
-0.254551
-0.152211
-0.241889
-0.241889
-0.287214
-0.332598
-0.368092
-0.425965
-0.425965
-0.46002
-0.46002
-0.465419
-0.465419
-0.43897
-0.43897
-0.38394
-0.38394
-0.218993
-0.205158
-0.183414
-0.163568
-0.160929
-0.160929
-0.146337
-0.130444
-0.115422
-0.103059
-0.0920516
-0.0814802
-0.0719332
-0.0636737
-0.0562119
-0.0494986
-0.0436026
-0.0384385
-0.0338533
-0.02982
-0.0263433
-0.0232999
-0.0206296
-0.018414
-0.0164581
-0.0148237
-0.0134762
-0.0123579
-0.0115273
-0.0109742
-0.0106995
)
;
    }
    procBoundary6to7
    {
        type            processor;
        value           nonuniform List<scalar> 
42
(
0.0745406
0.0733869
0.0708472
0.0680134
0.0655515
0.0631633
0.0631633
0.054326
0.050798
0.0487221
0.0434312
0.0434312
0.0382455
0.0331347
0.0297105
0.025447
0.0203348
0.016996
0.0113995
0.00820333
0.00361047
7.81415e-05
-0.00327554
-0.00631559
-0.00895165
-0.0112382
-0.0130424
-0.0144728
-0.0155115
-0.0161417
-0.0164884
-0.016493
-0.0162805
-0.0158867
-0.0153456
-0.0147314
-0.0140811
-0.0134368
-0.0128396
-0.0123122
-0.0119053
-0.0116646
)
;
    }
}


// ************************************************************************* //
