/*--------------------------------*- C++ -*----------------------------------*\
| =========                 |                                                 |
| \\      /  F ield         | OpenFOAM: The Open Source CFD Toolbox           |
|  \\    /   O peration     | Version:                                        |
|   \\  /    A nd           | Website:  www.openfoam.com                      |
|    \\/     M anipulation  |                                                 |
\*---------------------------------------------------------------------------*/
FoamFile
{
    version     2.0;
    format      ascii;
    class       volScalarField;
    location    "71";
    object      p;
}
// * * * * * * * * * * * * * * * * * * * * * * * * * * * * * * * * * * * * * //

dimensions      [0 2 -2 0 0 0 0];


internalField   nonuniform List<scalar> 
1250
(
8.01149
7.94713
7.88277
7.81842
7.75407
7.68972
7.62537
7.56102
7.49667
7.43232
7.36797
7.30363
7.23928
7.17493
7.11058
7.04623
6.98188
6.91753
6.85318
6.78883
6.72448
6.66013
6.59578
6.53144
6.46708
6.40274
6.33839
6.27404
6.20969
6.14534
6.08099
6.01664
5.95229
5.88795
5.8236
5.75925
5.6949
5.63055
5.5662
5.50185
5.4375
5.37315
5.3088
5.24446
5.18011
5.11576
5.05141
4.98706
4.92271
4.85836
4.79401
4.72967
4.66532
4.60097
4.53662
4.47227
4.40792
4.34357
4.27922
4.21488
4.15053
4.08618
4.02183
3.95748
3.89313
3.82878
3.76443
3.70008
3.63573
3.57139
3.50704
3.44269
3.37834
3.31399
3.24964
3.18529
3.12094
3.05659
2.99224
2.92789
2.86354
2.7992
2.73485
2.6705
2.60615
2.5418
2.47745
2.4131
2.34875
2.2844
2.22005
2.15571
2.09136
2.02701
1.96266
1.89831
1.83396
1.76961
1.70526
1.64092
1.57656
1.51222
1.44787
1.38352
1.31917
1.25482
1.19047
1.12612
1.06177
0.997418
0.933066
0.868716
0.804363
0.740011
0.675657
0.611304
0.546947
0.482592
0.418233
0.353876
0.289514
0.225155
0.16079
0.0964
0.0321489
8.01149
7.94713
7.88277
7.81842
7.75407
7.68972
7.62537
7.56102
7.49667
7.43232
7.36798
7.30363
7.23928
7.17493
7.11058
7.04623
6.98188
6.91753
6.85318
6.78883
6.72448
6.66013
6.59579
6.53144
6.46709
6.40274
6.33839
6.27404
6.20969
6.14534
6.08099
6.01664
5.95229
5.88794
5.8236
5.75925
5.6949
5.63055
5.5662
5.50185
5.4375
5.37315
5.30881
5.24446
5.18011
5.11576
5.05141
4.98706
4.92271
4.85836
4.79402
4.72967
4.66532
4.60097
4.53662
4.47227
4.40792
4.34357
4.27922
4.21487
4.15053
4.08618
4.02183
3.95748
3.89313
3.82878
3.76443
3.70008
3.63573
3.57138
3.50704
3.44269
3.37834
3.31399
3.24964
3.18529
3.12094
3.05659
2.99224
2.92789
2.86355
2.7992
2.73485
2.6705
2.60615
2.5418
2.47745
2.4131
2.34875
2.2844
2.22006
2.15571
2.09136
2.02701
1.96266
1.89831
1.83396
1.76961
1.70526
1.64091
1.57657
1.51222
1.44787
1.38352
1.31917
1.25482
1.19047
1.12612
1.06177
0.99742
0.933071
0.868719
0.804369
0.740016
0.675665
0.611311
0.546959
0.482603
0.418249
0.353891
0.289534
0.225174
0.160807
0.0964249
0.0321566
8.01149
7.94713
7.88277
7.81842
7.75407
7.68972
7.62537
7.56102
7.49667
7.43232
7.36798
7.30363
7.23928
7.17493
7.11058
7.04623
6.98188
6.91753
6.85318
6.78883
6.72448
6.66013
6.59578
6.53144
6.46709
6.40274
6.33839
6.27404
6.20969
6.14534
6.08099
6.01664
5.95229
5.88794
5.8236
5.75925
5.6949
5.63055
5.5662
5.50185
5.4375
5.37315
5.30881
5.24446
5.18011
5.11576
5.05141
4.98706
4.92271
4.85836
4.79401
4.72967
4.66532
4.60097
4.53662
4.47227
4.40792
4.34357
4.27922
4.21487
4.15053
4.08618
4.02183
3.95748
3.89313
3.82878
3.76443
3.70008
3.63573
3.57138
3.50704
3.44269
3.37834
3.31399
3.24964
3.18529
3.12094
3.05659
2.99224
2.92789
2.86355
2.7992
2.73485
2.6705
2.60615
2.5418
2.47745
2.4131
2.34875
2.2844
2.22006
2.15571
2.09136
2.02701
1.96266
1.89831
1.83396
1.76961
1.70526
1.64091
1.57657
1.51222
1.44787
1.38352
1.31917
1.25482
1.19047
1.12612
1.06177
0.997421
0.933071
0.86872
0.804369
0.740017
0.675665
0.611313
0.54696
0.482605
0.41825
0.353894
0.289536
0.225177
0.160811
0.0964294
0.0321595
8.01149
7.94713
7.88277
7.81842
7.75407
7.68972
7.62537
7.56102
7.49667
7.43233
7.36798
7.30363
7.23928
7.17493
7.11058
7.04623
6.98188
6.91753
6.85318
6.78883
6.72448
6.66013
6.59578
6.53144
6.46709
6.40274
6.33839
6.27404
6.20969
6.14534
6.08099
6.01664
5.95229
5.88794
5.8236
5.75925
5.6949
5.63055
5.5662
5.50185
5.4375
5.37315
5.3088
5.24446
5.18011
5.11576
5.05141
4.98706
4.92271
4.85836
4.79401
4.72967
4.66532
4.60097
4.53662
4.47227
4.40792
4.34357
4.27922
4.21487
4.15053
4.08618
4.02183
3.95748
3.89313
3.82878
3.76443
3.70008
3.63573
3.57138
3.50704
3.44269
3.37834
3.31399
3.24964
3.18529
3.12094
3.05659
2.99224
2.92789
2.86355
2.7992
2.73485
2.6705
2.60615
2.5418
2.47745
2.4131
2.34875
2.2844
2.22006
2.15571
2.09136
2.02701
1.96266
1.89831
1.83396
1.76961
1.70526
1.64092
1.57657
1.51222
1.44787
1.38352
1.31917
1.25482
1.19047
1.12612
1.06177
0.997422
0.933072
0.868721
0.804371
0.740019
0.675668
0.611316
0.546963
0.482609
0.418255
0.353899
0.289542
0.225185
0.16082
0.0964407
0.032165
8.01149
7.94713
7.88277
7.81842
7.75407
7.68972
7.62537
7.56102
7.49667
7.43233
7.36798
7.30363
7.23928
7.17493
7.11058
7.04623
6.98188
6.91753
6.85318
6.78883
6.72448
6.66013
6.59579
6.53144
6.46709
6.40274
6.33839
6.27404
6.20969
6.14534
6.08099
6.01664
5.95229
5.88794
5.8236
5.75925
5.6949
5.63055
5.5662
5.50185
5.4375
5.37315
5.3088
5.24446
5.18011
5.11576
5.05141
4.98706
4.92271
4.85836
4.79401
4.72967
4.66532
4.60097
4.53662
4.47227
4.40792
4.34357
4.27922
4.21487
4.15053
4.08618
4.02183
3.95748
3.89313
3.82878
3.76443
3.70008
3.63573
3.57138
3.50704
3.44269
3.37834
3.31399
3.24964
3.18529
3.12094
3.05659
2.99224
2.92789
2.86355
2.7992
2.73485
2.6705
2.60615
2.5418
2.47745
2.4131
2.34875
2.2844
2.22006
2.15571
2.09136
2.02701
1.96266
1.89831
1.83396
1.76961
1.70526
1.64092
1.57657
1.51222
1.44787
1.38352
1.31917
1.25482
1.19047
1.12612
1.06177
0.997423
0.933073
0.868723
0.804372
0.740021
0.67567
0.611319
0.546966
0.482613
0.41826
0.353905
0.289548
0.225192
0.16083
0.0964549
0.0321698
8.01149
7.94713
7.88277
7.81842
7.75407
7.68972
7.62537
7.56103
7.49668
7.43233
7.36798
7.30363
7.23928
7.17493
7.11058
7.04623
6.98188
6.91753
6.85318
6.78883
6.72448
6.66013
6.59579
6.53144
6.46709
6.40274
6.33839
6.27404
6.20969
6.14534
6.08099
6.01664
5.95229
5.88794
5.8236
5.75925
5.6949
5.63055
5.5662
5.50185
5.4375
5.37315
5.3088
5.24446
5.18011
5.11576
5.05141
4.98706
4.92271
4.85836
4.79401
4.72967
4.66532
4.60097
4.53662
4.47227
4.40792
4.34357
4.27922
4.21487
4.15053
4.08618
4.02183
3.95748
3.89313
3.82878
3.76443
3.70008
3.63573
3.57138
3.50704
3.44269
3.37834
3.31399
3.24964
3.18529
3.12094
3.05659
2.99224
2.92789
2.86354
2.7992
2.73485
2.6705
2.60615
2.5418
2.47745
2.4131
2.34875
2.2844
2.22006
2.15571
2.09136
2.02701
1.96266
1.89831
1.83396
1.76961
1.70526
1.64092
1.57657
1.51222
1.44787
1.38352
1.31917
1.25482
1.19047
1.12612
1.06177
0.997424
0.933074
0.868724
0.804374
0.740023
0.675672
0.611321
0.546969
0.482617
0.418264
0.35391
0.289555
0.2252
0.160839
0.09647
0.0321737
8.01149
7.94713
7.88278
7.81843
7.75408
7.68973
7.62538
7.56103
7.49668
7.43233
7.36798
7.30363
7.23928
7.17493
7.11058
7.04623
6.98188
6.91753
6.85318
6.78883
6.72448
6.66013
6.59579
6.53144
6.46709
6.40274
6.33839
6.27404
6.20969
6.14534
6.08099
6.01664
5.95229
5.88794
5.8236
5.75925
5.6949
5.63055
5.5662
5.50185
5.4375
5.37315
5.3088
5.24446
5.18011
5.11576
5.05141
4.98706
4.92271
4.85836
4.79401
4.72967
4.66532
4.60097
4.53662
4.47227
4.40792
4.34357
4.27922
4.21487
4.15053
4.08618
4.02183
3.95748
3.89313
3.82878
3.76443
3.70008
3.63573
3.57138
3.50704
3.44269
3.37834
3.31399
3.24964
3.18529
3.12094
3.05659
2.99224
2.92789
2.86354
2.7992
2.73485
2.6705
2.60615
2.5418
2.47745
2.4131
2.34875
2.2844
2.22006
2.15571
2.09136
2.02701
1.96266
1.89831
1.83396
1.76961
1.70526
1.64092
1.57657
1.51222
1.44787
1.38352
1.31917
1.25482
1.19047
1.12612
1.06177
0.997425
0.933075
0.868726
0.804375
0.740025
0.675675
0.611324
0.546973
0.482621
0.418269
0.353916
0.289561
0.225207
0.160848
0.0964856
0.0321771
8.01149
7.94713
7.88278
7.81843
7.75408
7.68973
7.62538
7.56103
7.49668
7.43233
7.36798
7.30363
7.23928
7.17493
7.11058
7.04623
6.98188
6.91753
6.85318
6.78883
6.72448
6.66013
6.59579
6.53144
6.46709
6.40274
6.33839
6.27404
6.20969
6.14534
6.08099
6.01664
5.95229
5.88794
5.8236
5.75925
5.6949
5.63055
5.5662
5.50185
5.4375
5.37315
5.3088
5.24446
5.18011
5.11576
5.05141
4.98706
4.92271
4.85836
4.79401
4.72967
4.66532
4.60097
4.53662
4.47227
4.40792
4.34357
4.27922
4.21487
4.15053
4.08618
4.02183
3.95748
3.89313
3.82878
3.76443
3.70008
3.63573
3.57138
3.50704
3.44269
3.37834
3.31399
3.24964
3.18529
3.12094
3.05659
2.99224
2.92789
2.86354
2.7992
2.73485
2.6705
2.60615
2.5418
2.47745
2.4131
2.34875
2.2844
2.22006
2.15571
2.09136
2.02701
1.96266
1.89831
1.83396
1.76961
1.70526
1.64092
1.57657
1.51222
1.44787
1.38352
1.31917
1.25482
1.19047
1.12612
1.06177
0.997426
0.933076
0.868727
0.804377
0.740027
0.675677
0.611327
0.546976
0.482625
0.418273
0.353921
0.289568
0.225214
0.160857
0.0965009
0.0321802
8.01149
7.94714
7.88278
7.81843
7.75408
7.68973
7.62538
7.56103
7.49668
7.43233
7.36798
7.30363
7.23928
7.17493
7.11058
7.04623
6.98188
6.91753
6.85318
6.78883
6.72448
6.66014
6.59579
6.53144
6.46709
6.40274
6.33839
6.27404
6.20969
6.14534
6.08099
6.01664
5.95229
5.88794
5.8236
5.75925
5.6949
5.63055
5.5662
5.50185
5.4375
5.37315
5.3088
5.24446
5.18011
5.11576
5.05141
4.98706
4.92271
4.85836
4.79401
4.72967
4.66532
4.60097
4.53662
4.47227
4.40792
4.34357
4.27922
4.21487
4.15052
4.08618
4.02183
3.95748
3.89313
3.82878
3.76443
3.70008
3.63573
3.57138
3.50704
3.44269
3.37834
3.31399
3.24964
3.18529
3.12094
3.05659
2.99224
2.92789
2.86354
2.7992
2.73485
2.6705
2.60615
2.5418
2.47745
2.4131
2.34875
2.2844
2.22005
2.15571
2.09136
2.02701
1.96266
1.89831
1.83396
1.76961
1.70526
1.64092
1.57657
1.51222
1.44787
1.38352
1.31917
1.25482
1.19047
1.12612
1.06178
0.997426
0.933077
0.868728
0.804378
0.740029
0.675679
0.611329
0.546979
0.482628
0.418277
0.353926
0.289573
0.22522
0.160865
0.0965154
0.0321829
8.01149
7.94714
7.88279
7.81843
7.75408
7.68973
7.62538
7.56103
7.49668
7.43233
7.36798
7.30363
7.23928
7.17493
7.11058
7.04623
6.98188
6.91753
6.85318
6.78883
6.72448
6.66014
6.59579
6.53144
6.46709
6.40274
6.33839
6.27404
6.20969
6.14534
6.08099
6.01664
5.95229
5.88794
5.8236
5.75925
5.6949
5.63055
5.5662
5.50185
5.4375
5.37315
5.3088
5.24446
5.18011
5.11576
5.05141
4.98706
4.92271
4.85836
4.79401
4.72967
4.66532
4.60097
4.53662
4.47227
4.40792
4.34357
4.27922
4.21487
4.15052
4.08618
4.02183
3.95748
3.89313
3.82878
3.76443
3.70008
3.63573
3.57138
3.50703
3.44269
3.37834
3.31399
3.24964
3.18529
3.12094
3.05659
2.99224
2.92789
2.86354
2.7992
2.73485
2.6705
2.60615
2.5418
2.47745
2.4131
2.34875
2.2844
2.22005
2.15571
2.09136
2.02701
1.96266
1.89831
1.83396
1.76961
1.70526
1.64092
1.57657
1.51222
1.44787
1.38352
1.31917
1.25482
1.19047
1.12613
1.06178
0.997427
0.933078
0.868729
0.804379
0.74003
0.67568
0.611331
0.546981
0.482631
0.418281
0.35393
0.289579
0.225226
0.160872
0.0965285
0.0321851
)
;

boundaryField
{
    inlet
    {
        type            zeroGradient;
    }
    outlet
    {
        type            fixedValue;
        value           uniform 0;
    }
    wall
    {
        type            zeroGradient;
    }
    back
    {
        type            wedge;
    }
    front
    {
        type            wedge;
    }
    axis
    {
        type            empty;
    }
    procBoundary3to2
    {
        type            processor;
        value           nonuniform List<scalar> 10(8.07586 8.07586 8.07586 8.07586 8.07586 8.07586 8.07585 8.07585 8.07585 8.07585);
    }
    procBoundary3to7
    {
        type            processor;
        value           nonuniform List<scalar> 
125
(
8.01149
7.94714
7.88279
7.81844
7.75409
7.68974
7.62539
7.56103
7.49668
7.43233
7.36798
7.30363
7.23928
7.17493
7.11058
7.04623
6.98188
6.91753
6.85318
6.78883
6.72449
6.66014
6.59579
6.53144
6.46709
6.40274
6.33839
6.27404
6.20969
6.14534
6.08099
6.01664
5.95229
5.88794
5.8236
5.75925
5.6949
5.63055
5.5662
5.50185
5.4375
5.37315
5.3088
5.24446
5.18011
5.11576
5.05141
4.98706
4.92271
4.85836
4.79401
4.72966
4.66532
4.60097
4.53662
4.47227
4.40792
4.34357
4.27922
4.21487
4.15052
4.08618
4.02183
3.95748
3.89313
3.82878
3.76443
3.70008
3.63573
3.57138
3.50704
3.44269
3.37834
3.31399
3.24964
3.18529
3.12094
3.05659
2.99224
2.92789
2.86354
2.7992
2.73485
2.6705
2.60615
2.5418
2.47745
2.4131
2.34875
2.2844
2.22006
2.15571
2.09136
2.02701
1.96266
1.89831
1.83396
1.76961
1.70526
1.64092
1.57657
1.51222
1.44787
1.38352
1.31917
1.25482
1.19047
1.12612
1.06178
0.997427
0.933078
0.868729
0.80438
0.74003
0.675682
0.611332
0.546983
0.482633
0.418284
0.353934
0.289583
0.22523
0.160877
0.0965386
0.0321866
)
;
    }
}


// ************************************************************************* //
