/*--------------------------------*- C++ -*----------------------------------*\
| =========                 |                                                 |
| \\      /  F ield         | OpenFOAM: The Open Source CFD Toolbox           |
|  \\    /   O peration     | Version:                                        |
|   \\  /    A nd           | Website:  www.openfoam.com                      |
|    \\/     M anipulation  |                                                 |
\*---------------------------------------------------------------------------*/
FoamFile
{
    version     2.0;
    format      ascii;
    class       surfaceScalarField;
    location    "71";
    object      phi;
}
// * * * * * * * * * * * * * * * * * * * * * * * * * * * * * * * * * * * * * //

dimensions      [0 3 -1 0 0 0 0];
oriented        oriented;


internalField   nonuniform List<scalar> 
2365
(
8.64492e-07
3.89786e-13
8.64491e-07
4.22894e-13
8.64491e-07
3.28977e-13
8.64491e-07
2.58584e-13
8.6449e-07
8.86262e-14
8.6449e-07
1.54365e-14
8.64491e-07
-1.34357e-13
8.64491e-07
-1.77402e-13
8.64491e-07
-2.95502e-13
8.64491e-07
-3.05381e-13
8.64492e-07
-3.93657e-13
8.64492e-07
-3.7689e-13
8.64493e-07
-4.43193e-13
8.64493e-07
-4.06903e-13
8.64493e-07
-4.57895e-13
8.64494e-07
-4.09104e-13
8.64494e-07
-4.50837e-13
8.64495e-07
-3.93727e-13
8.64495e-07
-4.29524e-13
8.64495e-07
-3.679e-13
8.64496e-07
-4.00854e-13
8.64496e-07
-3.36355e-13
8.64497e-07
-3.67631e-13
8.64497e-07
-3.0225e-13
8.64497e-07
-3.33432e-13
8.64497e-07
-2.67534e-13
8.64498e-07
-2.98751e-13
8.64498e-07
-2.33503e-13
8.64498e-07
-2.65693e-13
8.64499e-07
-2.0096e-13
8.64499e-07
-2.33863e-13
8.64499e-07
-1.70466e-13
8.64499e-07
-2.04726e-13
8.64499e-07
-1.42245e-13
8.64499e-07
-1.7737e-13
8.645e-07
-1.16439e-13
8.645e-07
-1.52948e-13
8.645e-07
-9.30641e-14
8.645e-07
-1.30421e-13
8.645e-07
-7.21434e-14
8.645e-07
-1.10806e-13
8.645e-07
-5.35353e-14
8.645e-07
-9.28981e-14
8.645e-07
-3.71328e-14
8.645e-07
-7.76423e-14
8.645e-07
-2.279e-14
8.645e-07
-6.38798e-14
8.645e-07
-1.04309e-14
8.645e-07
-5.25434e-14
8.64501e-07
1.44134e-16
8.64501e-07
-4.23918e-14
8.64501e-07
9.06974e-15
8.64501e-07
-3.43458e-14
8.64501e-07
1.64945e-14
8.64501e-07
-2.72601e-14
8.64501e-07
2.2476e-14
8.64501e-07
-2.20863e-14
8.64501e-07
2.71757e-14
8.64501e-07
-1.76317e-14
8.64501e-07
3.06791e-14
8.64501e-07
-1.48655e-14
8.64501e-07
3.30791e-14
8.64501e-07
-1.26941e-14
8.64501e-07
3.43901e-14
8.64501e-07
-1.21056e-14
8.64501e-07
3.47454e-14
8.645e-07
-1.19174e-14
8.64501e-07
3.42368e-14
8.645e-07
-1.30798e-14
8.645e-07
3.29929e-14
8.645e-07
-1.44418e-14
8.645e-07
3.10934e-14
8.645e-07
-1.69226e-14
8.645e-07
2.87448e-14
8.645e-07
-1.92615e-14
8.645e-07
2.61013e-14
8.645e-07
-2.2359e-14
8.645e-07
2.33194e-14
8.645e-07
-2.50564e-14
8.64501e-07
2.04431e-14
8.645e-07
-2.83426e-14
8.64501e-07
1.75588e-14
8.645e-07
-3.11236e-14
8.64501e-07
1.4587e-14
8.64501e-07
-3.45869e-14
8.64501e-07
1.1325e-14
8.64501e-07
-3.80078e-14
8.64501e-07
7.29884e-15
8.64501e-07
-4.29728e-14
8.64501e-07
1.89638e-15
8.64501e-07
-4.92046e-14
8.64501e-07
-5.88687e-15
8.64501e-07
-5.894e-14
8.64501e-07
-1.74521e-14
8.64501e-07
-7.28428e-14
8.64501e-07
-3.48416e-14
8.64501e-07
-9.4286e-14
8.64501e-07
-6.07227e-14
8.64501e-07
-1.2538e-13
8.64501e-07
-9.88202e-14
8.64501e-07
-1.71463e-13
8.64502e-07
-1.54137e-13
8.64502e-07
-2.37383e-13
8.64502e-07
-2.33559e-13
8.64502e-07
-3.321e-13
8.64503e-07
-3.46329e-13
8.64503e-07
-4.65408e-13
8.64504e-07
-5.05103e-13
8.64504e-07
-6.52942e-13
8.64505e-07
-7.26774e-13
8.64506e-07
-9.13163e-13
8.64507e-07
-1.03336e-12
8.64508e-07
-1.2715e-12
8.6451e-07
-1.45158e-12
8.64511e-07
-1.75597e-12
8.64513e-07
-2.01078e-12
8.64516e-07
-2.39475e-12
8.64518e-07
-2.7328e-12
8.64521e-07
-3.19803e-12
8.64525e-07
-3.60533e-12
8.64529e-07
-4.11991e-12
8.64533e-07
-4.52802e-12
8.64538e-07
-4.85611e-12
8.64543e-07
-5.26919e-12
-4.96415e-12
2.58292e-06
1.90138e-12
2.58292e-06
1.6222e-12
2.58292e-06
1.31931e-12
2.58292e-06
7.86046e-13
2.58292e-06
3.52742e-13
2.58292e-06
-1.47266e-13
2.58292e-06
-4.76622e-13
2.58292e-06
-8.51858e-13
2.58292e-06
-1.05158e-12
2.58292e-06
-1.30549e-12
2.58292e-06
-1.39607e-12
2.58292e-06
-1.5556e-12
2.58292e-06
-1.5648e-12
2.58292e-06
-1.65812e-12
2.58292e-06
-1.61332e-12
2.58293e-06
-1.66318e-12
2.58293e-06
-1.58223e-12
2.58293e-06
-1.60471e-12
2.58293e-06
-1.50281e-12
2.58293e-06
-1.50933e-12
2.58293e-06
-1.39435e-12
2.58293e-06
-1.39233e-12
2.58293e-06
-1.27208e-12
2.58293e-06
-1.26667e-12
2.58294e-06
-1.14368e-12
2.58294e-06
-1.13791e-12
2.58294e-06
-1.01642e-12
2.58294e-06
-1.01255e-12
2.58294e-06
-8.92826e-13
2.58294e-06
-8.92059e-13
2.58294e-06
-7.76745e-13
2.58294e-06
-7.7996e-13
2.58294e-06
-6.68053e-13
2.58294e-06
-6.75391e-13
2.58294e-06
-5.68723e-13
2.58294e-06
-5.80492e-13
2.58294e-06
-4.77676e-13
2.58294e-06
-4.93732e-13
2.58294e-06
-3.96279e-13
2.58294e-06
-4.166e-13
2.58294e-06
-3.22737e-13
2.58294e-06
-3.46878e-13
2.58294e-06
-2.57908e-13
2.58294e-06
-2.85794e-13
2.58294e-06
-2.00001e-13
2.58294e-06
-2.31276e-13
2.58294e-06
-1.49954e-13
2.58294e-06
-1.84482e-13
2.58294e-06
-1.05758e-13
2.58294e-06
-1.43072e-13
2.58294e-06
-6.8197e-14
2.58294e-06
-1.08248e-13
2.58295e-06
-3.55277e-14
2.58294e-06
-7.80288e-14
2.58295e-06
-8.80077e-15
2.58294e-06
-5.3713e-14
2.58295e-06
1.3811e-14
2.58294e-06
-3.31559e-14
2.58295e-06
3.1325e-14
2.58294e-06
-1.77699e-14
2.58295e-06
4.52612e-14
2.58294e-06
-5.77389e-15
2.58294e-06
5.43981e-14
2.58294e-06
1.37867e-15
2.58294e-06
6.04351e-14
2.58294e-06
5.75976e-15
2.58294e-06
6.23736e-14
2.58294e-06
5.99203e-15
2.58294e-06
6.1831e-14
2.58294e-06
4.01836e-15
2.58294e-06
5.77909e-14
2.58294e-06
-1.37532e-15
2.58294e-06
5.22192e-14
2.58294e-06
-7.83311e-15
2.58294e-06
4.43769e-14
2.58294e-06
-1.65036e-14
2.58294e-06
3.60612e-14
2.58294e-06
-2.53402e-14
2.58294e-06
2.62336e-14
2.58294e-06
-3.56928e-14
2.58294e-06
1.65791e-14
2.58294e-06
-4.5648e-14
2.58294e-06
5.72691e-15
2.58294e-06
-5.71722e-14
2.58294e-06
-5.56591e-15
2.58294e-06
-6.94809e-14
2.58295e-06
-1.98388e-14
2.58294e-06
-8.56837e-14
2.58295e-06
-3.74621e-14
2.58295e-06
-1.06244e-13
2.58295e-06
-6.25079e-14
2.58295e-06
-1.36199e-13
2.58295e-06
-9.77383e-14
2.58295e-06
-1.78824e-13
2.58295e-06
-1.50314e-13
2.58295e-06
-2.42543e-13
2.58295e-06
-2.26787e-13
2.58295e-06
-3.35006e-13
2.58295e-06
-3.39482e-13
2.58295e-06
-4.7077e-13
2.58295e-06
-5.02263e-13
2.58295e-06
-6.66023e-13
2.58295e-06
-7.37253e-13
2.58295e-06
-9.46525e-13
2.58295e-06
-1.07128e-12
2.58295e-06
-1.34347e-12
2.58295e-06
-1.54385e-12
2.58295e-06
-1.90264e-12
2.58295e-06
-2.20476e-12
2.58296e-06
-2.68126e-12
2.58296e-06
-3.12204e-12
2.58296e-06
-3.75596e-12
2.58296e-06
-4.37845e-12
2.58297e-06
-5.2183e-12
2.58297e-06
-6.07422e-12
2.58298e-06
-7.1706e-12
2.58298e-06
-8.30551e-12
2.58299e-06
-9.696e-12
2.583e-06
-1.11223e-11
2.58301e-06
-1.27686e-11
2.58302e-06
-1.43935e-11
2.58303e-06
-1.61437e-11
2.58304e-06
-1.76342e-11
2.58305e-06
-1.87881e-11
-1.89834e-11
4.26395e-06
4.36586e-12
4.26394e-06
3.53221e-12
4.26394e-06
2.51688e-12
4.26394e-06
1.41164e-12
4.26394e-06
3.66479e-13
4.26394e-06
-5.54357e-13
4.26394e-06
-1.32916e-12
4.26395e-06
-1.96119e-12
4.26395e-06
-2.45864e-12
4.26395e-06
-2.83906e-12
4.26395e-06
-3.1159e-12
4.26395e-06
-3.30824e-12
4.26395e-06
-3.42841e-12
4.26396e-06
-3.49188e-12
4.26396e-06
-3.50621e-12
4.26396e-06
-3.48373e-12
4.26396e-06
-3.42977e-12
4.26396e-06
-3.3536e-12
4.26397e-06
-3.25719e-12
4.26397e-06
-3.14822e-12
4.26397e-06
-3.02794e-12
4.26397e-06
-2.90219e-12
4.26397e-06
-2.76995e-12
4.26397e-06
-2.63646e-12
4.26397e-06
-2.50086e-12
4.26398e-06
-2.36731e-12
4.26398e-06
-2.23347e-12
4.26398e-06
-2.10339e-12
4.26398e-06
-1.97534e-12
4.26398e-06
-1.85253e-12
4.26398e-06
-1.73196e-12
4.26398e-06
-1.61693e-12
4.26398e-06
-1.50526e-12
4.26398e-06
-1.39971e-12
4.26398e-06
-1.29709e-12
4.26399e-06
-1.20039e-12
4.26399e-06
-1.10738e-12
4.26399e-06
-1.02051e-12
4.26399e-06
-9.36455e-13
4.26399e-06
-8.5795e-13
4.26399e-06
-7.82699e-13
4.26399e-06
-7.12988e-13
4.26399e-06
-6.45652e-13
4.26399e-06
-5.83311e-13
4.26399e-06
-5.23842e-13
4.26399e-06
-4.6935e-13
4.26399e-06
-4.16748e-13
4.26399e-06
-3.68455e-13
4.26399e-06
-3.22434e-13
4.26399e-06
-2.80716e-13
4.26399e-06
-2.40419e-13
4.26399e-06
-2.03956e-13
4.26399e-06
-1.69455e-13
4.26399e-06
-1.38892e-13
4.26399e-06
-1.09403e-13
4.26399e-06
-8.33197e-14
4.26399e-06
-5.87822e-14
4.26399e-06
-3.77908e-14
4.26399e-06
-1.76103e-14
4.26399e-06
-6.25892e-16
4.26399e-06
1.49063e-14
4.26399e-06
2.70372e-14
4.26399e-06
3.85313e-14
4.26399e-06
4.70994e-14
4.26399e-06
5.4538e-14
4.26399e-06
5.8889e-14
4.26399e-06
6.28974e-14
4.26399e-06
6.42015e-14
4.26399e-06
6.46448e-14
4.26399e-06
6.22516e-14
4.26399e-06
5.99772e-14
4.26399e-06
5.54522e-14
4.26399e-06
5.07148e-14
4.26399e-06
4.36905e-14
4.26399e-06
3.73647e-14
4.26399e-06
2.9223e-14
4.26399e-06
2.12966e-14
4.26399e-06
1.14071e-14
4.26399e-06
2.62979e-15
4.26399e-06
-7.67252e-15
4.26399e-06
-1.74411e-14
4.26399e-06
-2.90966e-14
4.26399e-06
-3.97212e-14
4.26399e-06
-5.22992e-14
4.26399e-06
-6.49631e-14
4.26399e-06
-8.04616e-14
4.26399e-06
-9.60294e-14
4.26399e-06
-1.15001e-13
4.26399e-06
-1.35791e-13
4.26399e-06
-1.61626e-13
4.26399e-06
-1.90324e-13
4.26399e-06
-2.25822e-13
4.26399e-06
-2.67324e-13
4.26399e-06
-3.18754e-13
4.26399e-06
-3.78889e-13
4.26399e-06
-4.52616e-13
4.26399e-06
-5.40445e-13
4.26399e-06
-6.47679e-13
4.26399e-06
-7.75027e-13
4.26399e-06
-9.29264e-13
4.26399e-06
-1.11347e-12
4.26399e-06
-1.33543e-12
4.26399e-06
-1.59919e-12
4.26399e-06
-1.91481e-12
4.264e-06
-2.2898e-12
4.264e-06
-2.73625e-12
4.264e-06
-3.26412e-12
4.264e-06
-3.88894e-12
4.264e-06
-4.62559e-12
4.26401e-06
-5.49273e-12
4.26401e-06
-6.50909e-12
4.26401e-06
-7.69799e-12
4.26402e-06
-9.0835e-12
4.26402e-06
-1.06915e-11
4.26403e-06
-1.25475e-11
4.26404e-06
-1.46777e-11
4.26405e-06
-1.71024e-11
4.26406e-06
-1.98307e-11
4.26407e-06
-2.28547e-11
4.26408e-06
-2.6127e-11
4.2641e-06
-2.95852e-11
4.26411e-06
-3.31272e-11
4.26413e-06
-3.64425e-11
4.26414e-06
-3.90357e-11
-3.93029e-11
5.8812e-06
7.82896e-12
5.88119e-06
5.84157e-12
5.88119e-06
3.77482e-12
5.88119e-06
1.79923e-12
5.88119e-06
4.61389e-14
5.88119e-06
-1.45001e-12
5.8812e-06
-2.67209e-12
5.8812e-06
-3.65173e-12
5.8812e-06
-4.40297e-12
5.8812e-06
-4.97096e-12
5.8812e-06
-5.37235e-12
5.88121e-06
-5.64908e-12
5.88121e-06
-5.81019e-12
5.88121e-06
-5.88981e-12
5.88121e-06
-5.89052e-12
5.88122e-06
-5.84114e-12
5.88122e-06
-5.73827e-12
5.88122e-06
-5.6061e-12
5.88122e-06
-5.43857e-12
5.88123e-06
-5.25729e-12
5.88123e-06
-5.05309e-12
5.88123e-06
-4.84481e-12
5.88123e-06
-4.6224e-12
5.88123e-06
-4.40358e-12
5.88124e-06
-4.1763e-12
5.88124e-06
-3.95693e-12
5.88124e-06
-3.73314e-12
5.88124e-06
-3.52118e-12
5.88124e-06
-3.30708e-12
5.88124e-06
-3.10617e-12
5.88124e-06
-2.90465e-12
5.88125e-06
-2.71787e-12
5.88125e-06
-2.53105e-12
5.88125e-06
-2.35884e-12
5.88125e-06
-2.1871e-12
5.88125e-06
-2.0307e-12
5.88125e-06
-1.87472e-12
5.88125e-06
-1.73313e-12
5.88125e-06
-1.59185e-12
5.88125e-06
-1.465e-12
5.88125e-06
-1.33797e-12
5.88125e-06
-1.2243e-12
5.88125e-06
-1.11019e-12
5.88125e-06
-1.00974e-12
5.88125e-06
-9.08194e-13
5.88125e-06
-8.19232e-13
5.88125e-06
-7.28704e-13
5.88125e-06
-6.5088e-13
5.88125e-06
-5.70861e-13
5.88125e-06
-5.02496e-13
5.88125e-06
-4.31893e-13
5.88126e-06
-3.73183e-13
5.88126e-06
-3.11856e-13
5.88126e-06
-2.61487e-13
5.88126e-06
-2.08355e-13
5.88126e-06
-1.66323e-13
5.88126e-06
-1.21234e-13
5.88126e-06
-8.64445e-14
5.88126e-06
-4.86021e-14
5.88126e-06
-2.16945e-14
5.88125e-06
8.59316e-15
5.88125e-06
2.86545e-14
5.88125e-06
5.22813e-14
5.88125e-06
6.52532e-14
5.88125e-06
8.21751e-14
5.88125e-06
8.92525e-14
5.88125e-06
1.00215e-13
5.88125e-06
1.0098e-13
5.88125e-06
1.05961e-13
5.88125e-06
1.01782e-13
5.88125e-06
1.02052e-13
5.88125e-06
9.30644e-14
5.88125e-06
8.91727e-14
5.88125e-06
7.69011e-14
5.88125e-06
7.00468e-14
5.88125e-06
5.44519e-14
5.88125e-06
4.47358e-14
5.88125e-06
2.71506e-14
5.88125e-06
1.57213e-14
5.88125e-06
-4.06384e-15
5.88125e-06
-1.74383e-14
5.88125e-06
-3.86706e-14
5.88125e-06
-5.40523e-14
5.88125e-06
-7.83551e-14
5.88125e-06
-9.74057e-14
5.88125e-06
-1.25535e-13
5.88125e-06
-1.49709e-13
5.88125e-06
-1.84878e-13
5.88126e-06
-2.17624e-13
5.88126e-06
-2.63039e-13
5.88126e-06
-3.08778e-13
5.88126e-06
-3.71088e-13
5.88126e-06
-4.37303e-13
5.88126e-06
-5.24033e-13
5.88126e-06
-6.20249e-13
5.88126e-06
-7.43817e-13
5.88126e-06
-8.8422e-13
5.88126e-06
-1.06046e-12
5.88126e-06
-1.26439e-12
5.88126e-06
-1.51724e-12
5.88126e-06
-1.8125e-12
5.88126e-06
-2.17318e-12
5.88126e-06
-2.59663e-12
5.88126e-06
-3.10922e-12
5.88126e-06
-3.71171e-12
5.88126e-06
-4.43399e-12
5.88127e-06
-5.28258e-12
5.88127e-06
-6.29296e-12
5.88127e-06
-7.47664e-12
5.88127e-06
-8.87503e-12
5.88128e-06
-1.05075e-11
5.88128e-06
-1.24225e-11
5.88129e-06
-1.46449e-11
5.88129e-06
-1.72287e-11
5.8813e-06
-2.02048e-11
5.88131e-06
-2.36249e-11
5.88132e-06
-2.75076e-11
5.88133e-06
-3.18844e-11
5.88135e-06
-3.67328e-11
5.88136e-06
-4.20026e-11
5.88138e-06
-4.75598e-11
5.8814e-06
-5.32223e-11
5.88142e-06
-5.8654e-11
5.88144e-06
-6.304e-11
-6.32669e-11
7.40848e-06
1.17977e-11
7.40848e-06
8.36107e-12
7.40848e-06
4.97173e-12
7.40848e-06
1.95634e-12
7.40848e-06
-5.81036e-13
7.40848e-06
-2.77767e-12
7.40848e-06
-4.41565e-12
7.40848e-06
-5.81431e-12
7.40848e-06
-6.78574e-12
7.40849e-06
-7.52833e-12
7.40849e-06
-8.04295e-12
7.40849e-06
-8.38422e-12
7.4085e-06
-8.57198e-12
7.4085e-06
-8.61674e-12
7.4085e-06
-8.65669e-12
7.4085e-06
-8.49651e-12
7.40851e-06
-8.39782e-12
7.40851e-06
-8.16102e-12
7.40851e-06
-7.91202e-12
7.40852e-06
-7.64164e-12
7.40852e-06
-7.31015e-12
7.40852e-06
-7.06996e-12
7.40852e-06
-6.68282e-12
7.40852e-06
-6.42829e-12
7.40853e-06
-6.06704e-12
7.40853e-06
-5.74834e-12
7.40853e-06
-5.4266e-12
7.40853e-06
-5.08571e-12
7.40853e-06
-4.84264e-12
7.40853e-06
-4.48622e-12
7.40854e-06
-4.26249e-12
7.40854e-06
-3.92579e-12
7.40854e-06
-3.72237e-12
7.40854e-06
-3.40766e-12
7.40854e-06
-3.22708e-12
7.40854e-06
-2.96692e-12
7.40854e-06
-2.74265e-12
7.40854e-06
-2.53714e-12
7.40854e-06
-2.30224e-12
7.40854e-06
-2.18224e-12
7.40854e-06
-1.9341e-12
7.40855e-06
-1.83378e-12
7.40855e-06
-1.63775e-12
7.40855e-06
-1.49015e-12
7.40855e-06
-1.34359e-12
7.40855e-06
-1.18048e-12
7.40855e-06
-1.11582e-12
7.40855e-06
-9.35089e-13
7.40855e-06
-8.84416e-13
7.40855e-06
-7.50651e-13
7.40855e-06
-6.49177e-13
7.40855e-06
-5.60999e-13
7.40855e-06
-4.71764e-13
7.40855e-06
-3.96278e-13
7.40855e-06
-2.87084e-13
7.40855e-06
-2.88016e-13
7.40855e-06
-1.56814e-13
7.40855e-06
-1.69047e-13
7.40855e-06
-8.20122e-14
7.40855e-06
-3.95592e-14
7.40855e-06
4.92668e-15
7.40855e-06
6.93111e-14
7.40855e-06
3.7884e-14
7.40855e-06
1.25393e-13
7.40855e-06
8.51566e-14
7.40855e-06
1.30556e-13
7.40855e-06
1.45812e-13
7.40855e-06
1.50145e-13
7.40855e-06
1.90273e-13
7.40855e-06
1.21261e-13
7.40855e-06
1.86092e-13
7.40855e-06
1.10783e-13
7.40855e-06
1.37735e-13
7.40855e-06
1.21872e-13
7.40855e-06
1.10603e-13
7.40855e-06
9.04724e-14
7.40855e-06
7.58246e-14
7.40855e-06
8.43763e-14
7.40855e-06
7.19219e-16
7.40855e-06
3.92355e-14
7.40855e-06
-4.65545e-14
7.40855e-06
-4.39287e-14
7.40855e-06
-6.86601e-14
7.40855e-06
-1.02492e-13
7.40855e-06
-9.90199e-14
7.40855e-06
-2.04536e-13
7.40855e-06
-1.76758e-13
7.40855e-06
-2.91462e-13
7.40855e-06
-3.0745e-13
7.40855e-06
-3.72126e-13
7.40855e-06
-4.39948e-13
7.40855e-06
-4.94789e-13
7.40855e-06
-6.55457e-13
7.40855e-06
-7.45125e-13
7.40855e-06
-8.83212e-13
7.40855e-06
-1.02339e-12
7.40855e-06
-1.28748e-12
7.40855e-06
-1.46945e-12
7.40855e-06
-1.82335e-12
7.40855e-06
-2.1444e-12
7.40855e-06
-2.56002e-12
7.40855e-06
-3.06567e-12
7.40855e-06
-3.6294e-12
7.40855e-06
-4.41276e-12
7.40855e-06
-5.19433e-12
7.40856e-06
-6.27308e-12
7.40856e-06
-7.43391e-12
7.40856e-06
-8.85119e-12
7.40856e-06
-1.05145e-11
7.40857e-06
-1.24452e-11
7.40857e-06
-1.48047e-11
7.40858e-06
-1.74264e-11
7.40858e-06
-2.0613e-11
7.40859e-06
-2.42074e-11
7.4086e-06
-2.83856e-11
7.40861e-06
-3.31828e-11
7.40862e-06
-3.86325e-11
7.40863e-06
-4.47669e-11
7.40865e-06
-5.153e-11
7.40866e-06
-5.8983e-11
7.40868e-06
-6.67004e-11
7.4087e-06
-7.46351e-11
7.40873e-06
-8.21718e-11
7.40874e-06
-8.84134e-11
-8.86262e-11
8.81963e-06
1.59936e-11
8.81963e-06
1.09133e-11
8.81962e-06
6.10888e-12
8.81962e-06
1.98998e-12
8.81963e-06
-1.43995e-12
8.81963e-06
-4.22955e-12
8.81963e-06
-6.4233e-12
8.81963e-06
-8.11083e-12
8.81963e-06
-9.36326e-12
8.81964e-06
-1.02703e-11
8.81964e-06
-1.08867e-11
8.81964e-06
-1.12806e-11
8.81965e-06
-1.1485e-11
8.81965e-06
-1.15482e-11
8.81965e-06
-1.14866e-11
8.81966e-06
-1.13364e-11
8.81966e-06
-1.11047e-11
8.81966e-06
-1.08198e-11
8.81967e-06
-1.04822e-11
8.81967e-06
-1.01162e-11
8.81967e-06
-9.71835e-12
8.81967e-06
-9.30935e-12
8.81968e-06
-8.8826e-12
8.81968e-06
-8.4569e-12
8.81968e-06
-8.02411e-12
8.81968e-06
-7.60079e-12
8.81968e-06
-7.17699e-12
8.81969e-06
-6.76823e-12
8.81969e-06
-6.36377e-12
8.81969e-06
-5.97772e-12
8.81969e-06
-5.59784e-12
8.81969e-06
-5.23795e-12
8.81969e-06
-4.88625e-12
8.81969e-06
-4.55525e-12
8.81969e-06
-4.23241e-12
8.8197e-06
-3.93056e-12
8.8197e-06
-3.63701e-12
8.8197e-06
-3.3639e-12
8.8197e-06
-3.09788e-12
8.8197e-06
-2.85155e-12
8.8197e-06
-2.61195e-12
8.8197e-06
-2.39123e-12
8.8197e-06
-2.17617e-12
8.8197e-06
-1.97905e-12
8.8197e-06
-1.78715e-12
8.8197e-06
-1.61212e-12
8.8197e-06
-1.44095e-12
8.8197e-06
-1.28566e-12
8.8197e-06
-1.13394e-12
8.8197e-06
-9.97456e-13
8.8197e-06
-8.63516e-13
8.8197e-06
-7.44308e-13
8.8197e-06
-6.27606e-13
8.8197e-06
-5.24895e-13
8.8197e-06
-4.23581e-13
8.8197e-06
-3.35939e-13
8.8197e-06
-2.49704e-13
8.8197e-06
-1.76875e-13
8.8197e-06
-1.05021e-13
8.8197e-06
-4.63021e-14
8.8197e-06
1.12558e-14
8.8197e-06
5.60701e-14
8.8197e-06
1.00497e-13
8.8197e-06
1.32593e-13
8.8197e-06
1.64146e-13
8.8197e-06
1.83604e-13
8.8197e-06
2.03308e-13
8.8197e-06
2.11233e-13
8.8197e-06
2.19492e-13
8.8197e-06
2.16709e-13
8.8197e-06
2.1563e-13
8.8197e-06
2.04144e-13
8.8197e-06
1.94665e-13
8.8197e-06
1.75551e-13
8.8197e-06
1.59358e-13
8.8197e-06
1.3416e-13
8.8197e-06
1.12185e-13
8.8197e-06
8.18639e-14
8.8197e-06
5.56484e-14
8.8197e-06
2.15104e-14
8.8197e-06
-8.81048e-15
8.8197e-06
-4.74216e-14
8.8197e-06
-8.21784e-14
8.8197e-06
-1.2614e-13
8.8197e-06
-1.6764e-13
8.8197e-06
-2.19721e-13
8.8197e-06
-2.70591e-13
8.8197e-06
-3.34437e-13
8.8197e-06
-4.00564e-13
8.8197e-06
-4.83395e-13
8.8197e-06
-5.72804e-13
8.8197e-06
-6.84491e-13
8.8197e-06
-8.09924e-13
8.8197e-06
-9.65475e-13
8.8197e-06
-1.1438e-12
8.8197e-06
-1.36363e-12
8.8197e-06
-1.62037e-12
8.8197e-06
-1.93477e-12
8.8197e-06
-2.30497e-12
8.8197e-06
-2.75549e-12
8.8197e-06
-3.28903e-12
8.81971e-06
-3.93385e-12
8.81971e-06
-4.69742e-12
8.81971e-06
-5.61479e-12
8.81971e-06
-6.70047e-12
8.81971e-06
-7.99677e-12
8.81971e-06
-9.52648e-12
8.81971e-06
-1.13417e-11
8.81972e-06
-1.34766e-11
8.81972e-06
-1.59936e-11
8.81972e-06
-1.89387e-11
8.81973e-06
-2.23869e-11
8.81973e-06
-2.63973e-11
8.81974e-06
-3.10546e-11
8.81975e-06
-3.64237e-11
8.81976e-06
-4.25869e-11
8.81977e-06
-4.95862e-11
8.81978e-06
-5.74573e-11
8.8198e-06
-6.61674e-11
8.81981e-06
-7.56256e-11
8.81983e-06
-8.55529e-11
8.81985e-06
-9.55071e-11
8.81988e-06
-1.05082e-10
8.81989e-06
-1.12992e-10
-1.1321e-10
1.00885e-05
1.97411e-11
1.00885e-05
1.32431e-11
1.00885e-05
7.1509e-12
1.00885e-05
2.01163e-12
1.00885e-05
-2.23473e-12
1.00885e-05
-5.64663e-12
1.00885e-05
-8.31619e-12
1.00885e-05
-1.0341e-11
1.00885e-05
-1.18386e-11
1.00885e-05
-1.29017e-11
1.00885e-05
-1.3622e-11
1.00885e-05
-1.40623e-11
1.00885e-05
-1.42861e-11
1.00885e-05
-1.43304e-11
1.00885e-05
-1.4237e-11
1.00885e-05
-1.40276e-11
1.00885e-05
-1.3733e-11
1.00885e-05
-1.33648e-11
1.00885e-05
-1.29668e-11
1.00885e-05
-1.24601e-11
1.00885e-05
-1.19916e-11
1.00885e-05
-1.14779e-11
1.00885e-05
-1.09548e-11
1.00885e-05
-1.0422e-11
1.00885e-05
-9.89291e-12
1.00885e-05
-9.3646e-12
1.00885e-05
-8.84736e-12
1.00885e-05
-8.33741e-12
1.00885e-05
-7.8872e-12
1.00885e-05
-7.32015e-12
1.00885e-05
-6.90029e-12
1.00885e-05
-6.47234e-12
1.00885e-05
-6.00168e-12
1.00885e-05
-5.60957e-12
1.00885e-05
-5.21719e-12
1.00885e-05
-4.83914e-12
1.00885e-05
-4.48271e-12
1.00885e-05
-4.14007e-12
1.00885e-05
-3.8173e-12
1.00885e-05
-3.50716e-12
1.00885e-05
-3.21692e-12
1.00885e-05
-2.9599e-12
1.00885e-05
-2.65689e-12
1.00885e-05
-2.4286e-12
1.00885e-05
-2.19681e-12
1.00885e-05
-1.97459e-12
1.00885e-05
-1.7681e-12
1.00885e-05
-1.56999e-12
1.00885e-05
-1.38757e-12
1.00885e-05
-1.21294e-12
1.00885e-05
-1.05257e-12
1.00885e-05
-9.20387e-13
1.00885e-05
-7.38502e-13
1.00885e-05
-6.26994e-13
1.00885e-05
-5.06912e-13
1.00885e-05
-3.92403e-13
1.00885e-05
-2.91171e-13
1.00885e-05
-2.16779e-13
1.00885e-05
-9.05541e-14
1.00885e-05
-3.34862e-14
1.00885e-05
3.2206e-14
1.00885e-05
9.30949e-14
1.00885e-05
1.42635e-13
1.00885e-05
1.87929e-13
1.00885e-05
2.21321e-13
1.00885e-05
2.50624e-13
1.00885e-05
2.69157e-13
1.00885e-05
2.62992e-13
1.00885e-05
3.10023e-13
1.00885e-05
2.9029e-13
1.00885e-05
2.8283e-13
1.00885e-05
2.73816e-13
1.00885e-05
2.55697e-13
1.00885e-05
2.15248e-13
1.00885e-05
2.31445e-13
1.00885e-05
1.83488e-13
1.00885e-05
1.49516e-13
1.00885e-05
9.47073e-14
1.00885e-05
9.83098e-14
1.00885e-05
3.8931e-14
1.00885e-05
-5.55273e-15
1.00885e-05
-4.9267e-14
1.00885e-05
-9.91519e-14
1.00885e-05
-1.4886e-13
1.00885e-05
-2.06686e-13
1.00885e-05
-2.65985e-13
1.00885e-05
-3.34534e-13
1.00885e-05
-4.07062e-13
1.00885e-05
-4.93317e-13
1.00885e-05
-5.8819e-13
1.00885e-05
-7.01466e-13
1.00885e-05
-8.29786e-13
1.00885e-05
-9.85225e-13
1.00885e-05
-1.16529e-12
1.00885e-05
-1.38296e-12
1.00885e-05
-1.63868e-12
1.00885e-05
-1.94923e-12
1.00885e-05
-2.31751e-12
1.00885e-05
-2.7629e-12
1.00885e-05
-3.33573e-12
1.00885e-05
-3.89024e-12
1.00885e-05
-4.69508e-12
1.00885e-05
-5.61e-12
1.00885e-05
-6.69777e-12
1.00885e-05
-7.99847e-12
1.00885e-05
-9.54069e-12
1.00885e-05
-1.13741e-11
1.00885e-05
-1.35397e-11
1.00885e-05
-1.61007e-11
1.00885e-05
-1.91532e-11
1.00886e-05
-2.26038e-11
1.00886e-05
-2.67784e-11
1.00886e-05
-3.15983e-11
1.00886e-05
-3.71883e-11
1.00886e-05
-4.3647e-11
1.00886e-05
-5.10497e-11
1.00886e-05
-5.9466e-11
1.00886e-05
-6.89106e-11
1.00886e-05
-7.9356e-11
1.00886e-05
-9.06858e-11
1.00886e-05
-1.02413e-10
1.00887e-05
-1.14204e-10
1.00887e-05
-1.25427e-10
1.00887e-05
-1.34722e-10
-1.34957e-10
1.11888e-05
2.28135e-11
1.11888e-05
1.51441e-11
1.11888e-05
8.05839e-12
1.11888e-05
2.07064e-12
1.11888e-05
-2.83114e-12
1.11888e-05
-6.78872e-12
1.11888e-05
-9.85458e-12
1.11888e-05
-1.22014e-11
1.11888e-05
-1.39091e-11
1.11888e-05
-1.51404e-11
1.11888e-05
-1.59483e-11
1.11888e-05
-1.64607e-11
1.11888e-05
-1.66943e-11
1.11888e-05
-1.67465e-11
1.11888e-05
-1.66137e-11
1.11888e-05
-1.63752e-11
1.11888e-05
-1.60108e-11
1.11888e-05
-1.55878e-11
1.11888e-05
-1.50802e-11
1.11888e-05
-1.45496e-11
1.11888e-05
-1.39619e-11
1.11888e-05
-1.33731e-11
1.11888e-05
-1.27475e-11
1.11888e-05
-1.21395e-11
1.11888e-05
-1.15083e-11
1.11888e-05
-1.09044e-11
1.11888e-05
-1.02875e-11
1.11888e-05
-9.70724e-12
1.11888e-05
-9.11923e-12
1.11888e-05
-8.57008e-12
1.11888e-05
-8.0172e-12
1.11888e-05
-7.50785e-12
1.11888e-05
-6.99537e-12
1.11888e-05
-6.52553e-12
1.11888e-05
-6.05431e-12
1.11888e-05
-5.62755e-12
1.11888e-05
-5.19812e-12
1.11888e-05
-4.81027e-12
1.11888e-05
-4.41959e-12
1.11888e-05
-4.07155e-12
1.11888e-05
-3.71891e-12
1.11888e-05
-3.40588e-12
1.11888e-05
-3.08766e-12
1.11888e-05
-2.81035e-12
1.11888e-05
-2.52542e-12
1.11888e-05
-2.27792e-12
1.11888e-05
-2.02261e-12
1.11888e-05
-1.80507e-12
1.11888e-05
-1.57819e-12
1.11888e-05
-1.38663e-12
1.11888e-05
-1.18512e-12
1.11888e-05
-1.02042e-12
1.11888e-05
-8.44085e-13
1.11888e-05
-7.01442e-13
1.11888e-05
-5.47685e-13
1.11888e-05
-4.28376e-13
1.11888e-05
-2.97038e-13
1.11888e-05
-1.9818e-13
1.11888e-05
-8.74087e-14
1.11888e-05
-1.09174e-14
1.11888e-05
7.86287e-14
1.11888e-05
1.36595e-13
1.11888e-05
2.07436e-13
1.11888e-05
2.45052e-13
1.11888e-05
2.9667e-13
1.11888e-05
3.1704e-13
1.11888e-05
3.51587e-13
1.11888e-05
3.53396e-13
1.11888e-05
3.70864e-13
1.11888e-05
3.58697e-13
1.11888e-05
3.62448e-13
1.11888e-05
3.35652e-13
1.11888e-05
3.26539e-13
1.11888e-05
2.89465e-13
1.11888e-05
2.70354e-13
1.11888e-05
2.22633e-13
1.11888e-05
1.94025e-13
1.11888e-05
1.40371e-13
1.11888e-05
1.05916e-13
1.11888e-05
4.47246e-14
1.11888e-05
3.9152e-15
1.11888e-05
-6.18487e-14
1.11888e-05
-1.08407e-13
1.11888e-05
-1.82541e-13
1.11888e-05
-2.37944e-13
1.11888e-05
-3.20145e-13
1.11888e-05
-3.86625e-13
1.11888e-05
-4.84935e-13
1.11888e-05
-5.70409e-13
1.11888e-05
-6.91131e-13
1.11888e-05
-8.05813e-13
1.11888e-05
-9.64868e-13
1.11888e-05
-1.12595e-12
1.11888e-05
-1.34027e-12
1.11888e-05
-1.57005e-12
1.11888e-05
-1.87028e-12
1.11888e-05
-2.20408e-12
1.11888e-05
-2.62838e-12
1.11888e-05
-3.11329e-12
1.11888e-05
-3.7215e-12
1.11888e-05
-4.42544e-12
1.11888e-05
-5.29341e-12
1.11888e-05
-6.30756e-12
1.11888e-05
-7.54557e-12
1.11888e-05
-8.99679e-12
1.11888e-05
-1.07485e-11
1.11888e-05
-1.28045e-11
1.11888e-05
-1.52667e-11
1.11888e-05
-1.81503e-11
1.11888e-05
-2.15732e-11
1.11888e-05
-2.55688e-11
1.11888e-05
-3.02737e-11
1.11888e-05
-3.57368e-11
1.11888e-05
-4.21077e-11
1.11889e-05
-4.94421e-11
1.11889e-05
-5.78799e-11
1.11889e-05
-6.7442e-11
1.11889e-05
-7.81757e-11
1.11889e-05
-8.99731e-11
1.11889e-05
-1.02728e-10
1.11889e-05
-1.15976e-10
1.11889e-05
-1.2907e-10
1.11889e-05
-1.41501e-10
1.1189e-05
-1.51802e-10
-1.52077e-10
1.20943e-05
2.46213e-11
1.20943e-05
1.63269e-11
1.20943e-05
8.58309e-12
1.20943e-05
2.10003e-12
1.20943e-05
-3.18653e-12
1.20943e-05
-7.55922e-12
1.20943e-05
-1.08171e-11
1.20943e-05
-1.35096e-11
1.20943e-05
-1.53924e-11
1.20943e-05
-1.67756e-11
1.20943e-05
-1.76208e-11
1.20943e-05
-1.82109e-11
1.20943e-05
-1.84644e-11
1.20943e-05
-1.86447e-11
1.20943e-05
-1.83871e-11
1.20943e-05
-1.81906e-11
1.20943e-05
-1.77193e-11
1.20943e-05
-1.73189e-11
1.20943e-05
-1.66872e-11
1.20943e-05
-1.61655e-11
1.20943e-05
-1.54412e-11
1.20943e-05
-1.48075e-11
1.20943e-05
-1.40921e-11
1.20943e-05
-1.34864e-11
1.20943e-05
-1.27626e-11
1.20943e-05
-1.21142e-11
1.20943e-05
-1.13577e-11
1.20943e-05
-1.07842e-11
1.20943e-05
-1.00575e-11
1.20943e-05
-9.52075e-12
1.20943e-05
-8.83461e-12
1.20943e-05
-8.28975e-12
1.20943e-05
-7.69687e-12
1.20943e-05
-7.29778e-12
1.20943e-05
-6.65216e-12
1.20943e-05
-6.24826e-12
1.20943e-05
-5.67226e-12
1.20943e-05
-5.36299e-12
1.20943e-05
-4.832e-12
1.20943e-05
-4.51431e-12
1.20943e-05
-3.99933e-12
1.20943e-05
-3.77204e-12
1.20943e-05
-3.39791e-12
1.20943e-05
-3.05752e-12
1.20943e-05
-2.76928e-12
1.20943e-05
-2.51358e-12
1.20943e-05
-2.13558e-12
1.20943e-05
-2.01106e-12
1.20943e-05
-1.66403e-12
1.20943e-05
-1.46985e-12
1.20943e-05
-1.27892e-12
1.20943e-05
-1.06228e-12
1.20943e-05
-8.73431e-13
1.20943e-05
-7.83115e-13
1.20943e-05
-4.71622e-13
1.20943e-05
-5.0539e-13
1.20943e-05
-2.181e-13
1.20943e-05
-2.26252e-13
1.20943e-05
-1.43774e-14
1.20943e-05
4.7725e-15
1.20943e-05
2.19373e-13
1.20943e-05
1.66042e-13
1.20943e-05
3.07534e-13
1.20943e-05
2.5849e-13
1.20943e-05
3.79819e-13
1.20943e-05
4.09792e-13
1.20943e-05
4.09962e-13
1.20943e-05
4.21079e-13
1.20943e-05
4.53924e-13
1.20943e-05
4.22316e-13
1.20943e-05
4.38122e-13
1.20943e-05
4.16635e-13
1.20943e-05
3.69567e-13
1.20943e-05
3.59169e-13
1.20943e-05
3.24274e-13
1.20943e-05
2.03157e-13
1.20943e-05
3.10054e-13
1.20943e-05
7.97335e-14
1.20943e-05
1.53721e-13
1.20943e-05
1.66698e-14
1.20943e-05
3.59511e-14
1.20943e-05
-1.08336e-13
1.20943e-05
-9.60537e-14
1.20943e-05
-2.47301e-13
1.20943e-05
-1.91349e-13
1.20943e-05
-4.27651e-13
1.20943e-05
-3.83733e-13
1.20943e-05
-5.84378e-13
1.20943e-05
-6.57658e-13
1.20943e-05
-8.07762e-13
1.20943e-05
-8.62142e-13
1.20943e-05
-1.07482e-12
1.20943e-05
-1.22558e-12
1.20943e-05
-1.44745e-12
1.20943e-05
-1.67211e-12
1.20943e-05
-2.05764e-12
1.20943e-05
-2.34125e-12
1.20943e-05
-2.91013e-12
1.20943e-05
-3.30695e-12
1.20943e-05
-4.01967e-12
1.20943e-05
-4.70025e-12
1.20943e-05
-5.69263e-12
1.20943e-05
-6.70899e-12
1.20943e-05
-8.09706e-12
1.20943e-05
-9.53448e-12
1.20943e-05
-1.15282e-11
1.20943e-05
-1.36726e-11
1.20943e-05
-1.63827e-11
1.20943e-05
-1.94756e-11
1.20943e-05
-2.31784e-11
1.20943e-05
-2.74339e-11
1.20943e-05
-3.25797e-11
1.20943e-05
-3.84359e-11
1.20943e-05
-4.53948e-11
1.20943e-05
-5.32879e-11
1.20943e-05
-6.24842e-11
1.20943e-05
-7.27117e-11
1.20944e-05
-8.4387e-11
1.20944e-05
-9.70334e-11
1.20944e-05
-1.10795e-10
1.20944e-05
-1.24848e-10
1.20944e-05
-1.3878e-10
1.20944e-05
-1.51859e-10
1.20944e-05
-1.62742e-10
-1.63058e-10
1.27787e-05
1.27787e-05
1.27787e-05
1.27787e-05
1.27787e-05
1.27787e-05
1.27787e-05
1.27787e-05
1.27787e-05
1.27787e-05
1.27787e-05
1.27787e-05
1.27787e-05
1.27787e-05
1.27787e-05
1.27787e-05
1.27787e-05
1.27787e-05
1.27787e-05
1.27787e-05
1.27787e-05
1.27787e-05
1.27787e-05
1.27787e-05
1.27787e-05
1.27787e-05
1.27787e-05
1.27787e-05
1.27787e-05
1.27787e-05
1.27787e-05
1.27788e-05
1.27788e-05
1.27788e-05
1.27788e-05
1.27788e-05
1.27788e-05
1.27788e-05
1.27788e-05
1.27788e-05
1.27788e-05
1.27788e-05
1.27788e-05
1.27788e-05
1.27788e-05
1.27788e-05
1.27788e-05
1.27788e-05
1.27788e-05
1.27788e-05
1.27788e-05
1.27788e-05
1.27787e-05
1.27788e-05
1.27787e-05
1.27787e-05
1.27787e-05
1.27787e-05
1.27787e-05
1.27787e-05
1.27787e-05
1.27787e-05
1.27787e-05
1.27787e-05
1.27787e-05
1.27787e-05
1.27787e-05
1.27787e-05
1.27787e-05
1.27787e-05
1.27787e-05
1.27787e-05
1.27787e-05
1.27787e-05
1.27787e-05
1.27787e-05
1.27787e-05
1.27787e-05
1.27787e-05
1.27787e-05
1.27787e-05
1.27787e-05
1.27787e-05
1.27787e-05
1.27787e-05
1.27787e-05
1.27787e-05
1.27787e-05
1.27787e-05
1.27787e-05
1.27787e-05
1.27787e-05
1.27787e-05
1.27787e-05
1.27787e-05
1.27787e-05
1.27787e-05
1.27787e-05
1.27787e-05
1.27787e-05
1.27787e-05
1.27787e-05
1.27787e-05
1.27787e-05
1.27787e-05
1.27787e-05
1.27787e-05
1.27787e-05
1.27787e-05
1.27787e-05
1.27787e-05
1.27787e-05
1.27787e-05
1.27787e-05
1.27788e-05
1.27788e-05
1.27788e-05
1.27788e-05
1.27788e-05
1.27788e-05
1.27788e-05
1.27788e-05
1.27788e-05
1.27788e-05
)
;

boundaryField
{
    inlet
    {
        type            calculated;