/*--------------------------------*- C++ -*----------------------------------*\
| =========                 |                                                 |
| \\      /  F ield         | OpenFOAM: The Open Source CFD Toolbox           |
|  \\    /   O peration     | Version:                                        |
|   \\  /    A nd           | Website:  www.openfoam.com                      |
|    \\/     M anipulation  |                                                 |
\*---------------------------------------------------------------------------*/
FoamFile
{
    version     2.0;
    format      ascii;
    class       volVectorField;
    location    "71";
    object      U;
}
// * * * * * * * * * * * * * * * * * * * * * * * * * * * * * * * * * * * * * //

dimensions      [0 1 -1 0 0 0 0];


internalField   nonuniform List<vector> 
1250
(
(1.98772 3.42578e-07 1.65928e-13)
(1.98772 3.66172e-07 1.55942e-13)
(1.98772 2.98841e-07 1.46451e-13)
(1.98772 2.28113e-07 1.37609e-13)
(1.98772 8.97768e-08 1.30493e-13)
(1.98772 1.31818e-08 1.24449e-13)
(1.98772 -1.08525e-07 1.20561e-13)
(1.98772 -1.59086e-07 1.19068e-13)
(1.98772 -2.52717e-07 1.21812e-13)
(1.98772 -2.73943e-07 1.30227e-13)
(1.98772 -3.40966e-07 1.47356e-13)
(1.98772 -3.38384e-07 1.75891e-13)
(1.98772 -3.8557e-07 2.20069e-13)
(1.98772 -3.65571e-07 2.83666e-13)
(1.98772 -3.9903e-07 3.68145e-13)
(1.98773 -3.67861e-07 4.67514e-13)
(1.98773 -3.92891e-07 5.65208e-13)
(1.98773 -3.54369e-07 6.30361e-13)
(1.98773 -3.74111e-07 6.29332e-13)
(1.98773 -3.31582e-07 5.47799e-13)
(1.98773 -3.4867e-07 4.06881e-13)
(1.98773 -3.03647e-07 2.46577e-13)
(1.98773 -3.19274e-07 9.4785e-14)
(1.98773 -2.73467e-07 2.90905e-14)
(1.98773 -2.88905e-07 -2.96721e-14)
(1.98773 -2.42685e-07 -3.07929e-14)
(1.98773 -2.58199e-07 2.19062e-14)
(1.98774 -2.12537e-07 1.16026e-13)
(1.98774 -2.28826e-07 2.41748e-13)
(1.98774 -1.8365e-07 3.79169e-13)
(1.98774 -2.00637e-07 4.96855e-13)
(1.98774 -1.56614e-07 5.6024e-13)
(1.98774 -1.74737e-07 5.5489e-13)
(1.98774 -1.31545e-07 5.03523e-13)
(1.98774 -1.50518e-07 4.37602e-13)
(1.98774 -1.08657e-07 3.881e-13)
(1.98774 -1.28806e-07 3.70676e-13)
(1.98774 -8.78827e-08 3.87651e-13)
(1.98774 -1.08883e-07 4.31715e-13)
(1.98774 -6.93364e-08 4.88192e-13)
(1.98774 -9.14557e-08 5.3012e-13)
(1.98774 -5.28073e-08 5.27588e-13)
(1.98774 -7.56534e-08 4.69481e-13)
(1.98774 -3.82867e-08 3.76494e-13)
(1.98774 -6.21175e-08 2.86795e-13)
(1.98774 -2.55627e-08 2.29896e-13)
(1.98774 -5.00183e-08 2.18628e-13)
(1.98774 -1.46551e-08 2.52403e-13)
(1.98774 -3.99855e-08 3.2085e-13)
(1.98774 -5.30044e-09 4.02914e-13)
(1.98774 -3.1112e-08 4.6466e-13)
(1.98774 2.53938e-09 4.68207e-13)
(1.98774 -2.4016e-08 3.96803e-13)
(1.98774 9.0806e-09 2.70768e-13)
(1.98774 -1.7876e-08 1.32148e-13)
(1.98774 1.42903e-08 1.28334e-14)
(1.98774 -1.33384e-08 -8.10245e-14)
(1.98774 1.83991e-08 -1.65699e-13)
(1.98774 -9.53772e-09 -2.53527e-13)
(1.98774 2.14022e-08 -3.33997e-13)
(1.98774 -7.13607e-09 -3.82462e-13)
(1.98774 2.34659e-08 -3.81765e-13)
(1.98774 -5.35801e-09 -3.28467e-13)
(1.98774 2.45181e-08 -2.27506e-13)
(1.98774 -4.88356e-09 -9.76394e-14)
(1.98774 2.4764e-08 4.53661e-14)
(1.98774 -4.85669e-09 1.80156e-13)
(1.98774 2.42036e-08 2.84559e-13)
(1.98774 -5.92293e-09 3.51594e-13)
(1.98774 2.30354e-08 4.00552e-13)
(1.98774 -7.25606e-09 4.59696e-13)
(1.98774 2.12457e-08 5.39881e-13)
(1.98774 -9.47402e-09 6.23916e-13)
(1.98774 1.91067e-08 6.76468e-13)
(1.98774 -1.16513e-08 6.69605e-13)
(1.98774 1.66737e-08 5.99494e-13)
(1.98774 -1.43885e-08 4.72168e-13)
(1.98774 1.41724e-08 2.91272e-13)
(1.98774 -1.68537e-08 6.77568e-14)
(1.98774 1.1557e-08 -1.6684e-13)
(1.98774 -1.97277e-08 -3.71302e-13)
(1.98774 8.99225e-09 -5.16481e-13)
(1.98774 -2.22363e-08 -5.93392e-13)
(1.98774 6.3234e-09 -6.09714e-13)
(1.98774 -2.52407e-08 -5.83156e-13)
(1.98774 3.45116e-09 -5.34268e-13)
(1.98774 -2.83012e-08 -4.79026e-13)
(1.98774 -1.38257e-10 -4.26794e-13)
(1.98774 -3.26406e-08 -3.81688e-13)
(1.98774 -4.91355e-09 -3.45225e-13)
(1.98774 -3.82225e-08 -3.20893e-13)
(1.98774 -1.18655e-08 -3.12911e-13)
(1.98774 -4.68564e-08 -3.24195e-13)
(1.98774 -2.21778e-08 -3.53043e-13)
(1.98774 -5.93525e-08 -3.93488e-13)
(1.98774 -3.77752e-08 -4.37761e-13)
(1.98774 -7.85422e-08 -4.78774e-13)
(1.98774 -6.09781e-08 -5.11051e-13)
(1.98774 -1.06531e-07 -5.321e-13)
(1.98774 -9.52136e-08 -5.42119e-13)
(1.98774 -1.4791e-07 -5.41951e-13)
(1.98774 -1.44895e-07 -5.33167e-13)
(1.98774 -2.07237e-07 -5.17559e-13)
(1.98774 -2.16276e-07 -4.97431e-13)
(1.98775 -2.92351e-07 -4.74099e-13)
(1.98775 -3.17574e-07 -4.48675e-13)
(1.98775 -4.12246e-07 -4.22655e-13)
(1.98775 -4.60223e-07 -3.96508e-13)
(1.98775 -5.80771e-07 -3.70385e-13)
(1.98775 -6.5934e-07 -3.45478e-13)
(1.98775 -8.1471e-07 -3.21989e-13)
(1.98776 -9.34778e-07 -2.99323e-13)
(1.98776 -1.13674e-06 -2.77681e-13)
(1.98776 -1.31057e-06 -2.57657e-13)
(1.98776 -1.57222e-06 -2.39059e-13)
(1.98777 -1.81309e-06 -2.21517e-13)
(1.98777 -2.14621e-06 -2.05352e-13)
(1.98778 -2.46189e-06 -1.90502e-13)
(1.98779 -2.86772e-06 -1.76786e-13)
(1.98779 -3.24498e-06 -1.6398e-13)
(1.9878 -3.69326e-06 -1.52705e-13)
(1.98781 -4.06851e-06 -1.43053e-13)
(1.98782 -4.36022e-06 -1.34569e-13)
(1.98783 -4.6982e-06 -1.28142e-13)
(1.98785 -4.45328e-06 -1.2454e-13)
(1.97963 1.00708e-06 4.68876e-13)
(1.97963 9.42279e-07 4.40042e-13)
(1.97963 7.74802e-07 4.13022e-13)
(1.97963 5.21154e-07 3.88727e-13)
(1.97963 2.29691e-07 3.67917e-13)
(1.97963 -2.48269e-08 3.50732e-13)
(1.97963 -2.65992e-07 3.39244e-13)
(1.97963 -4.51409e-07 3.35827e-13)
(1.97963 -6.18725e-07 3.44008e-13)
(1.97963 -7.31581e-07 3.68712e-13)
(1.97963 -8.33033e-07 4.17011e-13)
(1.97963 -8.87976e-07 4.9881e-13)
(1.97963 -9.40065e-07 6.25855e-13)
(1.97963 -9.53555e-07 8.09842e-13)
(1.97963 -9.72223e-07 1.05556e-12)
(1.97964 -9.58692e-07 1.34766e-12)
(1.97964 -9.55756e-07 1.63616e-12)
(1.97964 -9.24923e-07 1.82895e-12)
(1.97964 -9.09046e-07 1.81877e-12)
(1.97964 -8.68373e-07 1.56357e-12)
(1.97964 -8.45084e-07 1.13678e-12)
(1.97964 -7.98842e-07 6.67366e-13)
(1.97964 -7.72153e-07 2.53482e-13)
(1.97964 -7.23865e-07 2.14362e-14)
(1.97964 -6.95989e-07 -1.18778e-13)
(1.97964 -6.47167e-07 -1.08224e-13)
(1.97964 -6.19877e-07 5.67746e-14)
(1.97964 -5.72265e-07 3.34874e-13)
(1.97965 -5.46377e-07 7.0482e-13)
(1.97965 -5.00378e-07 1.11045e-12)
(1.97965 -4.76751e-07 1.45541e-12)
(1.97965 -4.333e-07 1.63035e-12)
(1.97965 -4.1203e-07 1.59273e-12)
(1.97965 -3.70903e-07 1.42659e-12)
(1.97965 -3.52344e-07 1.22394e-12)
(1.97965 -3.14104e-07 1.08095e-12)
(1.97965 -2.98106e-07 1.0368e-12)
(1.97965 -2.6236e-07 1.09344e-12)
(1.97965 -2.49126e-07 1.23064e-12)
(1.97965 -2.16256e-07 1.4036e-12)
(1.97965 -2.05437e-07 1.53142e-12)
(1.97965 -1.74854e-07 1.51992e-12)
(1.97965 -1.66509e-07 1.33541e-12)
(1.97965 -1.38522e-07 1.05068e-12)
(1.97965 -1.32313e-07 7.85229e-13)
(1.97965 -1.06375e-07 6.25122e-13)
(1.97965 -1.02392e-07 6.02085e-13)
(1.97965 -7.87879e-08 7.10388e-13)
(1.97965 -7.66247e-08 9.19526e-13)
(1.97965 -5.4718e-08 1.16794e-12)
(1.97965 -5.44127e-08 1.35395e-12)
(1.97965 -3.4495e-08 1.36e-12)
(1.97965 -3.57194e-08 1.13508e-12)
(1.97965 -1.72568e-08 7.50693e-13)
(1.97965 -2.01318e-08 3.41951e-13)
(1.97965 -3.43801e-09 4.85287e-15)
(1.97965 -7.60732e-09 -2.51219e-13)
(1.97965 7.90276e-09 -4.85381e-13)
(1.97965 2.34211e-09 -7.39941e-13)
(1.97965 1.63202e-08 -9.7581e-13)
(1.97965 9.63058e-09 -1.11414e-12)
(1.97965 2.25559e-08 -1.10497e-12)
(1.97965 1.4564e-08 -9.42283e-13)
(1.97965 2.60802e-08 -6.37631e-13)
(1.97965 1.71051e-08 -2.57022e-13)
(1.97965 2.77828e-08 1.5914e-13)
(1.97965 1.77248e-08 5.48891e-13)
(1.97965 2.72338e-08 8.41648e-13)
(1.97965 1.63884e-08 1.01792e-12)
(1.97965 2.52635e-08 1.14356e-12)
(1.97965 1.35241e-08 1.30917e-12)
(1.97965 2.14857e-08 1.54681e-12)
(1.97965 9.2521e-09 1.79983e-12)
(1.97965 1.69571e-08 1.95445e-12)
(1.97965 4.2051e-09 1.92544e-12)
(1.97965 1.13873e-08 1.71093e-12)
(1.97965 -1.5414e-09 1.33764e-12)
(1.97965 5.67059e-09 8.09582e-13)
(1.97965 -7.55923e-09 1.53562e-13)
(1.97965 -6.56038e-10 -5.30756e-13)
(1.97965 -1.38902e-08 -1.11667e-12)
(1.97965 -6.80043e-09 -1.52095e-12)
(1.97965 -2.02761e-08 -1.72303e-12)
(1.97965 -1.35535e-08 -1.75138e-12)
(1.97965 -2.72737e-08 -1.66071e-12)
(1.97965 -2.07969e-08 -1.51145e-12)
(1.97965 -3.53841e-08 -1.35002e-12)
(1.97965 -3.00931e-08 -1.20108e-12)
(1.97965 -4.5929e-08 -1.07296e-12)
(1.97965 -4.21364e-08 -9.69931e-13)
(1.97965 -6.0358e-08 -9.01493e-13)
(1.97965 -5.9657e-08 -8.80946e-13)
(1.97965 -8.14404e-08 -9.17134e-13)
(1.97965 -8.50751e-08 -1.00486e-12)
(1.97965 -1.1258e-07 -1.12525e-12)
(1.97965 -1.23267e-07 -1.25422e-12)
(1.97965 -1.58919e-07 -1.37134e-12)
(1.97965 -1.79342e-07 -1.46247e-12)
(1.97965 -2.26989e-07 -1.52119e-12)
(1.97965 -2.61861e-07 -1.54734e-12)
(1.97965 -3.26297e-07 -1.54404e-12)
(1.97965 -3.81068e-07 -1.51639e-12)
(1.97965 -4.69318e-07 -1.4705e-12)
(1.97965 -5.52349e-07 -1.41171e-12)
(1.97965 -6.73437e-07 -1.34401e-12)
(1.97965 -7.95113e-07 -1.27131e-12)
(1.97966 -9.61788e-07 -1.19656e-12)
(1.97966 -1.13711e-06 -1.1219e-12)
(1.97966 -1.36601e-06 -1.04892e-12)
(1.97966 -1.61399e-06 -9.78258e-13)
(1.97966 -1.92727e-06 -9.10675e-13)
(1.97966 -2.273e-06 -8.46524e-13)
(1.97966 -2.69788e-06 -7.8603e-13)
(1.97967 -3.171e-06 -7.29249e-13)
(1.97967 -3.73906e-06 -6.76405e-13)
(1.97967 -4.3709e-06 -6.27105e-13)
(1.97968 -5.11025e-06 -5.81261e-13)
(1.97968 -5.92191e-06 -5.3903e-13)
(1.97969 -6.83791e-06 -5.00197e-13)
(1.9797 -7.80219e-06 -4.64687e-13)
(1.9797 -8.83059e-06 -4.32807e-13)
(1.97971 -9.82895e-06 -4.04712e-13)
(1.97972 -1.06588e-05 -3.81144e-13)
(1.97973 -1.1401e-05 -3.63447e-13)
(1.97974 -1.12557e-05 -3.53126e-13)
(1.96081 1.74332e-06 7.62542e-13)
(1.96081 1.46065e-06 7.14588e-13)
(1.96081 1.10722e-06 6.70181e-13)
(1.96081 6.55471e-07 6.30342e-13)
(1.96081 2.36059e-07 5.95969e-13)
(1.96081 -1.65822e-07 5.6846e-13)
(1.96081 -4.85061e-07 5.5035e-13)
(1.96081 -7.72279e-07 5.45245e-13)
(1.96081 -9.76881e-07 5.58843e-13)
(1.96081 -1.15799e-06 6.00254e-13)
(1.96082 -1.26821e-06 6.81852e-13)
(1.96082 -1.36811e-06 8.21738e-13)
(1.96082 -1.40964e-06 1.04214e-12)
(1.96082 -1.45312e-06 1.36715e-12)
(1.96082 -1.44843e-06 1.81177e-12)
(1.96082 -1.45449e-06 2.35772e-12)
(1.96082 -1.41958e-06 2.91426e-12)
(1.96082 -1.40214e-06 3.28525e-12)
(1.96082 -1.34894e-06 3.21843e-12)
(1.96082 -1.31744e-06 2.62997e-12)
(1.96082 -1.25357e-06 1.74087e-12)
(1.96082 -1.21471e-06 8.61696e-13)
(1.96083 -1.14589e-06 1.80387e-13)
(1.96083 -1.10383e-06 -2.29725e-13)
(1.96083 -1.03321e-06 -3.85327e-13)
(1.96083 -9.90959e-07 -3.07054e-13)
(1.96083 -9.21257e-07 6.76541e-14)
(1.96083 -8.80537e-07 5.93944e-13)
(1.96083 -8.12936e-07 1.29343e-12)
(1.96083 -7.75116e-07 2.06318e-12)
(1.96083 -7.10907e-07 2.70257e-12)
(1.96083 -6.76449e-07 2.95654e-12)
(1.96083 -6.15707e-07 2.73374e-12)
(1.96083 -5.85072e-07 2.32532e-12)
(1.96083 -5.28402e-07 1.89178e-12)
(1.96083 -5.01569e-07 1.64614e-12)
(1.96083 -4.48705e-07 1.61336e-12)
(1.96083 -4.25853e-07 1.76675e-12)
(1.96083 -3.77085e-07 2.06715e-12)
(1.96083 -3.57864e-07 2.43719e-12)
(1.96083 -3.126e-07 2.71056e-12)
(1.96083 -2.96941e-07 2.66164e-12)
(1.96083 -2.55338e-07 2.22107e-12)
(1.96083 -2.42887e-07 1.60548e-12)
(1.96083 -2.04403e-07 1.10037e-12)
(1.96083 -1.95134e-07 8.51287e-13)
(1.96083 -1.599e-07 8.7609e-13)
(1.96083 -1.5337e-07 1.13737e-12)
(1.96083 -1.20729e-07 1.5785e-12)
(1.96083 -1.16839e-07 2.09377e-12)
(1.96083 -8.6944e-08 2.47659e-12)
(1.96083 -8.53666e-08 2.45417e-12)
(1.96083 -5.77122e-08 1.92304e-12)
(1.96083 -5.84889e-08 1.10498e-12)
(1.96083 -3.32793e-08 3.34709e-13)
(1.96083 -3.60529e-08 -2.01791e-13)
(1.96083 -1.27138e-08 -5.41403e-13)
(1.96083 -1.74896e-08 -8.84297e-13)
(1.96083 3.73492e-09 -1.34762e-12)
(1.96083 -2.81973e-09 -1.79766e-12)
(1.96083 1.67014e-08 -2.02852e-12)
(1.96083 8.2441e-09 -1.95636e-12)
(1.96083 2.57908e-08 -1.61235e-12)
(1.96083 1.57236e-08 -9.91194e-13)
(1.96083 3.18292e-08 -2.94486e-13)
(1.96083 2.01342e-08 4.63266e-13)
(1.96083 3.45573e-08 1.15766e-12)
(1.96083 2.14914e-08 1.61865e-12)
(1.96083 3.47088e-08 1.80498e-12)
(1.96083 2.02287e-08 1.91429e-12)
(1.96083 3.20685e-08 2.17801e-12)
(1.96083 1.65755e-08 2.64932e-12)
(1.96083 2.76981e-08 3.17249e-12)
(1.96083 1.12876e-08 3.45989e-12)
(1.96083 2.15609e-08 3.33695e-12)
(1.96083 4.58526e-09 2.87968e-12)
(1.96083 1.45398e-08 2.19127e-12)
(1.96083 -3.03128e-09 1.22851e-12)
(1.96083 6.3942e-09 2.19317e-15)
(1.96083 -1.14556e-08 -1.25175e-12)
(1.96083 -2.07474e-09 -2.25171e-12)
(1.96083 -2.03318e-08 -2.86229e-12)
(1.96083 -1.14526e-08 -3.08754e-12)
(1.96083 -3.01635e-08 -3.01421e-12)
(1.96083 -2.17604e-08 -2.76301e-12)
(1.96083 -4.15315e-08 -2.45072e-12)
(1.96083 -3.45238e-08 -2.15666e-12)
(1.96083 -5.58456e-08 -1.90842e-12)
(1.96083 -5.06923e-08 -1.70176e-12)
(1.96083 -7.4759e-08 -1.53375e-12)
(1.96083 -7.31431e-08 -1.42279e-12)
(1.96083 -1.01385e-07 -1.40203e-12)
(1.96083 -1.04891e-07 -1.49083e-12)
(1.96083 -1.39747e-07 -1.67367e-12)
(1.96083 -1.51426e-07 -1.9073e-12)
(1.96083 -1.95849e-07 -2.14301e-12)
(1.96083 -2.19033e-07 -2.34362e-12)
(1.96083 -2.77538e-07 -2.48887e-12)
(1.96083 -3.17768e-07 -2.57301e-12)
(1.96083 -3.96272e-07 -2.5997e-12)
(1.96084 -4.60378e-07 -2.57741e-12)
(1.96084 -5.67395e-07 -2.51689e-12)
(1.96084 -6.65499e-07 -2.42868e-12)
(1.96084 -8.12189e-07 -2.32156e-12)
(1.96084 -9.57196e-07 -2.20276e-12)
(1.96084 -1.15905e-06 -2.07807e-12)
(1.96084 -1.36917e-06 -1.95187e-12)
(1.96084 -1.64657e-06 -1.8272e-12)
(1.96084 -1.94515e-06 -1.70586e-12)
(1.96084 -2.32517e-06 -1.58933e-12)
(1.96084 -2.74305e-06 -1.47845e-12)
(1.96084 -3.25979e-06 -1.37371e-12)
(1.96085 -3.83478e-06 -1.27522e-12)
(1.96085 -4.52982e-06 -1.18289e-12)
(1.96085 -5.30572e-06 -1.09696e-12)
(1.96085 -6.223e-06 -1.01705e-12)
(1.96086 -7.24072e-06 -9.42854e-13)
(1.96086 -8.41255e-06 -8.74288e-13)
(1.96087 -9.6843e-06 -8.11259e-13)
(1.96087 -1.10841e-05 -7.5379e-13)
(1.96088 -1.25374e-05 -7.02148e-13)
(1.96089 -1.40455e-05 -6.56859e-13)
(1.96089 -1.54123e-05 -6.1895e-13)
(1.9609 -1.64944e-05 -5.90281e-13)
(1.96091 -1.66223e-05 -5.73642e-13)
(1.9318 2.48462e-06 1.03232e-12)
(1.9318 1.92173e-06 9.65951e-13)
(1.9318 1.30499e-06 9.04968e-13)
(1.9318 6.78136e-07 8.50579e-13)
(1.9318 1.09082e-07 8.03666e-13)
(1.9318 -3.88558e-07 7.66393e-13)
(1.9318 -7.97265e-07 7.42117e-13)
(1.9318 -1.13198e-06 7.36223e-13)
(1.9318 -1.38827e-06 7.56297e-13)
(1.9318 -1.58727e-06 8.14905e-13)
(1.9318 -1.72639e-06 9.31563e-13)
(1.9318 -1.82664e-06 1.13433e-12)
(1.9318 -1.88378e-06 1.46145e-12)
(1.93181 -1.91667e-06 1.96026e-12)
(1.93181 -1.91871e-06 2.67403e-12)
(1.93181 -1.90705e-06 3.60153e-12)
(1.93181 -1.87343e-06 4.61015e-12)
(1.93181 -1.83351e-06 5.31072e-12)
(1.93181 -1.77768e-06 5.06792e-12)
(1.93181 -1.72076e-06 3.70758e-12)
(1.93181 -1.65233e-06 1.93758e-12)
(1.93181 -1.58635e-06 4.83857e-13)
(1.93181 -1.51167e-06 -4.43979e-13)
(1.93181 -1.44185e-06 -8.82127e-13)
(1.93181 -1.36539e-06 -9.23755e-13)
(1.93181 -1.29542e-06 -6.40688e-13)
(1.93181 -1.22003e-06 1.89864e-14)
(1.93182 -1.15224e-06 9.29853e-13)
(1.93182 -1.07998e-06 2.12961e-12)
(1.93182 -1.01594e-06 3.47818e-12)
(1.93182 -9.47804e-07 4.5894e-12)
(1.93182 -8.88227e-07 4.83388e-12)
(1.93182 -8.24895e-07 4.03565e-12)
(1.93182 -7.70256e-07 2.9684e-12)
(1.93182 -7.11884e-07 2.19419e-12)
(1.93182 -6.62275e-07 1.9128e-12)
(1.93182 -6.09078e-07 2.01227e-12)
(1.93182 -5.64539e-07 2.37997e-12)
(1.93182 -5.16213e-07 2.97839e-12)
(1.93182 -4.76391e-07 3.72863e-12)
(1.93182 -4.32767e-07 4.31279e-12)
(1.93182 -3.9746e-07 4.1452e-12)
(1.93182 -3.58137e-07 3.07118e-12)
(1.93182 -3.27018e-07 1.78436e-12)
(1.93182 -2.91871e-07 9.59679e-13)
(1.93182 -2.64727e-07 7.23443e-13)
(1.93182 -2.33283e-07 9.53375e-13)
(1.93182 -2.0966e-07 1.52274e-12)
(1.93182 -1.81698e-07 2.37018e-12)
(1.93182 -1.61376e-07 3.37419e-12)
(1.93182 -1.36536e-07 4.1461e-12)
(1.93182 -1.19245e-07 4.00862e-12)
(1.93182 -9.74759e-08 2.73562e-12)
(1.93182 -8.31178e-08 1.04778e-12)
(1.93182 -6.4077e-08 -2.28103e-13)
(1.93182 -5.23233e-08 -8.2086e-13)
(1.93182 -3.59179e-08 -9.67999e-13)
(1.93182 -2.67011e-08 -1.31398e-12)
(1.93182 -1.26973e-08 -2.1689e-12)
(1.93182 -5.88169e-09 -3.01887e-12)
(1.93182 5.63982e-09 -3.32042e-12)
(1.93182 1.00469e-08 -3.01898e-12)
(1.93182 1.93495e-08 -2.28513e-12)
(1.93182 2.16051e-08 -1.22768e-12)
(1.93182 2.87307e-08 -7.90456e-14)
(1.93182 2.88992e-08 1.16106e-12)
(1.93182 3.40911e-08 2.28917e-12)
(1.93182 3.23636e-08 2.85143e-12)
(1.93182 3.56301e-08 2.74065e-12)
(1.93182 3.21082e-08 2.58647e-12)
(1.93182 3.38399e-08 2.97134e-12)
(1.93182 2.89198e-08 3.91661e-12)
(1.93182 2.9323e-08 5.00009e-12)
(1.93182 2.32092e-08 5.47379e-12)
(1.93182 2.2665e-08 4.99819e-12)
(1.93182 1.56647e-08 4.05372e-12)
(1.93182 1.42378e-08 2.99273e-12)
(1.93182 6.45417e-09 1.4668e-12)
(1.93182 4.48299e-09 -6.65165e-13)
(1.93182 -3.81124e-09 -2.75959e-12)
(1.93182 -6.35004e-09 -4.18135e-12)
(1.93182 -1.52421e-08 -4.81855e-12)
(1.93182 -1.8375e-08 -4.81648e-12)
(1.93182 -2.80736e-08 -4.40042e-12)
(1.93182 -3.23486e-08 -3.80559e-12)
(1.93182 -4.34679e-08 -3.23389e-12)
(1.93182 -4.94108e-08 -2.79291e-12)
(1.93182 -6.26789e-08 -2.47182e-12)
(1.93182 -7.14404e-08 -2.20798e-12)
(1.93182 -8.82483e-08 -1.97483e-12)
(1.93182 -1.01339e-07 -1.81633e-12)
(1.93182 -1.23592e-07 -1.81713e-12)
(1.93182 -1.43519e-07 -2.02135e-12)
(1.93182 -1.741e-07 -2.38088e-12)
(1.93182 -2.04053e-07 -2.79419e-12)
(1.93182 -2.46781e-07 -3.17051e-12)
(1.93182 -2.91505e-07 -3.45741e-12)
(1.93182 -3.51968e-07 -3.63757e-12)
(1.93182 -4.17904e-07 -3.71637e-12)
(1.93182 -5.0376e-07 -3.71022e-12)
(1.93182 -6.0014e-07 -3.63813e-12)
(1.93182 -7.22098e-07 -3.51876e-12)
(1.93182 -8.61203e-07 -3.36809e-12)
(1.93182 -1.03361e-06 -3.19821e-12)
(1.93182 -1.23235e-06 -3.01832e-12)
(1.93182 -1.47475e-06 -2.8353e-12)
(1.93182 -1.75552e-06 -2.65435e-12)
(1.93182 -2.09372e-06 -2.47831e-12)
(1.93182 -2.48623e-06 -2.30902e-12)
(1.93183 -2.95393e-06 -2.14796e-12)
(1.93183 -3.49615e-06 -1.99595e-12)
(1.93183 -4.13601e-06 -1.85301e-12)
(1.93183 -4.87525e-06 -1.7191e-12)
(1.93183 -5.7386e-06 -1.59416e-12)
(1.93183 -6.72933e-06 -1.47797e-12)
(1.93184 -7.87174e-06 -1.37007e-12)
(1.93184 -9.1657e-06 -1.27001e-12)
(1.93184 -1.06278e-05 -1.17764e-12)
(1.93185 -1.22437e-05 -1.09299e-12)
(1.93185 -1.40018e-05 -1.0159e-12)
(1.93186 -1.58548e-05 -9.46488e-13)
(1.93186 -1.77534e-05 -8.85696e-13)
(1.93187 -1.95553e-05 -8.34929e-13)
(1.93188 -2.09911e-05 -7.96478e-13)
(1.93189 -2.1104e-05 -7.74204e-13)
(1.8927 3.14637e-06 1.26724e-12)
(1.8927 2.27716e-06 1.18387e-12)
(1.8927 1.40626e-06 1.10777e-12)
(1.8927 6.09147e-07 1.04012e-12)
(1.8927 -8.17974e-08 9.82483e-13)
(1.8927 -6.61822e-07 9.37151e-13)
(1.8927 -1.13014e-06 9.07868e-13)
(1.8927 -1.50071e-06 9.01072e-13)
(1.8927 -1.78241e-06 9.27336e-13)
(1.8927 -1.99287e-06 1.00305e-12)
(1.8927 -2.14037e-06 1.15422e-12)
(1.8927 -2.23999e-06 1.42129e-12)
(1.8927 -2.29666e-06 1.86535e-12)
(1.8927 -2.32236e-06 2.57314e-12)
(1.8927 -2.31911e-06 3.65165e-12)
(1.8927 -2.29643e-06 5.18243e-12)
(1.8927 -2.25428e-06 7.06001e-12)
(1.89271 -2.20073e-06 8.57902e-12)
(1.89271 -2.13446e-06 7.88997e-12)
(1.89271 -2.06238e-06 4.52726e-12)
(1.89271 -1.98218e-06 9.83938e-13)
(1.89271 -1.9001e-06 -1.0692e-12)
(1.89271 -1.81322e-06 -1.94361e-12)
(1.89271 -1.72711e-06 -2.08439e-12)
(1.89271 -1.63835e-06 -1.76344e-12)
(1.89271 -1.55228e-06 -1.08966e-12)
(1.89271 -1.46515e-06 -5.06011e-14)
(1.89271 -1.38191e-06 1.40831e-12)
(1.89271 -1.29849e-06 3.36799e-12)
(1.89271 -1.21973e-06 5.73627e-12)
(1.89271 -1.14139e-06 7.83127e-12)
(1.89271 -1.06804e-06 7.83095e-12)
(1.89271 -9.9532e-07 5.29079e-12)
(1.89271 -9.27809e-07 2.70468e-12)
(1.89271 -8.61134e-07 1.65781e-12)
(1.89271 -7.99667e-07 1.69886e-12)
(1.89271 -7.38964e-07 2.21967e-12)
(1.89271 -6.83399e-07 2.9535e-12)
(1.89271 -6.28542e-07 4.02155e-12)
(1.89271 -5.78587e-07 5.52883e-12)
(1.89271 -5.29118e-07 6.92748e-12)
(1.89271 -4.84416e-07 6.44009e-12)
(1.89271 -4.40123e-07 3.61196e-12)
(1.89271 -4.00394e-07 8.98476e-13)
(1.89271 -3.60827e-07 -1.26112e-13)
(1.89271 -3.25662e-07 6.06855e-14)
(1.89271 -2.90515e-07 8.34964e-13)
(1.89271 -2.5952e-07 1.91695e-12)
(1.89272 -2.28301e-07 3.4033e-12)
(1.89272 -2.01114e-07 5.34172e-12)
(1.89272 -1.73679e-07 7.06517e-12)
(1.89272 -1.50111e-07 6.60821e-12)
(1.89272 -1.2613e-07 3.33897e-12)
(1.89272 -1.05922e-07 -2.17836e-13)
(1.89272 -8.52479e-08 -2.04596e-12)
(1.89272 -6.81688e-08 -2.12236e-12)
(1.89272 -5.04816e-08 -1.22102e-12)
(1.89272 -3.63606e-08 -1.36428e-12)
(1.89272 -2.16679e-08 -3.38092e-12)
(1.89272 -1.04788e-08 -5.16852e-12)
(1.89272 1.39974e-09 -5.32423e-12)
(1.89272 9.79398e-09 -4.33952e-12)
(1.89272 1.89074e-08 -2.81814e-12)
(1.89272 2.46607e-08 -1.15236e-12)
(1.89271 3.12817e-08 5.70541e-13)
(1.89271 3.45723e-08 2.52642e-12)
(1.89271 3.87126e-08 4.48711e-12)
(1.89271 3.96395e-08 4.99034e-12)
(1.89271 4.15759e-08 3.63387e-12)
(1.89271 4.04059e-08 2.62679e-12)
(1.89271 4.03501e-08 3.38123e-12)
(1.89271 3.7406e-08 5.48571e-12)
(1.89271 3.58254e-08 7.93589e-12)
(1.89271 3.14469e-08 8.63478e-12)
(1.89271 2.8507e-08 6.86521e-12)
(1.89271 2.29172e-08 4.87138e-12)
(1.89271 1.89662e-08 3.76336e-12)
(1.89271 1.24349e-08 1.61656e-12)
(1.89271 7.60878e-09 -2.34395e-12)
(1.89271 3.07181e-10 -5.87875e-12)
(1.89271 -5.18618e-09 -7.49612e-12)
(1.89271 -1.32549e-08 -7.64361e-12)
(1.89271 -1.97158e-08 -6.90296e-12)
(1.89271 -2.89073e-08 -5.73545e-12)
(1.89271 -3.66823e-08 -4.5317e-12)
(1.89271 -4.75453e-08 -3.62021e-12)
(1.89272 -5.74652e-08 -3.11494e-12)
(1.89272 -7.09456e-08 -2.84416e-12)
(1.89272 -8.40659e-08 -2.57627e-12)
(1.89272 -1.01634e-07 -2.24658e-12)
(1.89272 -1.19928e-07 -1.98954e-12)
(1.89272 -1.43871e-07 -2.0411e-12)
(1.89272 -1.69923e-07 -2.50222e-12)
(1.89272 -2.03385e-07 -3.20858e-12)
(1.89272 -2.41081e-07 -3.9104e-12)
(1.89272 -2.8857e-07 -4.45679e-12)
(1.89272 -3.43139e-07 -4.80245e-12)
(1.89272 -4.11015e-07 -4.96181e-12)
(1.89272 -4.90172e-07 -4.97289e-12)
(1.89272 -5.87425e-07 -4.87705e-12)
(1.89272 -7.01612e-07 -4.70918e-12)
(1.89272 -8.40545e-07 -4.49637e-12)
(1.89272 -1.00425e-06 -4.2585e-12)
(1.89272 -1.20164e-06 -4.00947e-12)
(1.89272 -1.43423e-06 -3.75873e-12)
(1.89272 -1.7126e-06 -3.51248e-12)
(1.89272 -2.04021e-06 -3.27474e-12)
(1.89272 -2.42946e-06 -3.04792e-12)
(1.89272 -2.8861e-06 -2.83319e-12)
(1.89272 -3.42501e-06 -2.63097e-12)
(1.89272 -4.05466e-06 -2.44137e-12)
(1.89272 -4.79227e-06 -2.26423e-12)
(1.89272 -5.64891e-06 -2.0994e-12)
(1.89272 -6.64425e-06 -1.94612e-12)
(1.89273 -7.79089e-06 -1.80368e-12)
(1.89273 -9.1077e-06 -1.6717e-12)
(1.89273 -1.06034e-05 -1.54955e-12)
(1.89273 -1.22881e-05 -1.43703e-12)
(1.89274 -1.4155e-05 -1.33394e-12)
(1.89274 -1.6185e-05 -1.24003e-12)
(1.89275 -1.83259e-05 -1.15573e-12)
(1.89275 -2.04999e-05 -1.08206e-12)
(1.89276 -2.25911e-05 -1.02048e-12)
(1.89276 -2.42961e-05 -9.73887e-13)
(1.89277 -2.43772e-05 -9.47107e-13)
(1.84354 3.65925e-06 1.45788e-12)
(1.84354 2.53392e-06 1.3595e-12)
(1.84354 1.45464e-06 1.27049e-12)
(1.84354 5.16537e-07 1.19198e-12)
(1.84354 -2.71317e-07 1.1255e-12)
(1.84354 -9.16459e-07 1.07348e-12)
(1.84354 -1.42726e-06 1.0403e-12)
(1.84354 -1.82275e-06 1.03346e-12)
(1.84354 -2.1183e-06 1.0649e-12)
(1.84354 -2.33404e-06 1.15439e-12)
(1.84354 -2.48218e-06 1.33414e-12)
(1.84354 -2.57821e-06 1.65691e-12)
(1.84354 -2.62967e-06 2.20988e-12)
(1.84354 -2.64789e-06 3.13515e-12)
(1.84354 -2.63668e-06 4.65695e-12)
(1.84354 -2.60442e-06 7.09299e-12)
(1.84355 -2.55278e-06 1.07167e-11)
(1.84355 -2.48857e-06 1.48293e-11)
(1.84355 -2.41191e-06 1.31226e-11)
(1.84355 -2.32837e-06 3.84506e-12)
(1.84355 -2.23727e-06 -3.23366e-12)
(1.84355 -2.1435e-06 -4.74293e-12)
(1.84355 -2.04557e-06 -4.50749e-12)
(1.84355 -1.94771e-06 -3.73069e-12)
(1.84355 -1.84809e-06 -2.7415e-12)
(1.84355 -1.75067e-06 -1.55404e-12)
(1.84355 -1.65312e-06 -3.507e-14)
(1.84355 -1.55897e-06 2.05818e-12)
(1.84355 -1.46572e-06 5.07821e-12)
(1.84355 -1.37678e-06 9.34191e-12)
(1.84355 -1.28928e-06 1.42029e-11)
(1.84355 -1.20636e-06 1.34121e-11)
(1.84355 -1.12521e-06 5.27116e-12)
(1.84355 -1.04896e-06 -4.38648e-13)
(1.84355 -9.74601e-07 -4.53691e-13)
(1.84355 -9.05048e-07 1.08837e-12)
(1.84355 -8.37348e-07 2.51791e-12)
(1.84355 -7.74451e-07 3.55585e-12)
(1.84355 -7.13248e-07 5.10589e-12)
(1.84355 -6.56521e-07 8.12664e-12)
(1.84355 -6.01318e-07 1.21601e-11)
(1.84355 -5.50527e-07 1.09207e-11)
(1.84355 -5.01093e-07 2.61572e-12)
(1.84355 -4.5575e-07 -3.05651e-12)
(1.84355 -4.11554e-07 -2.88275e-12)
(1.84355 -3.71346e-07 -1.02636e-12)
(1.84355 -3.32049e-07 8.37264e-13)
(1.84355 -2.96391e-07 2.4327e-12)
(1.84355 -2.61467e-07 4.65673e-12)
(1.84355 -2.30149e-07 8.40897e-12)
(1.84355 -1.99444e-07 1.30458e-11)
(1.84355 -1.72087e-07 1.18826e-11)
(1.84355 -1.45235e-07 2.59964e-12)
(1.84355 -1.21698e-07 -5.00793e-12)
(1.84355 -9.85233e-08 -6.49186e-12)
(1.84355 -7.84193e-08 -4.3869e-12)
(1.84355 -5.86053e-08 1.51411e-13)
(1.84355 -4.19219e-08 5.44782e-13)
(1.84355 -2.54997e-08 -5.80082e-12)
(1.84355 -1.20468e-08 -9.86225e-12)
(1.84355 1.20516e-09 -8.51664e-12)
(1.84355 1.14377e-08 -5.67648e-12)
(1.84355 2.15692e-08 -2.73907e-12)
(1.84355 2.88903e-08 -3.38542e-13)
(1.84355 3.61853e-08 1.75771e-12)
(1.84355 4.06102e-08 4.75014e-12)
(1.84355 4.50745e-08 9.09391e-12)
(1.84355 4.68811e-08 9.262e-12)
(1.84355 4.88349e-08 3.42416e-12)
(1.84355 4.81769e-08 2.97704e-13)
(1.84355 4.78632e-08 2.75191e-12)
(1.84355 4.52434e-08 7.69819e-12)
(1.84355 4.31455e-08 1.38655e-11)
(1.84355 3.8767e-08 1.46654e-11)
(1.84355 3.50577e-08 8.00468e-12)
(1.84355 2.93228e-08 3.72802e-12)
(1.84355 2.44119e-08 5.12831e-12)
(1.84355 1.74886e-08 2.70876e-12)
(1.84355 1.15254e-08 -6.32456e-12)
(1.84355 3.74885e-09 -1.26116e-11)
(1.84355 -3.03834e-09 -1.29671e-11)
(1.84355 -1.18322e-08 -1.13176e-11)
(1.84355 -1.97626e-08 -8.97523e-12)
(1.84355 -2.97717e-08 -6.49477e-12)
(1.84355 -3.91805e-08 -4.36393e-12)
(1.84355 -5.11168e-08 -3.16318e-12)
(1.84355 -6.28702e-08 -2.98569e-12)
(1.84355 -7.7577e-08 -3.1227e-12)
(1.84355 -9.28141e-08 -2.91331e-12)
(1.84355 -1.12032e-07 -2.31075e-12)
(1.84355 -1.32872e-07 -1.73872e-12)
(1.84355 -1.58897e-07 -1.8818e-12)
(1.84355 -1.88115e-07 -2.96531e-12)
(1.84355 -2.24497e-07 -4.38613e-12)
(1.84355 -2.66287e-07 -5.51658e-12)
(1.84355 -3.17765e-07 -6.19478e-12)
(1.84355 -3.77851e-07 -6.48212e-12)
(1.84355 -4.51542e-07 -6.49276e-12)
(1.84355 -5.38346e-07 -6.32787e-12)
(1.84355 -6.43919e-07 -6.06106e-12)
(1.84355 -7.68856e-07 -5.74096e-12)
(1.84355 -9.19922e-07 -5.39826e-12)
(1.84355 -1.09883e-06 -5.0515e-12)
(1.84356 -1.3136e-06 -4.71167e-12)
(1.84356 -1.5677e-06 -4.38531e-12)
(1.84356 -1.87102e-06 -4.07552e-12)
(1.84356 -2.22892e-06 -3.78368e-12)
(1.84356 -2.65337e-06 -3.51045e-12)
(1.84356 -3.15237e-06 -3.25541e-12)
(1.84356 -3.74058e-06 -3.01785e-12)
(1.84356 -4.42869e-06 -2.79705e-12)
(1.84356 -5.23405e-06 -2.59197e-12)
(1.84356 -6.17041e-06 -2.40173e-12)
(1.84356 -7.25769e-06 -2.22544e-12)
(1.84356 -8.51095e-06 -2.06219e-12)
(1.84356 -9.94934e-06 -1.91114e-12)
(1.84357 -1.15834e-05 -1.7716e-12)
(1.84357 -1.34218e-05 -1.64327e-12)
(1.84357 -1.5458e-05 -1.52563e-12)
(1.84358 -1.76706e-05 -1.41855e-12)
(1.84358 -1.99981e-05 -1.32284e-12)
(1.84358 -2.23422e-05 -1.23923e-12)
(1.84359 -2.45985e-05 -1.16937e-12)
(1.84359 -2.64585e-05 -1.11671e-12)
(1.8436 -2.65235e-05 -1.08655e-12)
(1.78433 3.9851e-06 1.59497e-12)
(1.78433 2.69078e-06 1.48519e-12)
(1.78433 1.47327e-06 1.38694e-12)
(1.78433 4.39774e-07 1.30067e-12)
(1.78433 -4.14927e-07 1.22782e-12)
(1.78433 -1.10471e-06 1.1712e-12)
(1.78433 -1.64448e-06 1.13533e-12)
(1.78433 -2.05631e-06 1.12811e-12)
(1.78434 -2.36057e-06 1.16241e-12)
(1.78434 -2.57858e-06 1.2593e-12)
(1.78434 -2.72587e-06 1.45439e-12)
(1.78434 -2.81792e-06 1.80811e-12)
(1.78434 -2.86458e-06 2.42548e-12)
(1.78434 -2.87619e-06 3.49611e-12)
(1.78434 -2.85836e-06 5.37965e-12)
(1.78434 -2.81836e-06 8.80865e-12)
(1.78434 -2.75947e-06 1.5419e-11)
(1.78434 -2.68702e-06 2.93007e-11)
(1.78434 -2.60263e-06 2.56842e-11)
(1.78434 -2.51063e-06 -3.9261e-12)
(1.78434 -2.41179e-06 -1.69009e-11)
(1.78434 -2.30954e-06 -1.07409e-11)
(1.78434 -2.2038e-06 -7.28819e-12)
(1.78434 -2.09759e-06 -5.06175e-12)
(1.78434 -1.99053e-06 -3.3559e-12)
(1.78434 -1.88508e-06 -1.75229e-12)
(1.78434 -1.78035e-06 1.07949e-13)
(1.78434 -1.67856e-06 2.68965e-12)
(1.78434 -1.57868e-06 6.80572e-12)
(1.78434 -1.48256e-06 1.41682e-11)
(1.78435 -1.38878e-06 2.89538e-11)
(1.78435 -1.29916e-06 2.64972e-11)
(1.78435 -1.21235e-06 -1.57886e-12)
(1.78435 -1.12992e-06 -1.25563e-11)
(1.78435 -1.05027e-06 -4.02673e-12)
(1.78435 -9.75015e-07 1.53689e-12)
(1.78435 -9.0262e-07 4.0327e-12)
(1.78435 -8.34479e-07 4.12069e-12)
(1.78435 -7.68883e-07 5.2894e-12)
(1.78435 -7.07331e-07 1.09541e-11)
(1.78435 -6.48278e-07 2.50352e-11)
(1.78435 -5.93086e-07 2.24517e-11)
(1.78435 -5.40078e-07 -5.44691e-12)
(1.78435 -4.90709e-07 -1.60853e-11)
(1.78435 -4.43428e-07 -7.11373e-12)
(1.78435 -3.99545e-07 -1.01342e-12)
(1.78435 -3.57378e-07 2.13813e-12)
(1.78435 -3.18357e-07 3.04726e-12)
(1.78435 -2.81014e-07 5.25183e-12)
(1.78435 -2.46684e-07 1.21644e-11)
(1.78435 -2.13752e-07 2.74901e-11)
(1.78435 -1.83683e-07 2.53547e-11)
(1.78435 -1.55016e-07 -4.65693e-12)
(1.78435 -1.29056e-07 -2.01127e-11)
(1.78435 -1.04224e-07 -1.52843e-11)
(1.78435 -8.1966e-08 -8.10772e-12)
(1.78435 -6.08952e-08 8.4032e-12)
(1.78435 -4.23599e-08 1.00825e-11)
(1.78435 -2.48483e-08 -1.38939e-11)
(1.78435 -9.80858e-09 -2.23763e-11)
(1.78435 4.1418e-09 -1.24585e-11)
(1.78435 1.56985e-08 -5.60519e-12)
(1.78435 2.63995e-08 -6.17499e-13)
(1.78435 3.48073e-08 1.92737e-12)
(1.78435 4.22923e-08 2.86772e-12)
(1.78435 4.75219e-08 6.76132e-12)
(1.78435 5.20455e-08 2.02571e-11)
(1.78435 5.44242e-08 2.00833e-11)
(1.78435 5.60963e-08 -2.76934e-12)
(1.78435 5.57879e-08 -9.6488e-12)
(1.78435 5.51144e-08 7.24834e-13)
(1.78435 5.26549e-08 1.09455e-11)
(1.78435 4.98738e-08 2.85857e-11)
(1.78435 4.54503e-08 2.91132e-11)
(1.78435 4.09882e-08 3.02756e-12)
(1.78435 3.50575e-08 -5.82618e-12)
(1.78435 2.91185e-08 1.15233e-11)
(1.78435 2.18665e-08 1.00252e-11)
(1.78435 1.48825e-08 -1.76637e-11)
(1.78435 6.68305e-09 -2.86715e-11)
(1.78435 -1.35202e-09 -2.04179e-11)