/*--------------------------------*- C++ -*----------------------------------*\
| =========                 |                                                 |
| \\      /  F ield         | OpenFOAM: The Open Source CFD Toolbox           |
|  \\    /   O peration     | Version:                                        |
|   \\  /    A nd           | Website:  www.openfoam.com                      |
|    \\/     M anipulation  |                                                 |
\*---------------------------------------------------------------------------*/
FoamFile
{
    version     2.0;
    format      ascii;
    class       surfaceScalarField;
    location    "144";
    object      phi;
}
// * * * * * * * * * * * * * * * * * * * * * * * * * * * * * * * * * * * * * //

dimensions      [0 3 -1 0 0 0 0];
oriented        oriented;


internalField   nonuniform List<scalar> 
2238
(
0.0186801
0.0310374
0.0191672
0.0308855
0.0196272
-0.0310077
0.0305478
0.0205589
-0.0309672
0.0300354
0.0212036
-0.0305484
0.0299037
0.0219678
-0.0300555
0.0292913
0.0232675
-0.0299948
0.0286951
0.025214
-0.0297133
0.0277668
0.0270132
-0.0297217
0.0279225
-0.0287106
0.0272064
0.0285174
0.0175981
0.0179695
0.0186747
-0.0312536
0.0200262
-0.0314069
0.0213958
-0.0313645
0.0229287
-0.0312461
0.0246525
-0.0314455
-0.0313382
0.0272801
0.0187553
0.0199315
0.0213288
0.0230325
-0.0329498
0.0247649
-0.0331779
-0.0333446
0.0267713
0.0210458
0.0225933
0.0242496
-0.00212606
-0.00182653
-0.00454683
-0.00143066
-0.0100833
-0.00113251
-0.015148
-0.00101515
-0.0197693
-0.00119831
-0.0242542
-0.00173404
-0.0288296
-0.00244944
-0.0332143
-0.00310179
-0.0369369
-0.00308841
-0.0399372
-0.00158407
-0.0412761
0.00227588
-0.039715
0.0067851
-0.0341605
0.0119593
-0.0256259
0.0182036
-0.018154
0.0240436
-0.00722615
0.00569957
0.0310895
0.00160967
-0.00526709
0.00236832
-0.010842
0.00282294
-0.0156026
0.00289906
-0.0198454
0.00283173
-0.0241869
0.00262997
-0.0286279
0.00199537
-0.0325797
0.000693253
-0.0356348
-0.00140865
-0.0378353
-0.00333793
-0.0393469
-0.0038331
-0.0392198
-0.00304732
-0.0349462
-0.000689105
-0.0279841
0.00505293
-0.023896
0.0103471
-0.0125203
-0.00142994
0.0174766
0.00405284
-0.00595399
0.0045756
-0.0113647
0.00475197
-0.015779
0.00478809
-0.0198815
0.00492821
-0.024327
0.0052194
-0.0289191
0.00531407
-0.0326743
0.00452537
-0.0348461
0.00226651
-0.0355765
-0.0015472
-0.0355332
-0.00512812
-0.0356389
-0.00706378
-0.0330106
-0.00783786
-0.02721
-0.00423105
-0.0275028
-0.000575864
-0.0161755
-0.00936193
0.00735613
0.00655957
-0.0067063
0.00680465
-0.0116098
0.00668023
-0.0156546
0.00677997
-0.0199812
0.00732111
-0.0248682
0.00791051
-0.0295085
0.0081819
-0.0329457
0.00803932
-0.0347035
0.00726865
-0.0348058
0.00485889
-0.0331234
0.00107347
-0.0318535
-0.00230765
-0.0296295
-0.00534398
-0.0241737
-0.00665686
-0.0261899
-0.00456343
-0.0182689
-0.0161364
0.00221106
0.00810214
0.0082223
-0.01173
0.00866527
-0.0160975
0.00998914
-0.0213051
0.0117311
-0.0266102
0.0129986
-0.0307759
0.0132145
-0.0331617
0.0125074
-0.0339964
0.0114083
-0.0337067
0.0103863
-0.0321014
0.00857491
-0.0300421
0.0059084
-0.0269629
0.00369361
-0.0219589
0.000318144
-0.0228145
-0.000158778
-0.017792
-0.0194596
0.00316435
0.00841628
0.0101949
-0.0178761
0.0130592
-0.0241695
0.0157815
-0.0293325
0.0174728
-0.0324671
0.0179042
-0.0335932
0.0171317
-0.0332239
0.0152304
-0.0318054
0.0133826
-0.0302536
0.012361
-0.0290205
0.0110013
-0.0256033
0.0118134
-0.022771
0.0109854
-0.0219864
0.0117066
-0.0185132
-0.0187713
0.0110183
0.0126224
0.0161734
-0.0277205
0.0182691
-0.0314282
0.0187034
-0.0329013
0.0180193
-0.032909
0.0169005
-0.0321051
0.0158327
-0.0307376
0.0147178
-0.0291388
0.0134457
-0.0277484
0.0133065
-0.025464
0.0155346
-0.0249991
0.0171691
-0.0236209
0.0202435
-0.0215876
-0.0201259
0.0215981
0.0187641
0.0193694
-0.0320336
0.0185971
-0.032129
0.0171705
-0.0314824
0.0156046
-0.0305392
0.0146514
-0.0297844
0.0146098
-0.0290971
0.0143707
-0.0275092
0.0158023
-0.0268957
0.0175862
-0.026783
0.018784
-0.0248188
0.0210217
-0.0238253
-0.0234057
0.0243014
0.0176345
0.0166689
-0.0311634
0.015947
-0.0307605
0.0156677
-0.0302599
0.0156828
-0.0297995
0.01569
-0.0291044
0.0169832
-0.0288023
0.0185889
-0.0285013
0.0194778
-0.0276719
0.0209676
-0.0263085
0.0230073
-0.025865
-0.0255689
0.0251705
0.0166197
0.0168966
0.0175221
0.0182704
0.0192014
0.0203028
0.0210927
0.0221159
0.0235742
0.0256317
0.0272692
0.0365886
0.0317119
0.0415919
0.046283
0.0445697
0.0532146
0.0461317
0.0555665
0.0471302
0.0562229
0.0476797
0.0567563
0.0477697
0.0585262
0.0469472
0.0664385
0.044585
0.0730297
0.0411722
0.0725356
0.036761
0.057493
0.0335194
0.0278383
0.0319794
-0.0101473
0.0325413
-0.0467608
0.034984
-0.0693255
0.0378143
-0.0799062
0.0393542
-0.0778304
0.039082
-0.0813428
0.0363605
-0.0782599
-0.0829814
0.0277786
0.0214099
0.0361575
0.0379041
0.0421743
0.0471978
0.0461259
0.0516149
0.0494043
0.0529445
0.0523914
0.0537692
0.0551356
0.055782
0.0576439
0.0639303
0.0582469
0.0724267
0.0562489
0.0745337
0.0517226
0.0620192
0.046377
0.0331839
0.0419691
-0.00573948
0.0390345
-0.0438262
0.0384411
-0.0687322
0.0390204
-0.0804854
0.038798
-0.077608
0.0365041
-0.079049
0.0332978
-0.0750536
-0.077601
0.0196946
0.0090714
0.0312607
0.026338
0.0405949
0.0378637
0.0469261
0.0452837
0.0515908
0.0482797
0.0558471
0.0495129
0.0604894
0.0511397
0.066057
0.0583626
0.0702198
0.0682639
0.0710882
0.0736652
0.0679012
0.0652063
0.0610561
0.040029
0.0539759
0.0013407
0.0475252
-0.0373755
0.0433817
-0.0645887
0.0405238
-0.0776274
0.038827
-0.0759113
0.0353218
-0.0755437
0.0313586
-0.0710904
-0.0717401
0.0143707
-0.00308822
0.0268157
0.013893
0.0374182
0.0272612
0.0459602
0.0367417
0.0525807
0.0416592
0.058581
0.0435126
0.065215
0.0445057
0.0728711
0.0507065
0.0799872
0.0611479
0.0839413
0.0697111
0.0830568
0.0660908
0.0772748
0.045811
0.0675119
0.0111036
0.0572424
-0.027106
0.049205
-0.0565512
0.0432749
-0.0716974
0.0395602
-0.0721965
0.0349284
-0.070912
0.0309534
-0.0671155
-0.0656593
0.0116205
-0.0115443
0.0233911
0.00212236
0.0338201
0.0168322
0.0425334
0.0280283
0.0499119
0.0342807
0.0570194
0.0364051
0.0651518
0.0363734
0.0750718
0.0407864
0.0854005
0.0508192
0.092978
0.0621336
0.0947994
0.0642694
0.0898306
0.0507798
0.0792404
0.0216938
0.0666814
-0.014547
0.0552821
-0.0451519
0.0469118
-0.0633271
0.0414194
-0.0667041
0.0356008
-0.0650935
0.0311735
-0.0626881
-0.0599985
0.0118707
-0.0123967
0.0198298
-0.00583673
0.030274
0.00638793
0.0393451
0.0189572
0.0466042
0.0270216
0.0527656
0.0302437
0.0596975
0.0294414
0.0691821
0.0313019
0.0805693
0.0394319
0.0913444
0.0513585
0.0965481
0.0590658
0.0938626
0.0534652
0.0844062
0.0311503
0.0719959
-0.0021368
0.0595123
-0.0326683
0.0495015
-0.0533163
0.0423086
-0.0595111
0.0364534
-0.0592383
0.0316091
-0.0578437
-0.0550471
0.0187588
-0.00955743
0.0190584
-0.00613631
0.0253014
0.000144996
0.0342792
0.00997936
0.0425218
0.0187791
0.049425
0.0233405
0.0557021
0.0231644
0.0636631
0.0233409
0.074379
0.028716
0.0856884
0.0400491
0.0931844
0.0515698
0.094302
0.0523477
0.0880452
0.037407
0.0763919
0.0095165
0.0636388
-0.0199151
0.0526265
-0.0423041
0.0441588
-0.0510434
0.0378432
-0.0529227
0.0324654
-0.052466
0.0282819
-0.0508636
-0.0447718
0.0248736
-0.0101296
0.0248012
-0.00606394
0.0268123
-0.00186612
0.0315832
0.00520852
0.038091
0.0122712
0.0435854
0.0178461
0.0475261
0.0192237
0.0528394
0.0180276
0.0618061
0.0197493
0.0739872
0.0278679
0.0847147
0.0408424
0.0882817
0.0487806
0.0839784
0.0417103
0.0747654
0.0187296
0.0638254
-0.00897511
0.0535722
-0.0320509
0.0454762
-0.0429474
0.039008
-0.0464544
0.0332788
-0.0467368
0.0288421
-0.0464269
-0.0431079
0.0249516
-0.00991071
0.0263203
-0.0074326
0.0283039
-0.00384975
0.0333075
0.000204924
0.0393703
0.0062084
0.0444419
0.0127745
0.0459156
0.01775
0.0458039
0.0181393
0.0491949
0.0163583
0.0589495
0.0181134
0.0717092
0.0280827
0.0798642
0.0406256
0.0799093
0.0416652
0.0732122
0.0254267
0.0632869
0.000950221
0.0530894
-0.0218534
0.0447749
-0.0346329
0.0382787
-0.0399583
0.0331083
-0.0415664
0.0279549
-0.0412735
-0.0424756
0.0262875
-0.00892905
0.0257497
-0.00689477
0.0264955
-0.00459551
0.0288655
-0.00216509
0.0341596
0.000914267
0.0401219
0.00681225
0.0437107
0.0141611
0.0448179
0.0170321
0.0461901
0.014986
0.0504789
0.0138247
0.0580721
0.0204894
0.0642872
0.0344105
0.0662971
0.0396553
0.0655201
0.0262037
0.0615419
0.00492836
0.0536687
-0.0139801
0.0456067
-0.0265709
0.0388359
-0.0331875
0.0341564
-0.0368869
0.0287583
-0.0358754
-0.0410238
0.0418352
-0.00730974
-0.0434545
0.0404301
-0.00548968
0.0391208
-0.00328623
0.0378846
-0.000928875
0.0371944
0.00160451
0.0375724
0.00643427
0.0392391
0.0124944
0.042022
0.0142491
0.0434595
0.0135486
0.0422742
0.01501
0.0417034
0.0210602
0.0450464
0.0310676
0.0538877
0.030814
0.0629158
0.0171756
0.0671185
0.000725641
0.0657172
-0.0125788
0.0619665
-0.0228202
0.0563409
-0.027562
0.0522419
-0.0327878
0.0464724
-0.030106
0.0424837
-0.037035
-0.0250564
0.0452457
-0.00609707
-0.0464584
0.0443565
-0.0046005
0.0435411
-0.00247084
0.0428122
-0.000199944
0.0421611
0.00225559
0.0428119
0.00578352
0.0449458
0.0103604
0.0474665
0.0117284
0.0487939
0.0122212
0.0480738
0.01573
0.0493121
0.0198219
0.0551382
0.0252416
0.0638282
0.022124
0.069352
0.0116518
0.0702271
-0.000149487
0.0672234
-0.0095751
0.0626122
-0.018209
0.0574182
-0.022368
0.0533705
-0.0287401
0.0478766
-0.0246121
0.0444905
-0.0336489
-0.0231793
0.0502976
-0.00434337
-0.0520513
0.0490699
-0.00337283
0.04829
-0.00169094
0.0478936
0.000196488
0.0476622
0.00248696
0.0484302
0.00501557
0.0504481
0.00834256
0.052131
0.0100455
0.0536312
0.0107211
0.054823
0.0145382
0.0579329
0.016712
0.0635901
0.0195844
0.0697223
0.0159918
0.0726906
0.00868344
0.0723381
0.000203047
0.0700908
-0.00732784
0.0672929
-0.015411
0.0631472
-0.0182223
0.0598977
-0.0254906
0.0545647
-0.0192791
0.0496427
-0.0287269
-0.0219552
0.0553608
-0.00276721
-0.056937
0.0542064
-0.00221838
0.053423
-0.000907502
0.0531095
0.000509978
0.0532188
0.00237757
0.0537731
0.00446134
0.0555392
0.00657641
0.0568974
0.00868731
0.0584339
0.00918456
0.060453
0.0125191
0.0639003
0.0132647
0.0685846
0.0149001
0.0728897
0.0116867
0.074806
0.00676709
0.07461
0.000399075
0.0723312
-0.00504902
0.0694306
-0.0125104
0.0640905
-0.0128823
0.0597811
-0.0211811
0.0557231
-0.0152211
0.0508719
-0.0238757
-0.0214791
0.0603401
-0.001739
-0.0613683
0.0593967
-0.00127499
0.0588651
-0.000375904
0.0584876
0.000887501
0.0587569
0.00210819
0.0591283
0.00408998
0.0604786
0.00522613
0.0617534
0.00741248
0.0633516
0.00758637
0.0655624
0.0103083
0.0686023
0.0102247
0.0723323
0.0111701
0.075233
0.00878602
0.0763981
0.00560192
0.0770147
-0.000217455
0.0751993
-0.00323362
0.0733928
-0.010704
0.0707785
-0.010268
0.0682707
-0.0186733
0.0665809
-0.0135313
0.0601618
-0.0174566
-0.0183747
0.0655598
-0.00101906
-0.0662798
0.0648026
-0.00051772
0.0644145
1.21611e-05
0.0640978
0.00120421
0.0643638
0.00184217
0.0647669
0.00368692
0.065857
0.00413604
0.0670858
0.00618362
0.068535
0.00613724
0.0706616
0.00818175
0.0730408
0.0078454
0.0757051
0.00850579
0.07833
0.00616115
0.0794715
0.00446046
0.0798413
-0.000587302
0.0785903
-0.00198255
0.0766951
-0.00880885
0.0735038
-0.00707668
0.0691206
-0.01429
0.0671843
-0.011595
0.0625693
-0.0128416
-0.0168282
0.0710861
-0.000439818
-0.0716653
0.0705297
3.87018e-05
0.0702153
0.000326558
0.0700653
0.0013542
0.070273
0.00163447
0.0707701
0.00318976
0.0715616
0.00334456
0.072697
0.0050482
0.0739745
0.00485973
0.0757127
0.00644362
0.077794
0.00576408
0.0798345
0.00646526
0.0818044
0.00419121
0.0827175
0.00354743
0.0829753
-0.000845115
0.0821537
-0.00116092
0.0806565
-0.0073117
0.0790897
-0.00550987
0.0759474
-0.0111477
0.0739247
-0.00957235
0.0697276
-0.00864447
-0.0145849
0.0768781
-3.06039e-05
-0.0772873
0.0765434
0.000373395
0.0763076
0.000562333
0.0763033
0.00135849
0.0764469
0.00149085
0.0769227
0.00271401
0.0775358
0.00273145
0.0785443
0.00403974
0.0796566
0.00374741
0.0811414
0.00495882
0.0827481
0.00415738
0.0843171
0.00489628
0.0857822
0.00272607
0.0865344
0.00279523
0.0868012
-0.0011119
0.0863061
-0.000665839
0.084621
-0.00562659
0.0830837
-0.00397263
0.0801459
-0.00820981
0.0784097
-0.00783619
0.0759917
-0.00622643
-0.0120402
0.0828325
0.000216779
-0.0830798
0.082729
0.000476864
0.0825987
0.000692609
0.0827148
0.00124239
0.0828246
0.00138112
0.0833134
0.00222521
0.0838225
0.00222235
0.0846969
0.00316534
0.0855749
0.00286939
0.0867324
0.00380126
0.087924
0.00296584
0.0891671
0.00365317
0.0901421
0.00175106
0.0908057
0.00213169
0.0907073
-0.0010135
0.0903246
-0.000283165
0.0890654
-0.00436739
0.0879665
-0.0028738
0.0859585
-0.00620176
0.0841593
-0.006037
0.0823937
-0.00446083
-0.0092342
0.0892087
0.000331123
-0.0893231
0.0892097
0.000475844
0.0891323
0.000770066
0.089311
0.00106371
0.0894415
0.00125061
0.0899248
0.00174184
0.0903024
0.00184474
0.0910316
0.00243617
0.0916367
0.00226433
0.0925917
0.00284622
0.0933617
0.00219586
0.0943079
0.00270697
0.0948685
0.00119045
0.0953178
0.00168235
0.095207
-0.000902712
0.0949434
-1.951e-05
0.0939375
-0.00336154
0.0930256
-0.00196183
0.0915061
-0.00468225
0.0898317
-0.00436265
0.0890105
-0.00363963
-0.0066675
0.0959571
0.000480684
-0.0961066
0.0959295
0.000503448
0.0959121
0.000787435
0.0961307
0.000845128
0.0962422
0.00113908
0.0966527
0.00133141
0.0968942
0.00160322
0.0975171
0.00181321
0.0979061
0.00187537
0.0986565
0.00209581
0.0990949
0.00175743
0.0997898
0.00201211
0.10005
0.000929834
0.100386
0.00134667
0.100189
-0.000705749
0.0999516
0.000218012
0.0991972
-0.00260707
0.0984303
-0.00119493
0.0974774
-0.00372936
0.0961437
-0.00302901
0.0956719
-0.00316784
-0.00459156
0.102939
0.000555997
-0.103014
0.103008
0.000434379
0.103029
0.000766101
0.103182
0.000692085
0.103227
0.00109403
0.10353
0.00102876
0.103714
0.00141876
0.104176
0.00135167
0.104433
0.00161813
0.104958
0.00157093
0.105215
0.00150058
0.105687
0.0015398
0.105786
0.000830567
0.106015
0.0011181
0.105751
-0.000442414
0.105642
0.000327756
0.105001
-0.00196673
0.104525
-0.000718688
0.103832
-0.00303641
0.102787
-0.00198414
0.102618
-0.00299809
-0.00299311
0.110484
0.000574998
-0.110503
0.110478
0.000440974
0.110411
0.00083319
0.110478
0.000624742
0.11051
0.00106228
0.11073
0.000807929
0.110832
0.00131687
0.111153
0.00103083
0.111293
0.00147852
0.111669
0.00119437
0.111801
0.00136855
0.112144
0.00119706
0.112152
0.000822394
0.11232
0.000950542
0.1121
-0.00022253
0.112002
0.000425806
0.111572
-0.00153653
0.111158
-0.000305464
0.110721
-0.00259925
0.109939
-0.00120147
0.109816
-0.00287535
-0.00190757
0.118165
0.000678933
-0.118269
0.118113
0.000493344
0.118091
0.000855263
0.118155
0.000560545
0.118182
0.00103521
0.118301
0.00068873
0.11837
0.00124839
0.11856
0.000840515
0.118683
0.00135617
0.118922
0.000955405
0.119037
0.00125269
0.11925
0.000984554
0.119269
0.000803222
0.119378
0.000841251
0.119218
-6.24546e-05
0.119155
0.00048935
0.118813
-0.00119508
0.118533
-2.53365e-05
0.118162
-0.00222859
0.117606
-0.000644557
0.117445
-0.00271496
-0.00119575
0.126098
0.000665418
-0.126084
0.126121
0.000470396
0.12617
0.000806162
0.126186
0.000544506
0.126233
0.000987591
0.126283
0.000639028
0.126395
0.00113637
0.126502
0.000733303
0.12665
0.0012086
0.126786
0.000819521
0.126924
0.00111404
0.12706
0.000849317
0.127122
0.000740553
0.127209
0.000754789
0.127104
4.28253e-05
0.127082
0.000510855
0.126789
-0.00090179
0.126633
0.000130075
0.126217
-0.00181178
0.125928
-0.000356172
0.125534
-0.00232037
-0.000845932
0.134607
0.000612635
-0.134555
0.134605
0.000472977
0.134646
0.000765217
0.134654
0.000535799
0.134752
0.000890027
0.1348
0.000591136
0.134939
0.00099736
0.135011
0.000661426
0.135175
0.00104481
0.135273
0.000721176
0.13543
0.000957192
0.135541
0.000738536
0.135619
0.000662144
0.135704
0.000669831
0.135627
0.000119237
0.135655
0.000483253
0.135381
-0.000628077
0.135322
0.000189282
0.134891
-0.00138064
0.134731
-0.000196506
0.134268
-0.00185685
-0.00063455
0.143616
0.000584816
-0.143589
0.143617
0.000472819
0.143706
0.000675299
0.14374
0.000501778
0.143869
0.000761612
0.143911
0.000549133
0.144064
0.000844559
0.144125
0.00060048
0.144299
0.000870515
0.144384
0.000635616
0.144542
0.000799683
0.144638
0.00064283
0.14472
0.000580054
0.144806
0.000583869
0.144751
0.000173786
0.1448
0.000434405
0.14456
-0.000387715
0.14455
0.00019919
0.144134
-0.00096498
0.14406
-0.000122532
0.143565
-0.00136126
-0.000500452
0.153352
0.000515482
-0.153282
0.153389
0.000435806
0.153484
0.000580121
0.153518
0.000467824
0.153628
0.000651035
0.153673
0.000504129
0.153813
0.000705181
0.153882
0.000531052
0.154036
0.000717003
0.15412
0.000550996
0.154255
0.000665071
0.15435
0.000548156
0.154421
0.000508308
0.154507
0.000498377
0.15446
0.000220806
0.154512
0.000381786
0.154312
-0.000187126
0.154312
0.000199403
0.15397
-0.0006232
0.153899
-5.16707e-05
0.153488
-0.000950401
-0.000360897
0.163844
0.000451853
-0.16378
0.16387
0.00041016
0.163943
0.000506697
0.163979
0.000431993
0.16408
0.000549492
0.164136
0.000448694
0.16426
0.000581235
0.164326
0.000464728
0.164452
0.000590686
0.16453
0.000473509
0.164639
0.00055559
0.164718
0.00046983
0.164773
0.000453272
0.164839
0.000431794
0.164808
0.000252339
0.164847
0.000342877
0.164695
-3.53517e-05
0.164689
0.000205483
0.164423
-0.000357062
0.164357
1.40127e-05
0.164031
-0.000624758
-0.000234563
0.175036
0.000405371
-0.17499
0.17507
0.000376537
0.175141
0.000435836
0.175187
0.000385402
0.175276
0.000461003
0.175327
0.000397036
0.175424
0.000484822
0.175481
0.000407685
0.175578
0.000493126
0.175639
0.000413276
0.175723
0.000471492
0.175784
0.00040824
0.175835
0.000402647
0.175886
0.000380491
0.175869
0.000269118
0.175893
0.000319223
0.175787
7.06117e-05
0.175771
0.000221131
0.17558
-0.000165598
0.175517
7.74339e-05
0.175274
-0.000382647
-0.000119196
0.187011
0.000355351
-0.186961
0.187048
0.000339213
0.187111
0.00037325
0.187149
0.000346961
0.187218
0.000391884
0.187258
0.000357542
0.187334
0.000409137
0.187376
0.000365409
0.187456
0.000412892
0.187505
0.000364472
0.187578
0.000398223
0.187627
0.000359925
0.18767
0.000359653
0.187708
0.00034229
0.187702
0.000274633
0.187725
0.000296149
0.187655
0.000140773
0.187652
0.00022394
0.187511
-2.47508e-05
0.187473
0.000115644
0.187288
-0.000196976
-3.41972e-05
0.199806
0.000308859
-0.199759
0.199839
0.000306096
0.199887
0.000324806
0.199917
0.000316822
0.199971
0.000338579
0.200003
0.000325695
0.200064
0.000347992
0.200101
0.000327858
0.200165
0.000349342
0.200202
0.000327696
0.200254
0.000346314
0.200288
0.000325427
0.200323
0.000324782
0.200359
0.000306228
0.200364
0.000269915
0.200393
0.000267275
0.200352
0.000180904
0.200364
0.000211891
0.200276
6.41361e-05
0.200259
0.000132079
0.200133
-7.07482e-05
2.70517e-05
0.213446
0.000272057
-0.213409
0.213475
0.000277055
0.213516
0.000283551
0.213548
0.000284853
0.213597
0.000290242
0.213632
0.000290413
0.213682
0.000297838
0.213714
0.000295988
0.213759
0.000304202
0.21379
0.000297208
0.213832
0.000303567
0.213867
0.000290603
0.2139
0.000292132
0.213933
0.000273574
0.213943
0.00025928
0.213971
0.000239888
0.213952
0.000199219
0.213969
0.00019488
0.213918
0.000115562
0.213914
0.000135671
0.213831
1.20863e-05
6.43769e-05
0.227997
0.000232329
-0.227958
0.228037
0.000237422
0.228081
0.000239004
0.228122
0.000244645
0.228164
0.000247768
0.228199
0.000255019
0.228239
0.000258051
0.228274
0.000261428
0.228316
0.000262279
0.228352
0.000260737
0.228392
0.000263625
0.228424
0.00025859
0.228455
0.000261032
0.228482
0.000246928
0.228501
0.000240057
0.228521
0.00021973
0.228522
0.000199016
0.228532
0.000184507
0.228508
0.000139113
0.228506
0.000138359
0.228457
6.10423e-05
8.6196e-05
0.243575
0.000190083
-0.243533
0.243616
0.000196857
0.243655
0.000199903
0.243693
0.000206241
0.243732
0.000208792
0.243772
0.000214903
0.243814
0.000216458
0.243855
0.000220147
0.243896
0.000221492
0.243933
0.000223479
0.24397
0.000226635
0.244003
0.000225405
0.244037
0.00022732
0.244065
0.000218779
0.244091
0.000214552
0.24411
0.000200256
0.244122
0.000186897
0.244133
0.000174157
0.244127
0.000145321
0.244126
0.000138373
0.2441
8.76337e-05
9.62545e-05
0.260234
0.000154278
-0.260198
0.260272
0.000158966
0.260311
0.000160921
0.260352
0.000164798
0.260394
0.000166702
0.260437
0.000171709
0.26048
0.000174269
0.260521
0.000178921
0.260561
0.000180911
0.260601
0.000183848
0.260642
0.000185906
0.26068
0.000187378
0.260718
0.00018875
0.260751
0.000185796
0.260784
0.000182367
0.260809
0.000174775
0.26083
0.000165607
0.260847
0.000157318
0.260854
0.000138154
0.260863
0.000129379
0.260854
9.74236e-05
9.59115e-05
0.278065
0.000114317
-0.278025
0.278107
0.000117078
0.278148
0.000119223
0.278191
0.000122464
0.278232
0.000125361
0.278274
0.000129588
0.278316
0.000132527
0.278359
0.000136036
0.278402
0.000137891
0.278445
0.000140721
0.278488
0.000142789
0.27853
0.000145761
0.278571
0.000147115
0.27861
0.000147434
0.278647
0.000144603
0.278681
0.000141441
0.278712
0.000134354
0.278739
0.000130029
0.27876
0.000117083
0.278779
0.000110689
0.278786
9.02798e-05
8.54668e-05
0.297167
7.40184e-05
-0.297127
0.297208
7.65207e-05
0.297248
7.88769e-05
0.297289
8.14726e-05
0.29733
8.40193e-05
0.297373
8.68739e-05
0.297416
8.92717e-05
0.297461
9.17025e-05
0.297505
9.35789e-05
0.29755
9.58938e-05
0.297595
9.79036e-05
0.29764
0.000100369
0.297686
0.000101552
0.297731
0.000102421
0.297774
0.000100835
0.297816
9.97909e-05
0.297855
9.55842e-05
0.297891
9.36483e-05
0.297923
8.56526e-05
0.297952
8.1511e-05
0.297973
6.8929e-05
6.50918e-05
0.317659
3.83487e-05
-0.317624
0.317696
3.94435e-05
0.317735
4.04538e-05
0.317775
4.15783e-05
0.317816
4.2854e-05
0.317858
4.43403e-05
0.317902
4.57786e-05
0.317946
4.72247e-05
0.317991
4.8373e-05
0.318038
4.96447e-05
0.318085
5.06985e-05
0.318133
5.21196e-05
0.318182
5.28597e-05
0.318231
5.36598e-05
0.318279
5.29694e-05
0.318326
5.26994e-05
0.318371
5.06256e-05
0.318414
4.98379e-05
0.318454
4.61211e-05
0.318491
4.40988e-05
0.318522
3.83347e-05
3.60354e-05
0.339596
-0.339557
0.339635
0.339676
0.339717
0.33976
0.339804
0.33985
0.339897
0.339946
0.339995
0.340046
0.340098
0.340151
0.340205
0.340258
0.34031
0.340361
0.340411
0.340457
0.340501
0.340539
0.0500835
0.0209948
0.0493986
0.0249345
0.0483294
0.0278405
0.045259
0.0303506
0.0303219
0.0525557
0.021762
0.0515351
0.0259551
0.0508757
0.0284999
0.0483455
0.0328809
0.0322089
0.0557223
0.022083
0.0547724
0.026905
0.0547663
0.0285061
0.0538712
0.0337759
0.0340288
0.0594664
0.0588737
0.0274977
0.0585804
0.0287993
0.0581396
0.0342168
0.0352314
0.0628101
0.0278041
0.0622545
0.0293548
0.0620411
0.0344302
0.0359042
0.0669889
0.027682
0.0666544
0.0296893
0.0667168
0.0343678
0.0363412
0.0716628
0.0272209
0.0716104
0.0297417
0.0719062
0.0340721
0.036582
0.076637
0.0267293
0.0767112
0.0296675
0.0771702
0.033613
0.036465
0.0819721
0.0262972
0.082144
0.0294956
0.0826798
0.0330772
0.0360649
0.0877972
0.0258586
0.0881284
0.0291644
0.0887042
0.0325014
0.0354461
0.094327
0.0252851
0.0948472
0.0286442
0.0954646
0.031884
0.0348041
0.101052
0.0247429
0.10163
0.028066
0.102246
0.0312684
0.034036
0.107808
0.02409
0.108633
0.0272407
0.109558
0.030344
0.0330905
0.115297
0.0231606
0.116312
0.0262255
0.117251
0.0294056
0.0320717
0.122908
0.0223501
0.123802
0.0253313
0.12485
0.0283579
0.0308372
0.130913
0.0214686
0.132014
0.0242309
0.133274
0.0270971
0.0295571
0.139928
0.0204221
0.141061
0.0230976
0.14229
0.0258683
0.0282586
0.149428
0.0193996
0.150543
0.021982
0.151852
0.0245595
0.0268286
0.159598
0.0182953
0.160842
0.0207382
0.162268
0.0231342
0.0253159
0.170564
0.0171055
0.17189
0.0194116
0.17338
0.021644
0.0237066
0.182229
0.0158459
0.183642
0.017999
0.18523
0.0200554
0.021976
0.194695
0.0145019
0.196211
0.0164829
0.19791
0.0183571
0.0201264
0.208
0.0130634
0.209623
0.0148596
0.211434
0.0165462
0.0181508
0.222186
0.0115363
0.223916
0.0131295
0.225844
0.0146185
0.0160371
0.237358
0.00990629
0.239212
0.0112764
0.241273
0.0125574
0.0137768
0.253625
0.00816945
0.255598
0.00930274
0.257792
0.0103641
0.0113704
0.27101
0.00632182
0.273113
0.00719986
0.275455
0.00802287
0.0088002
0.28964
0.00434914
0.291885
0.00495423
0.294386
0.00552261
0.00605895
0.309621
0.00224471
0.312018
0.00255707
0.31469
0.00285051
0.00312591
0.331024
0.333581
0.336431
)
;

boundaryField
{
    outlet
    {
        type            calculated;
        value           nonuniform 0();
    }
    upperWall
    {
        type            symmetryPlane;
        value           uniform 0;
    }
    lowerWall
    {
        type            symmetryPlane;
        value           nonuniform 0();
    }
    inlet
    {
        type            calculated;
        value           nonuniform 0();
    }
    cylinder
    {
        type            calculated;
        value           nonuniform 0();
    }
    frontAndBack
    {
        type            empty;
        value           nonuniform 0();
    }
    procBoundary6to2
    {
        type            processor;
        value           nonuniform List<scalar> 
37
(
-0.000849213
0.00424731
0.00968744
0.0148498
0.0196519
0.0244374
0.0293654
0.0339297
0.0375892
0.0399239
0.0397718
0.035855
0.0296512
0.0204517
0.0119097
0.00138621
-0.0127455
-0.037211
-0.0512863
-0.0561925
-0.0571285
-0.0572213
-0.0573058
-0.0586162
-0.0656159
-0.0706676
-0.0691228
-0.0530817
-0.0245968
0.0116874
0.0461989
0.0668828
0.0770758
0.0762905
0.081615
0.0809814
0.0878108
)
;
    }
    procBoundary6to5
    {
        type            processor;
        value           nonuniform List<scalar> 
63
(
-0.0181207
-0.0311673
-0.0315967
-0.0313726
-0.0170245
-0.0315814
-0.0313386
-0.0174189
-0.03259
-0.0325831
-0.0327618
-0.0197708
-0.0342248
-0.0347255
-0.035001
-0.0202686
0.0019108
0.00106447
-0.000889416
-0.00336594
-0.00580725
-0.00748785
-0.0073206
-0.00800399
-0.0121422
-0.00882191
-0.0216766
-0.0161355
-0.0303491
-0.0183053
-0.0313629
-0.0166158
-0.0508097
-0.0533229
-0.0560432
-0.0593281
0.0219447
-0.0631165
-0.0668667
-0.0712018
-0.0761453
-0.0815401
-0.0873586
-0.0937534
-0.10051
-0.107155
-0.114368
-0.122097
-0.130032
-0.138882
-0.148405
-0.158494
-0.169374
-0.18097
-0.193351
-0.206561
-0.220659
-0.235728
-0.251888
-0.269163
-0.287667
-0.307517
-0.328779
)
;
    }
    procBoundary6to7
    {
        type            processor;
        value           nonuniform List<scalar> 
42
(
0.0315312
0.0279174
0.0254977
0.0248727
0.0255127
0.0266577
0.0476573
0.0253964
0.0271783
0.0273225
0.0273065
0.027569
0.039971
0.0426134
0.0484186
0.0503958
0.0570574
0.0610228
0.0674842
0.0734471
0.0795876
0.0864438
0.093596
0.101019
0.10873
0.116733
0.125184
0.134056
0.14343
0.153349
0.163905
0.175159
0.187203
0.200072
0.213794
0.228435
0.24409
0.260854
0.278797
0.297994
0.318551
0.340575
)
;
    }
}


// ************************************************************************* //
