/*--------------------------------*- C++ -*----------------------------------*\
| =========                 |                                                 |
| \\      /  F ield         | OpenFOAM: The Open Source CFD Toolbox           |
|  \\    /   O peration     | Version:                                        |
|   \\  /    A nd           | Website:  www.openfoam.com                      |
|    \\/     M anipulation  |                                                 |
\*---------------------------------------------------------------------------*/
FoamFile
{
    version     2.0;
    format      ascii;
    class       surfaceScalarField;
    location    "76.8";
    object      phi;
}
// * * * * * * * * * * * * * * * * * * * * * * * * * * * * * * * * * * * * * //

dimensions      [0 3 -1 0 0 0 0];
oriented        oriented;


internalField   nonuniform List<scalar> 
2201
(
-0.000550214
-0.000488269
0.00103848
-0.000211173
-0.000339042
-2.30157e-06
-0.000208871
0.000467843
-0.000470145
0.000357353
0.00011049
-0.00117556
0.00153292
-0.00371511
0.00253954
-0.0074173
0.00370219
-0.0115713
0.00415399
0.00297669
-0.014548
-0.00169541
-0.000792139
0.00199928
-0.00178521
-0.000249249
-0.00323408
0.00124001
-0.00709751
0.00339328
-0.0123239
0.00533685
-0.0174183
0.00662737
-0.021346
0.00646721
-0.0239639
0.00632005
-0.0254678
0.00565796
0.00423178
-0.0267229
-0.00475326
0.000585905
0.00337522
-0.00847259
0.00347008
-0.0140031
0.00677052
-0.0193861
0.00877632
-0.0230211
0.0089718
-0.0254068
0.00901308
-0.0275267
0.0085871
-0.0286565
0.00744982
-0.0290356
0.00603713
0.00448842
-0.0292923
-0.0121729
0.00535317
0.00740566
-0.018072
0.00936914
-0.0227241
0.0114226
-0.0256319
0.0116841
-0.027718
0.0110579
-0.0289451
0.0102402
-0.029576
0.00921802
-0.0298585
0.00773231
-0.0299111
0.00608973
0.0044781
-0.0299008
-0.0199486
0.0112529
0.0140489
-0.0245246
0.0139452
-0.0270743
0.0139723
-0.028477
0.0130868
-0.0295577
0.0121386
-0.0300973
0.0107798
-0.0302097
0.00933046
-0.030239
0.00776162
-0.0301693
0.00602001
0.00439572
-0.0300869
-0.0254508
0.0158906
0.020813
-0.0278387
0.016333
-0.0288586
0.0149922
-0.0296631
0.0138913
-0.030215
0.0126904
-0.0303985
0.0109633
-0.0304996
0.00943155
-0.0304821
0.00774414
-0.0303791
0.00591701
0.00428822
-0.0302716
-0.0285464
0.0184669
0.0259701
-0.0291775
0.0169641
-0.029579
0.0153937
-0.0302362
0.0145485
-0.0304615
0.0129157
-0.0305767
0.0110785
-0.0307824
0.00963732
-0.030728
0.00768966
-0.030666
0.00585504
0.00416778
-0.0305456
-0.0298148
0.0191835
0.0290982
-0.0295914
0.0167408
-0.0300288
0.0158311
-0.0305866
0.0151063
-0.0305615
0.0128906
-0.0308331
0.0113501
-0.0310459
0.00985016
-0.0309665
0.00761021
-0.030994
0.00588257
0.00398899
-0.0308152
-0.0299367
0.0187001
0.0304202
-0.0297943
0.0165983
-0.0304136
0.0164504
-0.0307724
0.0154651
-0.0306958
0.012814
-0.0311733
0.0118276
-0.031302
0.00997884
-0.0312749
0.00758313
-0.0313782
0.00598588
0.00374223
-0.0311314
-0.029644
-0.0300222
0.0169764
-0.030673
0.0171013
-0.0308628
0.0156549
-0.030959
0.0129103
-0.0315556
0.0124241
-0.0315896
0.0100128
-0.031685
0.00767856
-0.0317949
0.00609577
0.00347423
-0.0315269
-0.0302183
0.0178477
-0.0308306
0.0177136
-0.0308995
0.0157238
-0.0313775
0.0133882
-0.0319047
0.0129513
-0.0319654
0.0100735
-0.0321593
0.00787248
-0.0322446
0.00618111
0.00322871
-0.0319991
-0.0302674
-0.0308931
0.0183392
-0.0309963
0.0158271
-0.0318139
0.0142058
-0.0322458
0.0133832
-0.032357
0.0101848
-0.0327032
0.00821859
-0.0326716
0.0061496
0.00309248
-0.0325354
-0.0308841
0.0189738
-0.0311215
0.0160645
-0.0323009
0.0153852
-0.0324873
0.0135696
-0.0328682
0.0105657
-0.0332285
0.00857889
-0.0331726
0.00609364
0.00306081
-0.0331409
-0.0306777
-0.0315345
0.0169213
-0.0325892
0.0164399
-0.0328061
0.0137865
-0.0334391
0.0111987
-0.0337552
0.00889495
-0.0337736
0.00611211
0.0030907
-0.0338035
-0.0319735
0.0182553
-0.0327734
0.0172398
-0.033333
0.0143461
-0.0340222
0.0118879
-0.034385
0.00925768
-0.0344984
0.00622558
0.00312569
-0.0345334
-0.0322406
0.0197086
-0.0331352
0.0181344
-0.0339302
0.0151412
-0.0346579
0.0126156
-0.0351036
0.00970335
-0.0352585
0.00638045
0.00321177
-0.0353445
-0.0325652
-0.0336533
0.0192224
-0.0345319
0.0160198
-0.035358
0.0134417
-0.0358191
0.0101645
-0.0360275
0.00658885
0.00332841
-0.0361442
-0.0341059
0.0203501
-0.0352102
0.0171242
-0.0360421
0.0142735
-0.0364855
0.0106079
-0.0368679
0.00697128
0.00327722
-0.0368167
-0.0347731
0.0216778
-0.0358913
0.0182424
-0.0367592
0.0151414
-0.037197
0.0110457
-0.0376669
0.00744124
0.00319479
-0.0375845
-0.0353082
-0.0364555
0.0193897
-0.0374819
0.0161678
-0.037904
0.0114678
-0.0384348
0.00797204
0.00332921
-0.0385692
0.00423526
-0.00303229
0.00677094
-0.00253568
0.00826146
-0.00149052
0.00831018
-4.87207e-05
0.0069492
0.00136098
0.0044857
0.0024635
0.0017031
0.0027826
-0.000309461
0.00201256
-0.00114537
0.00083591
-0.000106888
0.0013261
-0.00629472
0.00424733
-0.0054569
0.0061415
-0.00338469
0.00670358
-0.000610803
0.00605569
0.00200887
0.00425631
0.00426288
0.00182409
0.00521481
-0.000533443
0.00437009
-0.00195615
0.00225862
-6.37593e-05
-0.00270402
-0.000114928
-0.008046
0.00166523
-0.00516485
0.00228437
-0.00122994
0.00202335
0.00226989
0.000979938
0.0053063
-0.000669116
0.00686387
-0.00239343
0.00609441
-0.00314465
0.00300984
0.000166813
-0.00456903
-0.00308309
-0.00262887
-0.0028786
-0.00359537
0.00602306
-0.004548
0.0078165
-0.00518556
0.00673197
-0.00548609
0.00331036
0.00208639
-0.00805271
-0.00818538
0.00794917
-0.00826866
0.00681525
-0.00965128
0.00469299
0.00648401
-0.0116281
-0.012272
0.00745911
-0.0154974
0.00791847
0.0117996
-0.0174323
-0.0215895
0.0120757
0.0161802
-0.0264745
0.0188039
0.00307629
0.0504328
-0.0501798
0.00285491
0.0529359
-0.0527145
0.00268514
0.0558621
-0.0556923
0.00253876
0.0591782
-0.0590318
0.00243035
0.0628177
-0.0627093
0.00243788
0.0668013
-0.0668089
0.00256929
0.0711416
-0.0712731
0.00268844
0.0759259
-0.076045
0.00270587
0.0810758
-0.0810932
0.00263844
0.0865172
-0.0864498
0.0025302
0.0922502
-0.092142
0.00237611
0.0983827
-0.0982286
0.00221573
0.104955
-0.104795
0.00211688
0.111979
-0.11188
0.00204496
0.119565
-0.119493
0.00196473
0.127737
-0.127657
0.00187824
0.136449
-0.136362
0.00176397
0.145761
-0.145647
0.00162634
0.155711
-0.155573
0.00147942
0.166327
-0.16618
0.00133417
0.177664
-0.177518
0.00119349
0.189781
-0.18964
0.00105391
0.202741
-0.202602
0.00090927
0.216611
-0.216466
0.00076477
0.231443
-0.231298
0.000616232
0.247317
-0.247169
0.000464656
0.264314
-0.264162
0.000314576
0.282527
-0.282377
0.000162174
0.302059
-0.301906
0.322975
-0.322813
0.0076643
0.0507405
0.00722379
0.0533764
0.00705668
0.0560292
0.00713679
0.0590981
0.00728784
0.0626666
0.00733228
0.0667569
0.00724843
0.0712255
0.00713821
0.0760361
0.00702847
0.0811855
0.00693635
0.0866093
0.00684521
0.0923413
0.00668908
0.0985388
0.00644591
0.105198
0.00614177
0.112283
0.0057784
0.119929
0.00541198
0.128103
0.00507772
0.136783
0.00476501
0.146074
0.00446923
0.156007
0.00417317
0.166623
0.00385712
0.17798
0.00351995
0.190118
0.00315635
0.203105
0.00277099
0.216996
0.00236954
0.231844
0.00194315
0.247744
0.00149399
0.264763
0.00102495
0.282996
0.000527537
0.302556
0.323503
0.0115387
0.0506696
0.0118867
0.0530285
0.0121187
0.0557972
0.0120264
0.0591904
0.0117589
0.0629341
0.0116088
0.066907
0.0115909
0.0712434
0.0115085
0.0761185
0.0112793
0.0814147
0.0109871
0.0869015
0.0106691
0.0926594
0.0102934
0.0989146
0.00995843
0.105533
0.00969116
0.11255
0.00937191
0.120248
0.00901645
0.128459
0.00861578
0.137184
0.00813365
0.146556
0.00760533
0.156535
0.00704393
0.167185
0.00646592
0.178558
0.00587688
0.190707
0.00526142
0.20372
0.00462427
0.217633
0.00395841
0.23251
0.00325323
0.248449
0.00250812
0.265508
0.0017215
0.283783
0.000887591
0.30339
0.32439
0.0160126
0.0508249
0.0156652
0.0533758
0.0155398
0.0559226
0.015632
0.0590982
0.0156882
0.0628779
0.0156251
0.0669701
0.0155322
0.0713363
0.0154673
0.0761834
0.0153703
0.0815117
0.0152503
0.0870216
0.0150128
0.0928969
0.0145716
0.0993557
0.014067
0.106038
0.013458
0.113159
0.0127533
0.120953
0.0121054
0.129107
0.011472
0.137817
0.0108439
0.147184
0.010228
0.157151
0.0095758
0.167837
0.0088745
0.179259
0.00811159
0.19147
0.00729725
0.204535
0.00643606
0.218495
0.00552321
0.233423
0.00454902
0.249423
0.0035145
0.266543
0.00241503
0.284882
0.00124569
0.304559
0.325636
0.0200845
0.0207373
0.0209416
0.0207504
0.0205466
0.0204745
0.0202898
0.0198889
0.019442
0.0190345
0.0184997
0.0934316
0.0179355
0.0999199
0.0175494
0.106424
0.0170468
0.113662
0.0164516
0.121548
0.0158464
0.129712
0.0150962
0.138567
0.0142558
0.148025
0.0133534
0.158053
0.0124002
0.16879
0.0114221
0.180237
0.0104032
0.192489
0.00934198
0.205596
0.00823081
0.219606
0.00705714
0.234597
0.00581081
0.250669
0.00449074
0.267863
0.00308678
0.286286
0.00159255
0.306054
0.327229
0.0225517
0.0219113
0.021181
0.0201806
0.0192858
0.0184283
0.0175003
0.0166158
0.0156973
0.0147146
0.0136502
0.0124982
0.0112613
0.00994616
0.00854068
0.00704147
0.00544727
0.00374636
0.00193352
0.029478
0.0323715
-0.0281219
-0.0337277
0.0313232
0.0291592
-0.0310044
0.0330903
0.0261106
-0.0278776
0.0344986
0.0225486
-0.023957
0.0360175
0.0187147
-0.0202336
0.0369964
0.0153853
-0.0163642
0.0376313
0.0110489
-0.0116839
0.0384209
0.00708254
-0.00787207
0.0385335
0.00298231
-0.00309494
-0.00138037
0.00134462
0.0287821
0.0305318
-0.0269424
0.0305449
0.0273963
0.0323135
0.024342
0.0336419
0.0212203
0.0348392
0.0175173
0.0361344
0.0140901
0.0366842
0.0104992
0.037344
0.00642275
0.0377069
0.0026194
-0.001258
0.0280085
0.0285555
-0.0260322
0.0297793
0.0256256
0.0314791
0.0226422
0.0329796
0.0197198
0.033957
0.01654
0.0351228
0.0129243
0.0359977
0.00962422
0.0364078
0.00601267
0.0368488
0.00217844
-0.00122595
0.0272802
0.0265911
-0.0253158
0.0290665
0.0238392
0.030582
0.0211267
0.0322049
0.0180969
0.0333468
0.015398
0.0342632
0.0120079
0.0351125
0.00877496
0.0357173
0.00540787
0.0359418
0.00195394
-0.00142837
0.0265842
0.0247214
-0.0247144
0.0284017
0.0220217
0.0298585
0.0196699
0.0312439
0.0167114
0.0325619
0.01408
0.0335352
0.0110346
0.0342586
0.00805157
0.0348877
0.00477877
0.0351407
0.00170089
-0.0016322
0.025988
0.0229587
-0.0242253
0.02767
0.0203398
0.0292602
0.0180797
0.0305116
0.0154601
0.0317005
0.0128911
0.0326983
0.0100369
0.0334706
0.00727926
0.0340352
0.0042142
0.0343504
0.00138566
-0.00181524
0.0255651
0.0211065
-0.023713
0.027068
0.0188369
0.0285792
0.0165685
0.0299044
0.0141349
0.0310106
0.0117848
0.031954
0.0090935
0.0327073
0.00652591
0.0332642
0.00365735
0.0336053
0.0010445
-0.00201342
0.0250659
0.0191674
-0.0231267
0.0266575
0.0172453
0.0280182
0.0152078
0.0293225
0.0128307
0.0304126
0.0106947
0.0313227
0.00818346
0.0320872
0.0057614
0.0325747
0.00316982
0.032982
0.000637146
-0.00217228
0.0244714
0.0173646
-0.0226686
0.0261626
0.015554
0.0275517
0.0138187
0.0287914
0.011591
0.0298967
0.00958938
0.0307562
0.00732396
0.0315395
0.00497811
0.0319882
0.00272113
0.032434
0.000191313
-0.00227366
0.0240318
0.0156645
-0.0223317
0.0256248
0.013961
0.0270871
0.0123565
0.0282776
0.0104004
0.0293889
0.00847802
0.0302607
0.00645217
0.0310093
0.00422951
0.0314883
0.00224221
0.0319221
-0.000242484
-0.00235073
0.0237422
0.0139503
-0.022028
0.0251952
0.0125079
0.0266659
0.0108858
0.0278225
0.00924389
0.0289109
0.0073896
0.029776
0.00558702
0.0305034
0.00350217
0.0310112
0.00173442
0.0314129
-0.000644203
-0.00246473
0.0234911
0.0122663
-0.0218071
0.0249362
0.0110628
0.0263144
0.00950769
0.0274929
0.00806539
0.0285065
0.00637596
0.0293845
0.00470903
0.0300508
0.00283585
0.0306056
0.00117966
0.0309464
-0.000984985
-0.00264982
0.0232422
0.0106646
-0.0216406
0.0247572
0.00954776
0.0260486
0.00821632
0.027255
0.00685904
0.0282185
0.00541247
0.0290859
0.0038416
0.0297136
0.00220811
0.0302753
0.000618021
0.0305693
-0.00127899
-0.00289576
0.0230712
0.00909297
-0.0214996
0.0245942
0.00802475
0.0258651
0.0069455
0.0270618
0.00566228
0.0280203
0.00445403
0.0288602
0.00300166
0.029476
0.00159232
0.030016
7.80115e-05
0.0302969
-0.00155988
-0.00314443
0.0229967
0.00749132
-0.021395
0.0244677
0.00655369
0.0257534
0.00565986
0.026903
0.00451263
0.0278744
0.00348266
0.0286737
0.00220238
0.029282
0.000984009
0.0297867
-0.000426722
0.0300778
-0.00185093
-0.00333829
0.0230348
0.00587425
-0.0214177
0.0244679
0.00512052
0.0257637
0.0043641
0.0268453
0.00343104
0.0278242
0.00250374
0.0285931
0.00143346
0.029194
0.000383157
0.029658
-0.000890701
0.029924
-0.00211696
-0.00350121
0.0231647
0.00427133
-0.0215618
0.0245865
0.00369874
0.0259054
0.00304516
0.0269248
0.00241165
0.0278441
0.00158447
0.0285478
0.000729765
0.0291918
-0.000260843
0.0295708
-0.0012697
0.0297585
-0.00230472
-0.00364343
0.0233676
0.00265979
-0.0217561
0.0247636
0.0023027
0.0261068
0.00170203
0.0271775
0.00134095
0.0281035
0.000658487
0.0286482
0.000184994
0.0291145
-0.000727076
0.0293846
-0.00153983
0.0294167
-0.00233684
-0.00351899
0.0237861
0.00109784
-0.0222241
0.0251503
0.000938483
0.0263767
0.000475579
0.0273673
0.000350371
0.0281552
-0.000129423
0.0286864
-0.000346191
0.0287443
-0.000785021
0.0284029
-0.00119837
0.0278443
-0.00177823
-0.00239763
0.0194184
-0.0183206
0.0203569
0.0208325
0.0211829
0.0210534
0.0207072
0.0199222
0.0187238
0.0169456
0.0201882
0.0418966
0.0226426
0.03975
-0.0422044
0.0252025
0.0371456
-0.0397055
0.0345941
-0.0375134
0.0170627
0.0409676
0.019696
0.0392632
0.022159
0.0372871
0.0246945
0.0346101
0.0323462
0.0112853
0.0407783
0.0140128
0.0397405
0.0166558
0.0383246
0.0192332
0.0366858
0.0216675
0.0348528
0.0239663
0.0323113
0.0302803
0.00276233
0.0394909
0.00555349
0.0392865
0.00831689
0.0388206
0.0110349
0.0380603
0.0136956
0.0370799
0.0162678
0.0357524
0.018778
0.0341755
0.0211178
0.032513
0.0232582
0.030171
0.0282226
0.0027092
0.0367459
0.00544077
0.0365549
0.00814461
0.0361168
0.0107982
0.0354067
0.0133924
0.0344856
0.0158897
0.0332551
0.0183173
0.0317479
0.0206062
0.0302241
0.0226724
0.0281047
0.0261806
0.00265664
0.0340532
0.0053308
0.0338807
0.00797562
0.0334719
0.0105705
0.0328118
0.0131064
0.0319497
0.0155354
0.0308262
0.0178832
0.0294
0.0201169
0.0279905
0.0221697
0.0260519
0.0241249
0.00260792
0.0314145
0.00522567
0.031263
0.00781367
0.0308839
0.0103527
0.0302728
0.0128332
0.0294693
0.0152168
0.0284425
0.0174869
0.0271299
0.0196743
0.0258031
0.0216642
0.0240621
0.0220761
0.00256753
0.0288298
0.00513262
0.0286979
0.00766454
0.028352
0.0101493
0.027788
0.0125794
0.0270392
0.0149242
0.0260977
0.0171379
0.0249161
0.0193036
0.0236374
0.0212365
0.0221292
0.0201859
0.00253173
0.0262962
0.00504927
0.0261803
0.00753439
0.0258669
0.0099681
0.0253543
0.0123427
0.0246646
0.0146624
0.023778
0.0168417
0.0227368
0.0189558
0.0215233
0.0208907
0.0201943
0.018408
0.00250485
0.0238074
0.00497934
0.0237059
0.00742103
0.0234252
0.00981784
0.0229575
0.0121354
0.0223471
0.0144104
0.0215031
0.0165869
0.0205603
0.0186754
0.0194348
0.0205777
0.0182919
0.016654
0.00248148
0.0213578
0.00491868
0.0212687
0.0073262
0.0210177
0.00969345
0.0205902
0.0119705
0.02007
0.0142027
0.0192708
0.0163288
0.0184343
0.018408
0.0173555
0.0203441
0.0163559
0.0149701
0.00246586
0.0189411
0.00487057
0.018864
0.00724607
0.0186422
0.00960115
0.0182351
0.01184
0.0178311
0.0140342
0.0170767
0.0161489
0.0163196
0.0181345
0.0153698
0.0201253
0.0143652
0.0132883
0.00245681
0.0165453
0.0048373
0.0164835
0.0071819
0.0162976
0.00952593
0.0158911
0.0117768
0.0155803
0.0139032
0.0149503
0.0160082
0.0142147
0.0179653
0.0134126
0.0198699
0.0124606
0.0115176
0.00245454
0.0141671
0.00482233
0.0141157
0.00714564
0.0139743
0.00946432
0.0135724
0.0117301
0.0133145
0.0138755
0.0128049
0.0158959
0.0121943
0.0178983
0.0114102
0.0197047
0.0106542
0.00972278
0.00246225
0.0117898
0.00483089
0.011747
0.00713749
0.0116677
0.00944338
0.0112665
0.0116903
0.0110675
0.0138886
0.0106066
0.0158873
0.0101956
0.0178536
0.0094439
0.0196717
0.00883615
0.00799939
0.002479
0.00940532
0.00486321
0.00936283
0.00717105
0.00935984
0.00946099
0.00897659
0.011696
0.00883258
0.0138938
0.00840875
0.0159778
0.00811163
0.0178861
0.00753558
0.0197505
0.00697182
0.00633214
0.0025006
0.00701268
0.00491517
0.00694825
0.00725023
0.00702478
0.00954459
0.00668223
0.0117844
0.0065928
0.0139459
0.00624717
0.0160716
0.00598598
0.0180182
0.00558897
0.0198652
0.00512483
0.00463558
0.00253363
0.00459935
0.00497607
0.00450581
0.00734686
0.00465398
0.00966505
0.00436405
0.0119168
0.00434107
0.0141121
0.00405183
0.0161749
0.00392325
0.0182151
0.00354873
0.0200219
0.003318
0.00290144
0.00260031
0.00210937
0.00509063
0.00201549
0.00759151
0.0021531
0.00996407
0.00199149
0.012284
0.0020211
0.0145433
0.00179258
0.0166378
0.00182878
0.018685
0.00150147
0.020508
0.00149504
0.00118532
0.00233622
0.00435171
0.00650481
0.0084963
0.0105174
0.01231
0.0141388
0.0156402
0.0171353
0.038033
0.00555032
0.00594322
0.00666304
0.00718264
0.00501106
0.0465021
0.00499112
0.0501702
0.00472712
0.0539884
0.00437112
0.0580636
0.00404789
0.0626043
0.00372828
0.0674919
0.00337563
0.0724953
0.00301454
0.0776059
0.00268057
0.0829669
0.00238399
0.0886887
0.00213137
0.0948521
0.00191966
0.10154
0.00173534
0.108726
0.00156426
0.116355
0.00140975
0.124427
0.00127045
0.13301
0.00114564
0.14218
0.00103629
0.15199
0.000937505
0.16249
0.000843784
0.173713
0.000752402
0.185704
0.000662541
0.198511
0.000573162
0.21219
0.000484188
0.226803
0.000396411
0.242411
0.00031176
0.259092
0.000225252
0.276965
0.000123561
0.296128
6.4296e-05
0.316773
0.338761
0.00584052
0.0478442
0.00501903
0.0509917
0.00439813
0.0546093
0.00393825
0.0585235
0.00361123
0.0629313
0.00335237
0.0677507
0.003112
0.0727357
0.00287081
0.0778471
0.00261967
0.083218
0.00236983
0.0889386
0.00213863
0.0950833
0.00194698
0.101732
0.00179768
0.108875
0.00167369
0.116479
0.00155423
0.124546
0.0014292
0.133135
0.0012984
0.142311
0.00116157
0.152127
0.00102636
0.162625
0.000898121
0.173842
0.000778585
0.185823
0.000668382
0.198621
0.000566349
0.212292
0.000471173
0.226898
0.000380899
0.242502
0.000297046
0.259175
0.00021276
0.277049
0.000116463
0.296224
5.88739e-05
0.31683
0.338819
-0.0334965
0.047613
-0.0336562
0.0511515
-0.0337427
0.0546959
-0.0338922
0.058673
-0.0340346
0.0630737
-0.0340198
0.067736
-0.0338021
0.072518
-0.0334499
0.0774949
-0.0330258
0.0827939
-0.0325453
0.0884582
-0.0320049
0.0945429
-0.0313677
0.101095
-0.0306108
0.108118
-0.0297434
0.115611
-0.0287739
0.123577
-0.0277122
0.132073
-0.0265629
0.141161
-0.0253146
0.150879
-0.0239551
0.161265
-0.0224756
0.172362
-0.0208733
0.184221
-0.0191468
0.196894
-0.0172926
0.210438
-0.0153044
0.22491
-0.0131752
0.240372
-0.0108953
0.256895
-0.00844749
0.274601
-0.00584368
0.29362
-0.00301422
0.314001
0.335805
-0.0314169
0.0480256
-0.0315412
0.0512757
-0.031655
0.0548097
-0.0317348
0.0587528
-0.0316422
0.0629811
-0.0313775
0.0674713
-0.0310355
0.0721759
-0.0306561
0.0771155
-0.0302276
0.0823654
-0.029748
0.0879785
-0.0292079
0.0940029
-0.0285824
0.100469
-0.0278574
0.107393
-0.0270233
0.114777
-0.0260985
0.122652
-0.025104
0.131079
-0.0240385
0.140096
-0.0228992
0.14974
-0.0216748
0.160041
-0.0203535
0.171041
-0.0189225
0.18279
-0.0173733
0.195345
-0.0157008
0.208765
-0.0139001
0.223109
-0.0119676
0.23844
-0.00989777
0.254826
-0.00767729
0.272381
-0.00530446
0.291247
-0.00274242
0.311439
0.333063
-0.0281631
0.0483111
-0.0280747
0.0511873
-0.0279433
0.0546783
-0.02785
0.0586595
-0.0277622
0.0628933
-0.0276722
0.0673812
-0.0275169
0.0720206
-0.0272672
0.0768659
-0.0269452
0.0820434
-0.0265628
0.0875962
-0.0261186
0.0935586
-0.0255965
0.0999472
-0.0249829
0.106779
-0.0242827
0.114077
-0.023501
0.12187
-0.0226312
0.130209
-0.0216741
0.139139
-0.0206279
0.148693
-0.019493
0.158906
-0.0182709
0.169819
-0.0169584
0.181477
-0.0155501
0.193937
-0.0140395
0.207255
-0.0124206
0.22149
-0.0106882
0.236708
-0.00883718
0.252975
-0.00685574
0.270399
-0.00473325
0.289125
-0.00245144
0.309157
0.330611
-0.0240809
0.0484351
-0.0244425
0.0515489
-0.0248218
0.0550577
-0.0249671
0.0588048
-0.0248787
0.0628049
-0.0246167
0.0671192
-0.0242736
0.0716776
-0.023935
0.0765273
-0.0235883
0.0816967
-0.0232086
0.0872165
-0.0227681
0.0931181
-0.0222404
0.0994195
-0.0216342
0.106173
-0.0209617
0.113405
-0.0202402
0.121149
-0.0194783
0.129447
-0.018664
0.138324
-0.0177865
0.147816
-0.0168377
0.157957
-0.0158121
0.168793
-0.0147043
0.18037
-0.0135083
0.192741
-0.0122163
0.205963
-0.0108217
0.220096
-0.00932051
0.235206
-0.00771111
0.251365
-0.00598536
0.268674
-0.00413095
0.28727
-0.00214175
0.307168
0.32847
-0.0206502
0.0488517
-0.0207563
0.051655
-0.0206809
0.0549822
-0.0205859
0.0587097
-0.0205003
0.0627193
-0.0204185
0.0670374
-0.0203126
0.0715717
-0.0201373
0.0763519
-0.0198878
0.0814472
-0.0195816
0.0869104
-0.019222
0.0927585
-0.0188194
0.0990169
-0.0183679
0.105722
-0.0178638
0.112901
-0.0173103
0.120595
-0.0166945
0.128831
-0.016012
0.137642
-0.0152568
0.147061
-0.0144262
0.157127
-0.0135223
0.167889
-0.0125472
0.179395
-0.0115005
0.191694
-0.0103807
0.204843
-0.00918531
0.2189
-0.00790692
0.233928
-0.00654084
0.249999
-0.00507764
0.26721
-0.00350286
0.285696
-0.00181636
0.305481
0.326653
-0.0161306
0.0486182
-0.0161522
0.0516765
-0.0164971
0.0553272
-0.0167586
0.0589712
-0.0168048
0.0627654
-0.0166944
0.0669271
-0.0164999
0.0713772
-0.016299
0.076151
-0.0160929
0.0812411
-0.0158605
0.086678
-0.0155764
0.0924744
-0.0152086
0.0986491
-0.0147644
0.105277
-0.014278
0.112414
-0.0137713
0.120088
-0.0132535
0.128314
-0.0127179
0.137106
-0.0121511
0.146494
-0.0115372
0.156513
-0.0108611
0.167213
-0.0101173
0.178651
-0.00930278
0.19088
-0.00841584
0.203956
-0.00745585
0.21794
-0.00642455
0.232897
-0.00531933
0.248894
-0.00413225
0.266023
-0.00285032
0.284414
-0.00147751
0.304108
0.325176
-0.0123577
0.049292
-0.0128683
0.0521871
-0.0128504
0.0553093
-0.0126697
0.0587906
-0.0125737
0.0626694
-0.0125292
0.0668826
-0.0124851
0.071333
-0.012397
0.0760628
-0.0122527
0.0810968
-0.0120639
0.0864892
-0.0118376
0.0922481
-0.0116
0.0984115
-0.0113446
0.105022
-0.011052
0.112122
-0.0107164
0.119753
-0.0103312
0.127928
-0.00990028
0.136675
-0.00942844
0.146022
-0.00892
0.156004
-0.00837456
0.166668
-0.0077829
0.178059
-0.00714154
0.190238
-0.00644976
0.203264
-0.00570681
0.217197
-0.00491384
0.232104
-0.00406854
0.248049
-0.00316208
0.265117
-0.00218085
0.283433
-0.00112953
0.303057
0.324046
-0.0079012
0.0493211
-0.00766612
0.051952
-0.00775374
0.0553969
-0.0079874
0.0590242
-0.00809418
0.0627762
-0.00807401
0.0668624
-0.00802798
0.071287
-0.00800608
0.0760409
-0.00799257
0.0810833
-0.00794968
0.0864463
-0.00785571
0.0921542
-0.00768427
0.09824
-0.00745247
0.10479
-0.00720853
0.111878
-0.00696572
0.11951
-0.00672586
0.127688
-0.00647685
0.136426
-0.00620432
0.14575
-0.00590464
0.155705
-0.0055729
0.166336
-0.00520838
0.177695
-0.00480593
0.189836
-0.00436233
0.202821
-0.00387678
0.216712
-0.0033479
0.231575
-0.00277791
0.247479
-0.00216333
0.264502
-0.00149339
0.282763
-0.000772874
0.302337
0.323273
-0.00348247
0.0497087
-0.00411766
0.0525872
-0.00442728
0.0557065
-0.00441311
0.0590101
-0.0043473
0.0627103
-0.00427436
0.0667895
-0.00418142
0.0711941
-0.00407569
0.0759352
-0.00398264
0.0809902
-0.00391769
0.0863813
-0.00387127
0.0921078
-0.00385172
0.0982205
-0.00383973
0.104778
-0.00378713
0.111825
-0.00368959
0.119412
-0.00356497
0.127564
-0.00341763
0.136279
-0.00325671
0.145589
-0.00308905
0.155537
-0.00291319
0.16616
-0.0027227
0.177504
-0.00251441
0.189628
-0.00228609
0.202592
-0.00203798
0.216464
-0.00176663
0.231304
-0.00147172
0.247184
-0.00115201
0.264182
-0.000797956
0.282409
-0.000412577
0.301951
0.322861
0.000873443
0.000746169
0.00076038
0.000738629
0.00073972
0.000720347
0.000641367
0.000531568
0.000428596
0.000360178
0.000325964
0.000317824
0.000301118
0.000246331
0.000165202
7.24186e-05
-1.09283e-05
-6.9091e-05
-0.000105604
-0.00012566
-0.00013995
-0.000152676
-0.00016175
-0.000164423
-0.00015911
-0.000144175
-0.000124111
-9.26506e-05
-4.763e-05
)
;

boundaryField
{
    outlet
    {
        type            calculated;
        value           nonuniform 0();
    }
    upperWall
    {
        type            symmetryPlane;
        value           nonuniform 0();
    }
    lowerWall
    {
        type            symmetryPlane;
        value           uniform 0;
    }
    inlet
    {
        type            calculated;
        value           nonuniform 0();
    }
    cylinder
    {
        type            calculated;
        value           uniform 0;
    }
    frontAndBack
    {
        type            empty;
        value           nonuniform 0();
    }
    procBoundary1to0
    {
        type            processor;
        value           nonuniform List<scalar> 
45
(
-0.0175462
-0.0436696
-0.0445385
-0.0435664
-0.0143606
-0.042468
-0.0422906
-0.0420776
-0.00849717
-0.041584
-0.0382409
-0.0429227
-0.0053424
-0.0404253
-0.00522495
-0.0459628
-0.0501503
-0.0537244
-0.0577076
-0.0622811
-0.0671723
-0.0721427
-0.0772448
-0.0826329
-0.0883922
-0.0945995
-0.101329
-0.108541
-0.116184
-0.124272
-0.132871
-0.142055
-0.151881
-0.162391
-0.17362
-0.185612
-0.198421
-0.212101
-0.226714
-0.242324
-0.259007
-0.276878
-0.296026
-0.316713
-0.338696
)
;
    }
    procBoundary1to2
    {
        type            processor;
        value           nonuniform List<scalar> 
63
(
0.0178512
0.0304929
0.0293471
0.0292742
0.0188409
0.0302495
0.0302316
0.0194199
0.0306395
0.0307873
0.0309999
0.021274
0.0329782
0.0334454
0.0339004
0.0230856
-0.00918618
0.00705734
-0.0105343
-0.0066508
-0.00168415
0.00251961
0.00771931
0.00635647
0.0118877
0.00768955
0.0155868
0.00930465
0.0226762
0.015874
0.0296149
0.0196092
0.0501302
0.052723
0.0557182
0.0592894
0.0630817
0.0670423
0.071521
0.0765843
0.0819586
0.0874291
-0.023164
0.094044
0.10056
0.107154
0.114662
0.122443
0.130569
0.139495
0.148909
0.158972
0.169773
0.181302
0.193641
0.206833
0.220921
0.236002
0.252169
0.269457
0.287987
0.307866
0.329162
)
;
    }
    procBoundary1to5
    {
        type            processor;
        value           nonuniform List<scalar> 
20
(
-0.00120297
0.00193633
0.00559548
3.74635e-05
3.57093e-05
3.60721e-05
3.08326e-05
1.71261e-05
1.88566e-06
-1.60077e-05
-3.18677e-05
-4.92264e-05
-6.09992e-05
-7.62853e-05
-8.50443e-05
-9.44738e-05
-0.000107962
-0.000120301
-0.000110318
-0.000226852
)
;
    }
}


// ************************************************************************* //
