/*--------------------------------*- C++ -*----------------------------------*\
| =========                 |                                                 |
| \\      /  F ield         | OpenFOAM: The Open Source CFD Toolbox           |
|  \\    /   O peration     | Version:                                        |
|   \\  /    A nd           | Website:  www.openfoam.com                      |
|    \\/     M anipulation  |                                                 |
\*---------------------------------------------------------------------------*/
FoamFile
{
    version     2.0;
    format      ascii;
    class       volScalarField;
    location    "0.6";
    object      p;
}
// * * * * * * * * * * * * * * * * * * * * * * * * * * * * * * * * * * * * * //

dimensions      [0 2 -2 0 0 0 0];


internalField   nonuniform List<scalar> 
400
(
0.726482
0.723548
0.716917
0.706917
0.694492
0.680387
0.665167
0.649313
0.633211
0.617141
0.601299
0.585814
0.570765
0.556193
0.542113
0.528521
0.515399
0.502723
0.490465
0.478594
0.727439
0.724432
0.717646
0.707449
0.694835
0.680566
0.665214
0.649261
0.633089
0.616973
0.601103
0.585604
0.570551
0.555983
0.54191
0.528328
0.515219
0.502555
0.49031
0.478451
0.729376
0.726218
0.719111
0.708512
0.695513
0.680915
0.665299
0.649148
0.632837
0.616629
0.600706
0.58518
0.570121
0.55556
0.541504
0.527943
0.514858
0.50222
0.490001
0.478167
0.732342
0.728943
0.721327
0.710102
0.696512
0.681415
0.665402
0.648956
0.632438
0.616098
0.600096
0.584534
0.569468
0.55492
0.54089
0.527363
0.514316
0.501718
0.489538
0.477742
0.736415
0.732663
0.724315
0.712209
0.697809
0.682036
0.665492
0.648654
0.631868
0.615357
0.599258
0.583653
0.568582
0.554056
0.540065
0.526587
0.513593
0.50105
0.488924
0.47718
0.74171
0.737458
0.7281
0.714819
0.699367
0.682734
0.665524
0.648205
0.631094
0.614379
0.59817
0.582522
0.567454
0.552962
0.539025
0.525613
0.51269
0.500219
0.488163
0.476486
0.748384
0.743435
0.732708
0.717905
0.701136
0.683449
0.66544
0.647555
0.630071
0.613133
0.596808
0.581123
0.566073
0.551634
0.537771
0.524445
0.511614
0.499234
0.487266
0.475672
0.756661
0.75073
0.738162
0.72142
0.703044
0.684103
0.665165
0.64664
0.62875
0.611578
0.595145
0.579441
0.564431
0.55007
0.536308
0.523094
0.510376
0.498109
0.486247
0.474753
0.766845
0.759515
0.744474
0.725295
0.704991
0.684591
0.664603
0.645384
0.627072
0.609676
0.593159
0.577466
0.562531
0.548282
0.534652
0.521577
0.509
0.496867
0.485131
0.473752
0.779368
0.769997
0.751624
0.729414
0.706841
0.68478
0.663643
0.643701
0.624981
0.607394
0.590838
0.575205
0.560389
0.546294
0.532833
0.51993
0.507519
0.495542
0.48395
0.472701
0.79484
0.782422
0.759545
0.73361
0.708412
0.684503
0.662154
0.641506
0.62243
0.604721
0.588194
0.572685
0.558047
0.544153
0.530901
0.518201
0.50598
0.494179
0.482745
0.471637
0.814151
0.797059
0.768074
0.737628
0.709465
0.683567
0.660008
0.638733
0.619405
0.601678
0.585276
0.569971
0.555574
0.541932
0.528924
0.516454
0.504443
0.492829
0.481562
0.470599
0.838626
0.814167
0.776898
0.741107
0.709703
0.681764
0.657099
0.635363
0.615948
0.598345
0.582182
0.567166
0.55307
0.539721
0.526985
0.514761
0.502969
0.491546
0.480445
0.469625
0.870295
0.833937
0.785468
0.743552
0.708784
0.678917
0.653398
0.631465
0.61218
0.594864
0.579053
0.564401
0.550653
0.537621
0.525168
0.513191
0.501613
0.490374
0.47943
0.468744
0.912208
0.856338
0.792913
0.744346
0.70639
0.674956
0.649006
0.627221
0.608303
0.591425
0.576055
0.561812
0.548429
0.535715
0.523535
0.511791
0.50041
0.489338
0.478535
0.467967
0.968491
0.880781
0.79797
0.742908
0.702402
0.67004
0.644204
0.622917
0.604562
0.588221
0.573331
0.559503
0.54647
0.534051
0.522117
0.510579
0.49937
0.488442
0.477759
0.467292
1.04469
0.905879
0.799075
0.738928
0.697072
0.664595
0.639381
0.618839
0.601148
0.585373
0.570951
0.557506
0.544787
0.532626
0.520904
0.50954
0.498476
0.487667
0.477083
0.4667
1.15277
0.930414
0.794512
0.732006
0.690492
0.658816
0.634641
0.614998
0.598021
0.582808
0.568829
0.555735
0.543297
0.531361
0.519823
0.50861
0.497669
0.486963
0.476464
0.466152
1.31938
0.953896
0.781871
0.719963
0.681206
0.651798
0.629308
0.610847
0.594727
0.58015
0.566649
0.553923
0.541773
0.530066
0.518712
0.507648
0.496829
0.486224
0.475809
0.465568
1.53898
0.969745
0.76055
0.701751
0.668641
0.643281
0.623202
0.60624
0.591139
0.577286
0.564318
0.551995
0.540155
0.528692
0.517532
0.506624
0.495933
0.485433
0.475105
0.464936
)
;

boundaryField
{
    fixedWalls
    {
        type            zeroGradient;
    }
    inlet
    {
        type            zeroGradient;
    }
    outlet
    {
        type            fixedValue;
        value           nonuniform 0();
    }
    frontAndBack
    {
        type            empty;
    }
    procBoundary4to0
    {
        type            processor;
        value           nonuniform List<scalar> 
20
(
0.726482
0.723548
0.716917
0.706917
0.694492
0.680387
0.665167
0.649313
0.633211
0.617141
0.601299
0.585814
0.570765
0.556193
0.542113
0.52852
0.515399
0.502723
0.490465
0.478594
)
;
    }
    procBoundary4to5
    {
        type            processor;
        value           nonuniform List<scalar> 
20
(
0.46708
0.466949
0.466688
0.466299
0.465785
0.465154
0.464417
0.463589
0.462693
0.461758
0.460818
0.459907
0.459057
0.458289
0.457612
0.457022
0.4565
0.456012
0.455487
0.454916
)
;
    }
}


// ************************************************************************* //
