/*--------------------------------*- C++ -*----------------------------------*\
| =========                 |                                                 |
| \\      /  F ield         | OpenFOAM: The Open Source CFD Toolbox           |
|  \\    /   O peration     | Version:                                        |
|   \\  /    A nd           | Website:  www.openfoam.com                      |
|    \\/     M anipulation  |                                                 |
\*---------------------------------------------------------------------------*/
FoamFile
{
    version     2.0;
    format      ascii;
    class       surfaceScalarField;
    location    "90.7";
    object      phi;
}
// * * * * * * * * * * * * * * * * * * * * * * * * * * * * * * * * * * * * * //

dimensions      [0 3 -1 0 0 0 0];
oriented        oriented;


internalField   nonuniform List<scalar> 
2202
(
0.038445
0.0886781
0.0355877
0.0922647
0.0318443
0.0960771
0.0273151
0.0699146
0.0269158
0.0246426
0.0292624
-0.037982
0.033869
-0.0791535
0.0352409
-0.0912825
0.0320361
-0.103834
0.0276813
-0.0955324
0.026931
-0.0843566
0.0304517
-0.0255913
0.0355192
0.0293026
0.0365994
0.0750254
0.0353
0.121575
0.0361647
0.108877
0.0402387
0.08195
0.043123
-0.000406306
0.0447619
-0.0887392
0.0448876
-0.117652
0.0461908
-0.156226
0.0486208
-0.0677336
0.0501993
0.0736845
0.0514836
0.112597
0.0530444
0.170041
0.0545623
0.0893348
0.0529801
-0.168345
0.0504716
-0.187182
0.0478501
0.0257108
0.0622528
0.0431194
0.0870635
0.041528
0.0938562
0.0393203
0.0982848
0.0357775
0.0734574
0.0339115
0.0265085
0.0334709
-0.0375413
0.0358719
-0.0815545
0.0361375
-0.0915481
0.0321772
-0.0998732
0.0278005
-0.0911558
0.026847
-0.083403
0.0307899
-0.0295342
0.0351774
0.0249151
0.0360396
0.0741633
0.0351465
0.122469
0.0363816
0.107642
0.0411355
0.0771961
0.0441854
-0.00345614
0.0458693
-0.0904231
0.0454695
-0.117252
0.0457816
-0.156538
0.0481215
-0.0700735
0.0495259
0.07228
0.050692
0.111431
0.0528766
0.167857
0.0547926
0.0874188
0.0532062
-0.166759
0.0505512
-0.184527
0.0477169
0.0285451
0.0643922
0.0497307
0.0830652
0.0496528
0.093934
0.0484169
0.0995207
0.0451951
0.0766793
0.0420345
0.029669
0.0387725
-0.0342793
0.0383336
-0.0811156
0.0370644
-0.090279
0.0325209
-0.0953297
0.0283044
-0.0869393
0.026993
-0.0820916
0.0308213
-0.0333625
0.0348033
0.020933
0.0370555
0.0719111
0.0371306
0.122393
0.0378352
0.106938
0.0425336
0.0724977
0.0450721
-0.00599464
0.0463647
-0.0917157
0.0456055
-0.116493
0.0449678
-0.1559
0.0472805
-0.0723863
0.0488365
0.070724
0.0500109
0.110257
0.0527487
0.165119
0.0549513
0.0852163
0.0531301
-0.164938
0.050358
-0.181755
0.0474242
0.0314789
0.0665215
0.0558139
0.076258
0.0581576
0.0915903
0.0583195
0.0993588
0.05538
0.0796188
0.0510095
0.0340395
0.0452718
-0.0285416
0.0422707
-0.0781146
0.0394139
-0.0874222
0.0337455
-0.0896613
0.0288239
-0.0820177
0.027135
-0.0804027
0.0316586
-0.037886
0.035965
0.0166267
0.038486
0.06939
0.0383338
0.122546
0.0389242
0.106347
0.0439967
0.0674252
0.0463715
-0.00836945
0.0475506
-0.0928948
0.0464982
-0.115441
0.0446817
-0.154084
0.0464518
-0.0741563
0.0478063
0.0693695
0.0488559
0.109207
0.0522424
0.161732
0.0548489
0.0826098
0.0531296
-0.163218
0.0502727
-0.178898
0.0471538
0.0345978
0.0686832
0.0604687
0.0674
0.0658458
0.0862132
0.0679853
0.0972193
0.0662685
0.0813356
0.0609382
0.0393699
0.0524646
-0.020068
0.0462444
-0.0718943
0.0418398
-0.0830176
0.0353334
-0.0831548
0.0297097
-0.076394
0.027839
-0.0785321
0.0330817
-0.0431287
0.0374298
0.0122786
0.0404097
0.0664101
0.0410877
0.121868
0.0413285
0.106106
0.0458273
0.0629263
0.0471461
-0.00968826
0.0477804
-0.093529
0.0467958
-0.114456
0.0440617
-0.15135
0.0454308
-0.0755254
0.0468222
0.0679781
0.0478732
0.108156
0.0518249
0.157781
0.0545657
0.079869
0.0528285
-0.161481
0.0498884
-0.175958
0.0467138
0.0377723
0.0707997
0.0628594
0.0712817
0.0777909
0.0747026
0.0937985
0.0733329
0.0827052
0.0685385
0.0441643
0.0597399
-0.0112694
0.0506849
-0.0628393
0.0447091
-0.0770419
0.0372698
-0.0757155
0.0301836
-0.0693078
0.0270986
-0.0754471
0.0326016
-0.0486316
0.0387259
0.0061542
0.0429644
0.0621716
0.0433684
0.121464
0.0431572
0.106318
0.0476682
0.0584154
0.0484599
-0.01048
0.0484581
-0.0935272
0.0473819
-0.11338
0.0438946
-0.147862
0.0448007
-0.0764315
0.0455711
0.0672078
0.046372
0.107355
0.0510612
0.153092
0.0541535
0.0767767
0.0526244
-0.159952
0.0496089
-0.172943
0.0462983
0.0410829
0.0729071
0.0741301
0.0661299
0.080504
0.0874245
0.0810342
0.0821751
0.0764548
0.0487437
0.0664111
-0.00122573
0.054692
-0.0511201
0.0471784
-0.0695283
0.0397628
-0.0682999
0.0317561
-0.0613011
0.0268656
-0.0705566
0.0328979
-0.054664
0.0408702
-0.00181812
0.045557
0.0574849
0.0463034
0.120717
0.0460557
0.106565
0.0497874
0.0546838
0.049243
-0.00993564
0.0481137
-0.092398
0.0470836
-0.11235
0.0433282
-0.144107
0.0440729
-0.0771762
0.0445104
0.0667702
0.0452266
0.106639
0.0505731
0.147745
0.0537086
0.0736411
0.0521531
-0.158397
0.0490641
-0.169854
0.0457477
0.0443993
0.0749386
0.0727602
0.052575
0.0807943
0.0793905
0.0815722
0.0813972
0.0778408
0.052475
0.0696291
0.00698604
0.057476
-0.038967
0.048752
-0.0608044
0.0421901
-0.061738
0.0340346
-0.0531456
0.0266064
-0.0631284
0.0316172
-0.0596747
0.0411034
-0.0113044
0.047676
0.0509123
0.0490267
0.119366
0.0482506
0.107341
0.0518281
0.0511064
0.0510297
-0.00913733
0.0485295
-0.0898977
0.0469593
-0.11078
0.0429237
-0.140071
0.0435649
-0.0778174
0.0435746
0.0667606
0.043967
0.106247
0.0498542
0.141858
0.0532547
0.0702406
0.0518325
-0.156974
0.0486407
-0.166662
0.0452239
0.0478161
0.0769195
0.0693764
0.0361937
0.0816051
0.0671618
0.0845331
0.0784692
0.0831152
0.0538929
0.0737418
0.0163595
0.0598052
-0.0250305
0.0493419
-0.0503411
0.0436542
-0.0560503
0.0365267
-0.046018
0.0266261
-0.0532278
0.0298043
-0.0628529
0.0418984
-0.0233985
0.0503239
0.0424868
0.0517987
0.117892
0.0508819
0.108258
0.0535597
0.0484285
0.0520565
-0.00763411
0.0483094
-0.0861506
0.0460924
-0.108563
0.0422331
-0.136212
0.0430701
-0.0786544
0.0429332
0.0668975
0.0433072
0.105873
0.0497353
0.13543
0.0529261
0.0670498
0.0513555
-0.155404
0.0480468
-0.163353
0.0446241
0.0512388
0.0788103
0.0589809
0.0741388
0.0520038
0.0803387
0.0722693
0.0805577
0.0536739
0.0725489
0.0243682
0.0600114
-0.012493
0.0493013
-0.039631
0.0445211
-0.0512701
0.0400226
-0.0415196
0.0295742
-0.0427794
0.0285155
-0.0617942
0.0401159
-0.0349988
0.0508451
0.0317576
0.053787
0.11495
0.0527127
0.109333
0.0551139
0.0460273
0.0536384
-0.00615858
0.0488905
-0.0814028
0.0456345
-0.105307
0.0418683
-0.132446
0.0422704
-0.0790565
0.0421734
0.0669945
0.0426276
0.105418
0.049389
0.128668
0.0526011
0.0638377
0.0509987
-0.153801
0.0475417
-0.159896
0.0440065
0.054774
0.0805749
0.0551015
0.043989
0.0624159
0.0649549
0.0703492
0.0457406
0.0718766
0.0228409
0.0693359
-0.00995227
0.0609495
-0.0312447
0.0547149
-0.0450354
0.0507359
-0.0375406
0.0409002
-0.0329437
0.0359778
-0.0568718
0.0395375
-0.0385586
0.0425085
0.0287866
0.0410166
0.116442
0.0445289
0.10582
0.0544646
0.0360916
0.0572597
-0.00895362
0.0551782
-0.0793213
0.0523726
-0.102501
0.0465217
-0.126595
0.0410188
-0.0735536
0.0355343
0.0724789
0.0357567
0.105196
0.0441144
0.120311
0.0506403
0.0573118
0.049821
-0.152982
0.0439944
-0.15407
0.0392212
0.0595471
0.082094
0.0572222
0.0349259
0.0663331
0.0558441
0.0746669
0.0374068
0.0757927
0.021715
0.0718518
-0.00601137
0.0625539
-0.0219468
0.0556435
-0.0381251
0.0529719
-0.0348689
0.045086
-0.0250578
0.0403411
-0.0521269
0.043707
-0.0419245
0.0470774
0.0254161
0.0463789
0.11714
0.0510639
0.101135
0.0614997
0.0256558
0.0635283
-0.0109822
0.0600839
-0.0758769
0.056071
-0.0984883
0.049643
-0.120167
0.0437448
-0.0676554
0.0375333
0.0786905
0.0387705
0.103959
0.0487134
0.110368
0.0551595
0.0508657
0.0534799
-0.151302
0.0468162
-0.147406
0.0414432
0.0649201
0.0836283
0.0586247
0.0247403
0.0694271
0.0450417
0.0780886
0.0287453
0.0781237
0.02168
0.0746777
-0.00256529
0.0677459
-0.015015
0.0617183
-0.0320976
0.0601953
-0.0333459
0.0525499
-0.0174124
0.0462138
-0.0457907
0.048739
-0.0444497
0.0525982
0.0215569
0.0526327
0.117106
0.0584214
0.0953465
0.0690875
0.0149898
0.0702722
-0.0121669
0.06515
-0.0707547
0.0596523
-0.0929906
0.052983
-0.113498
0.0468878
-0.0615603
0.0400245
0.0855538
0.0425943
0.101389
0.0542924
0.0986697
0.0602547
0.0449035
0.0574485
-0.148496
0.0498351
-0.139793
0.0437759
0.0709794
0.0851343
0.0619142
0.0152878
0.0723512
0.0346047
0.0790091
0.0220874
0.0779891
0.0227
0.0755016
-7.78103e-05
0.0703173
-0.00983066
0.0628447
-0.024625
0.0611285
-0.0316296
0.0556638
-0.0119477
0.0506028
-0.0407297
0.0536987
-0.0475456
0.057537
0.0177187
0.0586374
0.116005
0.0664994
0.0874845
0.0763008
0.00518836
0.0765771
-0.0124432
0.0703059
-0.0644835
0.0631818
-0.0858666
0.0555902
-0.105906
0.0490072
-0.0549773
0.0421329
0.0924281
0.0467534
0.0967686
0.0602892
0.0851339
0.0656442
0.0395485
0.0616031
-0.144455
0.0529027
-0.131092
0.0462655
0.0776166
0.0865271
0.0643201
0.00869995
0.0718495
0.0270753
0.0766165
0.0173203
0.0767493
0.0225671
0.0760996
0.000571918
0.0747826
-0.00851363
0.0679997
-0.0178422
0.0671059
-0.0307358
0.0642033
-0.0090452
0.0567447
-0.0332711
0.0561638
-0.0469647
0.061476
0.0124065
0.0661536
0.111328
0.0752389
0.0783992
0.0835213
-0.00309404
0.0826577
-0.0115796
0.0752539
-0.0570797
0.0668926
-0.0775053
0.0581679
-0.0971814
0.0515524
-0.0483618
0.0448934
0.099087
0.0515104
0.0901516
0.066704
0.0699403
0.0713729
0.0348796
0.0659616
-0.139044
0.0561537
-0.121284
0.04891
0.0848603
0.0877404
0.0660391
0.00590953
0.0701864
0.022928
0.075532
0.0119747
0.0789052
0.019194
0.0791854
0.000291719
0.0777479
-0.00707618
0.0700532
-0.0101474
0.0678647
-0.0285473
0.0673167
-0.00849717
0.0601209
-0.0260753
0.0553694
-0.0422132
0.0621067
0.00566914
0.0733035
0.100131
0.084729
0.0669737
0.0899357
-0.00830073
0.0862397
-0.00788365
0.0794261
-0.0502661
0.070353
-0.0684321
0.0590356
-0.085864
0.0521339
-0.0414601
0.0473652
0.103856
0.0566513
0.0808656
0.0731199
0.0534716
0.0771672
0.0308323
0.0703028
-0.132179
0.0591518
-0.110133
0.0516688
0.0923432
0.0884583
0.0701683
0.00409197
0.0737109
0.0193854
0.077849
0.00783665
0.0815333
0.0155097
0.0820111
-0.000186099
0.0826934
-0.00775854
0.0790606
-0.00651458
0.0756629
-0.0251497
0.0755999
-0.0084342
0.0691609
-0.0196362
0.0567499
-0.0298023
0.0615104
0.000908716
0.0806914
0.0809498
0.092311
0.055354
0.092933
-0.00892271
0.0891284
-0.00407902
0.0846195
-0.0457572
0.0755886
-0.0594012
0.0620229
-0.0722983
0.0546885
-0.0341257
0.0521919
0.106352
0.0632555
0.069802
0.0797855
0.0369416
0.0830089
0.0276089
0.0746355
-0.123806
0.0623888
-0.0978866
0.0549674
0.0997646
0.0886388
0.0754595
0.00277894
0.0791748
0.0156701
0.082642
0.00436948
0.0861766
0.0119751
0.08579
0.000200465
0.0848357
-0.00680424
0.0818498
-0.00352863
0.0781614
-0.0214613
0.0768996
-0.00717239
0.0730677
-0.0158043
0.0612403
-0.0179748
0.0645993
-0.0024503
0.0860934
0.0594558
0.0970471
0.0444003
0.0965199
-0.00839557
0.0922425
0.000198394
0.0868259
-0.0403406
0.0755072
-0.0480825
0.0606194
-0.0574105
0.0557428
-0.0292491
0.0586798
0.103415
0.0708343
0.0576475
0.0860871
0.0216888
0.0892607
0.0244352
0.0789876
-0.113533
0.0646953
-0.0835943
0.0580454
0.106414
0.0874676
0.0819337
0.00142034
0.0851216
0.0124822
0.0870181
0.00247301
0.090186
0.00880717
0.0905272
-0.000140744
0.0896061
-0.00588315
0.0878467
-0.00176916
0.083951
-0.0175657
0.0813684
-0.00458975
0.0793661
-0.013802
0.070365
-0.00897372
0.0708796
-0.00296493
0.0902828
0.0400526
0.0993193
0.0353638
0.0969835
-0.0060598
0.0936622
0.00351973
0.0912436
-0.0379221
0.0816566
-0.0384955
0.0656757
-0.0414295
0.0610336
-0.0246071
0.0680846
0.0963644
0.0797411
0.0459909
0.0919723
0.0094577
0.0952085
0.021199
0.0844912
-0.102816
0.0684511
-0.0675542
0.0625314
0.112334
0.0851822
0.0880887
0.000623928
0.0911072
0.00946372
0.0924289
0.00115125
0.0947893
0.00644682
0.0945803
6.82627e-05
0.093634
-0.00493689
0.0925506
-0.000685757
0.0893512
-0.0143663
0.0871749
-0.00241342
0.0853694
-0.0119966
0.0795293
-0.00313359
0.0790178
-0.00245345
0.0925638
0.0265066
0.100666
0.0272617
0.101381
-0.00677436
0.0987837
0.00611658
0.0923711
-0.0315095
0.0816186
-0.027743
0.0682527
-0.0280636
0.065857
-0.0222114
0.0779376
0.0842837
0.0896733
0.0342552
0.0986261
0.000504916
0.101517
0.0183086
0.0892202
-0.0905192
0.0706367
-0.0489708
0.0672764
0.115694
0.0810549
0.0948733
-3.85595e-05
0.0971802
0.00715677
0.0979051
0.000426344
0.0998856
0.0044664
0.0998892
6.46391e-05
0.0991221
-0.00416977
0.0982036
0.000232704
0.0952708
-0.0114334
0.0935508
-0.000693465
0.0917104
-0.0101561
0.0883564
0.000220352
0.0877798
-0.00187685
0.0973156
0.0169708
0.103326
0.0212516
0.103687
-0.00713564
0.103518
0.00628511
0.0998956
-0.0278867
0.0919594
-0.0198068
0.0792784
-0.0153826
0.0767085
-0.0196415
0.0906441
0.0703481
0.0979334
0.026966
0.100849
-0.00241071
0.104383
0.0147745
0.0931621
-0.0792983
0.0743023
-0.030111
0.0730006
0.116996
0.0752343
0.101647
-0.000282641
0.103726
0.00507783
0.104106
4.62061e-05
0.105648
0.0029245
0.105602
0.000110414
0.104577
-0.00314444
0.104322
0.000487153
0.10184
-0.00895103
0.100528
0.000618795
0.0991339
-0.00876227
0.0973618
0.00199249
0.0962665
-0.00078151
0.103398
0.0098392
0.108599
0.016051
0.108273
-0.00681032
0.107954
0.00660453
0.102878
-0.0228105
0.0975858
-0.0145148
0.0891852
-0.00698196
0.0869844
-0.0174408
0.102006
0.0553269
0.10898
0.0199913
0.107878
-0.00130843
0.106985
0.0156679
0.092694
-0.0650076
0.0747147
-0.0121317
0.0806618
0.111049
0.0662671
0.109059
-0.000532489
0.110477
0.0036596
0.110865
-0.000341511
0.111743
0.00204658
0.111914
-6.04064e-05
0.111141
-0.00237145
0.110877
0.000750547
0.108796
-0.00687015
0.108098
0.00131721
0.106587
-0.00725102
0.105844
0.00273557
0.105694
-0.000631631
0.109773
0.00576045
0.113834
0.0119894
0.113874
-0.00684982
0.114171
0.0063071
0.109448
-0.018087
0.104726
-0.00979318
0.0999922
-0.00224821
0.0968711
-0.0143198
0.108785
0.0434133
0.115455
0.0133214
0.113896
0.000250275
0.114377
0.0151864
0.100638
-0.0512682
0.0834291
0.0050773
0.0932495
0.101229
0.0560653
0.116726
-0.000598457
0.117768
0.00261758
0.117977
-0.000550241
0.118598
0.00142518
0.118771
-0.000233729
0.118052
-0.00165214
0.118048
0.000754552
0.116291
-0.00511345
0.115936
0.00167264
0.114552
-0.00586684
0.114524
0.00276361
0.114214
-0.000321362
0.117018
0.00295583
0.120314
0.00869308
0.119298
-0.00583361
0.120169
0.00543607
0.115692
-0.0136099
0.112306
-0.00640679
0.109505
0.000552333
0.106102
-0.0109168
0.116528
0.0329878
0.120337
0.00951237
0.118467
0.00212008
0.118116
0.0155369
0.103842
-0.0369937
0.094008
0.0149113
0.10888
0.0863563
0.0473846
0.124931
-0.000641187
0.125619
0.00192981
0.125726
-0.000657136
0.126129
0.00102227
0.126197
-0.000302213
0.125797
-0.00125265
0.125754
0.000798027
0.124441
-0.00380064
0.124339
0.00177479
0.122944
-0.0044717
0.123349
0.00235882
0.123246
-0.000219068
0.124781
0.00142108
0.127248
0.00622631
0.126374
-0.00495994
0.127198
0.0046126
0.123424
-0.00983654
0.120939
-0.0039212
0.119315
0.0021759
0.116036
-0.00763746
0.124103
0.0249209
0.126714
0.0069007
0.125822
0.00301247
0.125963
0.0153955
0.11285
-0.0238801
0.108057
0.0197044
0.12415
0.0702627
0.0403161
0.133636
-0.000603662
0.134186
0.00137977
0.134132
-0.000603111
0.134415
0.0007391
0.134419
-0.000306355
0.134055
-0.000888381
0.134183
0.000669663
0.133069
-0.00268638
0.133252
0.00159212
0.132
-0.00321982
0.132458
0.00190062
0.132428
-0.000188854
0.133195
0.000653923
0.135235
0.00418607
0.134003
-0.0037276
0.134912
0.00370364
0.131944
-0.00686852
0.129848
-0.00182486
0.129312
0.00271131
0.126391
-0.00471637
0.132632
0.0186795
0.134082
0.00545111
0.132852
0.00424277
0.133568
0.0146789
0.1229
-0.0132112
0.122002
0.0206017
0.136476
0.0557891
0.0346952
0.142898
-0.000556907
0.143359
0.000919043
0.143253
-0.000497613
0.143498
0.000494967
0.143371
-0.000179597
0.143106
-0.000623293
0.143171
0.000604347
0.14234
-0.00185562
0.142652
0.00128024
0.1416
-0.00216746
0.14206
0.00144
0.14201
-0.000138579
0.14236
0.000303811
0.143747
0.00279904
0.142748
-0.00272863
0.14345
0.00300225
0.141042
-0.00446068
0.139717
-0.000500049
0.139404
0.0030246
0.13709
-0.00240299
0.141665
0.0141049
0.142216
0.00489971
0.141592
0.00486729
0.142496
0.0137748
0.134277
-0.0049924
0.135179
0.0196994
0.147085
0.0438833
0.0299771
0.152739
-0.00045861
0.153118
0.000539856
0.153028
-0.000407606
0.153209
0.000314136
0.153143
-0.000113681
0.15286
-0.000339957
0.15297
0.000494838
0.152264
-0.00114989
0.15257
0.000974429
0.15182
-0.00141799
0.152158
0.00110231
0.152144
-0.000124965
0.152204
0.000243872
0.153182
0.00182167
0.152287
-0.00183397
0.152838
0.00245164
0.151073
-0.00269641
0.150086
0.000487514
0.149998
0.003112
0.148258
-0.000662255
0.151537
0.0108253
0.151744
0.00469288
0.151194
0.0054176
0.152263
0.0127054
0.146587
0.000683807
0.148302
0.0179844
0.157587
0.0345984
0.0259148
0.16333
-0.000336131
0.163574
0.000296358
0.163481
-0.000314537
0.163612
0.000182407
0.163572
-7.33863e-05
0.16338
-0.000148031
0.163466
0.000409383
0.162947
-0.000631631
0.163165
0.000756747
0.162622
-0.000875225
0.162861
0.00086403
0.162828
-9.26446e-05
0.162827
0.00024475
0.163366
0.0012833
0.162702
-0.00116991
0.163078
0.00207525
0.16173
-0.00134799
0.161147
0.00107004
0.161114
0.00314458
0.159864
0.000587977
0.162162
0.00852768
0.162138
0.00471639
0.161857
0.0056986
0.163081
0.0114815
0.159431
0.00433374
0.161289
0.0161265
0.168455
0.0274331
0.0223165
0.174703
-0.000239714
0.17482
0.000178862
0.174728
-0.000222602
0.174782
0.000128264
0.174745
-3.60561e-05
0.174622
-2.50996e-05
0.174693
0.000338655
0.174362
-0.000301115
0.174492
0.000626784
0.174114
-0.000497243
0.174267
0.000711676
0.1742
-2.61366e-05
0.174166
0.000278569
0.174455
0.000994807
0.173914
-0.00062949
0.174185
0.00180437
0.173209
-0.000372133
0.172857
0.00142264
0.172897
0.00310476
0.172043
0.00144183
0.173643
0.00692774
0.173618
0.00474132
0.173547
0.00576966
0.174723
0.010305
0.172678
0.00637915
0.174439
0.0143653
0.180002
0.0218702
0.0191029
0.186825
-0.000166882
0.186885
0.000118188
0.186778
-0.000114999
0.186811
9.50648e-05
0.186727
4.77099e-05
0.186675
2.7171e-05
0.186696
0.00031718
0.186506
-0.000111164
0.186608
0.00052539
0.186323
-0.00021297
0.186461
0.000573668
0.186335
0.000100418
0.186317
0.000296266
0.186446
0.000866003
0.185993
-0.000176702
0.186208
0.00158939
0.185499
0.000337223
0.185307
0.00161403
0.185436
0.00297618
0.184876
0.00200169
0.18604
0.0057638
0.18608
0.00470108
0.186166
0.00568393
0.187302
0.00916931
0.186428
0.00725267
0.188093
0.0127001
0.192378
0.0175859
0.0162541
0.199746
-0.000106125
0.199777
8.68573e-05
0.199681
-1.85649e-05
0.199699
7.65121e-05
0.199609
0.000137361
0.199583
5.31046e-05
0.19958
0.000320949
0.199464
4.49163e-06
0.199544
0.000445835
0.199334
-3.31537e-06
0.199452
0.00045529
0.199319
0.000233328
0.199305
0.000310401
0.199368
0.000803652
0.199008
0.00018307
0.199182
0.0014149
0.198696
0.000823212
0.198611
0.0016998
0.198791
0.0027958
0.198466
0.00232626
0.199351
0.00487906
0.199506
0.0045459
0.199765
0.00542567
0.200858
0.00807604
0.200759
0.00735151
0.202356
0.0111032
0.205669
0.0142728
0.0137406
0.213533
-4.69242e-05
0.213549
7.11125e-05
0.213479
5.14789e-05
0.21348
7.49878e-05
0.213427
0.000190391
0.213396
8.43496e-05
0.213402
0.000315092
0.213312
9.45078e-05
0.213376
0.000381905
0.213227
0.000145384
0.213309
0.000372945
0.213211
0.000331998
0.213183
0.000337591
0.21324
0.000747144
0.212982
0.000440885
0.213138
0.00125914
0.212851
0.00110987
0.212842
0.001709
0.213054
0.00258411
0.21292
0.00246006
0.213628
0.0041714
0.21392
0.00425351
0.214314
0.00503163
0.215371
0.00701916
0.215761
0.00696101
0.217307
0.00955787
0.219934
0.0116459
0.0115389
0.228263
4.07178e-06
0.228266
6.81701e-05
0.228228
8.93672e-05
0.228215
8.79927e-05
0.228202
0.000203751
0.228165
0.000120829
0.228187
0.000293129
0.228121
0.000161091
0.228167
0.000335163
0.228079
0.000233476
0.228119
0.000333081
0.228072
0.00037928
0.228039
0.000370044
0.228101
0.000685013
0.227951
0.000591052
0.228092
0.00111816
0.227977
0.00122507
0.228038
0.00164793
0.228283
0.0023388
0.228315
0.00242866
0.22892
0.00356611
0.22932
0.00385335
0.229824
0.00452832
0.230861
0.00598205
0.231554
0.00626802
0.233029
0.00808247
0.235183
0.00949212
0.00959332
0.244008
3.91486e-05
0.244004
7.18209e-05
0.24399
0.000103848
0.243974
0.000103534
0.243985
0.000192459
0.243958
0.000148161
0.24399
0.000261621
0.243954
0.000197088
0.243988
0.000300426
0.243955
0.000266946
0.243971
0.000317054
0.243972
0.000378203
0.24395
0.000392151
0.24402
0.000614563
0.243968
0.000643399
0.244097
0.000988766
0.244123
0.00119926
0.244249
0.00152245
0.244534
0.00205304
0.244713
0.00224979
0.245263
0.00301686
0.245754
0.00336203
0.246352
0.00393052
0.247358
0.00497599
0.248227
0.00539823
0.249632
0.0066781
0.251481
0.00764258
0.00783334
0.26084
5.80634e-05
0.260839
7.27204e-05
0.260839
0.00010435
0.260834
0.000108477
0.260856
0.000170769
0.260848
0.000155891
0.260884
0.000225477
0.260878
0.000202823
0.260914
0.000264528
0.26092
0.000261469
0.260941
0.000295784
0.260974
0.000345431
0.260982
0.000384229
0.261064
0.000531933
0.26109
0.000617318
0.261228
0.000851408
0.261356
0.00107111
0.261544
0.00133468
0.261873
0.00172385
0.262171
0.00195195
0.262709
0.00247838
0.263278
0.00279289
0.263948
0.00326047
0.264925
0.00399961
0.265902
0.00442108
0.267253
0.00532693
0.268905
0.00599107
0.00619817
0.278839
6.18032e-05
0.278845
6.68017e-05
0.278855
9.3633e-05
0.278864
0.000100001
0.278894
0.000141053
0.278908
0.000141861
0.27895
0.000182913
0.278972
0.000181389
0.279018
0.000218581
0.279052
0.000227192
0.279094
0.000253929
0.279149
0.000290226
0.279197
0.000335945
0.279295
0.000434075
0.279386
0.000526658
0.279549
0.000688536
0.279746
0.000873336
0.28
0.00108098
0.280369
0.00135516
0.280762
0.0015589
0.281321
0.00191965
0.281946
0.00216713
0.28268
0.00252724
0.283646
0.00303293
0.284685
0.00338182
0.286002
0.0040105
0.287534
0.00445868
0.00463914
0.298087
5.13041e-05
0.298102
5.21107e-05
0.298124
7.1144e-05
0.298147
7.76706e-05
0.298186
0.00010211
0.298218
0.000109507
0.29827
0.000130951
0.298313
0.000138166
0.298373
0.000158434
0.298431
0.000169789
0.298496
0.00018833
0.298574
0.000212589
0.298659
0.000250847
0.298781
0.000312534
0.298921
0.000386094
0.299118
0.000492014
0.299368
0.000622482
0.299682
0.000767331
0.300091
0.000945823
0.300558
0.00109286
0.301152
0.0013254
0.301826
0.0014927
0.302617
0.00173681
0.303591
0.0020582
0.304672
0.00230104
0.305981
0.00270205
0.307456
0.00298326
0.00311365
0.318689
2.95156e-05
0.318712
2.94413e-05
0.318744
3.90485e-05
0.318778
4.35416e-05
0.318826
5.44315e-05
0.318874
6.07947e-05
0.318936
6.93009e-05
0.318998
7.61535e-05
0.319072
8.45062e-05
0.319149
9.26955e-05
0.319235
0.000101901
0.319333
0.000114595
0.319448
0.000136092
0.319594
0.00016641
0.319773
0.000207277
0.320005
0.000259992
0.320299
0.000328843
0.320662
0.000403639
0.321115
0.000493108
0.321638
0.000570385
0.322277
0.00068621
0.322999
0.000770822
0.32384
0.000895621
0.324844
0.00105396
0.325967
0.00117786
0.327293
0.0013763
0.328762
0.00151449
0.00158322
0.34075
0.34078
0.340819
0.340863
0.340917
0.340978
0.341047
0.341123
0.341208
0.3413
0.341402
0.341517
0.341653
0.341819
0.342027
0.342287
0.342616
0.343019
0.343512
0.344083
0.344769
0.34554
0.346435
0.347489
0.348667
0.350043
0.351558
)
;

boundaryField
{
    outlet
    {
        type            calculated;
        value           nonuniform List<scalar> 
40
(
0.0457774
0.0455776
0.0452949
0.0449921
0.0445973
0.0441908
0.0437162
0.0432431
0.0427333
0.042242
0.037702
0.0399089
0.0422698
0.0448728
0.0476967
0.050951
0.0547869
0.0592166
0.0648168
0.0714037
0.0788212
0.0896291
0.103451
0.117561
0.131219
0.142097
0.151803
0.161649
0.172053
0.183216
0.195227
0.208182
0.222135
0.237129
0.253241
0.27054
0.289093
0.308982
0.330292
0.353141
)
;
    }
    upperWall
    {
        type            symmetryPlane;
        value           uniform 0;
    }
    lowerWall
    {
        type            symmetryPlane;
        value           nonuniform 0();
    }
    inlet
    {
        type            calculated;
        value           nonuniform 0();
    }
    cylinder
    {
        type            calculated;
        value           nonuniform 0();
    }
    frontAndBack
    {
        type            empty;
        value           nonuniform 0();
    }
    procBoundary7to3
    {
        type            processor;
        value           nonuniform List<scalar> 
30
(
-0.0889499
-0.0894075
-0.0923338
-0.0653854
-0.0242433
0.0356354
0.0745469
0.0899106
0.107038
0.0998872
0.0851069
0.0220706
-0.0343701
-0.0761057
-0.120276
-0.109742
-0.0860241
-0.00247799
0.0871003
0.117527
0.154923
0.0653037
-0.075263
-0.113881
-0.171602
-0.0908528
0.169928
0.189691
-0.0230893
-0.0601802
)
;
    }
    procBoundary7to6
    {
        type            processor;
        value           nonuniform List<scalar> 
42
(
-0.0381731
-0.0415048
-0.0457324
-0.0490066
-0.0516108
-0.0522921
0.0568328
-0.062469
-0.0592053
-0.0529951
-0.0437898
0.0210026
-0.0470867
-0.0481592
-0.0484391
-0.0524617
-0.0577322
-0.0632487
-0.0683508
-0.0741465
-0.0805751
-0.0872922
-0.0942108
-0.101403
-0.108809
-0.11666
-0.124888
-0.133673
-0.142945
-0.152838
-0.163453
-0.174799
-0.186897
-0.199806
-0.213592
-0.228314
-0.244043
-0.260859
-0.278843
-0.298077
-0.318667
-0.340721
)
;
    }
}


// ************************************************************************* //
