/*--------------------------------*- C++ -*----------------------------------*\
| =========                 |                                                 |
| \\      /  F ield         | OpenFOAM: The Open Source CFD Toolbox           |
|  \\    /   O peration     | Version:                                        |
|   \\  /    A nd           | Website:  www.openfoam.com                      |
|    \\/     M anipulation  |                                                 |
\*---------------------------------------------------------------------------*/
FoamFile
{
    version     2.0;
    format      ascii;
    class       volVectorField;
    location    "30";
    object      U;
}
// * * * * * * * * * * * * * * * * * * * * * * * * * * * * * * * * * * * * * //

dimensions      [0 1 -1 0 0 0 0];


internalField   nonuniform List<vector> 
1164
(
(-0.408682 0.0524735 2.12598e-22)
(-0.164969 0.154911 2.26374e-21)
(0.114674 0.23243 -6.31406e-22)
(0.364212 0.308167 -4.99427e-21)
(0.593642 0.371957 5.78043e-21)
(0.786728 0.420524 3.60332e-20)
(-0.212936 0.05378 5.18599e-22)
(0.011231 0.165186 -2.35585e-21)
(0.263269 0.25176 5.58646e-22)
(0.49125 0.327107 2.13679e-21)
(0.686746 0.381711 3.147e-21)
(0.836373 0.415472 -1.01578e-20)
(0.93879 0.426959 5.02195e-21)
(0.999579 0.420076 -1.90776e-22)
(1.03573 0.406597 2.74184e-20)
(1.0642 0.403887 -3.54432e-20)
(-0.0626378 0.0448654 -7.79606e-22)
(0.168028 0.147366 2.12167e-21)
(0.39643 0.230374 -1.67184e-21)
(0.589494 0.297647 -5.44121e-22)
(0.74272 0.342097 3.55231e-21)
(0.847298 0.366395 1.21976e-20)
(0.913251 0.373274 6.24219e-21)
(0.953107 0.368615 4.64885e-21)
(0.983488 0.361932 -6.91947e-21)
(1.01152 0.366951 1.48419e-20)
(0.121501 0.0429004 -1.15931e-22)
(0.320569 0.128221 -1.49391e-21)
(0.518379 0.195549 9.2297e-22)
(0.671842 0.248974 -4.35839e-21)
(0.781732 0.282464 -1.00819e-20)
(0.848028 0.301152 -1.93601e-20)
(0.889454 0.30923 -1.90035e-22)
(0.917375 0.310585 1.82323e-21)
(0.942888 0.310596 6.1289e-21)
(0.966841 0.322258 -4.0071e-21)
(0.2587 0.031438 1.27824e-21)
(0.445065 0.0977046 2.36054e-22)
(0.616994 0.15118 6.19759e-21)
(0.734093 0.193848 1.76852e-21)
(0.809216 0.220893 4.77998e-21)
(0.848732 0.237868 1.39304e-20)
(0.874327 0.2484 -3.57198e-21)
(0.893883 0.254062 2.73042e-21)
(0.913873 0.259026 2.67423e-21)
(0.933416 0.275122 5.69577e-21)
(0.376688 0.0250435 -6.76346e-22)
(0.546998 0.0739602 4.1084e-21)
(0.697239 0.113328 3.45945e-22)
(0.786311 0.145494 -6.83066e-22)
(0.834209 0.165907 6.46778e-21)
(0.854823 0.180654 6.91363e-22)
(0.870915 0.192965 -6.46994e-21)
(0.884619 0.202783 -7.11054e-21)
(0.899187 0.211302 2.52133e-21)
(0.914154 0.228593 5.7467e-21)
(0.472536 0.0191566 2.10471e-22)
(0.631575 0.0541051 -4.65704e-21)
(0.762403 0.0830926 -1.09441e-20)
(0.827871 0.108441 7.10502e-21)
(0.856438 0.124301 -2.33331e-21)
(0.864486 0.137126 1.17046e-21)
(0.872558 0.148111 7.58991e-21)
(0.879564 0.15727 -8.52877e-22)
(0.890118 0.168356 -8.23704e-21)
(0.903398 0.185925 -5.41589e-21)
(0.542079 0.0133945 -7.44972e-22)
(0.691423 0.0383078 2.08352e-22)
(0.812711 0.0586803 9.99175e-22)
(0.864641 0.0773646 -3.07513e-21)
(0.878618 0.0890825 -3.94706e-21)
(0.877198 0.0993707 -4.97625e-21)
(0.880251 0.109072 4.71931e-21)
(0.882654 0.117078 -8.53916e-21)
(0.888222 0.127741 5.95435e-21)
(0.900048 0.143935 4.5546e-21)
(0.598906 0.00991136 4.74682e-22)
(0.738536 0.028564 2.35076e-21)
(0.848647 0.0432063 3.65518e-22)
(0.888789 0.0565712 -7.83779e-22)
(0.893552 0.0654328 -4.4212e-21)
(0.888491 0.0732979 -2.57033e-21)
(0.889872 0.0811258 -6.32843e-21)
(0.890125 0.0881065 5.56194e-21)
(0.892085 0.0949922 -4.38377e-22)
(0.901913 0.108675 -3.736e-21)
(0.638144 0.0077047 1.26324e-22)
(0.771125 0.0214032 -8.3794e-22)
(0.876526 0.0320841 2.70262e-21)
(0.911668 0.04204 -3.53866e-21)
(0.910007 0.0489297 6.92331e-21)
(0.899965 0.0549002 3.75513e-21)
(0.898968 0.0609426 -4.763e-21)
(0.898817 0.0674495 -1.55303e-22)
(0.900176 0.0720608 -7.14726e-21)
(0.90818 0.0826098 2.43974e-21)
(0.673502 0.00654599 -1.58366e-22)
(0.799027 0.017842 -1.19004e-22)
(0.897968 0.0258601 2.04678e-21)
(0.926362 0.0334196 -1.00509e-21)
(0.919835 0.038622 -5.4897e-21)
(0.909072 0.0436455 1.88441e-21)
(0.908995 0.0486802 3.52168e-21)
(0.909205 0.0550391 5.50372e-21)
(0.909955 0.0591653 3.63605e-21)
(0.916004 0.0672079 -1.07692e-20)
(0.702157 0.00518946 2.078e-22)
(0.819836 0.0146062 -1.31421e-21)
(0.914859 0.0203062 -4.80701e-22)
(0.941519 0.0256584 6.10942e-21)
(0.932654 0.0295037 3.91856e-23)
(0.920552 0.0339702 1.69658e-21)
(0.920166 0.0383737 -1.56035e-21)
(0.921119 0.0444006 9.5265e-22)
(0.922593 0.0489608 1.31698e-22)
(0.927378 0.0554376 6.0608e-21)
(0.729134 0.00469491 -2.38941e-22)
(0.839394 0.0139136 6.55326e-22)
(0.92657 0.0194653 -3.34404e-22)
(0.949121 0.0235305 -3.85088e-21)
(0.939686 0.0265757 -1.08272e-21)
(0.930318 0.0308675 -3.36811e-21)
(0.932677 0.0352713 -3.59319e-22)
(0.935684 0.0408716 -1.50902e-21)
(0.937938 0.0455988 -3.17157e-21)
(0.941329 0.0503413 -7.47697e-21)
(0.756436 0.00361732 2.26905e-22)
(0.860585 0.0109186 -8.64296e-22)
(0.940907 0.0164424 -1.3968e-21)
(0.960793 0.0208909 5.06839e-22)
(0.952466 0.024896 2.7692e-21)
(0.945034 0.0297064 -1.44005e-21)
(0.947605 0.0341414 -9.03035e-22)
(0.950462 0.0391272 1.2137e-21)
(0.952394 0.043903 9.01595e-22)
(0.954006 0.0474584 2.93363e-22)
(0.773377 0.00288778 -1.54953e-22)
(0.87537 0.00816763 7.65557e-22)
(0.953979 0.0128535 5.08946e-22)
(0.972939 0.0173253 -1.75301e-22)
(0.964552 0.0213565 -1.79502e-21)
(0.957003 0.0255027 1.01856e-21)
(0.959349 0.0289204 -1.86977e-22)
(0.962567 0.0325369 -2.18058e-21)
(0.964749 0.0367295 2.11541e-21)
(0.96519 0.0392556 -1.48283e-22)
(0.792948 0.00221036 -1.14168e-24)
(0.890564 0.0058929 1.28965e-23)
(0.967865 0.00892004 1.67917e-21)
(0.986123 0.0126881 -3.22995e-22)
(0.976271 0.0160162 -6.83508e-22)
(0.966243 0.0191189 -3.21357e-22)
(0.966406 0.0212932 1.83537e-21)
(0.968818 0.0231045 -1.62095e-21)
(0.971404 0.0259763 -1.87489e-21)
(0.97246 0.0270695 2.71657e-21)
(0.80063 0.00192263 -3.06064e-23)
(0.895335 0.00518638 4.51016e-24)
(0.973863 0.00680924 -1.39196e-21)
(0.994155 0.00838344 1.22424e-21)
(0.98328 0.00950179 6.23005e-22)
(0.970589 0.0109628 -1.08123e-21)
(0.968469 0.0126339 -1.55783e-22)
(0.970363 0.0137875 1.09281e-21)
(0.973777 0.0160906 -3.70454e-22)
(0.976332 0.016201 8.21907e-22)
(0.818735 0.00168651 5.79738e-23)
(0.906524 0.00481876 1.30708e-22)
(0.977589 0.0065991 2.64684e-22)
(0.993951 0.0077458 -3.08306e-22)
(0.983489 0.0083946 7.54938e-22)
(0.97412 0.00949058 1.55805e-21)
(0.973952 0.0112331 1.19928e-21)
(0.975676 0.0122968 5.7342e-22)
(0.977995 0.0144961 3.49284e-22)
(0.979984 0.0140062 8.14493e-22)
(0.823611 0.00135633 5.62613e-23)
(0.910775 0.0035974 -3.9845e-22)
(0.982652 0.00509338 8.20242e-23)
(0.999677 0.00651378 -3.73073e-22)
(0.989205 0.00767603 4.79406e-23)
(0.979434 0.00871804 3.35161e-23)
(0.978546 0.0101523 -1.44356e-21)
(0.979512 0.0108825 1.09618e-22)
(0.981053 0.0130429 8.05432e-22)
(0.982337 0.0126659 -2.79891e-22)
(0.838194 0.00140434 -3.72281e-23)
(0.9196 0.00355043 1.40282e-22)
(0.987493 0.00482629 3.5608e-22)
(1.00286 0.00587185 3.55817e-22)
(0.991667 0.00673718 6.13658e-23)
(0.982171 0.00729717 -1.14604e-21)
(0.982182 0.00835459 1.13062e-21)
(0.984084 0.00868401 -5.00684e-22)
(0.985666 0.0104825 -1.25419e-21)
(0.986397 0.010103 -6.21681e-22)
(0.842358 0.00114788 -1.72953e-23)
(0.922407 0.00274663 3.65031e-23)
(0.99043 0.00376565 -3.18956e-22)
(1.00625 0.0048744 -4.41519e-22)
(0.994746 0.0060347 3.92719e-22)
(0.984501 0.00660335 -2.20778e-22)
(0.983876 0.00736987 -6.58042e-22)
(0.985413 0.00722062 -8.02067e-22)
(0.98688 0.0084573 6.27004e-22)
(0.987779 0.00782963 2.20249e-22)
(0.853624 0.00116645 -5.54285e-24)
(0.928787 0.00253289 8.9605e-24)
(0.994848 0.0031041 1.33946e-22)
(1.01101 0.00349225 5.70754e-22)
(0.998575 0.00407454 -3.67657e-22)
(0.986262 0.00414191 2.78682e-22)
(0.984456 0.00466652 2.27439e-22)
(0.986265 0.00442745 6.70358e-22)
(0.988028 0.00542364 1.43003e-22)
(0.988936 0.00496267 -1.62345e-22)
(0.857385 0.00138267 -2.52175e-23)
(0.929686 0.00319557 4.98162e-23)
(0.993889 0.00391822 3.62958e-23)
(1.00975 0.00389172 -4.93363e-22)
(0.997637 0.00394143 2.97749e-22)
(0.986206 0.00369798 -1.18512e-22)
(0.984971 0.00423166 -2.83156e-22)
(0.9872 0.00412275 9.84793e-23)
(0.989257 0.00505311 2.64105e-23)
(0.990411 0.00464872 6.38064e-22)
(0.872123 0.00119834 9.41156e-25)
(0.938316 0.00270731 -6.27693e-24)
(0.997024 0.00341396 1.05087e-22)
(1.01041 0.00356157 2.6283e-23)
(0.997878 0.00382506 8.71892e-23)
(0.98701 0.00374042 2.87815e-22)
(0.986476 0.00421766 -1.9233e-22)
(0.989119 0.00411492 -1.13023e-24)
(0.991008 0.00495296 -3.7769e-22)
(0.991817 0.00463714 -5.78564e-22)
(0.873465 0.00122492 -1.1426e-24)
(0.93829 0.00272209 7.65998e-23)
(0.99701 0.00335008 -9.64056e-23)
(1.01114 0.00339181 1.05916e-22)
(0.998787 0.00356817 -1.66053e-22)
(0.987635 0.00343772 -2.68139e-22)
(0.986864 0.00384827 3.11239e-22)
(0.98984 0.0037819 3.25193e-23)
(0.992232 0.00456392 1.20587e-22)
(0.993223 0.00440665 3.38962e-22)
(0.88955 0.0011704 -4.41396e-26)
(0.947407 0.00269064 -3.08094e-23)
(0.999738 0.00333563 -1.77236e-23)
(1.01111 0.00334495 -5.71801e-24)
(0.998468 0.00346664 -3.78782e-23)
(0.988238 0.00338669 1.25877e-22)
(0.988422 0.0038135 -1.49376e-23)
(0.992097 0.00382743 7.45543e-23)
(0.994649 0.00449674 -2.74639e-24)
(0.995486 0.00434281 -6.54785e-24)
(0.890178 0.0010318 -7.17649e-24)
(0.947202 0.00237581 2.14774e-23)
(0.999371 0.0030557 1.00491e-24)
(1.01128 0.00328497 6.01748e-23)
(0.999187 0.00368651 -9.4203e-23)
(0.989131 0.00387136 -2.00693e-23)
(0.989148 0.00435132 -1.06903e-22)
(0.992683 0.00435724 -2.19601e-23)
(0.99524 0.00491446 -1.9308e-23)
(0.996097 0.00473579 -1.13168e-22)
(0.905649 0.00088516 1.2606e-23)
(0.956627 0.00197911 -2.10966e-24)
(1.00377 0.00256773 -4.19051e-23)
(1.01405 0.00291445 -1.40703e-24)
(1.00183 0.00349694 -2.96275e-23)
(0.991516 0.0038128 9.1273e-23)
(0.991112 0.00419523 1.25678e-23)
(0.994529 0.00417311 -2.02766e-23)
(0.997066 0.00459108 2.36282e-24)
(0.997837 0.00449331 1.67543e-23)
(0.903651 0.000834388 2.49146e-24)
(0.954707 0.0018199 4.22485e-24)
(1.00347 0.00223155 6.64528e-24)
(1.0159 0.00232597 -3.21911e-23)
(1.00421 0.00263948 2.36419e-23)
(0.992749 0.00277526 -2.35752e-23)
(0.991134 0.0031103 3.36676e-23)
(0.994351 0.00310103 -1.67438e-23)
(0.99725 0.00349574 8.55125e-24)
(0.998292 0.0035259 -1.53322e-23)
(0.919249 0.000896251 -1.0128e-24)
(0.963408 0.00212467 2.55508e-24)
(1.00581 0.00265722 -5.39891e-25)
(1.01608 0.00267212 -5.24304e-24)
(1.0046 0.00270902 7.77376e-24)
(0.993872 0.00267544 -7.69322e-24)
(0.992693 0.00291913 1.02866e-23)
(0.996314 0.00298775 -1.28062e-23)
(0.999656 0.00333042 -1.60796e-24)
(1.0011 0.00342162 7.10736e-24)
(1.07518 0.269911 0)
(1.09221 0.29437 0)
(1.09459 0.255583 0)
(1.09694 0.237292 0)
(1.09881 0.219975 0)
(1.10177 0.200386 0)
(1.10373 0.181581 0)
(1.10405 0.162916 0)
(1.10314 0.145289 0)
(1.10178 0.129031 0)
(1.10013 0.114035 0)
(1.0978 0.100267 0)
(1.09476 0.0876985 0)
(1.09102 0.0762437 0)
(1.08682 0.0658577 0)
(1.08232 0.0565119 0)
(1.07763 0.0481607 0)
(1.07288 0.0407471 0)
(1.06814 0.0341984 0)
(1.06351 0.0284399 0)
(1.05904 0.0234021 0)
(1.05484 0.0189964 0)
(1.05095 0.0151491 0)
(1.04747 0.0117773 0)
(1.04447 0.00878687 0)
(1.04205 0.00610413 0)
(1.0403 0.0036069 0)
(1.03934 0.00121053 0)
(1.03646 0.29846 0)
(1.01104 0.327167 0)
(1.04358 0.252154 0)
(1.05808 0.287152 0)
(1.0611 0.238976 0)
(1.06513 0.23055 0)
(1.06905 0.213351 0)
(1.07453 0.194431 0)
(1.07901 0.176807 0)
(1.0818 0.159859 0)
(1.08353 0.143989 0)
(1.08484 0.129043 0)
(1.08549 0.114966 0)
(1.08521 0.101926 0)
(1.08391 0.0897965 0)
(1.08181 0.0785978 0)
(1.07905 0.068321 0)
(1.0758 0.0590057 0)
(1.07222 0.0505853 0)
(1.06841 0.043036 0)
(1.0645 0.0362988 0)
(1.06054 0.030336 0)
(1.05665 0.0250665 0)
(1.05291 0.0204341 0)
(1.0494 0.0163575 0)
(1.04622 0.0127528 0)
(1.04344 0.00955009 0)
(1.04118 0.0066399 0)
(1.03952 0.00394212 0)
(1.03863 0.0012929 0)
(0.990729 0.268823 0)
(0.974773 0.295301 0)
(1.01997 0.231186 0)
(1.02616 0.271128 0)
(1.02979 0.216019 0)
(1.03465 0.219623 0)
(1.04153 0.200019 0)
(1.04982 0.183126 0)
(1.05635 0.168352 0)
(1.06139 0.153968 0)
(1.0655 0.140088 0)
(1.06895 0.126624 0)
(1.07146 0.113909 0)
(1.0728 0.101806 0)
(1.07311 0.0903713 0)
(1.07247 0.079633 0)
(1.07101 0.069724 0)
(1.06895 0.0606072 0)
(1.0664 0.052288 0)
(1.06352 0.0447506 0)
(1.06037 0.0379732 0)
(1.0571 0.0318994 0)
(1.05377 0.0264929 0)
(1.05049 0.0216926 0)
(1.04737 0.0174305 0)
(1.04449 0.0136468 0)
(1.04195 0.0102431 0)
(1.03986 0.00715179 0)
(1.03832 0.00424151 0)
(1.03748 0.00145129 0)
(0.956402 0.236006 0)
(0.950493 0.259639 0)
(0.999295 0.207665 0)
(0.994801 0.247747 0)
(1.00037 0.19031 0)
(1.00684 0.204865 0)
(1.01757 0.181128 0)
(1.02786 0.169151 0)
(1.03611 0.157916 0)
(1.04307 0.145948 0)
(1.04901 0.133979 0)
(1.05405 0.122403 0)
(1.05797 0.111121 0)
(1.06082 0.100189 0)
(1.06257 0.0896098 0)
(1.06324 0.0796426 0)
(1.06304 0.0702531 0)
(1.06211 0.0615159 0)
(1.0606 0.0534258 0)
(1.0586 0.0460224 0)
(1.05628 0.0392699 0)
(1.05369 0.0331721 0)
(1.05097 0.027689 0)
(1.04821 0.0227753 0)
(1.0455 0.0183846 0)
(1.04297 0.0144383 0)
(1.0407 0.0108793 0)
(1.03881 0.00760434 0)
(1.03742 0.00452912 0)
(1.03663 0.00147296 0)
(0.935561 0.202004 0)
(0.937078 0.222556 0)
(0.981873 0.181623 0)
(0.967199 0.217865 0)
(0.976988 0.162391 0)
(0.985306 0.185691 0)
(0.999089 0.158611 0)
(1.00996 0.154053 0)
(1.01945 0.145303 0)
(1.02765 0.135333 0)
(1.03469 0.125648 0)
(1.04068 0.115994 0)
(1.04569 0.106409 0)
(1.04974 0.0967657 0)
(1.05254 0.087414 0)
(1.05434 0.0783507 0)
(1.05517 0.0696931 0)
(1.05525 0.0614886 0)
(1.05463 0.0538114 0)
(1.05348 0.0466749 0)
(1.05189 0.0400959 0)
(1.04996 0.0340794 0)
(1.0478 0.0286039 0)
(1.04551 0.0236529 0)
(1.04322 0.0191738 0)
(1.04101 0.0151289 0)
(1.03901 0.0114354 0)
(1.03734 0.00802656 0)
(1.03607 0.00478157 0)
(1.03541 0.00163897 0)
(0.923264 0.169362 0)
(0.928841 0.186715 0)
(0.96636 0.154504 0)
(0.944789 0.184954 0)
(0.960428 0.135299 0)
(0.969903 0.164073 0)
(0.985286 0.135813 0)
(0.995963 0.139241 0)
(1.00631 0.131173 0)
(1.01502 0.123489 0)
(1.02245 0.116033 0)
(1.02894 0.108455 0)
(1.0348 0.10047 0)
(1.03953 0.0923741 0)
(1.04325 0.0842624 0)
(1.0459 0.0762349 0)
(1.04767 0.0683866 0)
(1.04859 0.0608359 0)
(1.0488 0.0536376 0)
(1.04843 0.0468446 0)
(1.04754 0.0405048 0)
(1.04627 0.0346347 0)
(1.04468 0.0292375 0)
(1.04291 0.0242963 0)
(1.04105 0.0197913 0)
(1.03922 0.01567 0)
(1.03752 0.011883 0)
(1.03606 0.00835531 0)
(1.03499 0.00498931 0)
(1.03434 0.00164887 0)
(0.91678 0.136755 0)
(0.924817 0.150959 0)
(0.95414 0.125774 0)
(0.930072 0.151768 0)
(0.951929 0.110758 0)
(0.961324 0.141875 0)
(0.976858 0.114676 0)
(0.987008 0.124251 0)
(0.997616 0.115982 0)
(1.00599 0.110864 0)
(1.01304 0.105696 0)
(1.01972 0.09987 0)
(1.02569 0.093505 0)
(1.03082 0.0868811 0)
(1.03498 0.0800374 0)
(1.03827 0.0730841 0)
(1.04067 0.0661548 0)
(1.04227 0.0593656 0)
(1.04318 0.0527611 0)
(1.04345 0.0464442 0)
(1.04318 0.0404502 0)
(1.04245 0.0348187 0)
(1.04137 0.0295706 0)
(1.04002 0.0247159 0)
(1.03854 0.0202308 0)
(1.03701 0.0160934 0)
(1.03555 0.0122527 0)
(1.0343 0.00864044 0)
(1.03331 0.00517252 0)
(1.03282 0.00172678 0)
(0.915332 0.109155 0)
(0.924394 0.119968 0)
(0.945764 0.100779 0)
(0.923055 0.123913 0)
(0.950009 0.0917839 0)
(0.957901 0.123406 0)
(0.972577 0.0977877 0)
(0.981724 0.111424 0)
(0.991981 0.102174 0)
(0.99931 0.099677 0)
(1.00583 0.096156 0)
(1.0122 0.0916073 0)
(1.01802 0.0865594 0)
(1.0232 0.0811474 0)
(1.0276 0.0754072 0)
(1.03125 0.0694502 0)
(1.0341 0.0634255 0)
(1.03626 0.0573682 0)
(1.03773 0.0513908 0)
(1.03858 0.045578 0)
(1.03888 0.0399773 0)
(1.0387 0.0346477 0)
(1.03812 0.029615 0)
(1.03725 0.0248906 0)
(1.03617 0.0204795 0)
(1.03499 0.0163628 0)
(1.03383 0.0124967 0)
(1.03277 0.00884507 0)
(1.03199 0.00529423 0)
(1.03148 0.00181599 0)
(0.919382 0.0866114 0)
(0.928447 0.0951764 0)
(0.943244 0.0810111 0)
(0.924779 0.102197 0)
(0.954149 0.0772223 0)
(0.958979 0.107707 0)
(0.972156 0.083792 0)
(0.979572 0.0999028 0)
(0.988682 0.0894943 0)
(0.994683 0.0896843 0)
(1.00062 0.0869832 0)
(1.00646 0.0832899 0)
(1.01203 0.0793274 0)
(1.017 0.0749432 0)
(1.02145 0.0702006 0)
(1.02522 0.0652171 0)
(1.02833 0.0600589 0)
(1.03086 0.0547717 0)
(1.03271 0.0494822 0)
(1.03401 0.0442332 0)
(1.03474 0.0390926 0)
(1.03498 0.0341201 0)
(1.03481 0.0293512 0)
(1.03429 0.0248237 0)
(1.03353 0.0205402 0)
(1.03262 0.0164906 0)
(1.03167 0.012657 0)
(1.0308 0.00897433 0)
(1.0301 0.00540386 0)
(1.02972 0.00174208 0)
(0.925198 0.0730037 0)
(0.933865 0.0794384 0)
(0.943615 0.0691545 0)
(0.931125 0.0879255 0)
(0.96044 0.0676422 0)
(0.961479 0.095435 0)
(0.973302 0.0728315 0)
(0.978413 0.0901856 0)
(0.986203 0.0786072 0)
(0.990893 0.0813448 0)
(0.996322 0.0785319 0)
(1.00182 0.0755846 0)
(1.00696 0.0723907 0)
(1.01171 0.0688704 0)
(1.01607 0.0649614 0)
(1.01979 0.060832 0)
(1.02312 0.0564064 0)
(1.02581 0.0518373 0)
(1.02801 0.0471916 0)
(1.02966 0.0425016 0)
(1.03079 0.037855 0)
(1.03144 0.0332776 0)
(1.03167 0.0288293 0)
(1.03154 0.0245325 0)
(1.03115 0.0204109 0)
(1.03056 0.016473 0)
(1.0299 0.0126894 0)
(1.02924 0.00904731 0)
(1.02871 0.00543887 0)
(1.0284 0.00190852 0)
(0.933823 0.0627097 0)
(0.940877 0.06793 0)
(0.946502 0.0608066 0)
(0.939317 0.0772719 0)
(0.9664 0.0600584 0)
(0.963964 0.0845728 0)
(0.975034 0.0631434 0)
(0.977893 0.080691 0)
(0.984543 0.068477 0)
(0.988128 0.0731187 0)
(0.993253 0.0700219 0)
(0.99837 0.0677505 0)
(1.00299 0.0654522 0)
(1.00761 0.0626282 0)
(1.01161 0.0595644 0)
(1.01539 0.0561464 0)
(1.01866 0.0524345 0)
(1.02148 0.048587 0)
(1.02381 0.0445524 0)
(1.02566 0.0404469 0)
(1.02702 0.0362792 0)
(1.02794 0.0321238 0)
(1.02844 0.0280136 0)
(1.02858 0.0239922 0)
(1.02844 0.0200809 0)
(1.02809 0.0162856 0)
(1.02762 0.0126069 0)
(1.02712 0.00900136 0)
(1.02672 0.00544864 0)
(1.02643 0.00176235 0)
(0.945071 0.0580906 0)
(0.949484 0.0618937 0)
(0.951431 0.056926 0)
(0.947604 0.07065 0)
(0.97064 0.0554181 0)
(0.965359 0.0765243 0)
(0.9763 0.0556713 0)
(0.977175 0.0727995 0)
(0.983232 0.0596634 0)
(0.98591 0.0658658 0)
(0.991029 0.0618955 0)
(0.995379 0.0605857 0)
(0.99985 0.0588534 0)
(1.00403 0.056648 0)
(1.00792 0.0542571 0)
(1.01158 0.0513956 0)
(1.0148 0.0483868 0)
(1.01767 0.0451168 0)
(1.0201 0.0417001 0)
(1.02212 0.0381315 0)
(1.0237 0.0344688 0)
(1.02487 0.0307404 0)
(1.02563 0.0269974 0)
(1.02605 0.0232688 0)
(1.02616 0.0195879 0)
(1.02606 0.0159714 0)
(1.0258 0.0124144 0)
(1.0255 0.00890751 0)
(1.02518 0.00539095 0)
(1.02508 0.00183817 0)
(0.95489 0.0554762 0)
(0.956191 0.0573809 0)
(0.954889 0.0541324 0)
(0.952686 0.0646118 0)
(0.971661 0.05116 0)
(0.96453 0.0689051 0)
(0.975972 0.0491628 0)
(0.975602 0.0651939 0)
(0.981697 0.0516403 0)
(0.984185 0.0588635 0)
(0.98913 0.0540129 0)
(0.993037 0.0538147 0)
(0.99731 0.0523954 0)
(1.00112 0.0508741 0)
(1.00491 0.0489229 0)
(1.00835 0.0466928 0)
(1.01149 0.0442604 0)
(1.01427 0.0415868 0)
(1.01669 0.038708 0)
(1.01871 0.0356485 0)
(1.02037 0.0324446 0)
(1.02164 0.0291457 0)
(1.02256 0.0257723 0)
(1.02313 0.0223621 0)
(1.02343 0.0189399 0)
(1.02348 0.0155234 0)
(1.02338 0.0121234 0)
(1.02318 0.00872864 0)
(1.02301 0.00529956 0)
(1.02281 0.0018194 0)
(0.963583 0.0470234 0)
(0.96184 0.0476444 0)
(0.957685 0.0460824 0)
(0.95499 0.0542598 0)
(0.971154 0.0432912 0)
(0.963098 0.0585167 0)
(0.974717 0.0415067 0)
(0.973987 0.0561144 0)
(0.980211 0.0438002 0)
(0.983009 0.0512738 0)
(0.987574 0.0464283 0)
(0.991466 0.0471382 0)
(0.995354 0.0461256 0)
(0.999033 0.0451166 0)
(1.00265 0.0436166 0)
(1.00591 0.0419746 0)
(1.00895 0.0400859 0)
(1.01166 0.0379561 0)
(1.01403 0.0356138 0)
(1.0161 0.0330448 0)
(1.01779 0.0303043 0)
(1.01917 0.0274042 0)
(1.02019 0.0243912 0)
(1.02092 0.0212976 0)
(1.02136 0.0181449 0)
(1.02157 0.0149592 0)
(1.02161 0.0117402 0)
(1.02155 0.00847819 0)
(1.02142 0.00517273 0)
(1.02138 0.00166331 0)
(0.97066 0.0334254 0)
(0.967413 0.033609 0)
(0.96195 0.032957 0)
(0.958064 0.0401445 0)
(0.972633 0.0319775 0)
(0.964228 0.0456978 0)
(0.974884 0.0324263 0)
(0.974222 0.0458326 0)
(0.979949 0.0359754 0)
(0.982769 0.0433288 0)
(0.986914 0.0393215 0)
(0.990612 0.040704 0)
(0.994038 0.040243 0)
(0.997582 0.0395694 0)
(1.00081 0.0385941 0)
(1.00385 0.0374814 0)
(1.00663 0.0360589 0)
(1.00913 0.0344408 0)
(1.01139 0.0325301 0)
(1.01333 0.0304138 0)
(1.015 0.0280865 0)
(1.01637 0.0255887 0)
(1.01744 0.0229442 0)
(1.01824 0.0201649 0)
(1.01877 0.0172908 0)
(1.0191 0.0143273 0)
(1.01925 0.0112959 0)
(1.01928 0.00820824 0)
(1.01925 0.00499836 0)
(1.01922 0.00178903 0)
(0.975692 0.0206905 0)
(0.972431 0.0211189 0)
(0.9675 0.0205364 0)
(0.963619 0.0273805 0)
(0.977393 0.0212901 0)
(0.968959 0.033791 0)
(0.978211 0.0235822 0)
(0.977193 0.036241 0)
(0.981909 0.0283102 0)
(0.983998 0.0358927 0)
(0.987753 0.0325064 0)
(0.990739 0.0346622 0)
(0.993887 0.034556 0)
(0.997015 0.0342362 0)
(0.999904 0.0338307 0)
(1.00265 0.0331073 0)
(1.00518 0.0321809 0)
(1.00751 0.0309534 0)
(1.0096 0.0294855 0)
(1.01146 0.0277638 0)
(1.01306 0.0258161 0)
(1.01439 0.0236733 0)
(1.01548 0.0213437 0)
(1.01631 0.0188753 0)
(1.01693 0.0162671 0)
(1.01732 0.0135543 0)
(1.01757 0.0107397 0)
(1.01768 0.00781372 0)
(1.01774 0.00479702 0)
(1.0177 0.0015622 0)
(0.979532 0.0174109 0)
(0.976829 0.0176232 0)
(0.97314 0.0166542 0)
(0.970505 0.0224783 0)
(0.98305 0.0170498 0)
(0.974886 0.0276454 0)
(0.983371 0.0186324 0)
(0.9814 0.0303198 0)
(0.985217 0.0228345 0)
(0.986342 0.0305794 0)
(0.989477 0.0270319 0)
(0.991651 0.0298693 0)
(0.994376 0.0296026 0)
(0.996945 0.0296638 0)
(0.999403 0.0295552 0)
(1.00175 0.0291961 0)
(1.00393 0.0285673 0)
(1.00597 0.0276916 0)
(1.00782 0.0265552 0)
(1.0095 0.0251923 0)
(1.01094 0.0236088 0)
(1.01221 0.0218001 0)
(1.01322 0.0198005 0)
(1.01404 0.0176127 0)
(1.01463 0.0152726 0)
(1.01505 0.0127904 0)
(1.01532 0.0101707 0)
(1.01547 0.00743767 0)
(1.01551 0.00456095 0)
(1.0156 0.00155076 0)
(0.981277 0.0157415 0)
(0.978497 0.0158461 0)
(0.975272 0.0150212 0)
(0.974028 0.0197886 0)
(0.985244 0.0149401 0)
(0.977656 0.0236619 0)
(0.986455 0.0154106 0)
(0.983928 0.0258509 0)
(0.987519 0.0186038 0)
(0.98825 0.0261033 0)
(0.990861 0.0223688 0)
(0.992629 0.025623 0)
(0.994991 0.0251265 0)
(0.997137 0.02552 0)
(0.999258 0.025665 0)
(1.00125 0.0255488 0)
(1.00317 0.0252053 0)
(1.00496 0.0245944 0)
(1.0066 0.0237549 0)
(1.00809 0.0226782 0)
(1.00943 0.0213724 0)
(1.01057 0.0198642 0)
(1.01156 0.0181495 0)
(1.01235 0.0162456 0)
(1.01297 0.0141654 0)
(1.01343 0.0119159 0)
(1.01374 0.00952639 0)
(1.01393 0.00699545 0)
(1.01405 0.00430268 0)
(1.01404 0.00152618 0)
(0.984861 0.0127548 0)
(0.982122 0.0128834 0)
(0.979246 0.0123784 0)
(0.978568 0.0164042 0)
(0.988159 0.0125187 0)
(0.981001 0.0198839 0)
(0.989464 0.012753 0)
(0.986797 0.0218988 0)
(0.990132 0.0153366 0)
(0.990683 0.0222079 0)
(0.99278 0.0186119 0)
(0.994242 0.0219525 0)
(0.996144 0.0212882 0)
(0.997899 0.021929 0)
(0.999593 0.022216 0)
(1.00125 0.0222802 0)
(1.00284 0.0220935 0)
(1.00432 0.0217111 0)
(1.0057 0.021109 0)
(1.00696 0.0202864 0)
(1.00807 0.0192552 0)
(1.00904 0.0180017 0)
(1.00987 0.0165377 0)
(1.01053 0.0148829 0)
(1.01106 0.0130373 0)
(1.01144 0.011032 0)
(1.0117 0.00885613 0)
(1.01187 0.00651356 0)
(1.01196 0.00403278 0)
(1.012 0.00128798 0)
(0.986378 0.00979003 0)
(0.98371 0.00979406 0)
(0.98133 0.00931373 0)
(0.981596 0.0127202 0)
(0.990257 0.00960703 0)
(0.98311 0.0159957 0)
(0.991373 0.0100726 0)
(0.988632 0.0181766 0)
(0.991786 0.0124368 0)
(0.992259 0.0187728 0)
(0.994067 0.0154139 0)
(0.99529 0.0187979 0)
(0.996916 0.0180174 0)
(0.998336 0.0188782 0)
(0.999753 0.0192503 0)
(1.00114 0.0193978 0)
(1.00247 0.0193725 0)
(1.00373 0.0191554 0)
(1.00488 0.018737 0)
(1.00595 0.0181252 0)
(1.00692 0.017307 0)
(1.0078 0.0162903 0)
(1.00854 0.0150708 0)
(1.00919 0.0136411 0)
(1.00968 0.012025 0)
(1.01008 0.0102179 0)
(1.01036 0.00822882 0)
(1.01055 0.00608506 0)
(1.01064 0.00375499 0)
(1.01073 0.0013333 0)
(0.987867 0.00643345 0)
(0.985874 0.00661712 0)
(0.98462 0.00626731 0)
(0.985749 0.00931452 0)
(0.993712 0.00688587 0)
(0.98712 0.0123953 0)
(0.994635 0.00766278 0)
(0.991884 0.0147981 0)
(0.99458 0.00993282 0)
(0.994819 0.0157131 0)
(0.996234 0.0126884 0)
(0.997133 0.0159948 0)
(0.998383 0.015159 0)
(0.999443 0.0161776 0)
(1.0005 0.0165482 0)
(1.00157 0.0167395 0)
(1.00258 0.0168059 0)
(1.00352 0.0167169 0)
(1.0044 0.0164471 0)
(1.00521 0.0159762 0)
(1.00593 0.0153131 0)
(1.00656 0.0144587 0)
(1.00712 0.0134156 0)
(1.00757 0.0122011 0)
(1.00793 0.0107997 0)
(1.0082 0.00921473 0)
(1.0084 0.00745873 0)
(1.00851 0.00553625 0)
(1.00859 0.00343969 0)
(1.00857 0.0011873 0)
(0.989453 0.00588935 0)
(0.987692 0.00612883 0)
(0.987185 0.00579232 0)
(0.989168 0.00842356 0)
(0.996255 0.00621006 0)
(0.989898 0.0108871 0)
(0.997347 0.00666532 0)
(0.994169 0.0129845 0)
(0.996689 0.00843112 0)
(0.99664 0.0138018 0)
(0.997801 0.0107919 0)
(0.998414 0.0140699 0)
(0.999439 0.0130461 0)
(1.00018 0.0142187 0)
(1.00105 0.0144996 0)
(1.00186 0.0147234 0)
(1.00265 0.0148592 0)
(1.0034 0.0148474 0)
(1.0041 0.014686 0)
(1.00476 0.0143655 0)
(1.00536 0.0138704 0)
(1.00589 0.0131896 0)
(1.00633 0.0123282 0)
(1.0067 0.01127 0)
(1.00701 0.010021 0)
(1.00725 0.00858648 0)
(1.00742 0.00697427 0)
(1.00753 0.0051838 0)
(1.00761 0.00322416 0)
(1.00766 0.00104563 0)
(0.990891 0.00571655 0)
(0.989571 0.00593195 0)
(0.989686 0.00565292 0)
(0.992115 0.00786063 0)
(0.998193 0.00587779 0)
(0.992602 0.00974422 0)
(0.99965 0.0060369 0)
(0.996482 0.0114078 0)
(0.998768 0.00731351 0)
(0.998607 0.0120427 0)
(0.999442 0.00921547 0)
(0.999893 0.0122381 0)
(1.00057 0.0111264 0)
(1.00109 0.0123102 0)
(1.00164 0.0124471 0)
(1.00219 0.0126653 0)
(1.00268 0.0127961 0)
(1.00313 0.0128177 0)
(1.00355 0.0126992 0)
(1.00394 0.0124355 0)
(1.00428 0.0120316 0)
(1.00458 0.0114783 0)
(1.00485 0.0107541 0)
(1.00508 0.00985927 0)
(1.00525 0.00878711 0)
(1.00538 0.00755143 0)
(1.00543 0.00615942 0)
(1.00549 0.0045861 0)
(1.00547 0.00284699 0)
(1.00549 0.00102526 0)
(0.992258 0.00542513 0)
(0.991037 0.0057068 0)
(0.991509 0.00555209 0)
(0.99429 0.00749121 0)
(0.999304 0.00574742 0)
(0.993999 0.00911262 0)
(1.00111 0.00580707 0)
(0.99774 0.0105479 0)
(1.00008 0.00674362 0)
(0.9998 0.011069 0)
(1.00054 0.00833227 0)
(1.00086 0.0112171 0)
(1.00145 0.0100122 0)
(1.00179 0.0112498 0)
(1.00227 0.0112755 0)
(1.00266 0.0115045 0)
(1.00303 0.0116817 0)
(1.00337 0.0117353 0)
(1.00368 0.01168 0)
(1.00395 0.0114965 0)
(1.00418 0.0111692 0)
(1.00439 0.0106781 0)
(1.00455 0.0100352 0)
(1.00466 0.00923488 0)
(1.00476 0.00826771 0)
(1.00478 0.00716049 0)
(1.00482 0.00585417 0)
(1.00483 0.00438076 0)
(1.00483 0.00275053 0)
(1.0048 0.000941516 0)
(0.99451 0.00517768 0)
(0.993495 0.00541592 0)
(0.99419 0.00529217 0)
(0.996854 0.00688311 0)
(1.00086 0.00539172 0)
(0.996209 0.00817469 0)
(1.00267 0.00536259 0)
(0.999529 0.00931805 0)
(1.00166 0.00597687 0)
(1.00136 0.00967867 0)
(1.0019 0.00719193 0)
(1.00213 0.00974967 0)
(1.00246 0.00853415 0)
(1.00265 0.00971547 0)
(1.00287 0.00961008 0)
(1.00304 0.00986138 0)
(1.00316 0.0100004 0)
(1.00323 0.0100627 0)
(1.00329 0.0100269 0)
(1.00332 0.00989004 0)
(1.00334 0.00963739 0)
(1.00333 0.00925932 0)
(1.00327 0.00875158 0)
(1.00321 0.00806837 0)
(1.00311 0.00725894 0)
(1.003 0.00627633 0)
(1.00293 0.00511262 0)
(1.00281 0.00382401 0)
(1.00277 0.00238829 0)
(1.00273 0.00078131 0)
(0.995167 0.00544285 0)
(0.994278 0.00561365 0)
(0.995161 0.00546296 0)
(0.997958 0.00676971 0)
(1.00121 0.0053796 0)
(0.996693 0.00782468 0)
(1.00316 0.00527839 0)
(0.999961 0.00883097 0)
(1.00213 0.0057107 0)
(1.00181 0.0091423 0)
(1.00233 0.00675552 0)
(1.00251 0.00919926 0)
(1.00282 0.00795524 0)
(1.00291 0.00915405 0)
(1.0031 0.00896306 0)
(1.00317 0.0092366 0)
(1.00323 0.00939908 0)
(1.00324 0.00945927 0)
(1.00323 0.00942366 0)
(1.00319 0.00929572 0)
(1.00314 0.00905388 0)
(1.00305 0.00871451 0)
(1.00298 0.0082327 0)
(1.00288 0.0076261 0)
(1.00275 0.00688264 0)
(1.00265 0.00595301 0)
(1.00249 0.00489656 0)
(1.00236 0.00368077 0)
(1.00222 0.0022963 0)
(1.00216 0.000813031 0)
(0.996938 0.00506109 0)
(0.996124 0.0052242 0)
(0.996982 0.00509925 0)
(0.999564 0.00610306 0)
(1.00231 0.00494516 0)
(0.998644 0.00689718 0)
(1.00436 0.00482964 0)
(1.00167 0.00766197 0)
(1.00359 0.00509822 0)
(1.00338 0.00792595 0)
(1.00374 0.00588551 0)
(1.0039 0.00798126 0)
(1.00401 0.00683983 0)
(1.00404 0.00794893 0)
(1.004 0.0076862 0)
(1.00392 0.00798597 0)
(1.00377 0.00810437 0)
(1.00359 0.00817715 0)
(1.00337 0.00817917 0)
(1.00312 0.00808814 0)
(1.00283 0.0079031 0)
(1.00251 0.00762203 0)
(1.00217 0.00721691 0)
(1.00181 0.00671068 0)
(1.00148 0.00605313 0)
(1.00115 0.00526945 0)
(1.00084 0.00435316 0)
(1.00061 0.00328484 0)
(1.00041 0.00206874 0)
(1.00031 0.000719361 0)
(0.997447 0.00411466 0)
(0.996564 0.00441745 0)
(0.997296 0.00442191 0)
(0.999792 0.00542959 0)
(1.00218 0.00445135 0)
(0.998605 0.00631201 0)
(1.00421 0.00448495 0)
(1.0016 0.00713756 0)
(1.00353 0.00478401 0)
(1.00331 0.0074594 0)
(1.00372 0.00553145 0)
(1.00383 0.00753461 0)
(1.00398 0.00640444 0)
(1.00393 0.00749096 0)
(1.00392 0.00718262 0)
(1.00377 0.00748001 0)
(1.00359 0.00758101 0)
(1.00337 0.00761825 0)
(1.00312 0.00759887 0)
(1.00284 0.00751098 0)
(1.00252 0.00736187 0)
(1.00219 0.00710923 0)
(1.00185 0.00675339 0)
(1.0015 0.00627199 0)
(1.00116 0.00566057 0)
(1.00083 0.00492801 0)
(1.00055 0.00404673 0)
(1.00031 0.00304019 0)
(1.00015 0.00190762 0)
(1.00005 0.000638388 0)
(1.00053 0.00383169 0)
(0.99968 0.00413113 0)
(1.00013 0.00416848 0)
(1.00204 0.00497436 0)
(1.00387 0.00428017 0)
(1.00107 0.00576094 0)
(1.00564 0.00444731 0)
(1.00352 0.00651304 0)
(1.00503 0.0047575 0)
(1.00483 0.00693786 0)
(1.00501 0.00539645 0)
(1.00506 0.00711094 0)
(1.00496 0.00614403 0)
(1.00483 0.00714309 0)
(1.00459 0.00682437 0)
(1.00428 0.00715542 0)
(1.00391 0.00720393 0)
(1.00348 0.00723772 0)
(1.003 0.00721104 0)
(1.00249 0.00712553 0)
(1.00195 0.00697158 0)
(1.00139 0.00672458 0)
(1.00082 0.00638153 0)
(1.00026 0.00592426 0)
(0.99971 0.00535438 0)
(0.999195 0.00465806 0)
(0.998735 0.00383045 0)