/*--------------------------------*- C++ -*----------------------------------*\
| =========                 |                                                 |
| \\      /  F ield         | OpenFOAM: The Open Source CFD Toolbox           |
|  \\    /   O peration     | Version:                                        |
|   \\  /    A nd           | Website:  www.openfoam.com                      |
|    \\/     M anipulation  |                                                 |
\*---------------------------------------------------------------------------*/
FoamFile
{
    version     2.0;
    format      ascii;
    class       surfaceScalarField;
    location    "182";
    object      phi;
}
// * * * * * * * * * * * * * * * * * * * * * * * * * * * * * * * * * * * * * //

dimensions      [0 3 -1 0 0 0 0];
oriented        oriented;


internalField   nonuniform List<scalar> 
2201
(
0.00269221
-0.000672653
-0.00201955
0.00297377
-0.000281567
0.00299848
-2.47019e-05
0.00385381
-0.000855339
0.00590405
-0.00205024
0.00600009
-9.60419e-05
0.0047771
0.00122299
0.00109781
0.00367929
-0.00530794
0.00640575
0.00520881
-0.0105168
0.00522005
-0.000825028
-0.00506767
0.00562928
-0.000690803
0.00695191
-0.00134733
0.00541854
0.000678025
-0.000614265
0.00398257
-0.00880664
0.00809633
-0.0160393
0.00845563
-0.0208823
0.00852234
-0.0229591
0.00848248
0.00714966
-0.0248999
0.0079198
-0.00113621
-0.00760862
0.00637611
0.000852891
9.37397e-05
0.00493504
-0.00963416
0.0104059
-0.0173116
0.0116601
-0.0216179
0.0124025
-0.0254558
0.0122936
-0.0279171
0.0109836
-0.0286945
0.00925992
0.00737338
-0.0289183
0.0036033
0.00376931
-0.00850882
-0.00586079
0.010317
-0.0150847
0.014159
-0.0209551
0.0162763
-0.0253431
0.0160481
-0.0278902
0.0149496
-0.0292292
0.0136326
-0.0299764
0.0117309
-0.0302292
0.00951272
0.00739414
-0.03025
-0.010669
0.0134426
0.000995774
-0.0184831
0.0181311
-0.0240981
0.019774
-0.0271608
0.019339
-0.0291002
0.0179875
-0.0302824
0.0161317
-0.0306892
0.0140394
-0.0308086
0.0118503
-0.0308428
0.009547
0.00734932
-0.030798
-0.0211282
0.0210776
0.0134932
-0.0259538
0.0229567
-0.0286056
0.0224257
-0.0300756
0.020809
-0.0308465
0.0187584
-0.0312748
0.01656
-0.031406
0.0141707
-0.0313927
0.0118369
-0.0313306
0.00948488
0.0072413
-0.0312226
-0.0271327
0.0258103
0.0224
-0.0295865
0.0254106
-0.0307568
0.0235959
-0.0314467
0.0214989
-0.0317725
0.0190843
-0.0319437
0.0167312
-0.0319903
0.0142173
-0.031979
0.0118257
-0.0318584
0.00936419
0.00708195
-0.031699
-0.0301314
0.0283614
0.0275803
-0.0312228
0.026502
-0.031871
0.0242441
-0.0322088
0.0218367
-0.0324349
0.0193104
-0.0325426
0.0168388
-0.0325726
0.0142473
-0.0325408
0.0117939
-0.0324176
0.00924104
0.00685105
-0.0321867
-0.0315197
0.029551
0.0303301
-0.0321376
0.0271198
-0.0325853
0.0246919
-0.0328046
0.022056
-0.0330523
0.0195581
-0.0331317
0.0169182
-0.0331853
0.0143009
-0.0331262
0.0117348
-0.033014
0.00912877
0.00656998
-0.0327329
-0.0323477
-0.0328433
0.0276154
-0.0331431
0.0249917
-0.0334194
0.0223323
-0.0336244
0.0197631
-0.033724
0.0170179
-0.0337933
0.0143702
-0.0337056
0.0116471
-0.0336005
0.00902361
0.00627281
-0.0333033
-0.0334236
0.0279937
-0.0337287
0.0252968
-0.0340224
0.022626
-0.0341841
0.0199248
-0.0343522
0.0171859
-0.0343863
0.0144043
-0.0343355
0.0115963
-0.034191
0.0088791
0.0059947
-0.0339128
-0.0340306
-0.0343261
0.0255923
-0.0346143
0.0229142
-0.034812
0.0201225
-0.0349802
0.0173541
-0.0350241
0.0144482
-0.0350019
0.0115741
-0.0348373
0.00871442
0.00573326
-0.0345758
-0.0349624
0.0259546
-0.035236
0.0231877
-0.0354475
0.0203341
-0.0356282
0.0175348
-0.0356925
0.0145125
-0.0356643
0.0115458
-0.0355097
0.00855986
0.00547137
-0.0352478
-0.0355536
-0.0358191
0.0234531
-0.036111
0.020626
-0.0362389
0.0176627
-0.0363874
0.014661
-0.0363352
0.0114937
-0.0362036
0.00842818
0.00519199
-0.0359242
-0.0363995
0.0236514
-0.0367684
0.0209949
-0.0369431
0.0178374
-0.037072
0.0147899
-0.0370983
0.01152
-0.0369813
0.00831119
0.00489499
-0.0366843
-0.0370132
0.0239505
-0.0374235
0.0214052
-0.0376185
0.0180324
-0.0377711
0.0149424
-0.0378327
0.0115817
-0.0377351
0.00821354
0.00465497
-0.0374951
-0.0376132
-0.0380638
0.0218557
-0.0383164
0.0182851
-0.0384916
0.0151176
-0.0385622
0.0116523
-0.0384806
0.00813188
0.00448187
-0.0383075
-0.0386968
0.0222815
-0.0391668
0.018755
-0.0393364
0.0152872
-0.039472
0.011788
-0.0394127
0.0080726
0.00433585
-0.0392667
-0.0394226
0.0227601
-0.0398759
0.0192082
-0.0401912
0.0156025
-0.04034
0.0119368
-0.0403102
0.00804275
0.00427822
-0.0402526
-0.040094
-0.0406658
0.0197801
-0.0409721
0.0159088
-0.0411215
0.0120862
-0.0411507
0.00807192
0.00423284
-0.0411053
0.0124271
0.00204367
0.00778896
0.00463817
0.00190048
0.00588848
-0.00155084
0.00345133
-0.00307942
0.00152858
-0.00313691
5.74847e-05
-0.00235945
-0.000777459
-0.00100831
-0.00135114
0.000634139
-0.00164244
-0.00138542
0.0187885
0.00288749
0.0173251
0.00610161
0.0145381
0.00867547
0.00962401
0.00836543
0.00505626
0.00609633
0.00230813
0.00280561
0.00158271
-5.20366e-05
0.00237229
-0.00214072
0.00387207
-0.00314223
-0.00258101
0.0205559
0.0199065
0.00675105
0.0185246
0.0100574
0.0155158
0.0113743
0.0118591
0.00975293
0.00878168
0.00588307
0.00698962
0.00174003
0.00695443
-0.00210553
0.00750038
-0.00368818
-0.00268926
0.02038
0.0190052
0.0169511
0.0141998
0.0117691
0.0083137
0.0100209
0.00348826
0.00971119
-0.00179582
0.00986097
-0.00383795
-0.00133711
0.0117963
0.0106854
0.00459917
0.0103938
-0.00150424
0.00686667
-0.000310768
0.00652534
0.00938864
0.00506358
0.00282082
-0.00395062
0.00870344
0.0160679
-0.00480853
-0.0149787
0.0188736
0.0234891
-0.0230201
0.0280494
0.00347414
0.054142
-0.0533833
0.00310111
0.0568654
-0.0564924
0.00297562
0.0600577
-0.0599322
0.0028233
0.0634205
-0.0632682
0.0025741
0.0670436
-0.0667944
0.00228112
0.0707748
-0.0704818
0.00201236
0.0746382
-0.0743694
0.0017797
0.0787783
-0.0785457
0.00161678
0.0832782
-0.0831153
0.00153188
0.088235
-0.0881501
0.00150714
0.0936794
-0.0936546
0.00150509
0.0996339
-0.0996319
0.00149626
0.106093
-0.106085
0.00147948
0.113071
-0.113054
0.00144217
0.120592
-0.120555
0.00138716
0.128627
-0.128572
0.00131769
0.137187
-0.137118
0.00124677
0.146297
-0.146226
0.00117307
0.156059
-0.155986
0.00109547
0.166519
-0.166441
0.00101862
0.177719
-0.177642
0.000933017
0.189739
-0.189653
0.000838667
0.202629
-0.202535
0.0007379
0.216431
-0.21633
0.000628974
0.23122
-0.231111
0.000513549
0.247055
-0.246939
0.000390523
0.264012
-0.263889
0.000263395
0.282191
-0.282064
0.000137741
0.301662
-0.301536
0.322546
-0.322409
0.0073577
0.0548562
0.00669818
0.0575249
0.00613232
0.0606236
0.00577602
0.0637768
0.00557722
0.0672424
0.00548106
0.070871
0.00544017
0.0746791
0.00544464
0.0787739
0.00544969
0.0832732
0.0054255
0.0882592
0.00535298
0.0937519
0.00522712
0.0997598
0.00506294
0.106258
0.00488405
0.11325
0.00471087
0.120766
0.0045437
0.128794
0.00438523
0.137346
0.00422113
0.146462
0.00402433
0.156256
0.00379697
0.166746
0.00354493
0.177971
0.00325688
0.190027
0.00294247
0.202944
0.00260223
0.216771
0.0022341
0.231588
0.00183861
0.24745
0.00141769
0.264433
0.000973132
0.282636
0.000502702
0.302132
0.323049
0.0118038
0.0551386
0.0117582
0.0575705
0.0117396
0.0606422
0.011588
0.0639284
0.0113556
0.0674748
0.0110648
0.0711618
0.0107097
0.0750343
0.0103151
0.0791685
0.00995847
0.0836298
0.00968008
0.0885376
0.00946468
0.0939673
0.00926063
0.0999638
0.00904361
0.106475
0.00881137
0.113482
0.00853617
0.121041
0.00821449
0.129116
0.00785625
0.137704
0.0074705
0.146847
0.00704184
0.156685
0.006594
0.167194
0.0061187
0.178446
0.00559912
0.190547
0.00504574
0.203497
0.00445543
0.217361
0.00382367
0.23222
0.00315188
0.248122
0.00243481
0.26515
0.00167426
0.283396
0.000864264
0.302942
0.323913
0.0152274
0.0558201
0.0146273
0.0581707
0.0142204
0.0610491
0.0139648
0.0641839
0.0138185
0.0676211
0.0137565
0.0712237
0.0137449
0.0750459
0.0136994
0.0792139
0.0135589
0.0837702
0.0133586
0.0887379
0.013103
0.0942229
0.0127991
0.100268
0.0124536
0.10682
0.0120762
0.11386
0.0116801
0.121437
0.0112578
0.129538
0.0108264
0.138135
0.0103541
0.14732
0.00980537
0.157233
0.00922094
0.167778
0.00857306
0.179094
0.00785515
0.191265
0.00708869
0.204264
0.00626616
0.218184
0.00538479
0.233101
0.00444434
0.249062
0.00343704
0.266158
0.0023643
0.284469
0.00122084
0.304086
0.325134
0.0198038
0.0199039
0.0199648
0.0198883
0.0196541
0.0192702
0.0188013
0.0183172
0.0178815
0.0174877
0.0171086
0.094602
0.0167098
0.100667
0.0162975
0.107232
0.0158521
0.114305
0.0153384
0.121951
0.0147558
0.130121
0.0141397
0.138751
0.0134501
0.148009
0.012688
0.157996
0.0119069
0.168559
0.0110396
0.179961
0.010101
0.192203
0.0091109
0.205254
0.00804695
0.219248
0.00691484
0.234234
0.00570685
0.25027
0.00441489
0.26745
0.00303799
0.285846
0.00156872
0.305555
0.326703
0.0205292
0.0200595
0.0195417
0.0189643
0.018341
0.0176783
0.0169938
0.0161908
0.0153241
0.0144079
0.0133641
0.0122504
0.0110593
0.0097726
0.00840228
0.00693519
0.00536722
0.0036947
0.00190724
0.0311727
0.0323085
-0.0297108
-0.0337705
0.0327934
0.0290283
-0.0306489
0.0345837
0.0253975
-0.0271878
0.036335
0.0219345
-0.0236859
0.0376902
0.0181949
-0.0195501
0.0389895
0.0142509
-0.0155502
0.0398838
0.0107075
-0.0116018
0.0404101
0.00616372
-0.00669008
0.0409815
0.00200631
-0.00257767
-0.00202871
0.00190486
0.0304697
0.0302303
-0.0283915
0.0322461
0.0272519
0.0338334
0.0238101
0.0353334
0.0204345
0.0365948
0.0169336
0.0377977
0.013048
0.0388937
0.00961157
0.0394946
0.00556276
0.0400385
0.0014624
-0.00224274
0.0295641
0.0280366
-0.0273704
0.0314807
0.0253353
0.0331288
0.0221621
0.0345487
0.0190146
0.0357329
0.0157493
0.0367305
0.0120504
0.0377628
0.00857928
0.0384358
0.00488971
0.0389367
0.000961585
-0.0025728
0.0287092
0.0259774
-0.02665
0.0306325
0.023412
0.0323029
0.0204916
0.0338144
0.0175031
0.0350379
0.0145259
0.0360251
0.0110631
0.0368469
0.00775756
0.0375086
0.00422791
0.0379308
0.000539448
-0.00294948
0.0280078
0.0241579
-0.0261883
0.0298118
0.021608
0.031409
0.0188943
0.032912
0.0160001
0.034198
0.0132399
0.0352751
0.00998601
0.0361447
0.00688798
0.0367511
0.00362148
0.0371551
0.000135434
-0.00328943
0.0275604
0.0223957
-0.0257982
0.0292028
0.0199656
0.030691
0.0174061
0.0320731
0.014618
0.0333463
0.0119667
0.0343441
0.00898822
0.0353038
0.00592829
0.0359657
0.00295954
0.0363937
-0.000292522
-0.00358002
0.0270936
0.0204973
-0.0251952
0.0287265
0.0183328
0.0301744
0.0159582
0.0314421
0.0133504
0.0326518
0.010757
0.0336156
0.00802438
0.0344438
0.00510009
0.0351714
0.00223189
0.0356262
-0.000747255
-0.00387802
0.0264792
0.0185941
-0.024576
0.0281617
0.0166503
0.0296509
0.0144689
0.0309099
0.0120914
0.0320561
0.00961083
0.0330167
0.00706379
0.0337864
0.00433037
0.0344552
0.00156305
0.0349356
-0.00122764
-0.00419022
0.0259459
0.0168375
-0.0241892
0.0275746
0.0150216
0.0290554
0.0129881
0.0303339
0.0108129
0.0314498
0.00849486
0.0324181
0.00609551
0.0331505
0.00359794
0.0337896
0.000923992
0.0342448
-0.00168282
-0.00452127
0.0255847
0.0151708
-0.023918
0.0271504
0.0134559
0.0285508
0.0115877
0.0298072
0.00955648
0.0308744
0.00742769
0.0318374
0.00513247
0.0325756
0.00285976
0.0331591
0.00034055
0.033608
-0.0021318
-0.00482607
0.0252492
0.0135142
-0.0235926
0.0267865
0.0119185
0.0281535
0.0102207
0.0293704
0.00833964
0.0303934
0.00640465
0.0312969
0.00422895
0.0320434
0.00211332
0.0325947
-0.000210803
0.0330351
-0.00257219
-0.00509423
0.02493
0.0118925
-0.0233083
0.0264449
0.0104036
0.0277874
0.0088782
0.0289889
0.00713816
0.0299966
0.00539693
0.0308263
0.00339931
0.0315515
0.00138812
0.0320667
-0.000726009
0.0325022
-0.00300768
-0.00532499
0.0246869
0.010321
-0.0231153
0.0261685
0.00892194
0.0274581
0.00758861
0.0286304
0.00596584
0.0296337
0.00439365
0.0304217
0.00261135
0.0311018
0.000707952
0.0315968
-0.00122102
0.0319757
-0.00338651
-0.00553604
0.0245411
0.00874286
-0.022963
0.0259798
0.0074832
0.0272593
0.00630914
0.0283391
0.00488602
0.0293361
0.00339663
0.030075
0.00187249
0.0307157
6.72831e-05
0.0311946
-0.00169998
0.0315173
-0.00370917
-0.00571777
0.0244624
0.00713061
-0.0228502
0.0258295
0.0061161
0.0271318
0.00500681
0.0281458
0.00387207
0.0290996
0.00244281
0.0297855
0.00118657
0.0303695
-0.000516696
0.0308031
-0.00213355
0.0310946
-0.00400072
-0.00584572
0.024481
0.00551892
-0.0228693
0.0258221
0.00477501
0.0270487
0.00378024
0.0280628
0.002858
0.0289392
0.00156638
0.0296196
0.000506226
0.0301035
-0.00100069
0.030466
-0.00249604
0.0307035
-0.00423822
-0.0059402
0.0245746
0.00396403
-0.0230197
0.0259716
0.00337807
0.0271261
0.00262576
0.0280703
0.00191373
0.0287903
0.000846357
0.0295002
-0.000203642
0.0298994
-0.00139987
0.0301158
-0.00271245
0.030201
-0.00432341
-0.0059892
0.0247486
0.00242192
-0.0232065
0.0260845
0.00204221
0.0273314
0.00137883
0.0283221
0.000923008
0.0289719
0.00019655
0.0293331
-0.000564829
0.0295962
-0.00166296
0.029559
-0.00267525
0.0292658
-0.00403021
-0.00564164
0.0252044
0.000923748
-0.0237062
0.0264451
0.000801472
0.027582
0.000241991
0.028426
7.89318e-05
0.0290429
-0.00042028
0.0292303
-0.000752222
0.0288841
-0.00131676
0.0281398
-0.00193101
0.0268173
-0.00270768
-0.00372425
0.0202466
-0.0193228
0.021048
0.02129
0.021369
0.0209487
0.0201964
0.0188797
0.0169487
0.014241
0.0216389
0.0419581
0.0239738
0.0399811
-0.042316
0.0264694
0.0368608
-0.0393564
0.0340297
-0.0372711
0.018399
0.0412032
0.0211125
0.0392445
0.023672
0.0374217
0.0260463
0.0344865
0.0316845
0.0125539
0.0409698
0.0153491
0.0398997
0.0180017
0.0385506
0.0206289
0.0366173
0.0232524
0.0347982
0.0254232
0.0323157
0.0297374
0.00391759
0.0395182
0.00674516
0.0393568
0.00955781
0.0389463
0.0123252
0.0382025
0.0150543
0.0371706
0.0176561
0.0359488
0.0201434
0.03413
0.022648
0.0322936
0.0248298
0.0301339
0.0279172
0.00391719
0.0367625
0.00667144
0.0366025
0.00940914
0.0362086
0.0121028
0.0355088
0.0147609
0.0345125
0.0173347
0.033375
0.0197128
0.0317519
0.0220241
0.0299823
0.0242999
0.0278581
0.0260288
0.00391409
0.0340651
0.0066081
0.0339085
0.00927836
0.0335383
0.0118978
0.0328894
0.0144683
0.0319421
0.0169841
0.0308592
0.0193549
0.0293811
0.0214597
0.0278774
0.0236875
0.0256304
0.0239181
0.00390322
0.0314272
0.00653553
0.0312762
0.00914903
0.0309248
0.0117119
0.0303264
0.0142169
0.0294371
0.0166425
0.0284336
0.0190077
0.0270159
0.0210769
0.0258082
0.0230716
0.0236357
0.0217945
0.00389592
0.0288407
0.00647274
0.0286994
0.00902524
0.0283723
0.0115241
0.0278275
0.0139817
0.0269796
0.0163235
0.0260918
0.0186671
0.0246724
0.0208361
0.0236391
0.0226798
0.021792
0.0198982
0.00388594
0.0263062
0.0064153
0.02617
0.00892633
0.0258613
0.011369
0.0253849
0.0137777
0.0245709
0.016036
0.0238335
0.0182818
0.0224266
0.0205431
0.0213778
0.0224491
0.019886
0.0181581
0.0038862
0.023819
0.00636098
0.0236952
0.00883151
0.0233908
0.0112388
0.0229775
0.0136195
0.0221902
0.0158574
0.0215956
0.0179542
0.0203298
0.0201604
0.0191716
0.0221524
0.017894
0.0163925
0.00390065
0.0213637
0.00633474
0.0212612
0.00875565
0.0209699
0.0111155
0.0206177
0.0134455
0.0198603
0.0157464
0.0192947
0.0177679
0.0183083
0.0198278
0.0171116
0.0218003
0.0159215
0.0146003
0.00391338
0.0189436
0.00632089
0.0188536
0.00872037
0.0185704
0.0110526
0.0182854
0.0132814
0.0176315
0.0156046
0.0169714
0.0176604
0.0162526
0.0196302
0.0151418
0.0215339
0.0140178
0.0128259
0.00394474
0.0165436
0.00631619
0.0164822
0.00868175
0.0162048
0.0110399
0.0159273
0.013207
0.0154643
0.0154568
0.0147216
0.0175508
0.0141586
0.0194948
0.0131978
0.0213397
0.0121729
0.0110503
0.00398451
0.0141488
0.00634972
0.014117
0.00865887
0.0138957
0.0110222
0.0135639
0.0132091
0.0132775
0.0153794
0.0125514
0.0174724
0.0120655
0.0194283
0.0112419
0.0212033
0.0103979
0.00929058
0.00401862
0.0117723
0.00640581
0.0117298
0.00870042
0.0116011
0.0110181
0.0112463
0.0132312
0.0110644
0.0153746
0.010408
0.0174429
0.00999721
0.0194189
0.00926588
0.021192
0.00862481
0.00763241
0.00406009
0.00942249
0.00645844
0.00933144
0.00878355
0.00927595
0.011077
0.00895282
0.013296
0.0088453
0.0154146
0.00828947
0.017488
0.00792376
0.019428
0.00732589
0.0212811
0.00677172
0.00604419
0.00413033
0.00708377
0.00653057
0.00693121
0.00889954
0.00690697
0.011198
0.00665436
0.0134494
0.00659389
0.0155593
0.00617955
0.0176229
0.0058602
0.0195419
0.00540693
0.0213858
0.00492775
0.00441027
0.00422407
0.00470361
0.00662088
0.0045344
0.00899655
0.00453129
0.0113394
0.00431151
0.0135787
0.00435464
0.0157767
0.00398155
0.0177962
0.00384061
0.0197557
0.00344752
0.0215478
0.00313559
0.00275157
0.00443347
0.00217778
0.00690298
0.00206489
0.00931983
0.00211445
0.0117085
0.00192288
0.0140172
0.00204594
0.0162623
0.00173642
0.0183404
0.00176248
0.0203067
0.00148127
0.0220964
0.00134585
0.00114177
0.00370688
0.00577176
0.00788621
0.00980909
0.011855
0.0135914
0.0153539
0.0168352
0.018181
0.0377435
0.00716497
0.00735359
0.00816434
0.00863672
0.00636162
0.047724
0.00602321
0.0514264
0.00569306
0.0553373
0.00530374
0.0595821
0.00487158
0.0641605
0.00444592
0.0689928
0.0040247
0.0741048
0.00361479
0.0795288
0.00320407
0.0852534
0.00279504
0.0912304
0.00241341
0.0973875
0.00207197
0.10377
0.00179125
0.110502
0.0015655
0.117755
0.00137483
0.125636
0.00119814
0.134152
0.0010309
0.143295
0.000875573
0.153072
0.000737962
0.163489
0.000620761
0.174591
0.000524072
0.186436
0.000442145
0.199099
0.000370915
0.212646
0.000306555
0.227139
0.000245814
0.242639
0.000190835
0.25923
0.000131067
0.277019
5.8476e-05
0.296103
3.19265e-05
0.316735
0.338652
0.00753158
0.0488292
0.00688096
0.052077
0.00610565
0.0561126
0.00536215
0.0603256
0.00470223
0.0648204
0.00410463
0.0695904
0.00359535
0.0746141
0.00317595
0.0799482
0.00281988
0.0856095
0.00250611
0.0915441
0.00222178
0.0976718
0.00196503
0.104026
0.00174163
0.110725
0.00154582
0.117951
0.00136436
0.125818
0.00118777
0.134328
0.00101363
0.143469
0.000853956
0.153231
0.000714813
0.163629
0.000599315
0.174706
0.000502233
0.186533
0.000421191
0.199181
0.000351676
0.212715
0.000289698
0.227201
0.000231703
0.242697
0.000180229
0.259281
0.000123171
0.277076
5.48772e-05
0.296172
2.90984e-05
0.31676
0.338681
-0.0336672
0.0487259
-0.0341348
0.0525446
-0.0343966
0.0563744
-0.0345952
0.0605243
-0.0347387
0.0649638
-0.0347343
0.069586
-0.0345793
0.0744591
-0.0343045
0.0796734
-0.033905
0.08521
-0.0333643
0.0910034
-0.0326881
0.0969956
-0.0319009
0.103239
-0.0310322
0.109857
-0.0301079
0.117027
-0.0291199
0.12483
-0.0280519
0.13326
-0.0268863
0.142304
-0.0256106
0.151956
-0.0242196
0.162238
-0.0227117
0.173198
-0.0210861
0.184907
-0.0193394
0.197434
-0.0174653
0.210841
-0.0154559
0.225191
-0.0133042
0.240545
-0.0109997
0.256977
-0.00852823
0.274605
-0.00590785
0.293551
-0.0030386
0.313891
0.335642
-0.030935
0.049012
-0.0311932
0.0528029
-0.0314834
0.0566645
-0.0318026
0.0608435
-0.0319957
0.0651569
-0.0320584
0.0696487
-0.0320106
0.0744113
-0.0318051
0.0794679
-0.0314203
0.0848252
-0.0308615
0.0904447
-0.0301542
0.0962883
-0.0293445
0.102429
-0.0284747
0.108987
-0.0275655
0.116117
-0.0266198
0.123884
-0.0256236
0.132264
-0.0245536
0.141234
-0.0233863
0.150788
-0.0221104
0.160962
-0.020724
0.171812
-0.0192296
0.183413
-0.0176261
0.19583
-0.0159089
0.209124
-0.0140712
0.223354
-0.0121068
0.238581
-0.0100065
0.254876
-0.00775947
0.272358
-0.00536421
0.291156
-0.00276749
0.311294
0.332875
-0.0278333
0.0496575
-0.0282587
0.0532283
-0.0284477
0.0568535
-0.0285451
0.0609409
-0.0285802
0.065192
-0.028579
0.0696475
-0.0284845
0.0743168
-0.0282622
0.0792456
-0.0279165
0.0844795
-0.0274434
0.0899716
-0.0268711
0.095716
-0.0262288
0.101787
-0.0255354
0.108293
-0.0247927
0.115375
-0.0239856
0.123077
-0.0230999
0.131378
-0.0221262
0.14026
-0.0210577
0.14972
-0.0198921
0.159796
-0.018628
0.170548
-0.0172674
0.182052
-0.0158107
0.194374
-0.014256
0.207569
-0.0125983
0.221696
-0.0108322
0.236815
-0.00894927
0.252993
-0.00693929
0.270348
-0.00479136
0.289008
-0.00247768
0.308981
0.330397
-0.024151
0.0501226
-0.0245297
0.053607
-0.024958
0.0572819
-0.0253312
0.0613141
-0.0255533
0.065414
-0.0256149
0.0697092
-0.0255108
0.0742127
-0.0252633
0.0789981
-0.0248912
0.0841074
-0.0244101
0.0894905
-0.0238445
0.0951504
-0.0232237
0.101166
-0.0225678
0.107638
-0.0218775
0.114684
-0.0211428
0.122342
-0.0203451
0.130581
-0.0194717
0.139387
-0.018516
0.148764
-0.0174775
0.158758
-0.0163569
0.169427
-0.0151551
0.18085
-0.0138701
0.193089
-0.0124995
0.206199
-0.0110394
0.220236
-0.00948624
0.235261
-0.00783419
0.251341
-0.00607336
0.268587
-0.00418939
0.287124
-0.00216962
0.306961
0.328228
-0.0199349
0.0505074
-0.0203071
0.0539792
-0.0206455
0.0576202
-0.0208496
0.0615183
-0.0209808
0.0655452
-0.0210597
0.0697881
-0.0210407
0.0741936
-0.0209031
0.0788605
-0.0206407
0.083845
-0.0202711
0.0891209
-0.0198429
0.0947222
-0.0193862
0.10071
-0.0189116
0.107163
-0.0184102
0.114183
-0.0178629
0.121795
-0.0172446
0.129962
-0.0165415
0.138684
-0.0157497
0.147973
-0.0148759
0.157884
-0.0139248
0.168476
-0.0129008
0.179826
-0.0118037
0.191992
-0.0106339
0.205029
-0.00938898
0.218991
-0.0080663
0.233939
-0.00666143
0.249936
-0.00516424
0.26709
-0.00355988
0.28552
-0.00184473
0.305246
0.326383
-0.0161645
0.0511217
-0.0166301
0.0544448
-0.0170946
0.0580848
-0.0175158
0.0619395
-0.0178186
0.0658481
-0.0179215
0.069891
-0.0178268
0.0740989
-0.0175863
0.07862
-0.017245
0.0835037
-0.0168498
0.0887256
-0.0164269
0.0942994
-0.0159927
0.100275
-0.015548
0.106718
-0.015087
0.113722
-0.0145981
0.121306
-0.0140663
0.129431
-0.0134798
0.138097
-0.0128325
0.147325
-0.012123
0.157174
-0.0113523
0.167705
-0.0105231
0.178997
-0.00963387
0.191102
-0.00868226
0.204077
-0.00766664
0.217975
-0.00658706
0.232859
-0.00544125
0.248791
-0.00421932
0.265868
-0.0029072
0.284208
-0.00150634
0.303845
0.324876
-0.01191
0.0514299
-0.0121586
0.0546935
-0.0123588
0.058285
-0.0124706
0.0620512
-0.0126021
0.0659796
-0.0127533
0.0700423
-0.0128692
0.0742148
-0.0128965
0.0786474
-0.0128001
0.0834073
-0.0125947
0.0885203
-0.0123281
0.0940328
-0.0120342
0.0999814
-0.0117303
0.106414
-0.0114115
0.113403
-0.0110676
0.120962
-0.0106848
0.129048
-0.010259
0.137671
-0.00978397
0.14685
-0.00925969
0.15665
-0.00868606
0.167132
-0.00806105
0.178372
-0.00738427
0.190426
-0.00665845
0.203351
-0.0058818
0.217199
-0.00505561
0.232033
-0.00417952
0.247915
-0.00324341
0.264932
-0.00223465
0.283199
-0.00115705
0.302767
0.323719
-0.00727815
0.052018
-0.00800564
0.0554209
-0.00877766
0.059057
-0.00938808
0.0626616
-0.00973356
0.066325
-0.00981055
0.0701193
-0.00971029
0.0741145
-0.00950599
0.0784431
-0.00925028
0.0831516
-0.00899683
0.0882668
-0.00876324
0.0937992
-0.0085475
0.0997656
-0.00833017
0.106197
-0.00809753
0.11317
-0.007834
0.120699
-0.00753397
0.128748
-0.00719498
0.137332
-0.0068246
0.14648
-0.00642931
0.156255
-0.00601332
0.166716
-0.0055732
0.177932
-0.00510246
0.189955
-0.00459984
0.202849
-0.00406315
0.216662
-0.00349296
0.231463
-0.00288982
0.247311
-0.00224492
0.264287
-0.00154718
0.282501
-0.000800094
0.30202
0.322919
-0.0033272
0.0527675
-0.00372416
0.0558179
-0.00384244
0.0591753
-0.00387299
0.0626922
-0.00401549
0.0664675
-0.00426072
0.0703645
-0.00451076
0.0743646
-0.00468939
0.0786217
-0.0047608
0.083223
-0.00473742
0.0882434
-0.00464903
0.0937108
-0.00452952
0.0996461
-0.00440651
0.106074
-0.00427819
0.113042
-0.00414336
0.120564
-0.00399829
0.128603
-0.00384057
0.137175
-0.00366198
0.146301
-0.00346396
0.156057
-0.00324996
0.166502
-0.00301515
0.177697
-0.00276225
0.189702
-0.0024937
0.20258
-0.00220689
0.216375
-0.001901
0.231157
-0.00157707
0.246988
-0.00122938
0.263939
-0.000849086
0.282121
-0.000437895
0.301609
0.322481
0.00128905
0.000614566
-0.000142391
-0.000718392
-0.00104531
-0.00116262
-0.00116751
-0.00109149
-0.000983782
-0.000890474
-0.0008343
-0.000820044
-0.000830551
-0.000842658
-0.000833967
-0.000803336
-0.000746211
-0.000671413
-0.000600345
-0.000539949
-0.000484556
-0.000436051
-0.000390982
-0.000345851
-0.000300268
-0.000252038
-0.00020244
-0.000145506
-7.28576e-05
)
;

boundaryField
{
    outlet
    {
        type            calculated;
        value           nonuniform 0();
    }
    upperWall
    {
        type            symmetryPlane;
        value           nonuniform 0();
    }
    lowerWall
    {
        type            symmetryPlane;
        value           uniform 0;
    }
    inlet
    {
        type            calculated;
        value           nonuniform 0();
    }
    cylinder
    {
        type            calculated;
        value           uniform 0;
    }
    frontAndBack
    {
        type            empty;
        value           nonuniform 0();
    }
    procBoundary1to0
    {
        type            processor;
        value           nonuniform List<scalar> 
45
(
-0.0189026
-0.0439175
-0.0446943
-0.043813
-0.0156847
-0.0426949
-0.0423359
-0.0421843
-0.00971073
-0.0417589
-0.0379912
-0.0430282
-0.0069173
-0.0401671
-0.00664136
-0.0469207
-0.051088
-0.0550072
-0.0591928
-0.0637283
-0.0685671
-0.0736836
-0.0791189
-0.0848427
-0.0908213
-0.0970058
-0.103428
-0.110221
-0.117529
-0.125446
-0.133975
-0.143128
-0.152916
-0.163352
-0.174473
-0.186339
-0.199018
-0.212574
-0.227074
-0.242578
-0.259175
-0.276959
-0.296031
-0.316708
-0.33862
)
;
    }
    procBoundary1to2
    {
        type            processor;
        value           nonuniform List<scalar> 
63
(
0.030159
0.0317397
0.0330452
0.0336666
0.0283577
0.0346001
0.0351699
0.0263384
0.0362013
0.036714
0.0372665
0.0242973
0.0382711
0.038944
0.0398302
0.0230239
0.00301131
-0.021088
0.00745898
0.0114322
0.0134284
0.0125042
-0.0141891
0.0107065
-0.00982299
0.00503352
-0.0040787
0.0117081
0.0151682
0.0267255
0.0278405
0.030539
0.0557963
0.0580706
0.0609882
0.0642604
0.0678553
0.0716077
0.0755148
0.0796979
0.084206
0.0891317
-0.0209555
0.0950283
0.101136
0.10775
0.114882
0.122574
0.130784
0.139436
0.148812
0.158862
0.169476
0.181005
0.193317
0.206445
0.220535
0.235604
0.251737
0.269018
0.287518
0.307343
0.32861
)
;
    }
    procBoundary1to5
    {
        type            processor;
        value           nonuniform List<scalar> 
20
(
-0.0144708
-0.0196324
-0.0206797
-0.00109984
-0.00116145
-0.0012167
-0.00126534
-0.00130941
-0.00135149
-0.00139893
-0.00144535
-0.00149337
-0.00154471
-0.00158965
-0.00164217
-0.00171027
-0.00179162
-0.00184391
-0.00190764
-0.00152909
)
;
    }
}


// ************************************************************************* //
