/*--------------------------------*- C++ -*----------------------------------*\
| =========                 |                                                 |
| \\      /  F ield         | OpenFOAM: The Open Source CFD Toolbox           |
|  \\    /   O peration     | Version:                                        |
|   \\  /    A nd           | Website:  www.openfoam.com                      |
|    \\/     M anipulation  |                                                 |
\*---------------------------------------------------------------------------*/
FoamFile
{
    version     2.0;
    format      ascii;
    class       volScalarField;
    location    "0.8";
    object      p;
}
// * * * * * * * * * * * * * * * * * * * * * * * * * * * * * * * * * * * * * //

dimensions      [0 2 -2 0 0 0 0];


internalField   nonuniform List<scalar> 
400
(
0.726493
0.723558
0.716927
0.706927
0.694503
0.680397
0.665177
0.649324
0.633222
0.617152
0.60131
0.585825
0.570776
0.556204
0.542124
0.528532
0.51541
0.502735
0.490477
0.478606
0.727449
0.724442
0.717656
0.707459
0.694845
0.680576
0.665225
0.649272
0.633099
0.616984
0.601114
0.585615
0.570562
0.555994
0.541922
0.52834
0.51523
0.502567
0.490322
0.478463
0.729386
0.726228
0.719121
0.708522
0.695523
0.680925
0.66531
0.649159
0.632847
0.61664
0.600716
0.585191
0.570132
0.555571
0.541515
0.527955
0.514869
0.502232
0.490012
0.478179
0.732352
0.728953
0.721337
0.710112
0.696522
0.681425
0.665413
0.648966
0.632449
0.616108
0.600107
0.584545
0.569479
0.554931
0.540901
0.527375
0.514327
0.50173
0.48955
0.477754
0.736426
0.732673
0.724325
0.712219
0.697819
0.682046
0.665502
0.648665
0.631879
0.615367
0.599269
0.583664
0.568593
0.554067
0.540076
0.526598
0.513604
0.501062
0.488935
0.477192
0.74172
0.737469
0.72811
0.714829
0.699377
0.682744
0.665535
0.648215
0.631104
0.61439
0.598181
0.582533
0.567465
0.552973
0.539036
0.525624
0.512701
0.500231
0.488175
0.476498
0.748395
0.743446
0.732718
0.717915
0.701146
0.68346
0.665451
0.647565
0.630082
0.613143
0.596819
0.581134
0.566084
0.551645
0.537783
0.524457
0.511625
0.499246
0.487278
0.475684
0.756671
0.750741
0.738173
0.721431
0.703054
0.684114
0.665175
0.646651
0.62876
0.611588
0.595156
0.579452
0.564442
0.550081
0.53632
0.523105
0.510388
0.49812
0.486259
0.474765
0.766855
0.759525
0.744484
0.725305
0.705001
0.684602
0.664614
0.645395
0.627083
0.609686
0.59317
0.577477
0.562542
0.548293
0.534663
0.521589
0.509011
0.496878
0.485143
0.473764
0.779378
0.770007
0.751634
0.729425
0.706852
0.68479
0.663653
0.643712
0.624991
0.607405
0.590849
0.575216
0.5604
0.546305
0.532844
0.519941
0.50753
0.495554
0.483962
0.472713
0.794851
0.782432
0.759555
0.73362
0.708422
0.684513
0.662165
0.641517
0.622441
0.604731
0.588205
0.572696
0.558057
0.544164
0.530912
0.518212
0.505992
0.494191
0.482757
0.471649
0.814161
0.797069
0.768084
0.737638
0.709475
0.683577
0.660018
0.638743
0.619416
0.601689
0.585287
0.569982
0.555585
0.541943
0.528935
0.516465
0.504455
0.492841
0.481574
0.470611
0.838636
0.814177
0.776908
0.741118
0.709713
0.681775
0.65711
0.635373
0.615958
0.598356
0.582192
0.567177
0.553081
0.539732
0.526997
0.514772
0.50298
0.491558
0.480457
0.469638
0.870306
0.833947
0.785478
0.743562
0.708794
0.678928
0.653408
0.631475
0.612191
0.594875
0.579063
0.564412
0.550663
0.537632
0.525179
0.513202
0.501624
0.490386
0.479442
0.468756
0.912219
0.856348
0.792923
0.744357
0.7064
0.674966
0.649017
0.627231
0.608314
0.591436
0.576065
0.561823
0.54844
0.535726
0.523546
0.511802
0.500422
0.48935
0.478547
0.46798
0.968502
0.880791
0.79798
0.742918
0.702413
0.670051
0.644215
0.622927
0.604572
0.588232
0.573342
0.559513
0.546481
0.534062
0.522129
0.510591
0.499382
0.488454
0.477771
0.467304
1.0447
0.90589
0.799085
0.738938
0.697082
0.664606
0.639392
0.618849
0.601159
0.585383
0.570962
0.557517
0.544798
0.532637
0.520915
0.509552
0.498487
0.487679
0.477095
0.466713
1.15278
0.930424
0.794522
0.732016
0.690503
0.658827
0.634652
0.615008
0.598031
0.582819
0.56884
0.555746
0.543308
0.531372
0.519834
0.508621
0.49768
0.486974
0.476476
0.466165
1.31939
0.953906
0.781882
0.719973
0.681217
0.651808
0.629318
0.610858
0.594738
0.58016
0.56666
0.553934
0.541784
0.530077
0.518723
0.507659
0.496841
0.486236
0.475821
0.46558
1.53899
0.969755
0.76056
0.701761
0.668651
0.643292
0.623212
0.60625
0.59115
0.577297
0.564329
0.552005
0.540166
0.528703
0.517543
0.506636
0.495944
0.485444
0.475117
0.464948
)
;

boundaryField
{
    fixedWalls
    {
        type            zeroGradient;
    }
    inlet
    {
        type            zeroGradient;
    }
    outlet
    {
        type            fixedValue;
        value           nonuniform 0();
    }
    frontAndBack
    {
        type            empty;
    }
    procBoundary4to0
    {
        type            processor;
        value           nonuniform List<scalar> 
20
(
0.726493
0.723558
0.716927
0.706927
0.694503
0.680397
0.665177
0.649324
0.633222
0.617152
0.60131
0.585825
0.570776
0.556204
0.542124
0.528532
0.51541
0.502734
0.490477
0.478606
)
;
    }
    procBoundary4to5
    {
        type            processor;
        value           nonuniform List<scalar> 
20
(
0.467092
0.466962
0.4667
0.466311
0.465798
0.465167
0.464429
0.463601
0.462705
0.46177
0.46083
0.459919
0.459069
0.458301
0.457625
0.457034
0.456512
0.456024
0.455499
0.454929
)
;
    }
}


// ************************************************************************* //
