/*--------------------------------*- C++ -*----------------------------------*\
| =========                 |                                                 |
| \\      /  F ield         | OpenFOAM: The Open Source CFD Toolbox           |
|  \\    /   O peration     | Version:                                        |
|   \\  /    A nd           | Website:  www.openfoam.com                      |
|    \\/     M anipulation  |                                                 |
\*---------------------------------------------------------------------------*/
FoamFile
{
    version     2.0;
    format      ascii;
    class       volScalarField;
    location    "93";
    object      p;
}
// * * * * * * * * * * * * * * * * * * * * * * * * * * * * * * * * * * * * * //

dimensions      [0 2 -2 0 0 0 0];


internalField   nonuniform List<scalar> 
1150
(
0.187618
0.196952
0.207049
0.180005
0.18782
0.196504
0.169689
0.175558
0.182552
0.156491
0.160109
0.140435
0.14162
0.121888
0.0593615
0.0547401
0.0572871
0.0573455
0.0593521
0.0591526
0.0605349
0.0612143
0.0629307
0.063854
0.065512
0.0676687
0.069931
0.0722177
0.0752581
0.0783485
0.0818386
0.0857715
0.090283
0.0950634
0.100467
0.106445
0.113032
0.120132
0.127973
0.136468
0.145674
0.155484
0.166005
0.177217
0.0589979
0.054472
0.0570595
0.0569935
0.0588595
0.0589566
0.0600235
0.0605572
0.0627621
0.0632317
0.0645049
0.0672069
0.0693044
0.0710897
0.0743079
0.0773583
0.0806808
0.0843337
0.0887594
0.0933268
0.0985001
0.10412
0.110372
0.117065
0.124501
0.132493
0.141197
0.150434
0.160395
0.170873
0.0585671
0.0542529
0.0568152
0.0566525
0.0583584
0.0587473
0.0594853
0.0599386
0.0625722
0.0625269
0.0635648
0.0667378
0.0685818
0.0699846
0.0734141
0.0762722
0.0794508
0.0828652
0.0871217
0.0914134
0.0963367
0.101519
0.107378
0.113545
0.12044
0.127749
0.135744
0.144125
0.153163
0.162421
0.0580771
0.0540768
0.0565418
0.0563082
0.0578595
0.0585207
0.0589248
0.0593564
0.0624392
0.0617319
0.0627321
0.0662215
0.0677263
0.0689698
0.0725191
0.0751061
0.0782025
0.0813586
0.0854396
0.0893248
0.0939835
0.0986691
0.104015
0.109523
0.115728
0.122136
0.129153
0.136374
0.144089
0.151624
0.0575297
0.0539399
0.0562335
0.0559776
0.0573669
0.0582804
0.0583296
0.0588407
0.0622098
0.06089
0.0619205
0.065654
0.0667414
0.0680527
0.0714432
0.0737341
0.0768811
0.0797458
0.0835313
0.0870085
0.09133
0.0954104
0.100167
0.104853
0.110221
0.115489
0.121305
0.126991
0.133046
0.138348
0.0569426
0.0538324
0.0559027
0.0556335
0.0569009
0.0580185
0.0577189
0.0583628
0.0619406
0.0599967
0.061306
0.0649376
0.0657281
0.0673507
0.0705178
0.0724538
0.0756236
0.0780992
0.0816277
0.0845783
0.0885919
0.091922
0.0960298
0.0997351
0.104093
0.10802
0.112377
0.116276
0.120249
0.123018
0.0563228
0.0537464
0.055539
0.0553087
0.0564441
0.0577393
0.0570901
0.0579756
0.0615097
0.0591292
0.0608876
0.0641822
0.0646343
0.0667002
0.0690841
0.0710433
0.0742606
0.0762207
0.0793701
0.0818887
0.0854202
0.0880219
0.0913207
0.0940229
0.0971989
0.0995986
0.102096
0.103872
0.105222
0.104917
0.055695
0.0536724
0.0551505
0.0549695
0.0560338
0.057434
0.056475
0.0576411
0.0609489
0.0582804
0.0607491
0.0632928
0.0637606
0.0661797
0.0683474
0.0699039
0.0729307
0.0743651
0.0772821
0.0791426
0.0823715
0.083772
0.0865084
0.0876373
0.089818
0.0901729
0.0911946
0.0902275
0.0891554
0.0550717
0.0535957
0.0547377
0.0546453
0.0556019
0.0571105
0.0558626
0.0573505
0.0601905
0.0575832
0.0604728
0.062293
0.0628184
0.0654881
0.0665693
0.0686504
0.0711271
0.072336
0.0745695
0.0761632
0.0786816
0.079352
0.0809634
0.0811758
0.0815618
0.0800694
0.0788029
0.0759958
0.0722826
0.0544911
0.0535007
0.0542825
0.0543246
0.0552325
0.0567675
0.0552925
0.0571421
0.059327
0.0569431
0.060307
0.0615042
0.0622118
0.0646824
0.0654458
0.0677393
0.0696044
0.0703788
0.0724007
0.0732365
0.0752916
0.0743551
0.0756915
0.0736308
0.0732694
0.0690949
0.066701
0.0587941
0.0539629
0.0534174
0.0538179
0.0540224
0.0547661
0.0563996
0.0547921
0.0568154
0.0584484
0.0564307
0.0595359
0.060518
0.0613489
0.0634197
0.0636627
0.0662993
0.0671075
0.0681393
0.0688781
0.0699358
0.0708662
0.0692603
0.06974
0.0668984
0.0651894
0.0594973
0.0547223
0.043597
0.0534736
0.0533621
0.0533364
0.0537224
0.0542347
0.0560288
0.0543295
0.0564574
0.0575269
0.0560516
0.0584408
0.0594951
0.0602484
0.0621163
0.0619046
0.0645301
0.0645606
0.0657228
0.0653919
0.0666576
0.0659212
0.064599
0.0636023
0.0602957
0.056858
0.0505398
0.043503
0.0322141
0.0530003
0.0533189
0.0528846
0.0534043
0.0537167
0.0556226
0.0538059
0.0560314
0.0566856
0.0556277
0.0574585
0.0585042
0.058968
0.0608625
0.060075
0.0623741
0.0623598
0.0627996
0.0620517
0.0628773
0.0611485
0.0598134
0.057447
0.0536838
0.0490278
0.0424494
0.034571
0.0241373
0.0525164
0.0532695
0.0525106
0.0530995
0.0532116
0.0551245
0.0532885
0.0555456
0.0558331
0.0551034
0.0565842
0.0574101
0.0576942
0.0592859
0.0582493
0.060032
0.0602269
0.0594729
0.0587216
0.0589776
0.0566355
0.0545204
0.0516695
0.0472627
0.0417886
0.0351106
0.0272919
0.0173908
0.0520208
0.0531718
0.0522338
0.0527792
0.0527326
0.0545339
0.0527979
0.0549197
0.055039
0.0544159
0.055713
0.0562256
0.0563968
0.0574554
0.0566024
0.0574163
0.0578669
0.0563471
0.0552159
0.054999
0.0521443
0.0492707
0.0461685
0.0413383
0.0351745
0.0286352
0.0212008
0.0118489
0.0515282
0.0529831
0.0519952
0.0524199
0.0523045
0.0538208
0.0523265
0.0541461
0.0542372
0.0535683
0.0547509
0.0549841
0.0549827
0.0555049
0.0550164
0.0546992
0.0551951
0.0534758
0.051545
0.0509376
0.0478639
0.0442799
0.0407625
0.0360011
0.02957
0.0230528
0.0161125
0.00747285
0.0510614
0.0526523
0.0517598
0.05193
0.0518905
0.0529863
0.0518678
0.0532253
0.0533598
0.05266
0.0536299
0.0536917
0.0534727
0.0533999
0.0533112
0.0521705
0.0522422
0.0506066
0.0480169
0.0469168
0.0437157
0.0396355
0.0356742
0.0312812
0.024998
0.018372
0.0118253
0.0040762
0.0506254
0.0521585
0.051473
0.0514523
0.0514626
0.0521343
0.0513577
0.0521998
0.0523561
0.0517849
0.0523101
0.0523115
0.0520143
0.0511827
0.0513447
0.0499113
0.0491485
0.0476048
0.0446902
0.0429604
0.0397549
0.0355051
0.0311257
0.0269583
0.0212215
0.0146891
0.00840283
0.00150214
0.0502077
0.0515414
0.0510525
0.0509983
0.0509942
0.0512937
0.0507739
0.0511343
0.0512076
0.0509286
0.050919
0.0507293
0.0505741
0.049065
0.0490406
0.0477241
0.0461768
0.044466
0.0414386
0.0392164
0.0360719
0.0318514
0.0272215
0.0231175
0.0180817
0.011975
0.00589264
-0.000409406
0.0497764
0.050886
0.0504648
0.0504982
0.0504868
0.0504229
0.0501257
0.0500963
0.0499231
0.0500268
0.0495628
0.0489602
0.0490459
0.0471801
0.0465352
0.0453974
0.0434439
0.0413491
0.0382949
0.0357481
0.0326788
0.0286695
0.0240517
0.0198964
0.0153867
0.00997422
0.00424238
-0.0015544
0.0492968
0.0502377
0.0497276
0.0498887
0.0499548
0.049531
0.0493878
0.0491028
0.048553
0.048969
0.0482774
0.0471139
0.0472431
0.0454603
0.0440879
0.0428202
0.0408386
0.0385259
0.0353956
0.0325895
0.0296196
0.0259174
0.0215046
0.0173362
0.013196
0.00854345
0.00338766
-0.00192749
0.0487443
0.0496072
0.0489486
0.0491535
0.0493829
0.0486412
0.0485128
0.0481358
0.0471882
0.0477069
0.0470218
0.0453127
0.0452111
0.0437682
0.0418648
0.0401866
0.0382865
0.0359905
0.0328558
0.0298224
0.0268981
0.0235391
0.0195078
0.0155041
0.0116175
0.00756877
0.00306186
-0.00171261
0.0481173
0.0489754
0.0481881
0.0483023
0.0487323
0.0477689
0.0475067
0.047139
0.0458894
0.0462657
0.0457162
0.0436565
0.0430686
0.0419299
0.0398997
0.037763
0.035775
0.0336466
0.0306921
0.0275263
0.0245852
0.0215338
0.0179596
0.0142766
0.0106405
0.00704425
0.00315804
-0.00100457
0.0474391
0.0483077
0.047439
0.0473688
0.0479742
0.0469139
0.0464063
0.0460495
0.0446678
0.0447428
0.0442895
0.0421272
0.0409558
0.0399491
0.0381103
0.0356645
0.0334442
0.0314401
0.0288354
0.025728
0.0227363
0.0198867
0.0167684
0.0135262
0.0102358
0.00701176
0.00363479
3.88738e-05
0.0467303
0.0475776
0.0466869
0.0464048
0.0471096
0.046056
0.0452624
0.044855
0.0434888
0.0432324
0.0427549
0.0406717
0.0390093
0.0379272
0.0363791
0.0338987
0.0314341
0.0294107
0.0271916
0.0243395
0.0213709
0.0186617
0.0159185
0.0131362
0.0102592
0.00739832
0.00444553
0.00134567
0.0460105
0.0467765
0.0459016
0.0454412
0.0461569
0.0451527
0.0441243
0.0436055
0.0422877
0.0417817
0.0411887
0.0392287
0.0372697
0.0359975
0.034679
0.0323655
0.0297726
0.02767
0.0257305
0.0232653
0.0204673
0.0178658
0.0153963
0.0130165
0.0105689
0.00810362
0.00554727
0.00287467
0.0452794
0.0459099
0.0450574
0.044488
0.0451482
0.0441899
0.0429957
0.0423386
0.0410558
0.040382
0.0396485
0.0378037
0.0357258
0.0342575
0.0330337
0.0309679
0.0284578
0.0262933
0.0244907
0.0224053
0.0198985
0.0174662
0.0152151
0.0131469
0.0110864
0.00901197
0.0068429
0.00456116
0.044528
0.0450092
0.0441499
0.0435307
0.0441143
0.0431775
0.0418696
0.0410971
0.0398186
0.0390138
0.0381757
0.0364316
0.034343
0.0327485
0.0315254
0.0297002
0.0273998
0.025263
0.0235272
0.0217221
0.0195744
0.0173947
0.0153495
0.0135166
0.0117618
0.0100324
0.00823674
0.00632747
0.0437388
0.0441
0.0431827
0.0425436
0.0430692
0.0421323
0.0407617
0.0398884
0.038596
0.0377046
0.0368005
0.0351228
0.0331062
0.0314874
0.030214
0.0285562
0.0265352
0.0245473
0.0228603
0.0212333
0.0194189
0.0175399
0.0157291
0.0140922
0.0125741
0.0111339
0.00966763
0.00810619
0.0428915
0.0431791
0.0421569
0.0415129
0.0419989
0.0410804
0.0396951
0.0387028
0.0374034
0.0364759
0.0355221
0.0338967
0.0320232
0.0304392
0.0291121
0.0275831
0.0258377
0.0240508
0.0224482
0.0209552
0.0194078
0.0178243
0.0162623
0.0148222
0.0135016
0.0122874
0.0110888
0.00983043
0.0420031
0.042255
0.0411611
0.0404458
0.0408968
0.0400561
0.0386445
0.0375308
0.036282
0.0353364
0.0343297
0.0327885
0.0310872
0.0295633
0.0282218
0.0268027
0.0252823
0.0237154
0.0222486
0.0208781
0.0195319
0.0181982
0.016878
0.0156398
0.0144968
0.0134654
0.0124786
0.0114697
0.0410932
0.0413381
0.0402621
0.0394108
0.0397794
0.0390928
0.037624
0.0364012
0.0352505
0.0342922
0.0332353
0.0318212
0.0303059
0.0288545
0.0275261
0.0262192
0.0248855
0.023516
0.0221944
0.0209576
0.0197824
0.018651
0.0175397
0.0164872
0.0155123
0.0146377
0.0138203
0.0130077
0.0401683
0.0404473
0.0395041
0.0384733
0.0386872
0.0381604
0.0367005
0.0353658
0.0342971
0.033368
0.0322772
0.0309971
0.0296544
0.0282952
0.0270161
0.0258157
0.0246314
0.0234279
0.022256
0.0211598
0.020132
0.0191587
0.0182174
0.0173287
0.0165071
0.0157687
0.0150888
0.0144311
0.0392435
0.0395777
0.0388601
0.0376452
0.0376087
0.0371999
0.0358885
0.0344865
0.0334179
0.0325441
0.0314726
0.0302905
0.029089
0.0278586
0.0266605
0.0255465
0.0244851
0.0234306
0.0224019
0.0214327
0.0205332
0.0196934
0.0188955
0.0181445
0.0174521
0.0168298
0.016265
0.0157325
0.038374
0.0386968
0.0382242
0.0369299
0.0365785
0.0362068
0.0351438
0.033777
0.0326439
0.0318127
0.0308081
0.0297029
0.0286117
0.0275165
0.0264254
0.0253897
0.0244303
0.0235035
0.0226058
0.0217499
0.0209589
0.0202291
0.0195485
0.0189131
0.0183301
0.0178081
0.0173416
0.016915
0.0375986
0.0378243
0.0375586
0.0363237
0.0356893
0.0352775
0.034409
0.0331883
0.0320214
0.0311834
0.0302597
0.0292382
0.0282377
0.0272562
0.0262802
0.0253292
0.0244549
0.0236295
0.0228413
0.0220846
0.0213829
0.0207407
0.0201516
0.0196082
0.0191125
0.0186723
0.0182874
0.0179509
0.0369409
0.0370219
0.0368689
0.035824
0.0349928
0.0344739
0.033713
0.0326817
0.0315554
0.0306785
0.0298171
0.028887
0.0279722
0.0270809
0.0262125
0.0253543
0.0245553
0.023806
0.0231002
0.022425
0.0217937
0.0212142
0.0206858
0.0202052
0.0197707
0.0193881
0.0190583
0.0187811
0.0364113
0.0363418
0.0362068
0.0353924
0.0344696
0.0338398
0.0331229
0.0322382
0.0312106
0.0303075
0.0294865
0.0286424
0.0278133
0.0270049
0.0262303
0.0254667
0.0247417
0.0240603
0.0234204
0.0228096
0.0222274
0.0216825
0.0211784
0.0207173
0.0202979
0.0199256
0.0196041
0.019339
0.0360189
0.0358382
0.0356534
0.0350285
0.0341066
0.0333829
0.0326632
0.0318573
0.0309408
0.0300424
0.0292378
0.0284486
0.0276828
0.0269345
0.0262216
0.0255354
0.0248889
0.0242959
0.0237587
0.0232733
0.0228303
0.0224298
0.0220669
0.0217376
0.0214305
0.0211365
0.0208438
0.0205428
0.0357915
0.035546
0.0353064
0.0348069
0.0339425
0.0331858
0.0324788
0.031712
0.0308553
0.0299663
0.0291542
0.0283738
0.0276274
0.0269091
0.0262321
0.0255934
0.0249909
0.024436
0.0239287
0.023469
0.0230459
0.0226573
0.0222975
0.0219653
0.0216531
0.0213529
0.0210529
0.0207426
)
;

boundaryField
{
    outlet
    {
        type            fixedValue;
        value           nonuniform 0();
    }
    upperWall
    {
        type            symmetryPlane;
    }
    lowerWall
    {
        type            symmetryPlane;
    }
    inlet
    {
        type            zeroGradient;
    }
    cylinder
    {
        type            zeroGradient;
    }
    frontAndBack
    {
        type            empty;
    }
    procBoundary4to0
    {
        type            processor;
        value           nonuniform List<scalar> 
33
(
0.193093
0.203387
0.214219
0.0596595
0.05506
0.0574787
0.0577029
0.0598211
0.0593316
0.0610314
0.06186
0.0630765
0.0644098
0.0664942
0.0680931
0.0704984
0.0732688
0.0761468
0.0792036
0.0828576
0.0870329
0.0916061
0.0964932
0.102058
0.108283
0.115112
0.122461
0.130548
0.139343
0.148872
0.159039
0.169966
0.181768
)
;
    }
    procBoundary4to5
    {
        type            processor;
        value           nonuniform List<scalar> 
45
(
0.218337
0.206762
0.191512
0.16529
0.16529
0.144926
0.120375
0.120375
0.101128
0.101128
0.0854356
0.0854356
0.0657813
0.0519074
0.0519074
0.0307181
0.0190377
0.0117434
0.00578793
0.000917919
-0.00273312
-0.00522698
-0.00684925
-0.00777979
-0.00803393
-0.00771359
-0.00685228
-0.00550905
-0.00385544
-0.00199104
1.7907e-05
0.00212048
0.0042668
0.00639844
0.00844856
0.0103727
0.0121461
0.0137583
0.0152092
0.0165137
0.0176542
0.0185548
0.0191334
0.0202229
0.0204111
)
;
    }
}


// ************************************************************************* //
