/*--------------------------------*- C++ -*----------------------------------*\
| =========                 |                                                 |
| \\      /  F ield         | OpenFOAM: The Open Source CFD Toolbox           |
|  \\    /   O peration     | Version:                                        |
|   \\  /    A nd           | Website:  www.openfoam.com                      |
|    \\/     M anipulation  |                                                 |
\*---------------------------------------------------------------------------*/
FoamFile
{
    version     2.0;
    format      ascii;
    class       volScalarField;
    location    "1";
    object      p;
}
// * * * * * * * * * * * * * * * * * * * * * * * * * * * * * * * * * * * * * //

dimensions      [0 2 -2 0 0 0 0];


internalField   nonuniform List<scalar> 
400
(
0.131055
0.124079
0.117138
0.11023
0.103355
0.0965113
0.0896975
0.0829129
0.0761554
0.0694258
0.0627201
0.0560417
0.0493816
0.0427521
0.0361291
0.0295497
0.0229474
0.0164317
0.0098115
0.0034099
0.131044
0.124069
0.117128
0.110221
0.103346
0.0965025
0.089689
0.0829047
0.0761477
0.0694184
0.0627131
0.056035
0.0493754
0.042746
0.0361238
0.0295442
0.0229433
0.0164262
0.00980974
0.00340302
0.131023
0.124048
0.117108
0.110202
0.103328
0.0964852
0.0896724
0.082889
0.0761327
0.0694041
0.0626994
0.056022
0.0493633
0.0427343
0.0361134
0.0295335
0.0229355
0.0164156
0.00980637
0.00338967
0.130992
0.124018
0.11708
0.110175
0.103302
0.0964604
0.0896488
0.0828663
0.0761111
0.0693835
0.0626799
0.0560033
0.0493459
0.0427175
0.0360986
0.0295182
0.0229243
0.0164005
0.00980158
0.00337061
0.130953
0.123981
0.117044
0.110141
0.10327
0.0964295
0.0896192
0.082838
0.0760841
0.0693577
0.0626555
0.05598
0.0493242
0.0426965
0.0360801
0.0294993
0.0229104
0.0163819
0.00979564
0.00334692
0.130908
0.123939
0.117004
0.110102
0.103232
0.0963938
0.0895851
0.0828054
0.0760531
0.069328
0.0626274
0.0559532
0.0492993
0.0426725
0.036059
0.0294777
0.0228944
0.0163608
0.00978887
0.00331991
0.13086
0.123892
0.116959
0.110059
0.103192
0.096355
0.089548
0.08277
0.0760193
0.0692959
0.062597
0.0559242
0.0492723
0.0426466
0.0360361
0.0294545
0.0228772
0.0163385
0.0097816
0.00329103
0.130809
0.123844
0.116913
0.110015
0.10315
0.0963148
0.0895096
0.0827333
0.0759844
0.0692625
0.0625655
0.0558941
0.0492444
0.0426199
0.0360124
0.0294309
0.0228595
0.0163161
0.00977415
0.00326177
0.130759
0.123796
0.116867
0.109971
0.103107
0.0962745
0.0894712
0.0826966
0.0759494
0.0692292
0.062534
0.0558642
0.0492166
0.0425934
0.0359889
0.0294077
0.022842
0.0162945
0.00976678
0.00323356
0.13071
0.123749
0.116822
0.109928
0.103067
0.0962354
0.0894338
0.082661
0.0759155
0.0691969
0.0625034
0.0558351
0.0491896
0.0425677
0.0359662
0.0293856
0.0228251
0.0162747
0.00975964
0.00320769
0.130663
0.123704
0.116779
0.109888
0.103028
0.0961982
0.0893983
0.0826271
0.0758832
0.0691661
0.0624742
0.0558075
0.0491638
0.0425435
0.0359445
0.029365
0.0228091
0.016257
0.0097528
0.00318522
0.130619
0.123662
0.116739
0.109849
0.102991
0.0961632
0.0893649
0.0825952
0.0758528
0.0691371
0.0624468
0.0557815
0.0491396
0.0425207
0.0359241
0.0293459
0.0227939
0.0162417
0.00974615
0.00316693
0.130578
0.123623
0.116702
0.109813
0.102956
0.0961303
0.0893334
0.0825651
0.0758241
0.0691098
0.0624209
0.0557569
0.0491166
0.0424991
0.0359046
0.0293281
0.0227793
0.0162284
0.00973941
0.00315322
0.130538
0.123585
0.116666
0.109779
0.102924
0.0960987
0.0893033
0.0825363
0.0757966
0.0690835
0.062396
0.0557332
0.0490944
0.0424782
0.0358855
0.0293108
0.0227647
0.0162165
0.00973209
0.00314405
0.1305
0.123548
0.11663
0.109745
0.102891
0.0960676
0.0892735
0.0825077
0.0757693
0.0690575
0.0623711
0.0557095
0.049072
0.0424572
0.035866
0.0292933
0.0227491
0.0162048
0.0097234
0.00313888
0.13046
0.12351
0.116594
0.10971
0.102858
0.0960357
0.0892429
0.0824784
0.0757412
0.0690305
0.0623453
0.0556849
0.0490486
0.042435
0.0358451
0.0292744
0.0227316
0.016192
0.00971232
0.00313667
0.130419
0.12347
0.116556
0.109673
0.102822
0.0960017
0.0892103
0.0824471
0.0757111
0.0690016
0.0623177
0.0556584
0.0490232
0.0424109
0.0358221
0.0292532
0.0227114
0.0161768
0.00969763
0.00313602
0.130372
0.123426
0.116513
0.109632
0.102783
0.0959635
0.0891735
0.0824117
0.0756771
0.0689689
0.0622862
0.0556282
0.0489941
0.0423831
0.0357953
0.029228
0.0226868
0.0161569
0.0096769
0.00313434
0.130313
0.123369
0.116458
0.10958
0.102732
0.0959152
0.089127
0.0823669
0.0756341
0.0689275
0.0622463
0.0555897
0.048957
0.0423473
0.0357607
0.029195
0.0226541
0.0161279
0.00964488
0.00312491
0.130244
0.123302
0.116394
0.109518
0.102673
0.0958577
0.0890717
0.0823136
0.0755827
0.068878
0.0621986
0.0555437
0.0489126
0.0423044
0.0357191
0.0291548
0.0226144
0.0160898
0.00960299
0.00310065
)
;

boundaryField
{
    fixedWalls
    {
        type            zeroGradient;
    }
    inlet
    {
        type            zeroGradient;
    }
    outlet
    {
        type            fixedValue;
        value           uniform 0;
    }
    frontAndBack
    {
        type            empty;
    }
    procBoundary7to3
    {
        type            processor;
        value           nonuniform List<scalar> 
20
(
0.131055
0.124079
0.117138
0.11023
0.103355
0.0965114
0.0896974
0.0829128
0.0761555
0.0694259
0.0627201
0.0560417
0.0493816
0.042752
0.036129
0.0295498
0.0229474
0.0164317
0.00981142
0.00340988
)
;
    }
    procBoundary7to6
    {
        type            processor;
        value           nonuniform List<scalar> 
20
(
0.138068
0.138056
0.138034
0.138001
0.137961
0.137914
0.137863
0.13781
0.137757
0.137706
0.137657
0.137611
0.137568
0.137527
0.137486
0.137445
0.137402
0.137353
0.137292
0.13722
)
;
    }
}


// ************************************************************************* //
