/*--------------------------------*- C++ -*----------------------------------*\
| =========                 |                                                 |
| \\      /  F ield         | OpenFOAM: The Open Source CFD Toolbox           |
|  \\    /   O peration     | Version:                                        |
|   \\  /    A nd           | Website:  www.openfoam.com                      |
|    \\/     M anipulation  |                                                 |
\*---------------------------------------------------------------------------*/
FoamFile
{
    version     2.0;
    format      ascii;
    class       surfaceScalarField;
    location    "1";
    object      phi;
}
// * * * * * * * * * * * * * * * * * * * * * * * * * * * * * * * * * * * * * //

dimensions      [0 3 -1 0 0 0 0];
oriented        oriented;


internalField   nonuniform List<scalar> 
760
(
3.61677e-05
-5.00108e-08
3.62158e-05
-4.81032e-08
3.62621e-05
-4.62715e-08
3.63066e-05
-4.45121e-08
3.63494e-05
-4.28237e-08
3.63906e-05
-4.11993e-08
3.64303e-05
-3.9643e-08
3.64684e-05
-3.81428e-08
3.65051e-05
-3.67147e-08
3.65405e-05
-3.5325e-08
3.65745e-05
-3.40252e-08
3.66072e-05
-3.27259e-08
3.66388e-05
-3.15728e-08
3.66691e-05
-3.03244e-08
3.66985e-05
-2.93688e-08
3.67266e-05
-2.80932e-08
3.6754e-05
-2.74402e-08
3.678e-05
-2.60061e-08
3.68058e-05
-2.5784e-08
-2.41459e-08
3.6039e-05
-9.77413e-08
3.6085e-05
-9.40117e-08
3.61291e-05
-9.04306e-08
3.61716e-05
-8.69904e-08
3.62125e-05
-8.36893e-08
3.62518e-05
-8.05145e-08
3.62896e-05
-7.74734e-08
3.6326e-05
-7.45415e-08
3.6361e-05
-7.175e-08
3.63947e-05
-6.90349e-08
3.64272e-05
-6.64945e-08
3.64584e-05
-6.39575e-08
3.64886e-05
-6.17025e-08
3.65175e-05
-5.92679e-08
3.65455e-05
-5.73967e-08
3.65724e-05
-5.49121e-08
3.65986e-05
-5.36299e-08
3.66234e-05
-5.084e-08
3.6648e-05
-5.04014e-08
-4.72071e-08
3.5778e-05
-1.41053e-07
3.58196e-05
-1.35666e-07
3.58597e-05
-1.30494e-07
3.58982e-05
-1.25527e-07
3.59353e-05
-1.20761e-07
3.5971e-05
-1.16178e-07
3.60053e-05
-1.11789e-07
3.60383e-05
-1.07558e-07
3.60701e-05
-1.03529e-07
3.61006e-05
-9.96133e-08
3.61301e-05
-9.59461e-08
3.61584e-05
-9.22906e-08
3.61858e-05
-8.90327e-08
3.6212e-05
-8.55314e-08
3.62375e-05
-8.28221e-08
3.62618e-05
-7.9258e-08
3.62856e-05
-7.73931e-08
3.63081e-05
-7.33958e-08
3.63305e-05
-7.27512e-08
-6.81595e-08
3.53774e-05
-1.78082e-07
3.5413e-05
-1.71272e-07
3.54472e-05
-1.64737e-07
3.54801e-05
-1.58461e-07
3.55118e-05
-1.52441e-07
3.55423e-05
-1.46654e-07
3.55716e-05
-1.41111e-07
3.55998e-05
-1.35771e-07
3.5627e-05
-1.30683e-07
3.56531e-05
-1.25744e-07
3.56783e-05
-1.21113e-07
3.57025e-05
-1.16507e-07
3.57258e-05
-1.12388e-07
3.57483e-05
-1.07989e-07
3.577e-05
-1.04553e-07
3.57909e-05
-1.00091e-07
3.58112e-05
-9.77105e-08
3.58305e-05
-9.27168e-08
3.58496e-05
-9.18814e-08
-8.61185e-08
3.48272e-05
-2.07349e-07
3.48553e-05
-1.9941e-07
3.48824e-05
-1.91794e-07
3.49084e-05
-1.84481e-07
3.49334e-05
-1.77467e-07
3.49575e-05
-1.70728e-07
3.49807e-05
-1.64273e-07
3.50029e-05
-1.58057e-07
3.50244e-05
-1.52133e-07
3.5045e-05
-1.46389e-07
3.50649e-05
-1.40994e-07
3.50841e-05
-1.35646e-07
3.51025e-05
-1.30842e-07
3.51203e-05
-1.2575e-07
3.51374e-05
-1.21727e-07
3.51539e-05
-1.1659e-07
3.517e-05
-1.13779e-07
3.51853e-05
-1.08047e-07
3.52005e-05
-1.0704e-07
-1.00387e-07
3.41154e-05
-2.27844e-07
3.41351e-05
-2.1911e-07
3.41541e-05
-2.10732e-07
3.41723e-05
-2.02692e-07
3.41898e-05
-1.94982e-07
3.42066e-05
-1.87575e-07
3.42228e-05
-1.80483e-07
3.42384e-05
-1.73656e-07
3.42534e-05
-1.67147e-07
3.42679e-05
-1.60843e-07
3.42818e-05
-1.54913e-07
3.42952e-05
-1.49056e-07
3.43082e-05
-1.43766e-07
3.43206e-05
-1.38212e-07
3.43326e-05
-1.33761e-07
3.43443e-05
-1.28197e-07
3.43555e-05
-1.25053e-07
3.43664e-05
-1.18873e-07
3.4377e-05
-1.17717e-07
-1.10493e-07
3.32289e-05
-2.39072e-07
3.32397e-05
-2.29898e-07
3.325e-05
-2.21101e-07
3.326e-05
-2.12661e-07
3.32696e-05
-2.04569e-07
3.32788e-05
-1.96799e-07
3.32877e-05
-1.89357e-07
3.32962e-05
-1.82199e-07
3.33045e-05
-1.75371e-07
3.33124e-05
-1.68767e-07
3.332e-05
-1.62544e-07
3.33274e-05
-1.56421e-07
3.33345e-05
-1.50859e-07
3.33413e-05
-1.45081e-07
3.3348e-05
-1.40376e-07
3.33544e-05
-1.34638e-07
3.33606e-05
-1.31271e-07
3.33667e-05
-1.24944e-07
3.33726e-05
-1.23665e-07
-1.16213e-07
3.21543e-05
-2.41065e-07
3.21562e-05
-2.31809e-07
3.2158e-05
-2.22935e-07
3.21598e-05
-2.14423e-07
3.21615e-05
-2.06264e-07
3.21631e-05
-1.98432e-07
3.21647e-05
-1.90931e-07
3.21662e-05
-1.8372e-07
3.21677e-05
-1.76839e-07
3.21691e-05
-1.70193e-07
3.21705e-05
-1.63918e-07
3.21718e-05
-1.57769e-07
3.21731e-05
-1.52149e-07
3.21744e-05
-1.46379e-07
3.21756e-05
-1.41598e-07
3.21769e-05
-1.3593e-07
3.21781e-05
-1.32455e-07
3.21794e-05
-1.26275e-07
3.21807e-05
-1.24903e-07
-1.1757e-07
3.08789e-05
-2.34355e-07
3.08725e-05
-2.25354e-07
3.08663e-05
-2.16728e-07
3.08603e-05
-2.08455e-07
3.08546e-05
-2.00527e-07
3.08491e-05
-1.92918e-07
3.08438e-05
-1.85631e-07
3.08387e-05
-1.7863e-07
3.08338e-05
-1.71944e-07
3.08291e-05
-1.65497e-07
3.08246e-05
-1.59399e-07
3.08202e-05
-1.53449e-07
3.08161e-05
-1.47976e-07
3.08121e-05
-1.42426e-07
3.08083e-05
-1.3774e-07
3.08047e-05
-1.32363e-07
3.08011e-05
-1.28896e-07
3.0798e-05
-1.23132e-07
3.07948e-05
-1.21696e-07
-1.14823e-07
2.93919e-05
-2.19915e-07
2.9378e-05
-2.11472e-07
2.93647e-05
-2.03381e-07
2.93518e-05
-1.95625e-07
2.93395e-05
-1.88191e-07
2.93276e-05
-1.81059e-07
2.93162e-05
-1.74228e-07
2.93053e-05
-1.67668e-07
2.92947e-05
-1.61401e-07
2.92846e-05
-1.55366e-07
2.92748e-05
-1.49647e-07
2.92655e-05
-1.4409e-07
2.92564e-05
-1.38948e-07
2.92478e-05
-1.338e-07
2.92395e-05
-1.29368e-07
2.92316e-05
-1.24463e-07
2.92238e-05
-1.2112e-07
2.92166e-05
-1.15997e-07
2.92095e-05
-1.14533e-07
-1.08432e-07
2.76841e-05
-1.99077e-07
2.76641e-05
-1.91441e-07
2.76448e-05
-1.84125e-07
2.76263e-05
-1.77112e-07
2.76085e-05
-1.70392e-07
2.75914e-05
-1.63945e-07
2.75749e-05
-1.5777e-07
2.75591e-05
-1.51843e-07
2.75439e-05
-1.46178e-07
2.75292e-05
-1.40729e-07
2.75151e-05
-1.35558e-07
2.75016e-05
-1.30552e-07
2.74885e-05
-1.25895e-07
2.7476e-05
-1.21291e-07
2.74639e-05
-1.17251e-07
2.74524e-05
-1.12952e-07
2.74411e-05
-1.09841e-07
2.74307e-05
-1.05525e-07
2.74202e-05
-1.04074e-07
-9.90238e-08
2.5749e-05
-1.73431e-07
2.57243e-05
-1.6679e-07
2.57006e-05
-1.60427e-07
2.56778e-05
-1.54328e-07
2.56559e-05
-1.48484e-07
2.56349e-05
-1.42878e-07
2.56146e-05
-1.37509e-07
2.55951e-05
-1.32356e-07
2.55764e-05
-1.27429e-07
2.55583e-05
-1.22696e-07
2.5541e-05
-1.18198e-07
2.55243e-05
-1.1386e-07
2.55082e-05
-1.09803e-07
2.54927e-05
-1.05843e-07
2.54778e-05
-1.02304e-07
2.54635e-05
-9.86942e-08
2.54496e-05
-9.59105e-08
2.54366e-05
-9.24989e-08
2.54236e-05
-9.11083e-08
-8.73366e-08
2.35825e-05
-1.44722e-07
2.35549e-05
-1.39193e-07
2.35284e-05
-1.33896e-07
2.35029e-05
-1.28818e-07
2.34783e-05
-1.23952e-07
2.34547e-05
-1.19285e-07
2.3432e-05
-1.14814e-07
2.34102e-05
-1.10524e-07
2.33892e-05
-1.06422e-07
2.3369e-05
-1.02484e-07
2.33495e-05
-9.87381e-08
2.33308e-05
-9.51371e-08
2.33128e-05
-9.17557e-08
2.32954e-05
-8.84939e-08
2.32786e-05
-8.55303e-08
2.32626e-05
-8.26404e-08
2.32469e-05
-8.02615e-08
2.32322e-05
-7.77773e-08
2.32176e-05
-7.65033e-08
-7.41701e-08
2.11829e-05
-1.14755e-07
2.11541e-05
-1.10383e-07
2.11264e-05
-1.06194e-07
2.10998e-05
-1.02179e-07
2.10741e-05
-9.83304e-08
2.10495e-05
-9.46396e-08
2.10258e-05
-9.11033e-08
2.1003e-05
-8.7711e-08
2.0981e-05
-8.44664e-08
2.09599e-05
-8.13541e-08
2.09395e-05
-7.8391e-08
2.092e-05
-7.55508e-08
2.09011e-05
-7.28753e-08
2.08829e-05
-7.03229e-08
2.08653e-05
-6.79704e-08
2.08485e-05
-6.57828e-08
2.08321e-05
-6.38603e-08
2.08166e-05
-6.22509e-08
2.08012e-05
-6.11534e-08
-6.03309e-08
1.85506e-05
-8.53039e-08
1.85222e-05
-8.20651e-08
1.8495e-05
-7.89615e-08
1.84688e-05
-7.59861e-08
1.84436e-05
-7.31338e-08
1.84194e-05
-7.03983e-08
1.8396e-05
-6.77769e-08
1.83736e-05
-6.52626e-08
1.8352e-05
-6.28574e-08
1.83312e-05
-6.05516e-08
1.83111e-05
-5.83554e-08
1.82919e-05
-5.62555e-08
1.82732e-05
-5.42727e-08
1.82553e-05
-5.24007e-08
1.8238e-05
-5.06545e-08
1.82213e-05
-4.91113e-08
1.82051e-05
-4.76631e-08
1.81897e-05
-4.6807e-08
1.81745e-05
-4.59387e-08
-4.65811e-08
1.56873e-05
-5.80553e-08
1.56611e-05
-5.58595e-08
1.56358e-05
-5.3755e-08
1.56116e-05
-5.1737e-08
1.55883e-05
-4.98023e-08
1.55658e-05
-4.79465e-08
1.55442e-05
-4.6168e-08
1.55234e-05
-4.44621e-08
1.55034e-05
-4.28302e-08
1.54841e-05
-4.12664e-08
1.54655e-05
-3.97767e-08
1.54476e-05
-3.83554e-08
1.54303e-05
-3.70113e-08
1.54137e-05
-3.57548e-08
1.53976e-05
-3.45703e-08
1.53821e-05
-3.35817e-08
1.5367e-05
-3.2587e-08
1.53525e-05
-3.2306e-08
1.53383e-05
-3.16932e-08
-3.35968e-08
1.25959e-05
-3.45626e-08
1.25733e-05
-3.32609e-08
1.25516e-05
-3.2013e-08
1.25307e-05
-3.08161e-08
1.25105e-05
-2.96685e-08
1.24912e-05
-2.85674e-08
1.24725e-05
-2.75121e-08
1.24545e-05
-2.64999e-08
1.24372e-05
-2.55315e-08
1.24206e-05
-2.46039e-08
1.24045e-05
-2.37203e-08
1.2389e-05
-2.28789e-08
1.23741e-05
-2.20821e-08
1.23597e-05
-2.13452e-08
1.23458e-05
-2.06422e-08
1.23323e-05
-2.00958e-08
1.23192e-05
-1.94947e-08
1.23065e-05
-1.95719e-08
1.2294e-05
-1.91901e-08
-2.19465e-08
9.27994e-06
-1.62319e-08
9.2623e-06
-1.56234e-08
9.24533e-06
-1.504e-08
9.22899e-06
-1.44802e-08
9.21327e-06
-1.39433e-08
9.19813e-06
-1.34281e-08
9.18355e-06
-1.29343e-08
9.16951e-06
-1.24606e-08
9.15599e-06
-1.20074e-08
9.14296e-06
-1.15734e-08
9.1304e-06
-1.11601e-08
9.11829e-06
-1.07673e-08
9.1066e-06
-1.03947e-08
9.09531e-06
-1.00547e-08
9.08439e-06
-9.72373e-09
9.07379e-06
-9.493e-09
9.06349e-06
-9.19511e-09
9.05332e-06
-9.40211e-09
9.04329e-06
-9.16503e-09
-1.20875e-08
5.74257e-06
-4.3278e-09
5.73111e-06
-4.16654e-09
5.72008e-06
-4.01184e-09
5.70946e-06
-3.86335e-09
5.69924e-06
-3.72091e-09
5.6894e-06
-3.58416e-09
5.67992e-06
-3.4531e-09
5.67078e-06
-3.32729e-09
5.66198e-06
-3.20704e-09
5.6535e-06
-3.09182e-09
5.64532e-06
-2.98217e-09
5.63743e-06
-2.87821e-09
5.62982e-06
-2.77914e-09
5.62245e-06
-2.69095e-09
5.61533e-06
-2.60063e-09
5.60839e-06
-2.55113e-09
5.60165e-06
-2.45628e-09
5.59484e-06
-2.5921e-09
5.58813e-06
-2.45373e-09
-4.34923e-09
1.98652e-06
1.98235e-06
1.97834e-06
1.97448e-06
1.97076e-06
1.96717e-06
1.96372e-06
1.96039e-06
1.95718e-06
1.95409e-06
1.95111e-06
1.94823e-06
1.94545e-06
1.94276e-06
1.94016e-06
1.93761e-06
1.93515e-06
1.93256e-06
1.93011e-06
)
;

boundaryField
{
    fixedWalls
    {
        type            calculated;
        value           uniform 0;
    }
    inlet
    {
        type            calculated;
        value           nonuniform 0();
    }
    outlet
    {
        type            calculated;
        value           nonuniform List<scalar> 
20
(
3.683e-05
3.66711e-05
3.63514e-05
3.58676e-05
3.52148e-05
3.43871e-05
3.33784e-05
3.2182e-05
3.0792e-05
2.92031e-05
2.74108e-05
2.54119e-05
2.32044e-05
2.07874e-05
1.81607e-05
1.53253e-05
1.22823e-05
9.03343e-06
5.58039e-06
1.92576e-06
)
;
    }
    frontAndBack
    {
        type            empty;
        value           nonuniform 0();
    }
    procBoundary7to3
    {
        type            processor;
        value           nonuniform List<scalar> 
20
(
-3.1173e-12
-1.62622e-12
4.0496e-13
-1.22512e-12
-4.60977e-12
-4.17331e-12
-1.26254e-12
-1.04767e-12
-3.51226e-12
-3.95949e-12
-3.07454e-12
-3.76702e-12
-3.80534e-12
-1.5699e-12
-1.51099e-12
-5.43423e-12
-6.65572e-12
-3.519e-12
-2.05759e-12
-3.88233e-12
)
;
    }
    procBoundary7to6
    {
        type            processor;
        value           nonuniform List<scalar> 
20
(
-3.61177e-05
-3.59913e-05
-3.57347e-05
-3.53403e-05
-3.47979e-05
-3.40949e-05
-3.32177e-05
-3.21523e-05
-3.08857e-05
-2.94063e-05
-2.77049e-05
-2.57746e-05
-2.36112e-05
-2.12129e-05
-1.858e-05
-1.57145e-05
-1.26194e-05
-9.29827e-06
-5.75447e-06
-1.99085e-06
)
;
    }
}


// ************************************************************************* //
