/*--------------------------------*- C++ -*----------------------------------*\
| =========                 |                                                 |
| \\      /  F ield         | OpenFOAM: The Open Source CFD Toolbox           |
|  \\    /   O peration     | Version:                                        |
|   \\  /    A nd           | Website:  www.openfoam.com                      |
|    \\/     M anipulation  |                                                 |
\*---------------------------------------------------------------------------*/
FoamFile
{
    version     2.0;
    format      ascii;
    class       volVectorField;
    location    "1";
    object      U;
}
// * * * * * * * * * * * * * * * * * * * * * * * * * * * * * * * * * * * * * //

dimensions      [0 1 -1 0 0 0 0];


internalField   nonuniform List<vector> 
400
(
(1.44573 -0.000505946 0)
(1.44769 -0.000486664 0)
(1.44958 -0.000468157 0)
(1.45139 -0.000450347 0)
(1.45314 -0.000433237 0)
(1.45482 -0.000416802 0)
(1.45643 -0.000401087 0)
(1.45799 -0.000385913 0)
(1.45948 -0.000371442 0)
(1.46093 -0.000357371 0)
(1.46231 -0.00034423 0)
(1.46365 -0.000331072 0)
(1.46492 -0.000319408 0)
(1.46619 -0.000306788 0)
(1.46733 -0.00029713 0)
(1.46856 -0.000284173 0)
(1.46954 -0.000277551 0)
(1.47084 -0.000263058 0)
(1.47149 -0.000260809 0)
(1.47312 -0.000244229 0)
(1.44063 -0.00149475 0)
(1.4425 -0.00143774 0)
(1.4443 -0.001383 0)
(1.44603 -0.0013304 0)
(1.4477 -0.00127993 0)
(1.4493 -0.00123138 0)
(1.45084 -0.00118488 0)
(1.45233 -0.00114003 0)
(1.45375 -0.00109735 0)
(1.45513 -0.00105581 0)
(1.45645 -0.00101697 0)
(1.45773 -0.000978138 0)
(1.45894 -0.00094367 0)
(1.46015 -0.000906379 0)
(1.46124 -0.000877794 0)
(1.46242 -0.000839702 0)
(1.46335 -0.00082014 0)
(1.46458 -0.00077737 0)
(1.46521 -0.00077063 0)
(1.46676 -0.00072177 0)
(1.43027 -0.00241546 0)
(1.43197 -0.00232326 0)
(1.4336 -0.00223474 0)
(1.43517 -0.00214971 0)
(1.43668 -0.00206812 0)
(1.43814 -0.00198965 0)
(1.43954 -0.00191449 0)
(1.44088 -0.00184204 0)
(1.44218 -0.00177305 0)
(1.44343 -0.00170597 0)
(1.44462 -0.00164318 0)
(1.44579 -0.00158052 0)
(1.44688 -0.00152476 0)
(1.44798 -0.00146467 0)
(1.44897 -0.00141836 0)
(1.45004 -0.0013571 0)
(1.45088 -0.00132528 0)
(1.45201 -0.00125656 0)
(1.45257 -0.00124552 0)
(1.45399 -0.00116681 0)
(1.41437 -0.00322744 0)
(1.41582 -0.00310412 0)
(1.41722 -0.00298574 0)
(1.41856 -0.00287204 0)
(1.41985 -0.00276296 0)
(1.42109 -0.0026581 0)
(1.42229 -0.00255766 0)
(1.42344 -0.00246086 0)
(1.42455 -0.00236866 0)
(1.42561 -0.0022791 0)
(1.42663 -0.00219517 0)
(1.42763 -0.0021116 0)
(1.42857 -0.002037 0)
(1.42951 -0.00195704 0)
(1.43035 -0.00189492 0)
(1.43126 -0.00181366 0)
(1.43198 -0.00177075 0)
(1.43295 -0.00167973 0)
(1.43343 -0.00166466 0)
(1.43464 -0.00155999 0)
(1.39251 -0.00389677 0)
(1.39366 -0.00374768 0)
(1.39476 -0.00360461 0)
(1.39583 -0.00346723 0)
(1.39685 -0.00333545 0)
(1.39783 -0.0032088 0)
(1.39877 -0.00308751 0)
(1.39968 -0.00297067 0)
(1.40055 -0.00285934 0)
(1.4014 -0.0027513 0)
(1.4022 -0.00264994 0)
(1.40299 -0.00254928 0)
(1.40373 -0.00245906 0)
(1.40447 -0.00236304 0)
(1.40514 -0.00228765 0)
(1.40586 -0.0021905 0)
(1.40643 -0.00213804 0)
(1.4072 -0.00202949 0)
(1.40758 -0.00201075 0)
(1.40854 -0.00188526 0)
(1.36421 -0.00439821 0)
(1.36502 -0.00422971 0)
(1.36579 -0.00406806 0)
(1.36653 -0.0039129 0)
(1.36725 -0.00376408 0)
(1.36793 -0.00362112 0)
(1.3686 -0.0034842 0)
(1.36923 -0.00335237 0)
(1.36984 -0.00322671 0)
(1.37043 -0.00310493 0)
(1.371 -0.00299048 0)
(1.37155 -0.00287721 0)
(1.37207 -0.00277518 0)
(1.37259 -0.00266754 0)
(1.37306 -0.00258192 0)
(1.37356 -0.00247365 0)
(1.37396 -0.0024135 0)
(1.3745 -0.00229298 0)
(1.37477 -0.00227102 0)
(1.37545 -0.00213079 0)
(1.32894 -0.00471656 0)
(1.32938 -0.00453565 0)
(1.3298 -0.00436215 0)
(1.33021 -0.00419566 0)
(1.3306 -0.00403602 0)
(1.33097 -0.0038827 0)
(1.33133 -0.00373587 0)
(1.33168 -0.00359459 0)
(1.33202 -0.00345985 0)
(1.33234 -0.00332945 0)
(1.33265 -0.00320668 0)
(1.33295 -0.00308564 0)
(1.33324 -0.002976 0)
(1.33352 -0.00286149 0)
(1.33378 -0.00276902 0)
(1.33406 -0.00265474 0)
(1.33428 -0.00258899 0)
(1.33458 -0.0024625 0)
(1.33473 -0.00243782 0)
(1.33512 -0.00228954 0)
(1.28613 -0.00484724 0)
(1.28621 -0.00466115 0)
(1.28628 -0.00448274 0)
(1.28636 -0.00431158 0)
(1.28643 -0.0041475 0)
(1.28649 -0.00398997 0)
(1.28656 -0.00383911 0)
(1.28662 -0.00369403 0)
(1.28668 -0.00355561 0)
(1.28674 -0.00342183 0)
(1.28679 -0.00329565 0)
(1.28685 -0.00317175 0)
(1.2869 -0.00305884 0)
(1.28695 -0.00294223 0)
(1.287 -0.00284645 0)
(1.28706 -0.00273123 0)
(1.28709 -0.00266216 0)
(1.28716 -0.00253575 0)
(1.28718 -0.00250891 0)
(1.28728 -0.00235956 0)
(1.23529 -0.00479611 0)
(1.23503 -0.00461189 0)
(1.23477 -0.00443532 0)
(1.23453 -0.00426599 0)
(1.2343 -0.00410367 0)
(1.23407 -0.00394789 0)
(1.23385 -0.0037987 0)
(1.23365 -0.00365531 0)
(1.23345 -0.00351843 0)
(1.23326 -0.00338634 0)
(1.23307 -0.0032615 0)
(1.2329 -0.00313944 0)
(1.23272 -0.00302752 0)
(1.23256 -0.00291332 0)
(1.2324 -0.00281777 0)
(1.23226 -0.00270632 0)
(1.23212 -0.00263627 0)
(1.23197 -0.00251566 0)
(1.23187 -0.00248727 0)
(1.2317 -0.00234378 0)
(1.17596 -0.0045786 0)
(1.17539 -0.00440275 0)
(1.17485 -0.00423423 0)
(1.17432 -0.00407266 0)
(1.17382 -0.0039178 0)
(1.17334 -0.00376922 0)
(1.17287 -0.00362692 0)
(1.17243 -0.00349022 0)
(1.172 -0.00335967 0)
(1.17158 -0.00323386 0)
(1.17118 -0.00311474 0)
(1.1708 -0.00299877 0)
(1.17043 -0.00289176 0)
(1.17008 -0.00278395 0)
(1.16974 -0.002692 0)
(1.16941 -0.00258838 0)
(1.16911 -0.0025197 0)
(1.16878 -0.00240988 0)
(1.16857 -0.00238061 0)
(1.16815 -0.00224958 0)
(1.10777 -0.00421824 0)
(1.10696 -0.00405634 0)
(1.10617 -0.00390122 0)
(1.10541 -0.00375251 0)
(1.10469 -0.00361 0)
(1.10399 -0.00347329 0)
(1.10332 -0.00334235 0)
(1.10267 -0.00321663 0)
(1.10205 -0.0030965 0)
(1.10146 -0.00298089 0)
(1.10088 -0.00287124 0)
(1.10033 -0.00276493 0)
(1.0998 -0.00266624 0)
(1.09929 -0.00256811 0)
(1.0988 -0.00248275 0)
(1.09832 -0.00239016 0)
(1.09788 -0.0023251 0)
(1.0974 -0.00223005 0)
(1.09708 -0.00220065 0)
(1.09647 -0.00208805 0)
(1.03046 -0.00374478 0)
(1.02946 -0.00360124 0)
(1.02849 -0.00346373 0)
(1.02756 -0.00333191 0)
(1.02667 -0.00320559 0)
(1.02581 -0.00308444 0)
(1.02498 -0.00296839 0)
(1.02419 -0.002857 0)
(1.02342 -0.00275053 0)
(1.02269 -0.00264818 0)
(1.02198 -0.00255097 0)
(1.0213 -0.00245707 0)
(1.02064 -0.00236945 0)
(1.02001 -0.00228342 0)
(1.01941 -0.00220716 0)
(1.01881 -0.00212778 0)
(1.01828 -0.0020684 0)
(1.01768 -0.00199081 0)
(1.01728 -0.00196215 0)
(1.01653 -0.0018731 0)
(0.943863 -0.0031921 0)
(0.942737 -0.00306999 0)
(0.941655 -0.00295301 0)
(0.940615 -0.00284088 0)
(0.939614 -0.00273343 0)
(0.938652 -0.00263037 0)
(0.937727 -0.00253165 0)
(0.936837 -0.00243692 0)
(0.93598 -0.00234635 0)
(0.935156 -0.00225937 0)
(0.934363 -0.00217666 0)
(0.9336 -0.00209703 0)
(0.932865 -0.00202239 0)
(0.932156 -0.00195001 0)
(0.931479 -0.00188471 0)
(0.93081 -0.00181966 0)
(0.930204 -0.00176772 0)
(0.929535 -0.0017088 0)
(0.929082 -0.00168192 0)
(0.92824 -0.00162038 0)
(0.847905 -0.00259618 0)
(0.846729 -0.00249714 0)
(0.8456 -0.00240224 0)
(0.844513 -0.00231128 0)
(0.843469 -0.00222411 0)
(0.842464 -0.0021405 0)
(0.841497 -0.0020604 0)
(0.840567 -0.00198356 0)
(0.839672 -0.00191007 0)
(0.83881 -0.00183955 0)
(0.837981 -0.00177243 0)
(0.837183 -0.00170802 0)
(0.836414 -0.00164742 0)
(0.835672 -0.00158933 0)
(0.834962 -0.0015361 0)
(0.834263 -0.00148549 0)
(0.833624 -0.00144231 0)
(0.832927 -0.00140175 0)
(0.83244 -0.00137782 0)
(0.831563 -0.00134621 0)
(0.7426 -0.00199327 0)
(0.741445 -0.00191747 0)
(0.740334 -0.00184484 0)
(0.739266 -0.00177522 0)
(0.738239 -0.00170848 0)
(0.73725 -0.00164447 0)
(0.736299 -0.00158315 0)
(0.735384 -0.00152432 0)
(0.734503 -0.00146805 0)
(0.733656 -0.00141409 0)
(0.732839 -0.0013627 0)
(0.732053 -0.00131352 0)
(0.731296 -0.00126712 0)
(0.730564 -0.00122312 0)
(0.729863 -0.00118227 0)
(0.729175 -0.00114531 0)
(0.728539 -0.00111162 0)
(0.727856 -0.00108763 0)
(0.727361 -0.00106781 0)
(0.7265 -0.00106658 0)
(0.628025 -0.00141816 0)
(0.626956 -0.00136443 0)
(0.625928 -0.00131294 0)
(0.62494 -0.00126358 0)
(0.623988 -0.00121625 0)
(0.623073 -0.00117086 0)
(0.622192 -0.00112736 0)
(0.621344 -0.00108563 0)
(0.620528 -0.00104572 0)
(0.619742 -0.00100747 0)
(0.618985 -0.000971025 0)
(0.618256 -0.000936228 0)
(0.617553 -0.00090334 0)
(0.616874 -0.000872467 0)
(0.616223 -0.000843491 0)
(0.615584 -0.000818665 0)
(0.614989 -0.000794454 0)
(0.614358 -0.000783959 0)
(0.613882 -0.000769124 0)
(0.613083 -0.000796025 0)
(0.504298 -0.000902668 0)
(0.503377 -0.000868616 0)
(0.50249 -0.000835974 0)
(0.501637 -0.000804671 0)
(0.500817 -0.000774656 0)
(0.500027 -0.000745863 0)
(0.499266 -0.000718267 0)
(0.498534 -0.000691798 0)
(0.497829 -0.000666476 0)
(0.49715 -0.000642218 0)
(0.496496 -0.000619109 0)
(0.495866 -0.000597089 0)
(0.495258 -0.000576252 0)
(0.494671 -0.000556891 0)
(0.494106 -0.00053853 0)
(0.493554 -0.000523783 0)
(0.493034 -0.000508245 0)
(0.49249 -0.000507184 0)
(0.492062 -0.000497385 0)
(0.491363 -0.000546608 0)
(0.371557 -0.000476359 0)
(0.370838 -0.000458474 0)
(0.370146 -0.000441325 0)
(0.36948 -0.000424876 0)
(0.368839 -0.0004091 0)
(0.368222 -0.000393962 0)
(0.367628 -0.000379453 0)
(0.367056 -0.000365535 0)
(0.366505 -0.000352222 0)
(0.365974 -0.000339472 0)
(0.365463 -0.000327328 0)
(0.364969 -0.00031578 0)
(0.364494 -0.00030484 0)
(0.364034 -0.000294798 0)
(0.363591 -0.000285137 0)
(0.363158 -0.000278053 0)
(0.362748 -0.000269654 0)
(0.362321 -0.000273391 0)
(0.361972 -0.000267601 0)
(0.361406 -0.000327866 0)
(0.229936 -0.00017343 0)
(0.229469 -0.000166959 0)
(0.22902 -0.000160752 0)
(0.228587 -0.000154796 0)
(0.22817 -0.000149082 0)
(0.227769 -0.000143597 0)
(0.227383 -0.00013834 0)
(0.227011 -0.000133295 0)
(0.226652 -0.000128472 0)
(0.226307 -0.000123852 0)
(0.225974 -0.000119456 0)
(0.225652 -0.000115285 0)
(0.225343 -0.000111324 0)
(0.225043 -0.000107761 0)
(0.224754 -0.000104219 0)
(0.224472 -0.000102054 0)
(0.224202 -9.86998e-05 0)
(0.223923 -0.000102819 0)
(0.223685 -9.97123e-05 0)
(0.223286 -0.000151884 0)
(0.0795458 -2.88666e-05 0)
(0.079376 -2.78011e-05 0)
(0.0792125 -2.67783e-05 0)
(0.079055 -2.5796e-05 0)
(0.0789034 -2.48533e-05 0)
(0.0787573 -2.39477e-05 0)
(0.0786166 -2.308e-05 0)
(0.0784811 -2.22465e-05 0)
(0.0783504 -2.14505e-05 0)
(0.0782245 -2.06877e-05 0)
(0.0781031 -1.9963e-05 0)
(0.0779859 -1.92783e-05 0)
(0.0778729 -1.86239e-05 0)
(0.0777634 -1.80601e-05 0)
(0.0776579 -1.74525e-05 0)
(0.0775545 -1.7233e-05 0)
(0.0774558 -1.6532e-05 0)
(0.0773526 -1.81835e-05 0)
(0.0772619 -1.72915e-05 0)
(0.0770874 -3.84165e-05 0)
)
;

boundaryField
{
    fixedWalls
    {
        type            noSlip;
    }
    inlet
    {
        type            fixedValue;
        value           nonuniform 0();
    }
    outlet
    {
        type            zeroGradient;
    }
    frontAndBack
    {
        type            empty;
    }
    procBoundary7to3
    {
        type            processor;
        value           nonuniform List<vector> 
20
(
(1.44573 0.000506032 0)
(1.44769 0.000486734 0)
(1.44958 0.0004682 0)
(1.45139 0.000450417 0)
(1.45314 0.000433361 0)
(1.45482 0.000416931 0)
(1.45643 0.000401172 0)
(1.45799 0.000385993 0)
(1.45948 0.000371564 0)
(1.46093 0.000357506 0)
(1.46231 0.000344354 0)
(1.46365 0.000331211 0)
(1.46492 0.000319551 0)
(1.46619 0.000306895 0)
(1.46733 0.000297234 0)
(1.46856 0.000284338 0)
(1.46954 0.000277749 0)
(1.47084 0.000263212 0)
(1.47149 0.00026094 0)
(1.47312 0.000244397 0)
)
;
    }
    procBoundary7to6
    {
        type            processor;
        value           nonuniform List<vector> 
20
(
(1.44369 -0.000526037 0)
(1.43868 -0.00155409 0)
(1.4285 -0.00251145 0)
(1.41286 -0.00335588 0)
(1.39132 -0.00405209 0)
(1.36338 -0.00457382 0)
(1.32848 -0.00490518 0)
(1.28605 -0.00504133 0)
(1.23556 -0.00498831 0)
(1.17655 -0.00476213 0)
(1.10862 -0.00438724 0)
(1.03151 -0.00389462 0)
(0.945034 -0.00331957 0)
(0.849127 -0.00269958 0)
(0.743801 -0.00207239 0)
(0.629136 -0.00147423 0)
(0.505256 -0.000938199 0)
(0.372305 -0.000495015 0)
(0.230422 -0.000180179 0)
(0.0797222 -2.99776e-05 0)
)
;
    }
}


// ************************************************************************* //
