/*--------------------------------*- C++ -*----------------------------------*\
| =========                 |                                                 |
| \\      /  F ield         | OpenFOAM: The Open Source CFD Toolbox           |
|  \\    /   O peration     | Version:                                        |
|   \\  /    A nd           | Website:  www.openfoam.com                      |
|    \\/     M anipulation  |                                                 |
\*---------------------------------------------------------------------------*/
FoamFile
{
    version     2.0;
    format      ascii;
    class       volScalarField;
    location    "174";
    object      p;
}
// * * * * * * * * * * * * * * * * * * * * * * * * * * * * * * * * * * * * * //

dimensions      [0 2 -2 0 0 0 0];


internalField   nonuniform List<scalar> 
1150
(
0.198006
0.202622
0.204812
0.204367
0.201328
0.19553
0.208347
0.2129
0.214446
0.212806
0.208134
0.219189
0.223428
0.224281
0.0606694
0.0609786
0.06122
0.0613987
0.0615142
0.0615761
0.0615845
0.0615531
0.0614866
0.0614053
0.0558129
0.0561841
0.056603
0.0570659
0.0575694
0.0581058
0.058689
0.059286
0.0598961
0.0605029
0.0586615
0.0589662
0.0592499
0.0595185
0.0597776
0.060046
0.0603076
0.0605803
0.060869
0.061143
0.0587734
0.0592286
0.0596775
0.060113
0.0605405
0.0609481
0.0613438
0.0617077
0.062062
0.062381
0.0605915
0.0609533
0.0612794
0.0615752
0.0618326
0.062066
0.0622683
0.0624619
0.0626595
0.0628655
0.0605407
0.0609456
0.0613596
0.0617759
0.0622181
0.0626537
0.0631163
0.0635582
0.0639908
0.0644271
0.0620939
0.062795
0.063463
0.0640975
0.0646717
0.0651873
0.0656066
0.0659424
0.0661826
0.0663419
0.062617
0.0630624
0.0634845
0.0638632
0.0642155
0.0645356
0.0649577
0.0653503
0.0657931
0.066304
0.0641698
0.0646139
0.0650844
0.0656217
0.0661966
0.0668573
0.0675019
0.0682221
0.068805
0.0694814
0.0656231
0.0665998
0.0675127
0.0685016
0.0693255
0.0699359
0.0705211
0.0709739
0.0713436
0.071819
0.0674661
0.0681733
0.068834
0.0694219
0.0699376
0.0703566
0.070723
0.071425
0.0719354
0.0727716
0.069257
0.0698545
0.0705155
0.0712744
0.0720983
0.0729965
0.0739721
0.0750504
0.0759627
0.0769799
0.0719209
0.0731894
0.0744281
0.0757171
0.0766607
0.0775419
0.0780728
0.079146
0.0793639
0.0801093
0.0743801
0.0755266
0.0766012
0.0775604
0.0784072
0.0792444
0.0800357
0.0809905
0.0818109
0.083069
0.0772132
0.0782357
0.0792701
0.0804022
0.0814567
0.0827783
0.0837755
0.0852751
0.085801
0.0872075
0.0806663
0.0819657
0.0832838
0.0845211
0.0856935
0.0867801
0.0876838
0.0886546
0.0892546
0.0905496
0.0846231
0.0861966
0.0876862
0.0890933
0.0902599
0.091585
0.0924228
0.0938778
0.0943803
0.095994
0.0887886
0.090438
0.0919786
0.0934196
0.0946742
0.0958892
0.096852
0.0978796
0.0983399
0.0995718
0.0934878
0.0952257
0.0968801
0.0984397
0.0997652
0.101211
0.102111
0.103675
0.104132
0.106058
0.098841
0.100753
0.102529
0.104164
0.105535
0.10686
0.107827
0.108884
0.109108
0.110271
0.104755
0.106878
0.108784
0.110486
0.11181
0.113176
0.113792
0.115156
0.114875
0.116711
0.111055
0.113388
0.115432
0.117189
0.118499
0.119748
0.120375
0.121311
0.121004
0.12221
0.118062
0.120592
0.122774
0.124594
0.125862
0.127043
0.127282
0.128208
0.127022
0.12823
0.125701
0.128456
0.130767
0.132584
0.133739
0.134677
0.134663
0.134944
0.133583
0.133641
0.134059
0.13708
0.139528
0.141334
0.14235
0.142988
0.142488
0.142323
0.139665
0.139238
0.143058
0.146339
0.148911
0.150639
0.151409
0.151608
0.150459
0.149192
0.14606
0.143263
0.152791
0.156362
0.15905
0.160689
0.161176
0.160767
0.158994
0.156537
0.151929
0.147875
0.163238
0.167086
0.169845
0.171286
0.171371
0.170138
0.167268
0.163263
0.15723
0.149555
0.17446
0.178608
0.181409
0.182573
0.182071
0.179873
0.175717
0.169881
0.161496
0.186491
0.190941
0.19361
0.194238
0.192796
0.189042
0.182936
0.0613018
0.0612175
0.0612053
0.0612617
0.0613816
0.0615595
0.0617959
0.0620838
0.0624111
0.0627621
0.0631233
0.0634775
0.0638096
0.064124
0.0644327
0.0647393
0.0650396
0.0653246
0.0655825
0.0658078
0.0659898
0.0661228
0.0662049
0.0662417
0.0662362
0.066198
0.0661254
0.0660142
0.0658502
0.0657829
0.0610674
0.061607
0.062129
0.0626271
0.0630814
0.0634649
0.0637534
0.0639209
0.0639747
0.0640765
0.0642249
0.0644312
0.0646779
0.0649423
0.0651977
0.0654338
0.0656461
0.065835
0.066001
0.0661397
0.0662458
0.0663142
0.0663455
0.0663381
0.0662975
0.0662295
0.0661374
0.0660297
0.0658392
0.0657752
0.0613997
0.0616377
0.0618879
0.0621848
0.0625444
0.0629667
0.0634301
0.0639068
0.0643357
0.0646826
0.0649316
0.0651338
0.0653388
0.0655403
0.0657379
0.0659247
0.0660938
0.0662311
0.0663384
0.0664091
0.0664485
0.066455
0.0664337
0.0663814
0.0663061
0.0662057
0.0660956
0.0659857
0.0658145
0.0657538
0.0626909
0.0630146
0.0633395
0.0636478
0.0639376
0.0641997
0.0644292
0.0646516
0.0649042
0.0651674
0.0654167
0.065642
0.0658449
0.0660281
0.0661992
0.0663534
0.0664866
0.0665896
0.0666521
0.0666739
0.066655
0.0666033
0.0665228
0.0664195
0.0662965
0.0661577
0.0660196
0.0659016
0.0657634
0.0657084
0.0630262
0.0631936
0.0634207
0.0637168
0.0640864
0.0645214
0.0650135
0.0654975
0.0659062
0.0662604
0.0665645
0.0668249
0.0670187
0.0671643
0.0672636
0.0673298
0.0673558
0.0673391
0.0672741
0.0671672
0.0670248
0.0668652
0.0666918
0.0665088
0.0663154
0.0661263
0.0659429
0.0658022
0.0656864
0.065632
0.0647704
0.0651037
0.065444
0.0657566
0.066001
0.0661814
0.0662923
0.066408
0.0665788
0.0667891
0.0670249
0.0672587
0.0674716
0.0676359
0.0677442
0.0677963
0.0677904
0.0677257
0.067608
0.0674327
0.0672212
0.0669899
0.0667472
0.0665002
0.066263
0.0660354
0.0658259
0.0656688
0.0655646
0.0655102
0.066413
0.0664628
0.066587
0.0667724
0.0670292
0.0673305
0.0676037
0.067751
0.0677674
0.067744
0.0677093
0.0676924
0.0677111
0.0677596
0.0678265
0.0678921
0.0679237
0.0678953
0.0677833
0.0676038
0.0673783
0.0671123
0.0668142
0.0665106
0.0662136
0.0659323
0.0656922
0.0655053
0.0653945
0.0653335
0.0666167
0.0670168
0.0674818
0.0680021
0.0685073
0.0689374
0.0693077
0.0696851
0.0700346
0.0703145
0.0704754
0.0705014
0.0703958
0.070188
0.0699108
0.0696029
0.0692876
0.0689581
0.0686022
0.068224
0.0678294
0.0674246
0.0670254
0.0666317
0.0662472
0.0658964
0.0655923
0.0653522
0.0652049
0.0651229
0.0697308
0.0697677
0.0698444
0.0699903
0.0701834
0.070393
0.0705224
0.07053
0.0705702
0.0706455
0.0707799
0.0709298
0.0710385
0.0710331
0.070887
0.0705887
0.070169
0.069677
0.0691598
0.0686293
0.0680901
0.0675627
0.0670616
0.0665864
0.0661568
0.0657731
0.0654331
0.0651671
0.0649862
0.0648872
0.0720812
0.0723815
0.0727032
0.072906
0.0729888
0.0729677
0.0729044
0.0727838
0.0725243
0.0721266
0.0716537
0.0711992
0.0708314
0.070584
0.0704142
0.0702518
0.0700239
0.0696848
0.0692367
0.068724
0.0681845
0.0676272
0.0670596
0.0665149
0.0660212
0.0655872
0.0652164
0.0649306
0.0647257
0.0646161
0.0732021
0.0734961
0.0736648
0.073921
0.0742588
0.074599
0.0749334
0.0752835
0.0755625
0.0756745
0.0755109
0.0750206
0.0742651
0.073354
0.0724197
0.0715807
0.0708794
0.070251
0.0696295
0.068996
0.0683576
0.0677202
0.0670985
0.0665019
0.0659416
0.0654423
0.0650174
0.0646877
0.0644498
0.0643257
0.0773979
0.0775992
0.0777433
0.0777381
0.0775112
0.0771933
0.0767947
0.0763452
0.0759604
0.075758
0.0757305
0.0757656
0.0756708
0.075279
0.0745357
0.0735145
0.072361
0.0712586
0.0702752
0.0693864
0.0685491
0.0677605
0.067033
0.0663719
0.0657724
0.0652449
0.0647929
0.0644348
0.0641728
0.0640374
0.0800928
0.0799208
0.0798442
0.0798251
0.0799389
0.0800756
0.0800795
0.0798164
0.0791988
0.0782497
0.0771471
0.0761223
0.0753492
0.0748142
0.0743351
0.073739
0.0728943
0.0718442
0.07074
0.0696764
0.0686865
0.0677724
0.0669359
0.0661851
0.0655261
0.0649703
0.0645058
0.0641438
0.0638779
0.0637428
0.0836843
0.083916
0.0838781
0.0836265
0.0831009
0.0823996
0.0818072
0.0814554
0.0812169
0.0808518
0.0800632
0.07879
0.0772567
0.0756932
0.0743548
0.0733046
0.0724245
0.0715624
0.0706094
0.0695932
0.0685828
0.06763
0.0667511
0.0659528
0.0652517
0.0646616
0.0641808
0.0638216
0.0635606
0.0634353
0.0871468
0.0866938
0.0865254
0.086445
0.0862444
0.085749
0.0848837
0.0837618
0.0825818
0.0816466
0.0809104
0.0801863
0.0791497
0.0776918
0.0760037
0.0743051
0.0728018
0.0715438
0.0704311
0.0693868
0.0683742
0.0674103
0.0665096
0.0656919
0.064968
0.0643516
0.0638544
0.0634939
0.0632373
0.0631238
0.0908274
0.0908592
0.0905876
0.0898993
0.0891718
0.0886243
0.0880401
0.0871748
0.0858833
0.0842424
0.0825383
0.0810732
0.0798579
0.0787064
0.0773314
0.0756848
0.0739204
0.0722093
0.070689
0.0693654
0.0682041
0.0671641
0.066223
0.0653857
0.0646503
0.0640247
0.0635232
0.0631684
0.0629233
0.0628222
0.0960278
0.0948312
0.0940627
0.0933261
0.0922605
0.0908702
0.0894502
0.0882227
0.087031
0.0856363
0.0838858
0.0819304
0.0800754
0.0785241
0.0771532
0.0757713
0.0742283
0.0725625
0.070918
0.0694009
0.0680742
0.0669129
0.0658997
0.0650256
0.064276
0.0636516
0.0631613
0.0628279
0.0626153
0.0625307
0.0991593
0.0986388
0.0981115
0.0972121
0.0961185
0.0946862
0.0929191
0.0909055
0.0888436
0.0869295
0.0849935
0.0828929
0.0806609
0.0784863
0.076591
0.0749906
0.0735495
0.0721132
0.0706296
0.0691789
0.0678316
0.0666175
0.065562
0.0646532
0.0638845
0.0632562
0.0627747
0.0624668
0.062308
0.0622412
0.106018
0.10426
0.10273
0.101149
0.0993793
0.0975249
0.0955259
0.0932214
0.0907395
0.0882779
0.08595
0.0837159
0.0814235
0.0790114
0.0766369
0.074523
0.0727617
0.071264
0.069896
0.0685975
0.0673465
0.0661889
0.0651556
0.0642529
0.0634866
0.0628591
0.0623827
0.0620944
0.062005
0.061952
0.108645
0.106992
0.105581
0.103763
0.101574
0.0993248
0.0970251
0.0946131
0.0920404
0.0893259
0.0866766
0.0842185
0.0819086
0.0796155
0.0772514
0.0748954
0.0727375
0.0708898
0.0693366
0.0679964
0.0667908
0.0656974
0.0647108
0.0638416
0.0630951
0.0624781
0.0620057
0.0617265
0.0617183
0.0616692
0.115571
0.112947
0.110456
0.107741
0.104819
0.101755
0.0986223
0.0956372
0.0927441
0.089833
0.0869612
0.0842163
0.0816991
0.079433
0.0773047
0.075135
0.0729487
0.0709005
0.0691072
0.0675932
0.0663129
0.0652097
0.0642454
0.0634091
0.0626932
0.0620992
0.0616388
0.0613645
0.0614516
0.0613998
0.120014
0.117183
0.114244
0.111149
0.107991
0.104545
0.100872
0.097216
0.0936308
0.0902478
0.0870434
0.0839739
0.0811265
0.0786051
0.0764359
0.0744813
0.0725677
0.0706528
0.0688577
0.0672687
0.0659144
0.0647655
0.0637933
0.0629713
0.0622808
0.0617138
0.0612725
0.0610028
0.0612
0.0611424
0.125207
0.121336
0.117287
0.113278
0.109339
0.105436
0.101747
0.0980412
0.094284
0.0906371
0.0871249
0.0837902
0.0806496
0.0777854
0.0753044
0.0732496
0.0714894
0.0698411
0.0682631
0.0667858
0.0654639
0.0643164
0.063349
0.0625391
0.0618712
0.0613295
0.0609083
0.0606405
0.0609553
0.0608903
0.1303
0.125671
0.120921
0.116113
0.111086
0.106242
0.101763
0.0975495
0.093672
0.0900212
0.0865479
0.0832483
0.0800947
0.0771298
0.0744319
0.0721405
0.0702716
0.0687234
0.0673523
0.0660743
0.0648869
0.0638203
0.0628982
0.0621198
0.0614793
0.060962
0.0605581
0.0602852
0.0607126
0.0606366
0.133625
0.127852
0.122267
0.116759
0.111567
0.106661
0.101819
0.0971608
0.092863
0.0889419
0.0854039
0.0821792
0.0792038
0.076399
0.0737637
0.0713922
0.069376
0.0677457
0.0664129
0.0652568
0.0642106
0.0632641
0.0624254
0.0617069
0.0611086
0.060622
0.0602348
0.0599492
0.0604697
0.0603782
0.138122
0.131445
0.1243
0.117613
0.111655
0.106278
0.101235
0.0964673
0.0919718
0.0877935
0.0840506
0.0807547
0.077883
0.075316
0.0729393
0.0707276
0.0687303
0.0670331
0.065644
0.0645032
0.0635361
0.0626883
0.0619392
0.0612954
0.0607535
0.0603089
0.0599438
0.0596426
0.0602239
0.060113
0.139772
0.131538
0.123854
0.116825
0.110577
0.104929
0.0997896
0.0951053
0.0906908
0.0865207
0.0826782
0.0792559
0.0763475
0.0738692
0.0717233
0.0697808
0.0679839
0.0663729
0.0649873
0.0638432
0.0629075
0.0621228
0.0614512
0.0608821
0.0604065
0.0600162
0.0596833
0.0593705
0.0599677
0.0598365
0.140553
0.13086
0.121842
0.11447
0.108045
0.102186
0.0969344
0.0923112
0.0881332
0.0843006
0.0807181
0.0774431
0.0745788
0.0721468
0.0701341
0.068416
0.0668883
0.0655019
0.0642559
0.0631884
0.0623039
0.0615762
0.0609719
0.0604727
0.0600688
0.059742
0.059453
0.0591365
0.0596906
0.0595402
)
;

boundaryField
{
    outlet
    {
        type            fixedValue;
        value           nonuniform 0();
    }
    upperWall
    {
        type            symmetryPlane;
    }
    lowerWall
    {
        type            symmetryPlane;
    }
    inlet
    {
        type            zeroGradient;
    }
    cylinder
    {
        type            zeroGradient;
    }
    frontAndBack
    {
        type            empty;
    }
    procBoundary0to1
    {
        type            processor;
        value           nonuniform List<scalar> 
45
(
0.18691
0.200657
0.18691
0.22163
0.200657
0.215596
0.231025
0.234904
0.22163
0.23513
0.151226
0.175079
0.151226
0.163602
0.175079
0.139041
0.127932
0.119027
0.11178
0.105367
0.0994379
0.0940544
0.0892339
0.0850013
0.0813334
0.0780597
0.0751124
0.0724836
0.0701958
0.0682928
0.0667305
0.0654372
0.0643157
0.0633099
0.0624189
0.0616548
0.0610206
0.0604982
0.0600753
0.0597487
0.0594931
0.0592579
0.0589463
0.0593813
0.0592131
)
;
    }
    procBoundary0to4
    {
        type            processor;
        value           nonuniform List<scalar> 
33
(
0.19107
0.200764
0.211297
0.0602942
0.0554907
0.058329
0.0583138
0.0602063
0.0601296
0.0613807
0.0621503
0.0637118
0.0646555
0.0667175
0.0686275
0.0706535
0.073135
0.0761146
0.0792874
0.0829414
0.0870083
0.0916088
0.0967081
0.102312
0.108269
0.114945
0.122329
0.130336
0.138919
0.14822
0.158212
0.168969
0.180414
)
;
    }
}


// ************************************************************************* //
