/*--------------------------------*- C++ -*----------------------------------*\
| =========                 |                                                 |
| \\      /  F ield         | OpenFOAM: The Open Source CFD Toolbox           |
|  \\    /   O peration     | Version:                                        |
|   \\  /    A nd           | Website:  www.openfoam.com                      |
|    \\/     M anipulation  |                                                 |
\*---------------------------------------------------------------------------*/
FoamFile
{
    version     2.0;
    format      ascii;
    class       surfaceScalarField;
    location    "0.2";
    object      phi;
}
// * * * * * * * * * * * * * * * * * * * * * * * * * * * * * * * * * * * * * //

dimensions      [0 3 -1 0 0 0 0];
oriented        oriented;


internalField   nonuniform List<scalar> 
760
(
2.17075e-06
4.6681e-09
2.16666e-06
4.08205e-09
2.16312e-06
3.54762e-09
2.16006e-06
3.05761e-09
2.15744e-06
2.6142e-09
2.15522e-06
2.21948e-09
2.15335e-06
1.87121e-09
2.15179e-06
1.56592e-09
2.15049e-06
1.29999e-09
2.14942e-06
1.07014e-09
2.14854e-06
8.73286e-10
2.14784e-06
7.06393e-10
2.14727e-06
5.65986e-10
2.14682e-06
4.49045e-10
2.14647e-06
3.52493e-10
2.1462e-06
2.73717e-10
2.14599e-06
2.10159e-10
2.14583e-06
1.59918e-10
2.14571e-06
1.17991e-10
8.06855e-11
6.27089e-06
1.68626e-08
6.26029e-06
1.46826e-08
6.25113e-06
1.2708e-08
6.24327e-06
1.09126e-08
6.23659e-06
9.29704e-09
6.23095e-06
7.86318e-09
6.22621e-06
6.60281e-09
6.22228e-06
5.50293e-09
6.21903e-06
4.54972e-09
6.21637e-06
3.73025e-09
6.21421e-06
3.03209e-09
6.21247e-06
2.44258e-09
6.21109e-06
1.94905e-09
6.21e-06
1.54033e-09
6.20915e-06
1.20492e-09
6.20849e-06
9.32264e-10
6.20799e-06
7.12998e-10
6.20761e-06
5.39086e-10
6.20732e-06
3.99964e-10
2.75402e-10
1.01073e-05
3.54592e-08
1.00912e-05
3.08075e-08
1.00773e-05
2.6611e-08
1.00654e-05
2.28118e-08
1.00553e-05
1.94029e-08
1.00468e-05
1.63812e-08
1.00397e-05
1.37287e-08
1.00337e-05
1.14184e-08
1.00289e-05
9.42103e-09
1.00249e-05
7.70829e-09
1.00217e-05
6.25244e-09
1.00191e-05
5.02591e-09
1.0017e-05
4.00192e-09
1.00154e-05
3.15552e-09
1.00142e-05
2.46282e-09
1.00132e-05
1.90175e-09
1.00125e-05
1.45164e-09
1.00119e-05
1.09347e-09
1.00115e-05
8.17308e-10
5.69065e-10
1.36597e-05
5.96973e-08
1.36387e-05
5.18217e-08
1.36206e-05
4.47292e-08
1.3605e-05
3.83251e-08
1.35919e-05
3.25863e-08
1.35807e-05
2.75004e-08
1.35714e-05
2.30357e-08
1.35637e-05
1.91478e-08
1.35573e-05
1.57886e-08
1.35521e-05
1.29102e-08
1.35479e-05
1.04651e-08
1.35445e-05
8.40628e-09
1.35419e-05
6.68887e-09
1.35397e-05
5.27083e-09
1.35381e-05
4.11131e-09
1.35368e-05
3.17252e-09
1.35358e-05
2.4212e-09
1.35351e-05
1.82054e-09
1.35346e-05
1.36984e-09
9.72738e-10
1.69112e-05
8.8854e-08
1.68859e-05
7.71554e-08
1.6864e-05
6.66133e-08
1.68452e-05
5.71048e-08
1.68292e-05
4.85875e-08
1.68157e-05
4.10339e-08
1.68043e-05
3.43951e-08
1.67948e-05
2.86077e-08
1.6787e-05
2.3603e-08
1.67806e-05
1.9311e-08
1.67754e-05
1.56627e-08
1.67712e-05
1.25894e-08
1.67679e-05
1.00242e-08
1.67653e-05
7.90401e-09
1.67632e-05
6.1694e-09
1.67616e-05
4.76476e-09
1.67604e-05
3.64108e-09
1.67595e-05
2.73801e-09
1.67588e-05
2.06858e-09
1.50154e-09
1.98501e-05
1.21974e-07
1.98212e-05
1.06055e-07
1.97961e-05
9.16696e-08
1.97746e-05
7.86886e-08
1.97561e-05
6.70549e-08
1.97404e-05
5.67226e-08
1.97272e-05
4.76234e-08
1.97161e-05
3.96739e-08
1.97069e-05
3.27859e-08
1.96994e-05
2.68679e-08
1.96932e-05
2.18273e-08
1.96882e-05
1.75733e-08
1.96842e-05
1.4017e-08
1.96811e-05
1.10729e-08
1.96786e-05
8.65946e-09
1.96766e-05
6.70153e-09
1.96751e-05
5.13323e-09
1.9674e-05
3.86865e-09
1.96731e-05
2.92636e-09
2.16315e-09
2.24704e-05
1.57684e-07
2.2439e-05
1.37402e-07
2.24117e-05
1.18992e-07
2.23881e-05
1.02346e-07
2.23677e-05
8.74071e-08
2.23503e-05
7.41115e-08
2.23356e-05
6.23711e-08
2.23232e-05
5.20843e-08
2.23128e-05
4.31449e-08
2.23042e-05
3.54426e-08
2.22972e-05
2.88645e-08
2.22915e-05
2.3298e-08
2.22869e-05
1.86318e-08
2.22832e-05
1.47584e-08
2.22803e-05
1.15743e-08
2.2278e-05
8.98466e-09
2.22762e-05
6.90373e-09
2.22748e-05
5.22529e-09
2.22738e-05
3.95143e-09
2.95301e-09
2.47723e-05
1.9411e-07
2.474e-05
1.69618e-07
2.47118e-05
1.47263e-07
2.46871e-05
1.26985e-07
2.46658e-05
1.08744e-07
2.46474e-05
9.24647e-08
2.46318e-05
7.80433e-08
2.46185e-05
6.53641e-08
2.46073e-05
5.43068e-08
2.4598e-05
4.47464e-08
2.45903e-05
3.65535e-08
2.4584e-05
2.95971e-08
2.45789e-05
2.37458e-08
2.45748e-05
1.88723e-08
2.45715e-05
1.48519e-08
2.45689e-05
1.15727e-08
2.45669e-05
8.92437e-09
2.45654e-05
6.79377e-09
2.45642e-05
5.13645e-09
3.8532e-09
2.67621e-05
2.28919e-07
2.6731e-05
2.00682e-07
2.67036e-05
1.74754e-07
2.66794e-05
1.51136e-07
2.66583e-05
1.29821e-07
2.66401e-05
1.10736e-07
2.66243e-05
9.37689e-08
2.66109e-05
7.87942e-08
2.65995e-05
6.56838e-08
2.659e-05
5.43041e-08
2.6582e-05
4.45142e-08
2.65754e-05
3.61696e-08
2.65701e-05
2.91239e-08
2.65657e-05
2.32334e-08
2.65622e-05
1.83545e-08
2.65594e-05
1.43624e-08
2.65572e-05
1.11175e-08
2.65555e-05
8.51912e-09
2.65542e-05
6.44738e-09
4.83108e-09
2.84524e-05
2.59475e-07
2.84248e-05
2.28254e-07
2.84002e-05
1.99414e-07
2.83783e-05
1.73017e-07
2.8359e-05
1.49102e-07
2.83421e-05
1.27609e-07
2.83275e-05
1.08425e-07
2.83148e-05
9.14261e-08
2.8304e-05
7.64817e-08
2.82949e-05
6.34563e-08
2.82872e-05
5.22052e-08
2.82808e-05
4.25753e-08
2.82755e-05
3.44114e-08
2.82712e-05
2.7559e-08
2.82677e-05
2.18593e-08
2.82648e-05
1.71798e-08
2.82626e-05
1.3349e-08
2.82608e-05
1.02979e-08
2.82595e-05
7.813e-09
5.83627e-09
2.98612e-05
2.83082e-07
2.98395e-05
2.49886e-07
2.98199e-05
2.19052e-07
2.98022e-05
1.9069e-07
2.97865e-05
1.64884e-07
2.97725e-05
1.41595e-07
2.97602e-05
1.20721e-07
2.97495e-05
1.02149e-07
2.97402e-05
8.5753e-08
2.97322e-05
7.14023e-08
2.97255e-05
5.89554e-08
2.97198e-05
4.82579e-08
2.97151e-05
3.91518e-08
2.97111e-05
3.14771e-08
2.97079e-05
2.50667e-08
2.97053e-05
1.97853e-08
2.97032e-05
1.54315e-08
2.97016e-05
1.198e-08
2.97003e-05
9.1227e-09
6.79734e-09
3.10114e-05
2.97262e-07
3.0998e-05
2.63285e-07
3.09855e-05
2.31569e-07
3.09739e-05
2.02256e-07
3.09634e-05
1.75467e-07
3.09538e-05
1.51185e-07
3.09452e-05
1.29328e-07
3.09375e-05
1.098e-07
3.09308e-05
9.24903e-08
3.09249e-05
7.72772e-08
3.09198e-05
6.4029e-08
3.09155e-05
5.25968e-08
3.09118e-05
4.28274e-08
3.09087e-05
3.45595e-08
3.09062e-05
2.76268e-08
3.09041e-05
2.18944e-08
3.09024e-05
1.71397e-08
3.0901e-05
1.33811e-08
3.08998e-05
1.02338e-08
7.62299e-09
3.19298e-05
3.00032e-07
3.19266e-05
2.66568e-07
3.19229e-05
2.35196e-07
3.19191e-05
2.06083e-07
3.19152e-05
1.79359e-07
3.19114e-05
1.55028e-07
3.19077e-05
1.33034e-07
3.19042e-05
1.13303e-07
3.19009e-05
9.57453e-08
3.18979e-05
8.02541e-08
3.18952e-05
6.67121e-08
3.18929e-05
5.49815e-08
3.18908e-05
4.49214e-08
3.1889e-05
3.63731e-08
3.18874e-05
2.91814e-08
3.18861e-05
2.3211e-08
3.1885e-05
1.82363e-08
3.18841e-05
1.43035e-08
3.18833e-05
1.09879e-08
8.21203e-09
3.26456e-05
2.90125e-07
3.26537e-05
2.58479e-07
3.26601e-05
2.28711e-07
3.26652e-05
2.00999e-07
3.26691e-05
1.75459e-07
3.2672e-05
1.52102e-07
3.26742e-05
1.30901e-07
3.26757e-05
1.11807e-07
3.26767e-05
9.47539e-08
3.26773e-05
7.96543e-08
3.26776e-05
6.64089e-08
3.26777e-05
5.48946e-08
3.26776e-05
4.49888e-08
3.26774e-05
3.65391e-08
3.26772e-05
2.94127e-08
3.26769e-05
2.34679e-08
3.26767e-05
1.85056e-08
3.26764e-05
1.45649e-08
3.26762e-05
1.12333e-08
8.46795e-09
3.31886e-05
2.6713e-07
3.32086e-05
2.38537e-07
3.32257e-05
2.11587e-07
3.32403e-05
1.86452e-07
3.32525e-05
1.63204e-07
3.32628e-05
1.41853e-07
3.32713e-05
1.22395e-07
3.32783e-05
1.04807e-07
3.3284e-05
8.90469e-08
3.32886e-05
7.50479e-08
3.32923e-05
6.27312e-08
3.32952e-05
5.19903e-08
3.32974e-05
4.27253e-08
3.32992e-05
3.47925e-08
3.33005e-05
2.80929e-08
3.33015e-05
2.24704e-08
3.33022e-05
1.77885e-08
3.33027e-05
1.40274e-08
3.33031e-05
1.08507e-08
8.31055e-09
3.35884e-05
2.31533e-07
3.36198e-05
2.07105e-07
3.36473e-05
1.84072e-07
3.36712e-05
1.62589e-07
3.36918e-05
1.4266e-07
3.37093e-05
1.24284e-07
3.37242e-05
1.07473e-07
3.37368e-05
9.22291e-08
3.37473e-05
7.85292e-08
3.37561e-05
6.63272e-08
3.37632e-05
5.55649e-08
3.37691e-05
4.61542e-08
3.37738e-05
3.80202e-08
3.37775e-05
3.10303e-08
3.37805e-05
2.51263e-08
3.37828e-05
2.01328e-08
3.37846e-05
1.60102e-08
3.3786e-05
1.26216e-08
3.37871e-05
9.7761e-09
7.68556e-09
3.38719e-05
1.84679e-07
3.39136e-05
1.65367e-07
3.39505e-05
1.47192e-07
3.39828e-05
1.30272e-07
3.4011e-05
1.14539e-07
3.40353e-05
9.99781e-08
3.40561e-05
8.66142e-08
3.40739e-05
7.44614e-08
3.40889e-05
6.35138e-08
3.41015e-05
5.37416e-08
3.41119e-05
4.51059e-08
3.41206e-05
3.75381e-08
3.41276e-05
3.09869e-08
3.41333e-05
2.53384e-08
3.41378e-05
2.05731e-08
3.41415e-05
1.65022e-08
3.41443e-05
1.31961e-08
3.41465e-05
1.03746e-08
3.41483e-05
8.01736e-09
6.55217e-09
3.40626e-05
1.28645e-07
3.41127e-05
1.15243e-07
3.41572e-05
1.02682e-07
3.41964e-05
9.10181e-08
3.42308e-05
8.01543e-08
3.42607e-05
7.00703e-08
3.42866e-05
6.07937e-08
3.43087e-05
5.23403e-08
3.43275e-05
4.47119e-08
3.43433e-05
3.78916e-08
3.43566e-05
3.1856e-08
3.43676e-05
2.65576e-08
3.43766e-05
2.19663e-08
3.43839e-05
1.79963e-08
3.43898e-05
1.46529e-08
3.43946e-05
1.17648e-08
3.43983e-05
9.47054e-09
3.44013e-05
7.42518e-09
3.44036e-05
5.65986e-09
4.85749e-09
3.4179e-05
6.60384e-08
3.4235e-05
5.92155e-08
3.42849e-05
5.28022e-08
3.4329e-05
4.68642e-08
3.43679e-05
4.13098e-08
3.44018e-05
3.61527e-08
3.44312e-05
3.14074e-08
3.44564e-05
2.70808e-08
3.4478e-05
2.31732e-08
3.44962e-05
1.96764e-08
3.45115e-05
1.65797e-08
3.45242e-05
1.38574e-08
3.45346e-05
1.14954e-08
3.45432e-05
9.44941e-09
3.45501e-05
7.72624e-09
3.45557e-05
6.22507e-09
3.45601e-05
5.05209e-09
3.45635e-05
3.98985e-09
3.45662e-05
3.02238e-09
2.58801e-09
3.42339e-05
3.4293e-05
3.43457e-05
3.43924e-05
3.44335e-05
3.44695e-05
3.45008e-05
3.45277e-05
3.45507e-05
3.45701e-05
3.45865e-05
3.46001e-05
3.46113e-05
3.46205e-05
3.4628e-05
3.46339e-05
3.46387e-05
3.46425e-05
3.46453e-05
)
;

boundaryField
{
    fixedWalls
    {
        type            calculated;
        value           uniform 0;
    }
    inlet
    {
        type            calculated;
        value           nonuniform 0();
    }
    outlet
    {
        type            calculated;
        value           nonuniform 0();
    }
    frontAndBack
    {
        type            empty;
        value           nonuniform 0();
    }
    procBoundary2to1
    {
        type            processor;
        value           nonuniform List<scalar> 
20
(
-2.17541e-06
-6.28308e-06
-1.01259e-05
-1.36839e-05
-1.69404e-05
-1.98832e-05
-2.25061e-05
-2.48087e-05
-2.67969e-05
-2.84829e-05
-2.98848e-05
-3.10256e-05
-3.19326e-05
-3.26357e-05
-3.31656e-05
-3.35528e-05
-3.3825e-05
-3.40065e-05
-3.41164e-05
-3.41679e-05
)
;
    }
    procBoundary2to3
    {
        type            processor;
        value           nonuniform List<scalar> 
20
(
2.14563e-06
6.20713e-06
1.00112e-05
1.35342e-05
1.67583e-05
1.96725e-05
2.2273e-05
2.45633e-05
2.65532e-05
2.82585e-05
2.96993e-05
3.0899e-05
3.18827e-05
3.26759e-05
3.33033e-05
3.37877e-05
3.41494e-05
3.44053e-05
3.45684e-05
3.46478e-05
)
;
    }
    procBoundary2to6
    {
        type            processor;
        value           nonuniform List<scalar> 
20
(
2.20284e-11
9.77803e-11
1.66476e-10
1.68769e-10
1.48892e-10
1.45428e-10
1.57996e-10
1.77047e-10
1.96866e-10
2.16574e-10
2.34164e-10
2.4736e-10
2.56561e-10
2.64235e-10
2.61799e-10
2.62074e-10
2.46321e-10
2.47519e-10
2.15611e-10
1.08953e-10
)
;
    }
}


// ************************************************************************* //
