/*--------------------------------*- C++ -*----------------------------------*\
| =========                 |                                                 |
| \\      /  F ield         | OpenFOAM: The Open Source CFD Toolbox           |
|  \\    /   O peration     | Version:                                        |
|   \\  /    A nd           | Website:  www.openfoam.com                      |
|    \\/     M anipulation  |                                                 |
\*---------------------------------------------------------------------------*/
FoamFile
{
    version     2.0;
    format      ascii;
    class       volVectorField;
    location    "0.2";
    object      U;
}
// * * * * * * * * * * * * * * * * * * * * * * * * * * * * * * * * * * * * * //

dimensions      [0 1 -1 0 0 0 0];


internalField   nonuniform List<vector> 
400
(
(0.0869176 3.30055e-05 0)
(0.0867431 2.90564e-05 0)
(0.086591 2.54033e-05 0)
(0.0864594 2.20174e-05 0)
(0.0863464 1.89244e-05 0)
(0.0862502 1.61661e-05 0)
(0.0861687 1.37155e-05 0)
(0.0861004 1.15535e-05 0)
(0.0860434 9.6525e-06 0)
(0.0859963 7.99294e-06 0)
(0.0859577 6.56509e-06 0)
(0.0859264 5.34515e-06 0)
(0.0859011 4.31078e-06 0)
(0.085881 3.44595e-06 0)
(0.0858652 2.72512e-06 0)
(0.0858528 2.12947e-06 0)
(0.0858432 1.64244e-06 0)
(0.0858359 1.25712e-06 0)
(0.0858305 9.17859e-07 0)
(0.0858264 6.41277e-07 0)
(0.251064 0.000183699 0)
(0.250609 0.00016039 0)
(0.250215 0.000139174 0)
(0.249876 0.000119775 0)
(0.249587 0.000102266 0)
(0.249342 8.6693e-05 0)
(0.249135 7.29795e-05 0)
(0.248963 6.09776e-05 0)
(0.24882 5.05426e-05 0)
(0.248703 4.15436e-05 0)
(0.248607 3.38504e-05 0)
(0.24853 2.73363e-05 0)
(0.248468 2.18694e-05 0)
(0.248419 1.73296e-05 0)
(0.248381 1.35881e-05 0)
(0.248351 1.05361e-05 0)
(0.248328 8.07747e-06 0)
(0.248311 6.12733e-06 0)
(0.248298 4.5296e-06 0)
(0.248288 3.0997e-06 0)
(0.40464 0.000489616 0)
(0.403948 0.000425829 0)
(0.40335 0.000368174 0)
(0.402836 0.000315843 0)
(0.402398 0.000268821 0)
(0.402028 0.000227128 0)
(0.401717 0.000190509 0)
(0.401457 0.000158595 0)
(0.401243 0.000130975 0)
(0.401068 0.000107261 0)
(0.400925 8.70876e-05 0)
(0.40081 7.00749e-05 0)
(0.400718 5.58489e-05 0)
(0.400646 4.40829e-05 0)
(0.400589 3.44458e-05 0)
(0.400545 2.66247e-05 0)
(0.400511 2.03361e-05 0)
(0.400486 1.53389e-05 0)
(0.400467 1.14069e-05 0)
(0.400452 7.86565e-06 0)
(0.546839 0.000922723 0)
(0.545937 0.000801117 0)
(0.545158 0.000691567 0)
(0.544488 0.000592535 0)
(0.543917 0.000503745 0)
(0.543433 0.000425069 0)
(0.543027 0.000356033 0)
(0.542689 0.000295937 0)
(0.542409 0.000244015 0)
(0.542179 0.000199526 0)
(0.541992 0.000161735 0)
(0.541842 0.000129919 0)
(0.541722 0.000103379 0)
(0.541627 8.14586e-05 0)
(0.541553 6.35342e-05 0)
(0.541495 4.90239e-05 0)
(0.541451 3.73993e-05 0)
(0.541417 2.81338e-05 0)
(0.541393 2.10892e-05 0)
(0.541373 1.47723e-05 0)
(0.676992 0.0014613 0)
(0.675906 0.00126825 0)
(0.674965 0.00109447 0)
(0.674155 0.000937709 0)
(0.673462 0.000797291 0)
(0.672875 0.000672842 0)
(0.67238 0.000563573 0)
(0.671966 0.000468416 0)
(0.671623 0.000386198 0)
(0.671341 0.000315754 0)
(0.671111 0.000255922 0)
(0.670925 0.000205554 0)
(0.670776 0.000163547 0)
(0.670658 0.000128858 0)
(0.670565 0.000100491 0)
(0.670493 7.75392e-05 0)
(0.670438 5.91894e-05 0)
(0.670395 4.44793e-05 0)
(0.670364 3.35372e-05 0)
(0.67034 2.40305e-05 0)
(0.794623 0.00208998 0)
(0.793386 0.00181532 0)
(0.792311 0.00156764 0)
(0.791382 0.00134432 0)
(0.790584 0.00114429 0)
(0.789904 0.000966822 0)
(0.789329 0.000810749 0)
(0.788846 0.000674603 0)
(0.788444 0.000556807 0)
(0.788111 0.000455742 0)
(0.787839 0.00036979 0)
(0.787618 0.000297347 0)
(0.78744 0.000236855 0)
(0.787298 0.000186845 0)
(0.787186 0.000145912 0)
(0.787099 0.000112749 0)
(0.787031 8.62178e-05 0)
(0.78698 6.486e-05 0)
(0.78694 4.90403e-05 0)
(0.786912 3.59154e-05 0)
(0.899486 0.00278679 0)
(0.898147 0.00242485 0)
(0.896978 0.00209723 0)
(0.895962 0.00180148 0)
(0.895085 0.00153635 0)
(0.894334 0.0013007 0)
(0.893694 0.00109296 0)
(0.893154 0.000911278 0)
(0.892701 0.000753692 0)
(0.892325 0.00061816 0)
(0.892015 0.000502613 0)
(0.891762 0.000405011 0)
(0.891557 0.000323339 0)
(0.891393 0.000255662 0)
(0.891262 0.000200129 0)
(0.891159 0.000155039 0)
(0.891079 0.000118892 0)
(0.891018 8.97338e-05 0)
(0.89097 6.78621e-05 0)
(0.890936 5.04794e-05 0)
(0.991577 0.00351936 0)
(0.990206 0.00307009 0)
(0.989 0.0026613 0)
(0.987945 0.00229129 0)
(0.987028 0.00195895 0)
(0.986237 0.00166287 0)
(0.98556 0.00140107 0)
(0.984984 0.00117136 0)
(0.984497 0.000971462 0)
(0.984091 0.000798988 0)
(0.983753 0.000651479 0)
(0.983475 0.000526491 0)
(0.983249 0.000421578 0)
(0.983066 0.000334372 0)
(0.98292 0.000262586 0)
(0.982804 0.000204135 0)
(0.982713 0.00015708 0)
(0.982643 0.000119169 0)
(0.982586 9.00733e-05 0)
(0.982548 6.75058e-05 0)
(1.07114 0.00424497 0)
(1.06983 0.00371454 0)
(1.06866 0.00322905 0)
(1.06763 0.00278789 0)
(1.06673 0.00239053 0)
(1.06594 0.00203544 0)
(1.06526 0.00172039 0)
(1.06468 0.00144293 0)
(1.06419 0.00120056 0)
(1.06377 0.000990643 0)
(1.06342 0.000810447 0)
(1.06314 0.00065719 0)
(1.0629 0.000528075 0)
(1.06271 0.000420367 0)
(1.06255 0.00033136 0)
(1.06243 0.000258658 0)
(1.06233 0.000199779 0)
(1.06225 0.000152526 0)
(1.06219 0.000115322 0)
(1.06215 8.65102e-05 0)
(1.13868 0.00491283 0)
(1.13751 0.00431365 0)
(1.13647 0.00376188 0)
(1.13554 0.00325814 0)
(1.13472 0.00280278 0)
(1.134 0.00239438 0)
(1.13337 0.00203066 0)
(1.13283 0.00170906 0)
(1.13236 0.00142696 0)
(1.13196 0.00118164 0)
(1.13163 0.000970208 0)
(1.13135 0.000789643 0)
(1.13112 0.000636905 0)
(1.13092 0.000508987 0)
(1.13077 0.000402834 0)
(1.13064 0.000315838 0)
(1.13054 0.000244888 0)
(1.13047 0.000188238 0)
(1.1304 0.00014258 0)
(1.13036 0.00010668 0)
(1.1949 0.00546817 0)
(1.194 0.00481825 0)
(1.19317 0.00421624 0)
(1.19242 0.00366388 0)
(1.19176 0.00316246 0)
(1.19116 0.00271094 0)
(1.19064 0.00230716 0)
(1.19018 0.00194867 0)
(1.18978 0.00163286 0)
(1.18944 0.00135706 0)
(1.18914 0.00111837 0)
(1.1889 0.000913672 0)
(1.18869 0.00073979 0)
(1.18852 0.000593556 0)
(1.18838 0.000471684 0)
(1.18826 0.000371467 0)
(1.18817 0.000289145 0)
(1.18809 0.000223735 0)
(1.18803 0.000170005 0)
(1.18799 0.0001268 0)
(1.24073 0.00585776 0)
(1.24018 0.00517954 0)
(1.23966 0.00454797 0)
(1.23918 0.00396559 0)
(1.23874 0.00343454 0)
(1.23833 0.00295426 0)
(1.23797 0.00252291 0)
(1.23764 0.00213833 0)
(1.23736 0.00179814 0)
(1.23711 0.00149976 0)
(1.23689 0.00124046 0)
(1.2367 0.00101716 0)
(1.23654 0.000826705 0)
(1.23641 0.000665853 0)
(1.23629 0.000531241 0)
(1.2362 0.000420159 0)
(1.23613 0.000328301 0)
(1.23606 0.000255585 0)
(1.23601 0.000195009 0)
(1.23598 0.000145206 0)
(1.27725 0.0060357 0)
(1.27713 0.00535452 0)
(1.27699 0.00471721 0)
(1.27684 0.00412686 0)
(1.27669 0.00358609 0)
(1.27653 0.00309482 0)
(1.27638 0.00265169 0)
(1.27623 0.00225494 0)
(1.2761 0.00190257 0)
(1.27597 0.00159226 0)
(1.27586 0.00132148 0)
(1.27576 0.00108737 0)
(1.27567 0.000886943 0)
(1.27559 0.000716973 0)
(1.27552 0.000574194 0)
(1.27547 0.000455913 0)
(1.27542 0.000357554 0)
(1.27538 0.000279821 0)
(1.27535 0.000214482 0)
(1.27532 0.000159906 0)
(1.30564 0.00596858 0)
(1.306 0.00531088 0)
(1.30629 0.00469313 0)
(1.30652 0.00411872 0)
(1.3067 0.00359031 0)
(1.30683 0.00310809 0)
(1.30693 0.00267125 0)
(1.307 0.00227854 0)
(1.30705 0.00192843 0)
(1.30708 0.00161894 0)
(1.3071 0.00134787 0)
(1.30711 0.00111262 0)
(1.30711 0.000910522 0)
(1.3071 0.000738473 0)
(1.30709 0.000593507 0)
(1.30708 0.000472874 0)
(1.30707 0.000372209 0)
(1.30706 0.000292493 0)
(1.30705 0.000225179 0)
(1.30704 0.000168837 0)
(1.32712 0.00563922 0)
(1.32798 0.00503075 0)
(1.32871 0.00445765 0)
(1.32934 0.00392338 0)
(1.32988 0.00342998 0)
(1.33032 0.00297773 0)
(1.3307 0.00256633 0)
(1.33101 0.00219507 0)
(1.33126 0.00186289 0)
(1.33146 0.00156826 0)
(1.33163 0.00130937 0)
(1.33176 0.00108391 0)
(1.33186 0.000889654 0)
(1.33194 0.000723626 0)
(1.332 0.000583458 0)
(1.33204 0.000466195 0)
(1.33208 0.000368354 0)
(1.3321 0.000290307 0)
(1.33212 0.000224302 0)
(1.33213 0.000170158 0)
(1.34287 0.0050484 0)
(1.34421 0.00451288 0)
(1.34538 0.00400784 0)
(1.34641 0.00353656 0)
(1.34729 0.00309989 0)
(1.34805 0.00269795 0)
(1.3487 0.00233086 0)
(1.34924 0.00199843 0)
(1.3497 0.00170005 0)
(1.35009 0.00143459 0)
(1.3504 0.00120069 0)
(1.35066 0.000996392 0)
(1.35087 0.000819955 0)
(1.35103 0.000668576 0)
(1.35117 0.000540668 0)
(1.35127 0.000432942 0)
(1.35136 0.000343522 0)
(1.35141 0.000270985 0)
(1.35147 0.000209878 0)
(1.3515 0.000162578 0)
(1.35399 0.0042149 0)
(1.35576 0.00377308 0)
(1.35733 0.00335664 0)
(1.35871 0.00296849 0)
(1.35992 0.0026079 0)
(1.36096 0.00227465 0)
(1.36186 0.0019692 0)
(1.36263 0.00169174 0)
(1.36328 0.00144202 0)
(1.36383 0.00121928 0)
(1.36429 0.00102259 0)
(1.36467 0.000850366 0)
(1.36498 0.000701354 0)
(1.36523 0.000573058 0)
(1.36543 0.000464732 0)
(1.36559 0.000372656 0)
(1.36572 0.000297151 0)
(1.36582 0.000234034 0)
(1.36591 0.000181332 0)
(1.36596 0.000145129 0)
(1.36144 0.00317385 0)
(1.36357 0.00284305 0)
(1.36545 0.00253236 0)
(1.36712 0.00224352 0)
(1.36859 0.00197469 0)
(1.36988 0.0017254 0)
(1.37099 0.00149622 0)
(1.37194 0.0012875 0)
(1.37276 0.00109923 0)
(1.37344 0.000930986 0)
(1.37402 0.000782186 0)
(1.3745 0.000651639 0)
(1.3749 0.000538518 0)
(1.37523 0.000440813 0)
(1.37549 0.000358474 0)
(1.3757 0.000287688 0)
(1.37587 0.000230812 0)
(1.376 0.000181162 0)
(1.37611 0.000139185 0)
(1.37618 0.000116926 0)
(1.36598 0.00197248 0)
(1.36835 0.00176791 0)
(1.37046 0.00157585 0)
(1.37233 0.00139801 0)
(1.37399 0.00123215 0)
(1.37544 0.001078 0)
(1.3767 0.000936076 0)
(1.37779 0.000806616 0)
(1.37872 0.000689707 0)
(1.37952 0.000585091 0)
(1.38018 0.000492409 0)
(1.38074 0.000410985 0)
(1.3812 0.000340415 0)
(1.38158 0.000279287 0)
(1.38188 0.00022781 0)
(1.38213 0.000183127 0)
(1.38232 0.000147992 0)
(1.38248 0.000116249 0)
(1.3826 8.81251e-05 0)
(1.38269 7.63242e-05 0)
(1.36811 0.000669435 0)
(1.37061 0.00060112 0)
(1.37284 0.000536916 0)
(1.37482 0.000476981 0)
(1.37657 0.000420615 0)
(1.37811 0.000368412 0)
(1.37945 0.000320487 0)
(1.38061 0.000276865 0)
(1.3816 0.00023746 0)
(1.38245 0.000202192 0)
(1.38316 0.000170958 0)
(1.38376 0.000143456 0)
(1.38425 0.000119557 0)
(1.38466 9.88395e-05 0)
(1.38498 8.13074e-05 0)
(1.38526 6.60136e-05 0)
(1.38546 5.40038e-05 0)
(1.38564 4.31729e-05 0)
(1.38576 3.27681e-05 0)
(1.38586 2.74665e-05 0)
)
;

boundaryField
{
    fixedWalls
    {
        type            noSlip;
    }
    inlet
    {
        type            fixedValue;
        value           nonuniform 0();
    }
    outlet
    {
        type            zeroGradient;
    }
    frontAndBack
    {
        type            empty;
    }
    procBoundary2to1
    {
        type            processor;
        value           nonuniform List<vector> 
20
(
(0.0871167 3.7344e-05 0)
(0.251585 0.000209542 0)
(0.405436 0.000560478 0)
(0.547877 0.00105773 0)
(0.678238 0.00167507 0)
(0.796036 0.00239287 0)
(0.901005 0.00318401 0)
(0.993121 0.00401003 0)
(1.07261 0.00482163 0)
(1.13996 0.00556144 0)
(1.19588 0.00616881 0)
(1.24132 0.00658583 0)
(1.27735 0.00676368 0)
(1.30521 0.00666797 0)
(1.32613 0.00628244 0)
(1.34136 0.00561049 0)
(1.35201 0.00467449 0)
(1.35908 0.0035136 0)
(1.36333 0.00218012 0)
(1.36532 0.000738996 0)
)
;
    }
    procBoundary2to3
    {
        type            processor;
        value           nonuniform List<vector> 
20
(
(0.0858239 4.86166e-07 0)
(0.248282 2.13729e-06 0)
(0.400443 5.20511e-06 0)
(0.54136 9.53556e-06 0)
(0.670322 1.55789e-05 0)
(0.786888 2.39251e-05 0)
(0.890907 3.49563e-05 0)
(0.982515 4.86169e-05 0)
(1.06211 6.4383e-05 0)
(1.13032 8.13276e-05 0)
(1.18795 9.81994e-05 0)
(1.23595 0.000113523 0)
(1.2753 0.000125671 0)
(1.30703 0.000133022 0)
(1.33213 0.000134242 0)
(1.35151 0.000128316 0)
(1.36599 0.00011477 0)
(1.37624 9.36345e-05 0)
(1.38278 6.31105e-05 0)
(1.38596 2.36862e-05 0)
)
;
    }
    procBoundary2to6
    {
        type            processor;
        value           nonuniform List<vector> 
20
(
(1.36811 -0.00066881 0)
(1.37061 -0.000597341 0)
(1.37284 -0.000530264 0)
(1.37482 -0.000470234 0)
(1.37658 -0.000414618 0)
(1.37812 -0.000362552 0)
(1.37946 -0.00031416 0)
(1.38062 -0.000269785 0)
(1.38161 -0.000229596 0)
(1.38246 -0.000193549 0)
(1.38317 -0.000161576 0)
(1.38376 -0.000133529 0)
(1.38426 -0.000109298 0)
(1.38466 -8.82861e-05 0)
(1.38499 -7.08215e-05 0)
(1.38526 -5.55125e-05 0)
(1.38547 -4.41359e-05 0)
(1.38565 -3.31706e-05 0)
(1.38577 -2.3624e-05 0)
(1.38586 -2.29787e-05 0)
)
;
    }
}


// ************************************************************************* //
