/*--------------------------------*- C++ -*----------------------------------*\
| =========                 |                                                 |
| \\      /  F ield         | OpenFOAM: The Open Source CFD Toolbox           |
|  \\    /   O peration     | Version:                                        |
|   \\  /    A nd           | Website:  www.openfoam.com                      |
|    \\/     M anipulation  |                                                 |
\*---------------------------------------------------------------------------*/
FoamFile
{
    version     2.0;
    format      ascii;
    class       surfaceScalarField;
    location    "42";
    object      phi;
}
// * * * * * * * * * * * * * * * * * * * * * * * * * * * * * * * * * * * * * //

dimensions      [0 3 -1 0 0 0 0];
oriented        oriented;


internalField   nonuniform List<scalar> 
2257
(
0.00437568
-0.0311773
-0.00146228
-0.0186764
-0.00617983
-0.00683625
-0.0108271
0.00389313
-0.0154649
0.0121712
0.0194609
-0.00690513
-0.0231756
-0.0140935
-0.011488
-0.0207561
-0.000173661
-0.0260921
0.00922909
-0.0307879
0.016867
-0.0349802
0.0236532
-0.0382699
0.0288589
-0.0407204
0.0331602
-0.042167
0.0355263
0.0374164
-0.0196161
-0.0134772
-0.0276649
-0.00343917
-0.0342991
0.00646056
-0.0399723
0.0149023
-0.0448382
0.0217328
-0.0485349
0.02735
-0.0508834
0.0312075
-0.0518114
0.0340881
-0.0515151
0.0352301
0.0367155
-0.0508142
-0.0280469
-0.00289922
-0.0367618
0.00527572
-0.0440302
0.013729
-0.0497011
0.0205732
-0.0539702
0.0260019
-0.0567304
0.0301101
-0.0581686
0.0326458
-0.0582295
0.034149
-0.0571806
0.0341811
0.0349061
-0.0553712
-0.0320185
0.00619309
-0.0402881
0.0135453
-0.0469613
0.0204022
-0.0522534
0.0258652
-0.0558037
0.0295523
-0.0579851
0.0322916
-0.0587443
0.033405
-0.0584053
0.0338099
-0.0571541
0.03293
0.0325161
-0.0547641
-0.0307554
0.0139344
-0.0383248
0.0211147
-0.0440631
0.0261405
-0.0485175
0.0303196
-0.0514479
0.0324827
-0.0531396
0.0339833
-0.0536654
0.0339307
-0.0534005
0.033545
-0.0525834
0.0321129
0.0311029
-0.0511701
-0.0264849
0.0202579
-0.032659
0.0272889
-0.0374054
0.0308868
-0.0410773
0.0339915
-0.0435816
0.0349869
-0.0451048
0.0355066
-0.0458698
0.0346958
-0.0461078
0.033783
-0.0461381
0.0321433
0.0308807
-0.045916
-0.0212376
0.0246076
-0.0259295
0.0319808
-0.0297772
0.0347345
-0.032846
0.0370603
-0.035159
0.0372999
-0.0367136
0.0370611
-0.0378426
0.0358248
-0.0386723
0.0346126
-0.0395362
0.0330072
0.0316521
-0.0403077
-0.0157535
0.0275177
-0.0192068
0.0354341
-0.0224948
0.0380225
-0.0251401
0.0397057
-0.0274029
0.0395627
-0.0291175
0.0387757
-0.0306282
0.0373355
-0.0319451
0.0359295
-0.0333898
0.0344519
0.0330906
-0.0348283
-0.0111268
0.029616
-0.0133007
0.0376079
-0.0160485
0.0407703
-0.0183691
0.0420264
-0.0205417
0.0417353
-0.022402
0.040636
-0.0241969
0.0391304
-0.0258912
0.0376239
-0.0276381
0.0361988
0.0348743
-0.0294218
-0.00730052
0.0313795
-0.00855549
0.0388629
-0.0107681
0.0429829
-0.0129039
0.0441622
-0.014998
0.0438294
-0.0169162
0.0425543
-0.0187694
0.0409835
-0.0205865
0.039441
-0.0224423
0.0380546
0.0367326
-0.0243006
-0.00421069
0.0330993
-0.00484885
0.0395011
-0.00642693
0.0445609
-0.00831134
0.0460466
-0.0102675
0.0457855
-0.0121607
0.0444475
-0.0139966
0.0428195
-0.015788
0.0412323
-0.0176261
0.0398927
0.038562
-0.0194555
-0.0017215
0.0348707
-0.00212915
0.0399087
-0.00309967
0.0455315
-0.00461002
0.047557
-0.00629238
0.0474679
-0.00800955
0.0461647
-0.00971725
0.0445272
-0.0113857
0.0429008
-0.013066
0.041573
0.0402627
-0.0147667
0.000302958
0.0366011
-0.000153312
0.040365
-0.000782883
0.046161
-0.00200487
0.048779
-0.00348583
0.0489488
-0.005063
0.0477418
-0.00663895
0.0461031
-0.00817757
0.0444394
-0.00968667
0.0430821
0.0417844
-0.0112084
0.00185499
0.0381981
0.00127303
0.040947
0.000790202
0.0466439
-0.000141805
0.049711
-0.00140781
0.0502148
-0.00276372
0.0490977
-0.00413848
0.0474779
-0.0054981
0.045799
-0.00685243
0.0444364
0.0431845
-0.00825255
0.00300709
0.0395606
0.00230152
0.0416525
0.00185746
0.0470879
0.00111464
0.0504538
0.000153728
0.0511757
-0.000961444
0.0502129
-0.00211586
0.0486323
-0.00330928
0.0469925
-0.00451912
0.0456462
0.0444543
-0.00578887
0.0037826
0.0406619
0.00297574
0.0424594
0.00243549
0.0476282
0.00177093
0.0511184
0.000927643
0.052019
-1.24612e-05
0.051153
-0.00104263
0.0496625
-0.00210896
0.0480588
-0.00320041
0.0467377
0.0455932
-0.00433932
0.00412781
0.0415693
0.00323184
0.0433554
0.00258349
0.0482765
0.00197027
0.0517316
0.00129333
0.052696
0.000540329
0.051906
-0.000266948
0.0504697
-0.00115681
0.0489486
-0.00211248
0.0476934
0.0466259
-0.00314512
0.00416598
0.0423001
0.00322223
0.0442991
0.00249427
0.0490045
0.00192734
0.0522985
0.00140091
0.0532224
0.00083035
0.0524766
0.000189748
0.0511103
-0.000558356
0.0496967
-0.00139276
0.0485278
0.0475409
-0.00230781
0.00391966
0.042898
0.00296149
0.0452573
0.0021659
0.0498001
0.00161174
0.0528527
0.00116719
0.0536669
0.000699052
0.0529447
0.000154419
0.051655
-0.000484006
0.0503352
-0.0011862
0.04923
0.0482851
-0.0019304
0.00342194
0.0434468
0.00249376
0.0461855
0.00169468
0.0505991
0.00113677
0.0534106
0.000708077
0.0540956
0.000286857
0.0533659
-0.000174378
0.0521162
-0.000688574
0.0508494
-0.00126092
0.0498023
0.0489153
-0.0018911
0.00266074
0.0440505
0.00176865
0.0470776
0.00112771
0.0512401
0.000803487
0.0537348
0.000655049
0.0542441
0.000533867
0.0534871
0.000365182
0.0522849
0.000100553
0.051114
-0.000292062
0.0501949
0.0494464
-0.000823231
0.00171574
0.0447492
0.000823844
0.0479694
0.000307887
0.051756
0.00020896
0.0538337
0.000311215
0.0541418
0.000375751
0.0534226
0.00027392
0.0523867
-4.06553e-05
0.0514286
-0.000523906
0.0506782
0.0500354
-0.00111285
0.00100417
0.045334
0.000235535
0.0487381
-0.000261668
0.0522532
-0.000420912
0.053993
-0.000437435
0.0541583
-0.000512473
0.0534976
-0.000756821
0.0526311
-0.00118967
0.0518614
-0.0017622
0.0512507
0.0506736
-0.00240042
0.000301505
0.0457638
-0.000217222
0.0492568
-0.000579603
0.0526156
-0.00076013
0.0541735
-0.000866086
0.0542643
-0.000992021
0.0536235
-0.00119264
0.0528317
-0.00149469
0.0521635
-0.00191365
0.0516697
0.0512066
-0.00244668
-0.000213386
0.0460854
-0.00049883
0.0495423
-0.000625292
0.0527421
-0.00064004
0.0541882
-0.000622349
0.0542466
-0.000617392
0.0536186
-0.000651634
0.0528659
-0.00076615
0.052278
-0.00101564
0.0519192
0.0516342
-0.00144319
-0.000858001
0.0463807
-0.000975102
0.0496594
-0.00083305
0.0526
-0.000525171
0.0538804
-0.000180985
0.0539024
8.68958e-05
0.0533507
0.000223145
0.0527297
0.000208145
0.052293
3.96729e-05
0.0520876
0.051965
-0.000291182
-0.00109677
0.0467073
-0.00124085
0.0498034
-0.00114558
0.0525048
-0.000888387
0.0536232
-0.000624366
0.0536384
-0.00051496
0.0532413
-0.00064007
0.0528548
-0.000980337
0.0526333
-0.00145145
0.0525587
0.0524805
-0.0019669
-0.00124745
0.0468373
-0.00122589
0.0497819
-0.00115978
0.0524387
-0.00113791
0.0536013
-0.0012164
0.0537169
-0.001435
0.0534599
-0.00180507
0.0532249
-0.00230465
0.0531328
-0.00288699
0.0531411
0.0531019
-0.00350845
-0.000934965
-0.000779986
-0.0006188
-0.000563132
-0.000624749
-0.000785021
-0.00102899
-0.00135375
-0.00176794
-0.00229237
-0.0393363
0.0690628
-0.0355425
0.0728713
-0.0322871
0.0775472
-0.0292942
0.0824991
-0.0264144
0.0876152
-0.0236471
0.0928921
-0.0210422
0.0983373
-0.0186266
0.104164
-0.0163989
0.11044
-0.0143734
0.117134
-0.0125504
0.124224
-0.0109134
0.131747
-0.00944243
0.139748
-0.00812255
0.148261
-0.00694553
0.157319
-0.00590243
0.166962
-0.0049829
0.177235
-0.00417667
0.188188
-0.00347305
0.199877
-0.00286129
0.212365
-0.00233066
0.225722
-0.00187082
0.240027
-0.00147124
0.255368
-0.00112173
0.271848
-0.000811669
0.289582
-0.000529977
0.308706
-0.000264393
0.329383
0.351808
-0.0502464
0.0568631
-0.0468489
0.0623841
-0.0420225
0.0642364
-0.0384973
0.0693462
-0.0352737
0.0743236
-0.0320376
0.079263
-0.0289259
0.0845035
-0.0259792
0.0899454
-0.0232198
0.0955779
-0.0206362
0.101581
-0.0182435
0.108048
-0.0160606
0.114951
-0.0140864
0.12225
-0.0123038
0.129964
-0.0106902
0.138134
-0.00923166
0.146803
-0.0079217
0.156009
-0.0067538
0.165794
-0.00572036
0.176201
-0.00481084
0.187278
-0.00401407
0.19908
-0.00331811
0.211669
-0.00271167
0.225115
-0.00218325
0.239498
-0.00172163
0.254907
-0.00131552
0.271442
-0.000953525
0.28922
-0.00062338
0.308376
-0.00031155
0.329071
0.351496
-0.0526607
0.0541526
-0.0475836
0.0573071
-0.0433535
0.0600063
-0.0405177
0.0665104
-0.0371578
0.0709637
-0.0338537
0.075959
-0.0307376
0.0813874
-0.0277727
0.0869805
-0.0249229
0.0927281
-0.0222374
0.0988953
-0.0197638
0.105574
-0.0175006
0.112688
-0.0154379
0.120187
-0.0135547
0.128081
-0.011832
0.136411
-0.0102629
0.145234
-0.00884367
0.15459
-0.00757052
0.164521
-0.00643527
0.175066
-0.00542956
0.186272
-0.00454305
0.198194
-0.00376565
0.210891
-0.00308556
0.224435
-0.00249064
0.238903
-0.00196872
0.254385
-0.00150789
0.270981
-0.00109536
0.288807
-0.000717407
0.307998
-0.00035865
0.328712
0.351138
-0.0511628
0.0505513
-0.0464207
0.0525649
-0.0438205
0.057406
-0.0412052
0.0638951
-0.0376991
0.0674576
-0.0346063
0.0728661
-0.0316835
0.0784647
-0.0287983
0.0840954
-0.0259696
0.0898994
-0.0233372
0.0962629
-0.0209033
0.10314
-0.0186468
0.110432
-0.0165545
0.118095
-0.0146129
0.12614
-0.0128208
0.134619
-0.0111771
0.14359
-0.00968172
0.153095
-0.00833027
0.16317
-0.00711771
0.173854
-0.00603565
0.18519
-0.00507431
0.197232
-0.00422346
0.21004
-0.00347301
0.223685
-0.00281244
0.238243
-0.00222993
0.253802
-0.00171237
0.270463
-0.00124639
0.288341
-0.00081755
0.307569
-0.000409336
0.328304
0.350729
-0.0476898
0.0470709
-0.0446534
0.0495286
-0.0431752
0.0559278
-0.0402492
0.0609692
-0.037018
0.0642263
-0.0344578
0.0703059
-0.0317954
0.0758023
-0.0289949
0.0812948
-0.0263627
0.0872671
-0.0239307
0.093831
-0.0216368
0.100846
-0.0194536
0.108248
-0.0173774
0.116019
-0.0154239
0.124186
-0.0136058
0.132801
-0.0119273
0.141911
-0.0103892
0.151557
-0.0089885
0.161769
-0.00772093
0.172586
-0.00657952
0.184049
-0.00555721
0.19621
-0.00464595
0.209129
-0.00383614
0.222875
-0.00311702
0.237524
-0.00247764
0.253163
-0.0019067
0.269892
-0.00139071
0.287825
-0.000913716
0.307092
-0.00045743
0.327847
0.350271
-0.0435391
0.0446941
-0.0419782
0.0479676
-0.0406616
0.0546113
-0.0377543
0.0580618
-0.0353379
0.06181
-0.0332973
0.0682652
-0.0308339
0.073339
-0.0284277
0.0788887
-0.0261563
0.0849958
-0.0240128
0.0916875
-0.0219158
0.0987493
-0.0198552
0.106188
-0.017857
0.114021
-0.0159554
0.122285
-0.0141691
0.131015
-0.0125069
0.140249
-0.0109682
0.150018
-0.00955257
0.160354
-0.00825707
0.17129
-0.00707897
0.182871
-0.00601406
0.195145
-0.00505592
0.208171
-0.00419636
0.222015
-0.0034265
0.236754
-0.00273605
0.252472
-0.00211321
0.269269
-0.00154496
0.287257
-0.00101666
0.306564
-0.000509498
0.32734
0.349762
-0.0390436
0.04343
-0.0383305
0.0472545
-0.0369444
0.0532253
-0.0344654
0.0555827
-0.0329279
0.0602725
-0.0312615
0.0665989
-0.0291551
0.0712326
-0.0271827
0.0769162
-0.0253753
0.0831883
-0.0235594
0.0898716
-0.0216855
0.0968754
-0.0198009
0.104303
-0.0179493
0.112169
-0.0161655
0.120501
-0.0144722
0.129322
-0.0128731
0.13865
-0.0113734
0.148518
-0.00997393
0.158954
-0.00867736
0.169994
-0.00748454
0.181678
-0.0063943
0.194055
-0.00540314
0.20718
-0.00450606
0.221118
-0.00369569
0.235943
-0.00296286
0.251739
-0.00229683
0.268603
-0.00168484
0.286645
-0.00111153
0.305991
-0.000557931
0.326787
0.349204
-0.0342794
0.0428812
-0.0338779
0.046853
-0.0325859
0.0519333
-0.0309352
0.0539321
-0.0300182
0.0593555
-0.028665
0.0652457
-0.0270239
0.0695915
-0.025571
0.0754634
-0.0241278
0.081745
-0.0225646
0.0883085
-0.020949
0.0952598
-0.0193123
0.102666
-0.0176817
0.110538
-0.0160863
0.118905
-0.014537
0.127772
-0.0130471
0.13716
-0.0116232
0.147094
-0.0102741
0.157605
-0.00900657
0.168726
-0.00782492
0.180496
-0.00673073
0.192961
-0.0057241
0.206173
-0.00480194
0.220196
-0.00395961
0.235101
-0.00318995
0.25097
-0.00248363
0.267897
-0.00182872
0.28599
-0.00121024
0.305372
-0.000609116
0.326186
0.348595
-0.0293009
0.0427602
-0.0290988
0.046651
-0.0281202
0.0509546
-0.0272226
0.0530345
-0.0267534
0.0588863
-0.0257199
0.0642121
-0.0245448
0.0684164
-0.0234987
0.0744172
-0.0223513
0.0805976
-0.0210963
0.0870535
-0.0197883
0.0939518
-0.0184426
0.101321
-0.0170768
0.109173
-0.0157026
0.117531
-0.0143349
0.126405
-0.0129871
0.135812
-0.0116733
0.14578
-0.0104054
0.156337
-0.00919372
0.167515
-0.0080459
0.179349
-0.00696806
0.191883
-0.00596333
0.205168
-0.00503189
0.219265
-0.0041713
0.23424
-0.00337619
0.250175
-0.00263916
0.26716
-0.0019495
0.2853
-0.00129321
0.304716
-0.000652095
0.325544
0.347942
-0.0244343
0.0428939
-0.0244211
0.0466378
-0.0238549
0.0503884
-0.0235223
0.0527019
-0.0232956
0.0586597
-0.022573
0.0634895
-0.0218166
0.06766
-0.021109
0.0737096
-0.0202553
0.079744
-0.0193201
0.0861182
-0.0183456
0.0929774
-0.0173107
0.100286
-0.0162216
0.108084
-0.0150864
0.116396
-0.0139207
0.125239
-0.0127415
0.134633
-0.0115645
0.144603
-0.0104047
0.155177
-0.00927483
0.166385
-0.00818532
0.178259
-0.00714502
0.190842
-0.00615936
0.204183
-0.00523205
0.218337
-0.00436338
0.233372
-0.00355113
0.249362
-0.00278942
0.266398
-0.00206908
0.28458
-0.00137715
0.304024
-0.000695393
0.324863
0.347247
-0.0197778
0.0432162
-0.0199584
0.0468183
-0.0197813
0.0502113
-0.0198144
0.052735
-0.0197481
0.0585934
-0.0193524
0.0630938
-0.0189711
0.0672787
-0.0185783
0.0733168
-0.0180337
0.0791994
-0.0174097
0.0854942
-0.0167383
0.0923059
-0.0159928
0.0995402
-0.0151628
0.107254
-0.0142582
0.115491
-0.0132964
0.124277
-0.0122949
0.133632
-0.0112708
0.143579
-0.0102389
0.154145
-0.0092106
0.165356
-0.0081992
0.177248
-0.00721444
0.189858
-0.00626609
0.203234
-0.0053594
0.217431
-0.00449748
0.23251
-0.00367987
0.248545
-0.00290322
0.265622
-0.00216085
0.283838
-0.00144162
0.303305
-0.000729263
0.32415
0.346518
-0.0152201
0.0436696
-0.0155845
0.0471827
-0.0157547
0.0503815
-0.0160848
0.0530651
-0.0162232
0.0587318
-0.0161745
0.0630451
-0.0161536
0.0672578
-0.0160692
0.0732324
-0.0158357
0.0789659
-0.0155178
0.0851764
-0.0151106
0.0918986
-0.0146005
0.0990302
-0.0139965
0.10665
-0.0133073
0.114802
-0.0125443
0.123514
-0.0117222
0.13281
-0.0108575
0.142715
-0.00996075
0.153249
-0.00904689
0.164443
-0.00812684
0.176328
-0.00721327
0.188944
-0.00631535
0.202336
-0.00544141
0.216557
-0.00459702
0.231665
-0.00378428
0.247732
-0.00300221
0.26484
-0.00224521
0.283081
-0.00150367
0.302563
-0.000762473
0.323409
0.345755
-0.0117207
0.0441819
-0.0121774
0.0476394
-0.0125393
0.0507434
-0.0130345
0.0535603
-0.0133248
0.0590221
-0.0135162
0.0632364
-0.0137432
0.0674848
-0.0138746
0.0733639
-0.0138651
0.0789564
-0.013755
0.0850662
-0.0135367
0.0916803
-0.0132033
0.0986968
-0.0127813
0.106228
-0.012274
0.114295
-0.0116874
0.122928
-0.0110335
0.132156
-0.0103213
0.142002
-0.00956204
0.152489
-0.00876644
0.163647
-0.0079474
0.175509
-0.00711589
0.188113
-0.00628202
0.201503
-0.00545499
0.21573
-0.00464063
0.230851
-0.00384378
0.246935
-0.0030649
0.264061
-0.00230141
0.282317
-0.001546
0.301808
-0.00078549
0.322649
0.34497
-0.00883602
0.0447654
-0.0093943
0.0481977
-0.00991299
0.0512621
-0.0105145
0.0541618
-0.0109148
0.0594224
-0.0112691
0.0635907
-0.0116401
0.0678557
-0.0119
0.0736238
-0.0120443
0.0791007
-0.0120822
0.0851042
-0.0120074
0.0916055
-0.0118299
0.0985193
-0.0115606
0.105958
-0.0112119
0.113946
-0.0107865
0.122502
-0.0102885
0.131658
-0.00972053
0.141434
-0.00909255
0.151862
-0.00841473
0.162969
-0.00769858
0.174792
-0.00695298
0.187367
-0.00618997
0.20074
-0.00541692
0.214957
-0.00464231
0.230076
-0.003871
0.246164
-0.00310546
0.263295
-0.00234428
0.281556
-0.00158135
0.301045
-0.000805925
0.321873
0.344164
-0.00640924
0.0453858
-0.00702412
0.0488126
-0.0076351
0.0518731
-0.00830671
0.0548334
-0.00879178
0.0599075
-0.0092391
0.0640381
-0.00967873
0.0682953
-0.0100046
0.0739496
-0.0102468
0.0793429
-0.0104026
0.08526
-0.0104599
0.0916628
-0.0104186
0.0984781
-0.0103028
0.105842
-0.0101065
0.11375
-0.00983233
0.122228
-0.00947674
0.131302
-0.00904538
0.141003
-0.00854301
0.151359
-0.00798116
0.162407
-0.00736679
0.174178
-0.0067126
0.186713
-0.00602596
0.200053
-0.00531519
0.214246
-0.00458836
0.22935
-0.00385057
0.245426
-0.00310582
0.26255
-0.00235455
0.280805
-0.00159339
0.300284
-0.000813326
0.321093
0.343351
-0.00492527
0.0459717
-0.00548956
0.0493768
-0.00604709
0.0524306
-0.00665469
0.055441
-0.00711776
0.0603706
-0.00755935
0.0644797
-0.00799794
0.0687339
-0.0083377
0.0742894
-0.00862641
0.0796316
-0.00885791
0.0854915
-0.00901737
0.0918222
-0.00910129
0.098562
-0.00911383
0.105855
-0.00904739
0.113684
-0.00889898
0.12208
-0.00867086
0.131074
-0.00836064
0.140693
-0.00797608
0.150975
-0.00752209
0.161953
-0.00700666
0.173663
-0.00643969
0.186146
-0.00582714
0.19944
-0.00518015
0.213599
-0.00450414
0.228674
-0.00380545
0.244727
-0.00308798
0.261833
-0.00235293
0.28007
-0.00159841
0.299529
-0.000818299
0.320313
0.342532
-0.00369224
0.0465188
-0.00420751
0.0498921
-0.00470152
0.0529246
-0.00521889
0.0559584
-0.00562311
0.0607748
-0.00604056
0.0648971
-0.00646501
0.0691584
-0.00682235
0.0746467
-0.00715005
0.0799593
-0.00743468
0.0857761
-0.007669
0.0920565
-0.00784278
0.0987358
-0.00795121
0.105963
-0.00798848
0.113721
-0.00794835
0.122039
-0.00782631
0.130952
-0.00762402
0.140491
-0.00734752
0.150698
-0.00699429
0.1616
-0.00657611
0.173244
-0.00609442
0.185664
-0.00555974
0.198906
-0.00497903
0.213018
-0.00435872
0.228053
-0.00370576
0.244075
-0.0030236
0.261151
-0.00231464
0.279361
-0.00157835
0.298793
-0.000809864
0.319545
0.341722
-0.00277705
0.0469881
-0.00320262
0.0503177
-0.00361026
0.0533323
-0.00404953
0.0563977
-0.00441331
0.0611386
-0.00481165
0.0652954
-0.00523982
0.0695866
-0.00562659
0.0750335
-0.00599288
0.0803256
-0.0063163
0.0860995
-0.00659055
0.0923308
-0.00681452
0.0989598
-0.00698512
0.106134
-0.00708522
0.113821
-0.00711606
0.12207
-0.00707049
0.130906
-0.00695674
0.140377
-0.00676629
0.150508
-0.00650448
0.161338
-0.00617
0.17291
-0.00576658
0.185261
-0.00530387
0.198443
-0.00478538
0.2125
-0.00421958
0.227487
-0.003611
0.243466
-0.00296368
0.260503
-0.00228049
0.278678
-0.00156103
0.298074
-0.000802951
0.318787
0.340919
-0.00223041
0.0472881
-0.00246575
0.050553
-0.00269254
0.0535591
-0.00299209
0.0566972
-0.00327978
0.0614263
-0.00363089
0.0656466
-0.00405826
0.0700139
-0.0044766
0.0754518
-0.00487845
0.0807275
-0.00524215
0.0864632
-0.00555357
0.0926422
-0.00581955
0.0992258
-0.00603529
0.10635
-0.00618976
0.113975
-0.00627766
0.122158
-0.00630187
0.130931
-0.00625893
0.140334
-0.0061424
0.150391
-0.0059571
0.161153
-0.00569646
0.172649
-0.005369
0.184933
-0.00497463
0.198049
-0.00452015
0.212045
-0.00401178
0.226979
-0.00345347
0.242908
-0.00285022
0.2599
-0.00220357
0.278031
-0.00151442
0.297384
-0.000781395
0.318053
0.340138
-0.00207805
0.047475
-0.00221047
0.0506855
-0.00233202
0.0536806
-0.00253051
0.0568957
-0.0027434
0.0616392
-0.00304067
0.0659438
-0.00343373
0.070407
-0.00382993
0.075848
-0.00420905
0.0811066
-0.00456008
0.0868143
-0.00486517
0.0929473
-0.00513162
0.0994922
-0.00534927
0.106567
-0.00552218
0.114148
-0.00563566
0.122272
-0.00569973
0.130995
-0.00569647
0.140331
-0.00563142
0.150326
-0.0054976
0.161019
-0.00529657
0.172448
-0.0050292
0.184666
-0.00469359
0.197713
-0.00429579
0.211647
-0.00383666
0.22652
-0.00332168
0.242393
-0.00275428
0.259333
-0.00213754
0.277414
-0.00147334
0.29672
-0.000761263
0.317341
0.339377
-0.000989489
0.0476413
-0.00115022
0.0508462
-0.00136912
0.0538995
-0.00170197
0.0572285
-0.00202993
0.0619671
-0.00237825
0.0662921
-0.00280539
0.0708341
-0.00320834
0.076251
-0.0035693
0.0814676
-0.00390522
0.0871502
-0.00420933
0.0932514
-0.00446811
0.099751
-0.0046976
0.106797
-0.00487385
0.114325
-0.00501357
0.122411
-0.00509873
0.13108
-0.00512663
0.140358
-0.00509931
0.150299
-0.00500667
0.160927
-0.00485474
0.172296
-0.00463661
0.184448
-0.00435488
0.197431
-0.00400944
0.211302
-0.00360148
0.226112
-0.00313509
0.241926
-0.00261231
0.25881
-0.00203613
0.276838
-0.00140788
0.296092
-0.000729121
0.316663
0.338648
-0.00132163
0.0478501
-0.00151828
0.0510428
-0.00179041
0.0541716
-0.00223168
0.0576698
-0.00259226
0.0623277
-0.00286032
0.0665602
-0.00317388
0.0711477
-0.00340992
0.076487
-0.00361389
0.0816715
-0.00381198
0.0873483
-0.00400086
0.0934403
-0.00417934
0.0999295
-0.00434512
0.106962
-0.00448268
0.114462
-0.00459587
0.122525
-0.00466929
0.131153
-0.00470543
0.140395
-0.00468955
0.150283
-0.00462311
0.16086
-0.00450161
0.172175
-0.00432032
0.184266
-0.00408048
0.197191
-0.00377708
0.210998
-0.00341162
0.225747
-0.00298451
0.241499
-0.00249757
0.258323
-0.00195327
0.276294
-0.00135458
0.295493
-0.000702792
0.316011
0.337945
-0.00259249
0.0480422
-0.00274367
0.051194
-0.00291828
0.0543463
-0.0031983
0.0579498
-0.00339971
0.0625291
-0.00352178
0.0666823
-0.00364518
0.0712711
-0.00369182
0.0765337
-0.00373458
0.0817143
-0.00378921
0.0874029
-0.00385564
0.0935067
-0.003945
0.100019
-0.00403847
0.107056
-0.00412816
0.114552
-0.00420468
0.122601
-0.00426122
0.13121
-0.00429073
0.140424
-0.00428199
0.150274
-0.00423354
0.160812
-0.00413484
0.172076
-0.00398487
0.184117
-0.00377889
0.196985
-0.00351367
0.210733
-0.00318881
0.225422
-0.00280283
0.241113
-0.00235633
0.257877
-0.00185102
0.275788
-0.0012877
0.29493
-0.000669415
0.315393
0.337275
-0.00255287
0.0481483
-0.00265835
0.0512995
-0.00277415
0.0544621
-0.00292045
0.0580961
-0.00304095
0.0626496
-0.0031731
0.0668144
-0.00328713
0.0713851
-0.00333581
0.0765824
-0.00338918
0.0817677
-0.00345032
0.087464
-0.00351443
0.0935708
-0.00360831
0.100113
-0.00369455
0.107142
-0.00378958
0.114647
-0.00386843
0.12268
-0.00393166
0.131273
-0.00396506
0.140458
-0.00396858
0.150278
-0.00393524
0.160778
-0.00385771
0.171999
-0.0037322
0.183991
-0.0035521
0.196805
-0.00331593
0.210497
-0.00302131
0.225127
-0.0026657
0.240758
-0.00224939
0.25746
-0.00177221
0.275311
-0.00123617
0.294394
-0.000644157
0.314801
0.336631
-0.00150062
0.0482058
-0.00160787
0.0514068
-0.00176326
0.0546174
-0.00194626
0.0582791
-0.00213485
0.0628382
-0.00237156
0.0670511
-0.00259542
0.071609
-0.00276295
0.0767499
-0.0029157
0.0819204
-0.00304527
0.0875936
-0.00316992
0.0936955
-0.00328313
0.100226
-0.00339192
0.107251
-0.00348268
0.114738
-0.00356277
0.12276
-0.00362108
0.131331
-0.00365228
0.140489
-0.00366029
0.150286
-0.00363243
0.16075
-0.00356763
0.171934
-0.00345829
0.183882
-0.00330019
0.196647
-0.00308939
0.210286
-0.00282232
0.22486
-0.0024965
0.240432
-0.00211172
0.257075
-0.00166708
0.274867
-0.00116517
0.293892
-0.000607761
0.314243
0.336024
-0.000264244
0.0481788
-0.000305814
0.0514483
-0.000490988
0.0548026
-0.000799593
0.0585877
-0.00110291
0.0631415
-0.00140518
0.0673534
-0.00174399
0.0719478
-0.00202149
0.0770274
-0.00228157
0.0821805
-0.00251813
0.0878302
-0.00272952
0.0939068
-0.0029174
0.100414
-0.00308025
0.107414
-0.00321513
0.114872
-0.00332505
0.12287
-0.00340569
0.131412
-0.00345819
0.140541
-0.00347776
0.150305
-0.00346241
0.160735
-0.00340986
0.171881
-0.00331273
0.183785
-0.00316899
0.196504
-0.00297328
0.210091
-0.00272307
0.22461
-0.0024156
0.240124
-0.00204889
0.256709
-0.00162237
0.27444
-0.00113573
0.293405
-0.000593337
0.313701
0.33543
-0.00197829
0.0481902
-0.00197041
0.0514404
-0.00204766
0.0548799
-0.00224855
0.0587886
-0.00236141
0.0632544
-0.00242141
0.0674134
-0.00251964
0.072046
-0.00257864
0.0770864
-0.00266213
0.082264
-0.00274993
0.087918
-0.0028516
0.0940085
-0.00294499
0.100507
-0.00304194
0.107511
-0.00312021
0.114951
-0.00319437
0.122944
-0.00324396
0.131462
-0.0032778
0.140575
-0.00328839
0.150316
-0.00327078
0.160718
-0.00321909
0.17183
-0.00312981
0.183695
-0.00299791
0.196372
-0.00281794
0.209911
-0.00258557
0.224377
-0.00229766
0.239836
-0.00195148
0.256363
-0.00154666
0.274035
-0.00108393
0.292943
-0.00056652
0.313183
0.334864
-0.00356753
0.0482493
-0.00355658
0.0514295
-0.00350499
0.0548283
-0.00343396
0.0587176
-0.00328842
0.0631088
-0.00315848
0.0672835
-0.00307056
0.0719581
-0.00298554
0.0770014
-0.00295035
0.0822288
-0.00295044
0.0879181
-0.00296965
0.0940277
-0.00301629
0.100554
-0.00306666
0.107561
-0.00312407
0.115008
-0.00317897
0.122999
-0.00321862
0.131501
-0.00324807
0.140605
-0.00325289
0.150321
-0.00323237
0.160697
-0.00317903
0.171776
-0.00309107
0.183607
-0.00296063
0.196241
-0.00278434
0.209734
-0.00255586
0.224149
-0.00227283
0.239553
-0.00193176
0.256022
-0.00153182
0.273635
-0.00107438
0.292485
-0.00056128
0.31267
0.334302
-0.00233119
-0.00235751
-0.00236507
-0.00233548
-0.00228643
-0.00228715
-0.00232829
-0.00236831
-0.00244322
-0.00253973
-0.00262677
-0.0027463
-0.00283196
-0.00294658
-0.00301844
-0.00309771
-0.00314447
-0.00316423
-0.00315435
-0.00311062
-0.00302834
-0.0029029
-0.00273024
-0.00250662
-0.00222888
-0.00189474
-0.00150295
-0.00105409
-0.00055084
)
;

boundaryField
{
    outlet
    {
        type            calculated;
        value           nonuniform List<scalar> 
40
(
0.0468538
0.0496269
0.0522775
0.0535456
0.0537785
0.0536202
0.0534688
0.0534576
0.0535553
0.0536264
0.0482881
0.0514558
0.0548358
0.058688
0.0630598
0.0672842
0.0719992
0.0770414
0.0823037
0.0880146
0.0941148
0.100673
0.107647
0.115123
0.123071
0.13158
0.140651
0.15034
0.160687
0.171733
0.183525
0.196116
0.209562
0.223925
0.239276
0.255687
0.273244
0.292036
0.312167
0.333752
)
;
    }
    upperWall
    {
        type            symmetryPlane;
        value           nonuniform 0();
    }
    lowerWall
    {
        type            symmetryPlane;
        value           uniform 0;
    }
    inlet
    {
        type            calculated;
        value           nonuniform 0();
    }
    cylinder
    {
        type            calculated;
        value           nonuniform 0();
    }
    frontAndBack
    {
        type            empty;
        value           nonuniform 0();
    }
    procBoundary3to2
    {
        type            processor;
        value           nonuniform List<scalar> 
43
(
0.0376047
0.0245144
0.0115538
0.000754089
-0.00753336
-0.0147601
-0.0201657
-0.0255693
-0.0307097
-0.0340798
-0.0368546
-0.0427288
-0.0728309
-0.0766651
-0.0808027
-0.0854919
-0.0904951
-0.0956594
-0.100942
-0.10658
-0.112668
-0.11916
-0.126047
-0.133384
-0.141219
-0.149581
-0.158496
-0.168005
-0.178154
-0.188994
-0.20058
-0.212976
-0.226252
-0.240486
-0.255768
-0.272197
-0.289892
-0.308988
-0.329648
-0.352072
-0.0574309
0.0431043
-0.0657816
)
;
    }
    procBoundary3to7
    {
        type            processor;
        value           nonuniform List<scalar> 
30
(
-0.0108031
-0.00109658
0.00991763
0.0174689
0.0229262
0.0230141
0.0201613
0.0168879
0.0128434
0.0090285
0.005537
0.00249088
-4.9891e-05
-0.0020334
-0.00345197
-0.0043696
-0.00488385
-0.00503523
-0.00489679
-0.00451753
-0.00397078
-0.00326445
-0.00241443
-0.00158897
-0.000731291
-0.000108199
0.000562675
0.000770221
0.00111741
0.000918533
)
;
    }
}


// ************************************************************************* //
