/*--------------------------------*- C++ -*----------------------------------*\
| =========                 |                                                 |
| \\      /  F ield         | OpenFOAM: The Open Source CFD Toolbox           |
|  \\    /   O peration     | Version:                                        |
|   \\  /    A nd           | Website:  www.openfoam.com                      |
|    \\/     M anipulation  |                                                 |
\*---------------------------------------------------------------------------*/
FoamFile
{
    version     2.0;
    format      ascii;
    class       volScalarField;
    location    "29.1";
    object      p;
}
// * * * * * * * * * * * * * * * * * * * * * * * * * * * * * * * * * * * * * //

dimensions      [0 2 -2 0 0 0 0];


internalField   nonuniform List<scalar> 
1150
(
0.221635
0.219691
0.215549
0.209168
0.200264
0.189069
0.232432
0.229912
0.224762
0.217012
0.20657
0.243735
0.24067
0.234651
0.0312776
0.0312288
0.0311269
0.0309835
0.0307907
0.0305682
0.0303093
0.0300254
0.0297203
0.0294167
0.0244873
0.0244917
0.0245009
0.0245072
0.0245143
0.0245119
0.024501
0.0244741
0.0244236
0.0243558
0.0277052
0.0276804
0.0276251
0.0275552
0.0274586
0.0273595
0.0272479
0.0271462
0.0270576
0.0269694
0.0287642
0.0287476
0.0287376
0.0286957
0.0286764
0.0286233
0.02858
0.0285197
0.0284283
0.0283321
0.0317531
0.0317371
0.0316955
0.0316495
0.031561
0.0314741
0.0313482
0.0312168
0.03108
0.030948
0.0328612
0.0328306
0.0328023
0.0327225
0.0326684
0.0325638
0.032482
0.0323922
0.0322686
0.0321984
0.0352738
0.0352544
0.0352078
0.0351685
0.035078
0.0350133
0.0348952
0.0347924
0.0346643
0.0345806
0.0374805
0.037451
0.0374314
0.0373588
0.0373209
0.0372257
0.037148
0.0370825
0.0369264
0.0369457
0.0406205
0.0405907
0.0405333
0.0404828
0.0403681
0.0403003
0.0401496
0.0400682
0.0399063
0.0399024
0.0435045
0.0434648
0.0434203
0.0433379
0.0432638
0.0431743
0.0430574
0.0430501
0.0427955
0.0429796
0.047367
0.0473367
0.0472915
0.0472786
0.0471913
0.047228
0.0470695
0.0472229
0.0468749
0.0471275
0.0513221
0.051271
0.0511968
0.0511165
0.0509659
0.0509007
0.0506672
0.050672
0.0502937
0.0503912
0.055788
0.0557359
0.0556498
0.0556233
0.0554651
0.055509
0.0552595
0.0553676
0.0549677
0.0551977
0.0606882
0.0606266
0.0605335
0.0604521
0.0602655
0.060166
0.0598531
0.0597991
0.0592411
0.0594515
0.066193
0.0661276
0.0660128
0.0659476
0.0656735
0.0656266
0.0651378
0.0651796
0.0644161
0.0646455
0.0719361
0.0718238
0.0716349
0.0714365
0.0710822
0.0708305
0.0702877
0.0701348
0.0692863
0.0695301
0.0782422
0.0781286
0.0779206
0.0777356
0.0772886
0.0771269
0.0763567
0.0763493
0.0751803
0.0754046
0.0850848
0.0849008
0.0845933
0.0842635
0.0836742
0.0832595
0.0823581
0.0820135
0.0806746
0.0807445
0.0925237
0.0923038
0.0919187
0.0915418
0.0907795
0.090371
0.0891316
0.0888918
0.0870136
0.0869937
0.100346
0.100047
0.0995429
0.0989877
0.0980156
0.0972959
0.0958021
0.0950641
0.0929377
0.0925223
0.108797
0.108454
0.107848
0.107204
0.105985
0.105179
0.103223
0.102507
0.0995874
0.0990078
0.117803
0.117356
0.116573
0.115682
0.114133
0.112908
0.110501
0.109059
0.105737
0.104303
0.127463
0.126939
0.125986
0.124913
0.122983
0.121507
0.118463
0.116829
0.112407
0.110642
0.137626
0.136974
0.135778
0.134371
0.131957
0.1299
0.126132
0.123472
0.11838
0.115086
0.148377
0.147634
0.146207
0.144525
0.141574
0.139046
0.134429
0.13119
0.124698
0.120722
0.159623
0.158741
0.157008
0.154888
0.15127
0.147919
0.142237
0.137539
0.12993
0.123446
0.171413
0.170435
0.168413
0.16589
0.161558
0.157402
0.150625
0.144674
0.135432
0.127446
0.18364
0.182521
0.180144
0.177015
0.171835
0.166432
0.158225
0.150155
0.139119
0.127303
0.196353
0.195114
0.192395
0.188605
0.182535
0.175762
0.166173
0.155926
0.143091
0.20952
0.208056
0.204828
0.199979
0.192743
0.183905
0.172391
0.0290973
0.0287289
0.0283103
0.027872
0.0273998
0.0268172
0.0260729
0.0251413
0.0241499
0.0232087
0.0223478
0.0215671
0.0208656
0.0202332
0.0196503
0.0190908
0.0185225
0.0179082
0.0172197
0.0164456
0.0155845
0.0146442
0.0136436
0.0126052
0.0115595
0.0105467
0.00961531
0.00881821
0.00821735
0.00788027
0.024306
0.024274
0.0242422
0.0242182
0.0242335
0.0243087
0.0244668
0.0247416
0.025057
0.0252927
0.025346
0.02518
0.0247605
0.0240834
0.0231815
0.0221163
0.0209592
0.0197772
0.0185961
0.0174213
0.01624
0.015047
0.0138487
0.012657
0.0114956
0.0103978
0.00940387
0.00856372
0.00793563
0.00758487
0.0268909
0.0267879
0.0266467
0.0265055
0.0263714
0.0261842
0.0259198
0.0255698
0.0252217
0.0248793
0.024557
0.0242323
0.0238803
0.0234612
0.022919
0.0222015
0.0212801
0.0201902
0.0189829
0.0176955
0.0163699
0.0150313
0.0136965
0.0123854
0.0111253
0.00994893
0.00889602
0.00801495
0.0073615
0.00699843
0.0281586
0.0279518
0.0276971
0.0273989
0.0270913
0.0267916
0.0265036
0.0262497
0.0260308
0.0257986
0.0254615
0.0250033
0.0244222
0.0237397
0.0229789
0.0221391
0.0211968
0.020115
0.0188819
0.0175336
0.0161183
0.0146763
0.0132381
0.0118331
0.0104919
0.00924774
0.00814195
0.00722341
0.00654611
0.00617145
0.0307855
0.0305377
0.0301958
0.0298523
0.0295354
0.0291422
0.0286271
0.027952
0.0272349
0.0264946
0.0257734
0.0250716
0.0243624
0.0236051
0.0227668
0.0218328
0.0208048
0.0196719
0.0184221
0.0170578
0.0155986
0.0140802
0.0125508
0.0110577
0.00964075
0.00833692
0.00718721
0.00623793
0.00554074
0.00515687
0.0320019
0.0317385
0.0313978
0.0309495
0.0304005
0.0298513
0.0293397
0.0288898
0.0284617
0.0279937
0.0273623
0.026551
0.0255753
0.0244692
0.0232722
0.0220132
0.0207034
0.0193443
0.0179314
0.0164546
0.0149093
0.0133115
0.0116997
0.0101227
0.00862915
0.00726464
0.00607207
0.00509413
0.00438084
0.00399005
0.0343802
0.0340525
0.0336163
0.0332293
0.0329004
0.0323717
0.031618
0.0306953
0.029788
0.0289053
0.0280405
0.0271294
0.0261089
0.0249436
0.023627
0.0221831
0.020643
0.0190401
0.0173995
0.0157306
0.0140411
0.0123428
0.0106563
0.00901521
0.00746368
0.00604937
0.00481785
0.0038138
0.00308657
0.00268913
0.0367107
0.0363841
0.0360513
0.0355813
0.0348809
0.0340668
0.0332184
0.0323747
0.0315581
0.0307481
0.0297963
0.0286444
0.0273116
0.0258398
0.0242479
0.0225455
0.0207455
0.018873
0.0169568
0.0150282
0.0131182
0.011253
0.00945382
0.00774205
0.00614528
0.00469859
0.00344192
0.00242199
0.00168533
0.00128307
0.0396039
0.0390327
0.0382909
0.037648
0.037212
0.036585
0.0356072
0.0343883
0.0332176
0.0319776
0.0307072
0.0293692
0.0279185
0.0263246
0.0245773
0.0226875
0.0206816
0.01859
0.016448
0.0142979
0.0121783
0.0101277
0.00818319
0.00637314
0.00471899
0.00324252
0.00197363
0.000950604
0.00021196
-0.00019053
0.0425388
0.0419823
0.0415152
0.0408646
0.0398093
0.0386063
0.0374866
0.0364053
0.0352347
0.0339294
0.0324189
0.0307174
0.0288815
0.0269248
0.02485
0.0226691
0.0204061
0.0180889
0.0157507
0.0134249
0.0111443
0.00894738
0.00687453
0.0049615
0.00323694
0.00172277
0.000442961
-0.000579068
-0.00131352
-0.00171161
0.046631
0.0457698
0.0447136
0.043753
0.0429236
0.0419407
0.0405439
0.038868
0.0372284
0.0354855
0.033647
0.0316825
0.0295795
0.0273269
0.0249434
0.0224586
0.0199061
0.0173307
0.0147787
0.0122855
0.00987785
0.00758543
0.00543835
0.00346569
0.00169634
0.000156457
-0.00113131
-0.00215165
-0.00287838
-0.00327018
0.0496687
0.0488342
0.048045
0.0470298
0.0455938
0.0439418
0.0423451
0.0407268
0.0389803
0.0370938
0.0350083
0.03271
0.0302314
0.0276141
0.0248988
0.0221133
0.0192821
0.0164426
0.0136512
0.0109639
0.00841529
0.00603014
0.00383191
0.00183849
6.62958e-05
-0.00146589
-0.00274215
-0.00374928
-0.00446182
-0.00484554
0.0545653
0.0532861
0.0518341
0.050488
0.0491944
0.0476366
0.0456074
0.0433452
0.0410426
0.0386478
0.0361416
0.0334822
0.0306571
0.0276981
0.0246477
0.0215608
0.0184738
0.0154096
0.0124168
0.00955139
0.00685907
0.00437557
0.0021258
0.000122833
-0.00162813
-0.00312319
-0.00436153
-0.0053352
-0.00602401
-0.0063967
0.0584263
0.0571664
0.0559435
0.0544123
0.0524059
0.0501357
0.0478692
0.0454914
0.0429186
0.0401996
0.0372838
0.0341642
0.0309068
0.0275551
0.0241511
0.0207611
0.0174316
0.01419
0.0110646
0.0080821
0.00528586
0.00272297
0.000425396
-0.00159121
-0.00332262
-0.00477463
-0.00596002
-0.00688268
-0.00753532
-0.0078896
0.0635933
0.0616982
0.0595986
0.0576065
0.0556441
0.0533678
0.0505474
0.0474845
0.0443698
0.0411747
0.0378335
0.0343387
0.0307045
0.0269708
0.0232218
0.0195345
0.0159694
0.0125752
0.00936963
0.00635442
0.00354912
0.000986809
-0.00130403
-0.00330454
-0.00500474
-0.00640968
-0.00753526
-0.00839727
-0.0090038
-0.00933225
0.0680202
0.0661412
0.0642294
0.0619562
0.0591614
0.0560576
0.0528629
0.0495063
0.0459523
0.0422109
0.0383109
0.0343063
0.0302316
0.0261272
0.0220528
0.018071
0.014258
0.0106768
0.00735954
0.00431692
0.00155322
-0.000931865
-0.00313781
-0.00505915
-0.00668743
-0.00802551
-0.0090843
-0.00988434
-0.0104434
-0.0107454
0.0737829
0.0710768
0.0681607
0.0653461
0.0624435
0.0591779
0.0553936
0.0513335
0.0471238
0.0428183
0.0384226
0.0339388
0.0294256
0.02497
0.0206179
0.0164138
0.0124144
0.00867119
0.00522954
0.00212694
-0.000620034
-0.00302247
-0.00510733
-0.00689666
-0.00840305
-0.00963794
-0.0106108
-0.0113408
-0.0118468
-0.01212
0.07851
0.0757276
0.0727863
0.0694092
0.0655081
0.0613274
0.0570158
0.052523
0.0478569
0.0430582
0.0381625
0.0332265
0.0283278
0.0235498
0.01895
0.0145759
0.0104568
0.00661912
0.0031006
-5.51707e-05
-0.00281702
-0.00518007
-0.0071684
-0.00882121
-0.0101786
-0.0112738
-0.0121292
-0.0127666
-0.0132053
-0.0134436
0.0844081
0.0805816
0.0765433
0.072622
0.0684643
0.0638962
0.0588149
0.0534882
0.0481035
0.0427045
0.0373076
0.0319508
0.0267159
0.021678
0.0168985
0.0124224
0.00825814
0.00441792
0.00092043
-0.00220986
-0.00494841
-0.00727568
-0.00919647
-0.0107421
-0.011961
-0.0129073
-0.0136251
-0.0141489
-0.0145066
-0.0147038
0.0892623
0.0852318
0.0809273
0.0761496
0.0708976
0.0654204
0.0597883
0.0539528
0.0480021
0.0420444
0.0361456
0.0303652
0.0247861
0.0194824
0.0145294
0.00996108
0.00577988
0.00199062
-0.00140844
-0.00442314
-0.00705506
-0.00929262
-0.0111334
-0.0125886
-0.0136956
-0.0145107
-0.0150927
-0.0154932
-0.0157575
-0.0159045
0.0950321
0.0897541
0.0842497
0.0788084
0.0730295
0.0668872
0.0604292
0.0538485
0.0472838
0.0408119
0.0344799
0.0283564
0.0225033
0.0169943
0.0119002
0.00724708
0.00304956
-0.000683005
-0.00395886
-0.00680727
-0.00925842
-0.0113304
-0.0130343
-0.0143757
-0.0153772
-0.0160794
-0.0165403
-0.0168211
-0.0169852
-0.017073
0.0996182
0.0938753
0.087789
0.0812714
0.0743911
0.0673583
0.0602277
0.0530625
0.0459792
0.0390782
0.0323907
0.0259805
0.0199188
0.0142776
0.00909641
0.00438927
0.000180508
-0.00351129
-0.00668742
-0.00937848
-0.0116281
-0.0134851
-0.0149899
-0.0161665
-0.0170348
-0.0176209
-0.0179707
-0.0181417
-0.0182055
-0.0182274
0.104699
0.0975364
0.0901667
0.0828036
0.0752278
0.0674269
0.0595107
0.05169
0.0441075
0.0368154
0.0298353
0.0232133
0.0170214
0.0113196
0.00612158
0.00142997
-0.00274139
-0.00637838
-0.00947219
-0.0120377
-0.0141111
-0.0157528
-0.0170291
-0.0179945
-0.0186863
-0.0191313
-0.0193648
-0.0194328
-0.0194018
-0.019355
0.108516
0.100619
0.0923356
0.0837246
0.0750663
0.0665106
0.0580627
0.0497823
0.0418081
0.0342062
0.02699
0.0202087
0.0139321
0.00820069
0.00302756
-0.00158703
-0.00565726
-0.00919123
-0.0121833
-0.0146359
-0.0165673
-0.0180272
-0.0190877
-0.0198279
-0.0203131
-0.0205882
-0.0206889
-0.0206518
-0.0205309
-0.0204156
0.112193
0.102678
0.0930694
0.0835757
0.0742204
0.0650189
0.0560204
0.0473577
0.0391041
0.0312808
0.0239059
0.0170338
0.0107168
0.0049795
-0.000148197
-0.00465766
-0.00858117
-0.0119529
-0.0147904
-0.0171003
-0.0188919
-0.0201958
-0.0210716
-0.0216041
-0.0218804
-0.0219696
-0.0219204
-0.0217686
-0.021557
-0.0213746
0.114392
0.103857
0.0930599
0.0824493
0.0723449
0.0627037
0.0533912
0.0444769
0.0360253
0.0280747
0.0206338
0.0137397
0.00742867
0.00171996
-0.00335118
-0.00775865
-0.0115228
-0.0146965
-0.0173277
-0.0194446
-0.0210648
-0.0222079
-0.0229177
-0.0232696
-0.0233554
-0.0232615
-0.0230547
-0.0227793
-0.0224744
-0.0222278
0.115659
0.103329
0.0914576
0.080314
0.0698819
0.0599049
0.0503399
0.0412236
0.0326478
0.024646
0.0172121
0.010362
0.00411503
-0.00152246
-0.00652816
-0.0108567
-0.0144834
-0.0174602
-0.0198612
-0.0217436
-0.0231461
-0.0240948
-0.0246296
-0.0248129
-0.0247277
-0.0244646
-0.0241038
-0.0237031
-0.0233059
-0.0230005
0.114921
0.101499
0.0888857
0.0774127
0.0667464
0.0566483
0.0470006
0.0378029
0.0291596
0.0211379
0.0137368
0.00696395
0.00082274
-0.00470208
-0.00961704
-0.0138803
-0.0174132
-0.0202286
-0.0224147
-0.0240521
-0.0252039
-0.0259189
-0.02625
-0.0262547
-0.0260053
-0.0255858
-0.0250817
-0.0245625
-0.0240809
-0.023728
)
;

boundaryField
{
    outlet
    {
        type            fixedValue;
        value           nonuniform 0();
    }
    upperWall
    {
        type            symmetryPlane;
    }
    lowerWall
    {
        type            symmetryPlane;
    }
    inlet
    {
        type            zeroGradient;
    }
    cylinder
    {
        type            zeroGradient;
    }
    frontAndBack
    {
        type            empty;
    }
    procBoundary0to1
    {
        type            processor;
        value           nonuniform List<scalar> 
45
(
0.175439
0.193733
0.175439
0.225876
0.193733
0.214324
0.255835
0.25235
0.225876
0.245687
0.128383
0.159288
0.128383
0.143396
0.159288
0.112291
0.097624
0.0853081
0.074219
0.0635979
0.0533878
0.0436204
0.0343685
0.0257079
0.0176925
0.0103305
0.00364041
-0.0023824
-0.00777118
-0.0125574
-0.0167424
-0.0202355
-0.0229513
-0.0249722
-0.0263889
-0.0272847
-0.0277406
-0.0278346
-0.0276345
-0.0272093
-0.0266352
-0.0259956
-0.025368
-0.0248158
-0.0244316
)
;
    }
    procBoundary0to4
    {
        type            processor;
        value           nonuniform List<scalar> 
33
(
0.22162
0.232415
0.243716
0.0312768
0.0244864
0.0277044
0.0287633
0.0317521
0.0328601
0.0352726
0.0374792
0.040619
0.0435029
0.0473652
0.05132
0.0557853
0.0606863
0.0661911
0.0719333
0.078239
0.0850811
0.0925197
0.100341
0.108792
0.117797
0.127457
0.137619
0.148369
0.159614
0.171404
0.183629
0.196342
0.209508
)
;
    }
}


// ************************************************************************* //
