/*--------------------------------*- C++ -*----------------------------------*\
| =========                 |                                                 |
| \\      /  F ield         | OpenFOAM: The Open Source CFD Toolbox           |
|  \\    /   O peration     | Version:                                        |
|   \\  /    A nd           | Website:  www.openfoam.com                      |
|    \\/     M anipulation  |                                                 |
\*---------------------------------------------------------------------------*/
FoamFile
{
    version     2.0;
    format      ascii;
    class       surfaceScalarField;
    location    "94";
    object      phi;
}
// * * * * * * * * * * * * * * * * * * * * * * * * * * * * * * * * * * * * * //

dimensions      [0 3 -1 0 0 0 0];
oriented        oriented;


internalField   nonuniform List<scalar> 
2194
(
0.0195186
0.0302333
0.0190687
0.0293146
-0.0284793
0.0192914
0.0282565
0.0195678
-0.0281406
0.0202283
0.0272037
0.0213041
-0.0281212
0.0218742
0.0264753
-0.0296566
0.0228394
0.0215275
-0.0277773
0.0235397
0.0261118
-0.0293764
0.0244386
0.0226238
-0.027548
0.0258166
0.025271
-0.0293578
0.0262484
0.0238648
-0.0272398
0.0287964
0.02426
-0.0291189
0.0281276
-0.0306716
0.0254175
0.0238744
-0.0272385
0.0313213
0.0247136
-0.0292194
0.0301084
-0.0311779
0.027376
0.0257176
-0.0267124
0.0238638
0.0341699
-0.0292169
0.0326129
-0.0313645
0.0295236
0.0278704
-0.0127501
-0.0156384
-0.0153963
-0.0124589
-0.0172894
-0.00953301
-0.0151713
-0.00755663
-0.00929686
-0.00255412
-0.0197351
-0.0173269
-0.0168086
-0.0202158
-0.0139104
-0.0180696
-0.011894
-0.0113132
-0.0110556
-0.00339255
0.00331449
-0.0232967
-0.0182397
-0.0210149
-0.0224976
-0.0181175
-0.020967
-0.0159248
-0.0135059
-0.0148806
-0.00443678
-0.014661
0.00309492
0.00708204
-0.0261031
-0.0182777
-0.0246877
-0.023913
-0.0221505
-0.0235042
-0.0197346
-0.0159218
-0.0184311
-0.00574035
-0.0182028
0.00286662
-0.0184005
0.00727979
0.00971279
-0.0282013
-0.017051
-0.0277529
-0.0243614
-0.0258438
-0.0254133
-0.0233953
-0.0183703
-0.0217794
-0.00735631
-0.0214534
0.00254069
-0.02204
0.00786632
-0.0236874
0.0113603
0.0160345
-0.0290573
-0.0143532
-0.0300536
-0.0233651
-0.0290783
-0.0263886
-0.0268455
-0.0206031
-0.0249887
-0.00921313
-0.0245292
0.00208119
-0.0252843
0.0086214
-0.0271271
0.0132031
-0.0292243
0.0181317
0.0210281
-0.028459
-0.0101558
-0.0311177
-0.0207065
-0.0314674
-0.0260388
-0.0298843
-0.0221862
-0.02795
-0.0111474
-0.0271818
0.00131301
-0.0278625
0.00930215
-0.0292884
0.014629
-0.0303546
0.0191979
0.0209068
-0.0262144
-0.00454397
-0.0305437
-0.0163771
-0.0324614
-0.0241211
-0.0319461
-0.0227015
-0.0300118
-0.0130817
-0.0286816
-1.7131e-05
-0.0291003
0.00972077
-0.0300114
0.0155401
-0.0302732
0.0194597
0.0199483
-0.0221152
0.00245083
-0.0279187
-0.0105736
-0.0316158
-0.0204241
-0.0326075
-0.0217098
-0.0309535
-0.0147357
-0.0291185
-0.00185212
-0.0291951
0.0097973
-0.02951
0.015855
-0.0291271
0.0190768
0.0190777
-0.0167161
0.00930443
-0.0230243
-0.00426549
-0.0279609
-0.0154874
-0.0309104
-0.0187603
-0.0305595
-0.0150867
-0.0282025
-0.00420909
-0.0276752
0.00927006
-0.0278977
0.0160775
-0.0276667
0.0188458
0.0186147
-0.00917749
0.0150274
-0.0152913
0.00184835
-0.0213243
-0.00945443
-0.0260926
-0.0139921
-0.0278807
-0.0132985
-0.0263148
-0.00577503
-0.0253609
0.0083162
-0.0261099
0.0168265
-0.0257166
0.0184526
0.0193733
-0.00182353
0.0205696
-0.0074963
0.00752111
-0.0136325
-0.0033182
-0.0180689
-0.00955571
-0.0214383
-0.00992912
-0.0230564
-0.00415696
-0.0215914
0.00685126
-0.0226133
0.0178484
-0.0245514
0.0203907
0.0209337
0.00968774
0.0260171
0.00364575
0.0135631
-0.0019946
0.00232215
-0.00587968
-0.00567063
-0.00845264
-0.00735616
-0.0114502
-0.00115943
-0.016275
0.0116761
-0.0210512
0.0226246
-0.0242408
0.0235803
0.0219639
0.020199
0.031705
0.0131276
0.0206345
0.00497488
0.0104748
-0.00399405
0.0032983
-0.0116622
0.000311974
-0.0159847
0.00316305
-0.0183624
0.0140538
-0.0197952
0.0240574
-0.0216492
0.0254343
0.0245747
0.0293401
0.0372574
0.0220483
0.0279263
0.0135817
0.0189414
0.00430119
0.0125788
-0.00401657
0.00862973
-0.00986854
0.00901502
-0.0134848
0.0176701
-0.0181585
0.0287311
-0.0216948
0.0289706
0.0275935
0.0354798
0.0417339
0.0279923
0.0354138
0.0187498
0.0281839
0.007853
0.0234756
-0.00345569
0.0199384
-0.0112513
0.0168106
-0.0144932
0.020912
-0.0172805
0.0315184
-0.0211864
0.0328765
0.0302709
0.054606
0.0426069
0.0485038
0.041516
0.0381313
0.0385564
0.0265848
0.0350221
0.0143428
0.0321804
0.0031841
0.0279694
-0.000441169
0.0245372
-1.65094e-05
0.0310938
-0.00181488
0.0346749
0.0311215
-0.00266548
0.0541429
0.0433284
0.0504241
0.0452348
0.0432078
0.0457726
0.0343481
0.0438819
0.0256505
0.040878
0.0153125
0.0383074
0.00695147
0.0328982
0.00455825
0.033487
0.00126442
0.0379687
0.033141
-0.000755145
0.054773
0.0439086
0.0520577
0.04795
0.0461997
0.0516307
0.0383582
0.0517233
0.0315218
0.0477144
0.0235662
0.046263
0.0143567
0.0421078
0.00990294
0.0379407
0.00567375
0.0421979
0.0366386
0.0021762
0.054252
0.0445237
0.0517253
0.0504767
0.0465861
0.0567699
0.0388499
0.0594596
0.0317581
0.0548062
0.0255754
0.0524457
0.0185528
0.0491303
0.0144355
0.042058
0.0112496
0.0453839
0.0414918
0.0063963
0.0575276
0.0448035
0.0547256
0.0532788
0.049595
0.0619005
0.0414016
0.067653
0.0325973
0.0636105
0.025797
0.0592459
0.0202459
0.0546815
0.0176479
0.044656
0.0165171
0.0465147
0.046345
0.0116639
0.0647113
0.043853
0.0625063
0.0554838
0.0576347
0.0667721
0.0497449
0.0755428
0.0394766
0.0738788
0.0302324
0.0684901
0.0230919
0.061822
0.0188812
0.0488667
0.0181803
0.0472156
0.0495168
0.0150085
0.0705895
0.0418906
0.0701069
0.0559664
0.0669159
0.069963
0.06069
0.0817688
0.050841
0.0837278
0.0402279
0.0791032
0.0297725
0.0722774
0.0205005
0.0581387
0.0167381
0.050978
0.0512936
0.0149612
0.066764
0.0389864
0.0683544
0.054376
0.0675911
0.0707264
0.0648201
0.0845398
0.0587606
0.0897873
0.0500703
0.0877936
0.0392629
0.0830847
0.0278104
0.0695912
0.020734
0.0580545
0.0537536
0.018274
0.0468707
0.0358032
0.0504331
0.0508136
0.0536455
0.0675139
0.0559158
0.0822694
0.0554021
0.0903011
0.0519139
0.0912817
0.045846
0.0891527
0.0383199
0.0771173
0.0312337
0.0651406
0.058424
0.0265633
0.013573
0.0338453
0.0181175
0.0462691
0.025052
0.0605794
0.0322701
0.0750513
0.0381248
0.0844464
0.0416077
0.0877988
0.0429424
0.087818
0.0416777
0.078382
0.0362631
0.0705553
0.0647069
0.0299802
-0.0235147
0.0335633
-0.0197706
0.042525
-0.0126122
0.053421
-0.00274272
0.0651818
0.00750143
0.0742022
0.0166604
0.0786398
0.0242863
0.0801921
0.0275596
0.0751087
0.0258771
0.0722378
0.0679572
0.0226267
-0.053178
0.0351307
-0.0515592
0.0409062
-0.0463707
0.0482325
-0.0375137
0.0563249
-0.0265289
0.0632175
-0.0154231
0.067534
-0.00546081
0.0702298
0.000405718
0.0692421
0.00514993
0.0674936
0.0656708
0.00743631
-0.0713923
0.0376499
-0.0707831
0.040297
-0.0670662
0.0445156
-0.0602662
0.0495249
-0.0509972
0.0539485
-0.0406364
0.0571732
-0.0303967
0.0599902
-0.0216784
0.0605238
-0.0138106
0.0596258
0.0596155
-0.00775532
-0.0754021
0.0403607
-0.0757153
0.0406102
-0.0735993
0.0423996
-0.0685041
0.0444298
-0.0612916
0.0467359
-0.0528015
0.048683
-0.0433537
0.0505424
-0.0342922
0.0514623
-0.0258332
0.0511668
0.051574
-0.0177917
-0.0749325
0.0412188
-0.0743
0.0399777
-0.0721155
0.0402151
-0.0679574
0.0402717
-0.062603
0.0413816
-0.0566296
0.0427096
-0.0491309
0.0430437
-0.0416059
0.0439373
-0.0344602
0.0440211
0.0435718
-0.026458
-0.0733214
0.0404335
-0.0712916
0.0379479
-0.068302
0.0372254
-0.0646261
0.0365959
-0.0599769
0.0367323
-0.0550001
0.0377328
-0.0493389
0.0373826
-0.0435398
0.0381381
-0.0380858
0.0385671
0.0379883
-0.0325022
-0.0757626
0.0377354
-0.0721577
0.034343
-0.067309
0.0323767
-0.0623554
0.0316422
-0.0573252
0.0317021
-0.0523372
0.0327447
-0.0476796
0.032725
-0.0429014
0.0333599
-0.0378672
0.033533
0.0333114
-0.0331904
-0.0779848
0.0324582
-0.072488
0.0288462
-0.0668705
0.0267593
-0.061526
0.0262977
-0.0566581
0.0268342
-0.0518438
0.0279305
-0.047583
0.0284642
-0.0436872
0.0294641
-0.0397204
0.0295661
0.0293974
-0.0358064
-0.0730627
0.0265038
-0.0666328
0.0224163
-0.0606949
0.0208214
-0.0551328
0.0207356
-0.0504745
0.022176
-0.0466145
0.0240705
-0.0434856
0.0253353
-0.0407266
0.0267052
-0.0377088
0.0265483
0.0261628
-0.0344742
-0.0574737
-0.0534973
-0.0492261
-0.0450014
-0.0412323
-0.0380365
-0.0359505
0.0232493
-0.0348606
0.0256153
-0.0344249
0.0261126
0.0254051
-0.0336672
-0.0186973
-0.0184445
-0.0195657
-0.0225144
-0.00140563
0.0422977
-0.0435575
-0.000872113
0.0467718
-0.0473053
-1.77613e-05
0.0519538
-0.0528081
0.00094559
0.0572242
-0.0581875
0.00154618
0.0623707
-0.0629713
0.00181495
0.0678104
-0.0680792
0.00199695
0.0735691
-0.0737511
0.00211153
0.0793066
-0.0794212
0.00195966
0.0852659
-0.085114
0.0018733
0.0915337
-0.0914473
0.00179517
0.0978315
-0.0977534
0.00153542
0.104632
-0.104373
0.00138324
0.111904
-0.111751
0.00125649
0.119408
-0.119281
0.00105486
0.127404
-0.127202
0.000909474
0.135835
-0.13569
0.000783288
0.144763
-0.144637
0.000656646
0.154415
-0.154288
0.000568811
0.164783
-0.164696
0.00050004
0.175866
-0.175798
0.00043573
0.187711
-0.187647
0.000376623
0.20038
-0.200321
0.000328669
0.213905
-0.213857
0.000274451
0.228379
-0.228325
0.000224998
0.243898
-0.243849
0.000181513
0.260504
-0.26046
0.000134321
0.278304
-0.278257
8.82022e-05
0.297384
-0.297338
4.52571e-05
0.31787
-0.317828
0.339815
-0.33977
0.000312225
0.0412303
0.00055795
0.0465261
0.000824502
0.0516872
0.00126949
0.0567792
0.00152385
0.0621163
0.00164496
0.0676893
0.00171138
0.0735027
0.00164697
0.079371
0.00146591
0.0854469
0.00136595
0.0916337
0.00119548
0.098002
0.000994658
0.104833
0.00094297
0.111955
0.00087661
0.119474
0.000787258
0.127493
0.000727385
0.135895
0.000648107
0.144842
0.000571846
0.154491
0.000517078
0.164838
0.000461943
0.175922
0.000406508
0.187766
0.000359778
0.200427
0.000320436
0.213944
0.000272452
0.228427
0.000228391
0.243942
0.000183371
0.260549
0.000135306
0.278352
8.91905e-05
0.29743
4.56505e-05
0.317914
0.339861
0.00275646
0.04065
0.00311531
0.0461672
0.00312262
0.0516799
0.00302718
0.0568746
0.00297307
0.0621705
0.00285083
0.0678115
0.00266628
0.0736872
0.00242414
0.0796131
0.00223028
0.0856408
0.00205772
0.0918062
0.00179853
0.0982612
0.00159901
0.105033
0.00143687
0.112117
0.00125305
0.119658
0.00110819
0.127638
0.000967827
0.136035
0.000808375
0.145002
0.000679615
0.15462
0.000580156
0.164938
0.000501485
0.176
0.000434502
0.187833
0.000382655
0.200479
0.000331867
0.213995
0.000277985
0.228481
0.000233206
0.243987
0.000187248
0.260595
0.000140185
0.278399
9.35575e-05
0.297476
4.76661e-05
0.31796
0.339909
0.00595041
0.0410959
0.00552279
0.0465948
0.00491775
0.0522849
0.00418655
0.0576058
0.00359254
0.0627645
0.00312514
0.0682789
0.00267277
0.0741396
0.00224017
0.0800457
0.00188761
0.0859933
0.00154752
0.0921463
0.00125056
0.0985581
0.00105085
0.105232
0.000910721
0.112258
0.000818037
0.119751
0.000769115
0.127687
0.000700943
0.136103
0.000623685
0.145079
0.000562778
0.154681
0.000506389
0.164994
0.000449768
0.176057
0.000400607
0.187883
0.00036204
0.200517
0.000320523
0.214037
0.000278036
0.228523
0.00023618
0.244029
0.000188554
0.260642
0.000141228
0.278447
9.44524e-05
0.297523
4.81282e-05
0.318006
0.339957
0.0096945
0.0430653
0.00815189
0.0481374
0.00695535
0.0534815
0.00601171
0.0585495
0.00512359
0.0636526
0.00425267
0.0691499
0.00351697
0.0748753
0.00295387
0.0806088
0.00251029
0.0864369
0.00213904
0.0925176
0.00184122
0.0988559
0.00159323
0.10548
0.00136586
0.112485
0.00121449
0.119902
0.00109066
0.127811
0.000948106
0.136246
0.000800536
0.145227
0.000671467
0.15481
0.000564545
0.165101
0.000485346
0.176136
0.000427884
0.18794
0.000379059
0.200566
0.000327023
0.214089
0.000281833
0.228569
0.000238298
0.244072
0.000192318
0.260688
0.000146623
0.278492
9.87978e-05
0.297571
5.02894e-05
0.318055
0.340007
0.0124937
0.0455801
0.0104819
0.0501493
0.0087106
0.0552528
0.00714166
0.0601184
0.00584128
0.064953
0.00470266
0.0702885
0.0037453
0.0758327
0.00293491
0.0814192
0.00222876
0.0871431
0.0017004
0.0930459
0.00131843
0.0992379
0.00102548
0.105773
0.000842209
0.112668
0.000747851
0.119996
0.000687453
0.127871
0.000627459
0.136306
0.000575557
0.145278
0.000522671
0.154863
0.000474594
0.165149
0.000426995
0.176184
0.000391044
0.187976
0.000355399
0.200602
0.000318903
0.214125
0.000283854
0.228604
0.000240905
0.244115
0.000194004
0.260735
0.000147421
0.278539
9.93352e-05
0.297619
5.09468e-05
0.318103
0.340058
0.0140054
0.0465359
0.0123082
0.0518465
0.0105026
0.0570584
0.00869768
0.0619234
0.00687752
0.0667731
0.00534718
0.0718188
0.00414583
0.077034
0.00319899
0.0823661
0.00251483
0.0878272
0.00202907
0.0935317
0.00165139
0.0996156
0.00136338
0.106061
0.00116281
0.112869
0.00103436
0.120125
0.000935055
0.12797
0.000837254
0.136404
0.000721269
0.145394
0.000606475
0.154977
0.000512668
0.165243
0.000450504
0.176246
0.000405458
0.188021
0.000359543
0.200648
0.000318337
0.214167
0.000279428
0.228643
0.000238201
0.244156
0.00019642
0.260777
0.000151532
0.278584
0.000102675
0.297668
5.27093e-05
0.318153
0.340111
0.0179104
0.0468995
0.0150777
0.0546792
0.0119386
0.0601975
0.00938463
0.0644773
0.00730836
0.0688494
0.00562315
0.073504
0.00424115
0.078416
0.00310608
0.0835011
0.00224916
0.0886841
0.0016267
0.0941542
0.00118865
0.100054
0.000892834
0.106357
0.000708498
0.113053
0.000596403
0.120237
0.000541058
0.128026
0.000502842
0.136442
0.000477584
0.14542
0.000446874
0.155008
0.000419058
0.165271
0.000391617
0.176273
0.00036676
0.188046
0.000339594
0.200675
0.000315372
0.214191
0.000282059
0.228676
0.000241259
0.244197
0.000197409
0.260821
0.000150892
0.27863
0.000102597
0.297716
5.32332e-05
0.318202
0.340164
0.0230743
0.0503884
0.0182125
0.0595411
0.0138734
0.0645365
0.0103438
0.0680069
0.00758112
0.0716121
0.00549133
0.0755938
0.00396419
0.0799432
0.00284893
0.0846164
0.00206199
0.0894711
0.00150933
0.0947068
0.00112907
0.100434
0.000868638
0.106618
0.000715393
0.113206
0.000635143
0.120317
0.000603952
0.128057
0.000577717
0.136468
0.000522518
0.145475
0.000464656
0.155066
0.000412038
0.165323
0.000385104
0.1763
0.00035559
0.188075
0.000327801
0.200702
0.000299581
0.214219
0.000266409
0.228709
0.000233697
0.24423
0.000196715
0.260858
0.000152921
0.278674
0.000104591
0.297765
5.40285e-05
0.318253
0.340218
0.022039
0.0583297
0.0159805
0.0655996
0.0119796
0.0685374
0.00887173
0.0711148
0.00651535
0.0739685
0.00476799
0.0773412
0.00329982
0.0814113
0.00227745
0.0856388
0.00155693
0.0901916
0.00106953
0.0951942
0.000760443
0.100743
0.000582563
0.106795
0.00045272
0.113336
0.000370707
0.120399
0.000336072
0.128092
0.000325861
0.136478
0.000337878
0.145463
0.000342011
0.155062
0.000343755
0.165322
0.000341177
0.176303
0.000330387
0.188086
0.000322697
0.20071
0.000305218
0.214236
0.000275734
0.228739
0.000239742
0.244266
0.000197547
0.2609
0.000152285
0.278719
0.000104968
0.297812
5.47644e-05
0.318303
0.340273
0.0152934
0.065663
0.0109663
0.0699267
0.00816225
0.0713414
0.0059695
0.0733075
0.00432754
0.0756104
0.00295184
0.0787169
0.00198752
0.0823756
0.00126185
0.0863644
0.000676951
0.0907765
0.000294273
0.0955769
6.75658e-05
0.10097
-6.26927e-05
0.106926
-9.11637e-05
0.113365
-4.70483e-05
0.120355
3.76753e-05
0.128007
0.000130828
0.136385
0.000191788
0.145402
0.000231533
0.155022
0.000259842
0.165293
0.000279315
0.176283
0.000285687
0.18808
0.000283246
0.200713
0.000267973
0.214252
0.000249266
0.228757
0.000226272
0.244289
0.000193896
0.260933
0.000152837
0.27876
0.000105569
0.297859
5.46122e-05
0.318354
0.340327
0.0043349
0.0687644
0.00346938
0.0707923
0.00260328
0.0722075
0.00185312
0.0740577
0.00127776
0.0761858
0.000539232
0.0794554
0.000130904
0.082784
-0.000119663
0.086615
-0.000172439
0.0908293
-0.000147463
0.0955519
-7.84562e-05
0.100901
2.04417e-05
0.106827
5.66329e-05
0.113328
7.1781e-05
0.12034
8.77372e-05
0.127991
0.000119449
0.136354
0.000178241
0.145343
0.000222442
0.154978
0.000260971
0.165255
0.000278562
0.176266
0.000292989
0.188065
0.000299816
0.200706
0.000290131
0.214261
0.00026784
0.22878
0.000234779
0.244322
0.00019517
0.260972
0.000152806
0.278803
0.000106567
0.297905
5.59501e-05
0.318405
0.340383
-0.00708874
0.0680979
-0.00536995
0.0690735
-0.00416547
0.071003
-0.00328524
0.0731775
-0.00273579
0.0756363
-0.00225076
0.0789704
-0.00194729
0.0824805
-0.00184272
0.0865104
-0.00181723
0.0908038
-0.00175059
0.0954853
-0.00165232
0.100802
-0.00152096
0.106695
-0.00129428
0.113102
-0.00103863
0.120084
-0.000776302
0.127729
-0.000504809
0.136082
-0.000280037
0.145118
-9.24245e-05
0.15479
4.33439e-05
0.165119
0.000134655
0.176174
0.000189937
0.18801
0.000214741
0.200681
0.000223706
0.214252
0.000222936
0.22878
0.000211054
0.244334
0.000185778
0.260997
0.000149108
0.278839
0.000103584
0.297951
5.39109e-05
0.318454
0.340437
-0.0147621
0.0650683
-0.0117843
0.0660956
-0.00964132
0.0688601
-0.0077445
0.0712807
-0.00682197
0.0747138
-0.00568803
0.0778364
-0.0045443
0.0813368
-0.00354775
0.0855139
-0.00254928
0.0898053
-0.0017834
0.0947194
-0.00117494
0.100194
-0.000682607
0.106203
-0.000395487
0.112815
-0.000238705
0.119927
-0.000143836
0.127634
-5.7643e-05
0.135996
3.7055e-05
0.145024
0.00011158
0.154716
0.000169202
0.165061
0.000211515
0.176132
0.000244231
0.187977
0.000263321
0.200662
0.000264119
0.214252
0.000247206
0.228797
0.000218783
0.244362
0.00018467
0.261031
0.000147378
0.278877
0.000104024
0.297994
5.52217e-05
0.318503
0.340492
-0.0218363
0.0604465
-0.0176542
0.0619136
-0.0149742
0.06618
-0.0119577
0.0682642
-0.00954793
0.072304
-0.00768811
0.0759766
-0.00651991
0.0801686
-0.00559452
0.0845885
-0.00488371
0.0890945
-0.00434136
0.0941771
-0.00380091
0.0996535
-0.00328364
0.105686
-0.00272268
0.112254
-0.00218204
0.119387
-0.00168625
0.127138
-0.0012178
0.135527
-0.000813823
0.14462
-0.000471594
0.154373
-0.000218821
0.164809
-4.52363e-05
0.175959
6.1588e-05
0.187871
0.000121922
0.200602
0.000159534
0.214214
0.000180082
0.228777
0.000182872
0.244359
0.000167253
0.261047
0.000136768
0.278907
9.58828e-05
0.298035
5.02844e-05
0.318549
0.340543
-0.0281663
0.0561107
-0.0236546
0.0574018
-0.0205744
0.0630998
-0.0168286
0.0645185
-0.0143294
0.0698048
-0.011186
0.0728332
-0.00871279
0.0776954
-0.00625652
0.0821322
-0.00443994
0.0872779
-0.00299518
0.0927323
-0.00192042
0.0985787
-0.00114868
0.104914
-0.000660422
0.111765
-0.00039244
0.119119
-0.000227332
0.126973
-0.000121015
0.135421
-2.5859e-05
0.144525
4.25515e-05
0.154305
9.61769e-05
0.164755
0.000144842
0.17591
0.000185646
0.18783
0.00021411
0.200573
0.000220903
0.214207
0.000210081
0.228788
0.00018891
0.244381
0.000163932
0.261072
0.000133979
0.278937
9.66768e-05
0.298072
5.18634e-05
0.318594
0.340595
-0.0288015
0.0517218
-0.0246754
0.0532757
-0.0210872
0.0595115
-0.0163541
0.0597854
-0.0146609
0.0681116
-0.0119668
0.0701391
-0.0104806
0.0762092
-0.00902324
0.0806749
-0.00778378
0.0860385
-0.00669149
0.09164
-0.00568743
0.0975747
-0.00474406
0.103971
-0.00386565
0.110887
-0.00305343
0.118307
-0.00237493
0.126294
-0.00177227
0.134818
-0.00125044
0.144003
-0.000802275
0.153857
-0.00046099
0.164414
-0.000229552
0.175678
-7.81936e-05
0.187678
1.83385e-05
0.200477
8.44227e-05
0.214141
0.000127849
0.228744
0.000145651
0.244363
0.000140952
0.261077
0.000117606
0.27896
8.39715e-05
0.298106
4.44312e-05
0.318633
0.340639
-0.0315461
0.0474615
-0.0277325
0.0494621
-0.0243383
0.0561173
-0.0201087
0.0555558
-0.0166811
0.064684
-0.01258
0.066038
-0.00918869
0.0728178
-0.00639315
0.0778793
-0.00436447
0.0840098
-0.00282039
0.0900959
-0.00172737
0.0964816
-0.00102328
0.103267
-0.00053289
0.110397
-0.000274159
0.118048
-0.00010535
0.126126
-2.67268e-05
0.13474
1.7829e-05
0.143958
3.34205e-05
0.153841
5.18857e-05
0.164395
8.73915e-05
0.175643
0.000124635
0.187641
0.000153636
0.200448
0.000163259
0.214132
0.000158066
0.228749
0.00014765
0.244373
0.000134718
0.26109
0.000114665
0.278981
8.55113e-05
0.298135
4.65486e-05
0.318672
0.340686
-0.0303127
0.0433001
-0.0263396
0.045489
-0.0221009
0.0518786
-0.0192016
0.0526566
-0.0170275
0.06251
-0.015904
0.0649144
-0.0138572
0.070771
-0.0119423
0.0759644
-0.00993026
0.0819978
-0.00804198
0.0882077
-0.00650216
0.0949418
-0.00512957
0.101894
-0.00406956
0.109337
-0.00315678
0.117135
-0.00247015
0.125439
-0.00189322
0.134163
-0.001394
0.143459
-0.000958428
0.153406
-0.000611914
0.164049
-0.000370023
0.175401
-0.000199712
0.187471
-8.16385e-05
0.200329
9.03785e-06
0.214041
7.07196e-05
0.228688
0.000101665
0.244342
0.000106087
0.261085
9.17801e-05
0.278995
6.71704e-05
0.29816
3.635e-05
0.318703
0.340722
-0.0293023
0.0389352
-0.0256474
0.041834
-0.0210488
0.04728
-0.0168819
0.0484897
-0.0111542
0.0567823
-0.00753326
0.0612934
-0.00487096
0.0681087
-0.00352769
0.0746212
-0.00246133
0.0809314
-0.00174954
0.0874959
-0.00111317
0.0943055
-0.000735415
0.101516
-0.000374214
0.108975
-0.000170095
0.116931
-1.88609e-05
0.125288
3.51603e-05
0.134109
2.45714e-05
0.14347
-1.3422e-06
0.153432
-1.78629e-05
0.164065
5.16875e-06
0.175378
3.58467e-05
0.18744
6.42862e-05
0.200301
7.76404e-05
0.214028
8.36731e-05
0.228682
8.92086e-05
0.244337
9.25232e-05
0.261082
8.67351e-05
0.279001
6.78986e-05
0.298179
3.7995e-05
0.318733
0.34076
-0.0206046
0.0370254
-0.0192537
0.0404831
-0.0187644
-0.0195925
-0.0173593
-0.015239
-0.01258
-0.0100542
-0.00789829
-0.00617663
-0.0047607
-0.00362428
-0.00282805
-0.00221012
-0.00176383
-0.00143378
-0.00112014
-0.000847726
-0.00060404
-0.00042152
-0.000273669
-0.00015416
-5.46942e-05
1.66311e-05
5.37439e-05
6.507e-05
6.03973e-05
4.63488e-05
2.63852e-05
-6.15473e-05
0.0244608
0.0500768
0.0246641
0.0523345
0.0250478
0.0552899
0.0252209
0.0592825
0.0251708
0.0634322
0.0248817
0.0676009
0.0244005
0.0721655
0.0238755
0.0772526
0.0235077
0.0824653
0.0879833
0.0290588
0.0488884
0.0299099
0.0514834
0.0301023
0.0550976
0.0299758
0.0594089
0.0300617
0.0633464
0.0300474
0.0676152
0.0296077
0.0726053
0.0289297
0.0779306
0.028313
0.083082
0.0275518
0.0887444
0.0266859
0.095229
0.0260066
0.101489
0.0250198
0.108415
0.0239183
0.116025
0.0229423
0.123555
0.0218425
0.131781
0.0207486
0.140712
0.0196646
0.150168
0.0185034
0.160359
0.0172815
0.17121
0.0159824
0.182774
0.0146061
0.195141
0.013145
0.208368
0.0115996
0.22249
0.00995172
0.23763
0.00820388
0.253854
0.00634612
0.27121
0.00436458
0.289825
0.00225293
0.309804
0.331213
0.0308727
0.0475393
0.0323674
0.0499887
0.0327018
0.0547632
0.0326734
0.0594372
0.0326816
0.0633382
0.0325241
0.0677727
0.0321355
0.0729939
0.0316723
0.0783938
0.0311952
0.0835591
0.0304251
0.0895145
0.0296696
0.0959846
0.0288748
0.102283
0.0277818
0.109508
0.0268126
0.116994
0.0258122
0.124555
0.0246387
0.132955
0.023482
0.141869
0.0222762
0.151374
0.0209784
0.161657
0.0196038
0.172585
0.0181408
0.184237
0.016585
0.196697
0.0149358
0.210017
0.0131872
0.224239
0.0113195
0.239497
0.00933613
0.255837
0.00722276
0.273324
0.00496865
0.292079
0.00256469
0.312208
0.333777
0.0345353
0.0456169
0.0363793
0.0481447
0.0371494
0.053993
0.0376695
0.0589172
0.0377918
0.0632159
0.0375331
0.0680314
0.0369461
0.0735809
0.0362699
0.0790699
0.0354465
0.0843826
0.0344293
0.0905316
0.0335622
0.0968518
0.0325368
0.103309
0.0313481
0.110697
0.0302155
0.118127
0.0288976
0.125873
0.027531
0.134321
0.0262055
0.143195
0.0248117
0.152768
0.0233522
0.163116
0.0218179
0.174119
0.0201915
0.185864
0.0184625
0.198426
0.0166292
0.211851
0.01468
0.226188
0.0126031
0.241574
0.0103987
0.258042
0.0080468
0.275676
0.00553841
0.294588
0.0028589
0.314888
0.336636
0.0362293
0.0370687
0.0382536
0.0389833
0.0392279
0.0391801
0.0390099
0.0386586
0.0379273
0.0370115
0.0361099
0.0350462
0.0339917
0.0328375
0.0315086
0.0301402
0.0286979
0.0271775
0.0255981
0.0239194
0.0221363
0.0202414
0.0182348
0.016098
0.0138236
0.0114048
0.00882346
0.00607371
0.00313372
)
;

boundaryField
{
    outlet
    {
        type            calculated;
        value           nonuniform 0();
    }
    upperWall
    {
        type            symmetryPlane;
        value           nonuniform 0();
    }
    lowerWall
    {
        type            symmetryPlane;
        value           uniform 0;
    }
    inlet
    {
        type            calculated;
        value           nonuniform 0();
    }
    cylinder
    {
        type            calculated;
        value           nonuniform 0();
    }
    frontAndBack
    {
        type            empty;
        value           nonuniform 0();
    }
    procBoundary2to1
    {
        type            processor;
        value           nonuniform List<scalar> 
63
(
-0.0204162
-0.0303631
-0.0293358
-0.0288646
-0.0184009
-0.0296462
-0.0298769
-0.02087
-0.0303141
-0.0304726
-0.0305988
-0.0220145
-0.0325315
-0.0330212
-0.0335172
-0.0245241
0.00982703
-0.0115365
0.0141099
0.0122454
0.00732048
0.00186835
-0.00687086
-0.00342223
-0.0109479
-0.00720669
-0.0145363
-0.00859194
-0.0195213
-0.0131062
-0.0266158
-0.0198893
-0.0500135
-0.0525379
-0.0556735
-0.0594556
-0.0633821
-0.0673118
-0.0716843
-0.0767276
-0.0820975
-0.0875641
0.0230885
-0.0943632
-0.100809
-0.107428
-0.114924
-0.122579
-0.130681
-0.139618
-0.149084
-0.159198
-0.169988
-0.181475
-0.193765
-0.206907
-0.220945
-0.235982
-0.252106
-0.269353
-0.287844
-0.307692
-0.32896
)
;
    }
    procBoundary2to3
    {
        type            processor;
        value           nonuniform List<scalar> 
43
(
0.0227304
0.0184398
0.0165502
0.0165109
0.0184068
0.0208747
0.0186517
0.0232949
0.0253624
0.0272338
0.0283538
0.00491676
0.0467907
0.0493178
0.0545491
0.0591731
0.0654497
0.0720954
0.0787755
0.0857742
0.0928895
0.10038
0.108179
0.116313
0.124841
0.133779
0.143156
0.153159
0.163822
0.175195
0.187292
0.200182
0.213928
0.22861
0.2443
0.261071
0.279005
0.298193
0.318753
0.340786
0.0321701
0.00467025
0.0357513
)
;
    }
    procBoundary2to6
    {
        type            processor;
        value           nonuniform List<scalar> 
37
(
0.0144596
0.0182846
0.0216656
0.0242096
0.0261411
0.0269745
0.0263595
0.0242617
0.0206025
0.0151204
0.00986253
0.00345453
-0.00371872
-0.0151352
-0.0258869
-0.0348925
-0.0399563
-0.055479
-0.0548643
-0.0553532
-0.0548671
-0.0578074
-0.0637608
-0.0686272
-0.0638597
-0.0436876
-0.0116151
0.0237966
0.0516106
0.068873
0.0726914
0.0740744
0.0741067
0.0784607
0.0832621
0.079017
0.0612472
)
;
    }
}


// ************************************************************************* //
