/*--------------------------------*- C++ -*----------------------------------*\
| =========                 |                                                 |
| \\      /  F ield         | OpenFOAM: The Open Source CFD Toolbox           |
|  \\    /   O peration     | Version:                                        |
|   \\  /    A nd           | Website:  www.openfoam.com                      |
|    \\/     M anipulation  |                                                 |
\*---------------------------------------------------------------------------*/
FoamFile
{
    version     2.0;
    format      ascii;
    class       volVectorField;
    location    "171";
    object      U;
}
// * * * * * * * * * * * * * * * * * * * * * * * * * * * * * * * * * * * * * //

dimensions      [0 1 -1 0 0 0 0];


internalField   nonuniform List<vector> 
1147
(
(0.0214877 0.0153895 1.91041e-20)
(0.0488944 0.0242623 8.56808e-20)
(0.0646049 0.0374377 3.00029e-19)
(0.0615037 0.0424795 -4.07414e-19)
(0.0332203 0.030417 1.46999e-19)
(0.01237 0.0103967 6.70321e-20)
(-0.0194813 0.0108294 -4.44047e-20)
(-0.0338053 0.0570948 2.69761e-19)
(0.0115826 0.0898038 -5.19296e-20)
(0.148845 0.0217597 -4.50532e-20)
(-0.000661709 -0.0395152 1.15187e-19)
(0.0555236 -0.00520031 4.61432e-19)
(0.0685622 0.0331684 -1.65887e-19)
(0.054683 0.0605467 -2.27871e-20)
(0.0239621 0.0676901 2.25438e-19)
(0.0424453 0.0665428 -3.79138e-19)
(0.131513 0.0694303 1.31649e-19)
(0.487048 -0.0223609 -1.24885e-19)
(0.83557 -0.158944 5.70896e-20)
(0.942579 -0.220874 2.85704e-21)
(-0.0384023 -0.150851 -3.71074e-20)
(0.0437614 -0.0927149 -3.49088e-19)
(0.0696244 0.000744803 6.52363e-20)
(0.0743949 0.074683 -4.23818e-20)
(0.150646 0.0947421 -9.13907e-20)
(0.423408 0.0254022 1.35859e-19)
(0.814865 -0.097653 -9.20361e-20)
(1.02729 -0.156204 -7.86304e-20)
(1.17038 -0.224105 3.74357e-21)
(1.2306 -0.289513 -8.61102e-21)
(-0.00176647 -0.192426 6.12897e-20)
(0.0876134 -0.141339 1.46596e-19)
(0.160813 -0.0185123 -4.66223e-20)
(0.256675 0.0660414 -4.13394e-21)
(0.538212 0.0281186 6.16696e-20)
(0.925579 -0.0808151 1.25986e-19)
(1.15307 -0.156767 2.0193e-19)
(1.23091 -0.191949 -7.1307e-20)
(1.29032 -0.241868 -7.93635e-20)
(1.29303 -0.283935 -1.44161e-20)
(0.106953 -0.175212 5.07053e-19)
(0.23734 -0.15178 -1.33003e-19)
(0.332157 -0.0351887 5.09382e-20)
(0.517018 0.0287101 1.91954e-20)
(0.928835 -0.0448655 2.70821e-19)
(1.20843 -0.13823 -2.98231e-20)
(1.26086 -0.164895 -9.44863e-20)
(1.29613 -0.196963 1.8819e-19)
(1.312 -0.239 2.51509e-21)
(1.28093 -0.261458 3.26992e-20)
(0.277727 -0.121309 -3.07591e-19)
(0.404843 -0.133057 -1.3225e-19)
(0.518726 -0.0408268 1.14817e-19)
(0.842391 -0.0210618 -9.30984e-20)
(1.21436 -0.104441 -3.60234e-20)
(1.29817 -0.153827 2.6744e-19)
(1.27288 -0.154992 -1.55203e-20)
(1.3213 -0.199374 -2.92191e-20)
(1.28183 -0.224826 -1.97938e-20)
(1.27105 -0.245826 1.37932e-20)
(0.43932 -0.0446609 2.80361e-20)
(0.578899 -0.0857017 1.68895e-19)
(0.795078 -0.0460053 -1.33668e-19)
(1.15877 -0.0692091 2.0023e-19)
(1.35109 -0.136711 -5.05171e-19)
(1.27736 -0.141664 -1.81926e-19)
(1.29098 -0.150404 -3.45353e-20)
(1.30887 -0.196846 2.20574e-20)
(1.24956 -0.204405 5.01259e-21)
(1.26905 -0.238988 -6.37729e-21)
(0.626618 0.04309 -4.97858e-20)
(0.84309 -0.0401532 5.14734e-19)
(1.11364 -0.0525773 -1.43497e-19)
(1.36323 -0.0983405 -2.05638e-20)
(1.3468 -0.134241 2.24558e-19)
(1.25745 -0.122826 1.05525e-19)
(1.312 -0.154708 -1.0781e-19)
(1.26749 -0.182072 4.87506e-20)
(1.24462 -0.19326 -3.95844e-20)
(1.25069 -0.229858 1.19573e-20)
(0.870385 0.123507 5.33558e-19)
(1.12788 0.00526837 4.15075e-19)
(1.34599 -0.0441675 -2.90345e-19)
(1.40517 -0.0909169 4.19681e-21)
(1.29463 -0.105919 1.46578e-19)
(1.27526 -0.114951 -5.88087e-20)
(1.30261 -0.150871 4.12427e-20)
(1.23452 -0.165385 1.59108e-20)
(1.25048 -0.187877 -5.80709e-20)
(1.21836 -0.214865 3.79634e-21)
(1.08849 0.19341 -3.93334e-19)
(1.31768 0.0546826 -6.53998e-19)
(1.40489 -0.00859161 7.12212e-19)
(1.34962 -0.0529486 -1.33372e-19)
(1.26388 -0.080325 -1.57539e-19)
(1.29389 -0.106386 -3.10968e-20)
(1.26493 -0.138102 9.8503e-20)
(1.22741 -0.153561 -9.38588e-20)
(1.23749 -0.178357 -6.65824e-21)
(1.19409 -0.200441 -3.17995e-21)
(1.3554 0.103166 3.19422e-19)
(1.35416 0.0366169 -2.88058e-19)
(1.27308 -0.0195877 9.39448e-20)
(1.26486 -0.0598966 8.53649e-20)
(1.27621 -0.0927252 -1.6321e-20)
(1.2296 -0.123872 3.47795e-20)
(1.22781 -0.140121 2.53824e-20)
(1.2095 -0.169488 3.56795e-20)
(1.18612 -0.184378 1.409e-20)
(1.31323 0.130279 -5.21264e-21)
(1.25281 0.0624005 1.18012e-19)
(1.23728 0.00200517 2.86778e-20)
(1.25326 -0.0471402 -1.63745e-19)
(1.23551 -0.0781441 -1.4039e-20)
(1.21415 -0.108412 -9.15892e-20)
(1.21502 -0.133342 -8.54713e-21)
(1.18977 -0.153993 -1.42531e-20)
(1.18076 -0.177589 -8.39325e-21)
(1.18855 0.0692543 -1.16913e-19)
(1.21592 0.00563383 6.13135e-20)
(1.22152 -0.0403753 -1.66376e-19)
(1.20344 -0.0634608 -4.43594e-20)
(1.20547 -0.105381 2.22814e-20)
(1.19496 -0.118144 -2.03882e-20)
(1.17983 -0.151286 2.56528e-20)
(1.16866 -0.160124 7.84839e-22)
(1.1515 0.0542076 1.70486e-19)
(1.19572 -0.00202522 1.9818e-20)
(1.18713 -0.0325463 9.28942e-20)
(1.18775 -0.0659376 9.14805e-20)
(1.19178 -0.0961091 4.35928e-20)
(1.17523 -0.112927 8.61399e-21)
(1.17155 -0.141518 -2.38109e-20)
(1.149 -0.152246 4.58894e-21)
(1.17786 -0.0043945 -3.87648e-20)
(1.15609 -0.0405902 -3.98598e-20)
(1.17989 -0.0627325 -6.37942e-20)
(1.16878 -0.0911634 7.67478e-23)
(1.15982 -0.110139 -8.11262e-22)
(1.15963 -0.128994 5.28373e-21)
(1.13378 -0.147994 3.80455e-21)
(1.13871 -0.0257012 3.98462e-20)
(1.1403 -0.0338409 6.84974e-20)
(1.16492 -0.0728749 -1.92611e-20)
(1.14307 -0.0813258 -6.30577e-21)
(1.15525 -0.109729 4.96629e-20)
(1.13699 -0.122959 -2.24408e-20)
(1.13673 -0.139644 2.46366e-21)
(1.11607 -0.0241992 1.70902e-20)
(1.12587 -0.0449848 -1.3739e-20)
(1.15435 -0.0697145 1.83662e-20)
(1.1222 -0.0835146 2.6201e-20)
(1.15836 -0.105055 1.18651e-20)
(1.11513 -0.11966 1.35861e-20)
(1.14132 -0.134849 2.08063e-21)
(1.1286 -0.0625804 -4.7512e-20)
(1.13312 -0.0638821 -2.1134e-22)
(1.12375 -0.0899475 -5.22132e-20)
(1.14325 -0.100154 6.57367e-21)
(1.11416 -0.114771 -1.40125e-20)
(1.12534 -0.131174 -3.60829e-21)
(1.14026 -0.0578096 -1.0025e-21)
(1.10309 -0.0702969 4.00673e-20)
(1.13293 -0.0816569 -7.00423e-21)
(1.11425 -0.101282 -1.35825e-21)
(1.11967 -0.108129 -2.61999e-21)
(1.10138 -0.125692 -1.98579e-21)
(1.15082 -0.0580304 2.37471e-20)
(1.07304 -0.0794913 -7.64884e-20)
(1.13928 -0.0800586 2.6867e-21)
(1.08738 -0.106563 -7.02602e-21)
(1.11685 -0.10806 5.59929e-21)
(1.08574 -0.124029 -4.11729e-22)
(0.173209 0.930863 -3.10191e-20)
(0.199973 0.962195 -6.7607e-20)
(0.215718 0.893769 4.44228e-21)
(0.202545 0.76291 4.8746e-21)
(0.161933 0.578817 1.63163e-19)
(0.105988 0.384713 -2.77627e-20)
(0.0552989 0.204393 1.96463e-20)
(0.0257075 0.0747734 2.66016e-19)
(0.024821 0.0262193 2.61021e-19)
(0.0101001 0.0156281 -5.27614e-19)
(0.112091 1.16792 3.84227e-20)
(0.0952402 1.13408 -6.83647e-20)
(0.0732558 1.04964 -1.38729e-19)
(0.0289995 0.91794 5.06477e-20)
(-0.0259939 0.736792 -2.62821e-19)
(-0.0714981 0.528237 -8.84189e-20)
(-0.0836582 0.301676 -7.09816e-20)
(-0.0592982 0.1032 4.72558e-20)
(-0.0241601 -0.00420831 -1.28358e-19)
(-0.0502813 -0.0460081 1.74999e-19)
(0.153043 1.14568 2.7311e-20)
(0.0888463 1.11084 4.45884e-20)
(0.00225184 1.05016 1.91308e-19)
(-0.0910493 0.943456 -1.1685e-19)
(-0.18745 0.806338 3.52259e-19)
(-0.243622 0.61933 7.81469e-20)
(-0.237663 0.385547 2.45126e-19)
(-0.176836 0.14762 2.01222e-20)
(-0.129353 -0.0470555 7.71643e-20)
(-0.119192 -0.129747 -3.1436e-20)
(0.0430836 1.07092 -1.93263e-20)
(-0.0633689 1.03508 -1.13833e-19)
(-0.192685 0.958907 3.9174e-20)
(-0.314364 0.856002 -8.0624e-20)
(-0.388673 0.707814 -3.17057e-19)
(-0.372825 0.492617 1.10466e-19)
(-0.286432 0.242232 -2.04147e-19)
(-0.223563 0.00206217 -7.33286e-19)
(-0.128876 -0.130122 -2.34864e-19)
(-0.518464 0.777321 5.35521e-19)
(-0.499724 0.603787 1.85682e-19)
(-0.390035 0.342104 -3.99249e-19)
(-0.258124 0.103775 3.94863e-19)
(-0.0689848 -0.0795727 4.02326e-19)
(-0.554039 0.718807 -1.0252e-19)
(-0.39723 0.480477 -1.54154e-19)
(-0.18427 0.225918 -5.30095e-19)
(0.063353 0.00795429 -9.24769e-20)
(-0.378634 0.607204 8.96633e-20)
(-0.0852591 0.358441 6.93586e-20)
(0.212319 0.121461 -2.4573e-20)
(0.032663 0.478292 2.73154e-19)
(0.368587 0.24136 1.86045e-19)
(0.575751 0.348722 -9.76235e-19)
(1.08366 -0.105132 -1.36259e-22)
(1.08239 -0.103108 1.29946e-21)
(1.07642 -0.0931901 -1.27754e-21)
(1.06895 -0.0920255 4.34808e-22)
(1.06299 -0.0811865 2.10255e-22)
(1.0564 -0.0727792 -9.20651e-23)
(1.05113 -0.0612247 -2.79179e-23)
(1.04876 -0.0525114 1.30318e-23)
(1.04859 -0.0455521 -1.5193e-22)
(1.04883 -0.0404151 3.53345e-22)
(1.04873 -0.0363957 -1.37279e-22)
(1.04711 -0.0330449 7.80572e-23)
(1.0443 -0.030081 -4.26658e-22)
(1.04023 -0.027181 5.17249e-22)
(1.03555 -0.0243408 -3.09297e-22)
(1.03153 -0.0216371 2.2967e-22)
(1.02836 -0.0191986 -1.05165e-22)
(1.0261 -0.0170326 -5.65197e-23)
(1.0243 -0.0150601 -6.92709e-24)
(1.02276 -0.013199 -1.78341e-23)
(1.02135 -0.0114801 -2.36625e-23)
(1.02001 -0.00987779 -1.24674e-22)
(1.01875 -0.00842203 2.49358e-23)
(1.01763 -0.00706262 -2.38698e-22)
(1.01662 -0.005758 -6.43889e-23)
(1.01578 -0.00456442 1.45029e-22)
(1.01505 -0.00353198 -3.8036e-24)
(1.01447 -0.0022456 -1.42449e-23)
(1.01409 -0.00133319 1.22035e-22)
(1.01389 -0.00061506 -2.80532e-22)
(1.09877 -0.105312 -1.05922e-20)
(1.07608 -0.1057 3.04236e-21)
(1.06852 -0.0872187 6.19712e-22)
(1.07165 -0.0813794 8.84611e-23)
(1.07425 -0.0746095 -1.49183e-22)
(1.07462 -0.0716506 -1.21064e-22)
(1.07236 -0.0675588 3.71265e-23)
(1.06824 -0.0617942 -4.11983e-22)
(1.06327 -0.0545623 -5.13311e-22)
(1.05738 -0.0471808 9.9149e-22)
(1.05109 -0.0411798 1.19221e-23)
(1.0454 -0.0368856 1.43164e-22)
(1.04024 -0.0333089 -2.60619e-22)
(1.03615 -0.0306425 6.04081e-22)
(1.03361 -0.0280414 5.09716e-22)
(1.03174 -0.0253354 -8.51922e-22)
(1.03019 -0.0223012 -1.47443e-22)
(1.02862 -0.0193105 8.28985e-22)
(1.02685 -0.0164499 -1.18237e-21)
(1.02503 -0.0139968 -1.73266e-23)
(1.02321 -0.0119039 6.93958e-22)
(1.02149 -0.0101485 4.32909e-22)
(1.0199 -0.00859651 -5.5702e-23)
(1.01854 -0.00716836 4.49495e-22)
(1.01735 -0.00582491 -3.07223e-23)
(1.01638 -0.00459729 -1.92526e-22)
(1.01558 -0.00355361 1.69912e-22)
(1.01495 -0.00227289 2.12599e-23)
(1.0145 -0.00135023 -2.96801e-22)
(1.01426 -0.00061842 2.19985e-22)
(1.08673 -0.0872991 1.16033e-20)
(1.09589 -0.0833951 -3.18422e-22)
(1.08819 -0.0795793 -3.35132e-21)
(1.07412 -0.0791988 1.06831e-21)
(1.0644 -0.0694449 2.35804e-22)
(1.05826 -0.0618079 1.00892e-21)
(1.0547 -0.0532136 -8.77186e-22)
(1.05426 -0.0472541 1.10682e-21)
(1.05457 -0.0424896 -1.51455e-22)
(1.05378 -0.0386272 -1.62917e-21)
(1.05249 -0.0357508 1.8318e-21)
(1.04998 -0.0326149 -6.31447e-22)
(1.04593 -0.0294592 -8.32411e-22)
(1.04138 -0.0263736 1.808e-21)
(1.03682 -0.0234268 -2.18948e-22)
(1.03292 -0.020559 -1.43903e-22)
(1.02988 -0.0181433 -1.98445e-21)
(1.02757 -0.0160566 7.55925e-22)
(1.02558 -0.0141843 1.71432e-22)
(1.02385 -0.0124332 1.2789e-22)
(1.02232 -0.0108185 5.54739e-22)
(1.02086 -0.00933269 -6.59271e-23)
(1.01952 -0.00800769 -1.22522e-22)
(1.01831 -0.00676843 -1.23409e-21)
(1.01718 -0.0055588 1.10586e-21)
(1.01626 -0.00444265 -1.12036e-21)
(1.01548 -0.00346313 -1.17397e-22)
(1.01487 -0.00222739 -2.98008e-22)
(1.01443 -0.00133124 -8.02401e-23)
(1.01417 -0.000610444 4.27298e-22)
(1.11175 -0.0864041 1.8318e-20)
(1.07338 -0.0921585 -9.8779e-21)
(1.06166 -0.0804022 -4.60036e-23)
(1.06974 -0.0775437 8.57269e-22)
(1.07776 -0.0753332 -4.39056e-22)
(1.07983 -0.0740689 1.0845e-22)
(1.07692 -0.0698458 -2.47659e-22)
(1.07203 -0.0628027 2.16405e-21)
(1.06525 -0.0531266 -2.75103e-21)
(1.05771 -0.0447441 -4.60314e-22)
(1.05219 -0.0391065 1.93513e-21)
(1.04658 -0.034972 -3.61585e-21)
(1.04094 -0.0315225 1.21617e-21)
(1.03725 -0.0296533 1.85641e-21)
(1.03477 -0.0274712 -2.05169e-21)
(1.03256 -0.0248903 3.34671e-21)
(1.03091 -0.0218732 3.40326e-22)
(1.02928 -0.0188581 -7.92629e-23)
(1.02743 -0.0159728 -3.78619e-21)
(1.02558 -0.0135691 2.75327e-21)
(1.02376 -0.0115145 -4.65104e-22)
(1.02202 -0.0098014 -4.70969e-22)
(1.02049 -0.00831667 -9.7354e-22)
(1.01911 -0.0069441 1.41526e-21)
(1.01787 -0.00566619 5.17397e-22)
(1.01688 -0.00450262 -6.81411e-22)
(1.01602 -0.00350176 4.59332e-23)
(1.01534 -0.00226471 5.83426e-22)
(1.01485 -0.00134936 3.76914e-22)
(1.01456 -0.000613183 -1.45954e-22)
(1.08719 -0.0644589 2.16954e-20)
(1.10853 -0.0621766 1.496e-20)
(1.10124 -0.0639134 -6.83987e-21)
(1.0831 -0.0649692 -1.15636e-21)
(1.07059 -0.0582577 -3.18978e-23)
(1.0643 -0.053459 -7.07546e-22)
(1.06419 -0.0513723 1.81735e-21)
(1.06604 -0.0488822 6.30336e-22)
(1.06357 -0.044399 -2.42672e-21)
(1.06109 -0.0407971 2.1444e-21)
(1.05882 -0.0381279 -1.96502e-21)
(1.05335 -0.0333456 2.55164e-22)
(1.04721 -0.0293507 2.69914e-22)
(1.04255 -0.0260997 1.09675e-21)
(1.03783 -0.022845 -2.91603e-22)
(1.03406 -0.0198218 -9.44214e-22)
(1.03136 -0.0175128 -1.3022e-21)
(1.02895 -0.0154217 -2.2885e-23)
(1.02677 -0.0135868 1.24347e-21)
(1.02482 -0.011915 1.61264e-21)
(1.02307 -0.0103593 -1.3947e-21)
(1.02144 -0.00896346 -7.76564e-22)
(1.02008 -0.00773583 6.87585e-22)
(1.01877 -0.00656073 -8.50814e-22)
(1.01761 -0.00542311 -7.41989e-22)
(1.01668 -0.00436435 8.83507e-22)
(1.01585 -0.00342125 -6.49668e-22)
(1.01521 -0.00222477 -3.55634e-22)
(1.01474 -0.00133062 1.30813e-22)
(1.01445 -0.000604923 -8.85207e-22)
(1.05887 -0.0368793 6.75727e-21)
(1.0507 -0.0326407 -3.1243e-21)
(1.04507 -0.0301271 7.82855e-21)
(1.04127 -0.0289725 -4.32852e-21)
(1.03726 -0.0265994 -7.10879e-23)
(1.03448 -0.0241754 -2.642e-21)
(1.03245 -0.0212277 3.2503e-21)
(1.03037 -0.0182041 -2.26898e-21)
(1.02836 -0.015417 4.95052e-22)
(1.02636 -0.013133 -1.28629e-21)
(1.02434 -0.0111488 1.4698e-21)
(1.02249 -0.00952092 1.6267e-21)
(1.02094 -0.00810841 7.70469e-22)
(1.01945 -0.00677289 9.70286e-22)
(1.01824 -0.00556562 -2.07158e-21)
(1.01724 -0.00444658 1.48198e-22)
(1.01635 -0.00347504 3.59344e-22)
(1.01567 -0.00227448 1.30964e-21)
(1.01515 -0.001354 -2.73468e-22)
(1.01485 -0.000609363 -2.56059e-22)
(0.966735 -0.1472 -3.56089e-20)
(0.978733 -0.138118 1.67111e-21)
(0.98817 -0.135554 -1.07686e-20)
(1.00745 -0.138375 -7.76289e-21)
(1.01868 -0.135063 2.55625e-21)
(1.03366 -0.137211 1.76277e-21)
(1.04976 -0.137057 9.20296e-21)
(1.06148 -0.134055 4.04841e-21)
(1.07217 -0.134732 -6.22318e-21)
(1.09025 -0.126583 3.76204e-22)
(0.959226 -0.155214 4.64833e-20)
(0.97618 -0.156779 3.57443e-20)
(0.986743 -0.155126 -5.33127e-21)
(1.00694 -0.157747 7.85943e-21)
(1.02168 -0.153822 -1.92854e-22)
(1.03715 -0.15292 1.00413e-20)
(1.05426 -0.149815 -2.92358e-21)
(1.07085 -0.144754 -1.67994e-21)
(1.08104 -0.13965 -2.00014e-21)
(1.10013 -0.131862 -2.19529e-22)
(0.949468 -0.15819 3.54541e-20)
(0.97261 -0.167559 -3.48956e-20)
(0.986426 -0.165809 -4.96869e-21)
(1.00898 -0.172096 1.62165e-21)
(1.02718 -0.167176 -3.16682e-21)
(1.04389 -0.164916 -2.59874e-21)
(1.06189 -0.161783 -1.48655e-20)
(1.07681 -0.152767 -8.78586e-21)
(1.09482 -0.148736 -6.5418e-21)
(1.10054 -0.136758 1.03394e-21)
(0.939948 -0.165194 2.71487e-20)
(0.966484 -0.176646 -1.66756e-20)
(0.985558 -0.175771 3.02969e-20)
(1.00843 -0.180077 -5.49384e-21)
(1.03228 -0.180075 -4.58655e-21)
(1.04814 -0.173338 6.38518e-22)
(1.0727 -0.17263 1.58102e-20)
(1.07789 -0.162913 -1.33263e-21)
(1.10982 -0.156068 2.52414e-20)
(1.0985 -0.145675 2.44774e-21)
(0.934108 -0.178822 1.65852e-20)
(0.959298 -0.18929 -2.26951e-20)
(0.982846 -0.188604 -1.99862e-20)
(1.0059 -0.191096 -2.20672e-22)
(1.0347 -0.190643 3.23348e-21)
(1.04868 -0.186509 1.09077e-20)
(1.07984 -0.179286 -3.12178e-21)
(1.08338 -0.176353 7.72365e-21)
(1.11271 -0.161691 -1.3185e-21)
(1.11284 -0.154454 -3.83696e-21)
(0.930224 -0.19399 1.46543e-20)
(0.954895 -0.205385 7.42228e-22)
(0.981035 -0.204652 5.88691e-21)
(1.00258 -0.20568 -6.36239e-21)
(1.03569 -0.203399 2.87272e-21)
(1.05225 -0.200374 -7.16013e-21)
(1.07742 -0.190623 -3.03603e-21)
(1.09828 -0.185262 -9.77402e-21)
(1.10698 -0.174246 -1.99172e-21)
(1.1338 -0.159646 5.24819e-21)
(0.926037 -0.211417 -1.95705e-20)
(0.950716 -0.221726 2.9352e-20)
(0.98151 -0.222895 -1.12455e-20)
(1.00376 -0.222841 9.99871e-21)
(1.0324 -0.219214 1.58605e-20)
(1.06203 -0.215087 3.15406e-20)
(1.07505 -0.205634 6.2166e-23)
(1.10896 -0.19617 1.3833e-21)
(1.11452 -0.184663 -5.11879e-21)
(1.14202 -0.173102 5.20274e-21)
(0.920573 -0.229721 -5.63993e-20)
(0.948251 -0.24089 1.21859e-20)
(0.978694 -0.240671 5.28071e-21)
(1.01087 -0.241694 -5.72988e-22)
(1.0325 -0.236141 -2.87335e-20)
(1.06714 -0.232302 -1.58891e-20)
(1.08607 -0.2195 2.26511e-20)
(1.10993 -0.213302 -2.83307e-20)
(1.13288 -0.193052 2.57472e-20)
(1.14635 -0.18777 -6.10989e-21)
(0.912463 -0.250382 5.03941e-20)
(0.947209 -0.261144 -1.14999e-20)
(0.976395 -0.262879 -1.88544e-22)
(1.01116 -0.260267 -3.68253e-21)
(1.04176 -0.255691 -3.04329e-20)
(1.0666 -0.249434 6.67422e-21)
(1.09895 -0.237189 -4.02781e-20)
(1.11559 -0.225246 3.21362e-21)
(1.14296 -0.211486 -6.83811e-21)
(1.15704 -0.192701 -8.2217e-21)
(0.902517 -0.272879 -3.42424e-20)
(0.942897 -0.282641 -1.30677e-20)
(0.979396 -0.284866 -8.2235e-21)
(1.00998 -0.283316 -9.52735e-21)
(1.04684 -0.274148 5.44418e-20)
(1.07508 -0.268183 1.33915e-20)
(1.10145 -0.254447 1.10042e-20)
(1.13028 -0.240273 -5.15047e-21)
(1.14665 -0.223479 1.91212e-20)
(1.17371 -0.207498 7.67007e-21)
(0.896398 -0.299645 9.31472e-20)
(0.935711 -0.307242 1.12997e-20)
(0.978516 -0.309003 1.86096e-20)
(1.01525 -0.305874 -2.5815e-20)
(1.04816 -0.298229 1.40279e-20)
(1.0852 -0.285365 -3.91747e-20)
(1.10975 -0.274635 -9.40903e-21)
(1.14089 -0.254806 -4.75735e-21)
(1.15843 -0.240431 4.53446e-21)
(1.18971 -0.217642 -7.91109e-22)
(0.891411 -0.329704 -3.13932e-20)
(0.936039 -0.336355 -3.46899e-21)
(0.978256 -0.337093 -9.08699e-21)
(1.01995 -0.33179 5.7804e-21)
(1.0588 -0.322792 7.50296e-21)
(1.09009 -0.308374 -8.88806e-21)
(1.12836 -0.293989 6.99263e-21)
(1.14758 -0.273424 1.33561e-20)
(1.18211 -0.257004 -7.62837e-21)
(1.19657 -0.230758 -2.04102e-20)
(0.884215 -0.363707 2.69314e-20)
(0.932543 -0.3689 4.55368e-21)
(0.984572 -0.369144 -1.22716e-21)
(1.02244 -0.36171 9.31323e-21)
(1.07241 -0.350297 3.38581e-20)
(1.09886 -0.333688 1.85511e-20)
(1.14527 -0.315168 2.96578e-20)
(1.15761 -0.293324 -1.63716e-20)
(1.20537 -0.273258 -2.91218e-20)
(1.20035 -0.244102 2.3137e-20)
(0.879517 -0.39966 8.76997e-21)
(0.928869 -0.404404 9.77373e-21)
(0.986888 -0.401579 -9.21751e-21)
(1.03192 -0.394154 -6.60992e-21)
(1.07938 -0.376991 -1.09874e-19)
(1.11769 -0.361795 -4.82969e-20)
(1.15443 -0.334305 -9.42822e-20)
(1.18146 -0.315495 3.6565e-20)
(1.21542 -0.285492 1.10118e-20)
(1.22239 -0.262046 -1.58282e-20)
(0.870743 -0.441318 2.29513e-21)
(0.929923 -0.445753 8.4438e-21)
(0.987802 -0.440277 1.29126e-20)
(1.04351 -0.429366 -5.55285e-20)
(1.08803 -0.409897 -1.38551e-20)
(1.13732 -0.390009 5.18376e-20)
(1.16585 -0.360225 8.45132e-20)
(1.20839 -0.337738 -8.70456e-20)
(1.22305 -0.302018 3.93709e-20)
(1.25675 -0.282294 -5.76926e-22)
(0.866683 -0.490304 -2.78211e-21)
(0.930844 -0.490025 2.97916e-20)
(0.999527 -0.48542 6.26736e-21)
(1.0538 -0.465617 -7.17382e-21)
(1.11085 -0.446738 1.67774e-19)
(1.15284 -0.416656 -1.03536e-19)
(1.19363 -0.39003 -7.80376e-21)
(1.22727 -0.355551 5.1453e-20)
(1.24828 -0.325562 6.44668e-20)
(1.28062 -0.295146 7.1476e-21)
(0.863187 -0.548823 2.06363e-20)
(0.929774 -0.545762 -2.02638e-20)
(1.01165 -0.537807 -5.9897e-20)
(1.06631 -0.513419 9.12982e-20)
(1.13407 -0.486579 -5.13376e-20)
(1.17275 -0.450406 9.20078e-20)
(1.22257 -0.417351 1.79709e-19)
(1.24644 -0.379158 -4.86042e-20)
(1.27564 -0.34844 -6.55911e-20)
(1.28936 -0.311965 -1.88733e-20)
(0.860656 -0.609158 -5.73208e-20)
(0.936454 -0.606173 -3.34031e-20)
(1.0232 -0.595046 -5.63908e-21)
(1.08655 -0.570703 2.91127e-20)
(1.15482 -0.536996 -6.72889e-20)
(1.19942 -0.496593 9.16342e-20)
(1.24267 -0.44851 -1.21866e-19)
(1.26383 -0.410499 2.43689e-20)
(1.27468 -0.364796 -1.72633e-20)
(1.27061 -0.335498 -7.01456e-21)
(0.861184 -0.679809 5.25033e-20)
(0.955949 -0.663509 4.34827e-20)
(1.04698 -0.637463 5.65687e-21)
(1.11714 -0.593137 -3.23428e-20)
(1.18118 -0.547704 7.68966e-20)
(1.21296 -0.490634 -1.02e-19)
(1.23506 -0.435164 -1.30783e-19)
(1.20889 -0.379881 -3.69212e-21)
(1.17446 -0.326519 5.33148e-21)
(1.08042 -0.293766 4.4747e-20)
(0.642597 -0.644477 4.77216e-20)
(0.72498 -0.625202 -2.12726e-19)
(0.782383 -0.588651 -2.61559e-20)
(0.831241 -0.532791 2.72922e-19)
(0.846845 -0.472416 -2.73959e-19)
(0.841033 -0.399138 1.08924e-19)
(0.804081 -0.337003 -7.31088e-20)
(0.713557 -0.254297 2.29767e-20)
(0.614765 -0.201588 4.56863e-20)
(0.343414 -0.116749 3.02227e-20)
(0.885719 -0.0859377 -8.96671e-20)
(0.901594 -0.105463 -7.78897e-20)
(0.917964 -0.114818 2.64451e-20)
(0.938748 -0.130316 3.78835e-21)
(0.868955 -0.0764034 -5.09772e-20)
(0.882422 -0.0899735 -2.03348e-20)
(0.900632 -0.110794 2.14846e-20)
(0.918481 -0.120375 6.70171e-20)
(0.935493 -0.130125 1.68204e-20)
(0.837921 -0.040597 -5.3172e-20)
(0.84685 -0.0601398 1.90161e-20)
(0.860545 -0.083251 4.18081e-20)
(0.875311 -0.0967147 1.42771e-19)
(0.894319 -0.118561 -2.13322e-20)
(0.915339 -0.132706 -9.05806e-20)
(0.927614 -0.137193 -1.22128e-20)
(0.816226 0.0314761 -4.57388e-21)
(0.814431 0.00540557 4.25027e-20)
(0.817516 -0.0183173 5.08848e-21)
(0.825006 -0.0447862 -5.65425e-21)
(0.834776 -0.0660364 1.04184e-20)
(0.849487 -0.091818 -5.31017e-20)
(0.865098 -0.106244 -1.38881e-19)
(0.883815 -0.127121 1.32101e-19)
(0.909014 -0.146412 6.53232e-20)
(0.921727 -0.152047 -6.69533e-20)
(0.799954 0.0344945 -3.74043e-21)
(0.798525 0.00547282 1.02212e-20)
(0.802124 -0.0209523 -1.46444e-22)
(0.810117 -0.0497416 -1.36032e-20)
(0.820662 -0.0725742 6.759e-20)
(0.83631 -0.101199 2.36968e-20)
(0.853117 -0.118342 7.77577e-21)
(0.869665 -0.137022 1.71086e-20)
(0.898835 -0.159329 4.37001e-20)
(0.916307 -0.168907 -1.86483e-20)
(0.781758 0.0374917 7.22879e-21)
(0.780801 0.00529102 3.0187e-20)
(0.784812 -0.0238192 6.18145e-21)
(0.793414 -0.0552554 2.0652e-20)
(0.804676 -0.0798216 -1.0593e-19)
(0.82121 -0.110606 8.0774e-20)
(0.840492 -0.13226 -2.39124e-20)
(0.85527 -0.149734 -5.4069e-20)
(0.885437 -0.171341 -1.04306e-20)
(0.909619 -0.18564 -1.38698e-20)
(0.760845 0.040216 -6.33623e-21)
(0.760305 0.00475433 2.94475e-20)
(0.764714 -0.0272677 -5.35274e-21)
(0.773961 -0.0617301 -2.09447e-20)
(0.786261 -0.0885212 -6.66088e-21)
(0.803706 -0.120016 -7.74674e-20)
(0.82657 -0.14677 1.11261e-19)
(0.841418 -0.165672 -5.32331e-20)
(0.87085 -0.185717 -1.27694e-20)
(0.899116 -0.20225 4.50756e-20)
(0.737395 0.0429379 -5.62443e-22)
(0.737198 0.00390414 -3.06872e-20)
(0.742043 -0.0310858 -1.09324e-19)
(0.752157 -0.0688737 1.01796e-20)
(0.765686 -0.0990889 -4.53907e-20)
(0.783908 -0.130738 2.6629e-20)
(0.810578 -0.161048 -8.1092e-20)
(0.828204 -0.183715 8.25124e-20)
(0.857336 -0.202646 -1.24634e-20)
(0.887893 -0.220505 -3.98249e-20)
(0.710641 0.0456606 1.05739e-20)
(0.710676 0.0026875 1.69827e-20)
(0.716149 -0.035586 8.32283e-20)
(0.727425 -0.0767029 7.43861e-21)
(0.742584 -0.111543 -2.3956e-20)
(0.761777 -0.143801 8.95742e-21)
(0.79199 -0.176019 -6.90696e-20)
(0.814036 -0.202795 3.497e-20)
(0.844277 -0.222645 -2.3228e-20)
(0.875388 -0.240917 6.41928e-20)
(0.681148 0.0485208 -1.71461e-20)
(0.681424 0.00110497 -3.80871e-20)
(0.687703 -0.0409495 -2.33449e-20)
(0.700631 -0.0851692 5.42306e-20)
(0.717868 -0.125175 5.38793e-20)
(0.738274 -0.159774 3.74215e-20)
(0.77131 -0.192843 -4.8784e-20)
(0.798489 -0.223063 -1.11022e-21)
(0.832322 -0.244351 -1.89339e-20)
(0.865688 -0.263847 -3.10231e-20)
(0.647662 0.0515908 1.79653e-20)
(0.64836 -0.000946906 7.96851e-21)
(0.655618 -0.0474926 3.23014e-20)
(0.670537 -0.0949021 -8.76094e-20)
(0.69016 -0.140087 2.52158e-20)
(0.712649 -0.178458 -3.19229e-20)
(0.748691 -0.212691 -1.19016e-19)
(0.781239 -0.245799 -1.48254e-20)
(0.818427 -0.269159 -8.45882e-20)
(0.856166 -0.289765 -7.28148e-20)
(0.611159 0.0547789 -3.57569e-20)
(0.612316 -0.0034554 6.16325e-20)
(0.620513 -0.055368 4.23165e-20)
(0.637864 -0.106277 -3.4892e-20)
(0.660683 -0.15611 3.90957e-20)
(0.685219 -0.199437 5.33506e-20)
(0.723173 -0.235522 1.20851e-19)
(0.761725 -0.271078 1.0515e-19)
(0.804977 -0.29669 1.54402e-20)
(0.846511 -0.318814 8.67408e-20)
(0.569203 0.057684 2.33562e-20)
(0.571156 -0.00666774 2.13982e-20)
(0.580482 -0.0648403 -4.44013e-20)
(0.600176 -0.120249 2.16887e-20)
(0.627024 -0.174761 -1.43515e-19)
(0.655436 -0.22338 -1.61992e-20)
(0.695532 -0.261969 -3.37139e-20)
(0.73772 -0.2998 5.01593e-20)
(0.786347 -0.327632 -1.92439e-20)
(0.835549 -0.351124 -1.04889e-19)
(0.522973 0.0608344 -4.22935e-21)
(0.525884 -0.0105806 -4.95178e-20)
(0.536035 -0.0756742 -2.07298e-20)
(0.558148 -0.136756 1.04894e-19)
(0.590257 -0.196124 2.6359e-19)
(0.623574 -0.250905 -3.52718e-20)
(0.666752 -0.292904 -9.32489e-20)
(0.713607 -0.332379 -3.93885e-20)
(0.766206 -0.361952 -2.97998e-20)
(0.821179 -0.385754 5.89304e-21)
(0.469244 0.0632427 -1.517e-20)
(0.472969 -0.0156089 6.70572e-20)
(0.485056 -0.0887333 -2.7602e-20)
(0.508375 -0.156511 -3.80075e-20)
(0.545405 -0.221565 -2.73958e-19)
(0.586928 -0.28315 1.64838e-19)
(0.636214 -0.330494 1.02178e-19)
(0.688683 -0.372775 -8.5757e-20)
(0.746011 -0.404191 1.0826e-19)
(0.805598 -0.427977 3.56034e-20)
(0.408983 0.0651616 1.1192e-20)
(0.414085 -0.0218515 2.84865e-20)
(0.428984 -0.103291 5.25912e-21)
(0.454147 -0.179417 -8.49892e-20)
(0.495282 -0.249859 1.59503e-19)
(0.542874 -0.317969 -2.41974e-19)
(0.59964 -0.371924 5.53159e-20)
(0.663065 -0.417652 7.96046e-20)
(0.728864 -0.45281 -1.28567e-19)
(0.793794 -0.476091 -6.06356e-20)
(0.336713 0.0679224 1.4557e-20)
(0.343201 -0.0304106 7.69258e-21)
(0.364757 -0.122822 6.417e-20)
(0.390952 -0.208059 -9.46604e-20)
(0.436456 -0.285823 1.87329e-19)
(0.49277 -0.359727 5.91281e-20)
(0.554761 -0.420827 7.45173e-20)
(0.624988 -0.470233 6.57106e-21)
(0.706438 -0.509633 5.34057e-20)
(0.776301 -0.5338 5.06569e-20)
(0.257431 0.0703551 -1.27189e-20)
(0.263083 -0.0405487 -4.37909e-20)
(0.292228 -0.142881 -1.58423e-19)
(0.325523 -0.242605 1.40447e-19)
(0.376442 -0.327213 -2.12851e-19)
(0.437291 -0.407182 -5.30035e-20)
(0.514955 -0.47471 -6.65273e-20)
(0.587865 -0.52741 -2.62005e-20)
(0.684353 -0.569147 -4.51714e-20)
(0.762956 -0.594316 1.28896e-20)
(0.157034 0.0724495 1.86978e-20)
(0.163915 -0.0538396 -5.48543e-21)
(0.19872 -0.170524 1.64261e-20)
(0.23455 -0.287266 5.85433e-20)
(0.303195 -0.387882 1.79665e-19)
(0.366373 -0.478155 -1.01178e-20)
(0.459358 -0.554016 1.6615e-20)
(0.548532 -0.611524 4.22564e-20)
(0.654992 -0.652953 -2.90367e-20)
(0.755143 -0.673333 1.78841e-20)
(0.0485595 0.0580355 6.83897e-21)
(0.0570071 -0.0566258 -3.84762e-20)
(0.0848355 -0.167135 4.15184e-20)
(0.11712 -0.272833 9.15814e-21)
(0.175541 -0.37001 -2.30798e-20)
(0.233483 -0.458324 -1.38372e-19)
(0.308831 -0.531396 1.18732e-19)
(0.390512 -0.587889 -4.60574e-20)
(0.473401 -0.625058 1.38769e-20)
(0.563755 -0.644494 1.92536e-20)
(0.931254 -0.0953627 -1.17609e-21)
(0.900954 -0.10343 2.20761e-20)
(0.914619 -0.114443 -9.42897e-20)
(0.93469 -0.129889 -3.1368e-20)
(0.955423 -0.0907381 0)
(0.966342 -0.0967182 0)
(0.968604 -0.0931812 0)
(0.970934 -0.0873505 0)
(0.973012 -0.0796715 0)
(0.976269 -0.0726564 0)
(0.982774 -0.0674181 0)
(0.991218 -0.0638176 0)
(0.999835 -0.06097 0)
(1.00605 -0.0572183 0)
(1.01029 -0.0527548 0)
(1.0129 -0.047297 0)
(1.01507 -0.0418236 0)
(1.01646 -0.0367676 0)
(1.01701 -0.032354 0)
(1.01722 -0.0287317 0)
(1.01716 -0.0256814 0)
(1.01709 -0.0229769 0)
(1.01701 -0.0205608 0)
(1.01688 -0.0183017 0)
(1.01659 -0.016139 0)
(1.01613 -0.014029 0)
(1.01553 -0.0120024 0)
(1.01484 -0.0100756 0)
(1.0141 -0.00827253 0)
(1.01336 -0.00660542 0)
(1.0127 -0.00494738 0)
(1.01226 -0.00292828 0)
(1.01114 -0.00151926 0)
(1.011 -0.000626889 0)
(0.951012 -0.124567 0)
(0.96184 -0.103879 0)
(0.969625 -0.0917663 0)
(0.974135 -0.0839235 0)
(0.977077 -0.0786578 0)
(0.97897 -0.0736638 0)
(0.980965 -0.069219 0)
(0.986174 -0.0657864 0)
(0.993526 -0.0627349 0)
(1.00146 -0.059279 0)
(1.00797 -0.0545894 0)
(1.01316 -0.048803 0)
(1.01678 -0.0426159 0)
(1.01917 -0.0365542 0)
(1.02031 -0.031715 0)
(1.02041 -0.0278875 0)
(1.01991 -0.0250374 0)
(1.01933 -0.0225693 0)
(1.01882 -0.0203068 0)
(1.01837 -0.0180805 0)
(1.01787 -0.0159621 0)
(1.01722 -0.0138889 0)
(1.01644 -0.0118962 0)
(1.01558 -0.0100035 0)
(1.01468 -0.00820905 0)
(1.01381 -0.00655125 0)
(1.01305 -0.00493109 0)
(1.01258 -0.00287819 0)
(1.01165 -0.00146227 0)
(1.01152 -0.000626491 0)
(0.972479 -0.124417 2.05039e-20)
(0.978051 -0.11591 -1.68864e-20)
(0.978155 -0.106573 1.7019e-20)
(0.978319 -0.0983539 -2.61887e-20)
(0.979556 -0.0897067 1.76833e-20)
(0.982118 -0.0818795 5.28057e-21)
(0.987057 -0.0750274 -8.60437e-21)
(0.993661 -0.0692051 -4.83794e-21)
(1.00115 -0.0641701 1.32846e-20)
(1.00796 -0.0590812 -1.16357e-20)
(1.01363 -0.0539137 1.0905e-20)
(1.01744 -0.0480834 -9.28571e-21)
(1.02015 -0.0423602 6.22206e-21)
(1.02126 -0.0370559 8.5128e-22)
(1.02106 -0.0324835 -3.7915e-21)
(1.02033 -0.028763 -4.32128e-21)
(1.01946 -0.0256946 2.81166e-21)
(1.01881 -0.0229547 -1.90879e-21)
(1.01836 -0.0204444 2.07648e-21)
(1.01805 -0.0180666 -3.61235e-21)
(1.01764 -0.0158035 2.66664e-21)
(1.01709 -0.0136405 -1.1065e-21)
(1.01638 -0.0116084 2.24037e-21)
(1.01554 -0.00970214 -1.9584e-21)
(1.01466 -0.00793465 1.26559e-21)
(1.01377 -0.00632312 -1.38027e-22)
(1.01297 -0.00476483 -8.38225e-22)
(1.01252 -0.00274858 3.14318e-22)
(1.01188 -0.00139005 -4.34069e-23)
(1.01179 -0.000618969 4.76995e-22)
(0.982803 -0.110319 -1.28978e-20)
(0.982862 -0.102487 -9.36005e-21)
(0.98136 -0.0917021 1.81343e-20)
(0.983731 -0.084893 -2.44532e-20)
(0.98643 -0.0794907 2.35071e-21)
(0.988979 -0.074375 8.06857e-21)
(0.991676 -0.0692976 -6.07948e-21)
(0.996494 -0.0649949 1.3098e-21)
(1.00285 -0.0609856 -7.19237e-21)
(1.00952 -0.0569454 2.73336e-21)
(1.0148 -0.0519358 1.04271e-20)
(1.01906 -0.0461727 -1.5024e-20)
(1.02169 -0.0403703 8.2382e-21)
(1.02304 -0.0348094 1.64478e-21)
(1.02337 -0.0303988 -8.27778e-21)
(1.02297 -0.0268917 9.68298e-21)
(1.02213 -0.0241773 -5.17622e-21)
(1.02121 -0.0217481 -2.83548e-21)
(1.02034 -0.0194836 8.51167e-21)
(1.01957 -0.0172396 2.05811e-21)