/*--------------------------------*- C++ -*----------------------------------*\
| =========                 |                                                 |
| \\      /  F ield         | OpenFOAM: The Open Source CFD Toolbox           |
|  \\    /   O peration     | Version:                                        |
|   \\  /    A nd           | Website:  www.openfoam.com                      |
|    \\/     M anipulation  |                                                 |
\*---------------------------------------------------------------------------*/
FoamFile
{
    version     2.0;
    format      ascii;
    class       surfaceScalarField;
    location    "20.4";
    object      phi;
}
// * * * * * * * * * * * * * * * * * * * * * * * * * * * * * * * * * * * * * //

dimensions      [0 3 -1 0 0 0 0];
oriented        oriented;


internalField   nonuniform List<scalar> 
2238
(
0.0217921
0.00100398
0.0250055
0.00332992
0.0296152
-0.00923523
0.00462555
0.0342044
-0.0120284
0.00743924
0.0403164
-0.0149675
0.00885546
0.0460134
-0.0182276
0.0125307
0.0530032
-0.0210196
0.0140298
0.0588147
-0.0246615
0.01885
0.064826
-0.0264658
0.0204544
-0.0296613
0.0265359
0.0679514
0.034145
0.040614
0.0470492
-0.0214026
0.0527049
-0.0238834
0.0578761
-0.0261907
0.0612164
-0.0280018
0.0640044
-0.0292538
-0.0309667
0.0653098
0.0497284
0.0520763
0.0531297
0.0531838
-0.0280559
0.0533588
-0.0294288
-0.0305839
0.052976
0.0445634
0.0464952
0.0495913
-0.0111229
-0.0139743
0.00285252
-0.0168618
0.00288889
-0.0198009
0.00294068
-0.022806
0.00300674
-0.0258905
0.00308632
-0.0290608
0.00317222
-0.0323246
0.00326576
-0.0356854
0.00336273
-0.0391454
0.00346191
-0.0427098
0.00356633
-0.0463798
0.00367176
-0.0501559
0.0037778
-0.0540292
0.00387491
-0.0579732
0.00394539
-0.0619516
0.00397959
0.00399331
-0.065944
-0.0119033
0.00527517
-0.0143243
0.0053099
-0.0167627
0.00537909
-0.0192339
0.00547793
-0.021738
0.00559045
-0.0242782
0.00571244
-0.0268574
0.00584491
-0.0294647
0.00597008
-0.0321064
0.0061036
-0.0347708
0.00623065
-0.0374485
0.00634955
-0.0401419
0.00647117
-0.0428339
0.00656689
-0.0455209
0.00663237
-0.0481756
0.0066343
0.00653529
-0.0507175
-0.00907901
0.00713511
-0.0109353
0.0071662
-0.0127891
0.00723285
-0.0146274
0.00731623
-0.0164414
0.0074045
-0.0182336
0.00750461
-0.0199852
0.00759651
-0.0217
0.00768486
-0.0233706
0.00777426
-0.0249639
0.0078239
-0.0264963
0.00788195
-0.0279266
0.0079015
-0.0292243
0.00786459
-0.0304443
0.0078524
-0.0314722
0.00766222
0.00735549
-0.0322924
-0.00600751
0.00844792
-0.00728426
0.00844295
-0.00850913
0.00845773
-0.00966433
0.00847142
-0.0107383
0.00847849
-0.0117258
0.0084921
-0.0126105
0.00848118
-0.0133883
0.00846273
-0.014027
0.0084129
-0.0145318
0.00832874
-0.0148679
0.00821806
-0.0150266
0.00806018
-0.0149989
0.00783692
-0.0146278
0.00748124
-0.0141524
0.00718684
0.00632651
-0.0131234
-0.00279273
-0.00346856
0.00911878
-0.00406135
0.00905051
-0.00451371
0.00892379
-0.00485982
0.00882459
-0.00506517
0.00869744
-0.00503505
0.00845106
-0.00489997
0.00832764
-0.00450355
0.00801648
-0.0038412
0.00766639
-0.00308095
0.00745781
-0.0017456
0.00672483
-0.00039206
0.00648338
0.00139524
0.00569394
0.00363774
0.00494434
0.00406217
0.00590208
0.000225404
0.000293045
0.00898287
0.000421624
0.00879521
0.000843103
0.00840312
0.00144591
0.00809463
0.00212829
0.00776869
0.00339827
0.00705766
0.00452166
0.00689308
0.00634179
0.00584627
0.00821841
0.0055812
0.0106198
0.00432339
0.0132102
0.00389303
0.0167424
0.00216174
0.0200249
0.00166187
-0.000596701
0.0246837
0.00429423
0.00514671
0.00794274
0.00595219
0.00759763
0.00740422
0.0066426
0.00875827
0.00641463
0.0108005
0.00501546
0.01276
0.00493356
0.0156855
0.00292071
0.0181951
0.00307169
0.0220588
0.000459692
0.0253751
0.000576675
0.0300337
-0.0024968
0.0344249
-0.00272933
-0.00611822
0.0399464
0.00914329
0.0105304
0.00621056
0.0126068
0.00456616
0.0144216
0.00459979
0.0173926
0.00204452
0.0198075
0.00251866
0.0234301
-0.000701857
0.0266501
-0.000148381
0.0309985
-0.00388868
0.0351983
-0.00362311
0.0403153
-0.00761386
0.0453995
-0.00781346
-0.0120264
0.0513077
0.0139698
0.0163999
0.0021361
0.0188857
0.00211399
0.0217285
-0.000798329
0.0249748
-0.000727587
0.0284641
-0.00419121
0.0324377
-0.00412199
0.0367415
-0.00819248
0.0414398
-0.0083214
0.0469689
-0.013143
0.0528015
-0.013646
-0.018584
0.0593591
0.0187775
0.0218954
0.024427
0.028325
0.031573
0.0363065
0.0406447
0.0463531
0.0520601
0.0588685
0.0668204
-0.0671123
0.00116913
-0.0678102
0.0006982
-0.0681605
0.000350081
-0.0678349
-0.0003264
-0.0671224
-0.000713932
-0.0656842
-0.00144048
-0.0638906
-0.00179642
-0.0613258
-0.00256844
-0.0584671
-0.00286285
-0.0548161
-0.0036557
-0.0511148
-0.0037062
-0.0467077
-0.0044124
-0.0423976
-0.00431541
-0.0370407
-0.00536269
-0.0319069
-0.00513959
-0.0258076
-0.00610457
-0.0188598
-0.00695122
-0.0105181
-0.0083426
-0.0015483
-0.00896816
-0.00842031
-0.0520326
0.00248416
-0.0527185
0.00138412
-0.0531283
0.00075991
-0.052866
-0.000588694
-0.0521988
-0.00138122
-0.0508307
-0.00280854
-0.0490439
-0.0035832
-0.0466066
-0.00500578
-0.0437467
-0.00572276
-0.0403071
-0.00709526
-0.0364531
-0.00756017
-0.0323828
-0.00848277
-0.0277948
-0.00890337
-0.0230508
-0.0101067
-0.0173914
-0.010799
-0.0114909
-0.0120051
-0.00456778
-0.0138743
0.00311724
-0.0160276
0.0110449
-0.0168959
-0.0165121
-0.0339212
0.00411288
-0.0347557
0.00221862
-0.035332
0.00133627
-0.0353929
-0.000527812
-0.0349549
-0.00181925
-0.0339976
-0.0037658
-0.0323821
-0.00519871
-0.0304465
-0.00694138
-0.0276941
-0.00847518
-0.0247021
-0.0100873
-0.0209019
-0.0113603
-0.0171449
-0.0122398
-0.0127771
-0.0132712
-0.00804407
-0.0148397
-0.00276514
-0.0160779
0.0030706
-0.0178408
0.00935973
-0.0201634
0.0161866
-0.0228545
0.0233425
-0.0240517
-0.0231503
-0.0146541
0.00564351
-0.0158662
0.00343081
-0.0166283
0.00209829
-0.0173106
0.00015449
-0.0172256
-0.00190423
-0.0168114
-0.00417997
-0.015611
-0.00639912
-0.0142253
-0.00832704
-0.0122087
-0.0104918
-0.00970928
-0.0125867
-0.00663925
-0.0144304
-0.00317301
-0.0157061
0.000580993
-0.0170252
0.00472194
-0.0189807
0.00947479
-0.0208308
0.0146767
-0.0230427
0.0205992
-0.0260859
0.0267373
-0.0289927
0.0324835
-0.0297979
-0.0279874
0.00441343
0.00713215
0.003044
0.00480024
0.00213665
0.00300563
0.00122664
0.0010645
0.000734634
-0.00141223
0.000610439
-0.00405577
0.00091229
-0.00670097
0.00172398
-0.00913873
0.00286727
-0.0116351
0.00450577
-0.0142252
0.00665156
-0.0165761
0.00915297
-0.0182075
0.0121508
-0.020023
0.0156079
-0.0224377
0.0197013
-0.0249242
0.0245394
-0.0278808
0.029798
-0.0313444
0.0345757
-0.0337703
0.0382973
-0.0335195
-0.0306403
0.0228937
0.00892219
0.0213371
0.0063568
0.0199216
0.00442117
0.0186048
0.00238132
0.0174842
-0.000291631
0.0166023
-0.00317391
0.015954
-0.00605265
0.0157974
-0.0089821
0.0161228
-0.0119605
0.0168167
-0.0149191
0.0179064
-0.0176659
0.0195279
-0.019829
0.0217482
-0.0222433
0.0246294
-0.025319
0.0282112
-0.028506
0.0323121
-0.0319817
0.0361921
-0.0352244
0.0389295
-0.0365078
0.0403136
-0.0349037
-0.0312407
0.0386702
0.0101984
0.0372577
0.00776934
0.0357128
0.00596607
0.0341578
0.00393624
0.0325944
0.00127177
0.0311591
-0.00173863
0.0298935
-0.00478698
0.0288933
-0.00798191
0.0280875
-0.0111546
0.0275467
-0.0143784
0.0273547
-0.0174738
0.028076
-0.0205504
0.0296782
-0.0238454
0.0319207
-0.0275615
0.0347127
-0.031298
0.0375729
-0.034842
0.0395071
-0.0371586
0.0400066
-0.0370073
0.0395109
-0.0344079
0.0389157
-0.0306454
-0.0266031
0.0504704
0.0110356
0.0493163
0.0089235
0.047813
0.00746931
0.0460515
0.0056978
0.0440811
0.00324208
0.0424426
-0.000100101
0.0408043
-0.00314866
0.039293
-0.00647064
0.0379986
-0.00986022
0.0369845
-0.0133642
0.0364148
-0.0169042
0.0364099
-0.0205454
0.0370231
-0.0244586
0.0381514
-0.0286898
0.0395171
-0.0326637
0.0403839
-0.0357088
0.0400545
-0.0368293
0.0387644
-0.0357171
0.0373771
-0.0330207
0.0366232
-0.0298916
-0.0266966
0.0588799
0.0115147
0.057762
0.0100414
0.0561617
0.00906959
0.054464
0.0073955
0.0526002
0.00510587
0.0503006
0.00219957
0.0482212
-0.00106926
0.0462295
-0.00447898
0.0444923
-0.00812303
0.0431346
-0.0120065
0.0422892
-0.0160588
0.0419497
-0.0202059
0.0419637
-0.0244726
0.0418186
-0.0285446
0.0413136
-0.0321587
0.0400525
-0.0344476
0.0381157
-0.0348925
0.0361864
-0.0337878
0.0349315
-0.0317658
0.0345474
-0.0295075
-0.0270465
0.0662523
0.0120828
0.0650451
0.0112486
0.0637544
0.0103603
0.0622295
0.00892048
0.0601974
0.00713788
0.0579717
0.00442534
0.0558608
0.00104163
0.0538305
-0.00244869
0.0519202
-0.00621274
0.0502162
-0.0103025
0.0487452
-0.0145878
0.0474653
-0.0189261
0.0461554
-0.0231628
0.0445393
-0.0269285
0.0422588
-0.0298783
0.039378
-0.0315668
0.0364579
-0.0319724
0.0340369
-0.0313668
0.032816
-0.0305449
0.0324387
-0.0291302
-0.0273007
0.0691991
0.0127854
-0.0699017
0.069174
0.0112737
0.069165
0.0103693
0.0692072
0.00887831
0.0694563
0.00688882
0.0695619
0.00431966
0.0693927
0.00121085
0.0691876
-0.00224352
0.0691023
-0.00612747
0.0689017
-0.0101019
0.0684165
-0.0141026
0.0674913
-0.0180009
0.0659517
-0.0216232
0.0637252
-0.024702
0.0608352
-0.0269883
0.0576096
-0.0283412
0.0545882
-0.028951
0.0519396
-0.0287182
0.049639
-0.0282444
0.0479042
-0.0273953
0.0466569
-0.0260534
-0.0241959
0.073072
0.0120515
-0.0723381
0.0736253
0.0107204
0.0745728
0.00942181
0.0754944
0.00795669
0.0762654
0.00611785
0.0767003
0.00388474
0.0766574
0.0012538
0.076305
-0.00189117
0.0755969
-0.00541931
0.0744952
-0.00900033
0.0728833
-0.0124906
0.070766
-0.0158836
0.0681741
-0.0190312
0.0652039
-0.0217318
0.0620368
-0.0238212
0.0589328
-0.0252371
0.0561143
-0.0261325
0.0538926
-0.0264965
0.0520731
-0.026425
0.0506991
-0.0260213
0.0497428
-0.0250971
-0.0234467
0.0751841
0.0109079
-0.0740405
0.0761382
0.00976632
0.0771866
0.00837336
0.0781656
0.00697768
0.0788951
0.00538832
0.0793478
0.00343208
0.0795438
0.00105784
0.0792701
-0.00161755
0.0784058
-0.00455495
0.0771044
-0.00769893
0.0754705
-0.0108567
0.073483
-0.0138962
0.0711967
-0.0167449
0.0688166
-0.0193517
0.0663691
-0.0213737
0.0640305
-0.0228985
0.0619158
-0.0240178
0.0600956
-0.0246763
0.0585403
-0.0248697
0.0571076
-0.0245886
0.0557474
-0.023737
-0.0222496
0.0785596
0.00954509
-0.0771968
0.0795781
0.00874782
0.080395
0.00755644
0.0811435
0.00622917
0.081785
0.00474685
0.082232
0.00298507
0.0823705
0.000919339
0.0821163
-0.00136336
0.0814272
-0.00386577
0.0802985
-0.00657025
0.0788159
-0.00937408
0.0770474
-0.0121277
0.0750181
-0.0147156
0.0727134
-0.0170469
0.0702809
-0.0189412
0.0678354
-0.0204531
0.0655143
-0.0216967
0.0633695
-0.0225315
0.0614068
-0.022907
0.0596172
-0.0227989
0.0580179
-0.0221377
-0.0208952
0.0823161
0.00842686
-0.0811979
0.0832969
0.00776701
0.0840716
0.00678171
0.0847334
0.00556735
0.0852891
0.0041912
0.0856479
0.00262622
0.0857247
0.00084263
0.0854821
-0.00112085
0.0848781
-0.00326172
0.0838833
-0.00557549
0.0825106
-0.00800136
0.0808161
-0.0104332
0.0788559
-0.0127554
0.0766728
-0.0148639
0.0744517
-0.01672
0.0723343
-0.0183356
0.0703785
-0.0197409
0.0685751
-0.0207281
0.0669217
-0.0212537
0.0654502
-0.0213274
0.0641616
-0.0208491
-0.0198038
0.086133
0.00743728
-0.0851434
0.0870796
0.00682044
0.0878869
0.00597433
0.0885233
0.00493093
0.0889923
0.00372222
0.0892591
0.00235944
0.0892817
0.000820093
0.0890274
-0.000866604
0.0884556
-0.00268988
0.0875437
-0.00466361
0.0862931
-0.00675075
0.084737
-0.00887717
0.0829634
-0.0109818
0.0810577
-0.0129582
0.0791308
-0.0147931
0.0772614
-0.0164663
0.0753721
-0.0178516
0.0735127
-0.0188687
0.0717098
-0.0194507
0.0699974
-0.0196149
0.0684372
-0.019289
-0.0184431
0.0903516
0.00644475
-0.0893591
0.0912275
0.00594454
0.09196
0.0052419
0.0925286
0.00436234
0.0929228
0.00332796
0.0931255
0.00215676
0.0931079
0.00083767
0.0928524
-0.000611136
0.0923326
-0.00217007
0.0915371
-0.00386807
0.0904632
-0.00567684
0.0891439
-0.00755786
0.0876303
-0.00946821
0.0859949
-0.0113228
0.0843029
-0.0131011
0.0825401
-0.0147035
0.0807184
-0.0160299
0.0788872
-0.0170375
0.0771255
-0.017689
0.0754957
-0.0179852
0.0740386
-0.0178318
-0.017193
0.0949303
0.00559513
-0.0940807
0.0956818
0.00519306
0.0963175
0.00460626
0.096817
0.00386276
0.0971629
0.00298209
0.0973395
0.00198017
0.0973277
0.000849405
0.0971156
-0.000398947
0.0966909
-0.00174542
0.0960407
-0.00321783
0.0951656
-0.00480181
0.094079
-0.00647124
0.0927963
-0.00818547
0.0913626
-0.00988903
0.0897981
-0.0115367
0.0881122
-0.0130176
0.0863527
-0.0142704
0.0845726
-0.0152573
0.0828609
-0.0159773
0.0812314
-0.0163557
0.0797075
-0.0163079
-0.015875
0.0997707
0.00491031
-0.0990858
0.100418
0.00454594
0.100982
0.00404195
0.101434
0.00341044
0.101756
0.00266036
0.101936
0.00180052
0.101958
0.000826774
0.101816
-0.000256535
0.101494
-0.00142381
0.100982
-0.00270545
0.100274
-0.00409358
0.0993607
-0.00555817
0.0982501
-0.00707486
0.0969537
-0.00859258
0.0954848
-0.0100678
0.0938883
-0.0114211
0.0922111
-0.0125932
0.0905235
-0.0135698
0.0888572
-0.0143111
0.0872357
-0.0147342
0.0857352
-0.0148074
-0.0145716
0.104965
0.00428657
-0.104341
0.10554
0.00397032
0.106044
0.00353788
0.106456
0.00299902
0.106761
0.00235509
0.106946
0.00161553
0.107
0.000772883
0.106911
-0.00016747
0.106666
-0.00117876
0.106252
-0.00229166
0.105655
-0.00349612
0.104866
-0.00476941
0.103881
-0.00608998
0.102706
-0.00741752
0.101356
-0.00871817
0.0998775
-0.00994233
0.0983268
-0.0110425
0.0967377
-0.0119807
0.0951331
-0.0127065
0.0935775
-0.0131786
0.0921398
-0.0133697
-0.0132955
0.110581
0.00371888
-0.110013
0.111096
0.00345477
0.111548
0.00308628
0.111923
0.00262381
0.112209
0.00206958
0.112391
0.00143307
0.112458
0.000706256
0.112396
-0.000106031
0.112196
-0.000977975
0.11184
-0.00193632
0.111319
-0.00297519
0.110622
-0.00407253
0.109746
-0.00521338
0.108696
-0.0063679
0.107485
-0.00750737
0.106151
-0.0086079
0.104728
-0.0096197
0.103247
-0.0104991
0.101752
-0.011212
0.100289
-0.0117158
0.0989163
-0.0119966
-0.0120659
0.116622
0.00322705
-0.11613
0.117082
0.00299536
0.117491
0.00267661
0.117835
0.00227981
0.1181
0.00180455
0.118274
0.00125992
0.118342
0.000637816
0.118295
-5.89411e-05
0.118121
-0.000803702
0.117808
-0.00162367
0.117346
-0.00251296
0.116728
-0.00345471
0.115952
-0.00443722
0.115022
-0.00543819
0.113951
-0.00643613
0.112754
-0.00741073
0.111464
-0.00832963
0.110114
-0.00914934
0.108734
-0.00983234
0.107372
-0.0103532
0.106078
-0.0107027
-0.0108687
0.123114
0.00278782
-0.122675
0.123526
0.00258403
0.123894
0.00230867
0.124204
0.00196928
0.124445
0.00156425
0.124604
0.00110072
0.124669
0.000572282
0.124632
-2.17788e-05
0.124481
-0.000652753
0.124207
-0.00134924
0.1238
-0.00210635
0.123256
-0.00291085
0.122573
-0.00375377
0.121755
-0.00461999
0.120807
-0.00548865
0.119744
-0.00634791
0.118589
-0.00717477
0.117364
-0.00792371
0.116104
-0.00857291
0.114845
-0.00909418
0.113626
-0.00948351
-0.00972248
0.130087
0.002391
-0.129691
0.130454
0.00221775
0.130779
0.00198331
0.131053
0.00169491
0.131267
0.00135089
0.131409
0.000958236
0.13147
0.000511456
0.131441
6.9892e-06
0.131312
-0.000523657
0.131076
-0.00111275
0.130722
-0.00175286
0.130249
-0.00243713
0.129652
-0.00315718
0.128934
-0.00390169
0.128102
-0.00465708
0.127163
-0.00540852
0.12613
-0.00614194
0.125029
-0.00682302
0.123888
-0.00743142
0.122733
-0.00793938
0.121599
-0.00834977
-0.00863247
0.137568
0.00204308
-0.13722
0.13789
0.00189625
0.138175
0.00169792
0.138416
0.00145392
0.138604
0.00116328
0.13873
0.000831869
0.138786
0.000455305
0.138761
3.28274e-05
0.138653
-0.000415841
0.138451
-0.000910821
0.138148
-0.00145011
0.13774
-0.00202872
0.137223
-0.00264027
0.136598
-0.00327735
0.135871
-0.00392941
0.135044
-0.00458136
0.13413
-0.00522852
0.133148
-0.00584113
0.132121
-0.00640398
0.131068
-0.00688702
0.130019
-0.00729989
-0.00760947
0.145587
0.00173982
-0.145283
0.145868
0.00161485
0.146118
0.00144754
0.14633
0.00124222
0.146495
0.000998279
0.146607
0.000720035
0.146657
0.000404796
0.146639
5.14768e-05
0.146548
-0.000325301
0.146377
-0.000739598
0.146119
-0.0011922
0.145769
-0.00167847
0.145325
-0.00219614
0.144785
-0.00273719
0.144152
-0.00329641
0.14343
-0.00385985
0.142627
-0.00442514
0.141755
-0.00496976
0.140835
-0.00548322
0.139884
-0.00593614
0.138923
-0.00633922
-0.00665932
0.15419
0.00147351
-0.153924
0.154436
0.00136855
0.154655
0.00122884
0.15484
0.00105741
0.154984
0.000853871
0.155082
0.000621813
0.155128
0.000358876
0.155115
6.50944e-05
0.15504
-0.00025044
0.154896
-0.000595238
0.154677
-0.000973773
0.154379
-0.00138028
0.153999
-0.00181654
0.153535
-0.00227301
0.152989
-0.00275044
0.152363
-0.0032332
0.151661
-0.00372326
0.150893
-0.00420178
0.150075
-0.00466551
0.149222
-0.00508311
0.148348
-0.00546496
-0.00578337
0.163423
0.00124159
-0.163191
0.163637
0.0011545
0.163827
0.00103876
0.163988
0.000896525
0.164114
0.000727738
0.164201
0.000535072
0.164243
0.000316981
0.164234
7.37172e-05
0.164173
-0.000189077
0.164053
-0.000474767
0.163869
-0.000789817
0.163616
-0.00112797
0.163293
-0.0014936
0.162897
-0.00187669
0.162428
-0.00228131
0.161887
-0.00269233
0.161278
-0.0031145
0.160607
-0.00353015
0.159884
-0.00394256
0.159123
-0.00432229
0.158335
-0.00467701
-0.00498433
0.173336
0.00104148
-0.173136
0.173521
0.000969658
0.173686
0.000874099
0.173825
0.000757055
0.173935
0.000617609
0.174012
0.00045892
0.17405
0.000278644
0.174045
7.84422e-05
0.173996
-0.000139479
0.173896
-0.000375019
0.173742
-0.000635802
0.17353
-0.000915771
0.173256
-0.00122033
0.17292
-0.00154013
0.172519
-0.0018807
0.172055
-0.00222839
0.17153
-0.00258928
0.170946
-0.00294648
0.170312
-0.00330807
0.169638
-0.0036487
0.168933
-0.00397215
-0.00426071
0.18398
0.000869043
-0.183807
0.184139
0.000810157
0.184281
0.000731893
0.184402
0.000636149
0.184498
0.000521693
0.184565
0.000391753
0.1846
0.000243533
0.184599
7.97823e-05
0.18456
-0.000100104
0.184478
-0.000293008
0.18435
-0.000507829
0.184172
-0.000738171
0.183942
-0.0009903
0.183658
-0.00125566
0.183317
-0.00154012
0.182921
-0.00183224
0.18247
-0.00213798
0.181966
-0.00244292
0.181413
-0.0027548
0.180819
-0.00305537
0.180194
-0.00334632
-0.00361036
0.195411
0.000720705
-0.195263
0.195548
0.000672976
0.195671
0.000609431
0.195775
0.000531709
0.195858
0.0004385
0.195918
0.000332664
0.195949
0.000211724
0.195951
7.83101e-05
0.19592
-6.91013e-05
0.195853
-0.000226221
0.195747
-0.000402
0.195599
-0.000590256
0.195407
-0.000797652
0.195167
-0.00101618
0.194879
-0.0012521
0.194542
-0.00149546
0.194157
-0.00175216
0.193724
-0.00201006
0.193245
-0.00227567
0.192725
-0.00253609
0.192173
-0.00279369
-0.00303089
0.207689
0.000593533
-0.207562
0.207807
0.000555278
0.207912
0.000504039
0.208003
0.000441547
0.208075
0.00036614
0.208127
0.000280625
0.208156
0.000182603
0.20816
7.46779e-05
0.208136
-4.52722e-05
0.208082
-0.000172339
0.207995
-0.000314984
0.207872
-0.000467699
0.207712
-0.000636937
0.207511
-0.000815202
0.207268
-0.00100947
0.206982
-0.00120978
0.206654
-0.00142363
0.206283
-0.00163882
0.20587
-0.00186324
0.205418
-0.00208384
0.204933
-0.00230855
-0.002517
0.220879
0.000484412
-0.22077
0.22098
0.000454078
0.221071
0.000413299
0.221149
0.000363524
0.221212
0.000303209
0.221258
0.000234706
0.221284
0.000156012
0.22129
6.94222e-05
0.221272
-2.73678e-05
0.221229
-0.000129186
0.221157
-0.000243754
0.221056
-0.000366558
0.220922
-0.000503065
0.220754
-0.000647197
0.22055
-0.000805219
0.220309
-0.000968386
0.220029
-0.00114432
0.219712
-0.00132145
0.219357
-0.00150864
0.218966
-0.00169285
0.218541
-0.00188354
-0.00206455
0.23505
0.000390332
-0.234956
0.235137
0.000366726
0.235216
0.000334735
0.235284
0.000295682
0.235339
0.000248066
0.23538
0.00019388
0.235404
0.000131451
0.235411
6.27895e-05
0.235398
-1.44486e-05
0.235364
-9.49453e-05
0.235306
-0.000185895
0.235222
-0.000283128
0.235111
-0.00039204
0.234971
-0.000506617
0.234799
-0.000633694
0.234595
-0.000764302
0.234358
-0.000907098
0.234087
-0.00105018
0.233782
-0.00120409
0.233444
-0.00135481
0.233074
-0.00151344
-0.0016659
0.250281
0.000308513
-0.250199
0.250357
0.000290606
0.250425
0.000266075
0.250485
0.000236075
0.250534
0.000199248
0.250571
0.000157135
0.250594
0.000108571
0.250601
5.49096e-05
0.250593
-5.54458e-06
0.250566
-6.82223e-05
0.250519
-0.000138818
0.25045
-0.000214615
0.250358
-0.000299556
0.25024
-0.00038908
0.250096
-0.00048908
0.249923
-0.000591575
0.249721
-0.000704959
0.249489
-0.000818116
0.249226
-0.000941493
0.248934
-0.00106258
0.248611
-0.00119067
-0.00131532
0.266659
0.000236445
-0.266587
0.266726
0.000223399
0.266787
0.000205169
0.26684
0.000182925
0.266884
0.000155253
0.266918
0.000123537
0.26694
8.67462e-05
0.266949
4.6006e-05
0.266943
-2.58994e-07
0.266923
-4.74691e-05
0.266885
-0.000100747
0.266828
-0.000158038
0.266751
-0.000222339
0.266652
-0.000290125
0.266529
-0.000366526
0.266382
-0.000444287
0.266209
-0.000531794
0.266009
-0.000617939
0.265781
-0.000714217
0.265526
-0.000807505
0.265244
-0.000908296
-0.00100552
0.284285
0.000171786
-0.284221
0.284346
0.00016284
0.284401
0.000150024
0.284449
0.000134435
0.28449
0.000114682
0.284522
9.19844e-05
0.284543
6.54333e-05
0.284553
3.59346e-05
0.28455
2.70947e-06
0.284534
-3.16644e-05
0.284503
-6.969e-05
0.284456
-0.00011102
0.284391
-0.000156893
0.284306
-0.000205971
0.284201
-0.000260978
0.284074
-0.000317333
0.283923
-0.000381057
0.283749
-0.000443372
0.283549
-0.000514558
0.283324
-0.000582393
0.283073
-0.000657655
-0.000729135
0.303275
0.000112452
-0.303215
0.303331
0.000106982
0.303382
9.88038e-05
0.303427
8.90058e-05
0.303466
7.62124e-05
0.303496
6.15833e-05
0.303517
4.42049e-05
0.303528
2.49064e-05
0.303528
3.28068e-06
0.303515
-1.93516e-05
0.30349
-4.3856e-05
0.303449
-7.08304e-05
0.303393
-0.000100336
0.303319
-0.000132424
0.303227
-0.00016821
0.303114
-0.000204945
0.30298
-0.000246962
0.302824
-0.000287276
0.302644
-0.000334981
0.302441
-0.000379016
0.302213
-0.000429818
-0.000476804
0.323762
5.64347e-05
-0.323706
0.323816
5.33587e-05
0.323865
4.9778e-05
0.323909
4.47467e-05
0.323947
3.84464e-05
0.323977
3.15015e-05
0.323999
2.21488e-05
0.32401
1.34491e-05
0.324012
1.3664e-06
0.324002
-8.78277e-06
0.32398
-2.17342e-05
0.323944
-3.49697e-05
0.323892
-4.88122e-05
0.323826
-6.64745e-05
0.32374
-8.18174e-05
0.323638
-0.000102646
0.323512
-0.00012183
0.323367
-0.000142049
0.3232
-0.000168157
0.323008
-0.000186313
0.322795
-0.000216755
-0.000237104
0.345911
-0.345854
0.345964
0.346014
0.346059
0.346097
0.346128
0.346151
0.346164
0.346165
0.346157
0.346135
0.3461
0.346051
0.345985
0.345903
0.3458
0.345678
0.345536
0.345368
0.345182
0.344965
0.0576676
0.0423707
0.0568542
0.0504046
0.0593364
0.0504939
0.0666664
0.0579798
0.0647161
0.0622305
0.0391432
0.0653387
0.0472964
0.0651657
0.0506669
0.0689447
0.0542008
0.0613227
0.0648881
0.0383685
0.0685674
0.043617
0.0693597
0.0498746
0.0710721
0.0524884
0.0583544
0.0681219
0.0705178
0.0412211
0.0728094
0.047583
0.0746599
0.0506379
0.0558174
0.0743352
0.0395306
0.0767877
0.0451304
0.0788798
0.0485459
0.0534993
0.0790918
0.0380428
0.0810019
0.0432204
0.0829182
0.0466296
0.0512741
0.083653
0.0366439
0.0853907
0.0414827
0.0872247
0.0447956
0.0491397
0.0884986
0.0351898
0.090268
0.0397133
0.0920547
0.0430089
0.0471137
0.093741
0.0337173
0.0954368
0.0380174
0.0971446
0.0413011
0.0451725
0.0991568
0.0323125
0.100777
0.0363969
0.102456
0.0396228
0.0432872
0.104906
0.0309253
0.106507
0.0347961
0.108174
0.037956
0.0414481
0.111114
0.029528
0.112686
0.0332237
0.114326
0.0363163
0.0396435
0.117726
0.0281471
0.119266
0.0316832
0.120891
0.0346919
0.037859
0.124755
0.0267784
0.126288
0.0301504
0.127914
0.0330656
0.0360828
0.132279
0.0254055
0.133812
0.0286171
0.135443
0.0314347
0.0343057
0.140321
0.024029
0.141854
0.0270836
0.143495
0.029794
0.0325173
0.14891
0.0226458
0.150453
0.02554
0.152114
0.0281331
0.0307078
0.158098
0.0212463
0.159662
0.023976
0.161352
0.0264435
0.0288685
0.167937
0.0198229
0.169529
0.0223841
0.171256
0.0247167
0.0269883
0.178472
0.0183695
0.180101
0.0207556
0.181875
0.0229427
0.0250558
0.189759
0.0168765
0.191434
0.0190799
0.193267
0.0211105
0.0230596
0.201856
0.0153346
0.203589
0.0173467
0.20549
0.0192096
0.0209875
0.214826
0.0137341
0.216628
0.0155452
0.218609
0.0172282
0.0188266
0.228738
0.0120654
0.230619
0.0136642
0.232693
0.0151543
0.0165637
0.243668
0.0103181
0.245641
0.0116918
0.24782
0.012975
0.0141847
0.259704
0.00848181
0.261779
0.00961594
0.264077
0.0106772
0.0116749
0.276942
0.00654523
0.279134
0.00742375
0.281564
0.00824667
0.00901875
0.295496
0.00449571
0.297818
0.00510109
0.300396
0.00566839
0.00619982
0.315495
0.002319
0.317964
0.00263197
0.320706
0.00292594
0.00320003
0.337096
0.339728
0.342654
)
;

boundaryField
{
    outlet
    {
        type            calculated;
        value           nonuniform 0();
    }
    upperWall
    {
        type            symmetryPlane;
        value           uniform 0;
    }
    lowerWall
    {
        type            symmetryPlane;
        value           nonuniform 0();
    }
    inlet
    {
        type            calculated;
        value           nonuniform 0();
    }
    cylinder
    {
        type            calculated;
        value           nonuniform 0();
    }
    frontAndBack
    {
        type            empty;
        value           nonuniform 0();
    }
    procBoundary6to2
    {
        type            processor;
        value           nonuniform List<scalar> 
37
(
-8.80866e-07
-1.15288e-06
-1.37616e-06
-1.56149e-06
-1.70867e-06
-1.82173e-06
-1.90006e-06
-1.94281e-06
-1.95117e-06
-1.92736e-06
-1.87668e-06
-1.80448e-06
-1.7077e-06
-1.57793e-06
-1.40297e-06
-1.18083e-06
-9.31898e-07
-8.37e-07
-3.28712e-07
2.24644e-07
8.23627e-07
1.48091e-06
2.21931e-06
2.8967e-06
3.61264e-06
4.10113e-06
4.69074e-06
4.92759e-06
5.31777e-06
5.29179e-06
5.77028e-06
5.8087e-06
5.24756e-06
3.51061e-06
8.45344e-07
-1.63324e-06
-3.49096e-06
)
;
    }
    procBoundary6to5
    {
        type            processor;
        value           nonuniform List<scalar> 
63
(
-0.0185732
0.000205813
-0.00422282
-0.00654338
-0.0278273
-0.0155529
-0.0184974
-0.0462338
-0.0248972
-0.0262313
-0.0272441
-0.0429225
-0.0296967
-0.0313607
-0.03368
-0.0464093
0.00828673
0.00283709
0.00948064
0.00721906
0.0046947
0.00207238
0.00916827
-0.000326231
0.00921961
-0.00376802
0.00845666
-0.00773582
0.00653527
-0.0122931
0.00453384
-0.0168472
-0.053629
-0.059003
-0.0641134
-0.0676581
0.0379047
-0.0726446
-0.077604
-0.0822541
-0.0870445
-0.0922684
-0.097752
-0.103519
-0.109717
-0.116345
-0.123387
-0.130906
-0.138944
-0.147527
-0.156699
-0.166514
-0.177019
-0.188266
-0.200314
-0.213226
-0.227069
-0.241921
-0.257867
-0.275005
-0.293446
-0.313318
-0.334777
)
;
    }
    procBoundary6to7
    {
        type            processor;
        value           nonuniform List<scalar> 
42
(
0.0068755
0.0191368
0.0299806
0.0373206
0.0409503
0.040914
0.0267407
0.0387781
0.0367167
0.0348973
0.0326929
0.0250859
0.045767
0.0489936
0.0545503
0.0566636
0.0630702
0.0670765
0.0727885
0.0783895
0.0844317
0.0908637
0.0976867
0.10488
0.11248
0.120509
0.128996
0.137973
0.147472
0.157536
0.16821
0.179543
0.191593
0.204419
0.218089
0.232675
0.24826
0.264934
0.282797
0.301961
0.322555
0.344728
)
;
    }
}


// ************************************************************************* //
