/*--------------------------------*- C++ -*----------------------------------*\
| =========                 |                                                 |
| \\      /  F ield         | OpenFOAM: The Open Source CFD Toolbox           |
|  \\    /   O peration     | Version:                                        |
|   \\  /    A nd           | Website:  www.openfoam.com                      |
|    \\/     M anipulation  |                                                 |
\*---------------------------------------------------------------------------*/
FoamFile
{
    version     2.0;
    format      ascii;
    class       volVectorField;
    location    "20.4";
    object      U;
}
// * * * * * * * * * * * * * * * * * * * * * * * * * * * * * * * * * * * * * //

dimensions      [0 1 -1 0 0 0 0];


internalField   nonuniform List<vector> 
1161
(
(0.443341 0.333403 -1.067e-19)
(0.52567 0.320759 1.65664e-19)
(0.632963 0.324125 -3.18781e-20)
(0.73717 0.315179 -1.80312e-20)
(0.857124 0.332305 2.95462e-20)
(0.979886 0.316068 -1.96962e-21)
(1.09265 0.347445 -8.50993e-20)
(1.21479 0.309776 -3.83291e-20)
(1.29391 0.349325 -6.59248e-20)
(1.39384 0.277967 -1.61128e-19)
(0.825467 0.30641 -1.28335e-19)
(0.974432 0.342729 3.78182e-20)
(1.10674 0.354358 1.0841e-19)
(1.22507 0.3854 -1.90758e-19)
(1.30034 0.372829 1.24492e-20)
(1.37758 0.385923 8.20213e-20)
(1.37585 0.350252 3.25414e-19)
(1.41751 0.336695 -2.89688e-19)
(1.29659 0.430974 -1.298e-19)
(1.30806 0.401364 2.44539e-20)
(1.32974 0.402288 2.28701e-19)
(1.28263 0.346263 -9.00245e-20)
(1.27056 0.32599 5.24674e-20)
(1.23458 0.284156 -3.11538e-21)
(1.16167 0.291849 -1.72479e-19)
(1.19175 0.294553 7.736e-20)
(1.19027 0.264688 6.77547e-20)
(-0.405077 0.0538013 5.63198e-21)
(-0.490013 0.0480274 -6.26413e-21)
(-0.563303 0.0436934 6.81318e-22)
(-0.630413 0.0400319 4.55106e-21)
(-0.689872 0.0371538 -7.2225e-21)
(-0.744789 0.0345916 -5.26005e-21)
(-0.794212 0.0324842 1.55718e-20)
(-0.84027 0.0304754 -1.35547e-20)
(-0.882277 0.0287589 1.65155e-20)
(-0.921817 0.0270843 1.797e-20)
(-0.958191 0.0256145 -1.54348e-20)
(-0.992282 0.0241621 -2.2029e-20)
(-1.02308 0.0227793 1.83396e-20)
(-1.05073 0.0212513 1.32851e-20)
(-1.07409 0.0196053 4.49586e-20)
(-1.09348 0.017673 1.24664e-21)
(-1.10856 0.0155902 -1.89727e-20)
(-0.435923 0.149632 -6.54641e-21)
(-0.496126 0.137524 2.18457e-21)
(-0.550897 0.127168 -6.14897e-21)
(-0.598467 0.118267 1.23656e-21)
(-0.641596 0.110713 1.61839e-20)
(-0.679556 0.103814 -6.04297e-20)
(-0.713661 0.0977507 2.81811e-20)
(-0.743785 0.0921377 2.11637e-20)
(-0.77103 0.0868563 -7.54674e-20)
(-0.794797 0.0820487 1.40644e-20)
(-0.816281 0.0773613 9.21781e-21)
(-0.834185 0.0728324 -4.82949e-20)
(-0.848694 0.0682752 -2.02471e-19)
(-0.858516 0.0631086 9.48662e-21)
(-0.863161 0.0572352 4.12017e-20)
(-0.862884 0.0502308 5.94027e-20)
(-0.369942 0.238801 4.83591e-20)
(-0.41447 0.21979 -1.80071e-20)
(-0.45476 0.20345 -3.48042e-20)
(-0.487984 0.190739 1.61193e-20)
(-0.518261 0.179005 3.37601e-20)
(-0.541827 0.169091 -6.13671e-20)
(-0.562222 0.160396 1.65911e-20)
(-0.578771 0.151657 1.1828e-19)
(-0.590639 0.144299 -1.38554e-19)
(-0.600435 0.136934 -5.44932e-21)
(-0.606601 0.129575 6.42902e-20)
(-0.608606 0.123511 1.697e-20)
(-0.609193 0.116213 -3.26505e-21)
(-0.603223 0.108844 3.0864e-19)
(-0.593068 0.100361 -2.43823e-19)
(-0.577595 0.0878564 1.37209e-19)
(-0.304307 0.312282 1.55285e-20)
(-0.333876 0.290857 -5.68824e-20)
(-0.357372 0.274037 4.04889e-20)
(-0.377842 0.257901 2.24606e-20)
(-0.391134 0.243403 -1.05732e-20)
(-0.39913 0.231776 1.08573e-20)
(-0.407365 0.218538 9.7127e-20)
(-0.405024 0.208497 1.35274e-20)
(-0.403864 0.199003 -1.54958e-19)
(-0.398811 0.187516 -6.85417e-20)
(-0.384367 0.180808 -4.25135e-20)
(-0.375721 0.170893 8.88601e-20)
(-0.356689 0.160803 1.4332e-19)
(-0.335161 0.154697 7.50127e-20)
(-0.31686 0.140877 -2.60394e-19)
(-0.28035 0.126348 2.42939e-19)
(-0.24238 0.379382 2.00158e-20)
(-0.252699 0.35732 -1.30936e-19)
(-0.263199 0.334377 1.86917e-19)
(-0.263898 0.314675 -1.04098e-19)
(-0.260019 0.299234 -1.23561e-19)
(-0.259654 0.281863 1.14096e-19)
(-0.244073 0.26962 -1.03075e-19)
(-0.230356 0.25925 2.15056e-20)
(-0.218319 0.244164 -9.97545e-20)
(-0.184305 0.23816 9.18118e-20)
(-0.168096 0.226965 6.79314e-20)
(-0.137241 0.21388 2.28645e-19)
(-0.0930382 0.212531 -1.44742e-19)
(-0.0698563 0.19407 -5.01916e-20)
(-0.0203944 0.189492 -2.66132e-19)
(0.033935 0.182904 6.57735e-19)
(-0.178124 0.401253 -1.19393e-19)
(-0.167303 0.382132 -2.05618e-21)
(-0.155195 0.364401 6.10682e-20)
(-0.143668 0.344918 4.42248e-20)
(-0.115169 0.332811 -1.29439e-19)
(-0.0932423 0.317903 3.73147e-21)
(-0.0678971 0.301389 -1.73191e-19)
(-0.0221978 0.296312 3.61499e-19)
(0.00330543 0.277331 -1.35493e-19)
(0.0501087 0.272304 -2.12278e-19)
(0.108198 0.262882 4.54545e-22)
(0.124403 0.243209 -1.94636e-19)
(0.234872 0.250486 2.47826e-19)
(0.221065 0.216609 1.75135e-19)
(0.367624 0.228041 -3.3359e-19)
(-0.0846089 0.421882 -2.79417e-20)
(-0.0556372 0.399916 1.51363e-19)
(-0.0156297 0.385291 3.05751e-19)
(0.00511182 0.360563 -3.9784e-20)
(0.056224 0.352093 9.19197e-20)
(0.107897 0.336971 1.34975e-19)
(0.122107 0.320289 -3.21224e-19)
(0.241516 0.321158 -3.37178e-20)
(0.206736 0.293304 5.42206e-19)
(0.378571 0.304055 -5.89507e-21)
(0.323884 0.270816 -4.06699e-19)
(0.511683 0.282133 3.90878e-19)
(0.465332 0.248812 -1.8111e-19)
(0.645558 0.253324 2.47458e-20)
(0.0338666 0.426288 3.04804e-20)
(0.0709681 0.408802 1.6565e-19)
(0.16055 0.398821 -2.5849e-19)
(0.139827 0.371241 -1.51714e-19)
(0.307977 0.374553 -1.14428e-19)
(0.239661 0.341821 3.07866e-20)
(0.449586 0.35048 -1.82439e-19)
(0.371359 0.317638 -2.23185e-19)
(0.587012 0.326433 -2.07606e-20)
(0.522179 0.294238 5.13073e-19)
(0.72966 0.303019 -2.29411e-19)
(0.684269 0.269015 -8.8477e-20)
(0.875768 0.272764 1.57383e-19)
(0.129117 0.405595 3.68544e-20)
(0.298382 0.400176 7.0964e-20)
(0.243806 0.375045 1.89859e-20)
(0.438547 0.368168 -2.75993e-20)
(0.382249 0.349718 7.56717e-20)
(0.583806 0.343411 7.67715e-21)
(0.528906 0.32586 -1.72021e-19)
(0.737666 0.324591 5.4415e-20)
(0.685156 0.301079 3.01811e-19)
(0.902517 0.305383 -4.97369e-19)
(0.860068 0.271556 5.73109e-19)
(1.07554 0.278421 -5.73188e-19)
(0.348522 0.392367 -4.6748e-20)
(0.37661 0.38748 -8.88515e-20)
(0.494532 0.3555 2.35143e-19)
(0.525477 0.362043 -1.86066e-19)
(0.653716 0.332743 6.86279e-20)
(0.679285 0.344684 -1.54018e-19)
(0.834634 0.316456 1.71682e-19)
(0.852374 0.324848 -2.45258e-19)
(1.0435 0.303303 2.57351e-19)
(1.04871 0.295942 1.6562e-19)
(1.2701 0.290948 7.68325e-20)
(-1.12225 0.0128076 2.18761e-20)
(-1.14651 0.0074467 -5.29602e-21)
(-1.1478 0.0037122 6.47754e-21)
(-1.15514 -0.0024067 5.22782e-21)
(-1.13943 -0.00621164 -1.61455e-20)
(-1.12877 -0.0123426 5.08346e-21)
(-1.09433 -0.0151683 4.24825e-21)
(-1.06495 -0.0209669 -7.05642e-21)
(-1.01159 -0.0225672 4.51663e-21)
(-0.965851 -0.0278684 -1.21397e-20)
(-0.896707 -0.0268606 1.97078e-21)
(-0.83823 -0.0315713 1.24918e-21)
(-0.755476 -0.0289446 4.15899e-21)
(-0.685131 -0.0355587 1.63583e-21)
(-0.589542 -0.0291986 -1.40859e-21)
(-0.49631 -0.0395569 -6.63966e-23)
(-0.38054 -0.038095 4.26249e-23)
(-0.254852 -0.0510358 6.86813e-22)
(-0.0936934 -0.0519791 -1.49264e-21)
(0.0436574 -0.0410657 9.32675e-22)
(-0.857714 0.04039 -1.49712e-20)
(-0.899281 0.0213521 -3.58287e-20)
(-0.883713 0.00990676 -3.4372e-22)
(-0.905631 -0.00998076 3.77042e-20)
(-0.875263 -0.0209976 2.69761e-20)
(-0.877625 -0.0407091 -1.19306e-20)
(-0.830159 -0.0489464 -8.81076e-21)
(-0.813508 -0.0670744 3.50646e-20)
(-0.747935 -0.0722194 -3.75917e-20)
(-0.713505 -0.0881348 -2.30076e-20)
(-0.633677 -0.0865777 8.13344e-21)
(-0.585037 -0.0985089 2.93835e-20)
(-0.495932 -0.0934822 -1.89473e-20)
(-0.425742 -0.109878 -8.1008e-21)
(-0.33671 -0.106017 1.36255e-20)
(-0.232888 -0.115488 -2.95761e-21)
(-0.12983 -0.13211 1.10607e-21)
(0.00597314 -0.145575 -3.17539e-21)
(0.138921 -0.148263 9.11038e-21)
(0.279242 -0.137991 -3.71267e-21)
(-0.551444 0.0708706 -1.31359e-19)
(-0.609846 0.0381236 2.19602e-20)
(-0.580228 0.0193262 2.79149e-20)
(-0.614061 -0.0125567 -4.10702e-20)
(-0.575986 -0.0322534 2.56024e-20)
(-0.58673 -0.0639361 -1.89641e-20)
(-0.536328 -0.0803922 6.51574e-20)
(-0.525724 -0.10693 -3.73118e-21)
(-0.462778 -0.119486 1.61102e-20)
(-0.426494 -0.140069 -1.32154e-20)
(-0.356659 -0.147654 -5.46358e-20)
(-0.296518 -0.153659 7.15085e-21)
(-0.229836 -0.162251 -9.12692e-21)
(-0.142549 -0.170019 1.95644e-20)
(-0.0640791 -0.180044 -6.60412e-21)
(0.0356344 -0.191285 5.81267e-21)
(0.1471 -0.207828 -2.46993e-21)
(0.268131 -0.229947 -1.14611e-21)
(0.3961 -0.232493 6.36062e-21)
(0.516055 -0.216901 -3.92915e-21)
(-0.244442 0.114188 -1.96112e-19)
(-0.298263 0.0599951 9.8387e-20)
(-0.27345 0.0367925 1.34912e-19)
(-0.30175 -0.00769891 -9.36429e-20)
(-0.277131 -0.0384264 8.3104e-20)
(-0.276968 -0.0768181 -1.1346e-19)
(-0.244835 -0.107187 8.87452e-20)
(-0.220501 -0.133716 1.27836e-21)
(-0.183783 -0.164348 -8.84437e-20)
(-0.136698 -0.185437 2.26964e-20)
(-0.0871441 -0.204667 2.86612e-20)
(-0.0273721 -0.212191 -3.94416e-20)
(0.032329 -0.218865 1.69927e-20)
(0.106806 -0.238561 2.98809e-21)
(0.193074 -0.247296 2.42585e-21)
(0.283703 -0.262493 -1.74066e-20)
(0.390405 -0.285605 2.7404e-21)
(0.509952 -0.307401 1.39272e-21)
(0.618952 -0.308627 -8.0357e-21)
(0.707195 -0.281729 -4.20608e-22)
(0.0453501 0.137537 -5.16869e-19)
(0.0296415 0.0860797 -4.85994e-21)
(0.0272278 0.0489099 5.09565e-19)
(0.0246846 0.0126282 -3.58468e-19)
(0.0301811 -0.0374226 -2.30878e-20)
(0.0415864 -0.0826472 1.03039e-19)
(0.0576691 -0.126832 8.35651e-21)
(0.0796107 -0.159676 -3.45102e-20)
(0.110708 -0.190417 -1.29165e-19)
(0.144504 -0.223437 7.57905e-20)
(0.191474 -0.246111 5.65736e-20)
(0.236061 -0.25823 -7.52852e-21)
(0.289137 -0.271833 5.43887e-20)
(0.357415 -0.28826 8.27562e-21)
(0.42923 -0.306553 -4.71173e-20)
(0.51615 -0.326418 -1.17642e-20)
(0.622011 -0.353742 4.51816e-21)
(0.725334 -0.373494 2.17742e-21)
(0.800235 -0.362638 -4.95148e-21)
(0.843477 -0.321821 9.19014e-21)
(0.336183 0.180748 4.03388e-19)
(0.332949 0.120012 -1.15549e-19)
(0.336005 0.0740989 2.22242e-19)
(0.331047 0.0272761 -6.04878e-20)
(0.332214 -0.020357 -2.95582e-19)
(0.339309 -0.0722507 1.83779e-19)
(0.349171 -0.118169 -8.48299e-20)
(0.367348 -0.160605 2.25417e-19)
(0.390596 -0.202029 -2.91786e-19)
(0.418182 -0.238367 8.43585e-20)
(0.450253 -0.270974 -9.91566e-20)
(0.481918 -0.287771 5.37736e-20)
(0.523484 -0.304138 4.24296e-20)
(0.583094 -0.331214 2.9443e-20)
(0.652921 -0.355484 -4.87208e-21)
(0.736545 -0.383507 -2.00762e-20)
(0.82655 -0.411765 -3.22128e-22)
(0.895005 -0.418282 -2.80641e-21)
(0.920033 -0.390955 -4.88832e-21)
(0.912468 -0.338097 1.73389e-20)
(0.6098 0.209675 5.67992e-21)
(0.605661 0.152063 -1.55088e-19)
(0.616762 0.105767 7.10759e-21)
(0.61666 0.0560323 -2.70063e-19)
(0.616145 0.00284256 2.75816e-19)
(0.620179 -0.0555583 1.69373e-19)
(0.627009 -0.110146 -8.26494e-20)
(0.635932 -0.161985 -1.54804e-20)
(0.647157 -0.208207 -7.92794e-21)
(0.659725 -0.251232 -2.11395e-20)
(0.680239 -0.28538 6.36037e-21)
(0.705232 -0.312381 -3.5345e-20)
(0.742244 -0.341835 -6.75275e-20)
(0.798353 -0.373718 6.6917e-20)
(0.862405 -0.404453 -7.67245e-20)
(0.933585 -0.433309 3.39632e-20)
(0.990996 -0.450089 2.22253e-20)
(1.00677 -0.438027 9.60102e-21)
(0.980209 -0.394501 -9.12933e-21)
(0.934434 -0.335724 9.07525e-21)
(0.895175 -0.275401 -3.53706e-21)
(0.839607 0.226701 -3.70652e-19)
(0.83408 0.180216 1.81304e-19)
(0.846449 0.139943 2.35008e-19)
(0.851079 0.0940866 -3.13234e-19)
(0.846814 0.0366621 2.71761e-19)
(0.847889 -0.0141398 5.94618e-20)
(0.851808 -0.0677603 3.4485e-22)
(0.857695 -0.120769 -3.07777e-19)
(0.863899 -0.170554 6.69804e-20)
(0.872793 -0.217524 -8.57401e-20)
(0.887365 -0.260614 -3.09022e-20)
(0.908474 -0.302833 4.18087e-20)
(0.945483 -0.343486 1.06017e-19)
(0.996422 -0.387513 5.3271e-20)
(1.05127 -0.426237 -5.72097e-20)
(1.09479 -0.453419 3.06456e-20)
(1.1003 -0.456314 -3.13104e-20)
(1.06143 -0.427952 -2.13752e-21)
(0.99945 -0.378182 -3.22893e-22)
(0.941074 -0.324241 3.17141e-22)
(0.903043 -0.273201 6.25236e-22)
(1.04055 0.230266 6.07738e-20)
(1.03268 0.196258 2.02706e-19)
(1.0406 0.162672 -4.95189e-21)
(1.04328 0.113794 7.64518e-20)
(1.04428 0.0581438 7.81096e-20)
(1.04921 0.00171456 -1.64826e-19)
(1.0489 -0.0612809 3.49599e-20)
(1.05376 -0.119788 -2.63897e-19)
(1.05881 -0.174673 4.3526e-19)
(1.06711 -0.226614 -1.97735e-19)
(1.08158 -0.274991 2.187e-21)
(1.10486 -0.318876 -2.48081e-20)
(1.13762 -0.3627 -1.09634e-19)
(1.17344 -0.402864 2.11682e-19)
(1.20183 -0.435555 -1.08827e-19)
(1.19781 -0.450622 3.22777e-20)
(1.14934 -0.438139 1.12019e-20)
(1.07724 -0.404586 -3.5863e-21)
(1.00895 -0.359882 -1.81177e-20)
(0.957772 -0.315524 6.17918e-21)
(0.925763 -0.273065 4.44391e-21)
(1.24725 0.248424 1.35198e-20)
(1.23696 0.230099 2.27814e-20)
(1.23195 0.209716 2.11091e-19)
(1.22517 0.173191 -2.03812e-19)
(1.21962 0.129408 -2.51819e-19)
(1.21687 0.0722335 3.03463e-19)
(1.21981 0.0138843 -2.68164e-19)
(1.22815 -0.0461131 9.85802e-20)
(1.23848 -0.108769 1.40001e-19)
(1.25259 -0.172832 -1.94653e-19)
(1.27036 -0.235927 8.4268e-20)
(1.29065 -0.2968 1.63204e-19)
(1.30769 -0.352474 -1.32981e-20)
(1.31194 -0.397126 -1.07143e-19)
(1.29187 -0.427788 -9.29085e-20)
(1.23848 -0.436371 7.51985e-20)
(1.16259 -0.423919 2.87039e-20)
(1.0895 -0.395985 -2.87284e-20)
(1.03143 -0.363258 -9.74318e-21)
(0.986356 -0.32896 1.28327e-20)
(0.95385 -0.292462 -4.60423e-21)
(1.43867 0.262745 0)
(1.45537 0.228144 0)
(1.45892 0.194902 0)
(1.45545 0.157311 0)
(1.45044 0.114388 0)
(1.4472 0.065931 0)
(1.44769 0.0144218 0)
(1.44956 -0.0396164 0)
(1.45032 -0.0945193 0)
(1.4486 -0.147159 0)
(1.44271 -0.196175 0)
(1.43024 -0.239464 0)
(1.40561 -0.275031 0)
(1.36548 -0.301307 0)
(1.30873 -0.315423 0)
(1.2402 -0.316881 0)
(1.17174 -0.30906 0)
(1.11088 -0.294555 0)
(1.05849 -0.279416 0)
(1.01619 -0.260907 0)
(0.983843 -0.238751 0)
(0.961468 -0.213652 0)
(1.39109 0.254213 0)
(1.43594 0.220958 0)
(1.46418 0.188385 0)
(1.47941 0.154268 0)
(1.48847 0.116666 0)
(1.4941 0.0744106 0)
(1.49708 0.0266329 0)
(1.4955 -0.0250429 0)
(1.48802 -0.0793355 0)
(1.47276 -0.132007 0)
(1.44836 -0.18231 0)
(1.41349 -0.228143 0)
(1.36635 -0.26873 0)
(1.30989 -0.300883 0)
(1.24654 -0.323132 0)
(1.18319 -0.334275 0)
(1.12438 -0.336118 0)
(1.07302 -0.329977 0)
(1.0317 -0.31696 0)
(1.00146 -0.298636 0)
(0.979337 -0.274708 0)
(0.962039 -0.245493 0)
(1.33778 0.226195 0)
(1.38322 0.197963 0)
(1.41478 0.166874 0)
(1.43336 0.13449 0)
(1.44416 0.0996079 0)
(1.45022 0.0605995 0)
(1.45237 0.0173777 0)
(1.44987 -0.0292427 0)
(1.44173 -0.077187 0)
(1.42589 -0.123985 0)
(1.40142 -0.167533 0)
(1.36825 -0.205696 0)
(1.32821 -0.236171 0)
(1.28401 -0.256799 0)
(1.23833 -0.267092 0)
(1.19417 -0.268287 0)
(1.15259 -0.263886 0)
(1.11529 -0.254663 0)
(1.08308 -0.242209 0)
(1.05508 -0.227581 0)
(1.02957 -0.209294 0)
(1.00564 -0.187328 0)
(1.30845 0.202417 0)
(1.3474 0.17802 0)
(1.37598 0.149131 0)
(1.39327 0.118441 0)
(1.40215 0.0859734 0)
(1.40655 0.0512788 0)
(1.40736 0.0142562 0)
(1.40481 -0.0245828 0)
(1.39761 -0.0645205 0)
(1.38456 -0.104038 0)
(1.36464 -0.141512 0)
(1.33767 -0.174476 0)
(1.30489 -0.201831 0)
(1.26751 -0.223332 0)
(1.22665 -0.239188 0)
(1.18391 -0.251574 0)
(1.14135 -0.260427 0)
(1.10131 -0.264525 0)
(1.06476 -0.263431 0)
(1.03221 -0.256177 0)
(1.00307 -0.24251 0)
(0.977395 -0.222855 0)
(1.28389 0.179521 0)
(1.31813 0.158333 0)
(1.34399 0.132994 0)
(1.36005 0.105235 0)
(1.3682 0.0760643 0)
(1.3715 0.0455037 0)
(1.3715 0.0135319 0)
(1.36835 -0.0199123 0)
(1.36137 -0.0542095 0)
(1.34979 -0.0886178 0)
(1.33262 -0.121616 0)
(1.30965 -0.151666 0)
(1.28102 -0.177642 0)
(1.24804 -0.19903 0)
(1.21197 -0.215664 0)
(1.17558 -0.227222 0)
(1.14117 -0.232862 0)
(1.10993 -0.23173 0)
(1.08202 -0.22435 0)
(1.05748 -0.212214 0)
(1.03479 -0.195485 0)
(1.01453 -0.174698 0)
(1.25956 0.157317 0)
(1.29001 0.13901 0)
(1.31313 0.117211 0)
(1.32779 0.0929376 0)
(1.33525 0.0672418 0)
(1.33779 0.0405011 0)
(1.33702 0.0125958 0)
(1.33328 -0.0161848 0)
(1.32641 -0.0456675 0)
(1.31579 -0.0750382 0)
(1.30082 -0.10364 0)
(1.28132 -0.13017 0)
(1.25745 -0.153894 0)
(1.23025 -0.173994 0)
(1.20073 -0.189908 0)
(1.17125 -0.201654 0)
(1.14216 -0.208935 0)
(1.11386 -0.211517 0)
(1.08641 -0.210965 0)
(1.0596 -0.207105 0)
(1.03337 -0.198712 0)
(1.00986 -0.186051 0)
(1.23829 0.137319 0)
(1.2644 0.121672 0)
(1.28444 0.102984 0)
(1.29732 0.0821676 0)
(1.30375 0.0599549 0)
(1.30565 0.0367669 0)
(1.30439 0.0127854 0)
(1.30068 -0.0119162 0)
(1.29431 -0.0370102 0)
(1.28526 -0.0622338 0)
(1.27293 -0.0870188 0)
(1.25741 -0.110544 0)
(1.23868 -0.132488 0)
(1.21714 -0.151516 0)
(1.1935 -0.167584 0)
(1.16886 -0.180127 0)
(1.14311 -0.188471 0)
(1.11721 -0.193001 0)
(1.09142 -0.193415 0)
(1.06619 -0.189273 0)
(1.04303 -0.179507 0)
(1.02346 -0.164341 0)
(1.21863 0.119589 0)
(1.24079 0.106166 0)
(1.25799 0.0903448 0)
(1.26904 0.0727098 0)
(1.27461 0.0537188 0)
(1.27612 0.0339076 0)
(1.27502 0.0132742 0)
(1.27188 -0.0078911 0)
(1.26676 -0.0295725 0)
(1.25973 -0.0514898 0)
(1.25018 -0.0732346 0)
(1.23838 -0.0944773 0)
(1.2238 -0.114422 0)
(1.20665 -0.13245 0)
(1.18713 -0.147923 0)
(1.16567 -0.160121 0)
(1.14257 -0.168865 0)
(1.1188 -0.173753 0)
(1.09475 -0.175026 0)
(1.07182 -0.171964 0)
(1.05049 -0.164045 0)
(1.03147 -0.153032 0)
(1.19978 0.104176 0)
(1.21883 0.0927111 0)
(1.23355 0.0792857 0)
(1.24309 0.0642525 0)
(1.24791 0.0480673 0)
(1.24936 0.0310118 0)
(1.24869 0.0132632 0)
(1.24639 -0.00507223 0)
(1.24273 -0.0239385 0)
(1.23746 -0.0430473 0)
(1.23036 -0.062295 0)
(1.22125 -0.0810683 0)
(1.20957 -0.0990564 0)
(1.1956 -0.115445 0)
(1.17889 -0.129691 0)
(1.1602 -0.141296 0)
(1.13957 -0.149751 0)
(1.11822 -0.155055 0)
(1.09697 -0.156968 0)
(1.07618 -0.154965 0)
(1.05637 -0.149512 0)
(1.03879 -0.141387 0)
(1.18238 0.0910622 0)
(1.1987 0.0812085 0)
(1.21142 0.0696262 0)
(1.21971 0.0567123 0)
(1.22399 0.0427165 0)
(1.22544 0.0279991 0)
(1.22505 0.0125847 0)
(1.2235 -0.00334194 0)
(1.22072 -0.0197492 0)
(1.21682 -0.0364521 0)
(1.21126 -0.053216 0)
(1.20396 -0.069721 0)
(1.19447 -0.0855075 0)
(1.18275 -0.100041 0)
(1.16864 -0.112922 0)
(1.15252 -0.123558 0)
(1.13466 -0.131719 0)
(1.11634 -0.137137 0)
(1.09746 -0.139623 0)
(1.07869 -0.139173 0)
(1.06111 -0.135566 0)
(1.04502 -0.129376 0)
(1.16639 0.079505 0)
(1.18045 0.0709305 0)
(1.19153 0.0609145 0)
(1.19882 0.0497594 0)
(1.20269 0.0376774 0)
(1.20403 0.0249447 0)
(1.20386 0.0115894 0)
(1.2026 -0.00220465 0)
(1.20041 -0.0164567 0)
(1.19722 -0.0308937 0)
(1.19263 -0.045468 0)
(1.1867 -0.0597126 0)
(1.17875 -0.0734482 0)
(1.16913 -0.0861863 0)
(1.15726 -0.0975771 0)
(1.14375 -0.107294 0)
(1.12884 -0.114948 0)
(1.11295 -0.120481 0)
(1.0965 -0.123663 0)
(1.08025 -0.124047 0)
(1.06451 -0.121924 0)
(1.04998 -0.117737 0)
(1.15164 0.0690198 0)
(1.16385 0.0615673 0)
(1.17356 0.0529198 0)
(1.18 0.0433428 0)
(1.18344 0.032941 0)
(1.18469 0.0220131 0)
(1.18453 0.0105145 0)
(1.1835 -0.00135183 0)
(1.18159 -0.0135983 0)
(1.1789 -0.0260462 0)
(1.17509 -0.0385394 0)
(1.17008 -0.050847 0)
(1.16357 -0.0627044 0)
(1.1556 -0.073805 0)
(1.14578 -0.0838992 0)
(1.13473 -0.0926015 0)
(1.1221 -0.0998463 0)
(1.10871 -0.10534 0)
(1.09474 -0.10867 0)
(1.08048 -0.109923 0)
(1.06679 -0.109111 0)
(1.05386 -0.10631 0)
(1.1382 0.0596088 0)
(1.14877 0.0531784 0)
(1.15724 0.0457398 0)
(1.16285 0.0375186 0)
(1.16589 0.0286206 0)
(1.16695 0.0192704 0)
(1.16681 0.00945603 0)
(1.1659 -0.000660447 0)
(1.16424 -0.0111303 0)
(1.16201 -0.0217156 0)
(1.15874 -0.0324354 0)
(1.15469 -0.0429676 0)
(1.14926 -0.0531941 0)
(1.14276 -0.0628865 0)
(1.13475 -0.0717136 0)
(1.12556 -0.0796065 0)
(1.11516 -0.0862581 0)
(1.10396 -0.0914284 0)
(1.09201 -0.0950375 0)
(1.07983 -0.0968467 0)
(1.06794 -0.0969313 0)
(1.05644 -0.0954035 0)
(1.12591 0.0513002 0)
(1.13496 0.045776 0)
(1.14226 0.0393834 0)
(1.14714 0.032359 0)
(1.14977 0.0247601 0)
(1.15069 0.0168007 0)
(1.15054 0.00847376 0)
(1.14972 -0.000120793 0)
(1.14833 -0.0089681 0)
(1.14642 -0.0179852 0)
(1.14375 -0.0270672 0)
(1.14042 -0.0360773 0)
(1.13599 -0.0448743 0)
(1.13073 -0.0532414 0)
(1.12413 -0.0610414 0)
(1.11665 -0.0680491 0)
(1.10807 -0.0740786 0)
(1.09865 -0.0790112 0)
(1.08868 -0.0826372 0)
(1.07828 -0.0847776 0)
(1.06809 -0.0856088 0)
(1.05798 -0.084983 0)
(1.11452 0.0439541 0)
(1.12224 0.0392193 0)
(1.12852 0.0337727 0)
(1.13274 0.027798 0)
(1.13503 0.0213475 0)
(1.13583 0.0146097 0)
(1.13566 0.00755396 0)
(1.13496 0.000311161 0)
(1.1337 -0.00717058 0)
(1.13216 -0.014772 0)
(1.12993 -0.0224571 0)
(1.12728 -0.0301241 0)
(1.12367 -0.0376197 0)
(1.11943 -0.0448578 0)
(1.11408 -0.0516468 0)
(1.10799 -0.0578285 0)
(1.1009 -0.0633121 0)
(1.09314 -0.0678491 0)
(1.08484 -0.0714004 0)
(1.07605 -0.0737622 0)
(1.06732 -0.0750811 0)
(1.0585 -0.075178 0)
(1.10398 0.0374585 0)
(1.11054 0.0334413 0)
(1.11595 0.028834 0)
(1.11958 0.0237851 0)
(1.12159 0.0183478 0)
(1.12226 0.0126581 0)
(1.12212 0.00672831 0)
(1.12149 0.000621064 0)
(1.12044 -0.00565547 0)
(1.11914 -0.012046 0)
(1.11732 -0.0185253 0)
(1.11518 -0.0249911 0)
(1.11228 -0.0313838 0)
(1.10887 -0.0375676 0)
(1.10457 -0.0434562 0)
(1.0996 -0.0488797 0)
(1.09386 -0.0537802 0)
(1.08745 -0.057912 0)
(1.0806 -0.0613483 0)
(1.07317 -0.0637812 0)
(1.06583 -0.0654304 0)
(1.05821 -0.0659973 0)
(1.09431 0.0317827 0)
(1.09986 0.028398 0)
(1.10448 0.0245267 0)
(1.10762 0.020287 0)
(1.10935 0.0157209 0)
(1.10996 0.0109511 0)
(1.1098 0.00597793 0)
(1.10928 0.000868194 0)
(1.10836 -0.00439137 0)
(1.10731 -0.00974291 0)
(1.1058 -0.0151777 0)
(1.10411 -0.0206208 0)
(1.10176 -0.0260287 0)
(1.09907 -0.031291 0)
(1.09559 -0.0363615 0)
(1.09161 -0.0410722 0)
(1.08695 -0.0454057 0)
(1.08171 -0.0491598 0)
(1.07607 -0.0523676 0)
(1.06991 -0.0548013 0)
(1.06372 -0.056582 0)
(1.05721 -0.0575371 0)
(1.08547 0.0268496 0)
(1.09011 0.0240117 0)
(1.09405 0.0207774 0)
(1.09672 0.0172326 0)
(1.09825 0.0134234 0)
(1.09877 0.00944115 0)
(1.09867 0.005292 0)
(1.09821 0.00103919 0)
(1.09745 -0.00335527 0)
(1.09657 -0.00780202 0)
(1.09535 -0.0123598 0)
(1.09399 -0.0168979 0)
(1.09213 -0.0214702 0)
(1.08997 -0.025906 0)
(1.08722 -0.0302556 0)
(1.084 -0.0343029 0)
(1.08028 -0.0381249 0)
(1.07598 -0.0414615 0)
(1.07143 -0.0444291 0)
(1.06628 -0.0467564 0)
(1.06115 -0.0486215 0)
(1.0556 -0.0497624 0)
(1.07739 0.0225652 0)
(1.08128 0.020205 0)
(1.08459 0.0175177 0)
(1.0869 0.0145761 0)
(1.08821 0.0114157 0)
(1.08869 0.00810885 0)
(1.0886 0.00466912 0)
(1.08823 0.00113737 0)
(1.08758 -0.00250257 0)
(1.08688 -0.00619989 0)
(1.08586 -0.00998295 0)
(1.08481 -0.0137706 0)
(1.08329 -0.0175948 0)
(1.08162 -0.0213322 0)
(1.0794 -0.0250165 0)
(1.07687 -0.0284933 0)
(1.07387 -0.0317956 0)
(1.07042 -0.0347635 0)
(1.06671 -0.0374225 0)
(1.06249 -0.0396399 0)
(1.05823 -0.0414359 0)
(1.05358 -0.0427197 0)
(1.07008 0.0188655 0)
(1.07328 0.0169195 0)
(1.07609 0.0146971 0)
(1.07802 0.0122782 0)
(1.07919 0.0096604 0)
(1.0796 0.00694279 0)
(1.07957 0.00408942 0)
(1.07924 0.00119003 0)
(1.07873 -0.00182893 0)
(1.07813 -0.0048676 0)
(1.07732 -0.00800992 0)
(1.07646 -0.0111359 0)
(1.07528 -0.0143321 0)
(1.07395 -0.0174437 0)
(1.07222 -0.0205647 0)
(1.07019 -0.0234984 0)
(1.06782 -0.0263631 0)
(1.06502 -0.0289279 0)
(1.06206 -0.0313256 0)
(1.05856 -0.0333267 0)
(1.05512 -0.0350684 0)
(1.05118 -0.0363451 0)
(1.06349 0.0156904 0)
(1.06612 0.0140912 0)
(1.06845 0.012274 0)
(1.07009 0.0102869 0)
(1.07109 0.00814431 0)
(1.07147 0.00590939 0)
(1.07146 0.00357098 0)
(1.07121 0.00118731 0)
(1.07077 -0.00128732 0)
(1.07031 -0.00378557 0)
(1.06962 -0.00636628 0)
(1.06898 -0.00894691 0)
(1.06801 -0.0115823 0)
(1.067 -0.0141808 0)
(1.0656 -0.0167723 0)
(1.06403 -0.0192668 0)
(1.06213 -0.0216812 0)
(1.0599 -0.0239175 0)
(1.05751 -0.0259985 0)
(1.05468 -0.0278156 0)
(1.05186 -0.0294069 0)
(1.0486 -0.0306728 0)
(1.05758 0.012963 0)
(1.0597 0.0116671 0)
(1.06165 0.0101823 0)
(1.063 0.00857185 0)
(1.06388 0.0068199 0)
(1.06419 0.00500401 0)
(1.06424 0.00309041 0)
(1.06402 0.0011525 0)
(1.06369 -0.00087266 0)
(1.0633 -0.0029011 0)
(1.06277 -0.00502033 0)
(1.06224 -0.00711632 0)
(1.06148 -0.00929813 0)
(1.06069 -0.0114181 0)
(1.0596 -0.0135911 0)
(1.05835 -0.0156486 0)
(1.05687 -0.0177061 0)
(1.05505 -0.019589 0)
(1.0532 -0.0214087 0)
(1.05085 -0.0229862 0)
(1.04861 -0.0244518 0)
(1.04588 -0.0255985 0)
(1.05231 0.0106279 0)
(1.05402 0.00958275 0)
(1.05561 0.00838764 0)
(1.05673 0.00708727 0)
(1.05747 0.0056745 0)
(1.05776 0.00420307 0)
(1.05781 0.00265768 0)
(1.05767 0.00108422 0)
(1.0574 -0.000548961 0)
(1.0571 -0.00219794 0)
(1.05666 -0.00390464 0)
(1.05626 -0.00561628 0)
(1.05563 -0.0073785 0)
(1.05503 -0.00912279 0)
(1.05416 -0.0108949 0)
(1.0532 -0.0126042 0)
(1.05202 -0.0143081 0)
(1.05058 -0.0158973 0)
(1.0491 -0.0174349 0)
(1.0472 -0.0188143 0)
(1.0454 -0.0200809 0)
(1.04313 -0.0211547 0)
(1.04768 0.00861879 0)
(1.04901 0.00779062 0)
(1.05031 0.00683658 0)
(1.05121 0.00580296 0)
(1.05185 0.00467121 0)
(1.05209 0.0034974 0)
(1.05218 0.00225416 0)
(1.05206 0.000999041 0)
(1.05188 -0.000317299 0)
(1.05163 -0.00162838 0)
(1.05129 -0.00300625 0)
(1.05097 -0.0043661 0)
(1.05047 -0.00579696 0)
(1.05 -0.00718895 0)
(1.04932 -0.00864112 0)
(1.04856 -0.0100174 0)
(1.04765 -0.0114322 0)
(1.04647 -0.0127256 0)
(1.04533 -0.0140334 0)
(1.04376 -0.0151747 0)
(1.04234 -0.0162935 0)
(1.04045 -0.0172107 0)
(1.04365 0.00688103 0)
(1.04469 0.0062353 0)
(1.04571 0.0054899 0)
(1.04643 0.00467882 0)
(1.04696 0.00379142 0)
(1.04716 0.00286289 0)
(1.04726 0.00188545 0)
(1.04719 0.0008877 0)
(1.04706 -0.000145444 0)
(1.04689 -0.00118746 0)
(1.04662 -0.0022666 0)
(1.04637 -0.00334671 0)
(1.04596 -0.00447277 0)
(1.04559 -0.00558177 0)
(1.04506 -0.0067357 0)
(1.04446 -0.00783986 0)
(1.04375 -0.00897546 0)
(1.0428 -0.010028 0)
(1.0419 -0.0110886 0)
(1.0406 -0.0120444 0)
(1.03948 -0.0129667 0)
(1.0379 -0.0137652 0)
(1.04024 0.00536027 0)
(1.04101 0.00487272 0)
(1.04182 0.00430299 0)
(1.04236 0.00368634 0)
(1.04279 0.00300328 0)
(1.04295 0.00229069 0)
(1.04306 0.00153331 0)
(1.04302 0.000763862 0)
(1.04296 -3.70031e-05 0)
(1.04283 -0.000838411 0)
(1.04264 -0.00167314 0)
(1.04243 -0.00250123 0)
(1.04211 -0.00337559 0)
(1.0418 -0.00422718 0)
(1.04139 -0.00513311 0)
(1.04091 -0.00598237 0)
(1.04036 -0.00688655 0)
(1.03958 -0.00769896 0)
(1.03887 -0.00855833 0)
(1.03779 -0.00930841 0)
(1.0369 -0.0100695 0)
(1.03558 -0.0107161 0)
(1.03743 0.00400871 0)
(1.038 0.00365592 0)
(1.03862 0.00323968 0)
(1.03902 0.00278898 0)
(1.03935 0.00228665 0)
(1.03947 0.00175798 0)
(1.03957 0.00119673 0)
(1.03956 0.000619565 0)
(1.03955 2.67052e-05 0)
(1.03948 -0.000573821 0)
(1.03935 -0.00118747 0)
(1.03917 -0.00180585 0)
(1.03891 -0.00244944 0)
(1.03865 -0.00308661 0)
(1.03833 -0.00376045 0)
(1.03794 -0.00439748 0)
(1.03751 -0.00507695 0)
(1.03686 -0.00568897 0)
(1.03629 -0.00634371 0)
(1.03538 -0.00691768 0)
(1.03466 -0.00750641 0)
(1.03354 -0.008013 0)
(1.03526 0.00278389 0)
(1.03568 0.00254804 0)
(1.03613 0.00226396 0)
(1.03643 0.00196019 0)
(1.03667 0.00161383 0)
(1.03674 0.00125249 0)
(1.03682 0.000860629 0)
(1.03683 0.000461128 0)
(1.03687 4.68897e-05 0)
(1.03684 -0.000368926 0)
(1.03677 -0.00079169 0)
(1.03662 -0.00121947 0)
(1.03641 -0.00165981 0)
(1.03617 -0.00210351 0)
(1.03591 -0.00256888 0)
(1.03558 -0.0030124 0)
(1.03525 -0.00349057 0)
(1.03468 -0.00391045 0)
(1.03421 -0.00438521 0)
(1.03343 -0.00477721 0)
(1.03283 -0.00521312 0)
(1.03188 -0.00556691 0)
(1.03374 0.00164547 0)
(1.03405 0.00151257 0)
(1.03441 0.00134693 0)
(1.03461 0.00117251 0)
(1.03478 0.000969417 0)
(1.03481 0.000757139 0)
(1.03487 0.000526348 0)
(1.03489 0.000286799 0)
(1.03496 4.36322e-05 0)
(1.03498 -0.000207123 0)
(1.03495 -0.00045259 0)
(1.03483 -0.000708484 0)
(1.03464 -0.000964301 0)
(1.03441 -0.00122745 0)
(1.03421 -0.0015027 0)
(1.03389 -0.00176342 0)
(1.03365 -0.00205049 0)
(1.03312 -0.00229573 0)
(1.03273 -0.00258367 0)
(1.03202 -0.00281706 0)
(1.03149 -0.00308304 0)
(1.03069 -0.00329781 0)
(1.03295 0.000553455 0)
(1.0332 0.000490444 0)
(1.03348 0.000453737 0)
(1.03365 0.000386149 0)
(1.03376 0.000320005 0)
(1.03378 0.000260249 0)
(1.03382 0.000159373 0)
(1.03385 0.00011303 0)
(1.03394 -8.37385e-06 0)
(1.03398 -5.32884e-05 0)
(1.03398 -0.000161976 0)
(1.03385 -0.00023852 0)
(1.03371 -0.000304806 0)
(1.03345 -0.000435525 0)
(1.03329 -0.00046344 0)
(1.03299 -0.000613523 0)
(1.03277 -0.0006631 0)
(1.03229 -0.000750363 0)
(1.0319 -0.000889625 0)
(1.03125 -0.000885426 0)
(1.03077 -0.00107152 0)
(1.03002 -0.00107808 0)
(1.22564 0.292556 -1.17485e-19)
(1.28638 0.302048 1.19755e-20)
(1.19705 0.259634 -2.26759e-19)
(1.34616 0.313025 9.49786e-20)
(1.40849 0.309209 -1.2604e-19)
(1.16154 0.250885 4.39261e-20)
(1.29301 0.294881 -1.26615e-19)
(1.24585 0.262836 1.16732e-19)
(1.26419 0.260348 6.90599e-20)
(1.34088 0.284498 1.00962e-19)
(1.16591 0.219473 -2.72898e-20)
(1.2233 0.235987 3.05138e-20)
(1.25823 0.243716 5.59392e-20)
(1.24472 0.217257 -1.11406e-19)
(1.2902 0.247386 -9.05205e-20)
(1.1828 0.209224 -1.32682e-20)
(1.18406 0.193146 -4.0427e-22)
(1.23222 0.221402 -2.6409e-20)
(1.24681 0.196426 1.44815e-19)
(1.27125 0.21988 1.3881e-19)
(1.18403 0.17242 -2.79505e-20)
(1.20936 0.199489 -6.67326e-20)
(1.23296 0.178517 -1.59973e-20)
(1.25229 0.195346 -8.99387e-20)
(1.18233 0.155426 4.14295e-20)
(1.19422 0.175046 7.22166e-20)
(1.2121 0.156635 -4.15532e-20)
(1.23085 0.170845 6.22754e-20)
(1.17201 0.137381 3.32086e-20)
(1.18217 0.1522 -2.30369e-20)
(1.19728 0.137074 2.90517e-20)
(1.21387 0.148952 -3.92013e-20)
(1.1618 0.122994 -4.92479e-20)
(1.17207 0.134255 3.18043e-20)
(1.185 0.121525 -6.4804e-21)
(1.19842 0.129868 1.99824e-20)
(1.15184 0.110627 1.19915e-20)
(1.16072 0.118583 -2.89083e-20)
(1.17096 0.107513 2.61736e-20)
(1.18249 0.113129 -5.01117e-20)
(1.1409 0.0984362 3.66534e-20)
(1.14817 0.103876 -9.09937e-21)
(1.15706 0.0947571 -1.2264e-20)
(1.16749 0.0987607 4.35853e-20)
(1.13059 0.0871756 -2.41102e-20)
(1.13687 0.0910224 2.40033e-20)
(1.14473 0.0835017 -3.62674e-20)
(1.15375 0.0862848 -3.41479e-20)
(1.12129 0.0770491 -2.33582e-20)
(1.12659 0.0797142 4.15006e-21)
(1.13319 0.0732083 4.34723e-20)
(1.14075 0.0750189 2.89069e-20)
(1.11231 0.0675621 3.53006e-20)
(1.11674 0.0693026 -9.12643e-21)
(1.12223 0.0636914 -2.4111e-20)