/*--------------------------------*- C++ -*----------------------------------*\
| =========                 |                                                 |
| \\      /  F ield         | OpenFOAM: The Open Source CFD Toolbox           |
|  \\    /   O peration     | Version:                                        |
|   \\  /    A nd           | Website:  www.openfoam.com                      |
|    \\/     M anipulation  |                                                 |
\*---------------------------------------------------------------------------*/
FoamFile
{
    version     2.0;
    format      ascii;
    class       volVectorField;
    location    "1.1";
    object      U;
}
// * * * * * * * * * * * * * * * * * * * * * * * * * * * * * * * * * * * * * //

dimensions      [0 1 -1 0 0 0 0];


internalField   nonuniform List<vector> 
400
(
(0.0795458 2.8867e-05 0)
(0.079376 2.78012e-05 0)
(0.0792125 2.67783e-05 0)
(0.079055 2.5796e-05 0)
(0.0789034 2.48534e-05 0)
(0.0787573 2.39479e-05 0)
(0.0786166 2.30802e-05 0)
(0.0784811 2.22467e-05 0)
(0.0783504 2.14508e-05 0)
(0.0782245 2.0688e-05 0)
(0.0781031 1.99633e-05 0)
(0.0779859 1.92785e-05 0)
(0.0778728 1.86241e-05 0)
(0.0777634 1.80603e-05 0)
(0.0776579 1.74527e-05 0)
(0.0775545 1.72332e-05 0)
(0.0774558 1.65322e-05 0)
(0.0773526 1.81838e-05 0)
(0.0772619 1.72916e-05 0)
(0.0770874 3.84175e-05 0)
(0.229936 0.000173431 0)
(0.229469 0.000166959 0)
(0.22902 0.000160752 0)
(0.228587 0.000154796 0)
(0.22817 0.000149082 0)
(0.227769 0.000143598 0)
(0.227383 0.000138341 0)
(0.227011 0.000133296 0)
(0.226652 0.000128473 0)
(0.226307 0.000123854 0)
(0.225974 0.000119458 0)
(0.225652 0.000115287 0)
(0.225343 0.000111326 0)
(0.225043 0.000107763 0)
(0.224754 0.000104221 0)
(0.224471 0.000102056 0)
(0.224202 9.87013e-05 0)
(0.223923 0.000102821 0)
(0.223685 9.97137e-05 0)
(0.223286 0.000151887 0)
(0.371557 0.000476358 0)
(0.370838 0.000458474 0)
(0.370146 0.000441326 0)
(0.36948 0.000424877 0)
(0.368839 0.000409101 0)
(0.368222 0.000393964 0)
(0.367628 0.000379456 0)
(0.367056 0.000365538 0)
(0.366505 0.000352226 0)
(0.365974 0.000339476 0)
(0.365463 0.000327333 0)
(0.364969 0.000315785 0)
(0.364494 0.000304845 0)
(0.364034 0.000294803 0)
(0.363591 0.000285142 0)
(0.363158 0.000278058 0)
(0.362748 0.000269658 0)
(0.362321 0.000273396 0)
(0.361972 0.000267606 0)
(0.361406 0.000327875 0)
(0.504298 0.000902668 0)
(0.503377 0.000868617 0)
(0.50249 0.000835976 0)
(0.501637 0.000804674 0)
(0.500816 0.00077466 0)
(0.500027 0.000745867 0)
(0.499266 0.000718272 0)
(0.498534 0.000691804 0)
(0.497829 0.000666483 0)
(0.49715 0.000642226 0)
(0.496496 0.000619118 0)
(0.495866 0.000597098 0)
(0.495258 0.000576261 0)
(0.494671 0.0005569 0)
(0.494106 0.00053854 0)
(0.493554 0.000523793 0)
(0.493034 0.000508255 0)
(0.492489 0.000507194 0)
(0.492062 0.000497396 0)
(0.491363 0.000546623 0)
(0.628025 0.00141816 0)
(0.626956 0.00136444 0)
(0.625928 0.00131295 0)
(0.624939 0.00126358 0)
(0.623988 0.00121626 0)
(0.623073 0.00117086 0)
(0.622192 0.00112737 0)
(0.621344 0.00108564 0)
(0.620528 0.00104573 0)
(0.619742 0.00100748 0)
(0.618985 0.000971037 0)
(0.618256 0.000936241 0)
(0.617553 0.000903354 0)
(0.616874 0.000872481 0)
(0.616223 0.000843506 0)
(0.615584 0.000818681 0)
(0.614989 0.00079447 0)
(0.614358 0.000783976 0)
(0.613882 0.000769142 0)
(0.613083 0.000796047 0)
(0.7426 0.00199327 0)
(0.741445 0.00191748 0)
(0.740334 0.00184485 0)
(0.739266 0.00177523 0)
(0.738239 0.00170849 0)
(0.73725 0.00164448 0)
(0.736299 0.00158316 0)
(0.735384 0.00152433 0)
(0.734503 0.00146806 0)
(0.733655 0.00141411 0)
(0.732839 0.00136272 0)
(0.732053 0.00131354 0)
(0.731296 0.00126714 0)
(0.730564 0.00122314 0)
(0.729863 0.00118229 0)
(0.729175 0.00114534 0)
(0.728539 0.00111165 0)
(0.727856 0.00108765 0)
(0.727361 0.00106784 0)
(0.7265 0.00106661 0)
(0.847904 0.00259619 0)
(0.846729 0.00249714 0)
(0.8456 0.00240225 0)
(0.844513 0.00231129 0)
(0.843468 0.00222412 0)
(0.842463 0.00214051 0)
(0.841497 0.00206042 0)
(0.840567 0.00198358 0)
(0.839672 0.00191009 0)
(0.83881 0.00183957 0)
(0.837981 0.00177246 0)
(0.837182 0.00170805 0)
(0.836414 0.00164745 0)
(0.835672 0.00158935 0)
(0.834962 0.00153613 0)
(0.834263 0.00148552 0)
(0.833624 0.00144234 0)
(0.832927 0.00140179 0)
(0.83244 0.00137785 0)
(0.831562 0.00134625 0)
(0.943863 0.0031921 0)
(0.942737 0.00307 0)
(0.941655 0.00295302 0)
(0.940615 0.0028409 0)
(0.939614 0.00273345 0)
(0.938652 0.00263039 0)
(0.937727 0.00253167 0)
(0.936837 0.00243695 0)
(0.93598 0.00234638 0)
(0.935156 0.0022594 0)
(0.934363 0.00217669 0)
(0.933599 0.00209707 0)
(0.932865 0.00202243 0)
(0.932155 0.00195005 0)
(0.931478 0.00188474 0)
(0.93081 0.0018197 0)
(0.930204 0.00176776 0)
(0.929534 0.00170885 0)
(0.929082 0.00168197 0)
(0.928239 0.00162043 0)
(1.03046 0.00374479 0)
(1.02946 0.00360125 0)
(1.02849 0.00346374 0)
(1.02756 0.00333193 0)
(1.02667 0.00320562 0)
(1.02581 0.00308446 0)
(1.02498 0.00296842 0)
(1.02419 0.00285703 0)
(1.02342 0.00275057 0)
(1.02269 0.00264822 0)
(1.02198 0.00255101 0)
(1.0213 0.00245711 0)
(1.02064 0.00236949 0)
(1.02001 0.00228346 0)
(1.01941 0.00220721 0)
(1.01881 0.00212783 0)
(1.01828 0.00206845 0)
(1.01768 0.00199086 0)
(1.01728 0.00196221 0)
(1.01653 0.00187316 0)
(1.10777 0.00421825 0)
(1.10695 0.00405636 0)
(1.10617 0.00390124 0)
(1.10541 0.00375253 0)
(1.10469 0.00361002 0)
(1.10399 0.00347332 0)
(1.10332 0.00334238 0)
(1.10267 0.00321666 0)
(1.10205 0.00309654 0)
(1.10146 0.00298093 0)
(1.10088 0.00287129 0)
(1.10033 0.00276497 0)
(1.0998 0.00266629 0)
(1.09929 0.00256816 0)
(1.0988 0.0024828 0)
(1.09831 0.00239022 0)
(1.09788 0.00232516 0)
(1.0974 0.00223011 0)
(1.09708 0.00220072 0)
(1.09647 0.00208812 0)
(1.17596 0.00457862 0)
(1.17539 0.00440277 0)
(1.17485 0.00423426 0)
(1.17432 0.00407268 0)
(1.17382 0.00391783 0)
(1.17334 0.00376926 0)
(1.17287 0.00362696 0)
(1.17243 0.00349026 0)
(1.172 0.00335971 0)
(1.17158 0.00323391 0)
(1.17118 0.0031148 0)
(1.1708 0.00299882 0)
(1.17043 0.00289181 0)
(1.17008 0.00278402 0)
(1.16974 0.00269206 0)
(1.16941 0.00258845 0)
(1.16911 0.00251977 0)
(1.16878 0.00240995 0)
(1.16857 0.00238069 0)
(1.16815 0.00224966 0)
(1.23529 0.00479613 0)
(1.23503 0.00461192 0)
(1.23477 0.00443535 0)
(1.23453 0.00426602 0)
(1.2343 0.0041037 0)
(1.23407 0.00394793 0)
(1.23385 0.00379874 0)
(1.23365 0.00365536 0)
(1.23345 0.00351848 0)
(1.23326 0.00338639 0)
(1.23307 0.00326156 0)
(1.2329 0.00313951 0)
(1.23272 0.00302758 0)
(1.23256 0.00291339 0)
(1.2324 0.00281784 0)
(1.23226 0.00270639 0)
(1.23212 0.00263635 0)
(1.23197 0.00251574 0)
(1.23187 0.00248736 0)
(1.23169 0.00234387 0)
(1.28613 0.00484726 0)
(1.28621 0.00466117 0)
(1.28628 0.00448277 0)
(1.28636 0.00431162 0)
(1.28642 0.00414754 0)
(1.28649 0.00399001 0)
(1.28656 0.00383916 0)
(1.28662 0.00369409 0)
(1.28668 0.00355567 0)
(1.28674 0.00342189 0)
(1.28679 0.00329571 0)
(1.28685 0.00317182 0)
(1.2869 0.00305891 0)
(1.28695 0.00294231 0)
(1.287 0.00284653 0)
(1.28706 0.00273131 0)
(1.28709 0.00266224 0)
(1.28716 0.00253584 0)
(1.28718 0.00250901 0)
(1.28728 0.00235966 0)
(1.32894 0.00471659 0)
(1.32938 0.00453567 0)
(1.3298 0.00436219 0)
(1.33021 0.0041957 0)
(1.3306 0.00403606 0)
(1.33097 0.00388275 0)
(1.33133 0.00373592 0)
(1.33168 0.00359465 0)
(1.33202 0.00345992 0)
(1.33234 0.00332952 0)
(1.33265 0.00320675 0)
(1.33295 0.00308572 0)
(1.33324 0.00297608 0)
(1.33352 0.00286157 0)
(1.33378 0.00276911 0)
(1.33406 0.00265483 0)
(1.33428 0.00258908 0)
(1.33458 0.0024626 0)
(1.33473 0.00243793 0)
(1.33512 0.00228965 0)
(1.36421 0.00439824 0)
(1.36502 0.00422974 0)
(1.36579 0.0040681 0)
(1.36653 0.00391294 0)
(1.36725 0.00376414 0)
(1.36793 0.00362117 0)
(1.3686 0.00348425 0)
(1.36923 0.00335244 0)
(1.36984 0.00322679 0)
(1.37043 0.003105 0)
(1.371 0.00299055 0)
(1.37155 0.00287729 0)
(1.37207 0.00277526 0)
(1.37259 0.00266762 0)
(1.37306 0.00258201 0)
(1.37356 0.00247376 0)
(1.37396 0.00241359 0)
(1.3745 0.00229308 0)
(1.37477 0.00227113 0)
(1.37545 0.0021309 0)
(1.39251 0.0038968 0)
(1.39366 0.00374771 0)
(1.39476 0.00360464 0)
(1.39583 0.00346727 0)
(1.39685 0.00333551 0)
(1.39783 0.00320886 0)
(1.39877 0.00308756 0)
(1.39968 0.00297073 0)
(1.40055 0.00285941 0)
(1.4014 0.00275138 0)
(1.4022 0.00265001 0)
(1.40299 0.00254936 0)
(1.40373 0.00245915 0)
(1.40447 0.00236313 0)
(1.40514 0.00228775 0)
(1.40586 0.00219061 0)
(1.40643 0.00213814 0)
(1.4072 0.00202959 0)
(1.40758 0.00201086 0)
(1.40854 0.00188539 0)
(1.41437 0.00322749 0)
(1.41582 0.00310416 0)
(1.41722 0.00298577 0)
(1.41856 0.00287208 0)
(1.41985 0.00276303 0)
(1.42109 0.00265817 0)
(1.42229 0.00255772 0)
(1.42344 0.00246092 0)
(1.42455 0.00236874 0)
(1.42561 0.00227918 0)
(1.42663 0.00219526 0)
(1.42763 0.00211168 0)
(1.42857 0.0020371 0)
(1.42951 0.00195714 0)
(1.43035 0.00189502 0)
(1.43126 0.00181377 0)
(1.43198 0.00177087 0)
(1.43295 0.00167984 0)
(1.43343 0.00166478 0)
(1.43464 0.00156012 0)
(1.43027 0.0024155 0)
(1.43197 0.00232331 0)
(1.4336 0.00223478 0)
(1.43517 0.00214974 0)
(1.43668 0.00206817 0)
(1.43814 0.00198973 0)
(1.43954 0.00191457 0)
(1.44088 0.0018421 0)
(1.44218 0.00177312 0)
(1.44343 0.00170606 0)
(1.44462 0.00164327 0)
(1.44579 0.0015806 0)
(1.44688 0.00152486 0)
(1.44798 0.00146477 0)
(1.44897 0.00141846 0)
(1.45004 0.00135721 0)
(1.45088 0.0013254 0)
(1.45201 0.00125669 0)
(1.45257 0.00124564 0)
(1.45398 0.00116694 0)
(1.44063 0.00149478 0)
(1.4425 0.00143779 0)
(1.4443 0.00138305 0)
(1.44603 0.00133044 0)
(1.4477 0.00127997 0)
(1.4493 0.00123145 0)
(1.45084 0.00118496 0)
(1.45233 0.00114011 0)
(1.45375 0.00109741 0)
(1.45513 0.0010559 0)
(1.45645 0.00101706 0)
(1.45773 0.000978228 0)
(1.45894 0.000943767 0)
(1.46015 0.00090649 0)
(1.46124 0.000877902 0)
(1.46242 0.000839808 0)
(1.46335 0.000820255 0)
(1.46458 0.000777498 0)
(1.46521 0.000770757 0)
(1.46676 0.000721905 0)
(1.44573 0.000505975 0)
(1.44769 0.000486697 0)
(1.44958 0.000468218 0)
(1.45139 0.00045042 0)
(1.45314 0.00043329 0)
(1.45482 0.000416846 0)
(1.45643 0.000401157 0)
(1.45799 0.000386009 0)
(1.45948 0.00037153 0)
(1.46093 0.000357446 0)
(1.46231 0.000344317 0)
(1.46365 0.000331172 0)
(1.46492 0.000319507 0)
(1.46619 0.000306891 0)
(1.46733 0.000297243 0)
(1.46856 0.000284283 0)
(1.46954 0.000277663 0)
(1.47084 0.000263182 0)
(1.47149 0.000260941 0)
(1.47312 0.00024437 0)
)
;

boundaryField
{
    fixedWalls
    {
        type            noSlip;
    }
    inlet
    {
        type            fixedValue;
        value           nonuniform 0();
    }
    outlet
    {
        type            zeroGradient;
    }
    frontAndBack
    {
        type            empty;
    }
    procBoundary3to2
    {
        type            processor;
        value           nonuniform List<vector> 
20
(
(0.0797222 2.99771e-05 0)
(0.230422 0.000180177 0)
(0.372305 0.000495013 0)
(0.505256 0.000938197 0)
(0.629136 0.00147423 0)
(0.743801 0.00207239 0)
(0.849127 0.00269959 0)
(0.945034 0.00331958 0)
(1.03151 0.00389463 0)
(1.10862 0.00438725 0)
(1.17655 0.00476214 0)
(1.23556 0.00498833 0)
(1.28605 0.00504136 0)
(1.32848 0.00490521 0)
(1.36338 0.00457385 0)
(1.39132 0.00405213 0)
(1.41286 0.00335591 0)
(1.4285 0.00251147 0)
(1.43868 0.00155412 0)
(1.44369 0.00052609 0)
)
;
    }
    procBoundary3to7
    {
        type            processor;
        value           nonuniform List<vector> 
20
(
(1.44573 -0.000505988 0)
(1.44769 -0.000486697 0)
(1.44958 -0.000468133 0)
(1.45139 -0.000450323 0)
(1.45314 -0.000433285 0)
(1.45482 -0.000416883 0)
(1.45643 -0.000401109 0)
(1.45799 -0.000385893 0)
(1.45948 -0.000371462 0)
(1.46093 -0.000357422 0)
(1.46231 -0.000344263 0)
(1.46365 -0.000331104 0)
(1.46492 -0.00031945 0)
(1.46619 -0.000306795 0)
(1.46733 -0.000297114 0)
(1.46856 -0.000284216 0)
(1.46954 -0.000277637 0)
(1.47084 -0.000263093 0)
(1.47149 -0.000260801 0)
(1.47312 -0.000244249 0)
)
;
    }
}


// ************************************************************************* //
