/*--------------------------------*- C++ -*----------------------------------*\
| =========                 |                                                 |
| \\      /  F ield         | OpenFOAM: The Open Source CFD Toolbox           |
|  \\    /   O peration     | Version:                                        |
|   \\  /    A nd           | Website:  www.openfoam.com                      |
|    \\/     M anipulation  |                                                 |
\*---------------------------------------------------------------------------*/
FoamFile
{
    version     2.0;
    format      ascii;
    class       volScalarField;
    location    "196.3";
    object      p;
}
// * * * * * * * * * * * * * * * * * * * * * * * * * * * * * * * * * * * * * //

dimensions      [0 2 -2 0 0 0 0];


internalField   nonuniform List<scalar> 
1161
(
-0.586855
-0.527475
-0.47016
-0.416276
-0.367516
-0.321933
-0.280124
-0.239991
-0.200753
-0.162611
-0.459513
-0.41017
-0.363505
-0.321217
-0.283015
-0.24736
-0.21314
-0.181303
-0.357325
-0.317229
-0.280206
-0.246492
-0.215913
-0.188
-0.25385
-0.223818
-0.196165
-1.22579
-1.26516
-1.30098
-1.31957
-1.31668
-1.29634
-1.25007
-1.16598
-1.0537
-0.940363
-0.84274
-0.771414
-0.725642
-0.706977
-0.714632
-0.749001
-0.80641
-1.24128
-1.27709
-1.29693
-1.29694
-1.27605
-1.22174
-1.12452
-1.00365
-0.886143
-0.789531
-0.717923
-0.666809
-0.634391
-0.620279
-0.6327
-0.660042
-1.18318
-1.21637
-1.23933
-1.2432
-1.21991
-1.15364
-1.04559
-0.92404
-0.811037
-0.718063
-0.643618
-0.588616
-0.54841
-0.517118
-0.500569
-0.491307
-1.10287
-1.13113
-1.15584
-1.16368
-1.13494
-1.0575
-0.948098
-0.833608
-0.731625
-0.646894
-0.572194
-0.513238
-0.468296
-0.428215
-0.392225
-0.357288
-1.02423
-1.04717
-1.07437
-1.08123
-1.04333
-0.961246
-0.858733
-0.755293
-0.661978
-0.582314
-0.512146
-0.452337
-0.401425
-0.354746
-0.312543
-0.269243
-0.992795
-1.01621
-1.00752
-0.956337
-0.875675
-0.78507
-0.696389
-0.612909
-0.53452
-0.467239
-0.409155
-0.356837
-0.306678
-0.259992
-0.217911
-0.975916
-0.947008
-0.887864
-0.810315
-0.727293
-0.647206
-0.573038
-0.503283
-0.439912
-0.380842
-0.327884
-0.280886
-0.234816
-0.192506
-0.893931
-0.829481
-0.757135
-0.682642
-0.609049
-0.53842
-0.476003
-0.418704
-0.364438
-0.313273
-0.264697
-0.222771
-0.181951
-0.781318
-0.709682
-0.639498
-0.572301
-0.508517
-0.448337
-0.391885
-0.34217
-0.29714
-0.254694
-0.215202
-0.176756
-0.674703
-0.60632
-0.541248
-0.48152
-0.425138
-0.372416
-0.324321
-0.279134
-0.240115
-0.204472
-0.170042
-0.893831
-0.998486
-0.982668
-0.856866
-0.68102
-0.527234
-0.423513
-0.364064
-0.338945
-0.346811
-0.393387
-0.491883
-0.64975
-0.826472
-0.949048
-0.929599
-0.768939
-0.583165
-0.429212
-0.345021
-0.711591
-0.811817
-0.792743
-0.700273
-0.567174
-0.457202
-0.381547
-0.340089
-0.327172
-0.345033
-0.404829
-0.520032
-0.702389
-0.903732
-1.04163
-1.03209
-0.857912
-0.642565
-0.457996
-0.346622
-0.49387
-0.560065
-0.548851
-0.512303
-0.429775
-0.364122
-0.315147
-0.288995
-0.28708
-0.309964
-0.379605
-0.504419
-0.69352
-0.905476
-1.05123
-1.06075
-0.899762
-0.670467
-0.46715
-0.337388
-0.32537
-0.345221
-0.338283
-0.325897
-0.288299
-0.258491
-0.231943
-0.21706
-0.224149
-0.248236
-0.311363
-0.425386
-0.600691
-0.814178
-0.967297
-1.00147
-0.87712
-0.659201
-0.454122
-0.315921
-0.225002
-0.210191
-0.19245
-0.181771
-0.167771
-0.158338
-0.147746
-0.141064
-0.149743
-0.170024
-0.219133
-0.314014
-0.460345
-0.649362
-0.80563
-0.874203
-0.776686
-0.601167
-0.418245
-0.284988
-0.170793
-0.136598
-0.107747
-0.0925779
-0.0772583
-0.0797567
-0.0778433
-0.0767586
-0.0857541
-0.104275
-0.138693
-0.207536
-0.321475
-0.465811
-0.593439
-0.665146
-0.632993
-0.519826
-0.372321
-0.251683
-0.149772
-0.108577
-0.069951
-0.0440199
-0.0442491
-0.0295472
-0.027621
-0.0291421
-0.0361201
-0.0504647
-0.0751937
-0.125886
-0.204232
-0.297784
-0.395291
-0.465805
-0.465624
-0.409203
-0.30967
-0.209609
-0.142618
-0.141482
-0.103852
-0.0674771
-0.0302945
-0.0062095
0.0109486
0.0119594
0.00620548
-0.00440685
-0.0180292
-0.0351995
-0.0701155
-0.124032
-0.185613
-0.246858
-0.297668
-0.342013
-0.308797
-0.251006
-0.173291
-0.119466
-0.141421
-0.104385
-0.0687888
-0.0358748
-0.00493875
0.0220008
0.0395117
0.0354174
0.0203497
0.00279448
-0.0129565
-0.0415939
-0.0795462
-0.107796
-0.138416
-0.178615
-0.214294
-0.220664
-0.196523
-0.14134
-0.100533
-0.143597
-0.119196
-0.0871661
-0.0525859
-0.0231291
0.00331311
0.0265403
0.0400619
0.0335915
0.0174959
0.00407633
-0.0134638
-0.0433636
-0.071029
-0.0909892
-0.0944649
-0.0966822
-0.116662
-0.125157
-0.100286
-0.0756812
-0.125641
-0.110623
-0.0814745
-0.04948
-0.0200817
0.00445277
0.0268471
0.042615
0.0408983
0.0256422
0.00912573
-0.00558594
-0.0253593
-0.0447682
-0.0556952
-0.0581749
-0.0664357
-0.0817137
-0.0868058
-0.0684042
-0.0469458
-0.0218398
-0.112061
-0.10181
-0.0750572
-0.0430448
-0.0161028
0.00293347
0.0205593
0.0334768
0.0359264
0.025828
0.0115823
-0.00136155
-0.0131787
-0.0259691
-0.0342495
-0.0395152
-0.0456657
-0.0529175
-0.0547297
-0.040496
-0.0266669
-0.00846982
-0.102499
-0.0925469
-0.0709674
-0.0441777
-0.0188479
-0.000791708
0.0145057
0.0264306
0.0302817
0.0242768
0.0141186
0.00418178
-0.00320599
-0.00955978
-0.0129441
-0.016299
-0.0227086
-0.0288938
-0.0304201
-0.0211381
-0.0124244
0.00186162
-0.0914366
-0.0838442
-0.0672902
-0.0450506
-0.0220146
-0.00445597
0.00842381
0.0183953
0.0233703
0.0211954
0.015569
0.0093466
0.0055299
0.00468993
0.00534289
0.00238292
-0.00533284
-0.0106156
-0.0114791
-0.00304574
0.00259243
0.0122102
-0.0817465
-0.0769279
-0.0642609
-0.0455999
-0.0253585
-0.0090028
0.00254516
0.0111873
0.016815
0.0178184
0.0159116
0.0135628
0.0118331
0.0127238
0.0137256
0.0113205
0.00752268
0.00421198
0.00137715
0.00577935
0.00673815
0.013676
-0.0736545
-0.0704627
-0.0605131
-0.0450686
-0.0280467
-0.013272
-0.00251993
0.00522851
0.0109334
0.014046
0.0148546
0.014936
0.0143192
0.0158222
0.0173529
0.0169768
0.0149649
0.00927283
0.0100835
0.0149557
0.0208558
0.0212763
-0.0654506
-0.063602
-0.0562055
-0.0440217
-0.0298673
-0.0168488
-0.0068627
0.000293793
0.00589287
0.0103667
0.0129563
0.0147862
0.0153757
0.0167114
0.0188715
0.0194077
0.0199106
0.0248287
0.0177423
0.0179958
0.0177337
0.0205507
-0.057448
-0.0571334
-0.052013
-0.0422654
-0.030388
-0.0190083
-0.0102528
-0.003572
0.0021149
0.00716857
0.0107664
0.0134693
0.0148836
0.0164046
0.018715
0.0200283
0.0209595
0.0205762
0.0196229
0.0209311
0.0256807
0.0257424
-0.0503993
-0.0510396
-0.0473477
-0.0395297
-0.0298859
-0.0203716
-0.0125419
-0.00626911
-0.000897583
0.00407879
0.00825475
0.0113821
0.0136934
0.015431
0.0174391
0.0191163
0.0204054
0.0231299
0.0230142
0.0226702
0.0239871
0.0251307
-0.043516
-0.0447055
-0.0424228
-0.0365124
-0.0286445
-0.0206872
-0.0138903
-0.00838102
-0.00330037
0.00158036
0.00600423
0.00937804
0.0120167
0.0138195
0.0156768
0.0178408
0.0194583
0.0205563
0.0205453
0.0220137
0.0247518
0.0265361
-0.0370365
-0.0387718
-0.0375883
-0.0330931
-0.0266332
-0.0199976
-0.0141714
-0.00933794
-0.00468918
-0.000223666
0.00405787
0.00747936
0.0101887
0.0122047
0.0141229
0.016416
0.018262
0.0206216
0.0219287
0.0224619
0.024238
0.0257783
-0.0310967
-0.0329935
-0.0325118
-0.0291195
-0.0238526
-0.0183204
-0.0135244
-0.00952929
-0.00554258
-0.00151695
0.00255404
0.00593662
0.00860523
0.0107126
0.012593
0.0147771
0.0169841
0.0192069
0.0207412
0.0214993
0.0229242
0.02484
-0.025754
-0.0277807
-0.0275602
-0.0249636
-0.0208482
-0.016543
-0.0126251
-0.00927076
-0.00576146
-0.00209601
0.00161118
0.00478341
0.0073305
0.00941439
0.0112718
0.0134074
0.015673
0.0177875
0.0194325
0.0204613
0.0217285
0.0236718
-0.0207575
-0.0223862
-0.0225591
-0.0210635
-0.018039
-0.0144492
-0.0110647
-0.00817118
-0.00520813
-0.00208916
0.00115337
0.00407083
0.00649088
0.00842799
0.0102454
0.0122307
0.014427
0.0164963
0.0181703
0.0193864
0.0204975
0.0224104
-0.0153509
-0.0175649
-0.0184755
-0.017284
-0.01458
-0.0115409
-0.00887305
-0.00662972
-0.00429579
-0.00167222
0.00119707
0.00386852
0.0060463
0.00779808
0.00946733
0.0113194
0.0133286
0.015413
0.0170383
0.0183033
0.0193584
0.0211204
-0.0122533
-0.0140654
-0.014277
-0.0131193
-0.0110403
-0.00875859
-0.00673361
-0.00497615
-0.00305323
-0.000784571
0.0017009
0.00402259
0.00593287
0.00750685
0.00904654
0.0107841
0.0127666
0.0146286
0.016125
0.0173054
0.0183816
0.0200011
-0.00786297
-0.00900132
-0.0096621
-0.00924324
-0.00785664
-0.00609766
-0.00447699
-0.00303745
-0.00147957
0.000398731
0.0024748
0.00446952
0.00616129
0.00755238
0.00889721
0.010445
0.0122449
0.0139821
0.015368
0.0164752
0.0175475
0.0189947
-0.00394067
-0.0054825
-0.00632959
-0.00603169
-0.00484813
-0.00337505
-0.00207904
-0.000969458
0.0002332
0.00173592
0.00347842
0.00521498
0.00667239
0.00781323
0.00897052
0.0103354
0.0119545
0.0135148
0.0148143
0.0158296
0.016851
0.0181953
-0.00132874
-0.00255179
-0.00309409
-0.00276587
-0.001816
-0.000696592
0.000243638
0.00104311
0.00197145
0.00320684
0.00469169
0.00613424
0.00732632
0.00827825
0.00928314
0.0104644
0.0118753
0.0132664
0.0144351
0.0153631
0.016301
0.0175595
0.0014847
0.000567986
5.72281e-05
0.000197771
0.000866247
0.00170209
0.00241794
0.00302622
0.00375676
0.00475322
0.00596948
0.00715059
0.00814643
0.00893335
0.00976098
0.0107632
0.0119851
0.0132111
0.0142295
0.0150595
0.0159104
0.0170656
0.00409201
0.00321593
0.00270723
0.00278305
0.00331303
0.00396652
0.00450715
0.00494699
0.00550201
0.00629319
0.00727244
0.00823113
0.00904077
0.00968502
0.0103575
0.0112073
0.0122463
0.013311
0.0141732
0.0149149
0.0156846
0.0167177
0.00623305
0.00552551
0.00511749
0.00516468
0.00556486
0.00605443
0.00644519
0.0067511
0.00715144
0.00775425
0.00853735
0.00933641
0.0100027
0.0105165
0.0110461
0.0117536
0.0126314
0.0135355
0.0142665
0.0149061
0.0155842
0.0164872
0.00815819
0.00761379
0.00728279
0.00729663
0.00758033
0.00792715
0.00819003
0.00839139
0.00868229
0.00916538
0.00980449
0.0104466
0.0109526
0.0113449
0.0117683
0.012361
0.0130893
0.0138385
0.0144547
0.0149955
0.0155908
0.0163672
0.00986908
0.00943868
0.00915771
0.00913966
0.00933145
0.00957684
0.00976452
0.00991396
0.0101328
0.0104942
0.0109676
0.011451
0.0118482
0.0121729
0.012518
0.0129908
0.0135786
0.0141942
0.0147129
0.0151673
0.0156801
0.0163413
0.011259
0.0109413
0.0107352
0.0107245
0.0108679
0.011048
0.0111744
0.0112612
0.0113949
0.0116476
0.0120059
0.0123914
0.0127122
0.0129662
0.0132339
0.0136071
0.0140836
0.014581
0.0150113
0.0153934
0.0158322
0.0163799
0.0124269
0.0122253
0.0120877
0.0120718
0.0121528
0.0122567
0.0123283
0.0123828
0.0124799
0.0126683
0.0129336
0.0132179
0.0134584
0.0136584
0.0138757
0.0141727
0.0145475
0.014943
0.0153003
0.0156266
0.0159944
0.0164461
0.013401
0.0132675
0.0131695
0.0131487
0.0131929
0.0132573
0.0133052
0.0133434
0.0134086
0.0135339
0.0137148
0.0139166
0.0141005
0.0142648
0.0144451
0.0146803
0.014973
0.0152848
0.0155773
0.0158542
0.0161648
0.0165394
0.0140754
0.0140094
0.0139669
0.0139671
0.0139997
0.0140384
0.0140644
0.0140861
0.0141288
0.014215
0.0143423
0.0144888
0.0146301
0.0147646
0.0149146
0.0151031
0.0153324
0.01558
0.0158243
0.0160657
0.0163317
0.0166391
0.0144736
0.0144427
0.0144233
0.014423
0.0144384
0.0144618
0.0144871
0.0145187
0.0145655
0.0146357
0.0147278
0.0148347
0.0149491
0.0150712
0.0152091
0.0153708
0.0155575
0.0157618
0.0159746
0.0161952
0.0164327
0.016696
0.0147733
0.0147624
0.014757
0.014759
0.0147673
0.0147808
0.0147987
0.0148243
0.0148621
0.0149166
0.014988
0.0150742
0.0151729
0.0152836
0.0154092
0.0155524
0.0157147
0.0158943
0.0160877
0.0162931
0.0165119
0.016749
-0.178789
-0.168541
-0.15664
-0.148381
-0.12889
-0.151606
-0.144019
-0.132378
-0.126249
-0.116041
-0.131944
-0.126635
-0.119124
-0.114128
-0.107759
-0.115285
-0.110651
-0.104689
-0.0987789
-0.094553
-0.09404
-0.0892087
-0.0843733
-0.0825605
-0.0804657
-0.0775167
-0.0743332
-0.0735702
-0.0693157
-0.0675489
-0.0648552
-0.0644965
-0.058983
-0.0573754
-0.0552815
-0.0555408
-0.0494042
-0.0482494
-0.0471814
-0.04799
-0.0414645
-0.0407517
-0.0402953
-0.0411284
-0.0345684
-0.0338903
-0.0336003
-0.0345163
-0.028231
-0.0276598
-0.0276361
-0.0287098
-0.0224992
-0.0219589
-0.0220854
-0.0233174
-0.0174149
-0.017195
-0.017714
-0.0189067
-0.0134448
-0.0133159
-0.0132856
-0.0136944
-0.00902121
-0.00849677
-0.00865426
-0.0100202
-0.00534208
-0.0054088
-0.00602156
-0.00682556
-0.00283245
-0.00271284
-0.00260337
-0.00282875
0.000383751
0.000713622
0.000624873
-8.25839e-05
0.00291858
0.00295466
0.00272338
0.00226776
0.00493495
0.00506632
0.00506383
0.00479171
0.00699687
0.0071475
0.00712526
0.00683711
0.00874384
0.00883076
0.00880545
0.0086013
0.0102341
0.0103138
0.0103279
0.0102006
0.0115773
0.0116268
0.0116233
0.0115134
0.0126478
0.012654
0.0126434
0.0125802
0.0135299
0.0135324
0.0135317
0.0134977
0.014193
0.0141781
0.0141617
0.0141311
0.0145891
0.0145571
0.0145308
0.0145047
0.0148575
0.0148279
0.0148052
0.0147877
)
;

boundaryField
{
    outlet
    {
        type            fixedValue;
        value           nonuniform 0();
    }
    upperWall
    {
        type            symmetryPlane;
    }
    lowerWall
    {
        type            symmetryPlane;
    }
    inlet
    {
        type            zeroGradient;
    }
    cylinder
    {
        type            zeroGradient;
    }
    frontAndBack
    {
        type            empty;
    }
    procBoundary6to2
    {
        type            processor;
        value           nonuniform List<scalar> 
37
(
-1.2179
-1.25317
-1.2834
-1.29846
-1.29405
-1.27431
-1.23399
-1.16213
-1.06221
-0.955858
-0.860365
-0.795861
-0.761244
-0.75341
-0.772682
-0.810205
-0.874301
-0.97165
-1.07374
-1.06794
-0.94105
-0.750502
-0.572764
-0.44626
-0.368593
-0.33062
-0.325861
-0.356072
-0.433611
-0.558084
-0.699583
-0.798322
-0.779463
-0.649163
-0.504504
-0.390477
-0.335659
)
;
    }
    procBoundary6to5
    {
        type            processor;
        value           nonuniform List<scalar> 
63
(
-0.650207
-0.650207
-0.569093
-0.512199
-0.512199
-0.448234
-0.401119
-0.401119
-0.359882
-0.321329
-0.28611
-0.28611
-0.261232
-0.233343
-0.207708
-0.207708
-1.19977
-1.20312
-1.20312
-1.15237
-1.08544
-1.02041
-0.973383
-0.973383
-0.975403
-0.975403
-0.943712
-0.943712
-0.851209
-0.851209
-0.745282
-0.745282
-0.183471
-0.156619
-0.134974
-0.117072
-0.0985113
-0.0985113
-0.0838835
-0.0717948
-0.0612577
-0.0515073
-0.0430422
-0.0358061
-0.0292462
-0.0233724
-0.0181078
-0.0138141
-0.00970704
-0.00577989
-0.00304134
-7.80819e-05
0.00265655
0.004744
0.00679223
0.00862344
0.0101644
0.0115375
0.0126591
0.0135505
0.014221
0.0146321
0.0148961
)
;
    }
    procBoundary6to7
    {
        type            processor;
        value           nonuniform List<scalar> 
42
(
-0.314029
-0.291058
-0.266138
-0.238042
-0.204942
-0.17359
-0.17359
-0.0884529
-0.0668556
-0.0534578
-0.0415077
-0.0415077
-0.00384231
0.0085262
0.0161298
0.0226943
0.0275111
0.0283986
0.0290008
0.0295255
0.0280003
0.0279206
0.026818
0.0257822
0.0247317
0.0235031
0.0224183
0.0213481
0.0203684
0.0195095
0.0187646
0.0181648
0.0177209
0.0174016
0.0171811
0.0170425
0.0169725
0.0169434
0.0169456
0.0169719
0.0169781
0.0170017
)
;
    }
}


// ************************************************************************* //
