/*--------------------------------*- C++ -*----------------------------------*\
| =========                 |                                                 |
| \\      /  F ield         | OpenFOAM: The Open Source CFD Toolbox           |
|  \\    /   O peration     | Version:                                        |
|   \\  /    A nd           | Website:  www.openfoam.com                      |
|    \\/     M anipulation  |                                                 |
\*---------------------------------------------------------------------------*/
FoamFile
{
    version     2.0;
    format      ascii;
    class       volScalarField;
    location    "200";
    object      p;
}
// * * * * * * * * * * * * * * * * * * * * * * * * * * * * * * * * * * * * * //

dimensions      [0 2 -2 0 0 0 0];


internalField   nonuniform List<scalar> 
1164
(
-0.599854
-0.67309
-0.709247
-0.696088
-0.624147
-0.509096
-0.715959
-0.80669
-0.858647
-0.859143
-0.804953
-0.697026
-0.550252
-0.399585
-0.267309
-0.160238
-0.722401
-0.812585
-0.862473
-0.874804
-0.832505
-0.762436
-0.627679
-0.48545
-0.347822
-0.209655
-0.597833
-0.67222
-0.719056
-0.735019
-0.709039
-0.654024
-0.559221
-0.46011
-0.366606
-0.242065
-0.430357
-0.472138
-0.50094
-0.511283
-0.496126
-0.462522
-0.403065
-0.344094
-0.278455
-0.208686
-0.331893
-0.34109
-0.339401
-0.32899
-0.310607
-0.288006
-0.259334
-0.230688
-0.195641
-0.160082
-0.277492
-0.260082
-0.240657
-0.218185
-0.195961
-0.172364
-0.14927
-0.130033
-0.11416
-0.100252
-0.313837
-0.273279
-0.237854
-0.202029
-0.168706
-0.138177
-0.111229
-0.089723
-0.0738892
-0.0609115
-0.362628
-0.295739
-0.239702
-0.192629
-0.156592
-0.128989
-0.102296
-0.0804564
-0.0637501
-0.0498623
-0.371074
-0.287035
-0.217541
-0.154443
-0.103402
-0.0693917
-0.0468871
-0.0344017
-0.0251212
-0.0149182
-0.323183
-0.26965
-0.220471
-0.175643
-0.135392
-0.0978141
-0.0666528
-0.042707
-0.0265141
-0.0177635
-0.291011
-0.251081
-0.209339
-0.166869
-0.126523
-0.0885338
-0.0576198
-0.0314849
-0.0114776
-0.00576797
-0.251047
-0.239236
-0.22696
-0.216729
-0.199661
-0.177379
-0.146595
-0.112681
-0.077624
-0.0427053
-0.244321
-0.252988
-0.261944
-0.266838
-0.268757
-0.265201
-0.256727
-0.244495
-0.224399
-0.199299
-0.264481
-0.28225
-0.299383
-0.314469
-0.32792
-0.334586
-0.33733
-0.329772
-0.319328
-0.300229
-0.2691
-0.299022
-0.326345
-0.349793
-0.367636
-0.376038
-0.376527
-0.35471
-0.372537
-0.339339
-0.264015
-0.281972
-0.298401
-0.311548
-0.321826
-0.326931
-0.32641
-0.316337
-0.305678
-0.284377
-0.250528
-0.258836
-0.264633
-0.267387
-0.267276
-0.264474
-0.257499
-0.246147
-0.233893
-0.216804
-0.221311
-0.221962
-0.221057
-0.217967
-0.212818
-0.206221
-0.199186
-0.191175
-0.178692
-0.160047
-0.175664
-0.169866
-0.163907
-0.157667
-0.151072
-0.144373
-0.138052
-0.133424
-0.127445
-0.118485
-0.191851
-0.185304
-0.177887
-0.170036
-0.161047
-0.151197
-0.140736
-0.130089
-0.120737
-0.111468
-0.21993
-0.219065
-0.216228
-0.211297
-0.204021
-0.194816
-0.183787
-0.171604
-0.158773
-0.146362
-0.210737
-0.209454
-0.205312
-0.198698
-0.189384
-0.178821
-0.166959
-0.154581
-0.142398
-0.129807
-0.158339
-0.151974
-0.145061
-0.13769
-0.130207
-0.123312
-0.116997
-0.110848
-0.105568
-0.0997974
-0.158925
-0.155234
-0.151153
-0.146777
-0.142343
-0.138106
-0.134123
-0.130262
-0.126457
-0.121028
-0.175884
-0.168589
-0.160394
-0.151532
-0.142421
-0.133387
-0.124594
-0.115713
-0.106933
-0.0978685
-0.156185
-0.155241
-0.154015
-0.152229
-0.149783
-0.146691
-0.142835
-0.137926
-0.132602
-0.127874
-0.118317
-0.132338
-0.146974
-0.162043
-0.177014
-0.191306
-0.203862
-0.213978
-0.220654
-0.223349
-0.0720349
-0.0802042
-0.0892491
-0.0991819
-0.109675
-0.120056
-0.129587
-0.137586
-0.143577
-0.146825
-0.0187039
-0.0181826
-0.0176608
-0.0171256
-0.0165589
-0.0158316
-0.0150393
-0.0141436
-0.0133
-0.0125981
-0.0390453
-0.0173715
-0.00233848
0.0107014
0.0188801
0.0243608
0.0279179
0.0310105
0.0335066
0.0359555
0.0379283
0.0396742
0.0412838
0.0427016
0.0439639
0.0450734
0.046008
0.0468186
0.0475124
0.0481175
0.0486239
0.0490381
0.0493692
0.0496085
0.0497817
0.0499057
0.0499529
0.0499952
-0.139931
-0.0950124
-0.0492266
-0.0186611
-0.0030061
0.00888245
0.0160563
0.0224466
0.0262201
0.0297461
0.0322775
0.0348342
0.0368416
0.038812
0.0404867
0.0419771
0.0433114
0.0444713
0.0454753
0.0463408
0.0470641
0.0476675
0.0481572
0.0485566
0.048871
0.0491007
0.0492665
0.0493851
0.0494312
0.0494703
-0.178623
-0.120479
-0.0703157
-0.0378104
-0.0169116
-0.00326577
0.00944573
0.0157855
0.0224396
0.0265594
0.0306463
0.0336295
0.0361291
0.0382256
0.0400468
0.0416903
0.0431012
0.044272
0.0452667
0.0460973
0.0467946
0.0473742
0.0478411
0.0482029
0.0484759
0.0486626
0.0487931
0.0488802
0.0489057
0.0489325
-0.163241
-0.112371
-0.0881655
-0.0363262
-0.0352564
-0.0091638
0.000568014
0.0116487
0.0183728
0.0240808
0.0289434
0.0324861
0.0358418
0.0381196
0.0401115
0.0417712
0.0431325
0.0443062
0.0452821
0.0460653
0.0466937
0.0471909
0.0475782
0.0478751
0.0480896
0.0482293
0.0483186
0.0483679
0.0483693
0.0483814
-0.115303
-0.0796772
-0.0562246
-0.0316965
-0.0201448
3.48175e-05
-0.0012397
0.019102
0.0159443
0.0250523
0.0286583
0.03246
0.0355714
0.0379065
0.0399821
0.0416752
0.043028
0.0441421
0.0450301
0.045765
0.0463618
0.046829
0.0471901
0.0474473
0.0476275
0.0477371
0.0477933
0.0478194
0.0478063
0.0478083
-0.076971
-0.0563804
-0.0393046
-0.0215338
-0.0102071
0.00335426
0.00936063
0.0183287
0.0209801
0.0269836
0.0298401
0.033634
0.0363049
0.0384992
0.0403189
0.0417912
0.0430566
0.0440988
0.0449164
0.0455609
0.0460422
0.0464291
0.0467204
0.046941
0.0470961
0.0471825
0.0472224
0.047235
0.0472138
0.0472093
-0.0478435
-0.0364495
-0.0258663
-0.014158
-0.00601458
0.00322819
0.0111675
0.0179319
0.0228944
0.0283833
0.0309765
0.0346033
0.0371101
0.0392843
0.0410881
0.0424031
0.0434585
0.0442455
0.0449181
0.0454391
0.045865
0.0461792
0.0464034
0.0465499
0.0466329
0.0466661
0.0466621
0.046641
0.0465997
0.0465818
-0.0345427
-0.025572
-0.0184967
-0.00999992
-0.00212751
0.00495141
0.0125403
0.0195283
0.0256173
0.0311919
0.0348458
0.0381967
0.0399448
0.0414414
0.0425464
0.0435822
0.0443619
0.044981
0.0453883
0.0456845
0.0459055
0.0460762
0.0461894
0.0462431
0.0462472
0.046203
0.0461318
0.0460546
0.0459733
0.045933
-0.00433318
0.0043512
0.00983752
0.0143897
0.0187078
0.0219695
0.0256067
0.028214
0.0328528
0.0370208
0.0405443
0.042766
0.044059
0.0446963
0.04516
0.04534
0.0455432
0.0456969
0.045859
0.0459787
0.0460558
0.0460675
0.046032
0.0459584
0.0458498
0.0457202
0.0455767
0.04544
0.04532
0.0452566
-0.00880546
0.00139868
0.00981719
0.0155844
0.023548
0.0295803
0.0352188
0.0393261
0.0461056
0.0495815
0.0500564
0.0494652
0.0482955
0.047366
0.0468679
0.0466181
0.0464125
0.0462154
0.0460469
0.0459341
0.0458419
0.0457569
0.0456551
0.0455103
0.0453429
0.0451503
0.0449501
0.0447707
0.0446205
0.0445393
0.0190356
0.0261958
0.0294725
0.0222892
0.0135607
0.0151075
0.0316153
0.0473479
0.0561241
0.0586544
0.0582959
0.0565966
0.0538139
0.0513947
0.0494059
0.0480711
0.0472464
0.0467425
0.0464156
0.0461204
0.0458394
0.0455743
0.0453094
0.045053
0.0447907
0.0445256
0.0442724
0.0440487
0.0438695
0.0437709
-0.0110365
0.00791032
0.0158327
0.0107671
0.0048699
0.0205826
0.0544414
0.0720975
0.0704151
0.0649345
0.0607901
0.0567938
0.0542774
0.0520606
0.050359
0.0489278
0.0478393
0.0470249
0.0464713
0.0460616
0.0457351
0.0454102
0.0450753
0.0447032
0.0443247
0.0439531
0.0436033
0.0433059
0.0430747
0.0429472
-0.160561
-0.12917
-0.111085
-0.0875894
-0.0495642
0.00446548
0.0511466
0.0734668
0.0744212
0.0706041
0.0639564
0.0585665
0.0543853
0.051786
0.0499737
0.0490291
0.0482537
0.0476472
0.0470222
0.0464364
0.0458665
0.0453486
0.0448311
0.0443334
0.0438416
0.0433564
0.0429113
0.0425301
0.0422378
0.0420777
-0.272614
-0.246937
-0.215073
-0.170301
-0.113716
-0.0554364
-0.00842508
0.0217109
0.0373883
0.046469
0.0500964
0.0517058
0.0511368
0.0501795
0.0490532
0.0482055
0.0475792
0.0471278
0.0467223
0.0462667
0.0457535
0.0451531
0.0445202
0.0438783
0.0432441
0.042652
0.0421136
0.041659
0.0413187
0.0411309
-0.324793
-0.294185
-0.253658
-0.206245
-0.153508
-0.102214
-0.0562107
-0.0242092
0.001547
0.0148308
0.0284261
0.0351113
0.0410494
0.0439915
0.0459127
0.0468193
0.0470683
0.0469008
0.0464275
0.0458992
0.0452764
0.0446436
0.043957
0.0432349
0.042523
0.0418349
0.0412117
0.0406922
0.0403026
0.0400887
-0.2585
-0.230039
-0.19702
-0.161583
-0.126105
-0.0896971
-0.0594459
-0.0332168
-0.00941256
0.0069762
0.0215917
0.0301136
0.037385
0.0410749
0.0442043
0.0458438
0.0469074
0.047112
0.0468843
0.046271
0.0454733
0.0445739
0.0436307
0.0427121
0.0418184
0.0409864
0.040251
0.0396392
0.0391863
0.0389384
-0.190286
-0.163356
-0.135737
-0.107228
-0.0803224
-0.0552071
-0.0338924
-0.0120778
0.00389944
0.0226234
0.0282586
0.0390002
0.0419551
0.0448626
0.0460947
0.0468452
0.0470129
0.0469247
0.0465718
0.0460198
0.0452365
0.0442834
0.0432475
0.0421555
0.0410898
0.0401014
0.0392202
0.0384991
0.0379672
0.037678
-0.140829
-0.122789
-0.102583
-0.0820909
-0.0591367
-0.0364068
-0.0136493
0.0095374
0.0243156
0.0397665
0.0469039
0.0538471
0.0540991
0.0547026
0.0536633
0.0523727
0.0509585
0.0495123
0.0480849
0.0466674
0.0452807
0.0439475
0.0426107
0.0413255
0.0401104
0.0389827
0.0379993
0.0371957
0.0366042
0.036285
-0.109674
-0.100437
-0.0897201
-0.078178
-0.0636853
-0.0433769
-0.0210348
0.00311455
0.0241062
0.0386964
0.0505386
0.0540258
0.0554685
0.0551013
0.0542
0.0531343
0.0519465
0.0504288
0.0488419
0.0470992
0.0453849
0.0436447
0.0419784
0.0404196
0.0389673
0.0376811
0.0365745
0.035683
0.0350379
0.0346893
-0.103906
-0.0971453
-0.0892502
-0.0799792
-0.0688782
-0.0532392
-0.0223912
-0.00257316
0.0227891
0.0397907
0.0520962
0.0561414
0.0558659
0.0556802
0.0540973
0.0531975
0.051648
0.0501844
0.0484414
0.04666
0.0447806
0.042912
0.0410918
0.0393272
0.0377096
0.0362575
0.0350086
0.0340132
0.0332922
0.0329056
-0.129621
-0.112546
-0.0952865
-0.076693
-0.0564706
-0.0341817
-0.00918884
0.0139374
0.0353267
0.0506656
0.0584202
0.0608231
0.0609406
0.0597887
0.0579813
0.056066
0.0538043
0.0514889
0.0491043
0.0466916
0.0443383
0.0420766
0.0399126
0.0379315
0.0361261
0.0345275
0.0331798
0.0321041
0.0313321
0.0309193
-0.118765
-0.108936
-0.0963011
-0.0806241
-0.0608746
-0.0366045
-0.00975699
0.015054
0.0362991
0.0510114
0.0591079
0.060157
0.0597586
0.0578164
0.0558339
0.0538878
0.0520535
0.0500662
0.0478172
0.0454779
0.0430492
0.0405758
0.0382546
0.0360825
0.0341147
0.0324169
0.0309845
0.0298602
0.0290606
0.0286338
-0.0922449
-0.0847956
-0.0774344
-0.0691481
-0.0592583
-0.0467865
-0.0316472
-0.0138762
0.0049401
0.02328
0.0396164
0.0462686
0.0533104
0.0546907
0.0555092
0.0544618
0.0526785
0.0501081
0.0473345
0.0445115
0.0415683
0.0388327
0.0362558
0.0338726
0.0317951
0.0299874
0.0284872
0.0273213
0.0264929
0.0260552
-0.116082
-0.110202
-0.101615
-0.0900717
-0.0757388
-0.0585976
-0.0389917
-0.0181885
0.00244843
0.0236003
0.0398916
0.0503771
0.0548968
0.0573606
0.0571768
0.0557821
0.0532859
0.0500464
0.0467076
0.0430777
0.0396803
0.0365628
0.0336599
0.0311523
0.0289621
0.0271019
0.0255919
0.0244184
0.0235974
0.0231634
-0.0880301
-0.0769986
-0.0647492
-0.050448
-0.0348541
-0.0184397
-0.00130034
0.0146598
0.0296428
0.0439653
0.0523155
0.0590465
0.0600063
0.0608529
0.0590755
0.0572763
0.0525151
0.048625
0.0442009
0.0401059
0.0364465
0.0330481
0.0301267
0.0275982
0.0254195
0.0236301
0.0221736
0.0210616
0.0202889
0.0198812
-0.123037
-0.115059
-0.103821
-0.0890591
-0.0693706
-0.0456237
-0.0185148
0.0117434
0.0443669
0.0811343
0.104368
0.111471
0.106164
0.0896966
0.080107
0.0660097
0.0563391
0.0486788
0.0421844
0.0370591
0.0326139
0.0289301
0.025911
0.0233597
0.0212916
0.0196091
0.0182679
0.0172631
0.0165655
0.0162026
-0.222267
-0.217601
-0.208335
-0.19399
-0.173363
-0.145524
-0.111946
-0.0713019
-0.0310492
0.00827927
0.0391592
0.0504152
0.0590665
0.0595293
0.0582574
0.0530457
0.0470681
0.0406941
0.0350236
0.0302378
0.0261766
0.0229432
0.0202544
0.0180713
0.0163199
0.0149023
0.0137994
0.0129724
0.0124053
0.0121116
-0.148542
-0.149486
-0.147406
-0.140708
-0.129171
-0.112944
-0.0922759
-0.0667725
-0.0377432
-0.010323
0.00880328
0.0135634
0.0159271
0.0188388
0.0218896
0.0239167
0.0241904
0.0228902
0.0208463
0.0184978
0.0163328
0.0144354
0.0127939
0.0114434
0.010314
0.00939908
0.00867805
0.00813417
0.00776286
0.00756969
-0.0122167
-0.0118407
-0.0112871
-0.0108816
-0.0110845
-0.0122258
-0.0141151
-0.0158499
-0.0165867
-0.0145152
-0.0110464
-0.00771789
-0.00311753
0.000574531
0.00322314
0.00532273
0.00640282
0.00688357
0.00669797
0.00621061
0.00562084
0.00499814
0.00443956
0.00396273
0.00355993
0.00323715
0.00297936
0.00278762
0.00265555
0.00258758
)
;

boundaryField
{
    outlet
    {
        type            fixedValue;
        value           uniform 0;
    }
    upperWall
    {
        type            symmetryPlane;
    }
    lowerWall
    {
        type            symmetryPlane;
    }
    inlet
    {
        type            zeroGradient;
    }
    cylinder
    {
        type            zeroGradient;
    }
    frontAndBack
    {
        type            empty;
    }
    procBoundary3to2
    {
        type            processor;
        value           nonuniform List<scalar> 
43
(
-0.451097
-0.494116
-0.506824
-0.476035
-0.408919
-0.315909
-0.378878
-0.378878
-0.256306
-0.152691
-0.0833846
-0.0883085
-0.00809856
-0.00385385
0.00487368
0.0133208
0.0208381
0.02629
0.0305075
0.0338993
0.0363857
0.0383327
0.0400288
0.041363
0.042646
0.0438304
0.0448817
0.0458295
0.046695
0.0474676
0.0481412
0.0487204
0.0492044
0.0495986
0.0499154
0.050141
0.0503062
0.0504232
0.0504618
0.0505028
-0.0883085
-0.0585349
-0.0585349
)
;
    }
    procBoundary3to7
    {
        type            processor;
        value           nonuniform List<scalar> 
30
(
-0.500918
-0.599829
-0.605759
-0.507357
-0.380369
-0.317117
-0.296033
-0.353484
-0.431102
-0.453672
-0.377009
-0.32763
-0.263266
-0.235149
-0.245931
-0.237182
-0.243126
-0.239533
-0.219016
-0.180688
-0.19822
-0.219471
-0.210222
-0.164066
-0.162479
-0.182411
-0.157143
-0.104918
-0.0647415
-0.019167
)
;
    }
}


// ************************************************************************* //
