/*--------------------------------*- C++ -*----------------------------------*\
| =========                 |                                                 |
| \\      /  F ield         | OpenFOAM: The Open Source CFD Toolbox           |
|  \\    /   O peration     | Version:                                        |
|   \\  /    A nd           | Website:  www.openfoam.com                      |
|    \\/     M anipulation  |                                                 |
\*---------------------------------------------------------------------------*/
FoamFile
{
    version     2.0;
    format      ascii;
    class       surfaceScalarField;
    location    "53";
    object      phi;
}
// * * * * * * * * * * * * * * * * * * * * * * * * * * * * * * * * * * * * * //

dimensions      [0 3 -1 0 0 0 0];
oriented        oriented;


internalField   nonuniform List<scalar> 
2238
(
0.0267275
0.0308646
0.026826
0.0308228
0.0276203
-0.0317764
0.0309822
0.0286632
-0.0324646
0.0314217
0.0299117
-0.0330742
0.0318257
0.0309395
-0.0334179
0.0323901
0.0312283
-0.0331291
0.0328403
0.0314179
-0.0329555
0.0327658
0.0315752
-0.0329505
0.0327932
-0.0324859
0.0323818
0.0316792
0.0269754
0.0273459
0.0273056
-0.0330339
0.0268851
-0.0329974
0.0270977
-0.0333417
0.0280907
-0.0339486
0.0293673
-0.034227
-0.0347446
0.031626
0.0239976
0.025113
0.0265897
0.0277623
-0.0351212
0.0290805
-0.0355452
-0.0361269
0.0304628
0.024883
0.0258665
0.0266153
-0.00678318
-0.00881856
0.00412817
-0.010873
0.00215613
-0.012733
-0.000246664
-0.0147023
-0.00299934
-0.0167611
-0.00628066
-0.0189292
-0.0100046
-0.0211584
-0.014162
-0.0232576
-0.0186883
-0.0248102
-0.023409
-0.0253923
-0.0280413
-0.0250263
-0.0317631
-0.0234953
-0.0342519
-0.0202594
-0.0361091
-0.0152562
-0.0362667
-0.00827965
-0.0359956
-0.0332032
-0.000946799
-0.00493804
0.00523751
-0.00599408
0.00321217
-0.00692092
0.000680174
-0.00784359
-0.00207667
-0.00888026
-0.00524399
-0.0101023
-0.00878254
-0.0115379
-0.0127264
-0.0130457
-0.0171805
-0.0145699
-0.0218848
-0.0157908
-0.0268203
-0.0163753
-0.0311787
-0.0165665
-0.0340607
-0.0162114
-0.0364642
-0.0155896
-0.0368885
-0.0147909
-0.0367942
-0.0348046
-0.0131895
-1.67658e-05
0.00531429
-2.54366e-05
0.00322084
-6.50378e-05
0.000719775
1.08591e-05
-0.00215257
7.30877e-05
-0.00530622
4.32892e-05
-0.00875274
-9.55067e-05
-0.0125876
-0.000306101
-0.0169699
-0.000568721
-0.0216221
-0.000486106
-0.0269029
-0.00037416
-0.0312906
-0.000949295
-0.0334856
-0.00234801
-0.0350655
-0.00485797
-0.0343785
-0.00945033
-0.0322018
-0.0309284
-0.0133266
0.00506734
0.00439416
0.00590759
0.0023806
0.00654182
8.55415e-05
0.00722547
-0.00283622
0.00785745
-0.0059382
0.00835549
-0.00925078
0.0088108
-0.0130429
0.00943703
-0.0175962
0.0102811
-0.0224662
0.0113408
-0.0279626
0.0122795
-0.0322294
0.0131968
-0.0344029
0.0132714
-0.0351401
0.012114
-0.0332212
0.00988572
-0.0299735
-0.02684
0.00579733
0.00791227
0.0092501
0.00104277
0.0106223
-0.00128668
0.0117714
-0.00398526
0.0128937
-0.00706053
0.0139452
-0.0103023
0.0152295
-0.0143272
0.0169169
-0.0192836
0.0190513
-0.0246007
0.0211217
-0.0300329
0.0223813
-0.033489
0.0233826
-0.0354042
0.0237836
-0.035541
0.0242327
-0.0336703
0.0251762
-0.030917
-0.0284483
0.0267845
0.00983561
0.0112286
-0.00267969
0.0125457
-0.00530233
0.0139951
-0.00850995
0.0159062
-0.0122133
0.0187917
-0.0172127
0.0222544
-0.0227463
0.0260313
-0.0283776
0.0289045
-0.0329061
0.0305592
-0.0351437
0.0309689
-0.0358139
0.0299032
-0.0344753
0.0287295
-0.0324966
0.0284567
-0.0306442
-0.0282439
0.0282523
0.0097711
0.0115541
-0.00708534
0.0141764
-0.0111323
0.018189
-0.0162259
0.0230779
-0.0221016
0.0278131
-0.0274815
0.031435
-0.0319995
0.0328647
-0.0343358
0.0327385
-0.0350174
0.0311648
-0.0342402
0.0294184
-0.0327289
0.0281296
-0.0312079
0.0273388
-0.0298534
-0.0281959
0.0272909
0.0120844
0.017413
-0.0164608
0.0236714
-0.0224843
0.0291926
-0.0276228
0.0332195
-0.0315084
0.0347471
-0.0335271
0.0341185
-0.0337072
0.0321186
-0.0330175
0.0296237
-0.0317453
0.0277439
-0.0308491
0.026978
-0.030442
0.0271648
-0.0300402
-0.0298289
0.0287978
0.023916
0.0293682
-0.0279365
0.0325984
-0.030853
0.0332579
-0.032168
0.031743
-0.0320122
0.029707
-0.0316712
0.0281034
-0.031414
0.027772
-0.0314138
0.0286221
-0.0316992
0.0297283
-0.0315482
0.0313901
-0.031702
-0.0311389
0.0327001
0.0300582
0.0300698
0.0287246
0.0276946
0.0274451
0.0278568
0.028833
0.0299741
0.0311917
0.032283
0.0335259
0.00651027
-0.0273429
0.0129257
-0.00671027
0.0223956
0.010584
0.0299027
0.0292133
0.0353071
0.0394716
0.0401109
0.0402598
0.0447123
0.0398476
0.0480391
0.0420681
0.0515985
0.038343
0.0556651
0.0344776
0.0601182
0.0392869
0.0647973
0.0484842
0.0680759
0.059449
0.0711027
0.0525396
0.0732864
0.0193142
0.0733057
-0.0189805
0.0730497
-0.0528609
0.0706768
-0.0747455
0.0662013
-0.080409
-0.0757841
-0.00936664
-0.0311658
-0.000509633
-0.0155673
0.0113875
-0.00131313
0.0223487
0.0182521
0.0314563
0.0303639
0.0381266
0.0335895
0.043293
0.0346812
0.0470545
0.0383066
0.051065
0.0343325
0.0558651
0.0296775
0.061835
0.0333169
0.0685334
0.0417858
0.0741754
0.053807
0.0779214
0.0487935
0.0788611
0.0183745
0.077874
-0.0179934
0.0746533
-0.0496402
0.0694817
-0.069574
0.0642132
-0.0751405
-0.0743005
-0.0130803
-0.0314121
-0.00467335
-0.0239743
0.00571897
-0.0117054
0.0177395
0.00623157
0.0273219
0.0207815
0.0341921
0.0267194
0.0393749
0.0294984
0.04458
0.0331015
0.050354
0.0285584
0.0554498
0.0245818
0.0611942
0.0275725
0.0684258
0.0345543
0.0755459
0.046687
0.0801421
0.0441973
0.080647
0.0178696
0.0790515
-0.0163978
0.0747706
-0.0453593
0.0682965
-0.0630998
0.0635389
-0.0703829
-0.0724486
-0.000826299
-0.0247884
0.000712973
-0.0255135
0.00585421
-0.0168467
0.0156544
-0.00356859
0.0240045
0.0124314
0.0313486
0.0193753
0.0374994
0.0233475
0.0437032
0.0268978
0.0492892
0.0229724
0.0537782
0.0200928
0.0591943
0.0221563
0.0663679
0.0273807
0.0738329
0.039222
0.0781087
0.0399215
0.0790267
0.0169516
0.0779706
-0.0153417
0.0727854
-0.0401741
0.0659739
-0.0562883
0.0613707
-0.0657798
-0.0690811
0.0219983
-0.0200022
0.0126172
-0.0161325
0.00978064
-0.0140101
0.014211
-0.00799893
0.0221314
0.00451094
0.0297082
0.0117986
0.0354637
0.0175919
0.0404556
0.021906
0.0447065
0.0187214
0.0498656
0.0149337
0.0560941
0.0159277
0.0618249
0.0216499
0.0675505
0.0334964
0.0720087
0.0354633
0.0745816
0.0143787
0.0749671
-0.0157272
0.0702633
-0.0354704
0.0635749
-0.0495999
0.0591542
-0.061359
-0.0642622
0.0290498
-0.0207997
0.0269203
-0.014003
0.021957
-0.00904685
0.0193001
-0.00534202
0.0221429
0.00166812
0.0260753
0.00786619
0.0296884
0.0139789
0.0332603
0.018334
0.0367374
0.0152443
0.0418858
0.00978538
0.0468408
0.0109727
0.0505482
0.0179425
0.0566174
0.0274272
0.0646539
0.0274268
0.0705089
0.00852375
0.0713249
-0.0165433
0.0666684
-0.0308138
0.0605247
-0.0434562
0.0552113
-0.0560456
-0.058451
0.024729
-0.0182379
0.0269632
-0.0162371
0.0297595
-0.0118432
0.0314001
-0.00698255
0.0341581
-0.00108988
0.0350953
0.00692893
0.0354858
0.0135884
0.035856
0.0179638
0.035901
0.0151993
0.0368451
0.00884124
0.0384612
0.00935665
0.0416615
0.0147421
0.0507191
0.0183697
0.0619468
0.0161991
0.0679056
0.00256495
0.0674213
-0.016059
0.0628207
-0.0262132
0.0573039
-0.0379394
0.052071
-0.0508127
0.0457304
-0.0521104
-0.0605539
0.0261277
-0.0155678
0.0247801
-0.0148896
0.0259104
-0.0129734
0.0292225
-0.0102947
0.0340065
-0.00587378
0.0395907
0.00134467
0.0442147
0.00896447
0.0474613
0.0147172
0.0482427
0.0144179
0.0471537
0.00993019
0.0461735
0.0103369
0.0481885
0.0127272
0.0557441
0.010814
0.0637714
0.00817185
0.0660688
0.000267543
0.0632072
-0.0131975
0.0582294
-0.0212354
0.0526812
-0.0323911
0.0476719
-0.0458034
0.0425353
-0.0469739
-0.0540851
0.0306485
-0.0135161
0.0287866
-0.0130277
0.0271416
-0.0113284
0.0265873
-0.00974041
0.028878
-0.00816447
0.033966
-0.00374334
0.0405396
0.00239091
0.047569
0.00768781
0.0513523
0.0106345
0.0525732
0.00870937
0.0540413
0.00886874
0.0560061
0.0107624
0.0593373
0.00748283
0.0617779
0.00573122
0.0607351
0.00131039
0.0576015
-0.0100639
0.0535399
-0.0171738
0.0486957
-0.0275469
0.0444822
-0.0415899
0.040587
-0.0430787
-0.0481348
0.0325621
-0.0125524
0.0312354
-0.011701
0.0304647
-0.0105578
0.0294559
-0.00873156
0.0288901
-0.00759874
0.0300121
-0.0048653
0.0334014
-0.000998437
0.0391314
0.00195781
0.0435394
0.00622658
0.0462551
0.00599368
0.0492094
0.00591448
0.0512406
0.00873111
0.0530504
0.00567299
0.0548555
0.00392615
0.0550785
0.00108744
0.0530914
-0.00807688
0.0495607
-0.0136431
0.0442583
-0.0222445
0.0396724
-0.037004
0.0369575
-0.0403639
-0.0427838
0.0476854
-0.0102928
-0.049945
0.046036
-0.0100516
0.04493
-0.00945179
0.0442736
-0.00807517
0.0436425
-0.00696758
0.0431183
-0.00434118
0.0431792
-0.0010593
0.0445435
0.00059353
0.046292
0.00447805
0.0477637
0.00452204
0.049461
0.00421715
0.0518624
0.00632968
0.0540709
0.00346451
0.0556886
0.00230841
0.0579534
-0.00117733
0.058572
-0.00869545
0.0577812
-0.0128524
0.0564288
-0.0208921
0.0536297
-0.0342049
0.0515738
-0.0383079
0.0499321
-0.0411422
-0.0590028
0.0518662
-0.00848485
-0.0536741
0.0503851
-0.00857056
0.0488175
-0.00788416
0.0474891
-0.00674675
0.0465428
-0.00602135
0.0462611
-0.0040594
0.0469343
-0.00173257
0.0479515
-0.000423645
0.0496789
0.00275067
0.0513737
0.00282727
0.0526787
0.00291209
0.0548675
0.00414095
0.0567845
0.00154742
0.0579313
0.00116166
0.0595531
-0.0027991
0.0599299
-0.00907228
0.0596024
-0.0125249
0.0578421
-0.0191317
0.0537705
-0.0301334
0.0513918
-0.0359292
0.0500932
-0.0398436
-0.053877
0.0560939
-0.00691731
-0.0576614
0.0545421
-0.0070188
0.0532364
-0.00657841
0.0523456
-0.005856
0.0513938
-0.00506955
0.0510785
-0.00374405
0.0513305
-0.00198458
0.0518735
-0.000966699
0.0534826
0.00114162
0.0547112
0.00159867
0.0558991
0.00172419
0.0576509
0.00238912
0.059246
-4.76623e-05
0.0608449
-0.000437271
0.0611491
-0.00310329
0.0614868
-0.00940993
0.0621165
-0.0131546
0.0599823
-0.0169976
0.057245
-0.0273961
0.0560632
-0.0347473
0.0537796
-0.0375599
-0.0479728
0.0604001
-0.00552285
-0.0617945
0.0589027
-0.00552138
0.0578669
-0.0055426
0.056817
-0.00480615
0.0561691
-0.00442166
0.0558633
-0.00343823
0.0558189
-0.00194021
0.0566382
-0.00178599
0.05735
0.000429797
0.05856
0.000388689
0.0602411
4.31279e-05
0.0604613
0.00216891
0.0623318
-0.0019182
0.0641907
-0.00229609
0.0632471
-0.00215971
0.0642904
-0.0104533
0.064686
-0.0135502
0.0613304
-0.0136419
0.0585621
-0.0246278
0.0564589
-0.0326442
0.0506523
-0.0317534
-0.0401877
0.0649194
-0.0044269
-0.0660153
0.0637006
-0.00430264
0.0629155
-0.00475745
0.0619824
-0.00387305
0.0614088
-0.00384808
0.0612627
-0.00329218
0.0608702
-0.00154764
0.0616288
-0.00254466
0.0622645
-0.00020584
0.0626372
1.59984e-05
0.064608
-0.00192768
0.0650742
0.00170272
0.0654569
-0.00230095
0.0673088
-0.00414804
0.0675166
-0.00236746
0.0665749
-0.00951162
0.0661819
-0.0131572
0.0660641
-0.0135241
0.0629295
-0.0214932
0.0581916
-0.0279063
0.0535308
-0.0270926
-0.0328315
0.0697357
-0.00354404
-0.0706186
0.0688481
-0.00341505
0.0678898
-0.00379915
0.067544
-0.00352726
0.066706
-0.00301007
0.0666503
-0.00323646
0.0667483
-0.0016456
0.0662697
-0.0020661
0.0676151
-0.00155129
0.0677314
-0.000100245
0.0680935
-0.00228975
0.0702392
-0.000442968
0.0697986
-0.00186042
0.0699598
-0.00430919
0.0719755
-0.00438317
0.0706684
-0.00820458
0.0672768
-0.00976559
0.067149
-0.0133962
0.0641997
-0.0185439
0.0540197
-0.0177263
0.0461371
-0.0192099
-0.028226
0.0745412
-0.00263722
-0.075448
0.0739241
-0.00279797
0.0728856
-0.00276069
0.0724944
-0.00313603
0.0719178
-0.00243349
0.0715657
-0.00288438
0.0718929
-0.00197275
0.0714828
-0.00165599
0.0721399
-0.00220846
0.0725285
-0.000488816
0.0726787
-0.00243998
0.0737015
-0.00146568
0.0737328
-0.00189173
0.0744646
-0.00504107
0.0730058
-0.00292434
0.0725371
-0.00773588
0.0732484
-0.0104769
0.0687112
-0.00885899
0.0662344
-0.0160671
0.0681988
-0.0196906
0.0687243
-0.0197355
-0.0216952
0.0792892
-0.00194172
-0.0799847
0.0786906
-0.00219943
0.0780389
-0.00210891
0.077357
-0.00245419
0.0771094
-0.00218587
0.0764939
-0.00226889
0.0767212
-0.00220008
0.0764608
-0.00139558
0.0766358
-0.00238347
0.0771363
-0.000989249
0.0767815
-0.00208521
0.0779023
-0.00258646
0.0770451
-0.00103453
0.0772787
-0.00527469
0.0779451
-0.00359079
0.0752417
-0.00503248
0.0751887
-0.0104239
0.0735828
-0.00725316
0.0682511
-0.0107354
0.0651277
-0.0165672
0.0593392
-0.0139471
-0.0131572
0.0843178
-0.00150692
-0.0847526
0.0838156
-0.00169729
0.0834644
-0.00175773
0.0828305
-0.00182027
0.0826233
-0.00197865
0.0820357
-0.0016813
0.0819661
-0.00213044
0.0819473
-0.0013768
0.0814858
-0.00192192
0.082227
-0.00173048
0.0814926
-0.00135078
0.0817333
-0.00282718
0.0824713
-0.00177256
0.0805606
-0.00336398
0.0816085
-0.00463871
0.0802193
-0.00364331
0.0773902
-0.00759474
0.0779592
-0.00782212
0.0745762
-0.00735239
0.0703999
-0.0123909
0.0675268
-0.011074
-0.00616232
0.090013
-0.00118309
-0.0903368
0.0895948
-0.00127919
0.0892273
-0.00139014
0.0887994
-0.00139237
0.0883651
-0.00154437
0.0881408
-0.00145706
0.0876516
-0.00164123
0.087689
-0.0014142
0.0872858
-0.0015187
0.0871789
-0.00162356
0.0873149
-0.00148679
0.0866153
-0.00212762
0.0869376
-0.00209483
0.0860491
-0.00247549
0.0852338
-0.00382336
0.085183
-0.00359253
0.0824514
-0.00486318
0.081396
-0.00676666
0.0792604
-0.0052168
0.0733299
-0.00646047
0.0719697
-0.00971372
-0.00413577
0.0961054
-0.000840019
-0.0964485
0.0957125
-0.000886337
0.0953283
-0.00100589
0.0949774
-0.00104146
0.0945708
-0.00113777
0.094261
-0.00114731
0.0938337
-0.00121394
0.0936273
-0.00120781
0.0933235
-0.00121489
0.0930439
-0.00134388
0.092875
-0.00131794
0.092365
-0.0016176
0.0920209
-0.0017507
0.0916815
-0.00213616
0.0903788
-0.00252064
0.0899171
-0.00313082
0.0883308
-0.00327692
0.0855343
-0.00397011
0.0850751
-0.00475764
0.0814238
-0.00280915
0.0756163
-0.00390619
-0.00365984
0.102382
-0.000493211
-0.102729
0.102083
-0.000587068
0.101725
-0.000648455
0.101424
-0.00074041
0.101005
-0.000718339
0.100681
-0.000823235
0.100304
-0.000837478
0.099971
-0.000874657
0.0996993
-0.000943123
0.0992575
-0.000902055
0.098998
-0.00105848
0.0985083
-0.00112794
0.0979732
-0.00121559
0.097461
-0.00162392
0.0964707
-0.00153036
0.095379
-0.00203914
0.0943675
-0.00226539
0.0921121
-0.00171472
0.0900359
-0.00268147
0.0886172
-0.00139045
0.0839488
0.000762235
-0.000215411
0.109088
-0.000230845
-0.10935
0.108822
-0.000321401
0.108499
-0.000325327
0.108177
-0.000418937
0.107852
-0.000393045
0.107514
-0.00048522
0.107183
-0.000505983
0.106805
-0.000496826
0.10647
-0.000608227
0.106063
-0.000495133
0.105657
-0.000652971
0.105185
-0.000655143
0.104569
-0.000599556
0.103926
-0.000981149
0.103067
-0.000671075
0.101949
-0.000921577
0.100792
-0.00110875
0.0991769
-9.93667e-05
0.0970449
-0.0005494
0.0954465
0.000207969
0.0929863
0.00322244
0.00355967
0.116265
4.13194e-07
-0.116497
0.116004
-5.96314e-05
0.115735
-5.67849e-05
0.11544
-0.000124092
0.115165
-0.000117713
0.114836
-0.000156104
0.114514
-0.000184595
0.114159
-0.00014139
0.113784
-0.000232852
0.113399
-0.000110798
0.112929
-0.00018314
0.112435
-0.000160334
0.111845
-1.03128e-05
0.111108
-0.000243954
0.110326
0.00011084
0.109271
0.000133517
0.108065
9.71945e-05
0.106796
0.00116982
0.104971
0.00127572
0.103225
0.00195435
0.1017
0.00474746
0.00603254
0.123979
0.000195537
-0.124174
0.123753
0.00016623
0.123531
0.000165504
0.123267
0.000139736
0.123009
0.000140496
0.122709
0.000143165
0.122397
0.000127503
0.122071
0.000185082
0.121679
0.000158637
0.121308
0.000260501
0.120829
0.000295594
0.120327
0.000342347
0.119765
0.00055125
0.119018
0.000503334
0.118291
0.000837626
0.117329
0.00109587
0.116198
0.00122783
0.115127
0.00224093
0.113681
0.00272138
0.112113
0.00352211
0.110929
0.00593181
0.00755355
0.132347
0.000348638
-0.1325
0.132156
0.000357402
0.131947
0.000374723
0.131705
0.000381342
0.131455
0.000390957
0.13118
0.000417894
0.130878
0.00042979
0.130567
0.000495462
0.130196
0.000530167
0.129823
0.000633072
0.129379
0.000740312
0.128882
0.000838449
0.128364
0.00106942
0.127684
0.00118389
0.127011
0.0015099
0.126199
0.00190859
0.125209
0.00221734
0.124326
0.00312424
0.123196
0.00385171
0.121941
0.00477697
0.12108
0.00679274
0.00853984
0.141345
0.000509271
-0.141506
0.141164
0.00053905
0.140973
0.000565245
0.140764
0.000590284
0.14054
0.00061547
0.140298
0.000659099
0.140023
0.000704766
0.139734
0.000784862
0.139396
0.000868493
0.139041
0.000987496
0.138645
0.00113682
0.138191
0.00129249
0.137727
0.0015333
0.137147
0.0017639
0.136558
0.00209903
0.135903
0.00256354
0.135109
0.00301097
0.134416
0.00381741
0.133592
0.00467584
0.132702
0.00566664
0.132146
0.0073489
0.00910215
0.151019
0.000641389
-0.151151
0.150878
0.000679517
0.150727
0.000716866
0.150555
0.00076226
0.150357
0.000812825
0.150138
0.000878496
0.149892
0.00095105
0.149631
0.00104613
0.149341
0.00115834
0.149029
0.00129955
0.14869
0.00147571
0.148309
0.00167361
0.147915
0.00192695
0.14746
0.00221907
0.146982
0.00257653
0.146485
0.00306045
0.145914
0.00358241
0.145408
0.00432294
0.144887
0.00519704
0.144354
0.0061995
0.144081
0.00762184
0.00925525
0.161492
0.000741067
-0.161591
0.161374
0.000796794
0.161238
0.00085322
0.161087
0.000913456
0.160922
0.000977575
0.160745
0.00105547
0.16055
0.0011464
0.160336
0.00126007
0.160101
0.00139334
0.159847
0.0015535
0.159579
0.0017434
0.159286
0.00196675
0.158981
0.00223163
0.158651
0.00254962
0.158305
0.00292186
0.15797
0.00339619
0.157614
0.00393819
0.157312
0.00462495
0.157061
0.00544752
0.156855
0.00640639
0.156862
0.00761465
0.00905765
0.172755
0.000825155
-0.172839
0.172663
0.000888349
0.172565
0.000952028
0.172455
0.00102276
0.172332
0.00110109
0.172194
0.0011932
0.172043
0.0012972
0.171882
0.00142095
0.171712
0.0015638
0.171531
0.00173461
0.171342
0.00193168
0.171145
0.00216435
0.170945
0.00243124
0.170744
0.00275116
0.170545
0.00312047
0.170369
0.00357248
0.170213
0.0040945
0.170113
0.00472418
0.170095
0.00546576
0.170167
0.00633406
0.170422
0.00736009
0.00858004
0.184883
0.000882428
-0.18494
0.18482
0.000951075
0.184751
0.00102134
0.184676
0.00109758
0.184597
0.00118001
0.184515
0.00127602
0.184426
0.00138563
0.184331
0.00151598
0.184231
0.00166416
0.184128
0.00183764
0.184026
0.00203297
0.183929
0.00226187
0.183838
0.00252177
0.18376
0.00282972
0.183699
0.00318089
0.183673
0.00359855
0.183692
0.00407623
0.183776
0.00463977
0.183955
0.00528707
0.184248
0.0060404
0.184711
0.00689782
0.00789574
0.197903
0.000902626
-0.197923
0.197887
0.000967381
0.197871
0.00103712
0.197851
0.00111695
0.197826
0.00120563
0.197794
0.00130808
0.197758
0.0014217
0.197722
0.00155187
0.19769
0.0016958
0.197665
0.00186237
0.19765
0.00204892
0.197645
0.0022661
0.197657
0.00250982
0.197693
0.00279411
0.19776
0.00311424
0.19787
0.00348797
0.198037
0.00390929
0.198279
0.00439788
0.198619
0.0049466
0.199083
0.00557697
0.199703
0.00627734
0.00707521
0.211957
0.000882557
-0.211937
0.211972
0.000952505
0.211982
0.00102667
0.211991
0.00110779
0.212002
0.00119475
0.212018
0.00129226
0.212041
0.00139878
0.212072
0.00152092
0.212111
0.00165621
0.212162
0.00181175
0.212227
0.00198366
0.212312
0.0021815
0.212421
0.00240123
0.21256
0.0026547
0.212738
0.00293644
0.212965
0.00326034
0.213255
0.00361967
0.213623
0.00403034
0.214086
0.00448339
0.214667
0.00499618
0.215389
0.00555454
0.00617709
0.226975
0.00084783
-0.22694
0.227017
0.000911011
0.227067
0.000976716
0.227125
0.001049
0.227192
0.00112789
0.227266
0.00121828
0.227347
0.00131782
0.227437
0.00143082
0.22754
0.00155372
0.227659
0.0016928
0.227798
0.00184484
0.22796
0.0020186
0.228152
0.00220976
0.228379
0.002428
0.228648
0.0026673
0.228969
0.00293914
0.229352
0.00323626
0.229811
0.00357157
0.230359
0.00393509
0.231015
0.00434022
0.231797
0.00477278
0.00524616
0.243072
0.000768882
-0.242993
0.24316
0.000823629
0.243253
0.00088282
0.243353
0.000949307
0.243459
0.00102164
0.243575
0.001103
0.243702
0.00119084
0.243843
0.00128905
0.244002
0.00139471
0.244182
0.00151362
0.244384
0.00164279
0.244613
0.00178951
0.244873
0.00194936
0.245171
0.00213029
0.245512
0.00232626
0.245904
0.00254659
0.246357
0.00278392
0.24688
0.00304865
0.247484
0.00333095
0.248182
0.00364154
0.248988
0.00396709
0.00431795
0.260301
0.000662267
-0.260195
0.260415
0.000710365
0.260536
0.000761483
0.260667
0.000817733
0.260811
0.00087809
0.260968
0.000945539
0.261141
0.0010181
0.261331
0.0010991
0.26154
0.00118584
0.261771
0.001283
0.262026
0.00138767
0.262309
0.00150585
0.262625
0.00163334
0.262979
0.00177665
0.263375
0.0019301
0.263821
0.00210122
0.264321
0.00228312
0.264886
0.0024841
0.265522
0.00269523
0.266238
0.00292491
0.267044
0.00316145
0.00341275
0.278679
0.000530438
-0.278548
0.278822
0.000567657
0.278976
0.000607303
0.279143
0.000651098
0.279323
0.000698194
0.279518
0.000750802
0.279728
0.000807127
0.279958
0.000869669
0.280208
0.000936132
0.28048
0.00101017
0.280779
0.0010893
0.281106
0.00117822
0.281466
0.00127342
0.281863
0.00137995
0.2823
0.00149295
0.282783
0.00161812
0.283317
0.00174959
0.283907
0.00189368
0.28456
0.00204299
0.285281
0.0022039
0.286075
0.00236693
0.0025383
0.298294
0.000372398
-0.298136
0.298463
0.000398271
0.298644
0.000426043
0.298839
0.000456684
0.299047
0.000489445
0.299273
0.000525723
0.299515
0.000564252
0.299778
0.000606846
0.300062
0.000651888
0.300371
0.00070192
0.300705
0.000755135
0.301068
0.000814833
0.301463
0.000878407
0.301894
0.000949298
0.302363
0.00102387
0.302875
0.00110601
0.303433
0.00119146
0.304042
0.00128453
0.304705
0.00137995
0.305427
0.00148201
0.30621
0.00158409
0.00169042
0.319207
0.000194671
-0.319029
0.319397
0.000208192
0.319601
0.000222656
0.319819
0.000238551
0.320053
0.00025546
0.320304
0.000274152
0.320575
0.000293862
0.320866
0.0003156
0.321179
0.000338529
0.321517
0.000364032
0.321881
0.000391087
0.322275
0.000421433
0.322699
0.000453627
0.323159
0.000489417
0.323656
0.000526904
0.324194
0.000567982
0.324775
0.000610513
0.325403
0.000656514
0.32608
0.000703357
0.326809
0.000753096
0.32759
0.000802421
0.000853425
0.341483
-0.341288
0.341691
0.341914
0.342152
0.342408
0.342682
0.342976
0.343291
0.34363
0.343994
0.344385
0.344806
0.34526
0.345749
0.346276
0.346844
0.347455
0.348111
0.348815
0.349568
0.35037
0.0532932
0.0235663
0.0534382
0.0264703
0.0538133
0.0300877
0.0518267
0.0336125
0.033561
0.0560402
0.02368
0.0552057
0.0273048
0.0556285
0.029665
0.054704
0.034537
0.0345909
0.0592866
0.0233983
0.0584366
0.0281547
0.0583926
0.029709
0.0583565
0.0345731
0.0352859
0.0629238
0.0628426
0.0282359
0.0624411
0.0301105
0.0623009
0.0347133
0.0357923
0.0666966
0.0278057
0.0666354
0.0301717
0.0664439
0.0349048
0.0362209
0.0700607
0.0274236
0.0703963
0.0298361
0.0709391
0.0343619
0.0365415
0.0738899
0.0268934
0.0740782
0.0296478
0.0750392
0.033401
0.0361327
0.0783792
0.0263175
0.0785971
0.02943
0.0791562
0.0328418
0.0353042
0.0834591
0.0258266
0.0838205
0.0290686
0.0841612
0.0325011
0.0347129
0.0887978
0.0253563
0.0893037
0.0285627
0.0897812
0.0320237
0.0341573
0.0944949
0.0247649
0.0951114
0.0279462
0.0958538
0.0312812
0.0335626
0.100555
0.0241176
0.10121
0.0272914
0.102007
0.0304844
0.0328408
0.106912
0.0234901
0.107623
0.0265806
0.108481
0.0296264
0.0319718
0.113907
0.0227949
0.114705
0.0257826
0.115597
0.0287351
0.0310718
0.121458
0.0220759
0.122261
0.0249793
0.123184
0.0278119
0.0300823
0.129523
0.0213063
0.130411
0.0240918
0.131444
0.026778
0.0290264
0.138332
0.0204359
0.139313
0.0231111
0.1404
0.0256906
0.0279206
0.147746
0.019523
0.148772
0.0220853
0.149931
0.0245315
0.0267008
0.157847
0.0185302
0.158989
0.0209434
0.160263
0.0232569
0.0253727
0.168808
0.0174276
0.170046
0.0197057
0.1714
0.0219028
0.0239339
0.180552
0.0162453
0.181876
0.0183816
0.183347
0.0204318
0.0223405
0.19313
0.0149707
0.194568
0.0169432
0.196176
0.0188246
0.0205929
0.206684
0.0135671
0.208268
0.0153589
0.210027
0.017066
0.018683
0.221268
0.0120428
0.222978
0.0136492
0.224871
0.0151727
0.0166139
0.23681
0.0104073
0.238661
0.0117981
0.240726
0.0131076
0.0143465
0.253473
0.00862314
0.255494
0.00977684
0.25774
0.0108621
0.0118915
0.271295
0.00669686
0.273476
0.00759634
0.275897
0.00844088
0.00924109
0.290309
0.00462232
0.292661
0.00524437
0.295274
0.00582769
0.0063799
0.310612
0.00239142
0.313142
0.00271426
0.315953
0.00301696
0.00330326
0.332254
0.334968
0.337985
)
;

boundaryField
{
    outlet
    {
        type            calculated;
        value           nonuniform 0();
    }
    upperWall
    {
        type            symmetryPlane;
        value           uniform 0;
    }
    lowerWall
    {
        type            symmetryPlane;
        value           nonuniform 0();
    }
    inlet
    {
        type            calculated;
        value           nonuniform 0();
    }
    cylinder
    {
        type            calculated;
        value           nonuniform 0();
    }
    frontAndBack
    {
        type            empty;
        value           nonuniform 0();
    }
    procBoundary6to2
    {
        type            processor;
        value           nonuniform List<scalar> 
37
(
-0.00359965
-0.0020928
-0.000101645
0.00210666
0.00496863
0.00833947
0.0121726
0.0163912
0.0207875
0.0249615
0.0286233
0.0313971
0.0327209
0.0328733
0.0312635
0.029019
0.0258704
0.0198858
0.000294843
-0.0200539
-0.0367204
-0.044876
-0.0450636
-0.044449
-0.0453948
-0.0419024
-0.0385442
-0.04374
-0.0531632
-0.0627276
-0.0555665
-0.0214979
0.0189612
0.0531169
0.0771185
0.0848845
0.0767774
)
;
    }
    procBoundary6to5
    {
        type            processor;
        value           nonuniform List<scalar> 
63
(
-0.0272545
-0.0300685
-0.0303376
-0.0309213
-0.0262226
-0.0325292
-0.0328351
-0.0235895
-0.0334419
-0.0341129
-0.0348183
-0.024205
-0.0357993
-0.0365287
-0.0368756
-0.0230407
0.00479426
0.00558857
0.0038287
-6.00128e-05
-0.00414721
-0.00646203
0.00294392
-0.00842966
-0.000363186
-0.00850105
-0.00394974
-0.00831013
-0.0108596
-0.0170913
-0.0232854
-0.0279262
-0.0538187
-0.0561539
-0.0590049
-0.0624665
0.022941
-0.0662664
-0.0696786
-0.0733597
-0.0778033
-0.0829682
-0.0883275
-0.0939035
-0.099908
-0.106285
-0.113212
-0.120739
-0.128754
-0.137462
-0.146833
-0.156854
-0.167706
-0.17937
-0.191855
-0.20528
-0.219744
-0.235174
-0.251689
-0.269369
-0.288235
-0.308381
-0.329862
)
;
    }
    procBoundary6to7
    {
        type            processor;
        value           nonuniform List<scalar> 
42
(
0.065208
0.0627295
0.0616871
0.0580032
0.0543353
0.0494002
0.0670333
0.0392509
0.0360665
0.0346368
0.0316065
0.062529
0.0464059
0.0449674
0.0478754
0.0428672
0.0461746
0.0415316
0.0621936
0.0508012
0.0605319
0.0699431
0.0751403
0.0805044
0.0892112
0.0992266
0.109408
0.120093
0.131584
0.143928
0.157059
0.1709
0.185395
0.200524
0.216287
0.232728
0.249916
0.267949
0.28695
0.307058
0.328427
0.351223
)
;
    }
}


// ************************************************************************* //
