/*--------------------------------*- C++ -*----------------------------------*\
| =========                 |                                                 |
| \\      /  F ield         | OpenFOAM: The Open Source CFD Toolbox           |
|  \\    /   O peration     | Version:                                        |
|   \\  /    A nd           | Website:  www.openfoam.com                      |
|    \\/     M anipulation  |                                                 |
\*---------------------------------------------------------------------------*/
FoamFile
{
    version     2.0;
    format      ascii;
    class       volScalarField;
    location    "31.3";
    object      p;
}
// * * * * * * * * * * * * * * * * * * * * * * * * * * * * * * * * * * * * * //

dimensions      [0 2 -2 0 0 0 0];


internalField   nonuniform List<scalar> 
1150
(
0.223459
0.234281
0.245605
0.22153
0.231779
0.242563
0.217416
0.226666
0.236588
0.211079
0.218971
0.202236
0.208602
0.191111
0.0315053
0.0245649
0.0277403
0.0290847
0.0318807
0.0330493
0.0357917
0.037726
0.0408189
0.0441137
0.0479185
0.0517657
0.0564798
0.061499
0.0669501
0.0728007
0.0793307
0.0862358
0.0936636
0.101583
0.110181
0.119281
0.128972
0.139168
0.149979
0.16129
0.173125
0.185378
0.198117
0.211315
0.0314562
0.0245657
0.0277188
0.029069
0.0318581
0.0330248
0.0357731
0.0376884
0.0407952
0.0440762
0.0478748
0.0517186
0.0564389
0.0614297
0.0668811
0.0726927
0.0792128
0.0860462
0.0934484
0.101287
0.109834
0.118828
0.128447
0.138519
0.149237
0.160408
0.172147
0.184264
0.196887
0.209862
0.0313543
0.0245674
0.0276704
0.0290613
0.0318057
0.0330039
0.0357302
0.0376495
0.0407514
0.0440378
0.0478032
0.0516551
0.056369
0.0613201
0.0667696
0.0725184
0.0789914
0.0857285
0.093073
0.100789
0.109223
0.118039
0.127493
0.137328
0.147814
0.158677
0.170129
0.181897
0.194182
0.206655
0.0312109
0.0245637
0.0276087
0.0290224
0.0317443
0.0329428
0.0356895
0.0375563
0.0407228
0.0439606
0.0477478
0.0515906
0.0563773
0.0612251
0.0667011
0.0723386
0.0788038
0.0853894
0.0927027
0.100243
0.108575
0.11714
0.126418
0.135925
0.146138
0.156564
0.167616
0.178786
0.190419
0.201841
0.0310188
0.0245582
0.0275214
0.0290043
0.0316426
0.0329049
0.0356006
0.0374884
0.0406393
0.0438862
0.0476202
0.0514583
0.0562299
0.06101
0.0664282
0.0719894
0.0783448
0.0847855
0.0919477
0.0992706
0.107359
0.115583
0.124494
0.133515
0.143199
0.152955
0.163299
0.173627
0.184381
0.19465
0.030797
0.0245431
0.02743
0.0289531
0.0315382
0.0328287
0.0355273
0.0373644
0.0406143
0.0437921
0.0475958
0.0514345
0.0563279
0.0609004
0.0663897
0.0717664
0.0781738
0.0843718
0.0915392
0.0985662
0.106546
0.114362
0.123011
0.131474
0.140678
0.149628
0.159167
0.168267
0.177657
0.185876
0.0305388
0.0245198
0.0273273
0.0289072
0.0313996
0.0327668
0.0354058
0.0372615
0.0405037
0.0436635
0.0473881
0.0512092
0.0560331
0.0605588
0.0659076
0.0712174
0.0773982
0.0834496
0.0903073
0.0970629
0.104608
0.111944
0.119993
0.127708
0.136097
0.143956
0.152427
0.160086
0.168118
0.174422
0.0302539
0.0244817
0.0272346
0.0288477
0.0312492
0.0327037
0.0352853
0.0371676
0.0404947
0.043628
0.0475116
0.0513025
0.0561843
0.0604732
0.0659621
0.0710923
0.0773789
0.0831158
0.0900583
0.0963526
0.10388
0.110526
0.118352
0.125087
0.132865
0.139314
0.14651
0.152097
0.157944
0.0299469
0.0244223
0.0271542
0.0287588
0.0310967
0.0325993
0.0351482
0.0369905
0.0403659
0.043348
0.0471029
0.0509602
0.0557263
0.0598782
0.0652195
0.0702299
0.076201
0.0817516
0.0881896
0.0942262
0.100992
0.107202
0.113978
0.120001
0.126434
0.131707
0.137327
0.14106
0.145163
0.0296386
0.0243465
0.0270763
0.0286714
0.0309413
0.032549
0.0350371
0.0369898
0.0404488
0.0434831
0.0473975
0.0511175
0.0559468
0.060085
0.0654907
0.0704775
0.0764093
0.0818235
0.0881753
0.0938466
0.100411
0.105808
0.112228
0.11677
0.122483
0.125304
0.129383
0.129361
0.0293129
0.024289
0.0270143
0.0285221
0.0307597
0.0323535
0.0347832
0.0367446
0.0402095
0.0430226
0.0468703
0.0504269
0.0552184
0.0590326
0.0644449
0.0689433
0.074759
0.0795787
0.0856086
0.0906277
0.0964488
0.101161
0.106313
0.110225
0.113962
0.116224
0.117566
0.1169
0.0289358
0.0242434
0.0269295
0.0283467
0.0305204
0.0320803
0.0344113
0.0364124
0.0396599
0.0424264
0.046037
0.0495814
0.0539296
0.0577354
0.062579
0.0670012
0.0720382
0.0767279
0.0817888
0.0865391
0.0911575
0.095383
0.0991431
0.102292
0.104417
0.105635
0.105184
0.103405
0.0284891
0.0241901
0.0267993
0.0281332
0.0301969
0.0317663
0.0338707
0.0360758
0.0389261
0.0419235
0.044961
0.0488188
0.0523923
0.0565019
0.0604311
0.0650506
0.0690619
0.0737271
0.0777034
0.0821563
0.0855875
0.0892436
0.0917298
0.0939807
0.0947438
0.0947931
0.0932368
0.0907213
0.0280178
0.0241396
0.0266467
0.0278656
0.0298844
0.0313684
0.0333765
0.0355918
0.0382326
0.0412894
0.0439787
0.0478761
0.0509314
0.0550162
0.0583546
0.0627636
0.0661387
0.0703126
0.0736517
0.0773231
0.0800218
0.0826311
0.0842462
0.0852696
0.0851059
0.0840161
0.0819043
0.0790501
0.0275464
0.0241246
0.0264797
0.0275309
0.0296132
0.0308398
0.0330298
0.0348491
0.0378031
0.0402807
0.0431236
0.046453
0.0496222
0.0529696
0.0563778
0.0599056
0.0631638
0.0663541
0.0693675
0.0719722
0.0741165
0.0755777
0.076471
0.0763628
0.0755108
0.0736337
0.0711754
0.0680713
0.0270112
0.0241777
0.0262561
0.0271486
0.02922
0.0302704
0.0325976
0.0339883
0.0372058
0.039046
0.0421688
0.0447122
0.048133
0.0505693
0.054091
0.0567244
0.0597889
0.0621095
0.064692
0.066366
0.0678487
0.0683888
0.0684911
0.0675748
0.0661017
0.0637812
0.061007
0.0577774
0.0263374
0.0243219
0.0259721
0.0267354
0.0286537
0.0297182
0.0319797
0.0331327
0.0361926
0.0378771
0.0408111
0.0430338
0.0461898
0.0481771
0.0513041
0.0534928
0.0559027
0.0577335
0.0595602
0.0606306
0.0612739
0.0611602
0.0604868
0.0590328
0.0570071
0.0544058
0.0514132
0.0481296
0.0254615
0.0245942
0.0256296
0.0263557
0.027895
0.0291881
0.0311507
0.0323078
0.0348811
0.0367372
0.0390742
0.0413698
0.0438998
0.0457523
0.048202
0.0501285
0.0517857
0.0531684
0.0542334
0.0547441
0.0546169
0.0539284
0.0526283
0.0507614
0.0483442
0.0454924
0.0423231
0.0389884
0.0244536
0.024941
0.0252855
0.0260638
0.0271181
0.0286671
0.0302596
0.0315201
0.0335842
0.0355178
0.0373526
0.0395415
0.0415644
0.0431827
0.0450121
0.046549
0.0475925
0.0484196
0.0488222
0.048771
0.0480303
0.0467891
0.0450302
0.0428036
0.0400925
0.037032
0.0337263
0.0303318
0.0234617
0.0252208
0.0249368
0.0258336
0.026365
0.0281464
0.0293159
0.0307598
0.0322867
0.0342027
0.0355682
0.0375435
0.0391108
0.0404611
0.0416889
0.0427986
0.0433226
0.0435544
0.043368
0.0427802
0.041552
0.0398448
0.0376951
0.0351588
0.0322406
0.0290336
0.0256402
0.0222087
0.0225399
0.0253043
0.0245961
0.0255236
0.0256667
0.0274791
0.0283532
0.0298471
0.0309984
0.0327018
0.033729
0.0353561
0.0365247
0.037526
0.0382324
0.0388811
0.038939
0.0386054
0.0378867
0.0368215
0.03519
0.0331012
0.0306192
0.0278501
0.0247991
0.0215152
0.0180944
0.0146708
0.021693
0.0251649
0.0242528
0.0250941
0.0250012
0.0266498
0.0273635
0.0287073
0.0296267
0.030997
0.0317901
0.0329769
0.0337793
0.0343947
0.0346613
0.0348063
0.0344309
0.0336204
0.0324347
0.0309557
0.0289863
0.0266036
0.0238789
0.0209456
0.0178149
0.0145172
0.0111262
0.00775342
0.020931
0.0247749
0.0238888
0.0245291
0.0243231
0.0256575
0.0262833
0.0273639
0.0281173
0.0291326
0.0297072
0.0304474
0.0308892
0.0311139
0.0309672
0.0306332
0.0298592
0.0286668
0.0270919
0.0252625
0.0230313
0.0204447
0.0175579
0.0145111
0.0113398
0.00807252
0.00475563
0.00147056
0.020247
0.0241236
0.0234681
0.0238425
0.023585
0.0245303
0.0250788
0.0258698
0.0264577
0.0271375
0.027462
0.0277971
0.0278687
0.0277092
0.0271875
0.0264438
0.0253109
0.0238009
0.0219296
0.0198353
0.0174191
0.0147002
0.0117138
0.00859951
0.005415
0.00219731
-0.00102
-0.00418875
0.0196232
0.0232332
0.0229293
0.0230645
0.0227572
0.0233084
0.0237313
0.0242541
0.0246436
0.0250197
0.025073
0.0250383
0.0247509
0.0242408
0.0233995
0.0223065
0.0208522
0.0190861
0.0170133
0.0147443
0.0122104
0.0094144
0.00638519
0.00324856
7.51791e-05
-0.00308429
-0.00620188
-0.00924549
0.0190307
0.0221625
0.0222146
0.0222023
0.0218263
0.0220234
0.0222545
0.0225281
0.0226882
0.0227891
0.022571
0.0221976
0.0215898
0.0207725
0.0196522
0.0182727
0.0165634
0.0145971
0.0123884
0.0100139
0.00742035
0.00460297
0.00158665
-0.00152146
-0.00464539
-0.00773175
-0.0107605
-0.0136984
0.0184364
0.020986
0.0212918
0.0212374
0.0207901
0.0206885
0.0206834
0.0207058
0.0206156
0.0204601
0.0199929
0.0193217
0.018429
0.0173404
0.0159877
0.0144038
0.0125132
0.010387
0.00807525
0.00564751
0.00305813
0.000282356
-0.00266838
-0.00570339
-0.00874404
-0.0117308
-0.0146487
-0.0174798
0.0178032
0.0197753
0.020195
0.0201314
0.0196383
0.019305
0.0190532
0.0188116
0.0184576
0.0180591
0.0173759
0.016454
0.0153103
0.013992
0.0124584
0.0107343
0.00872892
0.00649117
0.00410973
0.00166937
-0.000867749
-0.00355078
-0.00638944
-0.00931308
-0.0122393
-0.0150975
-0.0178698
-0.0205547
0.0170995
0.0185597
0.0189638
0.0188715
0.0183629
0.017862
0.0173826
0.0168769
0.0162638
0.0156275
0.0147532
0.0136299
0.012283
0.0107784
0.00910312
0.00728523
0.00522816
0.00294306
0.000531126
-0.00190073
-0.00436306
-0.00691537
-0.0095962
-0.0123661
-0.0151483
-0.0178628
-0.0204778
-0.0229938
0.0163122
0.0173499
0.0176465
0.0174933
0.01697
0.0163471
0.0156763
0.0149331
0.0140785
0.0132094
0.0121627
0.0108856
0.00938926
0.0077419
0.00596089
0.00408463
0.00202536
-0.000244944
-0.00264127
-0.0050427
-0.00742088
-0.00982619
-0.0123191
-0.0148984
-0.0175076
-0.0200642
-0.0225167
-0.0248541
0.0154381
0.0161353
0.0162844
0.0160461
0.015483
0.014758
0.0139355
0.0130002
0.0119382
0.0108527
0.00964801
0.00825712
0.00666209
0.00491714
0.00306501
0.0011594
-0.000868749
-0.00307213
-0.00539953
-0.00774009
-0.0100317
-0.0122963
-0.0145949
-0.0169586
-0.0193634
-0.0217382
-0.0240179
-0.0261727
0.014483
0.0149117
0.0149064
0.0145674
0.0139372
0.0131159
0.0121721
0.0110952
0.00987381
0.00860375
0.00725701
0.00577777
0.00412578
0.00232777
0.000440538
-0.00146597
-0.00343865
-0.00554043
-0.00775515
-0.0100005
-0.0121988
-0.0143362
-0.0164527
-0.0185946
-0.0207707
-0.022936
-0.0250256
-0.0269936
0.0134643
0.013685
0.0135335
0.0130876
0.0123767
0.0114644
0.0104188
0.00924027
0.00790898
0.00649922
0.00503149
0.00347973
0.00180119
-7.24466e-06
-0.00189168
-0.00377258
-0.00567672
-0.00766265
-0.00973734
-0.0118549
-0.0139421
-0.0159584
-0.0179136
-0.0198489
-0.0217936
-0.0237313
-0.0256116
-0.0273845
0.0124049
0.0124662
0.0121873
0.0116382
0.0108462
0.00985342
0.00872149
0.00746438
0.00606142
0.00456066
0.00300375
0.00139566
-0.000290006
-0.0020757
-0.0039233
-0.00575686
-0.00758523
-0.00945318
-0.0113783
-0.0133442
-0.0152974
-0.0171898
-0.0190033
-0.0207602
-0.0224921
-0.024203
-0.0258633
-0.0274317
0.0113367
0.0112775
0.0108947
0.0102542
0.00938806
0.00832815
0.00712606
0.0058049
0.00435533
0.00280557
0.0011966
-0.000446977
-0.00212794
-0.00387203
-0.00565837
-0.00742524
-0.00917175
-0.010927
-0.0127061
-0.0145121
-0.0163156
-0.0180746
-0.0197563
-0.0213624
-0.0229137
-0.0244203
-0.0258687
-0.0272323
0.0102993
0.0101517
0.00968848
0.00897279
0.00804333
0.00692965
0.00567406
0.00430455
0.00282496
0.00125441
-0.000373885
-0.00202975
-0.00369773
-0.00539411
-0.00710715
-0.00879377
-0.010453
-0.0121017
-0.0137484
-0.015403
-0.0170527
-0.01867
-0.0202226
-0.0216988
-0.0231039
-0.0244414
-0.0257041
-0.0268786
0.00934517
0.00913128
0.00860822
0.00783564
0.00685581
0.00570142
0.00441039
0.00300842
0.00150885
-6.81332e-05
-0.00169401
-0.0033423
-0.00499018
-0.00664026
-0.00828092
-0.00988427
-0.011454
-0.0130033
-0.0145347
-0.0160551
-0.0175599
-0.019036
-0.0204609
-0.0218205
-0.0231073
-0.0243136
-0.0254295
-0.0264468
0.00852769
0.00826769
0.00770286
0.00689069
0.00587526
0.00469328
0.00338003
0.00195775
0.000445936
-0.00113029
-0.00274376
-0.00437487
-0.00600072
-0.00761131
-0.00919106
-0.0107195
-0.0122054
-0.0136647
-0.0150975
-0.016504
-0.0178809
-0.0192252
-0.0205284
-0.0217809
-0.02297
-0.024078
-0.0250878
-0.0259903
0.00791108
0.00762157
0.00703032
0.00619408
0.00515653
0.00395692
0.00263057
0.00119847
-0.000318452
-0.00189236
-0.00349461
-0.0051099
-0.00671684
-0.00829739
-0.0098346
-0.0113095
-0.0127314
-0.0141212
-0.0154789
-0.0167976
-0.018071
-0.0193013
-0.0204923
-0.0216435
-0.0227446
-0.0237749
-0.024712
-0.0255435
0.00756507
0.00726049
0.00665654
0.00580899
0.00476044
0.00355253
0.00222104
0.000785597
-0.000733885
-0.00230718
-0.00390283
-0.00550761
-0.00710287
-0.00866725
-0.0101842
-0.0116333
-0.0130208
-0.0143721
-0.0156884
-0.0169582
-0.0181719
-0.0193322
-0.0204463
-0.0215177
-0.0225424
-0.0235059
-0.0243901
-0.0251831
)
;

boundaryField
{
    outlet
    {
        type            fixedValue;
        value           nonuniform 0();
    }
    upperWall
    {
        type            symmetryPlane;
    }
    lowerWall
    {
        type            symmetryPlane;
    }
    inlet
    {
        type            zeroGradient;
    }
    cylinder
    {
        type            zeroGradient;
    }
    frontAndBack
    {
        type            empty;
    }
    procBoundary4to0
    {
        type            processor;
        value           nonuniform List<scalar> 
33
(
0.22344
0.23426
0.245584
0.0315047
0.0245643
0.0277397
0.0290841
0.03188
0.0330486
0.0357908
0.037725
0.0408177
0.0441121
0.0479166
0.0517637
0.0564778
0.0614963
0.0669468
0.0727972
0.0793271
0.0862317
0.0936589
0.101578
0.110174
0.119275
0.128964
0.13916
0.149969
0.161279
0.173113
0.185365
0.198103
0.211299
)
;
    }
    procBoundary4to5
    {
        type            processor;
        value           nonuniform List<scalar> 
45
(
0.257721
0.254263
0.247651
0.227877
0.227877
0.216407
0.195848
0.195848
0.177564
0.177564
0.161414
0.161414
0.145538
0.130535
0.130535
0.114373
0.0996223
0.0871995
0.0758882
0.0649755
0.054581
0.0448068
0.0356025
0.0269319
0.0188256
0.0113323
0.00448454
-0.00170624
-0.00724968
-0.0121712
-0.0164993
-0.0201968
-0.0231613
-0.0254426
-0.0271142
-0.0282307
-0.028849
-0.0290409
-0.028891
-0.028497
-0.027959
-0.0273671
-0.0267906
-0.0262744
-0.02589
)
;
    }
}


// ************************************************************************* //
