/*--------------------------------*- C++ -*----------------------------------*\
| =========                 |                                                 |
| \\      /  F ield         | OpenFOAM: The Open Source CFD Toolbox           |
|  \\    /   O peration     | Version:                                        |
|   \\  /    A nd           | Website:  www.openfoam.com                      |
|    \\/     M anipulation  |                                                 |
\*---------------------------------------------------------------------------*/
FoamFile
{
    version     2.0;
    format      ascii;
    class       surfaceScalarField;
    location    "23.5";
    object      phi;
}
// * * * * * * * * * * * * * * * * * * * * * * * * * * * * * * * * * * * * * //

dimensions      [0 3 -1 0 0 0 0];
oriented        oriented;


internalField   nonuniform List<scalar> 
760
(
3.61677e-05
-5.00112e-08
3.62158e-05
-4.81044e-08
3.62621e-05
-4.62739e-08
3.63066e-05
-4.45143e-08
3.63494e-05
-4.28247e-08
3.63906e-05
-4.12001e-08
3.64303e-05
-3.96458e-08
3.64684e-05
-3.81467e-08
3.65051e-05
-3.67174e-08
3.65405e-05
-3.53264e-08
3.65745e-05
-3.40278e-08
3.66072e-05
-3.27297e-08
3.66388e-05
-3.15759e-08
3.66691e-05
-3.03277e-08
3.66985e-05
-2.93737e-08
3.67266e-05
-2.80967e-08
3.67541e-05
-2.74409e-08
3.67801e-05
-2.60091e-08
3.68058e-05
-2.57904e-08
-2.41518e-08
3.6039e-05
-9.77422e-08
3.6085e-05
-9.4013e-08
3.61291e-05
-9.04328e-08
3.61716e-05
-8.69925e-08
3.62125e-05
-8.36907e-08
3.62518e-05
-8.05159e-08
3.62896e-05
-7.7476e-08
3.6326e-05
-7.45448e-08
3.6361e-05
-7.17525e-08
3.63947e-05
-6.90368e-08
3.64272e-05
-6.64976e-08
3.64585e-05
-6.39614e-08
3.64886e-05
-6.17052e-08
3.65175e-05
-5.92705e-08
3.65455e-05
-5.74019e-08
3.65724e-05
-5.49172e-08
3.65986e-05
-5.36308e-08
3.66234e-05
-5.0841e-08
3.6648e-05
-5.04073e-08
-4.72135e-08
3.5778e-05
-1.41054e-07
3.58196e-05
-1.35667e-07
3.58597e-05
-1.30496e-07
3.58982e-05
-1.25529e-07
3.59353e-05
-1.20762e-07
3.5971e-05
-1.16179e-07
3.60053e-05
-1.11791e-07
3.60383e-05
-1.07561e-07
3.60701e-05
-1.03531e-07
3.61007e-05
-9.96151e-08
3.61301e-05
-9.59493e-08
3.61584e-05
-9.22946e-08
3.61858e-05
-8.90356e-08
3.6212e-05
-8.55338e-08
3.62375e-05
-8.28267e-08
3.62618e-05
-7.9263e-08
3.62856e-05
-7.73948e-08
3.63081e-05
-7.33972e-08
3.63305e-05
-7.27565e-08
-6.81656e-08
3.53774e-05
-1.78083e-07
3.5413e-05
-1.71274e-07
3.54472e-05
-1.64739e-07
3.54801e-05
-1.58463e-07
3.55118e-05
-1.52442e-07
3.55423e-05
-1.46655e-07
3.55716e-05
-1.41113e-07
3.55998e-05
-1.35773e-07
3.5627e-05
-1.30686e-07
3.56531e-05
-1.25747e-07
3.56783e-05
-1.21116e-07
3.57025e-05
-1.1651e-07
3.57259e-05
-1.12391e-07
3.57483e-05
-1.07992e-07
3.577e-05
-1.04557e-07
3.57909e-05
-1.00095e-07
3.58112e-05
-9.77123e-08
3.58305e-05
-9.27187e-08
3.58496e-05
-9.18865e-08
-8.61241e-08
3.48272e-05
-2.0735e-07
3.48553e-05
-1.99411e-07
3.48824e-05
-1.91795e-07
3.49084e-05
-1.84483e-07
3.49334e-05
-1.77469e-07
3.49575e-05
-1.70729e-07
3.49807e-05
-1.64275e-07
3.50029e-05
-1.5806e-07
3.50244e-05
-1.52136e-07
3.5045e-05
-1.46391e-07
3.50649e-05
-1.40997e-07
3.50841e-05
-1.35649e-07
3.51025e-05
-1.30844e-07
3.51203e-05
-1.25753e-07
3.51375e-05
-1.21731e-07
3.5154e-05
-1.16594e-07
3.517e-05
-1.13781e-07
3.51854e-05
-1.08049e-07
3.52005e-05
-1.07045e-07
-1.00392e-07
3.41154e-05
-2.27845e-07
3.41351e-05
-2.19111e-07
3.41541e-05
-2.10734e-07
3.41723e-05
-2.02694e-07
3.41898e-05
-1.94983e-07
3.42066e-05
-1.87577e-07
3.42228e-05
-1.80484e-07
3.42384e-05
-1.73658e-07
3.42535e-05
-1.67149e-07
3.42679e-05
-1.60845e-07
3.42818e-05
-1.54916e-07
3.42952e-05
-1.49059e-07
3.43082e-05
-1.43768e-07
3.43206e-05
-1.38215e-07
3.43327e-05
-1.33765e-07
3.43443e-05
-1.282e-07
3.43555e-05
-1.25055e-07
3.43664e-05
-1.18875e-07
3.4377e-05
-1.17722e-07
-1.10498e-07
3.32289e-05
-2.39073e-07
3.32397e-05
-2.29899e-07
3.325e-05
-2.21103e-07
3.326e-05
-2.12663e-07
3.32696e-05
-2.04571e-07
3.32788e-05
-1.96801e-07
3.32877e-05
-1.89359e-07
3.32962e-05
-1.82201e-07
3.33045e-05
-1.75373e-07
3.33124e-05
-1.6877e-07
3.332e-05
-1.62547e-07
3.33274e-05
-1.56424e-07
3.33345e-05
-1.50861e-07
3.33414e-05
-1.45084e-07
3.3348e-05
-1.40379e-07
3.33544e-05
-1.34641e-07
3.33606e-05
-1.31273e-07
3.33667e-05
-1.24946e-07
3.33726e-05
-1.23669e-07
-1.16217e-07
3.21543e-05
-2.41066e-07
3.21562e-05
-2.3181e-07
3.2158e-05
-2.22936e-07
3.21598e-05
-2.14425e-07
3.21615e-05
-2.06266e-07
3.21631e-05
-1.98434e-07
3.21647e-05
-1.90933e-07
3.21662e-05
-1.83722e-07
3.21677e-05
-1.76841e-07
3.21691e-05
-1.70195e-07
3.21705e-05
-1.6392e-07
3.21718e-05
-1.57772e-07
3.21731e-05
-1.52152e-07
3.21744e-05
-1.46382e-07
3.21756e-05
-1.416e-07
3.21769e-05
-1.35933e-07
3.21781e-05
-1.32457e-07
3.21794e-05
-1.26278e-07
3.21807e-05
-1.24906e-07
-1.17574e-07
3.0879e-05
-2.34356e-07
3.08725e-05
-2.25355e-07
3.08663e-05
-2.16729e-07
3.08603e-05
-2.08457e-07
3.08546e-05
-2.00528e-07
3.08491e-05
-1.9292e-07
3.08438e-05
-1.85633e-07
3.08387e-05
-1.78631e-07
3.08338e-05
-1.71946e-07
3.08291e-05
-1.65499e-07
3.08246e-05
-1.59401e-07
3.08202e-05
-1.53451e-07
3.08161e-05
-1.47978e-07
3.08121e-05
-1.42429e-07
3.08083e-05
-1.37742e-07
3.08047e-05
-1.32365e-07
3.08011e-05
-1.28899e-07
3.0798e-05
-1.23135e-07
3.07948e-05
-1.217e-07
-1.14826e-07
2.93919e-05
-2.19916e-07
2.9378e-05
-2.11473e-07
2.93647e-05
-2.03382e-07
2.93518e-05
-1.95626e-07
2.93395e-05
-1.88192e-07
2.93276e-05
-1.8106e-07
2.93162e-05
-1.7423e-07
2.93053e-05
-1.67669e-07
2.92947e-05
-1.61403e-07
2.92846e-05
-1.55368e-07
2.92748e-05
-1.49649e-07
2.92655e-05
-1.44092e-07
2.92565e-05
-1.3895e-07
2.92478e-05
-1.33802e-07
2.92395e-05
-1.2937e-07
2.92316e-05
-1.24465e-07
2.92238e-05
-1.21122e-07
2.92166e-05
-1.15999e-07
2.92095e-05
-1.14536e-07
-1.08435e-07
2.76841e-05
-1.99078e-07
2.76641e-05
-1.91442e-07
2.76448e-05
-1.84126e-07
2.76263e-05
-1.77113e-07
2.76085e-05
-1.70393e-07
2.75914e-05
-1.63946e-07
2.75749e-05
-1.57772e-07
2.75591e-05
-1.51844e-07
2.75439e-05
-1.46179e-07
2.75292e-05
-1.40731e-07
2.75151e-05
-1.35559e-07
2.75016e-05
-1.30554e-07
2.74886e-05
-1.25897e-07
2.7476e-05
-1.21293e-07
2.74639e-05
-1.17253e-07
2.74524e-05
-1.12954e-07
2.74411e-05
-1.09843e-07
2.74307e-05
-1.05527e-07
2.74202e-05
-1.04076e-07
-9.90263e-08
2.5749e-05
-1.73432e-07
2.57243e-05
-1.6679e-07
2.57006e-05
-1.60428e-07
2.56779e-05
-1.54329e-07
2.56559e-05
-1.48485e-07
2.56349e-05
-1.42879e-07
2.56146e-05
-1.3751e-07
2.55951e-05
-1.32357e-07
2.55764e-05
-1.27431e-07
2.55583e-05
-1.22697e-07
2.5541e-05
-1.18199e-07
2.55243e-05
-1.13861e-07
2.55082e-05
-1.09804e-07
2.54928e-05
-1.05844e-07
2.54778e-05
-1.02305e-07
2.54635e-05
-9.86959e-08
2.54496e-05
-9.59122e-08
2.54366e-05
-9.25008e-08
2.54236e-05
-9.11103e-08
-8.73387e-08
2.35825e-05
-1.44723e-07
2.35549e-05
-1.39194e-07
2.35284e-05
-1.33896e-07
2.35029e-05
-1.28819e-07
2.34783e-05
-1.23953e-07
2.34547e-05
-1.19286e-07
2.3432e-05
-1.14815e-07
2.34102e-05
-1.10525e-07
2.33892e-05
-1.06423e-07
2.3369e-05
-1.02485e-07
2.33495e-05
-9.87394e-08
2.33308e-05
-9.51384e-08
2.33128e-05
-9.1757e-08
2.32954e-05
-8.84952e-08
2.32786e-05
-8.55316e-08
2.32626e-05
-8.26418e-08
2.32469e-05
-8.02629e-08
2.32322e-05
-7.77789e-08
2.32176e-05
-7.65049e-08
-7.41718e-08
2.11829e-05
-1.14755e-07
2.11541e-05
-1.10383e-07
2.11264e-05
-1.06195e-07
2.10998e-05
-1.0218e-07
2.10742e-05
-9.83311e-08
2.10495e-05
-9.46403e-08
2.10258e-05
-9.11041e-08
2.1003e-05
-8.77119e-08
2.0981e-05
-8.44674e-08
2.09599e-05
-8.1355e-08
2.09396e-05
-7.8392e-08
2.092e-05
-7.55519e-08
2.09011e-05
-7.28763e-08
2.08829e-05
-7.03239e-08
2.08654e-05
-6.79715e-08
2.08485e-05
-6.57839e-08
2.08321e-05
-6.38614e-08
2.08166e-05
-6.22521e-08
2.08012e-05
-6.11546e-08
-6.03322e-08
1.85506e-05
-8.53043e-08
1.85222e-05
-8.20656e-08
1.8495e-05
-7.8962e-08
1.84688e-05
-7.59866e-08
1.84436e-05
-7.31344e-08
1.84194e-05
-7.03989e-08
1.8396e-05
-6.77776e-08
1.83736e-05
-6.52633e-08
1.8352e-05
-6.28581e-08
1.83312e-05
-6.05524e-08
1.83112e-05
-5.83562e-08
1.82919e-05
-5.62563e-08
1.82733e-05
-5.42735e-08
1.82553e-05
-5.24016e-08
1.8238e-05
-5.06553e-08
1.82213e-05
-4.91121e-08
1.82051e-05
-4.76639e-08
1.81897e-05
-4.68079e-08
1.81745e-05
-4.59396e-08
-4.65821e-08
1.56873e-05
-5.80555e-08
1.56611e-05
-5.58598e-08
1.56358e-05
-5.37554e-08
1.56116e-05
-5.17374e-08
1.55883e-05
-4.98027e-08
1.55658e-05
-4.79469e-08
1.55442e-05
-4.61685e-08
1.55234e-05
-4.44626e-08
1.55034e-05
-4.28307e-08
1.54841e-05
-4.1267e-08
1.54655e-05
-3.97773e-08
1.54476e-05
-3.8356e-08
1.54304e-05
-3.70118e-08
1.54137e-05
-3.57554e-08
1.53976e-05
-3.45708e-08
1.53821e-05
-3.35823e-08
1.5367e-05
-3.25876e-08
1.53525e-05
-3.23066e-08
1.53383e-05
-3.16938e-08
-3.35976e-08
1.25959e-05
-3.45628e-08
1.25733e-05
-3.32612e-08
1.25516e-05
-3.20133e-08
1.25307e-05
-3.08164e-08
1.25105e-05
-2.96688e-08
1.24912e-05
-2.85677e-08
1.24725e-05
-2.75125e-08
1.24545e-05
-2.65002e-08
1.24372e-05
-2.55319e-08
1.24206e-05
-2.46043e-08
1.24045e-05
-2.37207e-08
1.2389e-05
-2.28792e-08
1.23741e-05
-2.20825e-08
1.23597e-05
-2.13455e-08
1.23458e-05
-2.06426e-08
1.23323e-05
-2.00961e-08
1.23192e-05
-1.94951e-08
1.23065e-05
-1.95722e-08
1.2294e-05
-1.91904e-08
-2.1947e-08
9.27995e-06
-1.62321e-08
9.26231e-06
-1.56236e-08
9.24533e-06
-1.50401e-08
9.229e-06
-1.44804e-08
9.21327e-06
-1.39435e-08
9.19813e-06
-1.34283e-08
9.18356e-06
-1.29345e-08
9.16952e-06
-1.24608e-08
9.15599e-06
-1.20076e-08
9.14296e-06
-1.15736e-08
9.1304e-06
-1.11603e-08
9.11829e-06
-1.07675e-08
9.1066e-06
-1.03949e-08
9.09531e-06
-1.00549e-08
9.08439e-06
-9.72389e-09
9.07379e-06
-9.49315e-09
9.06349e-06
-9.19525e-09
9.05332e-06
-9.40226e-09
9.04329e-06
-9.16517e-09
-1.20877e-08
5.74257e-06
-4.32789e-09
5.73111e-06
-4.16661e-09
5.72008e-06
-4.0119e-09
5.70947e-06
-3.86341e-09
5.69924e-06
-3.72097e-09
5.6894e-06
-3.58422e-09
5.67992e-06
-3.45317e-09
5.67079e-06
-3.32736e-09
5.66199e-06
-3.20711e-09
5.6535e-06
-3.09189e-09
5.64533e-06
-2.98224e-09
5.63744e-06
-2.87827e-09
5.62982e-06
-2.7792e-09
5.62246e-06
-2.691e-09
5.61533e-06
-2.60067e-09
5.60839e-06
-2.55116e-09
5.60165e-06
-2.45631e-09
5.59484e-06
-2.59214e-09
5.58813e-06
-2.45376e-09
-4.34932e-09
1.98652e-06
1.98235e-06
1.97834e-06
1.97448e-06
1.97076e-06
1.96717e-06
1.96372e-06
1.96039e-06
1.95719e-06
1.95409e-06
1.95111e-06
1.94823e-06
1.94545e-06
1.94276e-06
1.94016e-06
1.93761e-06
1.93516e-06
1.93256e-06
1.93011e-06
)
;

boundaryField
{
    fixedWalls
    {
        type            calculated;
        value           uniform 0;
    }
    inlet
    {
        type            calculated;
        value           nonuniform 0();
    }
    outlet
    {
        type            calculated;
        value           nonuniform List<scalar> 
20
(
3.683e-05
3.66711e-05
3.63514e-05
3.58676e-05
3.52148e-05
3.43871e-05
3.33784e-05
3.2182e-05
3.0792e-05
2.92031e-05
2.74108e-05
2.54119e-05
2.32044e-05
2.07874e-05
1.81607e-05
1.53253e-05
1.22823e-05
9.03344e-06
5.58039e-06
1.92576e-06
)
;
    }
    frontAndBack
    {
        type            empty;
        value           nonuniform 0();
    }
    procBoundary7to3
    {
        type            processor;
        value           nonuniform List<scalar> 
20
(
1.03096e-12
4.13662e-13
-2.21014e-12
-2.126e-12
2.50799e-12
4.48874e-12
-1.15354e-12
-6.13811e-12
-1.30323e-12
6.38774e-12
3.91969e-12
-5.14788e-12
-5.8399e-12
2.63437e-12
6.18248e-12
1.91467e-13
-4.774e-12
-1.85277e-12
2.05967e-12
1.23206e-12
)
;
    }
    procBoundary7to6
    {
        type            processor;
        value           nonuniform List<scalar> 
20
(
-3.61177e-05
-3.59913e-05
-3.57347e-05
-3.53403e-05
-3.47979e-05
-3.40949e-05
-3.32177e-05
-3.21523e-05
-3.08857e-05
-2.94063e-05
-2.77049e-05
-2.57746e-05
-2.36112e-05
-2.12129e-05
-1.858e-05
-1.57145e-05
-1.26194e-05
-9.29828e-06
-5.75447e-06
-1.99085e-06
)
;
    }
}


// ************************************************************************* //
