/*--------------------------------*- C++ -*----------------------------------*\
| =========                 |                                                 |
| \\      /  F ield         | OpenFOAM: The Open Source CFD Toolbox           |
|  \\    /   O peration     | Version:                                        |
|   \\  /    A nd           | Website:  www.openfoam.com                      |
|    \\/     M anipulation  |                                                 |
\*---------------------------------------------------------------------------*/
FoamFile
{
    version     2.0;
    format      ascii;
    class       volVectorField;
    location    "103.5";
    object      U;
}
// * * * * * * * * * * * * * * * * * * * * * * * * * * * * * * * * * * * * * //

dimensions      [0 1 -1 0 0 0 0];


internalField   nonuniform List<vector> 
1139
(
(1.33991 0.513731 1.87344e-19)
(1.28776 0.493437 -3.22675e-19)
(1.24986 0.472005 4.87823e-20)
(1.27274 0.41311 2.15958e-19)
(1.20161 0.454161 -1.03557e-21)
(1.21619 0.399196 -4.50717e-20)
(1.14837 0.435017 -4.1006e-20)
(1.19362 0.38141 -9.5242e-20)
(1.19381 0.328343 -1.23577e-19)
(1.11928 0.400731 -6.72031e-20)
(1.15161 0.361493 1.94124e-19)
(1.16304 0.317898 2.07811e-19)
(1.08273 0.382022 5.87401e-20)
(1.11541 0.335902 -1.44398e-20)
(1.13927 0.305214 -2.15241e-19)
(1.04104 0.356546 3.47621e-20)
(1.09412 0.310359 -6.28561e-20)
(1.10559 0.280548 8.18957e-20)
(1.14677 0.22157 1.67847e-19)
(1.01956 0.337235 4.50625e-20)
(1.06079 0.282381 -1.85604e-19)
(1.08378 0.263203 -3.05951e-20)
(1.13137 0.208588 -6.88631e-20)
(0.949373 0.297774 6.75798e-20)
(1.03859 0.274659 1.37262e-19)
(1.05983 0.22759 5.90643e-21)
(1.09129 0.206839 -4.72436e-20)
(0.127835 -0.62979 -4.95053e-20)
(0.166008 -0.37803 5.77934e-20)
(0.222932 -0.352017 4.62725e-20)
(0.274857 -0.313282 -2.87297e-19)
(0.312318 -0.259438 -7.45294e-20)
(0.321374 -0.178611 -7.45089e-20)
(0.209604 -0.0881336 -7.82639e-22)
(0.30807 -0.0425304 -6.54436e-21)
(0.40422 -0.0112433 9.81117e-20)
(0.456251 0.0147781 2.25581e-19)
(0.42323 0.0463278 5.05091e-19)
(0.399537 0.140154 4.56667e-19)
(0.269556 0.188985 -2.3858e-20)
(0.389799 0.244972 1.84889e-19)
(0.479568 0.243204 1.58788e-19)
(0.51288 0.254458 -1.85521e-19)
(0.564186 0.314165 -6.89525e-19)
(0.777887 0.472396 -2.32014e-21)
(1.08366 0.626481 -3.51927e-19)
(0.300849 0.408571 3.56758e-20)
(0.414981 0.475981 -1.25084e-19)
(0.524044 0.474587 -7.33598e-20)
(0.653412 0.541085 -6.40483e-20)
(0.862606 0.638761 7.79301e-19)
(1.10997 0.74243 -1.84678e-19)
(1.28086 0.771136 -9.07716e-20)
(1.34942 0.729892 -8.30265e-20)
(0.337162 0.626098 2.05366e-20)
(0.484921 0.723511 -4.50959e-20)
(0.668405 0.761059 -1.24919e-19)
(0.878814 0.848826 3.77986e-20)
(1.09322 0.889414 -3.43489e-20)
(1.24014 0.888589 -1.00482e-19)
(1.30429 0.833957 -7.1353e-19)
(1.352 0.763294 -3.572e-19)
(1.40234 0.704205 -8.83436e-20)
(0.421197 0.890933 -5.48784e-20)
(0.615273 1.00168 1.76575e-20)
(0.826707 1.03433 1.75483e-19)
(1.01769 1.06301 1.12253e-19)
(1.15511 1.01939 -4.37951e-19)
(1.22378 0.943984 2.95889e-19)
(1.26402 0.856053 1.46742e-19)
(1.32581 0.771101 5.96289e-19)
(1.35083 0.701915 3.06152e-19)
(1.34801 0.603036 1.13412e-19)
(0.513908 1.14568 3.69168e-20)
(0.714876 1.21303 9.82277e-20)
(0.894702 1.20758 -3.41119e-20)
(1.02821 1.16106 -2.00401e-19)
(1.10571 1.05741 2.04282e-19)
(1.16008 0.946239 -1.34684e-20)
(1.21171 0.853408 -1.27002e-19)
(1.27503 0.767962 2.76689e-19)
(1.28469 0.685204 -4.26817e-19)
(1.29076 0.588813 1.27236e-19)
(0.562838 1.3098 -4.0496e-20)
(0.739494 1.32079 -3.60439e-20)
(0.876043 1.27223 -2.12309e-19)
(0.964956 1.16528 -9.52932e-21)
(1.01701 1.03874 -3.54111e-20)
(1.08774 0.932259 2.47552e-19)
(1.15418 0.835269 -1.67389e-19)
(1.2093 0.751036 1.61599e-19)
(1.22484 0.66709 2.82714e-20)
(1.23914 0.570062 -3.95583e-19)
(0.578911 1.372 -3.07243e-20)
(0.720225 1.33909 1.36047e-19)
(0.813827 1.26042 2.36872e-19)
(0.872983 1.13296 2.24818e-19)
(0.92209 1.00202 1.07085e-19)
(1.01435 0.906849 -4.2332e-19)
(1.10299 0.816 3.69309e-19)
(1.15087 0.724629 -2.68938e-20)
(1.15993 0.634806 -1.08298e-19)
(1.18691 0.561266 2.57211e-19)
(0.563364 1.35234 2.58801e-20)
(0.673487 1.29293 -2.59951e-20)
(0.71855 1.20508 -9.51947e-21)
(0.766451 1.09366 6.84061e-20)
(0.849717 0.978636 -1.13837e-19)
(0.965338 0.869029 1.48107e-19)
(1.04964 0.7639 -9.71449e-20)
(1.07967 0.701371 7.30713e-20)
(1.0951 0.62028 -2.1756e-20)
(1.16058 0.529248 -8.04496e-20)
(0.494075 1.32509 2.79935e-20)
(0.596217 1.24904 -1.13176e-20)
(0.637341 1.15474 -8.32571e-20)
(0.708044 1.05008 2.44317e-20)
(0.805608 0.934052 -7.71948e-20)
(0.901866 0.832382 1.70369e-19)
(0.965158 0.725066 -2.3099e-19)
(1.02909 0.670616 1.52023e-19)
(1.07161 0.597436 1.23586e-19)
(1.10069 0.502434 1.38866e-19)
(0.518244 1.26354 -2.13638e-20)
(0.585649 1.17555 5.67729e-20)
(0.59569 1.09215 -2.06192e-20)
(0.62893 0.997861 -7.75795e-20)
(0.704399 0.876665 -1.68964e-19)
(0.822253 0.781941 3.27187e-21)
(0.925639 0.689521 3.1578e-20)
(0.99388 0.617385 -2.05227e-20)
(1.00681 0.573884 -5.14806e-20)
(1.05574 0.483362 -7.11939e-20)
(0.400305 1.20141 -1.31113e-20)
(0.453625 1.10318 1.93673e-19)
(0.470926 1.0038 -4.88933e-21)
(0.532596 0.945408 -1.00535e-19)
(0.656893 0.861319 9.13398e-20)
(0.799498 0.733689 9.76783e-20)
(0.878693 0.662994 2.10421e-19)
(0.931039 0.592948 -2.74684e-19)
(0.985515 0.53432 -1.6177e-19)
(1.01979 0.451498 1.26824e-19)
(0.44149 1.2338 -4.73857e-20)
(0.45187 1.07235 -1.27773e-20)
(0.464462 0.919649 -2.26631e-19)
(0.536342 0.857994 -3.60955e-20)
(0.62407 0.827421 3.17009e-20)
(0.739008 0.706529 -1.14478e-19)
(0.845656 0.601393 -1.66166e-19)
(0.892917 0.534315 1.20435e-19)
(0.921374 0.484244 2.35089e-19)
(0.983552 0.432898 -1.48193e-19)
(0.299664 1.1937 3.80117e-22)
(0.259317 1.07447 -3.04943e-20)
(0.305297 0.943416 1.78959e-19)
(0.435619 0.808217 1.30571e-19)
(0.558695 0.744148 9.51825e-20)
(0.677339 0.687909 -5.68767e-20)
(0.76245 0.559067 7.51989e-20)
(0.8217 0.495028 4.03007e-20)
(0.909846 0.476022 -2.12524e-19)
(0.974363 0.397297 -8.05863e-20)
(0.324535 1.12188 2.18832e-20)
(0.2959 1.08131 -9.85394e-21)
(0.325855 0.98931 1.45797e-20)
(0.428782 0.810137 -1.06939e-19)
(0.543356 0.638803 -2.24817e-19)
(0.644738 0.584803 9.10691e-20)
(0.749226 0.547933 3.64695e-21)
(0.821418 0.40156 -3.35632e-20)
(0.889471 0.427044 1.65695e-19)
(0.932527 0.356175 -2.67403e-20)
(0.309913 0.829415 -2.57945e-20)
(0.146586 0.866902 1.40095e-20)
(0.0832043 0.839896 -1.06194e-20)
(0.180897 0.773461 8.39989e-20)
(0.389243 0.647335 1.52852e-19)
(0.566297 0.497322 -9.26655e-20)
(0.659064 0.493647 9.69606e-21)
(0.742476 0.434181 7.50806e-20)
(0.826297 0.363909 -2.95373e-20)
(0.896097 0.377487 -8.76823e-22)
(0.417859 0.251088 6.57901e-21)
(0.222013 0.334719 3.62621e-20)
(0.125945 0.434127 -1.48155e-20)
(0.162157 0.577004 -4.09556e-20)
(0.276705 0.619611 -4.50553e-21)
(0.435199 0.503014 2.35292e-20)
(0.588823 0.389502 2.57276e-20)
(0.687319 0.393036 -3.23669e-20)
(0.76256 0.338918 -3.79312e-20)
(0.854171 0.329704 -6.68245e-22)
(0.505832 -0.330724 1.26391e-20)
(0.276905 -0.181387 -3.23939e-21)
(0.12493 -0.0177761 -1.85183e-20)
(0.111975 0.169401 -5.39876e-20)
(0.189856 0.321911 -1.17587e-19)
(0.312335 0.398347 -2.5507e-20)
(0.468494 0.337265 1.93595e-20)
(0.627606 0.297617 -1.39924e-20)
(0.705388 0.293186 1.0318e-21)
(0.79561 0.286171 -1.75303e-20)
(0.586325 -0.768713 -2.24149e-20)
(0.37775 -0.607699 -3.42919e-20)
(0.244688 -0.428027 -5.56142e-20)
(0.209719 -0.215504 3.77908e-20)
(0.227513 -0.015258 7.87269e-20)
(0.279173 0.159892 9.70865e-21)
(0.370926 0.235738 -7.84411e-21)
(0.530199 0.229424 1.29285e-20)
(0.642269 0.203446 -1.08076e-21)
(0.728294 0.234774 2.47217e-20)
(0.648982 -0.976148 1.45801e-20)
(0.499405 -0.853191 -1.70738e-20)
(0.388396 -0.700449 6.24271e-20)
(0.326811 -0.512705 -2.65779e-20)
(0.310506 -0.310891 3.63592e-21)
(0.32112 -0.119861 3.02412e-20)
(0.345934 0.0306418 -1.1476e-20)
(0.441246 0.109453 4.04743e-22)
(0.577392 0.123031 4.81938e-21)
(0.677685 0.169603 4.30386e-21)
(0.691777 -1.02153 -3.57636e-21)
(0.595148 -0.951859 8.91676e-21)
(0.515527 -0.84328 8.18792e-21)
(0.45777 -0.707892 3.74643e-20)
(0.414391 -0.530062 -2.00796e-20)
(0.391195 -0.364813 -1.79713e-20)
(0.384772 -0.195728 -5.44081e-21)
(0.408861 -0.0735714 2.26877e-21)
(0.527363 0.0080097 -3.82024e-21)
(0.633254 0.106111 2.76045e-21)
(0.736387 -1.01022 -2.23796e-21)
(0.676606 -0.985063 5.02778e-21)
(0.619973 -0.898589 -2.74538e-20)
(0.575257 -0.803101 -2.67882e-20)
(0.528158 -0.660397 -1.6176e-21)
(0.495155 -0.522792 8.17931e-21)
(0.465397 -0.377435 2.42275e-21)
(0.446806 -0.24357 -8.65604e-22)
(0.524803 -0.155851 1.75443e-21)
(0.62354 0.010439 -1.17542e-20)
(0.761321 -0.959981 3.94629e-21)
(0.740186 -0.960976 -1.82151e-20)
(0.714434 -0.889096 8.47618e-22)
(0.680281 -0.814097 -1.96848e-21)
(0.640082 -0.701302 6.70705e-21)
(0.599288 -0.58399 -2.51138e-20)
(0.556968 -0.488252 -2.28064e-22)
(0.525291 -0.346782 -3.06415e-21)
(0.560418 -0.303296 -1.04741e-20)
(0.653069 -0.131571 5.34115e-21)
(0.782375 -0.940774 -2.69316e-21)
(0.792011 -0.951045 1.93436e-20)
(0.800594 -0.893836 -1.07529e-20)
(0.784033 -0.810946 2.953e-20)
(0.754551 -0.70254 3.28853e-20)
(0.708659 -0.580036 3.55479e-20)
(0.670423 -0.507201 -1.13478e-21)
(0.624159 -0.376992 6.48167e-22)
(0.648917 -0.350148 1.20291e-20)
(0.697723 -0.245723 5.93209e-21)
(0.776421 -1.00034 8.72227e-21)
(0.819749 -1.01406 1.73593e-20)
(0.87007 -0.975784 2.85849e-22)
(0.888321 -0.872099 -9.89142e-21)
(0.870078 -0.74544 -1.30543e-20)
(0.830686 -0.58378 -1.23643e-20)
(0.787679 -0.491823 -5.2719e-22)
(0.732404 -0.367146 4.8463e-21)
(0.740345 -0.31817 -2.82028e-21)
(0.7147 -0.300805 -4.9663e-21)
(0.765895 -1.05082 4.2114e-22)
(0.840992 -1.08498 -1.38046e-21)
(0.946555 -1.0772 4.31909e-20)
(1.00026 -0.993994 2.85013e-20)
(1.00874 -0.860133 -1.99035e-20)
(0.971247 -0.662893 3.39399e-20)
(0.91836 -0.514581 -5.09344e-21)
(0.861721 -0.356502 9.36322e-21)
(0.807079 -0.259606 1.04607e-22)
(0.743337 -0.266669 1.66379e-21)
(0.714484 -1.04436 1.35015e-21)
(0.823735 -1.09882 -4.40844e-20)
(0.982912 -1.1326 -1.2163e-21)
(1.08214 -1.09101 -1.63777e-20)
(1.15611 -0.99353 7.09293e-21)
(1.13267 -0.816939 -8.69804e-20)
(1.08183 -0.630797 5.54056e-20)
(1.00668 -0.441097 5.66884e-21)
(0.894947 -0.263384 3.32753e-21)
(0.794484 -0.203738 -9.34069e-21)
(0.656688 -0.910051 -7.14997e-21)
(0.810064 -0.97418 -1.42467e-20)
(1.00765 -1.04933 3.49341e-20)
(1.14111 -1.06149 6.19683e-20)
(1.25311 -1.04102 -8.48565e-20)
(1.28184 -0.940808 4.78962e-20)
(1.23244 -0.797641 -1.00024e-20)
(1.17458 -0.625847 -2.47427e-20)
(1.04727 -0.417156 2.5728e-20)
(0.906208 -0.271524 -8.06485e-21)
(0.594063 -0.604917 -7.46664e-21)
(0.789086 -0.655101 9.7539e-20)
(1.01466 -0.747952 -5.92499e-20)
(1.17787 -0.823248 -1.18272e-19)
(1.31882 -0.874329 -7.10825e-20)
(1.39434 -0.879905 8.55937e-20)
(1.33942 -0.8253 -4.88752e-20)
(1.33677 -0.721727 -3.56611e-20)
(1.16672 -0.600794 -5.47694e-20)
(1.05036 -0.409801 1.26184e-20)
(0.57088 -0.137825 6.70481e-21)
(0.779205 -0.163696 -7.59763e-20)
(1.0073 -0.258842 4.04602e-20)
(1.19973 -0.355102 -4.20094e-20)
(1.36095 -0.477631 1.19995e-19)
(1.46466 -0.556737 3.87398e-21)
(1.47902 -0.620246 1.19404e-19)
(1.45919 -0.614781 3.27485e-20)
(1.32279 -0.63502 4.11625e-20)
(1.23625 -0.497398 2.34511e-20)
(0.552653 0.362594 8.14331e-22)
(0.75861 0.366358 3.135e-20)
(0.981591 0.285745 -5.58156e-20)
(1.18424 0.205746 1.14215e-19)
(1.36127 0.0279539 -2.49756e-20)
(1.47094 -0.0794656 -1.06806e-19)
(1.52118 -0.259139 -3.53409e-20)
(1.4595 -0.325934 -4.84806e-20)
(1.46578 -0.453442 -1.78972e-20)
(1.28571 -0.457492 -1.987e-20)
(0.568615 0.721607 7.45365e-22)
(0.734692 0.765863 -4.48033e-22)
(0.936342 0.714414 -3.97351e-20)
(1.13399 0.661575 -2.31686e-20)
(1.31451 0.501527 7.0136e-20)
(1.43232 0.374189 -1.16394e-20)
(1.49927 0.163099 -5.51409e-20)
(1.47464 0.0348763 4.46582e-20)
(1.52719 -0.122688 -1.62541e-20)
(1.29157 -0.255463 -1.40745e-20)
(0.59916 0.872319 2.85542e-21)
(0.716927 0.931352 -2.74101e-20)
(0.862761 0.916614 5.19225e-20)
(1.0293 0.880237 8.83741e-21)
(1.16767 0.773034 7.63385e-21)
(1.28733 0.664629 -1.23383e-20)
(1.38016 0.488828 -6.91581e-20)
(1.40502 0.358241 3.87084e-21)
(1.45706 0.19999 4.35694e-20)
(1.34232 0.00351606 1.33188e-20)
(0.64481 0.893289 -5.00174e-21)
(0.72874 0.925649 3.09452e-20)
(0.819497 0.923666 2.56271e-20)
(0.937217 0.904578 -3.68045e-20)
(1.05534 0.827345 -4.40985e-20)
(1.16332 0.765008 1.57754e-20)
(1.25279 0.638777 4.01535e-20)
(1.29099 0.548413 2.70767e-22)
(1.3307 0.430408 -1.92707e-21)
(1.3299 0.286231 1.26858e-20)
(0.662437 0.888605 2.02499e-21)
(0.701299 0.887595 -1.15478e-20)
(0.767601 0.876466 -1.2488e-20)
(0.834991 0.855496 1.00317e-20)
(0.914623 0.798057 3.00901e-20)
(1.00216 0.739509 6.29242e-20)
(1.08537 0.643435 5.27137e-20)
(1.15163 0.566011 5.06217e-21)
(1.21316 0.47499 -2.40453e-20)
(1.2728 0.385654 -2.21177e-20)
(0.932916 0.630748 -2.22329e-20)
(0.982022 0.573694 -1.06819e-21)
(1.04155 0.498731 1.5596e-20)
(1.12049 0.418406 1.16098e-21)
(0.927497 0.281801 0)
(0.95022 0.23638 0)
(0.967775 0.186115 0)
(0.972955 0.150264 0)
(0.975409 0.120086 0)
(0.981958 0.0920291 0)
(0.988082 0.0699138 0)
(0.993586 0.0529829 0)
(0.999031 0.0399972 0)
(1.00235 0.0305971 0)
(1.00558 0.0234996 0)
(1.00923 0.0177677 0)
(1.01116 0.0141568 0)
(1.01311 0.0105966 0)
(1.01344 0.00920076 0)
(1.01581 0.00762987 0)
(1.01676 0.00651122 0)
(1.01709 0.00519777 0)
(1.01834 0.00303652 0)
(1.01853 0.000648198 0)
(1.01817 -0.00102924 0)
(1.01769 -0.00215003 0)
(1.01703 -0.00270269 0)
(1.01631 -0.00278684 0)
(1.01569 -0.0026073 0)
(1.01511 -0.00222281 0)
(1.01452 -0.00186653 0)
(1.01409 -0.00122541 0)
(1.01381 -0.000723922 0)
(1.01355 -0.000378715 0)
(0.891111 0.255163 0)
(0.929538 0.213845 0)
(0.941887 0.175256 0)
(0.951114 0.141305 0)
(0.960837 0.110592 0)
(0.96934 0.0824847 0)
(0.978012 0.0619839 0)
(0.987014 0.0464739 0)
(0.995542 0.03518 0)
(1.00247 0.0284606 0)
(1.00912 0.0228744 0)
(1.0138 0.018973 0)
(1.01828 0.0161925 0)
(1.02086 0.0141219 0)
(1.02295 0.0119879 0)
(1.02485 0.0104598 0)
(1.02406 0.00868573 0)
(1.02361 0.00680512 0)
(1.02322 0.00406935 0)
(1.0222 0.00161917 0)
(1.02122 -0.000323208 0)
(1.0201 -0.00160365 0)
(1.01894 -0.00229595 0)
(1.01782 -0.00251955 0)
(1.01686 -0.0024439 0)
(1.01597 -0.00213495 0)
(1.01519 -0.00183681 0)
(1.01462 -0.00122877 0)
(1.01426 -0.000725122 0)
(1.01397 -0.000374098 0)
(0.85027 0.218028 0)
(0.88451 0.188498 0)
(0.915593 0.148162 0)
(0.933709 0.117103 0)
(0.948291 0.0901889 0)
(0.96253 0.0693558 0)
(0.977495 0.0519568 0)
(0.991196 0.03734 0)
(1.00065 0.0280795 0)
(1.00633 0.0223569 0)
(1.01088 0.0177935 0)
(1.01418 0.0142825 0)
(1.01588 0.0123939 0)
(1.01635 0.00997265 0)
(1.01796 0.00864662 0)
(1.01858 0.00750394 0)
(1.0185 0.00694101 0)
(1.0191 0.00534109 0)
(1.01918 0.0033808 0)
(1.0192 0.00111013 0)
(1.01904 -0.000663518 0)
(1.01857 -0.00181588 0)
(1.01789 -0.00239678 0)
(1.01713 -0.0025337 0)
(1.01638 -0.00240489 0)
(1.0156 -0.00205377 0)
(1.01491 -0.00175038 0)
(1.01434 -0.00117097 0)
(1.01397 -0.000690144 0)
(1.01367 -0.000358365 0)
(0.815212 0.169346 0)
(0.827584 0.157837 0)
(0.869805 0.122174 0)
(0.900627 0.0946761 0)
(0.924302 0.0711216 0)
(0.940894 0.0522869 0)
(0.957623 0.0372297 0)
(0.974888 0.0258891 0)
(0.988863 0.0183092 0)
(1.00068 0.0141026 0)
(1.00938 0.0116642 0)
(1.01528 0.0105924 0)
(1.01969 0.0102117 0)
(1.02353 0.00953859 0)
(1.02598 0.00838603 0)
(1.02638 0.00815047 0)
(1.02598 0.00681888 0)
(1.02481 0.00540569 0)
(1.02345 0.00339243 0)
(1.02248 0.0013388 0)
(1.02157 -0.000373808 0)
(1.02055 -0.00151044 0)
(1.01945 -0.00213982 0)
(1.01837 -0.00236137 0)
(1.01733 -0.00229483 0)
(1.01635 -0.00200067 0)
(1.01553 -0.00174048 0)
(1.01487 -0.00117996 0)
(1.01447 -0.000693506 0)
(1.01415 -0.000353664 0)
(0.785243 0.108152 0)
(0.799777 0.0996676 0)
(0.841041 0.0725928 0)
(0.875116 0.0569175 0)
(0.902243 0.0429355 0)
(0.928634 0.0312878 0)
(0.954863 0.0212031 0)
(0.975764 0.0131509 0)
(0.99116 0.00912335 0)
(1.00109 0.00754667 0)
(1.00773 0.00686094 0)
(1.01178 0.00700674 0)
(1.01408 0.00742098 0)
(1.01551 0.00650112 0)
(1.01619 0.00664441 0)
(1.01691 0.00606965 0)
(1.01738 0.00569715 0)
(1.01737 0.00451128 0)
(1.01732 0.0029792 0)
(1.01773 0.000977248 0)
(1.01793 -0.0005917 0)
(1.01791 -0.00162924 0)
(1.01757 -0.00216671 0)
(1.01705 -0.00230843 0)
(1.01639 -0.00219895 0)
(1.0157 -0.00188502 0)
(1.01505 -0.00163073 0)
(1.01445 -0.00111093 0)
(1.01409 -0.000658431 0)
(1.0138 -0.000338238 0)
(0.748327 0.0703404 0)
(0.784205 0.0555658 0)
(0.82386 0.0378701 0)
(0.861399 0.0223278 0)
(0.890934 0.011102 0)
(0.913977 0.00548504 0)
(0.935308 0.000369187 0)
(0.959493 -0.00399876 0)
(0.980633 -0.00707266 0)
(0.996208 -0.00796138 0)
(1.0067 -0.00646559 0)
(1.01358 -0.0039342 0)
(1.0184 -0.00163436 0)
(1.02267 0.000401178 0)
(1.02459 0.00155269 0)
(1.02548 0.00260202 0)
(1.02503 0.00245438 0)
(1.0233 0.00229146 0)
(1.0219 0.00130312 0)
(1.02107 8.37091e-05 0)
(1.0205 -0.00101685 0)
(1.01989 -0.00180713 0)
(1.0191 -0.00223214 0)
(1.01824 -0.00235352 0)
(1.0173 -0.00223758 0)
(1.01644 -0.0019344 0)
(1.01568 -0.00167997 0)
(1.01503 -0.00115095 0)
(1.01465 -0.000676947 0)
(1.01435 -0.000337341 0)
(0.723496 0.0210109 0)
(0.771887 0.000279533 0)
(0.811248 0.00192714 0)
(0.850568 -0.00968459 0)
(0.885636 -0.0135431 0)
(0.916051 -0.0181875 0)
(0.94408 -0.0186128 0)
(0.967135 -0.017708 0)
(0.985202 -0.0145462 0)
(0.998809 -0.0109526 0)
(1.00775 -0.00755819 0)
(1.01207 -0.00376091 0)
(1.01492 -0.000815725 0)
(1.01526 0.000577423 0)
(1.01567 0.00239119 0)
(1.01633 0.0025128 0)
(1.01622 0.00286717 0)
(1.01597 0.00232689 0)
(1.01584 0.00142831 0)
(1.01635 7.29455e-05 0)
(1.01691 -0.00102333 0)
(1.01728 -0.00176431 0)
(1.01728 -0.00214409 0)
(1.01696 -0.00221028 0)
(1.0164 -0.00208279 0)
(1.01581 -0.00179021 0)
(1.01518 -0.00155557 0)
(1.0146 -0.00108103 0)
(1.01423 -0.000646706 0)
(1.01394 -0.000324553 0)
(0.71922 -0.0846302 0)
(0.757185 -0.0930335 0)
(0.807319 -0.0834042 0)
(0.850633 -0.0704783 0)
(0.884997 -0.0580026 0)
(0.910497 -0.0464489 0)
(0.93631 -0.0418011 0)
(0.962378 -0.0388905 0)
(0.985129 -0.0363073 0)
(1.00182 -0.033571 0)
(1.01154 -0.0282239 0)
(1.01791 -0.0222457 0)
(1.02161 -0.0171473 0)
(1.02473 -0.0120744 0)
(1.02609 -0.00855975 0)
(1.02643 -0.00556428 0)
(1.02548 -0.00396227 0)
(1.02332 -0.00261692 0)
(1.02168 -0.0021328 0)
(1.02074 -0.00210935 0)
(1.02031 -0.00229024 0)
(1.01988 -0.0025167 0)
(1.01927 -0.0025898 0)
(1.01847 -0.00250474 0)
(1.01758 -0.00228999 0)
(1.01674 -0.00194279 0)
(1.01596 -0.00166161 0)
(1.01531 -0.00114806 0)
(1.01488 -0.000674353 0)
(1.01458 -0.000326709 0)
(0.741992 -0.199387 0)
(0.778861 -0.176627 0)
(0.83182 -0.1451 0)
(0.876627 -0.117397 0)
(0.907806 -0.0937774 0)
(0.933728 -0.0766113 0)
(0.954044 -0.061567 0)
(0.97188 -0.0467303 0)
(0.989186 -0.0361295 0)
(1.0049 -0.0281381 0)
(1.01473 -0.0209652 0)
(1.01902 -0.0149155 0)
(1.02115 -0.00971389 0)
(1.0198 -0.00634589 0)
(1.01919 -0.00324008 0)
(1.01875 -0.00209128 0)
(1.01768 -0.000979221 0)
(1.01677 -0.000841066 0)
(1.01615 -0.000933324 0)
(1.01636 -0.00139543 0)
(1.01691 -0.0018233 0)
(1.01738 -0.0021228 0)
(1.0175 -0.00224809 0)
(1.01719 -0.00218383 0)
(1.0167 -0.00202284 0)
(1.01607 -0.00172971 0)
(1.01541 -0.00150436 0)
(1.01482 -0.00106526 0)
(1.0144 -0.000640821 0)
(1.0141 -0.000315492 0)
(0.778567 -0.263878 0)
(0.841717 -0.223723 0)
(0.882586 -0.171758 0)
(0.908948 -0.139508 0)
(0.923307 -0.109514 0)
(0.940215 -0.0932452 0)
(0.962317 -0.0815801 0)
(0.982418 -0.0730153 0)
(1.00102 -0.065142 0)
(1.01318 -0.0577407 0)
(1.02033 -0.0493872 0)
(1.0252 -0.0407859 0)
(1.02636 -0.0332007 0)
(1.02816 -0.0257013 0)
(1.0283 -0.0200453 0)
(1.0275 -0.0149137 0)
(1.02608 -0.011377 0)
(1.02358 -0.00841665 0)
(1.02169 -0.00627827 0)
(1.02057 -0.00483251 0)
(1.02012 -0.00393634 0)
(1.01981 -0.0034749 0)
(1.01929 -0.00309066 0)
(1.01854 -0.00274618 0)
(1.01776 -0.0024071 0)
(1.01694 -0.00197914 0)
(1.0162 -0.00166248 0)
(1.01556 -0.00115161 0)
(1.01511 -0.000672804 0)
(1.01482 -0.000319791 0)
(0.829801 -0.222471 0)
(0.914303 -0.194967 0)
(0.945338 -0.172374 0)
(0.953805 -0.15061 0)
(0.960647 -0.131286 0)
(0.965902 -0.107935 0)
(0.973001 -0.0861559 0)
(0.9845 -0.0640608 0)
(1.00018 -0.0490961 0)
(1.01535 -0.0382264 0)
(1.02597 -0.0293819 0)
(1.02904 -0.0227179 0)
(1.02984 -0.016483 0)
(1.02693 -0.0124803 0)
(1.0246 -0.00863026 0)
(1.02241 -0.00658398 0)
(1.02004 -0.00503247 0)
(1.01827 -0.00427634 0)
(1.01684 -0.00359279 0)
(1.01658 -0.00310574 0)
(1.01685 -0.00282224 0)
(1.01729 -0.0026202 0)
(1.01736 -0.00243321 0)
(1.01713 -0.00223836 0)
(1.0167 -0.00202852 0)
(1.0161 -0.00171061 0)
(1.01551 -0.00149022 0)
(1.01494 -0.00106811 0)
(1.01454 -0.000644637 0)
(1.01426 -0.000312216 0)
(0.852759 -0.138599 0)
(0.915149 -0.134134 0)
(0.944822 -0.147521 0)
(0.956449 -0.144986 0)
(0.967742 -0.137874 0)
(0.988505 -0.130167 0)
(1.00592 -0.11653 0)
(1.01797 -0.101809 0)
(1.0247 -0.0876342 0)
(1.02897 -0.0745514 0)
(1.03103 -0.0640419 0)
(1.03275 -0.0532824 0)
(1.03163 -0.0450173 0)
(1.03179 -0.0365561 0)
(1.03022 -0.0295276 0)
(1.02827 -0.0230755 0)
(1.02644 -0.0180914 0)
(1.0236 -0.013777 0)
(1.0216 -0.010201 0)
(1.02033 -0.00754423 0)
(1.0198 -0.00565543 0)
(1.01948 -0.00451508 0)
(1.01895 -0.00366157 0)
(1.01838 -0.00307684 0)
(1.01768 -0.00258577 0)
(1.01696 -0.00206493 0)
(1.01632 -0.00170381 0)
(1.01574 -0.00117859 0)
(1.01534 -0.000686788 0)
(1.01506 -0.000319011 0)
(0.910346 -0.181257 0)
(0.906094 -0.18282 0)
(0.94268 -0.199732 0)
(0.974035 -0.200174 0)
(0.983185 -0.161629 0)
(0.996002 -0.127143 0)
(1.00276 -0.0943888 0)
(1.01255 -0.0696784 0)
(1.02538 -0.0506384 0)
(1.03633 -0.0386996 0)
(1.04381 -0.0290541 0)
(1.04401 -0.0235966 0)
(1.04229 -0.0182417 0)
(1.03738 -0.0148312 0)
(1.03303 -0.0114558 0)
(1.02904 -0.00941874 0)
(1.0248 -0.00797595 0)
(1.02168 -0.00688902 0)
(1.01937 -0.00584512 0)
(1.01819 -0.00463913 0)
(1.01789 -0.00377593 0)
(1.01781 -0.00310532 0)
(1.01766 -0.00266967 0)
(1.01734 -0.00237757 0)
(1.0168 -0.00209705 0)
(1.01622 -0.00176203 0)
(1.01563 -0.00153012 0)
(1.01507 -0.00110639 0)
(1.0147 -0.00067078 0)
(1.01443 -0.000315405 0)
(0.977986 -0.325316 0)
(0.887176 -0.317105 0)
(0.918813 -0.307756 0)
(0.99574 -0.260684 0)
(1.06254 -0.216159 0)
(1.07354 -0.178517 0)
(1.07394 -0.146502 0)
(1.06762 -0.1165 0)
(1.05546 -0.0945134 0)
(1.04873 -0.0761761 0)
(1.04334 -0.0645221 0)
(1.0408 -0.0534028 0)
(1.03769 -0.0463216 0)
(1.03599 -0.0391629 0)
(1.03335 -0.0327862 0)
(1.03032 -0.0268078 0)
(1.02791 -0.0214054 0)
(1.0251 -0.0168268 0)
(1.02308 -0.012611 0)
(1.02155 -0.00933802 0)
(1.02068 -0.00685239 0)
(1.02004 -0.00524918 0)
(1.01944 -0.00411098 0)
(1.01875 -0.00333008 0)
(1.018 -0.00272049 0)
(1.01729 -0.00214709 0)
(1.01662 -0.00174351 0)
(1.01603 -0.00120958 0)
(1.01561 -0.00070637 0)
(1.01533 -0.000319171 0)
(1.07154 -0.451423 0)
(0.975269 -0.418814 0)
(1.02709 -0.339838 0)
(1.08469 -0.231397 0)
(1.08711 -0.167887 0)
(1.07887 -0.118008 0)
(1.0737 -0.0785058 0)
(1.06783 -0.0562052 0)
(1.06888 -0.0367044 0)
(1.06827 -0.0275432 0)
(1.06628 -0.0190829 0)
(1.06123 -0.0161838 0)
(1.05519 -0.0132285 0)
(1.04893 -0.0113819 0)
(1.04313 -0.00995872 0)
(1.03757 -0.00873962 0)
(1.03164 -0.00837349 0)
(1.02729 -0.00762336 0)
(1.0238 -0.00675597 0)
(1.02155 -0.00530828 0)
(1.02026 -0.00421451 0)
(1.01943 -0.00332837 0)
(1.01879 -0.00277934 0)
(1.01808 -0.00242348 0)
(1.01733 -0.00212547 0)
(1.01661 -0.0017914 0)
(1.01592 -0.00155074 0)
(1.01532 -0.00113248 0)
(1.0149 -0.000688357 0)
(1.01463 -0.000315002 0)
(1.1224 -0.44657 0)
(1.10602 -0.389092 0)
(1.18714 -0.286453 0)
(1.23207 -0.214896 0)
(1.21938 -0.174509 0)
(1.18576 -0.134508 0)
(1.14173 -0.11031 0)
(1.10935 -0.0813865 0)
(1.08203 -0.0647501 0)
(1.06254 -0.0498932 0)
(1.05164 -0.0416008 0)
(1.04479 -0.0357297 0)
(1.04064 -0.0322057 0)
(1.03726 -0.0297365 0)
(1.03423 -0.026306 0)
(1.03074 -0.0231885 0)
(1.02841 -0.0191406 0)
(1.02612 -0.0157783 0)
(1.02436 -0.0121068 0)
(1.02286 -0.00925131 0)
(1.02166 -0.00687081 0)
(1.02076 -0.00526661 0)
(1.01995 -0.00409444 0)
(1.01917 -0.00327275 0)
(1.01839 -0.0026636 0)
(1.01765 -0.00209306 0)
(1.01696 -0.00169277 0)
(1.01636 -0.00118483 0)
(1.01591 -0.000695156 0)
(1.01562 -0.000309755 0)
(1.26279 -0.221134 0)
(1.28737 -0.151171 0)
(1.281 -0.0760124 0)
(1.25454 -0.0528133 0)
(1.20395 -0.0303388 0)
(1.16763 -0.0248311 0)
(1.14744 -0.0176887 0)
(1.12477 -0.0106064 0)
(1.10738 -0.00836577 0)
(1.09305 -0.0035508 0)
(1.08115 -0.00338913 0)
(1.07038 -0.00223183 0)
(1.06076 -0.00291951 0)
(1.05481 -0.00260619 0)
(1.04896 -0.00416963 0)
(1.04305 -0.00442917 0)
(1.03653 -0.00592522 0)
(1.0314 -0.00600985 0)
(1.02733 -0.0059313 0)
(1.02424 -0.00483274 0)
(1.02212 -0.00394271 0)
(1.02057 -0.00315196 0)
(1.01942 -0.00264865 0)
(1.01845 -0.00233683 0)
(1.01755 -0.0020672 0)
(1.01677 -0.00175067 0)
(1.01608 -0.00151869 0)
(1.0155 -0.00111826 0)
(1.0151 -0.000680275 0)
(1.01484 -0.000305489 0)
(1.37519 0.00454419 0)
(1.35797 0.0145051 0)
(1.33669 0.0106674 0)
(1.2963 -0.00216812 0)
(1.23957 0.0038168 0)
(1.19957 -0.00642689 0)
(1.14299 0.0102117 0)
(1.11525 0.000735067 0)
(1.0827 0.00946361 0)
(1.06429 0.00409546 0)
(1.05177 0.00407607 0)
(1.04266 -0.00099981 0)
(1.03822 -0.00381822 0)
(1.03351 -0.00887189 0)
(1.03052 -0.0101243 0)
(1.02764 -0.0118281 0)
(1.02604 -0.0107333 0)
(1.02512 -0.0101036 0)
(1.02416 -0.00830672 0)
(1.02311 -0.00690851 0)
(1.0219 -0.00544113 0)
(1.02089 -0.00434531 0)
(1.02004 -0.00349734 0)
(1.01926 -0.0028565 0)
(1.01851 -0.0023747 0)
(1.01783 -0.001896 0)
(1.01719 -0.00155166 0)
(1.01662 -0.00110718 0)
(1.0162 -0.000657426 0)
(1.01593 -0.000290869 0)
(1.3398 0.233989 0)
(1.291 0.217736 0)
(1.27835 0.164362 0)
(1.25132 0.139676 0)
(1.21659 0.093402 0)
(1.18665 0.0647965 0)
(1.15845 0.0465694 0)
(1.13228 0.0270863 0)
(1.10679 0.0200519 0)
(1.08961 0.0154234 0)
(1.07427 0.0100471 0)
(1.06341 0.0109651 0)
(1.05507 0.00706235 0)
(1.05158 0.00681758 0)
(1.04793 0.00264043 0)
(1.04325 0.00107876 0)
(1.038 -0.0021416 0)
(1.03306 -0.00309586 0)
(1.02924 -0.00391276 0)
(1.02593 -0.00352068 0)
(1.02341 -0.00311618 0)
(1.02142 -0.00266157 0)
(1.01993 -0.00234437 0)
(1.01873 -0.002137 0)
(1.01772 -0.00193104 0)
(1.01691 -0.00165461 0)
(1.01623 -0.0014402 0)
(1.01566 -0.0010701 0)
(1.01529 -0.000651107 0)
(1.01505 -0.00028694 0)
(1.27593 0.305001 0)
(1.20899 0.271614 0)
(1.21834 0.216231 0)
(1.14953 0.192413 0)
(1.14033 0.152431 0)
(1.11713 0.137592 0)
(1.10741 0.116508 0)
(1.08381 0.0979002 0)
(1.07287 0.0856729 0)
(1.06 0.0624458 0)
(1.04758 0.0532427 0)
(1.03967 0.0363701 0)
(1.03368 0.0274986 0)
(1.02793 0.0162165 0)
(1.02485 0.0105238 0)
(1.02367 0.00406559 0)
(1.02312 0.00157721 0)
(1.02391 -0.0010753 0)
(1.02395 -0.00202296 0)
(1.0236 -0.00270483 0)
(1.02259 -0.00271168 0)
(1.02158 -0.00251504 0)
(1.02067 -0.00228017 0)
(1.0198 -0.00201515 0)
(1.019 -0.0018033 0)
(1.01826 -0.00151666 0)
(1.01758 -0.00129167 0)
(1.01697 -0.000956329 0)
(1.01653 -0.000581274 0)
(1.01624 -0.000258906 0)
(1.13879 0.308174 0)
(1.098 0.28732 0)
(1.16411 0.188003 0)
(1.09072 0.178844 0)
(1.15624 0.104855 0)
(1.09204 0.111817 0)
(1.1105 0.0396979 0)
(1.07045 0.0438063 0)
(1.06415 0.0200858 0)
(1.05058 0.0185695 0)
(1.04549 0.0131977 0)
(1.0418 0.0127992 0)
(1.03927 0.00962762 0)
(1.03986 0.00920948 0)
(1.03999 0.00477042 0)
(1.03766 0.0031447 0)
(1.03508 0.000101768 0)
(1.03151 -0.000904823 0)
(1.0289 -0.0019023 0)
(1.02619 -0.0020483 0)
(1.02385 -0.0020335 0)
(1.02185 -0.00194616 0)
(1.02023 -0.00182722 0)
(1.01897 -0.00173575 0)
(1.01793 -0.00161683 0)
(1.0171 -0.0014045 0)
(1.01643 -0.00123791 0)
(1.01587 -0.000930051 0)
(1.0155 -0.000566019 0)
(1.01526 -0.000249856 0)
(1.02115 0.385032 0)
(0.9907 0.369986 0)
(1.10441 0.145427 9.41648e-20)
(1.07802 0.128791 -3.05832e-20)
(1.05271 0.119439 1.71961e-20)
(1.03402 0.102239 7.22252e-21)
(1.02296 0.0886941 -5.98571e-21)
(1.01544 0.0714439 6.18148e-21)
(1.01177 0.0564841 -2.15655e-20)
(1.01017 0.0444503 1.11215e-20)
(1.01112 0.0343662 -1.21279e-20)
(1.01301 0.0268589 -1.31922e-21)
(1.07838 0.189752 -9.10199e-22)
(1.07045 0.148283 1.3564e-20)
(1.06575 0.113925 3.73608e-20)
(1.05339 0.0855228 -5.50516e-22)
(1.03672 0.0718217 1.17277e-20)
(1.02692 0.0573232 -1.87565e-20)
(1.02228 0.0455636 -1.36275e-20)
(1.0198 0.035573 1.90848e-20)
(1.01706 0.0284788 -4.47147e-21)
(1.01615 0.0213898 -1.56584e-21)
(1.01569 0.0157885 -1.39847e-21)
(1.01605 0.0110866 3.76931e-22)
(1.01598 0.00779309 -3.27563e-21)
(1.0159 0.00514348 2.97858e-21)
(1.01709 0.0034705 1.95838e-21)
(1.01692 0.00280524 -1.7202e-21)
(1.01803 0.00181442 1.06768e-21)
(1.01989 0.000260042 -6.47059e-22)
(1.01973 -0.000915541 -2.78659e-23)
(1.01941 -0.00220607 -3.47289e-23)
(1.01863 -0.00307761 1.82678e-23)
(1.01752 -0.0033876 1.33171e-22)
(1.01663 -0.00346532 6.16415e-26)
(1.01589 -0.00329192 -3.89657e-22)
(1.01517 -0.00290971 2.68778e-22)
(1.01464 -0.00243137 -1.06318e-22)
(1.01414 -0.00200971 8.63722e-23)
(1.01373 -0.00126289 -1.64233e-22)
(1.01347 -0.000757884 -1.79217e-22)
(1.01325 -0.000409917 -4.98484e-22)
(1.02817 0.218249 1.13434e-19)
(1.00843 0.19384 -5.5058e-20)
(1.00763 0.163764 -2.54316e-20)
(1.00787 0.131905 1.22806e-20)
(1.00372 0.108043 2.68992e-20)
(0.998615 0.0862018 -2.84924e-20)
(0.997114 0.0682183 8.71433e-21)
(0.997421 0.0542949 -1.08737e-20)
(1.00025 0.0426064 9.62926e-21)
(1.00403 0.0336361 2.56877e-21)
(1.00757 0.0263036 -6.75119e-21)
(1.01026 0.0211626 -7.16469e-22)
(1.01218 0.0174016 2.32276e-21)
(1.01458 0.0142248 6.56466e-22)
(1.01765 0.0114906 8.71389e-22)
(1.01803 0.0102764 -6.90607e-22)
(1.02026 0.00753708 -2.06517e-22)
(1.02172 0.004956 -1.26247e-22)
(1.02112 0.0026349 1.76356e-22)
(1.02087 0.000249273 1.51849e-23)
(1.01976 -0.00141578 -2.83262e-23)
(1.01847 -0.00228408 3.66814e-24)
(1.01748 -0.00278417 -2.97097e-23)
(1.0166 -0.00287026 -1.85214e-22)
(1.01578 -0.00266138 3.40347e-22)
(1.01519 -0.00230714 -8.40815e-24)
(1.0146 -0.00196191 9.85791e-23)
(1.01415 -0.00126598 -1.92551e-22)
(1.01388 -0.00076286 2.75917e-22)
(1.01364 -0.00040736 8.71455e-23)
(1.03175 0.241518 -4.66476e-20)
(1.02504 0.191291 -2.71361e-20)
(1.01985 0.150126 4.32824e-20)