/*--------------------------------*- C++ -*----------------------------------*\
| =========                 |                                                 |
| \\      /  F ield         | OpenFOAM: The Open Source CFD Toolbox           |
|  \\    /   O peration     | Version:                                        |
|   \\  /    A nd           | Website:  www.openfoam.com                      |
|    \\/     M anipulation  |                                                 |
\*---------------------------------------------------------------------------*/
FoamFile
{
    version     2.0;
    format      ascii;
    class       volScalarField;
    location    "191";
    object      p;
}
// * * * * * * * * * * * * * * * * * * * * * * * * * * * * * * * * * * * * * //

dimensions      [0 2 -2 0 0 0 0];


internalField   nonuniform List<scalar> 
1153
(
-1.04188
-1.03906
-1.034
-1.02235
-1.00376
-0.973493
-0.926567
-0.860502
-0.777016
-0.681463
-1.04687
-1.04788
-1.04583
-1.03003
-0.995642
-0.94397
-0.87987
-0.807124
-0.728136
-0.64465
-0.559946
-0.478301
-1.05478
-1.05997
-1.05168
-1.02587
-0.973436
-0.906711
-0.83393
-0.759998
-0.687358
-0.615286
-0.543188
-0.473712
-0.408526
-0.349388
-1.06197
-1.06726
-1.0511
-1.00684
-0.94404
-0.87344
-0.80114
-0.73112
-0.664402
-0.599666
-0.536237
-0.47428
-0.415375
-0.36106
-0.312914
-0.270441
-0.232701
-1.06935
-1.05767
-1.0445
-0.988545
-0.918996
-0.846733
-0.775571
-0.707858
-0.644044
-0.583693
-0.525564
-0.469647
-0.416877
-0.36776
-0.322824
-0.282977
-0.247749
-0.216146
-0.187443
-0.161636
-1.10333
-1.06955
-1.02694
-0.9637
-0.891264
-0.818471
-0.748497
-0.682252
-0.620488
-0.563131
-0.509645
-0.459538
-0.412386
-0.368577
-0.328695
-0.292277
-0.25934
-0.229464
-0.20216
-0.176354
-1.10421
-1.09016
-1.01384
-0.931628
-0.85607
-0.786221
-0.720199
-0.658179
-0.600756
-0.548065
-0.499375
-0.453317
-0.409712
-0.368858
-0.330786
-0.296197
-0.264572
-0.235896
-0.210381
-0.186866
-1.06373
-1.0599
-0.982138
-0.89786
-0.822373
-0.754923
-0.693001
-0.635114
-0.58084
-0.530264
-0.482989
-0.439202
-0.39856
-0.360907
-0.326432
-0.294561
-0.265693
-0.239135
-0.214038
-0.190841
-1.02555
-1.00528
-0.941657
-0.864173
-0.790905
-0.724127
-0.66287
-0.606097
-0.553531
-0.505057
-0.460875
-0.420378
-0.383081
-0.348581
-0.316605
-0.287298
-0.260079
-0.235576
-0.213486
-0.192266
-1.01123
-0.972243
-0.909032
-0.831667
-0.758175
-0.690838
-0.630167
-0.575553
-0.52593
-0.480613
-0.438717
-0.400171
-0.36472
-0.332076
-0.301964
-0.274503
-0.24983
-0.226975
-0.206116
-0.187368
-0.629594
-0.652602
-0.693934
-0.704975
-0.735722
-0.787599
-0.848982
-0.813634
-0.860131
-0.927075
-0.996269
-0.960956
-1.01039
-1.07891
-1.15101
-1.08
-1.12862
-1.20438
-1.26746
-1.14175
-1.18051
-1.2438
-1.29714
-1.32813
-1.13716
-1.1632
-1.21032
-1.24693
-1.26329
-1.25412
-1.09262
-1.10184
-1.12527
-1.14809
-1.15517
-1.14493
-1.11536
-1.05571
-1.05431
-1.06189
-1.06651
-1.06325
-1.0526
-1.02884
-0.980199
-1.04406
-1.039
-1.03508
-1.02727
-1.01624
-1.00091
-0.969955
-0.914618
-0.833034
-0.168555
-0.169811
-0.166958
-0.16108
-0.14898
-0.148353
-0.147044
-0.141877
-0.134678
-0.124408
-0.129716
-0.126496
-0.120365
-0.113971
-0.107407
-0.113153
-0.109431
-0.104029
-0.0984848
-0.0942817
-0.0977599
-0.0944359
-0.0896155
-0.0841676
-0.0802385
-0.0731751
-0.0843665
-0.0813472
-0.0767198
-0.07102
-0.0666069
-0.0603979
-0.071883
-0.0689951
-0.0647108
-0.0593565
-0.0551973
-0.0511172
-0.0605004
-0.0579622
-0.0542392
-0.0497637
-0.0462118
-0.0436597
-0.0502831
-0.0482038
-0.0450017
-0.041365
-0.0380674
-0.0353115
-0.0411744
-0.039426
-0.0365942
-0.0332584
-0.0297842
-0.0269998
-0.0330518
-0.0314991
-0.0290681
-0.0261579
-0.0233931
-0.0218304
-0.0259614
-0.0246378
-0.0227416
-0.0205204
-0.0184642
-0.0168694
-0.0197828
-0.0185963
-0.0169509
-0.0148712
-0.0125858
-0.0105643
-0.0142051
-0.0130641
-0.0115435
-0.00971916
-0.00798004
-0.00699995
-0.00921786
-0.0082812
-0.00711899
-0.00579832
-0.0045478
-0.00355744
-0.0047877
-0.00402895
-0.00307144
-0.0018801
-0.000577526
0.000565642
-0.000744642
-9.04585e-05
0.000707929
0.00168578
0.00266796
0.00335578
0.00286202
0.00336735
0.00394974
0.0046566
0.00540053
0.00602683
0.00607741
0.00644632
0.00688778
0.00745978
0.00810421
0.00864922
0.00897386
0.00921931
0.00952458
0.0099415
0.0104116
0.010797
0.0115402
0.0116744
0.011836
0.0120985
0.0124349
0.0127547
0.0137615
0.0138255
0.0138835
0.0140317
0.0142721
0.0145286
0.0156496
0.0156852
0.0156794
0.0157285
0.0158576
0.0160204
0.0171975
0.017215
0.017169
0.0171519
0.0172125
0.0173317
0.0184431
0.0184569
0.0184123
0.0183784
0.0183994
0.0184643
0.019441
0.0194395
0.0193892
0.0193344
0.0193124
0.0193275
0.0202232
0.0201926
0.0201362
0.0200807
0.0200527
0.0200574
0.0207762
0.0207225
0.0206637
0.0206128
0.0205816
0.0205706
0.0210515
0.0210057
0.0209578
0.0209139
0.020881
0.0208612
0.0212192
0.0211873
0.0211541
0.021123
0.0210966
0.0210768
-0.0100669
-0.00947577
-0.00949288
-0.010243
-0.011973
-0.0149206
-0.0191274
-0.0245272
-0.0311631
-0.0392389
-0.0490576
-0.0612313
-0.0763021
-0.094845
-0.118139
-0.147992
-0.186829
-0.23661
-0.300911
-0.404657
-0.0317171
-0.0315736
-0.0348067
-0.039824
-0.045448
-0.0517079
-0.0588919
-0.0673199
-0.0773458
-0.0894089
-0.103801
-0.120785
-0.141141
-0.16595
-0.196636
-0.234558
-0.281977
-0.340959
-0.413189
-0.534507
-0.0503081
-0.052567
-0.0592401
-0.0681288
-0.0776568
-0.0873784
-0.0979547
-0.109868
-0.123378
-0.138923
-0.157248
-0.179037
-0.204923
-0.235599
-0.272299
-0.316929
-0.372234
-0.439833
-0.519456
-0.655464
-0.071063
-0.075867
-0.0849172
-0.0961816
-0.108353
-0.121044
-0.13468
-0.150054
-0.167521
-0.18712
-0.209353
-0.234871
-0.264715
-0.300148
-0.342693
-0.394007
-0.456882
-0.532639
-0.616875
-0.761547
-0.0934368
-0.100606
-0.111821
-0.125038
-0.138988
-0.153791
-0.170024
-0.188052
-0.208495
-0.231633
-0.257762
-0.287702
-0.322329
-0.362559
-0.409447
-0.464732
-0.532426
-0.616197
-0.704562
-0.85234
-0.115313
-0.124325
-0.137447
-0.152677
-0.168628
-0.185408
-0.203912
-0.224618
-0.247787
-0.274024
-0.303648
-0.336968
-0.374804
-0.418535
-0.469727
-0.529449
-0.599951
-0.690265
-0.782032
-0.921833
-0.13515
-0.146475
-0.161219
-0.177776
-0.195683
-0.21472
-0.235405
-0.258463
-0.284013
-0.312405
-0.344406
-0.380833
-0.422402
-0.469911
-0.524544
-0.587277
-0.658394
-0.75041
-0.848108
-0.973046
-0.152076
-0.165651
-0.182409
-0.200342
-0.219472
-0.240628
-0.26382
-0.289381
-0.317794
-0.349316
-0.384391
-0.423466
-0.467131
-0.516174
-0.572656
-0.637388
-0.711706
-0.800408
-0.896251
-1.00422
-0.166586
-0.182258
-0.20025
-0.219945
-0.240922
-0.263555
-0.288827
-0.316797
-0.347532
-0.38113
-0.418019
-0.458963
-0.505083
-0.557224
-0.616227
-0.682652
-0.75733
-0.841366
-0.927368
-1.0177
-0.177905
-0.195886
-0.215029
-0.235724
-0.25892
-0.284116
-0.311154
-0.340833
-0.373602
-0.409892
-0.449936
-0.493952
-0.542222
-0.595627
-0.655099
-0.721513
-0.795041
-0.875761
-0.95162
-1.01814
0.216274
0.229248
0.243612
0.259473
0.276889
0.295846
0.316298
0.338145
0.361317
0.385719
0.411177
0.437416
0.463943
0.489782
0.513589
0.532622
0.54445
0.207238
0.219726
0.233464
0.248604
0.265292
0.28356
0.303327
0.324451
0.346813
0.37028
0.394716
0.41987
0.445263
0.46991
0.492453
0.509757
0.519579
0.193905
0.205569
0.218495
0.23273
0.248397
0.2655
0.283955
0.303622
0.324392
0.346116
0.368624
0.391566
0.41439
0.436052
0.455102
0.46894
0.475867
0.167923
0.176824
0.187382
0.199245
0.212313
0.226625
0.242155
0.258774
0.276326
0.294713
0.313821
0.333457
0.35314
0.372158
0.389332
0.403255
0.410955
0.411851
0.148826
0.156328
0.165687
0.176268
0.187799
0.200283
0.213727
0.227992
0.242857
0.258161
0.273798
0.289554
0.304942
0.319106
0.330619
0.337931
0.337971
0.330094
0.123654
0.126745
0.132715
0.140695
0.149763
0.159426
0.169622
0.180449
0.191842
0.203558
0.215285
0.226815
0.237914
0.248034
0.256279
0.261126
0.260787
0.251372
0.231106
0.103364
0.100931
0.102237
0.106724
0.113209
0.120537
0.128113
0.135742
0.143492
0.151381
0.15928
0.166882
0.173798
0.179581
0.183705
0.185239
0.182378
0.172987
0.152948
0.118788
0.080575
0.0754404
0.0749967
0.0781517
0.0831007
0.0885282
0.0938292
0.0987975
0.103397
0.107631
0.111357
0.114289
0.116071
0.116155
0.113571
0.107308
0.0959235
0.0772209
0.045874
-0.00549617
0.0558447
0.0485599
0.0469378
0.0489816
0.0520421
0.0548463
0.0570599
0.0587715
0.0599453
0.0604285
0.059976
0.0582148
0.0545524
0.0484505
0.0391915
0.0253247
0.00464277
-0.0248811
-0.0678624
-0.135629
0.0256073
0.0188533
0.0183968
0.0198223
0.0208461
0.0207201
0.0194867
0.0174706
0.014681
0.0109255
0.00581358
-0.000947266
-0.0098907
-0.0220747
-0.0387204
-0.0609075
-0.0904575
-0.129878
-0.183845
-0.27091
0.0873316
0.0664594
0.0530613
0.040905
0.0342887
0.0155244
0.0227614
0.00825889
0.0153605
0.00272572
0.00936935
-0.00194608
0.00460678
-0.00551522
0.00105031
-0.00800136
-0.00143324
-0.00953749
-0.0030135
-0.0102509
-0.00380548
-0.0102533
-0.00386172
-0.00959493
-0.00329095
-0.00837499
-0.00225622
-0.00670997
-0.000827067
-0.00467045
0.000870234
-0.00237693
0.00270157
5.94473e-05
0.00457908
0.00250543
0.00647788
0.00487745
0.00840149
0.00714185
0.0103328
0.00929979
0.0122185
0.0113528
0.0139981
0.0132836
0.015634
0.0150652
0.0171151
0.0166777
0.0184366
0.0181138
0.0196097
0.0193835
0.0206386
0.0204957
0.0214455
0.0213652
0.0219575
0.0218772
0.022995
0.022701
0.0231318
0.0228133
-0.00939062
-0.0347131
-0.0530853
-0.070449
-0.0901282
-0.110163
-0.127023
-0.141809
-0.153791
-0.162817
-0.0107194
-0.0357614
-0.0561523
-0.0714856
-0.0876922
-0.104305
-0.118444
-0.130864
-0.139787
-0.146296
-0.0133833
-0.0355634
-0.0556419
-0.0700201
-0.0831685
-0.0962234
-0.107867
-0.11821
-0.124806
-0.129748
-0.0159385
-0.0353606
-0.054255
-0.0683636
-0.079466
-0.0898221
-0.0986241
-0.10683
-0.110856
-0.114418
-0.0179686
-0.035068
-0.0519795
-0.0649165
-0.0743394
-0.0823092
-0.0885996
-0.0947061
-0.0970993
-0.0992959
-0.0193437
-0.0344237
-0.0490468
-0.0604735
-0.0686667
-0.0749568
-0.0794504
-0.083526
-0.0848596
-0.0857347
-0.019887
-0.033239
-0.0456293
-0.0552354
-0.0623162
-0.0673271
-0.0705101
-0.0728023
-0.0733581
-0.0731981
-0.0195975
-0.031422
-0.0417255
-0.0495438
-0.0555798
-0.0596772
-0.0619952
-0.062917
-0.0627626
-0.0619447
-0.0185651
-0.0288594
-0.0373356
-0.0436356
-0.0486454
-0.0520932
-0.0537997
-0.0538178
-0.0530027
-0.0517419
-0.0169047
-0.0257061
-0.0325923
-0.0376532
-0.0417547
-0.0446755
-0.0459367
-0.045478
-0.0441595
-0.0426239
-0.0147816
-0.0221929
-0.0276601
-0.031665
-0.0350254
-0.0374981
-0.0384444
-0.0377777
-0.0362
-0.034491
-0.0122854
-0.0184669
-0.0227127
-0.0257941
-0.0285414
-0.0306546
-0.0313806
-0.0306549
-0.0290467
-0.0273437
-0.00951151
-0.0146681
-0.0179203
-0.0201813
-0.0223707
-0.0241792
-0.0247828
-0.024079
-0.022601
-0.0210542
-0.00655243
-0.0108847
-0.0133658
-0.0149259
-0.0165833
-0.0181204
-0.0186849
-0.0180702
-0.0167486
-0.0153653
-0.00348141
-0.00714708
-0.0090895
-0.0101036
-0.0112576
-0.0125114
-0.0130753
-0.012601
-0.011449
-0.0102261
-0.00039634
-0.00346853
-0.00506025
-0.00571492
-0.00643943
-0.0073872
-0.00793568
-0.00764541
-0.00670635
-0.00565103
0.00259885
0.000111535
-0.0012316
-0.00171647
-0.00215327
-0.00280714
-0.00328328
-0.00314242
-0.0024123
-0.00150733
0.00540756
0.0034945
0.00238949
0.00196122
0.00165607
0.00122055
0.00087284
0.000952505
0.00150673
0.00223389
0.00798993
0.00658314
0.00573523
0.00534131
0.00506195
0.00474226
0.00452082
0.00461256
0.00504792
0.00560546
0.0103455
0.00932643
0.00871681
0.0083828
0.00810311
0.00782584
0.00768858
0.00781946
0.00820044
0.00863682
0.012498
0.0117493
0.0113187
0.0110569
0.0107916
0.0105305
0.0104259
0.0105772
0.0109296
0.0112973
0.0144548
0.0138916
0.013575
0.0133716
0.0131381
0.0128951
0.0127928
0.0129283
0.0132449
0.0135696
0.0162122
0.0157842
0.0155359
0.015368
0.0151652
0.014943
0.0148304
0.0149258
0.0151911
0.0154791
0.0177733
0.017451
0.0172441
0.0170889
0.0169046
0.0167011
0.0165766
0.0166215
0.0168188
0.0170531
0.0191485
0.018912
0.0187336
0.018578
0.0183979
0.0182035
0.0180648
0.0180537
0.0181698
0.0183329
0.020356
0.0201993
0.0200489
0.0198873
0.0196959
0.0194924
0.0193301
0.0192626
0.0192961
0.0193796
0.0213058
0.0212324
0.0211351
0.0209962
0.0208093
0.0205963
0.0204035
0.0202759
0.0202258
0.0202241
0.02183
0.0217766
0.0217051
0.0216012
0.0214575
0.0212857
0.0211144
0.0209748
0.0208814
0.0208235
0.0223841
0.0220881
0.021848
0.0216592
0.0215077
0.0213824
0.0212797
0.0212
0.0211408
0.0210945
0.0224745
0.0221557
0.021893
0.0216891
0.0215388
0.0214328
0.0213608
0.0213125
0.0212779
0.0212487
)
;

boundaryField
{
    outlet
    {
        type            fixedValue;
        value           nonuniform 0();
    }
    upperWall
    {
        type            symmetryPlane;
    }
    lowerWall
    {
        type            symmetryPlane;
    }
    inlet
    {
        type            zeroGradient;
    }
    cylinder
    {
        type            zeroGradient;
    }
    frontAndBack
    {
        type            empty;
    }
    procBoundary5to1
    {
        type            processor;
        value           nonuniform List<scalar> 
20
(
-0.60094
-0.607739
-0.640176
0.221143
0.23416
0.24881
0.265075
0.282839
0.301997
0.322498
0.344335
0.367472
0.391874
0.417383
0.443601
0.469935
0.495343
0.518486
0.537165
0.549121
)
;
    }
    procBoundary5to4
    {
        type            processor;
        value           nonuniform List<scalar> 
45
(
0.204616
0.196
0.183666
0.183666
0.161071
0.143805
0.143805
0.123543
0.123543
0.10643
0.10643
0.0902424
0.072488
0.072488
0.0595687
0.0466
0.0351715
0.0261937
0.0192711
0.0137794
0.00936868
0.00601311
0.00368781
0.00219847
0.00142635
0.00133283
0.001745
0.00255661
0.00365031
0.00491422
0.00632778
0.00791668
0.00965202
0.0114416
0.0131804
0.0147935
0.0162635
0.0176002
0.0188047
0.0198842
0.0208361
0.0215896
0.0221071
0.023259
0.0234194
)
;
    }
    procBoundary5to6
    {
        type            processor;
        value           nonuniform List<scalar> 
63
(
-0.582927
-0.729968
-0.582927
-0.487692
-0.403068
-0.403068
-0.334497
-0.296503
-0.296503
-0.250538
-0.211147
-0.19913
-0.19913
-0.16977
-0.142592
-0.134517
-0.748121
-0.748121
-0.907981
-1.0519
-1.20219
-1.30947
-1.30947
-1.3274
-1.3274
-1.21729
-1.21729
-1.05958
-1.05958
-0.899383
-0.899383
-0.729968
-0.134517
-0.11109
-0.0974158
-0.0866646
-0.0866646
-0.0664587
-0.0545743
-0.047554
-0.0406088
-0.0315595
-0.0245195
-0.0208309
-0.0147204
-0.00912835
-0.00668784
-0.00244849
0.0013691
0.00373207
0.0065572
0.00902413
0.0110604
0.0129988
0.0147213
0.0161534
0.0174546
0.0185296
0.0193596
0.02008
0.0205702
0.0208517
0.0210637
)
;
    }
}


// ************************************************************************* //
