/*--------------------------------*- C++ -*----------------------------------*\
| =========                 |                                                 |
| \\      /  F ield         | OpenFOAM: The Open Source CFD Toolbox           |
|  \\    /   O peration     | Version:                                        |
|   \\  /    A nd           | Website:  www.openfoam.com                      |
|    \\/     M anipulation  |                                                 |
\*---------------------------------------------------------------------------*/
FoamFile
{
    version     2.0;
    format      ascii;
    class       volScalarField;
    location    "71";
    object      p;
}
// * * * * * * * * * * * * * * * * * * * * * * * * * * * * * * * * * * * * * //

dimensions      [0 2 -2 0 0 0 0];


internalField   nonuniform List<scalar> 
1250
(
32.2626
32.3128
32.3475
32.3513
32.3298
32.2881
32.2299
32.1587
32.0781
31.9909
31.8995
31.8058
31.7113
31.617
31.5237
31.4318
31.3417
31.2535
31.1672
31.0829
31.0005
30.9198
30.8408
30.7634
30.6873
30.6125
30.5389
30.4663
30.3946
30.3238
30.2537
30.1842
30.1154
30.0471
29.9793
29.9118
29.8448
29.778
29.7116
29.6454
29.5794
29.5136
29.448
29.3825
29.3172
29.252
29.1869
29.1219
29.057
28.9922
28.9274
28.8627
28.798
28.7334
28.6688
28.6043
28.5397
28.4752
28.4108
28.3463
28.2819
28.2174
28.153
28.0886
28.0242
27.9598
27.8955
27.8311
27.7667
27.7024
27.638
27.5737
27.5093
27.445
27.3806
27.3163
27.2519
27.1876
27.1232
27.0589
26.9945
26.9302
26.8658
26.8015
26.7371
26.6728
26.6085
26.5441
26.4798
26.4154
26.3511
26.2867
26.2224
26.158
26.0937
26.0293
25.965
25.9006
25.8363
25.7719
25.7076
25.6433
25.5789
25.5146
25.4502
25.3859
25.3215
25.2572
25.1928
25.1285
25.0641
24.9998
24.9354
24.8711
24.8067
24.7424
24.678
24.6137
24.5493
24.485
24.4206
24.3563
24.2919
24.2276
24.1632
32.3894
32.4449
32.4791
32.4746
32.4398
32.3824
32.3079
32.2211
32.1262
32.0266
31.9247
31.8225
31.7212
31.6217
31.5244
31.4296
31.3375
31.2479
31.1609
31.0762
30.9936
30.913
30.8342
30.7571
30.6814
30.607
30.5338
30.4617
30.3904
30.32
30.2502
30.1812
30.1126
30.0446
29.977
29.9099
29.843
29.7765
29.7102
29.6441
29.5783
29.5126
29.4471
29.3818
29.3166
29.2514
29.1864
29.1215
29.0566
28.9918
28.9271
28.8624
28.7978
28.7332
28.6686
28.6041
28.5396
28.4751
28.4106
28.3462
28.2818
28.2174
28.153
28.0886
28.0242
27.9598
27.8954
27.8311
27.7667
27.7023
27.638
27.5736
27.5093
27.4449
27.3806
27.3162
27.2519
27.1876
27.1232
27.0589
26.9945
26.9302
26.8658
26.8015
26.7371
26.6728
26.6085
26.5441
26.4798
26.4154
26.3511
26.2867
26.2224
26.158
26.0937
26.0293
25.965
25.9006
25.8363
25.7719
25.7076
25.6433
25.5789
25.5146
25.4502
25.3859
25.3215
25.2572
25.1928
25.1285
25.0641
24.9998
24.9354
24.8711
24.8067
24.7424
24.678
24.6137
24.5493
24.485
24.4206
24.3563
24.2919
24.2276
24.1632
32.5551
32.6154
32.6456
32.6266
32.5715
32.4919
32.3955
32.2888
32.1766
32.0626
31.949
31.8377
31.7293
31.6246
31.5235
31.4261
31.3322
31.2416
31.1539
31.069
30.9864
30.9061
30.8276
30.7509
30.6756
30.6017
30.5289
30.4572
30.3864
30.3163
30.247
30.1782
30.11
30.0423
29.975
29.908
29.8414
29.775
29.7089
29.643
29.5773
29.5117
29.4463
29.3811
29.3159
29.2509
29.1859
29.1211
29.0563
28.9915
28.9268
28.8622
28.7976
28.733
28.6685
28.6039
28.5395
28.475
28.4105
28.3461
28.2817
28.2173
28.1529
28.0885
28.0241
27.9598
27.8954
27.831
27.7667
27.7023
27.638
27.5736
27.5093
27.4449
27.3806
27.3162
27.2519
27.1875
27.1232
27.0589
26.9945
26.9302
26.8658
26.8015
26.7371
26.6728
26.6085
26.5441
26.4798
26.4154
26.3511
26.2867
26.2224
26.158
26.0937
26.0293
25.965
25.9006
25.8363
25.7719
25.7076
25.6433
25.5789
25.5146
25.4502
25.3859
25.3215
25.2572
25.1928
25.1285
25.0641
24.9998
24.9354
24.8711
24.8067
24.7424
24.678
24.6137
24.5493
24.485
24.4206
24.3563
24.2919
24.2276
24.1632
32.7779
32.84
32.8587
32.8141
32.7277
32.6165
32.4912
32.3596
32.2269
32.0965
31.9704
31.8496
31.7344
31.6247
31.5203
31.4207
31.3254
31.234
31.1461
31.0611
30.9788
30.8988
30.8208
30.7446
30.6698
30.5964
30.5241
30.4528
30.3824
30.3128
30.2438
30.1754
30.1075
30.04
29.973
29.9062
29.8398
29.7736
29.7077
29.6419
29.5763
29.5109
29.4456
29.3804
29.3154
29.2504
29.1855
29.1207
29.0559
28.9912
28.9265
28.8619
28.7974
28.7328
28.6683
28.6038
28.5393
28.4749
28.4105
28.346
28.2816
28.2172
28.1528
28.0885
28.0241
27.9597
27.8954
27.831
27.7667
27.7023
27.638
27.5736
27.5093
27.4449
27.3806
27.3162
27.2519
27.1875
27.1232
27.0589
26.9945
26.9302
26.8658
26.8015
26.7371
26.6728
26.6085
26.5441
26.4798
26.4154
26.3511
26.2867
26.2224
26.158
26.0937
26.0293
25.965
25.9006
25.8363
25.7719
25.7076
25.6433
25.5789
25.5146
25.4502
25.3859
25.3215
25.2572
25.1928
25.1285
25.0641
24.9998
24.9354
24.8711
24.8067
24.7424
24.678
24.6137
24.5493
24.485
24.4206
24.3563
24.2919
24.2276
24.1632
33.0897
33.1437
33.134
33.0446
32.9098
32.7541
32.5912
32.4292
32.273
32.125
31.986
31.8561
31.7346
31.6208
31.5137
31.4125
31.3165
31.2248
31.137
31.0524
30.9705
30.8911
30.8137
30.738
30.6639
30.591
30.5193
30.4485
30.3785
30.3093
30.2407
30.1726
30.1051
30.0379
29.971
29.9045
29.8383
29.7723
29.7065
29.6409
29.5754
29.5101
29.4449
29.3798
29.3148
29.2499
29.1851
29.1203
29.0556
28.9909
28.9263
28.8617
28.7972
28.7326
28.6681
28.6037
28.5392
28.4748
28.4104
28.346
28.2816
28.2172
28.1528
28.0884
28.0241
27.9597
27.8953
27.831
27.7666
27.7023
27.6379
27.5736
27.5093
27.4449
27.3806
27.3162
27.2519
27.1875
27.1232
27.0589
26.9945
26.9302
26.8658
26.8015
26.7371
26.6728
26.6085
26.5441
26.4798
26.4154
26.3511
26.2867
26.2224
26.158
26.0937
26.0293
25.965
25.9006
25.8363
25.7719
25.7076
25.6433
25.5789
25.5146
25.4502
25.3859
25.3215
25.2572
25.1928
25.1285
25.0641
24.9998
24.9354
24.8711
24.8067
24.7424
24.678
24.6137
24.5493
24.485
24.4206
24.3563
24.2919
24.2276
24.1632
33.5476
33.5659
33.4928
33.3249
33.1159
32.8986
32.6879
32.4903
32.3086
32.1428
31.9919
31.8541
31.7277
31.611
31.5024
31.4006
31.3046
31.2133
31.1261
31.0423
30.9612
30.8826
30.806
30.7311
30.6576
30.5854
30.5143
30.444
30.3746
30.3058
30.2376
30.1699
30.1026
30.0357
29.9691
29.9028
29.8368
29.771
29.7053
29.6398
29.5745
29.5093
29.4442
29.3792
29.3143
29.2494
29.1846
29.1199
29.0553
28.9906
28.926
28.8615
28.797
28.7325
28.668
28.6036
28.5391
28.4747
28.4103
28.3459
28.2815
28.2171
28.1528
28.0884
28.024
27.9597
27.8953
27.831
27.7666
27.7023
27.6379
27.5736
27.5092
27.4449
27.3806
27.3162
27.2519
27.1875
27.1232
27.0589
26.9945
26.9302
26.8658
26.8015
26.7371
26.6728
26.6085
26.5441
26.4798
26.4154
26.3511
26.2867
26.2224
26.158
26.0937
26.0293
25.965
25.9006
25.8363
25.7719
25.7076
25.6433
25.5789
25.5146
25.4502
25.3859
25.3215
25.2572
25.1928
25.1285
25.0641
24.9998
24.9354
24.8711
24.8067
24.7424
24.678
24.6137
24.5493
24.485
24.4206
24.3563
24.2919
24.2276
24.1632
34.2419
34.1604
33.9549
33.6537
33.335
33.0361
32.768
32.5319
32.325
32.1435
31.9831
31.8401
31.7111
31.5934
31.485
31.3839
31.289
31.199
31.113
31.0304
30.9506
30.8731
30.7975
30.7235
30.6509
30.5795
30.509
30.4394
30.3705
30.3022
30.2344
30.167
30.1001
30.0335
29.9672
29.9011
29.8353
29.7696
29.7041
29.6388
29.5736
29.5085
29.4435
29.3786
29.3137
29.2489
29.1842
29.1196
29.0549
28.9904
28.9258
28.8613
28.7968
28.7323
28.6679
28.6034
28.539
28.4746
28.4102
28.3458
28.2814
28.2171
28.1527
28.0883
28.024
27.9596
27.8953
27.8309
27.7666
27.7023
27.6379
27.5736
27.5092
27.4449
27.3806
27.3162
27.2519
27.1875
27.1232
27.0589
26.9945
26.9302
26.8658
26.8015
26.7371
26.6728
26.6085
26.5441
26.4798
26.4154
26.3511
26.2867
26.2224
26.158
26.0937
26.0293
25.965
25.9006
25.8363
25.772
25.7076
25.6433
25.5789
25.5146
25.4502
25.3859
25.3215
25.2572
25.1928
25.1285
25.0641
24.9998
24.9354
24.8711
24.8067
24.7424
24.678
24.6137
24.5493
24.485
24.4206
24.3563
24.2919
24.2276
24.1632
35.3804
35.014
34.5137
33.9937
33.527
33.1319
32.8045
32.5337
32.3079
32.1169
31.9528
31.8092
31.6813
31.5657
31.4597
31.3612
31.2687
31.1809
31.0971
31.0163
30.9382
30.8621
30.7879
30.7151
30.6435
30.5729
30.5033
30.4343
30.366
30.2983
30.2309
30.164
30.0974
30.0312
29.9651
29.8993
29.8337
29.7682
29.7029
29.6377
29.5726
29.5077
29.4428
29.3779
29.3132
29.2485
29.1838
29.1192
29.0546
28.9901
28.9255
28.8611
28.7966
28.7321
28.6677
28.6033
28.5389
28.4745
28.4101
28.3457
28.2814
28.217
28.1527
28.0883
28.024
27.9596
27.8953
27.8309
27.7666
27.7023
27.6379
27.5736
27.5092
27.4449
27.3806
27.3162
27.2519
27.1875
27.1232
27.0589
26.9945
26.9302
26.8658
26.8015
26.7371
26.6728
26.6085
26.5441
26.4798
26.4154
26.3511
26.2867
26.2224
26.158
26.0937
26.0293
25.965
25.9006
25.8363
25.772
25.7076
25.6433
25.5789
25.5146
25.4502
25.3859
25.3215
25.2572
25.1928
25.1285
25.0641
24.9998
24.9354
24.8711
24.8067
24.7424
24.678
24.6137
24.5493
24.485
24.4206
24.3563
24.2919
24.2276
24.1632
37.8833
36.3916
35.1164
34.2322
33.5913
33.109
32.7421
32.4579
32.2316
32.0459
31.889
31.7531
31.6326
31.5236
31.4234
31.3298
31.2416
31.1576
31.0769
30.9988
30.923
30.849
30.7764
30.7051
30.6348
30.5654
30.4967
30.4286
30.361
30.2938
30.2271
30.1606
30.0945
30.0286
29.9628
29.8973
29.8319
29.7667
29.7016
29.6365
29.5716
29.5067
29.4419
29.3772
29.3125
29.2479
29.1833
29.1188
29.0542
28.9897
28.9253
28.8608
28.7964
28.732
28.6676
28.6032
28.5388
28.4744
28.41
28.3457
28.2813
28.217
28.1526
28.0883
28.0239
27.9596
27.8953
27.8309
27.7666
27.7022
27.6379
27.5736
27.5092
27.4449
27.3806
27.3162
27.2519
27.1875
27.1232
27.0589
26.9945
26.9302
26.8658
26.8015
26.7371
26.6728
26.6085
26.5441
26.4798
26.4154
26.3511
26.2867
26.2224
26.158
26.0937
26.0293
25.965
25.9006
25.8363
25.772
25.7076
25.6433
25.5789
25.5146
25.4502
25.3859
25.3215
25.2572
25.1928
25.1285
25.0641
24.9998
24.9354
24.8711
24.8067
24.7424
24.678
24.6137
24.5493
24.485
24.4206
24.3563
24.2919
24.2276
24.1632
43.275
38.6112
35.8439
34.4222
33.5658
32.9982
32.609
32.3299
32.1182
31.9489
31.8073
31.6847
31.5753
31.4755
31.3828
31.2956
31.2126
31.1328
31.0557
30.9807
30.9074
30.8355
30.7648
30.695
30.6261
30.5578
30.4901
30.4228
30.356
30.2895
30.2233
30.1573
30.0916
30.026
29.9606
29.8953
29.8302
29.7652
29.7002
29.6354
29.5706
29.5058
29.4412
29.3765
29.3119
29.2474
29.1829
29.1184
29.0539
28.9894
28.925
28.8606
28.7962
28.7318
28.6674
28.603
28.5387
28.4743
28.4099
28.3456
28.2813
28.2169
28.1526
28.0882
28.0239
27.9596
27.8952
27.8309
27.7666
27.7022
27.6379
27.5736
27.5092
27.4449
27.3806
27.3162
27.2519
27.1875
27.1232
27.0589
26.9945
26.9302
26.8658
26.8015
26.7372
26.6728
26.6085
26.5441
26.4798
26.4154
26.3511
26.2867
26.2224
26.158
26.0937
26.0293
25.965
25.9006
25.8363
25.772
25.7076
25.6433
25.5789
25.5146
25.4502
25.3859
25.3215
25.2572
25.1928
25.1285
25.0641
24.9998
24.9354
24.8711
24.8067
24.7424
24.678
24.6137
24.5493
24.485
24.4206
24.3563
24.2919
24.2276
24.1632
)
;

boundaryField
{
    inlet
    {
        type            zeroGradient;
    }
    outlet
    {
        type            fixedValue;
        value           nonuniform 0();
    }
    wall
    {
        type            zeroGradient;
    }
    back
    {
        type            wedge;
    }
    front
    {
        type            wedge;
    }
    axis
    {
        type            empty;
    }
    procBoundary4to0
    {
        type            processor;
        value           nonuniform List<scalar> 
125
(
32.1635
32.2089
32.2425
32.2511
32.2384
32.2077
32.1616
32.1028
32.0338
31.9571
31.8748
31.7889
31.7007
31.6114
31.522
31.4331
31.3451
31.2584
31.1731
31.0893
31.0071
30.9265
30.8474
30.7696
30.6932
30.6181
30.544
30.471
30.3989
30.3277
30.2572
30.1875
30.1183
30.0497
29.9816
29.9139
29.8466
29.7797
29.713
29.6466
29.5805
29.5146
29.4489
29.3833
29.3179
29.2526
29.1875
29.1224
29.0575
28.9926
28.9277
28.863
28.7983
28.7336
28.669
28.6044
28.5399
28.4754
28.4109
28.3464
28.282
28.2175
28.1531
28.0887
28.0243
27.9599
27.8955
27.8311
27.7668
27.7024
27.638
27.5737
27.5093
27.445
27.3806
27.3163
27.2519
27.1876
27.1232
27.0589
26.9945
26.9302
26.8658
26.8015
26.7371
26.6728
26.6085
26.5441
26.4798
26.4154
26.3511
26.2867
26.2224
26.158
26.0937
26.0293
25.965
25.9006
25.8363
25.7719
25.7076
25.6433
25.5789
25.5146
25.4502
25.3859
25.3215
25.2572
25.1928
25.1285
25.0641
24.9998
24.9354
24.8711
24.8067
24.7424
24.678
24.6137
24.5493
24.485
24.4206
24.3563
24.2919
24.2276
24.1632
)
;
    }
    procBoundary4to5
    {
        type            processor;
        value           nonuniform List<scalar> 10(24.0989 24.0989 24.0989 24.0989 24.0989 24.0989 24.0989 24.0989 24.0989 24.0989);
    }
}


// ************************************************************************* //
