/*--------------------------------*- C++ -*----------------------------------*\
| =========                 |                                                 |
| \\      /  F ield         | OpenFOAM: The Open Source CFD Toolbox           |
|  \\    /   O peration     | Version:                                        |
|   \\  /    A nd           | Website:  www.openfoam.com                      |
|    \\/     M anipulation  |                                                 |
\*---------------------------------------------------------------------------*/
FoamFile
{
    version     2.0;
    format      ascii;
    class       surfaceScalarField;
    location    "71";
    object      phi;
}
// * * * * * * * * * * * * * * * * * * * * * * * * * * * * * * * * * * * * * //

dimensions      [0 3 -1 0 0 0 0];
oriented        oriented;


internalField   nonuniform List<scalar> 
2365
(
9.20805e-06
-3.05744e-07
9.40987e-06
-8.63825e-07
9.70718e-06
-1.33741e-06
1.0065e-05
-1.70662e-06
1.04507e-05
-1.96746e-06
1.08379e-05
-2.12711e-06
1.12072e-05
-2.19926e-06
1.1546e-05
-2.20045e-06
1.18475e-05
-2.1474e-06
1.21094e-05
-2.05542e-06
1.23324e-05
-1.93754e-06
1.2519e-05
-1.80431e-06
1.2673e-05
-1.66386e-06
1.27985e-05
-1.52226e-06
1.28997e-05
-1.38378e-06
1.29803e-05
-1.25131e-06
1.30441e-05
-1.12668e-06
1.30939e-05
-1.0109e-06
1.31325e-05
-9.04392e-07
1.3162e-05
-8.07176e-07
1.31843e-05
-7.18991e-07
1.3201e-05
-6.39399e-07
1.32132e-05
-5.67853e-07
1.32219e-05
-5.03752e-07
1.3228e-05
-4.46476e-07
1.3232e-05
-3.95411e-07
1.32344e-05
-3.49967e-07
1.32357e-05
-3.09586e-07
1.32361e-05
-2.73747e-07
1.32359e-05
-2.41971e-07
1.32353e-05
-2.13821e-07
1.32344e-05
-1.88899e-07
1.32333e-05
-1.66847e-07
1.32321e-05
-1.47342e-07
1.32308e-05
-1.30095e-07
1.32296e-05
-1.14849e-07
1.32284e-05
-1.01373e-07
1.32272e-05
-8.94625e-08
1.32261e-05
-7.89368e-08
1.3225e-05
-6.96348e-08
1.3224e-05
-6.14138e-08
1.32232e-05
-5.41479e-08
1.32223e-05
-4.77256e-08
1.32216e-05
-4.20487e-08
1.32209e-05
-3.70299e-08
1.32203e-05
-3.2593e-08
1.32198e-05
-2.86698e-08
1.32193e-05
-2.52011e-08
1.32188e-05
-2.21338e-08
1.32184e-05
-1.94219e-08
1.32181e-05
-1.7024e-08
1.32178e-05
-1.49044e-08
1.32175e-05
-1.30309e-08
1.32173e-05
-1.13755e-08
1.32171e-05
-9.91326e-09
1.32169e-05
-8.62243e-09
1.32167e-05
-7.48326e-09
1.32166e-05
-6.47899e-09
1.32165e-05
-5.59402e-09
1.32164e-05
-4.81533e-09
1.32163e-05
-4.13056e-09
1.32162e-05
-3.52958e-09
1.32161e-05
-3.00254e-09
1.32161e-05
-2.54157e-09
1.3216e-05
-2.13877e-09
1.3216e-05
-1.78804e-09
1.32159e-05
-1.48297e-09
1.32159e-05
-1.21884e-09
1.32159e-05
-9.90452e-10
1.32159e-05
-7.94155e-10
1.32158e-05
-6.25685e-10
1.32158e-05
-4.82248e-10
1.32158e-05
-3.60324e-10
1.32158e-05
-2.578e-10
1.32158e-05
-1.71747e-10
1.32158e-05
-1.00601e-10
1.32158e-05
-4.19047e-11
1.32158e-05
5.46211e-12
1.32158e-05
4.35728e-11
1.32158e-05
7.31924e-11
1.32158e-05
9.60816e-11
1.32158e-05
1.12714e-10
1.32158e-05
1.24597e-10
1.32158e-05
1.31968e-10
1.32158e-05
1.36129e-10
1.32158e-05
1.37123e-10
1.32158e-05
1.36086e-10
1.32158e-05
1.32905e-10
1.32158e-05
1.28581e-10
1.32158e-05
1.22874e-10
1.32158e-05
1.16677e-10
1.32158e-05
1.09653e-10
1.32158e-05
1.02608e-10
1.32158e-05
9.51251e-11
1.32158e-05
8.79442e-11
1.32158e-05
8.05906e-11
1.32158e-05
7.37521e-11
1.32158e-05
6.69085e-11
1.32158e-05
6.07104e-11
1.32158e-05
5.4608e-11
1.32158e-05
4.92233e-11
1.32158e-05
4.39858e-11
1.32158e-05
3.95001e-11
1.32158e-05
3.5186e-11
1.32158e-05
3.1636e-11
1.32158e-05
2.82664e-11
1.32158e-05
2.56645e-11
1.32158e-05
2.32505e-11
1.32158e-05
2.16059e-11
1.32158e-05
2.01544e-11
1.32158e-05
1.94712e-11
1.32158e-05
1.89822e-11
1.32158e-05
1.92542e-11
1.32158e-05
1.97177e-11
1.32158e-05
2.09419e-11
1.32158e-05
2.23593e-11
1.32158e-05
2.45203e-11
1.32158e-05
2.6823e-11
1.32158e-05
2.9718e-11
1.32158e-05
3.2468e-11
1.32158e-05
3.52984e-11
1.32158e-05
3.71778e-11
1.32158e-05
3.78595e-11
1.32158e-05
3.62461e-11
3.19122e-11
1.01012e-05
-4.03877e-07
1.0356e-05
-1.11862e-06
1.07169e-05
-1.69832e-06
1.11323e-05
-2.12206e-06
1.15589e-05
-2.39397e-06
1.19648e-05
-2.53301e-06
1.23302e-05
-2.56467e-06
1.2645e-05
-2.51532e-06
1.29066e-05
-2.409e-06
1.31171e-05
-2.26585e-06
1.32812e-05
-2.10171e-06
1.34054e-05
-1.92844e-06
1.3496e-05
-1.75449e-06
1.35593e-05
-1.5856e-06
1.3601e-05
-1.42544e-06
1.36258e-05
-1.27613e-06
1.36378e-05
-1.13868e-06
1.36403e-05
-1.01337e-06
1.36359e-05
-8.9998e-07
1.36267e-05
-7.97956e-07
1.36142e-05
-7.06572e-07
1.35999e-05
-6.25007e-07
1.35844e-05
-5.52408e-07
1.35686e-05
-4.87931e-07
1.35529e-05
-4.30768e-07
1.35376e-05
-3.80159e-07
1.35231e-05
-3.354e-07
1.35093e-05
-2.95849e-07
1.34965e-05
-2.60923e-07
1.34846e-05
-2.30097e-07
1.34737e-05
-2.02898e-07
1.34637e-05
-1.78906e-07
1.34546e-05
-1.57748e-07
1.34464e-05
-1.39088e-07
1.34389e-05
-1.22634e-07
1.34322e-05
-1.08124e-07
1.34261e-05
-9.53271e-08
1.34207e-05
-8.40398e-08
1.34158e-05
-7.40827e-08
1.34115e-05
-6.52976e-08
1.34076e-05
-5.7545e-08
1.34042e-05
-5.07023e-08
1.34011e-05
-4.46613e-08
1.33984e-05
-3.93272e-08
1.3396e-05
-3.46162e-08
1.33938e-05
-3.04549e-08
1.3392e-05
-2.67784e-08
1.33903e-05
-2.353e-08
1.33888e-05
-2.06594e-08
1.33875e-05
-1.81226e-08
1.33864e-05
-1.58808e-08
1.33854e-05
-1.38999e-08
1.33845e-05
-1.21497e-08
1.33837e-05
-1.06038e-08
1.3383e-05
-9.23858e-09
1.33824e-05
-8.03362e-09
1.33819e-05
-6.97059e-09
1.33815e-05
-6.03347e-09
1.33811e-05
-5.20794e-09
1.33808e-05
-4.4815e-09
1.33805e-05
-3.84291e-09
1.33802e-05
-3.28235e-09
1.338e-05
-2.79098e-09
1.33798e-05
-2.36109e-09
1.33797e-05
-1.98565e-09
1.33796e-05
-1.65861e-09
1.33795e-05
-1.37436e-09
1.33794e-05
-1.12812e-09
1.33793e-05
-9.15419e-10
1.33792e-05
-7.32465e-10
1.33792e-05
-5.75676e-10
1.33791e-05
-4.42044e-10
1.33791e-05
-3.2869e-10
1.33791e-05
-2.33235e-10
1.33791e-05
-1.53358e-10
1.33791e-05
-8.71827e-11
1.3379e-05
-3.28352e-11
1.3379e-05
1.11514e-11
1.3379e-05
4.62904e-11
1.3379e-05
7.37205e-11
1.3379e-05
9.46604e-11
1.3379e-05
1.0998e-10
1.3379e-05
1.20659e-10
1.3379e-05
1.2735e-10
1.33791e-05
1.30836e-10
1.33791e-05
1.31594e-10
1.33791e-05
1.30248e-10
1.33791e-05
1.2713e-10
1.33791e-05
1.22738e-10
1.33791e-05
1.17287e-10
1.33791e-05
1.11172e-10
1.33791e-05
1.04516e-10
1.33791e-05
9.76336e-11
1.33791e-05
9.05753e-11
1.33791e-05
8.35916e-11
1.33791e-05
7.66792e-11
1.33791e-05
7.00398e-11
1.33791e-05
6.36279e-11
1.33791e-05
5.76104e-11
1.33791e-05
5.19133e-11
1.33791e-05
4.66783e-11
1.33791e-05
4.18114e-11
1.33791e-05
3.74388e-11
1.33791e-05
3.34563e-11
1.33791e-05
2.99813e-11
1.33791e-05
2.69041e-11
1.33791e-05
2.43397e-11
1.33791e-05
2.21783e-11
1.33791e-05
2.05328e-11
1.33791e-05
1.92929e-11
1.33791e-05
1.85669e-11
1.33791e-05
1.82447e-11
1.33791e-05
1.84342e-11
1.33791e-05
1.90266e-11
1.33791e-05
2.01266e-11
1.33791e-05
2.16157e-11
1.33791e-05
2.35827e-11
1.33791e-05
2.58515e-11
1.33791e-05
2.8406e-11
1.33792e-05
3.09757e-11
1.33792e-05
3.33446e-11
1.33792e-05
3.50461e-11
1.33792e-05
3.54009e-11
1.33792e-05
3.38601e-11
2.93773e-11
1.10042e-05
-5.35188e-07
1.13272e-05
-1.44158e-06
1.176e-05
-2.13119e-06
1.22282e-05
-2.59022e-06
1.26764e-05
-2.84222e-06
1.30709e-05
-2.92744e-06
1.33954e-05
-2.8892e-06
1.36468e-05
-2.76668e-06
1.38296e-05
-2.59188e-06
1.39529e-05
-2.3891e-06
1.40269e-05
-2.17572e-06
1.4062e-05
-1.96352e-06
1.40675e-05
-1.75996e-06
1.40513e-05
-1.56943e-06
1.402e-05
-1.39414e-06
1.39787e-05
-1.23485e-06
1.39314e-05
-1.09141e-06
1.38811e-05
-9.63091e-07
1.383e-05
-8.48872e-07
1.37797e-05
-7.47573e-07
1.37311e-05
-6.57977e-07
1.36849e-05
-5.78891e-07
1.36417e-05
-5.09184e-07
1.36016e-05
-4.47812e-07
1.35646e-05
-3.93818e-07
1.35308e-05
-3.46341e-07
1.35e-05
-3.04609e-07
1.34721e-05
-2.67933e-07
1.34469e-05
-2.35703e-07
1.34242e-05
-2.07381e-07
1.34038e-05
-1.8249e-07
1.33855e-05
-1.60613e-07
1.33691e-05
-1.4138e-07
1.33545e-05
-1.24468e-07
1.33414e-05
-1.09594e-07
1.33298e-05
-9.65075e-08
1.33195e-05
-8.4991e-08
1.33103e-05
-7.48527e-08
1.33021e-05
-6.59248e-08
1.32949e-05
-5.806e-08
1.32885e-05
-5.11295e-08
1.32828e-05
-4.50201e-08
1.32778e-05
-3.96329e-08
1.32733e-05
-3.48809e-08
1.32694e-05
-3.06879e-08
1.32659e-05
-2.69871e-08
1.32629e-05
-2.37201e-08
1.32602e-05
-2.08352e-08
1.32578e-05
-1.82874e-08
1.32557e-05
-1.6037e-08
1.32539e-05
-1.40492e-08
1.32523e-05
-1.22934e-08
1.32509e-05
-1.07426e-08
1.32496e-05
-9.37317e-09
1.32486e-05
-8.16422e-09
1.32476e-05
-7.09736e-09
1.32468e-05
-6.15636e-09
1.32461e-05
-5.32694e-09
1.32455e-05
-4.59642e-09
1.3245e-05
-3.95364e-09
1.32445e-05
-3.38869e-09
1.32441e-05
-2.89281e-09
1.32438e-05
-2.45822e-09
1.32435e-05
-2.07802e-09
1.32433e-05
-1.74606e-09
1.32431e-05
-1.45691e-09
1.32429e-05
-1.20568e-09
1.32428e-05
-9.88063e-10
1.32427e-05
-8.00167e-10
1.32426e-05
-6.38577e-10
1.32425e-05
-5.00179e-10
1.32424e-05
-3.82255e-10
1.32424e-05
-2.82313e-10
1.32423e-05
-1.98189e-10
1.32423e-05
-1.27884e-10
1.32423e-05
-6.96797e-11
1.32423e-05
-2.19751e-11
1.32423e-05
1.65902e-11
1.32423e-05
4.72965e-11
1.32423e-05
7.12143e-11
1.32423e-05
8.9362e-11
1.32423e-05
1.02573e-10
1.32423e-05
1.11655e-10
1.32423e-05
1.17247e-10
1.32423e-05
1.19984e-10
1.32423e-05
1.20348e-10
1.32424e-05
1.18833e-10
1.32424e-05
1.15795e-10
1.32424e-05
1.11612e-10
1.32424e-05
1.06539e-10
1.32424e-05
1.00861e-10
1.32424e-05
9.47524e-11
1.32424e-05
8.84267e-11
1.32424e-05
8.19925e-11
1.32424e-05
7.56081e-11
1.32424e-05
6.93331e-11
1.32425e-05
6.32825e-11
1.32425e-05
5.74787e-11
1.32425e-05
5.20062e-11
1.32425e-05
4.6862e-11
1.32425e-05
4.21079e-11
1.32425e-05
3.77235e-11
1.32425e-05
3.37579e-11
1.32425e-05
3.01812e-11
1.32425e-05
2.70348e-11
1.32425e-05
2.42843e-11
1.32425e-05
2.1969e-11
1.32425e-05
2.00542e-11
1.32425e-05
1.8577e-11
1.32425e-05
1.74991e-11
1.32425e-05
1.68572e-11
1.32425e-05
1.66137e-11
1.32425e-05
1.68034e-11
1.32425e-05
1.73865e-11
1.32425e-05
1.83934e-11
1.32425e-05
1.97692e-11
1.32425e-05
2.15038e-11
1.32425e-05
2.34907e-11
1.32425e-05
2.56507e-11
1.32425e-05
2.77589e-11
1.32425e-05
2.96219e-11
1.32425e-05
3.08474e-11
1.32425e-05
3.10829e-11
1.32425e-05
2.94207e-11
2.56902e-11
1.19229e-05
-7.15385e-07
1.23325e-05
-1.8512e-06
1.28391e-05
-2.63776e-06
1.33389e-05
-3.08998e-06
1.37685e-05
-3.27186e-06
1.40996e-05
-3.25849e-06
1.43276e-05
-3.11725e-06
1.44621e-05
-2.9012e-06
1.4519e-05
-2.64871e-06
1.45155e-05
-2.38561e-06
1.44679e-05
-2.12814e-06
1.439e-05
-1.88567e-06
1.42931e-05
-1.66298e-06
1.41855e-05
-1.46186e-06
1.40736e-05
-1.28229e-06
1.3962e-05
-1.12321e-06
1.38536e-05
-9.83048e-07
1.37506e-05
-8.60001e-07
1.36539e-05
-7.52241e-07
1.35644e-05
-6.58013e-07
1.34821e-05
-5.75695e-07
1.3407e-05
-5.03815e-07
1.33389e-05
-4.4106e-07
1.32773e-05
-3.86269e-07
1.32219e-05
-3.38421e-07
1.31722e-05
-2.96623e-07
1.31277e-05
-2.60097e-07
1.30879e-05
-2.28163e-07
1.30525e-05
-2.00231e-07
1.30209e-05
-1.75787e-07
1.29928e-05
-1.54386e-07
1.29678e-05
-1.35638e-07
1.29456e-05
-1.19206e-07
1.29259e-05
-1.04797e-07
1.29085e-05
-9.21544e-08
1.2893e-05
-8.10566e-08
1.28794e-05
-7.13095e-08
1.28673e-05
-6.27445e-08
1.28565e-05
-5.52143e-08
1.28471e-05
-4.85906e-08
1.28387e-05
-4.27614e-08
1.28313e-05
-3.76291e-08
1.28248e-05
-3.31082e-08
1.2819e-05
-2.91242e-08
1.2814e-05
-2.56119e-08
1.28095e-05
-2.25142e-08
1.28055e-05
-1.97814e-08
1.28021e-05
-1.73698e-08
1.2799e-05
-1.5241e-08
1.27964e-05
-1.33616e-08
1.2794e-05
-1.17021e-08
1.27919e-05
-1.02368e-08
1.27901e-05
-8.94302e-09
1.27886e-05
-7.80081e-09
1.27872e-05
-6.79267e-09
1.2786e-05
-5.90319e-09
1.2785e-05
-5.11878e-09
1.27841e-05
-4.42747e-09
1.27833e-05
-3.81868e-09
1.27826e-05
-3.28307e-09
1.27821e-05
-2.81237e-09
1.27816e-05
-2.39927e-09
1.27811e-05
-2.03727e-09
1.27808e-05
-1.72063e-09
1.27805e-05
-1.44421e-09
1.27802e-05
-1.20348e-09
1.278e-05
-9.9438e-10
1.27798e-05
-8.13296e-10
1.27797e-05
-6.57013e-10
1.27796e-05
-5.22652e-10
1.27795e-05
-4.07649e-10
1.27794e-05
-3.09705e-10
1.27794e-05
-2.26774e-10
1.27793e-05
-1.57019e-10
1.27793e-05
-9.88053e-11
1.27793e-05
-5.06642e-11
1.27793e-05
-1.12954e-11
1.27793e-05
2.04733e-11
1.27793e-05
4.5676e-11
1.27793e-05
6.52409e-11
1.27793e-05
7.99844e-11
1.27793e-05
9.06384e-11
1.27793e-05
9.7841e-11
1.27793e-05
1.02164e-10
1.27793e-05
1.041e-10
1.27794e-05
1.0409e-10
1.27794e-05
1.0251e-10
1.27794e-05
9.96929e-11
1.27794e-05
9.59186e-11
1.27794e-05
9.14356e-11
1.27794e-05
8.64478e-11
1.27794e-05
8.11348e-11
1.27795e-05
7.56386e-11
1.27795e-05
7.00859e-11
1.27795e-05
6.45726e-11
1.27795e-05
5.91835e-11
1.27795e-05
5.39776e-11
1.27795e-05
4.90097e-11
1.27795e-05
4.43137e-11
1.27795e-05
3.99221e-11
1.27795e-05
3.585e-11
1.27795e-05
3.21162e-11
1.27795e-05
2.87259e-11
1.27795e-05
2.56891e-11
1.27795e-05
2.30045e-11
1.27796e-05
2.06791e-11
1.27796e-05
1.8712e-11
1.27796e-05
1.71065e-11
1.27796e-05
1.58583e-11
1.27796e-05
1.4972e-11
1.27796e-05
1.44424e-11
1.27796e-05
1.42703e-11
1.27796e-05
1.44484e-11
1.27796e-05
1.49762e-11
1.27796e-05
1.58352e-11
1.27796e-05
1.70002e-11
1.27796e-05
1.84171e-11
1.27796e-05
2.00117e-11
1.27796e-05
2.16624e-11
1.27796e-05
2.3234e-11
1.27796e-05
2.45205e-11
1.27796e-05
2.5331e-11
1.27796e-05
2.5203e-11
1.27796e-05
2.39073e-11
2.08863e-11
1.28668e-05
-9.69604e-07
1.3381e-05
-2.3654e-06
1.39432e-05
-3.19998e-06
1.44209e-05
-3.56768e-06
1.47568e-05
-3.60771e-06
1.49432e-05
-3.44496e-06
1.4999e-05
-3.17299e-06
1.49526e-05
-2.85488e-06
1.48336e-05
-2.52964e-06
1.46673e-05
-2.21932e-06
1.4474e-05
-1.93489e-06
1.42689e-05
-1.68055e-06
1.40625e-05
-1.45661e-06
1.3862e-05
-1.26133e-06
1.36718e-05
-1.09206e-06
1.34944e-05
-9.45809e-07
1.3331e-05
-8.19675e-07
1.3182e-05
-7.10952e-07
1.30469e-05
-6.17225e-07
1.29253e-05
-5.36376e-07
1.28162e-05
-4.66574e-07
1.27186e-05
-4.06247e-07
1.26316e-05
-3.54049e-07
1.25542e-05
-3.08833e-07
1.24854e-05
-2.6962e-07
1.24243e-05
-2.35575e-07
1.23702e-05
-2.05985e-07
1.23223e-05
-1.8024e-07
1.22799e-05
-1.57818e-07
1.22423e-05
-1.38272e-07
1.22092e-05
-1.21217e-07
1.21799e-05
-1.06323e-07
1.2154e-05
-9.33062e-08
1.21311e-05
-8.19198e-08
1.21109e-05
-7.19523e-08
1.2093e-05
-6.32204e-08
1.20773e-05
-5.55655e-08
1.20634e-05
-4.88499e-08
1.20511e-05
-4.29546e-08
1.20403e-05
-3.77759e-08
1.20308e-05
-3.32239e-08
1.20224e-05
-2.92204e-08
1.2015e-05
-2.56973e-08
1.20084e-05
-2.25952e-08
1.20027e-05
-1.98625e-08
1.19976e-05
-1.74541e-08
1.19932e-05
-1.53305e-08
1.19893e-05
-1.34575e-08
1.19858e-05
-1.18049e-08
1.19828e-05
-1.03465e-08
1.19802e-05
-9.05916e-09
1.19779e-05
-7.9228e-09
1.19758e-05
-6.91965e-09
1.19741e-05
-6.03423e-09
1.19725e-05
-5.2528e-09
1.19712e-05
-4.56361e-09
1.197e-05
-3.95574e-09
1.1969e-05
-3.42015e-09
1.19681e-05
-2.9485e-09
1.19674e-05
-2.53361e-09
1.19668e-05
-2.16897e-09
1.19662e-05
-1.84914e-09
1.19657e-05
-1.56875e-09
1.19653e-05
-1.32359e-09
1.1965e-05
-1.10959e-09
1.19647e-05
-9.23281e-10
1.19645e-05
-7.61458e-10
1.19643e-05
-6.21401e-10
1.19641e-05
-5.00532e-10
1.1964e-05
-3.96707e-10
1.19639e-05
-3.0785e-10
1.19638e-05
-2.32269e-10
1.19638e-05
-1.68288e-10
1.19637e-05
-1.14524e-10
1.19637e-05
-6.97571e-11
1.19637e-05
-3.2848e-11
1.19637e-05
-2.60197e-12
1.19637e-05
2.16616e-11
1.19637e-05
4.08824e-11
1.19637e-05
5.57362e-11
1.19637e-05
6.6812e-11
1.19637e-05
7.46792e-11
1.19637e-05
8.00162e-11
1.19638e-05
8.30385e-11
1.19638e-05
8.42674e-11
1.19638e-05
8.39542e-11
1.19638e-05
8.24813e-11
1.19638e-05
8.00171e-11
1.19639e-05
7.68707e-11
1.19639e-05
7.31443e-11
1.19639e-05
6.90857e-11
1.19639e-05
6.47437e-11
1.19639e-05
6.03199e-11
1.1964e-05
5.58218e-11
1.1964e-05
5.14125e-11
1.1964e-05
4.70673e-11
1.1964e-05
4.29225e-11
1.1964e-05
3.893e-11
1.1964e-05
3.52045e-11
1.1964e-05
3.16807e-11
1.1964e-05
2.84608e-11
1.1964e-05
2.54689e-11
1.1964e-05
2.27976e-11
1.1964e-05
2.03649e-11
1.1964e-05
1.82605e-11
1.1964e-05
1.6446e-11
1.19641e-05
1.48252e-11
1.19641e-05
1.3587e-11
1.19641e-05
1.26358e-11
1.19641e-05
1.19294e-11
1.19641e-05
1.1552e-11
1.19641e-05
1.14139e-11
1.19641e-05
1.15973e-11
1.19641e-05
1.20037e-11
1.19641e-05
1.27011e-11
1.19641e-05
1.35719e-11
1.19641e-05
1.4649e-11
1.19641e-05
1.57711e-11
1.19641e-05
1.6974e-11
1.19641e-05
1.78626e-11
1.19641e-05
1.86758e-11
1.19641e-05
1.89876e-11
1.19641e-05
1.87784e-11
1.19641e-05
1.76855e-11
1.58464e-11
1.38474e-05
-1.33465e-06
1.44681e-05
-2.98607e-06
1.50191e-05
-3.75099e-06
1.53617e-05
-3.91029e-06
1.54788e-05
-3.72479e-06
1.54081e-05
-3.37425e-06
1.5203e-05
-2.96795e-06
1.4914e-05
-2.56581e-06
1.4581e-05
-2.19662e-06
1.42329e-05
-1.87124e-06
1.3889e-05
-1.59098e-06
1.35611e-05
-1.35267e-06
1.32558e-05
-1.15137e-06
1.29763e-05
-9.81785e-07
1.27232e-05
-8.3896e-07
1.24959e-05
-7.18528e-07
1.2293e-05
-6.16769e-07
1.21126e-05
-5.30572e-07
1.19528e-05
-4.57359e-07
1.18114e-05
-3.95003e-07
1.16866e-05
-3.41754e-07
1.15765e-05
-2.96166e-07
1.14795e-05
-2.57045e-07
1.1394e-05
-2.23398e-07
1.13188e-05
-1.94402e-07
1.12526e-05
-1.69367e-07
1.11944e-05
-1.47714e-07
1.11431e-05
-1.28957e-07
1.10979e-05
-1.12684e-07
1.10582e-05
-9.8548e-08
1.10232e-05
-8.62518e-08
1.09925e-05
-7.55436e-08
1.09654e-05
-6.62079e-08
1.09415e-05
-5.80603e-08
1.09205e-05
-5.09425e-08
1.0902e-05
-4.47184e-08
1.08857e-05
-3.92709e-08
1.08713e-05
-3.44991e-08
1.08587e-05
-3.03156e-08
1.08476e-05
-2.66451e-08
1.08378e-05
-2.34222e-08
1.08291e-05
-2.05904e-08
1.08216e-05
-1.81004e-08
1.08149e-05
-1.59097e-08
1.0809e-05
-1.39811e-08
1.08038e-05
-1.22823e-08
1.07993e-05
-1.07852e-08
1.07953e-05
-9.46525e-09
1.07918e-05
-8.30108e-09
1.07887e-05
-7.27402e-09
1.0786e-05
-6.36766e-09
1.07837e-05
-5.56777e-09
1.07816e-05
-4.86175e-09
1.07798e-05
-4.23868e-09
1.07782e-05
-3.68887e-09
1.07769e-05
-3.2039e-09
1.07757e-05
-2.77627e-09
1.07747e-05
-2.39948e-09
1.07738e-05
-2.06767e-09
1.0773e-05
-1.77582e-09
1.07724e-05
-1.51934e-09
1.07718e-05
-1.29431e-09
1.07714e-05
-1.09712e-09
1.0771e-05
-9.24707e-10
1.07706e-05
-7.74206e-10
1.07704e-05
-6.43223e-10
1.07701e-05
-5.29462e-10
1.07699e-05
-4.31043e-10
1.07698e-05
-3.46122e-10
1.07697e-05
-2.73226e-10
1.07696e-05
-2.10856e-10
1.07695e-05
-1.57859e-10
1.07694e-05
-1.13015e-10
1.07694e-05
-7.54254e-11
1.07694e-05
-4.40897e-11
1.07693e-05
-1.83133e-11
1.07693e-05
2.72858e-12
1.07693e-05
1.95615e-11
1.07694e-05
3.28696e-11
1.07694e-05
4.30457e-11
1.07694e-05
5.06552e-11
1.07694e-05
5.5979e-11
1.07694e-05
5.94913e-11
1.07694e-05
6.13826e-11
1.07695e-05
6.2048e-11
1.07695e-05
6.16032e-11
1.07695e-05
6.03821e-11
1.07695e-05
5.84413e-11
1.07696e-05
5.6062e-11
1.07696e-05
5.32505e-11
1.07696e-05
5.02489e-11
1.07696e-05
4.7026e-11
1.07696e-05
4.37893e-11
1.07696e-05
4.04759e-11
1.07697e-05
3.72693e-11
1.07697e-05
3.40851e-11
1.07697e-05
3.10851e-11
1.07697e-05
2.81665e-11
1.07697e-05
2.54785e-11
1.07697e-05
2.29083e-11
1.07697e-05
2.05931e-11
1.07697e-05
1.84116e-11
1.07697e-05
1.64965e-11
1.07697e-05
1.47246e-11
1.07697e-05
1.32238e-11
1.07697e-05
1.18689e-11
1.07698e-05
1.07871e-11
1.07698e-05
9.85514e-12
1.07698e-05
9.19675e-12
1.07698e-05
8.6851e-12
1.07698e-05
8.44406e-12
1.07698e-05
8.34498e-12
1.07698e-05
8.50266e-12
1.07698e-05
8.78276e-12
1.07698e-05
9.28791e-12
1.07698e-05
9.86594e-12
1.07698e-05
1.05929e-11
1.07698e-05
1.12826e-11
1.07698e-05
1.19744e-11
1.07698e-05
1.24608e-11
1.07698e-05
1.27828e-11
1.07698e-05
1.27107e-11
1.07698e-05
1.23639e-11
1.07698e-05
1.16344e-11
1.07343e-11
1.48667e-05
-1.84915e-06
1.55321e-05
-3.65143e-06
1.58969e-05
-4.11585e-06
1.58976e-05
-3.91093e-06
1.56185e-05
-3.44566e-06
1.51658e-05
-2.92156e-06
1.46276e-05
-2.42976e-06
1.40657e-05
-2.00387e-06
1.35184e-05
-1.64936e-06
1.30071e-05
-1.35989e-06
1.25415e-05
-1.12539e-06
1.21245e-05
-9.35703e-07
1.17551e-05
-7.81893e-07
1.14299e-05
-6.56611e-07
1.11449e-05
-5.53996e-07
1.08958e-05
-4.69444e-07
1.06784e-05
-3.99363e-07
1.04888e-05
-3.40946e-07
1.03235e-05
-2.91996e-07
1.01792e-05
-2.50781e-07
1.00534e-05
-2.15927e-07
9.94358e-06
-1.86337e-07
9.84766e-06
-1.61128e-07
9.76385e-06
-1.39583e-07
9.69056e-06
-1.21118e-07
9.62645e-06
-1.05253e-07
9.57033e-06
-9.159e-08
9.52117e-06
-7.97991e-08
9.47809e-06
-6.96048e-08
9.44032e-06
-6.07754e-08
9.40719e-06
-5.31165e-08
9.37811e-06
-4.64628e-08
9.35258e-06
-4.06749e-08
9.33015e-06
-3.56333e-08
9.31045e-06
-3.1237e-08
9.29313e-06
-2.73987e-08
9.2779e-06
-2.40444e-08
9.26451e-06
-2.11097e-08
9.25274e-06
-1.85401e-08
9.24238e-06
-1.62876e-08
9.23327e-06
-1.43119e-08
9.22526e-06
-1.25771e-08
9.21821e-06
-1.1053e-08
9.21202e-06
-9.71272e-09
9.20657e-06
-8.5337e-09
9.20178e-06
-7.49534e-09
9.19758e-06
-6.58095e-09
9.19389e-06
-5.77468e-09
9.19065e-06
-5.06413e-09
9.18782e-06
-4.43697e-09
9.18533e-06
-3.88402e-09
9.18316e-06
-3.39563e-09
9.18126e-06
-2.96505e-09
9.17961e-06
-2.58459e-09
9.17817e-06
-2.24935e-09
9.17692e-06
-1.95312e-09
9.17584e-06
-1.69243e-09
9.1749e-06
-1.46216e-09
9.17409e-06
-1.25993e-09
9.1734e-06
-1.08146e-09
9.1728e-06
-9.25186e-10
9.1723e-06
-7.8746e-10
9.17187e-06
-6.67379e-10
9.1715e-06
-5.61749e-10
9.1712e-06
-4.70182e-10
9.17095e-06
-3.89829e-10
9.17074e-06
-3.20709e-10
9.17057e-06
-2.60239e-10
9.17043e-06
-2.08754e-10
9.17032e-06
-1.63872e-10
9.17024e-06
-1.26184e-10
9.17017e-06
-9.34647e-11
9.17013e-06
-6.65084e-11
9.1701e-06
-4.32099e-11
9.17008e-06
-2.45282e-11
9.17007e-06
-8.45613e-12
9.17007e-06
3.9138e-12
9.17007e-06
1.45152e-11
9.17008e-06
2.21449e-11
9.1701e-06
2.86727e-11
9.17011e-06
3.28066e-11
9.17013e-06
3.63691e-11
9.17016e-06
3.79931e-11
9.17018e-06
3.94584e-11
9.1702e-06
3.93383e-11
9.17022e-06
3.93816e-11
9.17025e-06
3.81112e-11
9.17027e-06
3.72463e-11
9.17029e-06
3.5271e-11
9.17031e-06
3.3884e-11
9.17033e-06
3.15372e-11
9.17034e-06
2.99077e-11
9.17036e-06
2.7425e-11
9.17038e-06
2.57516e-11
9.17039e-06
2.32993e-11
9.1704e-06
2.17139e-11
9.17041e-06
1.9397e-11
9.17042e-06
1.79841e-11
9.17043e-06
1.58703e-11
9.17044e-06
1.46772e-11
9.17045e-06
1.27997e-11
9.17046e-06
1.18523e-11
9.17046e-06
1.02304e-11
9.17047e-06
9.53951e-12
9.17047e-06
8.17907e-12
9.17048e-06
7.75198e-12
9.17048e-06
6.66038e-12
9.17048e-06
6.49975e-12
9.17049e-06
5.67719e-12
9.17049e-06
5.78238e-12
9.17049e-06
5.22638e-12
9.1705e-06
5.58442e-12
9.1705e-06
5.27463e-12
9.1705e-06
5.85757e-12
9.17051e-06
5.74889e-12
9.17051e-06
6.49395e-12
9.17051e-06
6.48762e-12
9.17052e-06
7.26055e-12
9.17052e-06
7.17439e-12
9.17053e-06
7.7304e-12
9.17053e-06
7.28336e-12
9.17054e-06
7.38222e-12
9.17054e-06
6.58103e-12
9.17054e-06
6.34559e-12
6.45941e-12
1.58977e-05
-2.52482e-06
1.63304e-05
-4.08402e-06
1.61124e-05
-3.89787e-06
1.54578e-05
-3.25644e-06
1.46034e-05
-2.59126e-06
1.3703e-05
-2.02108e-06
1.28422e-05
-1.56902e-06
1.20616e-05
-1.22331e-06
1.13745e-05
-9.62252e-07
1.07797e-05
-7.65057e-07
1.02693e-05
-6.15039e-07
9.8333e-06
-4.99693e-07
9.46133e-06
-4.09922e-07
9.14389e-06
-3.3918e-07
8.87266e-06
-2.82764e-07
8.64048e-06
-2.37273e-07
8.44134e-06
-2.00224e-07
8.27017e-06
-1.69785e-07
8.12276e-06
-1.44581e-07
7.99554e-06
-1.23571e-07
7.88556e-06
-1.05952e-07
7.79032e-06
-9.11014e-08
7.70772e-06
-7.8527e-08
7.63597e-06
-6.7838e-08
7.57357e-06
-5.87197e-08
7.51923e-06
-5.09175e-08
7.47185e-06
-4.42226e-08
7.43052e-06
-3.84641e-08
7.39441e-06
-3.34995e-08
7.36284e-06
-2.92112e-08
7.33521e-06
-2.54998e-08
7.31103e-06
-2.22826e-08
7.28984e-06
-1.94891e-08
7.27126e-06
-1.70603e-08
7.25496e-06
-1.49452e-08
7.24066e-06
-1.31016e-08
7.22811e-06
-1.1492e-08
7.21708e-06
-1.00858e-08
7.20739e-06
-8.85525e-09
7.19887e-06
-7.77806e-09
7.19139e-06
-6.83334e-09
7.18481e-06
-6.00496e-09
7.17903e-06
-5.27698e-09
7.17395e-06
-4.63773e-09
7.16949e-06
-4.07489e-09
7.16557e-06
-3.5801e-09
7.16213e-06
-3.14366e-09
7.15911e-06
-2.75972e-09
7.15647e-06
-2.42047e-09
7.15415e-06
-2.12197e-09
7.15212e-06
-1.85778e-09
7.15034e-06
-1.62542e-09
7.1488e-06
-1.41944e-09
7.14745e-06
-1.23849e-09
7.14627e-06
-1.07785e-09
7.14526e-06
-9.37013e-10
7.14437e-06
-8.11803e-10
7.14361e-06
-7.02397e-10
7.14296e-06
-6.04975e-10
7.14239e-06
-5.2026e-10
7.14191e-06
-4.44688e-10
7.1415e-06
-3.79416e-10
7.14116e-06
-3.21062e-10
7.14086e-06
-2.71125e-10
7.14062e-06
-2.26345e-10
7.14042e-06
-1.88505e-10
7.14025e-06
-1.54426e-10
7.14012e-06
-1.26117e-10
7.14001e-06
-1.00456e-10
7.13992e-06
-7.96364e-11
7.13986e-06
-6.05728e-11
7.13981e-06
-4.56101e-11
7.13978e-06
-3.16857e-11
7.13975e-06
-2.12709e-11
7.13974e-06
-1.13193e-11
7.13974e-06
-4.4026e-12
7.13974e-06
2.5148e-12
7.13975e-06
6.77523e-12
7.13976e-06
1.14064e-11
7.13977e-06
1.36829e-11
7.13979e-06
1.66268e-11
7.13981e-06
1.74538e-11
7.13983e-06
1.91811e-11
7.13985e-06
1.89793e-11
7.13987e-06
1.98616e-11
7.13989e-06
1.89588e-11
7.13991e-06
1.92807e-11
7.13993e-06
1.79273e-11
7.13995e-06
1.79067e-11
7.13996e-06
1.62934e-11
7.13998e-06
1.60889e-11
7.13999e-06
1.43537e-11
7.14001e-06
1.40827e-11
7.14002e-06
1.2324e-11
7.14003e-06
1.20642e-11
7.14004e-06
1.03491e-11
7.14005e-06
1.01548e-11
7.14006e-06
8.52478e-12
7.14007e-06
8.42579e-12
7.14008e-06
6.90642e-12
7.14008e-06
6.92166e-12
7.14009e-06
5.52508e-12
7.1401e-06
5.66211e-12
7.1401e-06
4.39405e-12
7.1401e-06
4.6596e-12
7.14011e-06
3.5242e-12
7.14011e-06
3.91791e-12
7.14011e-06
2.91649e-12
7.14012e-06
3.43903e-12
7.14012e-06
2.56907e-12
7.14012e-06
3.21149e-12
7.14012e-06
2.46531e-12
7.14013e-06
3.21751e-12
7.14013e-06
2.57855e-12
7.14013e-06
3.42408e-12
7.14013e-06
2.85989e-12
7.14014e-06
3.76156e-12
7.14014e-06
3.20078e-12
7.14015e-06
4.01436e-12
7.14015e-06
3.26896e-12
7.14016e-06
3.67194e-12
7.14016e-06
2.54895e-12
7.14015e-06
2.26211e-12
7.14016e-06
2.30625e-12
2.62391e-12
1.67095e-05
-3.14245e-06
1.59422e-05
-3.31675e-06
1.44692e-05
-2.4248e-06
1.29151e-05
-1.70233e-06
1.15124e-05
-1.1886e-06
1.03238e-05
-8.32429e-07
9.34579e-06
-5.91028e-07
8.55109e-06
-4.28608e-07
7.90714e-06
-3.18293e-07
7.38403e-06
-2.41941e-07
6.95686e-06
-1.8787e-07
6.60581e-06
-1.48634e-07
6.31536e-06
-1.19475e-07
6.0735e-06
-9.73186e-08
5.87089e-06
-8.01455e-08
5.70023e-06
-6.66037e-08
5.55577e-06
-5.57675e-08
5.43298e-06
-4.69877e-08
5.3282e-06
-3.97995e-08
5.2385e-06
-3.38622e-08
5.16147e-06
-2.89215e-08
5.09516e-06
-2.47839e-08
5.03794e-06
-2.13001e-08
4.98846e-06
-1.83528e-08
4.94559e-06
-1.58494e-08
4.9084e-06
-1.37153e-08
4.87607e-06
-1.18904e-08
4.84794e-06
-1.03252e-08
4.82342e-06
-8.97977e-09
4.80204e-06
-7.82025e-09
4.78337e-06
-6.81915e-09
4.76705e-06
-5.95293e-09
4.75277e-06
-5.20235e-09
4.74027e-06
-4.55065e-09
4.72931e-06
-3.98423e-09
4.71971e-06
-3.49092e-09
4.71129e-06
-3.06103e-09
4.7039e-06
-2.68556e-09
4.69741e-06
-2.35764e-09
4.69171e-06
-2.07049e-09
4.68671e-06
-1.8192e-09
4.68231e-06
-1.59863e-09
4.67845e-06
-1.40528e-09
4.67506e-06
-1.23517e-09
4.67208e-06
-1.08585e-09
4.66946e-06
-9.54198e-10
4.66717e-06
-8.38536e-10
4.66515e-06
-7.36318e-10
4.66339e-06
-6.46507e-10
4.66184e-06
-5.66938e-10
4.66049e-06
-4.97061e-10
4.65931e-06
-4.35005e-10
4.65828e-06
-3.80578e-10
4.65738e-06
-3.32122e-10
4.6566e-06
-2.89721e-10
4.65593e-06
-2.5187e-10
4.65534e-06
-2.1887e-10
4.65484e-06
-1.89321e-10
4.6544e-06
-1.63696e-10
4.65403e-06
-1.40668e-10
4.65371e-06
-1.20849e-10
4.65344e-06
-1.02958e-10
4.65321e-06
-8.77175e-11
4.65302e-06
-7.38791e-11
4.65286e-06
-6.22563e-11
4.65273e-06
-5.16187e-11
4.65263e-06
-4.2853e-11
4.65254e-06
-3.47411e-11
4.65247e-06
-2.82295e-11
4.65242e-06
-2.21063e-11
4.65238e-06
-1.73668e-11
4.65235e-06
-1.28027e-11
4.65233e-06
-9.44958e-12
4.65232e-06
-6.1004e-12
4.65231e-06
-3.82335e-12
4.65231e-06
-1.41206e-12
4.65231e-06
3.78752e-14
4.65232e-06
1.7334e-12
4.65233e-06
2.55664e-12
4.65234e-06
3.71474e-12
4.65235e-06
4.07104e-12
4.65237e-06
4.83349e-12
4.65238e-06
4.85037e-12
4.6524e-06
5.32969e-12
4.65241e-06
5.10711e-12
4.65243e-06
5.3911e-12
4.65244e-06
4.99472e-12
4.65246e-06
5.1769e-12
4.65247e-06
4.67268e-12
4.65248e-06
4.76588e-12
4.65249e-06
4.21206e-12
4.6525e-06
4.26723e-12
4.65251e-06
3.69032e-12
4.65252e-06
3.73468e-12
4.65253e-06
3.16506e-12
4.65254e-06
3.20517e-12
4.65255e-06
2.65235e-12
4.65255e-06
2.7261e-12
4.65256e-06
2.20071e-12
4.65256e-06
2.29061e-12
4.65257e-06
1.80472e-12
4.65257e-06
1.92778e-12
4.65257e-06
1.47828e-12
4.65258e-06
1.63701e-12
4.65258e-06
1.22444e-12
4.65258e-06
1.40504e-12
4.65259e-06
1.05239e-12
4.65259e-06
1.25548e-12
4.65259e-06
9.17793e-13
4.65259e-06
1.15434e-12
4.65259e-06
8.27164e-13
4.6526e-06
1.09045e-12
4.6526e-06
7.91866e-13
4.6526e-06
1.09033e-12
4.6526e-06
8.37584e-13
4.6526e-06
1.19116e-12
4.6526e-06
9.84996e-13
4.65261e-06
1.34753e-12
4.65261e-06
1.07795e-12
4.65262e-06
1.16235e-12
4.65262e-06
4.49345e-13
4.65262e-06
-2.44918e-13
4.65261e-06
-6.87866e-13
4.65261e-06
-1.05543e-13
1.835e-12
1.38193e-05
1.05025e-05
8.07772e-06
6.37539e-06
5.18679e-06
4.35436e-06
3.76333e-06
3.33472e-06
3.01643e-06
2.77449e-06
2.58662e-06
2.43799e-06
2.31851e-06
2.22119e-06
2.14105e-06
2.07445e-06
2.01868e-06
1.97169e-06
1.93189e-06
1.89803e-06
1.86911e-06
1.84433e-06
1.82303e-06
1.80468e-06
1.78884e-06
1.77512e-06
1.76324e-06
1.75291e-06
1.74394e-06
1.73612e-06
1.72931e-06
1.72336e-06
1.71816e-06
1.71362e-06
1.70964e-06
1.70615e-06
1.7031e-06
1.70042e-06
1.69807e-06
1.69601e-06
1.69419e-06
1.6926e-06
1.69121e-06
1.68998e-06
1.6889e-06
1.68796e-06
1.68713e-06
1.6864e-06
1.68576e-06
1.68521e-06
1.68472e-06
1.68429e-06
1.68392e-06
1.6836e-06
1.68332e-06
1.68307e-06
1.68286e-06
1.68268e-06
1.68253e-06
1.6824e-06
1.68228e-06
1.68219e-06
1.68211e-06
1.68204e-06
1.68198e-06
1.68194e-06
1.6819e-06
1.68187e-06
1.68185e-06
1.68183e-06
1.68182e-06
1.68181e-06
1.6818e-06
1.6818e-06
1.6818e-06
1.6818e-06
1.6818e-06
1.68181e-06
1.68181e-06
1.68182e-06
1.68182e-06
1.68183e-06
1.68183e-06
1.68184e-06
1.68185e-06
1.68185e-06
1.68186e-06
1.68186e-06
1.68187e-06
1.68187e-06
1.68188e-06
1.68188e-06
1.68189e-06
1.68189e-06
1.68189e-06
1.6819e-06
1.6819e-06
1.6819e-06
1.6819e-06
1.68191e-06
1.68191e-06
1.68191e-06
1.68191e-06
1.68191e-06
1.68191e-06
1.68191e-06
1.68192e-06
1.68192e-06
1.68192e-06
1.68192e-06
1.68192e-06
1.68192e-06
1.68192e-06
1.68192e-06
1.68192e-06
1.68192e-06
1.68192e-06
1.68192e-06
1.68192e-06
1.68193e-06
1.68193e-06
1.68192e-06
1.68192e-06
1.68192e-06
)
;

boundaryField
{
    inlet
    {
        type            calculated;
        value           nonuniform List<scalar> 10(-9.13323e-06 -1.00031e-05 -1.08729e-05 -1.17427e-05 -1.26126e-05 -1.34824e-05 -1.43522e-05 -1.52221e-05 -1.60919e-05 -1.69617e-05);
    }
    outlet
    {