/*--------------------------------*- C++ -*----------------------------------*\
| =========                 |                                                 |
| \\      /  F ield         | OpenFOAM: The Open Source CFD Toolbox           |
|  \\    /   O peration     | Version:                                        |
|   \\  /    A nd           | Website:  www.openfoam.com                      |
|    \\/     M anipulation  |                                                 |
\*---------------------------------------------------------------------------*/
FoamFile
{
    version     2.0;
    format      ascii;
    class       volVectorField;
    location    "71";
    object      U;
}
// * * * * * * * * * * * * * * * * * * * * * * * * * * * * * * * * * * * * * //

dimensions      [0 1 -1 0 0 0 0];


internalField   nonuniform List<vector> 
1250
(
(1.00121 -0.0362569 -4.4406e-14)
(1.01663 -0.103231 -1.51169e-13)
(1.04437 -0.161173 -2.73625e-13)
(1.08117 -0.207599 -4.01146e-13)
(1.12272 -0.241687 -4.93827e-13)
(1.16568 -0.263889 -4.16605e-13)
(1.20752 -0.275487 3.09406e-13)
(1.24655 -0.278198 -8.31654e-13)
(1.28173 -0.273874 -2.715e-12)
(1.31259 -0.264289 -2.75449e-12)
(1.33909 -0.251018 -2.21854e-12)
(1.36142 -0.235381 -1.5025e-12)
(1.37997 -0.218438 -7.46411e-13)
(1.39516 -0.201 -1.45489e-14)
(1.40746 -0.18367 6.58866e-13)
(1.41731 -0.166873 1.2696e-12)
(1.42513 -0.150893 1.84964e-12)
(1.43127 -0.135907 2.45251e-12)
(1.43604 -0.122008 3.11344e-12)
(1.43971 -0.109232 3.81116e-12)
(1.44251 -0.0975711 4.4594e-12)
(1.44461 -0.0869888 4.95496e-12)
(1.44616 -0.0774304 5.31049e-12)
(1.44728 -0.0688302 5.85281e-12)
(1.44807 -0.0611166 7.14821e-12)
(1.4486 -0.0542165 9.41095e-12)
(1.44894 -0.0480574 1.20842e-11)
(1.44914 -0.0425697 1.38855e-11)
(1.44922 -0.0376877 1.27606e-11)
(1.44923 -0.0333498 8.09478e-12)
(1.44918 -0.0294994 1.07025e-12)
(1.44909 -0.0260846 -6.70682e-12)
(1.44898 -0.0230583 -1.31038e-11)
(1.44885 -0.0203777 -1.72505e-11)
(1.44872 -0.0180044 -1.98549e-11)
(1.44858 -0.0159039 -2.18412e-11)
(1.44844 -0.0140454 -2.41306e-11)
(1.44831 -0.0124013 -2.60376e-11)
(1.44818 -0.0109471 -2.41587e-11)
(1.44807 -0.00966086 -1.67757e-11)
(1.44795 -0.00852336 -1.18031e-11)
(1.44785 -0.00751736 -1.17287e-11)
(1.44776 -0.00662767 -1.24274e-11)
(1.44767 -0.00584081 -7.82016e-12)
(1.4476 -0.00514487 2.70278e-12)
(1.44753 -0.00452933 6.18301e-12)
(1.44746 -0.0039849 -3.49136e-13)
(1.44741 -0.00350334 -6.95531e-12)
(1.44736 -0.00307742 -9.32629e-12)
(1.44731 -0.00270071 -1.02475e-11)
(1.44727 -0.00236759 -1.04095e-11)
(1.44724 -0.00207303 -1.01419e-11)
(1.4472 -0.00181265 -9.89977e-12)
(1.44718 -0.00158254 -9.24604e-12)
(1.44715 -0.00137926 -3.86145e-12)
(1.44713 -0.00119977 2.50694e-12)
(1.44711 -0.00104138 1.12626e-12)
(1.4471 -0.000901703 -2.34739e-12)
(1.44708 -0.000778646 -2.46503e-12)
(1.44707 -0.000670324 -1.85843e-12)
(1.44706 -0.0005751 -1.35458e-12)
(1.44705 -0.000491485 -1.15239e-12)
(1.44704 -0.000418194 -1.25007e-12)
(1.44703 -0.000354049 -1.56501e-12)
(1.44703 -0.000298036 -1.93155e-12)
(1.44702 -0.00024922 -2.05524e-12)
(1.44702 -0.0002068 -1.56101e-12)
(1.44702 -0.000170028 -4.23336e-13)
(1.44701 -0.000138273 7.98323e-13)
(1.44701 -0.000110934 1.44791e-12)
(1.44701 -8.75119e-05 1.15786e-12)
(1.44701 -6.75235e-05 1.54401e-13)
(1.447 -5.05752e-05 -6.9454e-13)
(1.447 -3.62757e-05 -8.5356e-13)
(1.447 -2.4316e-05 -6.27403e-13)
(1.447 -1.43793e-05 -4.75948e-13)
(1.447 -6.22419e-06 -6.01875e-13)
(1.447 4.06143e-07 -1.0674e-12)
(1.447 5.69853e-06 -1.88519e-12)
(1.447 9.86107e-06 -3.04043e-12)
(1.447 1.30363e-05 -4.46106e-12)
(1.447 1.53928e-05 -5.97113e-12)
(1.447 1.7037e-05 -7.33891e-12)
(1.447 1.81053e-05 -8.70149e-12)
(1.447 1.86748e-05 -1.07496e-11)
(1.447 1.88558e-05 -1.40642e-11)
(1.447 1.87015e-05 -1.71574e-11)
(1.447 1.8301e-05 -1.51485e-11)
(1.447 1.76883e-05 -7.23185e-12)
(1.447 1.69355e-05 -8.20613e-13)
(1.447 1.60612e-05 1.09258e-12)
(1.447 1.5124e-05 1.45879e-12)
(1.447 1.41302e-05 1.43159e-12)
(1.447 1.31279e-05 1.66998e-12)
(1.447 1.2114e-05 2.28436e-12)
(1.447 1.11283e-05 3.61335e-12)
(1.447 1.01604e-05 4.74229e-12)
(1.447 9.24432e-06 4.93957e-12)
(1.447 8.36434e-06 4.9206e-12)
(1.447 7.54979e-06 4.7881e-12)
(1.447 6.78154e-06 4.62467e-12)
(1.447 6.08592e-06 4.45244e-12)
(1.447 5.44146e-06 4.24246e-12)
(1.447 4.87261e-06 3.92857e-12)
(1.447 4.35682e-06 4.28808e-12)
(1.447 3.91766e-06 4.02218e-12)
(1.447 3.53226e-06 3.78187e-12)
(1.447 3.22389e-06 3.55055e-12)
(1.447 2.96992e-06 3.31756e-12)
(1.447 2.79347e-06 3.06787e-12)
(1.447 2.67187e-06 2.78215e-12)
(1.447 2.62771e-06 2.43543e-12)
(1.447 2.6382e-06 1.98322e-12)
(1.447 2.72543e-06 2.23446e-12)
(1.447 2.86688e-06 1.93249e-12)
(1.447 3.08452e-06 1.76832e-12)
(1.447 3.35361e-06 1.74028e-12)
(1.447 3.69084e-06 1.81361e-12)
(1.447 4.06289e-06 1.93478e-12)
(1.447 4.46816e-06 2.05765e-12)
(1.447 4.84729e-06 2.15367e-12)
(1.447 5.16038e-06 2.21151e-12)
(1.447 5.289e-06 2.2303e-12)
(1.447 5.09103e-06 2.21486e-12)
(1.447 4.44576e-06 2.17199e-12)
(1.00155 -0.0437407 -2.18016e-14)
(1.01979 -0.122453 -7.21536e-14)
(1.05125 -0.18802 -1.22618e-13)
(1.09125 -0.237819 -1.61967e-13)
(1.13433 -0.271657 -1.69438e-13)
(1.17658 -0.290976 -1.16766e-13)
(1.2155 -0.298084 -2.10703e-14)
(1.24966 -0.295583 -2.94641e-13)
(1.27848 -0.285993 -7.12369e-13)
(1.30199 -0.271526 -7.16998e-13)
(1.32057 -0.25401 -3.72419e-13)
(1.33483 -0.23487 1.90558e-13)
(1.3454 -0.215171 8.57383e-13)
(1.35296 -0.195673 1.52916e-12)
(1.35808 -0.17689 2.12882e-12)
(1.36129 -0.15915 2.63541e-12)
(1.36304 -0.142641 3.125e-12)
(1.36369 -0.127448 3.74189e-12)
(1.36354 -0.113588 4.59197e-12)
(1.36281 -0.101029 5.64969e-12)
(1.36169 -0.0897115 6.72046e-12)
(1.36033 -0.0795555 7.47451e-12)
(1.35882 -0.0704732 7.66856e-12)
(1.35724 -0.0623735 7.78073e-12)
(1.35565 -0.055166 8.94468e-12)
(1.3541 -0.0487639 1.19039e-11)
(1.3526 -0.0430855 1.64824e-11)
(1.35118 -0.0380548 2.10898e-11)
(1.34986 -0.033602 1.92163e-11)
(1.34862 -0.0296637 9.98085e-12)
(1.34748 -0.0261825 -2.23925e-12)
(1.34644 -0.0231066 -1.49863e-11)
(1.34548 -0.0203898 -2.2564e-11)
(1.34462 -0.0179907 -2.41919e-11)
(1.34383 -0.0158725 -2.42932e-11)
(1.34312 -0.0140025 -2.42646e-11)
(1.34249 -0.0123516 -2.44099e-11)
(1.34191 -0.0108942 -2.42437e-11)
(1.3414 -0.00960744 -2.27737e-11)
(1.34094 -0.00847133 -1.97597e-11)
(1.34053 -0.00746809 -1.68889e-11)
(1.34017 -0.00658206 -1.5027e-11)
(1.33985 -0.00579942 -1.32851e-11)
(1.33956 -0.00510803 -1.02128e-11)
(1.3393 -0.00449713 -6.01276e-12)
(1.33907 -0.00395731 -3.65524e-12)
(1.33887 -0.00348022 -4.29461e-12)
(1.3387 -0.00305854 -5.98483e-12)
(1.33854 -0.00268581 -7.14723e-12)
(1.3384 -0.00235635 -7.74495e-12)
(1.33828 -0.00206513 -7.90508e-12)
(1.33817 -0.00180776 -7.73598e-12)
(1.33808 -0.00158032 -7.2828e-12)
(1.338 -0.0013794 -6.29191e-12)
(1.33792 -0.00120195 -4.12615e-12)
(1.33786 -0.00104531 -1.83068e-12)
(1.33781 -0.000907104 -1.29613e-12)
(1.33776 -0.000785265 -1.74959e-12)
(1.33772 -0.000677921 -1.85914e-12)
(1.33768 -0.000583462 -1.6959e-12)
(1.33765 -0.000500413 -1.47673e-12)
(1.33762 -0.000427517 -1.33101e-12)
(1.3376 -0.000363608 -1.3e-12)
(1.33758 -0.000307698 -1.35954e-12)
(1.33757 -0.000258861 -1.4305e-12)
(1.33755 -0.000216322 -1.38843e-12)
(1.33754 -0.00017934 -1.11268e-12)
(1.33753 -0.000147307 -6.06107e-13)
(1.33752 -0.000119627 -5.26297e-14)
(1.33752 -9.58227e-05 3.02582e-13)
(1.33751 -7.54115e-05 3.07761e-13)
(1.33751 -5.80192e-05 1.92082e-14)
(1.3375 -4.32548e-05 -3.15382e-13)
(1.3375 -3.08258e-05 -5.03522e-13)
(1.3375 -2.04135e-05 -5.68278e-13)
(1.3375 -1.17911e-05 -6.40066e-13)
(1.33749 -4.69794e-06 -8.29509e-13)
(1.33749 1.03953e-06 -1.20206e-12)
(1.33749 5.63513e-06 -1.78901e-12)
(1.33749 9.21962e-06 -2.59132e-12)
(1.33749 1.19686e-05 -3.57668e-12)
(1.33749 1.39778e-05 -4.67976e-12)
(1.33749 1.53918e-05 -5.8369e-12)
(1.33749 1.62781e-05 -7.07878e-12)
(1.33749 1.67559e-05 -8.52227e-12)
(1.3375 1.68693e-05 -1.01032e-11)
(1.3375 1.67174e-05 -1.11163e-11)
(1.3375 1.63254e-05 -1.02789e-11)
(1.3375 1.57757e-05 -7.44243e-12)
(1.3375 1.50786e-05 -4.35274e-12)
(1.3375 1.43031e-05 -2.21338e-12)
(1.3375 1.34475e-05 -8.24918e-13)
(1.3375 1.25704e-05 1.67178e-13)
(1.3375 1.16607e-05 1.0427e-12)
(1.3375 1.07686e-05 1.92543e-12)
(1.3375 9.87599e-06 2.85463e-12)
(1.3375 9.02693e-06 3.60537e-12)
(1.3375 8.19767e-06 3.98494e-12)
(1.3375 7.42778e-06 4.09805e-12)
(1.3375 6.68983e-06 4.03828e-12)
(1.3375 6.02008e-06 3.88343e-12)
(1.3375 5.3885e-06 3.68252e-12)
(1.3375 4.82931e-06 3.46268e-12)
(1.3375 4.3112e-06 3.25678e-12)
(1.3375 3.86712e-06 3.17882e-12)
(1.3375 3.46516e-06 3.03886e-12)
(1.3375 3.13785e-06 2.90298e-12)
(1.3375 2.85343e-06 2.79222e-12)
(1.3375 2.64403e-06 2.70346e-12)
(1.3375 2.47797e-06 2.61873e-12)
(1.3375 2.38676e-06 2.51587e-12)
(1.3375 2.33875e-06 2.38235e-12)
(1.3375 2.36504e-06 2.23638e-12)
(1.3375 2.43434e-06 2.1935e-12)
(1.3375 2.57789e-06 2.07743e-12)
(1.3375 2.76406e-06 1.96937e-12)
(1.3375 3.02186e-06 1.90297e-12)
(1.3375 3.31352e-06 1.88183e-12)
(1.3375 3.65521e-06 1.89251e-12)
(1.3375 3.99343e-06 1.91722e-12)
(1.33751 4.31733e-06 1.94006e-12)
(1.33751 4.54168e-06 1.95169e-12)
(1.33751 4.60358e-06 1.94706e-12)
(1.33751 4.40272e-06 1.92572e-12)
(1.33751 3.84762e-06 1.88922e-12)
(1.00207 -0.0532024 -5.59855e-15)
(1.02414 -0.145499 -1.64198e-14)
(1.05994 -0.218445 -2.01186e-14)
(1.10288 -0.269805 -8.0418e-15)
(1.1461 -0.300803 3.02474e-14)
(1.18543 -0.314563 1.02189e-13)
(1.2187 -0.314885 1.93671e-13)
(1.24516 -0.30548 2.46468e-13)
(1.26497 -0.289576 3.2981e-13)
(1.27883 -0.269768 5.92881e-13)
(1.28767 -0.248014 1.07566e-12)
(1.29246 -0.225718 1.74298e-12)
(1.29413 -0.203833 2.50821e-12)
(1.29348 -0.182969 3.23751e-12)
(1.29116 -0.163481 3.78063e-12)
(1.28772 -0.145547 4.07165e-12)
(1.28357 -0.129222 4.30098e-12)
(1.27903 -0.114486 4.85524e-12)
(1.27433 -0.101264 6.00854e-12)
(1.26963 -0.0894582 7.72895e-12)
(1.26506 -0.0789543 9.61457e-12)
(1.26069 -0.0696346 1.07943e-11)
(1.25657 -0.0613832 1.00178e-11)
(1.25274 -0.0540895 8.27158e-12)
(1.24919 -0.0476502 8.7985e-12)
(1.24594 -0.0419706 1.33504e-11)
(1.24297 -0.0369645 2.23665e-11)
(1.24028 -0.0325543 3.7891e-11)
(1.23784 -0.0286703 3.46166e-11)
(1.23564 -0.0252505 1.25584e-11)
(1.23366 -0.0222399 -8.87868e-12)
(1.23188 -0.0195896 -3.38126e-11)
(1.23029 -0.0172564 -4.19968e-11)
(1.22887 -0.0152022 -3.33036e-11)
(1.2276 -0.0133934 -2.8725e-11)
(1.22647 -0.0118004 -2.64153e-11)
(1.22547 -0.0103972 -2.52416e-11)
(1.22457 -0.00916089 -2.43337e-11)
(1.22378 -0.00807135 -2.30658e-11)
(1.22307 -0.00711092 -2.12508e-11)
(1.22244 -0.00626405 -1.92309e-11)
(1.22189 -0.00551712 -1.72624e-11)
(1.2214 -0.00485815 -1.51843e-11)
(1.22096 -0.00427662 -1.27073e-11)
(1.22058 -0.0037633 -1.00085e-11)
(1.22024 -0.00331009 -7.89572e-12)
(1.21994 -0.00290985 -6.83162e-12)
(1.21968 -0.00255634 -6.49158e-12)
(1.21945 -0.00224406 -6.39155e-12)
(1.21924 -0.00196818 -6.30941e-12)
(1.21906 -0.00172444 -6.15668e-12)
(1.21891 -0.00150911 -5.88782e-12)
(1.21877 -0.0013189 -5.45124e-12)
(1.21865 -0.00115091 -4.74872e-12)
(1.21854 -0.00100259 -3.70896e-12)
(1.21845 -0.000871699 -2.6506e-12)
(1.21837 -0.000756234 -2.04853e-12)
(1.2183 -0.000654455 -1.84016e-12)
(1.21824 -0.000564804 -1.7133e-12)
(1.21819 -0.00048592 -1.56978e-12)
(1.21814 -0.00041658 -1.42157e-12)
(1.2181 -0.000355718 -1.30269e-12)
(1.21807 -0.000302371 -1.22949e-12)
(1.21804 -0.000255701 -1.19288e-12)
(1.21802 -0.000214947 -1.15801e-12)
(1.218 -0.000179448 -1.07441e-12)
(1.21798 -0.000148598 -9.00331e-13)
(1.21797 -0.000121876 -6.40679e-13)
(1.21796 -9.87972e-05 -3.62049e-13)
(1.21795 -7.89491e-05 -1.58035e-13)
(1.21794 -6.19428e-05 -9.31859e-14)
(1.21793 -4.74521e-05 -1.61871e-13)
(1.21793 -3.51636e-05 -2.93834e-13)
(1.21792 -2.48197e-05 -4.22178e-13)
(1.21792 -1.61674e-05 -5.37274e-13)
(1.21792 -9.00368e-06 -6.75847e-13)
(1.21792 -3.12441e-06 -8.86836e-13)
(1.21792 1.62948e-06 -1.21048e-12)
(1.21792 5.42276e-06 -1.67345e-12)
(1.21792 8.37884e-06 -2.28495e-12)
(1.21792 1.06305e-05 -3.03565e-12)
(1.21792 1.2272e-05 -3.902e-12)
(1.21792 1.34101e-05 -4.85624e-12)
(1.21792 1.41155e-05 -5.88038e-12)
(1.21792 1.44737e-05 -6.94251e-12)
(1.21792 1.4536e-05 -7.90681e-12)
(1.21792 1.43709e-05 -8.44247e-12)
(1.21792 1.4014e-05 -8.1296e-12)
(1.21793 1.35197e-05 -6.89435e-12)
(1.21793 1.29111e-05 -5.18149e-12)
(1.21793 1.22314e-05 -3.45211e-12)
(1.21793 1.14939e-05 -1.86927e-12)
(1.21793 1.07328e-05 -4.52173e-13)
(1.21793 9.95334e-06 8.08558e-13)
(1.21793 9.18312e-06 1.89731e-12)
(1.21793 8.42138e-06 2.77274e-12)
(1.21793 7.69034e-06 3.36045e-12)
(1.21793 6.98469e-06 3.62793e-12)
(1.21793 6.32289e-06 3.63631e-12)
(1.21793 5.69654e-06 3.47583e-12)
(1.21793 5.12135e-06 3.22665e-12)
(1.21793 4.58674e-06 2.94444e-12)
(1.21793 4.1068e-06 2.66424e-12)
(1.21794 3.66983e-06 2.41576e-12)
(1.21794 3.28895e-06 2.23122e-12)
(1.21794 2.95191e-06 2.09707e-12)
(1.21794 2.67156e-06 2.03166e-12)
(1.21794 2.43564e-06 2.04438e-12)
(1.21794 2.25669e-06 2.1187e-12)
(1.21794 2.12227e-06 2.21477e-12)
(1.21794 2.04459e-06 2.28854e-12)
(1.21794 2.0113e-06 2.3146e-12)
(1.21794 2.03448e-06 2.29364e-12)
(1.21794 2.1018e-06 2.2498e-12)
(1.21794 2.2249e-06 2.16861e-12)
(1.21794 2.39e-06 2.07207e-12)
(1.21794 2.60539e-06 1.9817e-12)
(1.21794 2.85095e-06 1.90904e-12)
(1.21794 3.12465e-06 1.85482e-12)
(1.21794 3.39407e-06 1.81504e-12)
(1.21794 3.63883e-06 1.7836e-12)
(1.21794 3.80566e-06 1.75447e-12)
(1.21794 3.83689e-06 1.72318e-12)
(1.21794 3.64904e-06 1.68781e-12)
(1.21794 3.17284e-06 1.64751e-12)
(1.00293 -0.0655405 5.2534e-15)
(1.03023 -0.173371 2.05759e-14)
(1.07077 -0.252389 4.76738e-14)
(1.11539 -0.302054 9.43895e-14)
(1.156 -0.32641 1.7171e-13)
(1.18873 -0.331246 2.90241e-13)
(1.21247 -0.322332 4.5918e-13)
(1.22764 -0.304597 6.9039e-13)
(1.23543 -0.281865 1.03018e-12)
(1.23735 -0.256896 1.54661e-12)
(1.23487 -0.231558 2.2826e-12)
(1.22927 -0.207037 3.22952e-12)
(1.22162 -0.184026 4.2968e-12)
(1.21276 -0.162875 5.26625e-12)
(1.2033 -0.143714 5.78297e-12)
(1.19371 -0.126533 5.55328e-12)
(1.18429 -0.111239 5.03922e-12)
(1.17525 -0.0976949 5.31267e-12)
(1.16673 -0.0857444 7.01319e-12)
(1.15879 -0.0752275 1.00729e-11)
(1.15147 -0.0659888 1.38945e-11)
(1.14478 -0.0578827 1.68253e-11)
(1.13869 -0.0507761 1.31698e-11)
(1.13317 -0.0445486 5.16716e-12)
(1.1282 -0.0390928 3.68479e-12)
(1.12374 -0.0343134 1.06274e-11)
(1.11973 -0.0301263 2.27377e-11)
(1.11616 -0.0264576 4.05611e-11)
(1.11296 -0.0232422 3.73922e-11)
(1.11011 -0.0204235 1.00564e-11)
(1.10758 -0.0179517 -1.33938e-11)
(1.10533 -0.0157833 -3.58797e-11)
(1.10332 -0.0138803 -4.30143e-11)
(1.10155 -0.0122097 -3.33366e-11)
(1.09997 -0.0107425 -2.83415e-11)
(1.09858 -0.00945334 -2.62277e-11)
(1.09734 -0.00832014 -2.53842e-11)
(1.09625 -0.00732361 -2.47028e-11)
(1.09528 -0.00644689 -2.37279e-11)
(1.09442 -0.00567525 -2.23615e-11)
(1.09367 -0.00499579 -2.07054e-11)
(1.093 -0.00439727 -1.88567e-11)
(1.09241 -0.00386982 -1.67962e-11)
(1.09189 -0.00340483 -1.44761e-11)
(1.09143 -0.00299475 -1.20106e-11)
(1.09102 -0.00263298 -9.71941e-12)
(1.09067 -0.00231372 -7.88261e-12)
(1.09035 -0.00203192 -6.56421e-12)
(1.09007 -0.00178312 -5.67506e-12)
(1.08983 -0.00156343 -5.0885e-12)
(1.08962 -0.00136941 -4.68001e-12)
(1.08943 -0.00119808 -4.34219e-12)
(1.08927 -0.00104678 -3.98573e-12)
(1.08913 -0.000913193 -3.54232e-12)
(1.089 -0.000795277 -2.99682e-12)
(1.08889 -0.000691233 -2.44529e-12)
(1.0888 -0.000599474 -2.02471e-12)
(1.08872 -0.000518601 -1.75471e-12)
(1.08864 -0.000447378 -1.56885e-12)
(1.08858 -0.000384714 -1.41893e-12)
(1.08853 -0.000329641 -1.29017e-12)
(1.08848 -0.000281305 -1.18331e-12)
(1.08845 -0.000238947 -1.09963e-12)
(1.08841 -0.000201893 -1.03297e-12)
(1.08839 -0.000169544 -9.67034e-13)
(1.08836 -0.000141369 -8.8138e-13)
(1.08834 -0.000116892 -7.60954e-13)
(1.08833 -9.56939e-05 -6.09448e-13)
(1.08831 -7.73943e-05 -4.53228e-13)
(1.0883 -6.166e-05 -3.29791e-13)
(1.08829 -4.81879e-05 -2.68496e-13)
(1.08829 -3.67123e-05 -2.74527e-13)
(1.08828 -2.69908e-05 -3.30722e-13)
(1.08828 -1.88118e-05 -4.1614e-13)
(1.08827 -1.19807e-05 -5.25342e-13)
(1.08827 -6.32948e-06 -6.71117e-13)
(1.08827 -1.70238e-06 -8.76074e-13)
(1.08827 2.03388e-06 -1.16367e-12)
(1.08827 5.00377e-06 -1.55383e-12)
(1.08827 7.31223e-06 -2.05803e-12)
(1.08827 9.05819e-06 -2.67924e-12)
(1.08827 1.03236e-05 -3.41099e-12)
(1.08827 1.11865e-05 -4.23895e-12)
(1.08827 1.17103e-05 -5.13578e-12)
(1.08828 1.1956e-05 -6.04365e-12)
(1.08828 1.19715e-05 -6.84297e-12)
(1.08828 1.18044e-05 -7.33382e-12)
(1.08828 1.14899e-05 -7.29254e-12)
(1.08828 1.10645e-05 -6.61153e-12)
(1.08828 1.05535e-05 -5.38274e-12)
(1.08828 9.9843e-06 -3.80234e-12)
(1.08829 9.37437e-06 -2.05744e-12)
(1.08829 8.744e-06 -3.1188e-13)
(1.08829 8.1043e-06 1.27636e-12)
(1.08829 7.47016e-06 2.554e-12)
(1.08829 6.8479e-06 3.40457e-12)
(1.08829 6.24813e-06 3.78483e-12)
(1.08829 5.67358e-06 3.75315e-12)
(1.08829 5.13193e-06 3.45319e-12)
(1.08829 4.62336e-06 3.03332e-12)
(1.08829 4.15334e-06 2.59121e-12)
(1.08829 3.72041e-06 2.17384e-12)
(1.08829 3.32882e-06 1.79867e-12)
(1.08829 2.97614e-06 1.47875e-12)
(1.08829 2.6659e-06 1.23634e-12)
(1.08829 2.39525e-06 1.10101e-12)
(1.0883 2.16759e-06 1.11267e-12)
(1.0883 1.9799e-06 1.28992e-12)
(1.0883 1.83528e-06 1.59091e-12)
(1.0883 1.73056e-06 1.91931e-12)
(1.0883 1.66879e-06 2.18299e-12)
(1.0883 1.64666e-06 2.3372e-12)
(1.0883 1.66702e-06 2.38377e-12)
(1.0883 1.72638e-06 2.34883e-12)
(1.0883 1.82669e-06 2.25763e-12)
(1.0883 1.96223e-06 2.13799e-12)
(1.0883 2.13082e-06 2.01246e-12)
(1.0883 2.32127e-06 1.89566e-12)
(1.0883 2.52409e-06 1.79401e-12)
(1.0883 2.71877e-06 1.70898e-12)
(1.0883 2.88542e-06 1.63785e-12)
(1.0883 2.99217e-06 1.57729e-12)
(1.0883 2.99607e-06 1.52373e-12)
(1.0883 2.83652e-06 1.47472e-12)
(1.0883 2.47418e-06 1.42833e-12)
(1.00438 -0.0821353 1.18608e-14)
(1.03878 -0.207047 4.31932e-14)
(1.08351 -0.288731 8.94283e-14)
(1.12656 -0.331267 1.59604e-13)
(1.15952 -0.343817 2.66632e-13)
(1.18011 -0.335995 4.28005e-13)
(1.18924 -0.315816 6.67068e-13)
(1.18904 -0.289204 1.01802e-12)
(1.18196 -0.260174 1.53433e-12)
(1.17021 -0.231242 2.28542e-12)
(1.15562 -0.203851 3.33935e-12)
(1.13958 -0.17873 4.73281e-12)
(1.12309 -0.156159 6.39994e-12)
(1.10685 -0.136147 8.01769e-12)
(1.0913 -0.11856 8.74255e-12)
(1.07669 -0.103192 7.19191e-12)
(1.06316 -0.0898098 4.51654e-12)
(1.05078 -0.0781816 3.97722e-12)
(1.03953 -0.0680884 6.76127e-12)
(1.02937 -0.0593312 1.23004e-11)
(1.02024 -0.0517328 2.03373e-11)
(1.01206 -0.0451375 3.20808e-11)
(1.00476 -0.0394097 2.22102e-11)
(0.998262 -0.0344319 -7.54235e-12)
(0.992483 -0.0301028 -1.26301e-11)
(0.987351 -0.0263349 3.65797e-12)
(0.982801 -0.0230528 1.96653e-11)
(0.97877 -0.0201917 3.77084e-11)
(0.975201 -0.0176956 2.89615e-11)
(0.972044 -0.0155163 -9.04883e-12)
(0.969252 -0.0136122 -2.80953e-11)
(0.966784 -0.0119474 -2.81882e-11)
(0.964603 -0.0104906 -2.75844e-11)
(0.962676 -0.00921517 -2.4134e-11)
(0.960975 -0.00809763 -2.26622e-11)
(0.959473 -0.00711785 -2.3808e-11)
(0.958146 -0.00625828 -2.51571e-11)
(0.956976 -0.00550372 -2.53427e-11)
(0.955943 -0.00484092 -2.46689e-11)
(0.955032 -0.0042584 -2.34481e-11)
(0.954228 -0.00374613 -2.18988e-11)
(0.953519 -0.00329539 -2.01147e-11)
(0.952894 -0.00289859 -1.8055e-11)
(0.952344 -0.0025491 -1.56321e-11)
(0.951859 -0.00224113 -1.28985e-11)
(0.951432 -0.00196964 -1.01133e-11)
(0.951056 -0.00173021 -7.61366e-12)
(0.950726 -0.00151899 -5.66687e-12)
(0.950436 -0.00133259 -4.34967e-12)
(0.950181 -0.00116807 -3.55555e-12)
(0.949958 -0.00102284 -3.10947e-12)
(0.949762 -0.000894621 -2.84765e-12)
(0.949591 -0.000781426 -2.64806e-12)
(0.949441 -0.000681509 -2.43565e-12)
(0.949311 -0.000593328 -2.18406e-12)
(0.949197 -0.000515535 -1.91712e-12)
(0.949098 -0.000446937 -1.67839e-12)
(0.949013 -0.000386485 -1.4877e-12)
(0.948939 -0.000333252 -1.3371e-12)
(0.948875 -0.000286422 -1.21281e-12)
(0.94882 -0.000245269 -1.10676e-12)
(0.948773 -0.000209156 -1.01613e-12)
(0.948733 -0.000177511 -9.3859e-13)
(0.948698 -0.000149835 -8.69718e-13)
(0.94867 -0.000125676 -8.02219e-13)
(0.948645 -0.00010464 -7.27609e-13)
(0.948625 -8.63687e-05 -6.40573e-13)
(0.948609 -7.05508e-05 -5.43563e-13)
(0.948595 -5.69003e-05 -4.48071e-13)
(0.948584 -4.51698e-05 -3.70429e-13)
(0.948575 -3.51306e-05 -3.25222e-13)
(0.948568 -2.65862e-05 -3.18449e-13)
(0.948563 -1.9353e-05 -3.48378e-13)
(0.948559 -1.32748e-05 -4.10722e-13)
(0.948556 -8.20401e-06 -5.05912e-13)
(0.948554 -4.01672e-06 -6.41065e-13)
(0.948553 -5.94291e-07 -8.29416e-13)
(0.948553 2.1611e-06 -1.08653e-12)
(0.948553 4.34469e-06 -1.42845e-12)
(0.948554 6.03309e-06 -1.8691e-12)
(0.948555 7.30252e-06 -2.4199e-12)
(0.948556 8.21238e-06 -3.08692e-12)
(0.948557 8.82329e-06 -3.86924e-12)
(0.948559 9.18058e-06 -4.75122e-12)
(0.94856 9.33221e-06 -5.68503e-12)
(0.948562 9.31203e-06 -6.56621e-12)
(0.948564 9.15767e-06 -7.21584e-12)
(0.948565 8.89361e-06 -7.39623e-12)
(0.948567 8.54912e-06 -6.8965e-12)
(0.948568 8.14122e-06 -5.67065e-12)
(0.94857 7.69242e-06 -3.85639e-12)
(0.948571 7.21371e-06 -1.67989e-12)
(0.948572 6.7223e-06 5.90411e-13)
(0.948574 6.22451e-06 2.64437e-12)
(0.948575 5.73337e-06 4.15831e-12)
(0.948576 5.25157e-06 4.90925e-12)
(0.948577 4.789e-06 4.86749e-12)
(0.948577 4.3457e-06 4.23351e-12)
(0.948578 3.92926e-06 3.36086e-12)
(0.948579 3.53779e-06 2.52795e-12)
(0.948579 3.17734e-06 1.83547e-12)
(0.94858 2.8448e-06 1.27484e-12)
(0.948581 2.54528e-06 8.06459e-13)
(0.948581 2.27495e-06 4.07183e-13)
(0.948581 2.03843e-06 9.56219e-14)
(0.948582 1.83165e-06 -5.96537e-14)
(0.948582 1.6591e-06 4.74363e-14)
(0.948582 1.51647e-06 4.87904e-13)
(0.948583 1.40809e-06 1.16945e-12)
(0.948583 1.3296e-06 1.84787e-12)
(0.948583 1.28516e-06 2.32779e-12)
(0.948583 1.27013e-06 2.56471e-12)
(0.948584 1.28843e-06 2.60438e-12)
(0.948584 1.33491e-06 2.51656e-12)
(0.948584 1.41218e-06 2.36069e-12)
(0.948584 1.5128e-06 2.17955e-12)
(0.948585 1.63578e-06 1.99941e-12)
(0.948585 1.76909e-06 1.83527e-12)
(0.948585 1.90639e-06 1.69335e-12)
(0.948586 2.03024e-06 1.57397e-12)
(0.948586 2.12948e-06 1.47518e-12)
(0.948587 2.18231e-06 1.39342e-12)
(0.948587 2.16467e-06 1.32486e-12)
(0.948587 2.04489e-06 1.26667e-12)
(0.948587 1.80355e-06 1.21652e-12)
(1.00673 -0.104995 1.48305e-14)
(1.05029 -0.246757 5.36056e-14)
(1.09602 -0.323778 1.08768e-13)
(1.13046 -0.350875 1.9114e-13)
(1.14742 -0.345549 3.14919e-13)
(1.14832 -0.322015 5.02157e-13)
(1.13715 -0.290089 7.85596e-13)
(1.11802 -0.255856 1.21204e-12)
(1.09434 -0.222726 1.85157e-12)
(1.06866 -0.192376 2.80319e-12)
(1.04272 -0.165446 4.19772e-12)
(1.01764 -0.142001 6.19305e-12)
(0.994078 -0.121817 8.91732e-12)
(0.972357 -0.10455 1.22224e-11)
(0.952603 -0.0898244 1.46844e-11)
(0.934807 -0.0772785 9.69722e-12)
(0.918883 -0.066587 3.70956e-13)
(0.904703 -0.0574659 -1.82498e-12)
(0.892121 -0.0496725 3.73852e-12)
(0.880986 -0.0430015 1.27518e-11)
(0.871147 -0.0372805 2.38304e-11)
(0.862467 -0.0323647 3.35575e-11)
(0.854816 -0.028133 2.0943e-11)
(0.848076 -0.0244837 -9.86008e-12)
(0.842141 -0.0213313 -1.51846e-11)
(0.836917 -0.0186039 2.39587e-12)
(0.832319 -0.0162407 1.88544e-11)
(0.828273 -0.0141902 3.18961e-11)
(0.824711 -0.0124088 1.84463e-11)
(0.821577 -0.0108593 -1.71736e-11)
(0.818818 -0.00950998 -3.01534e-11)
(0.81639 -0.00833371 -2.28025e-11)
(0.814252 -0.00730727 -1.70181e-11)
(0.81237 -0.00641072 -1.19985e-11)
(0.810712 -0.0056269 -1.35064e-11)
(0.809253 -0.00494105 -2.17147e-11)
(0.807967 -0.00434042 -2.70237e-11)
(0.806836 -0.00381401 -2.72736e-11)
(0.805839 -0.00335227 -2.62075e-11)
(0.804961 -0.00294699 -2.46656e-11)
(0.804187 -0.00259099 -2.29886e-11)
(0.803506 -0.00227808 -2.12455e-11)
(0.802907 -0.00200286 -1.92169e-11)
(0.802379 -0.00176065 -1.65129e-11)
(0.801915 -0.00154738 -1.30777e-11)
(0.801507 -0.00135948 -9.3466e-12)
(0.801148 -0.00119387 -5.93766e-12)
(0.800833 -0.00104783 -3.44931e-12)
(0.800556 -0.000919014 -2.05066e-12)
(0.800313 -0.000805355 -1.44518e-12)
(0.8001 -0.000705049 -1.28252e-12)
(0.799914 -0.000616517 -1.30895e-12)
(0.799751 -0.000538375 -1.37524e-12)
(0.799608 -0.000469409 -1.409e-12)
(0.799484 -0.000408554 -1.38786e-12)
(0.799376 -0.000354872 -1.32151e-12)
(0.799283 -0.00030754 -1.23268e-12)
(0.799202 -0.000265832 -1.13978e-12)
(0.799131 -0.000229108 -1.05075e-12)
(0.799071 -0.000196802 -9.68433e-13)
(0.799019 -0.000168416 -8.92592e-13)
(0.798975 -0.000143507 -8.23592e-13)
(0.798937 -0.000121684 -7.60964e-13)
(0.798905 -0.000102598 -7.02343e-13)
(0.798878 -8.59426e-05 -6.44902e-13)
(0.798855 -7.14413e-05 -5.85321e-13)
(0.798836 -5.8851e-05 -5.22017e-13)
(0.798821 -4.79529e-05 -4.57007e-13)
(0.798808 -3.85536e-05 -3.95976e-13)
(0.798798 -3.04786e-05 -3.46701e-13)
(0.79879 -2.35739e-05 -3.16758e-13)
(0.798783 -1.76999e-05 -3.11573e-13)
(0.798779 -1.27337e-05 -3.33486e-13)
(0.798775 -8.5636e-06 -3.83355e-13)
(0.798773 -5.09129e-06 -4.65112e-13)
(0.798772 -2.22747e-06 -5.84729e-13)
(0.798771 1.06297e-07 -7.51962e-13)
(0.798771 1.98125e-06 -9.79912e-13)
(0.798771 3.45972e-06 -1.2838e-12)
(0.798772 4.59835e-06 -1.68061e-12)
(0.798773 5.44632e-06 -2.19043e-12)
(0.798774 6.04829e-06 -2.8342e-12)
(0.798776 6.44276e-06 -3.63257e-12)
(0.798778 6.66466e-06 -4.5984e-12)
(0.798779 6.74371e-06 -5.71659e-12)
(0.798781 6.70682e-06 -6.90682e-12)
(0.798783 6.57659e-06 -7.96382e-12)
(0.798784 6.37349e-06 -8.50425e-12)
(0.798786 6.11431e-06 -8.04075e-12)
(0.798787 5.81423e-06 -6.41857e-12)
(0.798789 5.48541e-06 -3.90278e-12)
(0.79879 5.13889e-06 -8.46904e-13)
(0.798791 4.78313e-06 2.3711e-12)
(0.798793 4.42583e-06 5.24668e-12)
(0.798794 4.07259e-06 7.13714e-12)
(0.798795 3.72864e-06 7.62194e-12)
(0.798796 3.39737e-06 6.689e-12)
(0.798796 3.0821e-06 4.84209e-12)
(0.798797 2.78467e-06 2.98495e-12)
(0.798798 2.50713e-06 1.63811e-12)
(0.798799 2.25021e-06 7.60109e-13)
(0.798799 2.01509e-06 1.54791e-13)
(0.7988 1.80189e-06 -3.44936e-13)
(0.7988 1.61136e-06 -8.2477e-13)
(0.7988 1.44333e-06 -1.27103e-12)
(0.798801 1.29833e-06 -1.54451e-12)
(0.798801 1.17608e-06 -1.36923e-12)
(0.798801 1.07705e-06 -4.61214e-13)
(0.798802 1.00087e-06 9.79484e-13)
(0.798802 9.47754e-07 2.2516e-12)
(0.798802 9.17193e-07 2.93957e-12)
(0.798802 9.0916e-07 3.12373e-12)
(0.798803 9.22666e-07 3.00688e-12)
(0.798803 9.56916e-07 2.7522e-12)
(0.798803 1.00968e-06 2.45826e-12)
(0.798803 1.07835e-06 2.17518e-12)
(0.798804 1.15781e-06 1.92412e-12)
(0.798804 1.24195e-06 1.71171e-12)
(0.798804 1.32205e-06 1.5368e-12)
(0.798805 1.38913e-06 1.39462e-12)
(0.798805 1.43368e-06 1.28023e-12)
(0.798806 1.44516e-06 1.188e-12)
(0.798806 1.41595e-06 1.11331e-12)
(0.798806 1.3333e-06 1.05253e-12)
(0.798806 1.20754e-06 1.00275e-12)
(1.01017 -0.138025 1.50711e-14)
(1.06324 -0.290777 5.4094e-14)
(1.1004 -0.348525 1.08954e-13)
(1.11272 -0.34899 1.90798e-13)
(1.10161 -0.320763 3.15339e-13)
(1.07455 -0.281433 5.05807e-13)
(1.03879 -0.240624 7.97727e-13)
(0.999651 -0.202915 1.24516e-12)
(0.960527 -0.17002 1.93111e-12)
(0.923397 -0.142186 2.98444e-12)
(0.889261 -0.119004 4.61108e-12)
(0.858501 -0.0998396 7.15661e-12)
(0.83114 -0.0840295 1.12523e-11)
(0.807 -0.0709739 1.81814e-11)
(0.785815 -0.0601624 3.09139e-11)
(0.767281 -0.0511751 1.99012e-11)
(0.751097 -0.0436725 -1.27474e-11)
(0.73698 -0.0373822 -1.83398e-11)
(0.724668 -0.0320858 -2.26527e-12)
(0.713933 -0.0276086 1.277e-11)
(0.704568 -0.0238098 3.18942e-11)
(0.696396 -0.0205755 2.85728e-11)
(0.689262 -0.0178134 -2.95335e-12)
(0.683029 -0.0154479 -1.72185e-11)
(0.677581 -0.0134169 -7.3807e-12)
(0.672816 -0.011669 7.18293e-12)
(0.668646 -0.0101616 2.69787e-11)
(0.664994 -0.00885918 2.50684e-11)
(0.661795 -0.00773186 -6.97711e-12)
(0.658991 -0.00675453 -2.49319e-11)
(0.656531 -0.005906 -2.06936e-11)
(0.654373 -0.00516827 -1.38901e-11)
(0.652479 -0.00452606 -4.72686e-12)
(0.650815 -0.00396632 9.54493e-12)
(0.649354 -0.00347792 4.14463e-12)
(0.648069 -0.00305131 -2.56199e-11)
(0.64694 -0.0026783 -3.71559e-11)
(0.645947 -0.00235184 -3.10709e-11)
(0.645074 -0.00206586 -2.81534e-11)
(0.644306 -0.00181512 -2.57207e-11)
(0.643631 -0.0015951 -2.37897e-11)
(0.643037 -0.00140188 -2.23654e-11)
(0.642514 -0.00123208 -2.08279e-11)
(0.642055 -0.00108274 -1.77645e-11)
(0.641651 -0.000951325 -1.28809e-11)
(0.641296 -0.000835601 -7.32288e-12)
(0.640984 -0.000733655 -2.29941e-12)
(0.64071 -0.000643785 7.18436e-13)
(0.64047 -0.000564547 1.52647e-12)
(0.640259 -0.00049464 1.28236e-12)
(0.640074 -0.000432969 7.22815e-13)
(0.639913 -0.000378535 1.75015e-13)
(0.639772 -0.000330506 -2.51053e-13)
(0.639649 -0.000288108 -5.3871e-13)
(0.639541 -0.000250711 -7.06959e-13)
(0.639448 -0.00021771 -7.86194e-13)
(0.639367 -0.000188626 -8.0663e-13)
(0.639297 -0.000162983 -7.92112e-13)
(0.639236 -0.000140418 -7.58784e-13)
(0.639184 -0.000120554 -7.16251e-13)
(0.63914 -0.000103114 -6.70183e-13)
(0.639102 -8.77943e-05 -6.23883e-13)
(0.639069 -7.43886e-05 -5.78637e-13)
(0.639042 -6.2649e-05 -5.34498e-13)
(0.639019 -5.24209e-05 -4.90883e-13)
(0.638999 -4.35001e-05 -4.46901e-13)
(0.638983 -3.5773e-05 -4.02514e-13)
(0.63897 -2.90687e-05 -3.58962e-13)
(0.63896 -2.33054e-05 -3.1967e-13)
(0.638951 -1.83386e-05 -2.88881e-13)
(0.638944 -1.41114e-05 -2.70874e-13)
(0.638939 -1.04997e-05 -2.69948e-13)
(0.638935 -7.4665e-06 -2.88769e-13)
(0.638933 -4.90412e-06 -3.30077e-13)
(0.638931 -2.79144e-06 -3.98249e-13)
(0.63893 -1.03367e-06 -4.98938e-13)
(0.63893 3.77397e-07 -6.41027e-13)
(0.63893 1.52611e-06 -8.35893e-13)
(0.638931 2.41024e-06 -1.09964e-12)
(0.638931 3.10565e-06 -1.45293e-12)
(0.638933 3.60154e-06 -1.92407e-12)
(0.638934 3.96684e-06 -2.55161e-12)
(0.638935 4.18388e-06 -3.38762e-12)
(0.638937 4.31584e-06 -4.49676e-12)
(0.638938 4.3393e-06 -5.94097e-12)
(0.63894 4.31286e-06 -7.7275e-12)
(0.638942 4.20845e-06 -9.66846e-12)
(0.638943 4.08084e-06 -1.10978e-11)
(0.638945 3.8982e-06 -1.06399e-11)
(0.638946 3.71221e-06 -7.99454e-12)
(0.638947 3.48806e-06 -4.1071e-12)
(0.638949 3.27491e-06 4.37773e-13)
(0.63895 3.03555e-06 5.29349e-12)
(0.638951 2.8172e-06 9.75719e-12)
(0.638952 2.58083e-06 1.23539e-11)
(0.638953 2.37208e-06 1.22694e-11)
(0.638954 2.15057e-06 9.46124e-12)
(0.638954 1.96073e-06 4.99956e-12)
(0.638955 1.76133e-06 1.4906e-12)
(0.638956 1.59585e-06 -1.6399e-13)
(0.638956 1.42249e-06 -8.34414e-13)