/*--------------------------------*- C++ -*----------------------------------*\
| =========                 |                                                 |
| \\      /  F ield         | OpenFOAM: The Open Source CFD Toolbox           |
|  \\    /   O peration     | Version:                                        |
|   \\  /    A nd           | Website:  www.openfoam.com                      |
|    \\/     M anipulation  |                                                 |
\*---------------------------------------------------------------------------*/
FoamFile
{
    version     2.0;
    format      ascii;
    class       volScalarField;
    location    "70";
    object      p;
}
// * * * * * * * * * * * * * * * * * * * * * * * * * * * * * * * * * * * * * //

dimensions      [0 2 -2 0 0 0 0];


internalField   nonuniform List<scalar> 
1136
(
-0.660776
-0.550324
-0.414159
-0.327179
-0.300923
-0.34016
-0.437652
-0.530837
-0.503784
-0.38743
-0.290582
-0.228562
-0.207468
-0.200196
-0.190806
-0.18908
-0.178393
-0.169708
-0.185638
-0.212124
-0.206587
-0.147377
-0.0695366
-0.042454
-0.0492307
-0.0436399
-0.0433312
0.00562897
0.0315625
0.0102292
-0.520238
-0.443161
-0.349101
-0.299683
-0.300892
-0.368396
-0.499016
-0.613748
-0.582418
-0.433844
-0.307269
-0.22641
-0.190227
-0.167735
-0.155321
-0.161818
-0.164515
-0.167643
-0.192698
-0.224914
-0.21764
-0.154749
-0.0647958
-0.03193
-0.0387567
-0.0424013
-0.048657
-0.00147613
0.0250951
0.0089503
-0.38586
-0.339778
-0.280434
-0.261154
-0.287874
-0.385783
-0.540046
-0.668625
-0.642243
-0.471214
-0.316401
-0.219115
-0.172449
-0.137845
-0.120718
-0.133365
-0.148
-0.164187
-0.196541
-0.233479
-0.225748
-0.161145
-0.0622108
-0.0244704
-0.0309421
-0.0443479
-0.057446
-0.011805
0.0166434
0.00725721
-0.265764
-0.245527
-0.209567
-0.210462
-0.257804
-0.373749
-0.549665
-0.694498
-0.682739
-0.499507
-0.320935
-0.21068
-0.156492
-0.111903
-0.0861183
-0.103449
-0.130264
-0.159063
-0.197935
-0.238999
-0.230122
-0.165314
-0.0611286
-0.0196298
-0.0255915
-0.0496588
-0.0698308
-0.0252928
0.00688481
0.00528804
-0.169152
-0.165586
-0.14253
-0.154044
-0.210974
-0.33545
-0.527766
-0.682269
-0.685444
-0.511566
-0.317894
-0.199683
-0.142084
-0.091
-0.0553518
-0.07318
-0.110425
-0.154577
-0.198971
-0.242259
-0.232999
-0.167995
-0.061574
-0.0159306
-0.0214408
-0.0575508
-0.0851177
-0.0406564
-0.00336016
0.00305517
-0.121681
-0.104422
-0.088445
-0.0985969
-0.156841
-0.279813
-0.464215
-0.634422
-0.664176
-0.510764
-0.31355
-0.187826
-0.126694
-0.0727807
-0.0275945
-0.0423591
-0.0918281
-0.150717
-0.198674
-0.243648
-0.233118
-0.167926
-0.0629948
-0.0133575
-0.0180307
-0.0665428
-0.101164
-0.055918
-0.0131825
0.000741644
-0.0588147
-0.0480789
-0.0524726
-0.10567
-0.212494
-0.38424
-0.558089
-0.612614
-0.480465
-0.301557
-0.176937
-0.114873
-0.0624299
-0.00848828
-0.0151474
-0.0714416
-0.146402
-0.198552
-0.242779
-0.231965
-0.167034
-0.0645264
-0.010911
-0.0143022
-0.0742301
-0.115802
-0.0725349
-0.021783
-0.00146277
-0.0283644
-0.0218598
-0.0185861
-0.056643
-0.15024
-0.292261
-0.452406
-0.527594
-0.430387
-0.282646
-0.164018
-0.102204
-0.054886
0.00338662
0.00844068
-0.0533405
-0.142029
-0.196734
-0.238423
-0.22699
-0.164865
-0.06722
-0.00856884
-0.0103562
-0.0790413
-0.127459
-0.0837444
-0.0287213
-0.00342552
-0.00714852
-0.00615442
0.00206413
-0.0206004
-0.0910758
-0.20598
-0.35578
-0.445911
-0.381825
-0.264579
-0.155096
-0.0926046
-0.0514773
0.00543342
0.025823
-0.0355535
-0.135358
-0.193743
-0.230237
-0.218517
-0.158886
-0.0692848
-0.00672116
-0.00594858
-0.0807022
-0.13601
-0.0929752
-0.0341239
-0.0051047
0.0101134
0.00290867
0.0102349
0.00084795
-0.0435883
-0.134041
-0.255279
-0.33747
-0.307979
-0.229233
-0.143555
-0.084626
-0.0436411
-0.000462233
0.0309379
-0.0188571
-0.129692
-0.188637
-0.217767
-0.206493
-0.14567
-0.0645754
-0.00460182
-0.00146586
-0.0800475
-0.141344
-0.100029
-0.0379837
-0.00645724
0.0106438
0.0153624
0.0211526
-0.00508068
-0.0706768
-0.17528
-0.261441
-0.249876
-0.18273
-0.119695
-0.0694144
-0.0307236
0.00196594
0.0408609
-0.00423479
-0.118336
-0.181004
-0.204615
-0.18994
-0.130436
-0.0560722
-0.00249042
0.00318814
-0.0764229
-0.143345
-0.103503
-0.0398348
-0.00726215
0.0143519
0.0150656
0.0243418
0.0182999
-0.0262
-0.123891
-0.203558
-0.192736
-0.141029
-0.0981273
-0.0571955
-0.023858
0.00299014
0.0408327
0.00280964
-0.109803
-0.17476
-0.202341
-0.172108
-0.1154
-0.0492683
-0.00171856
0.00524306
-0.0716654
-0.142565
-0.104523
-0.0406447
-0.00779057
0.0152924
0.0136979
0.024632
0.0287232
-0.00612075
-0.0809423
-0.142361
-0.138765
-0.104742
-0.0782918
-0.0471777
-0.0179763
0.00107834
0.0341191
0.0018889
-0.108186
-0.16808
-0.185287
-0.151674
-0.0978556
-0.0429463
-0.00257596
0.0050671
-0.0667373
-0.138271
-0.1029
-0.0403946
-0.00807761
0.0186341
0.0159395
0.0406051
0.0416138
0.0178523
-0.036514
-0.0895376
-0.0925692
-0.072149
-0.0579204
-0.0368811
-0.0136926
-0.00438973
0.0227047
-0.0084089
-0.105699
-0.156672
-0.164496
-0.12872
-0.0786491
-0.0365963
-0.00511201
0.00330455
-0.060351
-0.129833
-0.0984022
-0.0389381
-0.00807987
0.0289908
0.0243418
0.0433395
0.0558656
0.0395894
-0.00683762
-0.0495054
-0.0583091
-0.0491491
-0.0426734
-0.0285487
-0.00853333
-0.00834747
0.00837292
-0.020864
-0.0929726
-0.137038
-0.140304
-0.104064
-0.0573285
-0.0294869
-0.00920815
0.00145141
-0.0511775
-0.116946
-0.0909337
-0.0363584
-0.00777121
0.0376628
0.0316801
0.0447178
0.0568464
0.0437607
0.00725747
-0.0248363
-0.0340817
-0.0302566
-0.0270314
-0.0174312
-0.000955821
-0.00383731
-0.00413995
-0.0269696
-0.0669117
-0.109544
-0.111803
-0.0779487
-0.035265
-0.020873
-0.0124354
0.000990175
-0.0393583
-0.0999291
-0.0809346
-0.0330126
-0.00721351
0.0428669
0.0366663
0.0437315
0.0521062
0.0420451
0.0147994
-0.00776431
-0.0162063
-0.0175107
-0.0147549
-0.00818753
0.00607545
0.0105236
0.000383204
-0.0146031
-0.0292913
-0.0722767
-0.0812591
-0.0537796
-0.014338
-0.00879659
-0.0127012
0.00338192
-0.0253849
-0.0799211
-0.0685939
-0.0288579
-0.00648704
0.0446868
0.0394056
0.0418909
0.0475037
0.0406878
0.0204141
0.00274228
-0.00426222
-0.00570705
-0.00339911
0.00194101
0.0154415
0.0264663
0.0178695
0.0232682
0.0124994
-0.0351159
-0.0516344
-0.0316414
0.00206549
0.0059635
-0.00749666
0.00877296
-0.0106962
-0.0583991
-0.0550376
-0.0242621
-0.0054603
0.0444911
0.0407758
0.0407289
0.0435591
0.0386137
0.0238354
0.0112388
0.00565952
0.002763
0.00494969
0.0106302
0.0218336
0.0369283
0.0406789
0.0598235
0.0409316
-0.00630213
-0.0254635
-0.0132214
0.0132948
0.0207094
0.0167526
0.0190743
0.00456763
-0.0374531
-0.0412463
-0.0198392
-0.00470763
0.0439006
0.0408625
0.0392625
0.0403206
0.0371353
0.0264934
0.0168259
0.0126333
0.0110404
0.0128237
0.0183707
0.0281752
0.0417863
0.0528485
0.0736826
0.0529421
0.0128518
-0.00872639
0.00189514
0.0243364
0.0352318
0.0305379
0.0298459
0.01815
-0.0206206
-0.0290007
-0.0148812
-0.00355469
0.0412148
0.0399696
0.0382833
0.0380248
0.0356173
0.0281838
0.0212716
0.0182968
0.0164727
0.0180544
0.0234844
0.0320423
0.0441713
0.0565491
0.0730373
0.0556051
0.0244248
0.0068466
0.0122833
0.0285105
0.0423874
0.0414249
0.0369479
0.0262946
-0.00714717
-0.018122
-0.0111392
-0.00287714
0.0401527
0.0388854
0.0371601
0.0363294
0.0346259
0.0295755
0.0242117
0.02223
0.0215383
0.023036
0.0277818
0.0349898
0.0447765
0.0548907
0.067261
0.0555064
0.031466
0.0135605
0.0212002
0.0348444
0.0446773
0.0397166
0.0360178
0.0286903
0.00257791
-0.00855344
-0.00667365
-0.00177808
0.0387249
0.0376757
0.0362191
0.0352089
0.0337282
0.030408
0.026543
0.0253686
0.0249164
0.026252
0.0302211
0.0361429
0.044115
0.051761
0.060273
0.05242
0.0359997
0.0249715
0.0262387
0.0358718
0.0433061
0.0396112
0.0345234
0.0282076
0.00967292
-0.000861627
-0.00326576
-0.00107336
0.0373676
0.03647
0.035223
0.0342933
0.0331366
0.0310896
0.0282072
0.0274021
0.0272091
0.0287579
0.0319214
0.0367017
0.0429328
0.0480905
0.0535579
0.0491435
0.0378741
0.0270264
0.029642
0.037356
0.0413888
0.0378034
0.0322559
0.02666
0.0131418
0.00352094
-0.000723142
-0.000422491
0.0359878
0.0352935
0.0343373
0.033682
0.0326758
0.0314158
0.0292953
0.0290362
0.0290426
0.0303616
0.0327204
0.0362909
0.041101
0.0445275
0.0482679
0.0452132
0.0387752
0.0310169
0.0316786
0.036528
0.038241
0.034991
0.029654
0.024861
0.0149175
0.00713847
0.00158586
2.14358e-05
0.0347161
0.0342445
0.0334843
0.0330788
0.0322538
0.0316093
0.0300633
0.0300339
0.0300313
0.031194
0.0328828
0.035397
0.0389714
0.0412816
0.0439263
0.0419072
0.0384406
0.0326735
0.0325771
0.035516
0.0352184
0.0320894
0.0275789
0.0227399
0.0156561
0.00968094
0.00323855
0.000616605
0.0335948
0.033275
0.0326662
0.0325443
0.0318879
0.0316584
0.0304477
0.0306225
0.0306022
0.0315074
0.0325557
0.0340788
0.0367391
0.0381498
0.0403713
0.0383628
0.0373911
0.0333819
0.0331648
0.034289
0.0320022
0.0292569
0.0251354
0.0211274
0.0158059
0.0107878
0.00457549
0.000999726
0.0325788
0.032399
0.0319224
0.0320189
0.0315116
0.0315185
0.0305798
0.0308257
0.0307001
0.0312943
0.0317796
0.032552
0.0343383
0.0351177
0.0373541
0.0354269
0.0357944
0.0329932
0.0330088
0.0329403
0.0292696
0.027136
0.0232472
0.0192374
0.0154524
0.0112023
0.0052871
0.00124373
0.0316828
0.0316078
0.0312053
0.0314491
0.0310819
0.0312217
0.0304088
0.0305753
0.0303058
0.0306096
0.0307158
0.0309883
0.0321907
0.0323686
0.0343534
0.0325531
0.0338861
0.0312485
0.031049
0.0303691
0.0269421
0.0260448
0.0224671
0.0186986
0.0153199
0.0112
0.00622093
0.00171511
0.0309306
0.0309147
0.0305776
0.0308609
0.0305967
0.0306965
0.0299918
0.0300503
0.0297645
0.0299521
0.029916
0.029804
0.030367
0.0293056
0.0308938
0.0291493
0.031274
0.0276474
0.0253448
0.0247937
0.0226013
0.0246633
0.0214282
0.0176464
0.0150275
0.0110173
0.00663723
0.00199182
0.0303279
0.030321
0.0300712
0.0302962
0.0300729
0.0301326
0.0295269
0.0296478
0.0294012
0.0295583
0.0293347
0.0287559
0.0286299
0.026718
0.0279555
0.0264766
0.0283846
0.0223458
0.0181037
0.0179719
0.0179241
0.021976
0.0184683
0.0161591
0.0133185
0.00919492
0.00616216
0.00199407
0.0298097
0.0297945
0.0296162
0.0297479
0.0296278
0.0296267
0.0292387
0.02929
0.0291623
0.0290872
0.0288567
0.0279412
0.0280265
0.0262827
0.0274516
0.0255584
0.0254712
0.0196974
0.0169388
0.017351
0.0178286
0.0203232
0.0165297
0.0153785
0.012244
0.00776365
0.00567056
0.0019425
0.029369
0.0293327
0.0292057
0.0293124
0.0292744
0.0292616
0.0290075
0.0289665
0.0289355
0.0287301
0.0287361
0.0280333
0.0287425
0.0277846
0.0283157
0.0261506
0.0242779
0.021859
0.0215599
0.0223727
0.0218017
0.0206859
0.0166035
0.0153782
0.0122053
0.00727056
0.00552605
0.00228788
0.0290219
0.0289736
0.0288978
0.0289832
0.0289934
0.0289756
0.0287917
0.0287359
0.0287509
0.028639
0.0287846
0.0284556
0.0290765
0.0283094
0.0279196
0.025745
0.0247511
0.024748
0.0247889
0.0246262
0.0215197
0.0205787
0.0167258
0.0146105
0.0125418
0.00729158
0.00506452
0.00221032
0.0287663
0.028719
0.0286661
0.0287263
0.0287466
0.028718
0.0285866
0.0285169
0.0285616
0.0284905
0.0285861
0.028313
0.0284799
0.0276743
0.0269538
0.0256126
0.0252409
0.0256509
0.0249954
0.024059
0.0205042
0.0196974
0.0162768
0.0136668
0.0123465
0.00730133
0.00456738
0.00207439
0.0285783
0.0285254
0.0284753
0.0284998
0.0285071
0.0284569
0.0283422
0.0282569
0.0282581
0.028154
0.0280968
0.0277611
0.027575
0.0268749
0.02622
0.0254525
0.0250228
0.0250286
0.0237268
0.0226778
0.0196903
0.0183655
0.0158329
0.0128485
0.0116439
0.00733443
0.00413608
0.00181976
0.0284326
0.0283717
0.028314
0.0282979
0.0282711
0.0281933
0.0280745
0.0279511
0.027873
0.0277093
0.027518
0.0271472
0.026802
0.0262456
0.025624
0.0250322
0.0243442
0.0239301
0.0225036
0.0214194
0.0190771
0.0173889
0.0153551
0.0122955
0.0108162
0.00729587
0.00390461
0.00159
0.0283247
0.0282529
0.0281797
0.0281226
0.0280583
0.0279543
0.0278126
0.0276521
0.0275003
0.0272868
0.0270135
0.0266416
0.0262211
0.0257254
0.025084
0.0244802
0.0236409
0.0229632
0.0216131
0.0204098
0.0185315
0.0166464
0.0148434
0.0119635
0.0101077
0.00723085
0.00387291
0.00141377
0.0282389
0.0281596
0.0280722
0.0279839
0.027886
0.0277586
0.0275982
0.0274119
0.0272056
0.026958
0.0266463
0.0262714
0.0258104
0.0253126
0.0246536
0.0239997
0.0231054
0.0222684
0.0210069
0.0197033
0.0180721
0.0161426
0.0143741
0.0117915
0.00963549
0.00711027
0.00396673
0.00134521
0.0281974
0.0281122
0.0280152
0.0279085
0.0277903
0.0276511
0.0274802
0.0272774
0.0270423
0.0267782
0.0264491
0.0260677
0.0255878
0.025078
0.0244123
0.0237213
0.0228112
0.0218976
0.0206877
0.0193355
0.017796
0.0158891
0.0140984
0.0117103
0.00939816
0.00702216
0.0040864
0.00134068
)
;

boundaryField
{
    outlet
    {
        type            fixedValue;
        value           uniform 0;
    }
    upperWall
    {
        type            symmetryPlane;
    }
    lowerWall
    {
        type            symmetryPlane;
    }
    inlet
    {
        type            zeroGradient;
    }
    cylinder
    {
        type            zeroGradient;
    }
    frontAndBack
    {
        type            empty;
    }
    procBoundary7to3
    {
        type            processor;
        value           nonuniform List<scalar> 
30
(
-0.786805
-0.648754
-0.473846
-0.345917
-0.28986
-0.30089
-0.367673
-0.438675
-0.416761
-0.333993
-0.267524
-0.228807
-0.226464
-0.236333
-0.226742
-0.216424
-0.192391
-0.169947
-0.175063
-0.195099
-0.19145
-0.139296
-0.0754446
-0.0563611
-0.0635336
-0.0474962
-0.040768
0.00986939
0.0354864
0.0110158
)
;
    }
    procBoundary7to6
    {
        type            processor;
        value           nonuniform List<scalar> 
42
(
-0.657909
-0.514982
-0.376935
-0.257997
-0.164314
-0.0978383
-0.0635222
-0.0635222
-0.023107
0.00393134
0.0237964
0.0272053
0.0272053
0.0344738
0.0408062
0.0436343
0.0495135
0.0505701
0.0504454
0.0480945
0.0467442
0.0451865
0.0432807
0.0415895
0.0398556
0.0381836
0.0366148
0.0351243
0.0338377
0.0327409
0.0317938
0.0310144
0.0303633
0.0298193
0.0293625
0.0290137
0.0287655
0.0285886
0.028461
0.0283724
0.0283028
0.0282711
)
;
    }
}


// ************************************************************************* //
