/*--------------------------------*- C++ -*----------------------------------*\
| =========                 |                                                 |
| \\      /  F ield         | OpenFOAM: The Open Source CFD Toolbox           |
|  \\    /   O peration     | Version:                                        |
|   \\  /    A nd           | Website:  www.openfoam.com                      |
|    \\/     M anipulation  |                                                 |
\*---------------------------------------------------------------------------*/
FoamFile
{
    version     2.0;
    format      ascii;
    class       surfaceScalarField;
    location    "183.8";
    object      phi;
}
// * * * * * * * * * * * * * * * * * * * * * * * * * * * * * * * * * * * * * //

dimensions      [0 3 -1 0 0 0 0];
oriented        oriented;


internalField   nonuniform List<scalar> 
2202
(
0.0355675
-0.0917033
0.0365292
-0.0870407
0.0335746
-0.0949513
0.0272631
-0.0887769
0.0218743
-0.0680285
0.0234633
-0.0436654
0.0253824
0.0312287
0.0324428
0.0529753
0.0351565
0.0910743
0.0329776
0.11057
0.0287356
0.0928557
0.0316835
0.10017
0.0345777
0.0128099
0.0391055
-0.0350812
0.040636
-0.0672292
0.038813
-0.139286
0.03877
-0.0984531
0.0422187
-0.0878707
0.046465
-0.014424
0.0474442
0.113265
0.047695
0.110567
0.0492178
0.146539
0.0529941
0.0612269
0.0538135
-0.114134
0.0544643
-0.118094
0.0544995
-0.15069
0.0565213
-0.0581882
0.0564336
0.20205
0.0552865
0.133325
-0.0204804
0.0360157
-0.0913269
0.0357148
-0.0867398
0.0311446
-0.0903811
0.0241357
-0.081768
0.0188097
-0.0627024
0.0208989
-0.0457546
0.0245515
0.0275761
0.0326385
0.0448884
0.0369864
0.0867263
0.0340102
0.113546
0.029224
0.0976419
0.0328166
0.096577
0.0354083
0.0102183
0.0405521
-0.0402251
0.0421442
-0.0688213
0.0393553
-0.136497
0.0392296
-0.0983274
0.0420649
-0.090706
0.0456905
-0.0180496
0.0468429
0.112112
0.0469089
0.110501
0.0489972
0.144451
0.0533507
0.0568734
0.0540395
-0.114823
0.0549851
-0.11904
0.0552573
-0.150962
0.0562338
-0.0591648
0.0557005
0.202583
0.0549057
0.13412
-0.0189503
0.0370246
-0.0878071
0.0350655
-0.0847807
0.0294384
-0.084754
0.0231255
-0.0754551
0.0178697
-0.0574466
0.0194674
-0.0473523
0.0256962
0.0213472
0.033712
0.0368726
0.0398723
0.080566
0.0378959
0.115523
0.0327414
0.102796
0.0354768
0.0938416
0.0374852
0.00820994
0.0420714
-0.0448113
0.0424434
-0.0691933
0.0387935
-0.132847
0.0390514
-0.0985853
0.0414806
-0.0931352
0.0448669
-0.021436
0.0466428
0.110336
0.0466203
0.110523
0.049042
0.142029
0.0536654
0.05225
0.0540789
-0.115236
0.055052
-0.120013
0.055666
-0.151576
0.0558263
-0.059325
0.0548314
0.203578
0.05446
0.134491
-0.0177134
0.0393443
-0.0813937
0.0360438
-0.0814801
0.0298571
-0.0785673
0.0238838
-0.0694818
0.018882
-0.0524449
0.0197051
-0.0481754
0.0278664
0.013186
0.0346177
0.0301213
0.0426583
0.0725254
0.0415346
0.116647
0.0357157
0.108615
0.037374
0.0921833
0.0395675
0.00601647
0.0445593
-0.0498031
0.0442899
-0.0689239
0.0395185
-0.128076
0.0396263
-0.098693
0.0414928
-0.0950018
0.0443939
-0.0243371
0.0462235
0.108507
0.0458593
0.110887
0.0487641
0.139125
0.0538895
0.0471247
0.0543213
-0.115668
0.055247
-0.120939
0.0560387
-0.152367
0.0552625
-0.0585488
0.0536438
0.205197
0.0537905
0.134345
-0.0168508
0.0420957
-0.0721183
0.036647
-0.0760315
0.030306
-0.0722263
0.0251024
-0.0642781
0.0206665
-0.048009
0.0198274
-0.0473364
0.0296114
0.00340198
0.0364671
0.0232657
0.0455864
0.063406
0.0477433
0.11449
0.0435747
0.112784
0.0425566
0.0932014
0.0428598
0.00571332
0.0466802
-0.0536235
0.0451585
-0.0674022
0.0395879
-0.122505
0.0396675
-0.0987726
0.0408724
-0.0962067
0.0438573
-0.0273219
0.0460634
0.106301
0.0457506
0.1112
0.0488077
0.136068
0.0539968
0.0419355
0.0542444
-0.115916
0.0549344
-0.121629
0.0558368
-0.15327
0.0544238
-0.0571358
0.0523521
0.207269
0.053134
0.133563
-0.01635
0.0454383
0.0383514
-0.0689446
0.032476
-0.066351
0.0276538
-0.0594559
0.0233686
-0.0437238
0.0212758
-0.0452436
0.0316326
-0.00695478
0.0382981
0.0166002
0.0468526
0.0548515
0.0525957
0.108747
0.0497941
0.115586
0.0471115
0.095884
0.0465176
0.00630723
0.0497629
-0.0568689
0.0475125
-0.0651518
0.0407113
-0.115704
0.0402408
-0.0983021
0.0407515
-0.0967174
0.0433451
-0.0299155
0.0455961
0.10405
0.0453183
0.111478
0.0486749
0.132711
0.0541204
0.0364901
0.0544307
-0.116226
0.0548322
-0.12203
0.0555427
-0.15398
0.0533625
-0.0549557
0.0508097
0.209822
0.0523445
0.132028
-0.0162663
0.0398372
-0.059926
0.0345707
-0.0610845
0.0303702
-0.0552554
0.0258523
-0.0392058
0.021797
-0.0411883
0.0305031
-0.0156609
0.0397938
0.00730945
0.049419
0.0452263
0.0580069
0.100159
0.0585883
0.115004
0.0558513
0.0986209
0.0507684
0.0113901
0.0518299
-0.0579303
0.0486446
-0.0619665
0.0409742
-0.108033
0.0403627
-0.0976906
0.0403199
-0.0966746
0.0425249
-0.0321206
0.0456511
0.100924
0.0460133
0.111116
0.0492681
0.129456
0.0542463
0.0315118
0.0541837
-0.116163
0.0542374
-0.122084
0.0546626
-0.154406
0.0518674
-0.0521604
0.0492163
0.212473
0.0516522
0.129592
-0.016547
0.0412737
-0.0504367
0.0356044
-0.0554152
0.0322344
-0.0518854
0.0277088
-0.0346801
0.0223631
-0.0358426
0.0295271
-0.0228249
0.040599
-0.00376242
0.0498294
0.0359959
0.0594282
0.0905599
0.0630349
0.111397
0.060246
0.10141
0.0544327
0.0172034
0.0542857
-0.0577833
0.0502978
-0.0579786
0.0413559
-0.0990915
0.0402742
-0.0966089
0.0398794
-0.0962797
0.0418417
-0.0340829
0.045285
0.0974802
0.046076
0.110325
0.0496011
0.125931
0.0544337
0.0266792
0.0540197
-0.115749
0.0536666
-0.121731
0.0536534
-0.154392
0.0502208
-0.0487278
0.0475359
0.215158
0.0508976
0.12623
-0.0171948
0.0433106
-0.0399219
0.0363601
-0.0484647
0.0339982
-0.0495235
0.0303804
-0.0310623
0.0236893
-0.0291515
0.0274658
-0.0266014
0.0382126
-0.0145092
0.0507469
0.0234616
0.0620936
0.0792132
0.0678996
0.105591
0.0660816
0.103228
0.0587996
0.0244854
0.055637
-0.0546207
0.0506463
-0.0529879
0.0414636
-0.0899089
0.0398446
-0.0949899
0.0395485
-0.0959836
0.0415175
-0.0360519
0.0453053
0.0936924
0.0469359
0.108694
0.0506939
0.122173
0.0546637
0.0227093
0.0533763
-0.114462
0.0524447
-0.120799
0.0519935
-0.153941
0.0481153
-0.0448496
0.0458474
0.217425
0.0502511
0.121827
-0.018131
0.0433553
0.0355072
-0.0406165
0.0333803
-0.0473967
0.0318977
-0.0295797
0.0249052
-0.022159
0.0251961
-0.0268923
0.034125
-0.0234381
0.047598
0.00998854
0.0601191
0.0666921
0.0696326
0.0960779
0.0688283
0.104032
0.0611966
0.0321171
0.0573392
-0.0507634
0.0517399
-0.0473885
0.0422469
-0.0804159
0.0393036
-0.0920466
0.0387592
-0.0954393
0.0404045
-0.0376972
0.0446538
0.0894431
0.0469021
0.106446
0.0509861
0.118089
0.0547675
0.0189279
0.052906
-0.112601
0.0512178
-0.119111
0.0501848
-0.152908
0.0457403
-0.040405
0.0440847
0.219081
0.0495575
0.116354
-0.0193909
0.0502309
-0.0333534
0.0463778
-0.0435436
0.0426382
-0.0258401
0.034585
-0.0141058
0.0324553
-0.0247626
0.0345768
-0.0255596
0.0396364
0.00492896
0.0460529
0.0602756
0.0541344
0.0879963
0.0590059
0.0991608
0.0631626
0.0279603
0.0654428
-0.0530436
0.0599446
-0.0418903
0.0519274
-0.0723987
0.0486526
-0.0887717
0.0436903
-0.090477
0.0375613
-0.0315682
0.0353391
0.0916653
0.037951
0.103834
0.0458883
0.110152
0.0546339
0.0101824
0.054091
-0.112058
0.0513748
-0.116395
0.0475078
-0.149041
0.038823
-0.0317203
0.0372869
0.220617
0.0445502
0.10909
-0.020458
0.0531339
-0.0261923
0.0486552
-0.0390649
0.0460407
-0.0232256
0.0388213
-0.00688643
0.0351391
-0.0210804
0.0363002
-0.0267207
0.042268
-0.00103889
0.0507031
0.0518405
0.0610014
0.077698
0.0676798
0.0924824
0.0709467
0.0246935
0.070482
-0.0525788
0.0637731
-0.0351814
0.0561075
-0.0647331
0.0523387
-0.0850029
0.0475756
-0.0857139
0.0406686
-0.0246611
0.0378649
0.094469
0.0417133
0.0999858
0.0512733
0.100592
0.0594867
0.00196895
0.0577731
-0.110344
0.0539024
-0.112524
0.0488709
-0.14401
0.0392617
-0.0221111
0.03863
0.221249
0.0474077
0.100313
-0.0215627
0.0600358
-0.0199894
0.0542602
-0.0332894
0.0534161
-0.0223815
0.0475498
-0.00102004
0.0416961
-0.0152267
0.0407641
-0.0257887
0.045947
-0.00622179
0.0543629
0.0434246
0.0673351
0.0647259
0.0763643
0.0834532
0.0787745
0.0222832
0.0762714
-0.0500757
0.0694425
-0.0283526
0.0617747
-0.0570653
0.0570607
-0.0802888
0.0522789
-0.0809322
0.0444754
-0.0168576
0.0409498
0.0979945
0.0464759
0.0944597
0.0574622
0.0896055
0.0647888
-0.00535768
0.0615232
-0.107078
0.0559809
-0.106982
0.0496659
-0.137695
0.0392039
-0.011649
0.0400929
0.22036
0.0505851
0.0898204
-0.0226592
0.0617434
-0.0150056
0.0551736
-0.0267196
0.0555538
-0.0227617
0.0542527
0.000281046
0.0501154
-0.0110894
0.0473537
-0.023027
0.050581
-0.00944908
0.0582098
0.0357958
0.0719993
0.0509364
0.0837809
0.0716715
0.0856453
0.0204189
0.0791767
-0.0436071
0.0712769
-0.0204528
0.064281
-0.0500694
0.0596905
-0.0756983
0.0555094
-0.076751
0.0473198
-0.00866803
0.0442868
0.101028
0.0519317
0.0868148
0.0638056
0.0777316
0.0701096
-0.0116618
0.0651582
-0.102127
0.05752
-0.0993438
0.0498396
-0.130014
0.0388471
-0.000656513
0.0420613
0.217146
0.0541803
0.0777014
-0.0236229
0.0717942
-0.0143032
0.0642915
-0.0192168
0.0617658
-0.020236
0.0625823
-0.000535496
0.0591573
-0.00766442
0.0543178
-0.0181875
0.0536559
-0.00878713
0.0582281
0.0312236
0.0734744
0.0356901
0.0882581
0.0568878
0.0890314
0.0196456
0.0822875
-0.0368633
0.0775521
-0.0157175
0.0715647
-0.0440819
0.065169
-0.0693026
0.0598011
-0.0713831
0.0509242
0.000208815
0.0485274
0.103424
0.0580502
0.0772919
0.0705171
0.0652647
0.0756635
-0.0168082
0.0688452
-0.0953086
0.0591377
-0.0896363
0.0496915
-0.120568
0.0381239
0.010911
0.0446909
0.210579
0.0583681
0.0640242
-0.0243074
0.0706733
-0.0109211
0.0649101
-0.0134536
0.0629789
-0.0183048
0.0652316
-0.00278818
0.0637969
-0.00622974
0.0590107
-0.0134013
0.0567743
-0.00655073
0.0600859
0.0279119
0.0742511
0.0215249
0.0897105
0.0414283
0.0915744
0.0177817
0.0839416
-0.0292304
0.078722
-0.0104979
0.0728627
-0.0382226
0.0659317
-0.0623716
0.0602122
-0.0656636
0.05267
0.00775098
0.0535413
0.102553
0.0650018
0.0658315
0.077196
0.0530705
0.0810771
-0.0206893
0.0723517
-0.0865832
0.0601982
-0.0774828
0.0486347
-0.109005
0.037153
0.0223926
0.0483089
0.199423
0.0632547
0.0490784
-0.0244525
0.0780261
-0.00899557
0.0740442
-0.00947172
0.0697868
-0.0140473
0.0710146
-0.00401599
0.0697346
-0.00494975
0.0647694
-0.00843606
0.063887
-0.00566831
0.0679629
0.023836
0.0772098
0.012278
0.0893525
0.0292856
0.0908825
0.0162517
0.0841187
-0.0224667
0.0826726
-0.00905174
0.0790223
-0.0345724
0.0691529
-0.0525022
0.0611914
-0.0577021
0.0556708
0.0132716
0.0607776
0.0974463
0.0730282
0.0535808
0.0841073
0.0419915
0.086408
-0.02299
0.0759547
-0.07613
0.0622448
-0.0637729
0.0478716
-0.0946314
0.036059
0.0342052
0.0530797
0.182402
0.0690943
0.0330638
-0.0236765
0.0809354
-0.00693515
0.0787811
-0.00731744
0.0751184
-0.0103846
0.0755178
-0.00441541
0.0750037
-0.00443562
0.0713345
-0.00476687
0.0709758
-0.00530961
0.0757309
0.0190809
0.080809
0.00719993
0.0887225
0.0213721
0.092594
0.0123802
0.0879456
-0.0178182
0.0855173
-0.00662346
0.0801903
-0.0292454
0.0683636
-0.0406755
0.0589736
-0.0483121
0.0561164
0.0161288
0.0678951
0.0856676
0.0808958
0.0405802
0.0903176
0.0325696
0.0912478
-0.0239202
0.0789947
-0.0638769
0.0639131
-0.0486912
0.0474953
-0.0782136
0.0371249
0.0445756
0.0604724
0.159055
0.0759151
0.0176212
-0.0213899
0.0860489
-0.00453926
0.0844631
-0.00573161
0.0812849
-0.00720638
0.0809456
-0.00407613
0.0806548
-0.00414485
0.0782996
-0.00241161
0.0777917
-0.00480175
0.0824135
0.0144591
0.0846509
0.00496255
0.0903074
0.0157157
0.095047
0.00764058
0.0898886
-0.0126598
0.0896737
-0.00640855
0.0881887
-0.0277604
0.0766554
-0.0291422
0.0636086
-0.0352653
0.062073
0.0176644
0.0787014
0.0690392
0.0897283
0.0295532
0.0958912
0.0264068
0.0943169
-0.0223459
0.0820278
-0.0515877
0.0686075
-0.035271
0.0497644
-0.0593705
0.0416347
0.0527053
0.0706744
0.130015
0.0835358
0.0047598
-0.0168638
0.0911809
-0.00285692
0.0901873
-0.00473806
0.0877014
-0.00472044
0.0873469
-0.00372161
0.0867896
-0.00358756
0.0857063
-0.0013283
0.084509
-0.0036045
0.0885234
0.0104447
0.0904922
0.00299374
0.0943989
0.011809
0.0983296
0.00370981
0.0944205
-0.00875067
0.0932655
-0.00525355
0.0879378
-0.0224326
0.079091
-0.0202954
0.0696317
-0.0258061
0.0706849
0.0166113
0.0893473
0.0503768
0.0982881
0.0206123
0.103493
0.0212018
0.1004
-0.0192531
0.0849572
-0.0361446
0.0720371
-0.022351
0.0526028
-0.0399361
0.0499211
0.055387
0.0825206
0.0974154
0.0909513
-0.00367091
-0.0101943
0.0970368
-0.00155108
0.0963161
-0.00401741
0.0944042
-0.00280852
0.0942819
-0.00359928
0.0931017
-0.00240738
0.0931069
-0.00133349
0.0919509
-0.00244848
0.0951375
0.00725806
0.0968432
0.00128799
0.0994581
0.00919419
0.102645
0.000522732
0.0992401
-0.00534556
0.0992727
-0.00528617
0.0940923
-0.0172522
0.0866804
-0.0128836
0.0800953
-0.0192209
0.0814396
0.0152669
0.097657
0.0341594
0.101518
0.0167511
0.104155
0.0185653
0.104507
-0.0196054
0.0932605
-0.0248979
0.0843495
-0.01344
0.066318
-0.0219046
0.0642368
0.0574682
0.0919385
0.0697138
0.0955156
-0.00724806
-0.0029888
0.103374
-0.000644154
0.102858
-0.00350101
0.101484
-0.00143436
0.101353
-0.00346816
0.100395
-0.0014495
0.100593
-0.00153153
0.0995842
-0.0014399
0.102195
0.00464755
0.103384
9.90709e-05
0.105433
0.00714465
0.107548
-0.00159253
0.10444
-0.00223755
0.104027
-0.0048731
0.0997504
-0.0129752
0.0947612
-0.00789445
0.0896088
-0.0140685
0.0912294
0.0136463
0.103923
0.0214656
0.107173
0.0135015
0.109506
0.0162318
0.105137
-0.0152364
0.0936591
-0.0134199
0.0892857
-0.00906664
0.0789662
-0.011585
0.0832996
0.0531347
0.104799
0.0482147
0.10196
-0.00440923
0.00613094
0.110325
-8.39925e-05
0.109904
-0.0030805
0.108941
-0.000471688
0.108954
-0.00348119
0.107953
-0.000447684
0.10833
-0.00190926
0.107665
-0.000774842
0.109345
0.00296758
0.110391
-0.000946427
0.111635
0.00590044
0.112822
-0.00277969
0.110785
-0.000200868
0.110504
-0.00459123
0.106345
-0.00881702
0.102935
-0.00448401
0.0998674
-0.011001
0.100578
0.012936
0.109782
0.0122615
0.112356
0.0109273
0.115008
0.0135796
0.113094
-0.0133218
0.103163
-0.00348973
0.0998795
-0.0057827
0.0941836
-0.0058891
0.0988717
0.0484466
0.114782
0.032304
0.113006
-0.0026332
0.0133546
0.117783
0.000295012
0.117454
-0.00275145
0.116837
0.000145277
0.116662
-0.00330653
0.116128
8.59212e-05
0.116207
-0.0019874
0.115868
-0.000436
0.116935
0.00190065
0.117398
-0.00141007
0.118499
0.00479988
0.118985
-0.00326541
0.117449
0.00133471
0.116974
-0.00411667
0.113996
-0.00583808
0.111613
-0.00210133
0.109182
-0.0085697
0.11056
0.0115576
0.116614
0.00620711
0.118566
0.0089753
0.120339
0.0118075
0.117712
-0.010695
0.111379
0.00284262
0.108745
-0.0031487
0.105103
-0.00224693
0.111881
0.0416692
0.121212
0.0229727
0.117577
0.00100128
0.0179606
0.125918
0.000408466
0.125425
-0.00225907
0.125232
0.000338194
0.124771
-0.00284556
0.124612
0.000245161
0.124395
-0.00177064
0.124319
-0.000360224
0.124933
0.00128705
0.125026
-0.00150258
0.126043
0.0037825
0.125693
-0.00291535
0.125317
0.00171064
0.12449
-0.00328925
0.12229
-0.00363858
0.120917
-0.000728696
0.118832
-0.00648425
0.120754
0.00963581
0.123779
0.00318148
0.125745
0.00700945
0.127458
0.0100952
0.124456
-0.00769371
0.121355
0.00594372
0.118418
-0.000211184
0.115749
0.000421567
0.123412
0.0340061
0.128674
0.0177113
0.124919
0.00475641
0.0202023
0.134543
0.000403358
0.134029
-0.00174491
0.134017
0.000350024
0.13341
-0.00223899
0.13343
0.000225121
0.133114
-0.00145461
0.133027
-0.000272967
0.133517
0.000796943
0.133243
-0.00122871
0.13424
0.00278537
0.133683
-0.00235779
0.133647
0.00174631
0.132875
-0.00251748
0.131317
-0.00207988
0.130551
3.72628e-05
0.12867
-0.00460349
0.130665
0.00764049
0.13216
0.00168687
0.133515
0.00565432
0.135177
0.00843272
0.132226
-0.00474225
0.130906
0.00726329
0.128893
0.00180246
0.126622
0.00269269
0.13339
0.0272376
0.136571
0.0145306
0.133573
0.00775432
0.0205936
0.143722
0.000326745
0.143192
-0.00121476
0.143267
0.000274658
0.142645
-0.00161679
0.142713
0.000156851
0.142351
-0.00109309
0.142297
-0.000218167
0.142624
0.000469412
0.142318
-0.000922654
0.143156
0.00194738
0.142513
-0.00171482
0.142769
0.00149076
0.142002
-0.00175049
0.140951
-0.00102949
0.140498
0.000490255
0.138898
-0.00300355
0.1407
0.0058392
0.141102
0.00128447
0.142206
0.00455062
0.143623
0.00701562
0.14102
-0.00213959
0.141038
0.00724562
0.139372
0.00346876
0.137683
0.00438133
0.143379
0.0215412
0.145226
0.0126841
0.143176
0.00980415
0.0198631
0.153439
0.000267439
0.15301
-0.000786094
0.153056
0.000228784
0.152548
-0.00110832
0.152568
0.000135951
0.152285
-0.000809888
0.152194
-0.000126885
0.152437
0.000226357
0.152148
-0.000634139
0.15277
0.00132588
0.15227
-0.00121478
0.152497
0.00126401
0.151874
-0.00112804
0.15118
-0.000335758
0.150876
0.000795005
0.149599
-0.00172728
0.150948
0.00449052
0.150987
0.00124531
0.151769
0.00376922
0.152952
0.00583233
0.150979
-0.000166436
0.151344
0.00688053
0.150287
0.0045253
0.149226
0.00544241
0.153547
0.0172206
0.154682
0.0115489
0.153647
0.0108389
0.018436
0.163816
0.000234427
0.163492
-0.000462237
0.163512
0.000209311
0.163125
-0.000721602
0.163128
0.000133208
0.162888
-0.000569843
0.162826
-6.48722e-05
0.162941
0.000111366
0.162741
-0.00043463
0.163151
0.000916023
0.162737
-0.000800893
0.16296
0.00104115
0.162414
-0.000582518
0.161986
9.296e-05
0.161784
0.000996609
0.160806
-0.000749334
0.161813
0.00348409
0.161668
0.0013895
0.162228
0.00320943
0.163147
0.00491332
0.161734
0.00124729
0.162305
0.00630953
0.16173
0.00510026
0.161102
0.0060704
0.164286
0.0140364
0.165171
0.0106642
0.164993
0.0110161
0.0166849
0.174923
0.000230037
0.174705
-0.000244656
0.174703
0.000211441
0.174429
-0.00044729
0.174422
0.000140117
0.174226
-0.000373542
0.174185
-2.43902e-05
0.174215
8.16089e-05
0.17407
-0.000289222
0.17431
0.000676039
0.173992
-0.000483472
0.174155
0.0008785
0.173725
-0.000152553
0.173457
0.000360396
0.173343
0.00111103
0.172632
-3.85205e-05
0.173334
0.00278206
0.173173
0.00155047
0.173569
0.00281346
0.174256
0.00422615
0.17339
0.00211394
0.173958
0.00574103
0.173719
0.00533939
0.173483
0.00630602
0.175898
0.0116213
0.176674
0.00988868
0.177049
0.0106412
0.0148005
0.186841
0.000229642
0.186692
-9.57779e-05
0.186697
0.000206966
0.186491
-0.000241578
0.186498
0.00013302
0.186329
-0.000203984
0.186307
-2.44911e-06
0.186283
0.000104937
0.186165
-0.000170637
0.186309
0.000531822
0.18604
-0.000214137
0.186172
0.000745637
0.185849
0.000171212
0.18568
0.000529228
0.185643
0.00114817
0.185143
0.000461006
0.185639
0.00228583
0.185518
0.00167214
0.185799
0.00253233
0.186341
0.00368438
0.185857
0.00259793
0.186384
0.00521329
0.186441
0.00528232
0.186521
0.00622612
0.188351
0.00979136
0.189157
0.00908286
0.189888
0.00991036
0.0129292
0.199616
0.000225267
0.199517
3.33464e-06
0.199526
0.000198072
0.19938
-9.56328e-05
0.199388
0.000124925
0.199256
-7.14749e-05
0.19923
2.30596e-05
0.199194
0.00014097
0.199086
-6.26027e-05
0.199171
0.000447246
0.19896
-3.21011e-06
0.199053
0.000652688
0.198837
0.000386773
0.198733
0.000633009
0.19875
0.00113185
0.198432
0.000778637
0.198781
0.00193722
0.198729
0.0017241
0.198943
0.00231769
0.199377
0.00325059
0.199181
0.00279441
0.199718
0.00467623
0.199974
0.00502588
0.200265
0.00593557
0.201716
0.00833981
0.202604
0.00819545
0.203532
0.00898176
0.011157
0.2133
0.000212601
0.213232
7.08297e-05
0.213248
0.000182631
0.213144
7.75421e-06
0.21315
0.000118962
0.213057
2.15028e-05
0.213026
5.48335e-05
0.213001
0.000165984
0.212901
3.70485e-05
0.212962
0.000386331
0.212801
0.000157577
0.212867
0.000586931
0.212745
0.000508686
0.212683
0.000694781
0.212739
0.00107633
0.21257
0.00094784
0.212822
0.00168509
0.212857
0.00168847
0.213042
0.00213308
0.213421
0.00287122
0.213439
0.00277697
0.213954
0.00416081
0.214341
0.00463932
0.214823
0.00545336
0.21605
0.00711275
0.216986
0.00725961
0.218017
0.00795063
0.00951331
0.227943
0.000197647
0.227904
0.000110101
0.227918
0.000169155
0.227855
7.02901e-05
0.227856
0.000118081
0.227799
7.88441e-05
0.22777
8.33883e-05
0.227756
0.000180227
0.227685
0.000108317
0.227724
0.000346692
0.227626
0.000255844
0.227674
0.000539193
0.227618
0.000563951
0.227601
0.000711873
0.227678
0.000999611
0.227625
0.00100075
0.227836
0.001474
0.227942
0.00158277
0.228142
0.00193255
0.2285
0.00251373
0.228655
0.0026215
0.229169
0.0036477
0.229661
0.00414658
0.23027
0.00484441
0.231361
0.00602246
0.232332
0.0062883
0.23342
0.00686245
0.00799221
0.243616
0.000178069
0.243599
0.000127597
0.243612
0.000156496
0.243581
0.000101081
0.243579
0.00012012
0.243553
0.000105055
0.24353
0.000106234
0.243531
0.000179062
0.243489
0.00015034
0.243523
0.000312911
0.243482
0.000296384
0.243525
0.000496572
0.243528
0.000560931
0.243552
0.000687567
0.243647
0.000905092
0.243687
0.00096051
0.24388
0.00128035
0.244046
0.00141699
0.244281
0.00169819
0.244634
0.00216034
0.244905
0.00235077
0.245433
0.00311958
0.245992
0.00358769
0.246679
0.0041573
0.247704
0.00499757
0.248704
0.00528822
0.249812
0.0057541
0.00657381
0.260392
0.000154663
0.260391
0.000128094
0.260408
0.000140033
0.260398
0.000110739
0.260402
0.000115795
0.260395
0.000111927
0.260387
0.000114347
0.2604
0.000166249
0.260387
0.0001639
0.260426
0.00027378
0.260427
0.000294655
0.260485
0.000439293
0.260533
0.000512291
0.260598
0.000622425
0.260722
0.000781319
0.260825
0.00085757
0.261029
0.00107676
0.261241
0.00120437
0.261508
0.00143125
0.261882
0.00178694
0.262239
0.00199306
0.262788
0.00257138
0.263407
0.00296816
0.264154
0.00341084
0.26514
0.00401129
0.266153
0.00427463
0.267271
0.00463615
0.00522747
0.278338
0.000126106
0.278354
0.000111679
0.278377
0.000117281
0.278386
0.00010148
0.2784
0.000102358
0.278409
0.000102653
0.278417
0.000106161
0.27844
0.000143186
0.278454
0.00015055
0.278501
0.000226373
0.278539
0.00025706
0.278617
0.000360925
0.278702
0.000426992
0.278811
0.000513824
0.278963
0.000629437
0.279119
0.00070113
0.279346
0.000850367
0.279595
0.000955101
0.2799
0.00112616
0.280298
0.00138833
0.280721
0.00157016
0.281305
0.0019874
0.281978
0.00229556
0.282765
0.00262358
0.283736
0.00304003
0.284765
0.003246
0.28589
0.00351092
0.00392679
0.297537
9.02557e-05
0.297565
8.3132e-05
0.297597
8.59966e-05
0.297621
7.7312e-05
0.297645
7.79182e-05
0.297669
7.85075e-05
0.297693
8.30386e-05
0.297729
0.00010646
0.297764
0.000115888
0.297826
0.000164688
0.297892
0.000190641
0.297992
0.00026068
0.298111
0.000308506
0.298254
0.000370405
0.298437
0.000447066
0.298638
0.000500076
0.298892
0.000596507
0.299177
0.000669211
0.299518
0.000785416
0.299946
0.000960415
0.300425
0.00109147
0.301046
0.00136579
0.301764
0.00157766
0.302593
0.00179452
0.303574
0.00205978
0.304618
0.00220148
0.305754
0.00237545
0.00264146
0.318076
4.8123e-05
0.318114
4.52687e-05
0.318153
4.64064e-05
0.318188
4.28809e-05
0.318223
4.2957e-05
0.318258
4.36232e-05
0.318294
4.6225e-05
0.318343
5.78801e-05
0.318395
6.39758e-05
0.318472
8.80995e-05
0.318559
0.000103324
0.318681
0.000138743
0.318825
0.000164326
0.318999
0.000196805
0.31921
0.000235367
0.319446
0.000264276
0.319731
0.000311993
0.32005
0.000349506
0.320427
0.000408991
0.32089
0.000497225
0.321415
0.00056677
0.322075
0.000704917
0.32284
0.000813401
0.323712
0.000922716
0.324717
0.00105404
0.325793
0.00112567
0.326957
0.001212
0.00134474
0.34009
0.340135
0.340181
0.340224
0.340267
0.340311
0.340357
0.340415
0.340479
0.340567
0.34067
0.340809
0.340973
0.34117
0.341405
0.34167
0.341982
0.342331
0.34274
0.343237
0.343804
0.344509
0.345323
0.346245
0.347299
0.348425
0.349637
)
;

boundaryField
{
    outlet
    {
        type            calculated;
        value           nonuniform List<scalar> 
40
(
0.0534805
0.0533755
0.0532231
0.0529279
0.0526332
0.0522609
0.0519328
0.0515454
0.0511874
0.0508174
0.0456173
0.0485124
0.0516816
0.055144
0.0590525
0.0633999
0.0683182
0.0736285
0.0790096
0.0842819
0.0883101
0.0928401
0.105783
0.112971
0.122677
0.133182
0.143907
0.155074
0.166744
0.178933
0.191759
0.205305
0.219661
0.234941
0.251231
0.268618
0.287191
0.307039
0.328253
0.350982
)
;
    }
    upperWall
    {
        type            symmetryPlane;
        value           uniform 0;
    }
    lowerWall
    {
        type            symmetryPlane;
        value           nonuniform 0();
    }
    inlet
    {
        type            calculated;
        value           nonuniform 0();
    }
    cylinder
    {
        type            calculated;
        value           nonuniform 0();
    }
    frontAndBack
    {
        type            empty;
        value           nonuniform 0();
    }
    procBoundary7to3
    {
        type            processor;
        value           nonuniform List<scalar> 
30
(
0.0898288
0.0860791
0.0979059
0.0950884
0.0734173
0.0420764
-0.0331478
-0.0600358
-0.093788
-0.108391
-0.0886138
-0.103117
-0.0157042
0.0305534
0.0656987
0.141109
0.0984961
0.0844219
0.0101777
-0.114244
-0.110818
-0.148062
-0.0650032
0.113315
0.117444
0.150654
0.0561664
-0.201962
-0.132178
0.0222865
)
;
    }
    procBoundary7to6
    {
        type            processor;
        value           nonuniform List<scalar> 
42
(
-0.033693
-0.0363921
-0.0405444
-0.0457577
-0.0513711
-0.0562174
-0.0613392
-0.0488558
-0.050763
-0.0538254
-0.0526144
-0.0306629
-0.0574941
-0.060295
-0.0662387
-0.0667272
-0.0724966
-0.0740555
-0.0799516
-0.0829958
-0.0884448
-0.0928632
-0.0983426
-0.104281
-0.110885
-0.118162
-0.126031
-0.134538
-0.143645
-0.153379
-0.163783
-0.174919
-0.186841
-0.199612
-0.213287
-0.227929
-0.243597
-0.260368
-0.278309
-0.297501
-0.318034
-0.340041
)
;
    }
}


// ************************************************************************* //
