/*--------------------------------*- C++ -*----------------------------------*\
| =========                 |                                                 |
| \\      /  F ield         | OpenFOAM: The Open Source CFD Toolbox           |
|  \\    /   O peration     | Version:                                        |
|   \\  /    A nd           | Website:  www.openfoam.com                      |
|    \\/     M anipulation  |                                                 |
\*---------------------------------------------------------------------------*/
FoamFile
{
    version     2.0;
    format      ascii;
    class       surfaceScalarField;
    location    "68";
    object      phi;
}
// * * * * * * * * * * * * * * * * * * * * * * * * * * * * * * * * * * * * * //

dimensions      [0 3 -1 0 0 0 0];
oriented        oriented;


internalField   nonuniform List<scalar> 
2227
(
0.0027954
0.0481158
-0.051156
0.00581945
0.0478907
-0.0509148
0.00881828
0.047357
-0.0503558
0.0117875
0.0464853
-0.0494545
0.0146763
0.0453146
-0.0482034
-0.0465008
0.0027025
0.0451756
0.00562782
0.0449654
0.00854035
0.0444444
0.0114169
0.00263179
0.00549061
-0.000240167
0.0538444
-0.000988628
0.0537815
-0.00163371
0.0536781
-0.00213422
0.0535335
-0.00244783
0.0533466
-0.00253435
0.0531195
-0.00235625
0.0528549
-0.00188081
0.0525576
-0.00107061
0.0522228
0.0518743
8.80548e-05
0.00047745
0.0537102
0.000626048
0.0536329
0.000799478
0.0535046
0.00100562
0.0533274
0.00124178
0.0531104
0.00150587
0.0528554
0.00178798
0.0525728
0.00206601
0.0522795
0.0022983
0.0519905
0.0516679
0.00250475
-0.00298976
0.0546286
-0.00396596
0.0546091
-0.00496512
0.0545038
-0.00595817
0.0543204
-0.00690533
0.0540576
-0.00777632
0.0537264
-0.00852029
0.0533168
-0.00907745
0.0528367
-0.00938441
0.0522975
0.0517708
-0.0094873
-0.00143217
0.0545137
-0.0012858
0.0544627
-0.00109292
0.0543109
-0.000829922
0.0540574
-0.000476883
0.0537046
2.46634e-06
0.0532471
0.000621134
0.0526981
0.00141477
0.0520431
0.00244349
0.0512688
0.0503758
0.00383845
-0.000967414
0.055228
-0.00164313
0.0551384
-0.00224643
0.0549142
-0.00274616
0.0545572
-0.00310552
0.0540639
-0.00329469
0.0534362
-0.00326511
0.0526685
-0.00300231
0.0517803
-0.00248219
0.0507486
0.0496494
-0.0017558
-0.00120153
0.0551193
-0.00109109
0.055028
-0.000957053
0.0547802
-0.000771986
0.0543721
-0.000514477
0.0538064
-0.000160182
0.0530819
0.000294737
0.0522136
0.000884648
0.0511904
0.00161343
0.0500198
0.0488188
0.00244409
-0.000672791
0.0556409
-0.00109274
0.0554479
-0.00138803
0.0550755
-0.00154411
0.0545282
-0.00154298
0.0538053
-0.00138549
0.0529245
-0.00105433
0.0518824
-0.000581158
0.0507172
4.27038e-05
0.049396
0.047958
0.00090348
0.000693009
0.0555533
0.000753437
0.0553875
0.000791631
0.0550373
0.000816811
0.054503
0.000824471
0.0537976
0.000835463
0.0529135
0.000831677
0.0518862
0.000838227
0.0507106
0.000829434
0.0494048
0.0479782
0.000809239
-0.00117462
0.0560017
-0.00161312
0.055826
-0.00201044
0.0554346
-0.00234344
0.054836
-0.00257219
0.0540264
-0.00269813
0.0530394
-0.00266282
0.0518509
-0.00246215
0.05051
-0.00202856
0.0489712
0.0473057
-0.00135602
-4.72884e-05
0.0559181
8.77008e-05
0.055691
0.000264984
0.0552573
0.000493596
0.0546074
0.000746198
0.0537738
0.00104283
0.0527428
0.00131909
0.0515746
0.00160213
0.0502269
0.00186169
0.0487116
0.0470567
0.00211059
-0.00024857
0.0562509
-0.00063489
0.0560773
-0.00104964
0.055672
-0.00148958
0.0550473
-0.00190371
0.0541879
-0.00228569
0.0531247
-0.00252644
0.0518154
-0.0026184
0.0503189
-0.00239743
0.0484907
0.0465149
-0.00185562
-0.00061147
0.0561542
-0.000496697
0.0559626
-0.000338483
0.0555138
-9.49867e-05
0.0548038
0.000250196
0.0538427
0.000754705
0.0526202
0.00140873
0.0511614
0.00225257
0.0494751
0.00310403
0.0476392
0.0456057
0.00401327
-0.000746562
0.0563474
-0.000916127
0.0561321
-0.00105787
0.0556556
-0.00118908
0.0549351
-0.00130522
0.0539589
-0.00146197
0.052777
-0.00162931
0.0513287
-0.00187099
0.0497167
-0.00205853
0.0478267
0.0458934
-0.00234628
-0.000547733
0.0562712
-0.000491826
0.0560762
-0.000445264
0.055609
-0.00037526
0.0548651
-0.000275014
0.0538586
-5.82749e-05
0.0525602
0.000239045
0.0510314
0.000762135
0.0491936
0.0014486
0.0471403
0.0449111
0.00243094
-0.000818586
0.0563836
-0.000924115
0.0561817
-0.00100408
0.055689
-0.0010558
0.0549168
-0.0010404
0.0538432
-0.00100548
0.0525253
-0.000882666
0.0509086
-0.000808905
0.0491199
-0.000776272
0.0471076
0.0449353
-0.000800467
-0.000644878
0.0562579
-0.000517793
0.0560547
-0.000375073
0.0555463
-0.000222079
0.0547638
-6.6033e-05
0.0536872
0.000123446
0.0523359
0.00026729
0.0507647
0.000480961
0.0489062
0.000820179
0.0467684
0.0443385
0.00141694
-0.000778473
0.0562904
-0.000805253
0.0560814
-0.000830741
0.0555717
-0.000835288
0.0547683
-0.000810849
0.0536627
-0.00075096
0.052276
-0.000539848
0.0505536
-0.00022495
0.0485913
0.000217631
0.0463258
0.0438323
0.000723848
-0.00049952
0.056123
-0.000329528
0.0559114
-0.00014553
0.0553877
6.86518e-05
0.0545541
0.000304185
0.0534272
0.000597564
0.0519826
0.000881916
0.0502693
0.00127908
0.0481942
0.00162121
0.0459837
0.0434386
0.00201496
-0.000564202
0.0560487
-0.000483191
0.0558304
-0.000394712
0.0552993
-0.000280338
0.0544398
-0.000146199
0.0532931
2.84261e-05
0.051808
0.000244137
0.0500536
0.000440306
0.047998
0.000811787
0.0456122
0.042995
0.00125534
-0.000316322
0.0558072
-6.64576e-05
0.0555806
0.000191528
0.0550413
0.000451312
0.05418
0.000729744
0.0530146
0.00103355
0.0515042
0.00136702
0.0497201
0.00180298
0.047562
0.00218396
0.0452312
0.042439
0.00274
-0.000345175
0.0556316
-0.00016693
0.0554023
3.2265e-05
0.0548421
0.00021864
0.0539936
0.000427276
0.052806
0.000657175
0.0512743
0.000920371
0.0494569
0.00125166
0.0472307
0.00170052
0.0447824
0.0419295
0.00221001
-0.000121325
0.0553043
0.000209721
0.0550713
0.000534369
0.0545174
0.000869139
0.0536588
0.00122056
0.0524546
0.00162303
0.0508718
0.00206599
0.0490139
0.00253321
0.0467635
0.00298971
0.0443259
0.0413916
0.00352764
-0.000132969
0.0550232
0.000159775
0.0547785
0.000437652
0.0542396
0.000719149
0.0533773
0.00100479
0.0521689
0.00130981
0.0505668
0.00163541
0.0486883
0.00203462
0.0463643
0.00247149
0.043889
0.0408085
0.00305457
5.86399e-05
0.0545944
0.000480532
0.0543566
0.000892842
0.0538272
0.00131946
0.0529507
0.00176432
0.0517241
0.00224321
0.0500879
0.00273647
0.0481951
0.00330179
0.045799
0.0039008
0.04329
0.0401896
0.00451971
5.75127e-05
0.0541865
0.000453323
0.0539608
0.000838718
0.0534419
0.00122525
0.0525642
0.00161424
0.0513351
0.00202786
0.0496742
0.00244641
0.0477765
0.00288538
0.04536
0.00334662
0.0428288
0.0396836
0.00385259
0.000198616
0.0536599
0.000726164
0.0534333
0.00124889
0.0529191
0.00178247
0.0520306
0.00231779
0.0507998
0.00288284
0.0491092
0.00346396
0.0471954
0.004081
0.044743
0.00469217
0.0422176
0.0390431
0.00533264
0.000204131
0.0531397
0.000717701
0.0529197
0.00122263
0.0524142
0.00172757
0.0515257
0.00223095
0.0502964
0.00274512
0.048595
0.00325504
0.0466855
0.00377679
0.0442212
0.00429128
0.0417031
0.0386048
0.00472966
0.000324538
0.0525101
0.000960245
0.052284
0.00159934
0.0517751
0.00224771
0.0508773
0.00290034
0.0496438
0.00356995
0.0479254
0.00424981
0.0460056
0.00493274
0.0435383
0.00561089
0.041025
0.00617448
0.000327191
0.0518851
0.00095388
0.0516573
0.00159509
0.0511339
0.00223393
0.0502385
0.00287337
0.0490043
0.00350477
0.047294
0.00413137
0.045379
0.0047534
0.000429687
0.00117225
0.00195034
0.00273429
0.00353525
0.00432841
0.000524537
0.0473921
0.000950395
0.0507222
0.00115599
0.0544922
0.00104837
0.0586016
0.000746271
0.0628558
0.000442997
0.0671983
0.000235288
0.0717455
0.000107328
0.0766306
2.22339e-05
0.0818973
-4.30583e-05
0.0875555
-0.000105367
0.0936246
-0.000171486
0.100122
-0.000231515
0.10706
-0.000267156
0.114462
-0.000266059
0.122366
-0.000230432
0.130824
-0.000175116
0.139887
-0.000117437
0.149597
-6.81938e-05
0.159992
-3.08019e-05
0.171111
-3.98123e-06
0.183
1.61748e-05
0.195709
3.19491e-05
0.209297
4.37273e-05
0.223828
5.06822e-05
0.239368
5.15862e-05
0.255988
4.67107e-05
0.27376
3.72809e-05
0.292763
2.21927e-05
0.313087
0.334822
0.00190075
0.0479961
0.00116875
0.0514542
0.000548759
0.0551122
0.000241949
0.0589084
0.000203645
0.0628941
0.000242289
0.0671597
0.000240549
0.0717472
0.000210354
0.0766608
0.000206269
0.0819014
0.000247429
0.0875143
0.000323696
0.0935483
0.000415191
0.10003
0.00049951
0.106976
0.000553356
0.114408
0.000560146
0.12236
0.000526847
0.130858
0.00047832
0.139935
0.000436175
0.149639
0.000406854
0.160021
0.000383743
0.171134
0.000359301
0.183024
0.000331113
0.195737
0.000301018
0.209327
0.000271228
0.223858
0.000240342
0.239399
0.000206569
0.256021
0.000167617
0.273799
0.000119384
0.292812
6.28393e-05
0.313144
0.334885
-0.0100736
0.0485824
-0.0101997
0.0515802
-0.00961881
0.0545314
-0.00847699
0.0577666
-0.0071154
0.0615325
-0.00577623
0.0658205
-0.00455163
0.0705226
-0.0035173
0.0756265
-0.00280166
0.0811857
-0.00241403
0.0871267
-0.00219992
0.0933342
-0.00199516
0.0998256
-0.00171688
0.106697
-0.00137522
0.114066
-0.00104221
0.122027
-0.000778636
0.130594
-0.000594791
0.139752
-0.000472419
0.149517
-0.000382575
0.159931
-0.000305234
0.171057
-0.000231393
0.18295
-0.000158115
0.195664
-8.64779e-05
0.209256
-2.40298e-05
0.223796
2.26836e-05
0.239352
5.13574e-05
0.255993
6.29152e-05
0.273787
5.95816e-05
0.292815
3.88519e-05
0.313164
0.334924
0.00449291
0.0479279
0.00487568
0.0511974
0.00480664
0.0546004
0.00431597
0.0582573
0.00361558
0.0622329
0.00288387
0.0665522
0.00216733
0.0712392
0.00152567
0.0762682
0.00111561
0.0815958
0.000977918
0.0872644
0.000957652
0.0933544
0.000912338
0.0998709
0.000796127
0.106814
0.000628265
0.114234
0.000481554
0.122173
0.00040417
0.130672
0.000383107
0.139773
0.000382642
0.149517
0.000374423
0.159939
0.000352786
0.171078
0.000323782
0.182979
0.000294303
0.195693
0.0002762
0.209274
0.000266658
0.223805
0.000255442
0.239364
0.000235639
0.256012
0.000204402
0.273818
0.000155943
0.292864
8.68694e-05
0.313233
0.335011
-0.00166897
0.0478411
-0.00168702
0.0512155
-0.00185652
0.0547699
-0.00208187
0.0584826
-0.00221463
0.0623656
-0.00214848
0.0664861
-0.00188791
0.0709786
-0.00155579
0.0759361
-0.00128648
0.0813265
-0.00105679
0.0870347
-0.000767958
0.0930656
-0.000468359
0.0995713
-0.000265322
0.10661
-0.000172438
0.114141
-0.00013472
0.122136
-9.10861e-05
0.130628
-1.23796e-05
0.139694
9.47454e-05
0.14941
0.000202054
0.159832
0.000286546
0.170994
0.000337897
0.182928
0.000357923
0.195673
0.000359392
0.209272
0.000347065
0.223817
0.000322742
0.239388
0.000289122
0.256046
0.000245331
0.273862
0.00018788
0.292921
0.000106295
0.313315
0.335117
0.00258571
0.0476995
0.00276587
0.0510353
0.00290201
0.0546338
0.00275953
0.0586251
0.00230013
0.062825
0.00171656
0.0670697
0.00125031
0.0714448
0.0010725
0.0761139
0.00116847
0.0812305
0.0013301
0.0868731
0.0014014
0.0929943
0.00140033
0.0995724
0.00135933
0.106651
0.0012963
0.114204
0.00122502
0.122207
0.00114925
0.130704
0.00106987
0.139773
0.000994914
0.149485
0.000934107
0.159893
0.000890851
0.171037
0.000856924
0.182962
0.000820654
0.195709
0.000773508
0.20932
0.000710649
0.22388
0.00063143
0.239467
0.000539973
0.256137
0.000435901
0.273966
0.000315467
0.293041
0.000166347
0.313464
0.335283
0.00140195
0.047201
0.00198783
0.0504494
0.00258777
0.0540339
0.00312184
0.058091
0.00342522
0.0625216
0.00342321
0.0670717
0.00311529
0.0717527
0.002581
0.0766482
0.00206099
0.0817505
0.00172633
0.0872077
0.00148979
0.0932308
0.00125798
0.0998042
0.00109609
0.106813
0.0010443
0.114256
0.00106717
0.122184
0.00110493
0.130666
0.00112235
0.139756
0.00111006
0.149497
0.00107199
0.159931
0.00101517
0.171094
0.000953932
0.183023
0.000895873
0.195767
0.000836228
0.209379
0.000766638
0.22395
0.000684872
0.239549
0.000587988
0.256234
0.000475034
0.274079
0.000346069
0.29317
0.000181839
0.313628
0.335465
0.000358011
0.0476523
-3.61087e-05
0.0508435
-9.75617e-05
0.0540953
0.000259707
0.0577338
0.000733234
0.0620481
0.00101749
0.0667874
0.00116635
0.0716039
0.00130906
0.0765055
0.00139376
0.0816658
0.00138184
0.0872196
0.00135505
0.0932576
0.00136178
0.0997974
0.00140596
0.106769
0.00149389
0.114168
0.00159001
0.122088
0.00165624
0.1306
0.00168385
0.139728
0.0016787
0.149502
0.00164134
0.159968
0.00157053
0.171165
0.00146716
0.183126
0.0013399
0.195895
0.00119472
0.209524
0.00104594
0.224099
0.000899648
0.239695
0.000752396
0.256382
0.000596605
0.274235
0.000425163
0.293342
0.000217504
0.313836
0.335683
-0.0011197
0.0474159
-0.000582153
0.050306
0.000253725
0.0532594
0.00122756
0.0567599
0.00213789
0.0611378
0.00277941
0.0661459
0.00302998
0.0713533
0.00295606
0.0765794
0.00265243
0.0819695
0.00219636
0.0876757
0.00174757
0.0937064
0.00147915
0.100066
0.00138523
0.106863
0.00135425
0.114199
0.00131993
0.122122
0.00128202
0.130638
0.00126265
0.139748
0.00126662
0.149498
0.00128072
0.159954
0.00129064
0.171155
0.00127356
0.183143
0.00121873
0.19595
0.00112267
0.20962
0.000997471
0.224224
0.000860414
0.239832
0.000719188
0.256523
0.000572169
0.274382
0.000406256
0.293508
0.000207825
0.314034
0.335891
0.00187728
0.0476492
0.00143622
0.0507471
0.000952579
0.0537431
0.000571729
0.0571408
0.0003899
0.0613196
0.000384104
0.0661517
0.000506621
0.0712308
0.000724491
0.0763615
0.00101086
0.0816831
0.0013217
0.0873649
0.00158467
0.0934434
0.00175555
0.099895
0.00184981
0.106769
0.00187561
0.114173
0.00184161
0.122156
0.00176791
0.130711
0.00167341
0.139842
0.0015817
0.14959
0.00150963
0.160026
0.0014497
0.171215
0.00139764
0.183196
0.00133015
0.196017
0.00123221
0.209718
0.00110498
0.224351
0.00095634
0.239981
0.000797605
0.256682
0.000633139
0.274546
0.000442305
0.293699
0.000223443
0.314253
0.336114
-0.00169619
0.0474898
-0.00143466
0.0504855
-0.00135784
0.0536663
-0.00139557
0.0571785
-0.00121272
0.0611368
-0.000756054
0.065695
-0.000310944
0.0707857
-0.000129496
0.07618
-8.94162e-05
0.081643
3.19169e-05
0.0872435
0.000310966
0.0931644
0.000667002
0.0995389
0.000984989
0.106451
0.00122813
0.11393
0.00139934
0.121985
0.00149964
0.130611
0.0015265
0.139815
0.00148862
0.149628
0.00141513
0.1601
0.00133399
0.171296
0.00125186
0.183278
0.00117077
0.196098
0.0010823
0.209807
0.000977443
0.224456
0.000854836
0.240103
0.000719148
0.256817
0.000577596
0.274688
0.000403001
0.293873
0.000206049
0.31445
0.33632
0.00436083
0.0471423
0.00398896
0.0508574
0.00298088
0.0546743
0.00173078
0.0584286
0.000753898
0.0621136
0.000470692
0.0659782
0.000798873
0.0704575
0.00129094
0.075688
0.00159298
0.081341
0.0016515
0.087185
0.00159959
0.0932163
0.00155845
0.0995801
0.00154792
0.106461
0.00155208
0.113926
0.00157223
0.121965
0.00161093
0.130572
0.00164545
0.139781
0.00164824
0.149625
0.00160386
0.160144
0.00151888
0.171381
0.00140954
0.183387
0.00128955
0.196218
0.00116422
0.209932
0.00103288
0.224587
0.000893961
0.240242
0.000747475
0.256964
0.000599703
0.274836
0.000414135
0.294059
0.000211693
0.314653
0.336532
-0.00280089
0.0475969
-0.00270119
0.0507577
-0.00230858
0.0542817
-0.00206291
0.058183
-0.00205645
0.0621072
-0.00202409
0.0659459
-0.0017107
0.0701441
-0.00107431
0.0750516
-0.000296074
0.0805628
0.00046989
0.086419
0.00106967
0.0926165
0.00138656
0.0992632
0.00148513
0.106363
0.00147559
0.113935
0.00144211
0.121998
0.00142493
0.13059
0.00143039
0.139775
0.00143869
0.149617
0.00142612
0.160157
0.0013803
0.171427
0.00130208
0.183465
0.00119918
0.196321
0.00108149
0.21005
0.000955116
0.224714
0.000822215
0.240375
0.000684084
0.257102
0.000547518
0.274972
0.000382263
0.294224
0.000196265
0.314839
0.336728
0.0029898
0.047038
0.00323762
0.0505099
0.00331105
0.0542083
0.00319782
0.0582962
0.00281055
0.0624944
0.00222115
0.0665353
0.00173293
0.0706323
0.00148705
0.0752975
0.00143277
0.080617
0.00147249
0.0863793
0.00159516
0.0924939
0.00178293
0.0990754
0.00192377
0.106222
0.00196643
0.113893
0.00194054
0.122024
0.00187111
0.130659
0.00178037
0.139866
0.00168641
0.149711
0.00159536
0.160248
0.00150234
0.17152
0.00139901
0.183569
0.00128164
0.196438
0.00115109
0.21018
0.00101067
0.224854
0.000863551
0.240522
0.000712291
0.257253
0.000559685
0.275125
0.000397231
0.294386
0.000201666
0.315034
0.33693
-0.00114351
0.0473811
-0.00121244
0.0505788
-0.000911159
0.053907
-0.000302685
0.0576877
0.000293697
0.0618981
0.00064636
0.0661826
0.00072292
0.0705558
0.000737425
0.075283
0.000827217
0.0805272
0.000949821
0.0862567
0.00102929
0.0924144
0.00110117
0.0990035
0.00121848
0.106105
0.00138069
0.11373
0.00152548
0.121879
0.0016159
0.130569
0.00163991
0.139842
0.0016034
0.149747
0.00152617
0.160325
0.0014288
0.171617
0.00132086
0.183676
0.00120539
0.196554
0.00108157
0.210304
0.000950104
0.224986
0.000811369
0.240661
0.000667216
0.257397
0.000520702
0.275271
0.000375081
0.294532
0.00018983
0.31522
0.33712
0.00188552
0.0469125
0.00228139
0.0501829
0.00256002
0.0536284
0.00271511
0.0575326
0.00282643
0.0617867
0.00292666
0.0660824
0.00298141
0.070501
0.00297957
0.0752848
0.00295802
0.0805488
0.00295235
0.0862624
0.00291389
0.0924528
0.00275296
0.0991645
0.00251471
0.106343
0.0023021
0.113943
0.00215548
0.122026
0.00205532
0.130669
0.00196513
0.139932
0.00186105
0.149851
0.00173829
0.160448
0.00159887
0.171756
0.00145137
0.183824
0.00130097
0.196704
0.00114962
0.210456
0.000997802
0.225137
0.000844003
0.240815
0.000688178
0.257553
0.000531452
0.275428
0.000384132
0.294679
0.000193133
0.315411
0.337313
0.000671688
0.0469646
0.000697377
0.0501572
0.000944718
0.0533811
0.00142638
0.057051
0.00194458
0.0612685
0.00224866
0.0657783
0.00230383
0.0704459
0.0022289
0.0753597
0.00213137
0.0806463
0.00204104
0.0863527
0.0019926
0.0925013
0.00200181
0.0991552
0.002021
0.106324
0.00200207
0.113962
0.00195314
0.122075
0.00188828
0.130734
0.00181195
0.140008
0.00172802
0.149935
0.00162959
0.160546
0.0015132
0.171873
0.00138316
0.183954
0.00124312
0.196844
0.00109841
0.2106
0.000951116
0.225285
0.000801767
0.240964
0.000649205
0.257706
0.000496768
0.27558
0.000362226
0.294814
0.000182927
0.31559
0.337496
0.00240537
0.0465742
0.00258516
0.0499775
0.00246953
0.0534967
0.00231615
0.0572043
0.00238635
0.0611983
0.00263108
0.0655336
0.00285101
0.0702259
0.00296724
0.0752435
0.00299392
0.0806196
0.00292772
0.0864189
0.00277441
0.0926546
0.00259168
0.099338
0.00245073
0.106465
0.00235872
0.114054
0.00227359
0.12216
0.00217209
0.130835
0.00205021
0.14013
0.00191406
0.150071
0.00177061
0.16069
0.00162316
0.17202
0.00146912
0.184108
0.00131033
0.197003
0.00114939
0.210761
0.000988191
0.225446
0.000827885
0.241125
0.000667087
0.257866
0.000502199
0.275745
0.000364146
0.294952
0.000183756
0.31577
0.337679
0.00119409
0.0466355
0.00148878
0.0496828
0.00212189
0.0528636
0.00274628
0.05658
0.00309798
0.0608466
0.00313199
0.0654996
0.0029993
0.0703586
0.00285095
0.0753919
0.00275529
0.0807153
0.00270282
0.0864714
0.00264978
0.0927076
0.00257534
0.0994124
0.00248037
0.10656
0.00236237
0.114172
0.00223698
0.122285
0.00209656
0.130975
0.00194786
0.140279
0.00180024
0.150219
0.00165689
0.160833
0.00151674
0.17216
0.00137646
0.184248
0.00123328
0.197146
0.00108552
0.210909
0.000935184
0.225596
0.000784098
0.241276
0.000630018
0.258021
0.000469904
0.275905
0.000339609
0.295082
0.000173124
0.315937
0.337853
0.00286586
0.0465096
0.00257043
0.0499782
0.00217943
0.0532546
0.00208826
0.0566711
0.00233361
0.0606013
0.00264973
0.0651834
0.00281997
0.0701884
0.00283232
0.0753795
0.00277914
0.0807685
0.00270479
0.0865458
0.00261572
0.0927967
0.00253335
0.0994948
0.00246955
0.106624
0.00242011
0.114221
0.00234994
0.122356
0.00224359
0.131082
0.00210406
0.140419
0.00193873
0.150384
0.00176364
0.161008
0.00159085
0.172333
0.00142412
0.184415
0.00126312
0.197307
0.00110463
0.211067
0.000947485
0.225753
0.000791456
0.241432
0.000633505
0.258179
0.000469427
0.27607
0.000329129
0.295223
0.000172608
0.316093
0.338025
0.00246963
0.04625
0.0030084
0.0494394
0.00338581
0.0528772
0.00350436
0.0565526
0.00353156
0.0605741
0.00357472
0.0651403
0.00354154
0.0702216
0.00340884
0.0755122
0.0032399
0.0809374
0.00307567
0.08671
0.00292378
0.0929486
0.00276714
0.0996514
0.00259988
0.106791
0.00243128
0.11439
0.00226743
0.122519
0.00211063
0.131239
0.00195703
0.140572
0.00180321
0.150538
0.00164782
0.161163
0.00149002
0.172491
0.0013339
0.184571
0.0011813
0.19746
0.001032
0.211217
0.000885064
0.2259
0.00073906
0.241578
0.000591494
0.258326
0.000437065
0.276224
0.00030079
0.295359
0.000161036
0.316233
0.338186
0.00352244
0.0462552
0.00320541
0.0497564
0.00291903
0.0531635
0.00275763
0.056714
0.00274891
0.0605828
0.00289672
0.0649925
0.0030771
0.0700412
0.00312378
0.0754655
0.00302962
0.0810316
0.00290296
0.0868366
0.00280002
0.0930515
0.00271707
0.0997344
0.00263898
0.106869
0.00253706
0.114492
0.00239476
0.122662
0.00222419
0.131409
0.00204626
0.14075
0.00186888
0.150716
0.00169378
0.161339
0.0015222
0.172663
0.00135492
0.184738
0.00119192
0.197623
0.00103456
0.211374
0.000881733
0.226053
0.00073241
0.241727
0.000584666
0.258474
0.000435347
0.276373
0.000289267
0.295505
0.000155548
0.316367
0.338342
0.00337465
0.0459351
0.00383507
0.049296
0.0040572
0.0529414
0.00405593
0.0567152
0.00394596
0.0606928
0.00384132
0.0650971
0.00377889
0.0701036
0.0036853
0.0755591
0.00348009
0.0812368
0.00320331
0.0871134
0.0029335
0.0933214
0.00270501
0.0999628
0.00251758
0.107056
0.00235699
0.114653
0.00220196
0.122817
0.00204338
0.131568
0.00188
0.140913
0.00171825
0.150877
0.00156214
0.161495
0.00140825
0.172816
0.00125618
0.184891
0.00110679
0.197772
0.000961116
0.21152
0.000818645
0.226196
0.000679396
0.241866
0.00054188
0.258611
0.000403378
0.276512
0.00026182
0.295646
0.000141854
0.316487
0.338484
0.00446303
0.0459918
0.00411252
0.0496465
0.00377119
0.0532827
0.00348504
0.0570014
0.00330175
0.0608761
0.00328696
0.0651119
0.00335179
0.0700388
0.00336467
0.0755462
0.00329554
0.0813059
0.00317765
0.0872313
0.00302779
0.0934712
0.00286748
0.100123
0.00270602
0.107218
0.00252406
0.114835
0.0023258
0.123015
0.0021229
0.131771
0.00192568
0.141111
0.00174032
0.151063
0.00156636
0.161669
0.00140279
0.17298
0.00124674
0.185047
0.00109528
0.197924
0.000948179
0.211667
0.000804815
0.226339
0.000665379
0.242006
0.000529219
0.258748
0.000392342
0.276649
0.000248449
0.29579
0.000133968
0.316601
0.338618
0.00413207
0.0457123
0.00461068
0.0491679
0.00487065
0.0530228
0.00475311
0.0571189
0.0043979
0.0612313
0.00403848
0.0654713
0.00380308
0.0702742
0.00360554
0.0757438
0.00336165
0.0815498
0.00308973
0.0875032
0.00282838
0.0937326
0.00260323
0.100348
0.00240846
0.107413
0.00224024
0.115003
0.00208223
0.123173
0.00192217
0.131931
0.00175864
0.141274
0.00159661
0.151225
0.00143968
0.161826
0.00128936
0.17313
0.00114519
0.185191
0.0010069
0.198062
0.000872832
0.211801
0.000741988
0.22647
0.000613865
0.242134
0.000488165
0.258873
0.000360444
0.276776
0.000223415
0.295927
0.000120176
0.316704
0.338738
0.00522316
0.0458218
0.00473802
0.0496531
0.0043112
0.0534496
0.00407445
0.0573557
0.00390192
0.0614038
0.00373231
0.0656409
0.0035962
0.0704103
0.00348407
0.0758559
0.00335603
0.0816778
0.00318714
0.0876721
0.00299628
0.0939234
0.00280444
0.10054
0.00260007
0.107617
0.00237873
0.115224
0.00215755
0.123394
0.00194964
0.132139
0.00175859
0.141465
0.001584
0.151399
0.00142044
0.161989
0.00126647
0.173284
0.00112096
0.185336
0.000982126
0.198201
0.000848591
0.211935
0.000719714
0.226599
0.000593995
0.24226
0.000471781
0.258995
0.000346957
0.276901
0.000210658
0.296064
0.00011167
0.316803
0.338849
0.00486588
0.0456856
0.00509745
0.0494215
0.00508192
0.0534651
0.00481349
0.0576241
0.0044156
0.0618017
0.00403359
0.0660229
0.00373255
0.0707113
0.00347532
0.0761131
0.0032132
0.08194
0.00294286
0.0879424
0.00269413
0.0941722
0.0024731
0.100761
0.00227468
0.107815
0.00209883
0.1154
0.00193122
0.123562
0.00176536
0.132304
0.0016047
0.141626
0.00144988
0.151554
0.00130174
0.162137
0.00116082
0.173425
0.00102661
0.18547
0.000899098
0.198328
0.000777226
0.212056
0.000659699
0.226716
0.000544834
0.242374
0.000433045
0.259107
0.000317448
0.277017
0.000189462
0.296192
9.89478e-05
0.316894
0.338948
0.00593173
0.00516396
0.00468889
0.00439524
0.00411456
0.00381566
0.00357131
0.00339865
0.00322821
0.00302196
0.00280734
0.00259557
0.00237776
0.00215324
0.00193786
0.0017434
0.00156942
0.00141175
0.00126511
0.00112635
0.000994889
0.000869634
0.000750227
0.000634003
0.000522147
0.000414417
0.000303283
0.000178792
8.99123e-05
)
;

boundaryField
{
    outlet
    {
        type            calculated;
        value           nonuniform 0();
    }
    upperWall
    {
        type            symmetryPlane;
        value           nonuniform 0();
    }
    lowerWall
    {
        type            symmetryPlane;
        value           uniform 0;
    }
    inlet
    {
        type            calculated;
        value           nonuniform List<scalar> 
40
(
-0.053033
-0.053033
-0.053033
-0.053033
-0.053033
-0.053033
-0.053033
-0.053033
-0.053033
-0.053033
-0.0478286
-0.051148
-0.0546978
-0.058494
-0.0625537
-0.0668951
-0.0715378
-0.0765027
-0.0818122
-0.0874902
-0.0935622
-0.100056
-0.107
-0.114426
-0.122367
-0.13086
-0.139942
-0.149655
-0.160041
-0.171148
-0.183026
-0.195729
-0.209313
-0.22384
-0.239375
-0.255988
-0.273755
-0.292754
-0.313072
-0.3348
)
;
    }
    cylinder
    {
        type            calculated;
        value           nonuniform 0();
    }
    frontAndBack
    {
        type            empty;
        value           nonuniform 0();
    }
    procBoundary0to1
    {
        type            processor;
        value           nonuniform List<scalar> 
45
(
0.0174727
0.0437044
0.0445531
0.0436088
0.0142396
0.0424918
0.0423106
0.0421066
0.00832947
0.0416056
0.0380412
0.0429163
0.00540439
0.040374
0.0051543
0.0459283
0.0501893
0.0539402
0.0579178
0.0620824
0.0663218
0.0709557
0.0762858
0.0821104
0.0881487
0.0943868
0.100973
0.108033
0.115624
0.123777
0.132499
0.1418
0.151712
0.162284
0.173564
0.185602
0.198454
0.212176
0.226832
0.242486
0.259215
0.277128
0.296316
0.316983
0.339038
)
;
    }
    procBoundary0to4
    {
        type            processor;
        value           nonuniform List<scalar> 
33
(
0.000244796
0.000237779
0.000233139
-0.000571214
-0.000343238
0.00207136
0.00154701
0.000253165
0.00131026
0.000151143
-0.000605382
0.000726227
0.000130827
-8.42338e-05
0.000708248
0.000553281
0.000623936
0.000706258
0.000770562
0.000746009
0.00066685
0.000638543
0.000557853
0.000520759
0.000448557
0.000414086
0.00037018
0.000350367
0.000328017
0.000316012
0.000305082
0.000297825
0.000299391
)
;
    }
}


// ************************************************************************* //
