/*--------------------------------*- C++ -*----------------------------------*\
| =========                 |                                                 |
| \\      /  F ield         | OpenFOAM: The Open Source CFD Toolbox           |
|  \\    /   O peration     | Version:                                        |
|   \\  /    A nd           | Website:  www.openfoam.com                      |
|    \\/     M anipulation  |                                                 |
\*---------------------------------------------------------------------------*/
FoamFile
{
    version     2.0;
    format      ascii;
    class       volVectorField;
    location    "48";
    object      U;
}
// * * * * * * * * * * * * * * * * * * * * * * * * * * * * * * * * * * * * * //

dimensions      [0 1 -1 0 0 0 0];


internalField   nonuniform List<vector> 
1153
(
(-0.0108418 0.020266 1.88505e-19)
(-0.00272413 0.0314146 -2.75468e-19)
(0.0165847 0.033262 3.23325e-20)
(0.0486379 0.0282138 -3.78545e-20)
(0.106039 0.0139709 -3.56594e-19)
(0.214722 -0.0081803 2.13607e-19)
(0.391818 -0.0314876 -1.13932e-20)
(0.608195 -0.0558119 4.73241e-20)
(0.840647 -0.0706389 -3.73918e-19)
(1.01646 -0.0855974 3.0469e-19)
(-0.00748768 0.00833567 -7.36641e-20)
(-0.00475028 0.0101091 -3.922e-19)
(0.0114538 0.00439952 2.90868e-19)
(0.0570494 -0.00879098 -1.20738e-19)
(0.177116 -0.0264812 9.49854e-20)
(0.399509 -0.0367411 1.04677e-19)
(0.662743 -0.03888 -1.22236e-19)
(0.917961 -0.0312362 -3.69019e-19)
(1.09981 -0.0272524 -3.18181e-19)
(1.20888 -0.0275677 5.27759e-19)
(1.23806 -0.0381633 -2.97227e-19)
(1.20503 -0.0546193 -7.94156e-21)
(-0.0122082 0.00524502 -2.6327e-19)
(-0.0128124 6.26671e-05 1.44696e-19)
(0.0145466 -0.0166589 -5.84954e-20)
(0.129441 -0.0367474 3.87145e-20)
(0.398397 -0.0368414 2.28155e-19)
(0.713626 -0.0199367 -3.3659e-19)
(0.982872 0.00373391 1.13078e-19)
(1.15455 0.0188455 1.10813e-19)
(1.22961 0.0224135 2.43852e-19)
(1.23271 0.0113958 -6.09805e-19)
(1.18405 -0.00668082 2.63101e-19)
(1.13754 -0.0207654 -1.30639e-19)
(1.09218 -0.0316035 1.49164e-19)
(1.06945 -0.029888 -2.42873e-19)
(-0.0203236 0.00693217 3.6323e-19)
(-0.0182809 -0.00336581 2.12358e-20)
(0.058288 -0.0347738 3.8305e-20)
(0.350328 -0.0313438 2.73721e-21)
(0.729901 0.00231217 -1.63338e-20)
(1.018 0.0361937 8.36939e-20)
(1.17673 0.0548986 -3.77732e-19)
(1.22313 0.0561599 2.02798e-19)
(1.21178 0.044753 -2.59318e-21)
(1.16928 0.0288577 1.20202e-19)
(1.1487 0.0196017 -8.30126e-20)
(1.13581 0.0132435 -2.16553e-20)
(1.12774 0.014605 -6.63255e-20)
(1.11608 0.0157181 -2.53757e-20)
(1.09823 0.0211491 5.62003e-20)
(1.07492 0.0244584 -6.96775e-20)
(1.04683 0.0307956 -4.40814e-20)
(-0.0282423 0.0113253 -1.31574e-19)
(-0.0112283 -0.0129654 -1.56615e-20)
(0.212227 -0.0347465 -8.73838e-20)
(0.684432 0.020462 -5.58659e-20)
(1.01477 0.0633633 -2.45906e-19)
(1.17516 0.0827668 3.43182e-20)
(1.21198 0.0814178 4.53835e-19)
(1.20428 0.0724911 -2.01281e-19)
(1.18094 0.0628347 -1.32592e-19)
(1.1803 0.0604975 1.44347e-19)
(1.17658 0.0586163 -9.05809e-20)
(1.15971 0.0575981 3.40224e-19)
(1.13632 0.0535203 -4.69999e-20)
(1.10102 0.0493002 -1.11493e-19)
(1.0747 0.045371 5.42897e-20)
(1.04498 0.0483666 -1.01352e-19)
(1.02827 0.0482685 1.74443e-20)
(1.00343 0.0563101 8.13879e-20)
(1.00104 0.0644401 4.18351e-21)
(0.98382 0.0715136 -5.3697e-20)
(-0.0409962 0.0119832 -5.91004e-20)
(0.0307825 -0.0399424 3.42872e-19)
(0.55128 0.0234748 -1.22566e-19)
(0.962569 0.0822558 -1.15657e-19)
(1.15598 0.106189 2.7217e-20)
(1.20883 0.107279 -2.48567e-19)
(1.21732 0.104038 1.6961e-19)
(1.20822 0.0998822 -9.98722e-20)
(1.20662 0.0990584 5.37121e-20)
(1.19097 0.0947006 2.98875e-20)
(1.16121 0.08798 1.67775e-20)
(1.13261 0.0793812 1.82065e-19)
(1.09934 0.0719961 -2.72402e-20)
(1.08927 0.071045 -1.06323e-19)
(1.07636 0.0739746 7.95972e-20)
(1.06898 0.0773119 2.76259e-20)
(1.05293 0.0793004 -2.50219e-20)
(1.04865 0.0911463 3.96324e-22)
(1.03989 0.0908472 -7.20506e-20)
(1.03308 0.102058 1.46749e-19)
(-0.065053 -0.0155857 -6.58679e-20)
(0.220346 -0.0384714 -1.20753e-19)
(0.838144 0.0887594 8.46026e-20)
(1.11502 0.128827 -1.86812e-19)
(1.20941 0.137258 8.77317e-20)
(1.23655 0.139711 1.18603e-19)
(1.22962 0.136868 -6.27166e-20)
(1.21471 0.132611 1.0254e-19)
(1.18698 0.123829 -3.96577e-20)
(1.15877 0.11566 -9.74558e-20)
(1.14147 0.109535 -3.61501e-20)
(1.121 0.104978 9.52848e-20)
(1.1217 0.105992 -2.37767e-20)
(1.11212 0.106516 -5.14238e-20)
(1.09861 0.105037 -2.04749e-21)
(1.07488 0.102304 6.64053e-21)
(1.05976 0.102516 -3.76687e-20)
(1.04621 0.103766 7.51236e-20)
(1.03543 0.101634 1.2465e-20)
(1.01805 0.10789 -3.40765e-21)
(-0.0562451 -0.0548634 -1.44797e-19)
(0.587129 0.0576472 1.17069e-19)
(1.01394 0.139093 -8.80974e-21)
(1.19109 0.169704 1.41398e-19)
(1.2455 0.177527 -1.77288e-19)
(1.23867 0.173039 2.74682e-20)
(1.21636 0.165158 -2.13151e-20)
(1.19 0.155286 -4.7493e-20)
(1.17338 0.149083 -1.6513e-20)
(1.16584 0.145432 9.29286e-20)
(1.14681 0.139953 -2.57087e-20)
(1.13744 0.135958 8.86448e-21)
(1.11684 0.130491 2.30997e-20)
(1.09704 0.124649 -8.46811e-21)
(1.07239 0.118851 2.37631e-21)
(1.0564 0.115781 -6.19547e-20)
(1.04907 0.115737 -1.60644e-20)
(1.04421 0.118385 -9.907e-21)
(1.03466 0.116818 1.93166e-21)
(1.01884 0.123304 1.24367e-20)
(0.0198009 -0.0633319 4.83459e-20)
(0.796805 0.142176 -5.38697e-20)
(1.1314 0.206831 -3.59641e-21)
(1.23805 0.219475 5.84637e-20)
(1.2432 0.211126 -2.30431e-21)
(1.22437 0.201777 1.89366e-20)
(1.20456 0.192809 -5.01181e-21)
(1.19062 0.186915 2.171e-20)
(1.17765 0.180799 5.87315e-20)
(1.15079 0.171075 7.49749e-21)
(1.1306 0.1618 -3.65378e-20)
(1.10713 0.153443 1.56803e-20)
(1.09773 0.148548 -2.82873e-20)
(1.08635 0.144942 2.71408e-20)
(1.07568 0.141838 -1.71633e-20)
(1.07019 0.141319 2.84583e-20)
(1.06628 0.141041 1.25905e-20)
(1.05758 0.139957 -9.47982e-21)
(1.04323 0.136166 3.66393e-21)
(1.03254 0.140696 -9.72479e-21)
(0.162062 0.0119454 4.25843e-20)
(0.931363 0.210977 -2.91385e-21)
(1.19196 0.263848 8.13305e-21)
(1.24104 0.255091 3.12798e-20)
(1.23541 0.243172 -3.1715e-20)
(1.2168 0.233499 -1.35748e-20)
(1.19562 0.224172 6.34149e-21)
(1.17365 0.213696 5.35191e-21)
(1.14817 0.202149 -3.79601e-21)
(1.13302 0.19308 3.35542e-21)
(1.11555 0.184732 -1.49871e-20)
(1.11217 0.179982 9.08292e-21)
(1.10412 0.175812 -7.14655e-22)
(1.08811 0.168508 -5.27698e-21)
(1.07126 0.161345 6.20127e-21)
(1.05839 0.154604 -3.14258e-21)
(1.04906 0.149767 -2.85017e-21)
(1.03708 0.145176 4.92814e-21)
(1.02396 0.140432 2.921e-21)
(1.01025 0.140569 6.90999e-22)
(0.000182031 -0.0405788 2.88734e-21)
(-0.0175233 -0.152805 -1.5521e-20)
(-0.0532495 -0.203334 -1.02026e-20)
(-0.00534123 -0.0190466 2.83673e-20)
(-0.0247565 -0.112368 2.84657e-20)
(-0.0630938 -0.15821 -1.79601e-20)
(-0.096458 -0.204258 8.05016e-21)
(-0.0129671 0.0101988 3.32995e-21)
(-0.0318533 -0.065704 7.2424e-20)
(-0.0693198 -0.108869 -8.91482e-20)
(-0.101818 -0.152839 5.47218e-20)
(-0.0227493 0.039983 1.04107e-20)
(-0.0393765 -0.0191542 -2.92558e-20)
(-0.0729321 -0.0591482 6.89969e-20)
(-0.10243 -0.100736 -2.32033e-20)
(-0.0333865 0.0658985 -1.11426e-19)
(-0.0465496 0.0240746 1.93898e-19)
(-0.0734356 -0.011075 -2.53847e-19)
(-0.0975318 -0.0480957 5.80146e-20)
(-0.0432321 0.0838383 3.36099e-20)
(-0.0522217 0.0601179 7.96325e-20)
(-0.0704744 0.0334791 -5.9437e-20)
(-0.0869023 0.00615202 2.46457e-19)
(-0.102306 -0.0286483 -3.80081e-19)
(-0.0477734 0.0909774 -2.1455e-19)
(-0.0492664 0.0852291 6.50108e-20)
(-0.0532028 0.0669531 -2.13734e-19)
(-0.0546778 0.0466596 -8.14747e-20)
(-0.0522279 0.0187686 -1.33453e-19)
(-0.0424147 -0.0192182 7.73954e-20)
(-0.0442968 0.083743 -5.58348e-20)
(-0.0382996 0.0942963 -3.98665e-20)
(-0.0281802 0.0888542 -1.16208e-20)
(-0.014889 0.0797733 1.67796e-19)
(0.00478392 0.0626417 2.86962e-19)
(0.0333724 0.0347789 9.51971e-20)
(0.0760409 -0.00575084 -6.06828e-20)
(-0.0344496 0.0641966 -2.28448e-19)
(-0.0243384 0.082809 1.10344e-19)
(-0.00505329 0.0859289 -5.52164e-20)
(0.0196958 0.0829325 5.5023e-19)
(0.0540948 0.0695223 -2.68083e-19)
(0.101378 0.0460506 3.37893e-19)
(0.16861 0.0120386 -4.56206e-20)
(0.259013 -0.033929 -1.76094e-19)
(-0.0216151 0.0406817 4.45446e-19)
(-0.0107634 0.0591693 -1.49062e-19)
(0.011494 0.0652611 2.27548e-20)
(0.0414361 0.063552 1.60865e-19)
(0.0850621 0.0520312 -2.70906e-19)
(0.148047 0.0306675 6.20966e-20)
(0.249069 0.0004958 1.65796e-20)
(0.386598 -0.0388173 -1.22463e-19)
(0.572128 -0.0839468 6.47678e-19)
(1.01 0.130912 3.25796e-22)
(1.02137 0.129221 1.86822e-20)
(1.0183 0.122172 -2.04699e-20)
(0.995531 0.103538 -3.69246e-20)
(1.02286 0.104097 -4.15357e-20)
(1.00604 0.137314 -2.62968e-21)
(1.01409 0.134932 -1.59452e-20)
(1.01665 0.131513 1.62837e-22)
(0.979871 0.111631 2.21286e-20)
(0.999486 0.109274 -4.82883e-20)
(1.01982 0.133102 2.94991e-21)
(1.00789 0.124831 1.66272e-20)
(1.03075 0.134297 1.04709e-20)
(0.982254 0.113616 8.79837e-22)
(0.985225 0.111762 2.19038e-20)
(1.03907 0.149696 -1.0832e-21)
(0.992586 0.120622 -8.4206e-21)
(1.03241 0.143799 -1.23143e-21)
(1.00416 0.129982 -3.85279e-21)
(0.976626 0.120444 5.45764e-21)
(1.03657 0.150418 -9.64927e-22)
(0.994159 0.120009 1.86817e-22)
(1.0101 0.136417 4.94048e-21)
(1.02392 0.144231 7.15928e-21)
(0.981577 0.130226 8.90872e-21)
(1.00831 0.14035 -1.94239e-20)
(1.01773 0.140843 1.52542e-22)
(1.00876 0.13239 3.69191e-22)
(0.996667 0.129714 -5.09757e-21)
(1.02014 0.146742 -7.15889e-21)
(1.00001 0.142917 -1.04479e-20)
(0.991135 0.13368 -4.93628e-21)
(1.00533 0.128415 8.85636e-22)
(1.0109 0.137855 1.53605e-21)
(1.00204 0.130285 -1.03523e-20)
(1.00385 0.139523 -4.73412e-22)
(1.01229 0.150881 9.19267e-21)
(0.987197 0.13583 1.65027e-20)
(1.0089 0.12342 -2.52048e-22)
(1.00569 0.135496 -2.43742e-21)
(1.01335 0.133765 6.56013e-21)
(0.997572 0.135665 7.30318e-21)
(1.01728 0.151572 7.80622e-23)
(0.996066 0.145161 -9.01921e-21)
(1.01707 0.123254 -5.17098e-22)
(1.00513 0.132917 -8.09851e-22)
(1.02186 0.13495 -8.34113e-22)
(1.00402 0.137536 -7.45663e-21)
(1.02149 0.147659 -5.83321e-21)
(1.00553 0.150488 1.12209e-20)
(1.02142 0.122258 8.14764e-22)
(1.01064 0.131908 2.50149e-21)
(1.02573 0.132457 -3.12227e-21)
(1.01384 0.139342 -1.17702e-22)
(1.02506 0.142288 3.4906e-21)
(1.01424 0.150638 1.0789e-21)
(1.02323 0.118926 -2.9967e-22)
(1.01815 0.130452 -8.57029e-23)
(1.02788 0.12783 3.06532e-21)
(1.02248 0.138529 2.9007e-21)
(1.02948 0.137487 -2.79613e-21)
(1.02423 0.148776 -6.02476e-21)
(1.02575 0.11466 6.44464e-23)
(1.02474 0.127451 1.08454e-22)
(1.03156 0.12299 -7.77194e-22)
(1.02979 0.135155 -4.14861e-21)
(1.03542 0.132643 3.85584e-22)
(1.03271 0.144146 -3.39658e-21)
(1.02992 0.110128 -4.25668e-22)
(1.03037 0.122505 -3.16733e-22)
(1.03654 0.11778 -7.22738e-22)
(1.03571 0.129293 1.57556e-21)
(1.04107 0.126425 2.621e-22)
(1.03914 0.137032 7.22226e-21)
(1.0345 0.104999 4.46301e-22)
(1.03547 0.115952 4.88517e-22)
(1.04123 0.111655 1.63112e-21)
(1.04102 0.121953 1.66686e-21)
(1.04639 0.119205 8.3818e-22)
(1.04577 0.129031 -3.95699e-21)
(1.03879 0.0991413 -2.35494e-22)
(1.04043 0.1085 3.18598e-22)
(1.04542 0.104794 -2.34902e-22)
(1.04618 0.113793 -1.5172e-21)
(1.05101 0.111196 -3.30753e-22)
(1.05161 0.11991 -1.38138e-22)
(1.04274 0.0927272 1.52779e-22)
(1.04496 0.100448 -6.09564e-22)
(1.04882 0.0972962 -1.49157e-22)
(1.05033 0.104799 2.25357e-21)
(1.0542 0.102408 -6.75701e-22)
(1.05577 0.109777 -1.77339e-21)
(1.04612 0.0858389 -6.2811e-23)
(1.04853 0.0919874 -7.80287e-23)
(1.05141 0.0893674 -1.19248e-21)
(1.05339 0.0954612 1.01192e-22)
(1.0566 0.0934347 -7.5827e-22)
(1.05895 0.0995821 2.03316e-21)
(1.04881 0.078635 -2.71281e-23)
(1.05119 0.0834353 4.45846e-22)
(1.05345 0.0813112 4.49514e-22)
(1.05571 0.0861968 -1.12192e-22)
(1.05849 0.0845148 2.74371e-23)
(1.0612 0.0894995 -1.09372e-21)
(1.05075 0.0712799 -3.66781e-24)
(1.05301 0.0749596 -5.89473e-22)
(1.05487 0.0732473 1.06055e-22)
(1.05717 0.0770601 -1.89541e-21)
(1.05956 0.0756423 6.521e-22)
(1.0623 0.0795399 2.80559e-22)
(1.05201 0.0638861 -7.71561e-24)
(1.05405 0.0666273 6.88732e-24)
(1.0556 0.0652489 8.1723e-23)
(1.05781 0.0681367 1.3114e-21)
(1.05988 0.0669625 7.3574e-22)
(1.06252 0.0699427 -6.19667e-22)
(1.05251 0.0565903 -7.82434e-24)
(1.05435 0.0585597 2.95247e-22)
(1.05568 0.0574541 2.47096e-22)
(1.05776 0.0595862 -2.20242e-22)
(1.0596 0.0586297 -6.62549e-22)
(1.06205 0.0608518 7.15477e-22)
(1.05235 0.0494908 -4.75584e-23)
(1.05402 0.0508616 1.65071e-22)
(1.05523 0.0499801 -3.66333e-23)
(1.05715 0.0515093 -1.91093e-22)
(1.05877 0.0507255 -3.34552e-22)
(1.06096 0.0523217 7.10149e-22)
(1.05165 0.0426346 6.00595e-23)
(1.05318 0.0435574 -7.57116e-23)
(1.05433 0.0428559 -5.41141e-23)
(1.05604 0.0439068 -3.61492e-22)
(1.05745 0.0432588 2.65785e-22)
(1.05936 0.0443627 2.88248e-22)
(1.05059 0.0360633 -8.18347e-23)
(1.05198 0.0366597 1.56228e-22)
(1.05305 0.0361014 -4.38679e-22)
(1.05455 0.0367914 5.18011e-22)
(1.0558 0.0362639 -3.20443e-22)
(1.05744 0.037002 3.5144e-22)
(1.0493 0.0297994 -2.04053e-23)
(1.05053 0.0301655 -1.21734e-23)
(1.05154 0.0297279 3.72721e-22)
(1.05284 0.0301624 1.8118e-22)
(1.05397 0.0297433 -2.53418e-22)
(1.05538 0.0302172 -7.78627e-22)
(1.04791 0.0238469 4.46209e-23)
(1.04899 0.0240597 -5.99228e-23)
(1.04995 0.0237274 -3.65943e-22)
(1.05107 0.0239895 -2.34497e-22)
(1.05211 0.0236675 2.97386e-22)
(1.0533 0.0239587 5.13781e-23)
(1.04656 0.0181856 -1.3678e-24)
(1.04751 0.0183012 5.21683e-23)
(1.04843 0.0180608 -3.56639e-23)
(1.0494 0.0182128 1.26462e-23)
(1.05037 0.0179785 -2.22255e-22)
(1.05139 0.0181514 1.26165e-22)
(1.04535 0.0128043 -4.2419e-24)
(1.04622 0.0128602 6.22633e-24)
(1.04712 0.0126988 -9.28063e-23)
(1.04798 0.0127823 3.17993e-22)
(1.0489 0.0126265 -1.1534e-22)
(1.04977 0.0127252 4.44361e-22)
(1.04441 0.00762215 3.51089e-23)
(1.04522 0.00764521 -8.71611e-23)
(1.04613 0.0075524 -2.63097e-23)
(1.04692 0.00759384 -6.75596e-24)
(1.04781 0.00750655 4.4654e-23)
(1.04859 0.00755859 -8.77783e-23)
(1.04387 0.00251579 -8.01175e-23)
(1.04466 0.00252279 6.23163e-23)
(1.04556 0.00249552 1.3066e-22)
(1.04632 0.00250971 -4.30259e-23)
(1.04721 0.00248518 -2.88883e-22)
(1.04794 0.00250357 -9.40173e-23)
(0.92373 0.178181 1.5747e-20)
(0.92479 0.187614 -2.22102e-20)
(0.916775 0.190924 -1.55129e-20)
(0.901849 0.195484 -1.34702e-20)
(0.893989 0.206953 5.17876e-22)
(0.890033 0.221863 -4.79932e-21)
(0.885606 0.238564 9.26887e-21)
(0.875933 0.255022 2.37758e-20)
(0.865308 0.273301 -1.91578e-20)
(0.864873 0.297543 1.0517e-20)
(0.868078 0.325363 -3.04728e-20)
(0.864677 0.353932 1.55757e-21)
(0.856222 0.38401 -1.70805e-20)
(0.848793 0.41796 -6.55147e-21)
(0.846232 0.459198 4.24529e-21)
(0.845394 0.5054 1.87826e-20)
(0.842673 0.56065 -3.47852e-20)
(0.843878 0.619926 1.15751e-19)
(0.851487 0.685392 -1.57333e-19)
(0.633968 0.634892 1.15483e-20)
(0.921958 0.167911 -1.19725e-21)
(0.917933 0.183526 -8.32773e-21)
(0.917899 0.19316 1.13743e-20)
(0.914949 0.201932 5.41801e-21)
(0.909858 0.212618 4.88694e-21)
(0.912998 0.228831 1.77761e-21)
(0.917707 0.247479 -9.85562e-22)
(0.91659 0.265958 -4.23109e-21)
(0.90781 0.283954 -2.56448e-21)
(0.900969 0.303629 2.22924e-21)
(0.901378 0.328378 1.15147e-20)
(0.902102 0.355172 -1.06318e-20)
(0.899867 0.385344 3.9923e-21)
(0.903049 0.420217 -1.34724e-20)
(0.905709 0.46012 -2.41073e-21)
(0.912041 0.50402 -5.41284e-20)
(0.915408 0.556564 4.25453e-20)
(0.924824 0.615279 4.37117e-20)
(0.942017 0.666886 -4.98485e-20)
(0.704152 0.609797 2.55369e-19)
(0.94308 0.172409 -2.59504e-21)
(0.944848 0.191854 -5.10004e-22)
(0.946475 0.202493 -4.9841e-21)
(0.942824 0.209969 1.20902e-20)
(0.937135 0.219398 2.8084e-21)
(0.932101 0.230537 -1.20376e-20)
(0.934117 0.245728 -4.04211e-21)
(0.936159 0.262605 6.97101e-21)
(0.932766 0.280101 1.09464e-20)
(0.933124 0.301674 1.55611e-20)
(0.940417 0.327374 -4.92661e-20)
(0.947608 0.355162 2.84104e-20)
(0.950304 0.383386 1.07297e-22)
(0.951139 0.413688 1.66451e-20)
(0.958912 0.450501 -8.6819e-20)
(0.970389 0.491376 7.14887e-20)
(0.983341 0.54085 7.2648e-20)
(0.999069 0.597214 4.59715e-21)
(1.02612 0.635092 -9.42674e-21)
(0.7617 0.569977 2.52821e-20)
(0.942474 0.166107 -1.17347e-20)
(0.939496 0.180903 9.63123e-21)
(0.948545 0.19353 3.49949e-21)
(0.954261 0.203987 2.44682e-22)
(0.953029 0.21487 -1.57287e-20)
(0.955739 0.229789 2.88236e-20)
(0.963091 0.2471 -3.83393e-20)
(0.971161 0.26525 3.93341e-21)
(0.97161 0.282358 4.05192e-21)
(0.968204 0.298884 1.69455e-20)
(0.971664 0.320346 3.8787e-20)
(0.980098 0.344687 -7.41209e-21)
(0.986932 0.37178 4.42298e-20)
(0.999187 0.402207 -5.36242e-20)
(1.011 0.436276 7.043e-20)
(1.02924 0.472988 8.21483e-21)
(1.04577 0.51662 -1.07472e-19)
(1.06655 0.570837 -3.2592e-20)
(1.09203 0.591356 3.74352e-20)
(0.796621 0.512756 -2.91018e-19)
(0.967001 0.171314 1.35411e-20)
(0.970485 0.188207 4.07587e-21)
(0.976946 0.197721 1.77174e-20)
(0.9825 0.2063 6.35348e-21)
(0.98218 0.215866 -1.04842e-20)
(0.977461 0.225955 -9.22987e-21)
(0.97987 0.239364 -2.51426e-20)
(0.987108 0.25493 -3.03177e-20)
(0.990491 0.270458 9.47773e-20)
(0.994905 0.288707 -8.08708e-20)
(1.00576 0.310246 -1.99735e-20)
(1.01947 0.334496 -9.83498e-21)
(1.03126 0.358959 -4.05269e-20)
(1.0389 0.383813 1.29991e-19)
(1.05396 0.413647 1.32208e-20)
(1.07348 0.445536 -1.89468e-19)
(1.09786 0.482978 5.69715e-20)
(1.12386 0.531624 -5.05171e-20)
(1.14917 0.540612 5.47355e-20)
(0.815496 0.451291 2.8893e-19)
(0.971809 0.167636 -7.92598e-21)
(0.969764 0.177401 -3.03408e-20)
(0.98054 0.186934 6.10285e-21)
(0.989339 0.195841 -2.45712e-21)
(0.991438 0.20541 -1.8224e-20)
(0.994975 0.218109 1.19832e-20)
(1.00398 0.233332 -4.52008e-20)
(1.01715 0.249862 -1.48557e-20)
(1.02548 0.265742 5.96995e-20)
(1.02758 0.279463 -1.6044e-20)
(1.03378 0.296742 4.82956e-20)
(1.04643 0.316385 9.04096e-21)
(1.05806 0.337843 -2.33723e-20)
(1.07708 0.36229 5.39169e-20)
(1.09569 0.389444 -5.8676e-20)
(1.12118 0.417439 1.12344e-19)
(1.14584 0.447519 -9.9576e-20)
(1.17149 0.488534 -9.59237e-20)
(1.17813 0.484046 1.06784e-19)
(0.798711 0.38056 -1.116e-19)
(0.990232 0.167424 -1.90388e-20)
(0.997166 0.179321 6.58268e-21)
(1.00685 0.186712 2.5548e-20)
(1.01708 0.19545 -2.81146e-20)
(1.0212 0.204585 4.99309e-21)
(1.01943 0.213202 4.29004e-21)
(1.02266 0.223503 -3.82148e-22)
(1.03194 0.235956 -2.8525e-20)
(1.03786 0.24767 4.91523e-20)
(1.04481 0.26193 -1.31292e-20)
(1.05938 0.279096 9.98629e-21)
(1.0771 0.298787 -7.8477e-21)
(1.09587 0.318588 -3.27994e-20)
(1.10811 0.336807 4.0751e-20)
(1.12705 0.358939 -2.37382e-20)
(1.15019 0.381956 7.91949e-21)
(1.17952 0.406795 -1.87184e-19)
(1.20533 0.438645 1.25906e-19)
(1.19296 0.423598 1.3442e-19)
(0.767914 0.313369 -3.03906e-20)
(0.999942 0.166304 -7.81895e-21)
(1.00062 0.169795 2.74832e-21)
(1.01112 0.175774 1.37312e-20)
(1.0194 0.182837 1.21294e-21)
(1.02158 0.189767 -9.99612e-21)
(1.02538 0.198356 1.41428e-20)
(1.03687 0.210233 -1.2468e-21)
(1.05328 0.223661 3.51566e-20)
(1.0672 0.23752 -4.00813e-21)
(1.07558 0.248778 6.31346e-21)
(1.08493 0.262305 4.33173e-21)
(1.10051 0.276934 -1.53608e-20)
(1.11261 0.291647 1.7414e-20)
(1.13432 0.309317 -3.86898e-20)
(1.15706 0.329109 9.02997e-20)
(1.18656 0.349124 -5.28946e-20)
(1.21258 0.369717 1.12039e-19)
(1.22754 0.394667 -9.34521e-20)
(1.17159 0.366755 3.2173e-21)
(0.679637 0.238214 8.14015e-20)
(1.00362 0.155936 1.08683e-20)
(1.0151 0.161106 2.91987e-21)
(1.02735 0.168351 -1.26849e-20)
(1.03998 0.17723 -1.26018e-20)
(1.04816 0.185182 1.85099e-21)
(1.05248 0.192591 -6.56003e-21)
(1.05999 0.200337 5.94676e-21)
(1.0715 0.209485 -3.02242e-20)
(1.07706 0.216548 8.10693e-21)
(1.08289 0.225968 -2.06566e-20)
(1.09995 0.238679 -4.29414e-21)
(1.11907 0.253321 8.56924e-21)
(1.14321 0.268812 1.50372e-20)
(1.15944 0.281674 -1.14497e-20)
(1.17969 0.295924 -4.02788e-20)
(1.2023 0.31124 -6.49135e-20)
(1.22676 0.329324 4.98309e-20)
(1.23309 0.348562 1.72687e-20)
(1.13295 0.311071 -5.46601e-21)
(0.583981 0.174734 -4.61268e-20)
(1.02332 0.158569 -6.38922e-22)
(1.02727 0.156892 2.59489e-22)
(1.03773 0.161839 -1.66836e-21)
(1.04533 0.165859 -3.40274e-21)
(1.04642 0.168684 4.98754e-21)
(1.04881 0.172177 2.43291e-21)
(1.06129 0.179862 -6.10924e-21)
(1.07785 0.189115 7.16589e-21)
(1.09361 0.199757 9.09213e-21)
(1.11015 0.20955 -8.34294e-21)
(1.12456 0.220411 8.87779e-22)
(1.14439 0.231413 2.1357e-20)
(1.15445 0.239999 -8.72551e-21)
(1.17371 0.251022 1.60211e-20)
(1.1973 0.264647 5.60554e-22)
(1.22603 0.279028 -6.95201e-21)
(1.24643 0.295206 3.4457e-20)
(1.22696 0.308971 6.86087e-21)
(1.05379 0.26667 -4.40641e-20)
(0.382247 0.109965 -2.98987e-20)
(0.761902 -0.00843434 4.31203e-21)
(0.744587 -0.00785867 3.55329e-21)
(0.72551 -0.00721218 -6.87353e-21)
(0.704128 -0.00634972 6.08316e-21)
(0.680726 -0.0052445 4.63048e-22)
(0.654597 -0.00385821 -1.00386e-20)
(0.626131 -0.00225758 1.61793e-20)
(0.594258 -0.000422307 -1.68368e-20)
(0.559457 0.0015879 3.32396e-20)
(0.520053 0.0038767 -2.15327e-20)
(0.476845 0.00641393 3.83415e-21)
(0.427126 0.0094946 1.38054e-20)
(0.372417 0.0130091 -1.00986e-20)
(0.30787 0.0173383 -1.33263e-20)
(0.237327 0.0217809 1.1492e-20)
(0.147616 0.0283838 -1.65737e-20)
(0.0485826 0.0356022 5.20207e-21)
(0.765095 0.0202275 -3.99881e-20)
(0.747975 0.0234747 -9.59917e-21)
(0.729215 0.0270146 -2.81015e-20)
(0.708267 0.0308961 -2.749e-20)
(0.685397 0.0352401 2.86224e-20)
(0.659853 0.0401459 -1.58486e-20)
(0.631984 0.0457052 -9.35656e-21)
(0.600763 0.0520642 4.09481e-20)
(0.566594 0.0592943 -5.6483e-20)
(0.527829 0.0676247 1.53895e-20)
(0.485175 0.0770728 6.71105e-21)
(0.435974 0.087839 -6.00761e-20)
(0.381439 0.0997773 -2.49498e-20)
(0.316703 0.11361 -6.83689e-21)
(0.2454 0.128374 3.84325e-20)
(0.155753 0.148176 4.98874e-21)
(0.0581348 0.140553 3.3351e-20)
(0.772203 0.0430068 -4.35668e-21)
(0.755637 0.0481708 3.21234e-22)
(0.737334 0.0537609 -5.28589e-21)
(0.716985 0.0598526 5.20264e-21)
(0.694853 0.0664548 9.95662e-20)
(0.670333 0.0738671 -7.5635e-20)
(0.643787 0.082112 2.07217e-20)
(0.61423 0.0914968 -2.84642e-20)
(0.582241 0.102167 -3.74875e-20)
(0.545763 0.114415 3.93555e-20)
(0.505354 0.128619 1.84036e-20)
(0.458712 0.145648 2.45948e-20)
(0.407245 0.165392 -4.78705e-21)
(0.345963 0.189135 -5.53057e-20)
(0.279142 0.215608 1.3544e-19)
(0.193117 0.25189 -1.47333e-20)
(0.0871436 0.236331 -3.58977e-20)
(0.795757 0.0663266 4.7358e-20)
(0.782272 0.0727199 4.9365e-21)
(0.766437 0.0801941 1.20288e-20)
(0.748693 0.0883372 -1.80496e-20)
(0.729025 0.0973014 1.89852e-20)
(0.707756 0.10707 -8.97257e-21)
(0.683947 0.117886 -6.48792e-21)
(0.658167 0.130001 -4.84295e-20)
(0.629185 0.143503 3.56654e-20)
(0.598378 0.158779 3.04915e-20)
(0.565024 0.176259 -1.93893e-20)
(0.528158 0.195222 -8.95137e-20)
(0.484877 0.216915 3.36303e-20)
(0.437542 0.241856 7.11519e-20)
(0.381365 0.272388 7.86902e-20)
(0.320004 0.306073 -1.18059e-19)
(0.238738 0.353299 -4.87032e-20)
(0.125792 0.329129 -9.45241e-21)
(0.807779 0.0848467 -1.69231e-20)
(0.795592 0.0922211 -9.1025e-21)
(0.780422 0.100606 -5.93371e-20)
(0.7639 0.110052 9.2058e-20)
(0.745661 0.120392 5.84405e-21)
(0.726946 0.13212 4.01835e-20)
(0.706648 0.145272 2.07408e-20)
(0.684491 0.160057 -4.6302e-20)
(0.658504 0.176675 1.98808e-20)
(0.627311 0.194727 6.11505e-20)
(0.593273 0.216544 1.83826e-20)
(0.559939 0.242577 -2.19966e-19)
(0.521681 0.272074 2.28486e-19)
(0.479041 0.30426 -1.31828e-19)
(0.428412 0.342708 -1.52274e-19)
(0.376174 0.385377 1.71488e-19)
(0.303306 0.445121 -1.42401e-19)
(0.178412 0.415085 1.61601e-20)
(0.829876 0.103805 4.24911e-20)
(0.821784 0.111207 -3.53473e-20)
(0.810419 0.120575 4.47952e-20)
(0.796212 0.131155 -2.03572e-20)
(0.779548 0.142122 -6.81763e-20)
(0.760841 0.153797 6.47473e-20)
(0.740696 0.166286 -2.25858e-20)
(0.720599 0.18099 -6.97727e-21)
(0.702293 0.198281 -3.00671e-20)
(0.685471 0.219002 2.58746e-20)
(0.665169 0.24116 -4.33772e-20)
(0.633689 0.263705 1.33696e-20)
(0.598903 0.289904 3.0089e-20)
(0.56375 0.323288 -1.31963e-19)
(0.527889 0.361631 1.93504e-19)
(0.48304 0.406618 -4.56981e-20)
(0.437042 0.455368 4.15391e-20)
(0.375823 0.524616 8.76523e-21)
(0.241662 0.49114 9.73807e-20)
(0.847805 0.112823 7.33788e-20)
(0.844872 0.116706 1.56195e-20)
(0.838108 0.124378 -1.14782e-19)
(0.8279 0.134845 1.1185e-19)
(0.81639 0.14799 -6.24861e-21)
(0.805341 0.162909 -4.14086e-20)
(0.792553 0.178242 -5.52824e-20)
(0.776354 0.193485 6.47775e-20)
(0.753803 0.208256 5.56367e-20)
(0.727063 0.224104 3.94772e-20)
(0.703656 0.244442 9.31118e-20)
(0.689934 0.271413 -9.54315e-20)
(0.67499 0.30212 -5.10056e-20)
(0.649489 0.332682 1.56114e-19)
(0.61628 0.367071 -7.73752e-20)
(0.584043 0.40791 -3.98689e-20)
(0.548343 0.458449 -5.30525e-20)
(0.51272 0.513416 4.82327e-20)
(0.462362 0.590105 -1.35488e-20)
(0.313231 0.5531 -3.80893e-20)
(0.861265 0.134386 5.95301e-20)
(0.862509 0.139196 -1.641e-20)
(0.855413 0.145971 1.71764e-20)
(0.842863 0.154493 -1.00741e-19)
(0.825774 0.164171 -1.32484e-20)
(0.810352 0.176965 4.0377e-20)
(0.800751 0.194115 7.1869e-20)
(0.796162 0.21453 -6.29556e-20)
(0.791582 0.237062 -2.67109e-20)
(0.777295 0.257887 1.67851e-21)
(0.750465 0.277631 1.03006e-20)
(0.724928 0.300475 -7.92472e-20)
(0.707329 0.330656 -3.84279e-20)
(0.693354 0.366344 2.70626e-20)
(0.671986 0.405913 5.91568e-20)
(0.646757 0.44919 -5.24017e-20)
(0.615868 0.501659 -1.44948e-21)
(0.589851 0.55938 1.85322e-20)
(0.555458 0.638978 -2.03578e-20)
(0.392867 0.599467 -2.24864e-20)
(0.877697 0.145186 -2.07988e-20)
(0.878562 0.150786 -4.73129e-20)
(0.87974 0.164369 6.5302e-20)
(0.875833 0.179097 -4.60072e-20)
(0.866268 0.192476 -3.01567e-20)
(0.848319 0.202749 6.57992e-21)
(0.826838 0.213101 8.73658e-21)
(0.809996 0.227064 9.85025e-21)
(0.802323 0.246777 1.74535e-20)
(0.800908 0.271821 7.44512e-20)
(0.791844 0.297905 -6.78626e-21)
(0.775103 0.32502 -1.1596e-20)
(0.758809 0.356065 1.28887e-20)
(0.743899 0.391066 1.65946e-20)
(0.72806 0.431861 -6.81313e-20)
(0.711909 0.477693 7.44617e-20)
(0.691926 0.533076 -2.99152e-20)
(0.674873 0.592704 1.84014e-20)
(0.654023 0.67207 1.22198e-21)
(0.4738 0.62941 1.49958e-20)
(0.897598 0.158526 -2.84851e-21)
(0.891813 0.156654 -1.1925e-20)
(0.877993 0.161975 8.53346e-21)
(0.872576 0.177255 4.05218e-20)
(0.872018 0.19653 2.636e-21)
(0.872003 0.216407 9.00635e-21)
(0.864924 0.23392 -2.81335e-20)
(0.851974 0.250118 2.51943e-20)
(0.840785 0.268777 -3.76818e-20)
(0.835234 0.290615 1.52647e-20)
(0.827813 0.315149 3.98799e-20)
(0.814704 0.340816 -4.99813e-20)
(0.801875 0.371759 5.17738e-20)
(0.796231 0.409096 -6.30004e-21)
(0.788016 0.451552 -1.27983e-20)
(0.779087 0.49776 6.61021e-21)
(0.765696 0.552923 -1.9064e-20)
(0.759147 0.613173 -2.83145e-20)
(0.752975 0.686633 -5.59784e-21)
(0.556192 0.640446 -4.64316e-20)
(0.86026 0.133623 -1.69975e-20)
(0.873391 0.145337 6.94871e-20)
(0.894157 0.123986 1.80994e-21)
(0.889236 0.158957 2.19824e-20)
(0.91437 0.121526 0)
(0.914084 0.163219 0)
(0.904287 0.119746 0)
(0.936003 0.151245 0)
(0.901796 0.113316 0)
(0.936435 0.142866 0)
(0.948093 0.119967 0)
(0.919393 0.125348 0)
(0.984961 0.12558 0)
(0.919188 0.113964 0)
(0.986772 0.118171 0)
(0.943595 0.117026 0)
(0.97037 0.105074 0)
(0.959634 0.121549 0)
(0.963593 0.097045 0)
(0.961354 0.120335 0)
(0.968449 0.0934945 0)
(0.963747 0.115235 0)
(0.97499 0.0911256 0)
(0.970453 0.109677 0)
(0.980885 0.0888161 0)
(0.978152 0.104486 0)
(0.986427 0.0862503 0)
(0.985059 0.0995501 0)
(0.991567 0.0835721 0)
(0.991003 0.0947564 0)
(0.99653 0.0807449 0)
(0.996338 0.0900818 0)
(1.00147 0.0776617 0)
(1.00147 0.0855011 0)
(1.00639 0.0742468 0)
(1.00655 0.0808682 0)
(1.01121 0.0704275 0)
(1.01153 0.0760389 0)
(1.01585 0.0661894 0)
(1.01632 0.0709411 0)
(1.02016 0.061568 0)
(1.02079 0.0655625 0)
(1.02401 0.0565968 0)
(1.0248 0.059908 0)
(1.02725 0.0513487 0)
(1.02822 0.0540373 0)
(1.02981 0.0459344 0)
(1.03092 0.048062 0)
(1.03167 0.0404489 0)
(1.03285 0.0420943 0)
(1.03292 0.0349607 0)
(1.0341 0.0362085 0)
(1.03365 0.0294972 0)
(1.03477 0.0304217 0)
(1.03394 0.0240633 0)
(1.03496 0.0247299 0)
(1.03394 0.018625 0)
(1.03486 0.0190888 0)
(1.03376 0.0131978 0)
(1.03461 0.0134895 0)
(1.03339 0.00785834 0)
(1.03426 0.00798616 0)
(1.03282 0.00261276 0)
(1.03377 0.00263456 0)
(0.924162 0.154429 -9.05212e-21)
(0.932956 0.143382 3.77841e-21)
(0.954373 0.148008 3.91425e-21)
(0.952427 0.142901 -1.56272e-21)
(0.977108 0.149349 -7.34842e-21)
(0.979786 0.146036 1.51493e-20)
(0.997587 0.147119 2.00482e-20)
(1.00494 0.147737 1.32458e-20)
(1.00698 0.141284 -1.45283e-20)
(1.02248 0.144447 -2.78951e-22)
(0.913343 0.13852 7.279e-21)
(0.948211 0.146609 1.95335e-21)
(0.949148 0.145366 -2.32188e-21)
(0.967188 0.150787 6.21549e-22)
(0.975351 0.154396 -7.07652e-21)
(0.990152 0.156219 2.28408e-20)
(0.994959 0.152919 -1.23175e-20)
(1.01432 0.157654 1.64661e-22)
(1.00155 0.145453 4.34117e-21)
(1.02683 0.152699 2.46562e-21)
(0.918834 0.131647 -6.14308e-21)
(0.970411 0.149667 -2.52699e-21)
(0.944757 0.129519 -2.28509e-21)
(1.00246 0.151987 7.24385e-21)
(0.967852 0.131877 4.78093e-21)
(1.02188 0.154345 -1.01794e-20)
(0.985626 0.130322 -8.62089e-22)
(1.03725 0.152276 -7.97316e-21)
(0.999987 0.128309 1.30216e-21)
(1.0344 0.143516 -2.73765e-21)
(0.959734 0.137486 8.74892e-21)
(0.960621 0.135361 3.12117e-21)
(0.970244 0.131496 1.19481e-21)
(0.998562 0.143862 2.51788e-22)
(0.979842 0.131516 2.86674e-21)
(1.01479 0.14969 -3.27745e-21)
(0.993118 0.134736 2.68926e-21)
(1.01904 0.145148 4.84268e-22)
(1.01586 0.140887 7.71109e-22)
(1.00645 0.131818 1.02925e-21)
(0.983903 0.137978 -5.11928e-21)
(0.937743 0.116319 -4.85457e-22)
(0.999673 0.140808 3.83408e-21)
(0.965158 0.12041 4.15314e-21)
(1.01031 0.142102 -1.72407e-21)
(0.977707 0.123213 -5.41141e-21)
(1.01976 0.14579 -4.82336e-21)
(0.980691 0.117943 -3.87363e-21)
(1.03485 0.150421 -7.05271e-23)
(0.979769 0.111265 7.77673e-22)
(0.982443 0.127173 -6.26452e-22)
(0.943792 0.113791 -1.81102e-22)
(1.00599 0.138615 -4.36933e-21)
(0.957011 0.110821 -5.77183e-21)
(1.02416 0.145497 3.32907e-21)
(0.964817 0.110135 6.97851e-21)
(1.03033 0.150633 4.66828e-21)
(0.971706 0.109818 3.9155e-21)
(1.0317 0.150037 -5.19269e-23)
(0.986056 0.114916 -1.69619e-22)
(0.970834 0.114053 1.70721e-21)
(0.958472 0.12014 -1.63447e-22)
(0.991038 0.124206 1.53693e-21)
(0.968263 0.116465 -4.89102e-21)
(1.01094 0.131733 -9.8263e-21)
(0.975765 0.114311 -6.14643e-21)
(1.01603 0.1364 8.45141e-23)
(0.984064 0.116914 8.43655e-21)
(1.01388 0.134623 -1.24448e-21)