/*--------------------------------*- C++ -*----------------------------------*\
| =========                 |                                                 |
| \\      /  F ield         | OpenFOAM: The Open Source CFD Toolbox           |
|  \\    /   O peration     | Version:                                        |
|   \\  /    A nd           | Website:  www.openfoam.com                      |
|    \\/     M anipulation  |                                                 |
\*---------------------------------------------------------------------------*/
FoamFile
{
    version     2.0;
    format      ascii;
    class       volScalarField;
    location    "0.3";
    object      p;
}
// * * * * * * * * * * * * * * * * * * * * * * * * * * * * * * * * * * * * * //

dimensions      [0 2 -2 0 0 0 0];


internalField   nonuniform List<scalar> 
400
(
1.53223
0.963001
0.753807
0.695008
0.661898
0.636538
0.616459
0.599497
0.584397
0.570544
0.557577
0.545253
0.533414
0.521951
0.510792
0.499884
0.489193
0.478694
0.468367
0.458199
1.31264
0.947152
0.775128
0.71322
0.674463
0.645055
0.622565
0.604105
0.587985
0.573407
0.559908
0.547182
0.535032
0.523325
0.511972
0.500908
0.490089
0.479485
0.469071
0.458831
1.14603
0.923671
0.787769
0.725263
0.683749
0.652073
0.627899
0.608255
0.591278
0.576066
0.562088
0.548994
0.536556
0.52462
0.513083
0.50187
0.490929
0.480224
0.469726
0.459415
1.03794
0.899136
0.792332
0.732184
0.690329
0.657852
0.632638
0.612096
0.594406
0.578631
0.564209
0.550765
0.538046
0.525885
0.514163
0.5028
0.491736
0.480928
0.470345
0.459963
0.961748
0.874038
0.791227
0.736165
0.695659
0.663297
0.637462
0.616174
0.597819
0.581479
0.566589
0.552761
0.539729
0.52731
0.515377
0.503839
0.492631
0.481703
0.47102
0.460554
0.905465
0.849595
0.786169
0.737603
0.699647
0.668213
0.642263
0.620478
0.601561
0.584683
0.569313
0.555071
0.541687
0.528974
0.516794
0.505051
0.49367
0.482599
0.471796
0.461229
0.863552
0.827194
0.778725
0.736809
0.702041
0.672175
0.646655
0.624722
0.605438
0.588122
0.572311
0.557659
0.543911
0.53088
0.518427
0.506451
0.494873
0.483635
0.472691
0.462006
0.831883
0.807424
0.770155
0.734364
0.70296
0.675021
0.650356
0.62862
0.609206
0.591603
0.57544
0.560424
0.546329
0.53298
0.520245
0.508021
0.496229
0.484807
0.473706
0.462888
0.807408
0.790315
0.761331
0.730885
0.702722
0.676824
0.653265
0.63199
0.612663
0.594936
0.578535
0.56323
0.548833
0.535191
0.522184
0.509714
0.497704
0.48609
0.474823
0.463861
0.788097
0.775679
0.752802
0.726866
0.701669
0.67776
0.655412
0.634764
0.615688
0.597979
0.581453
0.565944
0.551306
0.537413
0.52416
0.511461
0.499241
0.48744
0.476007
0.464899
0.772625
0.763254
0.744881
0.722671
0.700098
0.678037
0.6569
0.636959
0.618239
0.600652
0.584096
0.568463
0.553648
0.539553
0.526093
0.51319
0.50078
0.488803
0.477212
0.465964
0.760102
0.752772
0.737731
0.718552
0.698248
0.677848
0.657861
0.638642
0.62033
0.602934
0.586417
0.570725
0.55579
0.541542
0.527912
0.514838
0.502261
0.490128
0.478393
0.467015
0.749918
0.743987
0.731419
0.714678
0.696301
0.677361
0.658422
0.639898
0.622008
0.604836
0.588404
0.5727
0.55769
0.54333
0.529569
0.516354
0.503637
0.49137
0.47951
0.468016
0.741641
0.736692
0.725965
0.711162
0.694393
0.676707
0.658698
0.640813
0.623329
0.606391
0.590066
0.574382
0.559332
0.544894
0.531032
0.517706
0.504875
0.492496
0.480528
0.468935
0.734967
0.730715
0.721357
0.708076
0.692624
0.675991
0.658782
0.641462
0.624352
0.607638
0.591429
0.575781
0.560714
0.546222
0.532286
0.518874
0.505951
0.493481
0.481426
0.46975
0.729672
0.72592
0.717572
0.705466
0.691066
0.675293
0.658749
0.641912
0.625126
0.608615
0.592516
0.576912
0.561842
0.547316
0.533325
0.519847
0.506854
0.494312
0.482186
0.470443
0.725599
0.7222
0.714584
0.703359
0.689769
0.674672
0.65866
0.642213
0.625696
0.609356
0.593355
0.577793
0.562727
0.54818
0.53415
0.520624
0.507577
0.49498
0.4828
0.471005
0.722633
0.719475
0.712368
0.701769
0.68877
0.674172
0.658557
0.642406
0.626095
0.609888
0.593964
0.578439
0.563381
0.54882
0.534764
0.521204
0.508119
0.495482
0.483263
0.47143
0.720696
0.717689
0.710903
0.700706
0.688092
0.673823
0.658472
0.642519
0.626347
0.610231
0.594362
0.578863
0.563811
0.549243
0.535171
0.521589
0.50848
0.495817
0.483572
0.471715
0.719739
0.716805
0.710174
0.700174
0.68775
0.673644
0.658424
0.642571
0.626469
0.610399
0.594557
0.579073
0.564024
0.549453
0.535374
0.521781
0.50866
0.495985
0.483727
0.471857
)
;

boundaryField
{
    fixedWalls
    {
        type            zeroGradient;
    }
    inlet
    {
        type            zeroGradient;
    }
    outlet
    {
        type            fixedValue;
        value           nonuniform 0();
    }
    frontAndBack
    {
        type            empty;
    }
    procBoundary0to1
    {
        type            processor;
        value           nonuniform List<scalar> 
20
(
0.448181
0.448751
0.449276
0.449763
0.450285
0.450875
0.451552
0.45232
0.45317
0.454081
0.455022
0.455957
0.456853
0.457681
0.458419
0.45905
0.459564
0.459953
0.460214
0.460345
)
;
    }
    procBoundary0to4
    {
        type            processor;
        value           nonuniform List<scalar> 
20
(
0.71974
0.716805
0.710174
0.700174
0.68775
0.673644
0.658424
0.642571
0.626469
0.610399
0.594557
0.579073
0.564024
0.549453
0.535374
0.521781
0.50866
0.495985
0.483727
0.471857
)
;
    }
}


// ************************************************************************* //
