/*--------------------------------*- C++ -*----------------------------------*\
| =========                 |                                                 |
| \\      /  F ield         | OpenFOAM: The Open Source CFD Toolbox           |
|  \\    /   O peration     | Version:                                        |
|   \\  /    A nd           | Website:  www.openfoam.com                      |
|    \\/     M anipulation  |                                                 |
\*---------------------------------------------------------------------------*/
FoamFile
{
    version     2.0;
    format      ascii;
    class       volScalarField;
    location    "62";
    object      p;
}
// * * * * * * * * * * * * * * * * * * * * * * * * * * * * * * * * * * * * * //

dimensions      [0 2 -2 0 0 0 0];


internalField   nonuniform List<scalar> 
1150
(
0.294944
0.304609
0.315114
0.285116
0.29319
0.302401
0.272709
0.278743
0.286238
0.25747
0.261136
0.239289
0.240341
0.218461
0.15941
0.15557
0.158137
0.15734
0.160029
0.160215
0.161003
0.162105
0.164252
0.164986
0.166932
0.16936
0.171624
0.174184
0.17738
0.180696
0.184546
0.188869
0.193475
0.198744
0.204573
0.210901
0.217795
0.225193
0.233332
0.242136
0.251643
0.261795
0.272685
0.284243
0.158928
0.155283
0.157954
0.156962
0.15944
0.159906
0.160434
0.161409
0.163864
0.164156
0.166019
0.168629
0.17054
0.172884
0.176125
0.17941
0.182854
0.186953
0.191798
0.196335
0.201764
0.207612
0.214088
0.220984
0.228574
0.236742
0.24566
0.255132
0.26528
0.275893
0.158379
0.155061
0.15772
0.156575
0.158868
0.159571
0.159841
0.160758
0.163428
0.163299
0.165133
0.167927
0.169416
0.171575
0.174886
0.177777
0.18109
0.184862
0.189322
0.193576
0.198613
0.203981
0.209921
0.216191
0.223184
0.230502
0.238593
0.24711
0.256226
0.265487
0.15777
0.154905
0.157438
0.156174
0.158319
0.159214
0.159227
0.16015
0.162939
0.16236
0.164359
0.167332
0.168217
0.170314
0.173574
0.176096
0.179363
0.182821
0.186898
0.190808
0.195468
0.2002
0.20564
0.211112
0.217293
0.223637
0.230666
0.23782
0.245481
0.252842
0.157107
0.154816
0.157104
0.155771
0.157794
0.158836
0.158593
0.159606
0.162369
0.161417
0.163661
0.166313
0.166958
0.169165
0.172179
0.174379
0.177483
0.180566
0.184326
0.18776
0.191991
0.196022
0.200775
0.20532
0.210565
0.215609
0.221292
0.226747
0.23261
0.237616
0.156405
0.154791
0.156726
0.155339
0.157306
0.15843
0.157951
0.159117
0.161714
0.160454
0.163103
0.165197
0.165762
0.168083
0.170824
0.172853
0.175922
0.178559
0.181868
0.184777
0.188597
0.191752
0.195785
0.199254
0.203366
0.206904
0.211002
0.214474
0.21807
0.220205
0.155676
0.154823
0.156315
0.154905
0.156834
0.158021
0.157312
0.158709
0.16095
0.159549
0.162543
0.164122
0.164547
0.167063
0.169104
0.171195
0.174194
0.176128
0.179107
0.181392
0.184683
0.186948
0.190122
0.192397
0.195229
0.197047
0.199289
0.20031
0.201313
0.200183
0.154955
0.154868
0.155888
0.154488
0.156384
0.157568
0.156716
0.158344
0.160104
0.158699
0.162083
0.16291
0.163641
0.16609
0.167788
0.169854
0.172271
0.17389
0.176448
0.178236
0.180884
0.182101
0.184426
0.185188
0.186685
0.186428
0.186771
0.185079
0.183101
0.154267
0.154914
0.155436
0.154141
0.155932
0.157095
0.156137
0.158029
0.159164
0.157989
0.161479
0.161709
0.162655
0.164892
0.166066
0.168349
0.169855
0.171392
0.17331
0.174724
0.176444
0.17681
0.178095
0.177577
0.177185
0.174957
0.172686
0.168495
0.163969
0.153638
0.154921
0.154964
0.153823
0.155514
0.156622
0.155642
0.157737
0.158216
0.157373
0.160889
0.160636
0.162092
0.163892
0.164748
0.16691
0.167955
0.169192
0.170573
0.171267
0.172043
0.171338
0.171703
0.16903
0.167508
0.162648
0.158608
0.149607
0.153078
0.154883
0.154496
0.153576
0.155038
0.156141
0.155147
0.157365
0.157322
0.156827
0.159864
0.159496
0.161106
0.162471
0.163062
0.164966
0.165294
0.166648
0.16668
0.167658
0.166714
0.166011
0.164864
0.161491
0.158369
0.152545
0.145476
0.13395
0.152547
0.154797
0.154042
0.153365
0.154531
0.155632
0.154604
0.156934
0.156458
0.156335
0.158683
0.158485
0.159622
0.160984
0.16115
0.162933
0.162642
0.163715
0.163013
0.163589
0.16144
0.160842
0.157836
0.154227
0.149409
0.142967
0.133834
0.121882
0.152013
0.154653
0.153621
0.15311
0.154034
0.155041
0.154051
0.156428
0.155581
0.155726
0.157676
0.157428
0.15817
0.159572
0.159009
0.160788
0.160014
0.160334
0.159559
0.159081
0.156617
0.155088
0.151121
0.146939
0.141188
0.133914
0.124284
0.113004
0.151491
0.15445
0.153205
0.152816
0.153533
0.154343
0.153537
0.155803
0.154627
0.155017
0.156677
0.156215
0.156834
0.157884
0.156914
0.158304
0.157302
0.156665
0.15603
0.154498
0.151578
0.149235
0.144893
0.139726
0.133415
0.125848
0.116564
0.105784
0.151002
0.154149
0.152781
0.152457
0.153056
0.15355
0.15306
0.155018
0.154088
0.154185
0.155587
0.154902
0.155406
0.15596
0.154923
0.155385
0.154556
0.153082
0.152143
0.150015
0.146548
0.143605
0.138913
0.132956
0.126482
0.119174
0.110044
0.0997927
0.150546
0.153691
0.152348
0.152025
0.152615
0.152649
0.152647
0.15407
0.153135
0.153245
0.154399
0.153524
0.153773
0.153917
0.152943
0.152347
0.151709
0.14964
0.148038
0.14571
0.141752
0.138129
0.133248
0.127124
0.120492
0.113384
0.104687
0.0952221
0.150123
0.153046
0.151915
0.151527
0.152171
0.151688
0.152072
0.153126
0.152018
0.152248
0.152922
0.152024
0.151693
0.151732
0.150881
0.149411
0.148676
0.146352
0.144031
0.141433
0.137222
0.133034
0.128111
0.122131
0.115349
0.10859
0.100625
0.0918815
0.149719
0.152251
0.151478
0.151047
0.151637
0.150771
0.151358
0.152226
0.15086
0.151166
0.151417
0.150486
0.149972
0.149476
0.148688
0.146644
0.145522
0.143137
0.140195
0.137262
0.133103
0.128525
0.123528
0.117818
0.111249
0.104861
0.097565
0.0895391
0.149313
0.151424
0.150948
0.150582
0.150985
0.149838
0.15054
0.151225
0.149653
0.150016
0.149893
0.14882
0.148208
0.147245
0.146284
0.143988
0.142355
0.139912
0.136673
0.133395
0.129312
0.124613
0.119595
0.114243
0.108096
0.102023
0.0953561
0.0881545
0.148853
0.15062
0.150314
0.150076
0.15028
0.148886
0.149612
0.15019
0.148393
0.148751
0.148377
0.147069
0.146374
0.145016
0.143773
0.141421
0.139311
0.136761
0.133437
0.12987
0.125873
0.121326
0.116387
0.111363
0.105695
0.100004
0.0939947
0.0875986
0.148327
0.149823
0.149661
0.149498
0.149535
0.147926
0.148598
0.149115
0.147099
0.147384
0.146868
0.145225
0.144426
0.142921
0.141268
0.138833
0.136487
0.133795
0.130478
0.126791
0.122875
0.118602
0.113824
0.109108
0.104031
0.0988017
0.0933994
0.0877399
0.147804
0.148967
0.1489
0.148902
0.148716
0.146993
0.147467
0.147955
0.145859
0.145864
0.145356
0.143463
0.14233
0.140872
0.138929
0.136287
0.133869
0.131118
0.127819
0.124162
0.12036
0.116353
0.111906
0.107541
0.103025
0.0983218
0.0934522
0.0884893
0.147284
0.148046
0.148034
0.148281
0.147847
0.146039
0.146303
0.146736
0.144605
0.144235
0.143844
0.141758
0.140162
0.13882
0.136809
0.133962
0.131409
0.128693
0.125535
0.121976
0.118332
0.114653
0.110582
0.106547
0.102571
0.0984501
0.094135
0.0897956
0.146716
0.147123
0.147063
0.147571
0.146979
0.14508
0.145123
0.145419
0.143373
0.142599
0.142168
0.140175
0.138146
0.13669
0.134834
0.131934
0.129199
0.126557
0.123612
0.12025
0.116801
0.113431
0.109776
0.106125
0.10262
0.0990779
0.095343
0.0915463
0.146087
0.146221
0.145985
0.14671
0.146134
0.144134
0.14386
0.144041
0.142174
0.140955
0.140389
0.138687
0.13635
0.134615
0.132909
0.130197
0.127372
0.124709
0.122014
0.118959
0.115731
0.112665
0.109452
0.106181
0.103085
0.100075
0.0969134
0.0936467
0.14537
0.145338
0.144938
0.1457
0.145327
0.143241
0.14256
0.142589
0.14096
0.139415
0.138575
0.137152
0.134817
0.132764
0.131067
0.128655
0.125895
0.123249
0.120738
0.118026
0.115104
0.112302
0.109499
0.10664
0.103933
0.101356
0.0987145
0.0959677
0.144566
0.144461
0.143895
0.144553
0.144418
0.142427
0.141276
0.14105
0.139704
0.138012
0.136813
0.13557
0.133469
0.131222
0.129406
0.127247
0.124747
0.122196
0.119793
0.117393
0.114833
0.112312
0.109874
0.107417
0.105061
0.102848
0.100654
0.0983995
0.143693
0.143565
0.142942
0.143335
0.143393
0.14167
0.140111
0.139494
0.138377
0.136726
0.135232
0.134001
0.132182
0.129957
0.128022
0.126039
0.123826
0.121474
0.119214
0.117043
0.114842
0.112631
0.110504
0.108414
0.106399
0.104519
0.102695
0.100861
0.142773
0.14264
0.142025
0.142115
0.142224
0.140847
0.139098
0.13805
0.13701
0.135513
0.133866
0.132534
0.13093
0.128904
0.126953
0.125065
0.123098
0.121017
0.118951
0.116974
0.115074
0.113177
0.111345
0.109577
0.107879
0.106293
0.104774
0.103284
0.141828
0.141688
0.141122
0.140947
0.140939
0.139891
0.138202
0.13679
0.135677
0.134343
0.132695
0.131257
0.12977
0.127989
0.126149
0.124353
0.122581
0.120757
0.118931
0.117163
0.115502
0.113888
0.112328
0.110841
0.109425
0.108103
0.106848
0.10564
0.140878
0.140719
0.140214
0.139852
0.139636
0.138815
0.137307
0.135708
0.134462
0.133229
0.131678
0.130197
0.128768
0.127203
0.125547
0.123883
0.122272
0.120671
0.11909
0.11754
0.116089
0.114715
0.113402
0.112161
0.110989
0.109895
0.108866
0.107887
0.139938
0.139752
0.139297
0.138822
0.138393
0.137657
0.13636
0.134761
0.133406
0.132206
0.130788
0.129351
0.127969
0.126561
0.125096
0.123604
0.122155
0.120747
0.119379
0.118046
0.116795
0.115624
0.11452
0.113486
0.112519
0.111621
0.110784
0.109998
0.13902
0.138808
0.138378
0.137843
0.137248
0.136498
0.135376
0.133891
0.132505
0.131316
0.130027
0.128688
0.12737
0.126078
0.124783
0.12347
0.122188
0.120953
0.119773
0.118636
0.117567
0.11657
0.115642
0.114781
0.113984
0.113252
0.112575
0.111951
0.13813
0.137902
0.137475
0.136911
0.136214
0.135415
0.134399
0.133074
0.131747
0.130577
0.129388
0.128165
0.126943
0.125756
0.124599
0.123449
0.12233
0.121256
0.12024
0.11927
0.118362
0.117519
0.116739
0.116021
0.115364
0.114767
0.114223
0.113732
0.137281
0.137044
0.136613
0.136032
0.13529
0.134455
0.133497
0.132322
0.131099
0.129973
0.128868
0.12776
0.12665
0.12557
0.124532
0.123523
0.12255
0.12162
0.120743
0.119915
0.119144
0.11843
0.117774
0.117176
0.116635
0.116149
0.115716
0.115336
0.136486
0.136251
0.135818
0.135229
0.134479
0.133628
0.132708
0.13165
0.130541
0.129484
0.128462
0.12746
0.126465
0.125497
0.124571
0.123682
0.122832
0.122023
0.121262
0.120545
0.119879
0.119266
0.118707
0.118202
0.117753
0.117359
0.117018
0.116733
0.135771
0.135542
0.135115
0.134526
0.133785
0.132941
0.132048
0.131074
0.130064
0.129087
0.128149
0.127247
0.126368
0.125516
0.124703
0.123923
0.123178
0.122467
0.121794
0.121159
0.120566
0.120018
0.11952
0.119074
0.118684
0.11835
0.118073
0.117853
0.135167
0.134947
0.13453
0.133945
0.133219
0.132393
0.131525
0.130609
0.129674
0.128764
0.127897
0.127076
0.126297
0.125562
0.124871
0.124215
0.123586
0.122978
0.122389
0.121819
0.121273
0.120756
0.120276
0.11984
0.119456
0.11913
0.118863
0.118661
0.134716
0.134502
0.134093
0.133514
0.132804
0.131996
0.131149
0.130273
0.129391
0.128536
0.127728
0.126968
0.12625
0.125573
0.124937
0.12434
0.123781
0.12326
0.122779
0.122339
0.121934
0.12156
0.121211
0.12088
0.120565
0.120262
0.119973
0.119703
0.134464
0.13425
0.133844
0.13327
0.132571
0.131781
0.130954
0.130107
0.129261
0.128439
0.127661
0.126926
0.126233
0.125584
0.12498
0.124419
0.123898
0.123419
0.122983
0.122588
0.12223
0.121907
0.121613
0.121345
0.121097
0.120861
0.120629
0.120391
)
;

boundaryField
{
    outlet
    {
        type            fixedValue;
        value           nonuniform 0();
    }
    upperWall
    {
        type            symmetryPlane;
    }
    lowerWall
    {
        type            symmetryPlane;
    }
    inlet
    {
        type            zeroGradient;
    }
    cylinder
    {
        type            zeroGradient;
    }
    frontAndBack
    {
        type            empty;
    }
    procBoundary4to0
    {
        type            processor;
        value           nonuniform List<scalar> 
33
(
0.30256
0.313171
0.32425
0.159826
0.155919
0.158274
0.157717
0.160618
0.160495
0.161557
0.162795
0.164607
0.165788
0.167953
0.170082
0.172642
0.175479
0.178603
0.182113
0.186175
0.190693
0.195549
0.200991
0.207073
0.213727
0.220927
0.228719
0.237245
0.246486
0.256436
0.267068
0.278462
0.290748
)
;
    }
    procBoundary4to5
    {
        type            processor;
        value           nonuniform List<scalar> 
45
(
0.326843
0.31327
0.295826
0.266729
0.266729
0.243948
0.216734
0.216734
0.19511
0.19511
0.178256
0.178256
0.155789
0.141183
0.141183
0.118909
0.107251
0.099653
0.0933991
0.0885571
0.0850195
0.082453
0.0809454
0.0804185
0.0806858
0.0816385
0.0831886
0.0852127
0.0875857
0.0902274
0.0930572
0.0959794
0.0988882
0.101704
0.104385
0.106896
0.109223
0.111352
0.113276
0.114998
0.116497
0.11769
0.118526
0.119459
0.120138
)
;
    }
}


// ************************************************************************* //
