/*--------------------------------*- C++ -*----------------------------------*\
| =========                 |                                                 |
| \\      /  F ield         | OpenFOAM: The Open Source CFD Toolbox           |
|  \\    /   O peration     | Version:                                        |
|   \\  /    A nd           | Website:  www.openfoam.com                      |
|    \\/     M anipulation  |                                                 |
\*---------------------------------------------------------------------------*/
FoamFile
{
    version     2.0;
    format      ascii;
    class       surfaceScalarField;
    location    "172.8";
    object      phi;
}
// * * * * * * * * * * * * * * * * * * * * * * * * * * * * * * * * * * * * * //

dimensions      [0 3 -1 0 0 0 0];
oriented        oriented;


internalField   nonuniform List<scalar> 
2194
(
0.0225948
0.0336275
0.0228358
0.0337945
-0.0341632
0.0229913
0.0340077
0.0216744
-0.0343711
0.0233876
0.0339748
0.0221966
-0.0345519
0.023888
0.0340515
-0.0350428
0.0226875
0.0208792
-0.0346248
0.0244055
0.0341073
-0.0352015
0.0232642
0.0215744
-0.0347886
0.0250705
0.0341236
-0.0354358
0.0239114
0.022381
-0.0349209
0.0259578
0.0340336
-0.0355596
0.0245501
-0.036481
0.0233023
0.020755
-0.0346038
0.0261441
0.0344175
-0.0359945
0.0259408
-0.036878
0.0241859
0.0216533
-0.0343572
0.0339515
0.0265498
-0.0362901
0.0278736
-0.0369652
0.024861
0.0228373
0.00658908
0.0134939
0.00766104
0.0119959
0.0103483
0.0102746
0.0118507
0.0082334
0.0119799
0.0104522
0.00945974
0.00875834
0.00800695
0.0118011
0.00588006
0.0139776
0.00348353
0.0143764
0.00169931
0.0122364
0.0102303
0.00379307
0.0101968
0.00192052
0.0136736
1.56802e-05
0.0158824
-0.00164245
0.0160346
-0.00493587
0.0155298
-0.0122844
0.0175788
0.0209485
-0.00225834
0.0120407
-0.00397399
0.0153893
-0.0058024
0.0177108
-0.00913144
0.0193636
-0.0153305
0.0217289
-0.0222787
0.024527
-0.0269648
0.0256346
0.0251512
-0.00771929
0.0142699
-0.0102856
0.0179556
-0.0140334
0.0214586
-0.0192447
0.0245749
-0.0248624
0.0273466
-0.0286743
0.0283388
-0.0307379
0.0276983
-0.0319202
0.0263335
0.0248035
-0.0153847
0.0176971
-0.0193367
0.0219076
-0.0238138
0.0259357
-0.0279303
0.0286914
-0.0308046
0.0302209
-0.0320495
0.0295837
-0.0327425
0.0283913
-0.0329538
0.0265448
-0.0331201
0.0249698
0.0232132
-0.0247141
0.0216759
-0.028414
0.0256074
-0.0313758
0.0288976
-0.0330637
0.0303793
-0.0337319
0.0308891
-0.0336718
0.0295236
-0.0336726
0.0283921
-0.0334475
0.0263197
-0.0334678
0.0249901
0.0233728
-0.0323933
0.0248317
-0.0344333
0.0276474
-0.0352902
0.0297545
-0.0352348
0.0303239
-0.0349095
0.0305638
-0.0344738
0.0290879
-0.033993
0.0279112
-0.033655
0.0259818
-0.033638
0.0249732
0.0235293
-0.0366831
0.0264502
-0.0371075
0.0280718
-0.0366271
0.029274
-0.0360214
0.0297181
-0.0353856
0.029928
-0.0347657
0.0284681
-0.0339308
0.0270763
-0.033644
0.0256951
-0.0338391
0.0251683
0.0236979
-0.0382121
0.026805
-0.0376136
0.0274732
-0.0367972
0.0284576
-0.0362156
0.0291366
-0.0353641
0.0290765
-0.0344404
0.0275444
-0.0337517
0.0263876
-0.0338294
0.0257727
-0.0339759
0.0253148
0.0236968
-0.0387415
0.0265569
-0.0376911
0.0264229
-0.0368443
0.0276109
-0.0360407
0.0283329
-0.0349881
0.0280239
-0.0342545
0.0268108
-0.0337956
0.0259286
-0.0337896
0.0257667
-0.0338558
0.0253809
0.0238925
-0.0386892
0.0262987
-0.0373115
0.0250452
-0.0361115
0.0264109
-0.0352784
0.0274998
-0.0343844
0.0271298
-0.0339049
0.0263313
-0.0335506
0.0255744
-0.0335379
0.025754
-0.0337719
0.025615
0.0242279
-0.0389659
0.0257557
-0.0371477
0.0232269
-0.0354944
0.0247576
-0.0347621
0.0267675
-0.0342068
0.0265746
-0.033789
0.0259135
-0.0335208
0.0253062
-0.0334449
0.0256781
-0.033529
0.0256991
0.0248224
-0.0382727
0.0249862
-0.037258
0.0222122
-0.0357151
0.0232148
-0.0340725
0.0251248
-0.033345
0.0258471
-0.0332031
0.0257717
-0.0325775
0.0246805
-0.0325514
0.025652
-0.0332917
0.0264395
0.0255643
-0.0382951
0.0246158
-0.0376837
0.0216009
-0.0362197
0.0217508
-0.0342709
0.023176
-0.032404
0.0239803
-0.0321581
0.0255257
-0.0326771
0.0251996
-0.0327756
0.0257504
-0.0336576
0.0273215
0.0263242
-0.0409219
0.0238428
-0.0380634
0.0187423
-0.0346223
0.0183097
-0.0328983
0.021452
-0.0318588
0.0229408
-0.0308343
0.0245011
-0.0314927
0.025858
-0.0325157
0.0267734
-0.0324505
0.0272563
0.0278252
-0.0577723
0.020438
-0.0507545
0.0117246
-0.0420391
0.00959426
-0.0345412
0.0139541
-0.0303877
0.0187872
-0.0273498
0.0214632
-0.0237593
0.0222675
-0.0215167
0.0245308
-0.0192493
0.0249889
0.0257224
-0.0171465
-0.0529438
0.0200414
-0.050746
0.00952685
-0.0454143
0.0042625
-0.0370108
0.00555072
-0.0294582
0.0112345
-0.0254314
0.0174364
-0.0235039
0.02034
-0.020894
0.021921
-0.0189214
0.0230163
0.0239678
-0.0171668
-0.0353114
0.0225471
-0.037204
0.0114194
-0.03735
0.00440855
-0.034906
0.00310674
-0.0297789
0.0061074
-0.024055
0.0117125
-0.0213427
0.0176277
-0.0200611
0.0206394
-0.0180435
0.0209987
0.0221305
-0.0162062
-0.00530878
0.0264748
-0.0107065
0.0168171
-0.0167872
0.0104892
-0.0218799
0.00819945
-0.0241381
0.00836554
-0.0223119
0.00988626
-0.018827
0.0141429
-0.0172405
0.0190529
-0.0166625
0.0204207
0.0209727
-0.0155047
0.0234222
0.0312679
0.0151592
0.0250802
0.00531037
0.020338
-0.00423782
0.0177476
-0.0118552
0.0159829
-0.0162229
0.014254
-0.0162498
0.0141698
-0.0141862
0.0169892
-0.0137097
0.0199442
0.0207355
-0.0134724
0.044791
0.036176
0.0371592
0.032712
0.0271338
0.0303635
0.0163079
0.0285735
0.00609247
0.0261983
-0.00285143
0.0231979
-0.00847495
0.0197933
-0.0100881
0.0186024
-0.0106509
0.020507
0.0205563
-0.0104718
0.0556866
0.0405492
0.0490464
0.0393522
0.0409183
0.0384916
0.0316831
0.0378086
0.0219816
0.0358998
0.0123051
0.0328744
0.00349038
0.028608
-0.00233786
0.0244307
-0.00618943
0.0243586
0.0222319
-0.00786498
0.0619765
0.0433437
0.0568314
0.0444972
0.0499017
0.0454214
0.0421339
0.0455765
0.0339466
0.0440871
0.0252693
0.0415517
0.0160762
0.0378011
0.00816078
0.0323461
0.00178875
0.0307306
0.0273265
-0.00330589
0.061336
0.0455031
0.0578612
0.0479721
0.0526664
0.0506161
0.0463899
0.051853
0.0395341
0.0509429
0.0328931
0.0481927
0.0255391
0.0451552
0.0184417
0.0394435
0.0117112
0.0374611
0.0343396
0.00469814
0.0620938
0.0465745
0.0591544
0.0509114
0.0544003
0.0553702
0.0483286
0.0579247
0.0416423
0.0576292
0.0355602
0.0542748
0.0295165
0.0511988
0.0240418
0.0449182
0.0186802
0.0428227
0.0401321
0.0128877
0.0666306
0.0460746
0.0649144
0.0526276
0.0602837
0.060001
0.0530171
0.0651913
0.0448378
0.0658085
0.0374135
0.0616991
0.0315665
0.0570458
0.0265482
0.0499365
0.0229214
0.0464495
0.0429299
0.0201235
0.0722804
0.0449361
0.0714434
0.0534646
0.0676724
0.063772
0.0608379
0.0720258
0.0508691
0.0757774
0.0401013
0.0724668
0.0312258
0.0659213
0.0239573
0.0572051
0.0204288
0.049978
0.0440556
0.0193032
0.0785812
0.0425055
0.0789611
0.0530847
0.0763175
0.0664156
0.0708124
0.0775309
0.0613891
0.0852006
0.0492953
0.0845606
0.0363403
0.0788763
0.024712
0.0688334
0.0170958
0.0575942
0.0472818
0.0138696
0.0761679
0.0380469
0.0791231
0.0501295
0.0795856
0.0659531
0.076937
0.0801795
0.0714612
0.0906764
0.061314
0.0947079
0.0491622
0.0910282
0.0358554
0.0821401
0.0233615
0.070088
0.0553909
0.0152524
0.062924
0.0338267
0.0665276
0.046526
0.0698416
0.0626391
0.0715893
0.0784318
0.0721502
0.0901155
0.0680442
0.0988138
0.0620177
0.0970547
0.0512491
0.0929087
0.038511
0.0828262
0.067453
0.026449
0.0301286
0.0299651
0.0348307
0.0418238
0.0414395
0.0560303
0.0482293
0.071642
0.0538861
0.0844587
0.0581951
0.0945048
0.0592581
0.0959917
0.0570109
0.0951559
0.0507518
0.0890853
0.0770583
0.0411465
-0.0117395
0.0292286
-0.00815988
0.0382441
-0.00180445
0.0496748
0.00773663
0.062101
0.0178647
0.0743307
0.0287999
0.0835696
0.036409
0.0883825
0.0434072
0.0881577
0.0438096
0.0886829
0.0790122
0.0418557
-0.0514914
0.0303624
-0.0491015
0.0358543
-0.0436713
0.0442446
-0.034798
0.0532277
-0.0229108
0.0624434
-0.00894464
0.0696034
0.00416042
0.0752775
0.0172261
0.075092
0.0258962
0.0800128
0.0723376
0.0325708
-0.0761618
0.0336274
-0.0768325
0.036525
-0.0734533
0.0408653
-0.0662808
0.0460553
-0.0555763
0.0517388
-0.0425528
0.05658
-0.0285177
0.0612424
-0.0150892
0.0616635
-0.000747842
0.0656714
0.0617186
0.00987111
-0.0849626
-0.0851114
-0.0824101
-0.0772001
-0.0695256
-0.0598199
-0.048474
0.0498966
-0.0376847
0.0508741
-0.0258049
0.0537917
0.0531162
-0.0172024
-0.056954
-0.0474257
-0.0373122
-0.0286723
-0.0146821
0.0467144
-0.0491788
-0.0124216
0.0499053
-0.0521658
-0.0105509
0.0540237
-0.0558945
-0.00868061
0.0577701
-0.0596404
-0.00706773
0.0618673
-0.0634802
-0.00575749
0.0664509
-0.0677612
-0.00458198
0.0712446
-0.0724201
-0.003572
0.0763533
-0.0773633
-0.00275896
0.0820368
-0.0828498
-0.00203936
0.0882736
-0.0889932
-0.00143578
0.0949698
-0.0955734
-0.000973086
0.102085
-0.102547
-0.000618977
0.10946
-0.109814
-0.000394731
0.117275
-0.117499
-0.000202305
0.125322
-0.125514
-7.88036e-05
0.133823
-0.133946
1.25866e-05
0.143014
-0.143105
8.78396e-05
0.152775
-0.15285
0.00011938
0.163285
-0.163317
0.000151319
0.174546
-0.174578
0.000165285
0.186555
-0.186569
0.000162317
0.199395
-0.199392
0.000155716
0.213087
-0.213081
0.000143
0.22769
-0.227677
0.000121983
0.2433
-0.243279
0.000101602
0.260001
-0.25998
7.76677e-05
0.277847
-0.277823
4.97243e-05
0.296964
-0.296936
2.64475e-05
0.317453
-0.31743
0.339391
-0.339364
-0.0146484
0.044196
-0.0126186
0.0478755
-0.0103975
0.0518027
-0.0084095
0.0557821
-0.00671698
0.0601748
-0.00527862
0.0650126
-0.00411219
0.0700781
-0.00320985
0.075451
-0.00248755
0.0813145
-0.00188352
0.0876696
-0.00143347
0.0945198
-0.00106714
0.101718
-0.000832695
0.109225
-0.000623413
0.117065
-0.000405102
0.125104
-0.000261305
0.133679
-0.00011107
0.142863
-5.49667e-06
0.152669
6.07523e-05
0.163219
0.000110785
0.174496
0.000134164
0.186531
0.000143005
0.199386
0.000145383
0.213085
0.000137459
0.227698
0.000119685
0.243317
0.000101512
0.260019
7.7394e-05
0.277871
5.02345e-05
0.296991
2.66347e-05
0.317477
0.339417
-0.0138625
0.0418522
-0.0118562
0.0458692
-0.0100266
0.0499731
-0.00838285
0.0541384
-0.00689562
0.0586876
-0.0055255
0.0636424
-0.0043659
0.0689185
-0.00344827
0.0745333
-0.00267626
0.0805425
-0.00199458
0.0869879
-0.00141627
0.0939414
-0.000958213
0.10126
-0.000622677
0.10889
-0.000339458
0.116782
-0.000157086
0.124921
-4.16379e-05
0.133564
5.27107e-05
0.142769
0.000107851
0.152614
0.000139334
0.163188
0.000164695
0.174471
0.000166626
0.186529
0.000164132
0.199389
0.000156151
0.213093
0.000141326
0.227713
0.000121815
0.243337
0.000102479
0.260038
7.72296e-05
0.277896
5.0995e-05
0.297017
2.68336e-05
0.317501
0.339444
-0.0133388
0.0396864
-0.0108803
0.0434107
-0.00892689
0.0480196
-0.00716572
0.0523772
-0.00569896
0.0572208
-0.00445554
0.062399
-0.00346009
0.0679231
-0.00269767
0.0737709
-0.00207357
0.0799184
-0.00160008
0.0865144
-0.00124486
0.0935862
-0.000960055
0.100976
-0.000731348
0.108661
-0.000514803
0.116566
-0.000347279
0.124754
-0.000192524
0.133409
-5.7704e-05
0.142634
2.75831e-05
0.152529
8.55e-05
0.16313
0.00011919
0.174437
0.000134705
0.186514
0.000143814
0.19938
0.000144266
0.213092
0.000134258
0.227723
0.000118961
0.243352
0.000101042
0.260056
7.64333e-05
0.277921
5.11473e-05
0.297043
2.68112e-05
0.317525
0.339471
-0.0118101
0.0380241
-0.00962918
0.0412297
-0.00800541
0.0463959
-0.00666074
0.0510325
-0.00542206
0.0559822
-0.0042818
0.0612587
-0.00338356
0.0670248
-0.00268543
0.0730728
-0.00212345
0.0793564
-0.00163365
0.0860246
-0.00119267
0.0931452
-0.00082768
0.100611
-0.000497596
0.108331
-0.000252648
0.116321
-9.28054e-05
0.124594
2.42822e-05
0.133292
9.55283e-05
0.142563
0.000135369
0.152489
0.000164056
0.163101
0.000170102
0.174431
0.000167876
0.186516
0.000161973
0.199386
0.000151768
0.213103
0.000135631
0.227739
0.000119437
0.243368
0.000100149
0.260076
7.60818e-05
0.277945
5.15087e-05
0.297067
2.68795e-05
0.31755
0.339498
-0.00850959
0.0360618
-0.00681774
0.0395379
-0.00516611
0.0447442
-0.00405198
0.0499184
-0.00318948
0.0551197
-0.00251525
0.0605845
-0.00189128
0.0664009
-0.00140158
0.0725831
-0.00105826
0.0790131
-0.000835569
0.0858019
-0.000689055
0.0929987
-0.000551184
0.100473
-0.000421161
0.108201
-0.000293881
0.116193
-0.00015862
0.124459
-3.98687e-05
0.133173
4.82292e-05
0.142475
0.00010037
0.152437
0.000131686
0.16307
0.000140943
0.174422
0.000148455
0.186508
0.000150389
0.199384
0.000145892
0.213107
0.000134582
0.22775
0.000119994
0.243383
0.000100344
0.260095
7.70936e-05
0.277968
5.24207e-05
0.297092
2.72938e-05
0.317575
0.339525
-0.00603651
0.0342334
-0.00522454
0.0387259
-0.00409469
0.0436144
-0.00310391
0.0489276
-0.00232286
0.0543386
-0.00175652
0.0600182
-0.00140671
0.0660511
-0.00117183
0.0723482
-0.000984574
0.0788258
-0.000807477
0.0856249
-0.000618091
0.0928093
-0.000424242
0.100279
-0.000230645
0.108007
-6.68568e-05
0.11603
5.04751e-05
0.124341
0.000125947
0.133098
0.000167428
0.142433
0.000192161
0.152412
0.000195207
0.163067
0.000187102
0.17443
0.000177021
0.186519
0.00016467
0.199396
0.000149934
0.213122
0.000135589
0.227765
0.000119846
0.243399
9.97702e-05
0.260115
7.75171e-05
0.27799
5.30641e-05
0.297116
2.76657e-05
0.317601
0.339553
-0.00247456
0.0334021
-0.00164873
0.0379001
-0.00101785
0.0429835
-0.000430277
0.0483401
-5.28591e-05
0.0539612
0.000259623
0.0597057
0.000514633
0.065796
0.000640618
0.0722222
0.000601814
0.0788646
0.000455931
0.0857707
0.000308554
0.0929567
0.000205814
0.100382
0.000142757
0.10807
0.000149108
0.116023
0.000190524
0.1243
0.000220591
0.133068
0.000236133
0.142418
0.000230523
0.152418
0.000210917
0.163086
0.000193249
0.174448
0.000180892
0.186531
0.00017008
0.199407
0.000156471
0.213135
0.000143627
0.227778
0.000125422
0.243417
0.000104044
0.260137
8.09337e-05
0.278014
5.51287e-05
0.297142
2.87528e-05
0.317627
0.339582
0.00391763
0.0341826
0.0036197
0.038198
0.00333265
0.0432705
0.00279221
0.0488805
0.00219505
0.0545583
0.00158639
0.0603143
0.00108035
0.0663021
0.000728086
0.0725745
0.000497712
0.079095
0.00031254
0.0859559
0.000201604
0.0930676
0.000146549
0.100437
0.000155011
0.108062
0.0001988
0.115979
0.000234463
0.124264
0.000257878
0.133044
0.000263256
0.142412
0.000255905
0.152425
0.000235048
0.163107
0.000212964
0.17447
0.000190244
0.186554
0.000169426
0.199428
0.000152626
0.213152
0.000139011
0.227791
0.000121684
0.243434
0.000102951
0.260155
8.07019e-05
0.278036
5.54485e-05
0.297167
2.91194e-05
0.317653
0.339611
0.0117394
0.0353309
0.0100439
0.0398935
0.00819587
0.0451186
0.00649754
0.0505788
0.00532242
0.0557335
0.00452975
0.061107
0.00387
0.0669618
0.0032875
0.073157
0.00266266
0.0797198
0.0020919
0.0865267
0.00160128
0.0935583
0.00119534
0.100843
0.000923343
0.108334
0.000762519
0.11614
0.000659413
0.124367
0.000574863
0.133129
0.000488681
0.142499
0.000399105
0.152514
0.000323061
0.163183
0.000266858
0.174526
0.000227807
0.186593
0.0001983
0.199457
0.000176565
0.213174
0.00015636
0.227811
0.000133187
0.243457
0.000111052
0.260178
8.58525e-05
0.278061
5.86465e-05
0.297194
3.07115e-05
0.317681
0.339641
0.018699
0.0367555
0.015598
0.0429945
0.0121299
0.0485866
0.00919716
0.0535116
0.00666866
0.058262
0.00480748
0.0629682
0.0035458
0.0682235
0.0026889
0.0740139
0.00205941
0.0803493
0.0015569
0.0870292
0.00112094
0.0939942
0.000819709
0.101144
0.000618733
0.108535
0.000503016
0.116256
0.000433503
0.124437
0.000391863
0.13317
0.000352791
0.142538
0.00031391
0.152553
0.000274468
0.163223
0.000234865
0.174566
0.000202031
0.186625
0.000175809
0.199483
0.000160164
0.21319
0.000143171
0.227828
0.000126751
0.243474
0.000108612
0.260196
8.51132e-05
0.278084
5.90513e-05
0.297221
3.10877e-05
0.317709
0.339673
0.0173647
0.0386939
0.0149769
0.0453823
0.012456
0.0511074
0.0105217
0.055446
0.0094181
0.0593655
0.00829645
0.0640899
0.00705477
0.0694652
0.00578346
0.0752852
0.0046464
0.0814864
0.00368625
0.0879893
0.00290273
0.0947778
0.00225274
0.101794
0.00179016
0.108997
0.00145608
0.11659
0.00120377
0.124689
0.000978904
0.133395
0.000772329
0.142744
0.000594774
0.152731
0.000454143
0.163363
0.000355848
0.174664
0.000287225
0.186694
0.000240423
0.19953
0.000206054
0.213224
0.000174688
0.22786
0.000148392
0.2435
0.00012195
0.260222
9.39747e-05
0.278112
6.4655e-05
0.29725
3.3709e-05
0.31774
0.339706
0.0112919
0.0412716
0.00999414
0.0466801
0.00904395
0.0520576
0.00810382
0.0563861
0.0072032
0.0602661
0.00614445
0.0651486
0.00520116
0.0704085
0.00430536
0.076181
0.00345367
0.0823381
0.002671
0.088772
0.00196441
0.0954843
0.00145822
0.1023
0.00105353
0.109402
0.000778025
0.116866
0.000601813
0.124865
0.000490103
0.133507
0.000412599
0.142822
0.000352558
0.152791
0.000298907
0.163417
0.000252169
0.174711
0.000213775
0.186732
0.000188958
0.199555
0.000171692
0.213241
0.000155283
0.227876
0.00013977
0.243516
0.000119194
0.260243
9.43046e-05
0.278137
6.58729e-05
0.297278
3.45856e-05
0.317771
0.339741
0.0116442
0.0448798
0.0111644
0.0471599
0.0127588
0.0504633
0.0139439
0.055201
0.0130686
0.0611414
0.0113596
0.0668577
0.00931877
0.0724493
0.00736925
0.0781305
0.00582101
0.0838863
0.00457739
0.0900156
0.00367841
0.0963833
0.00294589
0.103033
0.00242757
0.10992
0.002025
0.117268
0.00166389
0.125227
0.00132383
0.133847
0.00101847
0.143127
0.000765265
0.153044
0.000574326
0.163608
0.000442702
0.174842
0.000349785
0.186825
0.000288007
0.199617
0.000238303
0.213291
0.000200512
0.227914
0.000168652
0.243548
0.000137197
0.260274
0.000106488
0.278168
7.33984e-05
0.297311
3.82334e-05
0.317807
0.339779
0.019824
0.0515047
0.0168116
0.0501724
0.0160411
0.0512337
0.0145845
0.0566576
0.012306
0.0634199
0.0100563
0.0691075
0.00803319
0.0744724
0.00633077
0.0798329
0.00482789
0.0853892
0.00357578
0.0912677
0.00259274
0.0973664
0.00187161
0.103754
0.00131062
0.110481
0.000904196
0.117675
0.000649322
0.125481
0.000492323
0.134004
0.000403658
0.143216
0.000337736
0.15311
0.000289573
0.163656
0.000246743
0.174885
0.000217049
0.186855
0.000197631
0.199636
0.000183744
0.213305
0.00017104
0.227927
0.000154388
0.243564
0.00013258
0.260296
0.000105933
0.278195
7.40159e-05
0.297343
3.90237e-05
0.317842
0.339818
0.035756
0.0568951
0.0327075
0.0532209
0.0290904
0.0548508
0.023625
0.0621231
0.0180386
0.0690062
0.0132415
0.0739046
0.00961648
0.0780974
0.00705699
0.0823924
0.00518844
0.0872577
0.0040378
0.0924184
0.00327737
0.0981268
0.0027977
0.104233
0.00246586
0.110813
0.00217337
0.117967
0.00181607
0.125839
0.00145281
0.134367
0.00110308
0.143565
0.000828036
0.153385
0.000624398
0.16386
0.000485352
0.175024
0.000386784
0.186954
0.000316088
0.199707
0.00026102
0.21336
0.000218789
0.227969
0.000183737
0.243599
0.000150417
0.260329
0.00011747
0.278228
8.12924e-05
0.297379
4.25564e-05
0.31788
0.339861
0.0382057
0.0605451
0.0326409
0.0587857
0.0254656
0.0620261
0.019243
0.0683457
0.0149642
0.073285
0.011904
0.0769648
0.00939075
0.0806106
0.00708525
0.0846979
0.00530316
0.0890398
0.00377559
0.0939459
0.00266966
0.0992327
0.00183289
0.10507
0.00121551
0.11143
0.000755009
0.118428
0.000506852
0.126087
0.000358918
0.134515
0.000296823
0.143628
0.000254831
0.153427
0.000232284
0.163882
0.000212622
0.175044
0.000203099
0.186963
0.000196583
0.199713
0.000192029
0.213365
0.000182716
0.227978
0.00016684
0.243615
0.00014438
0.260352
0.000115849
0.278256
8.12767e-05
0.297414
4.2976e-05
0.317919
0.339904
0.0301318
0.0629842
0.0238528
0.0650646
0.0166619
0.0692171
0.0111837
0.0738239
0.00771511
0.0767536
0.0050102
0.0796697
0.00323457
0.0823862
0.00197559
0.0859569
0.00138814
0.0896273
0.00123299
0.0941011
0.00131331
0.0991524
0.0015202
0.104863
0.00164144
0.111309
0.00165889
0.11841
0.00145763
0.126288
0.00119562
0.134777
0.000914526
0.143909
0.000704262
0.153637
0.000550079
0.164036
0.000447447
0.175147
0.000368752
0.187042
0.00030965
0.199773
0.000261512
0.213413
0.000222915
0.228017
0.000190845
0.243647
0.00015906
0.260384
0.000125363
0.27829
8.7791e-05
0.297452
4.60905e-05
0.31796
0.33995
0.0091787
0.0636766
0.00749068
0.0667526
0.00602104
0.0706867
0.00524853
0.0745964
0.00529708
0.0767051
0.00508088
0.0798859
0.00484804
0.0826191
0.00407267
0.0867323
0.00326027
0.0904397
0.00240314
0.0949582
0.00169386
0.0998617
0.00107722
0.10548
0.000626998
0.111759
0.000300897
0.118736
0.00017267
0.126416
0.000112331
0.134838
0.000120078
0.143901
0.000126617
0.153631
0.000144867
0.164018
0.000160612
0.175131
0.000179754
0.187023
0.000192913
0.199759
0.000197862
0.213408
0.000193357
0.228021
0.000177885
0.243663
0.000155301
0.260406
0.000124981
0.27832
8.8248e-05
0.297488
4.66832e-05
0.318002
0.339996
-0.0166533
0.0631275
-0.0149104
0.0650097
-0.0136063
0.0693826
-0.0107501
0.0717402
-0.00916434
0.0751194
-0.00760598
0.0783275
-0.00690358
0.0819167
-0.00518074
0.0850094
-0.00391817
0.0891771
-0.0026349
0.0936749
-0.0014659
0.0986927
-0.000564163
0.104578
7.87325e-05
0.111117
0.000431545
0.118383
0.000501302
0.126347
0.000466947
0.134872
0.000387144
0.143981
0.000342773
0.153675
0.000314554
0.164046
0.000297119
0.175148
0.000275022
0.187045
0.000251054
0.199783
0.000227402
0.213431
0.000205223
0.228044
0.000184027
0.243684
0.000158854
0.260431
0.000127827
0.278351
9.10117e-05
0.297525
4.81658e-05
0.318045
0.340045
-0.0232346
0.0576898
-0.0183701
0.0601452
-0.0150921
-0.0099285
-0.00716747
-0.00385024
-0.00248428
-0.00124637
-0.000795729
-0.000354792
-0.000292194
-0.000253638
-0.000287449
-0.000271132
-0.000194349
-0.000120651
-4.73673e-05
5.12924e-06
5.94964e-05
0.000107731
0.000151823
0.000180284
0.000192721
0.000191486
0.000177568
0.000155696
0.00012677
9.01303e-05
4.79433e-05
-0.0339594
0.0194429
0.0536877
0.019243
0.0559022
0.0192909
0.0584532
0.0195903
0.0614756
0.0200031
0.0648173
0.0204125
0.0685547
0.0207387
0.072818
0.0209573
0.0775958
0.021013
0.0827262
0.0882021
0.0238172
0.0527077
0.0246399
0.0550796
0.0250048
0.0580883
0.0250304
0.0614501
0.0250619
0.0647857
0.0251043
0.0685123
0.0250536
0.0728686
0.0249606
0.0776888
0.0248424
0.0828444
0.0245947
0.0884497
0.0242081
0.0944857
0.0237285
0.100893
0.0231654
0.107693
0.0225057
0.114933
0.0217325
0.122794
0.0209852
0.130927
0.0200758
0.139738
0.0190583
0.149388
0.0180515
0.159434
0.016906
0.170338
0.0156769
0.182047
0.0143739
0.194476
0.0129631
0.207785
0.011455
0.222002
0.00984609
0.237187
0.00812278
0.253461
0.00628754
0.27086
0.00432809
0.289491
0.00223355
0.309461
0.330869
0.0249955
0.0525732
0.0255366
0.0545384
0.0260539
0.057571
0.0265002
0.0610038
0.0269212
0.0643647
0.0273065
0.0681271
0.0276328
0.0725423
0.027863
0.0774587
0.0279002
0.0828072
0.027719
0.0886309
0.027345
0.0948597
0.0268068
0.101431
0.0261348
0.108365
0.025321
0.115747
0.0244802
0.123635
0.0236397
0.131767
0.022593
0.140785
0.0215588
0.150422
0.0204406
0.160552
0.0191523
0.171627
0.0177983
0.183401
0.01633
0.195944
0.0147385
0.209376
0.0130348
0.223706
0.011208
0.239014
0.00925054
0.255418
0.00716317
0.272948
0.00493158
0.291723
0.00254493
0.311848
0.333414
0.0294316
0.0510152
0.0303606
0.0536094
0.0308708
0.0570609
0.0311677
0.0607068
0.0312674
0.064265
0.0312135
0.068181
0.0311652
0.0725905
0.0311963
0.0774275
0.0311763
0.0828273
0.0309688
0.0888383
0.0305926
0.095236
0.0300182
0.102006
0.0292955
0.109088
0.0284271
0.116615
0.0275161
0.124546
0.0264534
0.13283
0.0252856
0.141952
0.0241206
0.151587
0.0227912
0.161881
0.0213596
0.173058
0.0198453
0.184915
0.0181959
0.197594
0.0164226
0.211149
0.0145255
0.225603
0.0124898
0.24105
0.0103117
0.257596
0.00798635
0.275273
0.00549948
0.29421
0.00283806
0.314509
0.336252
0.0283862
0.0298298
0.0309962
0.0320627
0.0328475
0.0332673
0.0334378
0.033502
0.0334795
0.0333246
0.0329872
0.0324453
0.0317196
0.0308361
0.0298678
0.0287513
0.0275988
0.0263357
0.0249001
0.02338
0.0217266
0.0199281
0.0179968
0.0159226
0.0136937
0.0113095
0.00875958
0.00603335
0.00311259
)
;

boundaryField
{
    outlet
    {
        type            calculated;
        value           nonuniform 0();
    }
    upperWall
    {
        type            symmetryPlane;
        value           nonuniform 0();
    }
    lowerWall
    {
        type            symmetryPlane;
        value           uniform 0;
    }
    inlet
    {
        type            calculated;
        value           nonuniform 0();
    }
    cylinder
    {
        type            calculated;
        value           nonuniform 0();
    }
    frontAndBack
    {
        type            empty;
        value           nonuniform 0();
    }
    procBoundary2to1
    {
        type            processor;
        value           nonuniform List<scalar> 
63
(
-0.0224617
-0.0333573
-0.0337605
-0.0340355
-0.0212341
-0.0346035
-0.0348933
-0.0203873
-0.0355347
-0.0358967
-0.0362423
-0.0197857
-0.0374503
-0.0377763
-0.0381492
-0.0193897
-0.00572723
0.0160688
-0.00885025
-0.0101294
-0.00993874
-0.0079877
0.00576892
-0.00662877
-0.00190223
-0.0130079
-0.020225
-0.0224436
-0.0296725
-0.0241737
-0.03255
-0.0229761
-0.0537408
-0.0557023
-0.0585011
-0.061775
-0.0652301
-0.0689641
-0.0731442
-0.0778143
-0.0827819
-0.0880539
0.0208648
-0.0940991
-0.100413
-0.10713
-0.114273
-0.122021
-0.13018
-0.138828
-0.14837
-0.158427
-0.169193
-0.180818
-0.193173
-0.206374
-0.220494
-0.235578
-0.251737
-0.269025
-0.287532
-0.307367
-0.328635
)
;
    }
    procBoundary2to3
    {
        type            processor;
        value           nonuniform List<scalar> 
43
(
0.0360904
0.0366737
0.038164
0.0408453
0.0440643
0.0468743
0.0668126
0.040038
0.0413459
0.0436781
0.0444762
0.0392614
0.0661046
0.0665766
0.0723583
0.0750103
0.0805507
0.0837715
0.0887265
0.093234
0.0986301
0.10454
0.11115
0.118367
0.12627
0.134798
0.143907
0.153623
0.163992
0.1751
0.187001
0.199755
0.213419
0.228045
0.243698
0.260453
0.27838
0.297562
0.318087
0.340092
0.0523878
-0.028496
0.0546818
)
;
    }
    procBoundary2to6
    {
        type            processor;
        value           nonuniform List<scalar> 
37
(
-0.0169306
-0.0145658
-0.010557
-0.00523149
0.000414374
0.00549013
0.0119575
0.0207354
0.0292375
0.0350647
0.0378573
0.0389895
0.0389475
0.0395089
0.0390422
0.0386654
0.0416949
0.0611771
0.0533404
0.0328057
0.00138107
-0.0282154
-0.0496991
-0.0600598
-0.064771
-0.0634954
-0.0631652
-0.0661308
-0.0711419
-0.0761505
-0.0717094
-0.0587038
-0.026267
0.012476
0.0503576
0.0728969
0.0824996
)
;
    }
}


// ************************************************************************* //
