/*--------------------------------*- C++ -*----------------------------------*\
| =========                 |                                                 |
| \\      /  F ield         | OpenFOAM: The Open Source CFD Toolbox           |
|  \\    /   O peration     | Version:                                        |
|   \\  /    A nd           | Website:  www.openfoam.com                      |
|    \\/     M anipulation  |                                                 |
\*---------------------------------------------------------------------------*/
FoamFile
{
    version     2.0;
    format      ascii;
    class       volScalarField;
    location    "0.1";
    object      p;
}
// * * * * * * * * * * * * * * * * * * * * * * * * * * * * * * * * * * * * * //

dimensions      [0 2 -2 0 0 0 0];


internalField   nonuniform List<scalar> 
400
(
0.327834
0.319534
0.311233
0.302936
0.294639
0.28634
0.27804
0.26974
0.26144
0.253141
0.244841
0.236542
0.228242
0.219943
0.211644
0.203346
0.195046
0.186748
0.178451
0.170152
0.327835
0.319534
0.311233
0.302936
0.294639
0.28634
0.27804
0.26974
0.26144
0.253141
0.244841
0.236541
0.228242
0.219943
0.211644
0.203346
0.195046
0.186748
0.17845
0.170152
0.327836
0.319533
0.311232
0.302936
0.294639
0.28634
0.27804
0.26974
0.26144
0.253141
0.244841
0.236541
0.228242
0.219943
0.211644
0.203345
0.195047
0.186748
0.178449
0.170153
0.327836
0.319532
0.311231
0.302936
0.294639
0.286341
0.278041
0.26974
0.26144
0.253141
0.244841
0.236541
0.228242
0.219943
0.211644
0.203345
0.195047
0.186748
0.178449
0.170154
0.327835
0.319532
0.311231
0.302936
0.294639
0.286341
0.278041
0.269741
0.261441
0.253141
0.244841
0.236541
0.228242
0.219943
0.211644
0.203345
0.195047
0.186749
0.178448
0.170155
0.327834
0.319531
0.311231
0.302936
0.29464
0.286341
0.278041
0.269741
0.261441
0.253141
0.244841
0.236541
0.228242
0.219943
0.211644
0.203345
0.195048
0.186749
0.178448
0.170155
0.327833
0.319531
0.311231
0.302936
0.29464
0.286341
0.278042
0.269741
0.261441
0.253141
0.244841
0.236541
0.228242
0.219943
0.211644
0.203345
0.195048
0.186749
0.178448
0.170155
0.327831
0.319531
0.311232
0.302936
0.29464
0.286342
0.278042
0.269742
0.261442
0.253141
0.244841
0.236541
0.228242
0.219943
0.211644
0.203345
0.195048
0.186749
0.178449
0.170154
0.327829
0.319531
0.311232
0.302937
0.29464
0.286342
0.278043
0.269743
0.261442
0.253142
0.244842
0.236542
0.228242
0.219943
0.211644
0.203345
0.195047
0.186749
0.178449
0.170154
0.327827
0.319531
0.311233
0.302938
0.294641
0.286343
0.278043
0.269743
0.261443
0.253142
0.244842
0.236542
0.228243
0.219943
0.211644
0.203345
0.195047
0.186749
0.178449
0.170154
0.327826
0.319531
0.311234
0.302938
0.294641
0.286343
0.278044
0.269744
0.261444
0.253143
0.244843
0.236543
0.228243
0.219943
0.211644
0.203345
0.195047
0.186749
0.17845
0.170153
0.327825
0.319531
0.311235
0.302939
0.294642
0.286344
0.278045
0.269745
0.261445
0.253144
0.244843
0.236543
0.228243
0.219943
0.211644
0.203345
0.195047
0.186749
0.17845
0.170153
0.327824
0.319532
0.311236
0.30294
0.294643
0.286345
0.278046
0.269746
0.261445
0.253145
0.244844
0.236544
0.228243
0.219944
0.211644
0.203345
0.195047
0.186749
0.17845
0.170153
0.327824
0.319532
0.311237
0.30294
0.294643
0.286345
0.278046
0.269746
0.261446
0.253145
0.244845
0.236544
0.228244
0.219944
0.211644
0.203345
0.195047
0.186748
0.17845
0.170153
0.327824
0.319532
0.311237
0.302941
0.294644
0.286346
0.278047
0.269747
0.261447
0.253146
0.244845
0.236544
0.228244
0.219944
0.211644
0.203345
0.195046
0.186748
0.17845
0.170153
0.327824
0.319532
0.311237
0.302941
0.294644
0.286346
0.278047
0.269747
0.261447
0.253146
0.244846
0.236545
0.228244
0.219944
0.211644
0.203345
0.195046
0.186748
0.17845
0.170153
0.327824
0.319532
0.311237
0.302941
0.294644
0.286346
0.278047
0.269748
0.261448
0.253147
0.244846
0.236545
0.228244
0.219944
0.211644
0.203345
0.195046
0.186748
0.178451
0.170153
0.327824
0.319532
0.311238
0.302942
0.294645
0.286347
0.278048
0.269748
0.261448
0.253147
0.244846
0.236545
0.228244
0.219944
0.211644
0.203345
0.195046
0.186748
0.178451
0.170153
0.327824
0.319532
0.311238
0.302942
0.294645
0.286347
0.278048
0.269748
0.261448
0.253147
0.244846
0.236545
0.228244
0.219944
0.211644
0.203345
0.195047
0.186749
0.178451
0.170153
0.327825
0.319533
0.311238
0.302942
0.294645
0.286347
0.278048
0.269748
0.261448
0.253147
0.244846
0.236545
0.228244
0.219944
0.211644
0.203345
0.195047
0.186749
0.178451
0.170153
)
;

boundaryField
{
    fixedWalls
    {
        type            zeroGradient;
    }
    inlet
    {
        type            zeroGradient;
    }
    outlet
    {
        type            fixedValue;
        value           nonuniform 0();
    }
    frontAndBack
    {
        type            empty;
    }
    procBoundary6to2
    {
        type            processor;
        value           nonuniform List<scalar> 
20
(
0.327834
0.319534
0.311233
0.302936
0.294639
0.286339
0.27804
0.26974
0.26144
0.253141
0.244841
0.236542
0.228242
0.219943
0.211644
0.203346
0.195046
0.186748
0.178451
0.170152
)
;
    }
    procBoundary6to5
    {
        type            processor;
        value           nonuniform List<scalar> 
20
(
0.336132
0.336132
0.336132
0.336131
0.336129
0.336127
0.336124
0.336121
0.336119
0.336117
0.336115
0.336114
0.336113
0.336112
0.336112
0.336112
0.336112
0.336112
0.336113
0.336115
)
;
    }
    procBoundary6to7
    {
        type            processor;
        value           nonuniform List<scalar> 
20
(
0.161856
0.161857
0.161859
0.16186
0.16186
0.16186
0.16186
0.16186
0.161859
0.161858
0.161857
0.161857
0.161856
0.161856
0.161856
0.161856
0.161856
0.161856
0.161856
0.161856
)
;
    }
}


// ************************************************************************* //
