/*--------------------------------*- C++ -*----------------------------------*\
| =========                 |                                                 |
| \\      /  F ield         | OpenFOAM: The Open Source CFD Toolbox           |
|  \\    /   O peration     | Version:                                        |
|   \\  /    A nd           | Website:  www.openfoam.com                      |
|    \\/     M anipulation  |                                                 |
\*---------------------------------------------------------------------------*/
FoamFile
{
    version     2.0;
    format      ascii;
    class       volVectorField;
    location    "0.1";
    object      U;
}
// * * * * * * * * * * * * * * * * * * * * * * * * * * * * * * * * * * * * * //

dimensions      [0 1 -1 0 0 0 0];


internalField   nonuniform List<vector> 
400
(
(1.2678 -2.60259e-06 0)
(1.26781 9.68321e-07 0)
(1.26781 4.35607e-06 0)
(1.2678 4.66681e-06 0)
(1.2678 3.5181e-06 0)
(1.26779 2.27838e-06 0)
(1.26779 1.36188e-06 0)
(1.26778 8.34007e-07 0)
(1.26778 5.76899e-07 0)
(1.26778 4.25135e-07 0)
(1.26778 3.39552e-07 0)
(1.26778 2.31423e-07 0)
(1.26778 1.51361e-07 0)
(1.26778 1.37484e-07 0)
(1.26777 -1.34143e-08 0)
(1.26778 8.37503e-08 0)
(1.26777 -2.33322e-07 0)
(1.26778 -1.25813e-07 0)
(1.26777 2.6466e-07 0)
(1.26777 -1.67823e-06 0)
(1.26732 -1.01947e-05 0)
(1.26732 -9.63366e-07 0)
(1.26732 6.36311e-06 0)
(1.26732 7.85291e-06 0)
(1.26731 6.56201e-06 0)
(1.26731 4.78013e-06 0)
(1.2673 3.29808e-06 0)
(1.2673 2.34248e-06 0)
(1.2673 1.63806e-06 0)
(1.2673 1.16117e-06 0)
(1.2673 7.87001e-07 0)
(1.26729 5.73174e-07 0)
(1.26729 3.72081e-07 0)
(1.26729 3.04328e-07 0)
(1.26729 1.18804e-08 0)
(1.26729 2.78422e-07 0)
(1.26729 -5.455e-07 0)
(1.2673 -5.32207e-08 0)
(1.26729 1.56016e-06 0)
(1.26729 -3.28497e-06 0)
(1.26623 -1.31628e-05 0)
(1.26623 -1.27872e-06 0)
(1.26623 7.09441e-06 0)
(1.26623 9.6032e-06 0)
(1.26623 8.88106e-06 0)
(1.26622 7.16224e-06 0)
(1.26622 5.37881e-06 0)
(1.26621 3.87549e-06 0)
(1.26621 2.756e-06 0)
(1.26621 1.97177e-06 0)
(1.26621 1.38845e-06 0)
(1.26621 1.00053e-06 0)
(1.26621 6.10452e-07 0)
(1.26621 5.04988e-07 0)
(1.26621 6.01069e-08 0)
(1.26621 3.85691e-07 0)
(1.26621 -4.67585e-07 0)
(1.26621 4.6561e-08 0)
(1.2662 1.4972e-06 0)
(1.26621 -3.89631e-06 0)
(1.26431 -1.15925e-05 0)
(1.2643 -1.65636e-07 0)
(1.2643 7.67027e-06 0)
(1.2643 1.06512e-05 0)
(1.2643 1.06346e-05 0)
(1.26429 9.18508e-06 0)
(1.26429 7.26681e-06 0)
(1.26429 5.45681e-06 0)
(1.26428 3.96436e-06 0)
(1.26428 2.83247e-06 0)
(1.26428 1.94492e-06 0)
(1.26428 1.35486e-06 0)
(1.26428 8.37004e-07 0)
(1.26428 6.25714e-07 0)
(1.26428 1.61183e-07 0)
(1.26428 3.61642e-07 0)
(1.26428 -3.5573e-07 0)
(1.26428 -1.57479e-07 0)
(1.26428 8.03909e-07 0)
(1.26428 -2.75716e-06 0)
(1.26116 -6.94479e-06 0)
(1.26115 3.06516e-06 0)
(1.26115 9.11952e-06 0)
(1.26115 1.18505e-05 0)
(1.26114 1.22008e-05 0)
(1.26114 1.09471e-05 0)
(1.26113 8.92872e-06 0)
(1.26113 6.81938e-06 0)
(1.26113 4.98153e-06 0)
(1.26113 3.54473e-06 0)
(1.26113 2.41961e-06 0)
(1.26113 1.65068e-06 0)
(1.26113 1.01736e-06 0)
(1.26113 7.01925e-07 0)
(1.26113 2.53589e-07 0)
(1.26113 3.06069e-07 0)
(1.26113 -1.70777e-07 0)
(1.26113 -2.20534e-07 0)
(1.26112 3.91886e-07 0)
(1.26113 -1.38454e-06 0)
(1.25622 4.93514e-07 0)
(1.2562 8.29246e-06 0)
(1.2562 1.18239e-05 0)
(1.25619 1.36077e-05 0)
(1.25619 1.38042e-05 0)
(1.25618 1.24762e-05 0)
(1.25618 1.02955e-05 0)
(1.25618 7.92009e-06 0)
(1.25618 5.77188e-06 0)
(1.25618 4.07209e-06 0)
(1.25618 2.76447e-06 0)
(1.25617 1.84011e-06 0)
(1.25617 1.11446e-06 0)
(1.25617 7.18485e-07 0)
(1.25617 3.0199e-07 0)
(1.25617 2.41796e-07 0)
(1.25618 -2.6549e-08 0)
(1.25617 -1.9648e-07 0)
(1.25617 4.65337e-08 0)
(1.25618 -1.76893e-07 0)
(1.24865 9.92582e-06 0)
(1.24864 1.48462e-05 0)
(1.24863 1.55497e-05 0)
(1.24862 1.5897e-05 0)
(1.24862 1.54855e-05 0)
(1.24862 1.38083e-05 0)
(1.24861 1.13476e-05 0)
(1.24861 8.7056e-06 0)
(1.24861 6.30942e-06 0)
(1.24861 4.39813e-06 0)
(1.24861 2.94497e-06 0)
(1.24861 1.90556e-06 0)
(1.24861 1.1236e-06 0)
(1.24861 6.8334e-07 0)
(1.24861 2.94e-07 0)
(1.24861 1.64932e-07 0)
(1.24861 6.17018e-08 0)
(1.24861 -1.26765e-07 0)
(1.24861 -1.77589e-07 0)
(1.24861 7.57136e-07 0)
(1.23736 2.03236e-05 0)
(1.23734 2.19498e-05 0)
(1.23734 1.97425e-05 0)
(1.23733 1.84227e-05 0)
(1.23733 1.7113e-05 0)
(1.23732 1.48629e-05 0)
(1.23732 1.20223e-05 0)
(1.23732 9.14269e-06 0)
(1.23732 6.58107e-06 0)
(1.23732 4.51596e-06 0)
(1.23732 2.95726e-06 0)
(1.23732 1.85196e-06 0)
(1.23732 1.04756e-06 0)
(1.23732 5.94032e-07 0)
(1.23732 2.32716e-07 0)
(1.23732 7.69393e-08 0)
(1.23732 1.03835e-07 0)
(1.23732 -6.38732e-08 0)
(1.23732 -2.69682e-07 0)
(1.23733 1.45846e-06 0)
(1.22089 3.04521e-05 0)
(1.22087 2.86625e-05 0)
(1.22086 2.38382e-05 0)
(1.22086 2.07931e-05 0)
(1.22085 1.83888e-05 0)
(1.22085 1.54824e-05 0)
(1.22085 1.22755e-05 0)
(1.22085 9.21667e-06 0)
(1.22085 6.56619e-06 0)
(1.22085 4.41797e-06 0)
(1.22085 2.81151e-06 0)
(1.22085 1.699e-06 0)
(1.22085 9.01089e-07 0)
(1.22086 4.56059e-07 0)
(1.22086 1.33903e-07 0)
(1.22086 -1.24127e-08 0)
(1.22086 1.21282e-07 0)
(1.22086 -2.90233e-08 0)
(1.22085 -2.9208e-07 0)
(1.22086 1.92237e-06 0)
(1.19739 3.89931e-05 0)
(1.19738 3.40985e-05 0)
(1.19738 2.71942e-05 0)
(1.19737 2.2566e-05 0)
(1.19737 1.90493e-05 0)
(1.19737 1.55426e-05 0)
(1.19737 1.20631e-05 0)
(1.19737 8.90341e-06 0)
(1.19737 6.25333e-06 0)
(1.19738 4.1235e-06 0)
(1.19738 2.53652e-06 0)
(1.19738 1.46643e-06 0)
(1.19738 7.05935e-07 0)
(1.19738 2.8565e-07 0)
(1.19738 1.67903e-08 0)
(1.19738 -9.36604e-08 0)
(1.19738 1.02303e-07 0)
(1.19738 -1.19305e-08 0)
(1.19738 -2.26334e-07 0)
(1.19738 2.14213e-06 0)
(1.16469 4.47913e-05 0)
(1.16468 3.75243e-05 0)
(1.16468 2.92546e-05 0)
(1.16468 2.33802e-05 0)
(1.16468 1.89089e-05 0)
(1.16468 1.49535e-05 0)
(1.16468 1.13577e-05 0)
(1.16469 8.21753e-06 0)
(1.16469 5.67141e-06 0)
(1.16469 3.67116e-06 0)
(1.16469 2.17096e-06 0)
(1.16469 1.17094e-06 0)
(1.16469 4.8356e-07 0)
(1.16469 1.13094e-07 0)
(1.16469 -1.02886e-07 0)
(1.16469 -1.52506e-07 0)
(1.16469 6.45469e-08 0)
(1.16469 -4.54587e-09 0)
(1.16469 -9.33712e-08 0)
(1.16469 2.09536e-06 0)
(1.12027 4.71445e-05 0)
(1.12027 3.84935e-05 0)
(1.12027 2.96481e-05 0)
(1.12027 2.29919e-05 0)
(1.12027 1.7874e-05 0)
(1.12028 1.37e-05 0)
(1.12028 1.01928e-05 0)
(1.12028 7.23382e-06 0)
(1.12028 4.88832e-06 0)
(1.12029 3.09978e-06 0)
(1.12029 1.75558e-06 0)
(1.12029 8.49085e-07 0)
(1.12029 2.54224e-07 0)
(1.12029 -3.17515e-08 0)
(1.12029 -1.95646e-07 0)
(1.12029 -1.89454e-07 0)
(1.12029 1.47685e-08 0)
(1.12029 3.91043e-09 0)
(1.12029 6.25486e-08 0)
(1.12029 1.80285e-06 0)
(1.06146 4.59085e-05 0)
(1.06146 3.69309e-05 0)
(1.06147 2.82283e-05 0)
(1.06147 2.13113e-05 0)
(1.06148 1.59821e-05 0)
(1.06148 1.1885e-05 0)
(1.06148 8.6738e-06 0)
(1.06149 6.06089e-06 0)
(1.06149 3.99999e-06 0)
(1.06149 2.4577e-06 0)
(1.06149 1.32148e-06 0)
(1.06149 5.54416e-07 0)
(1.06149 5.32457e-08 0)
(1.06149 -1.4591e-07 0)
(1.06149 -2.47357e-07 0)
(1.06149 -2.03268e-07 0)
(1.06149 -4.04302e-08 0)
(1.06149 2.70557e-08 0)
(1.06149 1.94342e-07 0)
(1.06149 1.34437e-06 0)
(0.985614 4.1499e-05 0)
(0.985625 3.31073e-05 0)
(0.985633 2.5103e-05 0)
(0.98564 1.84604e-05 0)
(0.985646 1.34167e-05 0)
(0.985651 9.71657e-06 0)
(0.985655 6.96093e-06 0)
(0.985658 4.80316e-06 0)
(0.98566 3.10277e-06 0)
(0.985661 1.82345e-06 0)
(0.985662 8.98619e-07 0)
(0.985663 3.10159e-07 0)
(0.985663 -7.80276e-08 0)
(0.985663 -2.21677e-07 0)
(0.985663 -2.7156e-07 0)
(0.985663 -1.97127e-07 0)
(0.985663 -7.48147e-08 0)
(0.985664 7.13175e-08 0)
(0.985663 2.53279e-07 0)
(0.985664 8.37209e-07 0)
(0.890433 3.47499e-05 0)
(0.890446 2.75598e-05 0)
(0.890456 2.06447e-05 0)
(0.890465 1.47857e-05 0)
(0.890472 1.04717e-05 0)
(0.890477 7.43851e-06 0)
(0.890481 5.2432e-06 0)
(0.890484 3.56063e-06 0)
(0.890485 2.25055e-06 0)
(0.890487 1.27442e-06 0)
(0.890487 5.57143e-07 0)
(0.890488 1.15619e-07 0)
(0.890488 -1.55591e-07 0)
(0.890488 -2.4359e-07 0)
(0.890488 -2.55465e-07 0)
(0.890488 -1.75545e-07 0)
(0.890488 -8.28797e-08 0)
(0.890488 1.14533e-07 0)
(0.890488 2.26358e-07 0)
(0.890488 4.14437e-07 0)
(0.774245 2.66598e-05 0)
(0.77426 2.09937e-05 0)
(0.774272 1.54513e-05 0)
(0.774281 1.0789e-05 0)
(0.774288 7.4928e-06 0)
(0.774292 5.25158e-06 0)
(0.774296 3.66213e-06 0)
(0.774298 2.46137e-06 0)
(0.7743 1.51578e-06 0)
(0.774301 8.13728e-07 0)
(0.774301 3.04477e-07 0)
(0.774302 9.57775e-10 0)
(0.774302 -1.74199e-07 0)
(0.774302 -2.23504e-07 0)
(0.774302 -2.10325e-07 0)
(0.774301 -1.43239e-07 0)
(0.774301 -6.53608e-08 0)
(0.774301 1.33628e-07 0)
(0.774301 1.45658e-07 0)
(0.774302 1.67193e-07 0)
(0.636349 1.82126e-05 0)
(0.636363 1.41914e-05 0)
(0.636375 1.02237e-05 0)
(0.636383 6.97948e-06 0)
(0.636389 4.78252e-06 0)
(0.636393 3.33734e-06 0)
(0.636396 2.31693e-06 0)
(0.636398 1.53992e-06 0)
(0.636399 9.20748e-07 0)
(0.6364 4.68651e-07 0)
(0.6364 1.45033e-07 0)
(0.6364 -4.29842e-08 0)
(0.6364 -1.46659e-07 0)
(0.6364 -1.78596e-07 0)
(0.6364 -1.53315e-07 0)
(0.6364 -1.02197e-07 0)
(0.6364 -3.66866e-08 0)
(0.6364 1.18467e-07 0)
(0.6364 6.701e-08 0)
(0.6364 8.6908e-08 0)
(0.477235 1.03503e-05 0)
(0.477248 7.95119e-06 0)
(0.477257 5.59786e-06 0)
(0.477264 3.74716e-06 0)
(0.477268 2.55506e-06 0)
(0.477272 1.78663e-06 0)
(0.477274 1.23851e-06 0)
(0.477275 8.1791e-07 0)
(0.477276 4.79692e-07 0)
(0.477277 2.38124e-07 0)
(0.477277 6.13842e-08 0)
(0.477277 -4.68146e-08 0)
(0.477277 -1.00531e-07 0)
(0.477277 -1.16958e-07 0)
(0.477277 -9.22586e-08 0)
(0.477277 -5.7826e-08 0)
(0.477277 -8.03214e-09 0)
(0.477277 7.98167e-08 0)
(0.477277 2.35772e-08 0)
(0.477277 8.31935e-08 0)
(0.298696 4.1733e-06 0)
(0.298705 3.15902e-06 0)
(0.298712 2.17169e-06 0)
(0.298716 1.43076e-06 0)
(0.298719 9.77721e-07 0)
(0.298721 6.8928e-07 0)
(0.298723 4.83316e-07 0)
(0.298724 3.25191e-07 0)
(0.298725 1.88518e-07 0)
(0.298725 8.75356e-08 0)
(0.298725 1.06659e-08 0)
(0.298725 -3.78105e-08 0)
(0.298725 -6.1108e-08 0)
(0.298725 -7.18792e-08 0)
(0.298725 -5.73931e-08 0)
(0.298725 -4.31721e-08 0)
(0.298725 -1.35226e-08 0)
(0.298725 3.00953e-08 0)
(0.298725 -1.06344e-09 0)
(0.298725 5.34018e-08 0)
(0.103742 8.22098e-07 0)
(0.103746 6.07494e-07 0)
(0.103749 4.0265e-07 0)
(0.103751 2.55372e-07 0)
(0.103752 1.74736e-07 0)
(0.103753 1.32698e-07 0)
(0.103753 1.00213e-07 0)
(0.103754 7.07433e-08 0)
(0.103754 4.11184e-08 0)
(0.103754 2.02696e-08 0)
(0.103754 5.60165e-09 0)
(0.103754 -8.53671e-09 0)
(0.103754 -1.27775e-08 0)
(0.103754 -1.76443e-08 0)
(0.103754 -1.01698e-08 0)
(0.103754 -4.1717e-10 0)
(0.103754 6.20246e-09 0)
(0.103754 1.19591e-08 0)
(0.103754 7.72518e-09 0)
(0.103754 2.98032e-08 0)
)
;

boundaryField
{
    fixedWalls
    {
        type            noSlip;
    }
    inlet
    {
        type            fixedValue;
        value           nonuniform 0();
    }
    outlet
    {
        type            zeroGradient;
    }
    frontAndBack
    {
        type            empty;
    }
    procBoundary6to2
    {
        type            processor;
        value           nonuniform List<vector> 
20
(
(1.2678 6.8974e-06 0)
(1.26781 3.99208e-06 0)
(1.26781 1.21548e-06 0)
(1.2678 3.86422e-07 0)
(1.26779 1.06487e-08 0)
(1.26778 -2.18048e-07 0)
(1.26778 -3.58716e-07 0)
(1.26778 -3.7714e-07 0)
(1.26777 -2.91819e-07 0)
(1.26777 -2.10415e-07 0)
(1.26777 -1.15244e-07 0)
(1.26777 -1.05156e-07 0)
(1.26777 -3.80575e-08 0)
(1.26777 -5.10798e-08 0)
(1.26777 4.63466e-08 0)
(1.26777 -1.50833e-07 0)
(1.26777 1.43593e-07 0)
(1.26777 3.32439e-08 0)
(1.26777 -1.3243e-06 0)
(1.26777 -3.37815e-07 0)
)
;
    }
    procBoundary6to5
    {
        type            processor;
        value           nonuniform List<vector> 
20
(
(1.26778 -3.20314e-06 0)
(1.26731 -1.40868e-05 0)
(1.26623 -2.17025e-05 0)
(1.26432 -2.40471e-05 0)
(1.26118 -2.18747e-05 0)
(1.25624 -1.53367e-05 0)
(1.24868 -5.04346e-06 0)
(1.23739 7.93386e-06 0)
(1.22091 2.19498e-05 0)
(1.19741 3.5069e-05 0)
(1.1647 4.54202e-05 0)
(1.12027 5.16077e-05 0)
(1.06145 5.29638e-05 0)
(0.985603 4.96387e-05 0)
(0.890416 4.25456e-05 0)
(0.774227 3.30854e-05 0)
(0.636331 2.27722e-05 0)
(0.477219 1.29992e-05 0)
(0.298685 5.24399e-06 0)
(0.103737 1.04745e-06 0)
)
;
    }
    procBoundary6to7
    {
        type            processor;
        value           nonuniform List<vector> 
20
(
(1.26778 -3.20624e-06 0)
(1.2673 -6.65246e-06 0)
(1.2662 -6.92829e-06 0)
(1.26427 -4.94843e-06 0)
(1.26112 -2.64772e-06 0)
(1.25617 -3.45805e-07 0)
(1.24861 1.57483e-06 0)
(1.23732 2.95184e-06 0)
(1.22085 3.73041e-06 0)
(1.19738 3.91589e-06 0)
(1.16469 3.57301e-06 0)
(1.12029 2.88041e-06 0)
(1.06149 2.07674e-06 0)
(0.985665 1.3873e-06 0)
(0.890489 9.40071e-07 0)
(0.774302 7.12593e-07 0)
(0.6364 5.75835e-07 0)
(0.477277 4.10311e-07 0)
(0.298725 2.06292e-07 0)
(0.103754 5.71365e-08 0)
)
;
    }
}


// ************************************************************************* //
