/*--------------------------------*- C++ -*----------------------------------*\
| =========                 |                                                 |
| \\      /  F ield         | OpenFOAM: The Open Source CFD Toolbox           |
|  \\    /   O peration     | Version:                                        |
|   \\  /    A nd           | Website:  www.openfoam.com                      |
|    \\/     M anipulation  |                                                 |
\*---------------------------------------------------------------------------*/
FoamFile
{
    version     2.0;
    format      ascii;
    class       volScalarField;
    location    "0.5";
    object      p;
}
// * * * * * * * * * * * * * * * * * * * * * * * * * * * * * * * * * * * * * //

dimensions      [0 2 -2 0 0 0 0];


internalField   nonuniform List<scalar> 
400
(
0.130889
0.123915
0.116977
0.110072
0.1032
0.0963597
0.0895501
0.0827705
0.0760189
0.0692956
0.0625972
0.0559267
0.0492761
0.0426563
0.0360458
0.0294779
0.0228919
0.0163878
0.00978941
0.0033968
0.130878
0.123905
0.116966
0.110062
0.10319
0.0963506
0.0895415
0.0827622
0.0760109
0.069288
0.0625899
0.0559197
0.0492696
0.04265
0.0360402
0.0294721
0.0228875
0.0163821
0.00978729
0.00338999
0.130857
0.123884
0.116946
0.110043
0.103172
0.0963331
0.0895246
0.0827461
0.0759955
0.0692732
0.0625758
0.0559062
0.049257
0.0426378
0.0360293
0.0294609
0.0228789
0.0163712
0.00978325
0.00337675
0.130825
0.123854
0.116918
0.110015
0.103146
0.0963079
0.0895005
0.082723
0.0759734
0.069252
0.0625557
0.055887
0.049239
0.0426204
0.0360137
0.029445
0.0228668
0.0163557
0.00977755
0.00335789
0.130786
0.123817
0.116882
0.109981
0.103113
0.0962765
0.0894704
0.0826941
0.0759458
0.0692255
0.0625305
0.0558629
0.0492165
0.0425987
0.0359943
0.0294252
0.0228518
0.0163365
0.00977052
0.00333449
0.130742
0.123774
0.116841
0.109942
0.103075
0.0962402
0.0894357
0.0826609
0.075914
0.0691952
0.0625017
0.0558353
0.0491907
0.0425738
0.035972
0.0294028
0.0228346
0.0163149
0.00976251
0.00330785
0.130693
0.123727
0.116796
0.109899
0.103034
0.0962009
0.0893981
0.0826249
0.0758796
0.0691623
0.0624705
0.0558055
0.0491628
0.042547
0.0359481
0.0293787
0.0228162
0.016292
0.00975393
0.00327945
0.130642
0.123678
0.11675
0.109854
0.102992
0.0961602
0.0893592
0.0825876
0.075844
0.0691283
0.0624382
0.0557747
0.049134
0.0425194
0.0359234
0.0293543
0.0227973
0.0162691
0.00974518
0.00325078
0.130591
0.12363
0.116703
0.10981
0.102949
0.0961196
0.0893203
0.0825504
0.0758086
0.0690944
0.0624061
0.0557441
0.0491055
0.0424922
0.0358991
0.0293304
0.0227789
0.0162472
0.00973662
0.00322328
0.130542
0.123583
0.116658
0.109767
0.102908
0.0960802
0.0892827
0.0825144
0.0757743
0.0690617
0.0623751
0.0557146
0.049078
0.0424661
0.0358758
0.0293079
0.0227613
0.0162272
0.0097285
0.00319824
0.130495
0.123538
0.116615
0.109726
0.102869
0.0960428
0.089247
0.0824804
0.0757418
0.0690307
0.0623459
0.0556869
0.0490522
0.0424418
0.035854
0.0292872
0.0227449
0.0162096
0.00972095
0.00317668
0.130451
0.123496
0.116575
0.109688
0.102832
0.0960079
0.0892137
0.0824486
0.0757115
0.0690019
0.0623186
0.0556611
0.0490281
0.0424192
0.0358338
0.0292685
0.0227299
0.0161947
0.00971397
0.00315934
0.13041
0.123457
0.116538
0.109652
0.102798
0.0959752
0.0891825
0.0824188
0.0756833
0.068975
0.0622932
0.0556371
0.0490057
0.0423983
0.0358149
0.0292513
0.0227158
0.016182
0.0097073
0.00314657
0.130371
0.123419
0.116502
0.109618
0.102765
0.0959441
0.0891528
0.0823906
0.0756564
0.0689494
0.062269
0.0556142
0.0489844
0.0423784
0.0357968
0.0292351
0.0227021
0.0161709
0.00970048
0.00313828
0.130332
0.123383
0.116467
0.109584
0.102733
0.0959136
0.0891237
0.0823628
0.0756299
0.0689243
0.0622451
0.0555916
0.0489631
0.0423586
0.0357786
0.0292189
0.0226878
0.0161603
0.0096927
0.00313389
0.130293
0.123345
0.116431
0.10955
0.102701
0.0958823
0.0890938
0.0823342
0.0756027
0.0688984
0.0622205
0.0555683
0.0489411
0.0423379
0.0357593
0.0292015
0.022672
0.0161489
0.00968292
0.00313236
0.130252
0.123306
0.116393
0.109514
0.102666
0.095849
0.089062
0.0823038
0.0755736
0.0688706
0.062194
0.0555431
0.0489172
0.0423153
0.035738
0.029182
0.0226536
0.0161352
0.00966987
0.00313226
0.130206
0.123261
0.116351
0.109473
0.102627
0.0958115
0.089026
0.0822693
0.0755406
0.0688391
0.0621639
0.0555142
0.0488896
0.0422891
0.0357129
0.0291586
0.0226309
0.016117
0.00965106
0.00313113
0.130147
0.123205
0.116297
0.109421
0.102577
0.0957638
0.0889802
0.0822254
0.0754985
0.0687986
0.0621251
0.055477
0.0488539
0.0422548
0.0356799
0.0291272
0.0226001
0.0160896
0.00962134
0.00312259
0.130078
0.123139
0.116233
0.10936
0.102518
0.0957069
0.0889254
0.0821727
0.0754479
0.06875
0.0620783
0.055432
0.0488106
0.0422132
0.0356397
0.0290885
0.0225621
0.0160534
0.00958189
0.00310002
)
;

boundaryField
{
    fixedWalls
    {
        type            zeroGradient;
    }
    inlet
    {
        type            zeroGradient;
    }
    outlet
    {
        type            fixedValue;
        value           uniform 0;
    }
    frontAndBack
    {
        type            empty;
    }
    procBoundary7to3
    {
        type            processor;
        value           nonuniform List<scalar> 
20
(
0.130889
0.123915
0.116977
0.110072
0.1032
0.0963597
0.0895502
0.0827706
0.076019
0.0692957
0.0625973
0.0559268
0.0492762
0.0426564
0.0360459
0.029478
0.0228919
0.0163878
0.00978945
0.00339676
)
;
    }
    procBoundary7to6
    {
        type            processor;
        value           nonuniform List<scalar> 
20
(
0.1379
0.137889
0.137866
0.137833
0.137793
0.137746
0.137695
0.137641
0.137588
0.137537
0.137488
0.137442
0.137398
0.137357
0.137317
0.137276
0.137233
0.137185
0.137124
0.137052
)
;
    }
}


// ************************************************************************* //
