/*--------------------------------*- C++ -*----------------------------------*\
| =========                 |                                                 |
| \\      /  F ield         | OpenFOAM: The Open Source CFD Toolbox           |
|  \\    /   O peration     | Version:                                        |
|   \\  /    A nd           | Website:  www.openfoam.com                      |
|    \\/     M anipulation  |                                                 |
\*---------------------------------------------------------------------------*/
FoamFile
{
    version     2.0;
    format      ascii;
    class       surfaceScalarField;
    location    "0.5";
    object      phi;
}
// * * * * * * * * * * * * * * * * * * * * * * * * * * * * * * * * * * * * * //

dimensions      [0 3 -1 0 0 0 0];
oriented        oriented;


internalField   nonuniform List<scalar> 
760
(
3.61668e-05
-4.98076e-08
3.62148e-05
-4.78667e-08
3.62609e-05
-4.59997e-08
3.63052e-05
-4.4201e-08
3.63477e-05
-4.2468e-08
3.63887e-05
-4.0795e-08
3.6428e-05
-3.91837e-08
3.64657e-05
-3.76225e-08
3.6502e-05
-3.61253e-08
3.65369e-05
-3.46617e-08
3.65703e-05
-3.32773e-08
3.66024e-05
-3.1892e-08
3.66333e-05
-3.06365e-08
3.66629e-05
-2.92916e-08
3.66914e-05
-2.82146e-08
3.67185e-05
-2.6834e-08
3.67449e-05
-2.60447e-08
3.67697e-05
-2.44965e-08
3.67943e-05
-2.4152e-08
-2.23663e-08
3.60382e-05
-9.74108e-08
3.6084e-05
-9.36213e-08
3.61279e-05
-8.99787e-08
3.61702e-05
-8.64715e-08
3.62108e-05
-8.30936e-08
3.62499e-05
-7.98335e-08
3.62874e-05
-7.66958e-08
3.63234e-05
-7.36582e-08
3.63581e-05
-7.07459e-08
3.63913e-05
-6.79023e-08
3.64232e-05
-6.52136e-08
3.64539e-05
-6.25262e-08
3.64833e-05
-6.00914e-08
3.65115e-05
-5.74877e-08
3.65387e-05
-5.54033e-08
3.65646e-05
-5.2735e-08
3.65898e-05
-5.12123e-08
3.66135e-05
-4.82227e-08
3.66369e-05
-4.75699e-08
-4.41236e-08
3.57772e-05
-1.40605e-07
3.58187e-05
-1.35133e-07
3.58586e-05
-1.29877e-07
3.5897e-05
-1.24816e-07
3.59338e-05
-1.19943e-07
3.59692e-05
-1.15242e-07
3.60032e-05
-1.10718e-07
3.60359e-05
-1.0634e-07
3.60673e-05
-1.02143e-07
3.60975e-05
-9.80481e-08
3.61264e-05
-9.41745e-08
3.61542e-05
-9.03088e-08
3.61809e-05
-8.68006e-08
3.62065e-05
-8.30627e-08
3.62311e-05
-8.00559e-08
3.62546e-05
-7.62346e-08
3.62775e-05
-7.40344e-08
3.6299e-05
-6.97587e-08
3.63202e-05
-6.88149e-08
-6.38752e-08
3.53767e-05
-1.77529e-07
3.54122e-05
-1.70615e-07
3.54463e-05
-1.63973e-07
3.5479e-05
-1.57581e-07
3.55105e-05
-1.51427e-07
3.55408e-05
-1.45492e-07
3.55698e-05
-1.39781e-07
3.55977e-05
-1.34257e-07
3.56246e-05
-1.2896e-07
3.56503e-05
-1.23798e-07
3.5675e-05
-1.18909e-07
3.56988e-05
-1.1404e-07
3.57216e-05
-1.09609e-07
3.57434e-05
-1.04913e-07
3.57645e-05
-1.01106e-07
3.57846e-05
-9.63223e-08
3.58041e-05
-9.35238e-08
3.58225e-05
-8.81823e-08
3.58406e-05
-8.69711e-08
-8.07773e-08
3.48266e-05
-2.0671e-07
3.48547e-05
-1.98649e-07
3.48816e-05
-1.90908e-07
3.49075e-05
-1.8346e-07
3.49323e-05
-1.76291e-07
3.49562e-05
-1.69378e-07
3.49792e-05
-1.62728e-07
3.50012e-05
-1.56298e-07
3.50224e-05
-1.50131e-07
3.50427e-05
-1.44126e-07
3.50622e-05
-1.38432e-07
3.5081e-05
-1.32777e-07
3.5099e-05
-1.2761e-07
3.51162e-05
-1.22171e-07
3.51328e-05
-1.17717e-07
3.51487e-05
-1.12204e-07
3.51641e-05
-1.08906e-07
3.51787e-05
-1.02769e-07
3.5193e-05
-1.01321e-07
-9.41684e-08
3.4115e-05
-2.27139e-07
3.41346e-05
-2.1827e-07
3.41535e-05
-2.09754e-07
3.41716e-05
-2.01564e-07
3.4189e-05
-1.93682e-07
3.42057e-05
-1.86084e-07
3.42217e-05
-1.78774e-07
3.42371e-05
-1.7171e-07
3.42519e-05
-1.64932e-07
3.42661e-05
-1.5834e-07
3.42798e-05
-1.5208e-07
3.42929e-05
-1.45881e-07
3.43055e-05
-1.40191e-07
3.43176e-05
-1.3425e-07
3.43292e-05
-1.29325e-07
3.43403e-05
-1.23341e-07
3.43511e-05
-1.19661e-07
3.43613e-05
-1.13031e-07
3.43714e-05
-1.11382e-07
-1.03606e-07
3.32286e-05
-2.38325e-07
3.32394e-05
-2.29007e-07
3.32497e-05
-2.20064e-07
3.32596e-05
-2.11464e-07
3.32691e-05
-2.03189e-07
3.32782e-05
-1.95215e-07
3.3287e-05
-1.87544e-07
3.32954e-05
-1.80134e-07
3.33035e-05
-1.7302e-07
3.33113e-05
-1.66109e-07
3.33187e-05
-1.59536e-07
3.33259e-05
-1.53049e-07
3.33328e-05
-1.47064e-07
3.33394e-05
-1.40873e-07
3.33457e-05
-1.35667e-07
3.33519e-05
-1.2948e-07
3.33577e-05
-1.25544e-07
3.33635e-05
-1.18737e-07
3.3369e-05
-1.16929e-07
-1.08888e-07
3.21542e-05
-2.40302e-07
3.21561e-05
-2.30897e-07
3.21579e-05
-2.21874e-07
3.21596e-05
-2.13198e-07
3.21613e-05
-2.04853e-07
3.21629e-05
-1.96812e-07
3.21644e-05
-1.89076e-07
3.21659e-05
-1.81606e-07
3.21673e-05
-1.74432e-07
3.21686e-05
-1.67471e-07
3.21699e-05
-1.60838e-07
3.21712e-05
-1.54316e-07
3.21724e-05
-1.48267e-07
3.21736e-05
-1.42071e-07
3.21747e-05
-1.3678e-07
3.21759e-05
-1.30648e-07
3.21769e-05
-1.26593e-07
3.21781e-05
-1.19917e-07
3.21792e-05
-1.17995e-07
-1.10053e-07
3.0879e-05
-2.33601e-07
3.08726e-05
-2.24454e-07
3.08664e-05
-2.1568e-07
3.08604e-05
-2.07246e-07
3.08547e-05
-1.99134e-07
3.08492e-05
-1.91319e-07
3.0844e-05
-1.83799e-07
3.08389e-05
-1.76541e-07
3.0834e-05
-1.69567e-07
3.08294e-05
-1.62807e-07
3.08249e-05
-1.56357e-07
3.08206e-05
-1.50036e-07
3.08165e-05
-1.44141e-07
3.08126e-05
-1.38168e-07
3.08088e-05
-1.32982e-07
3.08053e-05
-1.27139e-07
3.08018e-05
-1.23103e-07
3.07987e-05
-1.16841e-07
3.07956e-05
-1.14855e-07
-1.07363e-07
2.93921e-05
-2.19197e-07
2.93783e-05
-2.10615e-07
2.9365e-05
-2.02384e-07
2.93522e-05
-1.94473e-07
2.934e-05
-1.86864e-07
2.93282e-05
-1.79535e-07
2.93169e-05
-1.72482e-07
2.9306e-05
-1.65677e-07
2.92956e-05
-1.59135e-07
2.92856e-05
-1.52801e-07
2.9276e-05
-1.46748e-07
2.92668e-05
-1.40837e-07
2.92579e-05
-1.35294e-07
2.92495e-05
-1.29739e-07
2.92413e-05
-1.24835e-07
2.92337e-05
-1.19478e-07
2.92262e-05
-1.15596e-07
2.92193e-05
-1.09985e-07
2.92124e-05
-1.07989e-07
-1.01272e-07
2.76845e-05
-1.98418e-07
2.76645e-05
-1.90656e-07
2.76454e-05
-1.83212e-07
2.7627e-05
-1.76058e-07
2.76093e-05
-1.69177e-07
2.75923e-05
-1.62549e-07
2.7576e-05
-1.5617e-07
2.75603e-05
-1.50016e-07
2.75453e-05
-1.44099e-07
2.75309e-05
-1.38376e-07
2.7517e-05
-1.32899e-07
2.75037e-05
-1.27568e-07
2.7491e-05
-1.22544e-07
2.74788e-05
-1.17564e-07
2.74671e-05
-1.13095e-07
2.7456e-05
-1.08373e-07
2.74451e-05
-1.0477e-07
2.74351e-05
-9.99886e-08
2.74252e-05
-9.80441e-08
-9.23853e-08
2.57495e-05
-1.72852e-07
2.5725e-05
-1.66101e-07
2.57014e-05
-1.59627e-07
2.56787e-05
-1.53405e-07
2.5657e-05
-1.47419e-07
2.56361e-05
-1.41653e-07
2.5616e-05
-1.36104e-07
2.55968e-05
-1.30751e-07
2.55783e-05
-1.25604e-07
2.55605e-05
-1.20628e-07
2.55435e-05
-1.15862e-07
2.55272e-05
-1.11236e-07
2.55115e-05
-1.0686e-07
2.54965e-05
-1.02565e-07
2.5482e-05
-9.86525e-08
2.54683e-05
-9.46623e-08
2.5455e-05
-9.14499e-08
2.54426e-05
-8.76057e-08
2.54303e-05
-8.57772e-08
-8.14067e-08
2.35832e-05
-1.4424e-07
2.35557e-05
-1.3862e-07
2.35293e-05
-1.33231e-07
2.35039e-05
-1.2805e-07
2.34796e-05
-1.23065e-07
2.34562e-05
-1.18264e-07
2.34337e-05
-1.13642e-07
2.34122e-05
-1.09185e-07
2.33914e-05
-1.04898e-07
2.33716e-05
-1.00757e-07
2.33525e-05
-9.67868e-08
2.33342e-05
-9.29447e-08
2.33166e-05
-8.92972e-08
2.32998e-05
-8.57532e-08
2.32837e-05
-8.24791e-08
2.32683e-05
-7.92614e-08
2.32533e-05
-7.65283e-08
2.32394e-05
-7.36537e-08
2.32256e-05
-7.20093e-08
-6.90878e-08
2.11836e-05
-1.14377e-07
2.1155e-05
-1.09935e-07
2.11274e-05
-1.05676e-07
2.11009e-05
-1.01579e-07
2.10755e-05
-9.76367e-08
2.10511e-05
-9.38402e-08
2.10276e-05
-9.01847e-08
2.10051e-05
-8.66598e-08
2.09835e-05
-8.32691e-08
2.09627e-05
-7.99974e-08
2.09428e-05
-7.68581e-08
2.09237e-05
-7.38276e-08
2.09053e-05
-7.0943e-08
2.08877e-05
-6.81663e-08
2.08708e-05
-6.55714e-08
2.08547e-05
-6.31169e-08
2.08391e-05
-6.09193e-08
2.08244e-05
-5.89708e-08
2.08099e-05
-5.75769e-08
-5.61777e-08
1.85513e-05
-8.50309e-08
1.85231e-05
-8.17428e-08
1.8496e-05
-7.85881e-08
1.847e-05
-7.55538e-08
1.8445e-05
-7.26327e-08
1.84209e-05
-6.98191e-08
1.83979e-05
-6.7111e-08
1.83757e-05
-6.45e-08
1.83544e-05
-6.19882e-08
1.8334e-05
-5.95666e-08
1.83144e-05
-5.72424e-08
1.82955e-05
-5.50034e-08
1.82775e-05
-5.28684e-08
1.82601e-05
-5.08308e-08
1.82435e-05
-4.89102e-08
1.82275e-05
-4.71647e-08
1.82121e-05
-4.55188e-08
1.81975e-05
-4.43826e-08
1.81833e-05
-4.32932e-08
-4.33758e-08
1.56879e-05
-5.78785e-08
1.56618e-05
-5.56513e-08
1.56367e-05
-5.35139e-08
1.56126e-05
-5.14574e-08
1.55895e-05
-4.94775e-08
1.55672e-05
-4.75699e-08
1.55459e-05
-4.57344e-08
1.55253e-05
-4.39657e-08
1.55056e-05
-4.22641e-08
1.54867e-05
-4.06241e-08
1.54685e-05
-3.90502e-08
1.5451e-05
-3.75376e-08
1.54342e-05
-3.60946e-08
1.54181e-05
-3.47275e-08
1.54026e-05
-3.34298e-08
1.53878e-05
-3.23021e-08
1.53734e-05
-3.11803e-08
1.53598e-05
-3.06844e-08
1.53464e-05
-2.99218e-08
-3.12969e-08
1.25965e-05
-3.44655e-08
1.2574e-05
-3.31468e-08
1.25523e-05
-3.1881e-08
1.25315e-05
-3.06623e-08
1.25116e-05
-2.94897e-08
1.24923e-05
-2.83603e-08
1.24739e-05
-2.72726e-08
1.24561e-05
-2.62243e-08
1.24391e-05
-2.52171e-08
1.24227e-05
-2.42473e-08
1.2407e-05
-2.33167e-08
1.23919e-05
-2.24233e-08
1.23773e-05
-2.1572e-08
1.23634e-05
-2.07716e-08
1.235e-05
-2.0006e-08
1.2337e-05
-1.93771e-08
1.23246e-05
-1.87075e-08
1.23125e-05
-1.86363e-08
1.23008e-05
-1.81692e-08
-2.04576e-08
9.28033e-06
-1.61919e-08
9.26276e-06
-1.55768e-08
9.24586e-06
-1.4986e-08
9.22962e-06
-1.44174e-08
9.214e-06
-1.38695e-08
9.19898e-06
-1.33417e-08
9.18454e-06
-1.2834e-08
9.17066e-06
-1.23453e-08
9.15732e-06
-1.18754e-08
9.14449e-06
-1.14231e-08
9.13217e-06
-1.09903e-08
9.12032e-06
-1.05748e-08
9.10893e-06
-1.01789e-08
9.09796e-06
-9.81112e-09
9.08741e-06
-9.45442e-09
9.07722e-06
-9.18478e-09
9.06737e-06
-8.86061e-09
9.05772e-06
-8.98319e-09
9.04827e-06
-8.71554e-09
-1.12745e-08
5.74278e-06
-4.3195e-09
5.73136e-06
-4.1569e-09
5.72038e-06
-4.00096e-09
5.70981e-06
-3.85025e-09
5.69965e-06
-3.70527e-09
5.68987e-06
-3.56586e-09
5.68047e-06
-3.43158e-09
5.67143e-06
-3.30224e-09
5.66273e-06
-3.1784e-09
5.65437e-06
-3.05896e-09
5.64632e-06
-2.94494e-09
5.63858e-06
-2.83579e-09
5.63113e-06
-2.73134e-09
5.62396e-06
-2.63641e-09
5.61705e-06
-2.54089e-09
5.61034e-06
-2.48059e-09
5.60386e-06
-2.38226e-09
5.59737e-06
-2.48792e-09
5.591e-06
-2.35142e-09
-4.05809e-09
1.98658e-06
1.98242e-06
1.97842e-06
1.97457e-06
1.97087e-06
1.9673e-06
1.96387e-06
1.96057e-06
1.95739e-06
1.95433e-06
1.95138e-06
1.94855e-06
1.94582e-06
1.94318e-06
1.94064e-06
1.93816e-06
1.93578e-06
1.93329e-06
1.93094e-06
)
;

boundaryField
{
    fixedWalls
    {
        type            calculated;
        value           uniform 0;
    }
    inlet
    {
        type            calculated;
        value           nonuniform 0();
    }
    outlet
    {
        type            calculated;
        value           nonuniform List<scalar> 
20
(
3.68171e-05
3.66587e-05
3.634e-05
3.58575e-05
3.52064e-05
3.43808e-05
3.33743e-05
3.21804e-05
3.07929e-05
2.92063e-05
2.74163e-05
2.54194e-05
2.32133e-05
2.0797e-05
1.81705e-05
1.53343e-05
1.22899e-05
9.03908e-06
5.58379e-06
1.92688e-06
)
;
    }
    frontAndBack
    {
        type            empty;
        value           nonuniform 0();
    }
    procBoundary7to3
    {
        type            processor;
        value           nonuniform List<scalar> 
20
(
-7.11702e-11
-7.88514e-11
-8.53571e-11
-9.44918e-11
-1.05095e-10
-1.17925e-10
-1.31071e-10
-1.44614e-10
-1.6031e-10
-1.76773e-10
-1.94128e-10
-2.14142e-10
-2.37026e-10
-2.56906e-10
-2.81616e-10
-3.03813e-10
-3.3188e-10
-3.57786e-10
-3.84434e-10
-4.22813e-10
)
;
    }
    procBoundary7to6
    {
        type            processor;
        value           nonuniform List<scalar> 
20
(
-3.6117e-05
-3.59906e-05
-3.5734e-05
-3.53398e-05
-3.47974e-05
-3.40946e-05
-3.32174e-05
-3.21522e-05
-3.08857e-05
-2.94065e-05
-2.77053e-05
-2.57751e-05
-2.36118e-05
-2.12135e-05
-1.85806e-05
-1.57151e-05
-1.26199e-05
-9.2986e-06
-5.75466e-06
-1.9909e-06
)
;
    }
}


// ************************************************************************* //
