/*--------------------------------*- C++ -*----------------------------------*\
| =========                 |                                                 |
| \\      /  F ield         | OpenFOAM: The Open Source CFD Toolbox           |
|  \\    /   O peration     | Version:                                        |
|   \\  /    A nd           | Website:  www.openfoam.com                      |
|    \\/     M anipulation  |                                                 |
\*---------------------------------------------------------------------------*/
FoamFile
{
    version     2.0;
    format      ascii;
    class       volVectorField;
    location    "0.5";
    object      U;
}
// * * * * * * * * * * * * * * * * * * * * * * * * * * * * * * * * * * * * * //

dimensions      [0 1 -1 0 0 0 0];


internalField   nonuniform List<vector> 
400
(
(1.4457 -0.000503218 0)
(1.44765 -0.000483525 0)
(1.44953 -0.000464569 0)
(1.45134 -0.000446288 0)
(1.45308 -0.000428653 0)
(1.45474 -0.000411601 0)
(1.45635 -0.000395172 0)
(1.45789 -0.000379245 0)
(1.45937 -0.000363946 0)
(1.46079 -0.000348976 0)
(1.46215 -0.000334801 0)
(1.46347 -0.000320583 0)
(1.46472 -0.000307656 0)
(1.46595 -0.000293839 0)
(1.46707 -0.000282707 0)
(1.46826 -0.000268512 0)
(1.4692 -0.000260251 0)
(1.47043 -0.00024431 0)
(1.47107 -0.000240538 0)
(1.4726 -0.000222067 0)
(1.4406 -0.00148938 0)
(1.44246 -0.00143142 0)
(1.44426 -0.0013757 0)
(1.44598 -0.00132204 0)
(1.44764 -0.00127034 0)
(1.44923 -0.00122044 0)
(1.45076 -0.0011724 0)
(1.45223 -0.00112588 0)
(1.45364 -0.00108128 0)
(1.455 -0.00103771 0)
(1.4563 -0.000996507 0)
(1.45756 -0.000955291 0)
(1.45875 -0.000917968 0)
(1.45992 -0.000877998 0)
(1.46099 -0.000846046 0)
(1.46212 -0.000805041 0)
(1.46302 -0.000781673 0)
(1.4642 -0.000735734 0)
(1.46481 -0.000725618 0)
(1.46627 -0.000672745 0)
(1.43024 -0.00240761 0)
(1.43194 -0.00231397 0)
(1.43356 -0.00222397 0)
(1.43513 -0.00213733 0)
(1.43663 -0.00205389 0)
(1.43808 -0.00197336 0)
(1.43946 -0.00189588 0)
(1.4408 -0.00182087 0)
(1.44208 -0.00174897 0)
(1.44331 -0.00167879 0)
(1.44449 -0.00161242 0)
(1.44563 -0.00154612 0)
(1.44671 -0.00148603 0)
(1.44777 -0.00142185 0)
(1.44874 -0.00137039 0)
(1.44977 -0.00130469 0)
(1.45058 -0.00126706 0)
(1.45165 -0.00119352 0)
(1.4522 -0.0011773 0)
(1.45353 -0.00109251 0)
(1.41434 -0.00321736 0)
(1.41579 -0.00309212 0)
(1.41718 -0.00297181 0)
(1.41852 -0.00285601 0)
(1.4198 -0.00274451 0)
(1.42104 -0.00263695 0)
(1.42222 -0.00253345 0)
(1.42336 -0.00243332 0)
(1.42446 -0.00233732 0)
(1.42551 -0.00224369 0)
(1.42651 -0.00215509 0)
(1.42749 -0.00206675 0)
(1.42841 -0.00198648 0)
(1.42932 -0.00190114 0)
(1.43015 -0.00183227 0)
(1.43102 -0.00174517 0)
(1.43172 -0.00169466 0)
(1.43264 -0.00159732 0)
(1.43311 -0.00157546 0)
(1.43424 -0.00146292 0)
(1.39249 -0.00388476 0)
(1.39364 -0.00373337 0)
(1.39474 -0.00358798 0)
(1.39579 -0.00344807 0)
(1.39681 -0.00331338 0)
(1.39778 -0.00318349 0)
(1.39872 -0.00305852 0)
(1.39962 -0.00293767 0)
(1.40048 -0.00282178 0)
(1.40131 -0.00270887 0)
(1.4021 -0.00260189 0)
(1.40288 -0.00249548 0)
(1.4036 -0.00239846 0)
(1.40432 -0.00229594 0)
(1.40497 -0.00221246 0)
(1.40567 -0.00210827 0)
(1.40622 -0.00204669 0)
(1.40694 -0.00193054 0)
(1.40731 -0.00190357 0)
(1.40821 -0.00176869 0)
(1.3642 -0.00438467 0)
(1.365 -0.00421356 0)
(1.36577 -0.00404928 0)
(1.36651 -0.00389123 0)
(1.36722 -0.00373912 0)
(1.3679 -0.00359248 0)
(1.36855 -0.0034514 0)
(1.36918 -0.00331502 0)
(1.36979 -0.0031842 0)
(1.37037 -0.00305688 0)
(1.37092 -0.00293607 0)
(1.37146 -0.00281627 0)
(1.37197 -0.00270656 0)
(1.37247 -0.0025915 0)
(1.37293 -0.00249675 0)
(1.37341 -0.00238046 0)
(1.3738 -0.00230999 0)
(1.37431 -0.00218084 0)
(1.37457 -0.00214947 0)
(1.3752 -0.00199863 0)
(1.32893 -0.00470193 0)
(1.32936 -0.00451819 0)
(1.32978 -0.00434183 0)
(1.33019 -0.00417222 0)
(1.33058 -0.004009 0)
(1.33095 -0.0038517 0)
(1.33131 -0.00370037 0)
(1.33165 -0.00355415 0)
(1.33198 -0.00341382 0)
(1.3323 -0.00327741 0)
(1.3326 -0.00314777 0)
(1.3329 -0.00301962 0)
(1.33317 -0.0029017 0)
(1.33345 -0.00277911 0)
(1.3337 -0.00267679 0)
(1.33397 -0.00255375 0)
(1.33417 -0.00247686 0)
(1.33446 -0.00234099 0)
(1.3346 -0.00230601 0)
(1.33495 -0.00214623 0)
(1.28613 -0.00483201 0)
(1.28621 -0.00464297 0)
(1.28628 -0.00446158 0)
(1.28635 -0.00428716 0)
(1.28642 -0.00411935 0)
(1.28648 -0.00395766 0)
(1.28655 -0.00380212 0)
(1.28661 -0.00365188 0)
(1.28666 -0.00350763 0)
(1.28672 -0.00336758 0)
(1.28677 -0.00323425 0)
(1.28682 -0.00310292 0)
(1.28687 -0.00298142 0)
(1.28692 -0.00285635 0)
(1.28696 -0.00275037 0)
(1.28702 -0.00262593 0)
(1.28705 -0.00254528 0)
(1.28711 -0.00240903 0)
(1.28713 -0.00237132 0)
(1.28721 -0.00220989 0)
(1.23529 -0.0047808 0)
(1.23503 -0.00459363 0)
(1.23478 -0.00441406 0)
(1.23453 -0.00424144 0)
(1.2343 -0.00407539 0)
(1.23408 -0.00391542 0)
(1.23386 -0.00376151 0)
(1.23365 -0.00361292 0)
(1.23346 -0.00347018 0)
(1.23327 -0.00333175 0)
(1.23308 -0.00319976 0)
(1.23291 -0.00307021 0)
(1.23274 -0.00294969 0)
(1.23258 -0.00282692 0)
(1.23242 -0.00272119 0)
(1.23228 -0.00260036 0)
(1.23214 -0.00251872 0)
(1.232 -0.00238808 0)
(1.2319 -0.00234861 0)
(1.23173 -0.00219276 0)
(1.17597 -0.00456375 0)
(1.1754 -0.00438503 0)
(1.17486 -0.00421361 0)
(1.17434 -0.00404885 0)
(1.17384 -0.00389037 0)
(1.17336 -0.00373772 0)
(1.1729 -0.00359084 0)
(1.17245 -0.00344908 0)
(1.17203 -0.00331283 0)
(1.17162 -0.00318086 0)
(1.17123 -0.00305483 0)
(1.17085 -0.00293155 0)
(1.17049 -0.00281624 0)
(1.17014 -0.00270005 0)
(1.16981 -0.0025983 0)
(1.16949 -0.00248543 0)
(1.1692 -0.00240556 0)
(1.16888 -0.00228582 0)
(1.16868 -0.00224564 0)
(1.16828 -0.00210219 0)
(1.10779 -0.00420435 0)
(1.10697 -0.00403978 0)
(1.10619 -0.00388195 0)
(1.10544 -0.00373027 0)
(1.10472 -0.00358437 0)
(1.10402 -0.00344385 0)
(1.10336 -0.00330861 0)
(1.10272 -0.00317814 0)
(1.10211 -0.00305269 0)
(1.10152 -0.0029313 0)
(1.10095 -0.00281521 0)
(1.10041 -0.00270203 0)
(1.09989 -0.00259563 0)
(1.09939 -0.00248958 0)
(1.09892 -0.00239515 0)
(1.09845 -0.00229374 0)
(1.09803 -0.00221828 0)
(1.09757 -0.00211365 0)
(1.09727 -0.00207392 0)
(1.09669 -0.00194901 0)
(1.03048 -0.0037323 0)
(1.02948 -0.00358638 0)
(1.02852 -0.00344647 0)
(1.02759 -0.00331199 0)
(1.02671 -0.00318262 0)
(1.02585 -0.00305803 0)
(1.02503 -0.00293811 0)
(1.02425 -0.00282244 0)
(1.02349 -0.0027112 0)
(1.02277 -0.00260365 0)
(1.02207 -0.00250066 0)
(1.02141 -0.00240058 0)
(1.02077 -0.00230605 0)
(1.02015 -0.00221285 0)
(1.01957 -0.00212851 0)
(1.01899 -0.00204104 0)
(1.01848 -0.00197238 0)
(1.01791 -0.00188576 0)
(1.01753 -0.00184773 0)
(1.01683 -0.00174657 0)
(0.943887 -0.00318141 0)
(0.942766 -0.0030573 0)
(0.941689 -0.00293828 0)
(0.940654 -0.00282387 0)
(0.93966 -0.00271379 0)
(0.938706 -0.00260779 0)
(0.937789 -0.00250573 0)
(0.936909 -0.00240732 0)
(0.936064 -0.00231266 0)
(0.935252 -0.0022212 0)
(0.934474 -0.00213353 0)
(0.933727 -0.00204859 0)
(0.93301 -0.00196806 0)
(0.932321 -0.00188947 0)
(0.931667 -0.00181729 0)
(0.931024 -0.00174512 0)
(0.930443 -0.00168531 0)
(0.92981 -0.00161812 0)
(0.929377 -0.00158311 0)
(0.928591 -0.00150968 0)
(0.847931 -0.00258754 0)
(0.84676 -0.0024869 0)
(0.845636 -0.00239038 0)
(0.844556 -0.00229757 0)
(0.843518 -0.00220825 0)
(0.842522 -0.00212225 0)
(0.841564 -0.00203943 0)
(0.840645 -0.00195958 0)
(0.839762 -0.00188277 0)
(0.838915 -0.00180862 0)
(0.838101 -0.00173748 0)
(0.837321 -0.00166875 0)
(0.836572 -0.00160338 0)
(0.835852 -0.0015402 0)
(0.835166 -0.00148143 0)
(0.834496 -0.00142485 0)
(0.833884 -0.00137537 0)
(0.833226 -0.00132748 0)
(0.832762 -0.00129686 0)
(0.831945 -0.0012536 0)
(0.742626 -0.00198677 0)
(0.741476 -0.00190979 0)
(0.74037 -0.00183595 0)
(0.739309 -0.00176493 0)
(0.738288 -0.00169656 0)
(0.737308 -0.00163072 0)
(0.736367 -0.00156733 0)
(0.735462 -0.00150622 0)
(0.734594 -0.00144742 0)
(0.73376 -0.00139072 0)
(0.732959 -0.0013363 0)
(0.732191 -0.00128383 0)
(0.731453 -0.00123383 0)
(0.730744 -0.00118593 0)
(0.730068 -0.00114093 0)
(0.729408 -0.00109928 0)
(0.7288 -0.00106088 0)
(0.728156 -0.00103067 0)
(0.727685 -0.00100569 0)
(0.726885 -0.000993055 0)
(0.628049 -0.00141372 0)
(0.626984 -0.0013592 0)
(0.625961 -0.00130688 0)
(0.624978 -0.00125655 0)
(0.624034 -0.0012081 0)
(0.623126 -0.00116142 0)
(0.622254 -0.0011165 0)
(0.621416 -0.0010732 0)
(0.620611 -0.00103154 0)
(0.619838 -0.000991386 0)
(0.619096 -0.000952849 0)
(0.618383 -0.000915775 0)
(0.617698 -0.000880409 0)
(0.61704 -0.000846804 0)
(0.616411 -0.000814992 0)
(0.615799 -0.000786776 0)
(0.61523 -0.000759362 0)
(0.614634 -0.000743913 0)
(0.614182 -0.000725398 0)
(0.61344 -0.000741334 0)
(0.504318 -0.000900023 0)
(0.5034 -0.000865507 0)
(0.502518 -0.000832376 0)
(0.501669 -0.000800488 0)
(0.500854 -0.000769792 0)
(0.50007 -0.000740223 0)
(0.499317 -0.000711761 0)
(0.498593 -0.000684335 0)
(0.497898 -0.000657963 0)
(0.49723 -0.000632558 0)
(0.496588 -0.00060818 0)
(0.495971 -0.000584773 0)
(0.495379 -0.000562455 0)
(0.494809 -0.000541409 0)
(0.494263 -0.000521348 0)
(0.493732 -0.000504436 0)
(0.493235 -0.000487012 0)
(0.49272 -0.00048234 0)
(0.492313 -0.000470239 0)
(0.491663 -0.000509351 0)
(0.371572 -0.000475108 0)
(0.370855 -0.000457009 0)
(0.370166 -0.000439631 0)
(0.369503 -0.000422899 0)
(0.368866 -0.000406794 0)
(0.368254 -0.00039128 0)
(0.367665 -0.000376345 0)
(0.367099 -0.000361957 0)
(0.366554 -0.000348134 0)
(0.366031 -0.000334829 0)
(0.365528 -0.000322079 0)
(0.365045 -0.000309846 0)
(0.364581 -0.000298192 0)
(0.364133 -0.00028731 0)
(0.363704 -0.000276844 0)
(0.363287 -0.000268626 0)
(0.362893 -0.000259364 0)
(0.362488 -0.000260831 0)
(0.362155 -0.00025396 0)
(0.361628 -0.000305756 0)
(0.229944 -0.000173068 0)
(0.229479 -0.000166538 0)
(0.229031 -0.000160269 0)
(0.2286 -0.000154227 0)
(0.228185 -0.000148406 0)
(0.227787 -0.000142802 0)
(0.227403 -0.000137413 0)
(0.227035 -0.000132223 0)
(0.22668 -0.000127241 0)
(0.226339 -0.000122445 0)
(0.226011 -0.000117865 0)
(0.225695 -0.000113475 0)
(0.225392 -0.00010929 0)
(0.225099 -0.000105451 0)
(0.224818 -0.000101671 0)
(0.224545 -9.90853e-05 0)
(0.224285 -9.55188e-05 0)
(0.224018 -9.85633e-05 0)
(0.22379 -9.52351e-05 0)
(0.223418 -0.000141718 0)
(0.079548 -2.88323e-05 0)
(0.0793785 -2.77619e-05 0)
(0.0792154 -2.67356e-05 0)
(0.0790584 -2.5743e-05 0)
(0.0789074 -2.47886e-05 0)
(0.078762 -2.3871e-05 0)
(0.0786221 -2.29869e-05 0)
(0.0784875 -2.21343e-05 0)
(0.0783579 -2.13211e-05 0)
(0.0782332 -2.0541e-05 0)
(0.0781132 -1.98014e-05 0)
(0.0779976 -1.90928e-05 0)
(0.0778863 -1.84112e-05 0)
(0.077779 -1.78107e-05 0)
(0.0776757 -1.71917e-05 0)
(0.077575 -1.69066e-05 0)
(0.0774789 -1.62106e-05 0)
(0.0773796 -1.75993e-05 0)
(0.0772919 -1.67557e-05 0)
(0.0771284 -3.58694e-05 0)
)
;

boundaryField
{
    fixedWalls
    {
        type            noSlip;
    }
    inlet
    {
        type            fixedValue;
        value           nonuniform 0();
    }
    outlet
    {
        type            zeroGradient;
    }
    frontAndBack
    {
        type            empty;
    }
    procBoundary7to3
    {
        type            processor;
        value           nonuniform List<vector> 
20
(
(1.4457 0.00050606 0)
(1.44765 0.000486659 0)
(1.44953 0.000467999 0)
(1.45134 0.00045009 0)
(1.45307 0.000432887 0)
(1.45474 0.000416319 0)
(1.45635 0.000400405 0)
(1.45789 0.000385035 0)
(1.45937 0.000370349 0)
(1.46079 0.000356031 0)
(1.46215 0.000342575 0)
(1.46347 0.000329144 0)
(1.46472 0.000317099 0)
(1.46595 0.000304108 0)
(1.46707 0.000293979 0)
(1.46825 0.00028066 0)
(1.4692 0.00027353 0)
(1.47043 0.000258623 0)
(1.47107 0.000255926 0)
(1.4726 0.000238983 0)
)
;
    }
    procBoundary7to6
    {
        type            processor;
        value           nonuniform List<vector> 
20
(
(1.44366 -0.000523626 0)
(1.43865 -0.00154944 0)
(1.42848 -0.00250471 0)
(1.41284 -0.00334724 0)
(1.3913 -0.00404183 0)
(1.36337 -0.00456225 0)
(1.32847 -0.0048927 0)
(1.28605 -0.00502837 0)
(1.23557 -0.00497532 0)
(1.17656 -0.00474955 0)
(1.10864 -0.00437551 0)
(1.03153 -0.00388412 0)
(0.945055 -0.00331061 0)
(0.849149 -0.00269236 0)
(0.743823 -0.00206697 0)
(0.629156 -0.00147054 0)
(0.505273 -0.000936014 0)
(0.372317 -0.000493987 0)
(0.230428 -0.000179888 0)
(0.0797241 -2.99543e-05 0)
)
;
    }
}


// ************************************************************************* //
