/*--------------------------------*- C++ -*----------------------------------*\
| =========                 |                                                 |
| \\      /  F ield         | OpenFOAM: The Open Source CFD Toolbox           |
|  \\    /   O peration     | Version:                                        |
|   \\  /    A nd           | Website:  www.openfoam.com                      |
|    \\/     M anipulation  |                                                 |
\*---------------------------------------------------------------------------*/
FoamFile
{
    version     2.0;
    format      ascii;
    class       volScalarField;
    location    "183";
    object      p;
}
// * * * * * * * * * * * * * * * * * * * * * * * * * * * * * * * * * * * * * //

dimensions      [0 2 -2 0 0 0 0];


internalField   nonuniform List<scalar> 
1147
(
-0.302343
-0.250186
-0.233831
-0.230168
-0.223918
-0.219267
-0.208359
-0.20526
-0.234763
-0.233365
-0.318957
-0.258535
-0.240525
-0.235727
-0.226308
-0.216084
-0.214899
-0.184894
-0.200806
-0.227214
-0.341113
-0.277049
-0.257304
-0.245773
-0.23352
-0.208693
-0.19868
-0.201158
-0.197062
-0.194654
-0.348404
-0.301544
-0.285826
-0.26934
-0.23991
-0.219561
-0.20235
-0.193047
-0.183035
-0.168202
-0.328124
-0.319936
-0.320234
-0.295825
-0.258913
-0.226325
-0.200626
-0.181266
-0.164492
-0.145872
-0.278917
-0.30612
-0.327375
-0.301322
-0.258961
-0.22047
-0.19041
-0.166869
-0.146081
-0.126065
-0.205482
-0.255896
-0.280136
-0.267191
-0.234843
-0.201527
-0.173289
-0.149831
-0.128103
-0.107687
-0.137607
-0.188593
-0.217882
-0.21609
-0.198421
-0.175248
-0.152251
-0.131013
-0.110465
-0.0900697
-0.0877222
-0.134378
-0.163502
-0.168467
-0.162583
-0.147409
-0.130587
-0.111767
-0.093302
-0.0735084
-0.0596599
-0.100081
-0.12396
-0.132756
-0.131644
-0.122377
-0.109442
-0.0935519
-0.076565
-0.0582215
-0.0847265
-0.0987867
-0.108734
-0.106573
-0.10123
-0.0900143
-0.0766896
-0.0608366
-0.0439282
-0.0776205
-0.0862478
-0.0908068
-0.0880928
-0.0828782
-0.0734452
-0.061274
-0.04665
-0.0306919
-0.0791344
-0.0769655
-0.0738458
-0.0673518
-0.0589098
-0.0476858
-0.0339038
-0.0186489
-0.072124
-0.0667174
-0.0617065
-0.0543736
-0.045863
-0.0354901
-0.0226133
-0.00785371
-0.0582417
-0.0509417
-0.0432815
-0.0344706
-0.0243289
-0.012827
0.00149893
-0.0496571
-0.0412046
-0.033366
-0.0245416
-0.0144055
-0.00378528
0.00913547
-0.0408396
-0.0325765
-0.0238994
-0.0156732
-0.00562142
0.00476374
0.0159612
-0.0236139
-0.0152959
-0.00701414
0.00212399
0.0127021
0.022486
-0.0147641
-0.0074188
0.00123304
0.00910278
0.0195409
0.028797
-0.00754121
0.000384184
0.0083446
0.0162246
0.0250973
0.0345025
-1.17532
-1.07544
-0.954279
-0.83049
-0.719288
-0.631959
-0.570194
-0.520366
-0.464787
-0.389385
-1.15545
-1.0599
-0.939491
-0.809413
-0.692801
-0.603358
-0.541519
-0.50192
-0.4657
-0.406344
-1.18557
-1.08176
-0.95108
-0.806928
-0.676854
-0.575637
-0.515232
-0.492008
-0.475194
-0.430479
-1.11814
-0.979807
-0.817089
-0.670363
-0.557779
-0.499598
-0.470269
-0.456057
-0.420452
-0.540143
-0.460184
-0.421974
-0.403292
-0.36908
-0.424541
-0.365621
-0.324226
-0.284565
-0.304859
-0.243593
-0.199304
-0.165776
-0.12608
-0.0687603
0.038939
0.042679
0.0466863
0.0504756
0.0538211
0.0567437
0.0592193
0.0612711
0.0631485
0.0646969
0.0657951
0.0665664
0.0670905
0.0673777
0.0674942
0.0675172
0.0674491
0.0673026
0.0670598
0.0667229
0.0663182
0.0658884
0.0653873
0.0648702
0.064364
0.0638528
0.0634086
0.0630026
0.0625992
0.0624079
0.0304657
0.0365635
0.042473
0.0474829
0.0521229
0.0558747
0.0586456
0.0609519
0.0631152
0.06474
0.0658192
0.0666538
0.067234
0.067496
0.0675827
0.0675495
0.067395
0.0671819
0.0668924
0.0665166
0.0660846
0.0656328
0.0650936
0.0645719
0.0640695
0.0635574
0.0631126
0.062703
0.0623313
0.0621626
0.0234648
0.0302535
0.0370604
0.0438743
0.0501501
0.0545092
0.0575049
0.0602972
0.06289
0.0646017
0.065746
0.0667485
0.0673809
0.0676418
0.067747
0.0676698
0.06744
0.0671564
0.0668095
0.0663852
0.0659387
0.0654586
0.0648685
0.0643361
0.0638127
0.0632858
0.0628375
0.0624194
0.0620654
0.0619089
0.0157975
0.0243643
0.0331251
0.0414609
0.0479917
0.0520079
0.0552645
0.0589486
0.0620553
0.0637262
0.0650248
0.0662822
0.0669739
0.067317
0.0675578
0.0675299
0.0673212
0.0670384
0.0666661
0.066205
0.0657748
0.0652679
0.0646512
0.0641295
0.0635756
0.0630351
0.0625812
0.06215
0.0618024
0.0616491
0.00788661
0.0159825
0.026781
0.0372882
0.0445403
0.0483091
0.0521824
0.0569978
0.0602237
0.0617692
0.063592
0.0651949
0.0659215
0.0664614
0.0669006
0.0669572
0.0668547
0.0666449
0.0662978
0.0658445
0.0654719
0.0649354
0.064348
0.0638688
0.0632976
0.0627682
0.0623171
0.0618794
0.0615365
0.0613841
0.0619575
0.0636002
0.0643374
0.0652249
0.0658171
0.0659769
0.0660561
0.0659548
0.0656537
0.0652757
0.0649708
0.0644036
0.0639229
0.0634962
0.0629368
0.0624538
0.0620196
0.0615932
0.0612617
0.0611146
0.152976
0.140318
0.128524
0.118295
0.106461
0.0940563
0.0801157
0.0669045
0.0554717
0.0433439
0.15655
0.144445
0.13255
0.120781
0.107196
0.0938615
0.0792274
0.064544
0.0522523
0.0394094
0.160778
0.148032
0.134703
0.121062
0.105762
0.0912708
0.0763232
0.0606589
0.0478589
0.0348348
0.166132
0.151476
0.136027
0.120215
0.103189
0.0872577
0.072226
0.0562447
0.0424479
0.029658
0.171707
0.154694
0.136827
0.118955
0.10039
0.0829619
0.0673697
0.0515148
0.0364337
0.0232651
0.176685
0.157212
0.136944
0.117233
0.0974184
0.0785616
0.0619042
0.0458845
0.0299551
0.0155575
0.180683
0.158762
0.136255
0.114745
0.0938682
0.0738028
0.0557659
0.039028
0.0224922
0.00685726
0.183558
0.159355
0.134693
0.111311
0.0892299
0.0680292
0.048645
0.0308923
0.0136925
-0.00296905
0.185346
0.158828
0.132174
0.106711
0.0831798
0.0608719
0.040205
0.0214649
0.0035065
-0.0139412
0.18615
0.157032
0.128359
0.100808
0.0754424
0.0520698
0.0302595
0.010569
-0.00809118
-0.0261401
0.185865
0.153736
0.122669
0.0931648
0.0658441
0.0412932
0.0185491
-0.00200241
-0.0212409
-0.0397706
0.183907
0.148578
0.114653
0.0830568
0.0539645
0.0281302
0.00467039
-0.0164492
-0.0360096
-0.054984
0.17951
0.140783
0.10383
0.0699468
0.0392013
0.0121536
-0.0117757
-0.0330429
-0.0524462
-0.0716132
0.172101
0.129572
0.0895082
0.0531804
0.0209693
-0.00693548
-0.0313018
-0.052157
-0.070886
-0.089395
0.160699
0.113852
0.0706096
0.0318984
-0.0018143
-0.0298998
-0.0542993
-0.0743767
-0.0916788
-0.108754
0.14397
0.092289
0.0456812
0.00507363
-0.0297964
-0.0575124
-0.0809629
-0.0998022
-0.115303
-0.130254
0.119765
0.0628082
0.0121624
-0.0296875
-0.0640451
-0.0906615
-0.111435
-0.127767
-0.141712
-0.154801
0.0865797
0.0239964
-0.0316903
-0.0768033
-0.109524
-0.131855
-0.145492
-0.155455
-0.167289
-0.182595
0.0426917
-0.0239498
-0.0820563
-0.12929
-0.162081
-0.179387
-0.180976
-0.1761
-0.176815
-0.202666
-0.0364858
-0.113925
-0.173689
-0.215904
-0.237368
-0.238383
-0.221072
-0.19098
-0.168069
-0.185837
0.20348
0.194327
0.181616
0.167179
0.21686
0.207789
0.196644
0.183438
0.168565
0.235464
0.231307
0.224275
0.213946
0.201474
0.1881
0.17352
0.239789
0.245574
0.247745
0.246184
0.241053
0.233181
0.222253
0.208958
0.19507
0.180238
0.253049
0.258661
0.26048
0.258495
0.252593
0.243796
0.232477
0.218614
0.203493
0.18751
0.267857
0.273464
0.274992
0.272653
0.266151
0.256193
0.243989
0.229285
0.212557
0.194672
0.284322
0.290096
0.29133
0.288418
0.281269
0.27007
0.256199
0.24009
0.221535
0.201226
0.302356
0.308322
0.309214
0.305401
0.297329
0.28483
0.268774
0.25057
0.229856
0.206876
0.321798
0.327842
0.328304
0.323298
0.313913
0.299901
0.281436
0.260616
0.237354
0.211596
0.342562
0.348492
0.348404
0.342021
0.330877
0.315003
0.293992
0.270248
0.244078
0.215476
0.364603
0.370252
0.369483
0.361631
0.348279
0.330071
0.306354
0.279418
0.249985
0.218323
0.387934
0.393191
0.39154
0.382134
0.366255
0.345237
0.318446
0.28796
0.254861
0.219712
0.412486
0.417304
0.414605
0.403438
0.384714
0.360459
0.330161
0.295661
0.258414
0.219209
0.438101
0.442426
0.438506
0.425293
0.403375
0.375355
0.341077
0.302018
0.260081
0.216271
0.464446
0.468228
0.462921
0.447245
0.421664
0.389178
0.350393
0.306194
0.258824
0.209862
0.490963
0.494204
0.487194
0.468637
0.43901
0.401247
0.357093
0.307046
0.253508
0.198605
0.516645
0.519446
0.510156
0.488263
0.45408
0.410468
0.359969
0.302861
0.2425
0.180758
0.540135
0.542679
0.530519
0.504588
0.465334
0.415236
0.357346
0.292062
0.223862
0.154654
0.559076
0.561199
0.545923
0.514807
0.469564
0.412132
0.34486
0.270523
0.193532
0.116238
0.571295
0.572699
0.554371
0.518138
0.46646
0.399491
0.319171
0.232635
0.140774
0.0491863
0.168846
0.191464
0.181039
0.169532
0.156719
0.145887
0.1365
0.128633
0.1218
0.115541
0.109788
0.104653
0.100033
0.0958101
0.0919226
0.0883421
0.0851476
0.0823531
0.079961
0.0778998
0.0760698
0.0744077
0.0728871
0.0715352
0.0703715
0.0693824
0.0685437
0.0678393
0.0672604
0.066791
0.0663785
0.0659301
0.0662633
0.0660449
0.154369
0.1434
0.134603
0.127204
0.120511
0.114139
0.108202
0.102821
0.0980083
0.0937786
0.0900119
0.0866111
0.083563
0.0808476
0.0785008
0.0764991
0.0747962
0.0733198
0.0719977
0.0708115
0.0697682
0.0688728
0.0681126
0.0674789
0.0669712
0.06657
0.0662128
0.0657674
0.065886
0.0656459
0.148433
0.141273
0.134546
0.127924
0.12132
0.114899
0.108778
0.103029
0.0977705
0.0931105
0.0890289
0.0855026
0.0824497
0.0797902
0.0774761
0.0754714
0.0737752
0.0723559
0.071154
0.0701088
0.0691929
0.0684036
0.0677282
0.0671631
0.0667172
0.0663782
0.0660766
0.0656344
0.065477
0.0652139
0.136067
0.132249
0.128785
0.123799
0.118353
0.112813
0.107296
0.101925
0.0968033
0.0920551
0.0878036
0.0841605
0.0811086
0.0785822
0.076435
0.0745436
0.0728826
0.0714744
0.0703166
0.0693584
0.068551
0.0678697
0.0672883
0.0667992
0.0664148
0.0661375
0.0658995
0.0654744
0.0650694
0.0647845
0.122242
0.116842
0.113872
0.110177
0.106574
0.102715
0.0987348
0.0947935
0.0910197
0.0874452
0.0841388
0.0811751
0.0786215
0.0765376
0.0748128
0.0732879
0.0718829
0.0706083
0.0695105
0.0685977
0.0678521
0.0672485
0.0667497
0.0663373
0.0660172
0.0658024
0.0656345
0.0652569
0.0646972
0.0643978
0.113076
0.106211
0.101179
0.0965321
0.0932923
0.090447
0.0878154
0.0853567
0.0830877
0.0810153
0.0791251
0.0773552
0.0757186
0.0742922
0.0730701
0.0719749
0.0709246
0.0699039
0.0689407
0.068072
0.0673333
0.0667356
0.0662566
0.0658768
0.0655937
0.0654182
0.0653036
0.0649886
0.0643679
0.0640614
0.103174
0.0981604
0.0935723
0.0885568
0.0851767
0.0825108
0.0805793
0.079026
0.0776528
0.0764164
0.0753298
0.0743539
0.073438
0.0725693
0.0717683
0.071008
0.0702579
0.0694926
0.0687046
0.0679148
0.0671735
0.066526
0.0659915
0.0655693
0.0652612
0.0650714
0.0649638
0.0646964
0.06408
0.0637733
0.0915945
0.0889567
0.0869847
0.083654
0.0810033
0.0784416
0.0766711
0.0754404
0.0745526
0.0738205
0.0731763
0.0725836
0.0720268
0.0714797
0.0709434
0.0704197
0.0698806
0.0692995
0.0686729
0.0679907
0.0672829
0.0665998
0.0659918
0.0654796
0.0650872
0.0648239
0.0646663
0.0644089
0.0638255
0.0635239
0.0784498
0.0764791
0.0761531
0.0752084
0.0748848
0.0740187
0.0733682
0.0727564
0.0722672
0.0718789
0.0715429
0.0712155
0.0708956
0.0705622
0.0702395
0.069905
0.0695211
0.0690813
0.0685856
0.0680223
0.0673993
0.0667441
0.0661086
0.0655239
0.0650354
0.0646682
0.0644223
0.064137
0.0635902
0.0632991
0.0671404
0.0663625
0.0668762
0.0666174
0.0674472
0.067941
0.0685819
0.0689741
0.0692713
0.069489
0.0696263
0.0696647
0.069615
0.0695099
0.0693811
0.069218
0.0689946
0.0686868
0.0683038
0.0678509
0.0673311
0.0667545
0.0661512
0.0655482
0.0650003
0.0645425
0.0642045
0.0638727
0.0633587
0.0630843
0.0567815
0.0570712
0.058548
0.0588347
0.0609161
0.0625679
0.0642493
0.0654973
0.0664589
0.0671721
0.0677092
0.0680769
0.0683071
0.0684253
0.0684651
0.0684435
0.0683444
0.0681492
0.0678555
0.0674829
0.0670483
0.0665588
0.0660158
0.0654404
0.0648839
0.0643765
0.0639723
0.0635987
0.0631181
0.0628679
0.0464246
0.0492059
0.0518948
0.0541461
0.0565046
0.0586518
0.0608399
0.0627227
0.0643247
0.0655691
0.066432
0.067005
0.0673917
0.0676267
0.0677548
0.0678017
0.0677699
0.0676426
0.0673999
0.0670654
0.0666657
0.0662278
0.065727
0.0651904
0.0646587
0.0641408
0.0637045
0.0633068
0.0628639
0.0626432
)
;

boundaryField
{
    outlet
    {
        type            fixedValue;
        value           nonuniform 0();
    }
    upperWall
    {
        type            symmetryPlane;
    }
    lowerWall
    {
        type            symmetryPlane;
    }
    inlet
    {
        type            zeroGradient;
    }
    cylinder
    {
        type            zeroGradient;
    }
    frontAndBack
    {
        type            empty;
    }
    procBoundary1to0
    {
        type            processor;
        value           nonuniform List<scalar> 
45
(
0.210418
0.210418
0.198033
0.225758
0.222795
0.222795
0.227824
0.233769
0.236352
0.236352
0.166427
0.18515
0.178064
0.178064
0.198033
0.157378
0.147247
0.138086
0.13028
0.123542
0.11748
0.111933
0.10688
0.102178
0.0977446
0.0936446
0.0899468
0.0867207
0.083923
0.0814732
0.0792653
0.0772156
0.0753349
0.0736516
0.0721964
0.0709657
0.0699159
0.0690122
0.0682411
0.067592
0.0670571
0.0665948
0.0661492
0.0666018
0.0664053
)
;
    }
    procBoundary1to2
    {
        type            processor;
        value           nonuniform List<scalar> 
63
(
-0.0529545
-0.0368306
-0.0529545
-0.0610867
-0.0740848
-0.0740848
-0.0757539
-0.0650821
-0.0650821
-0.0590994
-0.0526188
-0.0325958
-0.0325958
-0.0243849
-0.016962
-0.000555312
-1.22385
-1.22385
-1.15222
-1.00974
-0.831516
-0.669859
-0.669859
-0.519619
-0.519619
-0.380004
-0.380004
-0.245578
-0.245578
-0.104016
-0.104016
-0.0368306
-0.000555312
0.00929053
0.0216265
0.0334456
0.0401306
0.0433982
0.049112
0.0551063
0.0576995
0.0593564
0.0593564
0.0603588
0.0617013
0.0626999
0.0639161
0.064505
0.0648075
0.0650592
0.0650419
0.0648163
0.064589
0.0643073
0.0637494
0.0634191
0.0630193
0.0625052
0.0620903
0.0616846
0.0612894
0.0609761
0.060842
)
;
    }
    procBoundary1to5
    {
        type            processor;
        value           nonuniform List<scalar> 
20
(
-1.23897
-1.22702
-1.25704
0.229659
0.242739
0.257256
0.273219
0.290604
0.309411
0.329611
0.351145
0.373939
0.397869
0.422737
0.448216
0.473687
0.498174
0.520442
0.538147
0.549131
)
;
    }
}


// ************************************************************************* //
