/*--------------------------------*- C++ -*----------------------------------*\
| =========                 |                                                 |
| \\      /  F ield         | OpenFOAM: The Open Source CFD Toolbox           |
|  \\    /   O peration     | Version:                                        |
|   \\  /    A nd           | Website:  www.openfoam.com                      |
|    \\/     M anipulation  |                                                 |
\*---------------------------------------------------------------------------*/
FoamFile
{
    version     2.0;
    format      ascii;
    class       volVectorField;
    location    "15.7";
    object      U;
}
// * * * * * * * * * * * * * * * * * * * * * * * * * * * * * * * * * * * * * //

dimensions      [0 1 -1 0 0 0 0];


internalField   nonuniform List<vector> 
1164
(
(0.485469 0.0244348 -3.19624e-23)
(0.676496 0.0743807 2.66929e-21)
(0.832155 0.111868 -4.66713e-21)
(0.897949 0.139576 1.79157e-21)
(0.890286 0.148547 -5.25282e-21)
(0.848154 0.150823 -3.45088e-20)
(0.56761 0.0186376 3.01239e-22)
(0.744322 0.0572984 -5.3922e-21)
(0.878274 0.0860893 3.99195e-21)
(0.917455 0.106634 8.13773e-21)
(0.887445 0.112721 4.90423e-21)
(0.841801 0.115093 8.19064e-21)
(0.842811 0.125061 -5.61393e-21)
(0.873627 0.138733 3.58193e-21)
(0.896678 0.149911 -1.61947e-20)
(0.912118 0.174354 1.26805e-20)
(0.633996 0.0144965 -6.52971e-22)
(0.798439 0.0436445 1.54977e-21)
(0.914716 0.0656541 -9.55682e-22)
(0.933289 0.0816577 -1.6925e-21)
(0.887896 0.0873674 -7.78812e-23)
(0.843367 0.0908946 1.92442e-20)
(0.853326 0.10089 1.21855e-20)
(0.884225 0.11269 4.65045e-21)
(0.900514 0.123993 7.94988e-21)
(0.911417 0.145842 -1.25281e-20)
(0.685563 0.0116803 -2.83277e-23)
(0.840228 0.033572 -9.02411e-22)
(0.944266 0.049251 8.00421e-22)
(0.948392 0.0614946 -2.7027e-21)
(0.892472 0.066781 -7.81332e-21)
(0.849243 0.0716206 -1.88255e-20)
(0.864902 0.081461 -5.60969e-21)
(0.895542 0.0912313 -4.06339e-21)
(0.907263 0.0999649 1.03203e-20)
(0.915182 0.119231 7.61246e-21)
(0.726258 0.00956006 5.62979e-22)
(0.871264 0.0271604 1.28105e-22)
(0.965341 0.0380413 2.82896e-21)
(0.959706 0.0457852 1.03989e-21)
(0.898376 0.0489754 2.8492e-21)
(0.858384 0.0541499 9.60097e-21)
(0.876822 0.0639874 -3.93915e-21)
(0.905966 0.073447 5.94504e-22)
(0.915376 0.078432 -2.76441e-21)
(0.920219 0.0950834 7.16821e-21)
(0.761366 0.00781361 -2.91781e-22)
(0.896667 0.0225457 1.68741e-21)
(0.979012 0.0314344 2.28308e-23)
(0.964428 0.0360674 -2.43761e-22)
(0.9025 0.0372265 2.96136e-21)
(0.870024 0.0414486 3.4513e-23)
(0.891756 0.0499733 -3.99986e-21)
(0.916724 0.0599919 -5.60868e-21)
(0.924041 0.0624883 -3.42578e-22)
(0.927103 0.075401 2.08194e-21)
(0.791284 0.00625582 8.3387e-23)
(0.919313 0.0174608 -1.90166e-21)
(0.9914 0.0253496 -4.5545e-21)
(0.967758 0.0302976 3.04735e-21)
(0.905209 0.0315587 -1.24368e-21)
(0.879779 0.0348666 3.93277e-22)
(0.906589 0.0403122 4.1462e-21)
(0.927976 0.0495323 -4.49993e-22)
(0.931112 0.0519011 -6.30866e-21)
(0.93349 0.0609187 -5.84644e-21)
(0.814802 0.00511888 -3.00328e-22)
(0.937358 0.0131332 8.29147e-23)
(1.00546 0.0185314 4.0969e-22)
(0.97595 0.023923 -1.32014e-21)
(0.909721 0.0256025 -1.79637e-21)
(0.886095 0.0291655 -2.38456e-21)
(0.91626 0.0325774 2.21109e-21)
(0.938697 0.0396021 -4.32693e-21)
(0.938581 0.0427585 3.1356e-21)
(0.938391 0.0497636 2.20084e-21)
(0.834267 0.0046571 1.92224e-22)
(0.949617 0.0117884 9.6657e-22)
(1.01488 0.0146784 1.30917e-22)
(0.98259 0.0175916 -3.26232e-22)
(0.914624 0.0180796 -1.94754e-21)
(0.893083 0.0219611 -1.1696e-21)
(0.92373 0.0258004 -3.11347e-21)
(0.947796 0.0315263 2.90375e-21)
(0.947603 0.034285 -4.866e-22)
(0.943938 0.0402432 -2.52067e-21)
(0.854157 0.00422521 5.38914e-23)
(0.960789 0.0113631 -3.40115e-22)
(1.01814 0.0139454 1.12348e-21)
(0.982631 0.0147086 -1.52455e-21)
(0.917748 0.0143418 3.0593e-21)
(0.902699 0.0175145 1.70664e-21)
(0.93455 0.0212319 -2.23422e-21)
(0.956279 0.0266545 -3.94417e-23)
(0.955632 0.0283744 -3.62244e-21)
(0.950368 0.0325989 1.09358e-21)
(0.872492 0.00331828 -6.6669e-23)
(0.97281 0.00892412 -4.72384e-23)
(1.02214 0.0119472 8.77867e-22)
(0.983072 0.0136937 -4.46905e-22)
(0.920405 0.0142104 -2.43277e-21)
(0.909676 0.0166011 8.52408e-22)
(0.943967 0.018384 1.63649e-21)
(0.96328 0.0226542 2.62363e-21)
(0.960522 0.0242836 1.7515e-21)
(0.954902 0.0268085 -5.47382e-21)
(0.885882 0.00255526 8.96272e-23)
(0.982441 0.00619651 -5.66359e-22)
(1.02971 0.00817773 -2.07411e-22)
(0.989292 0.0108137 2.66836e-21)
(0.924918 0.0116352 1.55821e-23)
(0.912947 0.0140672 7.65943e-22)
(0.947903 0.0149922 -7.18901e-22)
(0.968645 0.0178219 4.38679e-22)
(0.965174 0.0199919 4.5682e-23)
(0.958398 0.0218539 2.9767e-21)
(0.896339 0.00260035 -1.03256e-22)
(0.987824 0.0060851 2.83187e-22)
(1.0338 0.00673134 -1.46022e-22)
(0.992923 0.00768933 -1.68469e-21)
(0.928366 0.00719172 -4.84346e-22)
(0.917196 0.00965971 -1.52202e-21)
(0.951639 0.0117017 -1.6546e-22)
(0.973841 0.0142622 -7.10738e-22)
(0.9707 0.0164257 -1.50378e-21)
(0.96201 0.0179912 -3.59831e-21)
(0.909833 0.00286931 9.9118e-23)
(0.994014 0.0072024 -3.79111e-22)
(1.03351 0.00799481 -6.18444e-22)
(0.99043 0.00750907 2.24733e-22)
(0.92971 0.00628305 1.2383e-21)
(0.924444 0.00812492 -6.51639e-22)
(0.959781 0.0104169 -4.12272e-22)
(0.980213 0.0129045 5.5972e-22)
(0.975964 0.0144164 4.22754e-22)
(0.966124 0.0153268 1.60522e-22)
(0.925067 0.00266865 -6.8219e-23)
(1.00275 0.00673655 3.36433e-22)
(1.03462 0.00829361 2.21655e-22)
(0.988471 0.00867358 -7.863e-23)
(0.93066 0.00844465 -8.08389e-22)
(0.929349 0.0098061 4.62026e-22)
(0.965981 0.0106951 -8.82571e-23)
(0.984558 0.0121653 -1.01081e-21)
(0.978787 0.0132583 9.88963e-22)
(0.968886 0.0135589 -6.10706e-23)
(0.938044 0.00218219 -5.86938e-25)
(1.01087 0.00506471 5.77586e-24)
(1.03952 0.00617538 7.50734e-22)
(0.992232 0.00752277 -1.45598e-22)
(0.934213 0.00820222 -3.11546e-22)
(0.931273 0.00999255 -1.45774e-22)
(0.967011 0.0101577 8.42992e-22)
(0.986598 0.0106901 -7.54709e-22)
(0.981074 0.0118834 -8.76287e-22)
(0.97083 0.012139 1.28094e-21)
(0.947714 0.00195177 -1.39915e-23)
(1.01489 0.00427274 2.20653e-24)
(1.04206 0.0041953 -6.26764e-22)
(0.995673 0.00459993 5.53325e-22)
(0.93882 0.00484507 2.78331e-22)
(0.934344 0.00721123 -4.99283e-22)
(0.967225 0.00832178 -7.10937e-23)
(0.988136 0.00884895 5.08147e-22)
(0.983838 0.010066 -1.74077e-22)
(0.972514 0.0105342 3.88208e-22)
(0.958138 0.00194141 2.6069e-23)
(1.01792 0.00459716 6.05542e-23)
(1.0402 0.004134 1.18934e-22)
(0.994467 0.00312817 -1.39401e-22)
(0.942895 0.00257018 3.44763e-22)
(0.941518 0.00475208 7.21856e-22)
(0.97161 0.00671519 5.60171e-22)
(0.990838 0.0074122 2.68445e-22)
(0.987081 0.00803612 1.64067e-22)
(0.975637 0.00845058 3.85063e-22)
(0.969614 0.00186611 2.5842e-23)
(1.02234 0.00468435 -1.83728e-22)
(1.03708 0.00493231 3.71234e-23)
(0.990409 0.00393871 -1.73381e-22)
(0.945042 0.00358706 2.14947e-23)
(0.94837 0.00522431 1.78462e-23)
(0.976374 0.00681403 -6.74809e-22)
(0.99155 0.00716282 5.2613e-23)
(0.98779 0.00700811 3.81405e-22)
(0.978435 0.00705291 -1.31814e-22)
(0.980946 0.00156947 -1.73224e-23)
(1.02859 0.00368633 6.51443e-23)
(1.03801 0.00439074 1.65123e-22)
(0.990433 0.0045491 1.6601e-22)
(0.948617 0.00537384 2.90391e-23)
(0.953202 0.00695686 -5.37131e-22)
(0.97891 0.00770321 5.3273e-22)
(0.990531 0.00760623 -2.36044e-22)
(0.987077 0.00712894 -5.95315e-22)
(0.980778 0.00681772 -2.9612e-22)
(0.988689 0.00118901 -8.00402e-24)
(1.03219 0.00203347 1.68982e-23)
(1.04064 0.00204578 -1.47385e-22)
(0.995031 0.00282141 -2.04173e-22)
(0.955061 0.00486276 1.8366e-22)
(0.956829 0.00699171 -1.03261e-22)
(0.978868 0.00759074 -3.10461e-22)
(0.98833 0.0073871 -3.804e-22)
(0.985262 0.00715064 2.9828e-22)
(0.981169 0.00672759 1.05049e-22)
(0.993095 0.000767447 -2.56607e-24)
(1.03134 0.000492594 4.21311e-24)
(1.04117 -0.000973694 6.16817e-23)
(1.0018 -0.000841798 2.6412e-22)
(0.965325 0.00152369 -1.71969e-22)
(0.963254 0.00428585 1.31772e-22)
(0.980038 0.00529415 1.08698e-22)
(0.987607 0.00521075 3.17921e-22)
(0.984649 0.00530477 6.87255e-23)
(0.981721 0.0051303 -7.79446e-23)
(0.993579 0.00038925 -1.18619e-23)
(1.02495 -0.000484597 2.34618e-23)
(1.03555 -0.00314841 1.66726e-23)
(1.00526 -0.00409164 -2.3114e-22)
(0.975176 -0.00240594 1.39427e-22)
(0.97068 0.000209162 -5.67428e-23)
(0.981636 0.00142139 -1.3541e-22)
(0.986851 0.00152754 4.72271e-23)
(0.984269 0.0018593 1.37804e-23)
(0.982423 0.0023373 3.07162e-22)
(0.992692 9.61577e-05 4.73303e-25)
(1.01663 -0.000970101 -3.23292e-24)
(1.02641 -0.00407854 5.0433e-23)
(1.00542 -0.00577095 1.15329e-23)
(0.983051 -0.00508085 4.32879e-23)
(0.977917 -0.0032798 1.39461e-22)
(0.984129 -0.00247368 -9.42543e-23)
(0.987668 -0.00231472 -9.4834e-25)
(0.986514 -0.00194132 -1.84009e-22)
(0.985807 -0.000842301 -2.80003e-22)
(0.989865 -5.10102e-05 -5.74341e-25)
(1.00718 -0.000991291 3.76069e-23)
(1.01512 -0.00380902 -4.73389e-23)
(1.00158 -0.00561628 5.17226e-23)
(0.986062 -0.00567928 -8.08377e-23)
(0.981311 -0.00477138 -1.31318e-22)
(0.984753 -0.00445681 1.53438e-22)
(0.988155 -0.00428608 1.5688e-23)
(0.989352 -0.00377685 5.93338e-23)
(0.989697 -0.00260217 1.6689e-22)
(0.988173 -6.87569e-05 -1.93397e-26)
(1.00022 -0.000829889 -1.51925e-23)
(1.00611 -0.00297157 -8.75338e-24)
(0.99771 -0.00452148 -2.86798e-24)
(0.987243 -0.00486776 -1.88425e-23)
(0.983394 -0.00453807 6.23212e-23)
(0.98597 -0.00443134 -7.49258e-24)
(0.99054 -0.00428207 3.68373e-23)
(0.993981 -0.00380329 -1.48441e-24)
(0.994765 -0.00286604 -3.32658e-24)
(0.985754 4.24112e-05 -3.49544e-24)
(0.993999 -0.000263817 1.05251e-23)
(0.998293 -0.00161117 5.23056e-25)
(0.993295 -0.00255177 2.96372e-23)
(0.986413 -0.00275644 -4.65894e-23)
(0.983604 -0.00242923 -9.86007e-24)
(0.986002 -0.00217529 -5.28668e-23)
(0.991353 -0.00194812 -1.08095e-23)
(0.996245 -0.00161948 -9.81926e-24)
(0.99779 -0.00108498 -5.59513e-23)
(0.987227 0.000149246 6.14132e-24)
(0.992512 0.000104353 -1.01907e-24)
(0.995414 -0.000547985 -2.05209e-23)
(0.992624 -0.00101814 -7.03509e-25)
(0.988348 -0.000948915 -1.46082e-23)
(0.986556 -0.000556205 4.49829e-23)
(0.988668 -0.000117866 6.12465e-24)
(0.993617 9.11495e-05 -1.00203e-23)
(0.9984 0.000263593 1.16236e-24)
(1.0002 0.000371468 8.25785e-24)
(0.986996 0.000284322 1.22736e-24)
(0.990588 0.000701365 2.0764e-24)
(0.992812 0.000571464 3.31331e-24)
(0.991513 0.000642317 -1.59763e-23)
(0.989041 0.000987441 1.17874e-23)
(0.987952 0.00167329 -1.17327e-23)
(0.989463 0.00230541 1.66976e-23)
(0.993282 0.00265775 -8.24316e-24)
(0.997784 0.00264711 4.2202e-24)
(1.00064 0.00252386 -7.58322e-24)
(0.992472 0.000283235 -5.01278e-25)
(0.994136 0.000746555 1.26658e-24)
(0.995302 0.000953052 -2.67807e-25)
(0.994965 0.00120443 -2.59693e-24)
(0.994066 0.0016019 3.85275e-24)
(0.99355 0.00211946 -3.79042e-24)
(0.993995 0.00265332 5.02719e-24)
(0.995485 0.00295443 -6.27846e-24)
(0.997989 0.00307679 -7.89672e-25)
(1.00042 0.00297334 3.49097e-24)
(0.970503 0.130795 0)
(0.952026 0.167275 0)
(0.988757 0.126242 0)
(0.983811 0.144123 0)
(1.00063 0.12436 0)
(1.00757 0.121267 0)
(1.01526 0.1136 0)
(1.02213 0.105277 0)
(1.02783 0.096971 0)
(1.03265 0.0886358 0)
(1.03632 0.0803964 0)
(1.03904 0.0723411 0)
(1.04091 0.064466 0)
(1.04188 0.0570113 0)
(1.04219 0.0499304 0)
(1.04184 0.0433933 0)
(1.04103 0.0373482 0)
(1.03976 0.03188 0)
(1.03831 0.0268918 0)
(1.03653 0.0224908 0)
(1.03476 0.0185385 0)
(1.03289 0.0150716 0)
(1.0311 0.0120137 0)
(1.02941 0.00932404 0)
(1.02792 0.00694562 0)
(1.02668 0.00481423 0)
(1.02577 0.00284453 0)
(1.02531 0.000965963 0)
(0.931226 0.129819 0)
(0.933991 0.154994 0)
(0.958985 0.115098 0)
(0.943666 0.150888 0)
(0.979842 0.111539 0)
(0.97376 0.132573 0)
(0.991908 0.111173 0)
(0.997656 0.11235 0)
(1.00582 0.104773 0)
(1.01267 0.0978149 0)
(1.01872 0.090908 0)
(1.02383 0.0838036 0)
(1.02799 0.0767301 0)
(1.03141 0.0695415 0)
(1.0339 0.0625557 0)
(1.03567 0.055745 0)
(1.03663 0.0492777 0)
(1.03703 0.0431401 0)
(1.03679 0.0374277 0)
(1.03624 0.0321077 0)
(1.03519 0.0273042 0)
(1.034 0.0229271 0)
(1.03258 0.0190074 0)
(1.0311 0.0155119 0)
(1.02961 0.0124142 0)
(1.02821 0.0096556 0)
(1.02693 0.00720648 0)
(1.02587 0.00499422 0)
(1.0251 0.00294408 0)
(1.02464 0.0010218 0)
(0.930002 0.111481 0)
(0.932255 0.131956 0)
(0.951876 0.0996768 0)
(0.938873 0.133681 0)
(0.972529 0.0973185 0)
(0.965813 0.11995 0)
(0.984542 0.0982978 0)
(0.989549 0.10294 0)
(0.998093 0.0951449 0)
(1.005 0.0898716 0)
(1.01119 0.0841838 0)
(1.01652 0.0784276 0)
(1.02115 0.0723504 0)
(1.02499 0.0661699 0)
(1.02803 0.0599995 0)
(1.03026 0.0539355 0)
(1.03186 0.0480174 0)
(1.03273 0.0423657 0)
(1.0332 0.03696 0)
(1.03301 0.031969 0)
(1.03256 0.0273188 0)
(1.03174 0.0230668 0)
(1.03076 0.0192054 0)
(1.02956 0.0157479 0)
(1.02838 0.0126313 0)
(1.02716 0.00986126 0)
(1.02605 0.0073797 0)
(1.02509 0.00512557 0)
(1.02435 0.0030394 0)
(1.02394 0.000923342 0)
(0.930764 0.0931324 0)
(0.933344 0.108517 0)
(0.948965 0.083271 0)
(0.937667 0.114883 0)
(0.967536 0.0822364 0)
(0.96057 0.105913 0)
(0.978675 0.0854981 0)
(0.983009 0.0926926 0)
(0.991623 0.0851713 0)
(0.998429 0.0814945 0)
(1.00446 0.0771831 0)
(1.00994 0.0724403 0)
(1.01471 0.0674222 0)
(1.01888 0.0622035 0)
(1.02219 0.0569922 0)
(1.02497 0.0516515 0)
(1.02696 0.0464085 0)
(1.02848 0.0412284 0)
(1.02926 0.0362984 0)
(1.02966 0.031602 0)
(1.02959 0.0271792 0)
(1.02923 0.0230899 0)
(1.02854 0.0193503 0)
(1.02773 0.0159361 0)
(1.02679 0.0128555 0)
(1.02583 0.01008 0)
(1.02492 0.0075697 0)
(1.02415 0.00527852 0)
(1.02356 0.0031282 0)
(1.02328 0.00110554 0)
(0.93335 0.0768719 0)
(0.935585 0.0883901 0)
(0.949448 0.0685009 0)
(0.939868 0.0970821 0)
(0.9656 0.0681044 0)
(0.959022 0.0920866 0)
(0.97546 0.073164 0)
(0.979058 0.0824207 0)
(0.987457 0.0751055 0)
(0.993724 0.0732115 0)
(0.999572 0.0700566 0)
(1.0049 0.0663559 0)
(1.00967 0.0623124 0)
(1.01378 0.0580194 0)
(1.01734 0.0535351 0)
(1.02029 0.0489 0)
(1.02269 0.0442638 0)
(1.02444 0.0396816 0)
(1.0257 0.035207 0)
(1.02648 0.0308489 0)
(1.02685 0.0267144 0)
(1.02678 0.022845 0)
(1.02651 0.0192309 0)
(1.02595 0.0159175 0)
(1.0253 0.0128832 0)
(1.02455 0.0101314 0)
(1.02382 0.00761679 0)
(1.02316 0.00531023 0)
(1.02267 0.00314384 0)
(1.02234 0.00107317 0)
(0.937585 0.0638631 0)
(0.937908 0.0728946 0)
(0.950459 0.0571738 0)
(0.943431 0.0819558 0)
(0.965048 0.0565515 0)
(0.959216 0.0797364 0)
(0.974071 0.0619954 0)
(0.976704 0.0727501 0)
(0.984648 0.0653995 0)
(0.990163 0.0653199 0)
(0.995648 0.0629807 0)
(1.00074 0.0602054 0)
(1.00539 0.0571117 0)
(1.00958 0.0536464 0)
(1.01326 0.0499407 0)
(1.01643 0.0459879 0)
(1.01897 0.0420158 0)
(1.02102 0.0379632 0)
(1.02257 0.0339056 0)
(1.02374 0.0299307 0)
(1.02433 0.0261338 0)
(1.02471 0.0224833 0)
(1.02466 0.0190611 0)
(1.02445 0.015871 0)
(1.024 0.0129262 0)
(1.02348 0.0102202 0)
(1.0229 0.00772621 0)
(1.02237 0.0054134 0)
(1.02193 0.00322998 0)
(1.0217 0.000969081 0)
(0.941926 0.0530169 0)
(0.941623 0.0600772 0)
(0.952084 0.0481974 0)
(0.947384 0.0692057 0)
(0.965561 0.0468526 0)
(0.960565 0.0691583 0)
(0.973953 0.0522587 0)
(0.97572 0.0638835 0)
(0.982976 0.0565249 0)
(0.987669 0.0580134 0)
(0.992679 0.0562004 0)
(0.99735 0.0541688 0)
(1.00173 0.051743 0)
(1.00574 0.0489638 0)
(1.00939 0.0459505 0)
(1.0125 0.0427354 0)
(1.01519 0.0394152 0)
(1.01737 0.0358795 0)
(1.01928 0.0322829 0)
(1.02051 0.0287568 0)
(1.02154 0.0252653 0)
(1.02207 0.0218804 0)
(1.02238 0.0186742 0)
(1.02237 0.0156311 0)
(1.02222 0.0127984 0)
(1.02191 0.0101593 0)
(1.02156 0.0077045 0)
(1.02119 0.00541071 0)
(1.02088 0.00321597 0)
(1.02075 0.00116996 0)
(0.945632 0.043792 0)
(0.946375 0.0491587 0)
(0.955588 0.0402847 0)
(0.951474 0.0585192 0)
(0.966539 0.0387171 0)
(0.963069 0.0600037 0)
(0.974358 0.0440994 0)
(0.975843 0.0560466 0)
(0.982296 0.0487648 0)
(0.986307 0.0514391 0)
(0.99093 0.0499116 0)
(0.995294 0.0485269 0)
(0.999387 0.0467549 0)
(1.00325 0.0445972 0)
(1.00659 0.0422522 0)
(1.0097 0.0396317 0)
(1.01223 0.0368178 0)
(1.01473 0.0337048 0)
(1.01654 0.0306252 0)
(1.01814 0.0274984 0)
(1.01929 0.0243161 0)
(1.02016 0.0212445 0)
(1.02066 0.0182351 0)
(1.02095 0.0153699 0)
(1.02098 0.0126475 0)
(1.02088 0.0100953 0)
(1.02066 0.00769376 0)
(1.02038 0.00543145 0)
(1.02014 0.00324417 0)
(1.0199 0.00111177 0)
(0.949707 0.0363371 0)
(0.950882 0.0405016 0)
(0.96029 0.0335125 0)
(0.956068 0.0493682 0)
(0.967526 0.0322236 0)
(0.966058 0.0518158 0)
(0.974966 0.037097 0)
(0.976313 0.0490825 0)
(0.982035 0.0417506 0)
(0.985317 0.0453729 0)
(0.9896 0.0437258 0)
(0.993429 0.0429448 0)
(0.9973 0.0416458 0)
(1.00074 0.0401953 0)
(1.00403 0.0384485 0)
(1.00688 0.0364095 0)
(1.00964 0.034009 0)
(1.01198 0.0313851 0)
(1.01392 0.0287937 0)
(1.01559 0.0259629 0)
(1.01691 0.0231699 0)
(1.01789 0.020357 0)
(1.01863 0.017612 0)
(1.01905 0.0149338 0)
(1.0193 0.0123815 0)
(1.01935 0.00994158 0)
(1.0193 0.00763127 0)
(1.0192 0.0054148 0)
(1.01908 0.00327047 0)
(1.01902 0.000951631 0)
(0.953448 0.0302741 0)
(0.954555 0.0335519 0)
(0.964315 0.028078 0)
(0.960662 0.0414828 0)
(0.968765 0.026959 0)
(0.969038 0.0446703 0)
(0.976052 0.0311123 0)
(0.977266 0.0429815 0)
(0.982325 0.0357294 0)
(0.985058 0.0400885 0)
(0.988884 0.0383006 0)
(0.992208 0.038039 0)
(0.995576 0.03718 0)
(0.998613 0.0362029 0)
(1.00157 0.0348956 0)
(1.0043 0.0332241 0)
(1.00698 0.0312292 0)
(1.00921 0.0291966 0)
(1.0112 0.0269522 0)
(1.01298 0.0245262 0)
(1.01434 0.0220458 0)
(1.01555 0.0195237 0)
(1.01636 0.016998 0)
(1.01703 0.0145193 0)
(1.01742 0.0120984 0)
(1.01769 0.00976594 0)
(1.01781 0.00750729 0)
(1.01789 0.00534102 0)
(1.0179 0.00320133 0)
(1.01799 0.00118397 0)
(0.956727 0.0248569 0)
(0.958568 0.0274925 0)
(0.968463 0.0233878 0)
(0.965124 0.0348255 0)
(0.970793 0.0222828 0)
(0.972621 0.0383868 0)
(0.977818 0.0258512 0)
(0.979123 0.0373611 0)
(0.983428 0.0302814 0)
(0.985775 0.035219 0)
(0.98917 0.033223 0)
(0.992032 0.0335448 0)
(0.995026 0.0330242 0)
(0.997727 0.0324961 0)
(1.00048 0.0314704 0)
(1.00303 0.030087 0)
(1.00552 0.0285463 0)
(1.00752 0.0268852 0)
(1.00964 0.0249588 0)
(1.01125 0.0228886 0)
(1.01284 0.0207357 0)
(1.01398 0.0184836 0)
(1.01501 0.0162243 0)
(1.01571 0.0139244 0)
(1.01625 0.0116888 0)
(1.01658 0.00946752 0)
(1.01677 0.00731997 0)
(1.01685 0.00521827 0)
(1.01691 0.00313693 0)
(1.01683 0.00113561 0)
(0.959377 0.0207352 0)
(0.962395 0.0229541 0)
(0.972751 0.0197363 0)
(0.968739 0.0296622 0)
(0.972318 0.0188243 0)
(0.975928 0.0332369 0)
(0.979 0.0218391 0)
(0.980532 0.0326356 0)
(0.984055 0.0258638 0)
(0.986016 0.0310518 0)
(0.988935 0.0288672 0)
(0.991386 0.0296522 0)
(0.993902 0.0292676 0)
(0.99641 0.0290215 0)
(0.998832 0.0281731 0)
(1.00139 0.0271857 0)
(1.00347 0.0260852 0)
(1.00569 0.0247278 0)
(1.00754 0.0230997 0)
(1.00935 0.0213759 0)
(1.01085 0.0194677 0)
(1.01218 0.0175391 0)
(1.01327 0.0154651 0)
(1.01416 0.01342 0)
(1.01484 0.0113233 0)
(1.01535 0.00925776 0)
(1.01569 0.00719761 0)
(1.01591 0.00514932 0)
(1.01604 0.00312665 0)
(1.01609 0.000852608 0)
(0.962609 0.0178433 0)
(0.966217 0.0197669 0)
(0.977125 0.0169312 0)
(0.972614 0.0253323 0)
(0.974135 0.0161443 0)
(0.979539 0.0288207 0)
(0.980748 0.0184218 0)
(0.982408 0.0285978 0)
(0.985464 0.0220027 0)
(0.986947 0.027404 0)
(0.989656 0.0249698 0)
(0.991582 0.0262661 0)
(0.993906 0.0258929 0)
(0.995914 0.0258202 0)
(0.998216 0.0250275 0)
(1.00022 0.0243848 0)
(1.00221 0.0235513 0)
(1.00417 0.0223917 0)
(1.00598 0.0211445 0)
(1.00766 0.0196293 0)
(1.00915 0.018083 0)
(1.01047 0.0163263 0)
(1.01162 0.0145325 0)
(1.01254 0.0126477 0)
(1.01333 0.0107464 0)
(1.0139 0.00881434 0)
(1.01433 0.006886 0)
(1.01462 0.00494797 0)
(1.01472 0.00299394 0)
(1.01489 0.00104897 0)
(0.965458 0.0156517 0)
(0.969199 0.0172663 0)
(0.980059 0.0147724 0)
(0.975776 0.0216855 0)
(0.975842 0.0138875 0)
(0.982504 0.0250918 0)
(0.982392 0.0154118 0)
(0.984246 0.0251487 0)
(0.986826 0.0185855 0)
(0.98807 0.024196 0)
(0.990524 0.021453 0)
(0.992168 0.0232141 0)
(0.994311 0.0228372 0)
(0.99619 0.0229835 0)
(0.998303 0.0223653 0)
(1.00005 0.0221099 0)
(1.00192 0.0213252 0)
(1.00369 0.0204584 0)
(1.00535 0.0193584 0)
(1.00697 0.0181609 0)
(1.00835 0.0168005 0)
(1.00972 0.0153102 0)
(1.01079 0.0137026 0)
(1.01178 0.0120338 0)
(1.01253 0.0102753 0)
(1.01313 0.00851046 0)
(1.01356 0.0066895 0)
(1.01384 0.0048737 0)
(1.01401 0.00296431 0)
(1.01401 0.00121879 0)
(0.967598 0.0137926 0)
(0.971853 0.0150396 0)
(0.982332 0.01304 0)
(0.97817 0.0188319 0)
(0.977468 0.0120927 0)
(0.98482 0.0219775 0)
(0.983618 0.0130529 0)
(0.98574 0.0221681 0)
(0.987624 0.0157038 0)
(0.988765 0.021359 0)
(0.990742 0.018283 0)
(0.992083 0.0203808 0)
(0.993878 0.019773 0)
(0.99554 0.0200528 0)
(0.997381 0.0196902 0)
(0.998909 0.0196461 0)
(1.00077 0.019053 0)
(1.00227 0.0184014 0)
(1.00396 0.0175524 0)
(1.00531 0.0165466 0)
(1.00677 0.0154301 0)
(1.00795 0.0141173 0)
(1.00909 0.012767 0)
(1.01004 0.0112504 0)
(1.01084 0.00971766 0)
(1.01151 0.0080694 0)
(1.01203 0.00639685 0)
(1.01244 0.00464938 0)
(1.0128 0.00286789 0)
(1.01286 0.000811557 0)
(0.968694 0.0121054 0)
(0.973844 0.0130518 0)
(0.98447 0.0115127 0)
(0.979992 0.0165058 0)
(0.978678 0.0108349 0)
(0.986547 0.0193179 0)
(0.984566 0.0115306 0)
(0.986821 0.0196845 0)
(0.988296 0.0137035 0)
(0.989359 0.0191159 0)
(0.990966 0.0159581 0)
(0.99216 0.0182737 0)
(0.993542 0.0174077 0)
(0.995074 0.0178016 0)
(0.99637 0.0175094 0)
(0.997916 0.0175376 0)
(0.999372 0.0170104 0)
(1.00092 0.0166235 0)
(1.00234 0.0159003 0)
(1.00377 0.0151763 0)
(1.00509 0.0141582 0)
(1.00632 0.0131208 0)
(1.00747 0.0118566 0)
(1.00846 0.0105728 0)
(1.00935 0.00913146 0)
(1.01012 0.00762621 0)
(1.01074 0.00603923 0)
(1.01125 0.0043749 0)
(1.01156 0.00268301 0)
(1.01188 0.000715729 0)
(0.970909 0.0101278 0)
(0.976212 0.0110741 0)
(0.987311 0.00970003 0)
(0.98268 0.0139896 0)
(0.980515 0.00929392 0)
(0.988753 0.0166106 0)
(0.986374 0.00972654 0)
(0.988427 0.0171791 0)
(0.989952 0.01155 0)
(0.990679 0.0168313 0)
(0.992345 0.0135817 0)
(0.99323 0.0161744 0)
(0.99465 0.015111 0)
(0.995856 0.0157066 0)
(0.997066 0.0155126 0)
(0.998361 0.0154698 0)
(0.999655 0.0151186 0)
(1.00094 0.0147351 0)
(1.00223 0.0142571 0)
(1.0035 0.0135636 0)
(1.00471 0.0128292 0)
(1.00585 0.011864 0)
(1.00691 0.0108512 0)
(1.00782 0.00968562 0)
(1.00867 0.00842081 0)
(1.00935 0.00705742 0)
(1.00988 0.0056279 0)
(1.01028 0.00412372 0)
(1.01047 0.0025054 0)
(1.01067 0.0010998 0)
(0.973742 0.00865615 0)
(0.978063 0.00976819 0)
(0.988924 0.00844818 0)
(0.984651 0.0118904 0)
(0.982056 0.00800562 0)
(0.989973 0.0145094 0)
(0.987555 0.00803515 0)
(0.989334 0.0152104 0)
(0.990793 0.00957378 0)
(0.991268 0.0149334 0)
(0.992877 0.011398 0)
(0.993543 0.0143492 0)
(0.994921 0.0129307 0)
(0.995944 0.0139011 0)
(0.997115 0.0136155 0)
(0.998346 0.0137652 0)
(0.99951 0.0134355 0)
(1.00073 0.0132823 0)
(1.00189 0.0128009 0)
(1.0031 0.0123473 0)
(1.00417 0.0116599 0)
(1.00531 0.010917 0)
(1.00626 0.0100159 0)
(1.00719 0.00903229 0)
(1.00801 0.00788028 0)
(1.00866 0.006692 0)
(1.00924 0.00537119 0)
(1.00963 0.00397536 0)
(1.00999 0.00245215 0)
(1.00996 0.00101643 0)
(0.977302 0.00805228 0)
(0.980362 0.009146 0)
(0.989751 0.00794493 0)
(0.986132 0.0104156 0)
(0.984306 0.00718445 0)
(0.990786 0.0129132 0)
(0.98879 0.00669641 0)
(0.990386 0.0136095 0)
(0.991475 0.00789593 0)
(0.991975 0.0132796 0)
(0.993273 0.00948106 0)
(0.993806 0.0126494 0)
(0.994995 0.0109147 0)
(0.995738 0.0120861 0)
(0.996843 0.0117222 0)
(0.997794 0.0118803 0)
(0.998895 0.011742 0)
(0.999866 0.0115918 0)
(1.001 0.0113208 0)
(1.00196 0.0109103 0)
(1.00302 0.0104229 0)
(1.00398 0.00974885 0)
(1.00487 0.00906241 0)
(1.00577 0.0081339 0)
(1.00651 0.00719501 0)
(1.00718 0.00610632 0)
(1.00778 0.00491909 0)
(1.00824 0.00360898 0)
(1.00865 0.00226611 0)
(1.00874 0.000468416 0)
(0.979412 0.00762369 0)
(0.981912 0.00846468 0)
(0.989091 0.00750792 0)
(0.9862 0.00916379 0)
(0.986224 0.00660379 0)
(0.990529 0.0113177 0)
(0.989509 0.00582636 0)
(0.991002 0.0120317 0)
(0.991718 0.00673887 0)
(0.992581 0.0117714 0)
(0.993467 0.00808042 0)
(0.994226 0.011259 0)
(0.995101 0.00937215 0)
(0.99592 0.010766 0)
(0.996787 0.0102016 0)
(0.997732 0.0105417 0)
(0.998585 0.0103399 0)
(0.999569 0.0103594 0)
(1.00051 0.0100616 0)
(1.00144 0.00986274 0)
(1.00244 0.00934693 0)
(1.0033 0.00891757 0)
(1.00421 0.00822643 0)
(1.00503 0.00747978 0)
(1.00575 0.00663201 0)
(1.00642 0.00563868 0)
(1.007 0.00454864 0)
(1.00746 0.0033476 0)
(1.0077 0.0020894 0)
(1.00807 0.000482943 0)
(0.981295 0.00588056 0)
(0.983789 0.00655331 0)
(0.98872 0.00585556 0)
(0.986563 0.00716158 0)
(0.988397 0.00520652 0)
(0.990647 0.00895273 0)
(0.990745 0.00454845 0)
(0.991997 0.00977673 0)
(0.992582 0.00533314 0)
(0.99361 0.00974451 0)
(0.994286 0.00653755 0)
(0.995079 0.00945469 0)
(0.995833 0.00776358 0)
(0.996563 0.00913056 0)
(0.997364 0.00866798 0)
(0.998134 0.0089761 0)
(0.998894 0.00896501 0)
(0.999735 0.00888588 0)
(1.00051 0.00882855 0)
(1.00135 0.00853905 0)
(1.00216 0.00826232 0)
(1.00292 0.00784407 0)
(1.00371 0.00731497 0)
(1.00439 0.0066788 0)
(1.00502 0.00596172 0)
(1.00562 0.00507531 0)
(1.00607 0.00412631 0)
(1.00645 0.00310893 0)
(1.00663 0.00187874 0)
(1.00692 0.000953064 0)
(0.982777 0.00302783 0)
(0.985088 0.00374661 0)
(0.988376 0.0034183 0)
(0.986892 0.00470695 0)
(0.989707 0.00341972 0)
(0.990653 0.0063995 0)
(0.991492 0.00327689 0)
(0.992543 0.00755042 0)
(0.993045 0.00406214 0)
(0.994127 0.00790481 0)
(0.994615 0.00522757 0)
(0.995426 0.00795749 0)
(0.996031 0.00641402 0)
(0.996736 0.00789206 0)
(0.99743 0.00735171 0)
(0.998133 0.00788276 0)
(0.998832 0.00777079 0)
(0.999595 0.00791341 0)
(1.00029 0.00778122 0)
(1.00109 0.00766643 0)
(1.00179 0.00741349 0)
(1.00252 0.00712102 0)
(1.00326 0.0066378 0)
(1.00386 0.00614549 0)
(1.00454 0.00546835 0)
(1.00507 0.00470101 0)
(1.00555 0.00385481 0)
(1.00592 0.00290418 0)
(1.00628 0.00176949 0)
(1.00626 0.000977856 0)
(0.986212 -0.000141996 0)
(0.987767 0.000816403 0)
(0.990231 0.000761608 0)
(0.98916 0.00218161 0)
(0.992042 0.00146244 0)
(0.992334 0.00390682 0)
(0.993282 0.0018935 0)
(0.994148 0.00535706 0)
(0.994463 0.0027445 0)
(0.995389 0.00603923 0)
(0.99569 0.0039296 0)
(0.99634 0.0063378 0)
(0.996803 0.00512154 0)
(0.997317 0.00643625 0)
(0.997899 0.00609086 0)
(0.998383 0.00652029 0)
(0.999 0.00659092 0)
(0.999533 0.00667175 0)
(1.00014 0.00669562 0)
(1.00076 0.00655591 0)
(1.0013 0.00648931 0)
(1.00196 0.00615533 0)
(1.00249 0.00585453 0)
(1.00305 0.00539364 0)
(1.0036 0.00482254 0)
(1.00403 0.00418523 0)
(1.00447 0.00342401 0)
(1.00479 0.00253504 0)
(1.00518 0.00160787 0)
(1.00503 0.000402852 0)
(0.989713 -0.00179789 0)
(0.990492 -0.000729404 0)
(0.992676 -0.000737714 0)
(0.991709 0.000815671 0)
(0.994162 0.000472656 0)
(0.994161 0.00248887 0)
(0.9948 0.00123771 0)
(0.995559 0.00401502 0)
(0.995565 0.00209161 0)
(0.996409 0.00489498 0)
(0.996438 0.00318238 0)
(0.997086 0.00537592 0)
(0.997304 0.00427952 0)
(0.997824 0.00561896 0)
(0.998207 0.0052051 0)
(0.998659 0.00579184 0)
(0.999153 0.00574119 0)
(0.999586 0.0060128 0)
(1.00017 0.00589037 0)
(1.00063 0.00597061 0)
(1.0012 0.00579941 0)
(1.00174 0.00559484 0)
(1.00225 0.00533263 0)
(1.00277 0.00491296 0)
(1.00325 0.00444224 0)
(1.00367 0.00385549 0)
(1.00407 0.00315651 0)
(1.0044 0.00230015 0)
(1.00459 0.00152374 0)
(1.00477 3.542e-06 0)
(0.994068 -0.00216775 0)
(0.994394 -0.0011771 0)
(0.996351 -0.00104694 0)
(0.995279 0.000315029 0)
(0.997136 9.01829e-05 0)
(0.99688 0.00170712 0)
(0.997144 0.000838752 0)
(0.997587 0.00303415 0)
(0.997425 0.00162978 0)
(0.997931 0.00382073 0)
(0.997836 0.00260798 0)
(0.998261 0.00429262 0)
(0.99831 0.00359986 0)
(0.998688 0.00457083 0)
(0.998859 0.00445937 0)
(0.99923 0.00478643 0)
(0.99948 0.0049886 0)
(0.999863 0.00504685 0)
(1.00022 0.00511469 0)
(1.00058 0.00512485 0)
(1.00099 0.00502485 0)
(1.00138 0.00487718 0)
(1.00174 0.00466763 0)
(1.00216 0.00431874 0)
(1.00248 0.0039265 0)
(1.00284 0.00341884 0)
(1.0031 0.00278433 0)
(1.00339 0.00210833 0)
(1.00334 0.00132545 0)
(1.00383 0.000226393 0)
(0.997198 -0.00063394 0)
(0.997275 0.000118503 0)
(0.998791 0.000260692 0)
(0.997541 0.0012429 0)
(0.998734 0.000922027 0)
(0.998423 0.00226409 0)
(0.998351 0.00135855 0)
(0.998645 0.00322259 0)
(0.998364 0.00188651 0)
(0.998673 0.00380137 0)
(0.998525 0.00261285 0)
(0.998797 0.00416222 0)
(0.998793 0.00338757 0)
(0.999051 0.00437705 0)
(0.999173 0.00409062 0)
(0.999452 0.00452798 0)
(0.99965 0.00456427 0)
(0.999975 0.00469265 0)
(1.00026 0.00470981 0)
(1.00056 0.00476145 0)
(1.00095 0.00463309 0)
(1.00124 0.00455924 0)
(1.00163 0.00432239 0)
(1.00198 0.00402866 0)
(1.00228 0.00366988 0)
(1.00265 0.00319638 0)
(1.00284 0.00262327 0)
(1.00314 0.00205253 0)
(1.00311 0.00119354 0)
(1.00357 0.000648315 0)
(0.999866 0.000733545 0)
(0.999816 0.00122882 0)
(1.00075 0.00125956 0)
(0.999568 0.00193462 0)
(1.00019 0.00157977 0)
(0.999902 0.00254393 0)
(0.999694 0.00176814 0)
(0.999799 0.00313205 0)
(0.999561 0.00209565 0)
(0.999618 0.00347372 0)
(0.999528 0.00262893 0)
(0.999571 0.00368792 0)
(0.999574 0.00321582 0)
(0.999651 0.00382926 0)
(0.999708 0.0037518 0)
(0.999861 0.00394663 0)
(0.999912 0.00412119 0)
(1.00017 0.00407823 0)
(1.00023 0.00424386 0)
(1.00051 0.00416223 0)
(1.00066 0.00413025 0)
(1.00088 0.00404149 0)
(1.00114 0.00380476 0)
(1.00131 0.00361597 0)
(1.00155 0.00324258 0)
(1.00176 0.00287814 0)
(1.00189 0.00234465 0)
(1.00211 0.00187817 0)
(1.00212 0.00103445 0)
(1.00232 0.000887014 0)
(1.00122 0.00266688 0)
(1.00102 0.00293526 0)
(1.00129 0.00275481 0)
(1.00016 0.00320298 0)
(1.00027 0.0027221 0)
(1.0002 0.00346984 0)
(0.999812 0.00260558 0)
(1.00006 0.00378176 0)
(0.999736 0.00261512 0)
(0.999844 0.00396428 0)
(0.999759 0.00286826 0)
(0.999724 0.00403138 0)
(0.999831 0.00323749 0)
(0.999726 0.00405018 0)
(0.999951 0.00362908 0)
(0.999876 0.00405011 0)
(1.0001 0.00394312 0)
(1.00016 0.00404426 0)
(1.00032 0.00408944 0)
(1.00052 0.00399675 0)
(1.00065 0.00401238 0)
(1.0009 0.00383598 0)
(1.00106 0.00368593 0)
(1.00127 0.00346441 0)
(1.00148 0.00310533 0)
(1.00165 0.00278178 0)
(1.00186 0.00223291 0)
(1.00196 0.00179865 0)
(1.00221 0.00100783 0)
(1.002 0.000686994 0)
(1.00139 0.00304367 0)
(1.00121 0.00306389 0)
(1.0011 0.00301884 0)
(1.00046 0.00309376 0)
(1.0003 0.00301774 0)