/*--------------------------------*- C++ -*----------------------------------*\
| =========                 |                                                 |
| \\      /  F ield         | OpenFOAM: The Open Source CFD Toolbox           |
|  \\    /   O peration     | Version:                                        |
|   \\  /    A nd           | Website:  www.openfoam.com                      |
|    \\/     M anipulation  |                                                 |
\*---------------------------------------------------------------------------*/
FoamFile
{
    version     2.0;
    format      ascii;
    class       surfaceScalarField;
    location    "74.2";
    object      phi;
}
// * * * * * * * * * * * * * * * * * * * * * * * * * * * * * * * * * * * * * //

dimensions      [0 3 -1 0 0 0 0];
oriented        oriented;


internalField   nonuniform List<scalar> 
2213
(
0.000529665
-0.00172162
0.00119195
0.00139929
-0.00238046
0.00151084
0.00249666
-0.00242552
0.00132815
0.00400932
-0.0036396
0.00212694
0.00630606
-0.00682367
0.00452693
0.00925991
-0.0113925
0.0084386
0.0127451
-0.0162782
0.012793
0.0167077
-0.0210367
0.0170741
0.0206021
-0.0252379
0.0213436
-0.0280964
-0.000145005
-0.00157661
-0.000264466
-0.002261
0.000186487
-0.00287648
0.00234732
-0.00580044
0.00638535
-0.0108617
0.0113032
-0.0163103
0.0163265
-0.0213015
0.020672
-0.0253821
0.0233745
-0.0279404
0.024138
-0.0288599
0.0235767
-0.0287285
-0.0282044
-0.000499009
-0.0010776
-0.000965745
-0.00179427
0.000272648
-0.00411487
0.00457971
-0.0101075
0.0103079
-0.0165899
0.0157888
-0.0217912
0.0199547
-0.0254674
0.0220544
-0.0274818
0.0221795
-0.0280655
0.0213912
-0.0280716
0.0208298
-0.0281672
0.0212334
-0.028608
0.0223988
-0.029117
-0.0292841
-0.000425478
-0.000652124
-0.00036832
-0.00185143
0.00316271
-0.0076459
0.00898466
-0.0159294
0.0142173
-0.0218226
0.0176554
-0.0252293
0.0189564
-0.0267684
0.0187039
-0.0272293
0.0182244
-0.027586
0.0183824
-0.0282296
0.0192899
-0.0290747
0.020392
-0.0297101
0.0212042
-0.0299292
0.0220304
-0.0301102
0.0229472
-0.0303603
0.0238825
-0.0305919
-0.0309463
-0.000269946
-0.000382179
0.00133116
-0.00345253
0.00677171
-0.0130865
0.0116165
-0.0207743
0.0144845
-0.0246905
0.0155208
-0.0262657
0.0156674
-0.026915
0.0160347
-0.0275965
0.0169103
-0.0284616
0.0179342
-0.0292535
0.018562
-0.0297025
0.0187387
-0.0298868
0.0189977
-0.0301883
0.0195395
-0.030652
0.0203586
-0.0311793
0.0215251
-0.0317585
0.0229913
-0.0324125
0.0245729
-0.0330827
0.0263667
-0.033943
-0.0346198
-0.000390247
8.06769e-06
0.00361427
-0.00745705
0.00885177
-0.018324
0.0116519
-0.0235744
0.0128775
-0.0259161
0.0136136
-0.0270017
0.0144888
-0.0277901
0.0153324
-0.0284401
0.0157616
-0.0288909
0.0157216
-0.0292135
0.0156167
-0.0295976
0.0159182
-0.0301882
0.0166286
-0.0308986
0.0175018
-0.0315252
0.0184172
-0.0320947
0.0193311
-0.0326724
0.0201618
-0.0332431
0.0210074
-0.0339283
0.0219074
-0.0348431
-0.0356668
0.0229544
0.000463387
-0.00045532
0.0056459
-0.0126396
0.00878958
-0.0214676
0.010579
-0.0253638
0.01164
-0.0269772
0.0123477
-0.0277094
0.0126497
-0.0280921
0.0125791
-0.0283696
0.0124771
-0.0287888
0.0126857
-0.0294221
0.0132468
-0.0301587
0.0138915
-0.030833
0.0143767
-0.0313838
0.014771
-0.0319195
0.0151867
-0.0325105
0.015705
-0.0331907
0.0165421
-0.0340802
0.0176973
-0.0350835
0.0188043
-0.03595
-0.0367415
0.0198789
0.00189807
-0.00235339
0.00643138
-0.0171729
0.00860396
-0.0236402
0.00963482
-0.0263946
0.010034
-0.0273764
0.0100668
-0.0277422
0.010068
-0.0280933
0.010322
-0.0286236
0.0107814
-0.0292482
0.0111792
-0.02982
0.0113492
-0.0303287
0.0113784
-0.0308621
0.0115139
-0.0315192
0.0118236
-0.0322293
0.0123198
-0.0330066
0.0130103
-0.0338812
0.0135913
-0.0346612
0.013927
-0.0354193
0.01438
-0.0364029
-0.0372988
0.0149373
0.00280695
-0.00516033
0.00604306
-0.020409
0.00775872
-0.0253559
0.00817762
-0.0268135
0.00817132
-0.0273701
0.00825042
-0.0278213
0.00848385
-0.0283267
0.00863768
-0.0287774
0.00857596
-0.0291865
0.00842375
-0.0296678
0.00838985
-0.0302948
0.00856395
-0.0310362
0.00879436
-0.0317497
0.00901196
-0.0324469
0.0091878
-0.0331825
0.00927341
-0.0339668
0.0095388
-0.0349266
0.0100538
-0.0359343
0.0103875
-0.0367366
-0.0376278
0.0107164
0.00384147
-0.0090018
0.00569711
-0.0222646
0.00627916
-0.0259379
0.00639792
-0.0269323
0.00642013
-0.0273923
0.00636722
-0.0277684
0.00618387
-0.0281434
0.00597936
-0.0285729
0.00589874
-0.0291058
0.00594902
-0.029718
0.00600785
-0.0303537
0.00592592
-0.0309543
0.00578042
-0.0316042
0.00569244
-0.0323589
0.00575447
-0.0332445
0.00597251
-0.0341849
0.00605979
-0.0350138
0.00599335
-0.0358679
0.00618206
-0.0369253
0.00641085
-0.0378565
-0.000659554
-0.0124098
-0.00248385
-0.0158599
-0.0177648
-0.00267616
-0.00973363
-0.00551335
-0.0130227
-0.00820431
-0.0150738
-0.0176531
-0.00381382
-0.00591981
-0.00790612
-0.0089304
-0.0117294
-0.0112505
-0.0141491
-0.00415729
-0.00176252
-0.00873407
-0.00435362
-0.0131634
-0.0068212
-0.009812
-0.00362426
0.00186174
-0.00780548
-0.000172399
-0.0121107
-0.00251599
-0.00550881
-0.00222304
0.00408478
-0.00521243
0.00281699
-0.0081782
0.000449778
-0.0115285
-0.00215847
-0.00526174
-6.92575e-05
0.00415404
-0.000968937
0.00371667
-0.00249835
0.00197919
-0.00424629
-0.000410534
-0.00620403
-0.003304
-0.00679541
0.00174064
0.0024134
0.00289254
0.00256477
0.0031533
0.00171843
0.00265024
9.25302e-05
0.00209018
-0.00274394
0.00178006
-0.00648529
-0.0102848
0.0021486
0.000264796
0.00435121
0.000362165
0.0057632
0.000306433
0.00651083
-0.000655096
0.00690531
-0.00313843
0.00732052
-0.00690049
0.00804314
-0.0110074
-0.0148945
0.00145675
0.00332975
0.00496434
0.00643618
0.00782469
0.0093628
0.0111484
0.013328
0.0499741
0.00559406
-0.0491573
0.0501506
0.0105399
0.0504899
0.0145981
0.0507989
0.0195699
0.0234032
0.0528801
0.00498662
-0.0522726
0.0530005
0.0104194
0.0531909
0.0144077
0.0536065
0.0191543
0.023991
0.0558027
0.00481448
-0.0556305
0.0560994
0.0101227
0.0562106
0.0142965
0.0563954
0.0189695
0.0239815
0.0593032
0.00467211
-0.0591609
0.0595834
0.00984258
0.0598358
0.014044
0.059858
0.0189473
0.0234121
0.0631141
0.00436249
-0.0628045
0.0633743
0.00958237
0.0637981
0.0136203
0.0639528
0.0187925
0.0646108
0.0227541
0.0272724
0.0671301
0.00403192
-0.0667996
0.0674461
0.00926641
0.0678684
0.013198
0.068246
0.0184149
0.0687623
0.0222379
0.0270205
0.071379
0.00380104
-0.0711482
0.0717622
0.00888328
0.072104
0.0128561
0.072647
0.0178719
0.0731935
0.0216914
0.0263844
0.076052
0.00365191
-0.0759029
0.0764542
0.00848103
0.0767866
0.0125238
0.0774207
0.0172378
0.0781113
0.0210008
0.0256003
0.0812075
0.0035048
-0.0810604
0.0815954
0.00809315
0.0819741
0.012145
0.0825193
0.0166926
0.0830479
0.0204722
0.0250262
0.0867417
0.00334142
-0.0865783
0.0870599
0.00777496
0.0874046
0.0118003
0.0878149
0.0162822
0.0883734
0.0199137
0.0242531
0.0925989
0.00316485
-0.0924223
0.0928982
0.00747566
0.0932922
0.0114063
0.0938317
0.0157428
0.0945756
0.0191698
0.0233774
0.0988209
0.00294401
-0.0986001
0.0991749
0.00712165
0.0996605
0.0109207
0.100262
0.0151413
0.100866
0.0185657
0.02272
0.105423
0.00272074
-0.1052
0.105758
0.00678647
0.106215
0.0104636
0.106754
0.0146021
0.107372
0.0179481
0.0218619
0.112493
0.00253198
-0.112304
0.112791
0.00648852
0.113241
0.0100127
0.113864
0.0139795
0.114637
0.0171751
0.0209077
0.120111
0.00233751
-0.119917
0.120433
0.00616654
0.120916
0.00953045
0.121564
0.0133309
0.122276
0.0164635
0.0200436
0.12825
0.00213649
-0.128049
0.128568
0.00584862
0.129049
0.0090489
0.129674
0.0127067
0.13041
0.0157276
0.0191015
0.136918
0.00195507
-0.136737
0.137249
0.00551813
0.137732
0.00856539
0.138414
0.0120247
0.139199
0.0149431
0.0181022
0.146175
0.00180348
-0.146023
0.146539
0.00515418
0.147023
0.00808151
0.147736
0.011312
0.148533
0.0141458
0.0170964
0.156085
0.0016616
-0.155943
0.156445
0.00479444
0.156959
0.00756711
0.157661
0.0106103
0.158544
0.0132623
0.016078
0.16668
0.0015153
-0.166533
0.167037
0.00443736
0.167583
0.00702074
0.168313
0.00988082
0.169229
0.0123462
0.0150106
0.177991
0.00138096
-0.177857
0.178376
0.00405273
0.178916
0.00648028
0.179706
0.00909089
0.180621
0.0114317
0.0138407
0.190083
0.00126361
-0.189966
0.190493
0.00364276
0.191034
0.00593959
0.191886
0.00823836
0.192844
0.0104735
0.0125942
0.203035
0.00113856
-0.20291
0.203454
0.0032233
0.204042
0.00535175
0.20492
0.00736025
0.20595
0.00944328
0.0113031
0.216905
0.000994391
-0.216761
0.217323
0.00280592
0.217954
0.00472065
0.218846
0.00646791
0.219951
0.00833905
0.00996503
0.231737
0.000841447
-0.231584
0.232154
0.00238937
0.232829
0.00404543
0.233757
0.00553978
0.234943
0.0071531
0.00854854
0.247617
0.000679113
-0.247454
0.24805
0.00195576
0.248771
0.00332431
0.249752
0.00455931
0.251015
0.00588982
0.00704764
0.264619
0.00051224
-0.264452
0.265072
0.00150314
0.265834
0.00256195
0.266871
0.00352216
0.268211
0.00455038
0.00545235
0.282839
0.000346498
-0.282674
0.283312
0.00103046
0.284117
0.0017568
0.285219
0.00242003
0.286644
0.00312599
0.00375024
0.302387
0.000177983
-0.302218
0.302886
0.000530775
0.303738
0.000905314
0.304909
0.00124848
0.306423
0.00161229
0.00193595
0.323322
-0.323144
0.323853
0.324758
0.326007
0.327619
0.0314149
0.0287839
-0.0273809
-0.0328178
0.0295006
0.0280671
-0.0261528
0.0275144
0.0271889
-0.0252027
0.0256051
0.0263523
-0.024443
0.0237841
0.0256349
-0.0238139
0.0220235
0.0250165
-0.0232558
0.0202644
0.024447
-0.0226879
0.0184243
0.0239213
-0.0220812
0.016616
0.0233265
-0.0215182
0.0149216
0.0227862
-0.0210919
0.0132614
0.0223806
-0.0207203
0.0116742
0.0220122
-0.020425
0.0101573
0.0217214
-0.0202045
0.00859567
0.0215089
-0.0199472
0.00702077
0.0213364
-0.0197615
0.005488
0.0212764
-0.0197436
0.00398342
0.0212957
-0.0197912
0.00248013
0.0213903
-0.019887
0.0010222
0.0216843
-0.0202264
0.0175654
-0.0165432
0.0281627
0.0306032
-0.0299821
0.0263969
0.0298329
0.024561
0.0290248
0.02275
0.0281633
0.0210239
0.0273609
0.0193653
0.026675
0.0178126
0.0259998
0.0163231
0.0254108
0.014739
0.0249106
0.0131843
0.024341
0.0117274
0.0238375
0.0102467
0.0234929
0.00876347
0.0232046
0.00735348
0.0229189
0.00601399
0.0226759
0.00467183
0.0226185
0.00329222
0.0226753
0.00192414
0.0227583
0.000670977
0.0229375
0.0182364
0.0248244
0.0322222
-0.0264433
0.0232149
0.0314424
0.0215849
0.0306548
0.0199666
0.0297817
0.0184561
0.0288714
0.01699
0.0281411
0.0154754
0.0275144
0.0140599
0.0268263
0.0127361
0.0262344
0.0113352
0.0257418
0.00996429
0.0252085
0.0087157
0.0247415
0.00751131
0.024409
0.00625164
0.0241785
0.00497599
0.0239515
0.00377776
0.0238167
0.00265036
0.0238027
0.00150039
0.0239083
0.000439454
0.0239984
0.0186758
0.0211394
0.033795
-0.0227122
0.0197273
0.0328544
0.0183595
0.0320227
0.0169095
0.0312316
0.0154498
0.0303312
0.0141878
0.0294031
0.012998
0.0287041
0.0117123
0.028112
0.0104857
0.027461
0.00935884
0.0268687
0.00822292
0.0263444
0.00704414
0.0259202
0.00589621
0.025557
0.00483383
0.0252409
0.00382513
0.0249602
0.00282437
0.0248175
0.00183897
0.0247881
0.000821203
0.0249261
-3.48763e-05
0.0248545
0.0186409
0.0174658
0.0351849
-0.0188557
0.0161452
0.0341751
0.0149279
0.03324
0.0138502
0.0323093
0.0126986
0.0314828
0.0114446
0.0306571
0.0103597
0.029789
0.00936751
0.0291042
0.00830315
0.0285254
0.00721474
0.0279571
0.00618711
0.027372
0.00526331
0.026844
0.00437694
0.0264433
0.00347624
0.0261416
0.00256468
0.0258718
0.00170247
0.0256797
0.000958041
0.0255326
0.000330643
0.0255535
-0.000256945
0.0254421
0.018384
0.0135151
0.0361558
-0.014486
0.0125394
0.0351507
0.0114368
0.0343426
0.0103026
0.0334434
0.0093831
0.0324023
0.00852195
0.0315183
0.00754667
0.0307643
0.00664838
0.0300025
0.0058518
0.0293219
0.00508337
0.0287255
0.00430365
0.0281517
0.00348208
0.0276656
0.0026791
0.0272463
0.00193188
0.0268888
0.00124812
0.0265555
0.000587841
0.02634
-0.000115864
0.0262363
-0.000644476
0.0260821
-0.000740589
0.0255382
0.0176434
0.00921977
0.0370574
-0.0101213
0.00845445
0.035916
0.00782929
0.0349677
0.00712295
0.0341498
0.00624969
0.0332756
0.00549731
0.0322707
0.00486231
0.0313993
0.00415447
0.0307104
0.00343301
0.0300434
0.00273192
0.0294266
0.00205181
0.0288318
0.00143661
0.0282808
0.000864815
0.0278181
0.000334517
0.0274191
-0.000194874
0.0270849
-0.000708481
0.0268536
-0.00111124
0.026639
-0.00137433
0.0263452
-0.00110489
0.0252687
0.0165385
0.00524249
0.0375137
-0.00569882
0.00451545
0.0366431
0.00385371
0.0356295
0.00336155
0.0346419
0.002898
0.0337391
0.0022966
0.0328721
0.00171827
0.0319776
0.00124665
0.031182
0.000786667
0.0305034
0.000343288
0.02987
-6.6883e-05
0.029242
-0.000476257
0.0286902
-0.000896015
0.0282379
-0.00133565
0.0278588
-0.00174426
0.0274935
-0.00207329
0.0271826
-0.00233153
0.0268973
-0.00244658
0.0264602
-0.00184171
0.0246639
0.0146968
0.000452651
0.0379207
-0.000859636
0.000354136
0.0367416
0.000107465
0.0358761
-0.000238355
0.0349878
-0.000500272
0.034001
-0.000708457
0.0330803
-0.00100554
0.0322747
-0.00135953
0.031536
-0.00167791
0.0308218
-0.00195701
0.0301491
-0.00227683
0.0295618
-0.00263574
0.0290491
-0.0029665
0.0285686
-0.00318356
0.0280758
-0.00331968
0.0276297
-0.00347075
0.0273337
-0.00360775
0.0270343
-0.00345897
0.0263115
-0.00233361
0.0235385
0.0123632
-0.00358951
0.00365366
-0.00377323
-0.00376496
-0.00379106
-0.00397493
-0.00413916
-0.00422338
-0.00429156
-0.0044241
-0.0046287
-0.00478489
-0.00484163
-0.00484592
-0.00491348
-0.00505221
-0.00511079
-0.00500883
-0.00463528
-0.0033614
0.0394763
0.00193872
0.036731
0.00183673
0.0340393
0.00174026
0.0314036
0.00164978
0.0288207
0.0015654
0.0262881
0.00148679
0.0237992
0.00141093
0.021346
0.00134094
0.0189255
0.00127586
0.0165294
0.00121484
0.0141479
0.00116608
0.0117805
0.00111766
0.00940799
0.00107857
0.00699629
0.00104994
0.00455723
0.0010263
0.00207167
0.00102812
0.000953082
0.0391972
0.00472603
0.0364681
0.00456578
0.0337962
0.00441224
0.0311801
0.00426582
0.0286161
0.00412942
0.0261019
0.00400096
0.0236317
0.00388117
0.0212017
0.00377093
0.0188058
0.00367175
0.0164333
0.00358733
0.0140797
0.00351969
0.0117212
0.00347617
0.00934865
0.00345114
0.00694391
0.00345468
0.00449877
0.00347143
0.00201199
0.0035149
0.00296507
0.0386681
0.00748496
0.0359699
0.00726395
0.0333324
0.00704978
0.0307538
0.0068444
0.0282273
0.00665592
0.0257459
0.00648234
0.023304
0.00632304
0.0208974
0.00617761
0.0185233
0.00604577
0.0161743
0.00593637
0.0138469
0.00584708
0.0115298
0.00579324
0.00922045
0.00576051
0.00690017
0.00577497
0.0045581
0.0058135
0.00211504
0.00595795
0.00508012
0.0405801
0.0104903
0.0378646
0.0102005
0.0352072
0.00992138
0.0326089
0.00964804
0.0300728
0.00938052
0.0275986
0.00913013
0.0251769
0.00890404
0.0227921
0.00870788
0.0204329
0.00853673
0.0180927
0.00838603
0.0157732
0.00825587
0.0134716
0.00814867
0.0111897
0.00807511
0.00892001
0.00803023
0.0066512
0.00804379
0.00432848
0.00813623
0.00194642
0.00834
0.00702654
0.0394554
0.0132137
0.0368038
0.0128521
0.034217
0.0125081
0.0316855
0.0121795
0.0292081
0.011858
0.0267902
0.011548
0.0244373
0.0112569
0.0221443
0.0110009
0.0198931
0.0107879
0.0176608
0.0106183
0.0154333
0.0104833
0.0132017
0.0103803
0.0109692
0.0103076
0.00872496
0.0102745
0.00650781
0.0102609
0.00431415
0.0103299
0.00200512
0.010649
0.00903165
0.0406334
0.0163283
0.0379747
0.0158724
0.0353932
0.0154336
0.0328958
0.0150055
0.0304627
0.0146127
0.0280665
0.0142542
0.0257003
0.0139142
0.0233767
0.0135805
0.0211097
0.0132679
0.0189055
0.0129922
0.0167518
0.012772
0.0146379
0.0125973
0.0125325
0.0124857
0.0104209
0.0124192
0.00829474
0.0124006
0.00612367
0.012432
0.00396426
0.0124893
0.00179697
0.0128163
0.0108286
0.0415293
0.0195069
0.0388846
0.018973
0.0363021
0.018455
0.0337963
0.0179394
0.0313853
0.0174164
0.0290726
0.0169254
0.0268408
0.016486
0.0246432
0.0161118
0.0224499
0.0157738
0.0202671
0.0154507
0.0181158
0.0151435
0.0160082
0.0148796
0.0139392
0.0146663
0.0119231
0.0145018
0.00991233
0.01443
0.00790175
0.0144112
0.00589181
0.0144419
0.00383827
0.0145428
0.00172018
0.0149344
0.0125488
0.039207
0.0220524
-0.0417525
0.0367153
0.0214647
0.0342711
0.0208991
0.031908
0.0203026
0.0295959
0.0197285
0.0273591
0.0191623
0.0252043
0.0186407
0.0231182
0.0181979
0.0210634
0.0178286
0.0190297
0.0174843
0.0170027
0.0171705
0.0150072
0.016875
0.0130372
0.0166363
0.0110838
0.0164552
0.00917329
0.0163405
0.00726274
0.0163218
0.00533796
0.0163667
0.00342746
0.0164533
0.00151914
0.0168427
0.0140679
0.0366035
0.0246149
-0.039166
0.0340988
0.0239695
0.0318138
0.0231841
0.0296645
0.022452
0.0275604
0.0218325
0.0254622
0.0212605
0.0234152
0.0206877
0.021461
0.0201521
0.0195687
0.019721
0.0176944
0.0193586
0.0158338
0.0190311
0.0139572
0.0187516
0.0121239
0.0184696
0.0103333
0.0182457
0.00852959
0.0181443
0.00673468
0.0181167
0.00495805
0.0181433
0.00316098
0.0182504
0.00136094
0.0186428
0.0154289
0.033655
-0.036421
0.0314717
0.029453
0.027462
0.0254806
0.0234853
0.0214851
0.019556
0.0177587
0.0160254
0.0143362
0.0126628
0.0109279
0.00922638
0.00760919
0.00598228
0.00433446
0.00269791
0.00111431
0.00535375
0.0062625
0.0371252
0.00534761
0.00696668
0.0455625
0.00508572
0.00569631
0.0468328
0.0493148
0.00510867
0.00499416
0.0500169
0.0531241
0.00485809
0.00449139
0.0536268
0.0571174
0.00444464
0.00406163
0.0575471
0.0613777
0.00403456
0.0036955
0.0617438
0.0659304
0.00371596
0.00339702
0.0662289
0.0708985
0.00348584
0.00317784
0.0711176
0.0763342
0.00328885
0.00301105
0.076501
0.0821123
0.00306663
0.00285299
0.0822704
0.0880963
0.00281734
0.00267178
0.0882775
0.0943634
0.00258324
0.002468
0.0945672
0.101134
0.00238407
0.00228029
0.101322
0.108427
0.00218277
0.00209646
0.108611
0.116119
0.00196966
0.00190053
0.116315
0.124234
0.00177591
0.00171095
0.124424
0.132892
0.00160274
0.00154033
0.133063
0.142128
0.00142731
0.00139451
0.142274
0.151988
0.00125536
0.00125825
0.152124
0.162519
0.0011154
0.00111258
0.162664
0.173779
0.000997373
0.000967262
0.173924
0.185806
0.000883232
0.000837053
0.185936
0.198642
0.000770143
0.000720171
0.198758
0.212342
0.000659825
0.000612563
0.21245
0.22697
0.000553727
0.000510732
0.227072
0.242593
0.000451437
0.000413864
0.24269
0.259287
0.00035407
0.000322914
0.259378
0.277171
0.000257112
0.000232785
0.277261
0.296349
0.000145255
0.000130682
0.296451
0.316998
7.48956e-05
6.5577e-05
0.317063
0.33901
0.339076
0.0467103
-0.0326953
0.0470178
-0.0302896
0.0472245
-0.02665
0.0475177
-0.0230054
0.0476614
-0.0189994
0.0478028
-0.0146274
0.0482828
-0.0106013
0.0483728
-0.0057888
0.049107
-0.00159379
0.00360334
0.0502199
-0.0328983
0.0503294
-0.0303991
0.0502728
-0.0265934
0.0506855
-0.0234181
0.0507211
-0.019035
0.0510729
-0.0149792
0.0512543
-0.0107827
0.051534
-0.00606857
0.0519416
-0.00200139
0.00327232
0.0537558
-0.0330273
0.0538617
-0.0305051
0.0537611
-0.0264928
0.0540734
-0.0237304
0.0540968
-0.0190584
0.0545662
-0.0154486
0.0545413
-0.0107578
0.0550093
-0.00653657
0.0550933
-0.00208534
0.00273511
0.0576733
-0.0331534
0.0577454
-0.0305772
0.0576874
-0.0264348
0.0578207
-0.0238637
0.0578476
-0.0190853
0.0582217
-0.0158227
0.0582591
-0.0107953
0.0586565
-0.00693392
0.058711
-0.00213981
0.00228519
0.0617956
-0.0332052
0.0617426
-0.0305242
0.0617118
-0.026404
0.0616806
-0.0238325
0.061725
-0.0191298
0.0619174
-0.016015
0.0620712
-0.0109491
0.0623206
-0.00718335
0.0625745
-0.00239376
0.00205522
0.066199
-0.0331754
0.06608
-0.0304052
0.0660538
-0.0263778
0.0659142
-0.0236929
0.0659615
-0.0191771
0.0660023
-0.0160558
0.0662078
-0.0111546
0.0663342
-0.00730976
0.0666171
-0.00267658
0.00187272
0.0710289
-0.0330866
0.0708469
-0.0302232
0.0707752
-0.0263061
0.0705644
-0.0234821
0.0705683
-0.019181
0.0704862
-0.0159737
0.0706495
-0.0113178
0.0707108
-0.00737109
0.0709477
-0.00291349
0.00167231
0.0763326
-0.0329181
0.0760634
-0.029954
0.0759262
-0.0261689
0.0756518
-0.0232078
0.0755797
-0.0191089
0.0754294
-0.0158234
0.0755068
-0.0113952
0.0755491
-0.00741342
0.0756722
-0.00303659
0.00144166
0.0819699
-0.0326176
0.0816201
-0.0296042
0.0813985
-0.0259473
0.0810767
-0.022886
0.0809313
-0.0189635
0.080743
-0.015635
0.0807398
-0.011392
0.0807651
-0.00743873
0.0808373
-0.00310871
0.00121855
0.0878566
-0.0321967
0.0874417
-0.0291892
0.0871457
-0.0256513
0.0867937
-0.0225341
0.0865811
-0.0187508
0.0863698
-0.0154238
0.0862992
-0.0113215
0.0863128
-0.00745231
0.0863758
-0.00317175
0.00101606
0.0940503
-0.0316798
0.093574
-0.0287129
0.0932179
-0.0252952
0.0928217
-0.0221379
0.0925624
-0.0184914
0.0923114
-0.0151728
0.0921985
-0.0112085
0.0921782
-0.00743198
0.0922452
-0.00323877
0.000838898
0.100705
-0.0310631
0.100155
-0.0281627
0.0997231
-0.0248634
0.0992724
-0.0216872
0.0989556
-0.0181746
0.0986396
-0.0148569
0.0984797
-0.0110486
0.0983879
-0.00734023
0.0984464
-0.00329723
0.000685225
0.107893
-0.0303449
0.107248
-0.0275182
0.106725
-0.0243401
0.106216
-0.0211781
0.105819
-0.0177775
0.105445
-0.0144825
0.105216
-0.01082
0.10506
-0.00718472
0.10508
-0.00331652
0.000565297
0.115491
-0.0295215
0.114738
-0.0267651
0.114127
-0.0237286
0.113556
-0.0206073
0.113107
-0.0173281
0.112693
-0.0140693
0.112429
-0.0105556
0.112237
-0.00699227
0.112223
-0.00330317
0.000484655
0.123496
-0.0285939
0.122641
-0.0259095
0.121941
-0.0230292
0.121305
-0.0199714
0.120815
-0.0168375
0.120364
-0.0136186
0.120081
-0.010273
0.119867
-0.00677812
0.119845
-0.00328083
0.000412779
0.132037
-0.027568
0.131089
-0.0249609
0.130296
-0.0222368
0.129593
-0.0192678
0.129049
-0.0162943
0.128561
-0.0131299
0.128251
-0.0099636
0.128015
-0.00654145
0.127986
-0.00325182
0.000349381
0.141155
-0.0264494
0.140116
-0.0239215
0.139239
-0.0213596
0.13846
-0.0184894
0.13786
-0.0156941
0.137333
-0.0126032
0.136988
-0.00961864
0.13673
-0.00628312
0.136677
-0.00319885
0.000289938
0.150904
-0.0252292
0.149775
-0.0227926
0.148808
-0.0203928
0.147951
-0.0176322
0.147278
-0.0150206
0.146711
-0.0120364
0.146314
-0.00922229
0.146045
-0.00601358
0.145949
-0.00310263
0.000215174
0.161317
-0.0238816
0.160108
-0.0215841
0.159028
-0.019313
0.15811
-0.0167136
0.157335
-0.0142457
0.156736
-0.0114379
0.156272
-0.00875822
0.156
-0.00574127
0.155863
-0.00296515
0.000134772
0.172449
-0.0224062
0.171147
-0.0202823
0.169959
-0.0181249
0.168967
-0.0157217
0.168097
-0.013376
0.167445
-0.0107854
0.166923
-0.00823685
0.166625
-0.00544327
0.166467
-0.00280656
6.82958e-05
0.184339
-0.0208086
0.182921
-0.0188647
0.181636
-0.0168398
0.180551
-0.0146369
0.179605
-0.01243
0.178879
-0.010059
0.178309
-0.0076676
0.177973
-0.00510701
0.177795
-0.00262855
6.74119e-06
0.197039
-0.0190892
0.195499
-0.0173247
0.194114
-0.0154549
0.192933
-0.0134554
0.191909
-0.0114062
0.191108
-0.00925825
0.190484
-0.00704362
0.19011
-0.00473258
0.189904
-0.00242309
-5.46467e-05
0.210604
-0.0172433
0.208938
-0.0156588
0.207447
-0.0139641
0.206165
-0.0121728
0.205063
-0.0103044
0.204186
-0.00838093
0.203508
-0.00636606
0.203088
-0.00431233
0.202862
-0.00219751
-0.000102078
0.225091
-0.0152623
0.223297
-0.013865
0.221694
-0.0123606
0.220308
-0.0107866
0.219126
-0.00912254
0.218174
-0.00742873
0.217444
-0.00563603
0.216975
-0.00384354
0.216734
-0.00195687
-0.000129178
0.240567
-0.0131395
0.238641
-0.011939
0.236921
-0.0106408
0.235428
-0.0092928
0.234161
-0.00785594
0.233136
-0.00640334
0.232355
-0.00485561
0.231837
-0.00332501
0.231577
-0.00169721
-0.000136661
0.257104
-0.0108661
0.255041
-0.00987539
0.2532
-0.00880017
0.251597
-0.00768987
0.250242
-0.00650022
0.249141
-0.0053027
0.248307
-0.00402185
0.247743
-0.00276135
0.247462
-0.00141573
-0.000128933
0.27482
-0.00842558
0.272606
-0.00766134
0.270635
-0.00682859
0.268915
-0.00597015
0.267462
-0.00504711
0.266279
-0.00411978
0.265384
-0.00312692
0.264774
-0.00215143
0.264468
-0.00110995
-0.00011322
0.293852
-0.00582623
0.291483
-0.00529286
0.289369
-0.00471457
0.28752
-0.0041207
0.285955
-0.00348213
0.284677
-0.00284181
0.283707
-0.0021574
0.283041
-0.00148573
0.282702
-0.000770277
-8.50996e-05
0.314244
-0.00300722
0.311689
-0.0027377
0.309417
-0.00244237
0.307433
-0.0021366
0.305756
-0.00180557
0.304387
-0.00147288
0.303347
-0.00111748
0.302631
-0.000768949
0.302259
-0.000398868
-4.40755e-05
0.336069
0.333331
0.330889
0.328752
0.326947
0.325474
0.324356
0.323587
0.323188
)
;

boundaryField
{
    outlet
    {
        type            calculated;
        value           nonuniform 0();
    }
    upperWall
    {
        type            symmetryPlane;
        value           uniform 0;
    }
    lowerWall
    {
        type            symmetryPlane;
        value           nonuniform 0();
    }
    inlet
    {
        type            calculated;
        value           nonuniform 0();
    }
    cylinder
    {
        type            calculated;
        value           uniform 0;
    }
    frontAndBack
    {
        type            empty;
        value           nonuniform 0();
    }
    procBoundary5to1
    {
        type            processor;
        value           nonuniform List<scalar> 
20
(
0.0130693
0.0176842
0.0192658
0.000861135
0.000908588
0.000951358
0.000985944
0.00101754
0.00104579
0.00107794
0.00111227
0.00114467
0.00118125
0.00121537
0.00124977
0.00129395
0.00136175
0.00141277
0.00145744
0.00111859
)
;
    }
    procBoundary5to4
    {
        type            processor;
        value           nonuniform List<scalar> 
45
(
-0.0422761
-0.0419845
-0.041427
-0.00771185
-0.0433586
-0.0421788
-0.0136042
-0.0433575
-0.0168521
-0.0441841
-0.00453067
-0.0425756
-0.0400747
-0.00481539
-0.0376574
-0.0453006
-0.0493377
-0.0528735
-0.0567039
-0.0609676
-0.0656118
-0.0706683
-0.0761373
-0.0818901
-0.087847
-0.0941293
-0.100935
-0.108226
-0.115906
-0.124041
-0.132719
-0.141953
-0.151816
-0.162379
-0.173661
-0.185692
-0.198528
-0.212232
-0.226864
-0.242491
-0.25919
-0.277074
-0.296237
-0.316928
-0.338936
)
;
    }
    procBoundary5to6
    {
        type            processor;
        value           nonuniform List<scalar> 
63
(
0.0233121
0.0253863
0.0292898
0.0291412
0.0226398
0.0279516
0.0280661
0.0236168
0.0294435
0.0296566
0.02969
0.0251388
0.0315011
0.0321491
0.0329678
0.0280188
-0.00398485
0.0198505
-0.0104017
-0.0152335
-0.0175005
-0.0164139
0.0087831
-0.0150499
0.00873026
-0.00813888
0.0103075
0.0017573
0.0138132
0.00912434
0.0187351
0.0159364
0.0503501
0.0530188
0.0564049
0.0604274
-0.0273096
0.064648
0.0690142
0.0738297
0.0788954
0.083622
0.0891464
0.0954513
0.101524
0.10823
0.115591
0.12314
0.131352
0.140198
0.149539
0.159562
0.170296
0.18179
0.194091
0.207241
0.221289
0.23636
0.252516
0.269806
0.288346
0.308237
0.329555
)
;
    }
}


// ************************************************************************* //
