/*--------------------------------*- C++ -*----------------------------------*\
| =========                 |                                                 |
| \\      /  F ield         | OpenFOAM: The Open Source CFD Toolbox           |
|  \\    /   O peration     | Version:                                        |
|   \\  /    A nd           | Website:  www.openfoam.com                      |
|    \\/     M anipulation  |                                                 |
\*---------------------------------------------------------------------------*/
FoamFile
{
    version     2.0;
    format      ascii;
    class       volScalarField;
    location    "72.6";
    object      p;
}
// * * * * * * * * * * * * * * * * * * * * * * * * * * * * * * * * * * * * * //

dimensions      [0 2 -2 0 0 0 0];


internalField   nonuniform List<scalar> 
1161
(
-0.137121
-0.150022
-0.159205
-0.163372
-0.160633
-0.152589
-0.139904
-0.124742
-0.104884
-0.0830776
-0.134349
-0.131855
-0.126008
-0.116629
-0.105119
-0.0920636
-0.0767635
-0.0606693
-0.102398
-0.0931196
-0.0816214
-0.0686754
-0.0563396
-0.0438828
-0.0541795
-0.0423825
-0.0311856
-0.965569
-1.00557
-1.02932
-1.03385
-1.01931
-0.990354
-0.953904
-0.918432
-0.892895
-0.8892
-0.91032
-0.938818
-0.979712
-1.03058
-1.04271
-1.006
-0.912221
-0.808422
-0.828974
-0.838544
-0.83847
-0.829693
-0.819242
-0.818198
-0.831788
-0.857914
-0.896321
-0.930858
-0.959934
-0.988152
-1.00651
-0.967494
-0.870027
-0.643575
-0.661607
-0.675258
-0.685577
-0.695551
-0.710933
-0.735529
-0.778566
-0.828897
-0.875078
-0.909263
-0.930561
-0.94914
-0.942889
-0.885138
-0.780299
-0.530118
-0.545515
-0.561747
-0.577573
-0.599814
-0.628998
-0.662553
-0.709348
-0.762626
-0.807527
-0.837742
-0.859591
-0.86677
-0.838177
-0.763742
-0.657993
-0.46059
-0.469234
-0.478667
-0.493021
-0.513691
-0.538887
-0.570265
-0.610021
-0.658432
-0.704086
-0.739972
-0.760528
-0.752233
-0.704758
-0.625238
-0.530744
-0.414708
-0.411055
-0.411123
-0.417674
-0.436425
-0.465956
-0.500413
-0.545266
-0.591814
-0.630478
-0.641163
-0.616261
-0.560796
-0.49039
-0.415889
-0.337527
-0.315611
-0.312366
-0.324563
-0.345173
-0.37898
-0.431719
-0.482394
-0.512123
-0.507205
-0.475412
-0.427263
-0.375409
-0.322894
-0.215807
-0.186554
-0.187695
-0.2262
-0.283177
-0.337525
-0.377206
-0.392098
-0.378832
-0.351634
-0.31902
-0.286174
-0.249515
-0.105166
-0.125743
-0.167047
-0.216301
-0.260063
-0.286073
-0.287825
-0.274806
-0.256706
-0.234941
-0.213683
-0.188071
-0.1059
-0.14118
-0.178054
-0.201917
-0.211178
-0.210754
-0.203222
-0.188392
-0.170709
-0.153363
-0.132974
-0.762219
-0.592173
-0.46677
-0.389655
-0.351892
-0.348099
-0.375288
-0.443657
-0.562773
-0.714953
-0.840126
-0.861527
-0.769713
-0.612103
-0.463383
-0.369538
-0.324839
-0.322499
-0.364781
-0.47411
-0.722037
-0.569472
-0.45885
-0.380907
-0.331171
-0.311357
-0.32059
-0.365836
-0.451765
-0.563924
-0.659515
-0.674039
-0.60632
-0.494888
-0.393018
-0.332832
-0.30848
-0.323057
-0.38915
-0.526791
-0.636287
-0.506892
-0.418841
-0.350916
-0.300712
-0.270422
-0.26193
-0.281714
-0.333638
-0.407922
-0.477167
-0.491127
-0.4513
-0.381571
-0.317651
-0.284093
-0.275115
-0.305797
-0.390441
-0.545346
-0.526441
-0.425025
-0.36109
-0.305215
-0.259627
-0.227841
-0.209313
-0.208792
-0.231937
-0.272344
-0.31916
-0.330387
-0.313863
-0.276304
-0.239727
-0.222838
-0.225171
-0.261259
-0.351326
-0.516294
-0.42139
-0.344611
-0.300099
-0.254386
-0.212647
-0.181691
-0.159834
-0.149855
-0.153568
-0.168164
-0.195439
-0.212007
-0.199929
-0.183116
-0.165409
-0.158505
-0.164904
-0.198292
-0.284416
-0.441993
-0.33016
-0.274831
-0.243974
-0.207455
-0.172205
-0.143773
-0.119011
-0.101624
-0.0925274
-0.0921737
-0.103186
-0.114721
-0.11324
-0.109321
-0.103592
-0.100338
-0.106246
-0.13262
-0.201979
-0.337846
-0.258457
-0.219254
-0.198694
-0.168918
-0.13743
-0.111652
-0.0883298
-0.0680189
-0.0511591
-0.0414848
-0.0407451
-0.0476131
-0.0510322
-0.0520213
-0.0536276
-0.0547277
-0.0590363
-0.0755548
-0.123908
-0.230477
-0.400559
-0.200124
-0.174548
-0.161366
-0.138911
-0.113901
-0.0906738
-0.067829
-0.0471481
-0.0272765
-0.0111027
-0.00183901
-0.00114042
-0.00423593
-0.00797217
-0.016547
-0.0205335
-0.0221329
-0.0302504
-0.0591565
-0.136252
-0.268649
-0.154949
-0.14254
-0.134304
-0.115631
-0.0943913
-0.074648
-0.0546105
-0.0354219
-0.0160526
0.00235698
0.0174972
0.0268197
0.0291858
0.0279187
0.0115233
0.00365217
6.44468e-05
-0.00210685
-0.0160813
-0.0625862
-0.158444
-0.116578
-0.116617
-0.112352
-0.0985184
-0.0817424
-0.0648205
-0.0468572
-0.0300823
-0.0131235
0.0049825
0.0205069
0.033379
0.0426591
0.0397875
0.033242
0.0220481
0.0151245
0.0146626
0.00855491
-0.0171658
-0.0828999
-0.0822667
-0.0955594
-0.092795
-0.0780734
-0.0586731
-0.0404175
-0.0235281
-0.0081828
0.00512112
0.0191171
0.0323396
0.042921
0.0523181
0.0564751
0.0567107
0.0402672
0.0263718
0.0232252
0.0221138
0.0125196
-0.0293679
-0.0815579
-0.0509092
-0.0675979
-0.0682454
-0.0559762
-0.0378091
-0.0199679
-0.00492384
0.00764293
0.0179215
0.0296837
0.0417538
0.0503751
0.0573136
0.0624086
0.0609705
0.0479597
0.0313264
0.0259634
0.0276134
0.0250366
-0.0081468
-0.0512644
-0.0293805
-0.0449676
-0.0481348
-0.0394941
-0.0242807
-0.00884385
0.00445485
0.0162918
0.0254189
0.0355327
0.0470089
0.0569446
0.0645872
0.0692627
0.0677979
0.0540587
0.0364335
0.0285966
0.0295103
0.0238607
-0.00449561
-0.0285121
-0.0134561
-0.0256286
-0.0293241
-0.023547
-0.0108886
0.00320707
0.0151897
0.0265306
0.0353111
0.0430682
0.0520512
0.0597115
0.0656845
0.0690804
0.0688055
0.0580256
0.0428113
0.0329767
0.0306465
0.0236967
0.00339226
-0.00543599
0.00282267
-0.0079523
-0.0123468
-0.00854493
0.000792324
0.0120622
0.0225833
0.0323117
0.0396645
0.0454727
0.0527637
0.0601193
0.0662387
0.0696536
0.0686964
0.0606202
0.0482312
0.0380845
0.0335364
0.0278888
0.014265
0.00906045
0.0157842
0.00595251
0.00138728
0.00337368
0.0103416
0.0199157
0.02904
0.0368011
0.0432894
0.0484328
0.0543085
0.0605128
0.065385
0.0680893
0.0664823
0.0606042
0.0511676
0.0421066
0.0366462
0.032235
0.0232684
0.0206413
0.0244722
0.0166947
0.0125801
0.0136085
0.0190489
0.0266779
0.0341106
0.0405332
0.0460633
0.0503009
0.0542503
0.0589842
0.0630734
0.0652862
0.0639556
0.0589264
0.0519329
0.0450292
0.039645
0.0366077
0.0302755
0.0269382
0.0324094
0.0260634
0.022233
0.0224251
0.0262942
0.0321685
0.0382313
0.0435018
0.0478961
0.0512529
0.054071
0.0575795
0.0607567
0.062322
0.0612011
0.0570609
0.052082
0.0471501
0.0423326
0.039663
0.0351382
0.0319179
0.0394806
0.0337653
0.0300449
0.0295325
0.0321311
0.0365551
0.0414284
0.0458239
0.0492733
0.0518538
0.0539017
0.0562888
0.0586469
0.0596418
0.0587324
0.0555992
0.0516667
0.0482953
0.0444597
0.0419657
0.0386942
0.0351166
0.044494
0.0397184
0.0363804
0.0353978
0.036938
0.0402327
0.0441811
0.0477073
0.0503377
0.0521873
0.0535743
0.0551269
0.0568151
0.0574649
0.0566564
0.0543719
0.0512661
0.0488899
0.0459583
0.0436056
0.0413596
0.0381653
0.0485783
0.0446233
0.0415533
0.040212
0.0410542
0.0435134
0.0464901
0.0491675
0.0511537
0.0523745
0.0531644
0.0541542
0.0553479
0.0558404
0.0551176
0.0533642
0.0509276
0.0490926
0.0471132
0.0450673
0.0432239
0.040423
0.0521026
0.0486103
0.0457823
0.044284
0.0444889
0.0460475
0.0482407
0.0503688
0.0518605
0.0525597
0.0529029
0.0535021
0.0543076
0.0546701
0.0539642
0.0525544
0.0507228
0.0492723
0.04785
0.0460918
0.0445778
0.0425539
0.054751
0.0517066
0.0490922
0.0474532
0.0471958
0.048207
0.0498829
0.0514892
0.0524796
0.0528068
0.0527975
0.0530797
0.0535827
0.0538205
0.0531894
0.0520326
0.0505908
0.0493518
0.0483239
0.047081
0.0457346
0.0440763
0.0566996
0.054113
0.0517958
0.0501845
0.0496238
0.0501492
0.0512897
0.0524123
0.0530245
0.0530948
0.0528514
0.0528802
0.0531471
0.0532926
0.0527392
0.0517121
0.0505015
0.0495515
0.0487786
0.0478315
0.0465667
0.0453237
0.0584171
0.0561547
0.0539439
0.0522656
0.051554
0.0517625
0.0524565
0.0532606
0.0536772
0.0535413
0.0530598
0.0528873
0.0529965
0.0530708
0.0525305
0.0515966
0.0505438
0.049805
0.0491308
0.0484359
0.0473561
0.0463395
0.0595904
0.0575874
0.0555871
0.0539801
0.0531177
0.0531049
0.0536394
0.0542323
0.0543383
0.0539456
0.053322
0.0530535
0.0530515
0.0530443
0.0525021
0.0516519
0.0506746
0.0500674
0.0494875
0.0489706
0.0480276
0.0471193
0.0603679
0.0586283
0.0568136
0.0553003
0.0544906
0.0544053
0.0546444
0.0548636
0.0547801
0.0543617
0.0537198
0.0533472
0.0532204
0.0531473
0.0525931
0.0518283
0.0509015
0.0503852
0.0498621
0.0494524
0.048598
0.0477615
0.0609376
0.0594803
0.0579416
0.0565578
0.0555862
0.0552008
0.0552967
0.0555073
0.055399
0.0548779
0.0541312
0.053691
0.053483
0.0533697
0.0528152
0.0521017
0.0511949
0.0507148
0.0502343
0.0498498
0.0490569
0.0482576
0.061515
0.0601943
0.0586628
0.0572443
0.0563393
0.05605
0.0561281
0.056191
0.0559021
0.0552924
0.0545218
0.0540721
0.0538076
0.053665
0.0530879
0.0523831
0.051505
0.0510364
0.0505612
0.0501461
0.0493915
0.0485855
0.0614586
0.0602789
0.0590147
0.0578991
0.0571441
0.0568008
0.0566949
0.0566063
0.0562596
0.055663
0.0549211
0.0544535
0.0541561
0.0539436
0.0533643
0.052659
0.0518298
0.0513309
0.0508501
0.0504081
0.049685
0.0489094
0.0614129
0.0605562
0.0595177
0.0584724
0.0576628
0.0572425
0.0570896
0.0569724
0.0566181
0.0560181
0.0553031
0.0548076
0.0544773
0.0542118
0.0536425
0.052947
0.0521496
0.0516435
0.0511559
0.0507317
0.0500354
0.049312
0.0615471
0.0607284
0.0597148
0.0587335
0.058006
0.0576271
0.0574586
0.0572851
0.0568964
0.0562962
0.0556164
0.0551139
0.0547655
0.0544517
0.0539058
0.053233
0.0524948
0.0519702
0.0515103
0.051068
0.0504269
0.0496944
0.0612918
0.0605878
0.0597646
0.0589612
0.0583328
0.0579512
0.0577224
0.0574865
0.0570838
0.0565099
0.0558742
0.0553804
0.0550186
0.0546872
0.0541725
0.0535285
0.0528314
0.0523076
0.0518697
0.051407
0.0508053
0.0500803
0.0610449
0.0605015
0.0598295
0.0591344
0.0585516
0.0581592
0.0578948
0.0576278
0.0572236
0.0566798
0.0560932
0.0556242
0.0552597
0.0549046
0.0543987
0.0537878
0.0531505
0.0526428
0.0521964
0.051726
0.0511517
0.0504891
0.0608405
0.0603714
0.0597916
0.059189
0.0586712
0.0582949
0.0580111
0.0577202
0.0573235
0.0568192
0.0562761
0.0558141
0.0554295
0.0550572
0.0545812
0.0540192
0.0534272
0.0529141
0.0524592
0.0519858
0.0514351
0.0508085
0.0605507
0.0601517
0.0596749
0.0591764
0.0587286
0.05837
0.0580684
0.0577543
0.0573598
0.0568849
0.0563826
0.0559371
0.0555511
0.0551739
0.0547157
0.0541797
0.0536142
0.0531045
0.0526401
0.0521541
0.051603
0.0509933
0.0602846
0.0599564
0.0595663
0.0591472
0.0587469
0.0583952
0.0580753
0.0577441
0.0573574
0.0569155
0.0564539
0.0560258
0.0556306
0.0552318
0.0547758
0.0542648
0.0537316
0.0532262
0.0527424
0.0522386
0.0516848
0.0510822
0.0600376
0.059749
0.0594164
0.0590584
0.0587028
0.0583671
0.0580424
0.0577053
0.0573302
0.0569167
0.0564834
0.0560622
0.0556556
0.0552454
0.0547983
0.0543111
0.0537991
0.0532924
0.0527898
0.0522711
0.0517121
0.0511194
0.0597902
0.0595266
0.0592388
0.0589321
0.0586151
0.0582944
0.0579665
0.057624
0.0572574
0.056868
0.0564628
0.0560556
0.055646
0.0552272
0.0547818
0.0543091
0.0538131
0.0533099
0.0527959
0.0522671
0.0517073
0.0511234
0.0596887
0.0594385
0.0591701
0.0588842
0.0585823
0.0582671
0.0579375
0.0575937
0.057233
0.0568568
0.0564652
0.0560633
0.0556493
0.055223
0.0547767
0.0543114
0.0538239
0.0533218
0.052801
0.0522664
0.0517063
0.0511264
-0.0103258
-0.0211727
-0.0297505
-0.043297
-0.0601243
0.00331035
-0.00600243
-0.0106982
-0.0200938
-0.0306755
0.0178276
0.0119659
0.00778292
0.00128105
-0.00986046
0.0284293
0.0231134
0.017846
0.0108211
0.000122516
0.0293594
0.0242485
0.0189376
0.0127383
0.0368008
0.0337215
0.0306468
0.0254051
0.0448081
0.0422611
0.0384482
0.0323498
0.049601
0.0464018
0.0426163
0.0381607
0.0527738
0.0502902
0.0478818
0.0446011
0.0564645
0.0547541
0.052511
0.0490451
0.0593269
0.0574724
0.0551164
0.052151
0.0609354
0.059245
0.0574209
0.0551432
0.0623958
0.0610672
0.0595596
0.0574477
0.0636352
0.062361
0.0608524
0.0589574
0.0642686
0.0630608
0.0618166
0.0602985
0.0646982
0.0636872
0.0626222
0.0612575
0.0649437
0.0640219
0.0630265
0.0618083
0.0649349
0.0640625
0.0631707
0.0621358
0.0646599
0.0639007
0.0632322
0.06247
0.0645096
0.0639043
0.0632666
0.0624396
0.0641894
0.0634753
0.062784
0.0621051
0.0635814
0.0630283
0.0625757
0.0621242
0.0632813
0.062834
0.0623803
0.0618712
0.0628359
0.0623718
0.0619214
0.0614878
0.0623278
0.0619332
0.0615665
0.0612146
0.0619129
0.0615629
0.0612232
0.0608909
0.0615055
0.0611821
0.0608706
0.0605749
0.0611367
0.0608505
0.0605717
0.0603024
0.060843
0.0605755
0.0603091
0.0600463
0.0606967
0.0604422
0.0601884
0.0599356
)
;

boundaryField
{
    outlet
    {
        type            fixedValue;
        value           nonuniform 0();
    }
    upperWall
    {
        type            symmetryPlane;
    }
    lowerWall
    {
        type            symmetryPlane;
    }
    inlet
    {
        type            zeroGradient;
    }
    cylinder
    {
        type            zeroGradient;
    }
    frontAndBack
    {
        type            empty;
    }
    procBoundary6to2
    {
        type            processor;
        value           nonuniform List<scalar> 
37
(
-1.1527
-1.19724
-1.21732
-1.21091
-1.18048
-1.12982
-1.06449
-0.993029
-0.930974
-0.894446
-0.886265
-0.904897
-0.952197
-0.998614
-1.00978
-0.968191
-0.877639
-0.728889
-0.555896
-0.439223
-0.379004
-0.357057
-0.366085
-0.406082
-0.493498
-0.644671
-0.836217
-0.993003
-1.02362
-0.912754
-0.718769
-0.526846
-0.396577
-0.327737
-0.306737
-0.327577
-0.404032
)
;
    }
    procBoundary6to5
    {
        type            processor;
        value           nonuniform List<scalar> 
63
(
-0.121267
-0.121267
-0.13182
-0.133678
-0.133678
-0.116421
-0.110131
-0.110131
-0.0847793
-0.0747766
-0.0646175
-0.0646175
-0.0401453
-0.0305797
-0.0214978
-0.0214978
-0.918975
-0.778786
-0.778786
-0.623483
-0.516543
-0.453095
-0.420387
-0.420387
-0.370593
-0.370593
-0.260084
-0.260084
-0.120883
-0.120883
-0.0882336
-0.0882336
-0.00195485
0.00906183
0.0215014
0.0321209
0.0344977
0.0344977
0.040378
0.0472582
0.0523879
0.0554278
0.0583364
0.0610411
0.0626664
0.063834
0.0648858
0.0654689
0.0657307
0.0658526
0.0657833
0.0654713
0.0651378
0.0648466
0.0641915
0.0637288
0.0632744
0.0627215
0.0622536
0.0618202
0.0614187
0.0611062
0.06095
)
;
    }
    procBoundary6to7
    {
        type            processor;
        value           nonuniform List<scalar> 
42
(
-0.624797
-0.702609
-0.741491
-0.730087
-0.658176
-0.539137
-0.539137
-0.553034
-0.401875
-0.265882
-0.152631
-0.152631
-0.131193
-0.0831298
-0.0368366
-0.00919409
0.0065989
0.0182024
0.0255642
0.0311
0.0343154
0.037086
0.0390602
0.041085
0.0426578
0.0441704
0.0453649
0.046301
0.0470572
0.0475873
0.0479267
0.0482766
0.0486766
0.0490807
0.0495245
0.0499642
0.0502777
0.0504343
0.0504967
0.0505195
0.0505154
0.0505158
)
;
    }
}


// ************************************************************************* //
