/*--------------------------------*- C++ -*----------------------------------*\
| =========                 |                                                 |
| \\      /  F ield         | OpenFOAM: The Open Source CFD Toolbox           |
|  \\    /   O peration     | Version:                                        |
|   \\  /    A nd           | Website:  www.openfoam.com                      |
|    \\/     M anipulation  |                                                 |
\*---------------------------------------------------------------------------*/
FoamFile
{
    version     2.0;
    format      ascii;
    class       surfaceScalarField;
    location    "47";
    object      phi;
}
// * * * * * * * * * * * * * * * * * * * * * * * * * * * * * * * * * * * * * //

dimensions      [0 3 -1 0 0 0 0];
oriented        oriented;


internalField   nonuniform List<scalar> 
2201
(
-0.00249345
4.46363e-05
0.00244881
-0.00120166
-0.00129179
0.000520079
-0.00172174
0.00138692
-0.000866844
0.00147105
-8.4124e-05
0.00130534
0.00016571
0.00133029
-2.49555e-05
0.00172016
-0.000389868
0.00234944
-0.000629278
0.000771483
0.00157796
-0.00242448
-0.000377747
0.00284686
-0.000612644
-0.00310362
0.00123273
-0.00356712
0.00210028
-0.00173439
0.00216162
-0.000145463
0.00205112
0.000276204
0.00195909
6.70792e-05
4.89925e-05
0.00152023
-0.00469927
0.00411898
0.00637126
-0.010299
-0.000990231
-0.00101527
0.00162775
0.000764534
-0.00485839
0.00205443
-0.00485701
0.00229329
-0.00197326
0.00196478
0.00018305
0.000712622
0.00152836
-0.00332813
0.00410784
-0.00978314
0.00797523
-0.0150092
0.00934508
0.00946649
-0.0181045
0.000738019
-0.00138904
-0.000364241
0.00204498
-0.00616535
0.00249291
-0.00530494
0.00178688
-0.00126723
-0.000510759
0.00248069
-0.00555548
0.00657308
-0.0121749
0.0107273
-0.0170162
0.0128165
-0.0201221
0.012451
0.0112862
-0.0219418
0.00230734
-0.000869988
-0.0028264
0.00261548
-0.00647349
0.00149614
-0.0041856
-0.00151873
0.00174764
-0.00680183
0.00776378
-0.0131728
0.0129441
-0.0182472
0.0158017
-0.0209465
0.0155158
-0.0225632
0.0140677
0.0122892
-0.0235662
0.00272964
6.95398e-05
-0.00366917
0.00153445
-0.0052783
-0.00187045
-0.000780696
-0.00717979
0.00705698
-0.0134282
0.0140122
-0.0186858
0.0182017
-0.0215375
0.0186534
-0.0229332
0.0169114
-0.0239073
0.0150418
0.0127824
-0.0244004
0.00301701
0.00166338
-0.00461085
-0.000472679
-0.00178861
-0.00590275
0.00464938
-0.0125287
0.0136829
-0.0183923
0.0198758
-0.0218088
0.0216182
-0.0231972
0.0200419
-0.0241646
0.0178787
-0.024799
0.0156763
0.0131036
-0.0251203
0.00131856
0.00376012
-0.0034153
-0.00337158
0.00290153
-0.0101818
0.0114596
-0.0169134
0.0204144
-0.0214141
0.0243766
-0.0232888
0.0234929
-0.0242153
0.0209683
-0.0250956
0.0187591
-0.025547
0.0161277
0.0134518
-0.0258952
-0.000554674
0.00730811
-0.00299331
-0.00668388
0.00903074
-0.01412
0.0188958
-0.0200394
0.0263337
-0.0229931
0.0273304
-0.0240623
0.0245621
-0.0251151
0.022021
-0.0259249
0.0195689
-0.0263525
0.0165553
0.0138681
-0.0267689
-0.00301225
-0.0100865
0.016105
-0.0173407
0.02615
-0.0220689
0.0310619
-0.0237562
0.0290177
-0.0247935
0.0255994
-0.0260759
0.0233035
-0.0267059
0.0201988
-0.0272654
0.0171149
0.0142084
-0.0276057
-0.0132935
0.0236157
-0.0199848
0.0328413
-0.0232779
0.034355
-0.0243266
0.0300665
-0.0257983
0.027071
-0.0269348
0.0244399
-0.0275372
0.0208012
-0.0281744
0.0177521
0.0144598
-0.0284259
-0.0163468
-0.0219304
0.038425
-0.0240284
0.036453
-0.0251626
0.0312007
-0.0268473
0.0287557
-0.0277682
0.0253609
-0.0284685
0.0215015
-0.0291409
0.0184246
0.0146886
-0.0293698
-0.023509
0.0428946
-0.0247615
0.0377054
-0.0261643
0.0326035
-0.0279765
0.0305679
-0.0286414
0.0260258
-0.0296214
0.0224815
-0.0301501
0.0189533
0.0149507
-0.0304121
-0.024725
-0.0254401
0.0384206
-0.0275809
0.0347443
-0.0289931
0.0319801
-0.0297289
0.0267616
-0.0308228
0.0235754
-0.0310994
0.0192299
0.0153605
-0.0315092
-0.0267748
0.0395608
-0.029003
0.0369725
-0.0300421
0.0330191
-0.0309805
0.0277
-0.0318915
0.0244863
-0.0322048
0.0195432
0.0157759
-0.0326202
-0.0279981
0.0408317
-0.030435
0.0394094
-0.0311345
0.0337186
-0.0322395
0.028805
-0.0331106
0.0253574
-0.0333881
0.0198206
0.0162513
-0.0338634
-0.0298775
-0.0319143
0.0414463
-0.0322313
0.0340356
-0.0338997
0.0304734
-0.0341658
0.0256236
-0.0347643
0.0204191
0.0164441
-0.0349571
-0.0327975
0.0423536
-0.0338027
0.0350408
-0.0351175
0.0317882
-0.0353408
0.0258468
-0.036108
0.0211863
0.0163831
-0.036047
-0.0343462
0.0433389
-0.0353122
0.0360069
-0.0365202
0.0329961
-0.0367719
0.0260986
-0.0374903
0.0219047
0.0163263
-0.0374335
-0.0352577
-0.0369797
0.0377289
-0.0377834
0.0337998
-0.0381066
0.0264218
-0.038966
0.022764
0.0161015
-0.0387412
0.00680253
0.000373277
0.00586667
0.000935857
0.00429936
0.00156731
0.00217491
0.00212445
7.70459e-05
0.00209787
-0.00114199
0.00121904
-0.00147105
0.000329055
-0.00151141
4.03576e-05
-0.00189945
0.000388043
0.000549362
0.0111844
0.000138705
0.0108864
0.00123385
0.0100467
0.002407
0.00860707
0.00356411
0.00630407
0.00440087
0.00299273
0.00453038
-4.49481e-05
0.00336673
-0.00183238
0.00182779
-0.00258281
0.00113847
0.00081341
0.0123565
0.0124895
0.0011009
0.0122052
0.00269125
0.0114168
0.00435254
0.009961
0.00585669
0.00758857
0.00690282
0.00419181
0.00676348
0.000828855
0.00519075
-0.00116243
0.00312976
0.00127873
0.0134878
0.0133363
0.0127933
0.0117964
0.0102639
0.0084353
0.00776188
0.00926548
0.00451262
0.00844001
0.00168818
0.00595419
0.00260268
0.011655
0.0098885
0.011032
0.0074022
0.0109263
0.00473296
0.00862343
0.00450924
0.0109236
0.00870016
0.0131497
0.00594994
0.0113736
0.00679001
0.00938845
0.00710594
0.0136562
0.0092851
0.0059119
0.0117817
0.0153062
0.0519721
-0.0511768
0.0149738
0.0550428
-0.0547104
0.0140783
0.0595214
-0.0586259
0.0127407
0.0644468
-0.0631092
0.011502
0.0687026
-0.0674639
0.0105264
0.0726044
-0.0716288
0.009728
0.07681
-0.0760117
0.0090289
0.0816608
-0.0809618
0.0083688
0.08703
-0.0863699
0.00771395
0.0927236
-0.0920688
0.00706885
0.0987664
-0.0981213
0.00645473
0.10519
-0.104576
0.00587863
0.112013
-0.111437
0.00534063
0.119249
-0.118711
0.00484042
0.126935
-0.126435
0.00437756
0.135113
-0.13465
0.00394916
0.143843
-0.143414
0.00355256
0.153173
-0.152776
0.00318204
0.163141
-0.162771
0.00283308
0.173793
-0.173444
0.00250471
0.185176
-0.184848
0.00219452
0.197346
-0.197035
0.00189853
0.210356
-0.21006
0.00161301
0.224269
-0.223984
0.00133553
0.239158
-0.238881
0.00106438
0.255106
-0.254835
0.000796704
0.272211
-0.271943
0.000531136
0.290584
-0.290318
0.000268337
0.310355
-0.310092
0.331676
-0.331408
0.0212272
0.053509
0.019164
0.057106
0.0182789
0.0604065
0.0180566
0.0646691
0.0173536
0.0694055
0.0162228
0.0737352
0.0150847
0.0779481
0.0140948
0.0826508
0.0132079
0.0879168
0.0123604
0.0935711
0.0115353
0.0995915
0.0107436
0.105982
0.00999538
0.112761
0.00928839
0.119956
0.00862419
0.127599
0.0079967
0.13574
0.00739653
0.144443
0.00681833
0.153751
0.00625633
0.163703
0.00570459
0.174344
0.0051598
0.185721
0.00461937
0.197886
0.00407928
0.210896
0.00353535
0.224813
0.00298412
0.23971
0.00242238
0.255668
0.00184677
0.272786
0.00125391
0.291177
0.000640565
0.310968
0.332317
0.0264973
0.0534335
0.0259583
0.057645
0.0240242
0.0623406
0.0222015
0.0664917
0.0209804
0.0706266
0.0199235
0.0747921
0.0188874
0.0789842
0.0179648
0.0835733
0.0171114
0.0887703
0.016247
0.0944355
0.015382
0.100457
0.0145431
0.106821
0.0137323
0.113572
0.0129413
0.120747
0.0121719
0.128369
0.0114186
0.136494
0.0106767
0.145185
0.0099426
0.154485
0.00921136
0.164435
0.00847624
0.175079
0.00773267
0.186465
0.00697743
0.198641
0.0062066
0.211667
0.0054158
0.225604
0.0046008
0.240525
0.00375727
0.256511
0.00288077
0.273663
0.00196633
0.292091
0.00100865
0.311926
0.333325
0.031213
0.0560202
0.0291821
0.059676
0.0287899
0.0627328
0.0284621
0.0668195
0.0273513
0.0717374
0.0257853
0.0763581
0.0242614
0.0805081
0.0229795
0.0848552
0.0218593
0.0898905
0.0207834
0.0955114
0.019734
0.101506
0.0187149
0.10784
0.0177239
0.114563
0.0167633
0.121708
0.0158329
0.129299
0.0149187
0.137408
0.0140112
0.146092
0.0131041
0.155392
0.0121902
0.165349
0.0112617
0.176008
0.0103127
0.187414
0.00933811
0.199616
0.00833309
0.212672
0.00729292
0.226644
0.00621256
0.241605
0.00508664
0.257637
0.00390952
0.27484
0.00267471
0.293326
0.00137476
0.313226
0.3347
0.0386366
0.0363406
0.0330829
0.0312868
0.0304205
0.0293061
0.0279804
0.0267689
0.0256397
0.024527
0.0234468
0.102586
0.0223817
0.108905
0.0213195
0.115625
0.0202711
0.122756
0.0192336
0.130337
0.0181943
0.138447
0.0171484
0.147138
0.0160909
0.15645
0.0150138
0.166426
0.0139097
0.177112
0.0127727
0.188551
0.0115959
0.200793
0.0103733
0.213894
0.00909913
0.227918
0.00776751
0.242937
0.0063721
0.259033
0.00490626
0.276306
0.00336218
0.29487
0.0017306
0.314857
0.336431
0.0275735
0.0263237
0.0250877
0.0238813
0.0226888
0.0214948
0.0202919
0.0190711
0.0178216
0.0165357
0.015206
0.0138241
0.0123828
0.0108753
0.00929451
0.00763312
0.00588324
0.00403567
0.00207918
0.0304939
0.0260729
-0.0288001
-0.0277666
0.0321726
0.0229933
-0.024672
0.0337246
0.0188304
-0.0203824
0.0352961
0.0151473
-0.0167188
0.0363896
0.010804
-0.0118974
0.0373997
0.00647175
-0.00748184
0.0383151
0.00169839
-0.00261377
0.0387393
-0.00305598
0.0026317
0.0391786
-0.00814022
0.00770092
-0.0132678
0.0137053
0.0293497
0.0242616
-0.0275385
0.0311538
0.0211892
0.0326241
0.0173601
0.0341221
0.0136492
0.0352719
0.00965424
0.0362433
0.00550031
0.0370258
0.000915937
0.0373935
-0.00342373
0.0377166
-0.00846331
-0.0129847
0.0283653
0.0226841
-0.0267878
0.0301716
0.0193828
0.0315482
0.0159835
0.0329465
0.0122509
0.0340586
0.00854219
0.0349751
0.00458381
0.0356453
0.00024577
0.0360303
-0.00380878
0.0362981
-0.00873109
-0.0127336
0.0276413
0.021111
-0.0260682
0.0293522
0.017672
0.0306742
0.0146615
0.0319311
0.010994
0.0329746
0.00749869
0.0338516
0.00370683
0.0344123
-0.000314932
0.0348996
-0.00429609
0.0349663
-0.0087978
-0.0127244
0.0269021
0.0193138
-0.0251049
0.0284507
0.0161233
0.0298928
0.0132194
0.0310005
0.00988623
0.0320295
0.00646973
0.0328277
0.0029086
0.0333702
-0.000857452
0.0338132
-0.00473902
0.0337908
-0.00877546
-0.012797
0.0260371
0.0174723
-0.0241957
0.0274956
0.0146648
0.0289137
0.0118014
0.0300334
0.0087665
0.030983
0.00552021
0.0317688
0.00212276
0.0322679
-0.00135653
0.0326461
-0.00511729
0.0326482
-0.00877751
-0.012769
0.0253259
0.0157559
-0.0236095
0.0266846
0.0133061
0.0279872
0.0104987
0.0290739
0.00767982
0.0299753
0.00461888
0.0307005
0.00139752
0.0312074
-0.00186344
0.0315259
-0.00543579
0.0315727
-0.00882429
-0.0127055
0.0247313
0.0141747
-0.0231501
0.0261187
0.0119188
0.0272816
0.00933584
0.0283414
0.00662002
0.0291702
0.0037901
0.0298292
0.000738442
0.030328
-0.00236224
0.0305466
-0.00565439
0.0306661
-0.00894373
-0.0124516
0.023993
0.0126879
-0.0225062
0.0254342
0.0104775
0.026562
0.008208
0.027588
0.00559407
0.0283759
0.00300224
0.0289868
0.000127451
0.0294169
-0.00279229
0.0296114
-0.00584887
0.0296581
-0.00899046
-0.0121632
0.0233085
0.0112682
-0.0218887
0.0246452
0.00914084
0.0257881
0.00706506
0.0267326
0.00464963
0.0275132
0.00222162
0.02808
-0.000439359
0.0284738
-0.00318613
0.028659
-0.00603409
0.02866
-0.00899144
-0.0119291
0.0228537
0.00987736
-0.0214629
0.0240578
0.00793679
0.0251546
0.00596817
0.0260297
0.0037746
0.0267584
0.00149285
0.0273003
-0.000981194
0.0276448
-0.00353061
0.0278364
-0.00622569
0.0277815
-0.00893656
-0.0117533
0.0224315
0.00847407
-0.0210282
0.0235754
0.00679295
0.0246237
0.00491978
0.025442
0.00295637
0.0261204
0.000814391
0.0265991
-0.00145983
0.0269127
-0.00384422
0.0270431
-0.00635611
0.0269619
-0.0088554
-0.0115602
0.0219217
0.0071463
-0.0205939
0.0230717
0.00564299
0.0240393
0.00395212
0.0248466
0.00214908
0.0254492
0.000211858
0.0258934
-0.00190405
0.0261589
-0.00410972
0.0262291
-0.0064263
0.026163
-0.00878935
-0.0112923
0.0215348
0.00591222
-0.0203007
0.0226507
0.00452704
0.0235502
0.00305266
0.0243058
0.00139343
0.0248672
-0.000349501
0.025264
-0.00230083
0.0254683
-0.00431403
0.0255088
-0.00646678
0.0254235
-0.00870401
-0.0109892
0.0212675
0.00471593
-0.0200712
0.022316
0.00347857
0.0231759
0.0021928
0.0238561
0.000713185
0.0243773
-0.000870722
0.0247173
-0.00264077
0.0248508
-0.00444757
0.0248528
-0.00646881
0.0247059
-0.00855705
-0.0106838
0.0210611
0.00353521
-0.0198804
0.0220308
0.00250889
0.0228687
0.00135489
0.023465
0.000116862
0.0239509
-0.00135661
0.0242109
-0.00290082
0.024299
-0.00453566
0.0242125
-0.00638224
0.0239652
-0.00830977
-0.0102848
0.0209581
0.00238308
-0.019806
0.0218273
0.00163967
0.0225814
0.000600777
0.0231547
-0.000456455
0.0235353
-0.00173719
0.0236918
-0.00305733
0.0237327
-0.00457656
0.0234754
-0.00612491
0.0229731
-0.00780746
-0.00925353
0.0209605
0.00126982
-0.0198472
0.0218716
0.000728556
0.0224414
3.09723e-05
0.0228614
-0.000876426
0.0230253
-0.00190114
0.0229611
-0.00299309
0.0226843
-0.00429977
0.0221072
-0.0055478
0.0207663
-0.0064666
-0.00659165
0.0208581
0.000315171
-0.0199034
0.0216395
-5.28956e-05
0.0220701
-0.000399636
0.0220418
-0.000848143
0.0215506
-0.00140993
0.0206578
-0.00210026
0.0192238
-0.00286576
0.0176507
-0.00397476
0.0148936
-0.00370943
-0.00199713
0.01578
-0.0154648
0.0157271
0.0153275
0.0144793
0.0130694
0.0109691
0.00810336
0.0041286
0.000419172
0.0214494
0.0374884
0.0238768
0.0349482
-0.0373756
0.0263316
0.0320024
-0.0344573
0.0287625
-0.031231
0.0182217
0.0368314
0.0208081
0.034902
0.0232118
0.0325445
0.0257856
0.0294286
0.0270096
0.0124803
0.0370699
0.0151452
0.0359126
0.0177176
0.0342591
0.0202611
0.0323585
0.0224533
0.0303523
0.02489
0.026992
0.0251118
0.00411809
0.0360115
0.0068311
0.0357939
0.00952219
0.0353056
0.012174
0.0344181
0.0147657
0.0333208
0.0172205
0.0318043
0.0197455
0.0298335
0.0217818
0.028316
0.0237981
0.0249757
0.0228417
0.00407614
0.0333826
0.00670857
0.0331615
0.00931263
0.0327016
0.0118787
0.031852
0.0143966
0.0308029
0.0167124
0.0294885
0.0191957
0.0273502
0.0213134
0.0261982
0.0229157
0.0233734
0.0206525
0.00403403
0.030827
0.00658877
0.0306068
0.00911395
0.0301764
0.0115866
0.0293794
0.0140616
0.028328
0.0162532
0.0272969
0.0185455
0.0250579
0.0209016
0.0238422
0.0224185
0.0218565
0.0188753
0.00398835
0.0283415
0.00647117
0.0281239
0.00892562
0.0277219
0.0112997
0.0270053
0.0137292
0.0258985
0.0158972
0.0251289
0.0178598
0.0230952
0.0203018
0.0214002
0.0221465
0.0200118
0.0174123
0.0039444
0.0259219
0.00635702
0.0257113
0.0087546
0.0253244
0.0110355
0.0247243
0.0133898
0.0235442
0.0156303
0.0228884
0.017374
0.0213516
0.0194656
0.0193085
0.0216081
0.0178693
0.0158703
0.00390367
0.0235646
0.00624905
0.0233659
0.00859619
0.0229772
0.0108091
0.0225115
0.0130139
0.0213394
0.0153554
0.0205469
0.0171948
0.0195122
0.0188542
0.0176491
0.0207984
0.0159251
0.0141625
0.00387182
0.0212631
0.00615169
0.0210861
0.00845205
0.0206769
0.0106443
0.0203192
0.0126694
0.0193143
0.0149194
0.0182968
0.0170075
0.0174241
0.0186554
0.0160013
0.020256
0.0143245
0.0125297
0.00384764
0.0190098
0.00606983
0.0188639
0.0083058
0.0184409
0.0105166
0.0181084
0.0124714
0.0173595
0.0144793
0.0162889
0.0165488
0.0153546
0.0184125
0.0141376
0.0199633
0.0127737
0.0110302
0.00383312
0.0167969
0.00601311
0.0166839
0.00816926
0.0162847
0.0103728
0.0159049
0.0123644
0.0153679
0.0142448
0.0144085
0.0161102
0.0134892
0.0179451
0.0123027
0.0196009
0.0111179
0.00960285
0.00382405
0.0146191
0.00598125
0.0145267
0.00806199
0.014204
0.0102168
0.0137501
0.0122459
0.0133388
0.0141214
0.012533
0.0159017
0.0117089
0.017569
0.0106353
0.0191873
0.00949968
0.00819619
0.00382238
0.0124757
0.0059726
0.0123765
0.00800464
0.012172
0.0100693
0.0116855
0.0121065
0.0113015
0.0139913
0.0106483
0.0157809
0.00991939
0.0174065
0.00900962
0.0189171
0.00798914
0.00681256
0.00382707
0.0103691
0.00597835
0.0102252
0.00801636
0.0101339
0.00999234
0.00970949
0.01197
0.00932387
0.0138513
0.00876698
0.0156157
0.00815493
0.0172637
0.00736163
0.0187307
0.00652216
0.00547203
0.00384459
0.00829681
0.00597559
0.00809421
0.00805656
0.00805297
0.0100295
0.00773659
0.01194
0.00741329
0.0137882
0.00691881
0.0155198
0.00642339
0.0171332
0.00574816
0.0186025
0.00505289
0.00419415
0.00389855
0.00623116
0.00599023
0.00600254
0.00808199
0.00596121
0.0100899
0.00572868
0.0120123
0.00549088
0.0138226
0.00510855
0.0155528
0.00469314
0.0171104
0.00419059
0.0185703
0.00359301
0.00295844
0.00398964
0.00412677
0.00605935
0.00393283
0.00814243
0.00387812
0.0101367
0.00373445
0.0120992
0.00352831
0.0139019
0.00330588
0.0156384
0.00295664
0.0171866
0.00264237
0.0186182
0.00216143
0.00172941
0.0041354
0.00189323
0.00627572
0.00179251
0.00839337
0.00176046
0.0104247
0.00170313
0.0123939
0.0015591
0.0142311
0.00146873
0.0159269
0.0012608
0.0174606
0.00110868
0.0187753
0.000846718
0.0006013
0.00336338
0.00515589
0.00691636
0.00861948
0.0101786
0.0116473
0.0129081
0.0140168
0.0148635
0.0323027
0.00995098
0.00941848
0.0106161
0.0116877
0.00966078
0.0445922
0.00948063
0.0487509
0.00897226
0.0525809
0.00846268
0.057063
0.00815332
0.0621405
0.00780108
0.0674369
0.00736608
0.0724897
0.00693329
0.0776299
0.0065196
0.0833847
0.00611394
0.0897143
0.00571324
0.0964512
0.00531524
0.103554
0.00491792
0.111059
0.00452457
0.119028
0.00413896
0.127522
0.00376348
0.136584
0.00339733
0.146225
0.0030425
0.156473
0.0027046
0.167367
0.00238628
0.178939
0.0020875
0.191236
0.00180719
0.204312
0.00154409
0.218226
0.00129618
0.233048
0.00106133
0.248853
0.00083802
0.265727
0.000624675
0.283783
0.000412243
0.303153
0.000197913
0.323965
0.346385
0.0103924
0.0458875
0.00978732
0.049356
0.00949886
0.0528693
0.00925345
0.0573084
0.00879318
0.0626008
0.00824848
0.0679816
0.00771863
0.0730196
0.00722651
0.0781221
0.00675427
0.0838569
0.00628144
0.0901871
0.00581996
0.0969127
0.00537739
0.103996
0.00495069
0.111486
0.00453325
0.119445
0.00412335
0.127932
0.003726
0.136981
0.00334249
0.146609
0.00297647
0.156839
0.00263131
0.167712
0.00230904
0.179261
0.0020101
0.191535
0.00173275
0.204589
0.00147492
0.218484
0.00123411
0.233289
0.0010075
0.249079
0.000793077
0.265941
0.000588836
0.283988
0.000387925
0.303354
0.000185727
0.324167
0.346571
-0.0282814
0.0464022
-0.0285049
0.0495795
-0.0285095
0.052874
-0.0291534
0.0579523
-0.0299469
0.0633943
-0.0302621
0.0682968
-0.0301777
0.0729352
-0.03001
0.0779544
-0.0298461
0.0836931
-0.0296186
0.0899596
-0.0292843
0.0965784
-0.0288435
0.103555
-0.0283057
0.110948
-0.0276778
0.118817
-0.0269592
0.127214
-0.0261384
0.136161
-0.0252043
0.145675
-0.0241468
0.155782
-0.0229569
0.166522
-0.0216311
0.177935
-0.0201658
0.190069
-0.0185583
0.202982
-0.0168056
0.216731
-0.0149037
0.231387
-0.0128479
0.247023
-0.010633
0.263727
-0.00825133
0.281606
-0.00569227
0.300795
-0.0029501
0.321425
0.343621
-0.0245168
0.046247
-0.0245765
0.0496393
-0.0254615
0.0537589
-0.026283
0.0587738
-0.026398
0.0635092
-0.0262195
0.0681183
-0.0260838
0.0727995
-0.0260642
0.0779347
-0.0260802
0.0837091
-0.0260221
0.0899015
-0.0258465
0.0964028
-0.0255602
0.103269
-0.0251783
0.110566
-0.0247098
0.118349
-0.0241452
0.126649
-0.0234697
0.135485
-0.0226749
0.14488
-0.0217558
0.154863
-0.0207076
0.165474
-0.0195292
0.176757
-0.0182189
0.188759
-0.0167752
0.201538
-0.0151964
0.215152
-0.0134801
0.229671
-0.0116229
0.245166
-0.00962094
0.261725
-0.00746746
0.279453
-0.00515312
0.29848
-0.00266967
0.318942
0.340951
-0.0211139
0.0469785
-0.0215846
0.0501099
-0.021668
0.0538423
-0.0218733
0.0589791
-0.0222732
0.0639091
-0.022594
0.0684392
-0.0227324
0.0729379
-0.0228071
0.0780094
-0.0228329
0.0837348
-0.0227712
0.0898397
-0.0226239
0.0962555
-0.0224086
0.103054
-0.0221321
0.11029
-0.0217811
0.117998
-0.0213328
0.126201
-0.0207714
0.134924
-0.0200917
0.1442
-0.0192933
0.154064
-0.0183754
0.164556
-0.0173386
0.17572
-0.0161823
0.187603
-0.0149053
0.200261
-0.0135061
0.213753
-0.011983
0.228147
-0.0103337
0.243517
-0.00855509
0.259946
-0.00664136
0.277539
-0.00458425
0.296423
-0.00237433
0.316732
0.338577
-0.0168891
0.0471489
-0.0171463
0.0503671
-0.0180203
0.0547163
-0.0188204
0.0597793
-0.0189791
0.0640677
-0.0188485
0.0683086
-0.0187853
0.0728747
-0.0188582
0.0780823
-0.0189554
0.0838321
-0.0189973
0.0898816
-0.0189685
0.0962267
-0.0188726
0.102958
-0.0187126
0.110129
-0.0184809
0.117766
-0.0181605
0.12588
-0.0177372
0.1345
-0.0172037
0.143667
-0.0165588
0.153419
-0.0158026
0.1638
-0.0149367
0.174854
-0.013962
0.186628
-0.0128774
0.199176
-0.0116819
0.212558
-0.0103743
0.22684
-0.00895314
0.242096
-0.00741669
0.258409
-0.00576061
0.275883
-0.00397792
0.29464
-0.00205997
0.314814
0.336517
-0.0124557
0.0477071
-0.0131692
0.0510807
-0.0136119
0.0551589
-0.0139183
0.0600857
-0.0143414
0.0644908
-0.0148088
0.0687759
-0.0151569
0.0732228
-0.0153999
0.0783253
-0.015545
0.0839773
-0.0156001
0.0899366
-0.0155897
0.0962163
-0.0155328
0.102901
-0.0154322
0.110029
-0.0152736
0.117608
-0.0150387
0.125645
-0.0147151
0.134177
-0.0142972
0.143249
-0.0137833
0.152906
-0.0131734
0.16319
-0.0124687
0.174149
-0.0116704
0.18583
-0.0107779
0.198284
-0.00978942
0.211569
-0.00870341
0.225754
-0.00751849
0.240911
-0.00623346
0.257124
-0.0048451
0.274494
-0.00334748
0.293143
-0.00173342
0.3132
0.334783
-0.00789915
0.0481244
-0.00834146
0.051523
-0.00908885
0.0559063
-0.00983477
0.0608316
-0.0102178
0.0648738
-0.0104211
0.0689792
-0.0106394
0.0734412
-0.0109168
0.0786027
-0.0111818
0.0842423
-0.0113929
0.0901477
-0.0115482
0.0963716
-0.011649
0.103002
-0.0116907
0.110071
-0.0116618
0.117579
-0.0115568
0.12554
-0.0113728
0.133993
-0.0111081
0.142984
-0.0107612
0.152559
-0.0103303
0.162759
-0.00981546
0.173635
-0.00921867
0.185233
-0.00854025
0.197605
-0.00777916
0.210808
-0.00693397
0.224909
-0.00600352
0.23998
-0.00498716
0.256108
-0.00388294
0.27339
-0.00268617
0.291946
-0.00139167
0.311905
0.333392
-0.00334389
0.0488545
-0.00388856
0.0520677
-0.00425969
0.0562774
-0.00469354
0.0612655
-0.00531265
0.0654929
-0.0059738
0.0696404
-0.00654329
0.0740107
-0.00699433
0.0790537
-0.00734262
0.0845906
-0.00761304
0.0904181
-0.00782663
0.0965851
-0.00799191
0.103167
-0.00811653
0.110195
-0.00818227
0.117644
-0.00818292
0.125541
-0.00811515
0.133925
-0.00797873
0.142848
-0.00777467
0.152355
-0.00750217
0.162487
-0.00716095
0.173293
-0.00675295
0.184825
-0.00627926
0.197131
-0.00573949
0.210269
-0.00513245
0.224302
-0.00445705
0.239305
-0.00371258
0.255364
-0.00289771
0.272575
-0.00200873
0.291057
-0.00104192
0.310939
0.33235
0.00197278
0.0495135
0.0011331
0.0529073
0.000167411
0.0572431
-0.000301173
0.0617341
-0.000723389
0.0659152
-0.00112053
0.0700375
-0.00160434
0.0744945
-0.00211574
0.0795651
-0.00260322
0.085078
-0.00304572
0.0908606
-0.00344474
0.0969842
-0.00379298
0.103515
-0.00409555
0.110498
-0.00432586
0.117875
-0.00448754
0.125703
-0.00458252
0.13402
-0.0046155
0.142881
-0.00459012
0.152329
-0.00450696
0.162403
-0.00436595
0.173152
-0.0041692
0.184628
-0.0039189
0.196881
-0.00361603
0.209966
-0.00326068
0.223946
-0.00285267
0.238897
-0.0023919
0.254903
-0.00187788
0.272061
-0.00130827
0.290487
-0.0006809
0.310311
0.331669
0.00682789
0.0503865
0.00644552
0.0532897
0.00601781
0.0576708
0.00514996
0.0626019
0.0041296
0.0669355
0.00329706
0.0708701
0.00259201
0.0751995
0.00198006
0.0801771
0.00142929
0.0856288
0.000919554
0.0913704
0.00044382
0.0974599
-1.8996e-06
0.103961
-0.00036098
0.110857
-0.000684393
0.118198
-0.000959221
0.125978
-0.00118381
0.134245
-0.0013588
0.143056
-0.00148724
0.152458
-0.00157123
0.162487
-0.00161198
0.173193
-0.00161182
0.184628
-0.00157331
0.196843
-0.00149829
0.209891
-0.00138785
0.223836
-0.00124271
0.238752
-0.00106335
0.254723
-0.000849804
0.271848
-0.000601098
0.290239
-0.000316384
0.310027
0.331352
0.012915
0.0114943
0.0105392
0.010032
0.00950363
0.00874493
0.00793282
0.00714813
0.00640706
0.00570868
0.00504732
0.00443247
0.00385273
0.00333949
0.00288211
0.00247672
0.00211803
0.00179949
0.00151605
0.00126561
0.00104581
0.000853086
0.000683968
0.000535915
0.000406972
0.000295454
0.000200243
0.000120627
5.53897e-05
)
;

boundaryField
{
    outlet
    {
        type            calculated;
        value           nonuniform 0();
    }
    upperWall
    {
        type            symmetryPlane;
        value           nonuniform 0();
    }
    lowerWall
    {
        type            symmetryPlane;
        value           uniform 0;
    }
    inlet
    {
        type            calculated;
        value           nonuniform 0();
    }
    cylinder
    {
        type            calculated;
        value           uniform 0;
    }
    frontAndBack
    {
        type            empty;
        value           nonuniform 0();
    }
    procBoundary1to0
    {
        type            processor;
        value           nonuniform List<scalar> 
45
(
-0.0187957
-0.0394983
-0.040142
-0.0398095
-0.0155549
-0.0385774
-0.0387182
-0.038507
-0.00974077
-0.0379967
-0.0331467
-0.0384241
-0.00910692
-0.0356548
-0.00836995
-0.044302
-0.0485707
-0.0520725
-0.0565534
-0.0618312
-0.0670846
-0.0720547
-0.0771972
-0.082971
-0.0893086
-0.0960505
-0.103156
-0.110662
-0.118634
-0.127137
-0.136209
-0.145859
-0.156118
-0.167029
-0.17862
-0.190937
-0.204031
-0.217963
-0.2328
-0.248618
-0.265504
-0.28357
-0.30294
-0.323751
-0.346187
)
;
    }
    procBoundary1to2
    {
        type            processor;
        value           nonuniform List<scalar> 
63
(
0.0113835
-0.0010631
0.00578278
0.00862001
0.0313424
0.0190395
0.0215491
0.0460705
0.0256346
0.0267272
0.0274522
0.0432571
0.0318901
0.0333609
0.0356678
0.0429289
-0.000387105
-0.0132153
0.000828413
0.00284281
0.00489546
0.00685368
-0.0129083
0.00968858
-0.0124666
0.012575
-0.0112604
0.0150217
-0.00869767
0.0164419
-0.00601848
0.0148069
0.0551125
0.0619719
0.0659905
0.0686157
0.0726036
0.0774725
0.0818338
0.0860667
0.0910197
0.0966242
-0.0288272
0.10384
0.110155
0.116861
0.123963
0.131529
0.139641
0.148341
0.15767
0.167675
0.178398
0.189881
0.202175
0.215336
0.229426
0.244517
0.260694
0.278056
0.296718
0.316814
0.33851
)
;
    }
    procBoundary1to5
    {
        type            processor;
        value           nonuniform List<scalar> 
20
(
-0.00717581
-0.0109499
-0.0118307
-0.00141143
-0.00144725
-0.00147841
-0.00150279
-0.00152484
-0.00154635
-0.00157029
-0.00159439
-0.00162021
-0.0016462
-0.00167899
-0.00172046
-0.00177235
-0.00183291
-0.00188525
-0.00190186
-0.00147015
)
;
    }
}


// ************************************************************************* //
