/*--------------------------------*- C++ -*----------------------------------*\
| =========                 |                                                 |
| \\      /  F ield         | OpenFOAM: The Open Source CFD Toolbox           |
|  \\    /   O peration     | Version:                                        |
|   \\  /    A nd           | Website:  www.openfoam.com                      |
|    \\/     M anipulation  |                                                 |
\*---------------------------------------------------------------------------*/
FoamFile
{
    version     2.0;
    format      ascii;
    class       volScalarField;
    location    "140";
    object      p;
}
// * * * * * * * * * * * * * * * * * * * * * * * * * * * * * * * * * * * * * //

dimensions      [0 2 -2 0 0 0 0];


internalField   nonuniform List<scalar> 
250
(
3.68113
3.67309
3.65633
3.63124
3.60021
3.56529
3.52806
3.48979
3.45148
3.41384
3.37731
3.34211
3.30834
3.27599
3.24498
3.21521
3.18657
3.15893
3.13218
3.10621
3.08094
3.05629
3.03218
3.00856
2.98538
2.96259
2.94015
2.91805
2.89624
2.87471
2.85343
2.83238
2.81156
2.79094
2.77052
2.75028
2.73021
2.7103
2.69054
2.67093
2.65146
2.63212
2.6129
2.59381
2.57483
2.55595
2.53718
2.51851
2.49994
2.48145
3.68577
3.67752
3.66014
3.63427
3.60244
3.56682
3.52901
3.4903
3.4517
3.41387
3.37724
3.34201
3.30825
3.27592
3.24496
3.21524
3.18664
3.15904
3.13233
3.1064
3.08115
3.05652
3.03243
3.00883
2.98565
2.96287
2.94044
2.91834
2.89653
2.875
2.85372
2.83267
2.81185
2.79123
2.7708
2.75055
2.73048
2.71056
2.6908
2.67119
2.65171
2.63236
2.61314
2.59404
2.57505
2.55617
2.5374
2.51872
2.50014
2.48165
3.69529
3.68602
3.66663
3.63844
3.60446
3.56707
3.52791
3.48826
3.44909
3.41098
3.37428
3.33911
3.3055
3.27338
3.24264
3.21314
3.18475
3.15734
3.1308
3.10501
3.07991
3.05539
3.0314
3.00788
2.98479
2.96207
2.9397
2.91765
2.89589
2.8744
2.85316
2.83215
2.81135
2.79076
2.77036
2.75014
2.73009
2.71019
2.69045
2.67086
2.6514
2.63207
2.61286
2.59377
2.5748
2.55593
2.53716
2.5185
2.49993
2.48145
3.71081
3.69974
3.67696
3.64497
3.60764
3.56756
3.52639
3.48539
3.44543
3.40697
3.37022
3.33521
3.30187
3.27007
3.23966
3.21049
3.1824
3.15527
3.12897
3.10341
3.07848
3.05413
3.03027
3.00687
2.98388
2.96126
2.93897
2.91698
2.89528
2.87384
2.85265
2.83168
2.81092
2.79036
2.76999
2.7498
2.72977
2.7099
2.69018
2.6706
2.65116
2.63184
2.61265
2.59358
2.57461
2.55576
2.537
2.51835
2.49979
2.48131
3.73394
3.71961
3.69108
3.6532
3.61103
3.56723
3.5234
3.48073
3.4399
3.40116
3.36451
3.32983
3.29695
3.26566
3.23576
3.20706
3.17941
3.15265
3.12669
3.1014
3.07672
3.05258
3.0289
3.00565
2.98279
2.96028
2.93808
2.91619
2.89456
2.87318
2.85205
2.83113
2.81041
2.7899
2.76956
2.7494
2.7294
2.70956
2.68986
2.6703
2.65088
2.63159
2.61241
2.59335
2.5744
2.55556
2.53682
2.51817
2.49962
2.48116
)
;

boundaryField
{
    inlet
    {
        type            zeroGradient;
    }
    outlet
    {
        type            fixedValue;
        value           nonuniform 0();
    }
    wall
    {
        type            zeroGradient;
    }
    back
    {
        type            wedge;
    }
    front
    {
        type            wedge;
    }
    axis
    {
        type            empty;
    }
    procBoundary0to1
    {
        type            processor;
        value           nonuniform List<scalar> 5(2.46305 2.46325 2.46305 2.46293 2.46278);
    }
    procBoundary0to4
    {
        type            processor;
        value           nonuniform List<scalar> 
50
(
3.76731
3.74708
3.70908
3.66249
3.61367
3.56506
3.51806
3.47365
3.43214
3.39342
3.35721
3.32319
3.29105
3.26051
3.2313
3.20322
3.17611
3.14983
3.12426
3.09931
3.07491
3.051
3.02752
3.00444
2.98172
2.95933
2.93724
2.91543
2.89388
2.87257
2.85149
2.83062
2.80995
2.78947
2.76917
2.74904
2.72907
2.70925
2.68958
2.67004
2.65064
2.63136
2.6122
2.59315
2.57422
2.55539
2.53666
2.51802
2.49948
2.48103
)
;
    }
}


// ************************************************************************* //
