/*--------------------------------*- C++ -*----------------------------------*\
| =========                 |                                                 |
| \\      /  F ield         | OpenFOAM: The Open Source CFD Toolbox           |
|  \\    /   O peration     | Version:                                        |
|   \\  /    A nd           | Website:  www.openfoam.com                      |
|    \\/     M anipulation  |                                                 |
\*---------------------------------------------------------------------------*/
FoamFile
{
    version     2.0;
    format      ascii;
    class       surfaceScalarField;
    location    "140";
    object      phi;
}
// * * * * * * * * * * * * * * * * * * * * * * * * * * * * * * * * * * * * * //

dimensions      [0 3 -1 0 0 0 0];
oriented        oriented;


internalField   nonuniform List<scalar> 
445
(
1.74796e-06
-8.29443e-09
1.77324e-06
-2.52842e-08
1.81243e-06
-3.91844e-08
1.86185e-06
-4.94254e-08
1.9178e-06
-5.59481e-08
1.97713e-06
-5.93289e-08
2.03739e-06
-6.02618e-08
2.09682e-06
-5.94273e-08
2.15426e-06
-5.74407e-08
2.20906e-06
-5.47962e-08
2.26091e-06
-5.18523e-08
2.30976e-06
-4.88507e-08
2.3557e-06
-4.59421e-08
2.39891e-06
-4.32107e-08
2.43961e-06
-4.06943e-08
2.47801e-06
-3.84015e-08
2.51433e-06
-3.63235e-08
2.54877e-06
-3.44423e-08
2.58151e-06
-3.27362e-08
2.61269e-06
-3.11831e-08
2.64245e-06
-2.9762e-08
2.67091e-06
-2.84544e-08
2.69815e-06
-2.72441e-08
2.72427e-06
-2.61175e-08
2.74933e-06
-2.50634e-08
2.77341e-06
-2.40724e-08
2.79654e-06
-2.3137e-08
2.81879e-06
-2.22508e-08
2.8402e-06
-2.14087e-08
2.86081e-06
-2.06067e-08
2.88065e-06
-1.98413e-08
2.89976e-06
-1.91096e-08
2.91817e-06
-1.84092e-08
2.93591e-06
-1.7738e-08
2.953e-06
-1.70943e-08
2.96948e-06
-1.64765e-08
2.98536e-06
-1.58833e-08
3.00067e-06
-1.53133e-08
3.01544e-06
-1.47656e-08
3.02968e-06
-1.4239e-08
3.04341e-06
-1.37327e-08
3.05666e-06
-1.32457e-08
3.06943e-06
-1.27772e-08
3.08176e-06
-1.23264e-08
3.09365e-06
-1.18927e-08
3.10513e-06
-1.14752e-08
3.1162e-06
-1.10734e-08
3.12689e-06
-1.06866e-08
3.1372e-06
-1.03143e-08
-9.95572e-09
5.24521e-06
-3.45131e-08
5.32411e-06
-1.04182e-07
5.4467e-06
-1.61777e-07
5.60026e-06
-2.02982e-07
5.77297e-06
-2.28661e-07
5.9551e-06
-2.41458e-07
6.13911e-06
-2.44271e-07
6.31966e-06
-2.39982e-07
6.49338e-06
-2.3116e-07
6.6584e-06
-2.19817e-07
6.81394e-06
-2.07388e-07
6.95991e-06
-1.94828e-07
7.0967e-06
-1.82723e-07
7.22488e-06
-1.71394e-07
7.34516e-06
-1.60977e-07
7.45826e-06
-1.51495e-07
7.56484e-06
-1.42907e-07
7.66553e-06
-1.35133e-07
7.76088e-06
-1.28086e-07
7.85137e-06
-1.21673e-07
7.93742e-06
-1.15811e-07
8.01939e-06
-1.10424e-07
8.09759e-06
-1.05447e-07
8.1723e-06
-1.00825e-07
8.24375e-06
-9.65117e-08
8.31214e-06
-9.24693e-08
8.37767e-06
-8.86664e-08
8.4405e-06
-8.50769e-08
8.50077e-06
-8.16793e-08
8.55862e-06
-7.84559e-08
8.61417e-06
-7.53917e-08
8.66753e-06
-7.2474e-08
8.71882e-06
-6.96919e-08
8.76812e-06
-6.70362e-08
8.81552e-06
-6.44988e-08
8.86112e-06
-6.20723e-08
8.90498e-06
-5.97503e-08
8.9472e-06
-5.75271e-08
8.98783e-06
-5.53974e-08
9.02695e-06
-5.33564e-08
9.06461e-06
-5.13995e-08
9.10089e-06
-4.95226e-08
9.13583e-06
-4.77219e-08
9.1695e-06
-4.59938e-08
9.20194e-06
-4.43349e-08
9.23321e-06
-4.2742e-08
9.26335e-06
-4.12121e-08
9.2924e-06
-3.97423e-08
9.32042e-06
-3.83301e-08
-3.69727e-08
8.74801e-06
-8.42044e-08
8.89526e-06
-2.51432e-07
9.11967e-06
-3.86184e-07
9.39564e-06
-4.78953e-07
9.70121e-06
-5.34234e-07
1.0019e-05
-5.59268e-07
1.0336e-05
-5.61266e-07
1.06434e-05
-5.47324e-07
1.09358e-05
-5.23588e-07
1.12107e-05
-4.94709e-07
1.14672e-05
-4.63912e-07
1.17057e-05
-4.33291e-07
1.1927e-05
-4.04088e-07
1.21326e-05
-3.76945e-07
1.23237e-05
-3.52108e-07
1.25018e-05
-3.29578e-07
1.26681e-05
-3.09222e-07
1.28238e-05
-2.90844e-07
1.297e-05
-2.74221e-07
1.31074e-05
-2.59138e-07
1.3237e-05
-2.45395e-07
1.33594e-05
-2.32815e-07
1.34752e-05
-2.21246e-07
1.35849e-05
-2.10557e-07
1.36891e-05
-2.0064e-07
1.3788e-05
-1.91403e-07
1.38821e-05
-1.82769e-07
1.39717e-05
-1.74674e-07
1.40571e-05
-1.67065e-07
1.41385e-05
-1.59895e-07
1.42162e-05
-1.53125e-07
1.42905e-05
-1.46723e-07
1.43615e-05
-1.40658e-07
1.44293e-05
-1.34906e-07
1.44943e-05
-1.29444e-07
1.45565e-05
-1.24252e-07
1.4616e-05
-1.19312e-07
1.46731e-05
-1.14609e-07
1.47278e-05
-1.10127e-07
1.47803e-05
-1.05853e-07
1.48307e-05
-1.01775e-07
1.48791e-05
-9.78814e-08
1.49255e-05
-9.4162e-08
1.49701e-05
-9.06071e-08
1.5013e-05
-8.72078e-08
1.50542e-05
-8.39558e-08
1.50938e-05
-8.08432e-08
1.51319e-05
-7.78628e-08
1.51686e-05
-7.50079e-08
-7.2272e-08
1.22616e-05
-1.68164e-07
1.25073e-05
-4.97139e-07
1.287e-05
-7.4884e-07
1.33028e-05
-9.11807e-07
1.37699e-05
-1.00127e-06
1.42439e-05
-1.03326e-06
1.47054e-05
-1.02285e-06
1.51427e-05
-9.84608e-07
1.55497e-05
-9.30514e-07
1.59241e-05
-8.69176e-07
1.62665e-05
-8.06286e-07
1.65786e-05
-7.45349e-07
1.68628e-05
-6.883e-07
1.71218e-05
-6.36011e-07
1.73584e-05
-5.8869e-07
1.7575e-05
-5.4616e-07
1.77738e-05
-5.08048e-07
1.79569e-05
-4.73897e-07
1.81259e-05
-4.4324e-07
1.82824e-05
-4.15633e-07
1.84277e-05
-3.90678e-07
1.85629e-05
-3.68024e-07
1.8689e-05
-3.47369e-07
1.88069e-05
-3.28457e-07
1.89173e-05
-3.11071e-07
1.9021e-05
-2.95028e-07
1.91184e-05
-2.80174e-07
1.92101e-05
-2.66377e-07
1.92965e-05
-2.53527e-07
1.93782e-05
-2.41528e-07
1.94553e-05
-2.30299e-07
1.95284e-05
-2.1977e-07
1.95976e-05
-2.09879e-07
1.96633e-05
-2.00571e-07
1.97256e-05
-1.918e-07
1.97849e-05
-1.83524e-07
1.98413e-05
-1.75703e-07
1.9895e-05
-1.68306e-07
1.99462e-05
-1.61301e-07
1.9995e-05
-1.5466e-07
2.00416e-05
-1.4836e-07
2.00861e-05
-1.42377e-07
2.01286e-05
-1.3669e-07
2.01693e-05
-1.3128e-07
2.02082e-05
-1.26131e-07
2.02454e-05
-1.21225e-07
2.02812e-05
-1.16549e-07
2.03154e-05
-1.12088e-07
2.03482e-05
-1.07831e-07
-1.03764e-07
1.57991e-05
1.62031e-05
1.67678e-05
1.74099e-05
1.8073e-05
1.87172e-05
1.93176e-05
1.98623e-05
2.03482e-05
2.07774e-05
2.11546e-05
2.14853e-05
2.17754e-05
2.20305e-05
2.22554e-05
2.24544e-05
2.26311e-05
2.27888e-05
2.29299e-05
2.30567e-05
2.31712e-05
2.32748e-05
2.3369e-05
2.34549e-05
2.35335e-05
2.36055e-05
2.36718e-05
2.37329e-05
2.37895e-05
2.38419e-05
2.38905e-05
2.39358e-05
2.39781e-05
2.40176e-05
2.40546e-05
2.40892e-05
2.41218e-05
2.41525e-05
2.41813e-05
2.42086e-05
2.42343e-05
2.42587e-05
2.42817e-05
2.43036e-05
2.43244e-05
2.43441e-05
2.43629e-05
2.43808e-05
2.43978e-05
)
;

boundaryField
{
    inlet
    {
        type            calculated;
        value           nonuniform List<scalar> 5(-1.73966e-06 -5.21899e-06 -8.69832e-06 -1.21776e-05 -1.5657e-05);
    }
    outlet
    {
        type            calculated;
        value           nonuniform 0();
    }
    wall
    {
        type            calculated;
        value           nonuniform 0();
    }
    back
    {
        type            wedge;
        value           nonuniform List<scalar> 
250
(
3.5745e-21
2.23059e-21
4.14017e-19
-2.11893e-18
7.02931e-18
-2.00445e-20
-1.03522e-20
-6.15869e-18
2.81539e-17
-9.71821e-17
-1.05608e-20
-1.31906e-20
-1.22923e-17
5.55404e-17
-1.8691e-16
4.94379e-21
1.06272e-20
-1.69419e-17
7.56851e-17
-2.48345e-16
7.82381e-21
-7.5618e-21
-2.01404e-17
8.84066e-17
-2.84276e-16
-6.46739e-21
2.53216e-20
-2.18267e-17
9.52683e-17
-2.99604e-16
1.44792e-20
-3.36087e-20
-2.26979e-17
9.6832e-17
-3.00517e-16
1.40653e-20
5.13492e-20
-2.22573e-17
9.60042e-17
-2.89729e-16
-8.27786e-20
-1.44137e-19
-2.20841e-17
9.10651e-17
-2.75931e-16
1.45212e-20
8.37114e-20
-2.03924e-17
8.8197e-17
-2.53087e-16
-6.86182e-21
-9.00583e-20
-2.01311e-17
7.93991e-17
-2.41777e-16
-1.14927e-20
3.128e-23
-1.80918e-17
7.82752e-17
-2.05653e-16
-1.87939e-20
-3.73544e-21
-1.73333e-17
6.89795e-17
-3.48385e-15
-1.28739e-20
-2.71063e-20
-1.62343e-17
6.50945e-17
3.39691e-15
3.85212e-21
-4.30935e-20
-1.52272e-17
6.02784e-17
-1.6902e-16
-2.10368e-20
-6.44061e-20
-1.43391e-17
5.59597e-17
-1.55479e-16
-3.94272e-20
-9.31733e-20
-1.35351e-17
5.20947e-17
-1.43456e-16
-3.29559e-20
-1.11439e-19
-1.28059e-17
4.86492e-17
-1.32758e-16
-3.71976e-20
-1.2914e-19
-1.21329e-17
4.55657e-17
-1.23233e-16
-4.5494e-20
-1.59338e-19
-1.15279e-17
4.27867e-17
-1.14761e-16
-4.73979e-20
-1.94088e-19
-1.09791e-17
4.02697e-17
-1.0716e-16
-5.97578e-20
-2.04455e-19
-1.04754e-17
3.80031e-17
-1.0031e-16
-8.08766e-20
-2.12514e-19
-9.99105e-18
3.59238e-17
-9.41424e-17
-7.36696e-20
-2.12832e-19
-9.54514e-18
3.40196e-17
-8.85483e-17
-8.63511e-20
-2.32534e-19
-9.14074e-18
3.22812e-17
-8.34498e-17
-8.64242e-20
-2.48598e-19
-8.75013e-18
3.06723e-17
-7.87801e-17
-7.82379e-20
-2.43444e-19
-8.3827e-18
2.91688e-17
-7.4505e-17
-8.24876e-20
-2.49523e-19
-8.0283e-18
2.77837e-17
-7.05492e-17
-9.31829e-20
-2.4591e-19
-7.71165e-18
2.6465e-17
-6.69182e-17
-7.78946e-20
-2.43581e-19
-7.40318e-18
2.52605e-17
-6.35191e-17
-8.84219e-20
-2.5475e-19
-7.11572e-18
2.4086e-17
-6.04218e-17
-1.09363e-19
-2.59812e-19
-6.81954e-18
2.30569e-17
-5.74223e-17
-7.63286e-20
-2.54819e-19
-6.5962e-18
2.19603e-17
-5.48238e-17
-8.90418e-20
-2.36247e-19
-6.29639e-18
2.11409e-17
-5.20193e-17
-8.5011e-20
-2.40958e-19
-6.11106e-18
2.00344e-17
-5.00527e-17
-8.31789e-20
-2.53459e-19
-5.81038e-18
1.94771e-17
-4.70806e-17
-1.0276e-19
-2.45497e-19
-5.67292e-18
1.82218e-17
-4.61335e-17
-1.01222e-19
-2.3861e-19
-5.4142e-18
1.80878e-17
-3.83312e-15
-8.73054e-20
-2.29766e-19
-5.15383e-18
1.74429e-17
3.81363e-15
-5.96856e-20
-1.94566e-19
-4.92095e-18
1.65782e-17
-4.04226e-17
-6.02685e-20
-1.81599e-19
-4.74476e-18
1.57923e-17
-3.86381e-17
-7.74411e-20
-1.73034e-19
-4.56896e-18
1.50745e-17
-3.69734e-17
-7.64062e-20
-1.71829e-19
-4.42473e-18
1.44241e-17
-3.54085e-17
-6.2322e-20
-1.62648e-19
-4.27584e-18
1.38169e-17
-3.39337e-17
-9.03948e-20
-1.87038e-19
-4.12824e-18
1.32656e-17
-3.25345e-17
-4.61032e-20
-1.49817e-19
-3.99391e-18
1.2722e-17
-3.12255e-17
-7.03094e-20
-1.702e-19
-3.88562e-18
1.22112e-17
-2.99713e-17
-8.24058e-20
-2.03215e-19
-3.7779e-18
1.17398e-17
-2.87889e-17
-7.18173e-20
-1.9616e-19
-3.6438e-18
1.12971e-17
-2.76623e-17
-7.61696e-20
-1.92449e-19
-3.53463e-18
1.08571e-17
-2.65898e-17
)
;
    }
    front
    {
        type            wedge;
        value           nonuniform List<scalar> 
250
(
-3.56963e-21
-2.23364e-21
4.06925e-19
-2.11717e-18
7.03906e-18
2.00831e-20
1.04414e-20
-6.12985e-18
2.81464e-17
-9.72064e-17
1.0627e-20
1.33817e-20
-1.22681e-17
5.55924e-17
-1.86873e-16
-4.85265e-21
-1.03654e-20
-1.70027e-17
7.5658e-17
-2.484e-16
-7.71079e-21
7.87698e-21
-2.00781e-17
8.85249e-17
-2.84147e-16
6.58805e-21
-2.49742e-20
-2.19452e-17
9.50367e-17
-2.99923e-16
-1.43463e-20
3.39575e-20
-2.24445e-17
9.73179e-17
-2.99869e-16
-1.39326e-20
-5.10062e-20
-2.26375e-17
9.51412e-17
-2.91078e-16
8.2901e-20
1.44489e-19
-2.14761e-17
9.26629e-17
-2.73229e-16
-1.44044e-20
-8.34022e-20
-2.11847e-17
8.56332e-17
-2.58554e-16
6.97234e-21
9.03622e-20
-1.91393e-17
8.34335e-17
-2.30619e-16
1.16054e-20
2.66235e-22
-1.87715e-17
7.33771e-17
-2.28358e-16
1.88915e-20
4.01039e-21
-1.71652e-17
7.18739e-17
-1.7887e-16
1.2964e-20
2.73537e-20
-1.60244e-17
6.5651e-17
-1.79159e-16
-3.75819e-21
4.33358e-20
-1.49579e-17
6.11876e-17
-1.66023e-16
2.11221e-20
6.46388e-20
-1.39519e-17
5.70853e-17
-1.52865e-16
3.9508e-20
9.33823e-20
-1.30385e-17
5.33545e-17
-1.41104e-16
3.3035e-20
1.11644e-19
-1.2215e-17
4.9964e-17
-1.3064e-16
3.72679e-20
1.29339e-19
-1.14838e-17
4.68928e-17
-1.21315e-16
4.55602e-20
1.59516e-19
-1.08161e-17
4.41177e-17
-1.12958e-16
4.74667e-20
1.94263e-19
-1.02067e-17
4.16056e-17
-1.0548e-16
5.98196e-20
2.04617e-19
-9.6516e-18
3.92994e-17
-9.87656e-17
8.09357e-20
2.12672e-19
-9.1632e-18
3.72026e-17
-9.26785e-17
7.37243e-20
2.12986e-19
-8.71093e-18
3.52761e-17
-8.71531e-17
8.64061e-20
2.32675e-19
-8.28207e-18
3.34857e-17
-8.21199e-17
8.64762e-20
2.48733e-19
-7.89621e-18
3.18307e-17
-7.75207e-17
7.82885e-20
2.43574e-19
-7.53727e-18
3.03045e-17
-7.32847e-17
8.25344e-20
2.49652e-19
-7.20976e-18
2.88679e-17
-6.93982e-17
9.3232e-20
2.46035e-19
-6.88434e-18
2.75511e-17
-6.57802e-17
7.79382e-20
2.437e-19
-6.58664e-18
2.62875e-17
-6.24594e-17
8.84651e-20
2.54861e-19
-6.30059e-18
2.51454e-17
-5.93109e-17
1.09404e-19
2.59919e-19
-6.05311e-18
2.39957e-17
-5.64915e-17
7.63686e-20
2.54921e-19
-5.76028e-18
2.30395e-17
-5.3657e-17
8.90807e-20
2.36347e-19
-5.56932e-18
2.19217e-17
-5.13786e-17
8.50466e-20
2.41056e-19
-5.28751e-18
2.11975e-17
-4.85814e-17
8.32145e-20
2.53552e-19
-5.14309e-18
2.00227e-17
-4.70811e-17
1.02795e-19
2.45587e-19
-4.85607e-18
1.9637e-17
-4.3823e-17
1.01256e-19
2.38696e-19
-4.70967e-18
1.82149e-17
-4.41719e-17
8.73369e-20
2.29848e-19
-4.58313e-18
1.73826e-17
-3.95858e-17
5.97168e-20
1.94647e-19
-4.44627e-18
1.6844e-17
-3.8316e-17
6.02989e-20
1.81677e-19
-4.26894e-18
1.62954e-17
-3.67689e-17
7.74694e-20
1.7311e-19
-4.10656e-18
1.57434e-17
-3.52814e-17
7.64332e-20
1.71898e-19
-3.92712e-18
1.51846e-17
-3.38604e-17
6.23489e-20
1.62718e-19
-3.76612e-18
1.46394e-17
-3.25041e-17
9.04216e-20
1.87102e-19
-3.61688e-18
1.40919e-17
-3.12166e-17
4.6129e-20
1.49883e-19
-3.46677e-18
1.35871e-17
-2.99734e-17
7.03329e-20
1.70263e-19
-3.30241e-18
1.30969e-17
-2.88014e-17
8.24282e-20
2.03276e-19
-3.14868e-18
1.26121e-17
-2.76753e-17
7.18393e-20
1.96218e-19
-3.03201e-18
1.21409e-17
-2.6604e-17
7.61921e-20
1.92502e-19
-2.90056e-18
1.1707e-17
-2.5582e-17
)
;
    }
    axis
    {
        type            empty;
        value           nonuniform 0();
    }
    procBoundary0to1
    {
        type            processor;
        value           nonuniform List<scalar> 5(3.14716e-06 9.34744e-06 1.52039e-05 2.03797e-05 2.4414e-05);
    }
    procBoundary0to4
    {
        type            processor;
        value           nonuniform List<scalar> 
50
(
-3.10335e-07
-9.0107e-07
-1.31355e-06
-1.55394e-06
-1.66437e-06
-1.67745e-06
-1.62324e-06
-1.5293e-06
-1.41645e-06
-1.29838e-06
-1.1834e-06
-1.07607e-06
-9.78463e-07
-8.91087e-07
-8.13582e-07
-7.45143e-07
-6.84788e-07
-6.3151e-07
-5.84359e-07
-5.42482e-07
-5.05134e-07
-4.71675e-07
-4.41563e-07
-4.14339e-07
-3.89621e-07
-3.67084e-07
-3.46458e-07
-3.27513e-07
-3.10055e-07
-2.93921e-07
-2.78968e-07
-2.65075e-07
-2.52138e-07
-2.40064e-07
-2.28775e-07
-2.18201e-07
-2.08279e-07
-1.98955e-07
-1.90179e-07
-1.81909e-07
-1.74105e-07
-1.66732e-07
-1.59759e-07
-1.53155e-07
-1.46896e-07
-1.40958e-07
-1.35319e-07
-1.29959e-07
-1.2486e-07
-1.20005e-07
)
;
    }
}


// ************************************************************************* //
