/*--------------------------------*- C++ -*----------------------------------*\
| =========                 |                                                 |
| \\      /  F ield         | OpenFOAM: The Open Source CFD Toolbox           |
|  \\    /   O peration     | Version:                                        |
|   \\  /    A nd           | Website:  www.openfoam.com                      |
|    \\/     M anipulation  |                                                 |
\*---------------------------------------------------------------------------*/
FoamFile
{
    version     2.0;
    format      ascii;
    class       volVectorField;
    location    "140";
    object      U;
}
// * * * * * * * * * * * * * * * * * * * * * * * * * * * * * * * * * * * * * //

dimensions      [0 1 -1 0 0 0 0];


internalField   nonuniform List<vector> 
250
(
(1.00026 -0.00162422 8.49269e-16)
(1.00998 -0.00455827 -7.8271e-17)
(1.02851 -0.00695704 -7.19157e-17)
(1.05454 -0.00871167 -1.13265e-15)
(1.08542 -0.00982723 8.10795e-16)
(1.119 -0.0104021 -1.09205e-15)
(1.1537 -0.0105559 -6.4372e-17)
(1.18835 -0.0104065 3.34311e-15)
(1.2221 -0.0100598 2.30921e-15)
(1.25445 -0.00960043 -1.70277e-15)
(1.28514 -0.00909016 4.98601e-16)
(1.31409 -0.00857053 1.70106e-15)
(1.34132 -0.00806742 8.99723e-16)
(1.36692 -0.00759522 -8.60153e-16)
(1.39101 -0.00716036 -1.08028e-17)
(1.41371 -0.00676424 2.19207e-15)
(1.43515 -0.00640524 4.12155e-16)
(1.45546 -0.00608021 5.66127e-16)
(1.47475 -0.00578533 3.71504e-16)
(1.4931 -0.00551675 8.55907e-16)
(1.51059 -0.00527082 1.32569e-15)
(1.52731 -0.00504431 3.72448e-15)
(1.5433 -0.00483444 3.62711e-15)
(1.55863 -0.00463884 2.50889e-15)
(1.57333 -0.00445559 3.4992e-15)
(1.58744 -0.00428306 2.10686e-15)
(1.601 -0.00411995 2.82845e-15)
(1.61404 -0.00396521 3.26269e-15)
(1.62658 -0.00381796 4.127e-15)
(1.63865 -0.0036775 2.34285e-15)
(1.65027 -0.00354325 4.56449e-15)
(1.66146 -0.00341472 4.16679e-15)
(1.67224 -0.00329153 2.17196e-15)
(1.68263 -0.00317332 4.86254e-15)
(1.69263 -0.00305979 2.042e-15)
(1.70228 -0.00295071 4.36681e-15)
(1.71158 -0.00284583 4.88687e-15)
(1.72054 -0.00274496 3.53778e-15)
(1.72918 -0.00264792 2.85965e-15)
(1.73751 -0.00255453 2.03335e-15)
(1.74555 -0.00246464 3.76435e-15)
(1.7533 -0.0023781 4.35984e-15)
(1.76078 -0.00229478 3.25645e-15)
(1.76799 -0.00221455 3.46065e-15)
(1.77495 -0.00213728 4.37276e-15)
(1.78166 -0.00206286 5.38853e-16)
(1.78814 -0.00199118 5.37432e-15)
(1.79439 -0.00192213 1.97885e-15)
(1.80043 -0.00185561 3.3532e-15)
(1.80625 -0.00179152 1.84186e-15)
(1.00023 -0.00394914 -4.10219e-16)
(1.01034 -0.011582 1.05637e-15)
(1.02971 -0.0179436 5.78348e-16)
(1.05677 -0.0225831 -2.20005e-16)
(1.08868 -0.0255373 -2.77985e-16)
(1.12315 -0.0270661 -4.71784e-16)
(1.15858 -0.0274795 1.52168e-15)
(1.19376 -0.0270897 -8.18226e-16)
(1.22786 -0.0261779 5.832e-15)
(1.2604 -0.024968 -4.00705e-15)
(1.29115 -0.0236222 3.52428e-15)
(1.32004 -0.0222501 5.94184e-16)
(1.34712 -0.0209202 -3.81276e-16)
(1.37247 -0.0196707 1.7134e-15)
(1.39625 -0.018519 1.41802e-15)
(1.41857 -0.0174691 2.66678e-15)
(1.43958 -0.016517 4.10544e-15)
(1.45941 -0.0156547 4.35852e-15)
(1.47817 -0.0148724 5.46694e-15)
(1.49595 -0.0141601 6.70819e-15)
(1.51284 -0.0135083 8.16923e-15)
(1.52892 -0.0129085 7.94773e-15)
(1.54425 -0.0123535 8.41287e-15)
(1.55889 -0.0118371 8.21913e-15)
(1.57288 -0.011354 9.417e-15)
(1.58627 -0.0109002 9.95824e-15)
(1.59909 -0.010472 9.41255e-15)
(1.61138 -0.0100666 1.04641e-14)
(1.62316 -0.00968168 9.4838e-15)
(1.63447 -0.00931533 1.00803e-14)
(1.64533 -0.00896594 1.05334e-14)
(1.65576 -0.00863218 1.08382e-14)
(1.66578 -0.00831293 9.83013e-15)
(1.67541 -0.00800722 9.06967e-15)
(1.68467 -0.00771423 9.54324e-15)
(1.69358 -0.00743323 1.04963e-14)
(1.70214 -0.00716357 9.3098e-15)
(1.71039 -0.00690467 9.89951e-15)
(1.71832 -0.00665601 8.97336e-15)
(1.72596 -0.0064171 7.34218e-15)
(1.73331 -0.0061875 7.00957e-15)
(1.74039 -0.00596678 6.81293e-15)
(1.74721 -0.00575457 6.67039e-15)
(1.75378 -0.0055505 6.68156e-15)
(1.76012 -0.00535421 7.74262e-15)
(1.76622 -0.00516539 5.59853e-15)
(1.7721 -0.00498372 7.76e-15)
(1.77777 -0.00480891 8.31844e-15)
(1.78323 -0.00464068 7.40557e-15)
(1.7885 -0.00447875 7.89904e-15)
(1.00026 -0.00666401 -1.17144e-16)
(1.01163 -0.0194607 8.30076e-16)
(1.0332 -0.0299312 -7.25821e-16)
(1.06272 -0.0373318 -1.02185e-15)
(1.09688 -0.0418888 1.6678e-15)
(1.13322 -0.0441015 -2.48726e-15)
(1.17008 -0.0445035 5.21606e-15)
(1.20622 -0.0436279 -7.8731e-15)
(1.24085 -0.0419452 1.18379e-14)
(1.27353 -0.0398196 -1.54986e-14)
(1.3041 -0.0375088 2.01011e-14)
(1.33255 -0.0351838 -1.34273e-14)
(1.35895 -0.0329484 3.74264e-15)
(1.38346 -0.0308589 4.18709e-15)
(1.40622 -0.0289386 5.32665e-15)
(1.4274 -0.0271909 8.09994e-15)
(1.44716 -0.0256077 1.00125e-14)
(1.46564 -0.0241745 1.21148e-14)
(1.48296 -0.022875 1.2841e-14)
(1.49924 -0.0216928 1.44665e-14)
(1.51456 -0.0206124 1.57619e-14)
(1.52903 -0.0196202 1.68031e-14)
(1.5427 -0.0187045 1.6241e-14)
(1.55565 -0.0178551 1.70231e-14)
(1.56793 -0.0170638 1.74566e-14)
(1.57959 -0.0163235 1.71402e-14)
(1.59068 -0.0156285 1.67746e-14)
(1.60123 -0.0149739 1.61564e-14)
(1.61128 -0.0143557 1.65718e-14)
(1.62086 -0.0137705 1.62943e-14)
(1.63 -0.0132156 1.60198e-14)
(1.63873 -0.0126885 1.55657e-14)
(1.64708 -0.012187 1.68765e-14)
(1.65505 -0.0117095 1.43468e-14)
(1.66268 -0.0112543 1.61522e-14)
(1.66998 -0.0108199 1.36002e-14)
(1.67698 -0.0104052 1.64923e-14)
(1.68368 -0.0100089 1.42522e-14)
(1.6901 -0.00963005 1.14721e-14)
(1.69626 -0.00926768 9.29534e-15)
(1.70217 -0.00892089 9.66767e-15)
(1.70784 -0.00858888 8.93928e-15)
(1.71329 -0.00827089 1.0161e-14)
(1.71852 -0.0079662 9.93234e-15)
(1.72355 -0.00767417 1.0098e-14)
(1.72838 -0.00739417 1.08597e-14)
(1.73302 -0.00712561 1.23168e-14)
(1.73749 -0.00686796 1.28069e-14)
(1.74179 -0.00662069 1.21763e-14)
(1.74593 -0.00638333 1.29835e-14)
(1.00027 -0.0101909 2.8372e-16)
(1.01392 -0.0295172 1.59288e-16)
(1.03938 -0.0447526 1.84826e-15)
(1.0731 -0.0550458 -8.26409e-16)
(1.11091 -0.0610491 2.3293e-15)
(1.1501 -0.0636143 -4.36303e-15)
(1.18889 -0.0635805 9.79636e-15)
(1.22603 -0.0617714 -1.66201e-14)
(1.26082 -0.0588904 3.25317e-14)
(1.29294 -0.0554622 -5.14267e-14)
(1.32236 -0.0518474 8.13288e-14)
(1.3492 -0.0482774 -9.7489e-14)
(1.37363 -0.0448875 5.78534e-14)
(1.39588 -0.0417458 1.13961e-14)
(1.41617 -0.0388766 1.8158e-14)
(1.43473 -0.036278 2.26905e-14)
(1.45174 -0.0339332 2.51911e-14)
(1.46738 -0.0318187 2.62054e-14)
(1.4818 -0.0299089 2.63523e-14)
(1.49513 -0.0281788 2.65698e-14)
(1.5075 -0.0266056 2.68498e-14)
(1.51899 -0.0251688 2.57027e-14)
(1.5297 -0.023851 2.55521e-14)
(1.5397 -0.022637 2.49904e-14)
(1.54906 -0.0215143 2.39964e-14)
(1.55784 -0.0204721 2.31279e-14)
(1.56608 -0.0195015 2.2679e-14)
(1.57384 -0.0185948 2.15766e-14)
(1.58114 -0.0177457 2.18189e-14)
(1.58804 -0.0169486 2.04945e-14)
(1.59455 -0.0161988 2.10615e-14)
(1.60071 -0.0154922 1.89197e-14)
(1.60654 -0.0148254 2.14914e-14)
(1.61208 -0.0141952 1.55409e-14)
(1.61733 -0.0135987 2.33784e-14)
(1.62232 -0.0130337 1.11218e-14)
(1.62706 -0.0124977 2.8102e-14)
(1.63158 -0.011989 2.68568e-15)
(1.63588 -0.0115056 -1.04706e-15)
(1.63998 -0.0110459 5.22631e-15)
(1.6439 -0.0106085 1.0288e-14)
(1.64764 -0.0101919 1.36152e-14)
(1.65121 -0.00979492 1.51185e-14)
(1.65462 -0.00941636 1.64222e-14)
(1.65789 -0.00905514 1.6337e-14)
(1.66101 -0.00871029 1.74971e-14)
(1.66401 -0.00838087 1.76379e-14)
(1.66688 -0.00806603 1.73236e-14)
(1.66963 -0.00776496 1.66658e-14)
(1.67227 -0.00747694 1.71988e-14)
(1.00027 -0.0149901 2.11484e-16)
(1.01807 -0.0428147 -6.37335e-16)
(1.05011 -0.0634213 7.48147e-16)
(1.0902 -0.0763652 -1.36124e-15)
(1.13292 -0.0831296 2.35073e-15)
(1.17524 -0.0851132 -6.31396e-15)
(1.21534 -0.0836414 1.30464e-14)
(1.25209 -0.0799658 -2.71617e-14)
(1.28504 -0.0750874 5.46055e-14)
(1.31422 -0.0697077 -1.09566e-13)
(1.3399 -0.0642821 2.23735e-13)
(1.36241 -0.0590839 -4.53625e-13)
(1.38215 -0.0542577 8.03842e-13)
(1.39947 -0.0498631 1.31439e-13)
(1.41472 -0.0459078 5.94411e-14)
(1.42819 -0.0423702 5.23617e-14)
(1.44014 -0.0392143 4.6947e-14)
(1.45076 -0.0363988 4.22225e-14)
(1.46026 -0.0338825 3.85455e-14)
(1.46879 -0.0316269 3.62021e-14)
(1.47646 -0.0295975 3.33157e-14)
(1.4834 -0.0277643 3.0709e-14)
(1.4897 -0.0261014 2.93761e-14)
(1.49543 -0.0245867 2.78745e-14)
(1.50067 -0.0232016 2.65809e-14)
(1.50547 -0.0219302 2.51605e-14)
(1.50987 -0.0207593 2.44055e-14)
(1.51393 -0.0196774 2.28959e-14)
(1.51768 -0.0186749 2.28487e-14)
(1.52115 -0.0177436 2.1198e-14)
(1.52437 -0.0168763 2.22445e-14)
(1.52737 -0.0160669 1.87896e-14)
(1.53016 -0.0153099 2.31407e-14)
(1.53277 -0.0146008 1.26889e-14)
(1.53521 -0.0139352 2.92314e-14)
(1.53749 -0.0133097 -1.95542e-17)
(1.53964 -0.0127209 4.60761e-14)
(1.54165 -0.012166 -4.69823e-14)
(1.54355 -0.0116423 6.19055e-14)
(1.54534 -0.0111474 4.20095e-14)
(1.54703 -0.0106794 3.72185e-14)
(1.54863 -0.0102362 3.37595e-14)
(1.55014 -0.00981606 3.10435e-14)
(1.55158 -0.0094175 2.85444e-14)
(1.55294 -0.00903903 2.64095e-14)
(1.55423 -0.00867933 2.5162e-14)
(1.55546 -0.00833719 2.32293e-14)
(1.55663 -0.0080115 2.24125e-14)
(1.55774 -0.00770125 2.1035e-14)
(1.5588 -0.00740549 2.02783e-14)
)
;

boundaryField
{
    inlet
    {
        type            fixedValue;
        value           uniform (1 0 0);
    }
    outlet
    {
        type            zeroGradient;
    }
    wall
    {
        type            noSlip;
    }
    back
    {
        type            wedge;
    }
    front
    {
        type            wedge;
    }
    axis
    {
        type            empty;
    }
    procBoundary0to1
    {
        type            processor;
        value           nonuniform List<vector> 5((1.81187 -0.00172978 1.46886e-15) (1.79358 -0.00432287 6.86813e-15) (1.74991 -0.0061554 1.21576e-14) (1.6748 -0.00720126 1.69493e-14) (1.55981 -0.00712336 1.97261e-14));
    }
    procBoundary0to4
    {
        type            processor;
        value           nonuniform List<vector> 
50
(
(1.00014 -0.022225 1.61342e-16)
(1.02577 -0.0614551 -7.24674e-16)
(1.06844 -0.0876863 6.51729e-16)
(1.11675 -0.102312 -1.04247e-15)
(1.16379 -0.108233 2.24597e-15)
(1.20674 -0.107725 -4.60423e-15)
(1.24419 -0.102969 1.00633e-14)
(1.2757 -0.0958727 -2.03908e-14)
(1.3016 -0.0878059 4.10233e-14)
(1.3226 -0.079629 -8.3778e-14)
(1.33948 -0.071839 1.70253e-13)
(1.35298 -0.064689 -3.49479e-13)
(1.36374 -0.0582757 6.08131e-13)
(1.37231 -0.0526027 9.14347e-14)
(1.37911 -0.0476238 3.73897e-14)
(1.38452 -0.0432702 3.40624e-14)
(1.38881 -0.0394661 3.18082e-14)
(1.39221 -0.0361379 2.93693e-14)
(1.39489 -0.0332178 2.74272e-14)
(1.397 -0.0306463 2.625e-14)
(1.39865 -0.0283719 2.48795e-14)
(1.39992 -0.0263508 2.41589e-14)
(1.40089 -0.0245463 2.27176e-14)
(1.40161 -0.0229274 2.18885e-14)
(1.40213 -0.0214684 2.09116e-14)
(1.40249 -0.0201476 1.9923e-14)
(1.40271 -0.0189471 1.95369e-14)
(1.40283 -0.0178515 1.90531e-14)
(1.40285 -0.0168482 1.86705e-14)
(1.4028 -0.0159263 1.76398e-14)
(1.4027 -0.0150766 1.85167e-14)
(1.40254 -0.0142912 1.49905e-14)
(1.40235 -0.0135634 2.07712e-14)
(1.40212 -0.0128873 8.56523e-15)
(1.40187 -0.0122578 3.23849e-14)
(1.4016 -0.0116705 -1.7574e-14)
(1.40131 -0.0111216 8.74554e-14)
(1.40101 -0.0106075 -1.6277e-13)
(1.40071 -0.0101253 5.04236e-14)
(1.40039 -0.00967225 3.51633e-14)
(1.40008 -0.00924601 3.08634e-14)
(1.39976 -0.00884441 2.8011e-14)
(1.39945 -0.00846553 2.58212e-14)
(1.39913 -0.00810765 2.39879e-14)
(1.39882 -0.0077692 2.21412e-14)
(1.39851 -0.00744877 2.11647e-14)
(1.39821 -0.00714509 2.00457e-14)
(1.39791 -0.00685699 1.91354e-14)
(1.39761 -0.00658341 1.87487e-14)
(1.39732 -0.00632339 1.74589e-14)
)
;
    }
}


// ************************************************************************* //
