/*--------------------------------*- C++ -*----------------------------------*\
| =========                 |                                                 |
| \\      /  F ield         | OpenFOAM: The Open Source CFD Toolbox           |
|  \\    /   O peration     | Version:                                        |
|   \\  /    A nd           | Website:  www.openfoam.com                      |
|    \\/     M anipulation  |                                                 |
\*---------------------------------------------------------------------------*/
FoamFile
{
    version     2.0;
    format      ascii;
    class       surfaceScalarField;
    location    "1.1";
    object      phi;
}
// * * * * * * * * * * * * * * * * * * * * * * * * * * * * * * * * * * * * * //

dimensions      [0 3 -1 0 0 0 0];
oriented        oriented;


internalField   nonuniform List<scalar> 
760
(
3.61677e-05
-5.0011e-08
3.62158e-05
-4.81042e-08
3.62621e-05
-4.62726e-08
3.63066e-05
-4.45123e-08
3.63494e-05
-4.28237e-08
3.63906e-05
-4.12005e-08
3.64303e-05
-3.96451e-08
3.64684e-05
-3.81443e-08
3.65051e-05
-3.67154e-08
3.65405e-05
-3.53259e-08
3.65745e-05
-3.40264e-08
3.66072e-05
-3.2727e-08
3.66388e-05
-3.15743e-08
3.66691e-05
-3.03262e-08
3.66985e-05
-2.93702e-08
3.67266e-05
-2.80939e-08
3.6754e-05
-2.74413e-08
3.678e-05
-2.6008e-08
3.68058e-05
-2.57856e-08
-2.41475e-08
3.6039e-05
-9.77412e-08
3.6085e-05
-9.40119e-08
3.61291e-05
-9.04319e-08
3.61716e-05
-8.69917e-08
3.62125e-05
-8.36896e-08
3.62518e-05
-8.05146e-08
3.62896e-05
-7.74747e-08
3.6326e-05
-7.45434e-08
3.6361e-05
-7.17512e-08
3.63947e-05
-6.90357e-08
3.64272e-05
-6.64956e-08
3.64584e-05
-6.39586e-08
3.64886e-05
-6.17036e-08
3.65175e-05
-5.92698e-08
3.65455e-05
-5.73988e-08
3.65724e-05
-5.49131e-08
3.65986e-05
-5.36302e-08
3.66234e-05
-5.08412e-08
3.6648e-05
-5.04035e-08
-4.72089e-08
3.5778e-05
-1.41053e-07
3.58196e-05
-1.35666e-07
3.58597e-05
-1.30496e-07
3.58982e-05
-1.25528e-07
3.59353e-05
-1.20761e-07
3.5971e-05
-1.16178e-07
3.60053e-05
-1.1179e-07
3.60383e-05
-1.0756e-07
3.60701e-05
-1.0353e-07
3.61006e-05
-9.96141e-08
3.61301e-05
-9.59472e-08
3.61584e-05
-9.22916e-08
3.61858e-05
-8.90338e-08
3.6212e-05
-8.55331e-08
3.62375e-05
-8.28241e-08
3.62618e-05
-7.92589e-08
3.62856e-05
-7.73934e-08
3.63081e-05
-7.33971e-08
3.63305e-05
-7.27532e-08
-6.81613e-08
3.53774e-05
-1.78082e-07
3.5413e-05
-1.71273e-07
3.54472e-05
-1.64738e-07
3.54801e-05
-1.58462e-07
3.55118e-05
-1.52441e-07
3.55423e-05
-1.46654e-07
3.55716e-05
-1.41112e-07
3.55998e-05
-1.35772e-07
3.5627e-05
-1.30685e-07
3.56531e-05
-1.25745e-07
3.56783e-05
-1.21114e-07
3.57025e-05
-1.16508e-07
3.57258e-05
-1.12389e-07
3.57483e-05
-1.0799e-07
3.577e-05
-1.04554e-07
3.57909e-05
-1.00092e-07
3.58112e-05
-9.77111e-08
3.58305e-05
-9.27178e-08
3.58496e-05
-9.18829e-08
-8.61201e-08
3.48272e-05
-2.07349e-07
3.48553e-05
-1.9941e-07
3.48824e-05
-1.91794e-07
3.49084e-05
-1.84482e-07
3.49334e-05
-1.77468e-07
3.49575e-05
-1.70728e-07
3.49807e-05
-1.64274e-07
3.50029e-05
-1.58058e-07
3.50244e-05
-1.52134e-07
3.5045e-05
-1.4639e-07
3.50649e-05
-1.40995e-07
3.50841e-05
-1.35647e-07
3.51025e-05
-1.30842e-07
3.51203e-05
-1.25751e-07
3.51374e-05
-1.21728e-07
3.51539e-05
-1.16591e-07
3.517e-05
-1.1378e-07
3.51853e-05
-1.08048e-07
3.52005e-05
-1.07041e-07
-1.00388e-07
3.41154e-05
-2.27844e-07
3.41351e-05
-2.1911e-07
3.41541e-05
-2.10733e-07
3.41723e-05
-2.02693e-07
3.41898e-05
-1.94982e-07
3.42066e-05
-1.87576e-07
3.42228e-05
-1.80483e-07
3.42384e-05
-1.73657e-07
3.42534e-05
-1.67148e-07
3.42679e-05
-1.60844e-07
3.42818e-05
-1.54914e-07
3.42952e-05
-1.49057e-07
3.43082e-05
-1.43766e-07
3.43206e-05
-1.38213e-07
3.43326e-05
-1.33762e-07
3.43443e-05
-1.28198e-07
3.43555e-05
-1.25054e-07
3.43664e-05
-1.18874e-07
3.4377e-05
-1.17718e-07
-1.10495e-07
3.32289e-05
-2.39072e-07
3.32397e-05
-2.29898e-07
3.325e-05
-2.21102e-07
3.326e-05
-2.12662e-07
3.32696e-05
-2.0457e-07
3.32788e-05
-1.96799e-07
3.32877e-05
-1.89358e-07
3.32962e-05
-1.822e-07
3.33045e-05
-1.75372e-07
3.33124e-05
-1.68768e-07
3.332e-05
-1.62545e-07
3.33274e-05
-1.56422e-07
3.33345e-05
-1.50859e-07
3.33413e-05
-1.45082e-07
3.3348e-05
-1.40377e-07
3.33544e-05
-1.34639e-07
3.33606e-05
-1.31272e-07
3.33667e-05
-1.24945e-07
3.33726e-05
-1.23666e-07
-1.16214e-07
3.21543e-05
-2.41066e-07
3.21562e-05
-2.31809e-07
3.2158e-05
-2.22935e-07
3.21598e-05
-2.14424e-07
3.21615e-05
-2.06265e-07
3.21631e-05
-1.98433e-07
3.21647e-05
-1.90932e-07
3.21662e-05
-1.83721e-07
3.21677e-05
-1.76839e-07
3.21691e-05
-1.70193e-07
3.21704e-05
-1.63918e-07
3.21718e-05
-1.5777e-07
3.21731e-05
-1.5215e-07
3.21744e-05
-1.4638e-07
3.21756e-05
-1.41598e-07
3.21769e-05
-1.35931e-07
3.21781e-05
-1.32456e-07
3.21794e-05
-1.26276e-07
3.21807e-05
-1.24903e-07
-1.17571e-07
3.08789e-05
-2.34355e-07
3.08725e-05
-2.25354e-07
3.08663e-05
-2.16728e-07
3.08603e-05
-2.08456e-07
3.08546e-05
-2.00527e-07
3.08491e-05
-1.92919e-07
3.08438e-05
-1.85632e-07
3.08387e-05
-1.7863e-07
3.08338e-05
-1.71945e-07
3.08291e-05
-1.65498e-07
3.08246e-05
-1.594e-07
3.08202e-05
-1.53449e-07
3.08161e-05
-1.47976e-07
3.08121e-05
-1.42427e-07
3.08083e-05
-1.3774e-07
3.08047e-05
-1.32363e-07
3.08011e-05
-1.28897e-07
3.0798e-05
-1.23133e-07
3.07948e-05
-1.21697e-07
-1.14823e-07
2.93919e-05
-2.19915e-07
2.9378e-05
-2.11472e-07
2.93647e-05
-2.03381e-07
2.93518e-05
-1.95625e-07
2.93395e-05
-1.88191e-07
2.93276e-05
-1.81059e-07
2.93162e-05
-1.74228e-07
2.93053e-05
-1.67668e-07
2.92947e-05
-1.61402e-07
2.92846e-05
-1.55366e-07
2.92748e-05
-1.49648e-07
2.92655e-05
-1.44091e-07
2.92564e-05
-1.38949e-07
2.92478e-05
-1.33801e-07
2.92394e-05
-1.29368e-07
2.92315e-05
-1.24464e-07
2.92238e-05
-1.21121e-07
2.92166e-05
-1.15997e-07
2.92095e-05
-1.14534e-07
-1.08433e-07
2.76841e-05
-1.99077e-07
2.76641e-05
-1.91441e-07
2.76448e-05
-1.84125e-07
2.76263e-05
-1.77113e-07
2.76085e-05
-1.70392e-07
2.75914e-05
-1.63945e-07
2.75749e-05
-1.57771e-07
2.75591e-05
-1.51843e-07
2.75439e-05
-1.46178e-07
2.75292e-05
-1.40729e-07
2.75151e-05
-1.35558e-07
2.75016e-05
-1.30553e-07
2.74885e-05
-1.25895e-07
2.7476e-05
-1.21292e-07
2.74639e-05
-1.17251e-07
2.74524e-05
-1.12953e-07
2.74411e-05
-1.09842e-07
2.74307e-05
-1.05525e-07
2.74202e-05
-1.04074e-07
-9.90245e-08
2.5749e-05
-1.73431e-07
2.57243e-05
-1.6679e-07
2.57006e-05
-1.60427e-07
2.56778e-05
-1.54328e-07
2.56559e-05
-1.48484e-07
2.56349e-05
-1.42878e-07
2.56146e-05
-1.37509e-07
2.55951e-05
-1.32356e-07
2.55764e-05
-1.2743e-07
2.55583e-05
-1.22696e-07
2.5541e-05
-1.18198e-07
2.55243e-05
-1.1386e-07
2.55082e-05
-1.09803e-07
2.54927e-05
-1.05843e-07
2.54778e-05
-1.02304e-07
2.54635e-05
-9.86947e-08
2.54496e-05
-9.59109e-08
2.54366e-05
-9.24994e-08
2.54236e-05
-9.11088e-08
-8.73372e-08
2.35825e-05
-1.44722e-07
2.35549e-05
-1.39193e-07
2.35284e-05
-1.33896e-07
2.35029e-05
-1.28818e-07
2.34783e-05
-1.23952e-07
2.34547e-05
-1.19285e-07
2.3432e-05
-1.14814e-07
2.34102e-05
-1.10524e-07
2.33892e-05
-1.06422e-07
2.3369e-05
-1.02484e-07
2.33495e-05
-9.87384e-08
2.33308e-05
-9.51374e-08
2.33128e-05
-9.1756e-08
2.32954e-05
-8.84942e-08
2.32786e-05
-8.55306e-08
2.32626e-05
-8.26407e-08
2.32469e-05
-8.02619e-08
2.32322e-05
-7.77777e-08
2.32176e-05
-7.65037e-08
-7.41706e-08
2.11829e-05
-1.14755e-07
2.11541e-05
-1.10383e-07
2.11264e-05
-1.06194e-07
2.10998e-05
-1.02179e-07
2.10741e-05
-9.83304e-08
2.10495e-05
-9.46396e-08
2.10258e-05
-9.11034e-08
2.1003e-05
-8.77111e-08
2.0981e-05
-8.44666e-08
2.09599e-05
-8.13542e-08
2.09395e-05
-7.83912e-08
2.092e-05
-7.5551e-08
2.09011e-05
-7.28755e-08
2.08829e-05
-7.03231e-08
2.08653e-05
-6.79706e-08
2.08485e-05
-6.57831e-08
2.08321e-05
-6.38606e-08
2.08166e-05
-6.22512e-08
2.08012e-05
-6.11537e-08
-6.03313e-08
1.85505e-05
-8.53038e-08
1.85222e-05
-8.2065e-08
1.8495e-05
-7.89614e-08
1.84688e-05
-7.5986e-08
1.84436e-05
-7.31338e-08
1.84194e-05
-7.03983e-08
1.8396e-05
-6.7777e-08
1.83736e-05
-6.52627e-08
1.8352e-05
-6.28575e-08
1.83312e-05
-6.05517e-08
1.83111e-05
-5.83555e-08
1.82919e-05
-5.62557e-08
1.82732e-05
-5.42729e-08
1.82553e-05
-5.24009e-08
1.8238e-05
-5.06546e-08
1.82213e-05
-4.91115e-08
1.82051e-05
-4.76633e-08
1.81897e-05
-4.68072e-08
1.81745e-05
-4.59389e-08
-4.65814e-08
1.56873e-05
-5.80551e-08
1.5661e-05
-5.58594e-08
1.56358e-05
-5.37549e-08
1.56116e-05
-5.1737e-08
1.55883e-05
-4.98023e-08
1.55658e-05
-4.79465e-08
1.55442e-05
-4.6168e-08
1.55234e-05
-4.44622e-08
1.55034e-05
-4.28303e-08
1.54841e-05
-4.12665e-08
1.54655e-05
-3.97768e-08
1.54476e-05
-3.83555e-08
1.54303e-05
-3.70114e-08
1.54137e-05
-3.57549e-08
1.53976e-05
-3.45704e-08
1.53821e-05
-3.35818e-08
1.5367e-05
-3.25871e-08
1.53525e-05
-3.23061e-08
1.53383e-05
-3.16933e-08
-3.35971e-08
1.25959e-05
-3.45625e-08
1.25733e-05
-3.32608e-08
1.25516e-05
-3.2013e-08
1.25307e-05
-3.08161e-08
1.25105e-05
-2.96685e-08
1.24912e-05
-2.85674e-08
1.24725e-05
-2.75122e-08
1.24545e-05
-2.64999e-08
1.24372e-05
-2.55316e-08
1.24206e-05
-2.4604e-08
1.24045e-05
-2.37204e-08
1.2389e-05
-2.2879e-08
1.23741e-05
-2.20822e-08
1.23597e-05
-2.13453e-08
1.23458e-05
-2.06423e-08
1.23323e-05
-2.00958e-08
1.23192e-05
-1.94948e-08
1.23065e-05
-1.9572e-08
1.2294e-05
-1.91902e-08
-2.19467e-08
9.27994e-06
-1.62319e-08
9.2623e-06
-1.56234e-08
9.24533e-06
-1.504e-08
9.22899e-06
-1.44802e-08
9.21327e-06
-1.39433e-08
9.19813e-06
-1.34281e-08
9.18355e-06
-1.29344e-08
9.16951e-06
-1.24606e-08
9.15599e-06
-1.20075e-08
9.14296e-06
-1.15735e-08
9.1304e-06
-1.11602e-08
9.11829e-06
-1.07674e-08
9.1066e-06
-1.03948e-08
9.09531e-06
-1.00547e-08
9.08439e-06
-9.72377e-09
9.07379e-06
-9.49303e-09
9.06349e-06
-9.19513e-09
9.05332e-06
-9.40213e-09
9.04329e-06
-9.16504e-09
-1.20875e-08
5.74257e-06
-4.3278e-09
5.73111e-06
-4.16654e-09
5.72008e-06
-4.01184e-09
5.70946e-06
-3.86336e-09
5.69924e-06
-3.72092e-09
5.6894e-06
-3.58417e-09
5.67992e-06
-3.45312e-09
5.67078e-06
-3.32732e-09
5.66198e-06
-3.20706e-09
5.6535e-06
-3.09185e-09
5.64532e-06
-2.9822e-09
5.63743e-06
-2.87824e-09
5.62982e-06
-2.77916e-09
5.62245e-06
-2.69096e-09
5.61533e-06
-2.60064e-09
5.60839e-06
-2.55113e-09
5.60165e-06
-2.45628e-09
5.59484e-06
-2.5921e-09
5.58813e-06
-2.45372e-09
-4.34925e-09
1.98652e-06
1.98235e-06
1.97834e-06
1.97448e-06
1.97076e-06
1.96717e-06
1.96372e-06
1.96039e-06
1.95719e-06
1.95409e-06
1.95111e-06
1.94823e-06
1.94545e-06
1.94276e-06
1.94016e-06
1.93761e-06
1.93515e-06
1.93256e-06
1.93011e-06
)
;

boundaryField
{
    fixedWalls
    {
        type            calculated;
        value           uniform 0;
    }
    inlet
    {
        type            calculated;
        value           nonuniform 0();
    }
    outlet
    {
        type            calculated;
        value           nonuniform List<scalar> 
20
(
3.683e-05
3.66711e-05
3.63514e-05
3.58676e-05
3.52148e-05
3.43871e-05
3.33784e-05
3.2182e-05
3.0792e-05
2.92031e-05
2.74108e-05
2.54119e-05
2.32044e-05
2.07874e-05
1.81607e-05
1.53253e-05
1.22823e-05
9.03343e-06
5.58039e-06
1.92576e-06
)
;
    }
    frontAndBack
    {
        type            empty;
        value           nonuniform 0();
    }
    procBoundary7to3
    {
        type            processor;
        value           nonuniform List<scalar> 
20
(
1.296e-12
-1.65448e-14
-3.65679e-12
-3.29422e-12
1.29811e-12
2.34757e-12
-2.17868e-12
-4.51765e-12
-1.61125e-12
3.07274e-13
-1.33079e-12
-1.71896e-12
-1.30113e-12
-3.2977e-12
-4.10329e-12
-6.7217e-13
7.59167e-13
-2.97158e-12
-4.62092e-12
-3.27027e-12
)
;
    }
    procBoundary7to6
    {
        type            processor;
        value           nonuniform List<scalar> 
20
(
-3.61177e-05
-3.59913e-05
-3.57347e-05
-3.53403e-05
-3.47979e-05
-3.40949e-05
-3.32177e-05
-3.21523e-05
-3.08857e-05
-2.94063e-05
-2.77049e-05
-2.57746e-05
-2.36112e-05
-2.12129e-05
-1.858e-05
-1.57145e-05
-1.26194e-05
-9.29827e-06
-5.75447e-06
-1.99085e-06
)
;
    }
}


// ************************************************************************* //
