/*--------------------------------*- C++ -*----------------------------------*\
| =========                 |                                                 |
| \\      /  F ield         | OpenFOAM: The Open Source CFD Toolbox           |
|  \\    /   O peration     | Version:                                        |
|   \\  /    A nd           | Website:  www.openfoam.com                      |
|    \\/     M anipulation  |                                                 |
\*---------------------------------------------------------------------------*/
FoamFile
{
    version     2.0;
    format      ascii;
    class       volScalarField;
    location    "173.5";
    object      p;
}
// * * * * * * * * * * * * * * * * * * * * * * * * * * * * * * * * * * * * * //

dimensions      [0 2 -2 0 0 0 0];


internalField   nonuniform List<scalar> 
1150
(
0.186447
0.186195
0.183387
0.177765
0.169371
0.158428
0.196127
0.195149
0.191102
0.183838
0.173384
0.206398
0.204594
0.199365
0.0574731
0.0574977
0.0574541
0.0573475
0.0571777
0.0569569
0.0566877
0.0563883
0.0560675
0.0557539
0.0525782
0.0526805
0.0528333
0.0530317
0.0532757
0.0535513
0.0538574
0.0541828
0.0545168
0.054844
0.0553923
0.0554678
0.0555209
0.055559
0.0555907
0.0556276
0.0556513
0.0556882
0.0556873
0.0556707
0.0554471
0.0555851
0.0557186
0.055843
0.0559631
0.0560705
0.0561776
0.0562646
0.0563494
0.0564063
0.0571632
0.057149
0.0571103
0.0570554
0.0569831
0.0569108
0.0568303
0.0567682
0.0567178
0.0566985
0.0570943
0.0572351
0.0573813
0.0575251
0.0576823
0.0578269
0.0579864
0.0581223
0.0582431
0.0583584
0.0585068
0.0587823
0.0590329
0.0592342
0.0593644
0.0594311
0.0594121
0.0593315
0.0591989
0.0590436
0.0588513
0.0587411
0.0588887
0.0587996
0.058769
0.0587347
0.058786
0.058853
0.0589595
0.0591237
0.0604959
0.060681
0.0609162
0.0611602
0.0614136
0.0617405
0.0619858
0.06225
0.0623467
0.0624182
0.0617331
0.0621525
0.0624871
0.0627021
0.062829
0.0628193
0.0627428
0.062592
0.0624637
0.062428
0.0632224
0.0631206
0.0630364
0.0629655
0.0629033
0.0629173
0.0629671
0.0631592
0.063389
0.0637668
0.0651012
0.0652514
0.0654553
0.0657305
0.0660849
0.0664677
0.0668766
0.0671876
0.0673517
0.0675086
0.0675259
0.0681409
0.0686943
0.0690721
0.0693256
0.0694053
0.0692737
0.0692089
0.0689072
0.0689913
0.0696011
0.0697999
0.0699529
0.0700868
0.0701908
0.0703796
0.0705973
0.0709585
0.0712848
0.0717788
0.0723279
0.0725344
0.0727976
0.0731284
0.0735109
0.0739245
0.0741973
0.0745106
0.0742851
0.0744695
0.0755041
0.0759209
0.0763141
0.0765979
0.0767729
0.0768567
0.076801
0.0767983
0.0766751
0.0769658
0.0790194
0.0795499
0.0799618
0.0803127
0.0804611
0.0806999
0.0806377
0.0809258
0.080497
0.0808731
0.0827957
0.0832217
0.08357
0.0838316
0.083972
0.0840324
0.0839467
0.0837897
0.0834085
0.0833251
0.0872493
0.0876985
0.0880864
0.0883898
0.0884981
0.0886407
0.0883643
0.0884572
0.0877032
0.0878352
0.0921726
0.0926836
0.0930281
0.093217
0.0931397
0.0929309
0.0924418
0.091803
0.0907364
0.0900053
0.0975906
0.098165
0.0985153
0.098628
0.0984051
0.0981286
0.0972817
0.0968873
0.0953352
0.0951344
0.103541
0.104103
0.10438
0.104355
0.103919
0.103272
0.102226
0.100896
0.0991416
0.0974676
0.11028
0.110814
0.111003
0.110802
0.11011
0.109162
0.107524
0.106077
0.103355
0.101724
0.117605
0.118085
0.118126
0.117655
0.116571
0.115051
0.112953
0.110288
0.107073
0.103624
0.125571
0.126045
0.125956
0.125183
0.123667
0.121561
0.118563
0.115268
0.110649
0.106461
0.134146
0.134588
0.134304
0.133136
0.131029
0.128086
0.124251
0.119314
0.113875
0.107198
0.143453
0.143897
0.143396
0.141772
0.139007
0.135096
0.129999
0.123846
0.116017
0.107906
0.15342
0.15382
0.153031
0.150808
0.147137
0.142088
0.135313
0.127195
0.117481
0.106062
0.16413
0.164492
0.163334
0.160417
0.155663
0.149156
0.140615
0.130331
0.118105
0.175607
0.17583
0.174093
0.170126
0.163906
0.155487
0.144346
0.0554467
0.0551734
0.0549642
0.0548026
0.0546796
0.0545955
0.0545582
0.0545618
0.0545928
0.0546299
0.0546545
0.0546514
0.0546116
0.0545463
0.0544685
0.0543822
0.0542821
0.0541608
0.0540107
0.0538315
0.0536181
0.05337
0.0530905
0.0527895
0.0524752
0.0521618
0.0518608
0.0515657
0.0512542
0.0511237
0.0551401
0.0554244
0.0557047
0.0559811
0.056224
0.0563868
0.0564255
0.0563148
0.0560744
0.055819
0.0556144
0.0554663
0.0553485
0.0552247
0.0550792
0.05491
0.054718
0.0545031
0.0542681
0.0540102
0.0537301
0.053427
0.0531064
0.0527715
0.052433
0.0521001
0.0517852
0.0514936
0.0511781
0.0510426
0.0556616
0.0556363
0.0556102
0.0556156
0.0556776
0.055794
0.05594
0.0560828
0.0561671
0.0561515
0.0560326
0.0558572
0.0556748
0.0554862
0.0552938
0.0550878
0.0548615
0.0546056
0.0543235
0.054014
0.0536846
0.0533373
0.0529807
0.0526176
0.0522597
0.05191
0.0515895
0.0513089
0.051022
0.0508944
0.056472
0.0565464
0.0566157
0.0566705
0.0567063
0.0567051
0.0566595
0.0565883
0.0565315
0.0564727
0.0563807
0.0562446
0.0560568
0.0558313
0.0555847
0.0553279
0.0550474
0.0547427
0.0544015
0.0540331
0.0536387
0.0532338
0.0528245
0.0524216
0.0520277
0.051656
0.0513197
0.0510447
0.0507998
0.0506837
0.0566394
0.0565674
0.0565239
0.0565235
0.0565675
0.0566603
0.0567982
0.056926
0.0569774
0.0569669
0.0569221
0.0568291
0.0566693
0.0564428
0.056151
0.0558132
0.0554334
0.0550167
0.0545672
0.0540885
0.053594
0.0531049
0.05263
0.0521747
0.0517447
0.0513519
0.0509996
0.0507256
0.0505193
0.0504137
0.058406
0.0584419
0.0584576
0.0584042
0.0582584
0.0580273
0.0577063
0.0573806
0.0570956
0.0568449
0.0566275
0.0564193
0.0562149
0.0559865
0.0557262
0.0554279
0.0550862
0.0546953
0.0542602
0.0537785
0.0532765
0.0527697
0.0522698
0.0517924
0.0513546
0.0509542
0.0506101
0.0503454
0.0501717
0.0500778
0.0588858
0.0587458
0.0586499
0.0585795
0.0585619
0.0585766
0.0585789
0.058467
0.0582192
0.0578885
0.0574942
0.057069
0.05664
0.056226
0.0558279
0.0554395
0.0550402
0.0546071
0.0541214
0.0536005
0.0530665
0.0525259
0.0519905
0.0514811
0.0510042
0.0505761
0.0502197
0.0499435
0.0497766
0.0496846
0.0591268
0.0591956
0.0593031
0.059449
0.0595593
0.0595771
0.0595269
0.0594788
0.0594189
0.0593166
0.0591344
0.0588446
0.0584284
0.0578857
0.0572472
0.0565498
0.0558283
0.0551003
0.0543809
0.0536738
0.0529864
0.0523327
0.0517307
0.0511717
0.050662
0.0502163
0.0498355
0.0495442
0.0493617
0.0492622
0.0621468
0.0617456
0.0614361
0.061144
0.0608868
0.0606308
0.0602359
0.0596818
0.0590867
0.0585059
0.0580009
0.0575912
0.0572452
0.0569032
0.0565109
0.0560166
0.0554081
0.0547229
0.0540071
0.0532856
0.0525761
0.0518981
0.0512613
0.0506795
0.0501759
0.0497435
0.0493754
0.0490995
0.0489123
0.0488131
0.0623605
0.0623869
0.0624404
0.0624402
0.0623477
0.0621499
0.0618919
0.0615659
0.0610867
0.0604119
0.0595529
0.0585944
0.0576342
0.0567698
0.0560173
0.0553651
0.0547663
0.054158
0.0534957
0.052813
0.0521428
0.0514863
0.0508487
0.0502576
0.0497295
0.0492784
0.048907
0.0486314
0.0484393
0.04834
0.063882
0.0637304
0.0634456
0.0632375
0.0630728
0.0628562
0.0625871
0.0623416
0.062145
0.0619408
0.0616128
0.0610469
0.0601866
0.0590625
0.0577825
0.0564942
0.0553283
0.0543095
0.0534003
0.052569
0.0517925
0.0510733
0.0504223
0.0498347
0.0493048
0.0488481
0.0484677
0.0481792
0.0479756
0.0478723
0.0673131
0.0669933
0.0667113
0.0662216
0.0655397
0.0648041
0.0639931
0.0630221
0.0619899
0.0610212
0.060253
0.0596954
0.0592294
0.0586937
0.0579293
0.0569035
0.0556906
0.0544509
0.0533194
0.0523166
0.051417
0.0506124
0.0499045
0.0492959
0.0487768
0.0483468
0.0479911
0.0477181
0.0475209
0.0474213
0.0686299
0.0681528
0.0676096
0.0671016
0.066682
0.0662853
0.0658615
0.065315
0.0645002
0.0632954
0.0617857
0.0601357
0.058621
0.0573822
0.0564261
0.0556303
0.0548015
0.0538454
0.0528225
0.0518254
0.0509102
0.0500934
0.0493724
0.0487469
0.0482236
0.0478069
0.0474762
0.0472343
0.0470591
0.0469749
0.0717118
0.0713548
0.0708107
0.0700722
0.0689899
0.0677017
0.0663926
0.0652706
0.0644098
0.0637003
0.0628662
0.061635
0.0599865
0.0581265
0.0563618
0.0548849
0.053718
0.0527734
0.0518974
0.0510327
0.0502005
0.0494422
0.0487656
0.0481751
0.0476769
0.0472746
0.0469643
0.0467513
0.0465993
0.0465359
0.0736603
0.0727478
0.0720173
0.0713342
0.0706782
0.0699175
0.0687897
0.0672662
0.0655145
0.0638183
0.0624421
0.0613244
0.0602183
0.0588848
0.0572576
0.0555013
0.0538485
0.0524461
0.0512998
0.0503438
0.049518
0.0487895
0.0481479
0.0475993
0.0471367
0.0467615
0.0464764
0.0462903
0.046161
0.0461184
0.0766462
0.0760196
0.0749339
0.0734795
0.0719612
0.0705972
0.0694079
0.0682576
0.0668524
0.0650069
0.0629478
0.0609689
0.0593664
0.0580724
0.0568291
0.0554512
0.0539288
0.0523927
0.0510129
0.0498509
0.0489146
0.0481446
0.0475091
0.0469894
0.0465663
0.0462331
0.0459886
0.0458427
0.0457495
0.0457303
0.0798084
0.0781525
0.0768476
0.0756763
0.0741781
0.0722298
0.0701446
0.0681551
0.0663447
0.0646181
0.0627129
0.060588
0.0584885
0.0566533
0.0551959
0.0539854
0.0528176
0.0516079
0.050384
0.0492631
0.048307
0.0475126
0.0468759
0.046371
0.0459774
0.0456845
0.0454859
0.0453915
0.0453551
0.0453637
0.0823826
0.0812784
0.0798847
0.0780724
0.0762729
0.0744365
0.0723204
0.0698143
0.0672087
0.0647667
0.0625242
0.0603571
0.0581413
0.0559254
0.0539453
0.0523595
0.0511569
0.0501503
0.0492091
0.0483273
0.0475114
0.0468056
0.0462272
0.0457634
0.0454062
0.0451484
0.0449873
0.0449405
0.0449766
0.0450114
0.0861737
0.0837467
0.0814622
0.0791411
0.0766983
0.0743437
0.0719908
0.069561
0.0670007
0.0643743
0.0619353
0.0597408
0.0576791
0.0556106
0.0535253
0.0516131
0.0500573
0.0488739
0.0479727
0.0472314
0.0465807
0.0460187
0.0455427
0.0451574
0.0448578
0.0446417
0.044514
0.0445037
0.0446231
0.0446764
0.0876579
0.0855687
0.0834729
0.080823
0.0779985
0.0750487
0.0720905
0.0692607
0.06645
0.0636598
0.0610139
0.0586325
0.0565744
0.0547656
0.0530482
0.0513043
0.049648
0.0482435
0.0471556
0.0463422
0.0457323
0.0452526
0.0448679
0.0445649
0.0443315
0.0441655
0.0440719
0.0440889
0.0443042
0.0443653
0.0927969
0.0895942
0.0861832
0.0829216
0.079629
0.0760758
0.0724936
0.0690378
0.0657608
0.062721
0.059853
0.0572107
0.0549162
0.0530579
0.0515623
0.0502279
0.0489031
0.047616
0.0465075
0.0456395
0.045005
0.0445436
0.044212
0.043974
0.0438066
0.0436971
0.0436456
0.0436876
0.0440161
0.0440799
0.0939014
0.090355
0.0868086
0.0831903
0.0794253
0.0756675
0.0720636
0.0684838
0.0650161
0.0617584
0.0587075
0.055889
0.0533652
0.0512485
0.0496022
0.0483994
0.0474195
0.0464979
0.0456387
0.0448973
0.0443168
0.04389
0.0436002
0.0434111
0.0432982
0.0432402
0.0432309
0.0432944
0.0437498
0.0438136
0.0975723
0.0928868
0.0882565
0.0835665
0.0787831
0.07431
0.0702137
0.066462
0.0630793
0.0599322
0.0570209
0.0543232
0.0518471
0.0496515
0.0478403
0.0465143
0.0456064
0.0449637
0.0444303
0.0439535
0.0435417
0.0432241
0.0430072
0.0428779
0.0428186
0.0428072
0.0428351
0.0429119
0.0434978
0.0435582
0.0983709
0.0931922
0.0881456
0.0830403
0.0780696
0.0733086
0.0686715
0.0644231
0.0606646
0.0574149
0.0546428
0.0522169
0.0500753
0.0481319
0.0464282
0.0450583
0.0440854
0.0434866
0.0431293
0.0428823
0.0426825
0.0425278
0.0424229
0.0423765
0.0423778
0.0424127
0.0424718
0.0425509
0.0432574
0.0433088
0.100377
0.0940249
0.0874754
0.0814043
0.0760724
0.0712247
0.0667351
0.0625307
0.0586135
0.0551551
0.0522353
0.0498672
0.0479862
0.046413
0.0450552
0.0438839
0.0429609
0.0423483
0.0420135
0.0418681
0.0418212
0.0418183
0.0418405
0.0418936
0.0419685
0.0420569
0.0421471
0.0422213
0.0430263
0.0430636
0.10042
0.0930227
0.0857247
0.0791002
0.0731386
0.0679027
0.063407
0.0594807
0.0559219
0.052702
0.0498506
0.0475075
0.0457212
0.0443999
0.0434113
0.0425976
0.041918
0.0414122
0.0411094
0.0410056
0.0410395
0.0411433
0.0412757
0.0414253
0.041581
0.0417317
0.0418587
0.0419277
0.0427986
0.0428193
0.0988404
0.089553
0.081476
0.0747474
0.0688226
0.0635306
0.0589959
0.0551939
0.0520218
0.0493235
0.0469231
0.0448841
0.0432696
0.0421279
0.0414097
0.0409488
0.0406257
0.0403834
0.0402395
0.0402269
0.0403326
0.0405178
0.0407392
0.0409746
0.0412129
0.0414323
0.0416034
0.041672
0.0425637
0.0425685
0.0959829
0.0853493
0.0768997
0.0701304
0.0641802
0.0589022
0.0543211
0.0504519
0.0474148
0.0450607
0.0431806
0.0416638
0.0404345
0.0395763
0.0390914
0.0389174
0.0389438
0.039051
0.0391976
0.0393859
0.0396264
0.0399154
0.0402267
0.0405457
0.0408665
0.0411594
0.041382
0.0414573
0.0423093
0.0422998
)
;

boundaryField
{
    outlet
    {
        type            fixedValue;
        value           nonuniform 0();
    }
    upperWall
    {
        type            symmetryPlane;
    }
    lowerWall
    {
        type            symmetryPlane;
    }
    inlet
    {
        type            zeroGradient;
    }
    cylinder
    {
        type            zeroGradient;
    }
    frontAndBack
    {
        type            empty;
    }
    procBoundary0to1
    {
        type            processor;
        value           nonuniform List<scalar> 
45
(
0.144559
0.160246
0.144559
0.190745
0.160246
0.178757
0.217786
0.215296
0.190745
0.209093
0.104254
0.13148
0.104254
0.116567
0.13148
0.0882169
0.0769054
0.0694963
0.0633591
0.0579394
0.0532189
0.0491023
0.0455908
0.0427566
0.0405697
0.0390111
0.0379371
0.0371813
0.0367162
0.0365228
0.0366109
0.0369317
0.037382
0.0378726
0.0383484
0.0388093
0.0392621
0.0397008
0.0401248
0.0405384
0.0409147
0.0411981
0.0412882
0.0420233
0.0420013
)
;
    }
    procBoundary0to4
    {
        type            processor;
        value           nonuniform List<scalar> 
33
(
0.184405
0.194246
0.204798
0.0573831
0.0525265
0.0552876
0.0553076
0.0571544
0.0569466
0.0582219
0.0589307
0.0602909
0.0612703
0.0632877
0.0649263
0.0668929
0.0693056
0.0720544
0.07498
0.0783559
0.0822
0.086621
0.0914072
0.0966763
0.102527
0.109212
0.116449
0.124331
0.132737
0.14188
0.151672
0.162212
0.173551
)
;
    }
}


// ************************************************************************* //
