/*--------------------------------*- C++ -*----------------------------------*\
| =========                 |                                                 |
| \\      /  F ield         | OpenFOAM: The Open Source CFD Toolbox           |
|  \\    /   O peration     | Version:                                        |
|   \\  /    A nd           | Website:  www.openfoam.com                      |
|    \\/     M anipulation  |                                                 |
\*---------------------------------------------------------------------------*/
FoamFile
{
    version     2.0;
    format      ascii;
    class       volScalarField;
    location    "563";
    object      p;
}
// * * * * * * * * * * * * * * * * * * * * * * * * * * * * * * * * * * * * * //

dimensions      [0 2 -2 0 0 0 0];


internalField   nonuniform List<scalar> 
1250
(
0.41611
0.414244
0.41238
0.410518
0.408659
0.406802
0.404948
0.403096
0.401246
0.399398
0.397553
0.39571
0.39387
0.392031
0.390195
0.388361
0.386529
0.384699
0.382872
0.381047
0.379224
0.377403
0.375584
0.373767
0.371952
0.37014
0.368329
0.366521
0.364714
0.36291
0.361107
0.359307
0.357509
0.355712
0.353918
0.352126
0.350335
0.348547
0.34676
0.344975
0.343193
0.341412
0.339633
0.337856
0.33608
0.334307
0.332536
0.330766
0.328998
0.327232
0.325468
0.323705
0.321944
0.320186
0.318428
0.316673
0.314919
0.313167
0.311417
0.309669
0.307922
0.306177
0.304434
0.302692
0.300952
0.299213
0.297477
0.295742
0.294008
0.292276
0.290546
0.288818
0.287091
0.285365
0.283641
0.281919
0.280199
0.278479
0.276762
0.275046
0.273331
0.271619
0.269907
0.268197
0.266489
0.264782
0.263077
0.261373
0.25967
0.257969
0.25627
0.254572
0.252875
0.25118
0.249486
0.247794
0.246103
0.244413
0.242725
0.241039
0.239353
0.237669
0.235987
0.234306
0.232626
0.230947
0.22927
0.227595
0.22592
0.224247
0.222575
0.220905
0.219236
0.217568
0.215901
0.214236
0.212572
0.21091
0.209248
0.207588
0.205929
0.204272
0.202615
0.20096
0.199307
0.416142
0.414276
0.412412
0.41055
0.408691
0.406834
0.40498
0.403127
0.401278
0.39943
0.397585
0.395742
0.393901
0.392062
0.390226
0.388392
0.38656
0.38473
0.382903
0.381077
0.379254
0.377433
0.375614
0.373797
0.371983
0.37017
0.368359
0.366551
0.364744
0.36294
0.361138
0.359337
0.357539
0.355742
0.353948
0.352155
0.350365
0.348576
0.34679
0.345005
0.343222
0.341441
0.339662
0.337885
0.33611
0.334336
0.332565
0.330795
0.329027
0.327261
0.325496
0.323734
0.321973
0.320214
0.318457
0.316701
0.314948
0.313196
0.311446
0.309697
0.30795
0.306205
0.304462
0.30272
0.30098
0.299241
0.297504
0.295769
0.294036
0.292304
0.290574
0.288845
0.287118
0.285393
0.283669
0.281946
0.280226
0.278507
0.276789
0.275073
0.273358
0.271645
0.269934
0.268224
0.266515
0.264809
0.263103
0.261399
0.259697
0.257996
0.256296
0.254598
0.252901
0.251206
0.249512
0.24782
0.246129
0.244439
0.242751
0.241064
0.239379
0.237695
0.236012
0.234331
0.232651
0.230973
0.229296
0.22762
0.225945
0.224272
0.2226
0.22093
0.219261
0.217593
0.215926
0.214261
0.212597
0.210934
0.209273
0.207613
0.205954
0.204296
0.20264
0.200985
0.199331
0.416117
0.414251
0.412387
0.410526
0.408666
0.40681
0.404955
0.403103
0.401253
0.399406
0.39756
0.395718
0.393877
0.392038
0.390202
0.388368
0.386536
0.384707
0.382879
0.381054
0.379231
0.37741
0.375591
0.373774
0.37196
0.370147
0.368337
0.366528
0.364722
0.362917
0.361115
0.359315
0.357516
0.35572
0.353926
0.352133
0.350343
0.348554
0.346768
0.344983
0.3432
0.341419
0.33964
0.337863
0.336088
0.334315
0.332543
0.330773
0.329006
0.327239
0.325475
0.323713
0.321952
0.320193
0.318436
0.316681
0.314927
0.313175
0.311425
0.309676
0.30793
0.306185
0.304441
0.302699
0.300959
0.299221
0.297484
0.295749
0.294016
0.292284
0.290554
0.288825
0.287098
0.285373
0.283649
0.281927
0.280206
0.278487
0.27677
0.275054
0.273339
0.271626
0.269915
0.268205
0.266496
0.26479
0.263084
0.26138
0.259678
0.257977
0.256277
0.254579
0.252883
0.251187
0.249494
0.247801
0.24611
0.244421
0.242733
0.241046
0.239361
0.237677
0.235994
0.234313
0.232633
0.230955
0.229278
0.227602
0.225928
0.224255
0.222583
0.220912
0.219243
0.217575
0.215909
0.214244
0.21258
0.210917
0.209256
0.207596
0.205937
0.204279
0.202623
0.200968
0.199314
0.416113
0.414247
0.412383
0.410522
0.408663
0.406806
0.404951
0.403099
0.40125
0.399402
0.397557
0.395714
0.393873
0.392035
0.390199
0.388365
0.386533
0.384704
0.382876
0.381051
0.379228
0.377407
0.375588
0.373771
0.371957
0.370144
0.368334
0.366525
0.364719
0.362915
0.361112
0.359312
0.357514
0.355717
0.353923
0.352131
0.35034
0.348552
0.346765
0.344981
0.343198
0.341417
0.339638
0.337861
0.336086
0.334313
0.332541
0.330771
0.329004
0.327238
0.325473
0.323711
0.32195
0.320191
0.318434
0.316679
0.314925
0.313173
0.311423
0.309675
0.307928
0.306183
0.30444
0.302698
0.300958
0.29922
0.297483
0.295748
0.294014
0.292283
0.290553
0.288824
0.287097
0.285372
0.283648
0.281926
0.280205
0.278486
0.276768
0.275052
0.273338
0.271625
0.269914
0.268204
0.266496
0.264789
0.263083
0.261379
0.259677
0.257976
0.256276
0.254578
0.252882
0.251187
0.249493
0.247801
0.24611
0.24442
0.242732
0.241046
0.23936
0.237676
0.235994
0.234313
0.232633
0.230954
0.229277
0.227602
0.225927
0.224254
0.222582
0.220912
0.219243
0.217575
0.215909
0.214243
0.212579
0.210917
0.209256
0.207595
0.205937
0.204279
0.202623
0.200968
0.199314
0.416097
0.414231
0.412367
0.410506
0.408647
0.40679
0.404936
0.403084
0.401234
0.399387
0.397541
0.395699
0.393858
0.39202
0.390184
0.38835
0.386518
0.384689
0.382861
0.381036
0.379213
0.377392
0.375574
0.373757
0.371942
0.37013
0.36832
0.366511
0.364705
0.362901
0.361098
0.359298
0.3575
0.355704
0.353909
0.352117
0.350327
0.348538
0.346752
0.344967
0.343185
0.341404
0.339625
0.337848
0.336073
0.3343
0.332528
0.330759
0.328991
0.327225
0.325461
0.323698
0.321938
0.320179
0.318422
0.316667
0.314913
0.313161
0.311411
0.309663
0.307916
0.306171
0.304428
0.302686
0.300946
0.299208
0.297471
0.295736
0.294003
0.292271
0.290541
0.288813
0.287086
0.285361
0.283637
0.281915
0.280194
0.278475
0.276758
0.275042
0.273327
0.271614
0.269903
0.268193
0.266485
0.264778
0.263073
0.261369
0.259667
0.257966
0.256266
0.254568
0.252872
0.251177
0.249483
0.247791
0.2461
0.24441
0.242722
0.241036
0.23935
0.237667
0.235984
0.234303
0.232623
0.230945
0.229268
0.227592
0.225918
0.224245
0.222573
0.220903
0.219234
0.217566
0.215899
0.214234
0.21257
0.210908
0.209247
0.207586
0.205928
0.20427
0.202614
0.200959
0.199305
0.416081
0.414215
0.412351
0.41049
0.408631
0.406775
0.40492
0.403069
0.401219
0.399372
0.397527
0.395684
0.393844
0.392005
0.390169
0.388336
0.386504
0.384675
0.382847
0.381022
0.379199
0.377379
0.37556
0.373743
0.371929
0.370117
0.368306
0.366498
0.364692
0.362888
0.361086
0.359285
0.357487
0.355691
0.353897
0.352105
0.350315
0.348526
0.34674
0.344955
0.343173
0.341392
0.339613
0.337836
0.336061
0.334288
0.332517
0.330747
0.32898
0.327214
0.32545
0.323687
0.321927
0.320168
0.318411
0.316656
0.314902
0.313151
0.311401
0.309652
0.307906
0.306161
0.304418
0.302676
0.300936
0.299198
0.297461
0.295726
0.293993
0.292261
0.290531
0.288803
0.287076
0.285351
0.283627
0.281905
0.280185
0.278466
0.276748
0.275032
0.273318
0.271605
0.269894
0.268184
0.266476
0.264769
0.263064
0.26136
0.259658
0.257957
0.256258
0.25456
0.252863
0.251168
0.249474
0.247782
0.246091
0.244402
0.242714
0.241028
0.239342
0.237659
0.235976
0.234295
0.232615
0.230937
0.22926
0.227584
0.22591
0.224237
0.222566
0.220895
0.219226
0.217558
0.215892
0.214227
0.212563
0.210901
0.209239
0.207579
0.205921
0.204263
0.202607
0.200952
0.199298
0.416061
0.414195
0.412332
0.410471
0.408612
0.406755
0.404901
0.40305
0.4012
0.399353
0.397508
0.395666
0.393825
0.391987
0.390151
0.388318
0.386486
0.384657
0.38283
0.381005
0.379182
0.377361
0.375543
0.373726
0.371912
0.3701
0.36829
0.366482
0.364675
0.362871
0.361069
0.359269
0.357471
0.355675
0.353881
0.352089
0.350299
0.348511
0.346724
0.34494
0.343158
0.341377
0.339598
0.337821
0.336046
0.334273
0.332502
0.330733
0.328965
0.327199
0.325435
0.323673
0.321913
0.320154
0.318397
0.316642
0.314889
0.313137
0.311387
0.309639
0.307892
0.306147
0.304404
0.302663
0.300923
0.299185
0.297448
0.295714
0.29398
0.292249
0.290519
0.28879
0.287064
0.285339
0.283615
0.281893
0.280172
0.278454
0.276736
0.27502
0.273306
0.271593
0.269882
0.268173
0.266464
0.264758
0.263052
0.261349
0.259647
0.257946
0.256246
0.254549
0.252852
0.251157
0.249464
0.247771
0.246081
0.244391
0.242703
0.241017
0.239332
0.237648
0.235966
0.234285
0.232605
0.230927
0.22925
0.227574
0.2259
0.224227
0.222556
0.220885
0.219216
0.217549
0.215882
0.214217
0.212553
0.210891
0.20923
0.20757
0.205911
0.204254
0.202598
0.200943
0.199289
0.41604
0.414174
0.412311
0.41045
0.408591
0.406735
0.404881
0.403029
0.40118
0.399333
0.397488
0.395646
0.393806
0.391968
0.390132
0.388299
0.386467
0.384638
0.382811
0.380986
0.379164
0.377343
0.375525
0.373708
0.371894
0.370082
0.368272
0.366464
0.364658
0.362854
0.361052
0.359252
0.357454
0.355658
0.353864
0.352073
0.350282
0.348494
0.346708
0.344924
0.343142
0.341361
0.339583
0.337806
0.336031
0.334258
0.332487
0.330717
0.32895
0.327184
0.32542
0.323658
0.321898
0.320139
0.318383
0.316628
0.314874
0.313123
0.311373
0.309625
0.307878
0.306134
0.304391
0.302649
0.300909
0.299171
0.297435
0.2957
0.293967
0.292236
0.290506
0.288777
0.287051
0.285326
0.283602
0.28188
0.28016
0.278441
0.276724
0.275008
0.273294
0.271581
0.26987
0.268161
0.266453
0.264746
0.263041
0.261337
0.259635
0.257934
0.256235
0.254537
0.252841
0.251146
0.249452
0.24776
0.24607
0.24438
0.242693
0.241006
0.239321
0.237637
0.235955
0.234274
0.232595
0.230916
0.22924
0.227564
0.22589
0.224217
0.222546
0.220875
0.219206
0.217539
0.215873
0.214208
0.212544
0.210881
0.20922
0.20756
0.205902
0.204244
0.202588
0.200933
0.19928
0.416017
0.414151
0.412288
0.410427
0.408569
0.406713
0.404859
0.403008
0.401158
0.399312
0.397467
0.395625
0.393785
0.391947
0.390111
0.388278
0.386447
0.384618
0.382791
0.380966
0.379144
0.377324
0.375505
0.373689
0.371875
0.370063
0.368253
0.366445
0.364639
0.362836
0.361034
0.359234
0.357436
0.355641
0.353847
0.352055
0.350265
0.348477
0.346691
0.344907
0.343125
0.341344
0.339566
0.337789
0.336014
0.334242
0.33247
0.330701
0.328934
0.327168
0.325405
0.323643
0.321882
0.320124
0.318367
0.316612
0.314859
0.313108
0.311358
0.30961
0.307864
0.306119
0.304376
0.302635
0.300895
0.299157
0.297421
0.295686
0.293953
0.292222
0.290492
0.288764
0.287037
0.285312
0.283589
0.281867
0.280147
0.278428
0.276711
0.274995
0.273281
0.271569
0.269858
0.268148
0.26644
0.264733
0.263028
0.261325
0.259623
0.257922
0.256223
0.254525
0.252829
0.251134
0.249441
0.247749
0.246058
0.244369
0.242681
0.240995
0.23931
0.237626
0.235944
0.234263
0.232584
0.230906
0.229229
0.227553
0.225879
0.224206
0.222535
0.220865
0.219196
0.217528
0.215862
0.214197
0.212534
0.210871
0.20921
0.20755
0.205892
0.204234
0.202578
0.200924
0.19927
0.415993
0.414128
0.412265
0.410404
0.408546
0.40669
0.404837
0.402985
0.401136
0.39929
0.397445
0.395603
0.393763
0.391926
0.39009
0.388257
0.386426
0.384597
0.382771
0.380946
0.379124
0.377304
0.375486
0.37367
0.371856
0.370044
0.368234
0.366426
0.364621
0.362817
0.361015
0.359216
0.357418
0.355623
0.353829
0.352037
0.350247
0.34846
0.346674
0.34489
0.343108
0.341327
0.339549
0.337773
0.335998
0.334225
0.332454
0.330685
0.328918
0.327152
0.325389
0.323627
0.321867
0.320108
0.318352
0.316597
0.314844
0.313093
0.311343
0.309595
0.307849
0.306104
0.304362
0.30262
0.300881
0.299143
0.297407
0.295672
0.293939
0.292208
0.290478
0.28875
0.287024
0.285299
0.283576
0.281854
0.280134
0.278415
0.276698
0.274983
0.273269
0.271556
0.269845
0.268136
0.266428
0.264721
0.263016
0.261313
0.259611
0.25791
0.256211
0.254514
0.252817
0.251123
0.249429
0.247737
0.246047
0.244358
0.24267
0.240984
0.239299
0.237615
0.235933
0.234252
0.232573
0.230895
0.229218
0.227543
0.225869
0.224196
0.222525
0.220855
0.219186
0.217518
0.215852
0.214187
0.212524
0.210861
0.2092
0.207541
0.205882
0.204225
0.202569
0.200914
0.199261
)
;

boundaryField
{
    inlet
    {
        type            zeroGradient;
    }
    outlet
    {
        type            fixedValue;
        value           nonuniform 0();
    }
    wall
    {
        type            zeroGradient;
    }
    back
    {
        type            wedge;
    }
    front
    {
        type            wedge;
    }
    axis
    {
        type            empty;
    }
    procBoundary2to1
    {
        type            processor;
        value           nonuniform List<scalar> 10(0.417979 0.418011 0.417986 0.417982 0.417966 0.41795 0.41793 0.417908 0.417885 0.417861);
    }
    procBoundary2to3
    {
        type            processor;
        value           nonuniform List<scalar> 10(0.197654 0.197678 0.197661 0.197661 0.197653 0.197646 0.197636 0.197627 0.197618 0.197608);
    }
    procBoundary2to6
    {
        type            processor;
        value           nonuniform List<scalar> 
125
(
0.41597
0.414105
0.412242
0.410382
0.408524
0.406668
0.404815
0.402964
0.401115
0.399269
0.397424
0.395582
0.393743
0.391905
0.39007
0.388237
0.386406
0.384578
0.382751
0.380927
0.379105
0.377285
0.375467
0.373651
0.371837
0.370025
0.368216
0.366408
0.364603
0.362799
0.360998
0.359198
0.357401
0.355605
0.353812
0.35202
0.35023
0.348443
0.346657
0.344873
0.343091
0.341311
0.339533
0.337756
0.335982
0.334209
0.332439
0.33067
0.328902
0.327137
0.325374
0.323612
0.321852
0.320094
0.318337
0.316582
0.31483
0.313078
0.311329
0.309581
0.307835
0.30609
0.304348
0.302607
0.300867
0.29913
0.297393
0.295659
0.293926
0.292195
0.290465
0.288737
0.287011
0.285286
0.283563
0.281841
0.280121
0.278403
0.276686
0.27497
0.273256
0.271544
0.269833
0.268124
0.266416
0.26471
0.263005
0.261301
0.259599
0.257899
0.2562
0.254502
0.252806
0.251112
0.249418
0.247726
0.246036
0.244347
0.242659
0.240973
0.239288
0.237605
0.235923
0.234242
0.232563
0.230885
0.229208
0.227533
0.225859
0.224186
0.222515
0.220845
0.219176
0.217509
0.215843
0.214178
0.212514
0.210852
0.209191
0.207532
0.205873
0.204216
0.20256
0.200905
0.199252
)
;
    }
}


// ************************************************************************* //
