/*--------------------------------*- C++ -*----------------------------------*\
| =========                 |                                                 |
| \\      /  F ield         | OpenFOAM: The Open Source CFD Toolbox           |
|  \\    /   O peration     | Version:                                        |
|   \\  /    A nd           | Website:  www.openfoam.com                      |
|    \\/     M anipulation  |                                                 |
\*---------------------------------------------------------------------------*/
FoamFile
{
    version     2.0;
    format      ascii;
    class       surfaceScalarField;
    location    "563";
    object      phi;
}
// * * * * * * * * * * * * * * * * * * * * * * * * * * * * * * * * * * * * * //

dimensions      [0 3 -1 0 0 0 0];
oriented        oriented;


internalField   nonuniform List<scalar> 
2365
(
6.78266e-07
-5.23699e-10
6.78788e-07
-5.22252e-10
6.79309e-07
-5.20809e-10
6.79828e-07
-5.1937e-10
6.80346e-07
-5.17936e-10
6.80863e-07
-5.16507e-10
6.81378e-07
-5.15082e-10
6.81891e-07
-5.13662e-10
6.82404e-07
-5.12245e-10
6.82915e-07
-5.10833e-10
6.83424e-07
-5.09426e-10
6.83932e-07
-5.08022e-10
6.84439e-07
-5.06623e-10
6.84944e-07
-5.05228e-10
6.85448e-07
-5.03837e-10
6.8595e-07
-5.0245e-10
6.86451e-07
-5.01067e-10
6.86951e-07
-4.99688e-10
6.87449e-07
-4.98313e-10
6.87946e-07
-4.96942e-10
6.88442e-07
-4.95575e-10
6.88936e-07
-4.94212e-10
6.89429e-07
-4.92853e-10
6.8992e-07
-4.91498e-10
6.9041e-07
-4.90146e-10
6.90899e-07
-4.88798e-10
6.91387e-07
-4.87454e-10
6.91873e-07
-4.86114e-10
6.92358e-07
-4.84777e-10
6.92841e-07
-4.83444e-10
6.93323e-07
-4.82115e-10
6.93804e-07
-4.80789e-10
6.94283e-07
-4.79467e-10
6.94762e-07
-4.78148e-10
6.95238e-07
-4.76833e-10
6.95714e-07
-4.75522e-10
6.96188e-07
-4.74214e-10
6.96661e-07
-4.72909e-10
6.97133e-07
-4.71608e-10
6.97603e-07
-4.70311e-10
6.98072e-07
-4.69017e-10
6.9854e-07
-4.67726e-10
6.99006e-07
-4.66439e-10
6.99471e-07
-4.65155e-10
6.99935e-07
-4.63875e-10
7.00398e-07
-4.62598e-10
7.00859e-07
-4.61324e-10
7.01319e-07
-4.60053e-10
7.01778e-07
-4.58786e-10
7.02235e-07
-4.57522e-10
7.02692e-07
-4.56262e-10
7.03147e-07
-4.55004e-10
7.036e-07
-4.5375e-10
7.04053e-07
-4.52499e-10
7.04504e-07
-4.51252e-10
7.04954e-07
-4.50007e-10
7.05403e-07
-4.48766e-10
7.0585e-07
-4.47528e-10
7.06297e-07
-4.46293e-10
7.06742e-07
-4.45062e-10
7.07186e-07
-4.43833e-10
7.07628e-07
-4.42608e-10
7.0807e-07
-4.41385e-10
7.0851e-07
-4.40166e-10
7.08949e-07
-4.3895e-10
7.09386e-07
-4.37737e-10
7.09823e-07
-4.36527e-10
7.10258e-07
-4.3532e-10
7.10692e-07
-4.34116e-10
7.11125e-07
-4.32916e-10
7.11557e-07
-4.31718e-10
7.11988e-07
-4.30523e-10
7.12417e-07
-4.29332e-10
7.12845e-07
-4.28143e-10
7.13272e-07
-4.26957e-10
7.13698e-07
-4.25775e-10
7.14122e-07
-4.24595e-10
7.14546e-07
-4.23419e-10
7.14968e-07
-4.22245e-10
7.15389e-07
-4.21074e-10
7.15809e-07
-4.19907e-10
7.16228e-07
-4.18742e-10
7.16645e-07
-4.1758e-10
7.17062e-07
-4.16421e-10
7.17477e-07
-4.15265e-10
7.17891e-07
-4.14112e-10
7.18304e-07
-4.12962e-10
7.18716e-07
-4.11815e-10
7.19127e-07
-4.1067e-10
7.19536e-07
-4.09529e-10
7.19945e-07
-4.0839e-10
7.20352e-07
-4.07254e-10
7.20758e-07
-4.06122e-10
7.21163e-07
-4.04992e-10
7.21567e-07
-4.03865e-10
7.2197e-07
-4.0274e-10
7.22371e-07
-4.01619e-10
7.22772e-07
-4.00501e-10
7.23171e-07
-3.99385e-10
7.23569e-07
-3.98272e-10
7.23966e-07
-3.97162e-10
7.24363e-07
-3.96055e-10
7.24757e-07
-3.9495e-10
7.25151e-07
-3.93849e-10
7.25544e-07
-3.9275e-10
7.25936e-07
-3.91654e-10
7.26326e-07
-3.90561e-10
7.26716e-07
-3.89471e-10
7.27104e-07
-3.88383e-10
7.27491e-07
-3.87298e-10
7.27878e-07
-3.86216e-10
7.28263e-07
-3.85137e-10
7.28647e-07
-3.8406e-10
7.2903e-07
-3.82987e-10
7.29412e-07
-3.81916e-10
7.29793e-07
-3.80847e-10
7.30172e-07
-3.79782e-10
7.30551e-07
-3.78719e-10
7.30929e-07
-3.77659e-10
7.31305e-07
-3.76602e-10
7.31681e-07
-3.75547e-10
7.32055e-07
-3.74495e-10
7.32429e-07
-3.73446e-10
7.32801e-07
-3.724e-10
-3.71356e-10
2.03488e-06
-2.0829e-09
2.03644e-06
-2.07701e-09
2.03799e-06
-2.07113e-09
2.03953e-06
-2.06528e-09
2.04107e-06
-2.05945e-09
2.04261e-06
-2.05363e-09
2.04414e-06
-2.04783e-09
2.04567e-06
-2.04205e-09
2.0472e-06
-2.03629e-09
2.04872e-06
-2.03055e-09
2.05023e-06
-2.02482e-09
2.05174e-06
-2.01912e-09
2.05325e-06
-2.01343e-09
2.05475e-06
-2.00775e-09
2.05625e-06
-2.0021e-09
2.05774e-06
-1.99646e-09
2.05923e-06
-1.99084e-09
2.06072e-06
-1.98523e-09
2.0622e-06
-1.97964e-09
2.06368e-06
-1.97407e-09
2.06515e-06
-1.96852e-09
2.06662e-06
-1.96298e-09
2.06808e-06
-1.95745e-09
2.06954e-06
-1.95195e-09
2.071e-06
-1.94646e-09
2.07245e-06
-1.94098e-09
2.0739e-06
-1.93552e-09
2.07534e-06
-1.93008e-09
2.07678e-06
-1.92465e-09
2.07822e-06
-1.91924e-09
2.07965e-06
-1.91384e-09
2.08108e-06
-1.90846e-09
2.0825e-06
-1.9031e-09
2.08392e-06
-1.89774e-09
2.08534e-06
-1.89241e-09
2.08675e-06
-1.88709e-09
2.08816e-06
-1.88178e-09
2.08956e-06
-1.87649e-09
2.09096e-06
-1.87121e-09
2.09236e-06
-1.86595e-09
2.09375e-06
-1.8607e-09
2.09514e-06
-1.85547e-09
2.09652e-06
-1.85025e-09
2.0979e-06
-1.84505e-09
2.09928e-06
-1.83986e-09
2.10065e-06
-1.83468e-09
2.10202e-06
-1.82952e-09
2.10338e-06
-1.82437e-09
2.10474e-06
-1.81924e-09
2.1061e-06
-1.81412e-09
2.10745e-06
-1.80902e-09
2.1088e-06
-1.80392e-09
2.11014e-06
-1.79885e-09
2.11149e-06
-1.79378e-09
2.11282e-06
-1.78873e-09
2.11416e-06
-1.78369e-09
2.11549e-06
-1.77867e-09
2.11681e-06
-1.77366e-09
2.11813e-06
-1.76867e-09
2.11945e-06
-1.76368e-09
2.12077e-06
-1.75871e-09
2.12208e-06
-1.75376e-09
2.12339e-06
-1.74881e-09
2.12469e-06
-1.74388e-09
2.12599e-06
-1.73897e-09
2.12729e-06
-1.73406e-09
2.12858e-06
-1.72917e-09
2.12987e-06
-1.7243e-09
2.13115e-06
-1.71943e-09
2.13244e-06
-1.71458e-09
2.13371e-06
-1.70974e-09
2.13499e-06
-1.70492e-09
2.13626e-06
-1.7001e-09
2.13753e-06
-1.69531e-09
2.13879e-06
-1.69052e-09
2.14005e-06
-1.68574e-09
2.14131e-06
-1.68098e-09
2.14256e-06
-1.67623e-09
2.14381e-06
-1.6715e-09
2.14505e-06
-1.66677e-09
2.1463e-06
-1.66206e-09
2.14753e-06
-1.65736e-09
2.14877e-06
-1.65268e-09
2.15e-06
-1.648e-09
2.15123e-06
-1.64334e-09
2.15245e-06
-1.63869e-09
2.15367e-06
-1.63406e-09
2.15489e-06
-1.62943e-09
2.15611e-06
-1.62482e-09
2.15732e-06
-1.62022e-09
2.15852e-06
-1.61563e-09
2.15973e-06
-1.61106e-09
2.16093e-06
-1.6065e-09
2.16213e-06
-1.60194e-09
2.16332e-06
-1.59741e-09
2.16451e-06
-1.59288e-09
2.1657e-06
-1.58836e-09
2.16688e-06
-1.58386e-09
2.16806e-06
-1.57937e-09
2.16924e-06
-1.57489e-09
2.17041e-06
-1.57043e-09
2.17158e-06
-1.56597e-09
2.17275e-06
-1.56153e-09
2.17391e-06
-1.5571e-09
2.17507e-06
-1.55268e-09
2.17623e-06
-1.54827e-09
2.17738e-06
-1.54388e-09
2.17853e-06
-1.53949e-09
2.17968e-06
-1.53512e-09
2.18082e-06
-1.53076e-09
2.18196e-06
-1.52641e-09
2.1831e-06
-1.52207e-09
2.18423e-06
-1.51775e-09
2.18536e-06
-1.51343e-09
2.18649e-06
-1.50913e-09
2.18761e-06
-1.50484e-09
2.18873e-06
-1.50056e-09
2.18985e-06
-1.4963e-09
2.19096e-06
-1.49204e-09
2.19208e-06
-1.4878e-09
2.19318e-06
-1.48356e-09
2.19429e-06
-1.47934e-09
2.19539e-06
-1.47513e-09
2.19649e-06
-1.47093e-09
-1.46674e-09
3.39142e-06
-4.63472e-09
3.39396e-06
-4.62107e-09
3.3965e-06
-4.60746e-09
3.39903e-06
-4.5939e-09
3.40155e-06
-4.58038e-09
3.40406e-06
-4.56691e-09
3.40657e-06
-4.55349e-09
3.40907e-06
-4.54011e-09
3.41156e-06
-4.52677e-09
3.41404e-06
-4.51347e-09
3.41652e-06
-4.50022e-09
3.41898e-06
-4.48701e-09
3.42144e-06
-4.47385e-09
3.4239e-06
-4.46072e-09
3.42634e-06
-4.44764e-09
3.42878e-06
-4.4346e-09
3.43121e-06
-4.42161e-09
3.43363e-06
-4.40865e-09
3.43605e-06
-4.39573e-09
3.43846e-06
-4.38286e-09
3.44086e-06
-4.37002e-09
3.44326e-06
-4.35723e-09
3.44564e-06
-4.34447e-09
3.44802e-06
-4.33175e-09
3.45039e-06
-4.31908e-09
3.45276e-06
-4.30644e-09
3.45512e-06
-4.29384e-09
3.45747e-06
-4.28128e-09
3.45981e-06
-4.26876e-09
3.46215e-06
-4.25628e-09
3.46448e-06
-4.24383e-09
3.4668e-06
-4.23143e-09
3.46912e-06
-4.21906e-09
3.47143e-06
-4.20673e-09
3.47373e-06
-4.19443e-09
3.47603e-06
-4.18217e-09
3.47831e-06
-4.16995e-09
3.4806e-06
-4.15777e-09
3.48287e-06
-4.14562e-09
3.48514e-06
-4.13351e-09
3.4874e-06
-4.12143e-09
3.48965e-06
-4.10939e-09
3.4919e-06
-4.09739e-09
3.49414e-06
-4.08542e-09
3.49637e-06
-4.07349e-09
3.4986e-06
-4.06159e-09
3.50082e-06
-4.04973e-09
3.50303e-06
-4.0379e-09
3.50524e-06
-4.02611e-09
3.50744e-06
-4.01436e-09
3.50963e-06
-4.00263e-09
3.51182e-06
-3.99094e-09
3.514e-06
-3.97929e-09
3.51618e-06
-3.96767e-09
3.51834e-06
-3.95608e-09
3.5205e-06
-3.94453e-09
3.52266e-06
-3.93301e-09
3.52481e-06
-3.92153e-09
3.52695e-06
-3.91008e-09
3.52908e-06
-3.89866e-09
3.53121e-06
-3.88728e-09
3.53333e-06
-3.87593e-09
3.53545e-06
-3.86461e-09
3.53756e-06
-3.85332e-09
3.53966e-06
-3.84207e-09
3.54176e-06
-3.83085e-09
3.54385e-06
-3.81966e-09
3.54593e-06
-3.80851e-09
3.54801e-06
-3.79738e-09
3.55008e-06
-3.78629e-09
3.55215e-06
-3.77524e-09
3.55421e-06
-3.76421e-09
3.55626e-06
-3.75322e-09
3.55831e-06
-3.74225e-09
3.56035e-06
-3.73132e-09
3.56238e-06
-3.72042e-09
3.56441e-06
-3.70955e-09
3.56643e-06
-3.69872e-09
3.56845e-06
-3.68791e-09
3.57046e-06
-3.67714e-09
3.57247e-06
-3.6664e-09
3.57446e-06
-3.65569e-09
3.57646e-06
-3.645e-09
3.57844e-06
-3.63436e-09
3.58042e-06
-3.62374e-09
3.5824e-06
-3.61315e-09
3.58437e-06
-3.60259e-09
3.58633e-06
-3.59206e-09
3.58829e-06
-3.58157e-09
3.59024e-06
-3.5711e-09
3.59218e-06
-3.56066e-09
3.59412e-06
-3.55026e-09
3.59605e-06
-3.53988e-09
3.59798e-06
-3.52953e-09
3.5999e-06
-3.51922e-09
3.60182e-06
-3.50893e-09
3.60373e-06
-3.49867e-09
3.60563e-06
-3.48845e-09
3.60753e-06
-3.47825e-09
3.60943e-06
-3.46808e-09
3.61131e-06
-3.45794e-09
3.6132e-06
-3.44783e-09
3.61507e-06
-3.43775e-09
3.61694e-06
-3.4277e-09
3.61881e-06
-3.41768e-09
3.62067e-06
-3.40769e-09
3.62252e-06
-3.39772e-09
3.62437e-06
-3.38779e-09
3.62621e-06
-3.37788e-09
3.62805e-06
-3.368e-09
3.62988e-06
-3.35816e-09
3.63171e-06
-3.34834e-09
3.63353e-06
-3.33854e-09
3.63534e-06
-3.32878e-09
3.63715e-06
-3.31904e-09
3.63896e-06
-3.30934e-09
3.64076e-06
-3.29966e-09
3.64255e-06
-3.29001e-09
3.64434e-06
-3.28039e-09
3.64612e-06
-3.27079e-09
3.6479e-06
-3.26123e-09
3.64967e-06
-3.25169e-09
3.65144e-06
-3.24218e-09
3.6532e-06
-3.23269e-09
-3.22324e-09
4.74645e-06
-8.09549e-09
4.7499e-06
-8.07028e-09
4.75334e-06
-8.04517e-09
4.75677e-06
-8.02015e-09
4.76018e-06
-7.99521e-09
4.76358e-06
-7.97037e-09
4.76698e-06
-7.94561e-09
4.77036e-06
-7.92094e-09
4.77373e-06
-7.89636e-09
4.77709e-06
-7.87186e-09
4.78043e-06
-7.84745e-09
4.78377e-06
-7.82313e-09
4.78709e-06
-7.79889e-09
4.79041e-06
-7.77473e-09
4.79371e-06
-7.75066e-09
4.797e-06
-7.72667e-09
4.80028e-06
-7.70276e-09
4.80355e-06
-7.67893e-09
4.80681e-06
-7.65519e-09
4.81006e-06
-7.63153e-09
4.8133e-06
-7.60795e-09
4.81653e-06
-7.58445e-09
4.81974e-06
-7.56103e-09
4.82295e-06
-7.53768e-09
4.82615e-06
-7.51442e-09
4.82933e-06
-7.49124e-09
4.8325e-06
-7.46813e-09
4.83567e-06
-7.4451e-09
4.83882e-06
-7.42215e-09
4.84196e-06
-7.39927e-09
4.8451e-06
-7.37648e-09
4.84822e-06
-7.35375e-09
4.85133e-06
-7.33111e-09
4.85443e-06
-7.30854e-09
4.85752e-06
-7.28604e-09
4.86061e-06
-7.26362e-09
4.86368e-06
-7.24127e-09
4.86674e-06
-7.219e-09
4.86979e-06
-7.1968e-09
4.87283e-06
-7.17467e-09
4.87586e-06
-7.15262e-09
4.87888e-06
-7.13063e-09
4.88189e-06
-7.10873e-09
4.8849e-06
-7.08689e-09
4.88789e-06
-7.06512e-09
4.89087e-06
-7.04343e-09
4.89384e-06
-7.0218e-09
4.8968e-06
-7.00025e-09
4.89976e-06
-6.97877e-09
4.9027e-06
-6.95736e-09
4.90563e-06
-6.93601e-09
4.90856e-06
-6.91474e-09
4.91147e-06
-6.89354e-09
4.91438e-06
-6.8724e-09
4.91727e-06
-6.85133e-09
4.92016e-06
-6.83034e-09
4.92303e-06
-6.80941e-09
4.9259e-06
-6.78854e-09
4.92876e-06
-6.76775e-09
4.93161e-06
-6.74702e-09
4.93445e-06
-6.72636e-09
4.93728e-06
-6.70577e-09
4.9401e-06
-6.68524e-09
4.94291e-06
-6.66478e-09
4.94571e-06
-6.64438e-09
4.9485e-06
-6.62405e-09
4.95129e-06
-6.60379e-09
4.95406e-06
-6.58359e-09
4.95683e-06
-6.56345e-09
4.95959e-06
-6.54339e-09
4.96233e-06
-6.52338e-09
4.96507e-06
-6.50344e-09
4.9678e-06
-6.48356e-09
4.97052e-06
-6.46375e-09
4.97324e-06
-6.444e-09
4.97594e-06
-6.42432e-09
4.97864e-06
-6.4047e-09
4.98132e-06
-6.38514e-09
4.984e-06
-6.36564e-09
4.98667e-06
-6.3462e-09
4.98933e-06
-6.32683e-09
4.99198e-06
-6.30752e-09
4.99463e-06
-6.28827e-09
4.99726e-06
-6.26909e-09
4.99989e-06
-6.24996e-09
5.0025e-06
-6.2309e-09
5.00511e-06
-6.2119e-09
5.00771e-06
-6.19295e-09
5.01031e-06
-6.17407e-09
5.01289e-06
-6.15525e-09
5.01547e-06
-6.13649e-09
5.01803e-06
-6.11779e-09
5.02059e-06
-6.09915e-09
5.02314e-06
-6.08057e-09
5.02569e-06
-6.06204e-09
5.02822e-06
-6.04358e-09
5.03075e-06
-6.02518e-09
5.03327e-06
-6.00683e-09
5.03578e-06
-5.98855e-09
5.03828e-06
-5.97032e-09
5.04077e-06
-5.95215e-09
5.04326e-06
-5.93403e-09
5.04574e-06
-5.91598e-09
5.04821e-06
-5.89798e-09
5.05067e-06
-5.88005e-09
5.05313e-06
-5.86216e-09
5.05557e-06
-5.84434e-09
5.05801e-06
-5.82657e-09
5.06044e-06
-5.80886e-09
5.06286e-06
-5.79121e-09
5.06528e-06
-5.77361e-09
5.06769e-06
-5.75607e-09
5.07009e-06
-5.73858e-09
5.07248e-06
-5.72115e-09
5.07486e-06
-5.70377e-09
5.07724e-06
-5.68646e-09
5.07961e-06
-5.66919e-09
5.08197e-06
-5.65198e-09
5.08433e-06
-5.63483e-09
5.08668e-06
-5.61773e-09
5.08901e-06
-5.60069e-09
5.09135e-06
-5.5837e-09
5.09367e-06
-5.56676e-09
5.09599e-06
-5.54988e-09
-5.53305e-09
6.09611e-06
-1.23246e-08
6.10032e-06
-1.22836e-08
6.10452e-06
-1.22427e-08
6.1087e-06
-1.2202e-08
6.11287e-06
-1.21615e-08
6.11702e-06
-1.21211e-08
6.12116e-06
-1.20808e-08
6.12528e-06
-1.20408e-08
6.12938e-06
-1.20008e-08
6.13347e-06
-1.19611e-08
6.13754e-06
-1.19214e-08
6.1416e-06
-1.1882e-08
6.14565e-06
-1.18426e-08
6.14968e-06
-1.18035e-08
6.15369e-06
-1.17645e-08
6.15769e-06
-1.17256e-08
6.16167e-06
-1.16869e-08
6.16564e-06
-1.16483e-08
6.1696e-06
-1.16099e-08
6.17354e-06
-1.15716e-08
6.17746e-06
-1.15335e-08
6.18137e-06
-1.14955e-08
6.18527e-06
-1.14577e-08
6.18915e-06
-1.142e-08
6.19302e-06
-1.13824e-08
6.19687e-06
-1.1345e-08
6.20071e-06
-1.13077e-08
6.20454e-06
-1.12706e-08
6.20835e-06
-1.12336e-08
6.21215e-06
-1.11967e-08
6.21593e-06
-1.116e-08
6.2197e-06
-1.11234e-08
6.22346e-06
-1.1087e-08
6.2272e-06
-1.10506e-08
6.23093e-06
-1.10145e-08
6.23464e-06
-1.09784e-08
6.23834e-06
-1.09425e-08
6.24203e-06
-1.09067e-08
6.24571e-06
-1.08711e-08
6.24937e-06
-1.08356e-08
6.25301e-06
-1.08002e-08
6.25665e-06
-1.07649e-08
6.26027e-06
-1.07298e-08
6.26388e-06
-1.06948e-08
6.26747e-06
-1.06599e-08
6.27105e-06
-1.06252e-08
6.27462e-06
-1.05906e-08
6.27818e-06
-1.05561e-08
6.28172e-06
-1.05218e-08
6.28525e-06
-1.04875e-08
6.28877e-06
-1.04534e-08
6.29227e-06
-1.04194e-08
6.29577e-06
-1.03856e-08
6.29925e-06
-1.03518e-08
6.30271e-06
-1.03183e-08
6.30617e-06
-1.02847e-08
6.30961e-06
-1.02514e-08
6.31304e-06
-1.02181e-08
6.31646e-06
-1.0185e-08
6.31986e-06
-1.0152e-08
6.32325e-06
-1.01191e-08
6.32663e-06
-1.00864e-08
6.33e-06
-1.00537e-08
6.33336e-06
-1.00212e-08
6.3367e-06
-9.98877e-09
6.34004e-06
-9.95645e-09
6.34336e-06
-9.92433e-09
6.34666e-06
-9.89222e-09
6.34996e-06
-9.86033e-09
6.35325e-06
-9.82847e-09
6.35652e-06
-9.79676e-09
6.35978e-06
-9.76516e-09
6.36303e-06
-9.73367e-09
6.36627e-06
-9.7023e-09
6.3695e-06
-9.67101e-09
6.37271e-06
-9.63992e-09
6.37592e-06
-9.60883e-09
6.37911e-06
-9.57796e-09
6.38229e-06
-9.54712e-09
6.38546e-06
-9.51642e-09
6.38862e-06
-9.48583e-09
6.39177e-06
-9.45532e-09
6.39491e-06
-9.425e-09
6.39803e-06
-9.39468e-09
6.40115e-06
-9.36458e-09
6.40425e-06
-9.3345e-09
6.40734e-06
-9.30456e-09
6.41042e-06
-9.27473e-09
6.41349e-06
-9.24497e-09
6.41655e-06
-9.21541e-09
6.4196e-06
-9.18584e-09
6.42264e-06
-9.15649e-09
6.42567e-06
-9.12715e-09
6.42869e-06
-9.09795e-09
6.43169e-06
-9.06883e-09
6.43469e-06
-9.0399e-09
6.43768e-06
-9.01098e-09
6.44065e-06
-8.98219e-09
6.44362e-06
-8.95351e-09
6.44657e-06
-8.9249e-09
6.44952e-06
-8.89648e-09
6.45245e-06
-8.86804e-09
6.45537e-06
-8.83982e-09
6.45829e-06
-8.81162e-09
6.46119e-06
-8.78354e-09
6.46408e-06
-8.75556e-09
6.46697e-06
-8.72766e-09
6.46984e-06
-8.69993e-09
6.4727e-06
-8.6722e-09
6.47556e-06
-8.64467e-09
6.4784e-06
-8.61716e-09
6.48124e-06
-8.58977e-09
6.48406e-06
-8.56248e-09
6.48687e-06
-8.53529e-09
6.48968e-06
-8.50819e-09
6.49247e-06
-8.48116e-09
6.49526e-06
-8.45431e-09
6.49803e-06
-8.42744e-09
6.5008e-06
-8.40079e-09
6.50356e-06
-8.37414e-09
6.5063e-06
-8.34761e-09
6.50904e-06
-8.32117e-09
6.51177e-06
-8.2948e-09
6.51449e-06
-8.26861e-09
-8.2424e-09
7.43254e-06
-1.71067e-08
7.43731e-06
-1.70453e-08
7.44205e-06
-1.69841e-08
7.44677e-06
-1.69232e-08
7.45147e-06
-1.68626e-08
7.45615e-06
-1.68022e-08
7.46081e-06
-1.67421e-08
7.46545e-06
-1.66823e-08
7.47007e-06
-1.66227e-08
7.47468e-06
-1.65634e-08
7.47926e-06
-1.65044e-08
7.48382e-06
-1.64455e-08
7.48837e-06
-1.6387e-08
7.49289e-06
-1.63287e-08
7.4974e-06
-1.62706e-08
7.50189e-06
-1.62128e-08
7.50635e-06
-1.61553e-08
7.5108e-06
-1.6098e-08
7.51524e-06
-1.60409e-08
7.51965e-06
-1.59841e-08
7.52404e-06
-1.59275e-08
7.52842e-06
-1.58712e-08
7.53278e-06
-1.58151e-08
7.53711e-06
-1.57592e-08
7.54144e-06
-1.57036e-08
7.54574e-06
-1.56482e-08
7.55002e-06
-1.55931e-08
7.55429e-06
-1.55382e-08
7.55854e-06
-1.54835e-08
7.56277e-06
-1.5429e-08
7.56699e-06
-1.53748e-08
7.57119e-06
-1.53208e-08
7.57537e-06
-1.5267e-08
7.57953e-06
-1.52135e-08
7.58367e-06
-1.51602e-08
7.5878e-06
-1.51071e-08
7.59192e-06
-1.50542e-08
7.59601e-06
-1.50015e-08
7.60009e-06
-1.49491e-08
7.60415e-06
-1.48969e-08
7.60819e-06
-1.48449e-08
7.61222e-06
-1.47931e-08
7.61623e-06
-1.47415e-08
7.62023e-06
-1.46902e-08
7.62421e-06
-1.4639e-08
7.62817e-06
-1.45881e-08
7.63212e-06
-1.45374e-08
7.63605e-06
-1.44869e-08
7.63996e-06
-1.44366e-08
7.64386e-06
-1.43865e-08
7.64775e-06
-1.43366e-08
7.65161e-06
-1.42869e-08
7.65546e-06
-1.42374e-08
7.6593e-06
-1.41882e-08
7.66312e-06
-1.41391e-08
7.66693e-06
-1.40902e-08
7.67072e-06
-1.40416e-08
7.67449e-06
-1.39931e-08
7.67825e-06
-1.39448e-08
7.682e-06
-1.38968e-08
7.68573e-06
-1.38489e-08
7.68944e-06
-1.38012e-08
7.69314e-06
-1.37537e-08
7.69683e-06
-1.37064e-08
7.7005e-06
-1.36593e-08
7.70415e-06
-1.36124e-08
7.70779e-06
-1.35657e-08
7.71142e-06
-1.35192e-08
7.71503e-06
-1.34728e-08
7.71863e-06
-1.34267e-08
7.72222e-06
-1.33807e-08
7.72579e-06
-1.3335e-08
7.72934e-06
-1.32894e-08
7.73288e-06
-1.3244e-08
7.73641e-06
-1.31987e-08
7.73993e-06
-1.31537e-08
7.74343e-06
-1.31088e-08
7.74691e-06
-1.30642e-08
7.75038e-06
-1.30197e-08
7.75384e-06
-1.29753e-08
7.75729e-06
-1.29312e-08
7.76072e-06
-1.28872e-08
7.76414e-06
-1.28435e-08
7.76754e-06
-1.27999e-08
7.77094e-06
-1.27564e-08
7.77431e-06
-1.27132e-08
7.77768e-06
-1.26701e-08
7.78103e-06
-1.26272e-08
7.78437e-06
-1.25844e-08
7.7877e-06
-1.25418e-08
7.79101e-06
-1.24994e-08
7.79431e-06
-1.24572e-08
7.7976e-06
-1.24151e-08
7.80088e-06
-1.23732e-08
7.80414e-06
-1.23315e-08
7.80739e-06
-1.229e-08
7.81063e-06
-1.22486e-08
7.81385e-06
-1.22073e-08
7.81706e-06
-1.21662e-08
7.82026e-06
-1.21253e-08
7.82345e-06
-1.20846e-08
7.82663e-06
-1.2044e-08
7.82979e-06
-1.20036e-08
7.83294e-06
-1.19633e-08
7.83608e-06
-1.19232e-08
7.83921e-06
-1.18833e-08
7.84233e-06
-1.18435e-08
7.84543e-06
-1.18039e-08
7.84852e-06
-1.17644e-08
7.8516e-06
-1.17251e-08
7.85467e-06
-1.16859e-08
7.85773e-06
-1.16469e-08
7.86077e-06
-1.1608e-08
7.86381e-06
-1.15693e-08
7.86683e-06
-1.15308e-08
7.86984e-06
-1.14924e-08
7.87284e-06
-1.14541e-08
7.87583e-06
-1.1416e-08
7.87881e-06
-1.13781e-08
7.88177e-06
-1.13403e-08
7.88473e-06
-1.13026e-08
7.88767e-06
-1.12651e-08
7.89061e-06
-1.12277e-08
7.89353e-06
-1.11905e-08
-1.11534e-08
8.74195e-06
-2.21369e-08
8.74695e-06
-2.20508e-08
8.75193e-06
-2.19651e-08
8.75689e-06
-2.18798e-08
8.76182e-06
-2.17949e-08
8.76673e-06
-2.17105e-08
8.77162e-06
-2.16264e-08
8.77648e-06
-2.15428e-08
8.78131e-06
-2.14596e-08
8.78613e-06
-2.13768e-08
8.79092e-06
-2.12944e-08
8.79568e-06
-2.12124e-08
8.80043e-06
-2.11308e-08
8.80515e-06
-2.10496e-08
8.80985e-06
-2.09688e-08
8.81452e-06
-2.08884e-08
8.81917e-06
-2.08084e-08
8.82381e-06
-2.07287e-08
8.82841e-06
-2.06495e-08
8.833e-06
-2.05706e-08
8.83756e-06
-2.04921e-08
8.84211e-06
-2.0414e-08
8.84663e-06
-2.03363e-08
8.85113e-06
-2.02589e-08
8.85561e-06
-2.01819e-08
8.86006e-06
-2.01053e-08
8.8645e-06
-2.0029e-08
8.86891e-06
-1.99531e-08
8.87331e-06
-1.98776e-08
8.87768e-06
-1.98024e-08
8.88204e-06
-1.97276e-08
8.88637e-06
-1.96531e-08
8.89068e-06
-1.9579e-08
8.89497e-06
-1.95053e-08
8.89924e-06
-1.94319e-08
8.90349e-06
-1.93588e-08
8.90773e-06
-1.92861e-08
8.91194e-06
-1.92137e-08
8.91613e-06
-1.91417e-08
8.9203e-06
-1.907e-08
8.92446e-06
-1.89986e-08
8.92859e-06
-1.89276e-08
8.93271e-06
-1.88569e-08
8.9368e-06
-1.87865e-08
8.94088e-06
-1.87165e-08
8.94494e-06
-1.86468e-08
8.94898e-06
-1.85774e-08
8.953e-06
-1.85084e-08
8.95701e-06
-1.84396e-08
8.96099e-06
-1.83712e-08
8.96496e-06
-1.83031e-08
8.96891e-06
-1.82354e-08
8.97284e-06
-1.81679e-08
8.97675e-06
-1.81007e-08
8.98064e-06
-1.80339e-08
8.98452e-06
-1.79674e-08
8.98838e-06
-1.79011e-08
8.99222e-06
-1.78352e-08
8.99605e-06
-1.77696e-08
8.99985e-06
-1.77043e-08
9.00364e-06
-1.76393e-08
9.00742e-06
-1.75745e-08
9.01117e-06
-1.75101e-08
9.01491e-06
-1.7446e-08
9.01864e-06
-1.73821e-08
9.02234e-06
-1.73186e-08
9.02603e-06
-1.72553e-08
9.02971e-06
-1.71924e-08
9.03336e-06
-1.71297e-08
9.037e-06
-1.70673e-08
9.04063e-06
-1.70052e-08
9.04424e-06
-1.69434e-08
9.04783e-06
-1.68818e-08
9.05141e-06
-1.68206e-08
9.05497e-06
-1.67596e-08
9.05851e-06
-1.66988e-08
9.06204e-06
-1.66384e-08
9.06555e-06
-1.65782e-08
9.06905e-06
-1.65183e-08
9.07254e-06
-1.64587e-08
9.076e-06
-1.63993e-08
9.07946e-06
-1.63402e-08
9.0829e-06
-1.62814e-08
9.08632e-06
-1.62228e-08
9.08973e-06
-1.61645e-08
9.09312e-06
-1.61065e-08
9.0965e-06
-1.60487e-08
9.09986e-06
-1.59912e-08
9.10321e-06
-1.59339e-08
9.10655e-06
-1.58769e-08
9.10987e-06
-1.58201e-08
9.11317e-06
-1.57636e-08
9.11647e-06
-1.57073e-08
9.11974e-06
-1.56513e-08
9.12301e-06
-1.55956e-08
9.12626e-06
-1.554e-08
9.1295e-06
-1.54848e-08
9.13272e-06
-1.54297e-08
9.13593e-06
-1.5375e-08
9.13912e-06
-1.53204e-08
9.1423e-06
-1.52661e-08
9.14547e-06
-1.5212e-08
9.14863e-06
-1.51582e-08
9.15177e-06
-1.51046e-08
9.15489e-06
-1.50512e-08
9.15801e-06
-1.49981e-08
9.16111e-06
-1.49452e-08
9.1642e-06
-1.48926e-08
9.16728e-06
-1.48401e-08
9.17034e-06
-1.47879e-08
9.17339e-06
-1.47359e-08
9.17643e-06
-1.46842e-08
9.17945e-06
-1.46327e-08
9.18246e-06
-1.45813e-08
9.18546e-06
-1.45303e-08
9.18845e-06
-1.44794e-08
9.19142e-06
-1.44288e-08
9.19439e-06
-1.43783e-08
9.19734e-06
-1.43281e-08
9.20027e-06
-1.42781e-08
9.2032e-06
-1.42284e-08
9.20611e-06
-1.41788e-08
9.20902e-06
-1.41295e-08
9.21191e-06
-1.40803e-08
-1.40314e-08
1.00024e-05
-2.70193e-08
1.00072e-05
-2.69053e-08
1.0012e-05
-2.67919e-08
1.00168e-05
-2.66791e-08
1.00216e-05
-2.6567e-08
1.00264e-05
-2.64555e-08
1.00311e-05
-2.63446e-08
1.00358e-05
-2.62343e-08
1.00404e-05
-2.61246e-08
1.00451e-05
-2.60156e-08
1.00497e-05
-2.59071e-08
1.00543e-05
-2.57992e-08
1.00588e-05
-2.56919e-08
1.00634e-05
-2.55853e-08
1.00679e-05
-2.54791e-08
1.00724e-05
-2.53736e-08
1.00768e-05
-2.52687e-08
1.00813e-05
-2.51643e-08
1.00857e-05
-2.50605e-08
1.009e-05
-2.49572e-08
1.00944e-05
-2.48546e-08
1.00987e-05
-2.47524e-08
1.01031e-05
-2.46508e-08
1.01074e-05
-2.45498e-08
1.01116e-05
-2.44493e-08
1.01159e-05
-2.43494e-08
1.01201e-05
-2.425e-08
1.01243e-05
-2.41511e-08
1.01285e-05
-2.40528e-08
1.01326e-05
-2.3955e-08
1.01367e-05
-2.38577e-08
1.01409e-05
-2.37609e-08
1.01449e-05
-2.36646e-08
1.0149e-05
-2.35689e-08
1.0153e-05
-2.34737e-08
1.01571e-05
-2.33789e-08
1.01611e-05
-2.32847e-08
1.0165e-05
-2.3191e-08
1.0169e-05
-2.30977e-08
1.01729e-05
-2.3005e-08
1.01768e-05
-2.29127e-08
1.01807e-05
-2.2821e-08
1.01846e-05
-2.27297e-08
1.01885e-05
-2.26389e-08
1.01923e-05
-2.25485e-08
1.01961e-05
-2.24587e-08
1.01999e-05
-2.23693e-08
1.02037e-05
-2.22804e-08
1.02074e-05
-2.21919e-08
1.02112e-05
-2.21039e-08
1.02149e-05
-2.20163e-08
1.02186e-05
-2.19292e-08
1.02222e-05
-2.18426e-08
1.02259e-05
-2.17564e-08
1.02295e-05
-2.16707e-08
1.02331e-05
-2.15854e-08
1.02367e-05
-2.15005e-08
1.02403e-05
-2.14161e-08
1.02439e-05
-2.13321e-08
1.02474e-05
-2.12485e-08
1.0251e-05
-2.11654e-08
1.02545e-05
-2.10826e-08
1.0258e-05
-2.10003e-08
1.02614e-05
-2.09185e-08
1.02649e-05
-2.0837e-08
1.02683e-05
-2.0756e-08
1.02717e-05
-2.06753e-08
1.02751e-05
-2.05951e-08
1.02785e-05
-2.05153e-08
1.02819e-05
-2.04359e-08
1.02853e-05
-2.03569e-08
1.02886e-05
-2.02783e-08
1.02919e-05
-2.02e-08
1.02952e-05
-2.01222e-08
1.02985e-05
-2.00448e-08
1.03018e-05
-1.99677e-08
1.0305e-05
-1.98911e-08
1.03082e-05
-1.98148e-08
1.03115e-05
-1.97389e-08
1.03147e-05
-1.96633e-08
1.03179e-05
-1.95882e-08
1.0321e-05
-1.95134e-08
1.03242e-05
-1.9439e-08
1.03273e-05
-1.9365e-08
1.03305e-05
-1.92913e-08
1.03336e-05
-1.9218e-08
1.03367e-05
-1.91451e-08
1.03398e-05
-1.90725e-08
1.03428e-05
-1.90003e-08
1.03459e-05
-1.89284e-08
1.03489e-05
-1.88569e-08
1.03519e-05
-1.87857e-08
1.03549e-05
-1.87149e-08
1.03579e-05
-1.86444e-08
1.03609e-05
-1.85743e-08
1.03639e-05
-1.85045e-08
1.03668e-05
-1.8435e-08
1.03698e-05
-1.83659e-08
1.03727e-05
-1.82971e-08
1.03756e-05
-1.82287e-08
1.03785e-05
-1.81606e-08
1.03814e-05
-1.80928e-08
1.03842e-05
-1.80253e-08
1.03871e-05
-1.79582e-08
1.03899e-05
-1.78914e-08
1.03928e-05
-1.78249e-08
1.03956e-05
-1.77587e-08
1.03984e-05
-1.76928e-08
1.04012e-05
-1.76273e-08
1.04039e-05
-1.75621e-08
1.04067e-05
-1.74972e-08
1.04094e-05
-1.74326e-08
1.04122e-05
-1.73683e-08
1.04149e-05
-1.73043e-08
1.04176e-05
-1.72406e-08
1.04203e-05
-1.71772e-08
1.0423e-05
-1.71141e-08
1.04257e-05
-1.70513e-08
1.04283e-05
-1.69888e-08
1.0431e-05
-1.69266e-08
1.04336e-05
-1.68647e-08
1.04362e-05
-1.68031e-08
1.04388e-05
-1.67417e-08
1.04414e-05
-1.66807e-08
-1.66199e-08
1.11815e-05
-3.12855e-08
1.11857e-05
-3.11426e-08
1.119e-05
-3.10006e-08
1.11941e-05
-3.08595e-08
1.11983e-05
-3.07193e-08
1.12024e-05
-3.05799e-08
1.12065e-05
-3.04415e-08
1.12106e-05
-3.03038e-08
1.12146e-05
-3.0167e-08
1.12186e-05
-3.00311e-08
1.12226e-05
-2.98961e-08
1.12266e-05
-2.97618e-08
1.12305e-05
-2.96283e-08
1.12344e-05
-2.94957e-08
1.12383e-05
-2.93639e-08
1.12422e-05
-2.92329e-08
1.1246e-05
-2.91028e-08
1.12498e-05
-2.89733e-08
1.12536e-05
-2.88447e-08
1.12574e-05
-2.87169e-08
1.12611e-05
-2.85898e-08
1.12648e-05
-2.84636e-08
1.12685e-05
-2.8338e-08
1.12722e-05
-2.82133e-08
1.12758e-05
-2.80892e-08
1.12794e-05
-2.7966e-08
1.1283e-05
-2.78434e-08
1.12866e-05
-2.77216e-08
1.12901e-05
-2.76006e-08
1.12937e-05
-2.74802e-08
1.12972e-05
-2.73605e-08
1.13006e-05
-2.72417e-08
1.13041e-05
-2.71235e-08
1.13075e-05
-2.70059e-08
1.13109e-05
-2.68891e-08
1.13143e-05
-2.67729e-08
1.13177e-05
-2.66576e-08
1.13211e-05
-2.65428e-08
1.13244e-05
-2.64287e-08
1.13277e-05
-2.63152e-08
1.1331e-05
-2.62024e-08
1.13343e-05
-2.60904e-08
1.13375e-05
-2.59789e-08
1.13407e-05
-2.58681e-08
1.1344e-05
-2.57579e-08
1.13471e-05
-2.56484e-08
1.13503e-05
-2.55396e-08
1.13535e-05
-2.54313e-08
1.13566e-05
-2.53236e-08
1.13597e-05
-2.52166e-08
1.13628e-05
-2.51102e-08
1.13659e-05
-2.50045e-08
1.13689e-05
-2.48992e-08
1.1372e-05
-2.47947e-08
1.1375e-05
-2.46907e-08
1.1378e-05
-2.45872e-08
1.1381e-05
-2.44845e-08
1.13839e-05
-2.43823e-08
1.13869e-05
-2.42806e-08
1.13898e-05
-2.41795e-08
1.13927e-05
-2.4079e-08
1.13956e-05
-2.3979e-08
1.13985e-05
-2.38797e-08
1.14014e-05
-2.37809e-08
1.14042e-05
-2.36826e-08
1.14071e-05
-2.35849e-08
1.14099e-05
-2.34877e-08
1.14127e-05
-2.3391e-08
1.14154e-05
-2.3295e-08
1.14182e-05
-2.31995e-08
1.1421e-05
-2.31044e-08
1.14237e-05
-2.30099e-08
1.14264e-05
-2.29159e-08
1.14291e-05
-2.28224e-08
1.14318e-05
-2.27296e-08
1.14345e-05
-2.26371e-08
1.14371e-05
-2.25452e-08
1.14397e-05
-2.24537e-08
1.14424e-05
-2.23628e-08
1.1445e-05
-2.22724e-08
1.14476e-05
-2.21824e-08
1.14502e-05
-2.2093e-08
1.14527e-05
-2.2004e-08
1.14553e-05
-2.19156e-08
1.14578e-05
-2.18275e-08
1.14603e-05
-2.174e-08
1.14628e-05
-2.1653e-08
1.14653e-05
-2.15664e-08
1.14678e-05
-2.14803e-08
1.14703e-05
-2.13946e-08
1.14727e-05
-2.13094e-08
1.14752e-05
-2.12247e-08
1.14776e-05
-2.11404e-08
1.148e-05
-2.10565e-08
1.14824e-05
-2.09732e-08
1.14848e-05
-2.08902e-08
1.14872e-05
-2.08076e-08
1.14895e-05
-2.07256e-08
1.14919e-05
-2.06439e-08
1.14942e-05
-2.05628e-08
1.14965e-05
-2.0482e-08
1.14988e-05
-2.04016e-08
1.15011e-05
-2.03217e-08
1.15034e-05
-2.02421e-08
1.15057e-05
-2.0163e-08
1.15079e-05
-2.00843e-08
1.15102e-05
-2.0006e-08
1.15124e-05
-1.99282e-08
1.15146e-05
-1.98507e-08
1.15169e-05
-1.97736e-08
1.15191e-05
-1.9697e-08
1.15212e-05
-1.96207e-08
1.15234e-05
-1.95448e-08
1.15256e-05
-1.94693e-08
1.15277e-05
-1.93942e-08
1.15299e-05
-1.93195e-08
1.1532e-05
-1.92452e-08
1.15341e-05
-1.91712e-08
1.15362e-05
-1.90977e-08
1.15383e-05
-1.90245e-08
1.15404e-05
-1.89516e-08
1.15425e-05
-1.88792e-08
1.15446e-05
-1.88071e-08
1.15466e-05
-1.87354e-08
-1.8664e-08
1.22354e-05
1.22386e-05
1.22417e-05
1.22447e-05
1.22478e-05
1.22508e-05
1.22538e-05
1.22568e-05
1.22597e-05
1.22627e-05
1.22656e-05
1.22684e-05
1.22713e-05
1.22741e-05
1.22769e-05
1.22797e-05
1.22825e-05
1.22852e-05
1.22879e-05
1.22906e-05
1.22933e-05
1.2296e-05
1.22986e-05
1.23012e-05
1.23038e-05
1.23064e-05
1.23089e-05
1.23115e-05
1.2314e-05
1.23165e-05
1.23189e-05
1.23214e-05
1.23238e-05
1.23262e-05
1.23286e-05
1.2331e-05
1.23334e-05
1.23357e-05
1.2338e-05
1.23403e-05
1.23426e-05
1.23449e-05
1.23471e-05
1.23494e-05
1.23516e-05
1.23538e-05
1.2356e-05
1.23581e-05
1.23603e-05
1.23624e-05
1.23646e-05
1.23667e-05
1.23687e-05
1.23708e-05
1.23729e-05
1.23749e-05
1.23769e-05
1.2379e-05
1.2381e-05
1.23829e-05
1.23849e-05
1.23869e-05
1.23888e-05
1.23907e-05
1.23926e-05
1.23945e-05
1.23964e-05
1.23983e-05
1.24002e-05
1.2402e-05
1.24038e-05
1.24057e-05
1.24075e-05
1.24093e-05
1.2411e-05
1.24128e-05
1.24146e-05
1.24163e-05
1.2418e-05
1.24197e-05
1.24215e-05
1.24231e-05
1.24248e-05
1.24265e-05
1.24282e-05
1.24298e-05
1.24315e-05
1.24331e-05
1.24347e-05
1.24363e-05
1.24379e-05
1.24395e-05
1.2441e-05
1.24426e-05
1.24442e-05
1.24457e-05
1.24472e-05
1.24487e-05
1.24503e-05
1.24518e-05
1.24532e-05
1.24547e-05
1.24562e-05
1.24577e-05
1.24591e-05
1.24605e-05
1.2462e-05
1.24634e-05
1.24648e-05
1.24662e-05
1.24676e-05
1.2469e-05
1.24704e-05