/*--------------------------------*- C++ -*----------------------------------*\
| =========                 |                                                 |
| \\      /  F ield         | OpenFOAM: The Open Source CFD Toolbox           |
|  \\    /   O peration     | Version:                                        |
|   \\  /    A nd           | Website:  www.openfoam.com                      |
|    \\/     M anipulation  |                                                 |
\*---------------------------------------------------------------------------*/
FoamFile
{
    version     2.0;
    format      ascii;
    class       volVectorField;
    location    "563";
    object      U;
}
// * * * * * * * * * * * * * * * * * * * * * * * * * * * * * * * * * * * * * //

dimensions      [0 1 -1 0 0 0 0];


internalField   nonuniform List<vector> 
1250
(
(1.55893 -0.000473119 3.20495e-16)
(1.56013 -0.000471827 -5.28658e-15)
(1.56133 -0.000470538 1.86437e-15)
(1.56253 -0.000469254 1.3091e-14)
(1.56372 -0.000467974 -3.83812e-15)
(1.56491 -0.000466698 2.14039e-14)
(1.5661 -0.000465425 3.17215e-15)
(1.56728 -0.000464157 8.44919e-15)
(1.56846 -0.000462892 -1.37484e-15)
(1.56964 -0.000461631 1.28792e-14)
(1.57081 -0.000460374 -1.0411e-14)
(1.57198 -0.00045912 2.31053e-15)
(1.57314 -0.00045787 2.85279e-15)
(1.57431 -0.000456624 2.8389e-15)
(1.57547 -0.000455381 2.41885e-15)
(1.57662 -0.000454142 1.4962e-15)
(1.57778 -0.000452907 1.12746e-15)
(1.57893 -0.000451675 9.07794e-16)
(1.58008 -0.000450446 7.80253e-16)
(1.58122 -0.000449221 3.68441e-16)
(1.58236 -0.000448 -5.15767e-16)
(1.5835 -0.000446781 -8.40997e-16)
(1.58463 -0.000445566 -1.17644e-15)
(1.58577 -0.000444355 -1.47515e-15)
(1.58689 -0.000443147 -2.09439e-15)
(1.58802 -0.000441942 -2.53005e-15)
(1.58914 -0.00044074 -2.86897e-15)
(1.59026 -0.000439542 -3.21636e-15)
(1.59138 -0.000438347 -3.83831e-15)
(1.59249 -0.000437155 -3.97954e-15)
(1.5936 -0.000435966 -4.46126e-15)
(1.59471 -0.000434781 -4.91968e-15)
(1.59581 -0.000433598 -5.43139e-15)
(1.59691 -0.000432419 -6.07353e-15)
(1.59801 -0.000431243 -6.12397e-15)
(1.59911 -0.00043007 -6.58189e-15)
(1.6002 -0.0004289 -6.93452e-15)
(1.60129 -0.000427733 -7.09087e-15)
(1.60237 -0.000426569 -7.56685e-15)
(1.60345 -0.000425408 -8.02106e-15)
(1.60453 -0.00042425 -8.2952e-15)
(1.60561 -0.000423095 -9.04391e-15)
(1.60669 -0.000421943 -9.27995e-15)
(1.60776 -0.000420794 -9.78039e-15)
(1.60882 -0.000419648 -1.00147e-14)
(1.60989 -0.000418505 -1.06131e-14)
(1.61095 -0.000417365 -1.10362e-14)
(1.61201 -0.000416228 -1.114e-14)
(1.61307 -0.000415093 -1.13852e-14)
(1.61412 -0.000413962 -1.21747e-14)
(1.61517 -0.000412833 -1.22771e-14)
(1.61622 -0.000411708 -1.27714e-14)
(1.61726 -0.000410585 -1.32574e-14)
(1.61831 -0.000409464 -1.3563e-14)
(1.61934 -0.000408347 -1.37832e-14)
(1.62038 -0.000407233 -1.44209e-14)
(1.62141 -0.000406121 -1.46338e-14)
(1.62244 -0.000405012 -1.51422e-14)
(1.62347 -0.000403906 -1.53635e-14)
(1.6245 -0.000402802 -1.58521e-14)
(1.62552 -0.000401701 -1.62356e-14)
(1.62654 -0.000400604 -1.65233e-14)
(1.62755 -0.000399508 -1.7012e-14)
(1.62857 -0.000398416 -1.67396e-14)
(1.62958 -0.000397326 -1.8259e-14)
(1.63059 -0.000396239 -1.6753e-14)
(1.63159 -0.000395154 -1.9514e-14)
(1.63259 -0.000394073 -1.64113e-14)
(1.63359 -0.000392994 -2.20698e-14)
(1.63459 -0.000391917 -1.45621e-14)
(1.63558 -0.000390844 -2.73119e-14)
(1.63658 -0.000389772 -8.62332e-15)
(1.63756 -0.000388704 -2.00166e-14)
(1.63855 -0.000387638 -2.02712e-14)
(1.63953 -0.000386575 -2.14556e-14)
(1.64051 -0.000385515 -2.0402e-14)
(1.64149 -0.000384457 -2.29477e-14)
(1.64247 -0.000383401 -2.00104e-14)
(1.64344 -0.000382349 -2.51681e-14)
(1.64441 -0.000381298 -1.80627e-14)
(1.64537 -0.000380251 -2.99822e-14)
(1.64634 -0.000379206 -1.25532e-14)
(1.6473 -0.000378164 -2.32142e-14)
(1.64826 -0.000377124 -2.37302e-14)
(1.64921 -0.000376086 -2.43946e-14)
(1.65017 -0.000375052 -2.4097e-14)
(1.65112 -0.00037402 -2.50932e-14)
(1.65207 -0.00037299 -2.49045e-14)
(1.65301 -0.000371963 -2.55936e-14)
(1.65396 -0.000370938 -2.54995e-14)
(1.6549 -0.000369916 -2.62811e-14)
(1.65583 -0.000368897 -2.58218e-14)
(1.65677 -0.00036788 -2.68602e-14)
(1.6577 -0.000366866 -2.63986e-14)
(1.65863 -0.000365854 -2.77239e-14)
(1.65956 -0.000364844 -2.63175e-14)
(1.66048 -0.000363837 -2.89252e-14)
(1.66141 -0.000362833 -2.59535e-14)
(1.66232 -0.000361831 -3.07869e-14)
(1.66324 -0.000360831 -2.40974e-14)
(1.66416 -0.000359834 -3.51962e-14)
(1.66507 -0.00035884 -1.89565e-14)
(1.66598 -0.000357848 -2.89547e-14)
(1.66688 -0.000356858 -2.89961e-14)
(1.66779 -0.000355871 -3.04097e-14)
(1.66869 -0.000354886 -2.92062e-14)
(1.66959 -0.000353904 -3.14296e-14)
(1.67049 -0.000352924 -2.91094e-14)
(1.67138 -0.000351947 -3.35309e-14)
(1.67227 -0.000350972 -2.70626e-14)
(1.67316 -0.00035 -3.76775e-14)
(1.67405 -0.00034903 -2.25254e-14)
(1.67493 -0.000348062 -3.13969e-14)
(1.67581 -0.000347097 -3.21579e-14)
(1.67669 -0.000346134 -3.22799e-14)
(1.67757 -0.000345174 -3.28087e-14)
(1.67845 -0.000344216 -3.29015e-14)
(1.67932 -0.000343261 -3.34119e-14)
(1.68019 -0.000342307 -3.35248e-14)
(1.68105 -0.000341357 -3.37415e-14)
(1.68192 -0.000340408 -3.4029e-14)
(1.68278 -0.000339462 -3.4317e-14)
(1.68364 -0.000338519 -3.4632e-14)
(1.6845 -0.000337578 -3.47637e-14)
(1.68535 -0.000336639 -3.51095e-14)
(1.559 -0.00118954 1.07494e-14)
(1.56019 -0.00118624 7.53766e-15)
(1.56138 -0.00118295 1.00905e-14)
(1.56257 -0.00117966 2.36722e-14)
(1.56375 -0.00117639 2.45419e-15)
(1.56493 -0.00117313 2.8369e-14)
(1.56611 -0.00116987 7.76785e-15)
(1.56728 -0.00116663 1.48554e-14)
(1.56845 -0.0011634 1.8227e-15)
(1.56962 -0.00116017 1.70921e-14)
(1.57078 -0.00115696 -6.33301e-15)
(1.57194 -0.00115376 5.44417e-15)
(1.5731 -0.00115056 4.53453e-15)
(1.57425 -0.00114738 3.41707e-15)
(1.5754 -0.0011442 2.37795e-15)
(1.57655 -0.00114104 1.12085e-15)
(1.57769 -0.00113788 3.53068e-18)
(1.57883 -0.00113473 -1.29901e-15)
(1.57997 -0.0011316 -2.4105e-15)
(1.5811 -0.00112847 -3.61047e-15)
(1.58223 -0.00112535 -4.74001e-15)
(1.58336 -0.00112224 -5.9369e-15)
(1.58448 -0.00111914 -7.23927e-15)
(1.58561 -0.00111604 -8.36967e-15)
(1.58672 -0.00111296 -9.59106e-15)
(1.58784 -0.00110988 -1.06419e-14)
(1.58895 -0.00110681 -1.18214e-14)
(1.59006 -0.00110376 -1.29613e-14)
(1.59116 -0.00110071 -1.42193e-14)
(1.59226 -0.00109766 -1.53601e-14)
(1.59336 -0.00109463 -1.64556e-14)
(1.59446 -0.00109161 -1.75976e-14)
(1.59555 -0.00108859 -1.87595e-14)
(1.59664 -0.00108558 -1.9954e-14)
(1.59773 -0.00108258 -2.11023e-14)
(1.59881 -0.00107959 -2.22369e-14)
(1.59989 -0.00107661 -2.33001e-14)
(1.60097 -0.00107363 -2.44156e-14)
(1.60204 -0.00107066 -2.55364e-14)
(1.60311 -0.0010677 -2.66171e-14)
(1.60418 -0.00106475 -2.76251e-14)
(1.60525 -0.00106181 -2.87539e-14)
(1.60631 -0.00105887 -2.98144e-14)
(1.60737 -0.00105594 -3.10326e-14)
(1.60842 -0.00105302 -3.2062e-14)
(1.60948 -0.00105011 -3.32821e-14)
(1.61053 -0.0010472 -3.41589e-14)
(1.61157 -0.00104431 -3.53008e-14)
(1.61262 -0.00104142 -3.62513e-14)
(1.61366 -0.00103853 -3.74254e-14)
(1.6147 -0.00103566 -3.83237e-14)
(1.61573 -0.00103279 -3.97126e-14)
(1.61677 -0.00102993 -4.04369e-14)
(1.6178 -0.00102708 -4.18585e-14)
(1.61882 -0.00102423 -4.24836e-14)
(1.61985 -0.0010214 -4.40937e-14)
(1.62087 -0.00101857 -4.44293e-14)
(1.62188 -0.00101574 -4.62795e-14)
(1.6229 -0.00101293 -4.62317e-14)
(1.62391 -0.00101012 -4.83014e-14)
(1.62492 -0.00100732 -4.83104e-14)
(1.62593 -0.00100453 -5.0195e-14)
(1.62693 -0.00100174 -5.08242e-14)
(1.62793 -0.00099896 -5.11941e-14)
(1.62893 -0.000996188 -5.40071e-14)
(1.62992 -0.000993423 -5.2114e-14)
(1.63092 -0.000990665 -5.69137e-14)
(1.63191 -0.000987914 -5.24911e-14)
(1.63289 -0.00098517 -6.09677e-14)
(1.63388 -0.000982433 -5.17558e-14)
(1.63486 -0.000979703 -6.66181e-14)
(1.63583 -0.00097698 -4.88411e-14)
(1.63681 -0.000974265 -6.11857e-14)
(1.63778 -0.000971556 -6.08809e-14)
(1.63875 -0.000968854 -6.38875e-14)
(1.63972 -0.000966159 -6.18819e-14)
(1.64068 -0.000963471 -6.65535e-14)
(1.64165 -0.000960789 -6.22443e-14)
(1.6426 -0.000958115 -7.02653e-14)
(1.64356 -0.000955447 -6.1344e-14)
(1.64451 -0.000952786 -7.56052e-14)
(1.64546 -0.000950132 -5.85823e-14)
(1.64641 -0.000947485 -7.01477e-14)
(1.64736 -0.000944845 -7.01068e-14)
(1.6483 -0.000942211 -7.2322e-14)
(1.64924 -0.000939584 -7.15113e-14)
(1.65018 -0.000936964 -7.40846e-14)
(1.65111 -0.00093435 -7.29284e-14)
(1.65204 -0.000931743 -7.58636e-14)
(1.65297 -0.000929143 -7.43912e-14)
(1.6539 -0.000926549 -7.72775e-14)
(1.65482 -0.000923962 -7.61264e-14)
(1.65574 -0.000921382 -7.89802e-14)
(1.65666 -0.000918808 -7.72099e-14)
(1.65758 -0.000916241 -8.11411e-14)
(1.65849 -0.000913681 -7.80448e-14)
(1.6594 -0.000911127 -8.35893e-14)
(1.66031 -0.000908579 -7.86605e-14)
(1.66122 -0.000906038 -8.62793e-14)
(1.66212 -0.000903504 -7.80124e-14)
(1.66302 -0.000900976 -9.09611e-14)
(1.66392 -0.000898455 -7.54436e-14)
(1.66481 -0.00089594 -8.60763e-14)
(1.66571 -0.000893431 -8.59254e-14)
(1.6666 -0.00089093 -8.82777e-14)
(1.66749 -0.000888434 -8.66677e-14)
(1.66837 -0.000885945 -9.05396e-14)
(1.66925 -0.000883462 -8.70855e-14)
(1.67013 -0.000880986 -9.35768e-14)
(1.67101 -0.000878516 -8.62043e-14)
(1.67189 -0.000876053 -9.78808e-14)
(1.67276 -0.000873595 -8.40663e-14)
(1.67363 -0.000871145 -9.294e-14)
(1.6745 -0.0008687 -9.45712e-14)
(1.67536 -0.000866262 -9.43962e-14)
(1.67622 -0.00086383 -9.61351e-14)
(1.67708 -0.000861405 -9.58058e-14)
(1.67794 -0.000858986 -9.76191e-14)
(1.6788 -0.000856573 -9.70564e-14)
(1.67965 -0.000854166 -9.88696e-14)
(1.6805 -0.000851766 -9.891e-14)
(1.68135 -0.000849372 -9.98608e-14)
(1.68219 -0.000846984 -1.00512e-13)
(1.68304 -0.000844602 -1.01268e-13)
(1.68388 -0.000842227 -1.01907e-13)
(1.55899 -0.00187441 1.0568e-14)
(1.56016 -0.00186903 9.33086e-15)
(1.56133 -0.00186367 6.01911e-15)
(1.56249 -0.00185833 5.92054e-15)
(1.56365 -0.001853 2.01599e-15)
(1.56481 -0.0018477 1.85108e-15)
(1.56597 -0.00184241 -1.5097e-15)
(1.56712 -0.00183713 -2.21258e-15)
(1.56826 -0.00183187 -5.51014e-15)
(1.56941 -0.00182663 -6.22031e-15)
(1.57055 -0.00182141 -9.07464e-15)
(1.57168 -0.0018162 -1.08041e-14)
(1.57282 -0.00181101 -1.27743e-14)
(1.57395 -0.00180584 -1.46993e-14)
(1.57507 -0.00180068 -1.65448e-14)
(1.5762 -0.00179553 -1.85413e-14)
(1.57732 -0.00179041 -2.04413e-14)
(1.57843 -0.00178529 -2.23341e-14)
(1.57954 -0.0017802 -2.42825e-14)
(1.58065 -0.00177512 -2.6188e-14)
(1.58176 -0.00177005 -2.81022e-14)
(1.58286 -0.001765 -2.99596e-14)
(1.58396 -0.00175997 -3.1802e-14)
(1.58506 -0.00175495 -3.37796e-14)
(1.58615 -0.00174994 -3.56307e-14)
(1.58724 -0.00174495 -3.75156e-14)
(1.58833 -0.00173997 -3.94384e-14)
(1.58941 -0.00173501 -4.12087e-14)
(1.59049 -0.00173006 -4.30857e-14)
(1.59156 -0.00172513 -4.49565e-14)
(1.59264 -0.00172021 -4.67848e-14)
(1.59371 -0.00171531 -4.86223e-14)
(1.59477 -0.00171042 -5.04262e-14)
(1.59584 -0.00170555 -5.22418e-14)
(1.5969 -0.00170068 -5.4046e-14)
(1.59795 -0.00169584 -5.58361e-14)
(1.59901 -0.001691 -5.76557e-14)
(1.60006 -0.00168618 -5.94531e-14)
(1.60111 -0.00168138 -6.11604e-14)
(1.60215 -0.00167658 -6.2958e-14)
(1.60319 -0.00167181 -6.46519e-14)
(1.60423 -0.00166704 -6.64829e-14)
(1.60527 -0.00166229 -6.81115e-14)
(1.6063 -0.00165755 -6.99673e-14)
(1.60733 -0.00165283 -7.16197e-14)
(1.60835 -0.00164811 -7.35029e-14)
(1.60937 -0.00164342 -7.49773e-14)
(1.61039 -0.00163873 -7.6878e-14)
(1.61141 -0.00163406 -7.82816e-14)
(1.61242 -0.0016294 -8.02114e-14)
(1.61343 -0.00162475 -8.14861e-14)
(1.61444 -0.00162012 -8.36876e-14)
(1.61544 -0.0016155 -8.45691e-14)
(1.61645 -0.00161089 -8.72663e-14)
(1.61744 -0.0016063 -8.75603e-14)
(1.61844 -0.00160172 -9.09747e-14)
(1.61943 -0.00159715 -9.01855e-14)
(1.62042 -0.00159259 -9.48985e-14)
(1.62141 -0.00158805 -9.23161e-14)
(1.62239 -0.00158352 -9.94101e-14)
(1.62337 -0.001579 -9.36476e-14)
(1.62435 -0.00157449 -1.05e-13)
(1.62532 -0.00157 -9.34001e-14)
(1.62629 -0.00156552 -1.12028e-13)
(1.62726 -0.00156105 -1.04948e-13)
(1.62823 -0.00155659 -1.0523e-13)
(1.62919 -0.00155215 -1.07604e-13)
(1.63015 -0.00154771 -1.08051e-13)
(1.63111 -0.00154329 -1.1065e-13)
(1.63206 -0.00153889 -1.10885e-13)
(1.63301 -0.00153449 -1.13511e-13)
(1.63396 -0.00153011 -1.1394e-13)
(1.63491 -0.00152573 -1.15953e-13)
(1.63585 -0.00152137 -1.16838e-13)
(1.63679 -0.00151703 -1.18968e-13)
(1.63773 -0.00151269 -1.19486e-13)
(1.63866 -0.00150837 -1.21936e-13)
(1.63959 -0.00150405 -1.2192e-13)
(1.64052 -0.00149975 -1.2489e-13)
(1.64145 -0.00149546 -1.24351e-13)
(1.64237 -0.00149119 -1.27731e-13)
(1.64329 -0.00148692 -1.26978e-13)
(1.64421 -0.00148267 -1.30389e-13)
(1.64512 -0.00147843 -1.29077e-13)
(1.64603 -0.0014742 -1.33836e-13)
(1.64694 -0.00146998 -1.30561e-13)
(1.64785 -0.00146577 -1.37797e-13)
(1.64875 -0.00146157 -1.31179e-13)
(1.64966 -0.00145739 -1.42901e-13)
(1.65055 -0.00145322 -1.3034e-13)
(1.65145 -0.00144906 -1.49415e-13)
(1.65234 -0.00144491 -1.39447e-13)
(1.65323 -0.00144077 -1.44455e-13)
(1.65412 -0.00143664 -1.40213e-13)
(1.65501 -0.00143252 -1.48531e-13)
(1.65589 -0.00142842 -1.40391e-13)
(1.65677 -0.00142433 -1.53979e-13)
(1.65765 -0.00142024 -1.3931e-13)
(1.65852 -0.00141617 -1.49311e-13)
(1.65939 -0.00141211 -1.49885e-13)
(1.66026 -0.00140806 -1.52035e-13)
(1.66113 -0.00140403 -1.5268e-13)
(1.66199 -0.0014 -1.5419e-13)
(1.66285 -0.00139599 -1.55244e-13)
(1.66371 -0.00139198 -1.56782e-13)
(1.66457 -0.00138799 -1.57677e-13)
(1.66542 -0.00138401 -1.59338e-13)
(1.66627 -0.00138003 -1.60194e-13)
(1.66712 -0.00137607 -1.61687e-13)
(1.66797 -0.00137212 -1.6278e-13)
(1.66881 -0.00136819 -1.63849e-13)
(1.66965 -0.00136426 -1.65726e-13)
(1.67049 -0.00136034 -1.65608e-13)
(1.67133 -0.00135644 -1.68782e-13)
(1.67216 -0.00135254 -1.67354e-13)
(1.67299 -0.00134866 -1.72051e-13)
(1.67382 -0.00134478 -1.68748e-13)
(1.67465 -0.00134092 -1.7592e-13)
(1.67547 -0.00133707 -1.69187e-13)
(1.67629 -0.00133323 -1.8079e-13)
(1.67711 -0.00132939 -1.68515e-13)
(1.67793 -0.00132557 -1.76686e-13)
(1.67874 -0.00132176 -1.78163e-13)
(1.67955 -0.00131796 -1.794e-13)
(1.68036 -0.00131418 -1.80584e-13)
(1.5585 -0.00258946 -3.04576e-14)
(1.55964 -0.00258167 -3.3052e-14)
(1.56077 -0.00257391 -3.60042e-14)
(1.5619 -0.00256617 -3.85762e-14)
(1.56302 -0.00255846 -4.15549e-14)
(1.56414 -0.00255077 -4.41475e-14)
(1.56526 -0.00254311 -4.69368e-14)
(1.56637 -0.00253548 -4.96023e-14)
(1.56748 -0.00252787 -5.23552e-14)
(1.56858 -0.00252029 -5.49492e-14)
(1.56968 -0.00251274 -5.77414e-14)
(1.57078 -0.00250521 -6.04166e-14)
(1.57187 -0.0024977 -6.30727e-14)
(1.57297 -0.00249022 -6.57192e-14)
(1.57405 -0.00248276 -6.83668e-14)
(1.57514 -0.00247533 -7.0938e-14)
(1.57621 -0.00246792 -7.35278e-14)
(1.57729 -0.00246054 -7.61634e-14)
(1.57836 -0.00245318 -7.87045e-14)
(1.57943 -0.00244584 -8.12415e-14)
(1.5805 -0.00243853 -8.3766e-14)
(1.58156 -0.00243124 -8.62858e-14)
(1.58262 -0.00242397 -8.88288e-14)
(1.58367 -0.00241673 -9.13163e-14)
(1.58472 -0.00240951 -9.3862e-14)
(1.58577 -0.00240232 -9.62964e-14)
(1.58682 -0.00239514 -9.87927e-14)
(1.58786 -0.00238799 -1.01234e-13)
(1.58889 -0.00238086 -1.03694e-13)
(1.58993 -0.00237376 -1.06064e-13)
(1.59096 -0.00236668 -1.08474e-13)
(1.59199 -0.00235962 -1.10862e-13)
(1.59301 -0.00235258 -1.13258e-13)
(1.59403 -0.00234556 -1.15585e-13)
(1.59505 -0.00233857 -1.17897e-13)
(1.59606 -0.00233159 -1.20259e-13)
(1.59707 -0.00232464 -1.22564e-13)
(1.59808 -0.00231771 -1.24879e-13)
(1.59908 -0.00231081 -1.27117e-13)
(1.60008 -0.00230392 -1.29332e-13)
(1.60108 -0.00229706 -1.31578e-13)
(1.60207 -0.00229021 -1.33875e-13)
(1.60307 -0.00228339 -1.36014e-13)
(1.60405 -0.00227659 -1.38311e-13)
(1.60504 -0.00226981 -1.40402e-13)
(1.60602 -0.00226305 -1.42714e-13)
(1.607 -0.00225631 -1.4476e-13)
(1.60797 -0.00224959 -1.47089e-13)
(1.60894 -0.00224289 -1.48951e-13)
(1.60991 -0.00223621 -1.5134e-13)
(1.61088 -0.00222956 -1.53079e-13)
(1.61184 -0.00222292 -1.55661e-13)
(1.6128 -0.00221631 -1.57057e-13)
(1.61375 -0.00220971 -1.60007e-13)
(1.6147 -0.00220313 -1.60777e-13)
(1.61565 -0.00219658 -1.64506e-13)
(1.6166 -0.00219004 -1.64263e-13)
(1.61754 -0.00218353 -1.6918e-13)
(1.61848 -0.00217703 -1.67171e-13)
(1.61942 -0.00217055 -1.74396e-13)
(1.62036 -0.0021641 -1.69291e-13)
(1.62129 -0.00215766 -1.80545e-13)
(1.62221 -0.00215124 -1.69838e-13)
(1.62314 -0.00214484 -1.88154e-13)
(1.62406 -0.00213846 -1.80994e-13)
(1.62498 -0.0021321 -1.82384e-13)
(1.6259 -0.00212576 -1.84318e-13)
(1.62681 -0.00211944 -1.8605e-13)
(1.62772 -0.00211314 -1.88014e-13)
(1.62863 -0.00210685 -1.89575e-13)
(1.62953 -0.00210059 -1.91508e-13)
(1.63043 -0.00209434 -1.93074e-13)
(1.63133 -0.00208812 -1.94888e-13)
(1.63223 -0.00208191 -1.96361e-13)
(1.63312 -0.00207572 -1.98327e-13)
(1.63401 -0.00206955 -1.99617e-13)
(1.63489 -0.0020634 -2.01696e-13)
(1.63578 -0.00205726 -2.02718e-13)
(1.63666 -0.00205115 -2.05038e-13)
(1.63754 -0.00204505 -2.05753e-13)
(1.63841 -0.00203897 -2.08404e-13)
(1.63928 -0.00203291 -2.0859e-13)
(1.64015 -0.00202687 -2.11962e-13)
(1.64102 -0.00202085 -2.11153e-13)
(1.64189 -0.00201484 -2.15848e-13)
(1.64275 -0.00200885 -2.13308e-13)
(1.64361 -0.00200289 -2.20337e-13)
(1.64446 -0.00199693 -2.14758e-13)
(1.64531 -0.001991 -2.25869e-13)
(1.64616 -0.00198508 -2.14793e-13)
(1.64701 -0.00197919 -2.33021e-13)
(1.64786 -0.00197331 -2.23977e-13)
(1.6487 -0.00196744 -2.28907e-13)
(1.64954 -0.0019616 -2.25839e-13)
(1.65037 -0.00195577 -2.33791e-13)
(1.65121 -0.00194996 -2.27285e-13)
(1.65204 -0.00194417 -2.39897e-13)
(1.65287 -0.00193839 -2.27419e-13)
(1.65369 -0.00193264 -2.36988e-13)
(1.65452 -0.0019269 -2.38898e-13)
(1.65534 -0.00192117 -2.40664e-13)
(1.65616 -0.00191547 -2.42327e-13)
(1.65697 -0.00190978 -2.44007e-13)
(1.65778 -0.00190411 -2.45776e-13)
(1.65859 -0.00189845 -2.47407e-13)
(1.6594 -0.00189281 -2.49154e-13)
(1.66021 -0.00188719 -2.50643e-13)
(1.66101 -0.00188159 -2.52603e-13)
(1.66181 -0.001876 -2.5384e-13)
(1.66261 -0.00187043 -2.55959e-13)
(1.6634 -0.00186488 -2.56891e-13)
(1.66419 -0.00185934 -2.59527e-13)
(1.66498 -0.00185382 -2.59796e-13)
(1.66577 -0.00184832 -2.63163e-13)
(1.66655 -0.00184284 -2.62466e-13)
(1.66734 -0.00183737 -2.67184e-13)
(1.66812 -0.00183191 -2.64657e-13)
(1.66889 -0.00182647 -2.71656e-13)
(1.66967 -0.00182105 -2.66046e-13)
(1.67044 -0.00181565 -2.77211e-13)
(1.67121 -0.00181026 -2.66411e-13)
(1.67198 -0.00180489 -2.74693e-13)
(1.67274 -0.00179954 -2.76585e-13)
(1.6735 -0.0017942 -2.78097e-13)
(1.67426 -0.00178887 -2.79672e-13)
(1.55688 -0.00324378 -1.18809e-13)
(1.55796 -0.00323339 -1.22217e-13)
(1.55903 -0.00322303 -1.25732e-13)
(1.5601 -0.00321272 -1.29111e-13)
(1.56117 -0.00320244 -1.3246e-13)
(1.56223 -0.0031922 -1.35828e-13)
(1.56329 -0.003182 -1.39129e-13)
(1.56434 -0.00317184 -1.42467e-13)
(1.56539 -0.00316171 -1.45742e-13)
(1.56644 -0.00315162 -1.48976e-13)
(1.56748 -0.00314157 -1.52117e-13)
(1.56852 -0.00313155 -1.55269e-13)
(1.56956 -0.00312157 -1.58402e-13)
(1.57059 -0.00311163 -1.615e-13)
(1.57162 -0.00310172 -1.64554e-13)
(1.57264 -0.00309185 -1.67612e-13)
(1.57366 -0.00308201 -1.70718e-13)
(1.57467 -0.00307221 -1.73651e-13)
(1.57569 -0.00306244 -1.7661e-13)
(1.5767 -0.00305271 -1.79537e-13)
(1.5777 -0.00304301 -1.82422e-13)
(1.5787 -0.00303335 -1.85382e-13)
(1.5797 -0.00302372 -1.8813e-13)
(1.58069 -0.00301412 -1.91089e-13)
(1.58168 -0.00300456 -1.93827e-13)
(1.58267 -0.00299503 -1.96664e-13)
(1.58365 -0.00298554 -1.99385e-13)
(1.58463 -0.00297608 -2.02127e-13)
(1.58561 -0.00296665 -2.0487e-13)
(1.58658 -0.00295726 -2.0756e-13)
(1.58755 -0.0029479 -2.10235e-13)
(1.58851 -0.00293857 -2.1291e-13)
(1.58947 -0.00292927 -2.15593e-13)
(1.59043 -0.00292001 -2.18186e-13)
(1.59138 -0.00291078 -2.20841e-13)
(1.59234 -0.00290158 -2.23375e-13)
(1.59328 -0.00289241 -2.25946e-13)
(1.59423 -0.00288327 -2.28468e-13)
(1.59517 -0.00287417 -2.30958e-13)
(1.5961 -0.0028651 -2.33509e-13)
(1.59704 -0.00285605 -2.35912e-13)
(1.59797 -0.00284704 -2.3847e-13)
(1.59889 -0.00283806 -2.40828e-13)
(1.59982 -0.00282912 -2.43345e-13)
(1.60074 -0.0028202 -2.45693e-13)
(1.60165 -0.00281131 -2.4813e-13)
(1.60257 -0.00280246 -2.50523e-13)
(1.60348 -0.00279363 -2.52905e-13)
(1.60438 -0.00278483 -2.55148e-13)
(1.60529 -0.00277607 -2.57489e-13)
(1.60619 -0.00276733 -2.59653e-13)
(1.60709 -0.00275863 -2.61951e-13)
(1.60798 -0.00274995 -2.63895e-13)
(1.60887 -0.0027413 -2.66265e-13)
(1.60976 -0.00273269 -2.67971e-13)
(1.61064 -0.0027241 -2.70506e-13)
(1.61152 -0.00271554 -2.71944e-13)
(1.6124 -0.00270701 -2.74641e-13)
(1.61327 -0.00269851 -2.75847e-13)
(1.61415 -0.00269004 -2.78639e-13)
(1.61501 -0.0026816 -2.79705e-13)
(1.61588 -0.00267319 -2.8256e-13)
(1.61674 -0.0026648 -2.83731e-13)
(1.6176 -0.00265644 -2.86102e-13)
(1.61846 -0.00264812 -2.87916e-13)
(1.61931 -0.00263982 -2.89639e-13)
(1.62016 -0.00263154 -2.91511e-13)
(1.62101 -0.0026233 -2.93247e-13)
(1.62185 -0.00261508 -2.95009e-13)
(1.62269 -0.00260689 -2.96657e-13)
(1.62353 -0.00259873 -2.9836e-13)
(1.62436 -0.0025906 -2.99937e-13)
(1.6252 -0.00258249 -3.01552e-13)
(1.62602 -0.00257442 -3.03046e-13)
(1.62685 -0.00256636 -3.04695e-13)
(1.62767 -0.00255834 -3.06171e-13)
(1.62849 -0.00255034 -3.07854e-13)
(1.62931 -0.00254237 -3.0929e-13)
(1.63012 -0.00253443 -3.11184e-13)
(1.63094 -0.00252651 -3.12624e-13)
(1.63174 -0.00251862 -3.14765e-13)
(1.63255 -0.00251076 -3.16095e-13)
(1.63335 -0.00250292 -3.18494e-13)
(1.63415 -0.00249511 -3.19814e-13)
(1.63495 -0.00248733 -3.22511e-13)
(1.63574 -0.00247957 -3.23756e-13)
(1.63654 -0.00247184 -3.26806e-13)
(1.63732 -0.00246413 -3.28013e-13)
(1.63811 -0.00245645 -3.31258e-13)
(1.63889 -0.0024488 -3.32524e-13)
(1.63967 -0.00244117 -3.35667e-13)
(1.64045 -0.00243357 -3.37298e-13)
(1.64123 -0.00242599 -3.40274e-13)
(1.642 -0.00241844 -3.41893e-13)
(1.64277 -0.00241091 -3.45061e-13)
(1.64353 -0.00240341 -3.46553e-13)
(1.6443 -0.00239593 -3.49668e-13)
(1.64506 -0.00238848 -3.51466e-13)
(1.64582 -0.00238106 -3.53985e-13)
(1.64658 -0.00237365 -3.56098e-13)
(1.64733 -0.00236628 -3.58312e-13)
(1.64808 -0.00235893 -3.60475e-13)
(1.64883 -0.0023516 -3.62458e-13)
(1.64957 -0.0023443 -3.64509e-13)
(1.65032 -0.00233702 -3.66444e-13)
(1.65106 -0.00232976 -3.68459e-13)
(1.6518 -0.00232253 -3.70264e-13)
(1.65253 -0.00231533 -3.72271e-13)
(1.65326 -0.00230815 -3.73982e-13)
(1.65399 -0.00230099 -3.7609e-13)
(1.65472 -0.00229386 -3.77716e-13)
(1.65545 -0.00228675 -3.79912e-13)
(1.65617 -0.00227966 -3.81498e-13)
(1.65689 -0.0022726 -3.83818e-13)
(1.65761 -0.00226556 -3.85295e-13)
(1.65832 -0.00225854 -3.87724e-13)
(1.65904 -0.00225155 -3.89029e-13)
(1.65975 -0.00224458 -3.91656e-13)
(1.66045 -0.00223764 -3.92818e-13)
(1.66116 -0.00223072 -3.95333e-13)
(1.66186 -0.00222382 -3.96807e-13)
(1.66256 -0.00221694 -3.9881e-13)
(1.66326 -0.00221009 -4.0064e-13)
(1.66396 -0.00220326 -4.0249e-13)
(1.66465 -0.00219645 -4.04192e-13)
(1.5531 -0.00384268 -2.63835e-13)
(1.5541 -0.00382945 -2.67628e-13)
(1.55509 -0.00381627 -2.71305e-13)
(1.55608 -0.00380315 -2.74939e-13)
(1.55707 -0.00379008 -2.78435e-13)
(1.55805 -0.00377706 -2.81835e-13)
(1.55902 -0.0037641 -2.85232e-13)
(1.56 -0.00375119 -2.88594e-13)
(1.56096 -0.00373833 -2.91917e-13)
(1.56193 -0.00372553 -2.95057e-13)
(1.56289 -0.00371277 -2.98283e-13)
(1.56384 -0.00370007 -3.0133e-13)
(1.5648 -0.00368742 -3.04455e-13)
(1.56574 -0.00367482 -3.07419e-13)
(1.56669 -0.00366227 -3.10324e-13)
(1.56763 -0.00364977 -3.13311e-13)
(1.56856 -0.00363732 -3.16248e-13)
(1.5695 -0.00362492 -3.19189e-13)
(1.57042 -0.00361257 -3.21906e-13)
(1.57135 -0.00360027 -3.24767e-13)
(1.57227 -0.00358801 -3.27559e-13)
(1.57318 -0.00357581 -3.30271e-13)
(1.5741 -0.00356366 -3.33072e-13)
(1.57501 -0.00355155 -3.35759e-13)
(1.57591 -0.00353949 -3.38564e-13)
(1.57681 -0.00352748 -3.41159e-13)
(1.57771 -0.00351552 -3.43847e-13)
(1.5786 -0.0035036 -3.46473e-13)
(1.57949 -0.00349173 -3.49101e-13)
(1.58038 -0.00347991 -3.51723e-13)
(1.58126 -0.00346813 -3.54345e-13)
(1.58214 -0.0034564 -3.56905e-13)
(1.58302 -0.00344472 -3.59402e-13)
(1.58389 -0.00343308 -3.62053e-13)
(1.58476 -0.00342149 -3.64472e-13)
(1.58562 -0.00340994 -3.67175e-13)
(1.58648 -0.00339844 -3.69481e-13)
(1.58734 -0.00338698 -3.72111e-13)
(1.5882 -0.00337557 -3.74423e-13)
(1.58905 -0.0033642 -3.76968e-13)
(1.58989 -0.00335288 -3.79342e-13)
(1.59074 -0.0033416 -3.81771e-13)
(1.59158 -0.00333036 -3.84325e-13)
(1.59242 -0.00331917 -3.86512e-13)
(1.59325 -0.00330802 -3.89144e-13)
(1.59408 -0.00329692 -3.91376e-13)
(1.59491 -0.00328586 -3.93316e-13)
(1.59573 -0.00327484 -3.95163e-13)
(1.59655 -0.00326386 -3.96738e-13)
(1.59737 -0.00325292 -3.98466e-13)
(1.59818 -0.00324203 -3.99848e-13)
(1.59899 -0.00323118 -4.01582e-13)
(1.5998 -0.00322037 -4.02884e-13)
(1.6006 -0.00320961 -4.04627e-13)
(1.6014 -0.00319888 -4.06059e-13)
(1.6022 -0.0031882 -4.07771e-13)
(1.60299 -0.00317755 -4.09436e-13)
(1.60378 -0.00316695 -4.11105e-13)
(1.60457 -0.00315639 -4.13071e-13)
(1.60535 -0.00314587 -4.14551e-13)
(1.60613 -0.00313538 -4.16828e-13)
(1.60691 -0.00312494 -4.18451e-13)
(1.60769 -0.00311454 -4.20062e-13)
(1.60846 -0.00310418 -4.21535e-13)
(1.60923 -0.00309386 -4.22729e-13)
(1.60999 -0.00308358 -4.24278e-13)
(1.61076 -0.00307333 -4.25372e-13)
(1.61152 -0.00306313 -4.26362e-13)
(1.61227 -0.00305296 -4.26972e-13)
(1.61303 -0.00304284 -4.2789e-13)
(1.61378 -0.00303275 -4.28349e-13)
(1.61452 -0.0030227 -4.29191e-13)
(1.61527 -0.00301269 -4.30529e-13)
(1.61601 -0.00300272 -4.31716e-13)
(1.61675 -0.00299278 -4.338e-13)
(1.61749 -0.00298288 -4.3522e-13)
(1.61822 -0.00297302 -4.37503e-13)
(1.61895 -0.0029632 -4.39929e-13)
(1.61968 -0.00295341 -4.42723e-13)
(1.6204 -0.00294366 -4.45848e-13)
(1.62112 -0.00293395 -4.488e-13)
(1.62184 -0.00292428 -4.52134e-13)
(1.62256 -0.00291464 -4.55786e-13)
(1.62327 -0.00290503 -4.59595e-13)
(1.62398 -0.00289547 -4.63581e-13)
(1.62469 -0.00288594 -4.67447e-13)
(1.62539 -0.00287644 -4.71433e-13)
(1.62609 -0.00286699 -4.75296e-13)
(1.62679 -0.00285756 -4.79088e-13)
(1.62749 -0.00284817 -4.82768e-13)
(1.62818 -0.00283882 -4.86183e-13)
(1.62888 -0.00282951 -4.89654e-13)
(1.62956 -0.00282022 -4.92768e-13)
(1.63025 -0.00281098 -4.95944e-13)
(1.63093 -0.00280176 -4.98918e-13)
(1.63161 -0.00279259 -5.01509e-13)
(1.63229 -0.00278344 -5.04342e-13)
(1.63297 -0.00277433 -5.06748e-13)
(1.63364 -0.00276526 -5.08828e-13)
(1.63431 -0.00275622 -5.10299e-13)
(1.63498 -0.00274721 -5.12015e-13)
(1.63564 -0.00273824 -5.12868e-13)
(1.63631 -0.0027293 -5.14197e-13)
(1.63697 -0.00272039 -5.1559e-13)
(1.63762 -0.00271151 -5.17035e-13)
(1.63828 -0.00270267 -5.18809e-13)
(1.63893 -0.00269387 -5.20251e-13)
(1.63958 -0.00268509 -5.2197e-13)
(1.64023 -0.00267635 -5.24095e-13)
(1.64087 -0.00266764 -5.26394e-13)
(1.64152 -0.00265896 -5.28724e-13)
(1.64216 -0.00265032 -5.31227e-13)
(1.6428 -0.00264171 -5.33658e-13)
(1.64343 -0.00263312 -5.36151e-13)
(1.64406 -0.00262458 -5.38437e-13)
(1.64469 -0.00261606 -5.40809e-13)
(1.64532 -0.00260757 -5.42917e-13)
(1.64595 -0.00259912 -5.45081e-13)
(1.64657 -0.0025907 -5.46972e-13)
(1.64719 -0.0025823 -5.48938e-13)
(1.64781 -0.00257394 -5.50608e-13)
(1.64843 -0.00256561 -5.52414e-13)
(1.64904 -0.00255732 -5.53827e-13)
(1.64965 -0.00254905 -5.55459e-13)
(1.65026 -0.00254081 -5.56535e-13)
(1.54573 -0.00434651 -4.66476e-13)
(1.54662 -0.0043303 -4.68977e-13)
(1.5475 -0.00431417 -4.71416e-13)
(1.54838 -0.00429812 -4.73694e-13)
(1.54926 -0.00428214 -4.75983e-13)
(1.55013 -0.00426623 -4.78213e-13)
(1.55099 -0.00425039 -4.80397e-13)
(1.55186 -0.00423463 -4.82602e-13)
(1.55271 -0.00421894 -4.84752e-13)
(1.55357 -0.00420332 -4.86983e-13)
(1.55442 -0.00418778 -4.89174e-13)
(1.55526 -0.0041723 -4.91386e-13)
(1.5561 -0.00415689 -4.93513e-13)
(1.55694 -0.00414156 -4.95787e-13)
(1.55777 -0.00412629 -4.97936e-13)
(1.5586 -0.00411109 -5.00201e-13)
(1.55943 -0.00409596 -5.02436e-13)
(1.56025 -0.0040809 -5.04631e-13)
(1.56106 -0.00406591 -5.06924e-13)
(1.56188 -0.00405099 -5.09151e-13)
(1.56269 -0.00403613 -5.11439e-13)
(1.56349 -0.00402134 -5.13669e-13)
(1.56429 -0.00400662 -5.15995e-13)
(1.56509 -0.00399196 -5.18239e-13)
(1.56589 -0.00397737 -5.20581e-13)
(1.56668 -0.00396284 -5.228e-13)
(1.56746 -0.00394838 -5.25167e-13)
(1.56825 -0.00393398 -5.27365e-13)
(1.56902 -0.00391965 -5.29746e-13)
(1.5698 -0.00390538 -5.31925e-13)
(1.57057 -0.00389117 -5.3433e-13)
(1.57134 -0.00387703 -5.36544e-13)
(1.5721 -0.00386295 -5.38747e-13)
(1.57286 -0.00384893 -5.41124e-13)
(1.57362 -0.00383498 -5.43172e-13)
(1.57438 -0.00382108 -5.4577e-13)
(1.57513 -0.00380725 -5.47483e-13)
(1.57587 -0.00379348 -5.50536e-13)
(1.57662 -0.00377977 -5.51655e-13)
(1.57736 -0.00376612 -5.55293e-13)
(1.57809 -0.00375253 -5.55744e-13)
(1.57883 -0.003739 -5.59842e-13)
(1.57955 -0.00372553 -5.60297e-13)
(1.58028 -0.00371212 -5.63234e-13)
(1.581 -0.00369877 -5.67105e-13)
(1.58172 -0.00368547 -5.62318e-13)
(1.58244 -0.00367224 -5.58944e-13)
(1.58315 -0.00365906 -5.56891e-13)
(1.58386 -0.00364594 -5.55614e-13)
(1.58457 -0.00363288 -5.55531e-13)
(1.58527 -0.00361987 -5.55623e-13)
(1.58597 -0.00360692 -5.5705e-13)
(1.58667 -0.00359403 -5.57827e-13)
(1.58736 -0.00358119 -5.60468e-13)
(1.58805 -0.00356841 -5.61472e-13)
(1.58874 -0.00355569 -5.65121e-13)
(1.58942 -0.00354302 -5.66124e-13)
(1.5901 -0.0035304 -5.70254e-13)
(1.59078 -0.00351784 -5.7205e-13)
(1.59146 -0.00350533 -5.7449e-13)
(1.59213 -0.00349288 -5.80747e-13)
(1.5928 -0.00348048 -5.74446e-13)
(1.59346 -0.00346814 -5.74087e-13)
(1.59413 -0.00345585 -5.70156e-13)
(1.59479 -0.00344361 -5.71332e-13)
(1.59544 -0.00343142 -5.72317e-13)
(1.5961 -0.00341929 -5.67519e-13)
(1.59675 -0.0034072 -5.61997e-13)
(1.5974 -0.00339517 -5.60561e-13)
(1.59804 -0.00338319 -5.5982e-13)
(1.59869 -0.00337127 -5.56871e-13)
(1.59933 -0.00335939 -5.66692e-13)
(1.59996 -0.00334756 -5.72958e-13)
(1.6006 -0.00333579 -5.80895e-13)
(1.60123 -0.00332406 -5.87738e-13)
(1.60186 -0.00331239 -5.90256e-13)
(1.60248 -0.00330076 -6.04976e-13)
(1.6031 -0.00328919 -6.13826e-13)
(1.60372 -0.00327766 -6.25042e-13)
(1.60434 -0.00326618 -6.32101e-13)
(1.60496 -0.00325475 -6.37113e-13)
(1.60557 -0.00324337 -6.50105e-13)
(1.60618 -0.00323204 -6.61148e-13)
(1.60678 -0.00322075 -6.69796e-13)
(1.60739 -0.00320952 -6.77134e-13)
(1.60799 -0.00319833 -6.82809e-13)