/*--------------------------------*- C++ -*----------------------------------*\
| =========                 |                                                 |
| \\      /  F ield         | OpenFOAM: The Open Source CFD Toolbox           |
|  \\    /   O peration     | Version:                                        |
|   \\  /    A nd           | Website:  www.openfoam.com                      |
|    \\/     M anipulation  |                                                 |
\*---------------------------------------------------------------------------*/
FoamFile
{
    version     2.0;
    format      ascii;
    class       volVectorField;
    location    "31.6";
    object      U;
}
// * * * * * * * * * * * * * * * * * * * * * * * * * * * * * * * * * * * * * //

dimensions      [0 1 -1 0 0 0 0];


internalField   nonuniform List<vector> 
1164
(
(-0.484027 0.0401227 2.16595e-22)
(-0.249124 0.139237 1.44868e-21)
(0.0341513 0.207515 8.13093e-22)
(0.286059 0.285992 -5.45007e-21)
(0.519642 0.348129 7.71048e-21)
(0.727684 0.404503 5.03957e-20)
(-0.302155 0.0454924 4.6009e-22)
(-0.0705798 0.159011 -8.14944e-22)
(0.185334 0.247237 -7.21576e-22)
(0.423035 0.323302 -5.30358e-22)
(0.632317 0.383702 1.6605e-21)
(0.803823 0.424905 -1.39711e-20)
(0.926812 0.442897 7.46669e-21)
(1.00846 0.440529 -1.42479e-21)
(1.05792 0.428112 3.57575e-20)
(1.0915 0.423158 -4.36059e-20)
(-0.150552 0.051382 -6.40848e-22)
(0.0858005 0.153639 1.83015e-21)
(0.327008 0.239906 -1.55542e-21)
(0.535676 0.312685 7.81617e-23)
(0.706919 0.362861 4.20129e-21)
(0.832299 0.392388 7.08835e-21)
(0.915509 0.402018 3.06059e-21)
(0.970244 0.398017 3.81832e-21)
(1.00739 0.389889 -1.03005e-20)
(1.03744 0.390289 2.05209e-20)
(0.0508751 0.0492516 -1.29911e-22)
(0.251551 0.139014 -1.3722e-21)
(0.460435 0.209839 7.23538e-22)
(0.628018 0.269318 -4.03312e-21)
(0.755048 0.307559 -8.76799e-21)
(0.839119 0.330404 -1.57642e-20)
(0.892457 0.339227 1.81521e-21)
(0.930073 0.339276 3.48224e-21)
(0.959258 0.337257 3.93572e-21)
(0.98463 0.344924 -6.85226e-21)
(0.194422 0.0339459 1.29823e-21)
(0.383093 0.108094 2.2341e-22)
(0.564933 0.167783 6.26387e-21)
(0.699189 0.214639 1.66452e-21)
(0.790256 0.244952 4.57008e-21)
(0.842784 0.263252 1.29862e-20)
(0.874917 0.272951 -2.83653e-21)
(0.900625 0.277915 3.04049e-21)
(0.922178 0.281128 4.04059e-21)
(0.941508 0.294522 4.45263e-21)
(0.323572 0.0284159 -6.89527e-22)
(0.495478 0.0830708 4.29037e-21)
(0.654907 0.126291 4.78323e-22)
(0.758147 0.161456 -7.44327e-22)
(0.817887 0.184134 6.69375e-21)
(0.847021 0.201204 8.56918e-22)
(0.866652 0.214017 -6.3096e-21)
(0.884642 0.221667 -6.55624e-21)
(0.899945 0.227964 3.06965e-21)
(0.913984 0.244565 6.10055e-21)
(0.429644 0.0229667 2.27749e-22)
(0.587155 0.063359 -4.88705e-21)
(0.723794 0.0944087 -1.14994e-20)
(0.802208 0.120903 7.45877e-21)
(0.841304 0.138126 -2.25448e-21)
(0.856064 0.152274 1.33231e-21)
(0.867152 0.164111 7.64558e-21)
(0.87859 0.173651 -8.65549e-22)
(0.889882 0.18412 -7.70386e-21)
(0.901413 0.202259 -4.52162e-21)
(0.509521 0.0170558 -7.9891e-22)
(0.65662 0.0467097 2.07552e-22)
(0.778304 0.0701615 1.00204e-21)
(0.841234 0.0901604 -3.2183e-21)
(0.865998 0.103541 -4.09529e-21)
(0.870718 0.115144 -5.16227e-21)
(0.875403 0.125596 5.01608e-21)
(0.881588 0.13421 -8.8702e-21)
(0.88973 0.146433 6.10955e-21)
(0.900387 0.163754 4.76729e-21)
(0.575218 0.013355 5.12342e-22)
(0.712766 0.0364312 2.54842e-21)
(0.820676 0.05532 3.502e-22)
(0.87025 0.070648 -8.31466e-22)
(0.88572 0.0812308 -4.72402e-21)
(0.8858 0.0910065 -2.75021e-21)
(0.888004 0.100421 -6.60117e-21)
(0.891595 0.107757 5.69871e-21)
(0.897616 0.116753 -2.6914e-22)
(0.907874 0.131645 -3.58404e-21)
(0.62748 0.0100997 1.3838e-22)
(0.757519 0.026994 -9.07728e-22)
(0.857076 0.0413836 2.92585e-21)
(0.897284 0.054036 -3.84353e-21)
(0.906221 0.06324 7.48648e-21)
(0.902419 0.0718546 4.021e-21)
(0.901352 0.0802946 -5.08418e-21)
(0.902334 0.0874324 -2.00579e-22)
(0.907024 0.0937356 -7.46676e-21)
(0.915937 0.105856 2.66508e-21)
(0.664348 0.00771556 -1.73348e-22)
(0.789339 0.0202999 -1.31402e-22)
(0.884664 0.0306524 2.2331e-21)
(0.918952 0.0400353 -1.08984e-21)
(0.922867 0.0468091 -5.94139e-21)
(0.916568 0.05348 2.03081e-21)
(0.913677 0.0602592 3.7718e-21)
(0.913153 0.0671442 5.87663e-21)
(0.917028 0.0719616 3.87351e-21)
(0.92427 0.0812165 -1.13326e-20)
(0.697666 0.00567881 2.25283e-22)
(0.81661 0.0148124 -1.42904e-21)
(0.906465 0.0225719 -5.24949e-22)
(0.935132 0.0298489 6.61143e-21)
(0.935599 0.0351816 4.87252e-23)
(0.92867 0.0404065 1.80837e-21)
(0.924903 0.0453167 -1.67394e-21)
(0.922685 0.0510488 1.01238e-21)
(0.92558 0.0546307 1.38368e-22)
(0.931938 0.0607305 6.4312e-21)
(0.71684 0.00434341 -2.57171e-22)
(0.832786 0.0106716 7.0921e-22)
(0.922416 0.0161634 -3.57461e-22)
(0.949365 0.0216311 -4.15767e-21)
(0.946766 0.0254898 -1.1422e-21)
(0.937771 0.0292085 -3.61476e-21)
(0.932909 0.0324746 -3.79628e-22)
(0.929475 0.0370453 -1.6162e-21)
(0.93147 0.0401924 -3.37752e-21)
(0.937269 0.0439655 -7.9346e-21)
(0.740105 0.00359034 2.39638e-22)
(0.849556 0.00851543 -9.08912e-22)
(0.935823 0.0122583 -1.46485e-21)
(0.959066 0.016556 5.34748e-22)
(0.953327 0.0192442 2.93993e-21)
(0.94377 0.0217454 -1.5227e-21)
(0.939949 0.0236105 -9.474e-22)
(0.936564 0.0267868 1.27375e-21)
(0.93766 0.0296423 9.55194e-22)
(0.942791 0.0318911 3.28004e-22)
(0.752247 0.0031593 -1.62472e-22)
(0.857207 0.0079095 8.03313e-22)
(0.944498 0.0100676 5.39011e-22)
(0.968236 0.0125605 -1.84667e-22)
(0.959451 0.0137743 -1.89095e-21)
(0.947128 0.0153225 1.07385e-21)
(0.943076 0.0167374 -1.9588e-22)
(0.940822 0.0191335 -2.30237e-21)
(0.942702 0.0221689 2.23104e-21)
(0.948298 0.0235233 -1.5119e-22)
(0.775525 0.00298573 -1.40864e-24)
(0.870799 0.00854079 1.381e-23)
(0.949395 0.0110441 1.76922e-21)
(0.969479 0.0124111 -3.44485e-22)
(0.960319 0.0129062 -7.33714e-22)
(0.950965 0.0145738 -3.3841e-22)
(0.950347 0.0169581 1.93707e-21)
(0.950483 0.0198485 -1.71715e-21)
(0.952557 0.0236115 -1.9768e-21)
(0.957123 0.0244992 2.8624e-21)
(0.78965 0.00236572 -3.2999e-23)
(0.881668 0.00711762 5.36243e-24)
(0.955704 0.0103792 -1.47782e-21)
(0.973853 0.0129305 1.30169e-21)
(0.96636 0.0151318 6.52872e-22)
(0.960579 0.0180078 -1.15268e-21)
(0.962323 0.0210995 -1.63743e-22)
(0.963219 0.0241807 1.15638e-21)
(0.96417 0.0284528 -3.93584e-22)
(0.965998 0.0294634 8.68746e-22)
(0.808984 0.00196419 6.1934e-23)
(0.896325 0.00566213 1.40878e-22)
(0.967523 0.00853818 2.82239e-22)
(0.985141 0.0114485 -3.28964e-22)
(0.977645 0.014265 8.05974e-22)
(0.971402 0.0170769 1.66351e-21)
(0.973219 0.0197012 1.28192e-21)
(0.975134 0.0219432 6.11301e-22)
(0.976104 0.025839 3.71321e-22)
(0.975996 0.026934 8.66175e-22)
(0.81846 0.00153332 6.04356e-23)
(0.903549 0.0044442 -4.28603e-22)
(0.974729 0.00655951 8.77042e-23)
(0.993309 0.00895748 -4.00439e-22)
(0.985809 0.0113639 5.11703e-23)
(0.978466 0.0135109 3.74527e-23)
(0.979339 0.0154676 -1.54294e-21)
(0.981531 0.0165617 1.18098e-22)
(0.983305 0.019346 8.59575e-22)
(0.983467 0.019715 -2.97445e-22)
(0.832725 0.0011241 -4.01041e-23)
(0.913088 0.00324879 1.5118e-22)
(0.982276 0.00451305 3.82873e-22)
(1.00129 0.00592757 3.82304e-22)
(0.993308 0.00746773 6.56308e-23)
(0.984067 0.00877404 -1.22811e-21)
(0.983096 0.0102586 1.2109e-21)
(0.984768 0.0107099 -5.35094e-22)
(0.986815 0.0126945 -1.33942e-21)
(0.987605 0.0124707 -6.63311e-22)
(0.837515 0.00113872 -1.8573e-23)
(0.915644 0.00330455 3.91311e-23)
(0.984063 0.00443228 -3.43017e-22)
(1.00369 0.00507381 -4.7484e-22)
(0.996215 0.00570452 4.21047e-22)
(0.987245 0.00625027 -2.36453e-22)
(0.985883 0.00753759 -7.04898e-22)
(0.987301 0.00791562 -8.59413e-22)
(0.989388 0.0096471 6.69973e-22)
(0.990516 0.0092338 2.34919e-22)
(0.852168 0.000891756 -6.0805e-24)
(0.924935 0.00258228 9.65522e-24)
(0.988313 0.00365182 1.44422e-22)
(1.00549 0.00438658 6.14774e-22)
(0.997884 0.00515754 -3.96462e-22)
(0.99021 0.00564404 3.00283e-22)
(0.989757 0.00674392 2.4416e-22)
(0.991185 0.00696582 7.18242e-22)
(0.99262 0.0084184 1.53124e-22)
(0.993225 0.00791071 -1.73921e-22)
(0.852953 0.000801701 -2.72781e-23)
(0.92545 0.0020593 5.38281e-23)
(0.990379 0.00288451 3.943e-23)
(1.00905 0.00361911 -5.30984e-22)
(1.0015 0.00452025 3.20616e-22)
(0.992874 0.00488354 -1.26856e-22)
(0.991533 0.00561273 -3.0411e-22)
(0.992572 0.00549429 1.05673e-22)
(0.993827 0.00653728 2.72628e-23)
(0.99432 0.00603785 6.81252e-22)
(0.866119 0.000877083 9.33534e-25)
(0.933203 0.00209588 -6.55741e-24)
(0.994458 0.00274558 1.12042e-22)
(1.01204 0.00309487 2.87474e-23)
(1.00371 0.00366437 9.25325e-23)
(0.994286 0.00367058 3.06491e-22)
(0.992612 0.00408514 -2.04325e-22)
(0.993847 0.00381144 -1.06454e-24)
(0.995223 0.00447775 -4.0242e-22)
(0.995757 0.00399775 -6.16498e-22)
(0.866301 0.00093504 -1.20661e-24)
(0.932286 0.00214521 8.13617e-23)
(0.993795 0.00273698 -1.02635e-22)
(1.01234 0.0028402 1.1282e-22)
(1.00405 0.00316897 -1.76737e-22)
(0.994129 0.00296425 -2.84811e-22)
(0.992034 0.00332153 3.30426e-22)
(0.993259 0.00304183 3.4896e-23)
(0.994682 0.00349389 1.27954e-22)
(0.99534 0.00309493 3.59979e-22)
(0.880646 0.000982257 -1.94884e-26)
(0.940625 0.00220467 -3.26052e-23)
(0.996999 0.0027825 -1.86834e-23)
(1.01346 0.00281859 -5.79707e-24)
(1.0046 0.00301225 -4.03846e-23)
(0.994653 0.00274468 1.33422e-22)
(0.992711 0.00298271 -1.64825e-23)
(0.994281 0.00274227 7.91494e-23)
(0.995832 0.0031568 -3.44676e-24)
(0.996519 0.00287671 -7.79562e-24)
(0.880869 0.00102643 -7.46727e-24)
(0.939705 0.0022728 2.2425e-23)
(0.996006 0.00275971 1.2368e-24)
(1.01307 0.00258802 6.31421e-23)
(1.00419 0.00251185 -9.90383e-23)
(0.993882 0.00214372 -2.13181e-23)
(0.991847 0.00234135 -1.12789e-22)
(0.993789 0.00223357 -2.30402e-23)
(0.995693 0.00273742 -2.05979e-23)
(0.996447 0.0025943 -1.1916e-22)
(0.896412 0.0010622 1.33459e-23)
(0.948357 0.00249231 -2.27579e-24)
(0.997915 0.00313377 -4.42293e-23)
(1.01196 0.0030522 -1.29965e-24)
(1.00289 0.00295407 -3.16047e-23)
(0.993752 0.00266508 9.69599e-23)
(0.99292 0.00293542 1.29589e-23)
(0.995701 0.0029309 -2.16077e-23)
(0.998032 0.00336542 2.6261e-24)
(0.998938 0.00328372 1.77256e-23)
(0.89781 0.000916843 2.72777e-24)
(0.949133 0.00208204 4.56398e-24)
(0.99818 0.00269456 7.32219e-24)
(1.01183 0.00287151 -3.50348e-23)
(1.00268 0.00321833 2.57915e-23)
(0.993749 0.00333427 -2.55426e-23)
(0.993122 0.00366945 3.61822e-23)
(0.995903 0.0036735 -1.78538e-23)
(0.997959 0.00406875 9.15326e-24)
(0.998488 0.00396891 -1.63074e-23)
(0.911534 0.000822233 -1.12699e-24)
(0.956947 0.00188382 2.8417e-24)
(1.00154 0.00242579 -6.06875e-25)
(1.01453 0.00262277 -5.74602e-24)
(1.00569 0.00295032 8.44169e-24)
(0.996305 0.0031235 -8.26977e-24)
(0.994935 0.00341978 1.09527e-23)
(0.997652 0.00346203 -1.36598e-23)
(1.00006 0.00379092 -1.69385e-24)
(1.00086 0.00382829 7.5434e-24)
(1.08755 0.279308 0)
(1.10801 0.296772 0)
(1.10938 0.261747 0)
(1.11086 0.238058 0)
(1.11136 0.218842 0)
(1.11453 0.197799 0)
(1.11716 0.178645 0)
(1.11701 0.160723 0)
(1.1148 0.143929 0)
(1.11194 0.128202 0)
(1.10877 0.113637 0)
(1.10517 0.100214 0)
(1.10102 0.0878591 0)
(1.09647 0.0765157 0)
(1.0916 0.0661921 0)
(1.08657 0.0568701 0)
(1.08146 0.0485062 0)
(1.07634 0.0410617 0)
(1.07128 0.03447 0)
(1.06634 0.0286741 0)
(1.06161 0.0235941 0)
(1.05716 0.0191609 0)
(1.05306 0.0152857 0)
(1.0494 0.0118884 0)
(1.04625 0.00888145 0)
(1.04371 0.00616751 0)
(1.04186 0.00365333 0)
(1.04089 0.00119999 0)
(1.06174 0.315024 0)
(1.03007 0.341714 0)
(1.04865 0.260568 0)
(1.07116 0.292589 0)
(1.07143 0.245931 0)
(1.07541 0.231578 0)
(1.07984 0.21426 0)
(1.08729 0.194784 0)
(1.09289 0.177602 0)
(1.09542 0.161154 0)
(1.09593 0.145296 0)
(1.09543 0.13035 0)
(1.09434 0.116342 0)
(1.0926 0.10319 0)
(1.09021 0.0909141 0)
(1.08718 0.0795775 0)
(1.08371 0.0692031 0)
(1.07992 0.0597527 0)
(1.0759 0.0512222 0)
(1.07172 0.0435669 0)
(1.06747 0.0367493 0)
(1.06324 0.030705 0)
(1.05909 0.0253743 0)
(1.05513 0.0206811 0)
(1.05143 0.0165532 0)
(1.04809 0.0129101 0)
(1.0452 0.00966054 0)
(1.04284 0.00672751 0)
(1.04114 0.00398 0)
(1.04018 0.0013596 0)
(1.00643 0.28512 0)
(0.981411 0.308953 0)
(1.02037 0.239115 0)
(1.0363 0.278531 0)
(1.03563 0.223045 0)
(1.04309 0.22246 0)
(1.05197 0.204932 0)
(1.06268 0.187949 0)
(1.07038 0.173536 0)
(1.07517 0.158668 0)
(1.07772 0.14414 0)
(1.07919 0.130268 0)
(1.07998 0.116971 0)
(1.08001 0.104298 0)
(1.07923 0.0924231 0)
(1.07771 0.0813804 0)
(1.07562 0.0711641 0)
(1.07305 0.0618069 0)
(1.07009 0.0532815 0)
(1.06684 0.0455742 0)
(1.0634 0.0386371 0)
(1.05984 0.0324386 0)
(1.05626 0.0269251 0)
(1.05276 0.022038 0)
(1.04943 0.0177062 0)
(1.04639 0.0138523 0)
(1.04371 0.0104005 0)
(1.04151 0.00724663 0)
(1.0399 0.00430781 0)
(1.03903 0.00138631 0)
(0.962258 0.249775 0)
(0.948916 0.271821 0)
(0.998657 0.216562 0)
(1.00313 0.257433 0)
(1.00463 0.199386 0)
(1.01644 0.212755 0)
(1.02885 0.191903 0)
(1.04106 0.179105 0)
(1.04987 0.167164 0)
(1.05589 0.153792 0)
(1.06 0.140751 0)
(1.06324 0.127956 0)
(1.06572 0.115516 0)
(1.06738 0.103705 0)
(1.06811 0.0925218 0)
(1.06806 0.0819778 0)
(1.0673 0.0721424 0)
(1.06591 0.0630462 0)
(1.06402 0.054684 0)
(1.06173 0.0470391 0)
(1.05912 0.0401046 0)
(1.05628 0.0338514 0)
(1.05333 0.0282382 0)
(1.05036 0.0232144 0)
(1.04748 0.0187245 0)
(1.04478 0.0147038 0)
(1.04238 0.0110665 0)
(1.04038 0.00774278 0)
(1.03891 0.00459555 0)
(1.03811 0.00158777 0)
(0.933775 0.213737 0)
(0.931781 0.234959 0)
(0.981499 0.192855 0)
(0.974439 0.231606 0)
(0.981623 0.176399 0)
(0.996388 0.200169 0)
(1.0102 0.174972 0)
(1.02207 0.168075 0)
(1.03106 0.157802 0)
(1.03785 0.146017 0)
(1.04342 0.134435 0)
(1.0482 0.122887 0)
(1.05221 0.111884 0)
(1.05527 0.101248 0)
(1.05743 0.0910242 0)
(1.0587 0.0812531 0)
(1.0591 0.0720503 0)
(1.05882 0.0634252 0)
(1.0579 0.055376 0)
(1.05649 0.0479417 0)
(1.05464 0.0411174 0)
(1.05248 0.0348991 0)
(1.0501 0.0292595 0)
(1.04762 0.0241726 0)
(1.04513 0.0195855 0)
(1.04277 0.015437 0)
(1.04062 0.0116645 0)
(1.03881 0.00817044 0)
(1.03748 0.00487555 0)
(1.03671 0.00157693 0)
(0.920437 0.182459 0)
(0.926483 0.202459 0)
(0.969071 0.170458 0)
(0.95386 0.204273 0)
(0.967207 0.154328 0)
(0.981694 0.18393 0)
(0.994751 0.155375 0)
(1.00513 0.155408 0)
(1.01406 0.145649 0)
(1.02171 0.135493 0)
(1.02843 0.125568 0)
(1.03443 0.116004 0)
(1.03967 0.10657 0)
(1.04394 0.0972995 0)
(1.04732 0.0881928 0)
(1.04963 0.0794153 0)
(1.05112 0.0709924 0)
(1.05179 0.0629531 0)
(1.05183 0.0553657 0)
(1.05124 0.0482636 0)
(1.05018 0.0416699 0)
(1.04871 0.0355811 0)
(1.04694 0.0300055 0)
(1.04498 0.0249134 0)
(1.04296 0.0202763 0)
(1.04096 0.0160506 0)
(1.03913 0.0121664 0)
(1.03757 0.00855702 0)
(1.03638 0.00510426 0)
(1.03577 0.0017411 0)
(0.917315 0.15401 0)
(0.927834 0.172676 0)
(0.960417 0.147579 0)
(0.940951 0.17673 0)
(0.95904 0.13299 0)
(0.970796 0.164781 0)
(0.982245 0.134669 0)
(0.991124 0.141071 0)
(1.00041 0.130826 0)
(1.00855 0.122795 0)
(1.01579 0.115314 0)
(1.02262 0.107667 0)
(1.02863 0.0999037 0)
(1.03388 0.0920421 0)
(1.038 0.0842295 0)
(1.04121 0.0765528 0)
(1.04349 0.0690067 0)
(1.04501 0.0617062 0)
(1.04579 0.0546834 0)
(1.04593 0.0480256 0)
(1.04552 0.0417336 0)
(1.04465 0.03587 0)
(1.04342 0.0304236 0)
(1.04194 0.0253992 0)
(1.04032 0.0207748 0)
(1.03867 0.0165112 0)
(1.03712 0.0125622 0)
(1.03576 0.0088545 0)
(1.03476 0.00530012 0)
(1.03414 0.00176828 0)
(0.921784 0.130918 0)
(0.932949 0.145395 0)
(0.954966 0.125326 0)
(0.933557 0.150149 0)
(0.954592 0.112813 0)
(0.962692 0.144914 0)
(0.972948 0.114541 0)
(0.980834 0.126179 0)
(0.990534 0.114739 0)
(0.998421 0.109889 0)
(1.00586 0.104548 0)
(1.01289 0.0985674 0)
(1.01944 0.0923325 0)
(1.02508 0.0858604 0)
(1.02979 0.0793652 0)
(1.03357 0.0727752 0)
(1.03653 0.0662019 0)
(1.03871 0.0596924 0)
(1.04015 0.0533617 0)
(1.04097 0.0472176 0)
(1.04117 0.0413489 0)
(1.04089 0.0357776 0)
(1.04019 0.030536 0)
(1.03919 0.0256373 0)
(1.03798 0.0210734 0)
(1.03669 0.0168249 0)
(1.03542 0.012848 0)
(1.0343 0.00908111 0)
(1.03342 0.00544694 0)
(1.03298 0.0017997 0)
(0.927615 0.11027 0)
(0.93736 0.119474 0)
(0.950429 0.10406 0)
(0.929027 0.124473 0)
(0.951791 0.093343 0)
(0.956873 0.124021 0)
(0.966844 0.0951946 0)
(0.974114 0.110539 0)
(0.98383 0.0984206 0)
(0.991065 0.0972868 0)
(0.998325 0.0934286 0)
(1.00537 0.0890456 0)
(1.01196 0.0841882 0)
(1.01772 0.0791433 0)
(1.02265 0.0738595 0)
(1.02674 0.0683912 0)
(1.03012 0.0627652 0)
(1.0327 0.0571381 0)
(1.03465 0.0514868 0)
(1.03593 0.0459359 0)
(1.03664 0.040529 0)
(1.03682 0.035322 0)
(1.03657 0.0303514 0)
(1.03597 0.0256385 0)
(1.03513 0.0211915 0)
(1.03414 0.0169978 0)
(1.03313 0.0130303 0)
(1.03219 0.00924723 0)
(1.03148 0.00555055 0)
(1.03102 0.00192078 0)
(0.93334 0.0880096 0)
(0.940628 0.0932044 0)
(0.947113 0.0821525 0)
(0.926725 0.0991261 0)
(0.950817 0.0740584 0)
(0.954172 0.102289 0)
(0.964234 0.0766417 0)
(0.971103 0.094148 0)
(0.980168 0.0824624 0)
(0.986456 0.0847482 0)
(0.993268 0.0821226 0)
(1.00007 0.079108 0)
(1.00636 0.0756802 0)
(1.01202 0.0719672 0)
(1.01689 0.0678959 0)
(1.02115 0.0634583 0)
(1.02467 0.0588305 0)
(1.02759 0.0540263 0)
(1.02988 0.0491207 0)
(1.03157 0.0442045 0)
(1.03269 0.0393117 0)
(1.0333 0.0345124 0)
(1.03345 0.0298523 0)
(1.03323 0.0253741 0)
(1.03273 0.0210894 0)
(1.03205 0.0170039 0)
(1.03128 0.0130938 0)
(1.03055 0.00931214 0)
(1.02995 0.00561754 0)
(1.02961 0.00181719 0)
(0.939285 0.0678734 0)
(0.944313 0.0706342 0)
(0.946644 0.0627657 0)
(0.92813 0.0773454 0)
(0.952822 0.0578192 0)
(0.955085 0.0832818 0)
(0.965061 0.0611393 0)
(0.971505 0.0794808 0)
(0.979363 0.068486 0)
(0.984469 0.0734552 0)
(0.990646 0.0714483 0)
(0.996714 0.0696252 0)
(1.00247 0.0674964 0)
(1.0076 0.0649595 0)
(1.01223 0.0618984 0)
(1.01632 0.0584247 0)
(1.0198 0.0546685 0)
(1.02281 0.0506313 0)
(1.02524 0.0464302 0)
(1.02716 0.0421264 0)
(1.02857 0.0377637 0)
(1.02948 0.033416 0)
(1.02996 0.0291221 0)
(1.03006 0.0249188 0)
(1.02985 0.0208403 0)
(1.02944 0.0168902 0)
(1.0289 0.0130634 0)
(1.02836 0.00934042 0)
(1.02788 0.00563077 0)
(1.02762 0.00196159 0)
(0.943563 0.0506154 0)
(0.947396 0.0523274 0)
(0.947849 0.046826 0)
(0.93268 0.0597974 0)
(0.957325 0.0453191 0)
(0.958388 0.0681386 0)
(0.968053 0.049181 0)
(0.973768 0.0674142 0)
(0.980389 0.0569171 0)
(0.984419 0.063711 0)
(0.98979 0.0615884 0)
(0.995023 0.0609306 0)
(1.00002 0.0598246 0)
(1.00453 0.058215 0)
(1.00886 0.0559575 0)
(1.0126 0.0533357 0)
(1.01603 0.0503304 0)
(1.01899 0.0470049 0)
(1.02149 0.0434899 0)
(1.02356 0.0397649 0)
(1.02515 0.0359249 0)
(1.02631 0.0320161 0)
(1.02705 0.0280855 0)
(1.02742 0.0241912 0)
(1.02749 0.0203474 0)
(1.02732 0.0165826 0)
(1.02702 0.0128881 0)
(1.02665 0.00923844 0)
(1.02634 0.00560135 0)
(1.02609 0.00185357 0)
(0.948391 0.0379597 0)
(0.951967 0.0394523 0)
(0.951923 0.0357288 0)
(0.941079 0.0475384 0)
(0.964795 0.0369533 0)
(0.964075 0.0573274 0)
(0.97284 0.0409902 0)
(0.977242 0.0584266 0)
(0.982574 0.0482809 0)
(0.985584 0.0558643 0)
(0.990027 0.0533657 0)
(0.99443 0.0535327 0)
(0.998387 0.0531421 0)
(1.00243 0.0520474 0)
(1.00613 0.0503986 0)
(1.00957 0.0484403 0)
(1.01274 0.046002 0)
(1.01552 0.0433513 0)
(1.01797 0.0403917 0)
(1.02003 0.037227 0)
(1.02171 0.0338944 0)
(1.02301 0.0304328 0)
(1.0239 0.0269008 0)
(1.02447 0.0233215 0)
(1.02472 0.0197405 0)
(1.02475 0.0161724 0)
(1.0246 0.0126221 0)
(1.02439 0.00908594 0)
(1.02415 0.00551164 0)
(1.02405 0.00185193 0)
(0.95369 0.0290248 0)
(0.957202 0.0309428 0)
(0.957389 0.0284083 0)
(0.951294 0.0394448 0)
(0.97322 0.0312036 0)
(0.970373 0.0493188 0)
(0.978122 0.0348686 0)
(0.980788 0.0513513 0)
(0.984868 0.0413278 0)
(0.986799 0.049342 0)
(0.990664 0.0462988 0)
(0.99403 0.047191 0)
(0.997329 0.0471851 0)
(1.00088 0.046306 0)
(1.00407 0.0452269 0)
(1.00724 0.0436633 0)
(1.01011 0.041821 0)
(1.01275 0.039686 0)
(1.0151 0.0372503 0)
(1.01712 0.0345774 0)
(1.01885 0.0316894 0)
(1.02021 0.028654 0)
(1.02126 0.0254915 0)
(1.02198 0.0222473 0)
(1.02242 0.0189432 0)
(1.02262 0.015602 0)
(1.02265 0.0122382 0)
(1.02256 0.00884469 0)
(1.02245 0.00538027 0)
(1.02233 0.00186491 0)
(0.961288 0.0297649 0)
(0.964424 0.0313376 0)
(0.964917 0.0292722 0)
(0.963164 0.0385162 0)
(0.981782 0.0307476 0)
(0.976838 0.0459575 0)
(0.983987 0.0318967 0)
(0.984451 0.0472002 0)
(0.987605 0.0363006 0)
(0.988435 0.0447836 0)
(0.991832 0.0405189 0)
(0.99407 0.0422121 0)
(0.997012 0.0419106 0)
(0.999881 0.041214 0)
(1.0027 0.0403998 0)
(1.00547 0.039172 0)
(1.00802 0.0377689 0)
(1.01042 0.0360536 0)
(1.01258 0.0340755 0)
(1.01452 0.0318444 0)
(1.01616 0.0293989 0)
(1.01752 0.0267569 0)
(1.01858 0.0239586 0)
(1.01935 0.0210373 0)
(1.01985 0.0180159 0)
(1.02013 0.0149239 0)
(1.02024 0.0117579 0)
(1.02023 0.00852037 0)
(1.02016 0.00520963 0)
(1.02011 0.00169287 0)
(0.966984 0.0351444 0)
(0.968083 0.0356546 0)
(0.967611 0.0342009 0)
(0.968859 0.0407088 0)
(0.983791 0.0327943 0)
(0.977565 0.0447448 0)
(0.985756 0.0306784 0)
(0.984528 0.0443492 0)
(0.987946 0.032577 0)
(0.988567 0.0411461 0)
(0.991655 0.0356519 0)
(0.993541 0.0380345 0)
(0.996305 0.0371327 0)
(0.998781 0.0366821 0)
(1.0014 0.0359601 0)
(1.00383 0.0350566 0)
(1.00618 0.033982 0)
(1.00837 0.0326211 0)
(1.0104 0.0310232 0)
(1.01223 0.0291776 0)
(1.01383 0.027111 0)
(1.0152 0.024848 0)
(1.0163 0.0224089 0)
(1.01716 0.019805 0)
(1.01777 0.0170708 0)
(1.01819 0.0142108 0)
(1.01842 0.0112515 0)
(1.01852 0.00819771 0)
(1.01854 0.00501143 0)
(1.01855 0.00175141 0)
(0.974078 0.0327765 0)
(0.972524 0.0328655 0)
(0.969902 0.0325105 0)
(0.971108 0.0373016 0)
(0.983069 0.0303884 0)
(0.976472 0.0401582 0)
(0.985161 0.0276455 0)
(0.983613 0.0395033 0)
(0.987497 0.0286126 0)
(0.988599 0.0365205 0)
(0.991415 0.0309967 0)
(0.993485 0.0336204 0)
(0.995959 0.0324953 0)
(0.998328 0.0322257 0)
(1.00065 0.0316809 0)
(1.00281 0.0310732 0)
(1.00491 0.0302347 0)
(1.00686 0.0291856 0)
(1.00868 0.0279104 0)
(1.01033 0.026405 0)
(1.01179 0.0246863 0)
(1.01302 0.0227517 0)
(1.01405 0.0206195 0)
(1.01484 0.0183222 0)
(1.01545 0.0158657 0)
(1.01585 0.0132779 0)
(1.0161 0.0105614 0)
(1.01623 0.0077144 0)
(1.01631 0.00474305 0)
(1.01628 0.0015888 0)
(0.980706 0.0245586 0)
(0.977186 0.0245447 0)
(0.972766 0.0247267 0)
(0.972713 0.0289186 0)
(0.982914 0.0235733 0)
(0.975891 0.0323469 0)
(0.98424 0.022383 0)
(0.982739 0.0329504 0)
(0.986734 0.0239743 0)
(0.988167 0.031251 0)
(0.990934 0.0264172 0)
(0.993088 0.0292414 0)
(0.995452 0.0281698 0)
(0.997726 0.028147 0)
(0.999843 0.0279008 0)
(1.00185 0.0275354 0)
(1.00376 0.0269511 0)
(1.00555 0.0261706 0)
(1.00722 0.0251751 0)
(1.00874 0.0239857 0)
(1.0101 0.0225824 0)
(1.0113 0.0209678 0)
(1.0123 0.0191474 0)
(1.01312 0.0171227 0)
(1.01375 0.0149197 0)
(1.01421 0.0125489 0)
(1.01452 0.0100178 0)
(1.01471 0.00734303 0)
(1.0148 0.00451785 0)
(1.01488 0.00150725 0)
(0.985447 0.0159173 0)
(0.98169 0.0159835 0)
(0.977098 0.0161213 0)
(0.976234 0.0200913 0)
(0.985715 0.0160776 0)
(0.978953 0.0239831 0)
(0.986126 0.0164167 0)
(0.984649 0.0260238 0)
(0.988059 0.0189007 0)
(0.989286 0.0257566 0)
(0.991811 0.0217148 0)
(0.993682 0.024747 0)
(0.995824 0.0238144 0)
(0.997827 0.0240856 0)
(0.999631 0.0241331 0)
(1.0014 0.0239545 0)
(1.00304 0.0235822 0)
(1.00458 0.0230288 0)
(1.00599 0.0222766 0)
(1.00728 0.0213216 0)
(1.00843 0.0201617 0)
(1.00943 0.0188025 0)
(1.01029 0.0172418 0)
(1.01099 0.0154949 0)
(1.01153 0.0135635 0)
(1.01194 0.0114555 0)
(1.0122 0.00919013 0)
(1.01236 0.00676995 0)
(1.01244 0.00417315 0)
(1.01246 0.00147271 0)
(0.988695 0.0117831 0)
(0.98501 0.0119062 0)
(0.980899 0.0118093 0)
(0.980093 0.015371 0)
(0.988793 0.0120087 0)
(0.982365 0.0188165 0)
(0.989102 0.0124956 0)
(0.987095 0.0212343 0)
(0.990054 0.0149648 0)
(0.990767 0.0216369 0)
(0.992984 0.0178535 0)
(0.994431 0.021217 0)
(0.996393 0.020205 0)
(0.998025 0.0208714 0)
(0.999658 0.0210868 0)
(1.0012 0.0210784 0)
(1.00268 0.0209123 0)
(1.00405 0.0205624 0)
(1.00531 0.0200408 0)
(1.00646 0.0193297 0)
(1.0075 0.0184194 0)
(1.00841 0.0172999 0)
(1.00919 0.0159752 0)
(1.00983 0.0144439 0)
(1.01034 0.012715 0)
(1.01072 0.0108046 0)
(1.011 0.00870633 0)
(1.01117 0.00643022 0)
(1.01129 0.00398665 0)
(1.01132 0.00131977 0)
(0.991314 0.00986683 0)
(0.98784 0.00989014 0)
(0.984177 0.00963443 0)
(0.983579 0.0125984 0)
(0.991308 0.00969562 0)
(0.985555 0.015333 0)
(0.991931 0.00983993 0)
(0.989794 0.0174246 0)
(0.992383 0.0118104 0)
(0.992829 0.0179464 0)
(0.994593 0.0144094 0)
(0.99576 0.0177986 0)
(0.997329 0.016705 0)
(0.998646 0.0176253 0)
(0.999931 0.0178656 0)
(1.00119 0.0179591 0)
(1.00236 0.0179113 0)
(1.00342 0.0177337 0)
(1.0044 0.0173781 0)
(1.00528 0.0168379 0)
(1.00607 0.0161166 0)
(1.00677 0.0152135 0)
(1.00737 0.0141161 0)
(1.00788 0.0128231 0)
(1.00826 0.0113418 0)
(1.00856 0.00966719 0)
(1.00875 0.00781304 0)
(1.00889 0.0057838 0)
(1.00893 0.00358139 0)
(1.00899 0.00122911 0)
(0.992452 0.00750982 0)
(0.989226 0.00754417 0)
(0.986131 0.00729202 0)
(0.986075 0.00984999 0)
(0.992923 0.00751435 0)
(0.987442 0.0123831 0)
(0.993834 0.00776579 0)
(0.99157 0.0144401 0)
(0.994066 0.00948476 0)
(0.994379 0.0151799 0)
(0.995881 0.0119119 0)
(0.996849 0.0153397 0)
(0.998213 0.0142052 0)
(0.999271 0.0153783 0)
(1.0004 0.0156291 0)
(1.00145 0.0158073 0)
(1.00244 0.015908 0)
(1.00335 0.0158622 0)
(1.00418 0.0156578 0)
(1.00493 0.0152788 0)
(1.0056 0.0147105 0)
(1.00618 0.0139501 0)
(1.00668 0.0130025 0)
(1.00708 0.011879 0)
(1.00741 0.01056 0)
(1.00765 0.00905608 0)
(1.00782 0.00735784 0)
(1.00793 0.00548443 0)
(1.00799 0.00341555 0)
(1.008 0.00119401 0)
(0.994165 0.00496722 0)
(0.991421 0.00505123 0)
(0.989099 0.00478647 0)
(0.989555 0.00700707 0)
(0.995811 0.00521587 0)
(0.990807 0.00936216 0)
(0.996609 0.00569638 0)
(0.994462 0.0114088 0)
(0.996598 0.00726336 0)
(0.996782 0.0123079 0)
(0.997915 0.00944801 0)
(0.998648 0.0126851 0)
(0.999637 0.0115855 0)
(1.0004 0.0128654 0)
(1.00119 0.0130582 0)
(1.00195 0.0133115 0)
(1.00261 0.0134715 0)
(1.0032 0.0135153 0)
(1.00373 0.0134126 0)
(1.00421 0.0131607 0)
(1.00461 0.0127542 0)
(1.00496 0.0121807 0)
(1.00522 0.0114323 0)
(1.00543 0.0104849 0)
(1.00558 0.00935597 0)
(1.00568 0.00803821 0)
(1.00575 0.00654019 0)
(1.00576 0.00487368 0)
(1.0058 0.00303229 0)
(1.00578 0.00100672 0)
(0.994098 0.00378097 0)
(0.991932 0.00392172 0)
(0.990623 0.00364687 0)
(0.991957 0.00562496 0)
(0.997718 0.00410692 0)
(0.992831 0.00771589 0)
(0.998611 0.00463852 0)
(0.996192 0.00974762 0)
(0.998185 0.00603139 0)
(0.998178 0.0107318 0)
(0.9991 0.00803738 0)
(0.999614 0.0112125 0)
(1.00043 0.0100505 0)
(1.00096 0.0114523 0)
(1.00161 0.0115422 0)
(1.00216 0.0118372 0)
(1.00266 0.0120641 0)
(1.00311 0.0121486 0)
(1.0035 0.0120968 0)
(1.00384 0.0119089 0)
(1.00413 0.0115741 0)
(1.00438 0.0110857 0)
(1.0046 0.0104238 0)
(1.00477 0.0095988 0)
(1.00489 0.00859625 0)
(1.00498 0.00741548 0)
(1.00499 0.00607758 0)
(1.00501 0.00453968 0)
(1.00497 0.00282847 0)
(1.00497 0.000982753 0)
(0.995496 0.0034319 0)
(0.99384 0.0035999 0)
(0.993319 0.00335472 0)
(0.995202 0.00502748 0)
(1.00037 0.00371327 0)
(0.996159 0.00666067 0)
(1.00153 0.00408888 0)
(0.999144 0.00835785 0)
(1.00086 0.0051424 0)
(1.00072 0.00920701 0)
(1.00132 0.00679028 0)
(1.00166 0.00965272 0)
(1.00213 0.00850607 0)
(1.00245 0.00988874 0)
(1.00278 0.00986938 0)
(1.00308 0.0102108 0)
(1.00328 0.010437 0)
(1.00345 0.0105566 0)
(1.00357 0.0105647 0)
(1.00365 0.010449 0)
(1.00367 0.0102002 0)
(1.00366 0.00980197 0)
(1.0036 0.00925231 0)
(1.0035 0.00855123 0)
(1.0034 0.00767793 0)
(1.00325 0.00666712 0)
(1.00312 0.00546448 0)
(1.00302 0.00409495 0)
(1.00293 0.0025711 0)
(1.00288 0.000897095 0)
(0.995499 0.00319582 0)
(0.994184 0.00348576 0)
(0.994314 0.00338244 0)
(0.99673 0.00494254 0)
(1.00119 0.00377165 0)
(0.997142 0.00637029 0)
(1.00266 0.00402203 0)
(1.00004 0.00785168 0)
(1.00181 0.00479176 0)
(1.00153 0.00854733 0)
(1.00205 0.00616662 0)
(1.00225 0.00888434 0)
(1.00263 0.00764999 0)
(1.00277 0.00903037 0)
(1.00304 0.00888212 0)
(1.00316 0.00924023 0)
(1.00327 0.00946424 0)
(1.00332 0.00956192 0)
(1.00334 0.0095643 0)
(1.00333 0.00946655 0)
(1.00329 0.00926409 0)
(1.00323 0.00893002 0)
(1.00313 0.00847081 0)
(1.00303 0.00784269 0)
(1.00289 0.00707281 0)
(1.00274 0.00613731 0)
(1.00262 0.005013 0)
(1.00247 0.00375589 0)
(1.00239 0.00235042 0)
(1.00232 0.000788935 0)
(0.998158 0.00377608 0)
(0.997168 0.00399565 0)
(0.997629 0.00390559 0)
(0.999957 0.00514779 0)
(1.00339 0.00414995 0)
(0.999904 0.00623935 0)
(1.0049 0.00427157 0)
(1.00238 0.00740072 0)
(1.00393 0.00479807 0)
(1.00359 0.00796955 0)
(1.00386 0.00587629 0)
(1.00395 0.00825624 0)
(1.00404 0.00709392 0)
(1.00404 0.00838433 0)
(1.00402 0.00814993 0)
(1.00394 0.00853164 0)
(1.0038 0.00870403 0)
(1.00361 0.00880138 0)
(1.00339 0.00881232 0)
(1.00312 0.0087281 0)
(1.00283 0.00852894 0)
(1.0025 0.00822635 0)
(1.00216 0.00780039 0)
(1.00181 0.0072405 0)
(1.00144 0.00655098 0)
(1.00112 0.00568918 0)
(1.00079 0.00469125 0)
(1.00049 0.00353853 0)
(1.00026 0.00221739 0)
(1.00014 0.000763443 0)
(0.997587 0.00442718 0)
(0.996831 0.00458468 0)
(0.997716 0.00447055 0)
(1.00042 0.00550641 0)
(1.00337 0.0044815 0)
(1.00003 0.00634033 0)
(1.0052 0.00439313 0)
(1.00261 0.00724429 0)
(1.0043 0.00468425 0)
(1.00394 0.00763898 0)
(1.00426 0.00555375 0)
(1.00429 0.00781419 0)
(1.00441 0.00660257 0)
(1.00432 0.00787888 0)
(1.00432 0.00756506 0)
(1.00415 0.00796816 0)
(1.00398 0.00812058 0)
(1.00376 0.00820549 0)
(1.00349 0.00823163 0)
(1.0032 0.00817456 0)
(1.00287 0.00802186 0)
(1.0025 0.00777028 0)
(1.00212 0.00738488 0)
(1.00172 0.00687616 0)
(1.00134 0.00622124 0)
(1.00097 0.00541846 0)
(1.00063 0.0044752 0)
(1.00037 0.00337621 0)
(1.00016 0.00212047 0)
(1.00006 0.000735546 0)
(1.00011 0.00421559 0)
(0.999424 0.00445266 0)
(1.00023 0.00444716 0)
(1.00254 0.00525426 0)
(1.00467 0.00451567 0)
(1.00195 0.00597847 0)
(1.00648 0.00454312 0)
(1.00426 0.00671844 0)
(1.00574 0.00478463 0)
(1.00546 0.00713448 0)
(1.00559 0.0054473 0)
(1.00561 0.00732529 0)
(1.00547 0.00626883 0)
(1.00531 0.00739286 0)
(1.00503 0.00704446 0)
(1.00469 0.00744761 0)
(1.00428 0.00751433 0)
(1.00381 0.00758074 0)
(1.00329 0.00758578 0)
(1.00274 0.00752004 0)
(1.00214 0.00737757 0)
(1.00153 0.00713901 0)
(1.0009 0.00678638 0)
(1.00028 0.00631553 0)
(0.999674 0.0057112 0)
(0.999107 0.00497461 0)
(0.998599 0.00409613 0)
(0.998178 0.00308174 0)