/*--------------------------------*- C++ -*----------------------------------*\
| =========                 |                                                 |
| \\      /  F ield         | OpenFOAM: The Open Source CFD Toolbox           |
|  \\    /   O peration     | Version:                                        |
|   \\  /    A nd           | Website:  www.openfoam.com                      |
|    \\/     M anipulation  |                                                 |
\*---------------------------------------------------------------------------*/
FoamFile
{
    version     2.0;
    format      ascii;
    class       volScalarField;
    location    "84.7";
    object      p;
}
// * * * * * * * * * * * * * * * * * * * * * * * * * * * * * * * * * * * * * //

dimensions      [0 2 -2 0 0 0 0];


internalField   nonuniform List<scalar> 
1139
(
-0.539108
-0.385127
-0.257097
-0.271418
-0.159419
-0.196676
-0.0907205
-0.137492
-0.169911
-0.0403214
-0.091211
-0.127578
-0.00463874
-0.0553503
-0.0931881
0.021036
-0.0265803
-0.066618
-0.0899701
0.0358639
-0.00753513
-0.0440643
-0.0670392
0.0452266
0.00904556
-0.0233892
-0.0474849
-1.04956
-1.10543
-1.07587
-1.00684
-0.910123
-0.80959
-1.16409
-1.13896
-1.07264
-0.975783
-0.87263
-0.804023
-1.22016
-1.19651
-1.12865
-1.02651
-0.915866
-0.840089
-0.839557
-1.26986
-1.24336
-1.17081
-1.06172
-0.937722
-0.842585
-0.82853
-0.881558
-1.30666
-1.27566
-1.20091
-1.07971
-0.930834
-0.804842
-0.763448
-0.802557
-0.876546
-1.33058
-1.29957
-1.21504
-1.07247
-0.892094
-0.730729
-0.651059
-0.66182
-0.731847
-0.754003
-1.34638
-1.3088
-1.20734
-1.03775
-0.824608
-0.626013
-0.503103
-0.479691
-0.53977
-0.571204
-1.33816
-1.2902
-1.17053
-0.970513
-0.726499
-0.498329
-0.339849
-0.284528
-0.323636
-0.382476
-1.27488
-1.21934
-1.08155
-0.864402
-0.599665
-0.359899
-0.190093
-0.117853
-0.152806
-0.229146
-1.14564
-1.0839
-0.938308
-0.71953
-0.45901
-0.22131
-0.0667013
0.0042712
-0.0279229
-0.113199
-0.989027
-0.931352
-0.792714
-0.580053
-0.326858
-0.103966
0.032817
0.0906951
0.062173
-0.0293865
-0.843196
-0.789649
-0.656555
-0.462151
-0.230073
-0.036229
0.108808
0.182368
0.128798
0.0263055
-0.725771
-0.67735
-0.557408
-0.37809
-0.166931
0.0100853
0.134992
0.211587
0.169226
0.0617112
-0.642382
-0.598362
-0.492609
-0.322168
-0.122353
0.0525815
0.160148
0.204561
0.168011
0.0801052
-0.59022
-0.553913
-0.455791
-0.289943
-0.105017
0.0453171
0.155955
0.209565
0.170966
0.0932638
-0.563839
-0.536525
-0.440167
-0.278535
-0.110565
0.0303793
0.144244
0.192154
0.159509
0.0934144
-0.557578
-0.539454
-0.441268
-0.2805
-0.122853
0.00991814
0.121566
0.166988
0.135226
0.0881704
-0.592416
-0.586767
-0.493562
-0.337423
-0.187581
-0.0637255
0.0530788
0.125661
0.122603
0.101825
-0.690114
-0.700686
-0.605839
-0.437299
-0.272406
-0.135225
-0.00983326
0.084716
0.120522
0.110118
-0.853052
-0.875971
-0.770153
-0.570221
-0.37215
-0.213188
-0.0812291
0.0224307
0.0885225
0.10067
-1.02019
-1.04639
-0.93722
-0.72123
-0.499797
-0.319798
-0.177187
-0.0641326
0.0290018
0.079418
-1.10676
-1.14293
-1.04951
-0.854224
-0.636856
-0.445539
-0.289166
-0.159696
-0.0403629
0.0453838
-1.04718
-1.10225
-1.04786
-0.898076
-0.714882
-0.534059
-0.373878
-0.230843
-0.0996645
0.00312391
-0.877921
-0.934065
-0.91217
-0.813598
-0.67718
-0.528532
-0.385762
-0.25212
-0.133563
-0.0331634
-0.674661
-0.716144
-0.704267
-0.644791
-0.551934
-0.446396
-0.337813
-0.233991
-0.144812
-0.056497
-0.504985
-0.528699
-0.519907
-0.481185
-0.418673
-0.349227
-0.275006
-0.202295
-0.139795
-0.0695286
-0.393734
-0.400422
-0.390709
-0.361696
-0.315942
-0.265835
-0.214869
-0.164247
-0.121538
-0.0699526
-0.334708
-0.323637
-0.306828
-0.280322
-0.244079
-0.204178
-0.166144
-0.130307
-0.0996749
-0.0638793
-0.310859
-0.284855
-0.254974
-0.2248
-0.191139
-0.156348
-0.124331
-0.0981917
-0.0754743
-0.0499091
-0.321941
-0.279558
-0.233525
-0.193407
-0.156936
-0.12293
-0.0935668
-0.0713744
-0.0537894
-0.0344807
-0.375676
-0.307644
-0.240557
-0.183805
-0.138742
-0.10073
-0.0709489
-0.0493229
-0.0346783
-0.0194909
-0.481438
-0.377241
-0.279013
-0.197549
-0.135415
-0.088207
-0.0552879
-0.0325141
-0.0195974
-0.00780945
-0.613578
-0.47034
-0.337243
-0.228367
-0.146223
-0.0871063
-0.0467537
-0.0184647
-0.00315619
0.00626885
-0.701668
-0.539815
-0.388194
-0.261282
-0.163755
-0.0943286
-0.0496754
-0.0160218
0.00426903
0.017695
-0.678518
-0.527043
-0.386102
-0.264259
-0.168394
-0.0955992
-0.0652474
-0.0227395
0.00387122
0.021128
-0.559142
-0.447085
-0.341818
-0.24709
-0.167073
-0.104294
-0.0610264
-0.0280052
-0.00391704
0.0132425
-0.0580831
-0.0297697
-0.0101586
0.0030331
0.0724158
0.0488139
0.0341829
0.0290689
0.0246059
0.0224333
0.0238792
0.0248176
0.027106
0.0303783
0.0312631
0.0326862
0.0353995
0.0366314
0.0375772
0.039006
0.0400379
0.0408144
0.0416209
0.0422836
0.0427905
0.0432337
0.0437077
0.0439211
0.0441298
0.0443134
0.0443846
0.0444138
0.0443668
0.0443901
0.0904444
0.0689007
0.0511473
0.0393242
0.0311601
0.0271551
0.0257759
0.025899
0.027847
0.0294596
0.0305078
0.0326988
0.0347089
0.0358555
0.0372286
0.0386073
0.0395936
0.0405067
0.0413491
0.0420326
0.042555
0.0430724
0.0435191
0.0437436
0.0440025
0.0441727
0.0442528
0.0442984
0.0442416
0.0442681
0.0970701
0.0777713
0.0596982
0.0465428
0.0372928
0.0314251
0.0285258
0.0280949
0.0286688
0.0293451
0.0308771
0.0328812
0.0342882
0.035605
0.0371037
0.0383128
0.0392966
0.0402771
0.0410939
0.0417751
0.0423211
0.0428821
0.043285
0.0435595
0.0438519
0.0440103
0.0441101
0.0441679
0.0441052
0.0441347
0.0931482
0.0752733
0.0597799
0.0491118
0.0406192
0.0343968
0.0314584
0.0303041
0.0296893
0.03017
0.0316828
0.0330496
0.0342225
0.0356462
0.0369828
0.0380471
0.0390268
0.0399858
0.0407599
0.041425
0.042006
0.0425725
0.0429542
0.0433024
0.0436186
0.0437919
0.0439292
0.044005
0.0439532
0.0439888
0.0804326
0.0668692
0.0565835
0.0491346
0.0420991
0.0371575
0.0345502
0.0325982
0.0317003
0.0320057
0.0328568
0.0336669
0.0346789
0.035876
0.0369014
0.0378372
0.0387627
0.0396134
0.0403367
0.0409838
0.0416059
0.0421452
0.0425502
0.0429702
0.0433036
0.043519
0.0437033
0.043806
0.0437846
0.0438301
0.0567824
0.0539937
0.0517564
0.0477977
0.0431575
0.0400704
0.0378047
0.0351689
0.0345401
0.0343035
0.0344682
0.0349042
0.0356208
0.0363745
0.0370967
0.0378635
0.0386528
0.0393416
0.0399961
0.0406213
0.0412468
0.0417305
0.0421767
0.0426308
0.0429735
0.0432369
0.0434607
0.0435912
0.0436077
0.0436633
0.0287632
0.0385401
0.0445696
0.045007
0.0444062
0.0426969
0.0404765
0.0387996
0.0380155
0.037256
0.0368989
0.0369085
0.0371503
0.0373995
0.0378245
0.0383464
0.0389005
0.0394146
0.039954
0.0405424
0.0410876
0.0415111
0.0419745
0.0423994
0.0427301
0.0430099
0.0432427
0.043387
0.04343
0.0434907
0.00166575
0.0215304
0.0350359
0.0399493
0.0431214
0.0435452
0.0424405
0.041942
0.0409096
0.0400127
0.0395102
0.0392638
0.0389937
0.0389224
0.039052
0.0392774
0.0395619
0.0399172
0.0403056
0.0407941
0.0411828
0.0415534
0.0419723
0.0423185
0.0426151
0.042869
0.0430761
0.0432121
0.043258
0.0433154
-0.0186605
0.00648862
0.0240537
0.0328124
0.0404625
0.0426909
0.0435991
0.0439591
0.0432287
0.0425305
0.0419774
0.0414405
0.0408798
0.0405955
0.0404116
0.0403543
0.040438
0.0406066
0.0408605
0.0411968
0.0414377
0.0417594
0.0420819
0.0423397
0.042584
0.0427819
0.042943
0.0430555
0.0430868
0.0431357
-0.0322291
-0.00485641
0.0136738
0.0255185
0.0355683
0.0395477
0.042658
0.0440874
0.0441859
0.0440422
0.0436681
0.0430304
0.0423876
0.0419489
0.0414654
0.0412162
0.0411613
0.0411416
0.0412825
0.0414587
0.0416228
0.0418855
0.0421105
0.0423171
0.0425217
0.042675
0.0428014
0.0428934
0.0429096
0.0429511
-0.0362254
-0.00942275
0.00759182
0.0222657
0.0318641
0.0367263
0.0413289
0.0434062
0.0441631
0.0444712
0.0442895
0.0437339
0.0431071
0.0425552
0.0419824
0.0416191
0.0414308
0.0413043
0.041367
0.0414398
0.0415901
0.0418001
0.0419762
0.0421702
0.0423557
0.0424938
0.0426125
0.0427018
0.0427182
0.0427591
-0.0332813
-0.00910541
0.00602471
0.021399
0.0298042
0.0358129
0.0410924
0.0430467
0.044237
0.0448173
0.0446482
0.0440472
0.0433704
0.0426874
0.0420541
0.0416209
0.0413178
0.0411626
0.0411567
0.0411867
0.0413308
0.0415108
0.0416937
0.0419019
0.0421003
0.0422527
0.0423855
0.042486
0.0425154
0.0425605
-0.0231288
-0.00370821
0.0108046
0.0249192
0.0301772
0.0372023
0.0412139
0.0429143
0.0443366
0.0449075
0.0446651
0.0440963
0.0433902
0.0426614
0.0419657
0.0414706
0.0411107
0.0409502
0.0408943
0.0409304
0.0410612
0.0412266
0.041423
0.041633
0.0418388
0.0420035
0.0421512
0.0422629
0.042307
0.0423563
-0.0108989
0.00496822
0.0186036
0.03135
0.0344881
0.0421849
0.0436615
0.0450612
0.0462234
0.0461368
0.0455131
0.0446374
0.0437536
0.0428455
0.0420743
0.0415106
0.0411368
0.0409162
0.040816
0.0408327
0.0409276
0.0410731
0.0412624
0.0414595
0.0416541
0.0418112
0.0419541
0.0420575
0.0421019
0.0421484
0.000337578
0.0137373
0.0245913
0.0355735
0.0385854
0.0453755
0.0459499
0.0476374
0.0479993
0.0474274
0.0465606
0.0455576
0.0444563
0.0433768
0.0424819
0.0418283
0.0413917
0.041115
0.0409744
0.0409465
0.0409888
0.0410927
0.0412332
0.0413888
0.0415379
0.0416644
0.041784
0.041866
0.0418995
0.0419378
0.0096792
0.0213872
0.0294406
0.0387149
0.0419055
0.047989
0.0484001
0.0500226
0.0495528
0.048506
0.0473169
0.0460429
0.0448054
0.0436477
0.0427265
0.0420149
0.0415742
0.0412355
0.0410482
0.0409671
0.0409722
0.0410506
0.04116
0.0412926
0.0414106
0.0415159
0.0416072
0.04167
0.0416909
0.0417208
0.0199494
0.0313179
0.038853
0.0433471
0.0475215
0.0501392
0.0499815
0.0507118
0.0498281
0.0488564
0.0475188
0.0460691
0.0446232
0.0433838
0.0423857
0.0416279
0.0413047
0.0409777
0.0408015
0.0407244
0.0407415
0.0408228
0.0409313
0.0410567
0.0411769
0.0412883
0.0413764
0.0414449
0.041467
0.0414959
0.0301021
0.0407679
0.048709
0.050254
0.0561974
0.054734
0.0533558
0.0518031
0.0497054
0.0480684
0.0464868
0.0450598
0.0437629
0.042632
0.0416549
0.0408346
0.0408656
0.0404537
0.0402881
0.0402471
0.0403173
0.0404388
0.0405842
0.0407367
0.0408896
0.0410164
0.0411141
0.0411959
0.0412264
0.0412592
0.0337729
0.0419572
0.0486777
0.0486812
0.0539363
0.0528989
0.0530949
0.0519259
0.0501172
0.0480843
0.0460792
0.0442577
0.042824
0.0416848
0.0408413
0.0402722
0.0400925
0.0399101
0.0398494
0.039885
0.0399969
0.0401317
0.0402883
0.0404522
0.0406166
0.0407496
0.0408599
0.0409479
0.0409833
0.0410169
0.0331512
0.0387679
0.0471195
0.0463488
0.0498969
0.0481476
0.0484908
0.0477944
0.0469314
0.045834
0.0445668
0.0433343
0.0421555
0.041148
0.040446
0.0399695
0.0397563
0.0396625
0.0396531
0.0397352
0.0398623
0.0400072
0.0401634
0.0403186
0.0404538
0.0405612
0.0406495
0.0407166
0.040741
0.0407676
0.0153475
0.0226259
0.0275458
0.0309286
0.0374857
0.0420979
0.0439272
0.0437942
0.0432975
0.0425509
0.0417728
0.0409564
0.0403108
0.0398418
0.0395366
0.0393447
0.0393405
0.0394138
0.0395244
0.0396577
0.0397977
0.0399367
0.0400774
0.0402029
0.040307
0.0403936
0.0404549
0.0404967
0.0405021
0.0405163
0.00846673
0.010679
-0.0443845
-0.024699
-0.0143707
-0.00809543
0.000122267
0.00857182
0.0132762
0.018092
0.0249539
0.0277856
-0.0251714
-0.00876307
-0.00557062
-0.00282478
0.00536849
0.0121152
0.0149968
0.0209929
0.0268716
0.0273501
0.0301917
0.0344835
0.0354554
0.0369104
0.0390851
0.040102
0.0410764
0.0421061
0.0427946
0.0433765
0.0439018
0.0442925
0.0445588
0.0448574
0.0449522
0.0449879
0.0450228
0.0449649
0.044881
0.0448803
-0.00162948
0.00609532
0.00102654
0.00253337
0.0116054
0.0155532
0.0174715
0.0241907
0.0269723
0.027224
0.0320885
0.034789
0.0349368
0.0373049
0.0390815
0.0397787
0.040938
0.0419033
0.0425378
0.0431326
0.0436727
0.0440233
0.0443432
0.0446586
0.0447431
0.0448275
0.0448766
0.0448279
0.0447552
0.0447568
0.0247673
0.0199001
0.00821046
0.0101635
0.017556
0.018196
0.0208536
0.0260739
0.0263074
0.0290001
0.0336099
0.0339591
0.0350569
0.0377836
0.0387341
0.0395295
0.0408034
0.0416009
0.0422338
0.0428489
0.0433813
0.0437137
0.0441096
0.0444033
0.0445051
0.044645
0.0447062
0.0446816
0.0446248
0.0446339
0.0510427
0.0331457
0.0184235
0.0190809
0.0209638
0.0195097
0.0227556
0.0253953
0.0264065
0.0307149
0.0328988
0.0329965
0.0355433
0.0375215
0.0381029
0.0393147
0.0404977
0.0412065
0.0419244
0.0425635
0.0430751
0.0434421
0.0438977
0.0441416
0.04429
0.0444671
0.0445345
0.0445393
0.0444935
0.044511
)
;

boundaryField
{
    outlet
    {
        type            fixedValue;
        value           nonuniform 0();
    }
    upperWall
    {
        type            symmetryPlane;
    }
    lowerWall
    {
        type            symmetryPlane;
    }
    inlet
    {
        type            zeroGradient;
    }
    cylinder
    {
        type            zeroGradient;
    }
    frontAndBack
    {
        type            empty;
    }
    procBoundary2to1
    {
        type            processor;
        value           nonuniform List<scalar> 
63
(
-0.695297
-0.695297
-0.483764
-0.369065
-0.369065
-0.281856
-0.220435
-0.220435
-0.18746
-0.150298
-0.118345
-0.118345
-0.109593
-0.0871103
-0.0662738
-0.0662738
-1.00804
-1.01533
-1.01533
-0.940924
-0.839772
-0.737984
-0.742311
-0.742311
-0.80452
-0.80452
-0.895018
-0.895018
-0.948049
-0.948049
-0.887382
-0.887382
-0.0582287
-0.0356762
-0.0197192
-0.00994858
-0.0019268
0.00590922
0.0118144
0.0162655
0.0223283
0.0270704
0.0292777
0.0292777
0.0332661
0.0356658
0.0367989
0.0387737
0.0401906
0.0411284
0.0421336
0.0429077
0.0435109
0.04403
0.0444566
0.0447087
0.0449722
0.0450951
0.045112
0.0451396
0.0450896
0.0450045
0.0450066
)
;
    }
    procBoundary2to3
    {
        type            processor;
        value           nonuniform List<scalar> 
43
(
-0.428621
-0.359493
-0.288286
-0.216649
-0.150795
-0.0972576
-0.0972576
-0.0564413
-0.0264925
-0.00798928
0.00255871
0.00255871
0.00871837
0.00990383
0.0194186
0.0290218
0.0352983
0.0386855
0.0399452
0.0401616
0.0397765
0.0392939
0.0387458
0.0385151
0.0384202
0.0385275
0.0387296
0.0389512
0.0391738
0.0393992
0.0395896
0.0397621
0.0399161
0.0400321
0.0401249
0.0401877
0.0402245
0.0402505
0.0402452
0.0402532
0.0110085
0.00871837
0.00855516
)
;
    }
    procBoundary2to6
    {
        type            processor;
        value           nonuniform List<scalar> 
37
(
-1.04344
-1.08943
-1.14236
-1.1963
-1.24976
-1.28847
-1.31054
-1.32616
-1.32024
-1.25652
-1.12657
-0.973468
-0.832168
-0.715988
-0.631427
-0.576301
-0.543016
-0.522307
-0.538956
-0.609302
-0.738207
-0.881039
-0.955144
-0.904336
-0.76164
-0.593356
-0.458462
-0.374214
-0.33256
-0.323523
-0.353694
-0.432925
-0.574604
-0.744191
-0.851906
-0.817678
-0.663989
)
;
    }
}


// ************************************************************************* //
