/*--------------------------------*- C++ -*----------------------------------*\
| =========                 |                                                 |
| \\      /  F ield         | OpenFOAM: The Open Source CFD Toolbox           |
|  \\    /   O peration     | Version:                                        |
|   \\  /    A nd           | Website:  www.openfoam.com                      |
|    \\/     M anipulation  |                                                 |
\*---------------------------------------------------------------------------*/
FoamFile
{
    version     2.0;
    format      ascii;
    class       volScalarField;
    location    "0.6";
    object      p;
}
// * * * * * * * * * * * * * * * * * * * * * * * * * * * * * * * * * * * * * //

dimensions      [0 2 -2 0 0 0 0];


internalField   nonuniform List<scalar> 
400
(
0.130221
0.123279
0.116371
0.109495
0.10265
0.0958354
0.0890497
0.0822923
0.075562
0.0688581
0.0621797
0.055526
0.0488963
0.0422897
0.0357061
0.0291438
0.0226057
0.0160837
0.00959951
0.00310065
0.13029
0.123346
0.116435
0.109557
0.10271
0.0958928
0.089105
0.0823455
0.0756133
0.0689075
0.0622273
0.0555718
0.0489405
0.0423324
0.0357475
0.0291838
0.0226451
0.0161215
0.00964095
0.0031246
0.130349
0.123402
0.116489
0.109609
0.10276
0.095941
0.0891514
0.0823901
0.0756562
0.0689488
0.0622671
0.0556102
0.0489774
0.0423679
0.0357818
0.0292166
0.0226775
0.0161502
0.00967255
0.00313388
0.130395
0.123447
0.116532
0.10965
0.1028
0.0959791
0.0891881
0.0824254
0.0756901
0.0689814
0.0622983
0.0556402
0.0490063
0.0423955
0.0358084
0.0292414
0.0227017
0.0161698
0.00969293
0.00313546
0.130437
0.123487
0.116571
0.109687
0.102835
0.096013
0.0892206
0.0824566
0.07572
0.06901
0.0623258
0.0556665
0.0490314
0.0424194
0.0358311
0.0292623
0.0227216
0.0161847
0.00970731
0.00313601
0.130476
0.123525
0.116607
0.109722
0.102868
0.0960448
0.0892511
0.0824858
0.075748
0.0690368
0.0623514
0.0556909
0.0490546
0.0424413
0.0358517
0.0292809
0.0227388
0.0161972
0.00971813
0.00313809
0.130515
0.123562
0.116642
0.109755
0.1029
0.0960759
0.0892808
0.0825142
0.0757751
0.0690628
0.0623761
0.0557144
0.0490768
0.0424621
0.035871
0.0292983
0.0227541
0.0162087
0.00972664
0.00314311
0.130554
0.123599
0.116678
0.10979
0.102933
0.0961073
0.0893108
0.0825429
0.0758026
0.069089
0.0624009
0.055738
0.0490989
0.0424828
0.0358899
0.0293153
0.0227686
0.0162205
0.00973386
0.0031521
0.130595
0.123639
0.116716
0.109826
0.102968
0.0961402
0.0893423
0.082573
0.0758312
0.0691162
0.0624268
0.0557624
0.0491217
0.0425042
0.0359093
0.029333
0.0227832
0.0162337
0.00974057
0.00316562
0.130639
0.123681
0.116756
0.109864
0.103004
0.0961752
0.0893757
0.0826049
0.0758616
0.0691452
0.0624542
0.0557884
0.049146
0.042527
0.0359297
0.0293521
0.0227983
0.016249
0.00974728
0.00318371
0.130686
0.123725
0.116799
0.109905
0.103043
0.0962124
0.0894112
0.0826388
0.0758939
0.069176
0.0624833
0.055816
0.0491717
0.0425513
0.0359514
0.0293727
0.0228144
0.0162666
0.00975426
0.00320598
0.130735
0.123772
0.116843
0.109948
0.103084
0.0962516
0.0894486
0.0826745
0.0759279
0.0692084
0.0625139
0.0558452
0.0491988
0.042577
0.0359742
0.0293949
0.0228314
0.0162865
0.00976159
0.00323167
0.130786
0.12382
0.11689
0.109992
0.103126
0.0962919
0.0894871
0.0827113
0.0759629
0.0692418
0.0625456
0.0558753
0.0492268
0.0426037
0.0359979
0.0294182
0.0228492
0.0163081
0.0097692
0.00325973
0.130836
0.123869
0.116936
0.110036
0.103169
0.0963322
0.0895256
0.082748
0.075998
0.0692752
0.0625772
0.0559054
0.0492548
0.0426305
0.0360217
0.029442
0.0228671
0.0163306
0.00977691
0.00328887
0.130885
0.123915
0.11698
0.110078
0.103209
0.096371
0.0895627
0.0827835
0.0760317
0.0693075
0.0626078
0.0559346
0.049282
0.0426566
0.0360448
0.0294654
0.0228845
0.0163531
0.00978444
0.00331766
0.13093
0.123958
0.117021
0.110118
0.103246
0.0964067
0.0895968
0.0828162
0.0760629
0.0693372
0.062636
0.0559615
0.0493071
0.0426808
0.0360662
0.0294871
0.0229007
0.0163743
0.00979146
0.00334459
0.130968
0.123995
0.117056
0.110151
0.103279
0.0964377
0.0896265
0.0828445
0.07609
0.0693631
0.0626605
0.0559849
0.0493289
0.0427018
0.0360848
0.0295063
0.0229149
0.016393
0.00979763
0.00336825
0.130999
0.124024
0.117085
0.110178
0.103305
0.0964625
0.0896502
0.0828672
0.0761116
0.0693838
0.0626801
0.0560037
0.0493463
0.0427187
0.0360998
0.0295217
0.0229262
0.0164082
0.00980262
0.0033873
0.131021
0.124045
0.117104
0.110197
0.103323
0.0964798
0.0896668
0.082883
0.0761267
0.0693982
0.0626937
0.0560168
0.0493585
0.0427306
0.0361102
0.0295324
0.0229342
0.0164189
0.0098061
0.00340066
0.131032
0.124056
0.117114
0.110207
0.103332
0.0964887
0.0896753
0.0828912
0.0761344
0.0694056
0.0627008
0.0560235
0.0493647
0.0427366
0.0361155
0.029538
0.0229383
0.0164244
0.00980789
0.00340753
)
;

boundaryField
{
    fixedWalls
    {
        type            zeroGradient;
    }
    inlet
    {
        type            zeroGradient;
    }
    outlet
    {
        type            fixedValue;
        value           uniform 0;
    }
    frontAndBack
    {
        type            empty;
    }
    procBoundary3to2
    {
        type            processor;
        value           nonuniform List<scalar> 
20
(
0.137197
0.137269
0.13733
0.137378
0.137422
0.137463
0.137503
0.137544
0.137587
0.137634
0.137683
0.137734
0.137787
0.13784
0.137891
0.137937
0.137978
0.13801
0.138033
0.138044
)
;
    }
    procBoundary3to7
    {
        type            processor;
        value           nonuniform List<scalar> 
20
(
0.131032
0.124056
0.117114
0.110207
0.103332
0.0964887
0.0896752
0.0828911
0.0761344
0.0694056
0.0627007
0.0560234
0.0493648
0.0427366
0.0361155
0.029538
0.0229383
0.0164245
0.00980793
0.00340753
)
;
    }
}


// ************************************************************************* //
