/*--------------------------------*- C++ -*----------------------------------*\
| =========                 |                                                 |
| \\      /  F ield         | OpenFOAM: The Open Source CFD Toolbox           |
|  \\    /   O peration     | Version:                                        |
|   \\  /    A nd           | Website:  www.openfoam.com                      |
|    \\/     M anipulation  |                                                 |
\*---------------------------------------------------------------------------*/
FoamFile
{
    version     2.0;
    format      ascii;
    class       surfaceScalarField;
    location    "0.6";
    object      phi;
}
// * * * * * * * * * * * * * * * * * * * * * * * * * * * * * * * * * * * * * //

dimensions      [0 3 -1 0 0 0 0];
oriented        oriented;


internalField   nonuniform List<scalar> 
760
(
1.98653e-06
4.32713e-09
1.98236e-06
4.16553e-09
1.97835e-06
4.01059e-09
1.97449e-06
3.86187e-09
1.97077e-06
3.71915e-09
1.96719e-06
3.58205e-09
1.96374e-06
3.45063e-09
1.96041e-06
3.32441e-09
1.95721e-06
3.20363e-09
1.95412e-06
3.08783e-09
1.95114e-06
2.97754e-09
1.94827e-06
2.8728e-09
1.9455e-06
2.77282e-09
1.94281e-06
2.68326e-09
1.94022e-06
2.59176e-09
1.93768e-06
2.5401e-09
1.93524e-06
2.44436e-09
1.93266e-06
2.57468e-09
1.93023e-06
2.43619e-09
4.2981e-09
5.74259e-06
1.62277e-08
5.73114e-06
1.56182e-08
5.72012e-06
1.50337e-08
5.7095e-06
1.44728e-08
5.69929e-06
1.39345e-08
5.68945e-06
1.34177e-08
5.67998e-06
1.29221e-08
5.67086e-06
1.24464e-08
5.66207e-06
1.1991e-08
5.65361e-06
1.15544e-08
5.64545e-06
1.11381e-08
5.63758e-06
1.07415e-08
5.62998e-06
1.03647e-08
5.62265e-06
1.00195e-08
5.61556e-06
9.68342e-09
5.60865e-06
9.44517e-09
5.60195e-06
9.14169e-09
5.5952e-06
9.3327e-09
5.58854e-06
9.08875e-09
1.19459e-08
9.27998e-06
3.45518e-08
9.26235e-06
3.32478e-08
9.24539e-06
3.19975e-08
9.22907e-06
3.07978e-08
9.21335e-06
2.96469e-08
9.19823e-06
2.8542e-08
9.18367e-06
2.74824e-08
9.16965e-06
2.64654e-08
9.15615e-06
2.54916e-08
9.14315e-06
2.45578e-08
9.13062e-06
2.36669e-08
9.11854e-06
2.28168e-08
9.1069e-06
2.20104e-08
9.09565e-06
2.1262e-08
9.08479e-06
2.05471e-08
9.07425e-06
1.99848e-08
9.06402e-06
1.93696e-08
9.05394e-06
1.94182e-08
9.04401e-06
1.90186e-08
2.16887e-08
1.2596e-05
5.80353e-08
1.25734e-05
5.58356e-08
1.25517e-05
5.37266e-08
1.25308e-05
5.17035e-08
1.25107e-05
4.97628e-08
1.24913e-05
4.79002e-08
1.24727e-05
4.6114e-08
1.24547e-05
4.43994e-08
1.24375e-05
4.27575e-08
1.24208e-05
4.11824e-08
1.24048e-05
3.96795e-08
1.23894e-05
3.8243e-08
1.23745e-05
3.68817e-08
1.23602e-05
3.56054e-08
1.23463e-05
3.43996e-08
1.23329e-05
3.33846e-08
1.23199e-05
3.2364e-08
1.23073e-05
3.20408e-08
1.22949e-05
3.13973e-08
3.31997e-08
1.56873e-05
8.52729e-08
1.56611e-05
8.20283e-08
1.56359e-05
7.89177e-08
1.56117e-05
7.59344e-08
1.55884e-05
7.3073e-08
1.5566e-05
7.0327e-08
1.55444e-05
6.76938e-08
1.55236e-05
6.5166e-08
1.55036e-05
6.27454e-08
1.54844e-05
6.0422e-08
1.54659e-05
5.82055e-08
1.5448e-05
5.60826e-08
1.54308e-05
5.40739e-08
1.54143e-05
5.21722e-08
1.53983e-05
5.03933e-08
1.53829e-05
4.88117e-08
1.53679e-05
4.73237e-08
1.53535e-05
4.64119e-08
1.53394e-05
4.54983e-08
4.6028e-08
1.85506e-05
1.14712e-07
1.85223e-05
1.10332e-07
1.84951e-05
1.06134e-07
1.84689e-05
1.02108e-07
1.84438e-05
9.82469e-08
1.84195e-05
9.45418e-08
1.83962e-05
9.09891e-08
1.83738e-05
8.75782e-08
1.83523e-05
8.43121e-08
1.83315e-05
8.11754e-08
1.83115e-05
7.81845e-08
1.82923e-05
7.53131e-08
1.82738e-05
7.26018e-08
1.82559e-05
7.00092e-08
1.82387e-05
6.76115e-08
1.82222e-05
6.53732e-08
1.82061e-05
6.33958e-08
1.81908e-05
6.17181e-08
1.81757e-05
6.05595e-08
5.96144e-08
2.1183e-05
1.44669e-07
2.11542e-05
1.3913e-07
2.11265e-05
1.3382e-07
2.10999e-05
1.28728e-07
2.10743e-05
1.23846e-07
2.10497e-05
1.19161e-07
2.1026e-05
1.14669e-07
2.10032e-05
1.10356e-07
2.09813e-05
1.06226e-07
2.09602e-05
1.02258e-07
2.09399e-05
9.84761e-08
2.09204e-05
9.48357e-08
2.09016e-05
9.14087e-08
2.08835e-05
8.80964e-08
2.0866e-05
8.5075e-08
2.08493e-05
8.21229e-08
2.0833e-05
7.96741e-08
2.08176e-05
7.71105e-08
2.08024e-05
7.57596e-08
7.32942e-08
2.35826e-05
1.73367e-07
2.3555e-05
1.66715e-07
2.35285e-05
1.60337e-07
2.3503e-05
1.54222e-07
2.34784e-05
1.48359e-07
2.34549e-05
1.42732e-07
2.34322e-05
1.37337e-07
2.34104e-05
1.32156e-07
2.33894e-05
1.27197e-07
2.33693e-05
1.22427e-07
2.33499e-05
1.17886e-07
2.33312e-05
1.13501e-07
2.33132e-05
1.09389e-07
2.32959e-05
1.0537e-07
2.32793e-05
1.01762e-07
2.32633e-05
9.80801e-08
2.32478e-05
9.52124e-08
2.32332e-05
9.17122e-08
2.32187e-05
9.02305e-08
8.63171e-08
2.5749e-05
1.99006e-07
2.57244e-05
1.91357e-07
2.57007e-05
1.84025e-07
2.56779e-05
1.76993e-07
2.5656e-05
1.70251e-07
2.5635e-05
1.63781e-07
2.56147e-05
1.57578e-07
2.55953e-05
1.51618e-07
2.55766e-05
1.45916e-07
2.55586e-05
1.40426e-07
2.55412e-05
1.35206e-07
2.55246e-05
1.30148e-07
2.55086e-05
1.25428e-07
2.54932e-05
1.20758e-07
2.54783e-05
1.16639e-07
2.54641e-05
1.1226e-07
2.54503e-05
1.09053e-07
2.54373e-05
1.04641e-07
2.54245e-05
1.03088e-07
9.78876e-08
2.76841e-05
2.1984e-07
2.76641e-05
2.11382e-07
2.76448e-05
2.03274e-07
2.76263e-05
1.95497e-07
2.76085e-05
1.8804e-07
2.75914e-05
1.80882e-07
2.7575e-05
1.74021e-07
2.75592e-05
1.67426e-07
2.7544e-05
1.61119e-07
2.75294e-05
1.55039e-07
2.75153e-05
1.49268e-07
2.75018e-05
1.43654e-07
2.74888e-05
1.38444e-07
2.74763e-05
1.33225e-07
2.74643e-05
1.28707e-07
2.74528e-05
1.23717e-07
2.74416e-05
1.2027e-07
2.74312e-05
1.15046e-07
2.74208e-05
1.13473e-07
1.07215e-07
2.93919e-05
2.34278e-07
2.9378e-05
2.25263e-07
2.93647e-05
2.16618e-07
2.93518e-05
2.08325e-07
2.93395e-05
2.00372e-07
2.93276e-05
1.92737e-07
2.93163e-05
1.85418e-07
2.93053e-05
1.78381e-07
2.92948e-05
1.71654e-07
2.92846e-05
1.6516e-07
2.92749e-05
1.59007e-07
2.92656e-05
1.52997e-07
2.92565e-05
1.47454e-07
2.92479e-05
1.41831e-07
2.92396e-05
1.37055e-07
2.92317e-05
1.31591e-07
2.9224e-05
1.28015e-07
2.92169e-05
1.22149e-07
2.92097e-05
1.20602e-07
1.13567e-07
3.08789e-05
2.4099e-07
3.08725e-05
2.31719e-07
3.08663e-05
2.22827e-07
3.08603e-05
2.14295e-07
3.08546e-05
2.06112e-07
3.0849e-05
1.98253e-07
3.08437e-05
1.90721e-07
3.08386e-05
1.83474e-07
3.08337e-05
1.7655e-07
3.0829e-05
1.69858e-07
3.08245e-05
1.63528e-07
3.08202e-05
1.57321e-07
3.0816e-05
1.5163e-07
3.08121e-05
1.45787e-07
3.08082e-05
1.40915e-07
3.08046e-05
1.35162e-07
3.08011e-05
1.31577e-07
3.07979e-05
1.25297e-07
3.07947e-05
1.23814e-07
1.16321e-07
3.21542e-05
2.39002e-07
3.21561e-05
2.29814e-07
3.2158e-05
2.21e-07
3.21597e-05
2.1254e-07
3.21614e-05
2.04425e-07
3.2163e-05
1.96629e-07
3.21646e-05
1.89157e-07
3.21661e-05
1.81965e-07
3.21675e-05
1.75096e-07
3.2169e-05
1.68448e-07
3.21703e-05
1.62172e-07
3.21716e-05
1.55993e-07
3.21729e-05
1.50361e-07
3.21742e-05
1.44515e-07
3.21754e-05
1.39722e-07
3.21766e-05
1.33902e-07
3.21778e-05
1.30429e-07
3.21791e-05
1.24006e-07
3.21803e-05
1.22624e-07
1.15017e-07
3.32288e-05
2.27781e-07
3.32396e-05
2.19035e-07
3.325e-05
2.10642e-07
3.32599e-05
2.02583e-07
3.32695e-05
1.94852e-07
3.32787e-05
1.87422e-07
3.32876e-05
1.80301e-07
3.32961e-05
1.73443e-07
3.33043e-05
1.66896e-07
3.33122e-05
1.60552e-07
3.33198e-05
1.54573e-07
3.33271e-05
1.48664e-07
3.33342e-05
1.4331e-07
3.3341e-05
1.37693e-07
3.33475e-05
1.33162e-07
3.33539e-05
1.27521e-07
3.33601e-05
1.24279e-07
3.33661e-05
1.18011e-07
3.33719e-05
1.16761e-07
1.09394e-07
3.41153e-05
2.07297e-07
3.4135e-05
1.99348e-07
3.4154e-05
1.91717e-07
3.41722e-05
1.84389e-07
3.41896e-05
1.77356e-07
3.42065e-05
1.70596e-07
3.42227e-05
1.64117e-07
3.42382e-05
1.57874e-07
3.42532e-05
1.51917e-07
3.42676e-05
1.46137e-07
3.42815e-05
1.40699e-07
3.42949e-05
1.35306e-07
3.43077e-05
1.30445e-07
3.43201e-05
1.25298e-07
3.43321e-05
1.21203e-07
3.43436e-05
1.16e-07
3.43548e-05
1.13102e-07
3.43655e-05
1.07292e-07
3.4376e-05
1.06205e-07
9.94244e-08
3.48271e-05
1.78042e-07
3.48552e-05
1.71224e-07
3.48823e-05
1.64678e-07
3.49083e-05
1.58389e-07
3.49333e-05
1.52353e-07
3.49573e-05
1.4655e-07
3.49804e-05
1.40987e-07
3.50027e-05
1.35624e-07
3.50241e-05
1.3051e-07
3.50447e-05
1.25541e-07
3.50645e-05
1.20874e-07
3.50836e-05
1.16231e-07
3.5102e-05
1.12065e-07
3.51197e-05
1.0762e-07
3.51367e-05
1.04124e-07
3.51531e-05
9.96078e-08
3.51691e-05
9.71553e-08
3.51843e-05
9.20973e-08
3.51993e-05
9.11959e-08
8.53268e-08
3.53773e-05
1.41028e-07
3.54128e-05
1.35635e-07
3.54471e-05
1.30455e-07
3.548e-05
1.25478e-07
3.55116e-05
1.20701e-07
3.55421e-05
1.16105e-07
3.55714e-05
1.11701e-07
3.55995e-05
1.07453e-07
3.56266e-05
1.03404e-07
3.56527e-05
9.94667e-08
3.56778e-05
9.57729e-08
3.5702e-05
9.20893e-08
3.57252e-05
8.87957e-08
3.57476e-05
8.52594e-08
3.57692e-05
8.25044e-08
3.57899e-05
7.88992e-08
3.58101e-05
7.69798e-08
3.58293e-05
7.29331e-08
3.58482e-05
7.22389e-08
6.75675e-08
3.57779e-05
9.77317e-08
3.58195e-05
9.39987e-08
3.58596e-05
9.04134e-08
3.58981e-05
8.69674e-08
3.59351e-05
8.3659e-08
3.59707e-05
8.04762e-08
3.6005e-05
7.74257e-08
3.6038e-05
7.44834e-08
3.60697e-05
7.16791e-08
3.61002e-05
6.89502e-08
3.61296e-05
6.63931e-08
3.61578e-05
6.38383e-08
3.61851e-05
6.15598e-08
3.62112e-05
5.91027e-08
3.62365e-05
5.72023e-08
3.62608e-05
5.46912e-08
3.62844e-05
5.33724e-08
3.63067e-05
5.05508e-08
3.63289e-05
5.0081e-08
4.68353e-08
3.60389e-05
5.00178e-08
3.60848e-05
4.81101e-08
3.6129e-05
4.62769e-08
3.61714e-05
4.45156e-08
3.62123e-05
4.28246e-08
3.62515e-05
4.11972e-08
3.62893e-05
3.96379e-08
3.63257e-05
3.8134e-08
3.63606e-05
3.67008e-08
3.63943e-05
3.53057e-08
3.64267e-05
3.39997e-08
3.64578e-05
3.26934e-08
3.64879e-05
3.15305e-08
3.65167e-05
3.02727e-08
3.65446e-05
2.9305e-08
3.65713e-05
2.80184e-08
3.65973e-05
2.73489e-08
3.66219e-05
2.59019e-08
3.66463e-05
2.5667e-08
2.40087e-08
3.61676e-05
3.62157e-05
3.62619e-05
3.63064e-05
3.63492e-05
3.63904e-05
3.643e-05
3.64681e-05
3.65047e-05
3.654e-05
3.6574e-05
3.66066e-05
3.66381e-05
3.66683e-05
3.66975e-05
3.67255e-05
3.67527e-05
3.67786e-05
3.68041e-05
)
;

boundaryField
{
    fixedWalls
    {
        type            calculated;
        value           uniform 0;
    }
    inlet
    {
        type            calculated;
        value           nonuniform 0();
    }
    outlet
    {
        type            calculated;
        value           nonuniform List<scalar> 
20
(
1.92593e-06
5.58089e-06
9.03426e-06
1.22834e-05
1.53266e-05
1.81621e-05
2.07887e-05
2.32057e-05
2.54129e-05
2.74115e-05
2.92034e-05
3.0792e-05
3.21816e-05
3.33776e-05
3.4386e-05
3.52134e-05
3.5866e-05
3.63496e-05
3.66692e-05
3.6828e-05
)
;
    }
    frontAndBack
    {
        type            empty;
        value           nonuniform 0();
    }
    procBoundary3to2
    {
        type            processor;
        value           nonuniform List<scalar> 
20
(
-1.99085e-06
-5.75449e-06
-9.29831e-06
-1.26195e-05
-1.57146e-05
-1.85801e-05
-2.12129e-05
-2.36113e-05
-2.57747e-05
-2.77049e-05
-2.94063e-05
-3.08856e-05
-3.21522e-05
-3.32176e-05
-3.40949e-05
-3.47978e-05
-3.53402e-05
-3.57346e-05
-3.59912e-05
-3.61176e-05
)
;
    }
    procBoundary3to7
    {
        type            processor;
        value           nonuniform List<scalar> 
20
(
2.39284e-11
2.55224e-11
2.74669e-11
2.85705e-11
3.09463e-11
3.29388e-11
3.71261e-11
3.99816e-11
4.23706e-11
4.57163e-11
4.95114e-11
5.36712e-11
5.63215e-11
5.98647e-11
6.52968e-11
7.00562e-11
7.57021e-11
8.00962e-11
8.53952e-11
9.8855e-11
)
;
    }
}


// ************************************************************************* //
