/*--------------------------------*- C++ -*----------------------------------*\
| =========                 |                                                 |
| \\      /  F ield         | OpenFOAM: The Open Source CFD Toolbox           |
|  \\    /   O peration     | Version:                                        |
|   \\  /    A nd           | Website:  www.openfoam.com                      |
|    \\/     M anipulation  |                                                 |
\*---------------------------------------------------------------------------*/
FoamFile
{
    version     2.0;
    format      ascii;
    class       volVectorField;
    location    "0.6";
    object      U;
}
// * * * * * * * * * * * * * * * * * * * * * * * * * * * * * * * * * * * * * //

dimensions      [0 1 -1 0 0 0 0];


internalField   nonuniform List<vector> 
400
(
(0.0795461 2.88661e-05 0)
(0.0793763 2.77984e-05 0)
(0.0792128 2.67748e-05 0)
(0.0790554 2.57915e-05 0)
(0.0789039 2.48476e-05 0)
(0.0787579 2.39408e-05 0)
(0.0786173 2.30717e-05 0)
(0.0784818 2.22363e-05 0)
(0.0783513 2.14381e-05 0)
(0.0782255 2.06729e-05 0)
(0.0781043 1.99455e-05 0)
(0.0779873 1.92567e-05 0)
(0.0778745 1.8598e-05 0)
(0.0777653 1.80262e-05 0)
(0.0776601 1.74133e-05 0)
(0.0775571 1.71787e-05 0)
(0.0774589 1.64758e-05 0)
(0.0773563 1.80789e-05 0)
(0.0772661 1.71898e-05 0)
(0.0770935 3.79612e-05 0)
(0.229937 0.000173396 0)
(0.22947 0.000166913 0)
(0.229021 0.000160697 0)
(0.228589 0.00015473 0)
(0.228172 0.000149003 0)
(0.227771 0.000143504 0)
(0.227385 0.00013823 0)
(0.227014 0.000133168 0)
(0.226655 0.000128323 0)
(0.226311 0.000123679 0)
(0.225978 0.000119255 0)
(0.225658 0.000115049 0)
(0.225349 0.000111048 0)
(0.22505 0.000107431 0)
(0.224762 0.000103839 0)
(0.224481 0.000101592 0)
(0.224213 9.81888e-05 0)
(0.223936 0.000102108 0)
(0.223699 9.89459e-05 0)
(0.223306 0.000150105 0)
(0.371559 0.000476223 0)
(0.37084 0.000458307 0)
(0.370149 0.000441127 0)
(0.369483 0.000424642 0)
(0.368843 0.000408823 0)
(0.368226 0.000393636 0)
(0.367633 0.000379072 0)
(0.367061 0.000365092 0)
(0.366511 0.000351709 0)
(0.365981 0.000338879 0)
(0.365471 0.000326641 0)
(0.364979 0.000314979 0)
(0.364505 0.000303911 0)
(0.364047 0.000293716 0)
(0.363606 0.000283898 0)
(0.363176 0.000276594 0)
(0.362768 0.000268014 0)
(0.362344 0.000271317 0)
(0.361998 0.000265296 0)
(0.361439 0.000324027 0)
(0.5043 0.00090237 0)
(0.503379 0.000868258 0)
(0.502493 0.000835549 0)
(0.501641 0.00080417 0)
(0.500821 0.000774066 0)
(0.500032 0.00074517 0)
(0.499272 0.000717457 0)
(0.498541 0.000690858 0)
(0.497837 0.000665388 0)
(0.49716 0.00064096 0)
(0.496507 0.000617654 0)
(0.495879 0.000595403 0)
(0.495273 0.000574306 0)
(0.494689 0.000554643 0)
(0.494127 0.00053596 0)
(0.493578 0.0005208 0)
(0.493062 0.000504874 0)
(0.492522 0.00050311 0)
(0.492098 0.000492838 0)
(0.491407 0.000540169 0)
(0.628027 0.00141765 0)
(0.626959 0.00136383 0)
(0.625932 0.00131223 0)
(0.624944 0.00126273 0)
(0.623993 0.00121526 0)
(0.623079 0.0011697 0)
(0.622199 0.001126 0)
(0.621353 0.00108406 0)
(0.620538 0.00104389 0)
(0.619754 0.00100535 0)
(0.618999 0.000968581 0)
(0.618271 0.000933408 0)
(0.617571 0.000900094 0)
(0.616896 0.000868731 0)
(0.616247 0.000839222 0)
(0.615613 0.000813752 0)
(0.615022 0.000788893 0)
(0.614396 0.000777421 0)
(0.613924 0.000761832 0)
(0.613135 0.000786587 0)
(0.742602 0.00199253 0)
(0.741448 0.0019166 0)
(0.740338 0.0018438 0)
(0.739271 0.00177399 0)
(0.738244 0.00170704 0)
(0.737257 0.00164279 0)
(0.736307 0.00158117 0)
(0.735393 0.00152203 0)
(0.734514 0.00146539 0)
(0.733668 0.00141101 0)
(0.732853 0.00135914 0)
(0.732069 0.00130942 0)
(0.731315 0.0012624 0)
(0.730587 0.0012177 0)
(0.72989 0.00117608 0)
(0.729205 0.00113823 0)
(0.728574 0.00110359 0)
(0.727897 0.00107836 0)
(0.727406 0.00105748 0)
(0.726555 0.00105389 0)
(0.847907 0.00259521 0)
(0.846732 0.00249599 0)
(0.845603 0.00240088 0)
(0.844518 0.00230967 0)
(0.843474 0.0022222 0)
(0.84247 0.00213827 0)
(0.841504 0.0020578 0)
(0.840575 0.00198053 0)
(0.839682 0.00190655 0)
(0.838822 0.00183548 0)
(0.837995 0.00176773 0)
(0.837199 0.00170261 0)
(0.836433 0.00164119 0)
(0.835694 0.00158218 0)
(0.834988 0.00152792 0)
(0.834293 0.00147618 0)
(0.833658 0.00143175 0)
(0.832967 0.00138971 0)
(0.832484 0.00136439 0)
(0.831617 0.00133024 0)
(0.943865 0.00319091 0)
(0.94274 0.00306859 0)
(0.941658 0.00295134 0)
(0.940618 0.00283891 0)
(0.939619 0.0027311 0)
(0.938657 0.00262765 0)
(0.937733 0.00252847 0)
(0.936844 0.00243321 0)
(0.935989 0.00234203 0)
(0.935167 0.00225437 0)
(0.934375 0.00217088 0)
(0.933614 0.00209039 0)
(0.932882 0.00201474 0)
(0.932175 0.00194124 0)
(0.931501 0.00187466 0)
(0.930837 0.00180827 0)
(0.930235 0.00175478 0)
(0.92957 0.00169417 0)
(0.929121 0.0016656 0)
(0.928288 0.00160131 0)
(1.03046 0.00374342 0)
(1.02946 0.00359963 0)
(1.02849 0.00346181 0)
(1.02756 0.00332964 0)
(1.02667 0.00320292 0)
(1.02581 0.0030813 0)
(1.02499 0.00296471 0)
(1.02419 0.00285271 0)
(1.02343 0.00274554 0)
(1.0227 0.00264241 0)
(1.02199 0.00254428 0)
(1.02131 0.00244937 0)
(1.02066 0.00236057 0)
(1.02003 0.00227327 0)
(1.01943 0.00219552 0)
(1.01883 0.00211461 0)
(1.0183 0.00205341 0)
(1.01771 0.00197397 0)
(1.01732 0.00194336 0)
(1.01657 0.00185138 0)
(1.10777 0.00421676 0)
(1.10696 0.00405459 0)
(1.10617 0.00389912 0)
(1.10542 0.00375002 0)
(1.10469 0.00360706 0)
(1.10399 0.00346984 0)
(1.10332 0.00333831 0)
(1.10268 0.00321191 0)
(1.10206 0.00309101 0)
(1.10146 0.00297453 0)
(1.10089 0.00286387 0)
(1.10034 0.00275643 0)
(1.09981 0.00265643 0)
(1.0993 0.00255692 0)
(1.09881 0.0024699 0)
(1.09833 0.00237565 0)
(1.0979 0.00230857 0)
(1.09742 0.00221155 0)
(1.09711 0.00218001 0)
(1.0965 0.00206432 0)
(1.17596 0.00457706 0)
(1.17539 0.00440092 0)
(1.17485 0.00423205 0)
(1.17433 0.00407005 0)
(1.17382 0.00391472 0)
(1.17334 0.0037656 0)
(1.17287 0.00362268 0)
(1.17243 0.00348527 0)
(1.172 0.00335389 0)
(1.17158 0.00322716 0)
(1.17119 0.00310696 0)
(1.17081 0.0029898 0)
(1.17044 0.00288139 0)
(1.17009 0.00277214 0)
(1.16975 0.00267841 0)
(1.16942 0.00257306 0)
(1.16912 0.00250222 0)
(1.16879 0.00239037 0)
(1.16858 0.00235887 0)
(1.16816 0.00222462 0)
(1.23529 0.00479457 0)
(1.23503 0.00461006 0)
(1.23477 0.00443313 0)
(1.23453 0.00426337 0)
(1.23429 0.00410057 0)
(1.23407 0.00394425 0)
(1.23385 0.00379442 0)
(1.23365 0.00365031 0)
(1.23345 0.00351258 0)
(1.23325 0.00337955 0)
(1.23307 0.00325361 0)
(1.23289 0.00313036 0)
(1.23272 0.003017 0)
(1.23256 0.00290134 0)
(1.2324 0.00280397 0)
(1.23226 0.00269077 0)
(1.23211 0.00261852 0)
(1.23197 0.00249586 0)
(1.23187 0.00246524 0)
(1.23169 0.0023185 0)
(1.28613 0.00484576 0)
(1.28621 0.00465939 0)
(1.28628 0.00448063 0)
(1.28635 0.00430906 0)
(1.28642 0.00414451 0)
(1.28649 0.00398644 0)
(1.28655 0.00383496 0)
(1.28661 0.00368918 0)
(1.28667 0.00354993 0)
(1.28673 0.00341523 0)
(1.28678 0.00328796 0)
(1.28684 0.00316289 0)
(1.28689 0.00304858 0)
(1.28695 0.00293054 0)
(1.28699 0.00283297 0)
(1.28705 0.00271605 0)
(1.28708 0.00264481 0)
(1.28715 0.00251641 0)
(1.28717 0.00248742 0)
(1.28726 0.00233489 0)
(1.32893 0.00471521 0)
(1.32937 0.00453404 0)
(1.3298 0.00436022 0)
(1.3302 0.00419334 0)
(1.33059 0.00403325 0)
(1.33097 0.00387944 0)
(1.33133 0.00373202 0)
(1.33168 0.00359008 0)
(1.33201 0.00345456 0)
(1.33233 0.0033233 0)
(1.33264 0.00319949 0)
(1.33294 0.00307736 0)
(1.33322 0.00296639 0)
(1.33351 0.00285054 0)
(1.33376 0.00275637 0)
(1.33405 0.0026405 0)
(1.33426 0.00257269 0)
(1.33456 0.00244434 0)
(1.33471 0.00241767 0)
(1.33508 0.00226638 0)
(1.36421 0.00439704 0)
(1.36502 0.00422832 0)
(1.36579 0.00406638 0)
(1.36653 0.00391087 0)
(1.36724 0.00376166 0)
(1.36793 0.00361824 0)
(1.36859 0.00348079 0)
(1.36922 0.00334838 0)
(1.36983 0.00322201 0)
(1.37042 0.00309945 0)
(1.37099 0.00298407 0)
(1.37154 0.00286982 0)
(1.37205 0.00276658 0)
(1.37257 0.00265774 0)
(1.37303 0.00257059 0)
(1.37354 0.00246089 0)
(1.37394 0.00239886 0)
(1.37447 0.00227667 0)
(1.37474 0.00225295 0)
(1.37541 0.00210998 0)
(1.39251 0.00389583 0)
(1.39366 0.00374655 0)
(1.39476 0.00360324 0)
(1.39582 0.00346557 0)
(1.39684 0.00333345 0)
(1.39782 0.00320643 0)
(1.39876 0.00308468 0)
(1.39967 0.00296734 0)
(1.40054 0.0028554 0)
(1.40139 0.00274671 0)
(1.40219 0.00264455 0)
(1.40297 0.00254306 0)
(1.40371 0.0024518 0)
(1.40445 0.00235476 0)
(1.40512 0.00227805 0)
(1.40583 0.00217968 0)
(1.4064 0.00212561 0)
(1.40715 0.00201563 0)
(1.40754 0.00199541 0)
(1.40849 0.00186756 0)
(1.41436 0.00322678 0)
(1.41582 0.00310331 0)
(1.41721 0.00298475 0)
(1.41855 0.00287083 0)
(1.41984 0.00276148 0)
(1.42109 0.00265631 0)
(1.42228 0.00255552 0)
(1.42343 0.00245832 0)
(1.42453 0.00236565 0)
(1.4256 0.00227557 0)
(1.42662 0.00219102 0)
(1.42761 0.00210678 0)
(1.42854 0.00203136 0)
(1.42948 0.00195058 0)
(1.43032 0.00188739 0)
(1.43123 0.00180517 0)
(1.43194 0.00176098 0)
(1.4329 0.00166881 0)
(1.43338 0.00165258 0)
(1.43458 0.00154603 0)
(1.43027 0.0024151 0)
(1.43196 0.00232281 0)
(1.4336 0.00223418 0)
(1.43517 0.00214899 0)
(1.43668 0.00206721 0)
(1.43813 0.00198854 0)
(1.43953 0.00191313 0)
(1.44087 0.0018404 0)
(1.44216 0.00177107 0)
(1.44341 0.00170363 0)
(1.4446 0.00164041 0)
(1.44577 0.00157728 0)
(1.44686 0.00152093 0)
(1.44795 0.00146026 0)
(1.44894 0.00141319 0)
(1.45 0.00135125 0)
(1.45084 0.00131852 0)
(1.45195 0.00124898 0)
(1.45252 0.00123713 0)
(1.45391 0.00115709 0)
(1.44062 0.00149472 0)
(1.44249 0.00143768 0)
(1.44429 0.00138287 0)
(1.44602 0.0013302 0)
(1.44769 0.00127963 0)
(1.44929 0.00123097 0)
(1.45083 0.00118434 0)
(1.45231 0.00113936 0)
(1.45374 0.00109649 0)
(1.45511 0.00105476 0)
(1.45643 0.00101568 0)
(1.45771 0.000976604 0)
(1.45891 0.000941796 0)
(1.46012 0.000904186 0)
(1.46121 0.000875188 0)
(1.46238 0.000836715 0)
(1.4633 0.000816614 0)
(1.46453 0.000773394 0)
(1.46515 0.000766218 0)
(1.46669 0.000716634 0)
(1.44572 0.000506283 0)
(1.44768 0.000487006 0)
(1.44957 0.000468484 0)
(1.45138 0.000450679 0)
(1.45313 0.000433594 0)
(1.45481 0.00041715 0)
(1.45642 0.000401418 0)
(1.45798 0.000386234 0)
(1.45947 0.000371757 0)
(1.46091 0.000357673 0)
(1.46229 0.0003445 0)
(1.46363 0.000331319 0)
(1.46489 0.000319584 0)
(1.46616 0.000306882 0)
(1.4673 0.000297152 0)
(1.46852 0.000284168 0)
(1.46949 0.000277455 0)
(1.47078 0.000262846 0)
(1.47143 0.000260504 0)
(1.47304 0.000243873 0)
)
;

boundaryField
{
    fixedWalls
    {
        type            noSlip;
    }
    inlet
    {
        type            fixedValue;
        value           nonuniform 0();
    }
    outlet
    {
        type            zeroGradient;
    }
    frontAndBack
    {
        type            empty;
    }
    procBoundary3to2
    {
        type            processor;
        value           nonuniform List<vector> 
20
(
(0.0797225 2.99752e-05 0)
(0.230422 0.000180145 0)
(0.372306 0.000494893 0)
(0.505258 0.000937938 0)
(0.629138 0.00147379 0)
(0.743803 0.00207176 0)
(0.849129 0.00269875 0)
(0.945036 0.00331857 0)
(1.03151 0.00389347 0)
(1.10862 0.00438598 0)
(1.17655 0.00476082 0)
(1.23556 0.00498701 0)
(1.28605 0.00504009 0)
(1.32848 0.00490405 0)
(1.36338 0.00457285 0)
(1.39132 0.00405133 0)
(1.41286 0.00335535 0)
(1.4285 0.00251118 0)
(1.43868 0.0015541 0)
(1.44369 0.000526322 0)
)
;
    }
    procBoundary3to7
    {
        type            processor;
        value           nonuniform List<vector> 
20
(
(1.44572 -0.000505338 0)
(1.44769 -0.000485985 0)
(1.44957 -0.000467397 0)
(1.45139 -0.000449529 0)
(1.45313 -0.000432352 0)
(1.45481 -0.000415822 0)
(1.45642 -0.000399961 0)
(1.45798 -0.000384659 0)
(1.45947 -0.00037007 0)
(1.46091 -0.000355855 0)
(1.46229 -0.000342533 0)
(1.46363 -0.000329189 0)
(1.46489 -0.00031731 0)
(1.46616 -0.000304459 0)
(1.4673 -0.000294526 0)
(1.46852 -0.000281336 0)
(1.46949 -0.000274407 0)
(1.47078 -0.000259574 0)
(1.47143 -0.000257045 0)
(1.47304 -0.000239922 0)
)
;
    }
}


// ************************************************************************* //
