/*--------------------------------*- C++ -*----------------------------------*\
| =========                 |                                                 |
| \\      /  F ield         | OpenFOAM: The Open Source CFD Toolbox           |
|  \\    /   O peration     | Version:                                        |
|   \\  /    A nd           | Website:  www.openfoam.com                      |
|    \\/     M anipulation  |                                                 |
\*---------------------------------------------------------------------------*/
FoamFile
{
    version     2.0;
    format      ascii;
    class       surfaceScalarField;
    location    "130";
    object      phi;
}
// * * * * * * * * * * * * * * * * * * * * * * * * * * * * * * * * * * * * * //

dimensions      [0 3 -1 0 0 0 0];
oriented        oriented;


internalField   nonuniform List<scalar> 
2201
(
0.00375742
-0.000473149
-0.00328427
0.0035049
0.000252521
0.00361487
-0.000109964
0.00554297
-0.00192811
0.0063437
-0.000800724
0.00538801
0.000955682
0.00262167
0.00276634
-0.00324982
0.00587149
-0.00920704
0.00595722
0.00417959
-0.0133866
0.0061494
-0.0007061
-0.00591645
0.00714463
-0.000742705
0.00621028
0.000824385
0.00106298
0.00321919
-0.00711025
0.00737251
-0.014701
0.0085464
-0.0204287
0.00849412
-0.0232738
0.00871652
-0.0251225
0.00780597
0.00620905
-0.027152
0.00650334
0.00106578
-0.00827522
0.000892776
0.00486786
-0.00829563
0.0100128
-0.0166377
0.0115613
-0.0213478
0.0120826
-0.0253159
0.0125145
-0.0283417
0.01152
-0.0296744
0.0100492
-0.0299276
0.00805916
0.00646928
-0.0301878
-0.00638168
0.00976222
-0.00231476
-0.015032
0.0135182
-0.020862
0.0158427
-0.0254242
0.0161235
-0.0284057
0.0150641
-0.0299315
0.0140403
-0.0308766
0.0124651
-0.0312558
0.0104284
-0.0313572
0.00816062
0.00638
-0.031268
-0.018938
0.0171307
0.0115695
-0.0245532
0.0191334
-0.0277671
0.0190567
-0.0297451
0.0181014
-0.0311112
0.0164302
-0.0316658
0.0145949
-0.0318141
0.0126134
-0.0318441
0.0104583
-0.0318633
0.00817989
0.00625527
-0.0317386
-0.0264471
0.0219689
0.021609
-0.0292933
0.0219796
-0.0308689
0.0206323
-0.0317025
0.018935
-0.0321766
0.0169043
-0.0323898
0.0148081
-0.0323562
0.0125798
-0.0322939
0.010396
-0.0322506
0.00813659
0.00607739
-0.0320727
-0.0301464
0.0246427
0.0274726
-0.0314406
0.0232738
-0.0322147
0.0214064
-0.0325782
0.0192985
-0.0327879
0.017114
-0.0328721
0.0148923
-0.0328596
0.0125673
-0.0327737
0.0103101
-0.0326771
0.00803993
0.00585724
-0.0324569
-0.0317976
0.0259455
0.0304947
-0.0324537
0.0239299
-0.0328817
0.0218344
-0.0331225
0.0195394
-0.0332803
0.0172718
-0.0333266
0.0149386
-0.0333611
0.0126018
-0.0332486
0.0101976
-0.0331351
0.00792643
0.00559776
-0.0328756
-0.0326183
0.026582
0.0319818
-0.0330585
0.0243701
-0.0333776
0.0221535
-0.0335977
0.0197595
-0.033749
0.017423
-0.033823
0.0150126
-0.0338499
0.0126288
-0.0337642
0.0101119
-0.0336157
0.00777786
0.00532384
-0.0333417
-0.0331967
-0.0335637
0.0247371
-0.0338111
0.0224008
-0.0340497
0.0199981
-0.0342367
0.0176101
-0.0343001
0.015076
-0.0343455
0.0126742
-0.0342853
0.0100516
-0.0340994
0.00759194
0.00506336
-0.0338389
-0.0340003
0.0250077
-0.0342664
0.0226669
-0.0345504
0.0202822
-0.03471
0.0177697
-0.0348354
0.0152014
-0.0348766
0.0127153
-0.0348172
0.00999225
-0.0346556
0.00743037
0.0047805
-0.0343728
-0.0344717
-0.0347901
0.0229853
-0.0350454
0.0205375
-0.0352552
0.0179794
-0.0353952
0.0153414
-0.0354365
0.0127567
-0.0354123
0.00996804
-0.0352268
0.00724485
0.00451879
-0.0349651
-0.0352622
0.0232639
-0.0355597
0.0208351
-0.0358077
0.0182274
-0.0359444
0.015478
-0.0360247
0.012837
-0.0359914
0.00993481
-0.0358422
0.00709561
0.00423881
-0.0355622
-0.0357527
-0.0360656
0.021148
-0.0363201
0.018482
-0.0365125
0.0156704
-0.0366306
0.0129551
-0.0365919
0.00989611
-0.036466
0.00696973
0.00400284
-0.0362301
-0.0366192
0.0215632
-0.0368579
0.0187207
-0.0371394
0.0159519
-0.0372769
0.0130926
-0.0372615
0.00988069
-0.0371608
0.00686905
0.00375124
-0.0369092
-0.0370798
0.021925
-0.0374694
0.0191103
-0.0377261
0.0162086
-0.0378912
0.0132578
-0.0379831
0.00997256
-0.037796
0.00668194
0.0035677
-0.0376125
-0.0376913
-0.0380612
0.0194802
-0.0383682
0.0165155
-0.0385708
0.0134604
-0.0387356
0.0101373
-0.0385392
0.00648556
0.00340212
-0.0383736
-0.0386816
0.0199749
-0.0390557
0.0168897
-0.0392626
0.0136673
-0.0395378
0.0104126
-0.0394495
0.00639726
0.0031946
-0.039242
-0.0393803
0.0206742
-0.0397734
0.0172828
-0.0399674
0.0138613
-0.0402608
0.010706
-0.0402624
0.00639887
0.00296949
-0.0400373
-0.0399679
-0.0405425
0.0178573
-0.0408344
0.0141532
-0.0409693
0.0108409
-0.041199
0.0066286
0.00271095
-0.0409405
0.0114253
0.0032277
0.00637714
0.00504818
0.00125654
0.00512061
-0.00156615
0.00282269
-0.00247666
0.000910509
-0.00204041
-0.000436249
-0.000873231
-0.00116718
0.000763694
-0.00163692
0.00233067
-0.00156698
-0.000953604
0.0187053
0.00471867
0.0165668
0.00718665
0.0133968
0.00829066
0.00903669
0.00718276
0.00542357
0.00452363
0.00349551
0.00149181
0.00324857
-0.000920241
0.004272
-0.00266036
0.00553776
-0.00283274
-0.00133229
0.0198853
0.0187551
0.00831682
0.0166894
0.0103564
0.0136715
0.0102006
0.0106363
0.00755886
0.00851549
0.00361258
0.00741691
0.00017834
0.00756802
-0.00281146
0.00795896
-0.00322368
-0.00164856
0.0184332
0.0167309
0.0145084
0.0121098
0.00988731
0.00583512
0.00909016
0.000975481
0.00919024
-0.00291154
0.00751051
-0.00154395
0.0035472
0.00905306
0.00864062
0.00138792
0.00525911
0.000469969
-0.00259032
0.00630548
0.0125263
0.00348767
-0.00518841
0.00914606
-0.0145113
0.0156284
0.019624
-0.0158154
-0.0230018
0.0228148
0.0240948
-0.0279867
0.0266028
0.00197633
0.0539866
-0.053252
0.00174741
0.0564037
-0.0561748
0.00188726
0.0595061
-0.059646
0.00210952
0.062747
-0.0629692
0.00216833
0.0663886
-0.0664474
0.0020718
0.0702352
-0.0701387
0.00191973
0.0742902
-0.0741381
0.00176377
0.0786262
-0.0784703
0.00163136
0.0832622
-0.0831298
0.00154955
0.0882526
-0.0881708
0.00152347
0.0936677
-0.0936416
0.00153575
0.0995952
-0.0996075
0.00154831
0.106075
-0.106087
0.00154507
0.113068
-0.113065
0.00150934
0.120529
-0.120493
0.00144886
0.12845
-0.12839
0.00137488
0.136919
-0.136845
0.00130022
0.146023
-0.145948
0.00121915
0.155857
-0.155776
0.00113212
0.166396
-0.166309
0.00104482
0.177648
-0.177561
0.00094981
0.189692
-0.189597
0.000849372
0.20259
-0.20249
0.000744307
0.216395
-0.21629
0.000632525
0.231189
-0.231077
0.000515673
0.247025
-0.246908
0.000391523
0.263985
-0.263861
0.000264116
0.282166
-0.282039
0.000138005
0.301649
-0.301523
0.322529
-0.322391
0.00628334
0.0543319
0.00575281
0.0569342
0.00520247
0.0600565
0.00486552
0.0630839
0.00481894
0.0664352
0.00496177
0.0700924
0.00514619
0.0741058
0.0053125
0.0784599
0.00541627
0.0831585
0.00544602
0.0882228
0.00540231
0.0937114
0.00529233
0.0997052
0.00514551
0.106221
0.00498206
0.113231
0.00481021
0.120701
0.00462895
0.128632
0.00445354
0.137094
0.00427425
0.146202
0.00406462
0.156067
0.00382815
0.166632
0.00356581
0.177911
0.00326943
0.189988
0.0029499
0.20291
0.00260567
0.21674
0.0022358
0.231558
0.00183939
0.247421
0.00141772
0.264407
0.000973433
0.282611
0.000502715
0.30212
0.323032
0.0104806
0.0546922
0.0104839
0.056931
0.0106523
0.0598881
0.0106834
0.0630528
0.0105665
0.0665522
0.0103899
0.070269
0.0102206
0.074275
0.0100225
0.078658
0.00979526
0.0833858
0.00957925
0.0884388
0.00940131
0.0938893
0.00924776
0.0998587
0.00908652
0.106383
0.00889303
0.113425
0.00863136
0.120962
0.00829993
0.128963
0.0079273
0.137467
0.00752469
0.146605
0.00708144
0.15651
0.00662419
0.16709
0.00613741
0.178397
0.00561047
0.190515
0.00505214
0.203468
0.00445788
0.217334
0.00382483
0.232192
0.0031521
0.248094
0.00243437
0.265125
0.00167421
0.283371
0.000864058
0.30293
0.323896
0.0136636
0.0551817
0.0131432
0.0574513
0.0128355
0.0601958
0.0127923
0.063096
0.0129216
0.0664229
0.0130962
0.0700943
0.0132785
0.0740928
0.0134199
0.0785166
0.0134519
0.0833538
0.013362
0.0885287
0.0131495
0.0941019
0.0128546
0.100154
0.0125247
0.106712
0.0121681
0.113781
0.0117782
0.121352
0.0113376
0.129404
0.0108885
0.137916
0.0103945
0.147099
0.0098351
0.157069
0.00924499
0.16768
0.00858702
0.179055
0.00786423
0.191238
0.00709292
0.204239
0.00626675
0.21816
0.00538479
0.233073
0.00444356
0.249035
0.00343598
0.266132
0.00236386
0.284443
0.00122036
0.304074
0.325116
0.0180115
0.0182387
0.018402
0.0183668
0.0182993
0.0182233
0.0180834
0.0178545
0.017605
0.0173397
0.0170475
0.0943941
0.0167183
0.100483
0.0163633
0.107068
0.0159611
0.114184
0.015464
0.121849
0.0148702
0.129998
0.0142324
0.138554
0.0135055
0.147826
0.012727
0.157848
0.0119322
0.168475
0.0110536
0.179934
0.010111
0.192181
0.00911533
0.205235
0.00804842
0.219227
0.00691551
0.234206
0.00570608
0.250244
0.00441392
0.267425
0.00303743
0.285819
0.00156811
0.305543
0.326685
0.0204978
0.0200544
0.0195682
0.0190318
0.0184258
0.0177624
0.0170605
0.0162242
0.0153521
0.0144212
0.0133706
0.0122547
0.0110589
0.00977147
0.00840117
0.00693323
0.00536574
0.00369375
0.00190648
0.0313508
0.0326767
-0.0299001
-0.0341274
0.0328443
0.0293103
-0.0308038
0.0347344
0.0255971
-0.0274872
0.0364885
0.0223611
-0.0241152
0.037861
0.0186682
-0.0200407
0.0390134
0.0151708
-0.0163232
0.0397052
0.0112215
-0.0119134
0.0403717
0.00684062
-0.00750712
0.0408294
0.0032452
-0.00370287
-0.00132226
0.0012112
0.0306869
0.0305471
-0.0285574
0.0323243
0.0276729
0.0338762
0.0240452
0.0354093
0.0208281
0.0367819
0.0172956
0.038022
0.0139307
0.0388971
0.0103465
0.0394827
0.00625502
0.040016
0.00271181
-0.00134349
0.0297982
0.0282951
-0.0275462
0.0316614
0.0258097
0.0332031
0.0225035
0.0345445
0.0194866
0.0357633
0.0160768
0.0369266
0.0127674
0.0378961
0.00937702
0.0385409
0.00561019
0.0390917
0.00216099
-0.0014938
0.028947
0.0261832
-0.026835
0.0308849
0.0238717
0.0324882
0.0209003
0.0339306
0.0180442
0.0350484
0.014959
0.0360809
0.0117349
0.036926
0.00853195
0.0376192
0.00491697
0.0380971
0.00168315
-0.00177033
0.0282105
0.0243709
-0.0263983
0.0301023
0.0219799
0.0316591
0.0193435
0.0331361
0.0165672
0.0343926
0.0137025
0.0354157
0.0107117
0.0362134
0.00773422
0.036831
0.00429945
0.0373588
0.00115531
-0.00202399
0.0277529
0.022672
-0.026054
0.0294608
0.020272
0.0309865
0.0178179
0.0323264
0.0152273
0.0335914
0.0124375
0.0346503
0.00965282
0.0355354
0.0068491
0.0360739
0.00376096
0.0366408
0.000588406
-0.00229243
0.0273343
0.0208352
-0.0254975
0.0289551
0.0186512
0.0304663
0.0163067
0.0317316
0.013962
0.0328981
0.0112709
0.0339066
0.00864433
0.0347946
0.0059611
0.0354078
0.00314781
0.0358562
0.000139938
-0.00266624
0.0267971
0.0189554
-0.0249173
0.02844
0.0170084
0.0299445
0.0148022
0.0312314
0.0126751
0.0323344
0.0101679
0.0333188
0.00765996
0.034144
0.00513586
0.0347899
0.00250192
0.0352238
-0.000294
-0.00300463
0.0263013
0.0171965
-0.0245424
0.0279176
0.0153921
0.0293968
0.0133231
0.0307079
0.0113639
0.0317818
0.00909403
0.0327293
0.00671251
0.0335452
0.0043199
0.0341918
0.00185534
0.0346264
-0.000728632
-0.00334324
0.0259661
0.0154969
-0.0242666
0.0275114
0.0138468
0.028916
0.0119185
0.0302321
0.0100479
0.0312966
0.00802948
0.0322086
0.00580054
0.0329606
0.00356786
0.033615
0.00120099
0.0340474
-0.00116105
-0.00366863
0.0256653
0.0137878
-0.0239562
0.0271951
0.012317
0.0285348
0.0105788
0.0297987
0.00878389
0.0308761
0.00695215
0.0317774
0.00489918
0.0324827
0.00286259
0.0330871
0.000596556
0.0335183
-0.00159225
-0.00398919
0.0253702
0.0121153
-0.0236977
0.0269209
0.0107664
0.0282249
0.00927477
0.0294403
0.0075685
0.0304792
0.00591326
0.0313889
0.00398948
0.032085
0.00216651
0.0326347
4.68024e-05
0.0330674
-0.0020249
-0.00426354
0.0251385
0.0105103
-0.0235335
0.0266823
0.00922257
0.0279831
0.00797396
0.0291619
0.00638975
0.0301421
0.00493307
0.031015
0.00311657
0.0317001
0.00148141
0.0322222
-0.000475312
0.0326342
-0.00243693
-0.00450494
0.0250142
0.00894935
-0.0234532
0.0264998
0.00773698
0.0278118
0.00666195
0.0289584
0.00524313
0.0299339
0.00395763
0.0307163
0.00233414
0.031397
0.000800701
0.0318693
-0.000947647
0.0322572
-0.00282482
-0.00470463
0.025004
0.00735777
-0.0234124
0.0264005
0.00634049
0.0277127
0.00534973
0.0287899
0.00416588
0.0297884
0.00295913
0.0304889
0.00163364
0.0311397
0.000149897
0.031559
-0.00136691
0.0319226
-0.00318845
-0.00485473
0.0250738
0.00571921
-0.0234352
0.0264476
0.00496672
0.0277202
0.00407706
0.0287428
0.00314334
0.0296999
0.00200203
0.0304053
0.000928254
0.0309411
-0.000385979
0.0313378
-0.00176361
0.0316096
-0.00346023
-0.0049837
0.0251829
0.00413829
-0.023602
0.0266319
0.00351765
0.0278413
0.00286769
0.0288606
0.00212404
0.0296064
0.00125627
0.0303505
0.000184128
0.0308425
-0.000877988
0.031139
-0.00206012
0.0312265
-0.0035477
-0.00502517
0.0253746
0.00262769
-0.023864
0.0268215
0.00207079
0.0280461
0.0016431
0.0291395
0.00103065
0.0299201
0.000475609
0.0303263
-0.000222029
0.0306554
-0.0012071
0.0307476
-0.00215237
0.0305599
-0.00335994
-0.00465312
0.0259039
0.00111906
-0.0243953
0.0272491
0.000725649
0.0284236
0.000468608
0.0293244
0.000129803
0.0300629
-0.000262859
0.0304272
-0.000586351
0.0303112
-0.00109104
0.029737
-0.0015782
0.0287149
-0.00233783
-0.00309023
0.0210091
-0.01989
0.0217347
0.0222033
0.0223331
0.0220703
0.0214839
0.0203929
0.0188147
0.0164769
0.0217967
0.041993
0.0241394
0.0400483
-0.042391
0.0265822
0.0370195
-0.0394623
0.0342086
-0.0375265
0.0186267
0.041238
0.0212978
0.0393219
0.0238586
0.0374875
0.0262147
0.0346633
0.0318659
0.0128062
0.040991
0.0155869
0.0399368
0.0182371
0.0385879
0.0208424
0.0367165
0.0234398
0.0348902
0.025619
0.0324842
0.0299387
0.00419055
0.0395018
0.00701362
0.0393552
0.00982316
0.0389574
0.0125911
0.038223
0.0153085
0.0372194
0.0179095
0.035987
0.0203905
0.0342355
0.0228544
0.0324263
0.0250363
0.0303022
0.02814
0.00420421
0.0367447
0.00695844
0.0366009
0.00968996
0.0362258
0.0123793
0.0355337
0.0150254
0.0345733
0.0175824
0.0334299
0.0199876
0.0318303
0.0222726
0.0301413
0.0245291
0.0280457
0.0262709
0.00421095
0.03405
0.00690422
0.0339077
0.0095745
0.0335555
0.0121945
0.0329137
0.014764
0.0320038
0.0172437
0.0309502
0.0196179
0.029456
0.0217411
0.0280181
0.0239386
0.0258482
0.0241555
0.00421556
0.031412
0.00684551
0.0312777
0.00945252
0.0309485
0.0120095
0.0303568
0.0145274
0.0294859
0.0169415
0.0285362
0.0192801
0.0271174
0.0213847
0.0259135
0.0233552
0.0238777
0.0220132
0.00421917
0.0288272
0.00679906
0.0286978
0.00935275
0.0283949
0.0118399
0.0278696
0.0142947
0.0270311
0.0166428
0.0261881
0.0189494
0.0248107
0.0211524
0.0237105
0.0229917
0.0220385
0.0200875
0.00422396
0.0262962
0.00674829
0.0261735
0.00926406
0.0258791
0.0117093
0.0254244
0.0141124
0.0246281
0.0163905
0.0239099
0.0185839
0.0226173
0.0208657
0.0214287
0.0227567
0.0201475
0.0183018
0.00424553
0.0238052
0.00671866
0.0237004
0.00917953
0.0234182
0.0115831
0.0230208
0.0139572
0.0222539
0.0162495
0.0216177
0.0183105
0.0205563
0.0205081
0.0192312
0.0224809
0.0181747
0.0165161
0.00426863
0.0213532
0.00670849
0.0212605
0.00913707
0.0209896
0.0114919
0.020666
0.0137831
0.0199627
0.0161227
0.0192781
0.018167
0.0185121
0.0202152
0.0171829
0.022173
0.0162169
0.0147329
0.0043043
0.0189335
0.0067014
0.0188634
0.00910613
0.0185849
0.0114642
0.0183079
0.0136697
0.0177572
0.0159645
0.0169832
0.0180693
0.0164073
0.0200472
0.015205
0.0219543
0.0143097
0.0129895
0.00435656
0.0165259
0.0067259
0.0164941
0.00907373
0.0162371
0.0114446
0.0159371
0.0136502
0.0155516
0.0158379
0.0147955
0.0179609
0.0142844
0.0199297
0.0132361
0.0218135
0.0124259
0.0112695
0.00439971
0.0141386
0.00678538
0.0141084
0.00908866
0.0139338
0.0114156
0.0136101
0.0136724
0.0132948
0.0158072
0.0126607
0.0179017
0.0121899
0.0198535
0.0112843
0.0217252
0.0105543
0.0095415
0.00445038
0.0117797
0.00684957
0.0117092
0.00915386
0.0116295
0.0114335
0.0113304
0.0136996
0.0110288
0.0158409
0.0105194
0.0179215
0.0101094
0.0198511
0.00935474
0.0216936
0.00871168
0.00782273
0.0045129
0.00943967
0.00692375
0.00929835
0.00925123
0.00930201
0.0115166
0.009065
0.01376
0.00878535
0.0159138
0.00836558
0.0180056
0.00801759
0.01993
0.00743033
0.0217684
0.00687329
0.00615588
0.00460755
0.00708385
0.00702526
0.00688064
0.00938644
0.00694084
0.0116712
0.0067802
0.0139091
0.00654747
0.0160695
0.00620515
0.0181588
0.0059283
0.0201091
0.00548002
0.0219319
0.00505056
0.0044858
0.00473119
0.00467557
0.00712363
0.0044882
0.00951856
0.00454591
0.0118408
0.00445792
0.0140705
0.00431782
0.0162803
0.00399535
0.0183267
0.00388192
0.0203455
0.00346122
0.0221337
0.0032623
0.0027555
0.00495347
0.00215389
0.00738427
0.00205739
0.00984375
0.00208643
0.0122614
0.0020403
0.0145709
0.00200827
0.0168063
0.00175996
0.0188968
0.00179139
0.020902
0.00145606
0.022713
0.00145129
0.00107319
0.00416571
0.00622311
0.00830954
0.0103498
0.0123581
0.0141181
0.0159095
0.0173655
0.0188168
0.0379823
0.00721936
0.00762136
0.00831471
0.0087706
0.00625986
0.0479486
0.00590334
0.0515897
0.00556977
0.0554913
0.00516312
0.0597454
0.00476079
0.064342
0.00436827
0.0692574
0.0039726
0.0744889
0.00358851
0.0800189
0.00320581
0.0857851
0.00282178
0.0916971
0.00244837
0.097723
0.00209809
0.103985
0.00179194
0.110611
0.00152756
0.117751
0.00130407
0.12551
0.00111677
0.133939
0.000964833
0.143087
0.000838555
0.152904
0.000726162
0.163345
0.000623251
0.17443
0.000532215
0.186264
0.000452136
0.198936
0.000380814
0.212511
0.000315724
0.227035
0.000253831
0.24256
0.000197609
0.259167
0.000136413
0.276969
6.20316e-05
0.296059
3.3909e-05
0.316704
0.338618
0.00767483
0.0490444
0.00699128
0.0522732
0.00617996
0.0563026
0.00545864
0.0604668
0.0048037
0.064997
0.0041849
0.0698762
0.00363984
0.0750339
0.00319073
0.080468
0.00283002
0.0861458
0.00253237
0.0919948
0.00226529
0.09799
0.00201785
0.104233
0.00178356
0.110846
0.00155883
0.117976
0.00134115
0.125728
0.00114072
0.13414
0.000967306
0.14326
0.000827406
0.153044
0.000710142
0.163462
0.000608235
0.174532
0.00051635
0.186356
0.000435603
0.199017
0.000364391
0.212582
0.000300478
0.227099
0.000240496
0.24262
0.000187235
0.25922
0.000128537
0.277028
5.8379e-05
0.296129
3.09913e-05
0.316732
0.338649
-0.0340386
0.0489556
-0.0344251
0.0526597
-0.0345817
0.0564593
-0.0347517
0.0606367
-0.0349166
0.0651618
-0.0349449
0.0699045
-0.0348268
0.0749158
-0.0345432
0.0801844
-0.0340826
0.0856852
-0.033459
0.0913712
-0.0327139
0.0972449
-0.0318871
0.103406
-0.0310017
0.10996
-0.0300749
0.117049
-0.0290921
0.124745
-0.0280326
0.13308
-0.0268691
0.142096
-0.0255852
0.15176
-0.0241835
0.16206
-0.022671
0.17302
-0.0210491
0.184734
-0.0193099
0.197278
-0.0174435
0.210716
-0.0154401
0.225096
-0.0132927
0.240473
-0.0109914
0.256919
-0.00852191
0.274558
-0.00590382
0.293511
-0.00303635
0.313864
0.335612
-0.0310255
0.0491773
-0.0312618
0.052896
-0.0315965
0.056794
-0.03195
0.0609902
-0.0321524
0.0653641
-0.0322538
0.0700059
-0.0322265
0.0748885
-0.0320019
0.0799598
-0.031569
0.0852523
-0.0309466
0.0907489
-0.0301845
0.0964828
-0.0293367
0.102558
-0.0284475
0.109071
-0.0275332
0.116135
-0.0265925
0.123804
-0.0256014
0.132089
-0.0245292
0.141024
-0.0233515
0.150583
-0.0220665
0.160775
-0.0206788
0.171632
-0.0191906
0.183246
-0.017596
0.195683
-0.0158871
0.209007
-0.0140556
0.223264
-0.0120953
0.238513
-0.00999826
0.254822
-0.00775329
0.272314
-0.00536022
0.291118
-0.00276535
0.311269
0.332847
-0.0282508
0.0499409
-0.0287131
0.0533583
-0.0288952
0.0569761
-0.028946
0.061041
-0.0289704
0.0653885
-0.0289481
0.0699837
-0.0287879
0.0747282
-0.028487
0.0796589
-0.0280586
0.0848239
-0.027516
0.0902063
-0.0269005
0.0958673
-0.02624
0.101898
-0.0255441
0.108375
-0.024808
0.115398
-0.024005
0.123001
-0.0231124
0.131197
-0.0221178
0.14003
-0.0210242
0.149489
-0.0198426
0.159594
-0.0185772
0.170367
-0.0172252
0.181894
-0.0157795
0.194238
-0.0142341
0.207462
-0.0125827
0.221613
-0.0108208
0.236751
-0.00894099
0.252942
-0.00693318
0.270306
-0.0047875
0.288972
-0.00247567
0.308958
0.330371
-0.0244642
0.0502899
-0.0247335
0.0536276
-0.0251055
0.0573482
-0.0254752
0.0614107
-0.0257251
0.0656385
-0.0257976
0.0700562
-0.025691
0.0746216
-0.025425
0.0793929
-0.0250079
0.0844068
-0.0244756
0.0896739
-0.0238654
0.0952571
-0.0232103
0.101243
-0.0225343
0.107699
-0.0218388
0.114703
-0.0211085
0.122271
-0.020314
0.130402
-0.019435
0.139151
-0.0184668
0.148521
-0.0174194
0.158546
-0.0162994
0.169247
-0.0151064
0.180701
-0.0138332
0.192964
-0.0124734
0.206102
-0.0110213
0.22016
-0.0094735
0.235203
-0.0078253
0.251294
-0.00606709
0.268548
-0.00418555
0.28709
-0.0021677
0.30694
0.328204
-0.0204118
0.050661
-0.0208055
0.0540212
-0.0211491
0.0576917
-0.0213324
0.061594
-0.0213914
0.0656975
-0.0213531
0.070018
-0.0212168
0.0744853
-0.0209822
0.0791584
-0.0206505
0.0840751
-0.0202423
0.0892658
-0.0197986
0.0948133
-0.0193415
0.100786
-0.0188755
0.107233
-0.0183882
0.114216
-0.0178481
0.121731
-0.0172262
0.12978
-0.0165076
0.138432
-0.0156984
0.147712
-0.0148156
0.157664
-0.0138674
0.168299
-0.0128533
0.179687
-0.0117677
0.191879
-0.0106078
0.204942
-0.00937073
0.218923
-0.00805355
0.233886
-0.0066526
0.249893
-0.00515819
0.267053
-0.00355622
0.285489
-0.00184298
0.305227
0.326361
-0.0167146
0.0510525
-0.017012
0.0543185
-0.0173684
0.0580481
-0.017735
0.0619606
-0.0180093
0.0659718
-0.0180946
0.0701032
-0.0179865
0.0743772
-0.0177258
0.0788976
-0.0173522
0.0837015
-0.0169187
0.0888323
-0.0164545
0.0943491
-0.0159815
0.100312
-0.0155103
0.106762
-0.0150367
0.113742
-0.0145426
0.121237
-0.0140069
0.129244
-0.0134147
0.13784
-0.0127637
0.14706
-0.0120569
0.156957
-0.0112958
0.167538
-0.010479
0.17887
-0.00960135
0.191001
-0.00865881
0.204
-0.00764989
0.217914
-0.00657534
0.232811
-0.00543321
0.248751
-0.00421386
0.265834
-0.00290386
0.284179
-0.00150481
0.303827
0.324856
-0.0122449
0.051384
-0.0126622
0.0547358
-0.0129834
0.0583693
-0.0130693
0.0620466
-0.0130375
0.0659399
-0.0129859
0.0700517
-0.0129409
0.0743322
-0.0128704
0.0788271
-0.0127323
0.0835634
-0.0125211
0.0886211
-0.0122633
0.0940913
-0.0119808
0.10003
-0.0116902
0.106471
-0.0113869
0.113439
-0.011051
0.120901
-0.0106643
0.128858
-0.0102212
0.137397
-0.00972993
0.146569
-0.00920071
0.156427
-0.00863441
0.166971
-0.00802201
0.178258
-0.00735745
0.190337
-0.00664033
0.203283
-0.00586919
0.217143
-0.00504653
0.231989
-0.00417314
0.247877
-0.003239
0.2649
-0.00223187
0.283171
-0.00115579
0.302751
0.3237
-0.00825104
0.0521279
-0.00884635
0.0553311
-0.00935501
0.0588779
-0.00976231
0.0624539
-0.0100186
0.0661962
-0.0100574
0.0700905
-0.00991572
0.0741905
-0.00966371
0.0785751
-0.00936416
0.0832639
-0.00906929
0.0883262
-0.00879167
0.0938137
-0.00853517
0.0997735
-0.00828942
0.106225
-0.00804141
0.113191
-0.00777203
0.120632
-0.00747032
0.128556
-0.00712992
0.137056
-0.0067602
0.146199
-0.00636976
0.156037
-0.00596447
0.166566
-0.00553702
0.17783
-0.00507794
0.189877
-0.00458384
0.202788
-0.00405279
0.216612
-0.00348598
0.231422
-0.00288505
0.247277
-0.00224163
0.264256
-0.00154502
0.282475
-0.000799136
0.302006
0.322901
-0.00422947
0.0526545
-0.00445181
0.0555535
-0.00446859
0.0588947
-0.0043683
0.0623536
-0.00432293
0.0661508
-0.00437734
0.0701449
-0.00449758
0.0743108
-0.00461373
0.0786912
-0.00467728
0.0833274
-0.00466909
0.088318
-0.00459644
0.0937411
-0.00448065
0.0996577
-0.00435792
0.106103
-0.00423439
0.113067
-0.00410656
0.120504
-0.00396441
0.128414
-0.00379989
0.136892
-0.00361328
0.146013
-0.00341397
0.155838
-0.00320685
0.166359
-0.00298256
0.177606
-0.0027405
0.189635
-0.0024796
0.202528
-0.00219799
0.216331
-0.00189542
0.231119
-0.00157332
0.246954
-0.00122703
0.26391
-0.000847512
0.282095
-0.000437208
0.301595
0.322464
0.000613699
-7.60512e-06
-0.000758882
-0.00137452
-0.00167113
-0.00166492
-0.00149227
-0.00127131
-0.0010737
-0.000926419
-0.000826941
-0.000776714
-0.000761195
-0.000758407
-0.000747554
-0.00072378
-0.000676523
-0.000611762
-0.000550027
-0.000500018
-0.000455095
-0.000416541
-0.000378558
-0.000338375
-0.000295931
-0.000249294
-0.000200752
-0.000144477
-7.24278e-05
)
;

boundaryField
{
    outlet
    {
        type            calculated;
        value           nonuniform 0();
    }
    upperWall
    {
        type            symmetryPlane;
        value           nonuniform 0();
    }
    lowerWall
    {
        type            symmetryPlane;
        value           uniform 0;
    }
    inlet
    {
        type            calculated;
        value           nonuniform 0();
    }
    cylinder
    {
        type            calculated;
        value           uniform 0;
    }
    frontAndBack
    {
        type            empty;
        value           nonuniform 0();
    }
    procBoundary1to0
    {
        type            processor;
        value           nonuniform List<scalar> 
45
(
-0.0191037
-0.0439546
-0.0446859
-0.0438306
-0.0159102
-0.0427175
-0.0423203
-0.0421782
-0.00996656
-0.0417669
-0.0380883
-0.0430605
-0.00711345
-0.0401556
-0.00695185
-0.0469891
-0.0512331
-0.0551577
-0.0593388
-0.0639397
-0.0688648
-0.0740932
-0.0796348
-0.0854024
-0.0913131
-0.0973496
-0.103635
-0.110305
-0.117487
-0.125287
-0.133752
-0.142935
-0.152778
-0.163232
-0.174328
-0.186173
-0.198856
-0.21244
-0.22697
-0.242498
-0.259111
-0.276908
-0.295984
-0.316676
-0.338584
)
;
    }
    procBoundary1to2
    {
        type            processor;
        value           nonuniform List<scalar> 
63
(
0.0270155
0.0327632
0.0337297
0.0341838
0.0252956
0.0349836
0.0353723
0.0236443
0.036204
0.036718
0.0371616
0.0224547
0.0381869
0.038681
0.0394347
0.0212075
0.00569811
-0.0199135
0.00979717
0.0120587
0.0124231
0.00995746
-0.0108445
0.00762655
-0.00692355
0.0048238
0.00594907
0.0190124
0.0237089
0.0270926
0.0307233
0.0278613
0.0550276
0.0572241
0.0600326
0.0631312
0.0664904
0.0701702
0.0742327
0.0787454
0.0836032
0.088794
-0.020854
0.0947504
0.100926
0.107554
0.11472
0.122455
0.130661
0.139255
0.148662
0.15872
0.169405
0.180984
0.193296
0.206431
0.220514
0.235577
0.251712
0.268992
0.287491
0.30733
0.328591
)
;
    }
    procBoundary1to5
    {
        type            processor;
        value           nonuniform List<scalar> 
20
(
-0.014653
-0.0201962
-0.0208647
-0.00137203
-0.00144717
-0.0015162
-0.00157764
-0.00163431
-0.00169295
-0.00175451
-0.00181672
-0.00188456
-0.00194893
-0.00201247
-0.00209145
-0.00217287
-0.00225173
-0.00232292
-0.00243179
-0.00201182
)
;
    }
}


// ************************************************************************* //
