/*--------------------------------*- C++ -*----------------------------------*\
| =========                 |                                                 |
| \\      /  F ield         | OpenFOAM: The Open Source CFD Toolbox           |
|  \\    /   O peration     | Version:                                        |
|   \\  /    A nd           | Website:  www.openfoam.com                      |
|    \\/     M anipulation  |                                                 |
\*---------------------------------------------------------------------------*/
FoamFile
{
    version     2.0;
    format      ascii;
    class       volVectorField;
    location    "146";
    object      U;
}
// * * * * * * * * * * * * * * * * * * * * * * * * * * * * * * * * * * * * * //

dimensions      [0 1 -1 0 0 0 0];


internalField   nonuniform List<vector> 
1150
(
(0.858243 0.00293878 -4.98486e-21)
(0.846506 0.00264986 1.16342e-20)
(0.833742 0.00236205 -6.36959e-21)
(0.860271 0.0237047 -3.56716e-21)
(0.848636 0.0250569 3.308e-21)
(0.836425 0.0268036 -3.3072e-20)
(0.864854 0.0432918 -5.98864e-21)
(0.85398 0.0462505 4.69993e-20)
(0.842663 0.0499235 -5.80465e-20)
(0.872036 0.0635894 2.2242e-21)
(0.862473 0.0679217 1.37244e-20)
(0.881482 0.082532 6.96648e-21)
(0.874101 0.0879222 1.23748e-19)
(0.894073 0.101638 -3.3686e-20)
(0.999655 -0.00200444 -2.09514e-22)
(1.00562 -0.0029263 -6.09696e-23)
(1.00217 0.0031268 3.93455e-23)
(1.0012 0.0077011 -1.63963e-22)
(0.999969 0.000496459 4.42841e-23)
(1.00018 0.00470708 1.89838e-22)
(0.998494 0.000377123 -1.73992e-22)
(0.998874 -0.00420123 1.07971e-23)
(0.996951 0.000253761 -1.02042e-22)
(0.995856 0.000401953 1.60339e-22)
(0.994071 -0.00252161 -1.08608e-22)
(0.992374 0.00452796 3.88863e-23)
(0.988814 0.00347737 -3.742e-22)
(0.986474 0.00442081 3.03943e-22)
(0.984024 0.00457908 -2.41149e-22)
(0.980581 0.00594806 5.26961e-22)
(0.976699 0.00488633 3.3069e-23)
(0.972719 0.0045572 -1.09392e-21)
(0.968207 0.00361054 1.16215e-21)
(0.962888 0.00352018 -3.44031e-22)
(0.956979 0.00247361 8.21544e-22)
(0.950765 0.0023552 -2.06891e-21)
(0.943772 0.00137864 2.75143e-22)
(0.936042 0.00165533 1.29308e-21)
(0.927319 0.00102869 3.52316e-22)
(0.918181 0.00162044 -3.5777e-21)
(0.907738 0.00119011 2.90755e-21)
(0.896832 0.00207306 -1.63902e-22)
(0.884388 0.0018851 5.89674e-22)
(0.871436 0.00306164 2.95231e-21)
(0.999161 -0.00338123 9.02667e-22)
(1.00693 -0.00115492 -1.43624e-22)
(1.00269 0.00178271 -5.60112e-22)
(0.999174 0.0095825 2.36875e-22)
(0.999762 -0.00104355 -4.21023e-22)
(0.999702 0.00655346 6.87209e-22)
(0.997921 -0.00117505 -2.70552e-22)
(1.00003 -0.00240379 -5.41207e-22)
(0.997971 -0.000628466 4.47838e-22)
(0.99624 0.00186394 -8.10334e-22)
(0.994678 -0.00261162 3.79028e-22)
(0.993187 0.00680111 -2.69254e-22)
(0.988116 0.00347874 4.28136e-22)
(0.985621 0.00669294 -2.56856e-22)
(0.983804 0.00530074 2.28737e-21)
(0.979465 0.00858148 -3.53408e-21)
(0.976078 0.00616525 3.163e-21)
(0.971668 0.00796879 2.49899e-21)
(0.968043 0.00601197 -3.1566e-21)
(0.962509 0.00789117 3.22984e-21)
(0.957088 0.00621898 -5.13252e-21)
(0.950988 0.00830317 -1.76934e-21)
(0.944219 0.00709401 -1.32892e-21)
(0.936924 0.00975034 -2.24081e-21)
(0.928244 0.00930625 6.00455e-21)
(0.919562 0.0125939 1.16662e-21)
(0.909064 0.0128398 -3.22932e-21)
(0.898668 0.0167579 7.39782e-21)
(0.885995 0.017607 4.16107e-22)
(0.873702 0.0223384 -8.57782e-21)
(0.998838 -0.00486741 -1.50912e-21)
(1.00812 0.000571731 -2.75957e-22)
(1.00304 0.00081192 -1.89117e-22)
(0.996929 0.0114341 -1.12534e-21)
(0.999717 -0.0027689 1.8994e-22)
(0.999087 0.00853321 -1.57946e-21)
(0.997616 -0.00322083 1.33698e-21)
(1.0012 -0.000548837 1.55753e-21)
(0.99892 -0.0013797 -1.14946e-21)
(0.996601 0.00300037 -1.72476e-21)
(0.995277 -0.00223019 1.54584e-21)
(0.993695 0.00903746 -1.87637e-21)
(0.987242 0.00325671 3.39165e-21)
(0.984693 0.00942269 -6.07111e-22)
(0.983506 0.00560474 -1.17704e-21)
(0.978224 0.0110842 2.17493e-21)
(0.975613 0.0070805 -7.57508e-21)
(0.970787 0.0110088 1.05336e-20)
(0.968013 0.00785886 -1.56365e-21)
(0.962294 0.011696 -2.01705e-23)
(0.957571 0.00927948 -3.05733e-21)
(0.95153 0.013498 1.81163e-22)
(0.945254 0.0118855 -6.65685e-21)
(0.938189 0.0168763 1.33939e-20)
(0.929915 0.0165477 1.64703e-21)
(0.921637 0.0224839 -9.9627e-21)
(0.911289 0.0232786 3.8982e-21)
(0.901667 0.0303217 1.76859e-23)
(0.888971 0.0321361 -8.08394e-21)
(0.877716 0.0404972 1.69676e-20)
(0.998738 -0.00629386 1.0026e-21)
(1.00917 0.00207973 6.87687e-22)
(1.00314 0.000368851 3.2469e-22)
(0.994393 0.0130517 2.86072e-21)
(0.999932 -0.00436607 3.81433e-22)
(0.998373 0.0101548 -8.66991e-22)
(0.99762 -0.00537314 2.67996e-23)
(1.00249 0.0011254 -8.26109e-22)
(0.999753 -0.00204848 1.60343e-21)
(0.99688 0.00392735 -9.30088e-22)
(0.995902 -0.00143369 -1.85207e-21)
(0.993597 0.0114595 1.18999e-21)
(0.986316 0.00319718 1.47694e-21)
(0.983673 0.0121385 -3.38147e-21)
(0.983039 0.00616385 7.26892e-21)
(0.977028 0.0133829 -9.89116e-21)
(0.975295 0.00806796 4.99901e-21)
(0.970083 0.0141592 -7.35813e-21)
(0.968289 0.00976906 3.81272e-21)
(0.962214 0.0156297 8.25102e-21)
(0.958477 0.0125026 -1.16447e-20)
(0.95236 0.0189212 1.49618e-20)
(0.946864 0.0171363 -1.65954e-20)
(0.940045 0.0244567 6.755e-21)
(0.932245 0.0243269 8.67037e-21)
(0.924648 0.0329896 1.12227e-20)
(0.91456 0.0343938 -3.80488e-20)
(0.905895 0.0446032 7.65069e-21)
(0.893634 0.047494 -1.90194e-21)
(0.88354 0.059431 -5.84565e-21)
(0.998868 -0.00786563 4.33995e-22)
(1.01005 0.00364403 -4.19083e-22)
(1.00294 0.000328735 6.33245e-22)
(0.991662 0.0145831 -1.06442e-21)
(1.0004 -0.00622822 9.66747e-22)
(0.997594 0.0119761 -6.49387e-22)
(0.998049 -0.00810323 8.20031e-23)
(1.00376 0.00324238 -2.95432e-21)
(1.0004 -0.00287249 2.39605e-21)
(0.997151 0.00499109 1.8864e-21)
(0.996555 -0.000171801 -3.24282e-21)
(0.992845 0.0136923 -8.09624e-22)
(0.985058 0.00339035 3.99884e-21)
(0.982714 0.015125 -2.61112e-21)
(0.982554 0.00590905 9.63629e-22)
(0.975885 0.016024 -1.19311e-21)
(0.975453 0.00835031 1.01182e-21)
(0.969548 0.0169334 -3.8626e-22)
(0.968991 0.010971 -9.86199e-22)
(0.96252 0.0189651 1.50041e-20)
(0.959937 0.0149431 -1.31175e-20)
(0.953752 0.023459 -1.3388e-20)
(0.949143 0.0212156 -2.82292e-21)
(0.942583 0.0310272 3.73733e-20)
(0.935592 0.0308315 2.15058e-20)
(0.92835 0.0423517 -2.11374e-20)
(0.91921 0.0441826 1.45722e-20)
(0.911119 0.057746 -2.83847e-20)
(0.899816 0.0617715 1.58926e-20)
(0.89152 0.077305 -1.1017e-19)
(0.999257 -0.00925427 -2.26747e-21)
(1.01071 0.00491047 8.89782e-22)
(1.00248 0.000965147 -1.53279e-21)
(0.988705 0.0155077 1.42172e-21)
(1.00127 -0.00774106 -1.8566e-21)
(0.996881 0.012985 8.83706e-22)
(0.998803 -0.0104803 5.90401e-22)
(1.0052 0.00499569 1.05974e-21)
(1.00062 -0.00334545 3.94969e-23)
(0.997428 0.00587859 -3.81153e-21)
(0.997116 0.00168361 1.00906e-21)
(0.991107 0.0157894 1.18544e-21)
(0.984072 0.00380441 7.18988e-21)
(0.981448 0.0177914 -7.08838e-21)
(0.981934 0.0062528 3.28179e-21)
(0.975151 0.0182376 4.8403e-21)
(0.97584 0.00932682 -4.79678e-21)
(0.969389 0.0197916 -1.11153e-20)
(0.969705 0.0127675 -5.23342e-21)
(0.963118 0.0225729 1.95215e-20)
(0.961864 0.0181093 8.00926e-21)
(0.955346 0.0286727 -4.42411e-21)
(0.951949 0.0263227 7.00269e-21)
(0.945432 0.0385547 6.15201e-21)
(0.939482 0.0384909 -2.57943e-20)
(0.933315 0.0527996 -3.31204e-20)
(0.924409 0.0550652 1.59441e-20)
(0.918414 0.0717879 7.87865e-20)
(0.90758 0.0764404 -1.13008e-19)
(0.901405 0.0956788 1.27285e-19)
(1.00003 -0.010855 1.13876e-21)
(1.011 0.00639627 -1.18081e-21)
(1.00161 0.00181011 -1.85968e-21)
(0.985828 0.0163853 1.18684e-21)
(1.00249 -0.00973526 7.79181e-22)
(0.996333 0.0143911 -1.81805e-21)
(1.00008 -0.0135928 1.66324e-21)
(1.00664 0.00782147 1.52914e-21)
(1.00055 -0.00455873 -1.89112e-22)
(0.997406 0.00765625 -1.26782e-21)
(0.997754 0.00349455 4.86658e-21)
(0.988812 0.0176764 -3.46933e-21)
(0.982657 0.00399105 6.67822e-21)
(0.980594 0.0203712 -1.10858e-20)
(0.98182 0.00485105 1.33837e-20)
(0.974316 0.0211778 -5.61603e-21)
(0.976964 0.00816478 -1.11768e-20)
(0.970048 0.0229624 -6.74908e-21)
(0.971237 0.0122283 -4.64871e-21)
(0.964205 0.0257718 -2.36179e-21)
(0.964221 0.0189827 3.47072e-20)
(0.95803 0.0327806 -3.76471e-20)
(0.955478 0.0289562 3.96094e-22)
(0.949509 0.0443183 2.48418e-20)
(0.944026 0.0433785 -2.21214e-20)
(0.938774 0.0611746 1.36779e-20)
(0.931342 0.0637337 5.33719e-20)
(0.925404 0.083794 -9.27483e-20)
(0.917642 0.0897232 6.95134e-20)
(0.912577 0.112003 2.24156e-20)
(1.00139 -0.0121159 3.39639e-23)
(1.01077 0.00750741 9.4579e-22)
(1.00019 0.0034622 1.8276e-21)
(0.982944 0.0161257 1.24369e-21)
(1.00445 -0.0110591 -4.90911e-23)
(0.995619 0.0144157 -2.61927e-21)
(1.00221 -0.0155139 -1.51616e-21)
(1.0077 0.0097166 4.19781e-21)
(1.00057 -0.00450777 -5.35199e-21)
(0.997074 0.00885312 2.40524e-21)
(0.997654 0.00660357 -7.12153e-22)
(0.985922 0.0190997 1.06652e-20)
(0.982047 0.00550966 -2.09971e-21)
(0.9791 0.0213471 -2.26652e-21)
(0.982432 0.00615756 -8.31233e-21)
(0.973951 0.023106 -7.15305e-21)
(0.977601 0.00939868 2.56459e-20)
(0.97089 0.025523 -9.32777e-21)
(0.973013 0.0152783 -8.77977e-21)
(0.96645 0.0287027 -2.67041e-21)
(0.965962 0.0239126 2.25568e-20)
(0.961253 0.0372215 -8.90408e-21)
(0.958677 0.0362945 1.34557e-20)
(0.954044 0.0520056 9.14634e-21)
(0.950081 0.0528823 -7.15699e-20)
(0.944493 0.0722568 1.22928e-20)
(0.940524 0.0752052 -1.09406e-20)
(0.93469 0.098366 1.95881e-22)
(0.929809 0.103197 6.06345e-20)
(1.00302 -0.0136946 9.84756e-22)
(1.01052 0.00908379 -4.75914e-22)
(0.997674 0.00518751 -1.00139e-21)
(0.980113 0.0159143 1.42426e-21)
(1.00714 -0.012985 1.49523e-21)
(0.994148 0.0150441 -2.63146e-22)
(1.00569 -0.0183354 -1.74797e-21)
(1.00678 0.0129875 2.39149e-21)
(1.00148 -0.00594288 -1.12508e-21)
(0.995967 0.0117667 2.82309e-22)
(0.996516 0.00855541 1.07262e-21)
(0.981555 0.0203616 -5.8894e-21)
(0.982869 0.00597225 3.76045e-21)
(0.97742 0.0222074 1.77467e-21)
(0.983019 0.0038361 -1.03651e-20)
(0.974129 0.0264038 1.33999e-20)
(0.978902 0.00541125 -1.25728e-20)
(0.970603 0.0295535 2.63789e-20)
(0.976175 0.0104551 -1.80417e-20)
(0.966494 0.0337879 1.32546e-20)
(0.973039 0.0202735 1.29703e-21)
(0.960147 0.0418059 -4.47216e-20)
(0.967914 0.0347935 1.28459e-20)
(0.954005 0.056458 6.06442e-21)
(0.959188 0.0545461 2.47767e-20)
(0.949157 0.0786106 -2.73645e-20)
(0.948237 0.0812244 -2.98934e-21)
(0.943824 0.108123 3.75099e-20)
(0.940379 0.115185 2.65403e-20)
(1.00405 -0.0147083 -1.03552e-21)
(1.01173 0.0102005 3.04993e-22)
(0.994656 0.00784613 -1.49912e-21)
(0.978353 0.0136436 2.64863e-22)
(1.01007 -0.013735 1.02028e-22)
(0.994123 0.0141459 1.78842e-22)
(1.00624 -0.0191848 -5.80336e-22)
(1.01059 0.0149405 8.02497e-22)
(0.996308 -0.004928 -5.1481e-21)
(1.00089 0.0146618 7.06709e-21)
(0.993187 0.012683 5.8338e-21)
(0.98004 0.0208532 -6.14631e-21)
(0.980171 0.00877754 -1.10725e-20)
(0.981117 0.0216856 2.07408e-20)
(0.984165 0.0076579 -2.53931e-20)
(0.973346 0.0277689 1.85631e-20)
(0.981345 0.00929702 -2.48681e-21)
(0.972301 0.031905 -1.99508e-20)
(0.975102 0.0160432 1.34781e-20)
(0.972929 0.0362466 1.43996e-20)
(0.968384 0.0306162 1.42719e-20)
(0.973765 0.0461861 -3.62174e-20)
(0.961826 0.0483866 -2.7974e-20)
(0.970091 0.0652832 7.95406e-20)
(0.957007 0.0693853 -5.38969e-20)
(0.963678 0.091829 -1.41215e-21)
(0.954758 0.0955845 -2.41804e-20)
(0.958918 0.121628 9.52659e-20)
(1.00898 -0.0164923 0)
(1.00685 0.0117716 0)
(0.997471 0.0105737 0)
(0.975155 0.0115822 0)
(1.01586 -0.0155379 0)
(0.988194 0.0140931 0)
(1.01119 -0.0222396 0)
(1.00528 0.0177877 0)
(0.999651 -0.00694864 0)
(0.999626 0.0162308 0)
(0.994769 0.0147009 0)
(0.975312 0.0202639 0)
(0.988789 0.00625771 0)
(0.979635 0.0188469 0)
(0.989845 0.00641959 0)
(0.970603 0.0276369 0)
(0.987086 0.00239003 0)
(0.96822 0.035705 0)
(0.984251 0.00380414 0)
(0.968337 0.0429793 0)
(0.981539 0.0155536 0)
(0.969433 0.0504756 0)
(0.979674 0.036815 0)
(0.966743 0.0655986 0)
(0.977973 0.0608556 0)
(0.964979 0.0918253 0)
(0.972777 0.0859721 0)
(0.968165 0.120661 0)
(1.01467 -0.0172239 0)
(0.994953 0.0121822 0)
(1.00455 0.0137389 0)
(0.976126 0.00914072 0)
(1.01636 -0.0153474 0)
(0.981874 0.0132709 0)
(1.01373 -0.0225924 0)
(0.990876 0.0186281 0)
(1.00808 -0.00672828 0)
(0.988708 0.0179719 0)
(0.996085 0.0179841 0)
(0.972283 0.0201694 0)
(0.998887 0.00766205 0)
(0.975144 0.0177773 0)
(0.988973 0.0115804 0)
(0.971418 0.0257558 0)
(0.984717 0.00731457 0)
(0.965987 0.0357219 0)
(0.986187 0.00470471 0)
(0.963019 0.0482079 0)
(0.992153 0.0116394 0)
(0.959268 0.0580597 0)
(0.99173 0.0327948 0)
(0.961022 0.0713789 0)
(0.987537 0.0603673 0)
(0.967012 0.0918183 0)
(0.981938 0.0903483 0)
(0.975038 0.113947 0)
(1.01539 -0.0174532 0)
(0.983733 0.0123001 0)
(1.01134 0.0155359 0)
(0.98482 0.00742416 0)
(1.00886 -0.0141241 0)
(0.983705 0.0120128 0)
(1.00646 -0.0220612 0)
(0.981742 0.0183909 0)
(1.009 -0.00607664 0)
(0.978571 0.0192244 0)
(0.997634 0.0216405 0)
(0.974915 0.0163201 0)
(0.998989 0.0102126 0)
(0.977637 0.0174909 0)
(0.983969 0.0155473 0)
(0.9753 0.0222467 0)
(0.977663 0.0129024 0)
(0.971981 0.0298375 0)
(0.975663 0.00877515 0)
(0.969917 0.0424081 0)
(0.98375 0.0149893 0)
(0.964012 0.0552848 0)
(0.98576 0.035418 0)
(0.963101 0.0698412 0)
(0.983594 0.0624425 0)
(0.970096 0.088344 0)
(0.984105 0.0938832 0)
(0.979182 0.107215 0)
(1.01104 -0.0164776 0)
(0.978466 0.0111026 0)
(1.01537 0.0158194 0)
(0.997519 0.00730299 0)
(0.999592 -0.0121121 0)
(0.990962 0.010392 0)
(0.996071 -0.0193401 0)
(0.979776 0.0160462 0)
(1.00396 -0.0040348 0)
(0.976504 0.0182007 0)
(1.00271 0.024382 0)
(0.981353 0.0132063 0)
(0.993696 0.0137166 0)
(0.986744 0.0160309 0)
(0.98419 0.0204097 0)
(0.981785 0.0200148 0)
(0.976814 0.0169193 0)
(0.978782 0.0284447 0)
(0.96947 0.0113666 0)
(0.975899 0.0388551 0)
(0.974065 0.0176719 0)
(0.971439 0.0533821 0)
(0.978927 0.0393316 0)
(0.968127 0.0654257 0)
(0.98168 0.0662054 0)
(0.972586 0.0812298 0)
(0.988012 0.0943792 0)
(0.982409 0.0985172 0)
(1.00725 -0.0147343 0)
(0.976292 0.00899763 0)
(1.01595 0.0145938 0)
(1.00898 0.00820202 0)
(0.994921 -0.00945006 0)
(0.996189 0.00918731 0)
(0.990995 -0.0156429 0)
(0.977947 0.0129747 0)
(1.00001 -0.00201145 0)
(0.978406 0.0150476 0)
(1.00768 0.0256984 0)
(0.989363 0.0129937 0)
(0.990024 0.0153926 0)
(0.995512 0.0135659 0)
(0.989664 0.0250884 0)
(0.989466 0.0200205 0)
(0.981845 0.0194515 0)
(0.982916 0.0295367 0)
(0.970727 0.0139901 0)
(0.977888 0.0385428 0)
(0.971286 0.0188977 0)
(0.971427 0.0503732 0)
(0.979761 0.0421834 0)
(0.971509 0.0613559 0)
(0.985991 0.0679071 0)
(0.976944 0.0748967 0)
(0.993898 0.0911119 0)
(0.989063 0.0910917 0)
(1.00669 -0.0122871 0)
(0.974286 0.00643256 0)
(1.01376 0.0118987 0)
(1.01615 0.00940602 0)
(0.99513 -0.00574439 0)
(0.997506 0.00787336 0)
(0.991418 -0.0107383 0)
(0.974679 0.00978925 0)
(0.998157 -0.000581503 0)
(0.97905 0.0109608 0)
(1.00905 0.0252761 0)
(0.996881 0.0152749 0)
(0.989578 0.0158415 0)
(0.999593 0.0115551 0)
(0.995591 0.0268866 0)
(0.994949 0.022709 0)
(0.988864 0.0215263 0)
(0.986368 0.0328862 0)
(0.974625 0.017051 0)
(0.97913 0.0394649 0)
(0.973842 0.0213121 0)
(0.969898 0.0456241 0)
(0.982251 0.0443097 0)
(0.974012 0.0559368 0)
(0.990796 0.0666096 0)
(0.982511 0.0692549 0)
(0.99977 0.0850592 0)
(0.997438 0.0844888 0)
(1.00718 -0.00958831 0)
(0.974889 0.00416012 0)
(1.01012 0.00817589 0)
(1.0169 0.0101063 0)
(0.998011 -0.00153066 0)
(0.996964 0.00691091 0)
(0.993564 -0.0056066 0)
(0.974525 0.00763236 0)
(0.996416 -0.000201299 0)
(0.980097 0.00750924 0)
(1.0056 0.0224635 0)
(1.00206 0.01832 0)
(0.992953 0.015906 0)
(0.998248 0.010756 0)
(0.999898 0.0255885 0)
(0.996596 0.0262831 0)
(0.994348 0.0243397 0)
(0.990683 0.0362464 0)
(0.979803 0.021011 0)
(0.981312 0.0400733 0)
(0.97955 0.0261025 0)
(0.972278 0.0408965 0)
(0.983237 0.0444194 0)
(0.978201 0.049613 0)
(0.992588 0.0622066 0)
(0.989269 0.0632735 0)
(1.00232 0.0768267 0)
(1.00509 0.077723 0)
(1.00632 -0.00706902 0)
(0.980166 0.00236346 0)
(1.00695 0.00465631 0)
(1.01151 0.0103819 0)
(1.00032 0.002052 0)
(0.996835 0.00709357 0)
(0.995323 -0.0017705 0)
(0.979739 0.00691722 0)
(0.995492 -0.00019536 0)
(0.983256 0.00487143 0)
(1.00007 0.0185571 0)
(1.00405 0.0202264 0)
(0.998212 0.0160036 0)
(0.993874 0.0121959 0)
(1.0013 0.022751 0)
(0.995524 0.0291152 0)
(0.996379 0.0265033 0)
(0.995556 0.0387291 0)
(0.986267 0.0261528 0)
(0.985879 0.0399112 0)
(0.9859 0.0310713 0)
(0.979497 0.0378592 0)
(0.985925 0.0432745 0)
(0.984793 0.0449205 0)
(0.994142 0.0562045 0)
(0.995895 0.0571285 0)
(1.00354 0.0677433 0)
(1.01049 0.0699271 0)
(1.00383 -0.0052027 0)
(0.988814 0.000951668 0)
(1.00562 0.00232467 0)
(1.00194 0.0108145 0)
(1.00054 0.00396683 0)
(0.997327 0.00811538 0)
(0.996482 0.000355523 0)
(0.988635 0.00668278 0)
(0.996107 0.000515261 0)
(0.989005 0.00302605 0)
(0.995745 0.0145879 0)
(1.00177 0.0209572 0)
(1.00313 0.0165178 0)
(0.988972 0.015149 0)
(1.00041 0.0200141 0)
(0.993136 0.0302522 0)
(0.99579 0.0275217 0)
(0.998238 0.0399326 0)
(0.992739 0.0304161 0)
(0.992439 0.0393638 0)
(0.9924 0.0350563 0)
(0.989999 0.0363554 0)
(0.991443 0.0421973 0)
(0.993792 0.0413613 0)
(0.997657 0.0500435 0)
(1.0036 0.0511931 0)
(1.00618 0.0584365 0)
(1.01574 0.0620321 0)
(1.00105 -0.00423142 0)
(0.997553 -0.000452502 0)
(1.00471 0.00219937 0)
(0.992761 0.0117309 0)
(0.999065 0.00369698 0)
(0.997553 0.00935839 0)
(0.998085 0.000800973 0)
(0.997238 0.00600039 0)
(0.997882 0.00238312 0)
(0.995882 0.00221324 0)
(0.993217 0.0125796 0)
(0.997423 0.0205127 0)
(1.00497 0.0167193 0)
(0.985984 0.0193108 0)
(0.997649 0.0185357 0)
(0.990865 0.0299468 0)
(0.994835 0.0271597 0)
(0.998191 0.0389028 0)
(0.99789 0.0323962 0)
(0.998674 0.0384141 0)
(0.999288 0.0364401 0)
(1.00028 0.0360225 0)
(0.999006 0.0401788 0)
(1.00386 0.0391757 0)
(1.00368 0.0448411 0)
(1.01194 0.0458125 0)
(1.01115 0.0507023 0)
(1.02108 0.0539003 0)
(0.999035 -0.00408692 0)
(1.00415 -0.00166789 0)
(1.00269 0.00417629 0)
(0.987038 0.0127225 0)
(0.997872 0.00204401 0)
(0.997094 0.00987901 0)
(1.00012 -0.000111908 0)
(1.00347 0.00502303 0)
(0.998971 0.00489114 0)
(1.00216 0.00259354 0)
(0.992009 0.0121218 0)
(0.993574 0.0204484 0)
(1.00382 0.0174269 0)
(0.985161 0.0223456 0)
(0.995268 0.0185022 0)
(0.989312 0.0289556 0)
(0.995097 0.0250228 0)
(0.997223 0.0363899 0)
(1.00126 0.0317365 0)
(1.00312 0.0364709 0)
(1.00508 0.035588 0)
(1.00847 0.0350066 0)
(1.00667 0.0378402 0)
(1.01279 0.0371479 0)
(1.01046 0.0405304 0)
(1.01944 0.0413382 0)
(1.01686 0.0441727 0)
(1.02636 0.0468553 0)
(0.998695 -0.00461366 0)
(1.00636 -0.00250087 0)
(0.99952 0.00780773 0)
(0.987289 0.0131993 0)
(0.997708 -0.000340485 0)
(0.996512 0.00984072 0)
(1.00253 -0.00197306 0)
(1.00497 0.00395134 0)
(0.999313 0.0072786 0)
(1.00575 0.00404445 0)
(0.991824 0.0136456 0)
(0.991785 0.0202139 0)
(1.00127 0.0183429 0)
(0.988273 0.0241758 0)
(0.994012 0.0192706 0)
(0.990012 0.027821 0)
(0.996797 0.0223091 0)
(0.99707 0.0325298 0)
(1.00374 0.0285868 0)
(1.00504 0.0335544 0)
(1.00933 0.0321256 0)
(1.01307 0.0333339 0)
(1.01281 0.0343614 0)
(1.01829 0.0350704 0)
(1.01636 0.0368519 0)
(1.02394 0.0376328 0)
(1.0219 0.0394794 0)
(1.02948 0.0409254 0)
(0.999367 -0.00521547 0)
(1.00582 -0.0025303 0)
(0.996239 0.0109065 0)
(0.990481 0.0128627 0)
(0.999099 -0.00191386 0)
(0.99601 0.00910531 0)
(1.00441 -0.00337071 0)
(1.00398 0.00327244 0)
(0.998227 0.00882805 0)
(1.00686 0.00626201 0)
(0.992568 0.0151366 0)
(0.99235 0.0202997 0)
(0.99897 0.0194537 0)
(0.992592 0.0240964 0)
(0.99569 0.0200106 0)
(0.99212 0.0266869 0)
(0.999985 0.0201812 0)
(0.998533 0.0283738 0)
(1.00589 0.0246903 0)
(1.00595 0.0299584 0)
(1.01124 0.0280004 0)
(1.01472 0.0304992 0)
(1.01608 0.0304509 0)
(1.02059 0.032349 0)
(1.01963 0.0332358 0)
(1.02555 0.0344353 0)
(1.02444 0.0354895 0)
(1.03054 0.0364477 0)
(1.00024 -0.00584747 0)
(1.00331 -0.0020889 0)
(0.9945 0.0138634 0)
(0.995258 0.0114764 0)
(1.00029 -0.00293342 0)
(0.996328 0.00836052 0)
(1.00493 -0.00467516 0)
(1.0015 0.00339702 0)
(0.99695 0.00962821 0)
(1.00567 0.00829392 0)
(0.994167 0.0169724 0)
(0.994507 0.0197565 0)
(0.997936 0.020708 0)
(0.997576 0.0227968 0)
(0.998729 0.0201586 0)
(0.995874 0.0252217 0)
(1.00285 0.0186581 0)
(1.00159 0.0250031 0)
(1.00794 0.0205352 0)
(1.00684 0.026593 0)
(1.01164 0.0235185 0)
(1.01426 0.0274675 0)
(1.01695 0.0261277 0)
(1.02012 0.0292462 0)
(1.0205 0.0294304 0)
(1.02442 0.0312648 0)
(1.02467 0.0319847 0)
(1.02923 0.0327135 0)
(1.00095 -0.00591798 0)
(0.999828 -0.00128863 0)
(0.994294 0.014593 0)
(1.00063 0.00991419 0)
(1.00062 -0.00262162 0)
(0.997562 0.00757606 0)
(1.00441 -0.00455303 0)
(0.998629 0.00393351 0)
(0.99634 0.00961589 0)
(1.00315 0.00982689 0)
(0.996117 0.017392 0)
(0.997594 0.018948 0)
(0.998178 0.0212663 0)
(1.00226 0.021233 0)
(1.00187 0.0194619 0)
(1.00064 0.0234584 0)
(1.005 0.0178674 0)
(1.00516 0.0226975 0)
(1.00978 0.0177993 0)
(1.00838 0.0235826 0)
(1.01164 0.0203336 0)
(1.01305 0.0245614 0)
(1.01652 0.0226782 0)
(1.01836 0.0259663 0)
(1.01997 0.0258095 0)
(1.02192 0.0279002 0)
(1.02335 0.0284449 0)
(1.02634 0.0292003 0)
(1.00109 -0.00557514 0)
(0.997416 -0.000487527 0)
(0.994995 0.0140021 0)
(1.0043 0.00833728 0)
(1.00045 -0.00169323 0)
(0.999091 0.00698483 0)
(1.00327 -0.0036986 0)
(0.997096 0.00469513 0)
(0.996489 0.00919704 0)
(1.0012 0.0106798 0)
(0.997875 0.0170778 0)
(1.00034 0.0174704 0)
(0.99935 0.0210096 0)
(1.00544 0.0197544 0)
(1.00445 0.0183701 0)
(1.00479 0.021443 0)
(1.00643 0.0170512 0)
(1.00792 0.0209946 0)
(1.01108 0.0160918 0)
(1.01023 0.0211365 0)
(1.01196 0.0179574 0)
(1.01248 0.022207 0)
(1.0157 0.020025 0)
(1.017 0.0231399 0)
(1.01899 0.0225498 0)
(1.01995 0.0246775 0)
(1.0216 0.0249843 0)
(1.02365 0.0258229 0)
(1.00087 -0.00476234 0)
(0.996259 0.000230935 0)
(0.996059 0.0118887 0)
(1.00618 0.00712169 0)
(1.00007 -0.0002347 0)
(1.00044 0.00653706 0)
(1.00211 -0.00191741 0)
(0.996734 0.00530819 0)
(0.99727 0.00856695 0)
(1.00024 0.0108672 0)
(0.999388 0.0157834 0)
(1.00248 0.0159187 0)
(1.00088 0.0195243 0)
(1.0073 0.0185375 0)
(1.00616 0.0172297 0)
(1.00785 0.0194147 0)
(1.00746 0.016365 0)
(1.00968 0.0194967 0)
(1.01156 0.0154205 0)
(1.01173 0.0191511 0)
(1.01241 0.0165331 0)
(1.01251 0.0200719 0)
(1.01497 0.0182552 0)
(1.01608 0.0207038 0)
(1.01817 0.0199528 0)
(1.01871 0.0217007 0)
(1.0203 0.0217778 0)
(1.02163 0.022603 0)
(1.0004 -0.00384587 0)
(0.996507 0.000713844 0)
(0.997145 0.00955671 0)
(1.00609 0.00622087 0)
(0.999748 0.00109292 0)
(1.0013 0.00629448 0)
(1.00138 -0.000152767 0)
(0.99762 0.00571274 0)
(0.998384 0.00802187 0)
(1.00043 0.0104754 0)
(1.0006 0.0143404 0)
(1.00378 0.0144709 0)
(1.00235 0.0174724 0)
(1.0079 0.017254 0)
(1.007 0.016121 0)
(1.0095 0.0176269 0)
(1.00832 0.0155039 0)
(1.01055 0.0179688 0)
(1.01162 0.0148959 0)
(1.01265 0.0175091 0)
(1.01288 0.0153672 0)
(1.0131 0.0181084 0)
(1.01464 0.0166921 0)
(1.01576 0.0185685 0)
(1.01756 0.0177505 0)
(1.01823 0.019041 0)
(1.01952 0.0189096 0)
(1.02054 0.019589 0)
(1.00001 -0.00290798 0)
(0.997302 0.000991821 0)
(0.997927 0.00724467 0)
(1.0052 0.00565075 0)
(0.999662 0.00227746 0)
(1.00175 0.00600963 0)
(1.00117 0.00151414 0)
(0.998865 0.00588991 0)
(0.999505 0.00751463 0)
(1.00119 0.00987096 0)
(1.00159 0.0127071 0)
(1.00459 0.0132348 0)
(1.00351 0.0153271 0)
(1.00802 0.0157592 0)
(1.00735 0.0150194 0)
(1.01011 0.0160398 0)
(1.00894 0.0145817 0)
(1.011 0.0164034 0)
(1.01155 0.0143429 0)
(1.01299 0.0160239 0)
(1.0132 0.0144005 0)
(1.01366 0.0162634 0)
(1.0146 0.0152153 0)
(1.01564 0.0165573 0)
(1.01709 0.0157976 0)
(1.01793 0.0166734 0)
(1.01899 0.0163574 0)
(1.01989 0.0168714 0)
(0.999736 -0.0021516 0)
(0.998315 0.00112425 0)
(0.99838 0.0055211 0)
(1.00393 0.00522802 0)
(0.999885 0.00302798 0)
(1.00205 0.00571101 0)
(1.00126 0.00271258 0)
(1.00016 0.00587471 0)
(1.00047 0.00704562 0)
(1.00208 0.00916712 0)
(1.00239 0.0112081 0)
(1.00504 0.0120504 0)
(1.00441 0.0134827 0)
(1.00795 0.0142042 0)
(1.00751 0.0138149 0)
(1.0101 0.0145599 0)
(1.00935 0.0135151 0)
(1.01115 0.0148087 0)
(1.01144 0.013403 0)
(1.01299 0.0145408 0)
(1.01328 0.0132651 0)
(1.01402 0.0144889 0)
(1.01463 0.0136504 0)
(1.0156 0.0145956 0)
(1.01667 0.0139393 0)
(1.01762 0.0145153 0)
(1.01847 0.0141156 0)
(1.01935 0.0144503 0)
(0.999595 -0.00158542 0)
(0.999138 0.00128519 0)
(0.998681 0.00424201 0)
(1.00288 0.00472996 0)
(1.0002 0.00341665 0)
(1.00223 0.00543035 0)
(1.00149 0.0035391 0)
(1.00117 0.00578896 0)
(1.00133 0.00659688 0)
(1.00282 0.00835316 0)
(1.00301 0.00978421 0)
(1.00539 0.010827 0)
(1.00503 0.0118101 0)
(1.00791 0.0127004 0)
(1.00762 0.0124852 0)
(1.00992 0.0131754 0)
(1.00954 0.0123775 0)
(1.01114 0.0132598 0)
(1.01139 0.0122996 0)
(1.01278 0.0130224 0)
(1.01317 0.0120714 0)
(1.01401 0.012775 0)
(1.01452 0.0121192 0)
(1.0154 0.0126956 0)
(1.01619 0.0121755 0)
(1.0171 0.0125114 0)
(1.01778 0.0121168 0)
(1.01864 0.012302 0)
(0.999465 -0.00119936 0)
(0.999708 0.00135938 0)
(0.999138 0.00345486 0)
(1.00218 0.00428634 0)
(1.00033 0.00348352 0)
(1.0022 0.00507519 0)
(1.00169 0.0039057 0)
(1.00196 0.00555695 0)
(1.00214 0.0061486 0)
(1.00353 0.00750443 0)
(1.00354 0.00858976 0)
(1.00565 0.00964699 0)
(1.00542 0.0103004 0)
(1.00778 0.0112851 0)
(1.00764 0.0110807 0)
(1.00958 0.011785 0)
(1.00956 0.01113 0)
(1.01098 0.0117483 0)
(1.01129 0.0110395 0)
(1.01249 0.0114554 0)
(1.01292 0.0107702 0)
(1.0138 0.0111014 0)
(1.01427 0.0106091 0)
(1.01509 0.0108855 0)
(1.01565 0.0104964 0)
(1.01649 0.0106511 0)
(1.01698 0.01032 0)
(1.0178 0.0103962 0)
(0.999409 -0.000891886 0)
(0.999991 0.00130766 0)
(0.999516 0.00286809 0)
(1.00185 0.00395054 0)
(1.00051 0.0034942 0)
(1.00211 0.00463817 0)
(1.00189 0.00393319 0)
(1.00245 0.00511688 0)
(1.00266 0.00557637 0)
(1.00412 0.00670019 0)
(1.00393 0.00751382 0)
(1.00584 0.008565 0)
(1.0057 0.00895823 0)
(1.00762 0.00991911 0)
(1.00768 0.00973205 0)
(1.00923 0.0103398 0)
(1.0095 0.00985328 0)
(1.01069 0.0102134 0)
(1.01111 0.00971286 0)
(1.01213 0.00988496 0)
(1.01255 0.00941128 0)
(1.01342 0.00950617 0)
(1.0138 0.00913193 0)
(1.01461 0.00922369 0)
(1.01496 0.0089107 0)
(1.01577 0.00897466 0)
(1.01605 0.00868025 0)
(1.01685 0.00872224 0)
(0.999419 -0.000642053 0)
(1.00014 0.00115511 0)
(0.99975 0.00242087 0)
(1.00159 0.00364302 0)
(1.00072 0.00341767 0)
(1.00214 0.00419709 0)
(1.00207 0.00369681 0)
(1.0028 0.00453441 0)
(1.00296 0.00493898 0)
(1.00444 0.00587783 0)
(1.00419 0.00651636 0)
(1.00586 0.00752095 0)
(1.00589 0.00775829 0)
(1.00747 0.00859905 0)
(1.00768 0.008432 0)
(1.00893 0.0089012 0)
(1.00934 0.00852862 0)
(1.01039 0.00871283 0)
(1.01083 0.00833999 0)
(1.01173 0.00836806 0)
(1.01209 0.00802117 0)
(1.01293 0.00799833 0)
(1.01322 0.007704 0)
(1.01401 0.00770181 0)
(1.01421 0.00744472 0)
(1.01496 0.00745853 0)
(1.01509 0.00720813 0)
(1.01582 0.00722898 0)
(0.999485 -0.000450546 0)
(1.00023 0.00100044 0)
(0.999827 0.00204953 0)
(1.00137 0.00324165 0)
(1.00095 0.0032014 0)
(1.00223 0.00373214 0)
(1.00222 0.00333688 0)
(1.00305 0.0039605 0)
(1.0031 0.00427203 0)
(1.00451 0.00504072 0)
(1.00436 0.00554681 0)
(1.00576 0.00641948 0)
(1.00598 0.00661354 0)
(1.0073 0.00726216 0)
(1.00762 0.0071488 0)
(1.00868 0.00748493 0)
(1.00912 0.00719999 0)
(1.01008 0.00729121 0)
(1.01047 0.00697763 0)
(1.01131 0.00695609 0)
(1.01157 0.00666222 0)
(1.01237 0.00661239 0)
(1.01257 0.0063524 0)
(1.01332 0.00632249 0)
(1.01343 0.00609537 0)
(1.0141 0.00609036 0)
(1.01414 0.0058783 0)
(1.01476 0.00588519 0)
(0.999553 -0.000303265 0)
(1.00026 0.000850422 0)
(0.999905 0.00174528 0)
(1.00124 0.00278581 0)
(1.00106 0.00281821 0)
(1.00227 0.00322016 0)
(1.00234 0.00292899 0)
(1.0032 0.00336057 0)
(1.00321 0.00360603 0)
(1.00448 0.00421695 0)
(1.00446 0.00460037 0)
(1.00565 0.00530625 0)
(1.00593 0.00547613 0)
(1.0071 0.00595239 0)
(1.00746 0.00587892 0)
(1.00842 0.0061081 0)
(1.00881 0.00588959 0)
(1.00971 0.00592242 0)
(1.01006 0.00565695 0)
(1.01084 0.00560978 0)
(1.01106 0.00535997 0)
(1.01178 0.00530067 0)
(1.01194 0.00507818 0)
(1.01261 0.00503637 0)
(1.0127 0.00484526 0)
(1.01327 0.00482921 0)
(1.01328 0.00466014 0)
(1.01378 0.00465869 0)
(0.999613 -0.000206597 0)
(1.00026 0.000743701 0)
(0.999949 0.00145797 0)
(1.00114 0.00230927 0)
(1.00112 0.00233621 0)
(1.00226 0.00267457 0)
(1.00236 0.00242032 0)
(1.00323 0.00273602 0)
(1.00327 0.00290167 0)
(1.00439 0.00337427 0)
(1.00449 0.00363438 0)
(1.00552 0.00417763 0)
(1.00582 0.00430465 0)
(1.00688 0.00466116 0)
(1.00723 0.00458461 0)
(1.00812 0.00475025 0)
(1.00846 0.00455396 0)
(1.00929 0.00456842 0)
(1.00961 0.00432141 0)
(1.01033 0.00427144 0)
(1.01054 0.00404052 0)
(1.01118 0.00398727 0)
(1.01134 0.00378886 0)
(1.01193 0.00375261 0)
(1.01202 0.00359068 0)
(1.01251 0.00358133 0)
(1.01252 0.00345166 0)
(1.01293 0.00346243 0)
(0.999657 -0.000113855 0)
(1.00025 0.00061976 0)
(0.999975 0.00118057 0)
(1.00106 0.00184186 0)
(1.0011 0.00188396 0)
(1.00216 0.00212671 0)
(1.0023 0.00194517 0)
(1.00318 0.00215948 0)
(1.00326 0.00225721 0)
(1.00425 0.00259232 0)
(1.00443 0.00276331 0)
(1.00536 0.00314043 0)
(1.00565 0.0032366 0)
(1.00661 0.0034777 0)
(1.00694 0.0034193 0)
(1.00777 0.00352218 0)
(1.00806 0.00336986 0)
(1.00882 0.00336174 0)
(1.0091 0.00315132 0)
(1.00978 0.00307855 0)
(1.00998 0.00285709 0)
(1.01058 0.00276288 0)
(1.01075 0.00254667 0)
(1.01129 0.00244628 0)
(1.01142 0.00224439 0)
(1.01188 0.00215558 0)
(1.01193 0.00198173 0)
(1.0123 0.00191981 0)
(0.999691 -3.36496e-05 0)
(1.00024 0.000402941 0)
(1 0.000812054 0)
(1.00099 0.0011963 0)
(1.00107 0.0012592 0)
(1.00205 0.00137187 0)
(1.0022 0.00128627 0)
(1.00305 0.00136775 0)
(1.00317 0.00144129 0)
(1.00408 0.00161551 0)
(1.00431 0.00173868 0)
(1.00519 0.00193911 0)
(1.00547 0.00202153 0)
(1.00635 0.00214407 0)
(1.00667 0.00212794 0)
(1.00744 0.00216399 0)
(1.00768 0.00208386 0)
(1.00835 0.00205138 0)
(1.00855 0.00192655 0)
(1.00911 0.00184886 0)
(1.00922 0.00170766 0)
(1.00968 0.00161138 0)
(1.00974 0.00146531 0)
(1.01014 0.00135961 0)
(1.01019 0.00121607 0)
(1.01057 0.00111534 0)
(1.01062 0.00098925 0)
(1.01101 0.000910847 0)
(0.99971 -6.66563e-06 0)
(1.00023 0.000134342 0)
(1 0.000283452 0)
(1.00092 0.000399629 0)
(1.00101 0.000418165 0)
(1.00194 0.000436503 0)
(1.00211 0.000402712 0)
(1.00296 0.00041765 0)
(1.00311 0.000446526 0)
(1.00397 0.000498606 0)