/*--------------------------------*- C++ -*----------------------------------*\
| =========                 |                                                 |
| \\      /  F ield         | OpenFOAM: The Open Source CFD Toolbox           |
|  \\    /   O peration     | Version:                                        |
|   \\  /    A nd           | Website:  www.openfoam.com                      |
|    \\/     M anipulation  |                                                 |
\*---------------------------------------------------------------------------*/
FoamFile
{
    version     2.0;
    format      ascii;
    class       volVectorField;
    location    "76";
    object      U;
}
// * * * * * * * * * * * * * * * * * * * * * * * * * * * * * * * * * * * * * //

dimensions      [0 1 -1 0 0 0 0];


internalField   nonuniform List<vector> 
1139
(
(1.19238 0.230703 1.21155e-19)
(1.21493 0.243193 -2.37818e-19)
(1.19574 0.215322 2.97828e-20)
(1.21734 0.117001 1.20829e-19)
(1.12525 0.169723 -1.65058e-20)
(1.14568 0.0986538 -1.67364e-20)
(1.07336 0.123606 -1.35275e-20)
(1.09211 0.0646661 -1.57105e-20)
(1.13243 0.025244 -4.94432e-20)
(1.03995 0.0570608 -7.5437e-21)
(1.04601 0.0347174 5.5747e-20)
(1.1404 0.00996895 7.68375e-20)
(0.968499 0.0205779 -2.1773e-21)
(1.06332 0.0113008 -3.37784e-21)
(1.1225 -0.018326 -6.42521e-20)
(1.00132 -0.0321515 5.62052e-21)
(1.05719 -0.0144628 -5.92087e-21)
(1.11952 -0.0411043 2.18055e-20)
(1.09479 -0.0337307 5.40252e-20)
(0.986591 -0.0310758 -5.3593e-21)
(1.05097 -0.046393 3.75547e-21)
(1.12226 -0.0443302 -1.4168e-21)
(1.06757 -0.0527058 -1.9862e-20)
(0.964424 -0.101174 -1.85307e-20)
(1.10665 -0.0689033 -1.52482e-20)
(1.10637 -0.0587862 1.66803e-21)
(1.06728 -0.0622045 -8.54883e-21)
(0.153478 1.0827 -4.2654e-20)
(0.146157 0.968312 4.95595e-20)
(0.0351763 0.961401 3.85634e-20)
(-0.0909117 0.956734 -2.45138e-19)
(-0.237356 0.92567 -5.35823e-20)
(-0.392481 0.871123 -6.11223e-20)
(0.152383 0.820193 -9.54432e-22)
(0.0272115 0.838268 -8.22922e-21)
(-0.117838 0.869744 8.16106e-20)
(-0.284636 0.887796 1.93489e-19)
(-0.456918 0.874914 4.10109e-19)
(-0.578447 0.830582 3.48573e-19)
(0.161738 0.651921 -2.22181e-20)
(0.0298776 0.69471 1.69521e-19)
(-0.122962 0.750857 1.4345e-19)
(-0.302828 0.81265 -1.63571e-19)
(-0.492584 0.84929 -5.83444e-19)
(-0.628071 0.856528 -4.21984e-21)
(-0.607478 0.801291 -2.8841e-19)
(0.188512 0.46356 3.33374e-20)
(0.0490075 0.534858 -1.19985e-19)
(-0.109408 0.616823 -6.4769e-20)
(-0.300454 0.719252 -5.68996e-20)
(-0.500584 0.810285 6.68305e-19)
(-0.638233 0.8705 -1.52966e-19)
(-0.601214 0.869633 -8.47812e-20)
(-0.377834 0.705681 -8.70226e-20)
(0.240119 0.258009 2.17029e-20)
(0.0839238 0.36825 -5.08869e-20)
(-0.0900762 0.47761 -1.22961e-19)
(-0.296084 0.608818 3.25627e-20)
(-0.495423 0.737778 -2.53172e-20)
(-0.623895 0.845814 -8.43096e-20)
(-0.565265 0.908197 -5.81434e-19)
(-0.284847 0.783534 -3.10163e-19)
(0.136014 0.588915 -9.79329e-20)
(0.276363 0.0641426 -5.79674e-20)
(0.121565 0.184477 6.06298e-21)
(-0.0582573 0.3032 1.78221e-19)
(-0.270016 0.44781 1.06689e-19)
(-0.465018 0.611022 -4.03386e-19)
(-0.585789 0.771803 2.48077e-19)
(-0.513623 0.896344 1.34244e-19)
(-0.192444 0.819872 5.32583e-19)
(0.291406 0.658028 2.91235e-19)
(0.72209 0.439423 1.0934e-19)
(0.328925 -0.145792 4.34821e-20)
(0.163106 -0.034547 1.04707e-19)
(-0.0317865 0.0823318 -3.62925e-20)
(-0.241228 0.249459 -2.07253e-19)
(-0.433601 0.453018 1.93903e-19)
(-0.532254 0.659749 -2.58836e-20)
(-0.449172 0.835109 -7.02474e-20)
(-0.101466 0.805055 2.02457e-19)
(0.42835 0.662718 -3.68362e-19)
(0.885335 0.468527 7.27225e-20)
(0.405432 -0.455303 -4.96104e-20)
(0.200015 -0.344338 -5.01758e-20)
(-0.00812754 -0.193314 -2.71844e-19)
(-0.208613 -0.0016755 -1.94044e-20)
(-0.385219 0.229754 -3.51832e-20)
(-0.462237 0.480883 1.62339e-19)
(-0.378557 0.699664 -6.96542e-20)
(-0.0149154 0.736095 7.07189e-20)
(0.531517 0.607202 -2.22352e-21)
(0.976847 0.439391 -2.76615e-19)
(0.4908 -0.819272 -4.12871e-20)
(0.268713 -0.695638 1.80136e-19)
(0.0413061 -0.553316 3.04348e-19)
(-0.190054 -0.305945 2.54552e-19)
(-0.340102 -0.0223327 6.58563e-20)
(-0.390146 0.283775 -2.35946e-19)
(-0.320059 0.498738 1.27586e-19)
(0.0483074 0.592218 7.86486e-21)
(0.584794 0.500088 -4.59559e-20)
(1.01399 0.392521 1.21233e-19)
(0.545358 -1.09506 3.42709e-20)
(0.316398 -0.987578 -3.56797e-20)
(0.105338 -0.805047 -1.92578e-20)
(-0.0706805 -0.572053 6.32035e-20)
(-0.222094 -0.242322 -9.91617e-20)
(-0.279065 0.11133 8.8655e-20)
(-0.255229 0.314315 -2.00374e-20)
(0.0885204 0.408045 -3.8682e-21)
(0.683673 0.424613 -1.82813e-20)
(1.03345 0.286007 -2.71708e-20)
(0.569654 -1.23859 3.45578e-20)
(0.358041 -1.17277 -1.27334e-20)
(0.171524 -1.01963 -1.07757e-19)
(-0.0227627 -0.77696 4.04424e-21)
(-0.119882 -0.415274 -5.4772e-20)
(-0.191675 -0.0540455 4.31944e-20)
(-0.0503566 0.352996 3.69363e-20)
(0.30377 0.348676 -6.64058e-20)
(0.720774 0.263129 -4.72107e-20)
(0.99869 0.197399 8.09611e-21)
(0.583759 -1.28078 -2.46113e-20)
(0.417234 -1.22177 6.9303e-20)
(0.273093 -1.10967 -2.60124e-20)
(0.158465 -0.906953 -6.7129e-20)
(0.0334776 -0.601005 -7.66568e-20)
(0.0291433 -0.180301 1.46513e-20)
(0.100414 0.132516 1.90255e-20)
(0.278613 0.234196 -2.96404e-20)
(0.720675 0.152035 1.26531e-20)
(1.01801 0.113974 1.50947e-20)
(0.587635 -1.27585 -1.45981e-20)
(0.424378 -1.23921 1.98881e-19)
(0.300306 -1.1338 -9.09595e-21)
(0.221322 -0.966175 -7.67685e-20)
(0.143041 -0.749884 4.25796e-20)
(0.112302 -0.455012 -1.50118e-20)
(-0.0243212 -0.213756 -9.66215e-20)
(0.238951 0.00411321 1.88188e-19)
(0.798107 0.0372072 9.62096e-20)
(1.02201 0.0217495 -4.7855e-20)
(0.615615 -1.20796 -4.14922e-20)
(0.506186 -1.21812 -1.74677e-20)
(0.431272 -1.13781 -2.10293e-19)
(0.340893 -0.97776 -1.4584e-20)
(0.272275 -0.766089 2.48007e-20)
(0.246272 -0.442839 2.04085e-20)
(0.305786 -0.123764 9.75923e-20)
(0.57307 0.0075939 -8.51081e-20)
(0.860221 -0.0369265 -1.46826e-19)
(0.991325 -0.0485653 5.16819e-20)
(0.557707 -1.17464 4.77567e-22)
(0.472288 -1.19699 -2.92923e-20)
(0.450417 -1.14202 1.63977e-19)
(0.38073 -1.04106 9.05103e-20)
(0.367966 -0.823737 2.64508e-20)
(0.359906 -0.565692 1.35979e-20)
(0.250293 -0.351491 -3.52623e-20)
(0.446261 -0.181494 -2.97389e-20)
(0.879952 -0.157886 1.7015e-19)
(1.05848 -0.106453 2.25039e-20)
(0.600718 -1.14252 1.42091e-20)
(0.553729 -1.13996 -7.34102e-21)
(0.542761 -1.05736 1.46325e-20)
(0.508707 -0.950823 -8.0825e-20)
(0.541415 -0.78644 -9.62839e-20)
(0.483851 -0.620317 4.26489e-21)
(0.444156 -0.37689 1.13628e-20)
(0.709647 -0.197968 4.0355e-20)
(1.0051 -0.170701 -1.56295e-19)
(1.03971 -0.118365 1.13221e-20)
(0.558875 -1.15301 -1.65204e-20)
(0.55774 -1.16347 1.08171e-20)
(0.583079 -1.06909 -9.42363e-21)
(0.554234 -0.909051 7.62835e-20)
(0.57274 -0.75094 9.47212e-20)
(0.490677 -0.681675 -2.63519e-21)
(0.437126 -0.529367 -1.04457e-20)
(0.689048 -0.348506 -8.92332e-20)
(1.03433 -0.276641 2.33601e-20)
(1.09832 -0.197144 2.20337e-21)
(0.555855 -1.23182 3.90038e-21)
(0.609884 -1.2514 3.0603e-20)
(0.67392 -1.18436 -1.18871e-20)
(0.651107 -1.02075 -3.77855e-20)
(0.631035 -0.835497 2.02479e-20)
(0.554286 -0.749353 1.57453e-21)
(0.527039 -0.617507 -1.79803e-20)
(0.736448 -0.441715 3.98522e-20)
(1.06692 -0.329995 4.19254e-20)
(1.1416 -0.222435 4.31925e-21)
(0.509177 -1.26791 1.08348e-20)
(0.625274 -1.28499 7.35454e-21)
(0.741403 -1.25066 -2.20148e-20)
(0.764546 -1.12122 -8.40486e-20)
(0.738888 -0.934858 -1.85619e-19)
(0.66939 -0.7926 -5.54455e-20)
(0.665293 -0.633144 2.31975e-20)
(0.820917 -0.470587 1.5084e-20)
(1.09331 -0.359685 -1.18389e-21)
(1.17715 -0.247874 3.40347e-20)
(0.535653 -1.05436 -2.53967e-20)
(0.697282 -1.07156 -3.92288e-20)
(0.841378 -1.07732 -1.12132e-19)
(0.903738 -1.0168 5.54934e-20)
(0.888252 -0.902838 1.57665e-19)
(0.82359 -0.783714 -8.77384e-21)
(0.810701 -0.638357 2.67244e-20)
(0.915988 -0.492162 -6.68927e-21)
(1.16187 -0.376185 4.59751e-21)
(1.24095 -0.266684 -3.58711e-20)
(0.577777 -0.604837 2.05872e-20)
(0.778049 -0.614267 -3.9535e-20)
(0.93369 -0.668703 1.21508e-19)
(1.01474 -0.690865 -8.7241e-20)
(1.01869 -0.680412 2.81635e-20)
(0.982406 -0.63374 1.20392e-19)
(0.994589 -0.535805 -5.40231e-20)
(1.10415 -0.410425 -3.38041e-20)
(1.3293 -0.298145 -9.17213e-21)
(1.33368 -0.238134 -2.41541e-20)
(0.616768 -0.0346743 -7.259e-21)
(0.838792 -0.0240642 1.64471e-20)
(1.00687 -0.103204 2.66104e-20)
(1.1182 -0.173178 1.15419e-19)
(1.17292 -0.228698 -7.67602e-20)
(1.202 -0.24275 -1.01675e-19)
(1.26523 -0.206394 -7.64824e-20)
(1.38065 -0.152669 -3.29674e-20)
(1.51937 -0.118601 5.13863e-21)
(1.40338 -0.157338 1.85156e-20)
(0.649485 0.516386 -5.53499e-21)
(0.872655 0.551136 1.39614e-20)
(1.06555 0.480787 -8.78129e-20)
(1.22093 0.406505 -1.00583e-19)
(1.32894 0.315971 -8.41544e-21)
(1.41188 0.247972 5.42821e-20)
(1.49588 0.201828 3.03621e-20)
(1.57358 0.154656 -1.19136e-20)
(1.59916 0.0733985 -5.27278e-21)
(1.44139 -0.0547272 4.75695e-22)
(0.693038 0.884436 9.41785e-21)
(0.879104 0.930444 -4.19155e-20)
(1.0694 0.887792 1.13571e-20)
(1.24628 0.832078 7.80966e-21)
(1.37454 0.714045 3.05869e-20)
(1.48372 0.612787 -1.46942e-19)
(1.55804 0.489189 8.68386e-21)
(1.58535 0.365654 1.00626e-19)
(1.55273 0.227197 5.09749e-20)
(1.43505 0.0718429 -6.03115e-22)
(0.708543 1.02216 -4.60506e-21)
(0.859929 1.05458 4.63245e-20)
(1.02578 1.03498 -8.34789e-21)
(1.18206 0.983616 8.75218e-20)
(1.29695 0.870917 9.00952e-20)
(1.4062 0.766201 1.82376e-19)
(1.46241 0.61891 7.30767e-21)
(1.48915 0.47474 -2.28141e-20)
(1.47622 0.332097 -8.6665e-20)
(1.41384 0.190117 -1.21904e-20)
(0.730084 1.0183 1.07896e-20)
(0.839071 1.02571 2.00178e-20)
(0.966041 1.02099 1.82899e-20)
(1.07931 0.961284 -1.8268e-20)
(1.17787 0.872564 -5.98503e-20)
(1.27541 0.776039 -4.72e-20)
(1.32038 0.650244 1.17348e-20)
(1.36014 0.543231 2.29788e-20)
(1.37105 0.412444 4.02915e-20)
(1.35747 0.284064 2.0006e-20)
(0.734717 0.941905 -1.88986e-21)
(0.805041 0.940815 -7.95022e-21)
(0.90061 0.940466 4.27257e-20)
(0.979721 0.892678 2.41596e-20)
(1.06212 0.832296 -3.36648e-20)
(1.14035 0.742917 4.11774e-20)
(1.21011 0.641892 2.22548e-22)
(1.25098 0.561127 3.826e-21)
(1.26567 0.461284 -5.36473e-22)
(1.28496 0.363819 -9.2003e-21)
(0.743452 0.89937 -6.8582e-22)
(0.786172 0.878344 -2.36659e-20)
(0.843385 0.853591 -5.37753e-21)
(0.899193 0.810545 -1.55897e-20)
(0.960832 0.777552 3.63614e-21)
(1.00723 0.706703 -7.12051e-20)
(1.09149 0.635832 5.09914e-20)
(1.12726 0.553768 -1.31806e-20)
(1.16505 0.470038 3.84672e-21)
(1.20414 0.389132 -1.66151e-20)
(0.705332 0.901584 -3.71843e-21)
(0.722866 0.861018 -1.19712e-21)
(0.7546 0.811812 7.89683e-21)
(0.822603 0.753624 1.53282e-20)
(0.885043 0.71554 -2.53907e-20)
(0.917219 0.6501 2.99819e-20)
(0.991308 0.606752 -2.07544e-20)
(1.01353 0.543907 -2.20396e-20)
(1.06063 0.492724 1.39225e-20)
(1.11214 0.415776 3.69449e-21)
(0.647543 0.915265 -2.85919e-21)
(0.655652 0.863899 3.0168e-20)
(0.658055 0.793088 -1.62084e-20)
(0.711739 0.726241 -2.85394e-20)
(0.762465 0.665451 -6.64626e-21)
(0.80959 0.595076 1.72445e-20)
(0.88948 0.546534 -1.60852e-20)
(0.925101 0.4921 -7.83869e-21)
(0.973467 0.466047 -2.58894e-20)
(1.02525 0.416829 9.23769e-21)
(0.559857 0.907466 2.5478e-21)
(0.547933 0.843182 -2.33278e-20)
(0.534665 0.757575 9.87393e-21)
(0.588325 0.7065 -7.63468e-21)
(0.647207 0.63782 2.35869e-20)
(0.71227 0.582128 -3.50708e-21)
(0.788358 0.520149 1.75691e-20)
(0.837791 0.462902 8.96939e-21)
(0.893194 0.427117 1.07792e-20)
(0.939607 0.384135 3.54054e-21)
(0.446267 0.794794 4.46006e-22)
(0.415385 0.735191 1.22844e-20)
(0.41873 0.646017 -1.60799e-20)
(0.468577 0.609552 2.3503e-20)
(0.520866 0.548796 -4.84471e-21)
(0.591831 0.519115 -1.51639e-20)
(0.665923 0.475677 -6.82868e-21)
(0.736797 0.43358 -3.17746e-21)
(0.804515 0.405141 -2.26811e-21)
(0.850761 0.376268 -2.39583e-21)
(0.358955 0.523576 7.11749e-22)
(0.288642 0.50131 2.70691e-21)
(0.281446 0.452907 -2.39118e-20)
(0.337586 0.444065 -4.9582e-21)
(0.409754 0.408237 1.36382e-20)
(0.505562 0.399917 -2.51559e-21)
(0.575398 0.377929 -5.72384e-21)
(0.647191 0.364538 3.41208e-21)
(0.732605 0.349396 5.7557e-22)
(0.79608 0.340864 2.5177e-21)
(0.349852 0.101946 4.18172e-21)
(0.258705 0.12012 -2.42269e-20)
(0.235616 0.122813 2.30148e-20)
(0.277899 0.155587 5.40552e-21)
(0.324803 0.166101 4.70948e-21)
(0.40642 0.200865 -4.8789e-21)
(0.477472 0.206328 -1.08575e-20)
(0.556354 0.230153 1.22672e-22)
(0.640382 0.245511 -1.32503e-21)
(0.707081 0.257067 -2.26176e-21)
(0.33874 -0.312133 -7.49465e-21)
(0.253237 -0.24922 3.55784e-20)
(0.233748 -0.194582 2.15869e-20)
(0.265527 -0.123193 -2.34787e-20)
(0.325417 -0.073017 -1.85193e-20)
(0.405468 -0.0110874 6.44355e-22)
(0.462187 0.0202403 4.44805e-21)
(0.534445 0.0636392 -4.03192e-23)
(0.606326 0.0911144 3.96533e-22)
(0.648185 0.125699 -2.53553e-21)
(0.443938 -0.643276 3.24254e-21)
(0.374349 -0.567684 -1.43686e-20)
(0.354536 -0.500626 -1.17105e-20)
(0.353186 -0.409832 4.85391e-21)
(0.3774 -0.319944 1.70866e-20)
(0.408221 -0.231116 2.68266e-20)
(0.451927 -0.165731 1.55713e-20)
(0.504535 -0.102705 8.24666e-22)
(0.554863 -0.075947 3.78621e-22)
(0.60134 -0.0376977 3.92701e-21)
(0.580432 -0.264118 -6.34382e-21)
(0.58005 -0.187691 -3.7184e-23)
(0.607104 -0.130412 8.97633e-22)
(0.640903 -0.109157 -4.52135e-22)
(1.04923 -0.121605 0)
(1.09916 -0.10139 0)
(1.12182 -0.0944328 0)
(1.12588 -0.0818597 0)
(1.12915 -0.0708305 0)
(1.12863 -0.064108 0)
(1.12073 -0.0564703 0)
(1.11112 -0.0467366 0)
(1.09858 -0.0388154 0)
(1.08476 -0.031698 0)
(1.07481 -0.0268372 0)
(1.0667 -0.0233849 0)
(1.06057 -0.0210553 0)
(1.05618 -0.0199596 0)
(1.05153 -0.019182 0)
(1.0467 -0.0177895 0)
(1.04253 -0.0166225 0)
(1.03888 -0.0148325 0)
(1.03505 -0.013046 0)
(1.0314 -0.0112688 0)
(1.02819 -0.00988327 0)
(1.0255 -0.00874312 0)
(1.02312 -0.00767484 0)
(1.02136 -0.00668032 0)
(1.01986 -0.00567885 0)
(1.01859 -0.00461273 0)
(1.01764 -0.00366228 0)
(1.01689 -0.00255204 0)
(1.0164 -0.0015265 0)
(1.01611 -0.000596834 0)
(1.09158 -0.147058 0)
(1.11741 -0.119486 0)
(1.13398 -0.098249 0)
(1.13633 -0.0778539 0)
(1.13496 -0.0629398 0)
(1.13318 -0.0541923 0)
(1.1287 -0.0466067 0)
(1.11869 -0.0397615 0)
(1.10622 -0.0337854 0)
(1.09594 -0.0300751 0)
(1.08689 -0.0269964 0)
(1.07697 -0.0227773 0)
(1.06713 -0.0181159 0)
(1.05951 -0.0139799 0)
(1.0524 -0.0104071 0)
(1.04561 -0.00828566 0)
(1.04005 -0.00703386 0)
(1.03523 -0.00706117 0)
(1.03161 -0.00732931 0)
(1.02905 -0.00767644 0)
(1.02694 -0.0076546 0)
(1.02503 -0.00735589 0)
(1.02324 -0.00679488 0)
(1.02182 -0.00616524 0)
(1.02042 -0.00539523 0)
(1.01922 -0.00449671 0)
(1.01828 -0.0036407 0)
(1.01749 -0.00256815 0)
(1.017 -0.00154754 0)
(1.01669 -0.000603189 0)
(1.14256 -0.172941 0)
(1.15223 -0.137572 0)
(1.16221 -0.11152 0)
(1.15954 -0.0873046 0)
(1.15561 -0.0675413 0)
(1.1494 -0.0542389 0)
(1.13855 -0.043456 0)
(1.12422 -0.0327496 0)
(1.10888 -0.0252995 0)
(1.09455 -0.0211055 0)
(1.0819 -0.0176755 0)
(1.07261 -0.0160168 0)
(1.0676 -0.0164955 0)
(1.06188 -0.0173106 0)
(1.05518 -0.0177348 0)
(1.04943 -0.0173927 0)
(1.04431 -0.0167588 0)
(1.03966 -0.0148823 0)
(1.03549 -0.012932 0)
(1.0316 -0.0110246 0)
(1.0284 -0.00956781 0)
(1.0256 -0.00840407 0)
(1.02337 -0.00740083 0)
(1.0216 -0.00646457 0)
(1.02003 -0.00547968 0)
(1.01883 -0.00447936 0)
(1.01788 -0.00357641 0)
(1.01711 -0.00250702 0)
(1.01666 -0.00150893 0)
(1.01637 -0.000587275 0)
(1.20993 -0.17941 0)
(1.20331 -0.134181 0)
(1.192 -0.101184 0)
(1.17974 -0.0710918 0)
(1.16925 -0.0521304 0)
(1.16018 -0.0413289 0)
(1.14956 -0.0321884 0)
(1.13501 -0.0251113 0)
(1.11988 -0.0214572 0)
(1.10594 -0.0182776 0)
(1.09229 -0.0151702 0)
(1.08031 -0.0114144 0)
(1.06918 -0.00752849 0)
(1.06021 -0.00405595 0)
(1.05317 -0.00164306 0)
(1.04678 -0.00100762 0)
(1.04134 -0.00107392 0)
(1.0367 -0.00248188 0)
(1.03311 -0.00405059 0)
(1.0304 -0.00537292 0)
(1.028 -0.00602565 0)
(1.02584 -0.00620638 0)
(1.02403 -0.00604693 0)
(1.0224 -0.00566582 0)
(1.0209 -0.00506988 0)
(1.01968 -0.00431819 0)
(1.01866 -0.00353962 0)
(1.01785 -0.00252649 0)
(1.01736 -0.0015363 0)
(1.01704 -0.000594882 0)
(1.28885 -0.161639 0)
(1.26073 -0.125626 0)
(1.23341 -0.0873004 0)
(1.20878 -0.0615822 0)
(1.18801 -0.0428612 0)
(1.17081 -0.029644 0)
(1.1527 -0.0196962 0)
(1.13437 -0.0134844 0)
(1.11692 -0.00890103 0)
(1.10033 -0.00724236 0)
(1.08744 -0.00652135 0)
(1.07927 -0.00830708 0)
(1.07354 -0.0111543 0)
(1.06634 -0.0138083 0)
(1.0584 -0.0159517 0)
(1.05138 -0.0166924 0)
(1.04516 -0.0164391 0)
(1.03981 -0.0146202 0)
(1.03549 -0.01258 0)
(1.03164 -0.0105868 0)
(1.02853 -0.00909609 0)
(1.02593 -0.00799197 0)
(1.02386 -0.00705781 0)
(1.02201 -0.00615165 0)
(1.02049 -0.00522932 0)
(1.01928 -0.0043059 0)
(1.01827 -0.00345244 0)
(1.01747 -0.00244455 0)
(1.01698 -0.0014833 0)
(1.01667 -0.000573274 0)
(1.3431 -0.104813 0)
(1.30026 -0.0793074 0)
(1.25517 -0.0471478 0)
(1.22359 -0.028685 0)
(1.20177 -0.0178609 0)
(1.18035 -0.010474 0)
(1.1626 -0.0065842 0)
(1.1452 -0.00282209 0)
(1.1258 -0.00159984 0)
(1.10837 0.000473453 0)
(1.09313 0.00170086 0)
(1.07901 0.00406039 0)
(1.06684 0.00645725 0)
(1.05855 0.00781671 0)
(1.05261 0.00806585 0)
(1.04726 0.00693848 0)
(1.04276 0.00518567 0)
(1.03903 0.00222879 0)
(1.03548 -0.000703847 0)
(1.03256 -0.00294487 0)
(1.02969 -0.00428301 0)
(1.02734 -0.00498266 0)
(1.02523 -0.0051969 0)
(1.02333 -0.00507094 0)
(1.02173 -0.0046955 0)
(1.02037 -0.00408636 0)
(1.01923 -0.00339383 0)
(1.01835 -0.00245776 0)
(1.01779 -0.00150724 0)
(1.01744 -0.000580026 0)
(1.38883 -0.0269222 0)
(1.3305 -0.020513 0)
(1.27633 -0.00534988 0)
(1.2343 0.00382475 0)
(1.20083 0.0115482 0)
(1.17665 0.0145167 0)
(1.15659 0.0150485 0)
(1.13592 0.0134618 0)
(1.1167 0.0130137 0)
(1.10134 0.00886698 0)
(1.08943 0.00500089 0)
(1.08229 -0.000246797 0)
(1.07605 -0.0056091 0)
(1.06819 -0.01002 0)
(1.05903 -0.0134242 0)
(1.05098 -0.0150901 0)
(1.04397 -0.015215 0)
(1.03819 -0.0136495 0)
(1.03407 -0.0116011 0)
(1.0306 -0.00969131 0)
(1.02801 -0.00832503 0)
(1.02592 -0.00738565 0)
(1.02402 -0.00650874 0)
(1.02235 -0.00569219 0)
(1.02094 -0.00487343 0)
(1.01973 -0.00403192 0)
(1.0187 -0.00325764 0)
(1.01789 -0.00233339 0)
(1.01734 -0.00142594 0)
(1.01702 -0.000549389 0)
(1.38853 0.062493 0)
(1.32439 0.0485448 0)
(1.27446 0.0516445 0)
(1.23782 0.0402404 0)
(1.20361 0.0382904 0)
(1.17885 0.0342502 0)
(1.15998 0.0287181 0)
(1.13948 0.0282757 0)
(1.11981 0.0253818 0)
(1.10087 0.0238763 0)
(1.08515 0.022848 0)
(1.07041 0.0227002 0)
(1.05938 0.0219433 0)
(1.05289 0.0198913 0)
(1.0488 0.0173662 0)
(1.04541 0.0141004 0)
(1.04287 0.0104234 0)
(1.04032 0.00611692 0)
(1.03712 0.00208567 0)
(1.03391 -0.000800936 0)
(1.03084 -0.00271981 0)
(1.02819 -0.003799 0)
(1.02583 -0.00430857 0)
(1.02388 -0.00445324 0)
(1.02223 -0.00427795 0)
(1.02083 -0.00379874 0)
(1.01969 -0.00320336 0)
(1.0188 -0.00234948 0)
(1.01821 -0.00145002 0)
(1.01786 -0.00055666 0)
(1.37534 0.146079 0)
(1.31627 0.127479 0)
(1.26459 0.113414 0)
(1.22167 0.0916567 0)
(1.18674 0.0816267 0)
(1.16608 0.0660172 0)
(1.1469 0.0544655 0)
(1.12736 0.044291 0)
(1.11074 0.033962 0)
(1.09732 0.0239498 0)
(1.08649 0.0150496 0)
(1.08008 0.0066973 0)
(1.0737 -0.000452129 0)
(1.06474 -0.00556199 0)
(1.05509 -0.00940033 0)
(1.04671 -0.0118113 0)
(1.03917 -0.0122084 0)
(1.03337 -0.01122 0)
(1.02993 -0.00952696 0)
(1.02738 -0.00810834 0)
(1.0259 -0.00715621 0)
(1.02449 -0.00647385 0)
(1.02316 -0.00576395 0)
(1.02196 -0.00511367 0)
(1.02082 -0.00441284 0)
(1.0198 -0.0036836 0)
(1.01891 -0.00301358 0)
(1.01817 -0.00218363 0)
(1.01767 -0.00134445 0)
(1.01736 -0.000518162 0)
(1.33198 0.207478 0)
(1.27701 0.194139 0)
(1.24346 0.143014 0)
(1.20323 0.120629 0)
(1.17076 0.105957 0)
(1.15583 0.0848963 0)
(1.13632 0.0738795 0)
(1.12039 0.0644767 0)
(1.10185 0.0566931 0)
(1.08398 0.0505308 0)
(1.07025 0.0458896 0)
(1.05773 0.0411569 0)
(1.0494 0.0357247 0)
(1.04519 0.0296048 0)
(1.04343 0.0235832 0)
(1.04248 0.0182566 0)
(1.04199 0.0129411 0)
(1.04106 0.00788342 0)
(1.03811 0.00342056 0)
(1.03477 0.000395882 0)
(1.03142 -0.00172707 0)
(1.02842 -0.00289677 0)
(1.02601 -0.00362172 0)
(1.02403 -0.00394835 0)
(1.02238 -0.0039047 0)
(1.02105 -0.00353578 0)
(1.01999 -0.00301744 0)
(1.01915 -0.00223431 0)
(1.01861 -0.00138659 0)
(1.01829 -0.000530689 0)
(1.27669 0.27675 0)
(1.22103 0.266614 0)
(1.19908 0.199454 0)
(1.1685 0.175973 0)
(1.15537 0.144376 0)
(1.13935 0.113307 0)
(1.12691 0.092492 0)
(1.11258 0.0714124 0)
(1.10015 0.0518886 0)
(1.08959 0.0365444 0)
(1.07992 0.0232538 0)
(1.0736 0.0129257 0)
(1.06647 0.00570468 0)
(1.05754 0.000897475 0)
(1.04885 -0.00277603 0)
(1.04068 -0.00551075 0)
(1.03327 -0.00630811 0)
(1.02787 -0.00654503 0)
(1.02524 -0.00580941 0)
(1.02412 -0.00555797 0)
(1.02362 -0.00534928 0)
(1.02306 -0.00517807 0)
(1.02241 -0.00482058 0)
(1.02161 -0.00438948 0)
(1.02075 -0.00386446 0)
(1.01992 -0.00328945 0)
(1.01915 -0.00273943 0)
(1.01847 -0.00201542 0)
(1.018 -0.00125382 0)
(1.01771 -0.00048339 0)
(1.21101 0.303144 0)
(1.15637 0.286998 0)
(1.15675 0.204669 0)
(1.1147 0.206992 0)
(1.11107 0.15872 0)
(1.10189 0.138058 0)
(1.09398 0.119506 0)
(1.08517 0.100307 0)
(1.07278 0.0871267 0)
(1.06062 0.0749792 0)
(1.05248 0.0649251 0)
(1.04537 0.0543791 0)
(1.04098 0.0434187 0)
(1.03959 0.0330569 0)
(1.03959 0.0239954 0)
(1.04065 0.0173173 0)
(1.0424 0.0110466 0)
(1.04251 0.00646105 0)
(1.03992 0.00254396 0)
(1.03635 0.000177046 0)
(1.03255 -0.00151387 0)
(1.02929 -0.0024899 0)
(1.02669 -0.00321444 0)
(1.02455 -0.00357401 0)
(1.02285 -0.00359581 0)
(1.0215 -0.00329321 0)
(1.02042 -0.00282527 0)
(1.01959 -0.00210699 0)
(1.01904 -0.00131398 0)
(1.01872 -0.000500797 0)
(1.129 0.333859 0)
(1.07488 0.321227 0)
(1.12039 0.221463 0)
(1.08547 0.229919 0)
(1.09517 0.163495 0)
(1.08965 0.147198 0)
(1.08786 0.114385 0)
(1.0852 0.0871256 0)
(1.07972 0.0633814 0)
(1.07318 0.0460884 0)
(1.06592 0.0313265 0)
(1.05961 0.0212033 0)
(1.05335 0.0154297 0)
(1.04665 0.0112551 0)
(1.04062 0.00806982 0)
(1.03405 0.00489184 0)
(1.02752 0.0032822 0)
(1.02302 0.00110193 0)
(1.02158 -9.96499e-05 0)
(1.02169 -0.00166689 0)
(1.02211 -0.00267089 0)
(1.02232 -0.00334801 0)
(1.02212 -0.00350648 0)
(1.02166 -0.00340994 0)
(1.02098 -0.00315535 0)
(1.02025 -0.00278617 0)
(1.0195 -0.00238985 0)
(1.01883 -0.00179821 0)
(1.01835 -0.00113506 0)
(1.01806 -0.000439597 0)
(1.05849 0.348702 0)
(0.995843 0.331729 0)
(1.04524 0.269433 0)
(1.00549 0.255394 0)
(1.03682 0.197297 0)
(1.02886 0.179159 0)
(1.03458 0.145365 0)
(1.03423 0.121862 0)
(1.03193 0.103955 0)
(1.0316 0.0855642 0)
(1.03229 0.0696265 0)
(1.03334 0.0543363 0)
(1.03368 0.0391549 0)
(1.03463 0.0267171 0)
(1.03574 0.0165322 0)
(1.03847 0.00986159 0)
(1.04164 0.00409003 0)
(1.04249 0.00129966 0)
(1.04042 -0.000830562 0)
(1.03672 -0.0015653 0)
(1.03296 -0.00221634 0)
(1.02964 -0.00261743 0)
(1.027 -0.00307686 0)
(1.02485 -0.00332914 0)
(1.02316 -0.00331946 0)
(1.02184 -0.00303578 0)
(1.02079 -0.00259891 0)
(1.01999 -0.00194466 0)
(1.01945 -0.00121645 0)
(1.01914 -0.000462972 0)
(0.98452 0.314833 0)
(0.953274 0.282421 0)
(1.02071 0.234627 0)
(0.953706 0.223219 0)
(1.01536 0.164598 0)
(1.00224 0.159036 0)
(1.0313 0.118954 0)
(1.0411 0.0940622 0)
(1.045 0.071003 0)
(1.04319 0.0545634 0)
(1.03964 0.0427757 0)
(1.03511 0.0346092 0)
(1.03266 0.0306045 0)
(1.03116 0.0262328 0)
(1.0295 0.0227994 0)
(1.02572 0.0188554 0)
(1.02122 0.0158353 0)
(1.01859 0.0110474 0)
(1.01826 0.00719439 0)
(1.01945 0.00332496 0)
(1.02053 0.000704284 0)
(1.0213 -0.00101723 0)
(1.02151 -0.00186149 0)
(1.02137 -0.00221115 0)
(1.02093 -0.00230624 0)
(1.02034 -0.00219383 0)
(1.01969 -0.00198379 0)
(1.01911 -0.00154576 0)
(1.01867 -0.000993747 0)
(1.0184 -0.000389686 0)
(0.891458 0.316694 0)
(0.883908 0.287986 0)
(0.974405 0.232512 0)
(0.898256 0.228447 0)
(0.975051 0.16983 0)
(0.954994 0.165589 0)
(0.964936 0.126873 0)
(0.969827 0.112589 0)
(0.986776 0.0907073 0)
(1.00227 0.0702491 0)
(1.01275 0.0511018 0)
(1.02127 0.0349491 0)
(1.0253 0.0198951 0)
(1.02735 0.00976621 0)
(1.02951 0.0017992 0)
(1.03355 -0.00316125 0)
(1.03743 -0.00686155 0)
(1.03849 -0.00678973 0)
(1.0373 -0.00609284 0)
(1.03424 -0.00462275 0)
(1.03129 -0.00377053 0)
(1.0285 -0.003324 0)
(1.02628 -0.00328986 0)
(1.02441 -0.0032964 0)
(1.02297 -0.00315563 0)
(1.02185 -0.00282416 0)
(1.02095 -0.00239246 0)
(1.02028 -0.001791 0)
(1.01981 -0.00111925 0)
(1.01954 -0.000426533 0)
(0.839501 0.303754 0)
(0.823769 0.269135 0)
(0.915774 0.230429 0)
(0.875681 0.203473 0)
(0.936508 0.169141 0)
(0.949159 0.145222 0)
(0.985085 0.113808 0)
(1.00514 0.0913738 0)
(1.00695 0.0741449 0)
(1.00569 0.0638004 0)
(1.00762 0.0579242 0)
(1.00882 0.0518308 0)
(1.0129 0.0479189 0)
(1.01785 0.0418431 0)
(1.02008 0.0370014 0)
(1.0192 0.0322982 0)
(1.01755 0.0276825 0)
(1.01737 0.0206232 0)
(1.01781 0.0141332 0)
(1.01939 0.00819014 0)
(1.02041 0.0040341 0)
(1.02118 0.00135824 0)
(1.02146 -0.000182415 0)
(1.02138 -0.000999772 0)
(1.02106 -0.0014743 0)
(1.02051 -0.00162153 0)
(1.01993 -0.00160329 0)
(1.01939 -0.00131312 0)
(1.01898 -0.000862232 0)
(1.01874 -0.000344681 0)
(0.766055 0.23962 0)
(0.765205 0.190954 0)
(0.826778 0.182132 0)
(0.819671 0.138015 0)
(0.857983 0.122076 0)
(0.874652 0.104925 0)
(0.892479 0.0869688 0)
(0.915881 0.0719873 0)
(0.956587 0.0498842 0)
(0.98639 0.0302827 0)
(1.00232 0.0124411 0)
(1.01244 0.000878376 0)
(1.0172 -0.0076214 0)
(1.01924 -0.0113068 0)
(1.02343 -0.0143687 0)
(1.02859 -0.0168032 0)
(1.0318 -0.0175906 0)
(1.03227 -0.0147834 0)
(1.03207 -0.0112315 0)
(1.03035 -0.00783068 0)
(1.02876 -0.00553166 0)
(1.02702 -0.00430206 0)
(1.02545 -0.00370952 0)
(1.02407 -0.00340898 0)
(1.02292 -0.00307642 0)
(1.02198 -0.002653 0)
(1.02123 -0.00221655 0)
(1.02062 -0.00165161 0)
(1.02018 -0.00103023 0)
(1.01993 -0.00039418 0)
(0.709876 0.137107 0)
(0.747036 0.084976 0)
(0.80849 0.093073 0)
(0.818231 0.0648825 0)
(0.871588 0.067233 0)
(0.912618 0.0468237 0)
(0.938732 0.0428129 0)
(0.959822 0.049811 0)
(0.960001 0.055884 0)
(0.965607 0.0613509 0)
(0.979289 0.063366 0)
(0.991851 0.0599458 0)
(1.00357 0.0545378 0)
(1.0129 0.0472855 0)
(1.0161 0.0417745 0)
(1.01667 0.038052 0)
(1.01849 0.0329464 0)
(1.02077 0.0254898 0)
(1.02148 0.017796 0)
(1.02235 0.0111925 0)
(1.02245 0.00633173 0)
(1.0225 0.003219 0)
(1.02235 0.00122154 0)
(1.02202 4.65138e-05 0)
(1.02152 -0.000735782 0)
(1.02091 -0.00111911 0)
(1.02029 -0.00126707 0)
(1.01973 -0.00109928 0)
(1.01932 -0.00074165 0)
(1.01908 -0.000303238 0)
(0.667595 -0.0161504 0)
(0.696387 -0.0488063 0)
(0.767616 -0.0483471 0)
(0.793063 -0.0456884 0)
(0.821978 -0.00945808 0)
(0.852802 -0.00866096 0)
(0.895333 0.00273773 0)
(0.934139 -0.00982347 0)
(0.969139 -0.018771 0)
(0.993356 -0.026102 0)
(0.999869 -0.0305953 0)
(1.00306 -0.0300005 0)
(1.00528 -0.0269264 0)
(1.0093 -0.0238642 0)
(1.01671 -0.022383 0)
(1.02299 -0.0232564 0)
(1.02395 -0.0218962 0)
(1.02322 -0.018058 0)
(1.02387 -0.0131633 0)
(1.02411 -0.00924937 0)
(1.02441 -0.00640565 0)
(1.02423 -0.00491354 0)
(1.02371 -0.00399824 0)
(1.02309 -0.0034727 0)
(1.02244 -0.00298439 0)
(1.02187 -0.0024926 0)
(1.02134 -0.00205234 0)
(1.02087 -0.00152308 0)
(1.02052 -0.000951207 0)
(1.02031 -0.000365278 0)
(0.66302 -0.110585 0)
(0.690225 -0.119749 0)
(0.793288 -0.137562 0)
(0.881457 -0.152239 0)
(0.912011 -0.116677 0)
(0.927603 -0.0664845 0)
(0.939514 -0.0283107 0)
(0.936099 0.00615743 0)
(0.943196 0.0316831 0)
(0.954207 0.0398581 0)
(0.976205 0.0437888 0)
(0.994552 0.0403415 0)
(1.00822 0.0348844 0)
(1.01445 0.0312435 0)
(1.01462 0.029545 0)
(1.01554 0.0295509 0)
(1.02117 0.0263328 0)
(1.02554 0.0214268 0)
(1.0263 0.0152935 0)
(1.02585 0.0103446 0)
(1.02474 0.00631184 0)
(1.02379 0.00370184 0)
(1.02306 0.00178857 0)
(1.02234 0.000544524 0)
(1.0217 -0.000366058 0)
(1.02104 -0.000869128 0)
(1.02045 -0.00109107 0)
(1.01996 -0.000986154 0)
(1.01961 -0.000677079 0)
(1.0194 -0.000279567 0)
(0.633302 -0.0820805 0)
(0.649288 -0.0500461 0)
(1.10221 -0.0675458 2.1531e-20)
(1.062 -0.0774219 -4.6731e-21)
(1.06585 -0.0784982 1.01399e-21)
(1.08385 -0.079321 -7.12617e-22)
(1.0902 -0.0742782 -7.68182e-22)
(1.08537 -0.0684224 -2.14097e-21)
(1.08061 -0.0620658 5.04553e-21)
(1.07254 -0.0532932 -4.0723e-21)
(1.06338 -0.0441909 6.92102e-21)
(1.05972 -0.0403246 2.25739e-21)
(1.11214 -0.0476478 3.97996e-21)
(1.12974 -0.0526827 2.65747e-21)
(1.11934 -0.062758 1.10511e-22)
(1.10215 -0.0634247 -5.54772e-22)
(1.08884 -0.0563218 -2.73278e-21)
(1.08371 -0.0542635 2.81336e-21)
(1.08246 -0.0539335 4.57705e-21)
(1.07488 -0.0470777 -7.86963e-21)
(1.0668 -0.0414928 1.88064e-21)
(1.06409 -0.0386163 9.6054e-22)
(1.05664 -0.0334142 1.41456e-21)
(1.04809 -0.0273138 -2.59649e-22)
(1.04487 -0.02342 6.29745e-21)
(1.04167 -0.0202636 -5.28243e-21)
(1.0385 -0.0178486 -6.20575e-21)
(1.03669 -0.0163858 6.81442e-21)
(1.03474 -0.0152617 -7.82089e-21)
(1.03299 -0.0139289 5.13722e-21)
(1.03107 -0.0127026 1.72352e-21)
(1.02862 -0.0113432 -1.46374e-21)
(1.02597 -0.0100448 4.13038e-22)
(1.02361 -0.00890467 1.01802e-21)
(1.0217 -0.00786265 -1.65552e-22)
(1.01997 -0.0067746 -1.93136e-21)
(1.01871 -0.00572982 1.3443e-21)
(1.01767 -0.00466097 -4.55145e-22)
(1.0168 -0.0036538 3.32784e-22)
(1.01618 -0.00250859 -6.09322e-22)
(1.01578 -0.00150122 -6.35242e-22)
(1.01552 -0.000593138 -1.72416e-21)
(1.04371 -0.0515593 -1.38906e-21)
(1.04566 -0.0643256 2.50182e-21)
(1.08037 -0.0774157 1.61373e-21)
(1.10042 -0.0791329 -5.11038e-22)
(1.09971 -0.0707869 -5.4317e-21)
(1.09684 -0.0655424 6.6509e-21)
(1.09095 -0.0583276 -2.73819e-21)
(1.07941 -0.048168 5.71418e-21)
(1.07494 -0.0428617 -5.52725e-21)
(1.0723 -0.0404577 -2.50306e-21)
(1.06478 -0.0349921 6.74049e-21)
(1.06134 -0.0317317 1.9289e-21)
(1.0586 -0.0293543 -3.04307e-21)
(1.05233 -0.0250326 -1.19166e-21)
(1.04662 -0.0210522 -3.06325e-21)
(1.04164 -0.0182322 2.33273e-21)
(1.03636 -0.0154413 1.57525e-21)
(1.03176 -0.0135122 4.66368e-21)
(1.02847 -0.0121069 -1.17248e-20)
(1.02618 -0.0110502 4.45083e-21)
(1.02441 -0.00999576 2.21087e-22)
(1.02305 -0.00899318 3.03413e-22)
(1.02174 -0.00791679 1.16179e-23)
(1.02041 -0.00681565 -7.64961e-22)
(1.01938 -0.00579255 1.66891e-21)
(1.01836 -0.00472638 -2.217e-23)
(1.01749 -0.00373015 3.63589e-22)
(1.01683 -0.00258469 -6.91569e-22)
(1.01637 -0.00154736 9.82731e-22)
(1.01609 -0.000607218 3.01871e-22)
(1.13016 -0.0500471 4.27796e-21)
(1.12199 -0.0569767 5.21162e-21)