/*--------------------------------*- C++ -*----------------------------------*\
| =========                 |                                                 |
| \\      /  F ield         | OpenFOAM: The Open Source CFD Toolbox           |
|  \\    /   O peration     | Version:                                        |
|   \\  /    A nd           | Website:  www.openfoam.com                      |
|    \\/     M anipulation  |                                                 |
\*---------------------------------------------------------------------------*/
FoamFile
{
    version     2.0;
    format      ascii;
    class       volScalarField;
    location    "158.6";
    object      p;
}
// * * * * * * * * * * * * * * * * * * * * * * * * * * * * * * * * * * * * * //

dimensions      [0 2 -2 0 0 0 0];


internalField   nonuniform List<scalar> 
1136
(
-0.791677
-0.68143
-0.528868
-0.387688
-0.305863
-0.300324
-0.333349
-0.410474
-0.415236
-0.356923
-0.286766
-0.274773
-0.256654
-0.279231
-0.292533
-0.293853
-0.248064
-0.221096
-0.207183
-0.202657
-0.218133
-0.213812
-0.191197
-0.163813
-0.182436
-0.169756
-0.154877
-0.119494
-0.0808082
-0.0102736
-0.901102
-0.77032
-0.587312
-0.414578
-0.298653
-0.268441
-0.265416
-0.333294
-0.324649
-0.294384
-0.257519
-0.262143
-0.272718
-0.308114
-0.3212
-0.320019
-0.261633
-0.22483
-0.201174
-0.190658
-0.209688
-0.209862
-0.186523
-0.160423
-0.181094
-0.167133
-0.160673
-0.135155
-0.0829657
-0.00705995
-0.967322
-0.827431
-0.621576
-0.426473
-0.285561
-0.2372
-0.208873
-0.264776
-0.242946
-0.235849
-0.224652
-0.243624
-0.289599
-0.335824
-0.347485
-0.342592
-0.273401
-0.227199
-0.194595
-0.177636
-0.199604
-0.203866
-0.179883
-0.156413
-0.178792
-0.163419
-0.16717
-0.152584
-0.0854347
-0.00388547
-0.949731
-0.840682
-0.627841
-0.421969
-0.266353
-0.203518
-0.163008
-0.206671
-0.177173
-0.180564
-0.188785
-0.219972
-0.302064
-0.360435
-0.369376
-0.359192
-0.282191
-0.227281
-0.187108
-0.164235
-0.188504
-0.195752
-0.171805
-0.152287
-0.175489
-0.158615
-0.174333
-0.172188
-0.0884096
-0.000844191
-0.873681
-0.798058
-0.600725
-0.401576
-0.243933
-0.170639
-0.127882
-0.158155
-0.128934
-0.126137
-0.14912
-0.187637
-0.309648
-0.382617
-0.384841
-0.368146
-0.287125
-0.224721
-0.178438
-0.15032
-0.176499
-0.18571
-0.162952
-0.148222
-0.171489
-0.15278
-0.182126
-0.191847
-0.091729
0.00190982
-0.742633
-0.71148
-0.548073
-0.369188
-0.221233
-0.140631
-0.101412
-0.120345
-0.0980373
-0.0766802
-0.109061
-0.155466
-0.310285
-0.397325
-0.391569
-0.369096
-0.287869
-0.220368
-0.168896
-0.136665
-0.163956
-0.174679
-0.154212
-0.144575
-0.166803
-0.146048
-0.18988
-0.211421
-0.0949143
0.00427722
-0.585559
-0.463583
-0.318065
-0.19388
-0.115728
-0.0789137
-0.090686
-0.0747223
-0.0373879
-0.0754271
-0.121726
-0.299302
-0.405218
-0.390635
-0.363088
-0.282227
-0.214154
-0.159892
-0.123142
-0.150957
-0.161999
-0.145446
-0.141434
-0.161359
-0.138589
-0.1969
-0.229323
-0.0977513
0.00601572
-0.463658
-0.381182
-0.271658
-0.170373
-0.0982508
-0.0605046
-0.0681673
-0.058342
-0.0144788
-0.0442527
-0.0878829
-0.282109
-0.400221
-0.375046
-0.349779
-0.270414
-0.206442
-0.153752
-0.111262
-0.13701
-0.148474
-0.137547
-0.138566
-0.155141
-0.12999
-0.202646
-0.243558
-0.0997665
0.00699924
-0.324286
-0.286915
-0.214558
-0.142662
-0.0858895
-0.0480916
-0.051654
-0.0467607
-0.00239473
-0.0203722
-0.0547996
-0.248935
-0.386664
-0.399585
-0.338635
-0.256404
-0.195033
-0.145496
-0.101658
-0.122814
-0.134313
-0.12936
-0.135349
-0.148001
-0.120704
-0.206749
-0.25409
-0.100534
0.00697947
-0.186741
-0.179432
-0.162163
-0.114968
-0.0732505
-0.0370267
-0.0352549
-0.0353562
0.00554548
-0.00699563
-0.0249992
-0.205499
-0.354377
-0.357264
-0.315478
-0.236446
-0.176591
-0.127526
-0.0916149
-0.109263
-0.11926
-0.121302
-0.129977
-0.138881
-0.112027
-0.208761
-0.258637
-0.100045
0.0060284
-0.162995
-0.125766
-0.0828695
-0.0512429
-0.0260014
-0.0229988
-0.019572
0.0144625
0.0101667
0.006649
-0.155264
-0.313239
-0.354255
-0.286025
-0.20786
-0.153611
-0.109956
-0.0840926
-0.0943159
-0.103135
-0.111324
-0.125874
-0.128773
-0.104195
-0.20777
-0.258624
-0.0990431
0.00411811
-0.0810902
-0.0852743
-0.057637
-0.0338693
-0.016813
-0.0154059
-0.00712029
0.0246006
0.018958
0.0286093
-0.114586
-0.277218
-0.315776
-0.252739
-0.180225
-0.131453
-0.0975008
-0.0789032
-0.0827232
-0.0878296
-0.0974149
-0.121757
-0.117782
-0.0942571
-0.202593
-0.256952
-0.0968595
0.00175785
-0.0531348
-0.0637849
-0.0395472
-0.0208104
-0.00917462
-0.0084992
0.00225978
0.0325767
0.0290677
0.0424835
-0.0935024
-0.235865
-0.267666
-0.215527
-0.151308
-0.108701
-0.0850793
-0.0741512
-0.0715934
-0.0725872
-0.0810887
-0.113218
-0.104617
-0.0821992
-0.192127
-0.250907
-0.0911705
-0.000992886
-0.0289706
-0.0347137
-0.0202907
-0.00670969
-0.000328145
-0.000763549
0.0108418
0.0359469
0.0323584
0.0443746
-0.0754566
-0.179737
-0.212148
-0.175899
-0.12138
-0.0853061
-0.0729215
-0.0690064
-0.0603227
-0.0571752
-0.0638497
-0.100952
-0.0888595
-0.0676097
-0.17695
-0.239407
-0.081479
-0.0042297
-0.0139124
-0.0222584
-0.011927
0.00225712
0.00643118
0.00819696
0.0188482
0.0385813
0.0347982
0.040168
-0.0417022
-0.109173
-0.149069
-0.136999
-0.0934562
-0.0611838
-0.06125
-0.0642182
-0.0480322
-0.040421
-0.0451196
-0.0839204
-0.0709066
-0.0502182
-0.155387
-0.221218
-0.0688239
-0.00793818
0.000286533
-0.00264921
0.00687014
0.0132331
0.0122631
0.0131173
0.0232523
0.0405244
0.0410853
0.0422493
0.00660168
-0.0410558
-0.092387
-0.0996121
-0.0655211
-0.0381165
-0.0465706
-0.0542636
-0.0336077
-0.021967
-0.026193
-0.0629729
-0.0510637
-0.0310239
-0.125237
-0.196011
-0.0546046
-0.0114629
0.0135501
0.00639298
0.00687124
0.0160163
0.0193786
0.0211941
0.0274507
0.0436769
0.0498777
0.048774
0.046103
0.00774636
-0.0454002
-0.0671521
-0.0447483
-0.0180779
-0.0275022
-0.0353034
-0.0156226
-0.00264122
-0.00856825
-0.0403263
-0.0297175
-0.0106752
-0.0870716
-0.164532
-0.0396885
-0.0137443
0.0139822
0.0140438
0.0197905
0.0231054
0.0227806
0.0238389
0.0306501
0.0436792
0.0507715
0.0472026
0.0610517
0.0342519
-0.020977
-0.0418291
-0.0228779
0.00139329
-0.00375519
-0.0144093
0.00307362
0.0147621
0.00712111
-0.018105
-0.00905337
0.00935824
-0.0411592
-0.126438
-0.0255545
-0.0140445
0.0216006
0.0198806
0.0209126
0.0239898
0.025789
0.0294483
0.0344077
0.0438077
0.051728
0.0499391
0.060564
0.0441938
0.0094123
-0.0176326
-0.0067001
0.0144827
0.0188284
0.0147034
0.0231558
0.030265
0.0202954
0.00279092
0.0102155
0.0288217
0.0089103
-0.081543
-0.0157204
-0.012832
0.0253336
0.0240383
0.0264046
0.0286983
0.0295234
0.032542
0.0367914
0.0431211
0.0515409
0.050032
0.0560245
0.0478667
0.0200536
-0.00131308
0.0101313
0.0296602
0.0385076
0.0321473
0.0379289
0.0418529
0.0302969
0.0229399
0.0284361
0.0485192
0.0570654
-0.0331742
-0.0119315
-0.0100041
0.0287071
0.027931
0.0287289
0.0301868
0.0314287
0.0339597
0.0384538
0.0429545
0.049484
0.0506551
0.0516754
0.046358
0.029757
0.0135489
0.018635
0.0345932
0.050423
0.0465379
0.0466029
0.0478563
0.0396118
0.0382099
0.0399827
0.059606
0.0884661
0.0103502
-0.011102
-0.00792073
0.0305769
0.0301988
0.031059
0.0323284
0.0337267
0.0357097
0.0394391
0.0422564
0.0474201
0.0489959
0.0476635
0.0451958
0.0344156
0.0226822
0.0279329
0.0415319
0.055549
0.0513698
0.0506977
0.0502441
0.0429544
0.0468446
0.0488685
0.0657049
0.0943104
0.0338321
-0.0105193
-0.00632039
0.0321504
0.0322824
0.0330725
0.0337869
0.0350417
0.0364113
0.0395694
0.04201
0.0447656
0.0468662
0.0452805
0.0433976
0.0380216
0.0304463
0.0326735
0.042883
0.0552245
0.0525472
0.0511992
0.0517662
0.045622
0.0512777
0.052379
0.0660574
0.0912054
0.0467419
-0.00320172
-0.00335233
0.0334698
0.0336088
0.0343657
0.034798
0.035997
0.0371356
0.0395367
0.0414357
0.0429973
0.0447863
0.0435399
0.0423928
0.0393715
0.0350585
0.036387
0.0441781
0.0536593
0.0520011
0.051317
0.0514419
0.0462914
0.0528393
0.0543943
0.0634624
0.0757124
0.0491081
0.00567137
-0.000687519
0.0345235
0.0347887
0.0354661
0.0358017
0.0366604
0.0376301
0.0393674
0.0410444
0.0417594
0.0430235
0.0424618
0.0415935
0.0401528
0.0381566
0.0388412
0.0440464
0.0514238
0.0503246
0.0498513
0.0507309
0.0466711
0.051848
0.0531216
0.0591348
0.0662691
0.0473587
0.0123161
0.00178544
0.035434
0.0357958
0.0363282
0.0365768
0.0371537
0.0380807
0.0393301
0.040516
0.0410866
0.0417457
0.0417172
0.0412969
0.0402925
0.0398904
0.0403214
0.0437708
0.0491182
0.0486269
0.0486865
0.0495023
0.0463551
0.0504051
0.0515545
0.0549103
0.0570319
0.0428486
0.0167044
0.00386773
0.0361997
0.0365797
0.0369785
0.037177
0.0375635
0.0382302
0.0392599
0.0401081
0.0405194
0.0408564
0.0409311
0.0410273
0.0403127
0.0407014
0.0412045
0.0431006
0.0471631
0.0468867
0.0468856
0.0479384
0.0456187
0.0481512
0.0485637
0.0495408
0.0493763
0.0380232
0.0179791
0.00498501
0.0368118
0.0371906
0.0375165
0.0376156
0.0378799
0.0383533
0.0392193
0.0397132
0.0400415
0.040261
0.0403991
0.0407912
0.0402099
0.0407908
0.0413972
0.0423713
0.0451767
0.0451819
0.0452454
0.0459963
0.0442992
0.0454507
0.0453128
0.04499
0.0429543
0.0330734
0.0177838
0.00561626
0.0373365
0.0376533
0.0379226
0.0379169
0.0381164
0.0384051
0.0390828
0.0394292
0.0395949
0.0398293
0.039881
0.0403972
0.0400128
0.0404259
0.0411534
0.0415242
0.0433809
0.0435158
0.0433811
0.0438545
0.0424414
0.042727
0.0420032
0.0401651
0.0373484
0.0288962
0.0165896
0.00554917
0.0377714
0.0380032
0.0382269
0.0381583
0.0382656
0.0384365
0.0389395
0.0391859
0.039213
0.0394237
0.0394555
0.0399096
0.0396808
0.0398783
0.0405319
0.0406527
0.041667
0.0417937
0.0415615
0.0415901
0.0403978
0.0399219
0.0385057
0.0360974
0.0327826
0.0252581
0.0150246
0.00522849
0.0381303
0.0382851
0.0384477
0.0383332
0.0383448
0.0384621
0.038776
0.0389643
0.0388669
0.0390221
0.0390447
0.0393388
0.0392254
0.0391916
0.0396999
0.0396625
0.0400581
0.0401019
0.0396767
0.0393532
0.0381415
0.0370827
0.035329
0.0325022
0.028773
0.0221658
0.0135249
0.00477336
0.0384239
0.0385151
0.0385973
0.0384569
0.0383831
0.0384418
0.0386178
0.038719
0.0385605
0.0386095
0.0386255
0.0387523
0.0386362
0.0384781
0.0387287
0.0386088
0.0385632
0.0383722
0.0378383
0.0371586
0.0358427
0.0344811
0.0323781
0.029267
0.025491
0.0196358
0.0121229
0.00427107
0.0386593
0.038696
0.0386964
0.0385348
0.0383845
0.0383909
0.0384502
0.0384625
0.0382607
0.0381933
0.0381812
0.0381422
0.0379824
0.0377082
0.0377131
0.0375055
0.0371227
0.0367221
0.0360433
0.0350694
0.0336682
0.0320118
0.0296767
0.0265654
0.0227706
0.017459
0.0108831
0.00381969
0.0388511
0.038827
0.0387583
0.0385671
0.0383701
0.038303
0.0382739
0.0381932
0.037951
0.0377866
0.0376934
0.0375452
0.0372808
0.0369189
0.0367188
0.0363658
0.0357865
0.0351589
0.0343178
0.033162
0.0316048
0.029765
0.0273572
0.0242224
0.0204786
0.0156642
0.00982704
0.00342401
0.0390037
0.0389187
0.0387889
0.0385721
0.0383344
0.0381923
0.0380868
0.0379193
0.0376434
0.0373849
0.0372032
0.0369531
0.0365829
0.0361449
0.0357553
0.0352698
0.0345386
0.0337082
0.0327415
0.0314195
0.0297447
0.0278055
0.0253214
0.022231
0.0186257
0.0141819
0.00891062
0.00308777
0.0391102
0.0389663
0.0387896
0.0385449
0.0382748
0.0380699
0.0378892
0.037654
0.0373314
0.0370027
0.036725
0.0363819
0.0359281
0.0353988
0.0348684
0.0342516
0.0333988
0.0324272
0.0313197
0.0298866
0.028133
0.0260992
0.0236057
0.0205968
0.0171064
0.0129621
0.0081525
0.0028145
0.0391885
0.0389936
0.0387721
0.0384986
0.0382057
0.0379439
0.0376972
0.0374014
0.0370375
0.0366532
0.0362842
0.0358638
0.0353333
0.0347286
0.0340852
0.0333472
0.0324134
0.0313233
0.0300999
0.028594
0.0267711
0.0246891
0.022208
0.019263
0.0158968
0.0119995
0.00753764
0.00259194
0.0392479
0.0390073
0.0387483
0.0384547
0.0381403
0.037833
0.0375281
0.0371832
0.0367866
0.0363554
0.0359136
0.035423
0.034836
0.0341716
0.0334368
0.0326094
0.03161
0.0304377
0.0291263
0.0275633
0.0257046
0.0235901
0.0211214
0.0182472
0.0149855
0.0112672
0.00706685
0.00242527
0.0392581
0.0389873
0.038704
0.0383972
0.0380703
0.0377331
0.0373865
0.0370097
0.036589
0.0361263
0.0356309
0.0350901
0.0344654
0.0337553
0.0329582
0.0320644
0.0310214
0.0297971
0.0284202
0.0268242
0.0249441
0.0228094
0.0203607
0.0175377
0.0143506
0.0107615
0.00674075
0.00230856
0.0392802
0.0389914
0.0386927
0.0383764
0.03804
0.0376843
0.0373142
0.0369174
0.0364822
0.0360007
0.0354763
0.0349081
0.0342614
0.0335276
0.0326969
0.0317691
0.0307037
0.0294511
0.028042
0.0264288
0.024539
0.0223967
0.0199576
0.0171637
0.0140198
0.0104977
0.00656981
0.00224845
)
;

boundaryField
{
    outlet
    {
        type            fixedValue;
        value           uniform 0;
    }
    upperWall
    {
        type            symmetryPlane;
    }
    lowerWall
    {
        type            symmetryPlane;
    }
    inlet
    {
        type            zeroGradient;
    }
    cylinder
    {
        type            zeroGradient;
    }
    frontAndBack
    {
        type            empty;
    }
    procBoundary7to3
    {
        type            processor;
        value           nonuniform List<scalar> 
30
(
-0.652955
-0.573631
-0.454635
-0.354226
-0.30743
-0.328569
-0.398557
-0.48941
-0.504821
-0.418534
-0.314322
-0.284307
-0.240933
-0.250774
-0.261713
-0.263665
-0.232352
-0.216285
-0.211711
-0.213871
-0.225138
-0.21557
-0.193509
-0.166947
-0.182846
-0.17149
-0.149794
-0.105308
-0.0787152
-0.0133686
)
;
    }
    procBoundary7to6
    {
        type            processor;
        value           nonuniform List<scalar> 
42
(
-0.736782
-0.830108
-0.876742
-0.856462
-0.767149
-0.630285
-0.580255
-0.580255
-0.422127
-0.281684
-0.163903
-0.132397
-0.132397
-0.0840807
-0.0418757
-0.0192065
-0.00413926
0.00744126
0.0154654
0.0202759
0.0238707
0.0266283
0.0287655
0.030655
0.0320041
0.0333225
0.0343804
0.0353044
0.0361062
0.0367699
0.0372939
0.0377335
0.0381046
0.0384357
0.038717
0.0389581
0.0391609
0.0393089
0.0394184
0.0395052
0.0395315
0.0395648
)
;
    }
}


// ************************************************************************* //
