/*--------------------------------*- C++ -*----------------------------------*\
| =========                 |                                                 |
| \\      /  F ield         | OpenFOAM: The Open Source CFD Toolbox           |
|  \\    /   O peration     | Version:                                        |
|   \\  /    A nd           | Website:  www.openfoam.com                      |
|    \\/     M anipulation  |                                                 |
\*---------------------------------------------------------------------------*/
FoamFile
{
    version     2.0;
    format      ascii;
    class       volScalarField;
    location    "126.4";
    object      p;
}
// * * * * * * * * * * * * * * * * * * * * * * * * * * * * * * * * * * * * * //

dimensions      [0 2 -2 0 0 0 0];


internalField   nonuniform List<scalar> 
1136
(
-0.625311
-0.622053
-0.533899
-0.413186
-0.325577
-0.311958
-0.344456
-0.4403
-0.500541
-0.459116
-0.344315
-0.300754
-0.249251
-0.242498
-0.255932
-0.255182
-0.24164
-0.228371
-0.212855
-0.193575
-0.215164
-0.220407
-0.199075
-0.161267
-0.172336
-0.178962
-0.14952
-0.100642
-0.0733076
-0.0165328
-0.488982
-0.498109
-0.430388
-0.353204
-0.302776
-0.312076
-0.383507
-0.502965
-0.581541
-0.52835
-0.378514
-0.314198
-0.245696
-0.221263
-0.229038
-0.221619
-0.22208
-0.218843
-0.211974
-0.201893
-0.221024
-0.219771
-0.19837
-0.165292
-0.173829
-0.18291
-0.148208
-0.086968
-0.0688481
-0.0181979
-0.356854
-0.384158
-0.329608
-0.290952
-0.269697
-0.297727
-0.416102
-0.550043
-0.641906
-0.588116
-0.407132
-0.319124
-0.239387
-0.199959
-0.203046
-0.187124
-0.201376
-0.207414
-0.208424
-0.209742
-0.226525
-0.217875
-0.196003
-0.168989
-0.174912
-0.186261
-0.147104
-0.0742296
-0.064772
-0.0196456
-0.246131
-0.283854
-0.240965
-0.223718
-0.22569
-0.267261
-0.418467
-0.571109
-0.678513
-0.635465
-0.432692
-0.318937
-0.23246
-0.181594
-0.178397
-0.153044
-0.181067
-0.19438
-0.202823
-0.217184
-0.230757
-0.215015
-0.191799
-0.17192
-0.175868
-0.188941
-0.146309
-0.0626962
-0.0608988
-0.0208477
-0.163251
-0.196238
-0.168826
-0.152513
-0.176657
-0.220758
-0.395515
-0.564218
-0.679517
-0.652919
-0.45044
-0.312083
-0.221076
-0.16635
-0.1557
-0.121661
-0.16211
-0.179609
-0.195753
-0.223553
-0.234827
-0.212094
-0.186879
-0.173774
-0.176326
-0.190636
-0.145196
-0.0524976
-0.056956
-0.0216487
-0.103535
-0.124267
-0.114425
-0.0911831
-0.125562
-0.169103
-0.343889
-0.517535
-0.646351
-0.645763
-0.461524
-0.303685
-0.207579
-0.153142
-0.135118
-0.0918369
-0.141844
-0.16329
-0.188087
-0.228139
-0.23704
-0.208828
-0.182037
-0.174381
-0.176141
-0.191183
-0.143445
-0.0437799
-0.0528853
-0.0220018
-0.0729536
-0.0752623
-0.0476969
-0.0807307
-0.118106
-0.267905
-0.449386
-0.584951
-0.603991
-0.449777
-0.289913
-0.194806
-0.144016
-0.118126
-0.0713876
-0.120962
-0.145509
-0.178908
-0.229952
-0.237305
-0.204129
-0.177402
-0.173518
-0.176433
-0.190069
-0.140252
-0.0363176
-0.0484013
-0.0218875
-0.0372543
-0.0483696
-0.0215274
-0.0424954
-0.069605
-0.19736
-0.358345
-0.493876
-0.53127
-0.419941
-0.272272
-0.180141
-0.134524
-0.106217
-0.0558741
-0.0988855
-0.127783
-0.169799
-0.22785
-0.233879
-0.196236
-0.170206
-0.171378
-0.182715
-0.186904
-0.135343
-0.0301893
-0.0433284
-0.0212574
-0.0105805
-0.0300588
-0.00620387
-0.0165019
-0.033246
-0.129827
-0.272414
-0.407431
-0.486267
-0.385997
-0.257037
-0.170004
-0.126988
-0.102062
-0.0472899
-0.0768596
-0.108864
-0.157974
-0.220631
-0.227877
-0.185131
-0.159483
-0.166477
-0.177507
-0.180977
-0.128852
-0.0252354
-0.0380268
-0.0200786
0.0102971
-0.0146995
-1.08388e-05
-0.00401583
-0.0098799
-0.0751139
-0.19305
-0.310147
-0.381754
-0.32141
-0.231983
-0.156541
-0.114564
-0.0892373
-0.0403016
-0.0560305
-0.0939465
-0.145843
-0.205827
-0.214055
-0.169484
-0.146387
-0.159357
-0.170254
-0.172449
-0.120417
-0.0209331
-0.0327189
-0.0185245
-0.00318904
0.00276953
0.00844259
0.0114398
-0.0328239
-0.123555
-0.228842
-0.306597
-0.263939
-0.193576
-0.135619
-0.0998516
-0.0728015
-0.0306499
-0.0360559
-0.0759798
-0.130936
-0.191726
-0.198663
-0.152275
-0.133097
-0.151437
-0.161977
-0.160713
-0.112078
-0.0190705
-0.0274998
-0.0168694
0.000681859
0.00233343
0.00902093
0.0199876
-0.00620519
-0.0776353
-0.172326
-0.243341
-0.209523
-0.157959
-0.117456
-0.0858904
-0.0645304
-0.0248197
-0.0260401
-0.0606641
-0.114828
-0.178835
-0.181348
-0.133798
-0.118342
-0.141812
-0.151717
-0.146756
-0.102052
-0.0180153
-0.0220481
-0.015002
0.0038859
0.000817005
0.0133007
0.0214622
-0.00218488
-0.0525872
-0.120107
-0.179302
-0.156184
-0.126232
-0.101824
-0.0727482
-0.0580822
-0.0228071
-0.0223908
-0.0505756
-0.0995764
-0.161291
-0.159153
-0.112872
-0.100776
-0.129688
-0.138494
-0.129278
-0.0851399
-0.0167602
-0.0161146
-0.0128359
0.00688164
0.000668001
0.0158162
0.0221122
0.00272796
-0.0223625
-0.0713379
-0.125164
-0.110002
-0.0947346
-0.0833535
-0.0622303
-0.0543486
-0.0241957
-0.0241084
-0.0431934
-0.0821362
-0.137832
-0.133369
-0.0891318
-0.0810069
-0.115361
-0.121984
-0.107574
-0.0628927
-0.0150174
-0.00940669
-0.0103873
0.0177166
0.00730328
0.0196146
0.0256817
0.0204142
0.00628479
-0.0364318
-0.0830532
-0.0738217
-0.0699818
-0.0698838
-0.0500352
-0.0452163
-0.0269936
-0.0269124
-0.032609
-0.0609909
-0.110361
-0.105596
-0.0655228
-0.0590882
-0.0976991
-0.1016
-0.0829197
-0.0385443
-0.0112741
-0.00156259
-0.00754362
0.0244914
0.0122942
0.0206466
0.0298575
0.0323048
0.0198904
-0.0151333
-0.0543065
-0.0490761
-0.0482678
-0.0511613
-0.0354022
-0.0310747
-0.0258726
-0.0258711
-0.0176664
-0.0403469
-0.0773455
-0.0747952
-0.0419929
-0.0368297
-0.076024
-0.0776844
-0.0563483
-0.0133838
-0.00426066
0.00776497
-0.00423885
0.0294357
0.0171545
0.0220725
0.0318135
0.033129
0.0224255
-0.00202005
-0.0316946
-0.0324309
-0.0306505
-0.036555
-0.0227076
-0.0114249
-0.013423
-0.0152892
-0.000356211
-0.0203441
-0.0482626
-0.044991
-0.0179519
-0.0121931
-0.0514133
-0.0510079
-0.0284233
0.0106595
0.00552188
0.0184451
-0.000536458
0.031322
0.021156
0.0237755
0.0320099
0.0313742
0.023515
0.00573865
-0.0162105
-0.0192305
-0.017455
-0.0211972
-0.00637314
0.0103702
0.00951457
0.0114184
0.0187931
-0.001922
-0.0209312
-0.0181695
0.000903176
0.0133801
-0.02366
-0.024579
-0.00236573
0.0313003
0.0175603
0.0294538
0.00372642
0.0317587
0.0248785
0.0257156
0.0310746
0.0296676
0.0227285
0.0109247
-0.00352413
-0.0096207
-0.00661513
-0.00671138
0.00229923
0.0258232
0.0377778
0.0433864
0.0346503
0.0136449
0.00274926
0.00455899
0.0166322
0.0344676
0.00518196
-0.000529741
0.0192657
0.0464334
0.0302094
0.0403911
0.00746909
0.0317818
0.0271097
0.0265802
0.0297714
0.0279086
0.0227148
0.0141011
0.00433959
0.000164787
0.00215103
0.00534738
0.015041
0.0377922
0.0503832
0.0615888
0.045276
0.0249432
0.0186226
0.0221584
0.0310565
0.0543286
0.025156
0.0172372
0.0335279
0.0539478
0.0421824
0.0505996
0.0124646
0.0305187
0.0278702
0.0269958
0.0284002
0.0266114
0.0226477
0.0165984
0.0108071
0.00762666
0.008768
0.0143791
0.0219866
0.0410185
0.0557776
0.0647407
0.0490374
0.0329074
0.0306886
0.0327482
0.0364098
0.0643675
0.0455336
0.0309292
0.0415118
0.0555452
0.047491
0.0528472
0.0156693
0.0294876
0.0278503
0.0266381
0.0273215
0.0256737
0.0231238
0.0184604
0.0149281
0.0139878
0.014715
0.0210745
0.0277681
0.0413953
0.0517332
0.0621187
0.0510037
0.0372343
0.0358638
0.0418253
0.0444016
0.0659705
0.0499704
0.0381677
0.0440043
0.0500446
0.052037
0.0543516
0.01745
0.0281156
0.0272276
0.0261276
0.0264269
0.025115
0.0232371
0.0203517
0.018095
0.0182552
0.019012
0.0246408
0.0304115
0.0401828
0.0496542
0.0566455
0.0500307
0.0402498
0.0404171
0.0430725
0.0451335
0.0630918
0.0536928
0.0425295
0.0456382
0.0457735
0.0526512
0.0552938
0.0189767
0.0267963
0.0264263
0.0254103
0.0256719
0.0247705
0.0237458
0.0218667
0.0203413
0.0213893
0.0223973
0.0270212
0.0322918
0.0390145
0.0456911
0.0516128
0.0484025
0.0411712
0.0420066
0.0446734
0.0466754
0.0585984
0.0527377
0.0441921
0.0445464
0.0421748
0.0503214
0.0449111
0.0158868
0.0256021
0.0254941
0.024848
0.0250572
0.0246818
0.0239481
0.0230673
0.0223134
0.0235886
0.0248299
0.0282973
0.0325281
0.0375872
0.0426533
0.0469898
0.0461735
0.0413159
0.0428055
0.0446437
0.0454932
0.0537204
0.0501402
0.0443363
0.0438277
0.0382644
0.0452357
0.0407852
0.0144304
0.0246118
0.0246722
0.0243494
0.0245655
0.0245865
0.0243452
0.0239975
0.023789
0.0249477
0.0264641
0.0290209
0.0324276
0.0365031
0.0400375
0.043648
0.0440872
0.0407286
0.0421474
0.0437464
0.0445639
0.0495151
0.047274
0.043315
0.0420337
0.0359583
0.0404767
0.0358247
0.0126233
0.0237956
0.0239352
0.0238799
0.0242131
0.0245546
0.024621
0.0245483
0.0248075
0.0259087
0.0273736
0.0293962
0.0317647
0.0353186
0.0380023
0.0404649
0.0418521
0.039728
0.0411235
0.0426097
0.0427635
0.0457516
0.0441329
0.0413891
0.0399886
0.0331983
0.0349497
0.0308855
0.0110469
0.0230797
0.0233111
0.0234699
0.0239439
0.024396
0.024775
0.0248736
0.0254118
0.026431
0.0277656
0.0294843
0.0311936
0.0341126
0.0361955
0.0380462
0.0396477
0.0384937
0.0395715
0.040795
0.0407415
0.0423268
0.0411268
0.0389453
0.0369774
0.0309885
0.0304491
0.0261106
0.00951993
0.0224625
0.0228133
0.023077
0.0236689
0.0242289
0.0247692
0.0250052
0.0256231
0.0266738
0.0277743
0.0293005
0.0305576
0.0328421
0.0346603
0.0358498
0.0374393
0.0370255
0.0377692
0.0387652
0.0385005
0.0392532
0.0380709
0.0360212
0.0340198
0.0287062
0.0261077
0.0215447
0.00806165
0.0219651
0.0223882
0.0227278
0.0234018
0.0240082
0.0246204
0.0249768
0.0256028
0.0266258
0.0275765
0.0288494
0.0298572
0.0316022
0.0331578
0.0340441
0.0353132
0.0353868
0.0358499
0.0364987
0.0362061
0.0362877
0.0350627
0.0332145
0.030917
0.0261225
0.022648
0.0177881
0.00675115
0.0215706
0.022035
0.0224302
0.0231103
0.0237697
0.024373
0.0248231
0.0253973
0.0263848
0.0272134
0.0282495
0.0291106
0.0303849
0.0317264
0.032355
0.033318
0.0336477
0.0338631
0.0342247
0.0338423
0.0335078
0.0322808
0.030302
0.0278747
0.0237099
0.0196951
0.0146583
0.00557483
0.0212731
0.0217376
0.022163
0.0228233
0.0234947
0.0240699
0.0245479
0.0250973
0.0259792
0.0267304
0.0275472
0.0282854
0.0292492
0.030308
0.0308153
0.0314651
0.0318311
0.0319314
0.0319598
0.0315218
0.0309365
0.029551
0.0275774
0.0251762
0.0213387
0.0171683
0.0122533
0.0046219
0.0210564
0.0214941
0.0219359
0.022544
0.0231989
0.0237281
0.0242047
0.0247213
0.0254838
0.0261657
0.0267902
0.0274236
0.0281403
0.0289515
0.0293567
0.0297366
0.0300572
0.0300249
0.0298118
0.0293081
0.0284869
0.0270615
0.0251228
0.022663
0.0191475
0.015128
0.0103952
0.00384225
0.0208968
0.0213052
0.0217316
0.0222829
0.0228817
0.0233719
0.0238122
0.0242901
0.0249391
0.0255317
0.026028
0.0265302
0.0270828
0.0276727
0.0279606
0.0281638
0.0283369
0.0282118
0.027833
0.0272026
0.02628
0.0248199
0.0228593
0.0204622
0.0172461
0.0134146
0.00895119
0.00324572
0.0207949
0.0211644
0.0215596
0.0220453
0.0225761
0.0230229
0.0234168
0.0238505
0.0243808
0.0248879
0.0252761
0.0256628
0.0260842
0.0264781
0.0266686
0.0267201
0.0267473
0.0265418
0.0260172
0.0253055
0.0243036
0.0228017
0.0208971
0.0185689
0.0155626
0.011991
0.00784706
0.00279535
0.0207197
0.0210524
0.021408
0.0218292
0.0222864
0.0226818
0.0230319
0.0234072
0.0238442
0.0242585
0.0245649
0.0248527
0.0251507
0.0254053
0.0254912
0.0254312
0.0253317
0.0250267
0.0244233
0.0236317
0.0225636
0.0210746
0.0192075
0.0169437
0.0141416
0.0108235
0.00697928
0.00245262
0.0206659
0.0209662
0.021283
0.0216462
0.0220296
0.0223743
0.0226789
0.023001
0.0233545
0.0236828
0.023926
0.0241269
0.0243273
0.0244671
0.0244651
0.0243264
0.0241077
0.0237262
0.0230671
0.0222048
0.0211055
0.0196257
0.0177975
0.0156205
0.0129773
0.00987277
0.00630847
0.00219767
0.0206421
0.020911
0.0211926
0.0215023
0.0218227
0.0221202
0.0223884
0.0226621
0.0229441
0.0232034
0.0233933
0.0235311
0.0236471
0.023698
0.0236331
0.0234305
0.0231245
0.0226785
0.0219819
0.0210762
0.0199483
0.0184868
0.0167034
0.0145926
0.0120757
0.00915076
0.00581206
0.00201276
0.0206084
0.0208569
0.0211143
0.0213857
0.0216603
0.0219226
0.0221635
0.0223989
0.0226305
0.0228395
0.0229942
0.0230879
0.023142
0.0231344
0.0230241
0.02278
0.0224113
0.0219158
0.0212007
0.0202646
0.0191199
0.0176782
0.0159253
0.0138681
0.0114459
0.00864591
0.00546907
0.00188679
0.0206073
0.0208409
0.0210825
0.0213319
0.0215806
0.021822
0.0220457
0.0222596
0.0224624
0.0226438
0.0227782
0.022847
0.0228675
0.0228269
0.0226933
0.0224276
0.0220255
0.0215055
0.0207811
0.0198302
0.0186773
0.0172463
0.0155123
0.0134852
0.0111128
0.00838111
0.0052924
0.00182325
)
;

boundaryField
{
    outlet
    {
        type            fixedValue;
        value           uniform 0;
    }
    upperWall
    {
        type            symmetryPlane;
    }
    lowerWall
    {
        type            symmetryPlane;
    }
    inlet
    {
        type            zeroGradient;
    }
    cylinder
    {
        type            zeroGradient;
    }
    frontAndBack
    {
        type            empty;
    }
    procBoundary7to3
    {
        type            processor;
        value           nonuniform List<scalar> 
30
(
-0.751282
-0.738279
-0.628809
-0.470295
-0.342023
-0.300794
-0.298409
-0.376972
-0.414236
-0.385626
-0.305697
-0.280378
-0.252553
-0.26409
-0.282919
-0.288339
-0.261058
-0.236761
-0.211572
-0.184754
-0.208077
-0.2195
-0.198314
-0.156592
-0.170574
-0.174358
-0.151389
-0.11553
-0.0780947
-0.0146645
)
;
    }
    procBoundary7to6
    {
        type            processor;
        value           nonuniform List<scalar> 
42
(
-0.521893
-0.417932
-0.3187
-0.232112
-0.157723
-0.0994424
-0.0564696
-0.0564696
-0.0219845
-0.000884664
0.011887
0.0255094
0.0255094
0.0319421
0.0375592
0.0354829
0.0465314
0.0388617
0.038837
0.036147
0.0343748
0.032745
0.0311677
0.029665
0.0282252
0.0268024
0.0255627
0.0243842
0.0234058
0.0225752
0.0219017
0.0213765
0.0209943
0.0207114
0.0205297
0.0204169
0.0203583
0.0203383
0.0203391
0.0203613
0.0203621
0.020382
)
;
    }
}


// ************************************************************************* //
