/*--------------------------------*- C++ -*----------------------------------*\
| =========                 |                                                 |
| \\      /  F ield         | OpenFOAM: The Open Source CFD Toolbox           |
|  \\    /   O peration     | Version:                                        |
|   \\  /    A nd           | Website:  www.openfoam.com                      |
|    \\/     M anipulation  |                                                 |
\*---------------------------------------------------------------------------*/
FoamFile
{
    version     2.0;
    format      ascii;
    class       surfaceScalarField;
    location    "71";
    object      phi;
}
// * * * * * * * * * * * * * * * * * * * * * * * * * * * * * * * * * * * * * //

dimensions      [0 3 -1 0 0 0 0];
oriented        oriented;


internalField   nonuniform List<scalar> 
2365
(
1.32158e-05
2.44864e-11
1.32158e-05
1.61777e-11
1.32158e-05
8.72598e-12
1.32158e-05
2.22512e-12
1.32158e-05
-2.88314e-12
1.32158e-05
-7.27377e-12
1.32158e-05
-1.04803e-11
1.32158e-05
-1.32061e-11
1.32158e-05
-1.49815e-11
1.32158e-05
-1.65064e-11
1.32158e-05
-1.72777e-11
1.32158e-05
-1.79733e-11
1.32158e-05
-1.80617e-11
1.32158e-05
-1.82024e-11
1.32158e-05
-1.78411e-11
1.32158e-05
-1.76213e-11
1.32158e-05
-1.69746e-11
1.32158e-05
-1.65342e-11
1.32158e-05
-1.57208e-11
1.32158e-05
-1.51576e-11
1.32158e-05
-1.42599e-11
1.32158e-05
-1.36443e-11
1.32158e-05
-1.27213e-11
1.32158e-05
-1.21e-11
1.32158e-05
-1.11896e-11
1.32158e-05
-1.0595e-11
1.32158e-05
-9.72345e-12
1.32158e-05
-9.17411e-12
1.32158e-05
-8.35539e-12
1.32158e-05
-7.86326e-12
1.32158e-05
-7.10609e-12
1.32158e-05
-6.6751e-12
1.32158e-05
-5.98099e-12
1.32158e-05
-5.6129e-12
1.32158e-05
-4.98219e-12
1.32158e-05
-4.67433e-12
1.32158e-05
-4.10319e-12
1.32158e-05
-3.85297e-12
1.32158e-05
-3.3384e-12
1.32158e-05
-3.1404e-12
1.32158e-05
-2.67652e-12
1.32158e-05
-2.52673e-12
1.32158e-05
-2.10955e-12
1.32158e-05
-2.00227e-12
1.32158e-05
-1.62581e-12
1.32158e-05
-1.55714e-12
1.32158e-05
-1.21761e-12
1.32158e-05
-1.18204e-12
1.32158e-05
-8.73924e-13
1.32158e-05
-8.68022e-13
1.32158e-05
-5.88255e-13
1.32158e-05
-6.07341e-13
1.32158e-05
-3.51194e-13
1.32158e-05
-3.92764e-13
1.32158e-05
-1.57837e-13
1.32158e-05
-2.17834e-13
1.32158e-05
-4.54294e-17
1.32158e-05
-7.64979e-14
1.32158e-05
1.25694e-13
1.32158e-05
3.59683e-14
1.32158e-05
2.25867e-13
1.32158e-05
1.24022e-13
1.32158e-05
3.026e-13
1.32158e-05
1.91348e-13
1.32158e-05
3.61337e-13
1.32158e-05
2.41271e-13
1.32158e-05
4.03094e-13
1.32158e-05
2.76236e-13
1.32158e-05
4.31997e-13
1.32158e-05
2.98529e-13
1.32158e-05
4.48175e-13
1.32158e-05
3.09882e-13
1.32158e-05
4.555e-13
1.32158e-05
3.12282e-13
1.32158e-05
4.53732e-13
1.32158e-05
3.07231e-13
1.32158e-05
4.4632e-13
1.32158e-05
2.96539e-13
1.32158e-05
4.33246e-13
1.32158e-05
2.82138e-13
1.32158e-05
4.18749e-13
1.32158e-05
2.667e-13
1.32158e-05
4.03571e-13
1.32158e-05
2.52885e-13
1.32158e-05
3.92683e-13
1.32158e-05
2.44342e-13
1.32158e-05
3.88145e-13
1.32158e-05
2.45418e-13
1.32158e-05
3.96896e-13
1.32158e-05
2.62039e-13
1.32158e-05
4.23437e-13
1.32158e-05
3.01269e-13
1.32158e-05
4.78028e-13
1.32158e-05
3.72952e-13
1.32158e-05
5.70294e-13
1.32158e-05
4.90941e-13
1.32158e-05
7.18838e-13
1.32158e-05
6.75709e-13
1.32158e-05
9.4663e-13
1.32158e-05
9.57488e-13
1.32158e-05
1.29299e-12
1.32158e-05
1.38252e-12
1.32158e-05
1.81272e-12
1.32158e-05
2.02011e-12
1.32158e-05
2.59186e-12
1.32158e-05
2.97191e-12
1.32158e-05
3.74961e-12
1.32158e-05
4.37956e-12
1.32158e-05
5.44889e-12
1.32158e-05
6.41938e-12
1.32158e-05
7.87262e-12
1.32158e-05
9.27404e-12
1.32158e-05
1.11956e-11
1.32158e-05
1.3107e-11
1.32158e-05
1.55803e-11
1.32158e-05
1.8085e-11
1.32158e-05
2.11717e-11
1.32158e-05
2.42724e-11
1.32158e-05
2.78343e-11
1.32158e-05
3.11542e-11
1.32158e-05
3.44455e-11
1.32158e-05
3.67171e-11
1.32158e-05
3.76829e-11
1.32158e-05
3.63381e-11
3.21191e-11
1.33792e-05
2.25904e-11
1.33792e-05
1.51024e-11
1.33792e-05
8.27186e-12
1.33792e-05
2.41861e-12
1.33792e-05
-2.43565e-12
1.33792e-05
-6.47841e-12
1.33792e-05
-9.67365e-12
1.33792e-05
-1.22249e-11
1.33792e-05
-1.41109e-11
1.33792e-05
-1.55341e-11
1.33792e-05
-1.64587e-11
1.33792e-05
-1.70709e-11
1.33792e-05
-1.73182e-11
1.33792e-05
-1.73719e-11
1.33792e-05
-1.71635e-11
1.33792e-05
-1.68497e-11
1.33792e-05
-1.63494e-11
1.33792e-05
-1.58096e-11
1.33792e-05
-1.5139e-11
1.33792e-05
-1.44747e-11
1.33792e-05
-1.37183e-11
1.33792e-05
-1.30013e-11
1.33792e-05
-1.22195e-11
1.33792e-05
-1.14981e-11
1.33792e-05
-1.07293e-11
1.33792e-05
-1.00353e-11
1.33792e-05
-9.30555e-12
1.33791e-05
-8.65804e-12
1.33791e-05
-7.98083e-12
1.33791e-05
-7.39062e-12
1.33791e-05
-6.77413e-12
1.33791e-05
-6.2453e-12
1.33791e-05
-5.69072e-12
1.33791e-05
-5.22407e-12
1.33791e-05
-4.73142e-12
1.33791e-05
-4.32452e-12
1.33791e-05
-3.88979e-12
1.33791e-05
-3.53924e-12
1.33791e-05
-3.15916e-12
1.33791e-05
-2.86001e-12
1.33791e-05
-2.52876e-12
1.33791e-05
-2.27641e-12
1.33791e-05
-1.99e-12
1.33791e-05
-1.77925e-12
1.33791e-05
-1.53185e-12
1.33791e-05
-1.3582e-12
1.33791e-05
-1.14604e-12
1.33791e-05
-1.00463e-12
1.33791e-05
-8.22364e-13
1.33791e-05
-7.09336e-13
1.33791e-05
-5.53971e-13
1.33791e-05
-4.65264e-13
1.33791e-05
-3.32263e-13
1.33791e-05
-2.64794e-13
1.33791e-05
-1.51816e-13
1.33791e-05
-1.02171e-13
1.33791e-05
-5.34825e-15
1.33791e-05
2.88363e-14
1.33791e-05
1.10978e-13
1.33791e-05
1.32268e-13
1.33791e-05
2.02814e-13
1.33791e-05
2.12877e-13
1.33791e-05
2.72782e-13
1.33791e-05
2.73666e-13
1.33791e-05
3.25422e-13
1.33791e-05
3.18187e-13
1.33791e-05
3.6211e-13
1.33791e-05
3.48188e-13
1.33791e-05
3.86275e-13
1.33791e-05
3.66345e-13
1.33791e-05
3.98592e-13
1.33791e-05
3.73872e-13
1.33791e-05
4.02112e-13
1.33791e-05
3.7306e-13
1.33791e-05
3.97115e-13
1.33791e-05
3.64793e-13
1.33791e-05
3.86417e-13
1.33791e-05
3.51414e-13
1.33791e-05
3.70652e-13
1.33791e-05
3.34395e-13
1.33791e-05
3.53419e-13
1.33791e-05
3.16848e-13
1.33791e-05
3.36081e-13
1.33791e-05
3.01012e-13
1.33791e-05
3.23085e-13
1.33791e-05
2.91127e-13
1.33791e-05
3.17235e-13
1.33791e-05
2.91092e-13
1.33791e-05
3.24808e-13
1.33791e-05
3.07067e-13
1.33791e-05
3.50635e-13
1.33791e-05
3.4531e-13
1.33791e-05
4.03891e-13
1.33791e-05
4.15629e-13
1.33791e-05
4.94172e-13
1.33791e-05
5.30443e-13
1.33791e-05
6.38483e-13
1.33791e-05
7.09568e-13
1.33791e-05
8.59208e-13
1.33791e-05
9.81722e-13
1.33791e-05
1.19411e-12
1.33791e-05
1.39285e-12
1.33791e-05
1.69803e-12
1.33791e-05
2.01126e-12
1.33791e-05
2.45608e-12
1.33791e-05
2.93858e-12
1.33791e-05
3.58697e-12
1.33791e-05
4.31325e-12
1.33791e-05
5.24734e-12
1.33791e-05
6.30343e-12
1.33791e-05
7.60844e-12
1.33791e-05
9.07707e-12
1.33791e-05
1.08352e-11
1.33791e-05
1.2798e-11
1.33791e-05
1.50864e-11
1.33791e-05
1.76033e-11
1.33791e-05
2.0451e-11
1.33791e-05
2.34721e-11
1.33792e-05
2.66624e-11
1.33792e-05
2.97637e-11
1.33792e-05
3.2574e-11
1.33792e-05
3.46259e-11
1.33792e-05
3.52777e-11
1.33792e-05
3.39279e-11
2.96039e-11
1.32425e-05
1.97886e-11
1.32425e-05
1.36435e-11
1.32426e-05
7.8588e-12
1.32426e-05
2.77142e-12
1.32425e-05
-1.5856e-12
1.32425e-05
-5.26504e-12
1.32425e-05
-8.26258e-12
1.32425e-05
-1.06694e-11
1.32425e-05
-1.2511e-11
1.32425e-05
-1.38917e-11
1.32425e-05
-1.48377e-11
1.32425e-05
-1.54486e-11
1.32425e-05
-1.57435e-11
1.32425e-05
-1.58124e-11
1.32425e-05
-1.5662e-11
1.32425e-05
-1.53706e-11
1.32425e-05
-1.49345e-11
1.32425e-05
-1.44223e-11
1.32425e-05
-1.38198e-11
1.32425e-05
-1.31865e-11
1.32425e-05
-1.25017e-11
1.32425e-05
-1.18186e-11
1.32425e-05
-1.11098e-11
1.32425e-05
-1.04231e-11
1.32425e-05
-9.72796e-12
1.32425e-05
-9.06885e-12
1.32425e-05
-8.41139e-12
1.32425e-05
-7.79697e-12
1.32425e-05
-7.19012e-12
1.32425e-05
-6.63069e-12
1.32425e-05
-6.08121e-12
1.32425e-05
-5.57969e-12
1.32425e-05
-5.08877e-12
1.32425e-05
-4.64611e-12
1.32425e-05
-4.21291e-12
1.32425e-05
-3.82593e-12
1.32425e-05
-3.44684e-12
1.32425e-05
-3.11262e-12
1.32425e-05
-2.78396e-12
1.32425e-05
-2.49706e-12
1.32425e-05
-2.21372e-12
1.32425e-05
-1.97031e-12
1.32425e-05
-1.72795e-12
1.32425e-05
-1.52261e-12
1.32425e-05
-1.31617e-12
1.32425e-05
-1.14512e-12
1.32425e-05
-9.7061e-13
1.32425e-05
-8.28751e-13
1.32425e-05
-6.81678e-13
1.32425e-05
-5.65983e-13
1.32425e-05
-4.43121e-13
1.32425e-05
-3.49272e-13
1.32425e-05
-2.46837e-13
1.32425e-05
-1.7249e-13
1.32425e-05
-8.78446e-14
1.32425e-05
-2.93444e-14
1.32425e-05
4.0562e-14
1.32425e-05
8.48677e-14
1.32425e-05
1.41709e-13
1.32425e-05
1.7472e-13
1.32425e-05
2.20966e-13
1.32425e-05
2.43603e-13
1.32425e-05
2.80539e-13
1.32425e-05
2.9515e-13
1.32425e-05
3.24499e-13
1.32425e-05
3.3152e-13
1.32425e-05
3.53961e-13
1.32425e-05
3.55189e-13
1.32425e-05
3.72117e-13
1.32425e-05
3.67628e-13
1.32425e-05
3.79461e-13
1.32425e-05
3.70886e-13
1.32425e-05
3.78811e-13
1.32425e-05
3.66003e-13
1.32425e-05
3.70311e-13
1.32425e-05
3.5479e-13
1.32425e-05
3.56683e-13
1.32425e-05
3.3857e-13
1.32425e-05
3.38501e-13
1.32425e-05
3.19729e-13
1.32425e-05
3.19396e-13
1.32425e-05
3.0031e-13
1.32425e-05
3.00662e-13
1.32425e-05
2.83601e-13
1.32425e-05
2.86708e-13
1.32425e-05
2.72815e-13
1.32425e-05
2.80378e-13
1.32425e-05
2.72747e-13
1.32425e-05
2.87663e-13
1.32425e-05
2.8814e-13
1.32425e-05
3.12903e-13
1.32425e-05
3.2563e-13
1.32425e-05
3.64452e-13
1.32425e-05
3.93005e-13
1.32425e-05
4.50645e-13
1.32425e-05
5.02109e-13
1.32425e-05
5.86623e-13
1.32425e-05
6.69615e-13
1.32425e-05
7.92377e-13
1.32425e-05
9.226e-13
1.32425e-05
1.10278e-12
1.32425e-05
1.30283e-12
1.32425e-05
1.56905e-12
1.32425e-05
1.8755e-12
1.32425e-05
2.27159e-12
1.32425e-05
2.73548e-12
1.32425e-05
3.32127e-12
1.32425e-05
4.01161e-12
1.32425e-05
4.86198e-12
1.32425e-05
5.85399e-12
1.32425e-05
7.04339e-12
1.32425e-05
8.41316e-12
1.32425e-05
1.00164e-11
1.32425e-05
1.18329e-11
1.32425e-05
1.39097e-11
1.32425e-05
1.62092e-11
1.32425e-05
1.87357e-11
1.32425e-05
2.13972e-11
1.32425e-05
2.41254e-11
1.32425e-05
2.67101e-11
1.32425e-05
2.89603e-11
1.32425e-05
3.05057e-11
1.32425e-05
3.09683e-11
1.32425e-05
2.95012e-11
2.58598e-11
1.27796e-05
1.66199e-11
1.27796e-05
1.19485e-11
1.27796e-05
7.37398e-12
1.27796e-05
3.173e-12
1.27796e-05
-5.71268e-13
1.27796e-05
-3.80307e-12
1.27796e-05
-6.50979e-12
1.27796e-05
-8.70421e-12
1.27796e-05
-1.04253e-11
1.27796e-05
-1.17154e-11
1.27796e-05
-1.26277e-11
1.27796e-05
-1.32131e-11
1.27796e-05
-1.35251e-11
1.27796e-05
-1.3607e-11
1.27796e-05
-1.35044e-11
1.27796e-05
-1.32512e-11
1.27796e-05
-1.28843e-11
1.27796e-05
-1.24274e-11
1.27796e-05
-1.19073e-11
1.27796e-05
-1.13402e-11
1.27796e-05
-1.07466e-11
1.27796e-05
-1.01356e-11
1.27796e-05
-9.52157e-12
1.27796e-05
-8.90824e-12
1.27796e-05
-8.30847e-12
1.27796e-05
-7.72206e-12
1.27796e-05
-7.15653e-12
1.27796e-05
-6.61116e-12
1.27796e-05
-6.09233e-12
1.27796e-05
-5.59736e-12
1.27796e-05
-5.12911e-12
1.27796e-05
-4.68596e-12
1.27796e-05
-4.27117e-12
1.27796e-05
-3.88061e-12
1.27796e-05
-3.51631e-12
1.27796e-05
-3.17429e-12
1.27796e-05
-2.85884e-12
1.27796e-05
-2.56363e-12
1.27796e-05
-2.29152e-12
1.27796e-05
-2.03801e-12
1.27796e-05
-1.80545e-12
1.27796e-05
-1.59002e-12
1.27796e-05
-1.39319e-12
1.27796e-05
-1.21032e-12
1.27796e-05
-1.04514e-12
1.27796e-05
-8.92096e-13
1.27796e-05
-7.53966e-13
1.27796e-05
-6.25937e-13
1.27796e-05
-5.11937e-13
1.27796e-05
-4.06564e-13
1.27796e-05
-3.12808e-13
1.27796e-05
-2.25979e-13
1.27796e-05
-1.50175e-13
1.27796e-05
-8.01085e-14
1.27796e-05
-1.92969e-14
1.27796e-05
3.80482e-14
1.27796e-05
8.58459e-14
1.27796e-05
1.30378e-13
1.27796e-05
1.68005e-13
1.27796e-05
2.02762e-13
1.27796e-05
2.31095e-13
1.27796e-05
2.57508e-13
1.27796e-05
2.77885e-13
1.27796e-05
2.97394e-13
1.27796e-05
3.11126e-13
1.27796e-05
3.23951e-13
1.27796e-05
3.32269e-13
1.27796e-05
3.40286e-13
1.27796e-05
3.43343e-13
1.27796e-05
3.46283e-13
1.27796e-05
3.45469e-13
1.27796e-05
3.45045e-13
1.27796e-05
3.4033e-13
1.27796e-05
3.36098e-13
1.27796e-05
3.28397e-13
1.27796e-05
3.22606e-13
1.27796e-05
3.12378e-13
1.27796e-05
3.03707e-13
1.27796e-05
2.92842e-13
1.27796e-05
2.83601e-13
1.27796e-05
2.72426e-13
1.27796e-05
2.63696e-13
1.27796e-05
2.53465e-13
1.27796e-05
2.46918e-13
1.27796e-05
2.39488e-13
1.27796e-05
2.36207e-13
1.27796e-05
2.33906e-13
1.27796e-05
2.37044e-13
1.27796e-05
2.41444e-13
1.27796e-05
2.52333e-13
1.27796e-05
2.6664e-13
1.27796e-05
2.89125e-13
1.27796e-05
3.15818e-13
1.27796e-05
3.52477e-13
1.27796e-05
3.96436e-13
1.27796e-05
4.53363e-13
1.27796e-05
5.20148e-13
1.27796e-05
6.04108e-13
1.27796e-05
7.04294e-13
1.27796e-05
8.28967e-13
1.27796e-05
9.78046e-13
1.27796e-05
1.16285e-12
1.27796e-05
1.38709e-12
1.27796e-05
1.66425e-12
1.27796e-05
2.00156e-12
1.27796e-05
2.4168e-12
1.27796e-05
2.92044e-12
1.27796e-05
3.53338e-12
1.27796e-05
4.2661e-12
1.27796e-05
5.14024e-12
1.27796e-05
6.1676e-12
1.27796e-05
7.36556e-12
1.27796e-05
8.7444e-12
1.27796e-05
1.03179e-11
1.27796e-05
1.20834e-11
1.27796e-05
1.40297e-11
1.27796e-05
1.61147e-11
1.27796e-05
1.82765e-11
1.27796e-05
2.04044e-11
1.27796e-05
2.23691e-11
1.27796e-05
2.3979e-11
1.27796e-05
2.50381e-11
1.27796e-05
2.51164e-11
1.27796e-05
2.39357e-11
2.10091e-11
1.19641e-05
1.30338e-11
1.19641e-05
9.99834e-12
1.19641e-05
6.77948e-12
1.19641e-05
3.38382e-12
1.19641e-05
3.87966e-13
1.19641e-05
-2.35447e-12
1.19641e-05
-4.65503e-12
1.19641e-05
-6.58615e-12
1.19641e-05
-8.07389e-12
1.19641e-05
-9.18981e-12
1.19641e-05
-1.00716e-11
1.19641e-05
-1.05753e-11
1.19641e-05
-1.08408e-11
1.19641e-05
-1.095e-11
1.19641e-05
-1.08548e-11
1.19641e-05
-1.06748e-11
1.19641e-05
-1.0352e-11
1.19641e-05
-9.99687e-12
1.19641e-05
-9.54449e-12
1.19641e-05
-9.09823e-12
1.19641e-05
-8.58527e-12
1.19641e-05
-8.10285e-12
1.19641e-05
-7.52891e-12
1.19641e-05
-7.13974e-12
1.19641e-05
-6.57963e-12
1.19641e-05
-6.12167e-12
1.19641e-05
-5.63785e-12
1.19641e-05
-5.21662e-12
1.19641e-05
-4.7727e-12
1.19641e-05
-4.34726e-12
1.19641e-05
-4.03826e-12
1.19641e-05
-3.65751e-12
1.19641e-05
-3.30106e-12
1.19641e-05
-2.96303e-12
1.19641e-05
-2.69467e-12
1.19641e-05
-2.48993e-12
1.19641e-05
-2.1697e-12
1.19641e-05
-1.9563e-12
1.19641e-05
-1.71771e-12
1.19641e-05
-1.49354e-12
1.19641e-05
-1.37909e-12
1.19641e-05
-1.18488e-12
1.19641e-05
-1.00755e-12
1.19641e-05
-8.86749e-13
1.19641e-05
-7.34917e-13
1.19641e-05
-6.37118e-13
1.19641e-05
-5.07172e-13
1.19641e-05
-4.30543e-13
1.19641e-05
-3.19845e-13
1.19641e-05
-2.60298e-13
1.19641e-05
-1.65878e-13
1.19641e-05
-1.22171e-13
1.19641e-05
-4.19189e-14
1.19641e-05
-1.04488e-14
1.19641e-05
1.03799e-13
1.19641e-05
3.21531e-14
1.19641e-05
1.36197e-13
1.19641e-05
1.47496e-13
1.19641e-05
1.97467e-13
1.19641e-05
2.45958e-13
1.19641e-05
2.42681e-13
1.19641e-05
1.93623e-13
1.19641e-05
2.75944e-13
1.19641e-05
2.66414e-13
1.19641e-05
2.97571e-13
1.19641e-05
2.83749e-13
1.19641e-05
3.10472e-13
1.19641e-05
2.91726e-13
1.19641e-05
3.14319e-13
1.19641e-05
2.9255e-13
1.19641e-05
3.1191e-13
1.19641e-05
2.86344e-13
1.19641e-05
3.02638e-13
1.19641e-05
2.75073e-13
1.19641e-05
3.34831e-13
1.19641e-05
2.12973e-13
1.19641e-05
2.70851e-13
1.19641e-05
2.39892e-13
1.19641e-05
2.51378e-13
1.19641e-05
2.65097e-13
1.19641e-05
2.30731e-13
1.19641e-05
1.54319e-13
1.19641e-05
2.13108e-13
1.19641e-05
1.84094e-13
1.19641e-05
2.00004e-13
1.19641e-05
1.75526e-13
1.19641e-05
1.96401e-13
1.19641e-05
1.77055e-13
1.19641e-05
2.04505e-13
1.19641e-05
1.93577e-13
1.19641e-05
2.2999e-13
1.19641e-05
2.28387e-13
1.19641e-05
2.75837e-13
1.19641e-05
2.87522e-13
1.19641e-05
3.49391e-13
1.19641e-05
3.76726e-13
1.19641e-05
4.57261e-13
1.19641e-05
5.07309e-13
1.19641e-05
6.1432e-13
1.19641e-05
6.95574e-13
1.19641e-05
8.4152e-13
1.19641e-05
9.71576e-13
1.19641e-05
1.17744e-12
1.19641e-05
1.42658e-12
1.19641e-05
1.6779e-12
1.19641e-05
1.94815e-12
1.19641e-05
2.42635e-12
1.19641e-05
2.90192e-12
1.19641e-05
3.52081e-12
1.19641e-05
4.20884e-12
1.19641e-05
5.06368e-12
1.19641e-05
6.05486e-12
1.19641e-05
7.09473e-12
1.19641e-05
8.3718e-12
1.19641e-05
9.78292e-12
1.19641e-05
1.12669e-11
1.19641e-05
1.28669e-11
1.19641e-05
1.44306e-11
1.19641e-05
1.5956e-11
1.19641e-05
1.72396e-11
1.19641e-05
1.82476e-11
1.19641e-05
1.87524e-11
1.19641e-05
1.86673e-11
1.19641e-05
1.77194e-11
1.58104e-11
1.07698e-05
9.5585e-12
1.07698e-05
7.95639e-12
1.07698e-05
5.84161e-12
1.07698e-05
3.39276e-12
1.07698e-05
1.05133e-12
1.07698e-05
-1.13716e-12
1.07698e-05
-2.96274e-12
1.07698e-05
-4.53217e-12
1.07698e-05
-5.71184e-12
1.07698e-05
-6.66464e-12
1.07698e-05
-7.28242e-12
1.07698e-05
-7.74113e-12
1.07698e-05
-7.93688e-12
1.07698e-05
-8.04679e-12
1.07698e-05
-7.95814e-12
1.07698e-05
-7.83983e-12
1.07698e-05
-7.5735e-12
1.07698e-05
-7.32188e-12
1.07698e-05
-6.95823e-12
1.07698e-05
-6.63706e-12
1.07698e-05
-6.22864e-12
1.07698e-05
-5.88356e-12
1.07698e-05
-5.46665e-12
1.07698e-05
-5.12399e-12
1.07698e-05
-4.71918e-12
1.07698e-05
-4.39643e-12
1.07698e-05
-4.01794e-12
1.07698e-05
-3.72279e-12
1.07698e-05
-3.37518e-12
1.07698e-05
-3.11322e-12
1.07698e-05
-2.80079e-12
1.07698e-05
-2.57159e-12
1.07698e-05
-2.29197e-12
1.07698e-05
-2.09644e-12
1.07698e-05
-1.85011e-12
1.07698e-05
-1.68493e-12
1.07698e-05
-1.46749e-12
1.07698e-05
-1.33119e-12
1.07698e-05
-1.14208e-12
1.07698e-05
-1.02984e-12
1.07698e-05
-8.64842e-13
1.07698e-05
-7.7603e-13
1.07698e-05
-6.32868e-13
1.07698e-05
-5.63234e-13
1.07698e-05
-4.38221e-13
1.07698e-05
-3.86646e-13
1.07698e-05
-2.78722e-13
1.07698e-05
-2.41101e-13
1.07698e-05
-1.46575e-13
1.07698e-05
-1.22603e-13
1.07698e-05
-4.09041e-14
1.07698e-05
-2.69257e-14
1.07698e-05
4.52043e-14
1.07698e-05
4.90799e-14
1.07698e-05
1.12152e-13
1.07698e-05
1.08711e-13
1.07698e-05
1.65151e-13
1.07698e-05
1.54718e-13
1.07698e-05
2.03879e-13
1.07698e-05
1.89072e-13
1.07698e-05
2.33597e-13
1.07698e-05
2.12699e-13
1.07698e-05
2.52492e-13
1.07698e-05
2.28608e-13
1.07698e-05
2.64992e-13
1.07698e-05
2.36693e-13
1.07698e-05
2.69011e-13
1.07698e-05
2.38467e-13
1.07698e-05
2.68598e-13
1.07698e-05
2.3443e-13
1.07698e-05
2.61337e-13
1.07698e-05
2.2567e-13
1.07698e-05
2.51167e-13
1.07698e-05
2.12533e-13
1.07698e-05
2.35935e-13
1.07698e-05
1.96145e-13
1.07698e-05
2.1914e-13
1.07698e-05
1.7797e-13
1.07698e-05
1.9956e-13
1.07698e-05
1.59468e-13
1.07698e-05
1.82274e-13
1.07698e-05
1.41685e-13
1.07698e-05
1.65978e-13
1.07698e-05
1.28648e-13
1.07698e-05
1.56568e-13
1.07698e-05
1.22055e-13
1.07698e-05
1.53978e-13
1.07698e-05
1.2564e-13
1.07698e-05
1.64526e-13
1.07698e-05
1.42182e-13
1.07698e-05
1.88085e-13
1.07698e-05
1.75146e-13
1.07698e-05
2.31056e-13
1.07698e-05
2.27512e-13
1.07698e-05
2.93791e-13
1.07698e-05
3.03746e-13
1.07698e-05
3.84557e-13
1.07698e-05
4.09965e-13
1.07698e-05
5.08694e-13
1.07698e-05
5.57953e-13
1.07698e-05
6.84748e-13
1.07698e-05
7.67675e-13
1.07698e-05
9.36136e-13
1.07698e-05
1.07395e-12
1.07698e-05
1.30936e-12
1.07698e-05
1.52838e-12
1.07698e-05
1.86339e-12
1.07698e-05
2.20265e-12
1.07698e-05
2.67557e-12
1.07698e-05
3.17056e-12
1.07698e-05
3.81529e-12
1.07698e-05
4.4976e-12
1.07698e-05
5.33389e-12
1.07698e-05
6.20736e-12
1.07698e-05
7.22068e-12
1.07698e-05
8.23733e-12
1.07698e-05
9.33275e-12
1.07698e-05
1.03349e-11
1.07698e-05
1.12809e-11
1.07698e-05
1.19758e-11
1.07698e-05
1.24589e-11
1.07698e-05
1.25042e-11
1.07698e-05
1.22456e-11
1.07698e-05
1.15496e-11
1.06655e-11
9.17056e-06
6.15572e-12
9.17056e-06
6.10317e-12
9.17056e-06
4.48894e-12
9.17057e-06
3.19576e-12
9.17057e-06
1.0796e-12
9.17056e-06
-6.71908e-14
9.17056e-06
-1.8163e-12
9.17056e-06
-2.49167e-12
9.17056e-06
-3.76689e-12
9.17056e-06
-3.98613e-12
9.17055e-06
-4.85559e-12
9.17055e-06
-4.72403e-12
9.17055e-06
-5.30039e-12
9.17054e-06
-4.92608e-12
9.17054e-06
-5.3063e-12
9.17054e-06
-4.77948e-12
9.17053e-06
-5.04237e-12
9.17053e-06
-4.42753e-12
9.17053e-06
-4.62499e-12
9.17053e-06
-3.96833e-12
9.17052e-06
-4.13893e-12
9.17052e-06
-3.46887e-12
9.17052e-06
-3.63334e-12
9.17052e-06
-2.96917e-12
9.17052e-06
-3.14357e-12
9.17051e-06
-2.49506e-12
9.17051e-06
-2.68463e-12
9.17051e-06
-2.05839e-12
9.17051e-06
-2.26914e-12
9.17051e-06
-1.66651e-12
9.17051e-06
-1.89726e-12
9.17051e-06
-1.31961e-12
9.1705e-06
-1.57249e-12
9.1705e-06
-1.0179e-12
9.1705e-06
-1.28941e-12
9.1705e-06
-7.57338e-13
9.1705e-06
-1.04818e-12
9.1705e-06
-5.35717e-13
9.1705e-06
-8.41588e-13
9.1705e-06
-3.47808e-13
9.1705e-06
-6.69101e-13
9.1705e-06
-1.90871e-13
9.1705e-06
-5.23684e-13
9.1705e-06
-5.99877e-14
9.1705e-06
-4.04844e-13
9.1705e-06
4.71229e-14
9.1705e-06
-3.05931e-13
9.1705e-06
1.34963e-13
9.1705e-06
-2.27183e-13
9.1705e-06
2.05158e-13
9.17049e-06
-1.62618e-13
9.17049e-06
2.61502e-13
9.17049e-06
-1.13078e-13
9.17049e-06
3.05083e-13
9.17049e-06
-7.31712e-14
9.17049e-06
3.39105e-13
9.17049e-06
-4.42873e-14
9.17049e-06
3.63822e-13
9.17049e-06
-2.17524e-14
9.17049e-06
3.81907e-13
9.17049e-06
-7.689e-15
9.17049e-06
3.93297e-13
9.17049e-06
2.20675e-15
9.17049e-06
3.99939e-13
9.17049e-06
5.47771e-15
9.17049e-06
4.01337e-13
9.17049e-06
5.89212e-15
9.17049e-06
3.99249e-13
9.17049e-06
7.04202e-16
9.17049e-06
3.92934e-13
9.17049e-06
-6.31484e-15
9.17049e-06
3.84109e-13
9.17049e-06
-1.79999e-14
9.17049e-06
3.72026e-13
9.17049e-06
-3.05653e-14
9.17049e-06
3.58567e-13
9.17049e-06
-4.64164e-14
9.17049e-06
3.43326e-13
9.17049e-06
-6.11734e-14
9.17049e-06
3.28975e-13
9.17049e-06
-7.68063e-14
9.17049e-06
3.15765e-13
9.17049e-06
-8.81536e-14
9.17049e-06
3.06806e-13
9.17049e-06
-9.61298e-14
9.17049e-06
3.033e-13
9.17049e-06
-9.5212e-14
9.1705e-06
3.08814e-13
9.17049e-06
-8.61712e-14
9.1705e-06
3.24359e-13
9.17049e-06
-6.34955e-14
9.1705e-06
3.53182e-13
9.17049e-06
-2.84542e-14
9.1705e-06
3.95797e-13
9.17049e-06
2.39315e-14
9.1705e-06
4.55402e-13
9.17049e-06
9.27824e-14
9.1705e-06
5.33951e-13
9.1705e-06
1.85617e-13
9.1705e-06
6.38564e-13
9.1705e-06
3.07565e-13
9.1705e-06
7.80098e-13
9.1705e-06
4.77859e-13
9.1705e-06
9.81346e-13
9.1705e-06
7.21488e-13
9.1705e-06
1.27656e-12
9.1705e-06
1.08373e-12
9.1705e-06
1.71325e-12
9.1705e-06
1.61058e-12
9.1705e-06
2.33766e-12
9.1705e-06
2.34723e-12
9.1705e-06
3.18365e-12
9.1705e-06
3.30939e-12
9.17051e-06
4.25076e-12
9.17051e-06
4.46948e-12
9.17051e-06
5.47409e-12
9.17052e-06
5.70575e-12
9.17052e-06
6.65695e-12
9.17053e-06
6.73397e-12
9.17053e-06
7.40091e-12
9.17054e-06
7.05086e-12
9.17054e-06
7.20755e-12
9.17054e-06
6.44412e-12
9.17054e-06
6.22293e-12
6.31799e-12
7.14017e-06
4.69343e-12
7.14018e-06
4.05553e-12
7.14018e-06
3.98209e-12
7.14018e-06
2.06059e-12
7.14018e-06
1.65787e-12
7.14018e-06
-1.08531e-13
7.14018e-06
-1.702e-13
7.14018e-06
-1.58828e-12
7.14018e-06
-1.31451e-12
7.14017e-06
-2.44191e-12
7.14017e-06
-1.92104e-12
7.14017e-06
-2.84407e-12
7.14017e-06
-2.15641e-12
7.14016e-06
-2.9459e-12
7.14016e-06
-2.15511e-12
7.14016e-06
-2.86286e-12
7.14016e-06
-2.01112e-12
7.14015e-06
-2.67253e-12
7.14015e-06
-1.79141e-12
7.14015e-06
-2.43014e-12
7.14015e-06
-1.53738e-12
7.14014e-06
-2.16807e-12
7.14014e-06
-1.27751e-12
7.14014e-06
-1.90917e-12
7.14014e-06
-1.02627e-12
7.14014e-06
-1.66376e-12
7.14014e-06
-7.94088e-13
7.14014e-06
-1.44003e-12
7.14013e-06
-5.83692e-13
7.14013e-06
-1.23887e-12
7.14013e-06
-3.9801e-13
7.14013e-06
-1.06263e-12
7.14013e-06
-2.353e-13
7.14013e-06
-9.08733e-13
7.14013e-06
-9.58148e-14
7.14013e-06
-7.77456e-13
7.14013e-06
2.37492e-14
7.14013e-06
-6.65075e-13
7.14013e-06
1.23957e-13
7.14013e-06
-5.71295e-13
7.14013e-06
2.08446e-13
7.14012e-06
-4.92227e-13
7.14013e-06
2.77669e-13
7.14012e-06
-4.27774e-13
7.14012e-06
3.35087e-13
7.14012e-06
-3.74245e-13
7.14012e-06
3.80968e-13
7.14012e-06
-3.31768e-13
7.14012e-06
4.18399e-13
7.14012e-06
-2.97044e-13
7.14012e-06
4.47261e-13
7.14012e-06
-2.7057e-13
7.14012e-06
4.70318e-13
7.14012e-06
-2.49329e-13
7.14012e-06
4.87176e-13
7.14012e-06
-2.34097e-13
7.14012e-06
5.00266e-13
7.14012e-06
-2.22295e-13
7.14012e-06
5.08768e-13
7.14012e-06
-2.15065e-13
7.14012e-06
5.14811e-13
7.14012e-06
-2.10006e-13
7.14012e-06
5.17364e-13
7.14012e-06
-2.08581e-13
7.14012e-06
5.18294e-13
7.14012e-06
-2.08641e-13
7.14012e-06
5.16348e-13
7.14012e-06
-2.11784e-13
7.14012e-06
5.13283e-13
7.14012e-06
-2.15944e-13
7.14012e-06
5.07839e-13
7.14012e-06
-2.22707e-13
7.14012e-06
5.0177e-13
7.14012e-06
-2.30009e-13
7.14012e-06
4.93831e-13
7.14012e-06
-2.39312e-13
7.14012e-06
4.85997e-13
7.14012e-06
-2.48275e-13
7.14012e-06
4.77331e-13
7.14012e-06
-2.57897e-13
7.14012e-06
4.70782e-13
7.14012e-06
-2.65888e-13
7.14012e-06
4.64191e-13
7.14012e-06
-2.71357e-13
7.14012e-06
4.61945e-13
7.14012e-06
-2.72539e-13
7.14012e-06
4.63363e-13
7.14012e-06
-2.69114e-13
7.14012e-06
4.71385e-13
7.14012e-06
-2.57801e-13
7.14012e-06
4.85737e-13
7.14012e-06
-2.3915e-13
7.14012e-06
5.09043e-13
7.14012e-06
-2.09663e-13
7.14012e-06
5.4021e-13
7.14012e-06
-1.71806e-13
7.14012e-06
5.83408e-13
7.14012e-06
-1.20885e-13
7.14012e-06
6.37459e-13
7.14012e-06
-5.68294e-14
7.14012e-06
7.08266e-13
7.14012e-06
2.73719e-14
7.14012e-06
8.02727e-13
7.14012e-06
1.3987e-13
7.14012e-06
9.34856e-13
7.14012e-06
3.01912e-13
7.14013e-06
1.12482e-12
7.14013e-06
5.32136e-13
7.14013e-06
1.39349e-12
7.14013e-06
8.51112e-13
7.14013e-06
1.75456e-12
7.14013e-06
1.26544e-12
7.14013e-06
2.21277e-12
7.14013e-06
1.77353e-12
7.14014e-06
2.75945e-12
7.14014e-06
2.34505e-12
7.14014e-06
3.34219e-12
7.14014e-06
2.89041e-12
7.14015e-06
3.76108e-12
7.14015e-06
3.08515e-12
7.14016e-06
3.51504e-12
7.14016e-06
2.4286e-12
7.14016e-06
2.15582e-12
7.14016e-06
2.205e-12
2.51235e-12
4.65262e-06
2.34948e-12
4.65263e-06
2.98935e-12
4.65263e-06
2.21918e-12
4.65264e-06
1.79145e-12
4.65264e-06
8.34404e-13
4.65264e-06
6.37181e-13
4.65263e-06
-5.43547e-14
4.65264e-06
-2.2864e-14
4.65263e-06
-5.30756e-13
4.65263e-06
-3.58214e-13
4.65263e-06
-7.58807e-13
4.65263e-06
-5.06223e-13
4.65262e-06
-8.46176e-13
4.65262e-06
-5.48337e-13
4.65262e-06
-8.53118e-13
4.65262e-06
-5.29652e-13
4.65262e-06
-8.14642e-13
4.65262e-06
-4.77856e-13
4.65261e-06
-7.52005e-13
4.65261e-06
-4.09281e-13
4.65261e-06
-6.78608e-13
4.65261e-06
-3.3486e-13
4.65261e-06
-6.02501e-13
4.65261e-06
-2.6034e-13
4.65261e-06
-5.28599e-13
4.65261e-06
-1.89846e-13
4.6526e-06
-4.59506e-13
4.6526e-06
-1.24773e-13
4.6526e-06
-3.96636e-13
4.6526e-06
-6.64428e-14
4.6526e-06
-3.40377e-13
4.6526e-06
-1.45609e-14
4.6526e-06
-2.90865e-13
4.6526e-06
3.05086e-14
4.6526e-06
-2.47743e-13
4.6526e-06
6.96557e-14
4.6526e-06
-2.10652e-13
4.6526e-06
1.02906e-13
4.6526e-06
-1.78938e-13
4.6526e-06
1.31349e-13
4.6526e-06
-1.52115e-13
4.6526e-06
1.55035e-13
4.65259e-06
-1.29571e-13
4.6526e-06
1.74987e-13
4.65259e-06
-1.10863e-13
4.6526e-06
1.91245e-13
4.65259e-06
-9.53853e-14
4.6526e-06
2.04781e-13
4.65259e-06
-8.27874e-14
4.6526e-06
2.15505e-13
4.65259e-06
-7.25868e-14
4.6526e-06
2.24299e-13
4.65259e-06
-6.44854e-14
4.65259e-06
2.31053e-13
4.65259e-06
-5.80158e-14
4.65259e-06
2.36601e-13
4.65259e-06
-5.29824e-14
4.65259e-06
2.40686e-13
4.65259e-06
-4.90833e-14
4.65259e-06
2.44007e-13
4.65259e-06
-4.6197e-14
4.65259e-06
2.46273e-13
4.65259e-06
-4.40665e-14
4.65259e-06
2.4811e-13
4.65259e-06
-4.26767e-14
4.65259e-06
2.49119e-13
4.65259e-06
-4.18487e-14
4.65259e-06
2.49889e-13
4.65259e-06
-4.15749e-14
4.65259e-06
2.50045e-13
4.65259e-06
-4.16423e-14
4.65259e-06
2.50188e-13
4.65259e-06
-4.20711e-14
4.65259e-06
2.49872e-13
4.65259e-06
-4.27214e-14
4.65259e-06
2.49645e-13
4.65259e-06
-4.36275e-14
4.6526e-06
2.49053e-13
4.65259e-06
-4.46596e-14
4.6526e-06
2.48729e-13
4.65259e-06
-5.84535e-14
4.6526e-06
2.60926e-13
4.65259e-06
-4.66175e-14
4.6526e-06
2.47921e-13
4.65259e-06
-4.72587e-14
4.6526e-06
2.47758e-13
4.65259e-06
-4.72155e-14
4.6526e-06
2.48646e-13
4.65259e-06
-4.59841e-14
4.6526e-06
2.50582e-13
4.65259e-06
-4.28042e-14
4.6526e-06
2.54784e-13
4.65259e-06
-3.67293e-14
4.6526e-06
2.49219e-13
4.65259e-06
-1.37057e-14
4.6526e-06
2.74005e-13
4.65259e-06
-1.06299e-14
4.6526e-06
2.9209e-13
4.65259e-06
1.25478e-14
4.6526e-06
3.18521e-13
4.65259e-06
4.49266e-14
4.6526e-06
3.55277e-13
4.65259e-06
7.64259e-14
4.6526e-06
4.18458e-13
4.65259e-06
1.48028e-13
4.6526e-06
4.7086e-13
4.6526e-06
2.21148e-13
4.6526e-06
5.46906e-13
4.6526e-06
3.01485e-13
4.6526e-06
6.25417e-13
4.6526e-06
3.70599e-13
4.6526e-06
7.21364e-13
4.6526e-06
4.78562e-13
4.6526e-06
8.23569e-13
4.6526e-06
6.12997e-13
4.65261e-06
1.02626e-12
4.65261e-06
8.5101e-13
4.65261e-06
1.23795e-12
4.65261e-06
1.00074e-12
4.65262e-06
1.0999e-12
4.65262e-06
4.08669e-13
4.65262e-06
-2.65764e-13
4.65262e-06
-6.83295e-13
4.65262e-06
-1.04337e-13
1.87346e-12
1.68193e-06
1.68193e-06
1.68193e-06
1.68193e-06
1.68193e-06
1.68194e-06
1.68193e-06
1.68193e-06
1.68193e-06
1.68193e-06
1.68193e-06
1.68193e-06
1.68193e-06
1.68193e-06
1.68193e-06
1.68193e-06
1.68193e-06
1.68193e-06
1.68193e-06
1.68193e-06
1.68192e-06
1.68192e-06
1.68192e-06
1.68192e-06
1.68192e-06
1.68192e-06
1.68192e-06
1.68192e-06
1.68192e-06
1.68192e-06
1.68192e-06
1.68192e-06
1.68192e-06
1.68192e-06
1.68192e-06
1.68192e-06
1.68192e-06
1.68192e-06
1.68192e-06
1.68192e-06
1.68192e-06
1.68192e-06
1.68192e-06
1.68192e-06
1.68192e-06
1.68192e-06
1.68192e-06
1.68192e-06
1.68192e-06
1.68192e-06
1.68192e-06
1.68192e-06
1.68192e-06
1.68192e-06
1.68192e-06
1.68192e-06
1.68192e-06
1.68192e-06
1.68192e-06
1.68192e-06
1.68192e-06
1.68192e-06
1.68192e-06
1.68192e-06
1.68192e-06
1.68192e-06
1.68192e-06
1.68192e-06
1.68192e-06
1.68192e-06
1.68192e-06
1.68192e-06
1.68192e-06
1.68192e-06
1.68192e-06
1.68192e-06
1.68192e-06
1.68192e-06
1.68192e-06
1.68192e-06
1.68192e-06
1.68192e-06
1.68192e-06
1.68192e-06
1.68192e-06
1.68192e-06
1.68192e-06
1.68192e-06
1.68192e-06
1.68192e-06
1.68192e-06
1.68192e-06
1.68192e-06
1.68192e-06
1.68192e-06
1.68192e-06
1.68192e-06
1.68192e-06
1.68192e-06
1.68192e-06
1.68192e-06
1.68192e-06
1.68192e-06
1.68192e-06
1.68192e-06
1.68192e-06
1.68192e-06
1.68192e-06
1.68192e-06
1.68192e-06
1.68192e-06
1.68192e-06
1.68192e-06
1.68192e-06
1.68192e-06
1.68192e-06
1.68192e-06
1.68192e-06
1.68193e-06
1.68193e-06
1.68193e-06
1.68193e-06
1.68192e-06
1.68192e-06
)
;

boundaryField
{
    inlet
    {
        type            calculated;
        value           nonuniform 0();
    }
    outlet
    {
        type            calculated;
        value           nonuniform 0();
    }
    wall
    {
        type            calculated;
        value           uniform 0;
    }
    back
    {
        type            wedge;
        value           nonuniform List<scalar> 
1250
(
-8.54454e-18
-7.39263e-18