/*--------------------------------*- C++ -*----------------------------------*\
| =========                 |                                                 |
| \\      /  F ield         | OpenFOAM: The Open Source CFD Toolbox           |
|  \\    /   O peration     | Version:                                        |
|   \\  /    A nd           | Website:  www.openfoam.com                      |
|    \\/     M anipulation  |                                                 |
\*---------------------------------------------------------------------------*/
FoamFile
{
    version     2.0;
    format      ascii;
    class       volVectorField;
    location    "71";
    object      U;
}
// * * * * * * * * * * * * * * * * * * * * * * * * * * * * * * * * * * * * * //

dimensions      [0 1 -1 0 0 0 0];


internalField   nonuniform List<vector> 
1250
(
(1.447 3.38931e-06 1.70852e-12)
(1.447 2.24355e-06 1.57126e-12)
(1.447 1.18332e-06 1.44947e-12)
(1.447 3.03744e-07 1.34051e-12)
(1.447 -4.30443e-07 1.24204e-12)
(1.447 -1.01252e-06 1.1526e-12)
(1.447 -1.47985e-06 1.07079e-12)
(1.447 -1.8268e-06 9.9568e-13)
(1.447 -2.0936e-06 9.26587e-13)
(1.447 -2.27246e-06 8.62688e-13)
(1.447 -2.4004e-06 8.03444e-13)
(1.447 -2.46535e-06 7.48599e-13)
(1.447 -2.50058e-06 6.97487e-13)
(1.447 -2.49036e-06 6.50013e-13)
(1.447 -2.46519e-06 6.05631e-13)
(1.447 -2.40683e-06 5.64472e-13)
(1.447 -2.34376e-06 5.26078e-13)
(1.447 -2.25598e-06 4.90332e-13)
(1.447 -2.17066e-06 4.57092e-13)
(1.447 -2.06672e-06 4.26379e-13)
(1.447 -1.97026e-06 3.97974e-13)
(1.447 -1.85937e-06 3.71917e-13)
(1.447 -1.75942e-06 3.48267e-13)
(1.447 -1.64798e-06 3.27213e-13)
(1.447 -1.54981e-06 3.08721e-13)
(1.447 -1.44202e-06 2.93285e-13)
(1.447 -1.34893e-06 2.8161e-13)
(1.447 -1.24749e-06 2.74582e-13)
(1.447 -1.16158e-06 2.73553e-13)
(1.447 -1.06794e-06 2.80352e-13)
(1.447 -9.90192e-07 2.97806e-13)
(1.447 -9.05081e-07 3.29999e-13)
(1.447 -8.35933e-07 3.8328e-13)
(1.447 -7.5941e-07 4.66906e-13)
(1.447 -6.98722e-07 5.94732e-13)
(1.447 -6.30602e-07 7.87332e-13)
(1.447 -5.78065e-07 1.07621e-12)
(1.447 -5.17833e-07 1.50993e-12)
(1.447 -4.72843e-07 2.16276e-12)
(1.447 -4.19944e-07 3.14833e-12)
(1.447 -3.81911e-07 4.63333e-12)
(1.447 -3.35626e-07 6.82888e-12)
(1.447 -3.03828e-07 9.84711e-12)
(1.447 -2.63523e-07 1.29314e-11)
(1.447 -2.37344e-07 1.09748e-11)
(1.447 -2.02314e-07 2.94485e-12)
(1.447 -1.81063e-07 -2.99996e-12)
(1.447 -1.50723e-07 -4.26774e-12)
(1.447 -1.33829e-07 -4.12124e-12)
(1.447 -1.07539e-07 -3.58792e-12)
(1.447 -9.43939e-08 -2.9703e-12)
(1.447 -7.16757e-08 -2.33166e-12)
(1.447 -6.18365e-08 -1.65089e-12)
(1.447 -4.21532e-08 -8.68201e-13)
(1.447 -3.51149e-08 1.08698e-13)
(1.447 -1.80828e-08 1.41433e-12)
(1.447 -1.34842e-08 3.24031e-12)
(1.447 1.32669e-09 5.82986e-12)
(1.447 3.8991e-09 9.34011e-12)
(1.447 1.67807e-08 1.30804e-11)
(1.447 1.75724e-08 1.20418e-11)
(1.447 2.88572e-08 5.33408e-12)
(1.447 2.81886e-08 1.28812e-12)
(1.447 3.80763e-08 2.54825e-12)
(1.447 3.61308e-08 5.00355e-12)
(1.447 4.48947e-08 2.37894e-12)
(1.447 4.19067e-08 -6.8671e-12)
(1.447 4.96659e-08 -1.49115e-11)
(1.447 4.57423e-08 -1.93467e-11)
(1.447 5.26788e-08 -2.27615e-11)
(1.447 4.80062e-08 -2.12008e-11)
(1.447 5.42111e-08 -1.41251e-11)
(1.447 4.88527e-08 -1.00095e-11)
(1.447 5.45042e-08 -1.16084e-11)
(1.447 4.86276e-08 -1.49573e-11)
(1.447 5.37836e-08 -1.40084e-11)
(1.447 4.74566e-08 -7.56279e-12)
(1.447 5.22882e-08 -3.88933e-12)
(1.447 4.56946e-08 -5.66394e-12)
(1.447 5.03072e-08 -8.85937e-12)
(1.447 4.356e-08 -7.33387e-12)
(1.447 4.81855e-08 2.60247e-13)
(1.447 4.15304e-08 5.85138e-12)
(1.447 4.63359e-08 6.86589e-12)
(1.447 3.99558e-08 6.56908e-12)
(1.447 4.52475e-08 5.99368e-12)
(1.447 3.9481e-08 5.45766e-12)
(1.447 4.55481e-08 5.05559e-12)
(1.447 4.07322e-08 4.82119e-12)
(1.447 4.80432e-08 4.7837e-12)
(1.447 4.47122e-08 4.99209e-12)
(1.447 5.37567e-08 5.53115e-12)
(1.447 5.24823e-08 6.53328e-12)
(1.447 6.40548e-08 8.16544e-12)
(1.447 6.57602e-08 1.04788e-11)
(1.447 8.08349e-08 1.26278e-11)
(1.447 8.67456e-08 9.37288e-12)
(1.447 1.06894e-07 -5.0999e-13)
(1.447 1.18921e-07 -9.10998e-12)
(1.447 1.46363e-07 -1.40014e-11)
(1.447 1.67255e-07 -1.77721e-11)
(1.447 2.05475e-07 -1.64653e-11)
(1.447 2.39493e-07 -9.5318e-12)
(1.447 2.93541e-07 -5.42418e-12)
(1.447 3.46847e-07 -6.85562e-12)
(1.447 4.24196e-07 -9.79298e-12)
(1.447 5.05634e-07 -8.07951e-12)
(1.447 6.16448e-07 -3.53561e-13)
(1.447 7.3755e-07 5.32384e-12)
(1.447 8.94444e-07 6.38532e-12)
(1.447 1.06825e-06 6.09835e-12)
(1.447 1.28399e-06 5.49351e-12)
(1.447 1.52266e-06 4.88129e-12)
(1.447 1.80859e-06 4.34191e-12)
(1.447 2.12282e-06 3.88453e-12)
(1.447 2.48923e-06 3.49902e-12)
(1.447 2.88629e-06 3.17205e-12)
(1.447 3.33221e-06 2.89184e-12)
(1.447 3.79646e-06 2.64876e-12)
(1.447 4.27856e-06 2.43555e-12)
(1.447 4.7215e-06 2.24664e-12)
(1.447 5.08612e-06 2.07788e-12)
(1.447 5.25561e-06 1.92621e-12)
(1.447 5.08778e-06 1.78917e-12)
(1.447 4.46381e-06 1.66517e-12)
(1.33751 2.95323e-06 1.47851e-12)
(1.33751 1.96224e-06 1.37734e-12)
(1.33751 1.06142e-06 1.28379e-12)
(1.33751 2.87807e-07 1.19724e-12)
(1.33751 -3.39997e-07 1.11703e-12)
(1.33751 -8.65626e-07 1.04252e-12)
(1.33751 -1.26932e-06 9.73212e-13)
(1.33751 -1.59679e-06 9.08532e-13)
(1.33751 -1.82894e-06 8.48271e-13)
(1.33751 -2.01071e-06 7.92181e-13)
(1.33751 -2.11998e-06 7.39576e-13)
(1.33751 -2.19913e-06 6.90428e-13)
(1.33751 -2.22327e-06 6.44512e-13)
(1.33751 -2.23265e-06 6.015e-13)
(1.33751 -2.20001e-06 5.61191e-13)
(1.33751 -2.16368e-06 5.23563e-13)
(1.33751 -2.09479e-06 4.88585e-13)
(1.33751 -2.03038e-06 4.5581e-13)
(1.33751 -1.94027e-06 4.25263e-13)
(1.33751 -1.8603e-06 3.97012e-13)
(1.33751 -1.75948e-06 3.70878e-13)
(1.33751 -1.67287e-06 3.47032e-13)
(1.33751 -1.56882e-06 3.2539e-13)
(1.33751 -1.48156e-06 3.06021e-13)
(1.33751 -1.3791e-06 2.89302e-13)
(1.3375 -1.29522e-06 2.75703e-13)
(1.3375 -1.19762e-06 2.65777e-13)
(1.3375 -1.11951e-06 2.60323e-13)
(1.3375 -1.0285e-06 2.60634e-13)
(1.3375 -9.5759e-07 2.68555e-13)
(1.3375 -8.74235e-07 2.86662e-13)
(1.3375 -8.11028e-07 3.18952e-13)
(1.3375 -7.35508e-07 3.70487e-13)
(1.3375 -6.80155e-07 4.49436e-13)
(1.3375 -6.12492e-07 5.67037e-13)
(1.3375 -5.64681e-07 7.3963e-13)
(1.3375 -5.04392e-07 9.9004e-13)
(1.3375 -4.63745e-07 1.35064e-12)
(1.3375 -4.1042e-07 1.86505e-12)
(1.3375 -3.76296e-07 2.58698e-12)
(1.3375 -3.29209e-07 3.56878e-12)
(1.3375 -3.01059e-07 4.81795e-12)
(1.3375 -2.59709e-07 6.17667e-12)
(1.3375 -2.36848e-07 7.05875e-12)
(1.3375 -2.00503e-07 6.19525e-12)
(1.3375 -1.82398e-07 3.44923e-12)
(1.3375 -1.50579e-07 7.0874e-13)
(1.3375 -1.36585e-07 -8.73755e-13)
(1.3375 -1.08611e-07 -1.58546e-12)
(1.3375 -9.82683e-08 -1.78538e-12)
(1.3375 -7.37518e-08 -1.69795e-12)
(1.3375 -6.65183e-08 -1.43411e-12)
(1.3375 -4.48896e-08 -1.03417e-12)
(1.3375 -4.03997e-08 -4.93602e-13)
(1.3375 -2.13592e-08 2.22103e-13)
(1.3375 -1.91489e-08 1.16872e-12)
(1.3375 -2.19979e-09 2.40862e-12)
(1.3375 -1.99693e-09 3.96642e-12)
(1.3375 1.30613e-08 5.70929e-12)
(1.3375 1.16151e-08 7.08484e-12)
(1.3375 2.51688e-08 6.8629e-12)
(1.3375 2.22595e-08 4.93775e-12)
(1.3375 3.44378e-08 3.17436e-12)
(1.3375 3.03563e-08 2.52432e-12)
(1.3375 4.14834e-08 2.05488e-12)
(1.3375 3.63443e-08 6.13558e-14)
(1.3375 4.64643e-08 -3.90276e-12)
(1.3375 4.04794e-08 -8.11574e-12)
(1.3375 4.9849e-08 -1.13741e-11)
(1.3375 4.30699e-08 -1.34673e-11)
(1.3375 5.16964e-08 -1.35725e-11)
(1.3375 4.43114e-08 -1.18621e-11)
(1.3375 5.24247e-08 -1.03831e-11)
(1.3375 4.44713e-08 -1.02234e-11)
(1.3375 5.20538e-08 -1.05778e-11)
(1.3375 4.36907e-08 -9.87548e-12)
(1.3375 5.09652e-08 -7.79796e-12)
(1.3375 4.22299e-08 -6.10915e-12)
(1.3375 4.92045e-08 -5.73211e-12)
(1.3375 4.0304e-08 -5.75261e-12)
(1.3375 4.72483e-08 -4.51506e-12)
(1.3375 3.82709e-08 -1.63402e-12)
(1.3375 4.52351e-08 1.1408e-12)
(1.3375 3.64332e-08 2.73182e-12)
(1.3375 4.3741e-08 3.46977e-12)
(1.3375 3.52783e-08 3.74419e-12)
(1.3375 4.30715e-08 3.80782e-12)
(1.3375 3.53181e-08 3.80574e-12)
(1.3375 4.40471e-08 3.823e-12)
(1.3375 3.73025e-08 3.91737e-12)
(1.3375 4.7258e-08 4.13739e-12)
(1.3375 4.20659e-08 4.52945e-12)
(1.3375 5.39021e-08 5.12862e-12)
(1.3375 5.08463e-08 5.91514e-12)
(1.3375 6.52051e-08 6.69227e-12)
(1.3375 6.52834e-08 6.82059e-12)
(1.3375 8.34023e-08 4.96393e-12)
(1.3375 8.79215e-08 9.14141e-13)
(1.3375 1.11357e-07 -3.47473e-12)
(1.3375 1.22477e-07 -6.92894e-12)
(1.3375 1.5391e-07 -9.19877e-12)
(1.3375 1.74759e-07 -9.43566e-12)
(1.3375 2.17986e-07 -7.78999e-12)
(1.3375 2.5343e-07 -6.28373e-12)
(1.3375 3.1436e-07 -5.97281e-12)
(1.3375 3.71307e-07 -6.00925e-12)
(1.3375 4.58045e-07 -4.76999e-12)
(1.3375 5.46049e-07 -1.88593e-12)
(1.3375 6.69171e-07 8.8474e-13)
(1.3375 7.9935e-07 2.4589e-12)
(1.3375 9.69966e-07 3.16211e-12)
(1.3375 1.15312e-06 3.37766e-12)
(1.3375 1.38168e-06 3.34984e-12)
(1.3375 1.62799e-06 3.21122e-12)
(1.3375 1.92481e-06 3.02869e-12)
(1.3375 2.24386e-06 2.83464e-12)
(1.3375 2.61535e-06 2.64405e-12)
(1.3375 3.00449e-06 2.46324e-12)
(1.3375 3.42829e-06 2.29431e-12)
(1.3375 3.83583e-06 2.13759e-12)
(1.33751 4.21678e-06 1.99275e-12)
(1.33751 4.48803e-06 1.85883e-12)
(1.33751 4.58693e-06 1.73519e-12)
(1.33751 4.41516e-06 1.62117e-12)
(1.33751 3.87803e-06 1.51633e-12)
(1.21794 2.43898e-06 1.2243e-12)
(1.21794 1.6504e-06 1.15936e-12)
(1.21794 9.24018e-07 1.09492e-12)
(1.21794 2.93681e-07 1.03204e-12)
(1.21794 -2.34773e-07 9.71301e-13)
(1.21794 -6.79519e-07 9.12982e-13)
(1.21794 -1.03459e-06 8.5717e-13)
(1.21794 -1.32089e-06 8.04055e-13)
(1.21794 -1.53465e-06 7.53679e-13)
(1.21794 -1.69741e-06 7.06134e-13)
(1.21794 -1.8045e-06 6.61071e-13)
(1.21794 -1.87633e-06 6.1862e-13)
(1.21794 -1.90688e-06 5.78532e-13)
(1.21794 -1.91523e-06 5.40946e-13)
(1.21794 -1.89373e-06 5.05448e-13)
(1.21794 -1.85998e-06 4.72108e-13)
(1.21794 -1.80506e-06 4.4093e-13)
(1.21794 -1.74544e-06 4.11846e-13)
(1.21794 -1.67101e-06 3.84621e-13)
(1.21794 -1.59714e-06 3.59385e-13)
(1.21794 -1.51296e-06 3.36091e-13)
(1.21794 -1.43314e-06 3.14819e-13)
(1.21794 -1.3461e-06 2.95522e-13)
(1.21794 -1.26579e-06 2.78427e-13)
(1.21794 -1.18027e-06 2.63901e-13)
(1.21794 -1.10313e-06 2.52227e-13)
(1.21794 -1.02204e-06 2.44055e-13)
(1.21794 -9.50171e-07 2.40137e-13)
(1.21794 -8.75041e-07 2.41789e-13)
(1.21794 -8.09663e-07 2.50515e-13)
(1.21794 -7.41352e-07 2.68636e-13)
(1.21794 -6.82858e-07 2.99495e-13)
(1.21794 -6.21517e-07 3.47545e-13)
(1.21794 -5.70014e-07 4.19169e-13)
(1.21794 -5.15589e-07 5.23148e-13)
(1.21794 -4.70737e-07 6.70716e-13)
(1.21794 -4.22794e-07 8.77165e-13)
(1.21794 -3.84247e-07 1.16144e-12)
(1.21794 -3.4237e-07 1.54465e-12)
(1.21794 -3.09524e-07 2.04537e-12)
(1.21794 -2.73075e-07 2.66626e-12)
(1.21794 -2.45443e-07 3.36571e-12)
(1.21794 -2.13962e-07 4.00941e-12)
(1.21794 -1.90917e-07 4.31992e-12)
(1.21794 -1.63764e-07 3.93607e-12)
(1.21794 -1.44841e-07 2.84243e-12)
(1.21794 -1.21569e-07 1.54154e-12)
(1.21794 -1.06185e-07 4.87417e-13)
(1.21794 -8.62208e-08 -2.09539e-13)
(1.21794 -7.39876e-08 -5.92145e-13)
(1.21794 -5.69769e-08 -7.3322e-13)
(1.21794 -4.74025e-08 -6.9014e-13)
(1.21794 -3.286e-08 -4.96125e-13)
(1.21794 -2.56377e-08 -1.62081e-13)
(1.21794 -1.32864e-08 3.17072e-13)
(1.21794 -7.9922e-09 9.53033e-13)
(1.21794 2.57848e-09 1.74893e-12)
(1.21794 6.1505e-09 2.66881e-12)
(1.21794 1.51257e-08 3.58786e-12)
(1.21794 1.73006e-08 4.23943e-12)
(1.21794 2.49997e-08 4.26702e-12)
(1.21794 2.59342e-08 3.64085e-12)
(1.21794 3.24716e-08 2.79921e-12)
(1.21794 3.2416e-08 2.033e-12)
(1.21794 3.80537e-08 1.14021e-12)
(1.21794 3.70867e-08 -3.20459e-13)
(1.21794 4.18714e-08 -2.4649e-12)
(1.21794 4.01883e-08 -4.84056e-12)
(1.21794 4.43211e-08 -6.93588e-12)
(1.21794 4.19571e-08 -8.4279e-12)
(1.21794 4.54579e-08 -9.05135e-12)
(1.21794 4.25852e-08 -8.8982e-12)
(1.21794 4.5633e-08 -8.51986e-12)
(1.21794 4.22626e-08 -8.30575e-12)
(1.21794 4.4852e-08 -8.13918e-12)
(1.21794 4.11473e-08 -7.64818e-12)
(1.21794 4.34601e-08 -6.74877e-12)
(1.21794 3.94359e-08 -5.83574e-12)
(1.21794 4.15041e-08 -5.17863e-12)
(1.21794 3.73641e-08 -4.57318e-12)
(1.21794 3.94095e-08 -3.58669e-12)
(1.21794 3.52336e-08 -2.10614e-12)
(1.21794 3.73185e-08 -5.51113e-13)
(1.21794 3.33421e-08 6.85666e-13)
(1.21794 3.57555e-08 1.53882e-12)
(1.21794 3.21298e-08 2.08577e-12)
(1.21794 3.50281e-08 2.42973e-12)
(1.21794 3.20968e-08 2.65913e-12)
(1.21794 3.58568e-08 2.84097e-12)
(1.21794 3.38666e-08 3.02503e-12)
(1.21794 3.87563e-08 3.24775e-12)
(1.21794 3.81858e-08 3.53131e-12)
(1.21794 4.47497e-08 3.87272e-12)
(1.21794 4.6067e-08 4.21695e-12)
(1.21794 5.48607e-08 4.40892e-12)
(1.21794 5.89159e-08 4.14485e-12)
(1.21794 7.09609e-08 3.03642e-12)
(1.21794 7.88401e-08 1.0532e-12)
(1.21794 9.54898e-08 -1.27762e-12)
(1.21794 1.09073e-07 -3.38936e-12)
(1.21794 1.32666e-07 -4.91968e-12)
(1.21794 1.54692e-07 -5.57405e-12)
(1.21794 1.88621e-07 -5.42022e-12)
(1.21794 2.23429e-07 -4.98695e-12)
(1.21794 2.72949e-07 -4.64025e-12)
(1.21794 3.26671e-07 -4.2401e-12)
(1.21794 3.98929e-07 -3.39471e-12)
(1.21794 4.79866e-07 -2.01737e-12)
(1.21794 5.83942e-07 -5.44889e-13)
(1.21794 7.01382e-07 6.17818e-13)
(1.21794 8.4647e-07 1.39596e-12)
(1.21794 1.00958e-06 1.85845e-12)
(1.21794 1.20478e-06 2.09966e-12)
(1.21794 1.42236e-06 2.19752e-12)
(1.21794 1.67573e-06 2.20692e-12)
(1.21794 1.95347e-06 2.16359e-12)
(1.21794 2.26538e-06 2.09015e-12)
(1.21794 2.59335e-06 2.00031e-12)
(1.21794 2.93656e-06 1.90267e-12)
(1.21794 3.26424e-06 1.80227e-12)
(1.21794 3.55685e-06 1.7025e-12)
(1.21794 3.76246e-06 1.60513e-12)
(1.21794 3.82397e-06 1.51138e-12)
(1.21794 3.65862e-06 1.42225e-12)
(1.21794 3.19666e-06 1.33821e-12)
(1.0883 1.93231e-06 9.75923e-13)
(1.0883 1.35706e-06 9.41393e-13)
(1.0883 8.08309e-07 9.02333e-13)
(1.0883 3.15848e-07 8.60502e-13)
(1.0883 -1.1347e-07 8.17656e-13)
(1.0883 -4.80957e-07 7.74521e-13)
(1.0883 -7.84189e-07 7.31721e-13)
(1.0883 -1.02988e-06 6.89987e-13)
(1.0883 -1.21987e-06 6.49617e-13)
(1.0883 -1.36317e-06 6.10721e-13)
(1.0883 -1.46254e-06 5.73484e-13)
(1.0883 -1.52725e-06 5.37961e-13)
(1.0883 -1.55977e-06 5.04235e-13)
(1.0883 -1.56856e-06 4.72219e-13)
(1.0883 -1.55501e-06 4.42001e-13)
(1.0883 -1.52653e-06 4.13335e-13)
(1.0883 -1.48348e-06 3.86466e-13)
(1.0883 -1.43221e-06 3.61289e-13)
(1.0883 -1.372e-06 3.37801e-13)
(1.0883 -1.3083e-06 3.15924e-13)
(1.0883 -1.23972e-06 2.95816e-13)
(1.0883 -1.17099e-06 2.77445e-13)
(1.0883 -1.1e-06 2.60862e-13)
(1.0883 -1.03096e-06 2.46272e-13)
(1.0883 -9.61465e-07 2.34034e-13)
(1.0883 -8.95318e-07 2.24422e-13)
(1.0883 -8.29681e-07 2.17966e-13)
(1.0883 -7.68121e-07 2.15503e-13)
(1.0883 -7.07691e-07 2.18058e-13)
(1.0883 -6.51756e-07 2.2712e-13)
(1.0883 -5.97111e-07 2.44645e-13)
(1.0883 -5.47047e-07 2.73273e-13)
(1.0883 -4.98382e-07 3.16487e-13)
(1.0883 -4.54272e-07 3.79155e-13)
(1.0883 -4.11393e-07 4.6748e-13)
(1.0883 -3.72865e-07 5.89135e-13)
(1.0883 -3.35476e-07 7.53138e-13)
(1.0883 -3.0226e-07 9.69109e-13)
(1.0883 -2.69889e-07 1.24543e-12)
(1.0883 -2.41418e-07 1.58439e-12)
(1.0883 -2.13587e-07 1.97377e-12)
(1.0883 -1.89467e-07 2.37424e-12)
(1.0883 -1.65721e-07 2.70445e-12)
(1.0883 -1.45381e-07 2.84133e-12)
(1.0883 -1.25239e-07 2.66573e-12)
(1.0883 -1.08315e-07 2.17621e-12)
(1.0883 -9.13209e-08 1.5273e-12)
(1.0883 -7.72899e-08 9.00068e-13)
(1.0883 -6.30463e-08 3.97736e-13)
(1.0883 -5.16153e-08 5.3316e-14)
(1.0883 -3.97426e-08 -1.36657e-13)
(1.0883 -3.04676e-08 -1.87439e-13)
(1.0883 -2.06414e-08 -1.133e-13)
(1.0883 -1.3297e-08 7.66624e-14)
(1.0883 -5.20975e-09 3.7764e-13)
(1.0883 5.99388e-10 7.84014e-13)
(1.0883 7.20799e-09 1.27974e-12)
(1.0883 1.15916e-08 1.82454e-12)
(1.0883 1.69519e-08 2.3376e-12)
(1.0883 2.02184e-08 2.69372e-12)
(1.0883 2.45171e-08 2.76462e-12)
(1.0883 2.67798e-08 2.52332e-12)
(1.0883 3.017e-08 2.06855e-12)
(1.0883 3.16369e-08 1.48183e-12)
(1.0883 3.42618e-08 7.23691e-13)
(1.0883 3.49727e-08 -3.0883e-13)
(1.0883 3.69416e-08 -1.62674e-12)
(1.0883 3.70846e-08 -3.07411e-12)
(1.0883 3.84796e-08 -4.42979e-12)
(1.0883 3.80507e-08 -5.50469e-12)
(1.0883 3.8968e-08 -6.17527e-12)
(1.0883 3.81391e-08 -6.4563e-12)
(1.0883 3.864e-08 -6.50154e-12)
(1.0883 3.73835e-08 -6.44794e-12)
(1.0883 3.75404e-08 -6.3037e-12)
(1.0883 3.6042e-08 -5.99698e-12)
(1.0883 3.59358e-08 -5.51527e-12)
(1.0883 3.41583e-08 -4.95585e-12)
(1.0883 3.39037e-08 -4.39613e-12)
(1.0883 3.20649e-08 -3.79387e-12)
(1.0883 3.17774e-08 -3.0426e-12)
(1.0883 2.9941e-08 -2.11771e-12)
(1.0883 2.97511e-08 -1.13856e-12)
(1.0883 2.8137e-08 -2.50977e-13)
(1.0883 2.82362e-08 4.73366e-13)
(1.0883 2.69693e-08 1.02914e-12)
(1.0883 2.75806e-08 1.44506e-12)
(1.0883 2.69863e-08 1.76036e-12)
(1.0883 2.83471e-08 2.01297e-12)
(1.0883 2.86008e-08 2.23412e-12)
(1.0883 3.10148e-08 2.44583e-12)
(1.0883 3.25366e-08 2.65701e-12)
(1.0883 3.63608e-08 2.85568e-12)
(1.0883 3.94853e-08 2.99747e-12)
(1.0883 4.52341e-08 2.99249e-12)
(1.0883 5.06591e-08 2.70727e-12)
(1.0883 5.90592e-08 2.01576e-12)
(1.0883 6.76133e-08 9.21505e-13)
(1.0883 7.98388e-08 -3.91083e-13)
(1.0883 9.30888e-08 -1.67108e-12)
(1.0883 1.10996e-07 -2.70294e-12)
(1.0883 1.31199e-07 -3.34031e-12)
(1.0883 1.57725e-07 -3.57816e-12)
(1.0883 1.88564e-07 -3.5528e-12)
(1.0883 2.28083e-07 -3.3856e-12)
(1.0883 2.74721e-07 -3.07267e-12)
(1.0883 3.33284e-07 -2.53751e-12)
(1.0883 4.02589e-07 -1.77824e-12)
(1.0883 4.87506e-07 -9.3121e-13)
(1.0883 5.86863e-07 -1.55265e-13)
(1.0883 7.05594e-07 4.67643e-13)
(1.0883 8.42417e-07 9.23219e-13)
(1.0883 1.00204e-06 1.232e-12)
(1.0883 1.18284e-06 1.42531e-12)
(1.0883 1.38845e-06 1.53324e-12)
(1.0883 1.61483e-06 1.58046e-12)
(1.0883 1.8612e-06 1.58569e-12)
(1.0883 2.11784e-06 1.56251e-12)
(1.0883 2.37635e-06 1.5206e-12)
(1.0883 2.61738e-06 1.46667e-12)
(1.0883 2.82188e-06 1.40555e-12)
(1.0883 2.9589e-06 1.34071e-12)
(1.0883 2.98587e-06 1.27449e-12)
(1.0883 2.84279e-06 1.20873e-12)
(1.0883 2.49022e-06 1.14464e-12)
(0.948588 1.45822e-06 7.51752e-13)
(0.948589 1.08187e-06 7.38881e-13)
(0.948589 6.98796e-07 7.18866e-13)
(0.948589 3.30804e-07 6.93774e-13)
(0.948589 -3.06191e-09 6.6554e-13)
(0.948589 -2.9819e-07 6.35312e-13)
(0.948589 -5.46212e-07 6.0395e-13)
(0.948589 -7.51263e-07 5.72473e-13)
(0.948588 -9.11024e-07 5.41252e-13)
(0.948588 -1.0335e-06 5.10762e-13)
(0.948588 -1.11866e-06 4.8096e-13)
(0.948588 -1.17571e-06 4.5219e-13)
(0.948587 -1.20485e-06 4.2473e-13)
(0.948587 -1.21486e-06 3.98434e-13)
(0.948587 -1.20531e-06 3.73432e-13)
(0.948587 -1.18414e-06 3.49683e-13)
(0.948587 -1.15001e-06 3.27268e-13)
(0.948586 -1.10993e-06 3.06317e-13)
(0.948586 -1.06168e-06 2.86676e-13)
(0.948586 -1.01153e-06 2.68353e-13)
(0.948586 -9.56587e-07 2.51582e-13)
(0.948586 -9.02452e-07 2.36229e-13)
(0.948585 -8.4572e-07 2.22532e-13)
(0.948585 -7.91564e-07 2.1052e-13)
(0.948585 -7.36235e-07 2.00554e-13)
(0.948585 -6.84542e-07 1.92962e-13)
(0.948585 -6.32454e-07 1.88223e-13)
(0.948585 -5.84625e-07 1.86931e-13)
(0.948585 -5.36848e-07 1.90173e-13)
(0.948585 -4.93585e-07 1.9912e-13)
(0.948584 -4.50498e-07 2.1528e-13)
(0.948584 -4.12027e-07 2.40726e-13)
(0.948584 -3.73773e-07 2.78232e-13)
(0.948584 -3.40041e-07 3.31351e-13)
(0.948584 -3.06401e-07 4.03949e-13)
(0.948584 -2.77159e-07 5.00879e-13)
(0.948584 -2.47894e-07 6.2715e-13)
(0.948584 -2.22816e-07 7.8686e-13)
(0.948584 -1.97494e-07 9.82e-13)
(0.948584 -1.76198e-07 1.20918e-12)
(0.948584 -1.54466e-07 1.45485e-12)
(0.948584 -1.36544e-07 1.69143e-12)
(0.948584 -1.1799e-07 1.87378e-12)
(0.948584 -1.03057e-07 1.94594e-12)
(0.948584 -8.733e-08 1.86285e-12)
(0.948584 -7.50152e-08 1.62415e-12)
(0.948584 -6.17129e-08 1.28417e-12)
(0.948583 -5.16787e-08 9.19425e-13)
(0.948583 -4.05219e-08 5.91681e-13)
(0.948583 -3.24571e-08 3.37036e-13)
(0.948583 -2.31094e-08 1.71177e-13)
(0.948583 -1.67401e-08 9.7317e-14)
(0.948583 -8.97962e-09 1.1318e-13)
(0.948583 -4.04978e-09 2.14607e-13)
(0.948583 2.39712e-09 3.95424e-13)
(0.948583 6.11604e-09 6.46079e-13)
(0.948583 1.14175e-08 9.48714e-13)
(0.948583 1.40898e-08 1.27205e-12)
(0.948583 1.84616e-08 1.5669e-12)
(0.948583 2.02434e-08 1.77063e-12)
(0.948583 2.37854e-08 1.82509e-12)
(0.948583 2.48399e-08 1.7066e-12)
(0.948583 2.77087e-08 1.43074e-12)
(0.948583 2.81211e-08 1.01719e-12)
(0.948583 3.03876e-08 4.60928e-13)
(0.948583 3.02567e-08 -2.541e-13)
(0.948583 3.20349e-08 -1.11223e-12)
(0.948583 3.1427e-08 -2.04238e-12)
(0.948583 3.27428e-08 -2.94079e-12)
(0.948583 3.17304e-08 -3.70767e-12)
(0.948583 3.26932e-08 -4.27478e-12)
(0.948583 3.13308e-08 -4.62924e-12)
(0.948583 3.19506e-08 -4.80953e-12)
(0.948583 3.02937e-08 -4.86193e-12)
(0.948583 3.06616e-08 -4.80402e-12)
(0.948583 2.87803e-08 -4.6309e-12)
(0.948583 2.89331e-08 -4.34816e-12)
(0.948583 2.68882e-08 -3.98582e-12)
(0.948583 2.69629e-08 -3.5697e-12)
(0.948583 2.48515e-08 -3.09555e-12)
(0.948583 2.49069e-08 -2.54283e-12)
(0.948583 2.28724e-08 -1.9137e-12)
(0.948583 2.30698e-08 -1.25226e-12)
(0.948583 2.12319e-08 -6.18485e-13)
(0.948583 2.17065e-08 -5.57669e-14)
(0.948583 2.02558e-08 4.18048e-13)
(0.948583 2.12321e-08 8.0522e-13)
(0.948583 2.03596e-08 1.119e-12)
(0.948583 2.19983e-08 1.37665e-12)
(0.948583 2.19247e-08 1.59402e-12)
(0.948583 2.44985e-08 1.78199e-12)
(0.948583 2.54671e-08 1.94271e-12)
(0.948583 2.92045e-08 2.0651e-12)
(0.948583 3.15303e-08 2.12087e-12)
(0.948583 3.68358e-08 2.06293e-12)
(0.948583 4.09454e-08 1.83322e-12)
(0.948583 4.83062e-08 1.38821e-12)
(0.948583 5.48767e-08 7.37178e-13)
(0.948583 6.5201e-08 -4.21549e-14)
(0.948583 7.53422e-08 -8.33453e-13)
(0.948583 9.00227e-08 -1.52216e-12)
(0.948583 1.05566e-07 -2.02537e-12)
(0.948583 1.26944e-07 -2.31687e-12)
(0.948583 1.50725e-07 -2.42301e-12)
(0.948583 1.82241e-07 -2.38065e-12)
(0.948584 2.18445e-07 -2.20163e-12)
(0.948584 2.64935e-07 -1.88162e-12)
(0.948584 3.18858e-07 -1.4377e-12)
(0.948584 3.8593e-07 -9.26805e-13)
(0.948584 4.63312e-07 -4.19544e-13)
(0.948584 5.56654e-07 3.17902e-14)
(0.948584 6.62844e-07 4.01743e-13)
(0.948584 7.87264e-07 6.85683e-13)
(0.948584 9.26155e-07 8.91169e-13)
(0.948584 1.08343e-06 1.03076e-12)
(0.948584 1.25293e-06 1.11784e-12)
(0.948585 1.43471e-06 1.16456e-12)
(0.948585 1.61783e-06 1.18117e-12)
(0.948585 1.79683e-06 1.17573e-12)
(0.948586 1.95508e-06 1.15447e-12)
(0.948586 2.08212e-06 1.12233e-12)
(0.948587 2.15672e-06 1.08304e-12)
(0.948587 2.15526e-06 1.0393e-12)
(0.948587 2.04602e-06 9.93361e-13)
(0.948588 1.8102e-06 9.46771e-13)
(0.798807 1.02979e-06 5.59137e-13)
(0.798807 8.25316e-07 5.59304e-13)
(0.798808 5.81371e-07 5.51727e-13)
(0.798808 3.22675e-07 5.38405e-13)
(0.798808 7.36375e-08 5.2105e-13)
(0.798808 -1.50962e-07 5.00895e-13)
(0.798808 -3.44607e-07 4.7898e-13)
(0.798807 -5.04534e-07 4.56178e-13)
(0.798807 -6.31453e-07 4.32971e-13)
(0.798807 -7.27449e-07 4.09921e-13)
(0.798807 -7.95995e-07 3.86975e-13)
(0.798807 -8.4057e-07 3.64671e-13)
(0.798806 -8.65064e-07 3.43058e-13)
(0.798806 -8.72855e-07 3.22349e-13)
(0.798806 -8.67275e-07 3.02423e-13)
(0.798806 -8.50957e-07 2.83595e-13)
(0.798806 -8.26498e-07 2.65756e-13)
(0.798805 -7.95823e-07 2.48976e-13)
(0.798805 -7.60803e-07 2.33187e-13)
(0.798805 -7.22676e-07 2.18443e-13)
(0.798805 -6.82772e-07 2.04949e-13)
(0.798805 -6.41875e-07 1.92756e-13)
(0.798804 -6.00888e-07 1.81885e-13)
(0.798804 -5.60196e-07 1.72394e-13)
(0.798804 -5.20427e-07 1.64674e-13)
(0.798804 -4.81752e-07 1.58994e-13)
(0.798804 -4.44605e-07 1.5567e-13)
(0.798804 -4.08938e-07 1.55366e-13)
(0.798804 -3.75073e-07 1.58834e-13)
(0.798803 -3.42896e-07 1.67139e-13)
(0.798803 -3.12644e-07 1.81308e-13)
(0.798803 -2.84069e-07 2.03074e-13)
(0.798803 -2.57385e-07 2.34339e-13)
(0.798803 -2.32351e-07 2.77493e-13)
(0.798803 -2.09149e-07 3.34902e-13)
(0.798803 -1.87445e-07 4.09517e-13)
(0.798803 -1.67423e-07 5.03641e-13)
(0.798803 -1.48776e-07 6.18867e-13)
(0.798803 -1.31689e-07 7.54228e-13)
(0.798803 -1.15795e-07 9.05113e-13)
(0.798803 -1.01306e-07 1.06092e-12)
(0.798803 -8.78791e-08 1.20402e-12)
(0.798803 -7.57199e-08 1.31e-12)
(0.798803 -6.44474e-08 1.35207e-12)
(0.798803 -5.42985e-08 1.31131e-12)
(0.798803 -4.4922e-08 1.18725e-12)
(0.798802 -3.65556e-08 1.00185e-12)
(0.798802 -2.88034e-08 7.89679e-13)
(0.798802 -2.19377e-08 5.84553e-13)
(0.798802 -1.56023e-08 4.12263e-13)
(0.798802 -1.00645e-08 2.88752e-13)
(0.798802 -4.92286e-09 2.22243e-13)
(0.798802 -4.75315e-10 2.15294e-13)
(0.798802 3.64061e-09 2.66735e-13)
(0.798802 7.12823e-09 3.7207e-13)
(0.798802 1.03867e-08 5.22643e-13)
(0.798802 1.30998e-08 7.03994e-13)
(0.798802 1.56276e-08 8.94362e-13)
(0.798802 1.76489e-08 1.06422e-12)
(0.798802 1.95661e-08 1.17931e-12)
(0.798802 2.10312e-08 1.20845e-12)
(0.798802 2.24082e-08 1.13376e-12)
(0.798802 2.33744e-08 9.51946e-13)
(0.798802 2.43224e-08 6.65735e-13)
(0.798802 2.48907e-08 2.76452e-13)
(0.798802 2.54371e-08 -2.12293e-13)
(0.798802 2.56191e-08 -7.82624e-13)
(0.798802 2.58341e-08 -1.39584e-12)
(0.798802 2.57203e-08 -1.99847e-12)
(0.798802 2.56323e-08 -2.53689e-12)
(0.798802 2.5225e-08 -2.97089e-12)
(0.798802 2.48928e-08 -3.28313e-12)
(0.798802 2.42731e-08 -3.4783e-12)
(0.798802 2.37187e-08 -3.56997e-12)
(0.798802 2.28866e-08 -3.56819e-12)
(0.798802 2.21688e-08 -3.4785e-12)
(0.798802 2.12236e-08 -3.30843e-12)
(0.798802 2.04052e-08 -3.0708e-12)
(0.798802 1.93847e-08 -2.77734e-12)
(0.798802 1.85577e-08 -2.43237e-12)
(0.798802 1.75855e-08 -2.03689e-12)
(0.798802 1.68258e-08 -1.59919e-12)
(0.798802 1.59861e-08 -1.1408e-12)
(0.798802 1.54573e-08 -6.90084e-13)
(0.798802 1.49246e-08 -2.71532e-13)
(0.798802 1.47458e-08 9.99851e-14)
(0.798802 1.46347e-08 4.194e-13)
(0.798802 1.49871e-08 6.89087e-13)
(0.798802 1.55008e-08 9.15113e-13)
(0.798802 1.65299e-08 1.10386e-12)
(0.798802 1.77921e-08 1.25945e-12)
(0.798802 1.96899e-08 1.38103e-12)
(0.798802 2.19243e-08 1.4604e-12)
(0.798802 2.48717e-08 1.48127e-12)
(0.798802 2.82599e-08 1.4198e-12)
(0.798802 3.25439e-08 1.25112e-12)
(0.798802 3.74616e-08 9.60166e-13)
(0.798802 4.34938e-08 5.55964e-13)
(0.798802 5.04658e-08 7.6154e-14)
(0.798802 5.90171e-08 -4.21589e-13)
(0.798802 6.90757e-08 -8.76492e-13)
(0.798802 8.14136e-08 -1.23993e-12)
(0.798802 9.61683e-08 -1.48669e-12)
(0.798802 1.14391e-07 -1.61371e-12)
(0.798802 1.36446e-07 -1.6293e-12)
(0.798803 1.63617e-07 -1.54123e-12)
(0.798803 1.96507e-07 -1.35712e-12)
(0.798803 2.36569e-07 -1.09306e-12)
(0.798803 2.84438e-07 -7.7868e-13)
(0.798803 3.41461e-07 -4.49772e-13)
(0.798803 4.08153e-07 -1.37594e-13)
(0.798803 4.85605e-07 1.37367e-13)
(0.798803 5.73806e-07 3.65005e-13)
(0.798803 6.73016e-07 5.43611e-13)
(0.798803 7.81863e-07 6.76601e-13)
(0.798804 8.9867e-07 7.69992e-13)
(0.798804 1.01902e-06 8.30604e-13)
(0.798804 1.13761e-06 8.64983e-13)
(0.798804 1.24625e-06 8.78761e-13)
(0.798805 1.33662e-06 8.77015e-13)
(0.798805 1.39955e-06 8.63755e-13)
(0.798806 1.42504e-06 8.42361e-13)
(0.798806 1.40544e-06 8.15321e-13)
(0.798806 1.32855e-06 7.84828e-13)
(0.798807 1.20436e-06 7.52467e-13)
(0.638964 6.66056e-07 3.97843e-13)
(0.638964 5.97731e-07 4.03949e-13)
(0.638965 4.49386e-07 4.03137e-13)
(0.638965 2.87099e-07 3.97072e-13)
(0.638965 1.02284e-07 3.872e-13)
(0.638965 -4.65672e-08 3.74491e-13)
(0.638965 -1.95446e-07 3.59813e-13)
(0.638964 -2.98375e-07 3.44032e-13)
(0.638964 -3.99271e-07 3.27627e-13)
(0.638964 -4.5592e-07 3.10967e-13)
(0.638964 -5.14873e-07 2.94246e-13)
(0.638964 -5.34843e-07 2.77783e-13)
(0.638963 -5.6273e-07 2.61628e-13)
(0.638963 -5.56996e-07 2.46153e-13)
(0.638963 -5.6404e-07 2.31223e-13)
(0.638963 -5.41802e-07 2.17008e-13)
(0.638963 -5.36087e-07 2.03501e-13)
(0.638962 -5.04285e-07 1.90806e-13)
(0.638962 -4.91577e-07 1.78801e-13)
(0.638962 -4.5499e-07 1.67677e-13)
(0.638962 -4.39239e-07 1.57449e-13)
(0.638962 -4.01066e-07 1.48305e-13)
(0.638962 -3.84748e-07 1.40147e-13)
(0.638961 -3.46953e-07 1.33116e-13)
(0.638961 -3.31633e-07 1.27487e-13)
(0.638961 -2.95389e-07 1.23499e-13)
(0.638961 -2.81899e-07 1.21456e-13)
(0.638961 -2.47811e-07 1.21763e-13)
(0.638961 -2.36597e-07 1.25093e-13)
(0.638961 -2.04954e-07 1.32149e-13)
(0.638961 -1.96143e-07 1.43896e-13)
(0.638961 -1.66978e-07 1.61405e-13)
(0.63896 -1.60555e-07 1.85919e-13)
(0.63896 -1.33813e-07 2.18958e-13)
(0.63896 -1.29648e-07 2.6216e-13)
(0.63896 -1.05159e-07 3.16953e-13)
(0.63896 -1.03086e-07 3.84378e-13)
(0.63896 -8.06619e-08 4.64479e-13)
(0.63896 -8.04628e-08 5.55737e-13)
(0.63896 -5.98641e-08 6.53982e-13)
(0.63896 -6.13663e-08 7.52e-13)
(0.63896 -4.24216e-08 8.38955e-13)
(0.63896 -4.53727e-08 9.01713e-13)
(0.63896 -2.78533e-08 9.2689e-13)
(0.63896 -3.21063e-08 9.05954e-13)
(0.63896 -1.58468e-08 8.38739e-13)
(0.63896 -2.1193e-08 7.35201e-13)
(0.63896 -5.9924e-09 6.11754e-13)
(0.63896 -1.23048e-08 4.8698e-13)
(0.63896 1.95987e-09 3.76764e-13)
(0.63896 -5.1498e-09 2.9312e-13)
(0.63896 8.34613e-09 2.43307e-13)
(0.63896 5.35322e-10 2.30863e-13)
(0.63896 1.3358e-08 2.56081e-13)
(0.63896 4.99258e-09 3.15815e-13)
(0.63896 1.72639e-08 4.03734e-13)
(0.63896 8.39547e-09 5.09832e-13)
(0.63896 2.0194e-08 6.19715e-13)
(0.63896 1.09241e-08 7.15361e-13)
(0.63896 2.23457e-08 7.77118e-13)
(0.63896 1.27077e-08 7.87203e-13)
(0.63896 2.37657e-08 7.33133e-13)
(0.63896 1.38531e-08 6.09054e-13)
(0.63896 2.46461e-08 4.13867e-13)
(0.63896 1.44497e-08 1.49577e-13)
(0.63896 2.49746e-08 -1.77578e-13)
(0.63896 1.45599e-08 -5.53944e-13)
(0.63896 2.48802e-08 -9.56666e-13)
(0.63896 1.42432e-08 -1.35649e-12)
(0.63896 2.43596e-08 -1.72347e-12)
(0.63896 1.35539e-08 -2.03337e-12)
(0.63896 2.35239e-08 -2.27197e-12)
(0.63896 1.25415e-08 -2.43522e-12)
(0.63896 2.23659e-08 -2.52543e-12)
(0.63896 1.12707e-08 -2.5467e-12)
(0.63896 2.10061e-08 -2.5035e-12)
(0.63896 9.80097e-09 -2.40138e-12)
(0.63896 1.94953e-08 -2.24735e-12)
(0.63896 8.2654e-09 -2.04828e-12)
(0.63896 1.80124e-08 -1.80949e-12)
(0.63896 6.80447e-09 -1.53614e-12)
(0.63896 1.66298e-08 -1.23621e-12)
(0.63896 5.57564e-09 -9.22128e-13)
(0.63896 1.56554e-08 -6.09059e-13)
(0.63896 4.81867e-09 -3.1109e-13)
(0.63896 1.52198e-08 -3.8483e-14)
(0.63896 4.76514e-09 2.03199e-13)
(0.63896 1.56393e-08 4.12484e-13)
(0.63896 5.6598e-09 5.90347e-13)
(0.63896 1.70873e-08 7.38505e-13)
(0.63896 7.73031e-09 8.57675e-13)
(0.63896 1.98405e-08 9.46039e-13)
(0.63896 1.11905e-08 9.98208e-13)
(0.63896 2.40531e-08 1.00503e-12)
(0.63896 1.62508e-08 9.55059e-13)
(0.63896 3.00108e-08 8.37604e-13)
(0.63896 2.32218e-08 6.48324e-13)
(0.63896 3.80557e-08 3.94214e-13)
(0.63896 3.26104e-08 9.55821e-14)
(0.63896 4.89627e-08 -2.17436e-13)
(0.63896 4.54166e-08 -5.11864e-13)