/*--------------------------------*- C++ -*----------------------------------*\
| =========                 |                                                 |
| \\      /  F ield         | OpenFOAM: The Open Source CFD Toolbox           |
|  \\    /   O peration     | Version:                                        |
|   \\  /    A nd           | Website:  www.openfoam.com                      |
|    \\/     M anipulation  |                                                 |
\*---------------------------------------------------------------------------*/
FoamFile
{
    version     2.0;
    format      ascii;
    class       volScalarField;
    location    "93";
    object      p;
}
// * * * * * * * * * * * * * * * * * * * * * * * * * * * * * * * * * * * * * //

dimensions      [0 2 -2 0 0 0 0];


internalField   nonuniform List<scalar> 
1164
(
-0.335884
-0.314216
-0.279911
-0.231461
-0.174621
-0.119186
-0.324949
-0.326012
-0.311305
-0.273976
-0.221047
-0.161002
-0.105278
-0.0570375
-0.024359
-0.00719714
-0.371339
-0.401168
-0.411557
-0.389354
-0.338179
-0.270313
-0.198329
-0.131669
-0.0779782
-0.0387
-0.478675
-0.537638
-0.571613
-0.567882
-0.523891
-0.446906
-0.353592
-0.259402
-0.169717
-0.102383
-0.603506
-0.683629
-0.730285
-0.737055
-0.696233
-0.617717
-0.515442
-0.395221
-0.288061
-0.187295
-0.635847
-0.729998
-0.787779
-0.822244
-0.790843
-0.726276
-0.62836
-0.513173
-0.410347
-0.288611
-0.517536
-0.587092
-0.640457
-0.674159
-0.671704
-0.642595
-0.57475
-0.496469
-0.427421
-0.315543
-0.387592
-0.422742
-0.446489
-0.459791
-0.457638
-0.443393
-0.410357
-0.367604
-0.322393
-0.258516
-0.301456
-0.310089
-0.308682
-0.302168
-0.2904
-0.273661
-0.256608
-0.235871
-0.218197
-0.190634
-0.267298
-0.253772
-0.236723
-0.217581
-0.198905
-0.177725
-0.159838
-0.144119
-0.131899
-0.121933
-0.282317
-0.247318
-0.216764
-0.189841
-0.167808
-0.144865
-0.124595
-0.107544
-0.0932058
-0.0834232
-0.298624
-0.244497
-0.196918
-0.156191
-0.12525
-0.0999481
-0.0826572
-0.0729321
-0.066741
-0.0578252
-0.289194
-0.24279
-0.199526
-0.157268
-0.121439
-0.0884721
-0.0609476
-0.0400319
-0.02831
-0.0266119
-0.274932
-0.23961
-0.201556
-0.162212
-0.124617
-0.0886589
-0.0590545
-0.034203
-0.0155464
-0.0104867
-0.249547
-0.231653
-0.211821
-0.193904
-0.172549
-0.150542
-0.124785
-0.0984685
-0.0719312
-0.0453828
-0.224719
-0.225019
-0.225781
-0.226281
-0.224549
-0.220642
-0.213062
-0.20397
-0.190064
-0.175242
-0.227088
-0.238503
-0.249108
-0.257618
-0.264489
-0.267468
-0.267218
-0.260897
-0.250462
-0.234378
-0.250169
-0.268862
-0.284619
-0.296954
-0.306132
-0.310655
-0.310714
-0.303706
-0.291102
-0.272469
-0.259846
-0.275638
-0.288881
-0.298381
-0.304962
-0.306951
-0.305
-0.295681
-0.283236
-0.262617
-0.226627
-0.233257
-0.237819
-0.239529
-0.239086
-0.236821
-0.232868
-0.225848
-0.215203
-0.198434
-0.197209
-0.196197
-0.193355
-0.188389
-0.182046
-0.175194
-0.169721
-0.164552
-0.155262
-0.140036
-0.188939
-0.183361
-0.176812
-0.169094
-0.160708
-0.15225
-0.144341
-0.138535
-0.133945
-0.126208
-0.20839
-0.201045
-0.191947
-0.181555
-0.169641
-0.157504
-0.144963
-0.132411
-0.120796
-0.108877
-0.183671
-0.178239
-0.171678
-0.163989
-0.155375
-0.145944
-0.135826
-0.125493
-0.114961
-0.105072
-0.157583
-0.152961
-0.147451
-0.140867
-0.133579
-0.125471
-0.116377
-0.106994
-0.0969144
-0.0868831
-0.16829
-0.156556
-0.145249
-0.134758
-0.125372
-0.116993
-0.109748
-0.103965
-0.0985514
-0.0936914
-0.177208
-0.164057
-0.151218
-0.139427
-0.128938
-0.119777
-0.111747
-0.104402
-0.0977306
-0.0922497
-0.123354
-0.121908
-0.119586
-0.116524
-0.11268
-0.108115
-0.103134
-0.0975185
-0.0911463
-0.083853
-0.0482482
-0.0521883
-0.055512
-0.0579191
-0.0591291
-0.0588195
-0.0569637
-0.053717
-0.0665694
-0.0614986
-0.0150034
-0.0159688
-0.0169101
-0.0176957
-0.0182922
-0.0185952
-0.0186952
-0.0185874
-0.0184829
-0.0178584
0.00224751
0.00508676
0.0146993
0.0222864
0.0267788
0.0296677
0.0319388
0.0337897
0.0352952
0.0364111
0.0373315
0.0381212
0.0388766
0.0396794
0.0404092
0.0410925
0.0417466
0.0423514
0.0429218
0.0434387
0.043886
0.0442515
0.0445611
0.0447872
0.0449575
0.0450863
0.0451379
0.0451823
-0.00785218
0.00296599
0.0100515
0.0165255
0.0195357
0.0192687
0.0227185
0.025285
0.0280959
0.0299165
0.031881
0.0334475
0.0349991
0.0362091
0.0373432
0.0383582
0.0392926
0.0401933
0.0410055
0.0417249
0.0423556
0.0429074
0.043384
0.0437877
0.0441236
0.0443697
0.0445488
0.0446812
0.04474
0.0447865
-0.0486651
-0.0167726
-0.000781528
0.0160819
0.0272037
0.0269811
0.0260728
0.027049
0.0280294
0.0293362
0.030532
0.031711
0.0330903
0.034459
0.0359384
0.0372271
0.038423
0.0394635
0.040387
0.041199
0.0419194
0.0425234
0.0430209
0.0434161
0.0437371
0.0439745
0.0441498
0.0442798
0.0443366
0.0443794
-0.108393
-0.0630239
-0.0337866
-0.00404299
0.01029
0.0152083
0.0185468
0.0217803
0.0236598
0.0261701
0.0277439
0.0299991
0.0315651
0.0333309
0.0348645
0.0363441
0.0377536
0.0390127
0.0400654
0.040957
0.0416774
0.0422821
0.0427777
0.0431664
0.0434652
0.0436647
0.043801
0.0438968
0.0439308
0.0439616
-0.205689
-0.152224
-0.0995763
-0.0568472
-0.03295
-0.0167176
-0.00366639
0.00610929
0.01395
0.018915
0.0231707
0.0264428
0.0293603
0.031977
0.0341124
0.0359502
0.037532
0.0388153
0.0399396
0.0408501
0.0416034
0.0421904
0.0426296
0.0429543
0.0431988
0.0433564
0.0434589
0.0435187
0.0435253
0.0435381
-0.247408
-0.180731
-0.123132
-0.0790811
-0.0467715
-0.0274499
-0.0122701
-0.00211802
0.00700889
0.0135895
0.0196386
0.0237255
0.0274515
0.0304221
0.0328337
0.0351064
0.0369102
0.0384649
0.0396158
0.0405616
0.0413033
0.0418847
0.0423295
0.0426522
0.0428767
0.0430037
0.043071
0.043104
0.043096
0.0430994
-0.198296
-0.144738
-0.103225
-0.0669891
-0.0445945
-0.0260801
-0.0133985
-0.00350272
0.00478456
0.0123722
0.0178684
0.0225669
0.0269453
0.030126
0.0329365
0.0350625
0.0368455
0.0383092
0.0394651
0.0404075
0.0411139
0.0416486
0.0420104
0.0422791
0.0424755
0.0425906
0.0426457
0.0426654
0.0426449
0.0426386
-0.14876
-0.113453
-0.0842284
-0.058052
-0.0426848
-0.0263954
-0.0198157
-0.002738
0.000706867
0.0129547
0.0172878
0.0226677
0.0265679
0.0298078
0.0327949
0.0351694
0.0370893
0.038515
0.039593
0.0403986
0.0410322
0.0415137
0.0418566
0.0420755
0.0421977
0.0422388
0.0422358
0.042217
0.0421743
0.0421557
-0.101092
-0.0834595
-0.0673555
-0.0519378
-0.040141
-0.0264351
-0.0149961
-0.00202857
0.00560175
0.0142311
0.0198379
0.0255051
0.029134
0.0323507
0.0347244
0.0366478
0.0381821
0.0393866
0.0402832
0.0409228
0.0413525
0.0416448
0.0418267
0.0419323
0.0419729
0.041948
0.0418771
0.0417929
0.0416999
0.0416526
-0.0682748
-0.0574443
-0.0489118
-0.0383824
-0.0292095
-0.0166961
-0.00521375
0.00470807
0.0130329
0.0195722
0.0241287
0.0281779
0.0314952
0.034473
0.0368264
0.0385194
0.0396815
0.0404437
0.0409909
0.0413665
0.0416618
0.0418372
0.0419066
0.0418776
0.041778
0.0416366
0.0414798
0.0413353
0.0412022
0.0411313
-0.0430998
-0.0346211
-0.0281104
-0.0202986
-0.011539
-0.00203444
0.00741636
0.0172411
0.0244144
0.0298258
0.0332158
0.0358598
0.0372331
0.0385159
0.0394985
0.0403547
0.0409566
0.0414227
0.041631
0.0417601
0.0417852
0.0417661
0.0417072
0.041606
0.0414583
0.0412628
0.0410416
0.0408361
0.0406607
0.0405668
-0.0199238
-0.0140934
-0.012694
-0.0155734
-0.0129601
-0.00331134
0.0136514
0.0272237
0.0350261
0.0390253
0.0420075
0.0438247
0.0443967
0.0444146
0.0439636
0.043381
0.0429676
0.0426383
0.0424645
0.0423273
0.0421865
0.0419906
0.041736
0.0414425
0.0411337
0.0408268
0.0405355
0.0402822
0.0400734
0.0399573
0.00915775
0.0144597
0.0147305
0.00708236
-0.00115154
-0.00160463
0.0124046
0.0298928
0.0455704
0.0518195
0.0530445
0.051137
0.0492718
0.0475804
0.0462839
0.0453598
0.0444988
0.0439044
0.0432453
0.0428292
0.0424413
0.0420931
0.0417382
0.041352
0.0409365
0.0404991
0.0400781
0.0397189
0.0394399
0.0392888
-0.0215004
-0.007549
-0.00459744
-0.0122717
-0.0208826
-0.0163616
0.012165
0.0484331
0.0715209
0.074981
0.0708133
0.0641743
0.0582502
0.0532365
0.0499874
0.04769
0.0463314
0.0453329
0.0445566
0.043857
0.0432089
0.0425422
0.0418773
0.0412458
0.0406451
0.0400806
0.0395633
0.0391176
0.0387698
0.0385769
-0.15254
-0.134078
-0.125221
-0.113388
-0.0909981
-0.0568202
-0.0120057
0.0295074
0.0531992
0.0621323
0.0619252
0.0600162
0.0566804
0.053724
0.0508827
0.0487592
0.0470034
0.0457407
0.0447718
0.0439746
0.0432841
0.042575
0.0418553
0.0411058
0.0403457
0.0396143
0.038953
0.0384056
0.037999
0.0377772
-0.215295
-0.200413
-0.184923
-0.164614
-0.137727
-0.105239
-0.0639081
-0.0259076
0.00683172
0.0226803
0.0331312
0.0393823
0.0434803
0.0455503
0.0467257
0.0470265
0.046822
0.0462188
0.0453448
0.04442
0.0434361
0.042491
0.0415585
0.040657
0.0397986
0.0389862
0.0382448
0.0376128
0.0371355
0.0368724
-0.251378
-0.22824
-0.200481
-0.167652
-0.139061
-0.103255
-0.0722257
-0.0468497
-0.0205524
-0.00471269
0.0130865
0.0231683
0.0327249
0.0378155
0.0421298
0.0442761
0.0455536
0.0457754
0.0455932
0.0448917
0.0439784
0.0428907
0.0417279
0.0405519
0.0394069
0.0383583
0.0374435
0.0366972
0.0361515
0.0358525
-0.239768
-0.214265
-0.18286
-0.147845
-0.113219
-0.0786633
-0.0482741
-0.0236366
-0.00402966
0.00993847
0.0203259
0.0288836
0.0347272
0.0396582
0.0427941
0.0448056
0.0456119
0.0458166
0.0453985
0.0446823
0.0437089
0.0425913
0.0413758
0.0401061
0.0388563
0.0376667
0.0365932
0.035705
0.0350531
0.0346993
-0.177472
-0.156212
-0.133003
-0.105983
-0.0771614
-0.0506148
-0.0243117
-0.000798871
0.0144666
0.0306293
0.0376941
0.04453
0.0467341
0.049484
0.0502704
0.0504032
0.0501447
0.0491558
0.0479074
0.0462003
0.0445447
0.0428442
0.0411427
0.0395125
0.0379904
0.0366171
0.0354363
0.0344789
0.0337757
0.0333936
-0.125954
-0.112233
-0.0965427
-0.079668
-0.0594102
-0.0395355
-0.0197453
0.000790289
0.0153608
0.0291506
0.0377707
0.0442953
0.0476818
0.0515426
0.0518074
0.0521327
0.0512609
0.0499927
0.0484348
0.0465901
0.0446942
0.0427179
0.040769
0.0388826
0.0371078
0.0355103
0.0341351
0.0330365
0.032251
0.0318326
-0.114647
-0.103785
-0.0932471
-0.0819019
-0.0687686
-0.0522215
-0.0341479
-0.0112712
0.0135716
0.0349407
0.050957
0.0567617
0.0587449
0.0591178
0.0582866
0.0568625
0.0545173
0.0521453
0.0495451
0.0470263
0.0445408
0.0421656
0.0398944
0.03776
0.0358138
0.0340824
0.032603
0.0314126
0.0305466
0.0300785
-0.0990617
-0.0925019
-0.0864381
-0.079523
-0.0713054
-0.059564
-0.0430143
-0.0225951
0.00375565
0.0294605
0.0521408
0.0640198
0.0673217
0.0664687
0.0641921
0.0608649
0.0574684
0.0540514
0.0507617
0.0476014
0.0445893
0.0417058
0.039002
0.03652
0.0342768
0.0323263
0.0307016
0.0294297
0.0285303
0.0280523
-0.09576
-0.0862625
-0.0764697
-0.0666598
-0.0557903
-0.0434958
-0.0294213
-0.0157008
-0.00166445
0.0117638
0.0254294
0.0372635
0.0469733
0.0524058
0.0542888
0.0542859
0.0528993
0.0508823
0.0483007
0.0455703
0.0426789
0.0398143
0.0370743
0.0344933
0.0321773
0.0301636
0.0284613
0.0271198
0.0261678
0.0256628
-0.0768436
-0.0663102
-0.05462
-0.0426278
-0.0310951
-0.0211318
-0.0131462
-0.00659218
0.00034252
0.00870916
0.0187238
0.0295977
0.0426127
0.047387
0.0543697
0.0537902
0.0536443
0.0510699
0.0482748
0.0448831
0.0414048
0.0380752
0.0349132
0.0320637
0.0295879
0.0274703
0.0257406
0.0244055
0.0234608
0.0229581
-0.0874565
-0.0778579
-0.0658843
-0.0527376
-0.0386563
-0.0242262
-0.0103016
0.00316257
0.0155691
0.0263089
0.0365817
0.042746
0.0470126
0.0511429
0.052593
0.0532048
0.0523419
0.0498553
0.0467534
0.0429354
0.0391559
0.0354753
0.0320675
0.0290913
0.0265022
0.0243285
0.0225741
0.0212358
0.0203154
0.0198364
-0.0878422
-0.0813813
-0.0715002
-0.0583641
-0.0423785
-0.0244659
-0.00563518
0.0125132
0.0303718
0.0461512
0.0559231
0.0623192
0.0649031
0.0667109
0.0645608
0.0615445
0.0554196
0.0500641
0.0445238
0.0396202
0.0351614
0.031152
0.0277497
0.0248266
0.0223723
0.0203745
0.0187698
0.0175499
0.0167045
0.0162608
-0.0759442
-0.0672951
-0.0576636
-0.0471095
-0.0353942
-0.0221215
-0.00700204
0.0090881
0.0255578
0.0435984
0.0574782
0.0716558
0.0822776
0.0799505
0.0822626
0.0694085
0.060362
0.0516515
0.0436896
0.0369308
0.0311939
0.0265705
0.0228616
0.0198805
0.017541
0.0157061
0.0143016
0.0132796
0.0125871
0.0122292
-0.0568494
-0.0532322
-0.0486327
-0.0436228
-0.0382261
-0.0320693
-0.0256349
-0.0184938
-0.011897
-0.00438415
0.00484116
0.0166888
0.031769
0.0419753
0.049054
0.049675
0.0466004
0.0408736
0.0345166
0.0284774
0.0232845
0.0191651
0.0159541
0.0135105
0.0116535
0.0102375
0.00918339
0.00843012
0.0079348
0.00768718
-0.0170809
-0.0162279
-0.0149434
-0.0132079
-0.0112084
-0.00910339
-0.00701056
-0.0048029
-0.00271032
-0.00108751
0.000461442
0.000614099
0.0020526
0.00454178
0.00824977
0.0111654
0.0125175
0.0123244
0.011325
0.00983556
0.00830666
0.00692044
0.00575121
0.0048365
0.00413167
0.00360086
0.00320658
0.00292298
0.00273478
0.00264071
)
;

boundaryField
{
    outlet
    {
        type            fixedValue;
        value           uniform 0;
    }
    upperWall
    {
        type            symmetryPlane;
    }
    lowerWall
    {
        type            symmetryPlane;
    }
    inlet
    {
        type            zeroGradient;
    }
    cylinder
    {
        type            zeroGradient;
    }
    frontAndBack
    {
        type            empty;
    }
    procBoundary3to2
    {
        type            processor;
        value           nonuniform List<scalar> 
43
(
-0.401612
-0.350693
-0.292253
-0.227074
-0.164101
-0.110279
-0.0729874
-0.0729874
-0.0398595
-0.0179186
-0.00515856
0.00300762
0.00706061
0.01055
0.0194709
0.0277646
0.032793
0.035709
0.0370421
0.0376489
0.0381405
0.0386145
0.0390727
0.0396666
0.0401527
0.0406651
0.0412166
0.0417683
0.0423239
0.0428704
0.0433784
0.0438468
0.0442702
0.0446315
0.0449357
0.0451692
0.045336
0.0454647
0.0455156
0.0455617
0.00300762
0.00316623
0.00316623
)
;
    }
    procBoundary3to7
    {
        type            processor;
        value           nonuniform List<scalar> 
30
(
-0.347058
-0.311679
-0.330917
-0.405438
-0.50503
-0.525019
-0.436597
-0.343014
-0.289164
-0.281852
-0.320301
-0.356529
-0.333906
-0.306826
-0.266971
-0.223573
-0.21465
-0.228345
-0.241332
-0.218144
-0.196082
-0.193037
-0.21458
-0.187891
-0.161013
-0.179798
-0.190077
-0.124152
-0.0440436
-0.014099
)
;
    }
}


// ************************************************************************* //
