/*--------------------------------*- C++ -*----------------------------------*\
| =========                 |                                                 |
| \\      /  F ield         | OpenFOAM: The Open Source CFD Toolbox           |
|  \\    /   O peration     | Version:                                        |
|   \\  /    A nd           | Website:  www.openfoam.com                      |
|    \\/     M anipulation  |                                                 |
\*---------------------------------------------------------------------------*/
FoamFile
{
    version     2.0;
    format      ascii;
    class       surfaceScalarField;
    location    "93";
    object      phi;
}
// * * * * * * * * * * * * * * * * * * * * * * * * * * * * * * * * * * * * * //

dimensions      [0 3 -1 0 0 0 0];
oriented        oriented;


internalField   nonuniform List<scalar> 
2257
(
0.086013
0.0381954
0.0825128
0.0417209
0.0771684
0.0470121
0.0693234
0.0519115
0.059653
0.0555216
0.0568318
0.0905969
0.0373889
0.0900832
0.0422346
0.0881004
0.0489949
0.0839514
0.0560604
0.077247
0.0622259
0.0676062
0.0664726
0.0552165
0.0680746
0.0412208
0.0660989
0.0263171
0.0612907
0.051037
0.0996894
0.0337768
0.101492
0.0404316
0.101525
0.0489628
0.0997612
0.0578238
0.0956578
0.0663293
0.0898253
0.0723051
0.0809859
0.076914
0.0702835
0.0768012
0.0551536
0.0764206
0.0679337
0.0382569
0.0863202
0.0286427
0.0901145
0.0366373
0.0930293
0.046048
0.0946268
0.0562263
0.0940376
0.0669184
0.0930486
0.0732941
0.0896239
0.0803387
0.0855858
0.0808393
0.0790782
0.0829282
0.0777509
0.069261
0.0530246
0.0267276
0.0552827
0.0343792
0.0582254
0.0431053
0.0615415
0.0529102
0.06503
0.0634299
0.0677625
0.0705616
0.0693303
0.078771
0.0707757
0.0793939
0.0700886
0.0836153
0.0809579
0.0668816
-0.00865734
0.0277173
-0.0074341
0.0331559
-0.00408573
0.039757
0.00165742
0.047167
0.0097216
0.0553657
0.0172361
0.0630471
0.0253765
0.0706307
0.0316787
0.0730917
0.0370638
0.0782302
0.0765614
0.0414603
-0.0624082
0.0321633
-0.0641364
0.0348841
-0.062775
0.0383956
-0.0589596
0.0433516
-0.0520622
0.0484684
-0.0429191
0.0539039
-0.031403
0.0591146
-0.0205597
0.0622484
-0.00801785
0.0656883
0.065919
0.00262456
-0.0865222
0.0352532
-0.0881756
0.0365375
-0.0878249
0.0380449
-0.0855169
0.0410436
-0.0810948
0.0440463
-0.0746013
0.0474104
-0.0656864
0.0501997
-0.0553039
0.0518659
-0.0425972
0.0529816
0.0533616
-0.0300398
-0.100006
0.0338477
-0.0978436
0.0343756
-0.0946871
0.0348883
-0.0902325
0.0365891
-0.084837
0.0386508
-0.0785946
0.041168
-0.0720998
0.043705
-0.0657118
0.0454779
-0.058811
0.0460808
0.0460647
-0.0515142
-0.0987063
0.0299307
-0.0945593
0.0302286
-0.0900992
0.0304282
-0.0844937
0.0309836
-0.0778847
0.0320418
-0.070076
0.0333593
-0.0622668
0.0358958
-0.0553904
0.0386014
-0.0503943
0.0410847
0.043325
-0.0476545
-0.0987743
0.0273876
-0.0960541
0.0275083
-0.0930616
0.0274358
-0.089487
0.027409
-0.0851335
0.0276882
-0.0789573
0.0271831
-0.070699
0.0276375
-0.0604651
0.0283675
-0.0493332
0.0299528
0.0336719
-0.0396801
-0.0498406
0.0291485
-0.0518491
0.0295168
-0.0539969
0.0295836
-0.0567755
0.0301875
-0.0603658
0.0312786
-0.0637083
0.0305256
-0.0665864
0.0305156
-0.0674887
0.0292698
-0.0654085
0.0278726
0.02773
-0.0594665
0.0047495
0.0348969
-0.00027517
0.0345415
-0.00457376
0.0338822
-0.00906067
0.0346744
-0.0134447
0.0356626
-0.0190295
0.0361104
-0.0262347
0.0377208
-0.0343933
0.0374284
-0.0440237
0.0375029
0.035695
-0.0519887
0.0556638
0.0373111
0.0533445
0.0368607
0.0499226
0.0373041
0.0459133
0.0386838
0.0416532
0.0399226
0.0359835
0.0417802
0.0298632
0.0438411
0.0222229
0.0450688
0.0124489
0.0472769
0.0470555
0.00108839
0.111904
0.036417
0.112882
0.0358833
0.112882
0.0373039
0.113061
0.0385047
0.112031
0.0409523
0.110371
0.0434399
0.107879
0.0463334
0.10414
0.0488081
0.100013
0.051403
0.0529647
0.0941043
0.112363
0.036342
0.112155
0.0360908
0.11223
0.0372288
0.112791
0.0379441
0.1135
0.0402429
0.114891
0.0420492
0.116214
0.0450102
0.117739
0.0472835
0.119128
0.0500141
0.0519438
0.120149
0.104517
0.0397796
0.100061
0.0405476
0.095378
0.0419114
0.0902447
0.0430775
0.0855988
0.0448888
0.0811195
0.0465284
0.0772273
0.0489025
0.0735969
0.0509138
0.0706946
0.0529164
0.0542249
0.0684135
0.0353706
0.0430861
0.0317767
0.0441414
0.0285378
0.0451503
0.0252445
0.0463708
0.0228536
0.0472796
0.0207421
0.04864
0.0198474
0.0497971
0.0188791
0.0518822
0.0185691
0.0532264
0.05471
0.018084
-0.0687035
0.0451454
-0.0707985
0.0462364
-0.0724396
0.0467915
-0.0739123
0.0478435
-0.0746138
0.0479811
-0.0746146
0.0486408
-0.0733284
0.0485109
-0.0707622
0.049316
-0.0671209
0.0495851
0.0505962
-0.0630071
-0.10418
0.0456686
-0.104592
0.0466484
-0.104936
0.0471353
-0.105339
0.0482465
-0.105828
0.0484695
-0.106134
0.0489476
-0.106118
0.0484949
-0.105182
0.0483797
-0.103141
0.0475438
0.0471907
-0.0997353
-0.15767
0.045929
-0.156823
0.0458012
-0.155027
0.045339
-0.152236
0.0454558
-0.14887
0.0451034
-0.145092
0.0451692
-0.141223
0.0446266
-0.137118
0.0442747
-0.133147
0.0435729
0.0431599
-0.129117
-0.112609
0.0482951
-0.114559
0.0477509
-0.116111
0.0468917
-0.116893
0.0462381
-0.117176
0.0453854
-0.116988
0.0449816
-0.116626
0.0442649
-0.116082
0.0437302
-0.115647
0.0431377
0.0422984
-0.114785
0.0499301
0.0499502
0.0482891
0.0493918
0.0463585
0.0488222
0.0445501
0.0480466
0.0426291
0.0473064
0.0411796
0.0464311
0.0398782
0.0455663
0.03886
0.0447483
0.0378613
0.0441364
0.0432797
0.03688
0.10392
0.0514503
0.102735
0.0505761
0.101702
0.0498553
0.10105
0.0486984
0.100587
0.0477699
0.100645
0.046373
0.100964
0.0452477
0.101683
0.044029
0.102533
0.043286
0.0425208
0.103292
0.149719
0.0525667
0.148209
0.0520858
0.14637
0.0516941
0.144113
0.050956
0.141463
0.0504192
0.13827
0.0495659
0.134454
0.0490641
0.130158
0.0483251
0.125231
0.0482126
0.0479243
0.119828
0.142772
0.0546589
0.14003
0.0548274
0.136862
0.0548625
0.13316
0.0546584
0.129134
0.0544445
0.124587
0.054113
0.1198
0.0538518
0.114627
0.0534975
0.109462
0.0533775
0.0531712
0.104215
-0.104325
0.0543964
-0.104068
0.0545704
-0.10371
0.0545038
-0.103563
0.0545113
-0.103488
0.0543702
-0.103662
0.0542868
-0.10378
0.0539697
-0.104052
0.0537691
-0.104127
0.0534528
0.0532429
-0.104199
-0.226413
0.0520912
-0.224007
0.0521644
-0.221437
0.0519344
-0.218724
0.0517977
-0.215718
0.0513641
-0.212473
0.0510421
-0.208969
0.0504658
-0.205255
0.0500549
-0.20127
0.0494678
0.0490008
-0.197028
-0.0240483
0.0496368
-0.0214084
0.0495245
-0.0186665
0.0491925
-0.0157623
0.0488935
-0.0127817
0.0483834
-0.009628
0.0478884
-0.00636034
0.0471982
-0.00289022
0.0465848
0.000781569
0.045796
0.0450591
0.00472322
0.0610217
0.0632026
0.0653288
0.0674496
0.0694819
0.0714751
0.0733556
0.0751901
0.0769066
0.0785337
-0.0044016
0.0448361
-0.00333999
0.0498651
6.69147e-05
0.0568117
0.00284521
0.0634936
0.00477524
0.0688254
0.00591015
0.0745697
0.00615775
0.0806508
0.00581081
0.0873784
0.00511004
0.0941267
0.00415795
0.101266
0.00323259
0.108575
0.00232888
0.116397
0.00166256
0.124614
0.00112683
0.133463
0.00072381
0.142896
0.00039905
0.15293
0.000179392
0.16356
6.39555e-05
0.174873
2.15303e-05
0.186951
1.72055e-05
0.199855
1.63567e-05
0.213645
1.44312e-05
0.228372
1.83196e-05
0.244098
2.71254e-05
0.260904
3.48175e-05
0.278878
3.31363e-05
0.298105
2.07059e-05
0.318692
0.340744
0.0291709
0.051537
0.0197485
0.0533154
0.0108344
0.0537503
0.00414166
0.0565579
0.000339597
0.0606138
-0.000720471
0.0645537
-0.000928651
0.0690336
-0.000729071
0.0743701
-0.000998725
0.0809204
-0.00109698
0.0874766
-0.00149701
0.0945267
-0.00171107
0.10148
-0.00197453
0.108838
-0.0019969
0.116419
-0.0019186
0.124536
-0.00166689
0.133212
-0.00133544
0.142565
-0.000987649
0.152582
-0.000702178
0.163275
-0.000504613
0.174675
-0.000363207
0.186809
-0.000253948
0.199746
-0.000153446
0.213544
-6.8342e-05
0.228287
-1.07934e-05
0.24404
1.8487e-05
0.260875
2.70807e-05
0.278869
2.35357e-05
0.298109
1.42036e-05
0.318702
0.340758
0.0625909
0.0582071
0.0541117
0.0617946
0.0440539
0.0638081
0.0334979
0.0671138
0.0250691
0.0690426
0.0209862
0.0686366
0.0178999
0.0721199
0.0148525
0.0774175
0.0119162
0.0838568
0.00938836
0.0900044
0.00739275
0.0965223
0.00564053
0.103232
0.00428203
0.110197
0.00314215
0.117559
0.00228311
0.125395
0.00160148
0.133893
0.00106888
0.143097
0.000652613
0.152998
0.000361546
0.163566
0.000202873
0.174834
0.000120437
0.186892
8.0792e-05
0.199785
5.23598e-05
0.213573
3.5829e-05
0.228303
3.58406e-05
0.24404
4.54422e-05
0.260865
5.18719e-05
0.278863
4.5973e-05
0.298115
2.72545e-05
0.31872
0.340785
0.0581839
0.0669048
0.048266
0.0717125
0.0368152
0.0752589
0.0261403
0.0777887
0.0186718
0.076511
0.0131281
0.0741803
0.00919003
0.076058
0.00572664
0.0808809
0.00369949
0.0858839
0.00201326
0.0916907
0.00098488
0.0975507
0.000235972
0.103981
-0.000370023
0.110803
-0.000733026
0.117922
-0.000978719
0.12564
-0.0010414
0.133956
-0.00092951
0.142986
-0.000746644
0.152815
-0.000550196
0.16337
-0.000408191
0.174692
-0.000287447
0.186771
-0.000180993
0.199679
-8.22257e-05
0.213474
-5.54584e-06
0.228226
3.74216e-05
0.243997
5.1209e-05
0.260851
4.8986e-05
0.278865
3.83126e-05
0.298125
2.20824e-05
0.318737
0.340807
0.0368945
0.0714706
0.0325904
0.0760166
0.0287106
0.0791387
0.0265431
0.0799563
0.024866
0.0781882
0.0206782
0.0783681
0.0161945
0.0805417
0.0118955
0.0851799
0.00875575
0.0890236
0.00647683
0.0939696
0.00482065
0.0992069
0.00358454
0.105217
0.00278423
0.111603
0.00208304
0.118624
0.00151439
0.126209
0.0010866
0.134384
0.000700759
0.143371
0.000447378
0.153069
0.000267534
0.163549
0.000183386
0.174776
0.00013187
0.186823
9.76735e-05
0.199713
7.11349e-05
0.213501
6.09708e-05
0.228237
6.98147e-05
0.243989
8.30513e-05
0.260838
8.52821e-05
0.278863
6.94748e-05
0.298141
3.89929e-05
0.318767
0.340846
0.00257207
0.0715231
0.00364032
0.0749483
0.00528494
0.0774941
0.00747093
0.0777703
0.00880795
0.0768512
0.0079621
0.0792139
0.00678065
0.0817231
0.00577333
0.0861872
0.00409001
0.0907069
0.0031758
0.0948838
0.00236847
0.100014
0.00180494
0.105781
0.00134686
0.112061
0.000943814
0.119027
0.000619263
0.126533
0.000259502
0.134744
7.23461e-05
0.143559
-6.22395e-05
0.153203
-9.49055e-05
0.163582
-9.82436e-05
0.174779
-5.47656e-05
0.186779
1.04615e-05
0.199648
7.50273e-05
0.213436
0.00011553
0.228196
0.000123991
0.24398
0.000111722
0.260851
9.22008e-05
0.278882
6.86569e-05
0.298165
3.83504e-05
0.318797
0.340885
-0.0233979
0.0648812
-0.0155648
0.0671152
-0.00965807
0.0715873
-0.00564182
0.073754
-0.00540136
0.0766107
-0.00585329
0.0796659
-0.00720271
0.0830725
-0.00658857
0.0855731
-0.00611454
0.0902329
-0.00512893
0.0938982
-0.00453928
0.0994245
-0.00359072
0.104832
-0.002866
0.111336
-0.00214231
0.118303
-0.00164782
0.126039
-0.00117183
0.134268
-0.000847172
0.143234
-0.000527813
0.152884
-0.000301431
0.163356
-0.000127867
0.174606
-3.33393e-05
0.186685
1.37206e-05
0.199601
4.30161e-05
0.213407
7.50421e-05
0.228164
0.000109994
0.243945
0.000132007
0.260829
0.000127837
0.278886
9.8981e-05
0.298194
5.36367e-05
0.318843
0.340938
-0.0433282
0.0566952
-0.0342554
0.0580424
-0.0265053
0.0638372
-0.018071
0.0653197
-0.0116649
0.0702047
-0.00513829
0.0731392
-0.00309641
0.0810307
-0.00108144
0.0835581
0.000198337
0.0889531
0.000771988
0.0933245
0.00147826
0.0987183
0.00170943
0.104601
0.00189751
0.111148
0.00188265
0.118318
0.00181202
0.12611
0.00149554
0.134584
0.00116184
0.143568
0.000787307
0.153258
0.000522683
0.16362
0.00035392
0.174775
0.000286631
0.186752
0.000273964
0.199613
0.000268006
0.213413
0.000246458
0.228186
0.000209998
0.243982
0.000171511
0.260867
0.000137445
0.27892
0.000102162
0.298229
5.68353e-05
0.318888
0.340995
-0.0442079
0.0532486
-0.0412146
0.0550491
-0.0392141
0.0618367
-0.0360788
0.0621844
-0.0333166
0.0674424
-0.0288144
0.0686371
-0.0245354
0.0767517
-0.0203751
0.0793978
-0.016981
0.0855591
-0.0142155
0.090559
-0.0118961
0.0963989
-0.0100761
0.102781
-0.00840184
0.109474
-0.0068161
0.116732
-0.00537915
0.124673
-0.00398473
0.13319
-0.00280558
0.142388
-0.00182518
0.152278
-0.00110689
0.162902
-0.000625961
0.174294
-0.000328211
0.186454
-0.000150772
0.199436
-2.34377e-05
0.213285
7.77457e-05
0.228084
0.000148114
0.243911
0.000177632
0.260837
0.000164971
0.278933
0.000123102
0.298271
6.53486e-05
0.318946
0.341061
-0.0310164
0.0445849
-0.0243066
0.0483394
-0.0182527
0.0557828
-0.014039
0.0579707
-0.012935
0.0663384
-0.0129972
0.0686992
-0.0126064
0.0763609
-0.010436
0.0772274
-0.00675178
0.0818749
-0.00375282
0.08756
-0.00115523
0.0938013
0.000872911
0.100753
0.00193394
0.108413
0.00238339
0.116283
0.00241598
0.12464
0.00218585
0.13342
0.00179293
0.142781
0.00137476
0.152696
0.0010023
0.163274
0.000751591
0.174544
0.000592139
0.186614
0.000495397
0.199533
0.000412508
0.213368
0.000332917
0.228164
0.000265738
0.243978
0.000217069
0.260886
0.000179348
0.278971
0.000136
0.298314
7.60097e-05
0.319006
0.341137
-0.0519886
0.037107
-0.045388
0.0417388
-0.0375379
0.0479328
-0.0313684
0.0518011
-0.0243568
0.0593269
-0.0192146
0.0635569
-0.0161848
0.0733312
-0.014638
0.0756806
-0.0138698
0.0811067
-0.0128625
0.0865527
-0.0115907
0.0925295
-0.0104279
0.09959
-0.00891693
0.106902
-0.00729328
0.114659
-0.00566804
0.123015
-0.00423782
0.13199
-0.00298018
0.141524
-0.00201665
0.151733
-0.00128401
0.162542
-0.000781632
0.174042
-0.000431978
0.186264
-0.000186979
0.199288
2.23457e-06
0.213179
0.000141547
0.228025
0.000219798
0.2439
0.000236591
0.260869
0.000206048
0.279001
0.000148566
0.298371
7.83305e-05
0.319076
0.341215
-0.0531314
0.0382497
-0.0540426
0.04265
-0.0538478
0.0477379
-0.0545073
0.0524606
-0.0509259
0.0557455
-0.0436814
0.0563124
-0.0302515
0.0599013
-0.0185748
0.0640039
-0.0100627
0.0725946
-0.00428319
0.0807732
-0.000710741
0.0889571
0.00120776
0.0976715
0.00224487
0.105865
0.00234157
0.114562
0.00207772
0.123279
0.00174348
0.132324
0.00138898
0.141878
0.00112284
0.151999
0.000892537
0.162772
0.000724307
0.17421
0.000589003
0.186399
0.000481968
0.199395
0.000387584
0.213273
0.000310699
0.228102
0.000264887
0.243946
0.000240341
0.260894
0.000214833
0.279027
0.00016816
0.298418
9.44708e-05
0.31915
0.341309
-0.00239081
0.0417289
-0.00609253
0.0463517
-0.0102388
0.0518841
-0.0147107
0.0569325
-0.0190768
0.0601116
-0.0225144
0.05975
-0.0208448
0.0582318
-0.0174251
0.0605841
-0.0122724
0.067442
-0.00813751
0.0766383
-0.00507996
0.0858995
-0.00233862
0.0949301
-0.00119847
0.104725
-0.00022732
0.113591
0.000127592
0.122924
0.000157476
0.132294
8.46321e-05
0.141951
-5.23135e-05
0.152136
-8.93134e-05
0.162809
-6.45655e-05
0.174185
2.61381e-05
0.186308
0.000142372
0.199279
0.000254163
0.213162
0.00033279
0.228023
0.000352844
0.243926
0.000321561
0.260925
0.000260002
0.279088
0.000182987
0.298495
9.66082e-05
0.319236
0.341406
0.0948662
0.0409669
0.095467
0.0457509
0.0956184
0.0517328
0.0954798
0.0570711
0.0925395
0.0630519
0.0841285
0.0681609
0.0684537
0.0739066
0.0496519
0.079386
0.032312
0.0847818
0.0204039
0.0885464
0.0120955
0.0942079
0.00620155
0.100824
0.00286293
0.108063
0.000711935
0.115742
-0.000334283
0.12397
-0.000638701
0.132598
-0.000647841
0.14196
-0.000404252
0.151892
-0.000200762
0.162606
-2.17773e-05
0.174006
8.8108e-05
0.186199
0.000152501
0.199214
0.000195084
0.213119
0.000232612
0.227985
0.000272091
0.243886
0.000295983
0.260901
0.000281173
0.279103
0.000220651
0.298556
0.000122052
0.319335
0.341528
0.119424
0.0416917
0.117564
0.0476111
0.114809
0.0544875
0.1099
0.06198
0.10246
0.070492
0.0906809
0.0799402
0.0756529
0.0889346
0.0601042
0.0949347
0.0464757
0.0984103
0.0356211
0.099401
0.0274696
0.102359
0.0205669
0.107727
0.015495
0.113135
0.0113334
0.119904
0.00827245
0.127031
0.0057685
0.135102
0.00402011
0.143709
0.00268565
0.153227
0.00183694
0.163454
0.00130076
0.174543
0.0010062
0.186493
0.000857688
0.199363
0.000769792
0.213207
0.000693184
0.228062
0.000601132
0.243978
0.000495673
0.261007
0.00038784
0.279211
0.000273707
0.29867
0.000145757
0.319463
0.341674
0.0589031
0.0512021
0.048345
0.0581692
0.0370704
0.0657621
0.0257893
0.0732612
0.0152285
0.0810528
0.00640797
0.0887607
0.00198458
0.093358
-0.000663005
0.0975823
-0.000831503
0.0985788
-0.00341076
0.10198
-0.0049338
0.103882
-0.00584947
0.108643
-0.00668019
0.113966
-0.0062491
0.119473
-0.00563994
0.126422
-0.00455521
0.134018
-0.00354203
0.142695
-0.00254299
0.152228
-0.00170497
0.162616
-0.00102103
0.173859
-0.000495884
0.185968
-0.000115211
0.198982
0.000161182
0.212931
0.000353452
0.22787
0.000467674
0.243864
0.000501489
0.260973
0.000452708
0.27926
0.00033838
0.298784
0.000181414
0.31962
0.341855
0.012576
0.0567101
0.00737437
0.0633708
0.00260541
0.070531
-0.00138236
0.0772489
-0.00404704
0.0837174
-0.00324369
0.0879574
-0.000414
0.0905283
0.00332964
0.0938387
0.00721597
0.0946925
0.00906484
0.100131
0.00919741
0.10375
0.00931791
0.108522
0.00856468
0.114719
0.00733002
0.120707
0.00601393
0.127738
0.00475647
0.135275
0.00375485
0.143697
0.00299463
0.152988
0.00241477
0.163196
0.00198209
0.174291
0.00165989
0.18629
0.00143105
0.199211
0.00124956
0.213112
0.00108344
0.228036
0.000926084
0.244022
0.000772761
0.261126
0.000617039
0.279415
0.000444238
0.298957
0.000237991
0.319826
0.342093
-0.0623525
0.0560554
-0.0603811
0.0613995
-0.0569026
0.0670524
-0.0522945
0.0726408
-0.0464956
0.0779186
-0.0406578
0.0821196
-0.0367505
0.0866209
-0.0322008
0.089289
-0.0302452
0.0927369
-0.0251303
0.0950165
-0.023074
0.101693
-0.0191239
0.104572
-0.0155284
0.111124
-0.0118958
0.117075
-0.00870809
0.12455
-0.00617153
0.132738
-0.004063
0.141588
-0.00255596
0.151481
-0.00136544
0.162006
-0.000484299
0.17341
0.000163708
0.185642
0.000603451
0.198771
0.000878083
0.212837
0.00102267
0.227891
0.00104619
0.243998
0.000960654
0.261212
0.000788936
0.279587
0.000557893
0.299188
0.000291065
0.320093
0.342384
-0.0973701
0.0536901
-0.09372
0.0577494
-0.0884072
0.0617396
-0.0815693
0.065803
-0.0735552
0.0699046
-0.0653133
0.0738777
-0.0574289
0.0787365
-0.0472562
0.0791162
-0.0395044
0.0849851
-0.0293288
0.0848409
-0.0225042
0.0948689
-0.0172848
0.0993525
-0.0123137
0.106153
-0.00859996
0.113361
-0.00579685
0.121747
-0.00344713
0.130389
-0.0018691
0.14001
-0.000573191
0.150185
0.000297475
0.161135
0.000891812
0.172816
0.00125586
0.185278
0.00145044
0.198576
0.00151435
0.212773
0.00147403
0.227932
0.00136369
0.244108
0.0012022
0.261373
0.000987589
0.279802
0.000713682
0.299462
0.00038065
0.320426
0.342765
-0.12407
0.0486433
-0.118124
0.0518033
-0.11147
0.0550855
-0.103493
0.0578267
-0.0941536
0.0605647
-0.0825326
0.0622567
-0.0694972
0.0657011
-0.0547725
0.0643915
-0.039707
0.0699196
-0.0264718
0.0716057
-0.0143625
0.0827597
-0.00640105
0.091391
-0.00158671
0.101338
0.0012596
0.110515
0.00284119
0.120165
0.00334141
0.129889
0.00356632
0.139786
0.00346783
0.150283
0.00329609
0.161307
0.00309417
0.173018
0.00288418
0.185488
0.00267347
0.198787
0.00245951
0.212987
0.00222642
0.228165
0.00195217
0.244383
0.00162708
0.261698
0.00126298
0.280166
0.00086976
0.299855
0.000449755
0.320846
0.343215
-0.10874
0.042598
-0.102407
0.0454701
-0.0959958
0.0486747
-0.088975
0.050806
-0.0817431
0.0533328
-0.073552
0.0540657
-0.0644724
0.0566215
-0.0566134
0.0565326
-0.0477576
0.0610637
-0.040729
0.0645771
-0.0331883
0.075219
-0.0271896
0.0853923
-0.0216004
0.0957492
-0.0162093
0.105123
-0.0114505
0.115407
-0.00740681
0.125845
-0.00431681
0.136696
-0.00200356
0.14797
-0.000359545
0.159663
0.00078173
0.171877
0.00153941
0.18473
0.0019875
0.198339
0.00218511
0.21279
0.00218886
0.228161
0.00204912
0.244522
0.00180363
0.261944
0.00146262
0.280507
0.00103589
0.300282
0.000543046
0.321339
0.343758
0.0422695
0.0372085
0.0485576
0.0391821
0.0556382
0.041594
0.0631507
0.0432936
0.0708792
0.0456042
0.0775937
0.0473512
0.0829806
0.0512346
0.0833966
0.0561166
0.0803003
0.06416
0.0721552
0.0727222
0.0617892
0.085585
0.0498212
0.0973603
0.0400652
0.105505
0.0309243
0.114264
0.0236289
0.122702
0.0177437
0.13173
0.0133424
0.141097
0.010208
0.151105
0.00803988
0.161831
0.00653208
0.173384
0.00543402
0.185829
0.00460969
0.199163
0.00395508
0.213444
0.00338482
0.228731
0.00285309
0.245054
0.0023251
0.262472
0.00178708
0.281045
0.00123022
0.300839
0.000637596
0.321931
0.344395
0.104976
0.0355244
0.106049
0.0381091
0.106335
0.0413083
0.104964
0.0446647
0.101848
0.0487201
0.0959702
0.0532292
0.0877371
0.0594677
0.0767219
0.0671318
0.0641993
0.0766827
0.0497519
0.0871695
0.0384545
0.0968824
0.0278298
0.107985
0.0189974
0.114338
0.0132875
0.119974
0.00950241
0.126487
0.00720154
0.134031
0.00617299
0.142125
0.00550234
0.151775
0.00513387
0.162199
0.00485679
0.173661
0.00462334
0.186062
0.00436962
0.199417
0.00404182
0.213772
0.00364891
0.229124
0.00318959
0.245513
0.00266101
0.263
0.00206864
0.281637
0.00142161
0.301486
0.000731203
0.322622
0.345127
0.113267
0.0420851
0.105044
0.0463318
0.0948732
0.0514794
0.0825439
0.0569939
0.068236
0.063028
0.0522934
0.0691717
0.0360135
0.0757476
0.0210297
0.0821156
0.00918548
0.0885269
0.000535721
0.0958193
-0.0017054
0.0991235
-0.00128114
0.107561
-0.000533078
0.113589
0.00104869
0.118392
0.00183529
0.125701
0.00309799
0.132768
0.00375174
0.141472
0.00442354
0.151103
0.00486431
0.161759
0.00507746
0.173448
0.00509533
0.186044
0.00491159
0.199601
0.00458647
0.214097
0.00414552
0.229565
0.00360559
0.246053
0.00299718
0.263609
0.00233346
0.282301
0.00161418
0.302205
0.000836924
0.323399
0.345964
0.0960514
0.050249
0.0874255
0.0549577
0.0786964
0.0602085
0.070058
0.0656323
0.0616151
0.071471
0.0533747
0.0774121
0.0455713
0.0835511
0.0379562
0.0897306
0.0312528
0.0952303
0.0256709
0.101401
0.0214674
0.103327
0.0216411
0.107387
0.0205965
0.114634
0.0200013
0.118988
0.0185356
0.127166
0.0167654
0.134538
0.0148889
0.143348
0.0131504
0.152842
0.0115118
0.163397
0.0101087
0.174851
0.00885288
0.1873
0.0077133
0.20074
0.00666788
0.215143
0.00567852
0.230554
0.00472813
0.247004
0.00379665
0.26454
0.00286932
0.283228
0.00193912
0.303135
0.000989996
0.324348
0.346954
-0.105963
0.0520137
-0.106918
0.0559122
-0.106766
0.0600564
-0.105455
0.0643216
-0.102777
0.0687934
-0.0986682
0.0733029
-0.0932231
0.0781061
-0.0867799
0.0832874
-0.0804457
0.0888961
-0.0724676
0.0934231
-0.0655569
0.0964163
-0.0543769
0.096207
-0.0443551
0.104612
-0.0329968
0.107629
-0.022009
0.116179
-0.0126594
0.125189
-0.00504028
0.135729
0.000320518
0.147481
0.00378672
0.159931
0.00572839
0.17291
0.00657383
0.186454
0.00670942
0.200605
0.00638398
0.215468
0.00577186
0.231167
0.00499109
0.247785
0.00410843
0.265423
0.003159
0.284178
0.0021569
0.304137
0.00110619
0.325399
0.34806
-0.190829
0.0458146
-0.183682
0.0487652
-0.175493
0.0518677
-0.16616
0.0549889
-0.155499
0.0581319
-0.143233
0.061037
-0.129304
0.0641768
-0.112762
0.0667456
-0.0941063
0.0702407
-0.0724092
0.071726
-0.0510029
0.0750101
-0.0299935
0.0751976
-0.010534
0.0851528
0.00201974
0.0950756
0.00967253
0.108526
0.0131597
0.121702
0.0143516
0.134537
0.0142023
0.14763
0.0134835
0.16065
0.0125182
0.173875
0.0113936
0.187579
0.0101549
0.201843
0.00885034
0.216773
0.00754074
0.232476
0.00625419
0.249071
0.00499736
0.26668
0.00376647
0.285409
0.00254206
0.305362
0.00129736
0.326643
0.349357
0.0103458
0.040192
0.0167553
0.0423557
0.0240498
0.0445732
0.0321861
0.0468527
0.0411085
0.0492095
0.0505782
0.0515673
0.0605695
0.0541856
0.0707812
0.0565338
0.0807062
0.0603156
0.0884944
0.0639378
0.0944167
0.0690878
0.0931212
0.076493
0.0883046
0.0899694
0.0773617
0.106018
0.0643873
0.1215
0.0518245
0.134264
0.0409816
0.14538
0.032354
0.156258
0.0256609
0.167343
0.0204656
0.17907
0.0164763
0.191568
0.0133998
0.20492
0.0109575
0.219215
0.00894745
0.234486
0.00721701
0.250802
0.00566456
0.268232
0.00421721
0.286856
0.00282093
0.306758
0.00143098
0.328033
0.350788
0.0801206
0.0817764
0.0834637
0.0850934
0.0865813
0.0876197
0.0880661
0.0871957
0.0852617
0.0811142
0.0750915
0.0658814
0.0558943
0.0473668
0.0402467
0.0344499
0.0295439
0.0253643
0.0217001
0.0184704
0.0156448
0.0131832
0.0110478
0.00917022
0.00747992
0.00591617
0.00442841
0.00297242
0.00151127
)
;

boundaryField
{
    outlet
    {
        type            calculated;
        value           nonuniform List<scalar> 
40
(
0.0474984
0.0473436
0.0470662
0.0467728
0.0463511
0.0458951
0.0453177
0.0447502
0.0440795
0.043432
0.0386051
0.0406999
0.0428859
0.0452229
0.0477216
0.0505289
0.0537392
0.0574042
0.0622496
0.0680853
0.0751105
0.0857031
0.0999565
0.114546
0.12862
0.140061
0.150286
0.160437
0.171007
0.1823
0.194394
0.207382
0.22135
0.236364
0.252492
0.269796
0.288344
0.308214
0.329495
0.352299
)
;
    }
    upperWall
    {
        type            symmetryPlane;
        value           nonuniform 0();
    }
    lowerWall
    {
        type            symmetryPlane;
        value           uniform 0;
    }
    inlet
    {
        type            calculated;
        value           nonuniform 0();
    }
    cylinder
    {
        type            calculated;
        value           nonuniform 0();
    }
    frontAndBack
    {
        type            empty;
        value           nonuniform 0();
    }
    procBoundary3to2
    {
        type            processor;
        value           nonuniform List<scalar> 
43
(
-0.0357165
-0.0382206
-0.0416678
-0.0440664
-0.0458511
-0.0459022
0.0487233
-0.0556849
-0.0521031
-0.0463871
-0.039033
0.0143131
-0.0417368
-0.0509268
-0.0602186
-0.0662719
-0.0707554
-0.0757046
-0.0808984
-0.0870314
-0.0934259
-0.100314
-0.107649
-0.115493
-0.123947
-0.132928
-0.142493
-0.152605
-0.163341
-0.174757
-0.186908
-0.199851
-0.213644
-0.22837
-0.244102
-0.260913
-0.278885
-0.298103
-0.31868
-0.340723
-0.042451
0.00130228
-0.043893
)
;
    }
    procBoundary3to7
    {
        type            processor;
        value           nonuniform List<scalar> 
30
(
-0.0884919
-0.0897904
-0.0960774
-0.081186
-0.0511095
0.00766769
0.0579622
0.0834323
0.101411
0.102623
0.101317
0.0480796
-0.0104979
-0.0580779
-0.11101
-0.112288
-0.107955
-0.0386771
0.0666442
0.103657
0.15741
0.110243
-0.0515852
-0.10542
-0.150835
-0.144864
0.104588
0.228718
0.0265027
-0.0588833
)
;
    }
}


// ************************************************************************* //
