/*--------------------------------*- C++ -*----------------------------------*\
| =========                 |                                                 |
| \\      /  F ield         | OpenFOAM: The Open Source CFD Toolbox           |
|  \\    /   O peration     | Version:                                        |
|   \\  /    A nd           | Website:  www.openfoam.com                      |
|    \\/     M anipulation  |                                                 |
\*---------------------------------------------------------------------------*/
FoamFile
{
    version     2.0;
    format      ascii;
    class       surfaceScalarField;
    location    "82.9";
    object      phi;
}
// * * * * * * * * * * * * * * * * * * * * * * * * * * * * * * * * * * * * * //

dimensions      [0 3 -1 0 0 0 0];
oriented        oriented;


internalField   nonuniform List<scalar> 
2227
(
0.0480701
0.00226608
-0.0511047
0.0451364
0.00213935
0.00203116
0.0477336
0.005259
-0.0507266
0.0448291
0.00504387
0.00487238
0.047138
0.00823792
-0.0501169
0.0442512
0.0079307
0.0462079
0.0111655
-0.0491354
0.0107709
0.0449964
0.0140243
-0.0478552
-0.0461639
0.0538515
-0.000455764
0.053727
-0.000838082
0.0546346
-0.00306756
0.0544835
-0.000560456
0.0551917
-0.00106042
0.0550768
-0.000932828
0.0556114
-0.000214085
0.0555736
6.64994e-05
0.0560255
-0.00169564
0.0559485
-0.000295105
0.056291
-0.0011512
0.0562069
-0.00139807
0.0564353
-0.00127594
0.0563736
-0.000985502
0.0564747
-0.00115714
0.0563323
-0.00086094
0.0563432
-0.00086814
0.056148
-0.000572338
0.0560551
-0.000662869
0.0558002
-0.000456714
0.0556126
-0.000527599
0.0552772
-0.000358661
0.0549806
-0.000432753
0.0545496
-0.000316109
0.05414
-0.000378155
0.0536066
-0.000283
0.053085
-0.000332791
0.0524535
-0.000251823
0.0518335
-0.000290258
-0.000210582
0.0537819
-0.0012047
0.0536937
-0.000749816
0.0546423
-0.00401617
0.0544161
-0.000334254
0.0550897
-0.001734
0.0549394
-0.000782599
0.0553876
-0.000662278
0.0554021
5.20004e-05
0.0558227
-0.00211623
0.0557389
-0.000211297
0.0561515
-0.00156383
0.0560381
-0.00128465
0.0562635
-0.00150137
0.0562137
-0.000935677
0.0562909
-0.00123434
0.0561245
-0.000694558
0.0561118
-0.000855419
0.0558998
-0.000360345
0.0557819
-0.0005449
0.0555066
-0.000181502
0.0553073
-0.000328254
0.0549537
-5.03365e-06
0.0546584
-0.000137522
0.0542226
0.000119692
0.0538072
3.73299e-05
0.0532777
0.000246423
0.0527527
0.000192278
0.0521139
0.00038699
0.0514723
0.000351319
0.000535141
0.0536732
-0.0018449
0.0536152
-0.000691798
0.0545636
-0.00496454
0.0542419
-1.25665e-05
0.0548499
-0.00234201
0.0546435
-0.000576258
0.0549886
-0.00100737
0.0550464
-5.81185e-06
0.0554067
-0.00247645
0.0553278
-0.000132474
0.0557811
-0.00201708
0.0556201
-0.00112368
0.0558393
-0.00172055
0.0557813
-0.000877665
0.0558086
-0.00126162
0.0556129
-0.000498917
0.0555726
-0.000815066
0.055321
-0.000108767
0.0551843
-0.000408216
0.0548792
0.000123593
0.0546569
-0.00010592
0.0543129
0.000338982
0.0539947
0.000180644
0.0535654
0.000549025
0.0531642
0.000438525
0.0526396
0.000771031
0.052134
0.000697838
0.0515011
0.00101993
0.0508723
0.000980119
0.00129048
0.0535261
-0.00233801
0.0534962
-0.00066185
0.0544035
-0.00587188
0.0539558
0.000435105
0.0544723
-0.00285847
0.0541845
-0.000288443
0.054421
-0.00124392
0.0545075
-9.23289e-05
0.0547933
-0.00276226
0.0547135
-5.26564e-05
0.0551911
-0.00249464
0.0549562
-0.000888824
0.0551803
-0.00194462
0.0550711
-0.000768416
0.0550483
-0.00123891
0.054803
-0.000253567
0.054717
-0.000729125
0.0544247
0.000183571
0.0542449
-0.00022842
0.0539364
0.000432109
0.0536863
0.000144139
0.0533281
0.000697247
0.0530308
0.000477912
0.0525998
0.000980018
0.0522096
0.000828734
0.0516861
0.0012945
0.0511822
0.00120182
0.0505437
0.00165841
0.0499097
0.00161412
0.00206473
0.0533435
-0.00264854
0.0533417
-0.000660053
0.0541575
-0.00668764
0.053561
0.00103163
0.0539497
-0.00324721
0.0535676
9.36777e-05
0.0536879
-0.00136419
0.0538009
-0.000205366
0.0539892
-0.00295055
0.0539295
7.07908e-06
0.0543643
-0.00292953
0.0540559
-0.000580418
0.0542758
-0.00216452
0.0540842
-0.000576728
0.0539749
-0.00112964
0.0536952
2.60706e-05
0.0535312
-0.000565078
0.0532031
0.00051169
0.0529895
-1.48341e-05
0.0526501
0.000771477
0.0524108
0.000383485
0.0520438
0.0010642
0.0517376
0.00078415
0.0513022
0.00141538
0.0509177
0.0012133
0.0503967
0.00181542
0.0499024
0.00169611
0.0492675
0.00229332
0.0486366
0.00224505
0.00284613
0.0531306
-0.0027461
0.053155
-0.000684542
0.0538302
-0.0073628
0.0530478
0.00181404
0.0532897
-0.00348913
0.0527928
0.000590596
0.0528068
-0.00137822
0.052931
-0.000329497
0.0530244
-0.00304399
0.0529625
6.90204e-05
0.0533382
-0.00330525
0.0529162
-0.000158409
0.0531644
-0.00241276
0.0527863
-0.000198574
0.0526313
-0.000974663
0.05228
0.000377328
0.0520411
-0.000326202
0.0516229
0.000929913
0.0514108
0.000197233
0.0510417
0.00114058
0.0507754
0.000649786
0.050375
0.00146466
0.0500731
0.00108602
0.0496035
0.00188501
0.049216
0.00160077
0.0486772
0.00235419
0.048184
0.00218939
0.0475457
0.00293163
0.0469353
0.00285537
0.00361756
0.0528943
-0.00260743
0.0529463
-0.000736484
0.0534091
-0.00782566
0.0524223
0.00280083
0.0524814
-0.00354823
0.0518827
0.00118932
0.051787
-0.00128249
0.051923
-0.000465522
0.0518875
-0.0030085
0.0518693
8.72647e-05
0.0520522
-0.00348815
0.0515636
0.000330204
0.0517772
-0.00262638
0.0512387
0.000339894
0.0509683
-0.000704267
0.0505904
0.000755208
0.0501572
0.000107005
0.0498064
0.0012808
0.0495225
0.000481118
0.0491338
0.00152923
0.0488677
0.000915864
0.0484495
0.0018829
0.0481635
0.00137206
0.0477002
0.00234828
0.0473202
0.00198074
0.0467847
0.00288973
0.0463051
0.00266898
0.0456575
0.00357924
0.0450479
0.00346493
0.0526389
-0.00221335
0.0527251
-0.000822617
0.0528946
-0.00799519
0.0516727
0.00402267
0.0515447
-0.00342018
0.0508288
0.00190521
0.0506582
-0.00111184
0.0507895
-0.000596832
0.0506101
-0.0028291
0.0505973
0.000100041
0.0505896
-0.00348042
0.0499973
0.000922415
0.0501679
-0.00279694
0.0493288
0.00117897
0.0490885
-0.000463972
0.048495
0.00134872
0.0480676
0.000534421
0.0476382
0.00171023
0.0473763
0.000743011
0.0468872
0.0020183
0.0466006
0.00120243
0.0461593
0.00232425
0.0458071
0.00172427
0.0453215
0.0028339
0.0449311
0.00237116
0.0443644
0.00345638
0.0438949
0.00313845
0.0432471
0.00422706
0.00404695
0.052359
-0.00153934
0.0525016
-0.000965263
0.0522789
-0.00777248
0.0508019
0.00549974
0.0504665
-0.00308484
0.0496438
0.00272796
0.0494013
-0.000869319
0.0495401
-0.000735666
0.0491603
-0.0024493
0.0491383
0.000122001
0.0488364
-0.00317849
0.0482765
0.0014823
0.0482192
-0.00273962
0.0471824
0.0022158
0.0468972
-0.000178819
0.0461295
0.00211646
0.0456377
0.00102623
0.0452765
0.00207135
0.0448906
0.00112892
0.0445312
0.00237776
0.0441466
0.00158697
0.043765
0.00270591
0.0433856
0.00210359
0.0428831
0.0033364
0.0425155
0.00273876
0.041939
0.00403288
0.0414902
0.00358728
0.0408306
0.00488669
0.0520705
-0.000576861
0.052251
-0.00114572
0.051624
-0.00714548
0.0498295
0.00729425
0.0493441
-0.0025995
0.0484327
0.00363933
0.0480783
-0.000514883
0.0482178
-0.000875128
0.0476101
-0.0018416
0.0475413
0.000190797
0.0468711
-0.00250829
0.0463283
0.00202511
0.0461466
-0.00255794
0.0447251
0.0036373
0.0445059
4.03197e-05
0.0434625
0.00315987
0.043031
0.00145779
0.0427061
0.00239625
0.0422319
0.00160309
0.0417524
0.00285727
0.0413939
0.0019454
0.0408879
0.003212
0.0404283
0.00256319
0.0399244
0.00384029
0.0394531
0.00321004
0.038888
0.00459793
0.0384592
0.00401617
0.00543764
0.0476063
-0.000354566
0.0485971
-0.00213652
0.0484244
-0.00697278
0.047367
0.00835161
0.0474756
-0.00270808
0.0473108
0.00380415
0.0473237
-0.000527802
0.0479691
-0.00152051
0.0477373
-0.00160985
0.0479975
-6.93121e-05
0.047738
-0.00224879
0.0477602
0.00200291
0.0477721
-0.00256987
0.0469159
0.0044935
0.0470812
-0.000125024
0.0462494
0.00399167
0.0464045
0.00130278
0.0460297
0.00277103
0.0461091
0.00152371
0.0458646
0.00310178
0.0456773
0.00213261
0.0456923
0.00319706
0.0453992
0.00285627
0.0454993
0.00374021
0.0452067
0.00350261
0.045403
0.00440161
0.0451972
0.00422195
0.0051803
0.050966
-0.000172567
0.051964
-0.00313455
0.0514057
-0.00641442
0.0506323
0.00912499
0.0506627
-0.00273845
0.0506399
0.00382694
0.0507442
-0.000632141
0.0513353
-0.00211164
0.0508188
-0.0010933
0.0511858
-0.000436354
0.0508661
-0.00192908
0.051183
0.00168607
0.0504605
-0.00184741
0.05019
0.00476402
0.0499702
9.4723e-05
0.0495358
0.00442615
0.0496359
0.00120261
0.0493959
0.00301107
0.0492388
0.00168077
0.0493994
0.00294123
0.0488606
0.00267142
0.0491704
0.00288722
0.0486819
0.00334476
0.0489888
0.00343335
0.0485826
0.00390885
0.0490732
0.00391096
0.0488282
0.004467
0.00441929
0.0546543
-0.000129072
0.0552947
-0.00377495
0.0544495
-0.00556912
0.0542313
0.00934315
0.0541098
-0.00261692
0.0542576
0.00367905
0.0544371
-0.000811607
0.0547321
-0.00240659
0.0540564
-0.000417583
0.0544968
-0.000876778
0.0541254
-0.00155774
0.0544243
0.00138717
0.0533803
-0.000803409
0.0534893
0.00465507
0.0530704
0.00051363
0.0531118
0.00438471
0.0529856
0.00132878
0.053032
0.00296467
0.052632
0.00208083
0.0529177
0.00265548
0.0524469
0.00314224
0.0525944
0.00273972
0.0523145
0.00362465
0.0525007
0.00324718
0.0522731
0.00413647
0.0526989
0.00348518
0.0527079
0.00445797
0.00390304
0.0585641
-0.000199181
0.0586712
-0.00388201
0.0578238
-0.0047217
0.0582716
0.00889532
0.0579768
-0.00232209
0.0582762
0.00337957
0.0583467
-0.000882051
0.0583355
-0.00239541
0.0576994
0.000218554
0.0581084
-0.00128583
0.0575421
-0.00099147
0.0577397
0.00118956
0.0568308
0.000105548
0.057199
0.00428686
0.0567167
0.000995886
0.0570692
0.00403223
0.0567805
0.00161748
0.0569725
0.0027727
0.0565997
0.0024536
0.0566798
0.00257539
0.0564733
0.00334878
0.0563973
0.00281566
0.0563141
0.00370783
0.056398
0.00316328
0.0563729
0.00416162
0.0565988
0.00325931
0.0568089
0.00424779
0.00358021
0.0626613
-0.000306792
0.0623133
-0.00353401
0.0616374
-0.0040458
0.0626858
0.00784685
0.062279
-0.00191528
0.0626032
0.00305541
0.0624757
-0.000754573
0.0622927
-0.00221238
0.0617709
0.000740343
0.0620378
-0.00155277
0.061314
-0.000267611
0.0614681
0.00103547
0.0608255
0.000748138
0.0613292
0.0037832
0.0609485
0.00137654
0.0613365
0.00364419
0.061071
0.00188307
0.0611544
0.00268921
0.0610168
0.00259128
0.0608775
0.00271466
0.060861
0.00336527
0.0606749
0.00300176
0.0606991
0.00368361
0.0607614
0.00310095
0.0608652
0.00405785
0.0609469
0.0031776
0.0612187
0.00397598
0.00337697
0.0670347
-0.000446402
0.0663965
-0.00289588
0.0658296
-0.00347882
0.0672855
0.00639089
0.0668632
-0.00149295
0.067131
0.00278757
0.0668564
-0.000479918
0.0666076
-0.00196363
0.0662048
0.00114321
0.0662537
-0.00160175
0.0655688
0.000417322
0.0657031
0.000901222
0.0652708
0.00118038
0.0657278
0.00332625
0.0654926
0.00161167
0.065795
0.00334186
0.0656628
0.00201525
0.0655563
0.00279565
0.0656336
0.00251399
0.0654427
0.00290557
0.0655404
0.00326763
0.0653768
0.00316533
0.0654455
0.00361493
0.0654383
0.00310812
0.0656109
0.00388527
0.0656249
0.00316354
0.0658801
0.00372085
0.00323545
0.0717338
-0.000642483
0.0710171
-0.0021791
0.0703894
-0.00285117
0.0719097
0.00487058
0.0716162
-0.00119938
0.0718383
0.00256542
0.071531
-0.000172646
0.0712163
-0.00164889
0.0709458
0.00141365
0.0707224
-0.00137829
0.0702616
0.000878137
0.0703353
0.000827508
0.0700881
0.00142752
0.0703905
0.00302394
0.0702369
0.00176523
0.0704482
0.00313056
0.0704169
0.00204652
0.0702434
0.00296916
0.0703763
0.00238113
0.0702513
0.00303053
0.0704308
0.00308818
0.0703391
0.00325703
0.0704319
0.00352206
0.070384
0.00315607
0.0705894
0.00367982
0.0705873
0.00316573
0.0708115
0.00349662
0.00313298
0.076702
-0.000841752
0.076122
-0.00159917
0.0754495
-0.00217868
0.0766446
0.00367549
0.0765521
-0.00110681
0.0767522
0.00236524
0.0764879
9.1701e-05
0.0761111
-0.00127206
0.0759444
0.00158034
0.0755123
-0.000946188
0.0753201
0.00107031
0.0753104
0.000837176
0.0751901
0.00154784
0.0754666
0.00274747
0.075286
0.00194578
0.0753755
0.00304106
0.075397
0.00202507
0.0752558
0.0031104
0.0753534
0.00228347
0.0753002
0.00308378
0.0754987
0.00288968
0.075505
0.00325073
0.0756498
0.00337721
0.0756366
0.00316928
0.0758478
0.00346859
0.0758581
0.00315551
0.0760683
0.00328639
0.0030535
0.0819221
-0.000951679
0.0815383
-0.00121532
0.0810995
-0.00173996
0.0817751
0.00299988
0.0817656
-0.00109724
0.0819564
0.00217438
0.081742
0.00030617
0.0813671
-0.000897137
0.0812321
0.00171532
0.080737
-0.000451086
0.0807261
0.0010812
0.0806749
0.000888385
0.0805505
0.00167225
0.0808499
0.00244804
0.0806833
0.00211239
0.0807116
0.00301278
0.0807529
0.00198372
0.080699
0.00316428
0.0807476
0.0022349
0.0807424
0.00308896
0.0808934
0.00273875
0.0809693
0.00317478
0.0811487
0.00319784
0.0811705
0.00314749
0.081396
0.00324301
0.0814437
0.0031079
0.0816653
0.00306471
0.00296135
0.0875059
-0.000967387
0.0871869
-0.000896355
0.0870786
-0.00163167
0.0874564
0.00262207
0.0873316
-0.000972431
0.0875523
0.00195376
0.0873629
0.000495487
0.0870428
-0.000576993
0.0869119
0.00184621
0.0864593
1.50899e-06
0.0864886
0.00105187
0.0864515
0.00092556
0.0862694
0.00185434
0.0865176
0.0021998
0.0864409
0.00218908
0.086485
0.00296867
0.086539
0.00192972
0.0866057
0.00309756
0.0866292
0.00221139
0.0866503
0.00306787
0.0867359
0.00265316
0.0868027
0.00310804
0.0869837
0.00301679
0.0870374
0.00309385
0.0872713
0.00300908
0.0873699
0.00300926
0.0875965
0.0028381
0.00283302
0.093553
-0.00095813
0.0932013
-0.000544712
0.0932731
-0.00170346
0.0935853
0.00230991
0.0933215
-0.000708613
0.0935918
0.00168341
0.093402
0.000685348
0.0931388
-0.000313821
0.093053
0.00193202
0.0926546
0.000399873
0.0925821
0.00112436
0.0926017
0.000905947
0.092444
0.00201204
0.0925943
0.00204956
0.0926054
0.00217793
0.0927019
0.00287224
0.0927193
0.00191231
0.0928743
0.00294255
0.0929075
0.00217819
0.0929684
0.00300694
0.0930294
0.00259213
0.093088
0.00304946
0.0932553
0.00284952
0.0933262
0.00302291
0.0935326
0.00280272
0.0936576
0.00288422
0.0938729
0.00262279
0.00267267
0.10007
-0.000972383
0.0997141
-0.000188802
0.0997632
-0.00175262
0.100071
0.00200263
0.0997828
-0.000420903
0.100085
0.00138091
0.099873
0.0008976
0.0996577
-9.84922e-05
0.0996233
0.00196638
0.099259
0.000764263
0.0990669
0.00131639
0.0991601
0.000812786
0.0990834
0.00208869
0.0991808
0.00195218
0.0992292
0.00212959
0.0993544
0.00274694
0.0993312
0.00193557
0.0994868
0.00278699
0.099545
0.00211995
0.0996533
0.00289868
0.0997486
0.00249682
0.0998281
0.00296998
0.0999843
0.00269332
0.100073
0.00293399
0.100246
0.00263034
0.100379
0.00275059
0.10057
0.00243237
0.00250378
0.107037
-0.00100992
0.106734
0.000114771
0.106659
-0.00167821
0.106961
0.00170071
0.106755
-0.000214419
0.107035
0.00110039
0.106772
0.00116139
0.106623
5.00273e-05
0.106572
0.00201734
0.106274
0.00106261
0.10606
0.00153005
0.106212
0.000660991
0.106207
0.00209356
0.106305
0.00185395
0.106336
0.00209896
0.10645
0.00263252
0.106409
0.00197725
0.106514
0.00268177
0.106582
0.00205205
0.106715
0.00276544
0.106853
0.00235868
0.106976
0.00284698
0.107153
0.00251669
0.107285
0.00280169
0.107458
0.0024572
0.107604
0.00260505
0.107778
0.00225796
0.0023399
0.11447
-0.00105362
0.114221
0.000363852
0.114049
-0.00150649
0.114345
0.00140461
0.114229
-9.80052e-05
0.11447
0.0008593
0.11415
0.00148074
0.114022
0.000178447
0.113948
0.00209139
0.113826
0.00118481
0.113594
0.00176149
0.113773
0.000482134
0.113842
0.00202493
0.113932
0.00176381
0.113924
0.00210703
0.114012
0.00254432
0.113958
0.00203097
0.114026
0.00261365
0.114093
0.00198512
0.114233
0.00262574
0.114418
0.00217315
0.114589
0.00267637
0.114809
0.00229661
0.11499
0.00262068
0.115192
0.00225489
0.11536
0.00243715
0.115538
0.00208062
0.00218068
0.12241
-0.00109622
0.122169
0.000604872
0.12199
-0.0013276
0.122295
0.00109949
0.122215
-1.78204e-05
0.122345
0.000729513
0.122008
0.00181717
0.121973
0.000213529
0.121924
0.00214109
0.121964
0.00114444
0.121672
0.00205367
0.121806
0.000348107
0.121896
0.00193448
0.122012
0.00164796
0.122031
0.00208855
0.122097
0.00247844
0.122089
0.0020389
0.122122
0.00258012
0.122195
0.00191215
0.122332
0.0024888
0.122527
0.00197836
0.122732
0.00247117
0.122965
0.00206326
0.123184
0.00240176
0.123408
0.00203149
0.123602
0.00224271
0.123793
0.00189
0.00201795
0.130874
-0.00111038
0.130645
0.000834096
0.13053
-0.00121226
0.130793
0.0008365
0.130729
4.59464e-05
0.130738
0.000720733
0.130412
0.00214258
0.130511
0.000114295
0.130516
0.0021365
0.130702
0.000958372
0.130347
0.00240918
0.130356
0.000338523
0.130372
0.00191852
0.13054
0.00148007
0.130652
0.00197634
0.130775
0.00235525
0.130868
0.00194656
0.130913
0.00253539
0.130985
0.00183928
0.131077
0.00239737
0.131234
0.00182155
0.131405
0.0023001
0.131621
0.00184723
0.131829
0.00219389
0.132062
0.00179803
0.13227
0.0020349
0.132485
0.00167448
0.00183417
0.139912
-0.00107987
0.139735
0.00101067
0.139701
-0.00117839
0.139839
0.000698798
0.139718
0.00016725
0.139781
0.00065743
0.139623
0.00230056
0.139617
0.000119896
0.139544
0.00220946
0.139911
0.000591753
0.139639
0.00268115
0.139658
0.000319562
0.139542
0.00203427
0.139644
0.00137817
0.139795
0.00182527
0.139947
0.00220305
0.14017
0.00172391
0.140274
0.00243155
0.14042
0.00169288
0.140492
0.00232587
0.140638
0.00167489
0.14075
0.00218833
0.140928
0.00166909
0.141084
0.00203843
0.141283
0.00159928
0.141467
0.00185048
0.141668
0.00147372
0.00164425
0.149571
-0.000996195
0.149481
0.00110065
0.149482
-0.00117909
0.149514
0.000666287
0.149353
0.000328562
0.149458
0.000552234
0.149456
0.00230277
0.149555
2.11336e-05
0.149176
0.00258845
0.149538
0.000228944
0.149498
0.00272191
0.149597
0.000220396
0.149525
0.00210584
0.149542
0.00136103
0.149644
0.00172309
0.149729
0.00211824
0.149987
0.00146572
0.150109
0.00230983
0.150365
0.00143704
0.150455
0.00223584
0.150662
0.00146839
0.150765
0.00208537
0.150943
0.00149104
0.151074
0.00190716
0.151233
0.00143969
0.151392
0.0016919
0.151545
0.00132075
0.00147016
0.159875
-0.000830431
0.159954
0.00102194
0.159836
-0.00106135
0.159894
0.000608662
0.159797
0.000425434
0.159853
0.00049617
0.159773
0.00238305
0.160153
-0.00035891
0.159757
0.00298378
0.159878
0.000107888
0.159944
0.00265682
0.160094
7.03633e-05
0.160093
0.00210663
0.160202
0.00125142
0.160275
0.00165086
0.16032
0.00207316
0.160565
0.00122045
0.160601
0.00227343
0.160924
0.00111414
0.160967
0.00219332
0.161254
0.00118101
0.161342
0.00199795
0.161571
0.0012616
0.161702
0.00177612
0.161873
0.00126869
0.162029
0.0015359
0.162161
0.00118886
0.00130332
0.170917
-0.000599147
0.171176
0.000762599
0.170881
-0.000766071
0.171054
0.000436131
0.170934
0.000545034
0.171066
0.000364486
0.170926
0.00252289
0.171157
-0.000590395
0.171145
0.00299627
0.17116
9.25921e-05
0.171145
0.0026717
0.171301
-8.53295e-05
0.171284
0.00212357
0.171471
0.00106448
0.171625
0.00149671
0.171654
0.00204449
0.171944
0.000930413
0.171897
0.00232
0.172237
0.000774274
0.172229
0.0022011
0.172525
0.000884944
0.172602
0.00192106
0.172835
0.00102895
0.172984
0.00162711
0.173152
0.00110014
0.173333
0.00135485
0.173451
0.00107101
0.00111755
0.18278
-0.000352575
0.183119
0.000423877
0.18274
-0.000387935
0.183017
0.000159884
0.182776
0.000785546
0.183019
0.000121613
0.183
0.00254171
0.182939
-0.000529533
0.183118
0.00281741
0.183227
-1.57867e-05
0.183234
0.00266453
0.183252
-0.000103674
0.183368
0.00200786
0.183414
0.00101788
0.183707
0.00120383
0.183723
0.00202912
0.18402
0.000632868
0.184035
0.00230518
0.184281
0.000528715
0.184355
0.00212621
0.184546
0.000694598
0.184691
0.00177575
0.184845
0.000875432
0.185038
0.00143334
0.185164
0.000974321
0.185368
0.00115075
0.185468
0.000970885
0.000927139
0.195521
-0.000144254
0.195828
0.000116505
0.195466
-2.62952e-05
0.195754
-0.000127568
0.195507
0.00103189
0.195706
-7.65755e-05
0.195853
0.00239443
0.19566
-0.000336906
0.195935
0.00254289
0.195938
-1.88179e-05
0.196228
0.00237403
0.195981
0.000143453
0.196332
0.00165685
0.196235
0.00111515
0.196542
0.000896429
0.19665
0.0019215
0.196808
0.000474891
0.197013
0.00209983
0.197084
0.00045781
0.197322
0.00188802
0.197384
0.000632787
0.197616
0.00154397
0.1977
0.000791807
0.197912
0.00122092
0.198018
0.000867982
0.198202
0.000966977
0.198315
0.000858501
0.000775786
0.209169
-2.07673e-07
0.209359
-7.29683e-05
0.209126
0.000206207
0.209278
-0.000279568
0.209175
0.00113531
0.209227
-0.000129348
0.20952
0.00210176
0.209278
-9.49002e-05
0.209679
0.00214232
0.209496
0.00016351
0.210001
0.00186956
0.209672
0.000472273
0.210081
0.00124762
0.210024
0.00117194
0.210214
0.000706779
0.21046
0.00167531
0.210461
0.000474315
0.21082
0.00174088
0.210772
0.000505977
0.211111
0.00154832
0.211109
0.000635309
0.211379
0.0012741
0.211441
0.000729801
0.211642
0.00101914
0.211752
0.000757967
0.211901
0.000818128
0.212032
0.000728205
0.000665649
0.223754
8.53667e-05
0.223838
-0.000156755
0.223733
0.000311594
0.223744
-0.000290475
0.22381
0.0010694
0.223733
-5.27773e-05
0.224098
0.00173637
0.223876
0.000127405
0.22431
0.00170842
0.224113
0.000361003
0.224579
0.0014036
0.224389
0.000661429
0.224687
0.000950005
0.224764
0.00109527
0.224845
0.000625873
0.225157
0.0013631
0.225111
0.000519907
0.225486
0.0013657
0.225439
0.000553425
0.225769
0.00121798
0.225784
0.000620965
0.226034
0.00102368
0.22611
0.000653692
0.226289
0.00084039
0.226405
0.000641721
0.226533
0.000689904
0.226665
0.000596595
0.000570179
0.239336
0.000124339
0.239345
-0.000165629
0.239331
0.000325484
0.239264
-0.000223054
0.239418
0.000914645
0.239308
5.72105e-05
0.239671
0.00137433
0.239514
0.000283614
0.239902
0.00132081
0.23979
0.000472914
0.240136
0.00105725
0.240109
0.000688581
0.240301
0.000758543
0.240462
0.000933854
0.240511
0.00057687
0.240807
0.00106669
0.240801
0.000526329
0.241116
0.00105058
0.241129
0.000540197
0.2414
0.000947651
0.24146
0.000560291
0.24167
0.000814183
0.241769
0.000555048
0.241925
0.000683604
0.242044
0.00052348
0.242163
0.000570514
0.242284
0.00047507
0.000476306
0.25598
0.000132334
0.255953
-0.000138432
0.255984
0.000294235
0.255898
-0.000137069
0.256078
0.000735205
0.255994
0.000141371
0.256312
0.00105618
0.256241
0.000354223
0.256559
0.00100335
0.256542
0.000490168
0.256795
0.000803846
0.256862
0.000621853
0.257007
0.00061349
0.257189
0.000751242
0.257257
0.000508978
0.257512
0.000812145
0.257559
0.000478727
0.257816
0.000793722
0.25788
0.000476792
0.258106
0.000721098
0.258196
0.00047086
0.258381
0.000628824
0.258487
0.000449192
0.258635
0.000535563
0.258745
0.000413052
0.258864
0.000451474
0.258971
0.000368797
0.00037781
0.273769
0.000118013
0.273726
-9.5329e-05
0.273779
0.000241438
0.273702
-6.07645e-05
0.273879
0.000558893
0.273841
0.000179596
0.274116
0.000780325
0.274118
0.000352681
0.274379
0.000741947
0.274426
0.00044393
0.274623
0.000605994
0.274732
0.000513555
0.274861
0.000483788
0.27504
0.000572992
0.275129
0.000419224
0.275348
0.000593121
0.275434
0.000393423
0.275659
0.000568918
0.275756
0.000378937
0.275962
0.000515216
0.276069
0.000363659
0.276243
0.00045556
0.276354
0.000338426
0.2765
0.000389194
0.276609
0.00030367
0.276733
0.000327393
0.276836
0.000265968
0.000273636
0.292781
9.10452e-05
0.292743
-5.68635e-05
0.292804
0.000179733
0.292754
-1.04185e-05
0.29292
0.00039273
0.292929
0.000170722
0.293172
0.000537762
0.293233
0.000291114
0.293464
0.000510841
0.293567
0.000341603
0.293749
0.000423112
0.293889
0.000373653
0.294021
0.000352439
0.294192
0.000401434
0.294294
0.000317355
0.294479
0.000408009
0.294573
0.000299141
0.294756
0.000386818
0.294858
0.000276427
0.295034
0.000339759
0.295148
0.000249312
0.295316
0.000287775
0.295437
0.000216733
0.295591
0.000235815
0.295712
0.000182335
0.29585
0.000189443
0.295966
0.000150491
0.000151887
0.31311
5.26073e-05
0.313079
-2.53363e-05
0.313156
0.000103099
0.313137
8.44893e-06
0.313321
0.000208445
0.313392
9.99908e-05
0.313659
0.000270467
0.313795
0.000155175
0.314054
0.000251624
0.314222
0.00017414
0.314436
0.000208738
0.314624
0.000185742
0.314799
0.000177056
0.315004
0.000196599
0.31516
0.000161817
0.31537
0.000198029
0.315516
0.000152949
0.315715
0.000187999
0.315847
0.000143776
0.316016
0.000171418
0.316132
0.000133089
0.316271
0.000148574
0.316371
0.000116743
0.316483
0.0001238
0.316567
9.86049e-05
0.316656
0.000100349
0.316725
8.10318e-05
8.02278e-05
0.334853
0.334827
0.33493
0.334939
0.335147
0.335247
0.335518
0.335673
0.335925
0.336099
0.336307
0.336493
0.33667
0.336867
0.337029
0.337227
0.33738
0.337568
0.337711
0.337883
0.338016
0.338165
0.338281
0.338405
0.338504
0.338604
0.338685
)
;

boundaryField
{
    outlet
    {
        type            calculated;
        value           nonuniform 0();
    }
    upperWall
    {
        type            symmetryPlane;
        value           uniform 0;
    }
    lowerWall
    {
        type            symmetryPlane;
        value           nonuniform 0();
    }
    inlet
    {
        type            calculated;
        value           nonuniform List<scalar> 
40
(
-0.053033
-0.053033
-0.053033
-0.053033
-0.053033
-0.053033
-0.053033
-0.053033
-0.053033
-0.053033
-0.0478286
-0.051148
-0.0546978
-0.058494
-0.0625537
-0.0668951
-0.0715378
-0.0765027
-0.0818122
-0.0874902
-0.0935622
-0.100056
-0.107
-0.114426
-0.122367
-0.13086
-0.139942
-0.149655
-0.160041
-0.171148
-0.183026
-0.195729
-0.209313
-0.22384
-0.239375
-0.255988
-0.273755
-0.292754
-0.313072
-0.3348
)
;
    }
    cylinder
    {
        type            calculated;
        value           nonuniform 0();
    }
    frontAndBack
    {
        type            empty;
        value           nonuniform 0();
    }
    procBoundary4to0
    {
        type            processor;
        value           nonuniform List<scalar> 
33
(
0.000768571
0.000794299
0.000829161
-0.000362763
0.000962624
0.00215991
0.000711545
0.000352229
0.00104774
-0.000320525
-2.86554e-05
0.00124371
0.000372115
0.000808721
0.00148218
0.00104756
0.00104713
0.00105609
0.00100328
0.000857317
0.00076747
0.000755797
0.000711596
0.000715204
0.000694092
0.000729361
0.000747127
0.00078769
0.000816372
0.000854418
0.000883304
0.000910252
0.000939415
)
;
    }
    procBoundary4to5
    {
        type            processor;
        value           nonuniform List<scalar> 
45
(
0.0422761
0.0419879
0.0414332
0.00769038
0.0433677
0.0422044
0.0135629
0.0433929
0.0167953
0.044248
0.00441752
0.0426651
0.0402444
0.00463315
0.0379082
0.0454546
0.0495892
0.0532241
0.0571318
0.061422
0.0660216
0.0709139
0.0761478
0.0817575
0.0877249
0.0940333
0.100738
0.107942
0.115697
0.123955
0.132669
0.141858
0.151719
0.162328
0.173637
0.185659
0.198466
0.212142
0.22676
0.242378
0.259069
0.27694
0.296087
0.316797
0.338765
)
;
    }
}


// ************************************************************************* //
