/*--------------------------------*- C++ -*----------------------------------*\
| =========                 |                                                 |
| \\      /  F ield         | OpenFOAM: The Open Source CFD Toolbox           |
|  \\    /   O peration     | Version:                                        |
|   \\  /    A nd           | Website:  www.openfoam.com                      |
|    \\/     M anipulation  |                                                 |
\*---------------------------------------------------------------------------*/
FoamFile
{
    version     2.0;
    format      ascii;
    class       volVectorField;
    location    "181";
    object      U;
}
// * * * * * * * * * * * * * * * * * * * * * * * * * * * * * * * * * * * * * //

dimensions      [0 1 -1 0 0 0 0];


internalField   nonuniform List<vector> 
1139
(
(1.27612 0.522618 1.87039e-19)
(1.22191 0.503529 -3.22028e-19)
(1.17976 0.493157 4.76132e-20)
(1.24812 0.396412 2.14794e-19)
(1.15065 0.453504 -2.12862e-21)
(1.18848 0.388191 -4.34725e-20)
(1.08013 0.436498 -4.05796e-20)
(1.16625 0.360293 -9.2485e-20)
(1.18103 0.324225 -1.24711e-19)
(1.06642 0.411924 -6.54144e-20)
(1.12051 0.328128 1.90728e-19)
(1.15373 0.310674 2.1062e-19)
(1.02771 0.38658 5.69359e-20)
(1.09204 0.310472 -1.42354e-20)
(1.11887 0.287947 -2.17597e-19)
(0.98769 0.355048 3.35992e-20)
(1.07078 0.291779 -6.14721e-20)
(1.08791 0.253056 8.21635e-20)
(1.11857 0.231075 1.68491e-19)
(0.975537 0.320896 4.28888e-20)
(1.04156 0.2701 -1.76675e-19)
(1.06051 0.232979 -3.00494e-20)
(1.1066 0.214578 -6.90424e-20)
(0.910082 0.272938 6.44042e-20)
(1.00566 0.256901 1.29495e-19)
(1.0495 0.20146 5.39892e-21)
(1.06754 0.199047 -4.73828e-20)
(0.0793055 -0.442453 -5.08401e-20)
(0.117186 -0.155842 5.95248e-20)
(0.19736 -0.121348 4.9158e-20)
(0.28014 -0.090144 -3.02287e-19)
(0.347527 -0.0646231 -8.0651e-20)
(0.373302 -0.0241993 -7.97033e-20)
(0.169908 0.140334 -8.20228e-22)
(0.284631 0.187723 -5.26758e-21)
(0.393303 0.196835 1.05133e-19)
(0.460873 0.193733 2.38871e-19)
(0.457876 0.201537 5.40322e-19)
(0.458805 0.25846 4.93647e-19)
(0.216634 0.389963 -2.37915e-20)
(0.335683 0.435884 1.87086e-19)
(0.441087 0.420181 1.63642e-19)
(0.507912 0.416275 -1.94377e-19)
(0.582022 0.454797 -7.28276e-19)
(0.778608 0.559888 -2.57085e-21)
(1.0656 0.687952 -3.73087e-19)
(0.235388 0.587219 3.57177e-20)
(0.358189 0.633517 -1.24324e-19)
(0.485703 0.63336 -7.58058e-20)
(0.629412 0.668476 -6.58313e-20)
(0.826264 0.742153 8.10459e-19)
(1.07033 0.806638 -1.92233e-19)
(1.24874 0.829338 -9.41429e-20)
(1.3185 0.76641 -8.51598e-20)
(0.260435 0.790302 1.9441e-20)
(0.419706 0.844467 -4.36074e-20)
(0.603764 0.881306 -1.24941e-19)
(0.81241 0.9272 3.93577e-20)
(1.02206 0.965101 -3.85935e-20)
(1.19239 0.943333 -1.01408e-19)
(1.25931 0.883206 -7.24142e-19)
(1.28961 0.786565 -3.59262e-19)
(1.35297 0.719045 -8.98007e-20)
(0.310716 1.01822 -5.28668e-20)
(0.516507 1.06929 1.89693e-20)
(0.729671 1.10526 1.75103e-19)
(0.933595 1.11326 1.13413e-19)
(1.08323 1.07902 -4.41072e-19)
(1.17275 0.991492 2.99385e-19)
(1.19611 0.889084 1.5266e-19)
(1.24337 0.788754 6.04187e-19)
(1.31502 0.708551 3.11179e-19)
(1.32624 0.626732 1.14664e-19)
(0.36741 1.21925 3.52234e-20)
(0.587226 1.24143 9.55138e-20)
(0.791744 1.2357 -3.4239e-20)
(0.955436 1.20007 -2.00102e-19)
(1.03892 1.10655 2.03239e-19)
(1.08854 0.990301 -1.35162e-20)
(1.12659 0.86984 -1.23714e-19)
(1.19192 0.774777 2.75728e-19)
(1.25807 0.690914 -4.30619e-19)
(1.26344 0.608958 1.2869e-19)
(0.39698 1.34449 -3.87207e-20)
(0.60345 1.32444 -3.4689e-20)
(0.781047 1.27846 -2.05887e-19)
(0.90673 1.21343 -8.60811e-21)
(0.951626 1.08405 -3.49195e-20)
(0.990057 0.955307 2.4184e-19)
(1.057 0.843151 -1.6133e-19)
(1.1374 0.755857 1.58444e-19)
(1.19628 0.661422 2.80159e-20)
(1.20999 0.589376 -3.99651e-19)
(0.399147 1.39494 -2.97856e-20)
(0.585133 1.34027 1.3123e-19)
(0.738857 1.25383 2.2937e-19)
(0.829455 1.16543 2.20673e-19)
(0.852563 1.04607 1.0473e-19)
(0.895366 0.930607 -4.09923e-19)
(0.99196 0.803412 3.54127e-19)
(1.09313 0.723572 -2.4856e-20)
(1.14037 0.639588 -1.06605e-19)
(1.14437 0.555786 2.57853e-19)
(0.383587 1.36103 2.51643e-20)
(0.536295 1.29609 -2.51736e-20)
(0.662334 1.20053 -9.34938e-21)
(0.722013 1.10193 6.6347e-20)
(0.754344 0.98787 -1.11881e-19)
(0.831334 0.902639 1.43911e-19)
(0.942997 0.773515 -9.13356e-20)
(1.03988 0.660486 7.03993e-20)
(1.06785 0.618275 -2.19376e-20)
(1.09915 0.540747 -8.06416e-20)
(0.325955 1.32462 2.78117e-20)
(0.462066 1.24665 -1.20447e-20)
(0.571118 1.14412 -8.02481e-20)
(0.633543 1.05932 2.34258e-20)
(0.695571 0.943619 -7.48561e-20)
(0.787463 0.83494 1.61585e-19)
(0.870768 0.735829 -2.13945e-19)
(0.960182 0.633814 1.37709e-19)
(1.0407 0.574306 1.17743e-19)
(1.0696 0.513983 1.36843e-19)
(0.330908 1.28284 -2.15681e-20)
(0.449892 1.17536 5.49768e-20)
(0.550675 1.04984 -2.00767e-20)
(0.591516 0.962202 -7.47375e-20)
(0.609503 0.884053 -1.61831e-19)
(0.682415 0.769392 3.7732e-21)
(0.806625 0.688349 3.04188e-20)
(0.946603 0.589378 -2.16404e-20)
(0.995167 0.530561 -4.9461e-20)
(1.00033 0.486226 -6.95735e-20)
(0.219119 1.22082 -1.30618e-20)
(0.289409 1.13583 1.97137e-19)
(0.370282 0.985614 -5.75486e-21)
(0.434041 0.849564 -9.59658e-20)
(0.514815 0.823413 8.67369e-20)
(0.665468 0.741051 8.95746e-20)
(0.808874 0.641902 1.90033e-19)
(0.879307 0.564451 -2.45954e-19)
(0.947923 0.501875 -1.50943e-19)
(0.982239 0.440373 1.23494e-19)
(0.272127 1.24836 -5.16047e-20)
(0.311396 1.17547 -1.2091e-20)
(0.358638 0.983962 -2.26412e-19)
(0.449003 0.788115 -3.36496e-20)
(0.544926 0.71911 3.02289e-20)
(0.628108 0.691529 -1.04275e-19)
(0.746285 0.604904 -1.47207e-19)
(0.850811 0.494999 1.08313e-19)
(0.895422 0.438586 2.1783e-19)
(0.944486 0.411083 -1.42766e-19)
(0.248263 1.03496 5.55002e-22)
(0.148623 1.0051 -3.11955e-20)
(0.126566 0.932036 1.81316e-19)
(0.255344 0.800257 1.25725e-19)
(0.430383 0.651695 8.50616e-20)
(0.581267 0.603146 -4.99292e-20)
(0.703156 0.569486 6.68464e-20)
(0.766218 0.443227 3.57656e-20)
(0.86027 0.427313 -1.89443e-19)
(0.939054 0.382948 -7.82976e-20)
(0.301624 0.769015 2.38461e-20)
(0.190455 0.839259 -1.07856e-20)
(0.19797 0.881433 1.53492e-20)
(0.307359 0.820232 -1.02998e-19)
(0.448714 0.637531 -1.99855e-19)
(0.570924 0.472002 7.66128e-20)
(0.682435 0.508906 4.29237e-21)
(0.775773 0.402159 -2.77751e-20)
(0.848704 0.341789 1.42024e-19)
(0.914378 0.346589 -2.54742e-20)
(0.390758 0.298276 -2.73803e-20)
(0.177206 0.419752 1.50957e-20)
(0.0383743 0.54176 -1.22006e-20)
(0.0516357 0.603645 8.19984e-20)
(0.236347 0.593082 1.33374e-19)
(0.47369 0.455692 -7.47894e-20)
(0.616928 0.388198 1.02483e-20)
(0.705285 0.410557 6.08216e-20)
(0.78828 0.313634 -2.6878e-20)
(0.876164 0.328148 -2.75959e-22)
(0.504669 -0.295115 6.89461e-21)
(0.272025 -0.151987 3.29908e-20)
(0.131091 0.011395 -1.58361e-20)
(0.133826 0.210015 -4.00574e-20)
(0.20723 0.401403 -4.69717e-21)
(0.341386 0.437349 1.8154e-20)
(0.526298 0.317513 1.91952e-20)
(0.659806 0.305761 -2.57234e-20)
(0.729834 0.296797 -3.01205e-20)
(0.824205 0.276491 1.26603e-22)
(0.58272 -0.745764 1.0678e-20)
(0.368345 -0.58766 -5.51591e-21)
(0.211526 -0.396763 -1.68892e-20)
(0.162878 -0.158673 -4.66169e-20)
(0.20337 0.0482191 -9.80563e-20)
(0.277082 0.22092 -1.76739e-20)
(0.398764 0.258199 9.44546e-21)
(0.585924 0.221451 -5.563e-21)
(0.681679 0.224987 8.29887e-22)
(0.76715 0.232026 -1.21688e-20)
(0.649124 -0.983685 -1.81218e-20)
(0.477627 -0.846119 -2.88537e-20)
(0.361905 -0.691488 -4.59984e-20)
(0.300403 -0.489599 3.23951e-20)
(0.282602 -0.275046 6.51945e-20)
(0.304935 -0.0693919 6.56861e-21)
(0.351616 0.0743748 -4.60326e-21)
(0.486644 0.130267 1.91003e-21)
(0.616153 0.127218 6.04377e-22)
(0.702277 0.17249 1.89213e-20)
(0.703692 -1.03745 1.15669e-20)
(0.586564 -0.946315 -1.41292e-20)
(0.496589 -0.831676 5.19365e-20)
(0.435568 -0.681605 -2.30808e-20)
(0.396233 -0.493211 3.1702e-21)
(0.377794 -0.31595 2.21591e-20)
(0.37025 -0.143379 -4.81302e-21)
(0.431051 -0.0274484 7.84061e-21)
(0.573289 0.0317645 6.11234e-21)
(0.667947 0.1101 -2.82725e-22)
(0.737311 -1.0307 -2.92864e-21)
(0.670939 -0.995127 6.99466e-21)
(0.604566 -0.912102 7.39301e-21)
(0.547729 -0.806058 3.25084e-20)
(0.495931 -0.645607 -1.70585e-20)
(0.468626 -0.506608 -1.42353e-20)
(0.445543 -0.348151 -3.04091e-21)
(0.436886 -0.214197 1.0203e-21)
(0.543826 -0.109306 -6.956e-21)
(0.644624 0.0363829 7.39515e-21)
(0.761323 -0.976274 -2.14276e-21)
(0.73401 -0.967785 4.23006e-21)
(0.705385 -0.893522 -2.57479e-20)
(0.66822 -0.827401 -2.57462e-20)
(0.616632 -0.697812 -1.78422e-21)
(0.571008 -0.577414 6.82159e-21)
(0.532807 -0.466088 4.34654e-22)
(0.514203 -0.332956 -3.07831e-21)
(0.581061 -0.266638 1.83292e-21)
(0.672234 -0.0844358 -1.3631e-20)
(0.779828 -0.957788 3.65239e-21)
(0.784813 -0.964799 -1.88182e-20)
(0.775086 -0.893509 -6.22268e-22)
(0.755754 -0.819973 -4.24868e-21)
(0.731801 -0.706259 6.61406e-21)
(0.683612 -0.587277 -2.66458e-20)
(0.643082 -0.503397 -1.17486e-21)
(0.604345 -0.367015 -2.72518e-21)
(0.641445 -0.34404 -7.64347e-21)
(0.703883 -0.213306 6.16249e-21)
(0.784166 -0.981294 -2.89257e-21)
(0.837449 -1.00009 1.96733e-20)
(0.869219 -0.950743 -1.40173e-20)
(0.863429 -0.854644 3.20018e-20)
(0.84118 -0.725285 3.91308e-20)
(0.799767 -0.573733 3.98088e-20)
(0.769484 -0.483788 -2.30542e-21)
(0.722127 -0.355608 4.97977e-22)
(0.736868 -0.322411 6.12872e-21)
(0.723329 -0.290722 4.11818e-21)
(0.758084 -1.06646 1.02025e-20)
(0.838286 -1.0925 2.11894e-20)
(0.933398 -1.06814 -2.38427e-21)
(0.975797 -0.972374 -1.19735e-20)
(0.985791 -0.828783 -1.30777e-20)
(0.943016 -0.632837 -1.51459e-20)
(0.888539 -0.49388 -1.37975e-21)
(0.83014 -0.339768 8.58679e-21)
(0.780693 -0.266874 4.35168e-22)
(0.732513 -0.282683 -1.92469e-21)
(0.738757 -1.06434 9.53136e-22)
(0.852635 -1.12324 -7.07214e-22)
(0.987281 -1.14685 5.53466e-20)
(1.05471 -1.09363 3.76206e-20)
(1.11916 -0.972089 -2.58481e-20)
(1.08928 -0.786034 4.73934e-20)
(1.04685 -0.600711 -7.30596e-21)
(0.973113 -0.408198 1.43566e-20)
(0.844356 -0.259492 8.30377e-23)
(0.779449 -0.221923 3.86614e-22)
(0.659329 -0.951009 1.66384e-21)
(0.83168 -1.02124 -5.62082e-20)
(1.02528 -1.09135 -2.18771e-21)
(1.13951 -1.09504 -2.20129e-20)
(1.24192 -1.05009 9.41047e-21)
(1.23496 -0.927098 -1.18577e-19)
(1.18833 -0.762397 7.56981e-20)
(1.12387 -0.571579 5.0174e-21)
(0.962316 -0.370907 4.43792e-21)
(0.859386 -0.233945 -1.55647e-20)
(0.602834 -0.672048 -9.00457e-21)
(0.794873 -0.733604 -1.42915e-20)
(1.01002 -0.830351 3.99203e-20)
(1.16502 -0.896629 7.36623e-20)
(1.31161 -0.938288 -1.04702e-19)
(1.36872 -0.915347 6.48365e-20)
(1.32537 -0.836921 -1.70661e-20)
(1.2939 -0.712334 -3.39689e-20)
(1.11138 -0.567169 3.01653e-20)
(1.01365 -0.369811 -6.87628e-21)
(0.587367 -0.213264 -7.87927e-21)
(0.801893 -0.251741 1.07605e-19)
(1.02593 -0.354503 -6.84162e-20)
(1.20393 -0.458347 -1.35944e-19)
(1.3585 -0.57397 -6.96452e-20)
(1.44016 -0.636009 9.58356e-20)
(1.44225 -0.676088 -5.91023e-20)
(1.39251 -0.662276 -4.00565e-20)
(1.26172 -0.632465 -6.46214e-20)
(1.15686 -0.47955 1.6662e-20)
(0.538594 0.277379 7.00253e-21)
(0.751774 0.273714 -7.71914e-20)
(0.985234 0.191708 3.95587e-20)
(1.20117 0.100881 -3.4311e-20)
(1.38222 -0.0762788 1.35364e-19)
(1.48309 -0.183085 -5.60279e-21)
(1.52039 -0.348821 1.23715e-19)
(1.44092 -0.416214 3.73864e-20)
(1.43936 -0.497112 4.78678e-20)
(1.2148 -0.495646 2.42883e-20)
(0.58258 0.700397 7.14452e-22)
(0.760144 0.727296 2.8033e-20)
(0.956605 0.661068 -4.96604e-20)
(1.14364 0.591463 1.06332e-19)
(1.3174 0.416293 -1.90834e-20)
(1.42669 0.289372 -1.03411e-19)
(1.48813 0.0710705 -4.22525e-20)
(1.44778 -0.0564098 -4.93989e-20)
(1.48667 -0.196346 -2.03485e-20)
(1.22346 -0.328985 -2.06598e-20)
(0.571084 0.850459 5.8371e-22)
(0.696998 0.919014 -9.60802e-22)
(0.8682 0.903898 -2.94255e-20)
(1.06238 0.866878 -2.0081e-20)
(1.23156 0.747868 5.92757e-20)
(1.34896 0.620285 -7.86194e-21)
(1.42807 0.436861 -5.10794e-20)
(1.43534 0.296496 4.66433e-20)
(1.46922 0.151235 -1.60036e-20)
(1.33019 -0.0390337 -1.83083e-20)
(0.656407 0.919274 2.3478e-21)
(0.750574 0.959124 -2.16638e-20)
(0.840834 0.950393 4.06989e-20)
(0.956036 0.919366 6.61492e-21)
(1.05917 0.835823 5.23196e-21)
(1.16309 0.760002 -7.96536e-21)
(1.27156 0.625237 -5.48101e-20)
(1.32029 0.514355 3.68978e-21)
(1.36065 0.38535 4.13576e-20)
(1.35122 0.215109 1.74537e-20)
(0.649559 0.871781 -4.2413e-21)
(0.690606 0.884276 2.55352e-20)
(0.759127 0.874783 2.04533e-20)
(0.856404 0.870049 -2.87821e-20)
(0.973434 0.808531 -3.37865e-20)
(1.07465 0.758355 1.21778e-20)
(1.15062 0.658868 3.23715e-20)
(1.19634 0.583996 3.0475e-22)
(1.2294 0.499514 -3.97913e-21)
(1.27865 0.39811 1.08917e-20)
(0.678601 0.874164 1.87367e-21)
(0.694378 0.857525 -9.47717e-21)
(0.742083 0.832081 -1.01277e-20)
(0.788425 0.795161 7.11076e-21)
(0.824134 0.745804 2.38118e-20)
(0.880844 0.696957 4.89578e-20)
(0.963171 0.621972 4.03122e-20)
(1.04421 0.5568 3.8332e-21)
(1.10197 0.47229 -1.89313e-20)
(1.18101 0.399842 -1.77843e-20)
(0.875944 0.600191 -1.70031e-20)
(0.896273 0.560232 -8.82982e-22)
(0.934999 0.508711 1.07109e-20)
(1.01986 0.446477 1.95887e-21)
(0.893287 0.257711 0)
(0.929252 0.206769 0)
(0.948432 0.161988 0)
(0.957184 0.126282 0)
(0.961987 0.0989308 0)
(0.970226 0.0743065 0)
(0.978405 0.0554959 0)
(0.986728 0.0400422 0)
(0.994614 0.027774 0)
(1.0003 0.0185798 0)
(1.00689 0.0110957 0)
(1.01301 0.00472176 0)
(1.01795 0.00047972 0)
(1.02053 -0.00383255 0)
(1.02015 -0.00572556 0)
(1.0209 -0.00733737 0)
(1.01956 -0.00777409 0)
(1.01864 -0.00743094 0)
(1.01909 -0.00714888 0)
(1.01882 -0.00666879 0)
(1.01847 -0.00600195 0)
(1.0181 -0.00544525 0)
(1.0175 -0.00484526 0)
(1.01679 -0.00420043 0)
(1.01617 -0.00356138 0)
(1.01553 -0.0028838 0)
(1.01492 -0.00232915 0)
(1.01446 -0.00153187 0)
(1.01408 -0.000900959 0)
(1.01383 -0.000434457 0)
(0.86663 0.217937 0)
(0.904802 0.18165 0)
(0.927893 0.145179 0)
(0.942371 0.113798 0)
(0.958725 0.0838363 0)
(0.970987 0.0588024 0)
(0.98177 0.0403186 0)
(0.992095 0.0263264 0)
(1.00043 0.0173723 0)
(1.00883 0.0125003 0)
(1.01697 0.00828348 0)
(1.02215 0.00555444 0)
(1.02598 0.00322391 0)
(1.02607 0.00127352 0)
(1.02562 -0.00120549 0)
(1.02492 -0.00300984 0)
(1.02272 -0.00436811 0)
(1.02199 -0.00513156 0)
(1.02176 -0.00562276 0)
(1.02106 -0.00547546 0)
(1.02054 -0.00519066 0)
(1.01981 -0.00483799 0)
(1.01893 -0.00441531 0)
(1.01798 -0.00392429 0)
(1.01712 -0.00338433 0)
(1.01627 -0.00277389 0)
(1.01553 -0.00226576 0)
(1.01495 -0.00150328 0)
(1.01451 -0.000884576 0)
(1.01422 -0.000424773 0)
(0.839364 0.169989 0)
(0.858953 0.151436 0)
(0.897157 0.116412 0)
(0.922158 0.0884715 0)
(0.938598 0.0665433 0)
(0.95398 0.0511312 0)
(0.971067 0.0372919 0)
(0.986448 0.0249711 0)
(0.997612 0.0163401 0)
(1.00549 0.0100448 0)
(1.01275 0.0046086 0)
(1.01849 0.000133678 0)
(1.02194 -0.00262867 0)
(1.02403 -0.00621046 0)
(1.0246 -0.00826326 0)
(1.02352 -0.0090989 0)
(1.02214 -0.00880118 0)
(1.02184 -0.00841681 0)
(1.02145 -0.00761811 0)
(1.02092 -0.00678114 0)
(1.02039 -0.00601197 0)
(1.01964 -0.00533293 0)
(1.01874 -0.0046726 0)
(1.01781 -0.00403302 0)
(1.01695 -0.00341721 0)
(1.01608 -0.00275604 0)
(1.01534 -0.00224516 0)
(1.01473 -0.00149667 0)
(1.01428 -0.000877248 0)
(1.01399 -0.000418319 0)
(0.807171 0.113815 0)
(0.819032 0.105833 0)
(0.858716 0.0828161 0)
(0.896324 0.0606756 0)
(0.926356 0.0410871 0)
(0.947422 0.0251105 0)
(0.965017 0.0132605 0)
(0.981262 0.00520374 0)
(0.993721 0.000918086 0)
(1.00621 -0.000875961 0)
(1.01594 -0.00121101 0)
(1.02242 -0.000657633 0)
(1.02591 -0.000533212 0)
(1.02762 -0.00131831 0)
(1.02771 -0.00302417 0)
(1.02631 -0.00396496 0)
(1.02512 -0.00511058 0)
(1.02436 -0.00565386 0)
(1.02351 -0.00569126 0)
(1.02273 -0.00535134 0)
(1.02192 -0.00499561 0)
(1.0209 -0.00457981 0)
(1.01979 -0.0041611 0)
(1.01871 -0.00371751 0)
(1.01767 -0.00321071 0)
(1.01671 -0.00263198 0)
(1.0159 -0.00217384 0)
(1.01522 -0.00146074 0)
(1.01474 -0.000859537 0)
(1.01444 -0.000408184 0)
(0.77682 0.0647787 0)
(0.80674 0.0502712 0)
(0.842706 0.0351187 0)
(0.87483 0.0249857 0)
(0.900179 0.0185918 0)
(0.926557 0.0136869 0)
(0.953607 0.00792581 0)
(0.975103 0.00243599 0)
(0.991845 -0.00133221 0)
(1.0024 -0.00363202 0)
(1.01114 -0.00576367 0)
(1.01665 -0.00687267 0)
(1.02012 -0.00784289 0)
(1.02258 -0.0101547 0)
(1.02245 -0.0108122 0)
(1.02172 -0.0108216 0)
(1.02141 -0.0100725 0)
(1.02135 -0.00912723 0)
(1.0211 -0.00786619 0)
(1.02091 -0.00684019 0)
(1.02039 -0.00592245 0)
(1.01969 -0.00514017 0)
(1.01884 -0.00445989 0)
(1.01797 -0.00383633 0)
(1.01709 -0.00324415 0)
(1.01626 -0.0026216 0)
(1.01553 -0.00215444 0)
(1.01489 -0.00145602 0)
(1.01445 -0.000856558 0)
(1.01416 -0.000402653 0)
(0.74404 0.0305927 0)
(0.787996 0.0113972 0)
(0.828473 0.00351719 0)
(0.869112 -0.0118398 0)
(0.903824 -0.0193895 0)
(0.928614 -0.0227389 0)
(0.947534 -0.0233965 0)
(0.968546 -0.0227414 0)
(0.985723 -0.020486 0)
(1.00122 -0.017909 0)
(1.01221 -0.0136726 0)
(1.01951 -0.00960427 0)
(1.02351 -0.00698439 0)
(1.0257 -0.00573111 0)
(1.0262 -0.00577915 0)
(1.02592 -0.00597091 0)
(1.02545 -0.00652497 0)
(1.02471 -0.00635792 0)
(1.02399 -0.00595107 0)
(1.02323 -0.00539516 0)
(1.02226 -0.00487362 0)
(1.02116 -0.00440303 0)
(1.02003 -0.00398626 0)
(1.01894 -0.00356622 0)
(1.01786 -0.00307951 0)
(1.01694 -0.00253491 0)
(1.01614 -0.00210656 0)
(1.01545 -0.00143549 0)
(1.01498 -0.000849321 0)
(1.01467 -0.000395879 0)
(0.737774 -0.0479097 0)
(0.783025 -0.0610887 0)
(0.825523 -0.0503745 0)
(0.861622 -0.0454197 0)
(0.893866 -0.0367743 0)
(0.923067 -0.0325202 0)
(0.953381 -0.0293863 0)
(0.975329 -0.0260295 0)
(0.992751 -0.022518 0)
(1.00492 -0.0192734 0)
(1.01407 -0.0173878 0)
(1.01824 -0.0150247 0)
(1.02122 -0.0140461 0)
(1.02189 -0.01419 0)
(1.02107 -0.0133716 0)
(1.0208 -0.0126631 0)
(1.02074 -0.0111907 0)
(1.02094 -0.00965593 0)
(1.02109 -0.00810343 0)
(1.02101 -0.00688785 0)
(1.02052 -0.00581694 0)
(1.01985 -0.00497396 0)
(1.01908 -0.00428873 0)
(1.0182 -0.00366857 0)
(1.01731 -0.00310761 0)
(1.01651 -0.00252999 0)
(1.01575 -0.00208841 0)
(1.01511 -0.00143511 0)
(1.01464 -0.000850102 0)
(1.01435 -0.000391734 0)
(0.741038 -0.167894 0)
(0.778869 -0.155915 0)
(0.836975 -0.136579 0)
(0.882388 -0.112788 0)
(0.912801 -0.0925564 0)
(0.935217 -0.0743089 0)
(0.953597 -0.062577 0)
(0.973946 -0.0520644 0)
(0.991024 -0.0428781 0)
(1.00631 -0.0358754 0)
(1.0154 -0.027006 0)
(1.02244 -0.0200524 0)
(1.02509 -0.0148106 0)
(1.02649 -0.0111061 0)
(1.02748 -0.00962869 0)
(1.02771 -0.00875965 0)
(1.02734 -0.0082504 0)
(1.02659 -0.00733016 0)
(1.02578 -0.00643462 0)
(1.02466 -0.00555372 0)
(1.02339 -0.00484522 0)
(1.02207 -0.00432706 0)
(1.02079 -0.00388677 0)
(1.01952 -0.0034588 0)
(1.01838 -0.00299468 0)
(1.01739 -0.00247217 0)
(1.01651 -0.00205885 0)
(1.01579 -0.0014247 0)
(1.01526 -0.000846899 0)
(1.01494 -0.000387673 0)
(0.779481 -0.247524 0)
(0.837655 -0.202524 0)
(0.883672 -0.156904 0)
(0.914697 -0.126288 0)
(0.934839 -0.098754 0)
(0.955663 -0.0821203 0)
(0.976469 -0.0672503 0)
(0.990911 -0.0523602 0)
(1.00513 -0.0419638 0)
(1.01579 -0.0332071 0)
(1.02371 -0.0273078 0)
(1.02576 -0.0223618 0)
(1.02638 -0.0191127 0)
(1.02442 -0.017182 0)
(1.02242 -0.0152171 0)
(1.02151 -0.0136106 0)
(1.02132 -0.0114956 0)
(1.02165 -0.00967252 0)
(1.0218 -0.0079908 0)
(1.0216 -0.00666619 0)
(1.02102 -0.00555946 0)
(1.02033 -0.00472282 0)
(1.01952 -0.00405472 0)
(1.01857 -0.00346339 0)
(1.0177 -0.00296498 0)
(1.01684 -0.00243043 0)
(1.01605 -0.00201989 0)
(1.01538 -0.00141108 0)
(1.01486 -0.000840105 0)
(1.01456 -0.000382515 0)
(0.831995 -0.240035 0)
(0.90169 -0.205079 0)
(0.928557 -0.171911 0)
(0.943013 -0.151054 0)
(0.951575 -0.126563 0)
(0.96364 -0.108076 0)
(0.978429 -0.0909012 0)
(0.993944 -0.076019 0)
(1.00723 -0.0618675 0)
(1.01684 -0.0502398 0)
(1.02257 -0.0386169 0)
(1.02749 -0.0296357 0)
(1.02744 -0.022244 0)
(1.02823 -0.016912 0)
(1.02922 -0.0139452 0)
(1.02934 -0.0116654 0)
(1.02914 -0.0100256 0)
(1.02834 -0.00833108 0)
(1.0272 -0.00689382 0)
(1.02569 -0.00569668 0)
(1.0241 -0.00484524 0)
(1.02262 -0.00429406 0)
(1.02115 -0.00379995 0)
(1.01983 -0.00337195 0)
(1.0187 -0.00293271 0)
(1.01768 -0.00241156 0)
(1.01682 -0.00201693 0)
(1.01609 -0.00141199 0)
(1.01554 -0.000841258 0)
(1.01523 -0.000381642 0)
(0.872091 -0.170112 0)
(0.942704 -0.161517 0)
(0.966834 -0.167124 0)
(0.975256 -0.152785 0)
(0.986786 -0.137283 0)
(0.997296 -0.114339 0)
(1.00666 -0.0923929 0)
(1.0153 -0.0691533 0)
(1.02445 -0.0533131 0)
(1.0321 -0.0402894 0)
(1.03758 -0.031762 0)
(1.03568 -0.025185 0)
(1.03354 -0.0207925 0)
(1.02855 -0.0178596 0)
(1.02433 -0.0150532 0)
(1.02236 -0.0128543 0)
(1.02182 -0.0106389 0)
(1.02197 -0.00882677 0)
(1.02183 -0.00726093 0)
(1.02149 -0.0060472 0)
(1.02087 -0.00509155 0)
(1.02019 -0.00434803 0)
(1.01934 -0.00374112 0)
(1.01851 -0.00325225 0)
(1.01769 -0.00282617 0)
(1.01689 -0.00233572 0)
(1.01618 -0.00196437 0)
(1.01555 -0.0013899 0)
(1.01505 -0.000831986 0)
(1.01477 -0.000376052 0)
(0.879269 -0.162825 0)
(0.89719 -0.175092 0)
(0.938242 -0.195172 0)
(0.970531 -0.189135 0)
(0.988164 -0.160899 0)
(1.01091 -0.140298 0)
(1.02321 -0.11471 0)
(1.03167 -0.0941695 0)
(1.03391 -0.0739199 0)
(1.03435 -0.0579586 0)
(1.03299 -0.0449969 0)
(1.03384 -0.0349489 0)
(1.03089 -0.0272893 0)
(1.0306 -0.0213274 0)
(1.03093 -0.0173314 0)
(1.03097 -0.0140548 0)
(1.03074 -0.0114489 0)
(1.02954 -0.00902743 0)
(1.02808 -0.00715962 0)
(1.02623 -0.00581128 0)
(1.0244 -0.00488162 0)
(1.02268 -0.00428979 0)
(1.02112 -0.00376112 0)
(1.01988 -0.00335489 0)
(1.01874 -0.00291147 0)
(1.0178 -0.00239103 0)
(1.01701 -0.0020071 0)
(1.01633 -0.00141755 0)
(1.01581 -0.000847985 0)
(1.01552 -0.000379829 0)
(0.941339 -0.305477 0)
(0.906239 -0.300618 0)
(0.969899 -0.285417 0)
(1.02808 -0.241347 0)
(1.05444 -0.182248 0)
(1.05577 -0.136447 0)
(1.05508 -0.100059 0)
(1.05518 -0.071566 0)
(1.05689 -0.0510799 0)
(1.05769 -0.0369071 0)
(1.05704 -0.0269652 0)
(1.05002 -0.0211893 0)
(1.04406 -0.0171696 0)
(1.03542 -0.0143415 0)
(1.02883 -0.0117378 0)
(1.02554 -0.00983187 0)
(1.02393 -0.00804744 0)
(1.02338 -0.00674372 0)
(1.02282 -0.00578562 0)
(1.02207 -0.00496123 0)
(1.02125 -0.00432588 0)
(1.02036 -0.00378194 0)
(1.01952 -0.00337139 0)
(1.01866 -0.00303186 0)
(1.0178 -0.00268476 0)
(1.01704 -0.00226755 0)
(1.01635 -0.00192927 0)
(1.01575 -0.00138294 0)
(1.01527 -0.0008348 0)
(1.015 -0.000371829 0)
(0.968003 -0.447884 0)
(0.925808 -0.411652 0)
(1.01736 -0.343807 0)
(1.09145 -0.249293 0)
(1.12296 -0.199313 0)
(1.11206 -0.155603 0)
(1.10148 -0.121075 0)
(1.08682 -0.0921857 0)
(1.06943 -0.0698128 0)
(1.05657 -0.0527483 0)
(1.04569 -0.0417474 0)
(1.04107 -0.0328372 0)
(1.03543 -0.0269028 0)
(1.03416 -0.0220315 0)
(1.03415 -0.0182873 0)
(1.03377 -0.0147496 0)
(1.03317 -0.0116078 0)
(1.03169 -0.00899115 0)
(1.02973 -0.0069774 0)
(1.02746 -0.00564646 0)
(1.02529 -0.00475272 0)
(1.02336 -0.00419707 0)
(1.02173 -0.00369503 0)
(1.02035 -0.00328537 0)
(1.01917 -0.00285837 0)
(1.0182 -0.00236129 0)
(1.01738 -0.00198525 0)
(1.01668 -0.0014178 0)
(1.01614 -0.000852794 0)
(1.01584 -0.000375667 0)
(1.07662 -0.45537 0)
(1.11809 -0.370667 0)
(1.20112 -0.261326 0)
(1.215 -0.173952 0)
(1.17239 -0.127513 0)
(1.14604 -0.0877962 0)
(1.12328 -0.0596418 0)
(1.10677 -0.0410459 0)
(1.09811 -0.0259586 0)
(1.08728 -0.0184621 0)
(1.07747 -0.0111853 0)
(1.06495 -0.00943064 0)
(1.05459 -0.00759131 0)
(1.04333 -0.00618836 0)
(1.03496 -0.00492093 0)
(1.03042 -0.00403727 0)
(1.02769 -0.00355677 0)
(1.0262 -0.00333651 0)
(1.02478 -0.0033373 0)
(1.0235 -0.00320484 0)
(1.02231 -0.00311287 0)
(1.02118 -0.00294534 0)
(1.02017 -0.00281229 0)
(1.01916 -0.00266492 0)
(1.01823 -0.00245448 0)
(1.01741 -0.00213098 0)
(1.01666 -0.00184172 0)
(1.01603 -0.00134063 0)
(1.01553 -0.000816314 0)
(1.01525 -0.000359762 0)
(1.21676 -0.276358 0)
(1.27179 -0.205567 0)
(1.29925 -0.133711 0)
(1.28627 -0.117173 0)
(1.2465 -0.0951889 0)
(1.20272 -0.0787953 0)
(1.15804 -0.0666315 0)
(1.12309 -0.0463025 0)
(1.09164 -0.0379615 0)
(1.06688 -0.0270358 0)
(1.05131 -0.0242181 0)
(1.04251 -0.0206325 0)
(1.03677 -0.0187787 0)
(1.03523 -0.0174327 0)
(1.03535 -0.0153106 0)
(1.03475 -0.0127661 0)
(1.03408 -0.0099244 0)
(1.03234 -0.00769677 0)
(1.03018 -0.00595234 0)
(1.02781 -0.00496483 0)
(1.02556 -0.0042701 0)
(1.02362 -0.00384303 0)
(1.02197 -0.00340673 0)
(1.02063 -0.00303783 0)
(1.01949 -0.00267273 0)
(1.01853 -0.00222176 0)
(1.01771 -0.00188119 0)
(1.01702 -0.00136141 0)
(1.01647 -0.000823662 0)
(1.01618 -0.000359687 0)
(1.37706 -0.000119973 0)
(1.3758 0.0305057 0)
(1.32629 0.0425066 0)
(1.27595 0.0323308 0)
(1.21881 0.0375065 0)
(1.18485 0.0208658 0)
(1.16187 0.0239892 0)
(1.14253 0.0136109 0)
(1.12111 0.0130075 0)
(1.10361 0.00974043 0)
(1.08621 0.00818373 0)
(1.07099 0.00644565 0)
(1.05807 0.00498874 0)
(1.04692 0.00506007 0)
(1.03858 0.00421552 0)
(1.03386 0.00361578 0)
(1.03034 0.00219964 0)
(1.02795 0.00102641 0)
(1.02587 -0.000235701 0)
(1.02411 -0.000971844 0)
(1.02266 -0.00155886 0)
(1.02134 -0.00186506 0)
(1.02023 -0.00207957 0)
(1.01921 -0.00218358 0)
(1.01828 -0.00212784 0)
(1.01751 -0.00191091 0)
(1.01682 -0.00168902 0)
(1.01623 -0.00125037 0)
(1.01576 -0.000768641 0)
(1.0155 -0.000337266 0)
(1.37634 0.171775 0)
(1.32215 0.143606 0)
(1.31018 0.0937891 0)
(1.27093 0.0695659 0)
(1.22313 0.0488265 0)
(1.18977 0.031679 0)
(1.13753 0.0373941 0)
(1.10975 0.0205795 0)
(1.07833 0.0217987 0)
(1.05848 0.012001 0)
(1.04539 0.006519 0)
(1.03641 0.000241496 0)
(1.0334 -0.00363742 0)
(1.03229 -0.00787785 0)
(1.03269 -0.00828855 0)
(1.03218 -0.00791611 0)
(1.0317 -0.00615781 0)
(1.03032 -0.00507251 0)
(1.02847 -0.00406302 0)
(1.02651 -0.00368842 0)
(1.0246 -0.00336576 0)
(1.02298 -0.00316158 0)
(1.02161 -0.0028927 0)
(1.02046 -0.00261781 0)
(1.01949 -0.00235513 0)
(1.01865 -0.00199218 0)
(1.01791 -0.00170859 0)
(1.01729 -0.00126036 0)
(1.01678 -0.000768972 0)
(1.01651 -0.000333311 0)
(1.28829 0.316825 0)
(1.22543 0.290968 0)
(1.22793 0.224313 0)
(1.1906 0.199235 0)
(1.18659 0.134808 0)
(1.16233 0.107605 0)
(1.15298 0.0710445 0)
(1.12964 0.0502087 0)
(1.10959 0.0355987 0)
(1.09223 0.0260405 0)
(1.0739 0.0199258 0)
(1.06275 0.0185708 0)
(1.05227 0.0150843 0)
(1.04472 0.0155728 0)
(1.03925 0.0128001 0)
(1.03557 0.0109162 0)
(1.03221 0.00754255 0)
(1.02921 0.00510422 0)
(1.0267 0.00274044 0)
(1.02461 0.00121486 0)
(1.023 -2.24931e-06 0)
(1.02156 -0.000784698 0)
(1.02037 -0.00132967 0)
(1.01932 -0.00166264 0)
(1.0184 -0.00175848 0)
(1.01765 -0.00164556 0)
(1.017 -0.00149386 0)
(1.01645 -0.00112883 0)
(1.016 -0.00070133 0)
(1.01576 -0.000306647 0)
(1.20509 0.311478 0)
(1.14197 0.280033 0)
(1.17873 0.211196 0)
(1.09201 0.198441 0)
(1.11563 0.151179 0)
(1.07384 0.153619 0)
(1.0848 0.112399 0)
(1.05947 0.100314 0)
(1.05551 0.0781536 0)
(1.04509 0.0538019 0)
(1.03795 0.0405491 0)
(1.032 0.022674 0)
(1.03011 0.0137734 0)
(1.02905 0.00425084 0)
(1.02851 0.00134846 0)
(1.02834 -0.000866834 0)
(1.02804 -0.000742144 0)
(1.02741 -0.00120659 0)
(1.02625 -0.00133713 0)
(1.02509 -0.00179378 0)
(1.02379 -0.00198654 0)
(1.02265 -0.00207701 0)
(1.02161 -0.00206081 0)
(1.02064 -0.00195244 0)
(1.01977 -0.00185272 0)
(1.01896 -0.00162816 0)
(1.01826 -0.00143805 0)
(1.01764 -0.00109082 0)
(1.01712 -0.000674753 0)
(1.01685 -0.000292735 0)
(1.04986 0.337205 0)
(1.00904 0.314817 0)
(1.09042 0.216366 0)
(1.03573 0.192274 0)
(1.13687 0.115538 0)
(1.05871 0.123177 0)
(1.08844 0.0469425 0)
(1.05936 0.0528297 0)
(1.0566 0.0251196 0)
(1.04486 0.0260465 0)
(1.04029 0.0203559 0)
(1.03927 0.0219119 0)
(1.03769 0.019875 0)
(1.03675 0.0209539 0)
(1.03687 0.017295 0)
(1.03515 0.0147175 0)
(1.03278 0.0104807 0)
(1.02971 0.00747499 0)
(1.0272 0.00467842 0)
(1.02498 0.00276618 0)
(1.02327 0.0012325 0)
(1.02179 0.000135732 0)
(1.02053 -0.000610262 0)
(1.01949 -0.00109086 0)
(1.01857 -0.00129838 0)
(1.01784 -0.00128031 0)
(1.01722 -0.00121155 0)
(1.01668 -0.00093798 0)
(1.01623 -0.000590744 0)
(1.016 -0.000262028 0)
(0.97413 0.377399 0)
(0.93947 0.355731 0)
(1.09173 0.140559 9.4375e-20)
(1.07265 0.119484 -3.07989e-20)
(1.05097 0.107882 1.7519e-20)
(1.03139 0.0927124 7.50646e-21)
(1.01906 0.0815629 -6.10301e-21)
(1.01285 0.0659051 6.48767e-21)
(1.01279 0.0503214 -2.24795e-20)
(1.015 0.0371545 1.16464e-20)
(1.01889 0.0259466 -1.27567e-20)
(1.02251 0.0178234 -1.4326e-21)
(1.04608 0.17912 -9.11218e-22)
(1.03798 0.138071 1.35052e-20)
(1.04052 0.101652 3.7684e-20)
(1.03755 0.0711947 -4.99914e-22)
(1.02638 0.0571037 1.20753e-20)
(1.01831 0.0441861 -1.92061e-20)
(1.0143 0.0348962 -1.4164e-20)
(1.0134 0.0267366 1.98915e-20)
(1.01332 0.0208625 -4.66046e-21)
(1.01531 0.0141537 -1.64307e-21)
(1.01689 0.00874892 -1.48676e-21)
(1.0192 0.00377878 3.98797e-22)
(1.01983 0.000637053 -3.54435e-21)
(1.01979 -0.00221987 3.21023e-21)
(1.02052 -0.00420356 2.1865e-21)
(1.01883 -0.0050306 -1.95042e-21)
(1.01842 -0.00594653 1.29653e-21)
(1.01859 -0.00643082 -7.98003e-22)
(1.01773 -0.00612773 -6.75241e-23)
(1.01769 -0.00600586 -3.96346e-24)
(1.01747 -0.00573588 1.00464e-23)
(1.01696 -0.00527804 1.19328e-22)
(1.01648 -0.00480594 3.83351e-24)
(1.01597 -0.00424656 -3.72784e-22)
(1.01537 -0.00359348 2.57037e-22)
(1.01491 -0.00293647 -1.03398e-22)
(1.01442 -0.00237429 8.48151e-23)
(1.01401 -0.00151201 -1.61658e-22)
(1.01368 -0.00090852 -1.77112e-22)
(1.01347 -0.000457003 -4.93911e-22)
(1.02047 0.199283 1.1294e-19)
(1.00014 0.17593 -5.47603e-20)
(0.995368 0.148159 -2.58819e-20)
(0.995063 0.118647 1.25244e-20)
(0.995772 0.0947553 2.75918e-20)
(0.996768 0.0726123 -2.92878e-20)
(0.999278 0.0544695 9.0142e-21)
(1.00151 0.0410119 -1.13373e-20)
(1.00657 0.0293023 1.00581e-20)
(1.01217 0.0204652 2.72462e-21)
(1.01732 0.0130431 -7.15898e-21)
(1.02067 0.00838757 -7.78996e-22)
(1.02129 0.0052295 2.4748e-21)
(1.0214 0.00232247 7.07543e-22)
(1.0204 0.000135221 9.72782e-22)
(1.01738 -0.000907219 -7.69115e-22)
(1.01762 -0.00319427 -2.52896e-22)
(1.01738 -0.00440144 -2.3249e-22)
(1.01683 -0.00484235 4.46231e-22)
(1.01741 -0.00530597 -8.70949e-23)
(1.01736 -0.00527837 -3.60069e-23)
(1.01709 -0.00494922 -2.70972e-24)
(1.0168 -0.00459818 -3.21235e-23)
(1.01633 -0.00410336 -1.80623e-22)
(1.01577 -0.00350889 3.25803e-22)
(1.01532 -0.00289695 -8.47664e-24)
(1.0148 -0.00235194 9.71205e-23)
(1.01439 -0.00151357 -1.89905e-22)
(1.01405 -0.00090601 2.72598e-22)
(1.01384 -0.000450583 8.63786e-23)