/*--------------------------------*- C++ -*----------------------------------*\
| =========                 |                                                 |
| \\      /  F ield         | OpenFOAM: The Open Source CFD Toolbox           |
|  \\    /   O peration     | Version:                                        |
|   \\  /    A nd           | Website:  www.openfoam.com                      |
|    \\/     M anipulation  |                                                 |
\*---------------------------------------------------------------------------*/
FoamFile
{
    version     2.0;
    format      ascii;
    class       volVectorField;
    location    "105.9";
    object      U;
}
// * * * * * * * * * * * * * * * * * * * * * * * * * * * * * * * * * * * * * //

dimensions      [0 1 -1 0 0 0 0];


internalField   nonuniform List<vector> 
1139
(
(0.984746 0.210965 4.96405e-20)
(1.09218 0.151325 -1.24543e-19)
(1.15525 0.0861007 1.38804e-20)
(1.23678 0.00372206 6.61259e-20)
(1.18474 0.00930758 -1.10435e-20)
(1.18312 -0.0270576 -8.22002e-21)
(1.18317 -0.0427756 -7.80087e-23)
(1.14479 -0.0458022 -1.0355e-21)
(1.17747 -0.0699993 -2.73546e-20)
(1.17918 -0.0872776 3.90228e-21)
(1.11144 -0.067452 2.32906e-20)
(1.20402 -0.0759092 4.17924e-20)
(1.16845 -0.112642 -7.68664e-21)
(1.10942 -0.0746028 -2.67082e-22)
(1.22728 -0.0944878 -3.20117e-20)
(1.14041 -0.103903 1.14384e-21)
(1.15371 -0.101908 1.58471e-21)
(1.21672 -0.0819374 1.05028e-20)
(1.13841 -0.100511 2.77757e-20)
(1.08378 -0.139801 -8.21095e-21)
(1.21436 -0.0794727 9.70323e-21)
(1.17015 -0.0991876 5.52733e-22)
(1.16008 -0.0948989 -9.76641e-21)
(1.1643 -0.105972 -1.34507e-20)
(1.24555 -0.081779 -1.31885e-20)
(1.15141 -0.0998652 2.82901e-22)
(1.18471 -0.0765937 -2.179e-21)
(0.169714 0.867791 -4.73897e-20)
(0.171187 0.704778 5.52362e-20)
(0.107466 0.711116 4.34905e-20)
(0.0221201 0.713059 -2.70924e-19)
(-0.0650464 0.724062 -6.33266e-20)
(-0.171704 0.689803 -6.68076e-20)
(0.169377 0.468149 -7.6856e-22)
(0.0883796 0.497414 -7.165e-21)
(-0.00617453 0.508034 9.11814e-20)
(-0.105269 0.558492 2.04456e-19)
(-0.232848 0.566298 4.37942e-19)
(-0.344914 0.588826 3.59251e-19)
(0.188529 0.19693 -2.34161e-20)
(0.0824959 0.25778 1.79003e-19)
(-0.0267554 0.293974 1.50089e-19)
(-0.129555 0.379995 -1.74901e-19)
(-0.275976 0.440836 -6.11542e-19)
(-0.415242 0.518714 -1.72933e-20)
(-0.524603 0.514507 -2.43617e-19)
(0.22152 -0.0596237 3.46665e-20)
(0.0980615 0.0249951 -1.23314e-19)
(-0.0287977 0.0846852 -6.82527e-20)
(-0.139719 0.189882 -5.51766e-20)
(-0.287791 0.283843 6.71818e-19)
(-0.447757 0.396856 -1.44003e-19)
(-0.559076 0.463817 -5.42579e-20)
(-0.522565 0.464113 -4.41469e-20)
(0.238886 -0.27256 2.19441e-20)
(0.111497 -0.174817 -4.70176e-20)
(-0.0235162 -0.0994809 -1.21373e-19)
(-0.142 0.0172056 3.34079e-20)
(-0.294403 0.138447 -3.07144e-20)
(-0.465453 0.283426 -8.44558e-20)
(-0.566701 0.399017 -4.53368e-19)
(-0.50099 0.446311 -1.82611e-19)
(-0.337074 0.41667 -5.13524e-20)
(0.28239 -0.514682 -5.69246e-20)
(0.136371 -0.397542 1.17424e-20)
(-0.0133887 -0.300801 1.68671e-19)
(-0.141001 -0.161129 9.91934e-20)
(-0.287665 -0.0179009 -3.835e-19)
(-0.455123 0.148373 2.30965e-19)
(-0.531001 0.317832 1.17025e-19)
(-0.434466 0.412078 3.30749e-19)
(-0.19287 0.408079 1.35753e-19)
(0.290493 0.370533 6.21642e-20)
(0.379541 -0.829066 3.97364e-20)
(0.196685 -0.682064 1.00809e-19)
(0.017099 -0.556608 -3.28393e-20)
(-0.122641 -0.376831 -1.89218e-19)
(-0.266572 -0.193982 1.79189e-19)
(-0.433064 0.00822616 -3.16882e-20)
(-0.479229 0.216574 -6.3931e-20)
(-0.340249 0.346034 1.08205e-19)
(-0.0253151 0.365748 -1.74909e-19)
(0.495575 0.330435 1.12798e-20)
(0.464191 -1.11967 -4.39883e-20)
(0.269723 -0.970381 -4.11317e-20)
(0.0689375 -0.8167 -2.32257e-19)
(-0.0763745 -0.60627 -1.34916e-20)
(-0.219811 -0.384644 -3.13452e-20)
(-0.375096 -0.135321 1.47782e-19)
(-0.410087 0.117156 -5.87906e-20)
(-0.255324 0.248628 3.70934e-20)
(0.127389 0.293292 -1.17743e-20)
(0.675839 0.256104 -1.01689e-19)
(0.519877 -1.30825 -3.37639e-20)
(0.33381 -1.19927 1.51468e-19)
(0.117261 -1.0584 2.59684e-19)
(-0.0241227 -0.816946 2.20165e-19)
(-0.166551 -0.600668 6.68736e-20)
(-0.29474 -0.311348 -2.29259e-19)
(-0.280287 0.0570282 1.12146e-19)
(-0.0960903 0.216229 7.8294e-21)
(0.2812 0.187345 -1.5539e-20)
(0.806191 0.168516 2.60425e-20)
(0.544837 -1.36538 2.81657e-20)
(0.402926 -1.29714 -2.94001e-20)
(0.228211 -1.20249 -1.31267e-20)
(0.0770079 -0.971794 5.98108e-20)
(-0.0489084 -0.699097 -9.03476e-20)
(-0.15993 -0.471898 9.15149e-20)
(-0.226731 -0.252105 -2.03632e-20)
(-0.0522207 0.0021941 -1.76269e-20)
(0.422086 0.10846 -8.03099e-21)
(0.941186 0.0801052 8.71492e-22)
(0.521426 -1.35601 2.98264e-20)
(0.378302 -1.32974 -1.19635e-20)
(0.237004 -1.24708 -9.19294e-20)
(0.133166 -1.04824 1.21169e-20)
(0.014577 -0.80932 -5.01512e-20)
(-0.125419 -0.523197 5.94519e-20)
(-0.0903066 -0.195346 1.64443e-20)
(0.17596 -0.03062 -5.62165e-20)
(0.581933 -0.0159577 -5.57627e-20)
(1.02525 -0.023535 -2.32279e-20)
(0.556866 -1.31289 -2.23694e-20)
(0.47186 -1.32764 6.08657e-20)
(0.365188 -1.28702 -2.31417e-20)
(0.247856 -1.13671 -6.81059e-20)
(0.170936 -0.887927 -1.00284e-19)
(0.0762063 -0.675267 1.41163e-20)
(0.0403154 -0.428938 1.48362e-20)
(0.250676 -0.19268 -1.43032e-20)
(0.71995 -0.0896357 2.11712e-20)
(1.13407 -0.0720665 2.63162e-20)
(0.482942 -1.27481 -1.43466e-20)
(0.426727 -1.26094 2.06832e-19)
(0.360348 -1.21308 -6.08933e-21)
(0.309541 -1.09368 -9.05348e-20)
(0.226637 -0.937403 6.16696e-20)
(0.0309341 -0.804258 1.58071e-20)
(0.0945218 -0.502664 -5.53266e-20)
(0.479719 -0.244568 1.51331e-19)
(0.908422 -0.171952 8.37603e-20)
(1.18244 -0.153833 -4.79305e-20)
(0.552986 -1.2272 -4.57764e-20)
(0.520188 -1.22867 -1.41465e-20)
(0.4399 -1.1736 -2.52511e-19)
(0.379513 -1.05702 -2.87469e-20)
(0.299085 -0.9582 3.17481e-20)
(0.254195 -0.806409 -2.12147e-20)
(0.419235 -0.509979 4.97336e-20)
(0.678534 -0.3185 -7.17847e-20)
(1.02335 -0.226788 -1.14017e-19)
(1.27412 -0.150822 5.58749e-20)
(0.477625 -1.18317 -6.62998e-22)
(0.507169 -1.20466 -3.56145e-20)
(0.455259 -1.17426 2.01446e-19)
(0.385056 -1.10315 1.39061e-19)
(0.300498 -1.03725 8.37287e-20)
(0.297899 -0.864579 -1.97347e-20)
(0.491256 -0.573516 -1.16081e-20)
(0.846304 -0.359931 -2.33e-20)
(1.24896 -0.226213 9.9141e-20)
(1.31936 -0.165852 2.13607e-20)
(0.515156 -1.22707 1.93129e-20)
(0.533526 -1.24906 -9.80405e-21)
(0.479294 -1.15873 1.96268e-20)
(0.449299 -1.01211 -1.28998e-19)
(0.487974 -0.886277 -2.40477e-19)
(0.633246 -0.688566 7.78587e-20)
(0.886951 -0.453908 -1.41343e-21)
(1.17214 -0.291611 2.46953e-21)
(1.35797 -0.195543 -6.20707e-20)
(1.24282 -0.145232 7.52177e-21)
(0.443224 -1.26343 -2.32221e-20)
(0.530708 -1.26911 1.49501e-20)
(0.538867 -1.14385 -1.10338e-20)
(0.5601 -0.934963 1.22557e-19)
(0.63838 -0.75799 2.19759e-19)
(0.789977 -0.584781 -9.8748e-20)
(1.01 -0.408857 -1.58459e-20)
(1.26305 -0.264516 -3.57862e-22)
(1.42563 -0.163697 1.26684e-20)
(1.27533 -0.136346 2.27719e-22)
(0.510215 -0.990409 5.7977e-21)
(0.634755 -0.987124 4.45629e-20)
(0.705616 -0.889503 -1.70891e-20)
(0.748422 -0.733073 -6.18608e-20)
(0.817105 -0.580591 3.21011e-20)
(0.957814 -0.431818 2.98748e-20)
(1.15918 -0.287296 2.34374e-20)
(1.39028 -0.166618 -4.25285e-21)
(1.4905 -0.104613 9.53742e-21)
(1.31127 -0.120263 -5.36474e-22)
(0.58761 -0.483021 1.49577e-20)
(0.757168 -0.451766 4.25008e-21)
(0.874281 -0.41708 -3.02118e-20)
(0.959356 -0.343919 -1.24641e-19)
(1.06361 -0.24948 -3.49924e-19)
(1.21144 -0.146111 -1.27418e-19)
(1.38922 -0.0545659 1.17819e-19)
(1.55084 -0.000496161 -4.20428e-20)
(1.52692 -0.0263083 -4.7213e-22)
(1.34465 -0.0764144 -1.47892e-21)
(0.680663 0.12787 -2.9986e-20)
(0.882231 0.172053 -5.02985e-20)
(1.03154 0.16521 -1.17943e-19)
(1.16678 0.186063 8.67628e-20)
(1.30485 0.209461 2.68352e-19)
(1.45023 0.226074 2.54328e-20)
(1.58233 0.217262 -6.81994e-21)
(1.63124 0.161326 6.39936e-20)
(1.5197 0.0583554 -8.26896e-21)
(1.38122 -0.00777147 -3.40795e-21)
(0.744595 0.646745 2.12163e-20)
(0.961247 0.699051 -3.18091e-20)
(1.13996 0.675419 1.29852e-19)
(1.29945 0.654689 -7.39167e-20)
(1.43352 0.602846 1.3407e-20)
(1.54655 0.536118 1.71596e-19)
(1.60987 0.429125 -1.12426e-19)
(1.58599 0.292758 -6.66119e-20)
(1.48447 0.158923 -1.3504e-20)
(1.39508 0.0748184 1.31627e-20)
(0.765175 0.945649 -5.56657e-21)
(0.960608 1.00501 1.71106e-20)
(1.13544 0.968475 1.66823e-20)
(1.29378 0.915351 1.01962e-19)
(1.41504 0.808177 -7.38954e-20)
(1.50123 0.690379 -9.80671e-20)
(1.53117 0.538808 -6.05954e-20)
(1.50427 0.391075 -1.41062e-20)
(1.44682 0.264267 2.29106e-20)
(1.39353 0.16292 -2.06671e-20)
(0.796125 1.04358 -2.95079e-21)
(0.949034 1.08238 9.58122e-21)
(1.0806 1.03509 -5.13676e-20)
(1.21163 0.982112 -5.81125e-20)
(1.30689 0.862792 -2.68924e-21)
(1.37546 0.741364 4.06308e-20)
(1.41056 0.592009 3.39261e-20)
(1.40483 0.459029 2.81045e-21)
(1.38177 0.340883 -5.65017e-21)
(1.35048 0.242242 2.36875e-20)
(0.79917 1.0425 5.47324e-21)
(0.909242 1.04411 -2.26305e-20)
(1.0035 0.991553 7.33985e-21)
(1.10993 0.93419 7.3291e-21)
(1.18409 0.832822 1.74479e-20)
(1.24711 0.737235 -8.17867e-20)
(1.28995 0.613052 8.07854e-21)
(1.30762 0.512405 6.99636e-20)
(1.3194 0.404072 4.15244e-20)
(1.31261 0.313084 -9.1193e-21)
(0.80196 0.983764 -2.8448e-21)
(0.853877 0.960195 2.5057e-20)
(0.919934 0.931156 -6.06756e-21)
(1.0052 0.874553 4.63013e-20)
(1.0723 0.793031 4.9584e-20)
(1.13108 0.718872 1.00969e-19)
(1.17514 0.607547 4.62658e-21)
(1.213 0.535628 -1.50654e-20)
(1.23054 0.450036 -6.58683e-20)
(1.24302 0.361323 -1.4107e-20)
(0.793949 0.926479 7.73598e-21)
(0.808713 0.886619 1.35866e-20)
(0.855992 0.864467 8.04422e-21)
(0.913386 0.818474 -1.03201e-20)
(0.9825 0.761207 -3.1425e-20)
(1.02493 0.704203 -2.62256e-20)
(1.08119 0.617746 6.59933e-21)
(1.14292 0.544781 1.37114e-20)
(1.15955 0.47445 2.8619e-20)
(1.17918 0.40654 1.86845e-20)
(0.758019 0.931348 -5.82865e-22)
(0.75686 0.871517 -3.83351e-21)
(0.790431 0.82753 2.84544e-20)
(0.824069 0.764224 1.60531e-20)
(0.904049 0.715413 -1.99001e-20)
(0.927918 0.658949 2.53242e-20)
(0.976937 0.608789 -5.37967e-23)
(1.03105 0.544976 1.83967e-21)
(1.06564 0.474295 -3.66455e-22)
(1.10447 0.408446 -7.93893e-21)
(0.693111 0.970391 2.93194e-22)
(0.67439 0.897097 -2.27511e-20)
(0.691433 0.837879 -2.82087e-21)
(0.719108 0.755614 -1.01446e-20)
(0.808529 0.695103 2.61032e-21)
(0.850348 0.620021 -4.54315e-20)
(0.909868 0.574415 3.06603e-20)
(0.950794 0.528309 -8.25369e-21)
(0.979684 0.491925 2.14147e-21)
(1.02694 0.432884 -9.74577e-21)
(0.619042 0.961491 -4.36707e-21)
(0.585168 0.879557 -5.03362e-21)
(0.582357 0.808738 1.09159e-20)
(0.598257 0.731563 1.63234e-20)
(0.670432 0.67018 -2.16231e-20)
(0.729078 0.589654 1.97484e-20)
(0.803195 0.527407 -1.19663e-20)
(0.861859 0.467555 -1.24439e-20)
(0.902735 0.443766 6.7206e-21)
(0.947553 0.414747 3.54366e-21)
(0.512309 0.868859 -4.72791e-21)
(0.45728 0.798175 4.40673e-20)
(0.449409 0.721197 -1.98712e-20)
(0.479292 0.663152 -3.15401e-20)
(0.542777 0.611484 -1.15628e-20)
(0.609841 0.556728 1.54565e-20)
(0.690954 0.505729 -1.08128e-20)
(0.767451 0.450163 -4.35553e-21)
(0.833529 0.407366 -1.20762e-20)
(0.879081 0.38092 4.28751e-21)
(0.433748 0.620843 4.26019e-21)
(0.350736 0.582497 -3.66274e-20)
(0.328782 0.52219 1.47421e-20)
(0.361018 0.498727 -1.23941e-20)
(0.424105 0.464992 2.47416e-20)
(0.503577 0.44851 -4.5252e-22)
(0.589666 0.42846 1.58668e-20)
(0.663487 0.40436 4.91966e-21)
(0.740346 0.380079 3.82504e-21)
(0.808679 0.357784 -1.16426e-21)
(0.37802 0.222119 6.56025e-22)
(0.266369 0.229085 1.8143e-20)
(0.229137 0.212682 -2.29954e-20)
(0.267882 0.237903 3.29227e-20)
(0.328478 0.241378 -6.26467e-21)
(0.419497 0.2644 -1.81838e-20)
(0.501364 0.275975 -3.88745e-21)
(0.577643 0.286435 -3.76978e-21)
(0.659823 0.291745 -3.07488e-22)
(0.734233 0.304625 1.49892e-21)
(0.382837 -0.236591 7.37162e-22)
(0.276739 -0.180168 1.15894e-21)
(0.235998 -0.139026 -2.43011e-20)
(0.265455 -0.0638528 -7.01656e-21)
(0.306501 -0.0171178 1.72049e-20)
(0.389608 0.0467655 -3.52147e-21)
(0.453223 0.0799777 -7.51368e-21)
(0.515311 0.125693 3.42891e-21)
(0.594117 0.152065 -2.84055e-22)
(0.674222 0.187235 2.47117e-21)
(0.412002 -0.59686 3.34739e-21)
(0.329588 -0.51684 -2.27572e-20)
(0.30147 -0.446736 2.71588e-20)
(0.3204 -0.350907 5.12094e-21)
(0.349734 -0.273762 4.65602e-21)
(0.406779 -0.171589 -5.07277e-21)
(0.45077 -0.116421 -1.4298e-20)
(0.50943 -0.0498854 2.77564e-22)
(0.572447 -0.0103228 1.3989e-21)
(0.6113 0.037633 -2.44675e-21)
(0.491671 -0.7837 -5.83171e-21)
(0.446668 -0.705475 2.88744e-20)
(0.432355 -0.635456 1.89588e-20)
(0.434065 -0.538352 -2.21607e-20)
(0.462807 -0.451947 -1.93254e-20)
(0.4843 -0.350612 1.67839e-21)
(0.507665 -0.271533 6.53507e-21)
(0.538011 -0.193797 -3.97392e-23)
(0.574563 -0.149046 8.52517e-22)
(0.595027 -0.106367 -1.69831e-22)
(0.570829 -0.858865 2.34409e-21)
(0.553947 -0.803934 -1.09756e-20)
(0.552135 -0.747526 -9.79853e-21)
(0.560108 -0.654764 3.55854e-21)
(0.584648 -0.559345 1.78859e-20)
(0.595184 -0.457989 3.11189e-20)
(0.628052 -0.356514 1.91793e-20)
(0.612318 -0.276822 1.26187e-21)
(0.622598 -0.207792 -2.42052e-21)
(0.627181 -0.175527 -1.71461e-22)
(0.754983 -0.450106 -6.50608e-21)
(0.730217 -0.352374 2.29737e-22)
(0.732379 -0.220872 3.62451e-21)
(0.681873 -0.174563 -2.32544e-22)
(1.23923 -0.0796313 0)
(1.23091 -0.0618852 0)
(1.20743 -0.04425 0)
(1.19066 -0.0307684 0)
(1.17546 -0.0230838 0)
(1.15884 -0.0180937 0)
(1.14542 -0.0140331 0)
(1.13073 -0.00845882 0)
(1.11637 -0.00592242 0)
(1.10503 -0.00396995 0)
(1.09656 -0.00443264 0)
(1.08693 -0.00451523 0)
(1.077 -0.00559665 0)
(1.06899 -0.00584257 0)
(1.06114 -0.00696525 0)
(1.05398 -0.0078792 0)
(1.04679 -0.00923298 0)
(1.03934 -0.00955012 0)
(1.03319 -0.00931068 0)
(1.02873 -0.00851938 0)
(1.02598 -0.00777247 0)
(1.02379 -0.00701112 0)
(1.02188 -0.00617323 0)
(1.02038 -0.00543554 0)
(1.0189 -0.00462514 0)
(1.01765 -0.00376428 0)
(1.01666 -0.0030616 0)
(1.01585 -0.00205762 0)
(1.01535 -0.00122068 0)
(1.01498 -0.000555318 0)
(1.2795 -0.0662269 0)
(1.26191 -0.0549197 0)
(1.23391 -0.0382632 0)
(1.21003 -0.0250623 0)
(1.19005 -0.0118774 0)
(1.17075 -0.00510409 0)
(1.14862 0.00251056 0)
(1.13001 0.00712176 0)
(1.11387 0.0103329 0)
(1.10074 0.00840691 0)
(1.09008 0.00681072 0)
(1.0805 0.00303611 0)
(1.07183 -0.000141884 0)
(1.06308 -0.00360334 0)
(1.05521 -0.00558421 0)
(1.04886 -0.00810595 0)
(1.04306 -0.00946502 0)
(1.03711 -0.0101243 0)
(1.03211 -0.00965261 0)
(1.02843 -0.00885808 0)
(1.02603 -0.0079487 0)
(1.02399 -0.00706945 0)
(1.02229 -0.00618733 0)
(1.02081 -0.00539557 0)
(1.01935 -0.00455596 0)
(1.01815 -0.0036986 0)
(1.01713 -0.00299997 0)
(1.01631 -0.00201734 0)
(1.01581 -0.00119572 0)
(1.01543 -0.00054145 0)
(1.32123 -0.0292362 0)
(1.28849 -0.0185703 0)
(1.25103 -0.00361504 0)
(1.22518 0.00696153 0)
(1.20483 0.00886836 0)
(1.18391 0.0104175 0)
(1.16376 0.0105694 0)
(1.14291 0.0130411 0)
(1.12543 0.011952 0)
(1.11035 0.0116347 0)
(1.09767 0.00842702 0)
(1.08725 0.00594427 0)
(1.07775 0.00203078 0)
(1.06921 -0.000292344 0)
(1.06127 -0.00325918 0)
(1.05427 -0.00566203 0)
(1.04734 -0.00813362 0)
(1.04016 -0.00907054 0)
(1.03429 -0.00909752 0)
(1.0298 -0.00827089 0)
(1.02685 -0.00739289 0)
(1.0244 -0.0065351 0)
(1.02252 -0.00576166 0)
(1.02079 -0.00507699 0)
(1.01921 -0.00432862 0)
(1.01796 -0.00355822 0)
(1.01689 -0.00291844 0)
(1.01605 -0.00198552 0)
(1.01558 -0.00118341 0)
(1.01519 -0.000531689 0)
(1.35404 0.0132765 0)
(1.30971 0.0133138 0)
(1.27015 0.0295356 0)
(1.23248 0.0325732 0)
(1.20523 0.0372897 0)
(1.18129 0.0408086 0)
(1.15731 0.0435649 0)
(1.13751 0.0409301 0)
(1.11916 0.038943 0)
(1.10339 0.0323546 0)
(1.09059 0.0266081 0)
(1.0803 0.0184873 0)
(1.07139 0.0120128 0)
(1.06217 0.0053981 0)
(1.05424 0.000801634 0)
(1.04815 -0.00382191 0)
(1.04275 -0.00663437 0)
(1.0377 -0.00839372 0)
(1.03318 -0.00853326 0)
(1.02971 -0.00795916 0)
(1.02711 -0.00711571 0)
(1.02496 -0.00628789 0)
(1.02321 -0.00555425 0)
(1.02147 -0.00486001 0)
(1.01993 -0.00415049 0)
(1.01865 -0.00341439 0)
(1.01753 -0.00279897 0)
(1.01664 -0.00191561 0)
(1.01612 -0.001144 0)
(1.01571 -0.000511457 0)
(1.35188 0.063354 0)
(1.30907 0.0655652 0)
(1.26851 0.0652995 0)
(1.23992 0.0610851 0)
(1.21685 0.0536063 0)
(1.19104 0.049032 0)
(1.16745 0.0408071 0)
(1.14368 0.0369567 0)
(1.12232 0.0312045 0)
(1.10534 0.0269718 0)
(1.09212 0.0205182 0)
(1.08208 0.0154414 0)
(1.07351 0.00924847 0)
(1.06648 0.00483529 0)
(1.05951 -2.37843e-05 0)
(1.05315 -0.00366517 0)
(1.04719 -0.00696933 0)
(1.04102 -0.00839144 0)
(1.03572 -0.00859032 0)
(1.03143 -0.00771657 0)
(1.02816 -0.00673165 0)
(1.02564 -0.00588023 0)
(1.02353 -0.00517308 0)
(1.02155 -0.00455742 0)
(1.01988 -0.00393263 0)
(1.01849 -0.00326139 0)
(1.0173 -0.00270129 0)
(1.01639 -0.00187029 0)
(1.01585 -0.00112054 0)
(1.01544 -0.000496976 0)
(1.35204 0.124052 0)
(1.29963 0.120498 0)
(1.25641 0.114884 0)
(1.22468 0.102403 0)
(1.19069 0.0999194 0)
(1.16837 0.0931639 0)
(1.14945 0.0856815 0)
(1.13043 0.0756371 0)
(1.11304 0.0668875 0)
(1.09762 0.0550334 0)
(1.08482 0.0449348 0)
(1.07477 0.0334469 0)
(1.06636 0.0239295 0)
(1.05829 0.0145212 0)
(1.05114 0.00762025 0)
(1.04596 0.00119221 0)
(1.04163 -0.00299253 0)
(1.03802 -0.00579658 0)
(1.03437 -0.00664612 0)
(1.03115 -0.00639377 0)
(1.02839 -0.00578463 0)
(1.02622 -0.00517472 0)
(1.0242 -0.00461836 0)
(1.02231 -0.00410545 0)
(1.02068 -0.00359078 0)
(1.01926 -0.00299864 0)
(1.01803 -0.00250333 0)
(1.01707 -0.00175001 0)
(1.01645 -0.00105419 0)
(1.01602 -0.000469275 0)
(1.31617 0.172661 0)
(1.27039 0.167812 0)
(1.24164 0.143714 0)
(1.2169 0.119384 0)
(1.19428 0.104508 0)
(1.17307 0.0877391 0)
(1.14877 0.0706045 0)
(1.12389 0.0602519 0)
(1.10367 0.0486845 0)
(1.08818 0.0393036 0)
(1.07679 0.0301929 0)
(1.06859 0.0227312 0)
(1.06284 0.0147999 0)
(1.05816 0.0085778 0)
(1.05336 0.00261076 0)
(1.04846 -0.00179324 0)
(1.04442 -0.00547997 0)
(1.03994 -0.00719052 0)
(1.03582 -0.00744486 0)
(1.03188 -0.0065922 0)
(1.02879 -0.00569218 0)
(1.02623 -0.00495497 0)
(1.02392 -0.00433642 0)
(1.02196 -0.00387217 0)
(1.02025 -0.00339676 0)
(1.01882 -0.00284294 0)
(1.01763 -0.00239404 0)
(1.01669 -0.0016851 0)
(1.01609 -0.00101489 0)
(1.01569 -0.000450205 0)
(1.29074 0.233906 0)
(1.24372 0.238081 0)
(1.21235 0.192628 0)
(1.17867 0.176227 0)
(1.1526 0.160444 0)
(1.13665 0.13966 0)
(1.12175 0.122998 0)
(1.10868 0.10583 0)
(1.0962 0.0884764 0)
(1.08306 0.0728777 0)
(1.07195 0.0589295 0)
(1.06301 0.0454034 0)
(1.05661 0.0335597 0)
(1.0499 0.0227687 0)
(1.0445 0.014311 0)
(1.041 0.00681619 0)
(1.03836 0.001492 0)
(1.03646 -0.00216332 0)
(1.03392 -0.00375997 0)
(1.03119 -0.00406389 0)
(1.02871 -0.0039706 0)
(1.02637 -0.00367313 0)
(1.02431 -0.0034161 0)
(1.0225 -0.00318648 0)
(1.02086 -0.00289292 0)
(1.01949 -0.00248099 0)
(1.01831 -0.00213226 0)
(1.01736 -0.00152389 0)
(1.01674 -0.00092891 0)
(1.01632 -0.000417603 0)
(1.24136 0.268888 0)
(1.19108 0.269686 0)
(1.18696 0.196852 0)
(1.16487 0.178377 0)
(1.1498 0.150265 0)
(1.13479 0.120389 0)
(1.11069 0.0994781 0)
(1.09099 0.0791575 0)
(1.07363 0.0631895 0)
(1.06257 0.0487786 0)
(1.05446 0.0375508 0)
(1.0503 0.0273698 0)
(1.04739 0.0185662 0)
(1.04545 0.0112689 0)
(1.04335 0.00478007 0)
(1.0407 0.000130639 0)
(1.03881 -0.00335756 0)
(1.03648 -0.00512333 0)
(1.0339 -0.00543917 0)
(1.0309 -0.00489475 0)
(1.02815 -0.00425904 0)
(1.02558 -0.00372973 0)
(1.02346 -0.0033564 0)
(1.02163 -0.00308893 0)
(1.02004 -0.00277856 0)
(1.01877 -0.00237058 0)
(1.0177 -0.00203907 0)
(1.01683 -0.0014591 0)
(1.01629 -0.000885358 0)
(1.01591 -0.000396302 0)
(1.19369 0.32279 0)
(1.14219 0.323074 0)
(1.14376 0.248957 0)
(1.11194 0.242119 0)
(1.10397 0.201325 0)
(1.08862 0.174413 0)
(1.08459 0.14762 0)
(1.07768 0.123797 0)
(1.07211 0.100729 0)
(1.06296 0.083238 0)
(1.05584 0.0665942 0)
(1.0493 0.0529856 0)
(1.04501 0.0406218 0)
(1.04076 0.0299298 0)
(1.03768 0.0207359 0)
(1.03602 0.0131668 0)
(1.03499 0.00705112 0)
(1.03484 0.00261439 0)
(1.03328 8.94242e-05 0)
(1.03116 -0.00104866 0)
(1.0287 -0.00165059 0)
(1.02631 -0.00187166 0)
(1.02429 -0.0020806 0)
(1.02246 -0.00217194 0)
(1.02089 -0.00214066 0)
(1.0196 -0.00193756 0)
(1.01849 -0.00173647 0)
(1.01759 -0.00127737 0)
(1.017 -0.0007919 0)
(1.0166 -0.000361749 0)
(1.1338 0.326667 0)
(1.07986 0.321186 0)
(1.11312 0.228177 0)
(1.08032 0.231885 0)
(1.08576 0.173704 0)
(1.07747 0.148129 0)
(1.06107 0.12178 0)
(1.05017 0.0956763 0)
(1.03995 0.0758687 0)
(1.03566 0.0571319 0)
(1.03232 0.0436925 0)
(1.03241 0.0310838 0)
(1.03219 0.0217865 0)
(1.033 0.0135372 0)
(1.03319 0.00738633 0)
(1.03257 0.0029804 0)
(1.03321 -1.57219e-05 0)
(1.03295 -0.00181051 0)
(1.03192 -0.00233979 0)
(1.02994 -0.0024521 0)
(1.02752 -0.00231584 0)
(1.0252 -0.00224929 0)
(1.02319 -0.00223179 0)
(1.02146 -0.00219887 0)
(1.02 -0.0021031 0)
(1.01881 -0.0018592 0)
(1.01781 -0.0016505 0)
(1.017 -0.00120872 0)
(1.01647 -0.000740215 0)
(1.01611 -0.000336971 0)
(1.06915 0.353807 0)
(1.01615 0.350819 0)
(1.06078 0.265902 0)
(1.02693 0.266346 0)
(1.03503 0.208004 0)
(1.02759 0.187331 0)
(1.03405 0.152235 0)
(1.03697 0.125554 0)
(1.03929 0.101629 0)
(1.03751 0.0849192 0)
(1.03701 0.0681346 0)
(1.0348 0.056405 0)
(1.03442 0.0449626 0)
(1.03335 0.035848 0)
(1.03295 0.0270178 0)
(1.03316 0.0199974 0)
(1.03371 0.0133509 0)
(1.03444 0.00844468 0)
(1.03371 0.00479599 0)
(1.03186 0.00259243 0)
(1.02936 0.00108402 0)
(1.02689 0.00014486 0)
(1.02473 -0.000598387 0)
(1.02284 -0.00107008 0)
(1.02123 -0.00133515 0)
(1.01991 -0.00135047 0)
(1.01879 -0.00130733 0)
(1.01788 -0.00100437 0)
(1.01727 -0.000636351 0)
(1.01688 -0.000300674 0)
(0.998854 0.348668 0)
(0.951135 0.317399 0)
(1.01051 0.26775 0)
(0.969151 0.243149 0)
(1.01413 0.184516 0)
(1.0031 0.164663 0)
(1.00395 0.133541 0)
(1.00534 0.106853 0)
(1.00563 0.0856365 0)
(1.00933 0.0641532 0)
(1.01157 0.0491185 0)
(1.01599 0.0348728 0)
(1.01807 0.0253765 0)
(1.0211 0.0165807 0)
(1.02315 0.0112828 0)
(1.02468 0.00718477 0)
(1.02714 0.0049044 0)
(1.0288 0.00298938 0)
(1.02939 0.0018659 0)
(1.02843 0.000799618 0)
(1.02658 0.000126143 0)
(1.02463 -0.0004643 0)
(1.02283 -0.000897722 0)
(1.02129 -0.00117098 0)
(1.01997 -0.00132219 0)
(1.01887 -0.00126551 0)
(1.01793 -0.00120097 0)
(1.01716 -0.000912364 0)
(1.01663 -0.000565695 0)
(1.01628 -0.000269994 0)
(0.916051 0.321521 0)
(0.89487 0.283771 0)
(0.976756 0.235159 0)
(0.897841 0.234921 0)
(0.956542 0.179098 0)
(0.947697 0.168053 0)
(0.97356 0.131232 0)
(0.984088 0.110392 0)
(0.995359 0.0903327 0)
(1.00415 0.0767439 0)
(1.01243 0.0632032 0)
(1.01701 0.0548841 0)
(1.02224 0.0459384 0)
(1.02554 0.0394262 0)
(1.02842 0.0318035 0)
(1.03054 0.0260342 0)
(1.0321 0.0194093 0)
(1.03338 0.0142637 0)
(1.03313 0.00961912 0)
(1.03148 0.00638949 0)
(1.02915 0.00389739 0)
(1.02674 0.00218938 0)
(1.02461 0.000897094 0)
(1.02279 2.97435e-05 0)
(1.02125 -0.000517649 0)
(1.01999 -0.00074286 0)
(1.01893 -0.000858552 0)
(1.01807 -0.000710466 0)
(1.01749 -0.000465116 0)
(1.01711 -0.000236128 0)
(0.845823 0.307361 0)
(0.822681 0.273251 0)
(0.935635 0.212091 0)
(0.886129 0.193963 0)
(0.93847 0.147571 0)
(0.936453 0.140716 0)
(0.948681 0.116016 0)
(0.961023 0.0999858 0)
(0.974473 0.0821202 0)
(0.984455 0.0639473 0)
(0.992137 0.0502098 0)
(0.999592 0.0371186 0)
(1.00387 0.0284679 0)
(1.00838 0.0201432 0)
(1.01176 0.0161088 0)
(1.01507 0.012452 0)
(1.01887 0.0108147 0)
(1.02226 0.00854089 0)
(1.02429 0.00661335 0)
(1.02466 0.00440462 0)
(1.02385 0.00274571 0)
(1.02268 0.00142226 0)
(1.02148 0.000486251 0)
(1.02038 -0.000119677 0)
(1.01941 -0.000525152 0)
(1.01855 -0.00066169 0)
(1.0178 -0.000744209 0)
(1.01715 -0.00060838 0)
(1.0167 -0.000387032 0)
(1.01639 -0.000202545 0)
(0.790952 0.279559 0)
(0.766416 0.249136 0)
(0.842472 0.227411 0)
(0.831316 0.189812 0)
(0.881812 0.156371 0)
(0.907063 0.120653 0)
(0.927853 0.091571 0)
(0.942834 0.0761497 0)
(0.956472 0.0636353 0)
(0.973289 0.0562232 0)
(0.988404 0.0495642 0)
(1.00005 0.0456173 0)
(1.01057 0.040644 0)
(1.01823 0.0376025 0)
(1.0242 0.0321867 0)
(1.02784 0.0283742 0)
(1.03006 0.022668 0)
(1.03127 0.0180112 0)
(1.03113 0.0130474 0)
(1.02983 0.00919352 0)
(1.02791 0.00601555 0)
(1.02584 0.0037241 0)
(1.02397 0.00202894 0)
(1.02236 0.000875976 0)
(1.021 0.000121086 0)
(1.01987 -0.000255195 0)
(1.01894 -0.000488514 0)
(1.01816 -0.000462995 0)
(1.01764 -0.000319326 0)
(1.0173 -0.000179189 0)
(0.744001 0.187185 0)
(0.748677 0.129365 0)
(0.79927 0.135907 0)
(0.803488 0.0983095 0)
(0.825155 0.0995337 0)
(0.858792 0.0863568 0)
(0.900954 0.0761239 0)
(0.932963 0.0654734 0)
(0.956999 0.0571933 0)
(0.970081 0.0498427 0)
(0.981461 0.0421575 0)
(0.989922 0.034559 0)
(0.995681 0.0291641 0)
(1.0001 0.0230849 0)
(1.00392 0.0206168 0)
(1.00796 0.0174478 0)
(1.01201 0.0161822 0)
(1.01613 0.0135001 0)
(1.019 0.010753 0)
(1.02065 0.00751422 0)
(1.02097 0.00499 0)
(1.02075 0.00304809 0)
(1.02024 0.00168854 0)
(1.01964 0.000798661 0)
(1.01899 0.000174638 0)
(1.01833 -0.000136339 0)
(1.01772 -0.000348543 0)
(1.01715 -0.00034431 0)
(1.01674 -0.00023375 0)
(1.01646 -0.00014303 0)
(0.665622 0.04835 0)
(0.697536 -0.00592745 0)
(0.763925 -0.000448765 0)
(0.789996 -0.0247985 0)
(0.838292 -0.0162002 0)
(0.872474 -0.0115323 0)
(0.89255 -0.0029342 0)
(0.919409 0.00721017 0)
(0.940566 0.0127273 0)
(0.961805 0.0173735 0)
(0.97754 0.0215326 0)
(0.992313 0.0242831 0)
(1.00401 0.0252834 0)
(1.01446 0.0266767 0)
(1.0222 0.0247731 0)
(1.02663 0.0238816 0)
(1.02902 0.0204947 0)
(1.0295 0.0175291 0)
(1.02922 0.0134515 0)
(1.02811 0.00989585 0)
(1.02666 0.00674725 0)
(1.02505 0.00432526 0)
(1.02352 0.00254656 0)
(1.02216 0.00131978 0)
(1.02093 0.000512176 0)
(1.0199 7.04293e-05 0)
(1.01903 -0.000223459 0)
(1.01829 -0.000276686 0)
(1.01779 -0.000206305 0)
(1.01747 -0.000132832 0)
(0.645833 -0.0844258 0)
(0.685997 -0.100158 0)
(0.764899 -0.0971591 0)
(0.808568 -0.0867704 0)
(0.847916 -0.0495667 0)
(0.889038 -0.0369777 0)
(0.928614 -0.0164057 0)
(0.950236 -0.00404705 0)
(0.964349 0.00896424 0)
(0.97554 0.0187388 0)
(0.985702 0.0233667 0)
(0.99136 0.0256139 0)
(0.996508 0.0259372 0)
(0.99875 0.0235779 0)
(1.00131 0.0229461 0)
(1.00459 0.0204138 0)
(1.00756 0.0192137 0)
(1.01124 0.0162528 0)
(1.01413 0.0130332 0)
(1.01653 0.009364 0)
(1.01792 0.00638766 0)
(1.01871 0.0041435 0)
(1.01896 0.00255549 0)
(1.01887 0.00150139 0)
(1.01855 0.000733722 0)
(1.01811 0.000285445 0)
(1.01761 -2.62888e-05 0)
(1.01712 -0.000127393 0)
(1.01674 -0.000108178 0)
(1.01649 -9.45788e-05 0)
(0.647986 -0.163881 0)
(0.672296 -0.158138 0)
(0.769176 -0.165247 0)
(0.86312 -0.15952 0)
(0.90189 -0.116874 0)
(0.920987 -0.0734337 0)
(0.941005 -0.0496764 0)
(0.956306 -0.0405843 0)
(0.972109 -0.0317331 0)
(0.979757 -0.0262352 0)
(0.985638 -0.0164161 0)
(0.994926 -0.00841079 0)
(1.00221 -0.00121761 0)
(1.0121 0.00517222 0)
(1.01925 0.00821938 0)
(1.02379 0.0110433 0)
(1.02616 0.0113589 0)
(1.02595 0.0113435 0)
(1.02548 0.00971053 0)
(1.02472 0.00767166 0)
(1.02402 0.00549722 0)
(1.02315 0.00361104 0)
(1.02219 0.00221671 0)
(1.02127 0.00121709 0)
(1.0204 0.000540093 0)
(1.0196 0.000164599 0)
(1.0189 -0.00010928 0)
(1.0183 -0.000184206 0)
(1.01787 -0.000143813 0)
(1.0176 -0.00010515 0)
(0.680795 -0.138098 0)
(0.707092 -0.0914176 0)
(0.794609 -0.0834592 0)
(0.911121 -0.0999935 0)
(0.981704 -0.0967753 0)
(0.989659 -0.0635138 0)
(0.976528 -0.0478801 0)
(0.972145 -0.0189532 0)
(0.980751 -0.0090276 0)
(0.993605 0.00356075 0)
(1.00533 0.00984955 0)
(1.00635 0.0157093 0)
(1.00958 0.0190389 0)
(1.0063 0.0201282 0)
(1.00609 0.0209796 0)
(1.00648 0.0193693 0)
(1.00688 0.0181571 0)
(1.00881 0.0153168 0)
(1.01063 0.0122588 0)
(1.01302 0.00903619 0)
(1.01503 0.00631226 0)
(1.01656 0.00428869 0)
(1.01746 0.00278038 0)
(1.01785 0.0017318 0)
(1.01787 0.000940511 0)
(1.01766 0.000453216 0)
(1.01734 0.000105388 0)
(1.01699 -4.02017e-05 0)
(1.01669 -5.86213e-05 0)
(1.01649 -7.39381e-05 0)
(0.781617 -0.0976521 0)
(0.760137 -0.025574 0)
(1.13754 -0.098306 6.822e-21)
(1.13415 -0.0872158 -2.77297e-22)
(1.13504 -0.0769805 -1.8339e-21)
(1.12891 -0.0713793 -2.78118e-21)
(1.11983 -0.0665889 3.92801e-22)
(1.11647 -0.0648044 -3.69265e-21)
(1.11238 -0.0613515 1.06e-20)
(1.10374 -0.0532247 -7.45664e-21)
(1.09474 -0.0472846 1.11458e-20)
(1.0873 -0.0430725 3.20054e-21)
(1.1773 -0.0759962 3.0402e-21)
(1.15458 -0.0845826 1.63571e-21)
(1.1342 -0.0745504 -4.60072e-21)
(1.11806 -0.0573955 -9.56876e-22)
(1.10519 -0.0475061 -5.1758e-21)
(1.09846 -0.043546 6.75946e-21)
(1.09189 -0.0354524 8.25019e-21)
(1.08525 -0.028134 -1.33754e-20)
(1.08567 -0.0272348 3.20371e-21)
(1.08621 -0.0273127 1.44417e-21)
(1.07985 -0.0241973 2.05038e-21)
(1.0727 -0.0212617 -4.14118e-22)
(1.06604 -0.0189724 8.52019e-21)
(1.05885 -0.0156999 -7.19522e-21)
(1.05282 -0.0135654 -8.08132e-21)
(1.04724 -0.0120184 8.78143e-21)
(1.04018 -0.0107228 -9.87978e-21)
(1.03359 -0.00952761 6.47747e-21)
(1.02886 -0.00884285 2.12309e-21)
(1.02579 -0.00830411 -1.78936e-21)
(1.02358 -0.00779859 5.03974e-22)
(1.02196 -0.00725623 1.21612e-21)
(1.02044 -0.00652247 -2.03216e-22)
(1.01894 -0.00566637 -2.2712e-21)
(1.01782 -0.00481197 1.58212e-21)
(1.01678 -0.00391128 -5.32054e-22)
(1.0159 -0.00311301 3.86756e-22)
(1.01526 -0.00205014 -7.05912e-22)
(1.0148 -0.00122473 -7.33482e-22)
(1.01451 -0.000567739 -1.98883e-21)
(1.14857 -0.0804415 -4.48766e-21)
(1.16313 -0.0754553 2.80906e-21)
(1.16279 -0.0724652 4.31151e-21)
(1.15109 -0.0644453 -1.93454e-21)
(1.1423 -0.0601318 -9.65519e-21)
(1.13585 -0.0565012 1.13124e-20)
(1.11953 -0.0457413 -4.55588e-21)
(1.10517 -0.0353696 8.66997e-21)
(1.09941 -0.0315524 -8.23615e-21)
(1.09076 -0.028103 -3.63025e-21)
(1.07972 -0.0235168 9.54106e-21)
(1.07213 -0.0217414 2.51541e-21)
(1.06482 -0.0198835 -4.13742e-21)
(1.0571 -0.0176644 -1.60379e-21)
(1.05154 -0.0160747 -3.93216e-21)
(1.04612 -0.0150787 3.00013e-21)
(1.03987 -0.0134211 1.97468e-21)
(1.03403 -0.012014 5.74182e-21)
(1.02956 -0.0106839 -1.44079e-20)
(1.02656 -0.00965996 5.4553e-21)
(1.02433 -0.00870953 2.79364e-22)
(1.0228 -0.00791253 3.70287e-22)
(1.02117 -0.00694157 2.11088e-23)
(1.01968 -0.0059449 -8.91391e-22)
(1.01852 -0.00500704 1.96032e-21)
(1.01738 -0.00401918 -2.52254e-23)
(1.01646 -0.00318248 4.21073e-22)
(1.01577 -0.00209677 -7.98877e-22)
(1.01526 -0.00123958 1.1354e-21)
(1.01494 -0.000569027 3.48354e-22)
(1.2073 -0.0731232 3.82846e-21)