/*--------------------------------*- C++ -*----------------------------------*\
| =========                 |                                                 |
| \\      /  F ield         | OpenFOAM: The Open Source CFD Toolbox           |
|  \\    /   O peration     | Version:                                        |
|   \\  /    A nd           | Website:  www.openfoam.com                      |
|    \\/     M anipulation  |                                                 |
\*---------------------------------------------------------------------------*/
FoamFile
{
    version     2.0;
    format      ascii;
    class       surfaceScalarField;
    location    "129.3";
    object      phi;
}
// * * * * * * * * * * * * * * * * * * * * * * * * * * * * * * * * * * * * * //

dimensions      [0 3 -1 0 0 0 0];
oriented        oriented;


internalField   nonuniform List<scalar> 
2257
(
-0.088991
0.0341859
-0.0844081
0.0309288
-0.0791772
0.0290409
-0.0742326
0.0294424
-0.0693559
0.0301358
0.0309471
-0.0784729
0.0278619
-0.0723275
0.0247834
-0.0665577
0.0232711
-0.0609508
0.0238355
-0.056177
0.0253619
-0.0519861
0.0267562
-0.0490146
0.028714
-0.0471502
0.0296491
-0.0459012
0.0304033
0.0309949
-0.0750615
0.0249795
-0.0713828
0.0211047
-0.0663787
0.018267
-0.0602854
0.0177422
-0.0535677
0.0186442
-0.0466044
0.0197929
-0.0407942
0.0229038
-0.0365911
0.025446
-0.0342893
0.0281015
0.030142
-0.0334364
-0.027404
0.0219527
-0.0249247
0.0186254
-0.0243411
0.0176834
-0.0254499
0.0188509
-0.0269235
0.0201178
-0.0279701
0.0208395
-0.0274898
0.0224236
-0.0256758
0.0236319
-0.0233833
0.025809
0.0280404
-0.0212818
0.0168009
0.0248198
0.0128143
0.022612
0.00856004
0.0219376
0.00458161
0.0228293
0.000609561
0.0240899
-0.00507926
0.0265284
-0.0100243
0.0273686
-0.0129698
0.0265774
-0.0127525
0.0255917
0.024958
-0.00967007
0.0592696
0.0307864
0.0504628
0.0314188
0.0392408
0.0331596
0.0275644
0.0345057
0.0166058
0.0350485
0.00702096
0.0361132
-0.00103844
0.035428
-0.00952652
0.0350655
-0.0164717
0.0325369
0.0281096
-0.0196233
0.0931318
0.0344773
0.089047
0.0355036
0.0842117
0.0379949
0.0773312
0.0413863
0.0662562
0.0461235
0.0534326
0.0489367
0.0389237
0.0499369
0.0249554
0.0490339
0.0108214
0.0466708
0.041707
-0.00277596
0.0862512
0.0344847
0.0866789
0.0350759
0.0867589
0.0379149
0.0868271
0.0413181
0.085818
0.0471326
0.0822644
0.0524903
0.0737848
0.0584165
0.0632714
0.0595473
0.0492452
0.0606971
0.0560162
0.034936
0.121541
0.0317054
0.122245
0.0343718
0.120721
0.0394391
0.118725
0.0433142
0.115888
0.04997
0.112817
0.0555613
0.107901
0.0633318
0.100459
0.0669898
0.0905344
0.0706214
0.0683888
0.0781617
0.0948791
0.0267756
0.0993068
0.0299441
0.103194
0.0355518
0.10609
0.0404179
0.107676
0.0483845
0.109264
0.0539736
0.108211
0.064384
0.10595
0.0692514
0.102708
0.0738631
0.0751639
0.095933
0.0395183
0.0286575
0.0390221
0.0304404
0.0406479
0.033926
0.0437195
0.0373463
0.0482081
0.0438959
0.0524124
0.0497693
0.0576152
0.0591813
0.0628518
0.0640148
0.0670075
0.0697074
0.0715337
0.0706378
-0.00447812
0.036128
-0.0114892
0.0374515
-0.0167926
0.0392293
-0.0208992
0.0414529
-0.0216172
0.0446139
-0.0203667
0.0485188
-0.0146381
0.0534527
-0.00776827
0.0571449
0.00144501
0.0604942
0.0619599
0.0110187
-0.0770533
0.0369352
-0.0782972
0.0386954
-0.0789068
0.0398388
-0.0803177
0.0428638
-0.0804497
0.0447459
-0.079947
0.0480161
-0.0769096
0.0504153
-0.0725313
0.0527667
-0.0662945
0.0542573
0.0556241
-0.0599586
-0.0777364
0.036891
-0.0780917
0.0390508
-0.0779224
0.0396694
-0.0771164
0.0420578
-0.0754272
0.0430568
-0.0726707
0.0452597
-0.0686712
0.0464158
-0.0639034
0.0479988
-0.0584531
0.0488071
0.0494807
-0.0523098
-0.119451
0.0358588
-0.117087
0.0366866
-0.113941
0.0365241
-0.109212
0.0373281
-0.103486
0.0373309
-0.0960271
0.037801
-0.0875031
0.0378918
-0.0780435
0.0385393
-0.0686535
0.0394171
0.0402899
-0.0594627
-0.125522
0.0375019
-0.12622
0.0373851
-0.126282
0.0365857
-0.125595
0.0366408
-0.12445
0.0361861
-0.122766
0.0361173
-0.12081
0.035936
-0.11797
0.0356988
-0.114218
0.0356652
0.0355471
-0.109475
-0.0293315
0.0398979
-0.0318392
0.0398928
-0.0346839
0.0394304
-0.0378538
0.0398106
-0.0414103
0.0397426
-0.0451853
0.0398922
-0.0492058
0.0399565
-0.053218
0.039711
-0.0572956
0.0397427
0.0391117
-0.0608601
-0.0041182
0.0444782
-0.00784873
0.0436234
-0.0113354
0.0429171
-0.013985
0.0424602
-0.0162133
0.041971
-0.0180324
0.0417112
-0.0193784
0.0413025
-0.0208612
0.0411939
-0.0226888
0.0415703
0.041016
-0.0245931
0.103456
0.0460739
0.101932
0.0451474
0.0996874
0.0451619
0.0974421
0.0447055
0.0944448
0.0449682
0.091307
0.0448491
0.0879114
0.0446982
0.0846901
0.0444152
0.0815876
0.0446727
0.0441423
0.0784613
0.154353
0.0459698
0.153847
0.0456532
0.152866
0.0461432
0.151613
0.0459585
0.150027
0.0465539
0.148264
0.0466129
0.145732
0.0472293
0.142926
0.0472212
0.139488
0.0481113
0.0478199
0.13581
0.0918058
0.0469001
0.0908454
0.0466137
0.09035
0.0466386
0.0897802
0.0465282
0.0892648
0.0470693
0.0882253
0.0476524
0.086632
0.0488227
0.0840836
0.0497695
0.0809179
0.0512771
0.0519501
0.0767877
0.0678171
0.0516076
0.0625396
0.0518912
0.0571312
0.052047
0.0514314
0.052228
0.0461099
0.0523908
0.0410116
0.0527507
0.0366751
0.0531592
0.0326964
0.0537481
0.0297601
0.0542134
0.0546378
0.0270724
-0.0888465
0.054343
-0.0915376
0.0545822
-0.0938702
0.0543797
-0.0962095
0.0545673
-0.0981618
0.0543431
-0.0998365
0.0544253
-0.10081
0.0541332
-0.101206
0.0541432
-0.100735
0.0537423
0.0534213
-0.099518
-0.173644
0.0538094
-0.172799
0.0537374
-0.171574
0.0531547
-0.170005
0.0529984
-0.168046
0.0523843
-0.165712
0.0520905
-0.162973
0.0513942
-0.15988
0.0510511
-0.156374
0.0502364
0.0495291
-0.152482
-0.10009
0.0531397
-0.0998865
0.053534
-0.10035
0.0536184
-0.101179
0.0538269
-0.102286
0.0534918
-0.103289
0.0530935
-0.103953
0.0520582
-0.104005
0.0511026
-0.103379
0.0496105
0.0480723
-0.101922
-0.0806689
0.0553202
-0.0823857
0.0552507
-0.0838506
0.0550833
-0.0848715
0.0548478
-0.0856412
0.0542614
-0.0860257
0.053478
-0.086212
0.0522445
-0.0858957
0.0507863
-0.0851394
0.0488541
0.0466966
-0.0837637
0.10563
0.0578874
0.104164
0.0567164
0.103754
0.0554934
0.104593
0.0540082
0.106345
0.0525102
0.109003
0.0508195
0.112182
0.049066
0.115847
0.0471214
0.119506
0.0451947
0.0431365
0.123066
0.232064
0.0564367
0.233071
0.0557091
0.233624
0.0549407
0.233736
0.0538955
0.233292
0.0529549
0.232236
0.0518753
0.230331
0.0509709
0.227509
0.0499437
0.223504
0.0491989
0.0483738
0.218267
0.00870655
0.055189
0.00929155
0.0551241
0.00918123
0.055051
0.00826136
0.0548154
0.00662088
0.0545954
0.0042101
0.0542861
0.00114296
0.054038
-0.00262952
0.0537161
-0.00685202
0.0534214
0.0530438
-0.0115221
-0.0791885
-0.0777371
-0.0762779
-0.074867
-0.0734414
-0.0720457
-0.0706189
-0.0692067
-0.0677311
-0.06626
-0.0325561
0.0529421
-0.0280483
0.0545215
-0.0237651
0.0644204
-0.020413
0.0649432
-0.0164054
0.0719594
-0.0131815
0.0769286
-0.0097438
0.082629
-0.00710127
0.0888883
-0.00487442
0.0954002
-0.00318967
0.102339
-0.0019373
0.109679
-0.00111727
0.117505
-0.000658756
0.125796
-0.000404477
0.134519
-0.000276991
0.143751
-0.000181984
0.153547
-0.0001087
0.164004
-3.57929e-05
0.175169
2.29437e-05
0.187114
6.6379e-05
0.199894
9.65806e-05
0.213567
0.000114016
0.228199
0.000121481
0.243855
0.00011734
0.260615
0.000101589
0.27855
7.57037e-05
0.297738
4.1299e-05
0.318285
0.340297
-0.0284026
0.0413541
-0.0245297
0.0434775
-0.0209826
0.049395
-0.0173065
0.0508454
-0.0117631
0.058877
-0.00875767
0.0619377
-0.00658061
0.0697823
-0.00510429
0.0754523
-0.00389058
0.0814153
-0.00289242
0.0878901
-0.00221977
0.0947275
-0.00175525
0.101875
-0.00143095
0.109354
-0.00111995
0.117194
-0.000805031
0.125481
-0.000569478
0.134283
-0.000398792
0.143581
-0.000297499
0.153446
-0.000214216
0.16392
-0.000131059
0.175086
-4.7501e-05
0.18703
2.48306e-05
0.199822
7.42497e-05
0.213517
0.000103574
0.22817
0.000112915
0.243846
0.000110059
0.260618
9.60252e-05
0.278564
7.14846e-05
0.297763
3.92081e-05
0.318317
0.340337
-0.0162672
0.0363394
-0.0131674
0.0403777
-0.0120222
0.0482498
-0.0138095
0.0526327
-0.0131811
0.0582485
-0.0125523
0.0613089
-0.0103906
0.0676206
-0.00863216
0.0736939
-0.00740923
0.0801923
-0.00617381
0.0866547
-0.00501316
0.0935669
-0.0039686
0.10083
-0.00311508
0.108501
-0.00247989
0.116559
-0.00197639
0.124978
-0.00154846
0.133855
-0.00117429
0.143206
-0.000859045
0.153131
-0.000598449
0.16366
-0.000395219
0.174883
-0.000238884
0.186874
-0.000122631
0.199705
-3.47316e-05
0.213429
2.43311e-05
0.22811
6.10063e-05
0.243809
7.77783e-05
0.260602
7.63027e-05
0.278566
6.08486e-05
0.297778
3.44802e-05
0.318343
0.340371
-0.0042287
0.0308981
0.00152841
0.0346206
0.00713534
0.0426428
0.00767204
0.052096
0.00450112
0.0614195
0.000185911
0.0656241
-0.00218523
0.0699918
-0.00305104
0.0745597
-0.00268424
0.0798255
-0.00217602
0.0861465
-0.00159867
0.0929895
-0.00105696
0.100288
-0.000654089
0.108098
-0.000289997
0.116195
-0.000131739
0.12482
-7.36444e-05
0.133797
-9.67992e-05
0.14323
-0.000115983
0.15315
-0.00010834
0.163652
-6.96646e-05
0.174844
-1.94704e-05
0.186823
2.68224e-05
0.199659
5.81112e-05
0.213398
7.91739e-05
0.228089
8.87832e-05
0.243799
8.94946e-05
0.260601
8.1501e-05
0.278574
6.25377e-05
0.297797
3.5041e-05
0.318371
0.340406
-0.0197888
0.0310635
-0.0183509
0.0331828
-0.0135416
0.0378335
-0.00789334
0.0464477
-0.00277442
0.0563005
-0.000417415
0.0632671
-0.000168278
0.0697426
-0.000920155
0.0753115
-0.00196449
0.0808699
-0.00283811
0.0870201
-0.00329478
0.0934462
-0.00355538
0.100549
-0.00349491
0.108038
-0.00335077
0.116051
-0.00291009
0.124379
-0.00239308
0.13328
-0.00184022
0.142677
-0.00135682
0.152667
-0.000966156
0.163262
-0.000670335
0.174549
-0.000442699
0.186596
-0.000271145
0.199487
-0.000138592
0.213265
-4.65471e-05
0.227997
1.36128e-05
0.243739
4.69279e-05
0.260568
5.71353e-05
0.278563
4.94929e-05
0.297805
2.94646e-05
0.318391
0.340436
-0.00992496
0.0382125
-0.0169832
0.0402411
-0.0225184
0.0433687
-0.0239919
0.0479212
-0.0202434
0.052552
-0.01482
0.0578437
-0.00947732
0.0643999
-0.00564523
0.0714794
-0.00324948
0.0784741
-0.00171428
0.0854849
-0.000671591
0.0924035
4.28929e-05
0.0998345
0.000530891
0.10755
0.000813039
0.115769
0.000754044
0.124438
0.000555958
0.133478
0.000327405
0.142905
0.000177812
0.152816
9.97327e-05
0.16334
7.5905e-05
0.174572
6.39815e-05
0.186608
6.33743e-05
0.199488
6.41233e-05
0.213265
7.10463e-05
0.22799
7.86381e-05
0.243732
8.07524e-05
0.260565
7.60729e-05
0.278568
6.01304e-05
0.297821
3.40897e-05
0.318417
0.34047
0.0297065
0.043442
0.0230713
0.0468762
0.0159318
0.0505081
0.0101918
0.0536613
0.00769568
0.0550482
0.00610792
0.0594314
0.00403222
0.0664756
0.00290224
0.0726094
0.00217435
0.079202
0.00146722
0.086192
-2.30416e-05
0.0938938
-0.00120957
0.101021
-0.0023223
0.108662
-0.00279837
0.116245
-0.00271972
0.124359
-0.00231774
0.133076
-0.00179839
0.142386
-0.00134457
0.152362
-0.000968247
0.162963
-0.000686208
0.17429
-0.000455971
0.186377
-0.000276001
0.199308
-0.000134818
0.213124
-3.62576e-05
0.227892
2.55926e-05
0.24367
5.93324e-05
0.260532
6.84219e-05
0.278559
5.80183e-05
0.297831
3.40303e-05
0.318441
0.340504
0.0697439
0.0518599
0.0604902
0.05613
0.0505219
0.0604764
0.0413025
0.0628806
0.0331556
0.0631951
0.0248864
0.0677006
0.0172443
0.0741178
0.0116182
0.0782355
0.00766967
0.0831505
0.00513128
0.0887304
0.00388662
0.0951384
0.00281848
0.102089
0.00236884
0.109112
0.00186185
0.116752
0.00133063
0.12489
0.000894189
0.133513
0.000542422
0.142738
0.000358161
0.152547
0.000248271
0.163073
0.000187613
0.174351
0.000135613
0.186429
0.000106233
0.199337
9.47457e-05
0.213135
9.80668e-05
0.227889
0.000108533
0.243659
0.000111498
0.260529
0.00010333
0.278567
8.11953e-05
0.297853
4.53673e-05
0.318477
0.340549
0.088113
0.0596799
0.078284
0.0659589
0.0666634
0.072097
0.0540654
0.0754787
0.0399338
0.0773266
0.0282979
0.0793366
0.0217775
0.0806381
0.0171508
0.0828622
0.013614
0.0866874
0.00960675
0.0927376
0.00599884
0.0987463
0.00309434
0.104994
0.000861078
0.111345
-0.000391642
0.118005
-0.000861764
0.125361
-0.000947478
0.133599
-0.000807541
0.142598
-0.000649131
0.152388
-0.000482076
0.162906
-0.000330424
0.174199
-0.000184232
0.186283
-6.06479e-05
0.199214
3.28341e-05
0.213042
9.80596e-05
0.227823
0.000130796
0.243627
0.000140798
0.260519
0.000130077
0.278578
0.000100099
0.297883
5.56004e-05
0.318521
0.340605
0.0649137
0.065404
0.0575023
0.0733703
0.0487068
0.0808926
0.0382245
0.0859609
0.026809
0.0887421
0.0172973
0.0888483
0.0110472
0.0868882
0.00679297
0.0871164
0.00385107
0.0896293
0.00228092
0.0943078
0.00126544
0.0997618
0.000742758
0.105516
0.000406066
0.111682
0.000143656
0.118267
-9.34092e-05
0.125598
-0.00013658
0.133642
-0.000135923
0.142597
-6.49076e-05
0.152317
-1.62993e-05
0.162857
2.28892e-05
0.17416
4.51357e-05
0.186261
7.53723e-05
0.199184
0.000114583
0.213002
0.000150449
0.227787
0.000177157
0.2436
0.000182839
0.260513
0.000165022
0.278596
0.000126529
0.297922
6.96179e-05
0.318578
0.340674
0.0101705
0.0662522
0.0106292
0.0729116
0.0120026
0.0795191
0.0136746
0.084289
0.0161421
0.0862746
0.0169471
0.0880433
0.0161971
0.0876382
0.0133151
0.0899984
0.00953779
0.0934066
0.00681558
0.09703
0.00484201
0.101735
0.00333089
0.107027
0.0024551
0.112558
0.00174509
0.118977
0.00129568
0.126047
0.000844366
0.134093
0.000574176
0.142867
0.000376044
0.152515
0.000298916
0.162935
0.000283995
0.174175
0.000306868
0.186238
0.000332141
0.199158
0.000340525
0.212994
0.000338095
0.22779
0.00031914
0.243619
0.000286028
0.260546
0.000239029
0.278643
0.00017405
0.297987
9.33681e-05
0.318659
0.340768
-0.0588319
0.0651255
-0.0551859
0.0692657
-0.0502488
0.074582
-0.0421313
0.0761715
-0.0348175
0.0789608
-0.0273601
0.0805859
-0.0215839
0.081862
-0.0176397
0.0860542
-0.0142088
0.0899758
-0.0116339
0.094455
-0.00979779
0.0998993
-0.00764368
0.104873
-0.00628635
0.1112
-0.00489143
0.117582
-0.00376129
0.124917
-0.0026736
0.133005
-0.00183351
0.142027
-0.00119523
0.151877
-0.00074742
0.162487
-0.000423815
0.173851
-0.000174329
0.185989
1.98655e-05
0.198964
0.000170418
0.212843
0.000265936
0.227694
0.000310627
0.243574
0.000311632
0.260545
0.000272385
0.278682
0.000202761
0.298056
0.000109796
0.318752
0.340877
-0.0460984
0.0589141
-0.0388495
0.0620168
-0.0323301
0.0680627
-0.024994
0.0688354
-0.021543
0.0755097
-0.0176016
0.0766446
-0.0165907
0.080851
-0.0132301
0.0826937
-0.0106486
0.0873943
-0.00733541
0.0911418
-0.00424721
0.0968111
-0.00186476
0.102491
5.73491e-05
0.109278
0.00125397
0.116385
0.00163304
0.124538
0.00158887
0.13305
0.00136135
0.142255
0.00116456
0.152074
0.00100898
0.162642
0.000911132
0.173949
0.000828701
0.186071
0.000755824
0.199037
0.000682209
0.212917
0.000613651
0.227763
0.000547349
0.24364
0.000471084
0.260621
0.000381105
0.278772
0.000272469
0.298165
0.000144133
0.31888
0.341022
-0.0508127
0.0502641
-0.0417349
0.0529389
-0.0328708
0.0591986
-0.0260724
0.062037
-0.0205198
0.0699572
-0.016745
0.0728698
-0.0157447
0.0798507
-0.0130508
0.0799997
-0.0136415
0.087985
-0.012159
0.0896594
-0.0108608
0.0955129
-0.00979112
0.101421
-0.00841908
0.107906
-0.00727912
0.115246
-0.00566299
0.122922
-0.00424646
0.131633
-0.00294802
0.140956
-0.00196523
0.151091
-0.00117873
0.161856
-0.000588221
0.173359
-0.000139414
0.185622
0.000175084
0.198723
0.000377493
0.212715
0.00048557
0.227655
0.000513438
0.243613
0.000483586
0.260651
0.000408205
0.278847
0.000296756
0.298276
0.000158577
0.319018
0.34118
-0.104386
0.0451752
-0.0999006
0.0484533
-0.0946268
0.0539248
-0.090103
0.0575131
-0.0831441
0.0629983
-0.0759204
0.0656462
-0.0656322
0.0695625
-0.0536031
0.0679706
-0.0406086
0.0749905
-0.0291841
0.0782348
-0.0189517
0.0852805
-0.0113018
0.0937713
-0.00568878
0.102293
-0.00190238
0.111459
-1.88061e-05
0.121038
0.000948084
0.130666
0.00125906
0.140645
0.00134089
0.151009
0.00127663
0.16192
0.00118206
0.173453
0.00107255
0.185732
0.000975171
0.19882
0.000892214
0.212798
0.000812837
0.227734
0.000731854
0.243694
0.000634194
0.260749
0.000511602
0.27897
0.000364887
0.298423
0.000192688
0.319191
0.341373
-0.0591543
0.0434694
-0.0574751
0.0467741
-0.0547746
0.0512243
-0.0519308
0.0546693
-0.0479076
0.0589751
-0.042963
0.0607015
-0.0347588
0.0613583
-0.0254815
0.0586933
-0.0144029
0.0639119
-0.00807761
0.0719095
-0.00515979
0.0823627
-0.00334404
0.0919555
-0.00285743
0.101807
-0.00228507
0.110887
-0.00173857
0.120492
-0.00121403
0.130142
-0.000688614
0.14012
-0.000197485
0.150518
0.000230126
0.161493
0.000542859
0.173141
0.000750464
0.185524
0.000861774
0.198709
0.000897383
0.212762
0.000879159
0.227752
0.000814848
0.243758
0.000711333
0.260852
0.000576839
0.279104
0.000410739
0.298589
0.000216665
0.319385
0.341589
-0.0191777
0.038054
-0.0141442
0.0417406
-0.00862064
0.0457007
-0.00285871
0.0489074
0.00327724
0.0528391
0.0085057
0.0554731
0.0117823
0.0580816
0.0115168
0.0589588
0.00960535
0.0658234
0.00659261
0.0749222
0.00372285
0.0852325
0.00228688
0.0933915
0.00176003
0.102333
0.00131665
0.11133
0.00117146
0.120637
0.00108353
0.13023
0.00101797
0.140185
0.000964149
0.150572
0.00093911
0.161518
0.000948617
0.173131
0.000976775
0.185496
0.00100392
0.198682
0.00101345
0.212752
0.000986283
0.22778
0.000916344
0.243828
0.000807856
0.260961
0.000656484
0.279256
0.000467856
0.298778
0.00024709
0.319605
0.341837
0.082049
0.0344663
0.086016
0.0377736
0.0900967
0.0416201
0.093241
0.045763
0.0951062
0.0509739
0.0934628
0.0571165
0.0870776
0.0644669
0.0747202
0.0713163
0.058916
0.0816275
0.0443669
0.0894714
0.0341735
0.0954258
0.0255386
0.102026
0.0198682
0.108004
0.0152346
0.115964
0.0116357
0.124236
0.00870472
0.13316
0.00651037
0.14238
0.00492444
0.152158
0.00377968
0.162662
0.00295953
0.173951
0.00236539
0.18609
0.00194402
0.199103
0.00163984
0.213057
0.00140527
0.228014
0.00120684
0.244026
0.00100762
0.26116
0.000794646
0.279469
0.000557421
0.299015
0.000291592
0.319871
0.342128
0.131465
0.0388112
0.125857
0.0433824
0.118903
0.0485737
0.109915
0.0547513
0.0989091
0.0619795
0.0857276
0.0702979
0.0710305
0.079164
0.0546694
0.0876774
0.0401816
0.0961154
0.0268072
0.102846
0.0176848
0.104548
0.0105224
0.109189
0.00450983
0.114016
0.00109551
0.119378
-0.000438114
0.125769
-0.000757008
0.133479
-0.000457376
0.14208
-3.7116e-05
0.151738
0.000409432
0.162216
0.000797232
0.173563
0.00110619
0.185781
0.00130281
0.198906
0.0013847
0.212975
0.00137143
0.228027
0.00127252
0.244125
0.00111054
0.261322
0.000895363
0.279684
0.000633153
0.299277
0.000332485
0.320172
0.342461
0.0676637
0.0479352
0.0574674
0.0535787
0.0464157
0.0596254
0.0353608
0.0658062
0.0248078
0.0725325
0.0158261
0.0792796
0.00907386
0.0859163
0.00495196
0.0917993
0.00503773
0.0960296
0.00553808
0.102345
0.00724099
0.102845
0.00868702
0.107743
0.0093481
0.113355
0.00957366
0.119152
0.00866511
0.126678
0.00755401
0.13459
0.00625766
0.143377
0.00511943
0.152876
0.0041684
0.163167
0.00343522
0.174297
0.00289617
0.18632
0.00251076
0.199292
0.00222278
0.213263
0.00196589
0.228284
0.00171202
0.244379
0.0014391
0.261595
0.0011322
0.279991
0.000790584
0.299619
0.000412031
0.320551
0.342873
0.0199624
0.0550452
0.0131561
0.0603849
0.00692261
0.0658589
0.00156013
0.0711687
-0.00259328
0.0766859
-0.00509934
0.0817856
-0.00592323
0.0867402
-0.00572999
0.091606
-0.00419645
0.0944961
-0.00205059
0.1002
-0.0037728
0.104568
-0.002617
0.106587
-0.00281803
0.113556
-0.00224698
0.118581
-0.00117185
0.125603
-0.00015433
0.133573
0.000855806
0.142366
0.00159893
0.152133
0.00214592
0.16262
0.00248549
0.173957
0.00264131
0.186164
0.00265234
0.199281
0.00253615
0.213379
0.00233644
0.228484
0.00207175
0.244644
0.00174716
0.26192
0.00137455
0.280363
0.000956903
0.300036
0.000497314
0.32101
0.34337
-0.100719
0.0562463
-0.100563
0.0602286
-0.0990123
0.0643086
-0.0960026
0.068159
-0.0912476
0.0719309
-0.0849687
0.0755068
-0.077195
0.0789664
-0.0681459
0.082557
-0.0589764
0.0853265
-0.0459963
0.0872196
-0.0379214
0.0964925
-0.0277635
0.0964291
-0.0199048
0.105698
-0.0139705
0.112647
-0.0095335
0.121166
-0.00591917
0.129959
-0.0031393
0.139586
-0.000996489
0.14999
0.000562208
0.161061
0.00162865
0.172891
0.00232203
0.185471
0.00267621
0.198926
0.00276664
0.213288
0.00266147
0.228589
0.00240568
0.244899
0.00204954
0.262276
0.00161819
0.280795
0.0011264
0.300528
0.000585665
0.321551
0.343956
-0.146819
0.0505828
-0.139942
0.0533516
-0.131767
0.0561334
-0.121843
0.0582351
-0.110055
0.0601435
-0.0958266
0.0612781
-0.0798058
0.0629455
-0.0615373
0.0642885
-0.0450082
0.0687974
-0.0283978
0.0706092
-0.0143304
0.0824252
-0.00555051
0.0876492
0.00179154
0.0983556
0.00601222
0.108426
0.00782691
0.119351
0.00815758
0.129628
0.00772977
0.140014
0.0072419
0.150478
0.00668116
0.161622
0.00613814
0.173434
0.00556666
0.186043
0.00497745
0.199516
0.0044094
0.213856
0.00383915
0.229159
0.0032639
0.245475
0.00267361
0.262866
0.00205643
0.281412
0.00140974
0.301175
0.0007264
0.322234
0.344682
-0.0982157
0.0468766
-0.0935332
0.0486692
-0.0876419
0.050242
-0.0800809
0.0506741
-0.0707539
0.0508165
-0.0592543
0.0497784
-0.0459633
0.0496546
-0.0319709
0.0502961
-0.0187214
0.0555479
-0.00907779
0.0609656
-0.00257126
0.0759186
-0.00198063
0.0870586
-0.00340043
0.0997754
-0.00364532
0.108671
-0.00192949
0.117635
-6.48866e-05
0.127763
0.00187707
0.138072
0.00328611
0.149069
0.00425901
0.160649
0.00481535
0.172877
0.00497666
0.185881
0.00486957
0.199623
0.00455962
0.214166
0.00410938
0.22961
0.00356806
0.246016
0.0029533
0.263481
0.00228528
0.28208
0.00157038
0.30189
0.000809621
0.322995
0.345492
-0.0781942
0.0413072
-0.0718594
0.0423344
-0.0646727
0.0430553
-0.0568644
0.0428658
-0.0479838
0.0419359
-0.0385098
0.0403044
-0.0281779
0.0393227
-0.0183926
0.0405107
-0.00717968
0.044335
0.00251408
0.0512718
0.0118593
0.0665735
0.0152733
0.0836445
0.0172225
0.0978262
0.0170998
0.108794
0.0157417
0.118993
0.0142992
0.129206
0.0125306
0.139841
0.0108078
0.150792
0.00938445
0.162072
0.00823031
0.174031
0.00732748
0.186784
0.0065534
0.200397
0.0057971
0.214923
0.00503989
0.230367
0.00426206
0.246794
0.00346392
0.264279
0.00264702
0.282897
0.00180315
0.302734
0.000925425
0.323873
0.346417
0.129026
0.0353469
0.135167
0.0361939
0.140971
0.0372514
0.145352
0.0384841
0.147493
0.039795
0.145911
0.0418865
0.139769
0.0454644
0.128025
0.0522555
0.111527
0.060833
0.0910649
0.0717335
0.0744829
0.0831555
0.0592109
0.0989164
0.0480741
0.108963
0.0394599
0.117408
0.0317742
0.126679
0.025847
0.135133
0.02117
0.144518
0.0176265
0.154335
0.014703
0.164996
0.0122455
0.176489
0.0102258
0.188804
0.00856459
0.202058
0.00719605
0.216291
0.00602359
0.231539
0.00496276
0.247855
0.00396657
0.265275
0.00299552
0.283868
0.00202575
0.303703
0.00103501
0.324863
0.347452
0.210754
0.0428597
0.20117
0.045778
0.189167
0.0492548
0.174362
0.0532892
0.15602
0.0581368
0.133978
0.0639283
0.108669
0.0707741
0.0822515
0.0786727
0.0561222
0.0869623
0.0329277
0.094928
0.0170926
0.0989907
0.00980062
0.106208
0.00368428
0.115079
0.0022463
0.118846
0.00354272
0.125383
0.00507588
0.1336
0.0067292
0.142865
0.00793965
0.153125
0.00859203
0.164343
0.00873744
0.176344
0.00842493
0.189116
0.00779971
0.202683
0.00700048
0.217091
0.00610045
0.232439
0.00515108
0.248804
0.0041739
0.266252
0.003175
0.284867
0.00215537
0.304723
0.00110236
0.325916
0.348554
-0.0170412
0.0483788
-0.0228866
0.0516234
-0.028778
0.0551463
-0.0344039
0.0589151
-0.0393862
0.0631191
-0.0431477
0.0676898
-0.0451045
0.0727309
-0.0443034
0.0778716
-0.0402671
0.082926
-0.0326107
0.0872716
-0.0239523
0.0903323
-0.0111861
0.0934422
-0.00195082
0.105844
0.00505647
0.111839
0.00939891
0.12104
0.0116183
0.13138
0.0124323
0.142051
0.0123208
0.153236
0.0117551
0.164909
0.011002
0.177097
0.0101216
0.189997
0.00915138
0.203654
0.00809718
0.218145
0.00698599
0.233551
0.00585194
0.249938
0.00470794
0.267396
0.00356152
0.286013
0.00240657
0.305878
0.00122734
0.327096
0.349782
-0.0640757
-0.0614235
-0.0581661
-0.0541379
-0.0490981
-0.0428066
-0.0350157
-0.0256638
-0.0145371
-0.00262753
0.00770187
0.0170217
0.0242734
0.0270083
0.0268781
0.0251289
0.022704
0.0201027
0.0176172
0.0153165
0.0132381
0.0113638
0.00966392
0.0081072
0.00666022
0.00529046
0.00397034
0.00266855
0.00135802
)
;

boundaryField
{
    outlet
    {
        type            calculated;
        value           nonuniform List<scalar> 
40
(
0.053675
0.0536726
0.0535918
0.0534045
0.0531698
0.0528904
0.0526112
0.0523039
0.0519458
0.0515727
0.0461945
0.0489713
0.0518888
0.0548869
0.0580792
0.0613983
0.06494
0.0685197
0.0717993
0.075362
0.0800029
0.0841224
0.0985924
0.109104
0.12117
0.13313
0.144476
0.155837
0.167395
0.179397
0.192075
0.205528
0.219845
0.235107
0.251385
0.268766
0.287333
0.30718
0.328406
0.35114
)
;
    }
    upperWall
    {
        type            symmetryPlane;
        value           nonuniform 0();
    }
    lowerWall
    {
        type            symmetryPlane;
        value           uniform 0;
    }
    inlet
    {
        type            calculated;
        value           nonuniform 0();
    }
    cylinder
    {
        type            calculated;
        value           nonuniform 0();
    }
    frontAndBack
    {
        type            empty;
        value           nonuniform 0();
    }
    procBoundary3to2
    {
        type            processor;
        value           nonuniform List<scalar> 
43
(
-0.0382915
-0.0355117
-0.0342718
-0.0343869
-0.0350125
-0.0360915
-0.0642115
-0.0316855
-0.0315134
-0.0316523
-0.0329092
-0.043987
-0.0580031
-0.0590293
-0.0687035
-0.0682952
-0.075967
-0.0801525
-0.0860667
-0.0915308
-0.097627
-0.104024
-0.110931
-0.118325
-0.126255
-0.134773
-0.143879
-0.153642
-0.164077
-0.175242
-0.187172
-0.199937
-0.213597
-0.228216
-0.243862
-0.260611
-0.278534
-0.297712
-0.31825
-0.340256
-0.0463878
0.0376171
-0.0473504
)
;
    }
    procBoundary3to7
    {
        type            processor;
        value           nonuniform List<scalar> 
30
(
0.0930966
0.0847969
0.077944
0.0304308
-0.019668
-0.0652362
-0.0968227
-0.0862586
-0.118762
-0.0899493
-0.0414002
-0.00299236
0.076246
0.0777806
0.120483
0.123879
0.0269356
-0.000462154
-0.105052
-0.154249
-0.0927361
-0.0725247
0.0861111
0.174177
0.10076
0.0784884
-0.108197
-0.230613
-0.00745885
0.0807025
)
;
    }
}


// ************************************************************************* //
