/*--------------------------------*- C++ -*----------------------------------*\
| =========                 |                                                 |
| \\      /  F ield         | OpenFOAM: The Open Source CFD Toolbox           |
|  \\    /   O peration     | Version:                                        |
|   \\  /    A nd           | Website:  www.openfoam.com                      |
|    \\/     M anipulation  |                                                 |
\*---------------------------------------------------------------------------*/
FoamFile
{
    version     2.0;
    format      ascii;
    class       volScalarField;
    location    "140";
    object      p;
}
// * * * * * * * * * * * * * * * * * * * * * * * * * * * * * * * * * * * * * //

dimensions      [0 2 -2 0 0 0 0];


internalField   nonuniform List<scalar> 
250
(
3.76731
3.74708
3.70908
3.66249
3.61367
3.56506
3.51806
3.47365
3.43214
3.39342
3.35721
3.32319
3.29105
3.26051
3.2313
3.20322
3.17611
3.14983
3.12426
3.09931
3.07491
3.051
3.02752
3.00444
2.98172
2.95933
2.93724
2.91543
2.89388
2.87257
2.85149
2.83062
2.80995
2.78947
2.76917
2.74904
2.72907
2.70925
2.68958
2.67004
2.65064
2.63136
2.6122
2.59315
2.57422
2.55539
2.53666
2.51802
2.49948
2.48103
3.81516
3.78301
3.72985
3.67153
3.61439
3.56003
3.50968
3.46387
3.42225
3.38414
3.3489
3.31596
3.28488
3.2553
3.22693
3.19956
3.17305
3.14726
3.12209
3.09747
3.07334
3.04965
3.02636
3.00343
2.98083
2.95855
2.93654
2.91481
2.89332
2.87207
2.85103
2.83021
2.80958
2.78913
2.76886
2.74875
2.7288
2.70901
2.68935
2.66983
2.65044
2.63118
2.61203
2.593
2.57407
2.55525
2.53653
2.5179
2.49937
2.48092
3.88962
3.82741
3.74795
3.67544
3.61009
3.55075
3.49824
3.4523
3.41164
3.37493
3.34116
3.30959
3.27968
3.25107
3.22349
3.19675
3.17074
3.14534
3.12049
3.09612
3.0722
3.04867
3.02551
3.00269
2.98018
2.95797
2.93603
2.91435
2.89291
2.87169
2.85069
2.8299
2.80929
2.78887
2.76862
2.74853
2.7286
2.70881
2.68917
2.66966
2.65029
2.63103
2.61189
2.59287
2.57395
2.55514
2.53642
2.5178
2.49927
2.48083
4.03309
3.895
3.76417
3.67143
3.59851
3.53682
3.48487
3.44079
3.40225
3.36744
3.33522
3.30488
3.27592
3.24804
3.22102
3.19472
3.16905
3.14392
3.11928
3.09508
3.07129
3.04787
3.0248
3.00205
2.97961
2.95745
2.93556
2.91391
2.89251
2.87132
2.85035
2.82958
2.80899
2.78859
2.76835
2.74828
2.72837
2.7086
2.68897
2.66947
2.6501
2.63086
2.61173
2.59271
2.5738
2.55499
2.53628
2.51767
2.49915
2.48071
4.27828
4.00379
3.80603
3.68475
3.59807
3.53007
3.47626
3.43258
3.39527
3.36182
3.33081
3.30141
3.27318
3.24583
3.21921
3.19321
3.16776
3.14281
3.11831
3.09422
3.07052
3.04718
3.02417
3.00148
2.97908
2.95696
2.9351
2.91349
2.89211
2.87096
2.85001
2.82925
2.80869
2.7883
2.76808
2.74803
2.72812
2.70836
2.68875
2.66926
2.6499
2.63067
2.61155
2.59254
2.57364
2.55484
2.53613
2.51753
2.49901
2.48058
)
;

boundaryField
{
    inlet
    {
        type            zeroGradient;
    }
    outlet
    {
        type            fixedValue;
        value           nonuniform 0();
    }
    wall
    {
        type            zeroGradient;
    }
    back
    {
        type            wedge;
    }
    front
    {
        type            wedge;
    }
    axis
    {
        type            empty;
    }
    procBoundary4to0
    {
        type            processor;
        value           nonuniform List<scalar> 
50
(
3.73394
3.71961
3.69108
3.6532
3.61103
3.56723
3.5234
3.48073
3.4399
3.40116
3.36451
3.32983
3.29695
3.26566
3.23576
3.20706
3.17941
3.15265
3.12669
3.1014
3.07672
3.05258
3.0289
3.00565
2.98279
2.96028
2.93808
2.91619
2.89456
2.87318
2.85205
2.83113
2.81041
2.7899
2.76956
2.7494
2.7294
2.70956
2.68986
2.6703
2.65088
2.63159
2.61241
2.59335
2.5744
2.55556
2.53682
2.51817
2.49962
2.48116
)
;
    }
    procBoundary4to5
    {
        type            processor;
        value           nonuniform List<scalar> 5(2.46266 2.46256 2.46247 2.46236 2.46223);
    }
}


// ************************************************************************* //
