/*--------------------------------*- C++ -*----------------------------------*\
| =========                 |                                                 |
| \\      /  F ield         | OpenFOAM: The Open Source CFD Toolbox           |
|  \\    /   O peration     | Version:                                        |
|   \\  /    A nd           | Website:  www.openfoam.com                      |
|    \\/     M anipulation  |                                                 |
\*---------------------------------------------------------------------------*/
FoamFile
{
    version     2.0;
    format      ascii;
    class       surfaceScalarField;
    location    "140";
    object      phi;
}
// * * * * * * * * * * * * * * * * * * * * * * * * * * * * * * * * * * * * * //

dimensions      [0 3 -1 0 0 0 0];
oriented        oriented;


internalField   nonuniform List<scalar> 
445
(
1.93892e-05
-5.63208e-07
2.00656e-05
-1.57748e-06
2.09268e-05
-2.17474e-06
2.18272e-05
-2.45441e-06
2.26853e-05
-2.52247e-06
2.34533e-05
-2.44537e-06
2.41113e-05
-2.28131e-06
2.46595e-05
-2.07751e-06
2.51079e-05
-1.86484e-06
2.54703e-05
-1.6608e-06
2.57611e-05
-1.47415e-06
2.59933e-05
-1.30829e-06
2.61783e-05
-1.16347e-06
2.63255e-05
-1.03827e-06
2.64425e-05
-9.30557e-07
2.65353e-05
-8.38019e-07
2.6609e-05
-7.58419e-07
2.66672e-05
-6.89743e-07
2.67131e-05
-6.30243e-07
2.6749e-05
-5.78434e-07
2.6777e-05
-5.33073e-07
2.67984e-05
-4.9313e-07
2.68146e-05
-4.57756e-07
2.68265e-05
-4.26253e-07
2.6835e-05
-3.98045e-07
2.68405e-05
-3.72659e-07
2.68438e-05
-3.49704e-07
2.68451e-05
-3.28855e-07
2.68449e-05
-3.09841e-07
2.68434e-05
-2.92436e-07
2.68409e-05
-2.76449e-07
2.68375e-05
-2.61717e-07
2.68335e-05
-2.48104e-07
2.68289e-05
-2.3549e-07
2.68239e-05
-2.23773e-07
2.68186e-05
-2.12866e-07
2.6813e-05
-2.0269e-07
2.68072e-05
-1.93178e-07
2.68013e-05
-1.84271e-07
2.67953e-05
-1.75917e-07
2.67893e-05
-1.68067e-07
2.67832e-05
-1.60681e-07
2.67772e-05
-1.53722e-07
2.67712e-05
-1.47156e-07
2.67653e-05
-1.40954e-07
2.67594e-05
-1.35088e-07
2.67536e-05
-1.29533e-07
2.67479e-05
-1.24269e-07
2.67423e-05
-1.19274e-07
-1.1453e-07
2.3116e-05
-1.0636e-06
2.42376e-05
-2.69902e-06
2.54431e-05
-3.38027e-06
2.65228e-05
-3.53412e-06
2.7399e-05
-3.39868e-06
2.80536e-05
-3.10001e-06
2.85068e-05
-2.73452e-06
2.87955e-05
-2.36613e-06
2.89581e-05
-2.02753e-06
2.90289e-05
-1.73152e-06
2.9035e-05
-1.48027e-06
2.89973e-05
-1.27062e-06
2.89311e-05
-1.09726e-06
2.88472e-05
-9.54364e-07
2.87532e-05
-8.36513e-07
2.86541e-05
-7.38981e-07
2.85535e-05
-6.57829e-07
2.84536e-05
-5.89849e-07
2.83559e-05
-5.32471e-07
2.82611e-05
-4.8365e-07
2.81698e-05
-4.41765e-07
2.80822e-05
-4.05538e-07
2.79984e-05
-3.73956e-07
2.79184e-05
-3.46215e-07
2.7842e-05
-3.21675e-07
2.77692e-05
-2.99825e-07
2.76997e-05
-2.80252e-07
2.76335e-05
-2.62623e-07
2.75703e-05
-2.46664e-07
2.751e-05
-2.32153e-07
2.74525e-05
-2.18903e-07
2.73975e-05
-2.06759e-07
2.7345e-05
-1.95592e-07
2.72948e-05
-1.85292e-07
2.72468e-05
-1.75763e-07
2.72008e-05
-1.66926e-07
2.71569e-05
-1.5871e-07
2.71147e-05
-1.51056e-07
2.70744e-05
-1.4391e-07
2.70357e-05
-1.37225e-07
2.69986e-05
-1.30961e-07
2.6963e-05
-1.25082e-07
2.69288e-05
-1.19555e-07
2.6896e-05
-1.14352e-07
2.68645e-05
-1.09446e-07
2.68342e-05
-1.04815e-07
2.68051e-05
-1.00438e-07
2.67772e-05
-9.62966e-08
2.67503e-05
-9.2373e-08
-8.86522e-08
2.72014e-05
-2.17001e-06
2.87539e-05
-4.25152e-06
2.99204e-05
-4.5468e-06
3.06134e-05
-4.22714e-06
3.0893e-05
-3.67822e-06
3.08577e-05
-3.06473e-06
3.06108e-05
-2.48764e-06
3.02395e-05
-1.99487e-06
2.98087e-05
-1.59664e-06
2.93617e-05
-1.28459e-06
2.89254e-05
-1.0439e-06
2.8514e-05
-8.59255e-07
2.8134e-05
-7.17318e-07
2.77871e-05
-6.07436e-07
2.74721e-05
-5.2148e-07
2.71865e-05
-4.53404e-07
2.69274e-05
-3.98764e-07
2.66919e-05
-3.54307e-07
2.64771e-05
-3.17646e-07
2.62804e-05
-2.87021e-07
2.60998e-05
-2.61124e-07
2.59332e-05
-2.38977e-07
2.57791e-05
-2.19837e-07
2.5636e-05
-2.03138e-07
2.55028e-05
-1.88444e-07
2.53784e-05
-1.75413e-07
2.52619e-05
-1.63779e-07
2.51526e-05
-1.53327e-07
2.50499e-05
-1.43885e-07
2.4953e-05
-1.35315e-07
2.48616e-05
-1.27502e-07
2.47752e-05
-1.20351e-07
2.46934e-05
-1.13783e-07
2.46158e-05
-1.07732e-07
2.45422e-05
-1.0214e-07
2.44723e-05
-9.69591e-08
2.44057e-05
-9.21472e-08
2.43423e-05
-8.76679e-08
2.42819e-05
-8.34897e-08
2.42242e-05
-7.95846e-08
2.41692e-05
-7.59282e-08
2.41166e-05
-7.24989e-08
2.40663e-05
-6.92773e-08
2.40182e-05
-6.62464e-08
2.39722e-05
-6.33908e-08
2.39281e-05
-6.06967e-08
2.38858e-05
-5.81518e-08
2.38452e-05
-5.5745e-08
2.38063e-05
-5.3466e-08
-5.13059e-08
3.136e-05
-3.95573e-06
3.2003e-05
-4.89452e-06
3.15455e-05
-4.08929e-06
3.04752e-05
-3.1568e-06
2.91394e-05
-2.3425e-06
2.77654e-05
-1.69066e-06
2.64792e-05
-1.20143e-06
2.53384e-05
-8.54092e-07
2.43584e-05
-6.16678e-07
2.35311e-05
-4.57217e-07
2.28371e-05
-3.4999e-07
2.22546e-05
-2.76749e-07
2.17628e-05
-2.25443e-07
2.13437e-05
-1.88402e-07
2.09831e-05
-1.6081e-07
2.06693e-05
-1.39642e-07
2.03935e-05
-1.2297e-07
2.01487e-05
-1.0954e-07
1.99296e-05
-9.85102e-08
1.97319e-05
-8.92998e-08
1.95522e-05
-8.14966e-08
1.93881e-05
-7.48013e-08
1.92372e-05
-6.89922e-08
1.9098e-05
-6.39023e-08
1.89689e-05
-5.94039e-08
1.88489e-05
-5.53979e-08
1.8737e-05
-5.18066e-08
1.86322e-05
-4.85683e-08
1.8534e-05
-4.56333e-08
1.84416e-05
-4.2961e-08
1.83546e-05
-4.05181e-08
1.82725e-05
-3.8277e-08
1.8195e-05
-3.62143e-08
1.81215e-05
-3.43103e-08
1.8052e-05
-3.2548e-08
1.79859e-05
-3.0913e-08
1.79232e-05
-2.93926e-08
1.78635e-05
-2.79758e-08
1.78066e-05
-2.66529e-08
1.77525e-05
-2.54155e-08
1.77008e-05
-2.42561e-08
1.76515e-05
-2.31679e-08
1.76043e-05
-2.21451e-08
1.75593e-05
-2.11823e-08
1.75161e-05
-2.02747e-08
1.74749e-05
-1.94181e-08
1.74353e-05
-1.86086e-08
1.73974e-05
-1.78426e-08
1.73611e-05
-1.71172e-08
-1.64293e-08
2.90979e-05
2.42034e-05
2.01141e-05
1.69573e-05
1.46148e-05
1.29241e-05
1.17227e-05
1.08686e-05
1.02519e-05
9.79469e-06
9.4447e-06
9.16796e-06
8.94251e-06
8.75411e-06
8.5933e-06
8.45366e-06
8.33069e-06
8.22115e-06
8.12264e-06
8.03334e-06
7.95184e-06
7.87704e-06
7.80805e-06
7.74415e-06
7.68474e-06
7.62935e-06
7.57754e-06
7.52897e-06
7.48334e-06
7.44038e-06
7.39986e-06
7.36158e-06
7.32537e-06
7.29106e-06
7.25851e-06
7.2276e-06
7.1982e-06
7.17023e-06
7.14357e-06
7.11816e-06
7.0939e-06
7.07073e-06
7.04859e-06
7.02741e-06
7.00713e-06
6.98771e-06
6.96911e-06
6.95126e-06
6.93415e-06
)
;

boundaryField
{
    inlet
    {
        type            calculated;
        value           nonuniform List<scalar> 5(-1.91363e-05 -2.26156e-05 -2.6095e-05 -2.95743e-05 -3.30536e-05);
    }
    outlet
    {
        type            calculated;
        value           nonuniform 0();
    }
    wall
    {
        type            calculated;
        value           uniform 0;
    }
    back
    {
        type            wedge;
        value           nonuniform List<scalar> 
250
(
-3.37652e-18
-1.73877e-18
-1.41119e-18
5.57157e-17
-1.17103e-17
6.22926e-17
9.78948e-17
1.53644e-16
-4.21375e-16
4.14985e-17
1.13654e-16
1.61519e-16
2.22427e-16
-5.51691e-16
5.65982e-17
1.45113e-16
1.9153e-16
2.3602e-16
-5.23487e-16
4.31883e-17
1.60521e-16
2.0002e-16
2.24395e-16
-4.44575e-16
3.08297e-17
1.64368e-16
1.94681e-16
2.01095e-16
-3.55808e-16
2.19397e-17
1.59469e-16
1.80654e-16
1.73372e-16
-2.74378e-16
1.53348e-17
1.50756e-16
1.63107e-16
1.46113e-16
-2.07546e-16
1.0636e-17
1.37358e-16
1.43895e-16
1.21499e-16
-1.56492e-16
7.48489e-18
1.27903e-16
1.26976e-16
1.00879e-16
-1.19027e-16
5.43391e-18
1.09278e-16
1.0938e-16
8.35215e-17
-9.21867e-17
4.08466e-18
1.10856e-16
9.7319e-17
6.99682e-17
-7.2944e-17
3.19918e-18
-3.43778e-15
8.34456e-17
5.87771e-17
-5.91084e-17
2.59863e-18
3.32737e-15
7.38547e-17
4.99831e-17
-4.89827e-17
2.17161e-18
7.36598e-17
6.50347e-17
4.29396e-17
-4.14141e-17
1.86011e-18
6.67134e-17
5.76135e-17
3.72717e-17
-3.56368e-17
1.62333e-18
6.06454e-17
5.13689e-17
3.26698e-17
-3.11436e-17
1.43034e-18
5.53567e-17
4.60797e-17
2.89144e-17
-2.75491e-17
1.27959e-18
5.07353e-17
4.15798e-17
2.5804e-17
-2.46332e-17
1.15636e-18
4.66705e-17
3.77444e-17
2.32117e-17
-2.22295e-17
1.04878e-18
4.3092e-17
3.44382e-17
2.103e-17
-2.02028e-17
9.5922e-19
3.99175e-17
3.15684e-17
1.91588e-17
-1.84918e-17
8.78895e-19
3.71033e-17
2.90801e-17
1.75508e-17
-1.70135e-17
8.06851e-19
3.45857e-17
2.68809e-17
1.61627e-17
-1.57282e-17
7.44694e-19
3.23242e-17
2.49321e-17
1.49403e-17
-1.45984e-17
6.90942e-19
3.02886e-17
2.32107e-17
1.38587e-17
-1.3601e-17
6.39695e-19
2.84339e-17
2.16665e-17
1.2906e-17
-1.27116e-17
5.95296e-19
2.67489e-17
2.02779e-17
1.20461e-17
-1.19086e-17
5.5643e-19
2.52e-17
1.90188e-17
1.12718e-17
-1.11819e-17
5.20874e-19
2.38052e-17
1.78882e-17
1.05775e-17
-1.0524e-17
4.90118e-19
2.24685e-17
1.68291e-17
9.93706e-18
-9.92337e-18
4.59024e-19
2.13479e-17
1.59083e-17
9.37251e-18
-9.37304e-18
4.30393e-19
2.0089e-17
1.49647e-17
8.82343e-18
-8.86685e-18
4.04043e-19
1.93552e-17
1.42873e-17
8.36822e-18
-8.40419e-18
3.7819e-19
1.77965e-17
1.33102e-17
7.86236e-18
-7.9844e-18
3.56909e-19
1.81416e-17
1.30387e-17
7.53999e-18
-7.55916e-18
3.43442e-19
1.4678e-17
1.16821e-17
7.02554e-18
-7.2149e-18
3.20942e-19
-3.47613e-15
1.21004e-17
6.77725e-18
-6.86032e-18
3.03767e-19
3.4574e-15
1.1433e-17
6.51047e-18
-6.52044e-18
2.906e-19
1.37684e-17
1.07348e-17
6.2125e-18
-6.20817e-18
2.78883e-19
1.32233e-17
1.01376e-17
5.92987e-18
-5.91059e-18
2.70509e-19
1.26847e-17
9.60687e-18
5.64919e-18
-5.63972e-18
2.59754e-19
1.21629e-17
9.12096e-18
5.37518e-18
-5.39625e-18
2.45137e-19
1.16619e-17
8.68284e-18
5.1149e-18
-5.16907e-18
2.34435e-19
1.11905e-17
8.27775e-18
4.87253e-18
-4.94834e-18
2.24188e-19
1.07308e-17
7.90313e-18
4.64795e-18
-4.74669e-18
2.12146e-19
1.02966e-17
7.55882e-18
4.43423e-18
-4.56145e-18
2.00412e-19
9.88542e-18
7.23263e-18
4.23439e-18
-4.37142e-18
1.92543e-19
9.48102e-18
6.91437e-18
4.04871e-18
-4.19744e-18
1.82427e-19
9.11096e-18
6.62993e-18
3.87544e-18
-4.03623e-18
1.72422e-19
)
;
    }
    front
    {
        type            wedge;
        value           nonuniform List<scalar> 
250
(
-3.36827e-18
-1.73122e-18
-1.40669e-18
5.5716e-17
-1.17106e-17
6.22629e-17
9.7864e-17
1.53626e-16
-4.21383e-16
4.14962e-17
1.13674e-16
1.6153e-16
2.22437e-16
-5.51688e-16
5.65976e-17
1.45069e-16
1.91516e-16
2.36015e-16
-5.23476e-16
4.31876e-17
1.60633e-16
2.00085e-16
2.24409e-16
-4.44559e-16
3.08361e-17
1.64132e-16
1.94572e-16
2.01045e-16
-3.55814e-16
2.19445e-17
1.59968e-16
1.80843e-16
1.73401e-16
-2.74369e-16
1.53309e-17
1.4974e-16
1.62725e-16
1.46009e-16
-2.07561e-16
1.06374e-17
1.39404e-16
1.44528e-16
1.21626e-16
-1.56461e-16
7.49795e-18
1.2371e-16
1.25787e-16
1.00641e-16
-1.19053e-16
5.44025e-18
1.17796e-16
1.11145e-16
8.37722e-17
-9.21379e-17
4.10387e-18
9.33839e-17
9.49791e-17
6.96866e-17
-7.2958e-17
3.20807e-18
1.07006e-16
8.4613e-17
5.87706e-17
-5.91199e-17
2.5966e-18
8.49301e-17
7.3621e-17
4.99364e-17
-4.89955e-17
2.17018e-18
7.55306e-17
6.50597e-17
4.2899e-17
-4.14388e-17
1.85735e-18
6.84194e-17
5.78263e-17
3.72604e-17
-3.56629e-17
1.62016e-18
6.22323e-17
5.16992e-17
3.27134e-17
-3.11327e-17
1.44137e-18
5.68317e-17
4.6509e-17
2.89963e-17
-2.7531e-17
1.29236e-18
5.21089e-17
4.20899e-17
2.59403e-17
-2.45974e-17
1.1684e-18
4.79768e-17
3.82903e-17
2.33889e-17
-2.21647e-17
1.06833e-18
4.43341e-17
3.50187e-17
2.12335e-17
-2.01315e-17
9.80788e-19
4.11171e-17
3.21833e-17
1.94092e-17
-1.8388e-17
9.08094e-19
3.8246e-17
2.96894e-17
1.78366e-17
-1.68918e-17
8.46474e-19
3.56813e-17
2.75087e-17
1.64618e-17
-1.55886e-17
7.90771e-19
3.33774e-17
2.55818e-17
1.52629e-17
-1.44446e-17
7.39754e-19
3.12928e-17
2.38526e-17
1.4206e-17
-1.34281e-17
6.97213e-19
2.94125e-17
2.23069e-17
1.32563e-17
-1.25209e-17
6.5714e-19
2.76976e-17
2.09139e-17
1.24129e-17
-1.17108e-17
6.1952e-19
2.61399e-17
1.96566e-17
1.16533e-17
-1.09808e-17
5.855e-19
2.46858e-17
1.85003e-17
1.09591e-17
-1.03167e-17
5.52705e-19
2.34014e-17
1.74724e-17
1.03367e-17
-9.71246e-18
5.25543e-19
2.21032e-17
1.64818e-17
9.74798e-18
-9.16016e-18
5.00594e-19
2.11238e-17
1.56685e-17
9.23985e-18
-8.65373e-18
4.77522e-19
1.97812e-17
1.4726e-17
8.72262e-18
-8.18346e-18
4.57667e-19
1.94089e-17
1.42053e-17
8.33124e-18
-7.74127e-18
4.3657e-19
1.72643e-17
1.30883e-17
7.82343e-18
-7.36797e-18
4.10658e-19
1.90474e-17
1.31545e-17
7.56776e-18
-6.97066e-18
3.96488e-19
1.20092e-17
1.15343e-17
7.09997e-18
-6.63501e-18
3.79449e-19
1.65983e-17
1.10799e-17
6.69945e-18
-6.33114e-18
3.60635e-19
1.5528e-17
1.0729e-17
6.3743e-18
-6.04182e-18
3.42407e-19
1.47725e-17
1.03434e-17
6.07399e-18
-5.7762e-18
3.22694e-19
1.40866e-17
9.95184e-18
5.80832e-18
-5.51893e-18
3.07067e-19
1.34539e-17
9.57091e-18
5.56944e-18
-5.26631e-18
2.96865e-19
1.2865e-17
9.19309e-18
5.34751e-18
-5.02682e-18
2.84187e-19
1.23063e-17
8.82908e-18
5.13583e-18
-4.80793e-18
2.72379e-19
1.17912e-17
8.47778e-18
4.9323e-18
-4.59489e-18
2.63591e-19
1.13021e-17
8.13609e-18
4.74182e-18
-4.38843e-18
2.55628e-19
1.08377e-17
7.81324e-18
4.55957e-18
-4.20806e-18
2.4485e-19
1.04111e-17
7.51674e-18
4.38364e-18
-4.03135e-18
2.37293e-19
9.99163e-18
7.21828e-18
4.21432e-18
-3.86019e-18
2.30533e-19
)
;
    }
    axis
    {
        type            empty;
        value           nonuniform 0();
    }
    procBoundary4to0
    {
        type            processor;
        value           nonuniform List<scalar> 
50
(
3.10335e-07
9.0107e-07
1.31355e-06
1.55394e-06
1.66437e-06
1.67745e-06
1.62324e-06
1.5293e-06
1.41645e-06
1.29838e-06
1.1834e-06
1.07607e-06
9.78463e-07
8.91087e-07
8.13582e-07
7.45143e-07
6.84788e-07
6.3151e-07
5.84359e-07
5.42482e-07
5.05134e-07
4.71675e-07
4.41563e-07
4.14339e-07
3.89621e-07
3.67084e-07
3.46458e-07
3.27513e-07
3.10055e-07
2.93921e-07
2.78968e-07
2.65075e-07
2.52138e-07
2.40064e-07
2.28775e-07
2.18201e-07
2.08279e-07
1.98955e-07
1.90179e-07
1.81909e-07
1.74105e-07
1.66732e-07
1.59759e-07
1.53155e-07
1.46896e-07
1.40958e-07
1.35319e-07
1.29959e-07
1.2486e-07
1.20005e-07
)
;
    }
    procBoundary4to5
    {
        type            processor;
        value           nonuniform List<scalar> 5(2.67369e-05 2.67244e-05 2.3769e-05 1.73262e-05 6.91772e-06);
    }
}


// ************************************************************************* //
