/*--------------------------------*- C++ -*----------------------------------*\
| =========                 |                                                 |
| \\      /  F ield         | OpenFOAM: The Open Source CFD Toolbox           |
|  \\    /   O peration     | Version:                                        |
|   \\  /    A nd           | Website:  www.openfoam.com                      |
|    \\/     M anipulation  |                                                 |
\*---------------------------------------------------------------------------*/
FoamFile
{
    version     2.0;
    format      ascii;
    class       volVectorField;
    location    "140";
    object      U;
}
// * * * * * * * * * * * * * * * * * * * * * * * * * * * * * * * * * * * * * //

dimensions      [0 1 -1 0 0 0 0];


internalField   nonuniform List<vector> 
250
(
(1.00014 -0.022225 1.61342e-16)
(1.02577 -0.0614551 -7.24674e-16)
(1.06844 -0.0876863 6.51729e-16)
(1.11675 -0.102312 -1.04247e-15)
(1.16379 -0.108233 2.24597e-15)
(1.20674 -0.107725 -4.60423e-15)
(1.24419 -0.102969 1.00633e-14)
(1.2757 -0.0958727 -2.03908e-14)
(1.3016 -0.0878059 4.10233e-14)
(1.3226 -0.079629 -8.3778e-14)
(1.33948 -0.071839 1.70253e-13)
(1.35298 -0.064689 -3.49479e-13)
(1.36374 -0.0582757 6.08131e-13)
(1.37231 -0.0526027 9.14347e-14)
(1.37911 -0.0476238 3.73897e-14)
(1.38452 -0.0432702 3.40624e-14)
(1.38881 -0.0394661 3.18082e-14)
(1.39221 -0.0361379 2.93693e-14)
(1.39489 -0.0332178 2.74272e-14)
(1.397 -0.0306463 2.625e-14)
(1.39865 -0.0283719 2.48795e-14)
(1.39992 -0.0263508 2.41589e-14)
(1.40089 -0.0245463 2.27176e-14)
(1.40161 -0.0229274 2.18885e-14)
(1.40213 -0.0214684 2.09116e-14)
(1.40249 -0.0201476 1.9923e-14)
(1.40271 -0.0189471 1.95369e-14)
(1.40283 -0.0178515 1.90531e-14)
(1.40285 -0.0168482 1.86705e-14)
(1.4028 -0.0159263 1.76398e-14)
(1.4027 -0.0150766 1.85167e-14)
(1.40254 -0.0142912 1.49905e-14)
(1.40235 -0.0135634 2.07712e-14)
(1.40212 -0.0128873 8.56523e-15)
(1.40187 -0.0122578 3.23849e-14)
(1.4016 -0.0116705 -1.7574e-14)
(1.40131 -0.0111216 8.74554e-14)
(1.40101 -0.0106075 -1.6277e-13)
(1.40071 -0.0101253 5.04236e-14)
(1.40039 -0.00967225 3.51633e-14)
(1.40008 -0.00924601 3.08634e-14)
(1.39976 -0.00884441 2.8011e-14)
(1.39945 -0.00846553 2.58212e-14)
(1.39913 -0.00810765 2.39879e-14)
(1.39882 -0.0077692 2.21412e-14)
(1.39851 -0.00744877 2.11647e-14)
(1.39821 -0.00714509 2.00457e-14)
(1.39791 -0.00685699 1.91354e-14)
(1.39761 -0.00658341 1.87487e-14)
(1.39732 -0.00632339 1.74589e-14)
(1.00007 -0.0358011 1.26936e-18)
(1.04101 -0.0901155 -7.6622e-16)
(1.09753 -0.119383 5.48618e-16)
(1.15065 -0.131629 -2.50727e-16)
(1.19444 -0.13262 1.33865e-15)
(1.22825 -0.126079 -2.34991e-15)
(1.25253 -0.115373 3.64848e-15)
(1.26856 -0.103104 -8.0216e-15)
(1.27813 -0.0908729 1.23776e-14)
(1.28294 -0.0795184 -2.38015e-14)
(1.28436 -0.0694067 3.51908e-14)
(1.28345 -0.060628 -4.66456e-14)
(1.281 -0.0531218 2.32279e-14)
(1.27758 -0.0467574 -4.65386e-15)
(1.27357 -0.0413805 5.99365e-16)
(1.26925 -0.0368394 4.33658e-15)
(1.2648 -0.0329958 6.649e-15)
(1.26034 -0.0297301 8.99621e-15)
(1.25596 -0.026941 1.02696e-14)
(1.25169 -0.0245448 1.09346e-14)
(1.24757 -0.0224729 1.18887e-14)
(1.24362 -0.0206694 1.22396e-14)
(1.23983 -0.0190891 1.20928e-14)
(1.2362 -0.0176952 1.29392e-14)
(1.23275 -0.0164581 1.31231e-14)
(1.22945 -0.0153536 1.28763e-14)
(1.2263 -0.014362 1.28354e-14)
(1.22331 -0.0134673 1.2628e-14)
(1.22045 -0.0126562 1.26921e-14)
(1.21772 -0.0119176 1.22639e-14)
(1.21512 -0.0112425 1.28622e-14)
(1.21263 -0.0106232 1.15297e-14)
(1.21026 -0.0100532 1.3992e-14)
(1.20799 -0.00952705 8.63451e-15)
(1.20582 -0.00903995 1.7745e-14)
(1.20374 -0.0085879 1.1012e-15)
(1.20175 -0.00816739 2.94447e-14)
(1.19985 -0.00777538 -1.11752e-14)
(1.19803 -0.0074092 -7.10844e-15)
(1.19628 -0.00706651 -5.4158e-17)
(1.19461 -0.00674524 3.96008e-15)
(1.193 -0.00644356 6.89429e-15)
(1.19146 -0.00615984 9.07075e-15)
(1.18998 -0.00589262 1.01579e-14)
(1.18856 -0.0056406 1.11371e-14)
(1.18719 -0.00540261 1.14109e-14)
(1.18588 -0.00517759 1.13938e-14)
(1.18462 -0.0049646 1.15715e-14)
(1.18341 -0.00476277 1.21867e-14)
(1.18224 -0.00457132 1.16403e-14)
(1.00321 -0.0652111 -2.2847e-17)
(1.06817 -0.136577 -5.17259e-16)
(1.12843 -0.158629 2.70732e-16)
(1.16474 -0.157601 -4.65996e-16)
(1.1819 -0.145355 8.36612e-17)
(1.1856 -0.127709 -1.18014e-15)
(1.17949 -0.108744 6.41715e-16)
(1.16697 -0.0909454 -2.09079e-15)
(1.15105 -0.0754165 2.42293e-15)
(1.13386 -0.0624297 -4.87113e-15)
(1.11672 -0.0518445 4.70207e-15)
(1.10036 -0.0433451 -6.04532e-15)
(1.08515 -0.0365693 3.1877e-18)
(1.07121 -0.0311748 -1.03169e-15)
(1.05854 -0.0268669 -7.83161e-16)
(1.04705 -0.0234051 -2.29696e-16)
(1.03664 -0.0205992 1.01105e-15)
(1.02719 -0.0183022 1.56152e-15)
(1.01858 -0.0164013 2.88847e-15)
(1.01072 -0.0148107 3.44872e-15)
(1.00351 -0.013465 3.93567e-15)
(0.996873 -0.0123145 5.16797e-15)
(0.990742 -0.0113209 5.85719e-15)
(0.985059 -0.0104549 5.85941e-15)
(0.979775 -0.00969372 6.57786e-15)
(0.974847 -0.00901946 6.94912e-15)
(0.970239 -0.00841806 6.9004e-15)
(0.96592 -0.00787829 7.39916e-15)
(0.961862 -0.00739116 7.59923e-15)
(0.958042 -0.00694932 7.68574e-15)
(0.95444 -0.00654678 8.00305e-15)
(0.951037 -0.00617858 7.37819e-15)
(0.947817 -0.00584057 8.3442e-15)
(0.944766 -0.00552926 7.16398e-15)
(0.941872 -0.0052417 9.38136e-15)
(0.939124 -0.00497535 5.75774e-15)
(0.93651 -0.00472804 1.09004e-14)
(0.934022 -0.00449787 6.60701e-15)
(0.931651 -0.00428321 3.88219e-15)
(0.929391 -0.00408262 3.38664e-15)
(0.927233 -0.00389483 2.71319e-15)
(0.925173 -0.00371872 3.15411e-15)
(0.923203 -0.00355329 3.78021e-15)
(0.921319 -0.00339767 4.76501e-15)
(0.919516 -0.00325106 5.25554e-15)
(0.917789 -0.00311275 5.56819e-15)
(0.916135 -0.00298211 6.36583e-15)
(0.914548 -0.00285856 6.45426e-15)
(0.913027 -0.00274158 6.58031e-15)
(0.911566 -0.00263071 6.64872e-15)
(1.00689 -0.101742 -7.67277e-18)
(1.07037 -0.174824 -1.04891e-16)
(1.0844 -0.176168 2.44055e-16)
(1.05435 -0.153077 2.16444e-16)
(1.00915 -0.123562 2.84898e-16)
(0.961821 -0.0950481 -7.7275e-17)
(0.916383 -0.0710119 2.52392e-16)
(0.87506 -0.0524308 -3.21834e-16)
(0.839086 -0.0388319 7.56888e-16)
(0.808581 -0.0291905 -4.40407e-16)
(0.782996 -0.0224468 1.12285e-15)
(0.761569 -0.0177233 -1.59214e-16)
(0.743547 -0.014372 -3.68693e-16)
(0.728267 -0.011945 -3.06109e-16)
(0.715184 -0.0101431 -6.17601e-16)
(0.703861 -0.00877021 -5.7764e-16)
(0.693956 -0.00769745 3.67685e-16)
(0.685203 -0.00683968 3.36649e-16)
(0.677399 -0.00613963 6.77407e-16)
(0.670381 -0.00555796 1.40345e-15)
(0.664025 -0.00506703 1.28428e-15)
(0.658232 -0.00464701 2.22812e-15)
(0.652921 -0.00428339 2.36916e-15)
(0.64803 -0.00396533 2.88713e-15)
(0.643505 -0.00368461 2.97211e-15)
(0.639303 -0.00343489 3.6205e-15)
(0.635388 -0.00321124 3.8899e-15)
(0.63173 -0.00300973 3.93997e-15)
(0.628303 -0.00282721 4.08626e-15)
(0.625085 -0.00266114 4.14134e-15)
(0.622057 -0.0025094 4.047e-15)
(0.619202 -0.00237025 4.18411e-15)
(0.616506 -0.00224224 4.10562e-15)
(0.613956 -0.00212411 4.58962e-15)
(0.611541 -0.00201481 4.66713e-15)
(0.60925 -0.00191342 3.6358e-15)
(0.607074 -0.00181917 4.86883e-15)
(0.605006 -0.00173135 4.3982e-15)
(0.603037 -0.00164937 3.84103e-15)
(0.601162 -0.00157271 3.51041e-15)
(0.599374 -0.00150088 2.69679e-15)
(0.597667 -0.00143347 2.53104e-15)
(0.596038 -0.00137012 2.78281e-15)
(0.59448 -0.00131049 2.89014e-15)
(0.59299 -0.00125429 2.76983e-15)
(0.591564 -0.00120124 3.18686e-15)
(0.590198 -0.00115112 3.38568e-15)
(0.58889 -0.0011037 3.15944e-15)
(0.587635 -0.00105878 3.2278e-15)
(0.586432 -0.0010162 3.39572e-15)
(0.866238 -0.0540954 -9.88256e-17)
(0.789012 -0.0740061 -3.02448e-18)
(0.675597 -0.0556232 -9.33447e-17)
(0.559877 -0.0345248 1.28635e-16)
(0.473166 -0.0204191 3.96219e-16)
(0.413117 -0.0117935 -3.5013e-16)
(0.370676 -0.00658745 1.16017e-16)
(0.340286 -0.00361678 3.09025e-16)
(0.318449 -0.00204067 3.89847e-16)
(0.302503 -0.00124843 4.59968e-16)
(0.290507 -0.00086056 7.13108e-16)
(0.281174 -0.000669781 6.36589e-18)
(0.273677 -0.000571007 1.08424e-16)
(0.267486 -0.00051347 1.92188e-16)
(0.262252 -0.000473838 -2.23659e-16)
(0.257742 -0.000442047 3.6908e-16)
(0.253794 -0.000414079 5.25234e-16)
(0.250296 -0.000388466 2.72797e-16)
(0.247163 -0.000364703 3.50576e-16)
(0.244333 -0.000342612 4.92542e-16)
(0.241758 -0.000322094 2.65764e-16)
(0.239401 -0.000303061 8.81396e-16)
(0.237231 -0.000285417 8.97658e-16)
(0.235225 -0.000269062 1.03814e-15)
(0.233364 -0.000253899 1.21978e-15)
(0.23163 -0.000239831 1.32926e-15)
(0.230011 -0.000226771 1.47547e-15)
(0.228495 -0.000214636 1.35268e-15)
(0.227072 -0.000203351 1.20577e-15)
(0.225733 -0.000192846 1.51788e-15)
(0.224472 -0.000183058 1.45673e-15)
(0.223281 -0.000173929 1.67817e-15)
(0.222156 -0.000165404 1.85958e-15)
(0.22109 -0.000157435 1.98891e-15)
(0.220079 -0.000149976 1.75356e-15)
(0.21912 -0.000142988 1.49347e-15)
(0.218209 -0.000136433 1.78813e-15)
(0.217341 -0.000130275 1.78938e-15)
(0.216516 -0.000124486 1.8142e-15)
(0.215729 -0.000119035 1.41874e-15)
(0.214978 -0.000113898 1.14801e-15)
(0.214261 -0.00010905 1.35883e-15)
(0.213576 -0.000104471 1.27529e-15)
(0.212921 -0.00010014 1.20866e-15)
(0.212294 -9.6041e-05 1.05917e-15)
(0.211694 -9.21564e-05 1.26065e-15)
(0.211119 -8.84716e-05 1.16888e-15)
(0.210568 -8.4973e-05 1.2051e-15)
(0.210039 -8.16483e-05 1.32947e-15)
(0.209532 -7.84859e-05 1.42299e-15)
)
;

boundaryField
{
    inlet
    {
        type            fixedValue;
        value           uniform (1 0 0);
    }
    outlet
    {
        type            zeroGradient;
    }
    wall
    {
        type            noSlip;
    }
    back
    {
        type            wedge;
    }
    front
    {
        type            wedge;
    }
    axis
    {
        type            empty;
    }
    procBoundary4to0
    {
        type            processor;
        value           nonuniform List<vector> 
50
(
(1.00027 -0.0149901 2.11484e-16)
(1.01807 -0.0428147 -6.37335e-16)
(1.05011 -0.0634213 7.48147e-16)
(1.0902 -0.0763652 -1.36124e-15)
(1.13292 -0.0831296 2.35073e-15)
(1.17524 -0.0851132 -6.31396e-15)
(1.21534 -0.0836414 1.30464e-14)
(1.25209 -0.0799658 -2.71617e-14)
(1.28504 -0.0750874 5.46055e-14)
(1.31422 -0.0697077 -1.09566e-13)
(1.3399 -0.0642821 2.23735e-13)
(1.36241 -0.0590839 -4.53625e-13)
(1.38215 -0.0542577 8.03842e-13)
(1.39947 -0.0498631 1.31439e-13)
(1.41472 -0.0459078 5.94411e-14)
(1.42819 -0.0423702 5.23617e-14)
(1.44014 -0.0392143 4.6947e-14)
(1.45076 -0.0363988 4.22225e-14)
(1.46026 -0.0338825 3.85455e-14)
(1.46879 -0.0316269 3.62021e-14)
(1.47646 -0.0295975 3.33157e-14)
(1.4834 -0.0277643 3.0709e-14)
(1.4897 -0.0261014 2.93761e-14)
(1.49543 -0.0245867 2.78745e-14)
(1.50067 -0.0232016 2.65809e-14)
(1.50547 -0.0219302 2.51605e-14)
(1.50987 -0.0207593 2.44055e-14)
(1.51393 -0.0196774 2.28959e-14)
(1.51768 -0.0186749 2.28487e-14)
(1.52115 -0.0177436 2.1198e-14)
(1.52437 -0.0168763 2.22445e-14)
(1.52737 -0.0160669 1.87896e-14)
(1.53016 -0.0153099 2.31407e-14)
(1.53277 -0.0146008 1.26889e-14)
(1.53521 -0.0139352 2.92314e-14)
(1.53749 -0.0133097 -1.95542e-17)
(1.53964 -0.0127209 4.60761e-14)
(1.54165 -0.012166 -4.69823e-14)
(1.54355 -0.0116423 6.19055e-14)
(1.54534 -0.0111474 4.20095e-14)
(1.54703 -0.0106794 3.72185e-14)
(1.54863 -0.0102362 3.37595e-14)
(1.55014 -0.00981606 3.10435e-14)
(1.55158 -0.0094175 2.85444e-14)
(1.55294 -0.00903903 2.64095e-14)
(1.55423 -0.00867933 2.5162e-14)
(1.55546 -0.00833719 2.32293e-14)
(1.55663 -0.0080115 2.24125e-14)
(1.55774 -0.00770125 2.1035e-14)
(1.5588 -0.00740549 2.02783e-14)
)
;
    }
    procBoundary4to5
    {
        type            processor;
        value           nonuniform List<vector> 5((1.39704 -0.00607605 1.70513e-14) (1.18112 -0.00438954 1.17276e-14) (0.910164 -0.00252551 6.74834e-15) (0.585276 -0.000975781 3.49309e-15) (0.209045 -7.54756e-05 1.25077e-15));
    }
}


// ************************************************************************* //
