/*--------------------------------*- C++ -*----------------------------------*\
| =========                 |                                                 |
| \\      /  F ield         | OpenFOAM: The Open Source CFD Toolbox           |
|  \\    /   O peration     | Version:                                        |
|   \\  /    A nd           | Website:  www.openfoam.com                      |
|    \\/     M anipulation  |                                                 |
\*---------------------------------------------------------------------------*/
FoamFile
{
    version     2.0;
    format      ascii;
    class       surfaceScalarField;
    location    "98.7";
    object      phi;
}
// * * * * * * * * * * * * * * * * * * * * * * * * * * * * * * * * * * * * * //

dimensions      [0 3 -1 0 0 0 0];
oriented        oriented;


internalField   nonuniform List<scalar> 
2201
(
0.000831967
-0.000284967
-0.000547
0.000965119
-0.000133152
0.00162567
-0.000660551
0.00166355
-3.78809e-05
0.000208408
0.00145514
-0.00229594
0.00250435
-0.00612794
0.003832
-0.0107299
0.00460197
-0.0142693
0.00353942
0.00265578
-0.0169251
-0.000481717
-0.000153277
0.000350026
-0.00210238
0.00148751
-0.0063143
0.00355138
-0.011873
0.00552086
-0.017387
0.00696907
-0.0216782
0.00679554
-0.0247169
0.00687077
-0.0264402
0.0063252
-0.0278417
0.00494099
0.0039233
-0.0291092
-0.00847206
0.00427952
0.00403926
-0.0144369
0.0074523
-0.0199776
0.00909213
-0.0237309
0.00927418
-0.0263416
0.00957974
-0.0286796
0.00913357
-0.0300675
0.00825862
-0.030569
0.00682668
-0.0308681
0.00524015
0.00406378
-0.0310086
-0.0194656
0.0103469
0.0133982
-0.0237776
0.0117643
-0.0267813
0.0120959
-0.0290698
0.0115626
-0.030325
0.0108349
-0.0311026
0.00991118
-0.0314547
0.00861069
-0.0315465
0.00691854
-0.0316074
0.00530104
0.0038975
-0.0314411
-0.0260388
0.0142127
0.022173
-0.0284435
0.0141691
-0.029976
0.0136283
-0.0310527
0.0126393
-0.0316046
0.0113868
-0.0318257
0.0101323
-0.0318195
0.0086045
-0.0317931
0.00689215
-0.0317728
0.00528068
0.00369011
-0.0315654
-0.029225
0.0159914
0.0274462
-0.0304664
0.0154105
-0.0312261
0.0143881
-0.0316575
0.0130707
-0.0319468
0.0116761
-0.0320534
0.0102389
-0.0320002
0.00855127
-0.0319776
0.00686959
-0.0318951
0.00519816
0.00348677
-0.0316918
-0.0305905
0.0166547
0.0299272
-0.0313145
0.0161344
-0.0316518
0.0147255
-0.0318473
0.0132662
-0.0321208
0.0119496
-0.0322055
0.0103235
-0.0321968
0.00854259
-0.0322188
0.00689154
-0.0320934
0.00507282
0.00329171
-0.0318984
-0.0311882
0.017034
0.030809
-0.0316801
0.0166264
-0.0317815
0.0148268
-0.0319489
0.0134336
-0.0322901
0.0122908
-0.0323349
0.0103684
-0.0324019
0.00860961
-0.0324718
0.00696143
-0.032307
0.00490806
0.00312856
-0.0321439
-0.0314876
0.0175021
0.0310195
-0.0317757
0.0169145
-0.0318236
0.0148747
-0.0320828
0.0136929
-0.0324572
0.0126652
-0.0324976
0.0104088
-0.0326483
0.0087603
-0.0327568
0.00706987
-0.0325749
0.00472619
0.00301208
-0.0324584
-0.0315746
-0.0317255
0.0170654
-0.0318601
0.0150092
-0.0322592
0.0140919
-0.0326475
0.0130536
-0.0327427
0.0105039
-0.0329556
0.0089732
-0.0331072
0.0072215
-0.0329153
0.00453432
0.00296343
-0.0328667
-0.0316355
0.0171821
-0.0318892
0.0152629
-0.0325373
0.0147401
-0.0328356
0.0133519
-0.033074
0.0107423
-0.0333453
0.0092445
-0.0334688
0.00734496
-0.0333784
0.00444393
0.00287234
-0.0332873
-0.03149
-0.0320257
0.0157986
-0.0327614
0.0154758
-0.0330435
0.013634
-0.0334366
0.0111354
-0.0337396
0.0095475
-0.0338623
0.00746766
-0.0338516
0.00443322
0.00275618
-0.0337355
-0.0320774
0.016372
-0.0329394
0.0163378
-0.0333383
0.014033
-0.0337267
0.0115238
-0.0342405
0.0100613
-0.0342321
0.00745926
-0.0344
0.00460112
0.00255933
-0.0342031
-0.0322501
-0.033081
0.0171687
-0.0336107
0.0145627
-0.0340928
0.0120058
-0.0347344
0.0107029
-0.0346911
0.007416
-0.0350129
0.00492296
0.00229675
-0.0347504
-0.0331851
0.0178602
-0.0339342
0.0153117
-0.0346235
0.0126951
-0.0351855
0.0112648
-0.0353488
0.00757937
-0.0356527
0.00522678
0.00208684
-0.0354427
-0.033474
0.0188448
-0.0342897
0.0161275
-0.0352532
0.0136586
-0.035682
0.0116937
-0.0361085
0.00800579
-0.0363039
0.00542218
0.00200029
-0.0362173
-0.0338381
-0.0347568
0.0170462
-0.0358308
0.0147325
-0.0362806
0.0121436
-0.0368135
0.00853872
-0.0369732
0.00558184
0.00201692
-0.0369898
-0.0352498
0.0181338
-0.036384
0.0158666
-0.0368863
0.0126459
-0.0374696
0.00912197
-0.0377075
0.00581974
0.00199996
-0.0376905
-0.0358186
0.0192945
-0.0369048
0.0169527
-0.0375679
0.0133091
-0.0381175
0.00967154
-0.0384792
0.00618148
0.00198094
-0.0384602
-0.0362096
-0.0374144
0.0181575
-0.0382258
0.0141205
-0.0387842
0.01023
-0.0392442
0.00664142
0.00213322
-0.0393964
0.0105182
-0.000685084
0.0102817
0.000236479
0.00915418
0.0011275
0.00710592
0.00204826
0.00450217
0.00260375
0.00201114
0.00249103
0.000388618
0.00162253
-0.000144123
0.000532742
8.86381e-05
-0.000232762
-0.000458361
0.00974514
-0.00164367
0.0100477
-6.60676e-05
0.00934858
0.00182661
0.00778948
0.00360736
0.00566455
0.00472869
0.00324996
0.00490561
0.00112774
0.00374475
-0.000209624
0.00187011
-0.00048001
3.76239e-05
-0.000588345
0.00592623
0.00584408
1.60818e-05
0.00524626
0.00242443
0.00419379
0.00465983
0.00271609
0.00620638
0.000973461
0.00664824
-0.00066924
0.00538745
-0.00159586
0.00279672
-0.00217382
0.000615583
0.0012771
0.000325027
-0.000198701
-0.00103337
-0.00215741
-0.00328164
0.00777247
-0.00402943
0.00613524
-0.00481902
0.00358632
-0.00775124
0.0035478
0.00692409
-0.00775037
-0.00822347
0.00660833
-0.0108598
0.00622267
-0.0164849
0.00917287
0.0126122
-0.0140107
-0.018747
0.0109589
-0.0241049
0.0145308
0.0159535
-0.0256609
-0.0287859
0.0176557
0.0170948
-0.0309129
0.016991
0.0019178
0.0513699
-0.0511545
0.00194779
0.0536429
-0.0536729
0.00204723
0.0564547
-0.0565541
0.00198687
0.0595976
-0.0595372
0.00190923
0.0631127
-0.0630351
0.00193883
0.0670179
-0.0670475
0.00214541
0.0713193
-0.0715259
0.00239451
0.0760569
-0.0763061
0.00256198
0.0811771
-0.0813446
0.00259855
0.0866128
-0.0866494
0.002545
0.092311
-0.0922574
0.00241446
0.0983449
-0.0982143
0.00223908
0.104776
-0.1046
0.00206998
0.111703
-0.111534
0.00192106
0.11926
-0.119111
0.00177146
0.127456
-0.127306
0.00164476
0.136212
-0.136085
0.00153222
0.145585
-0.145472
0.00142199
0.155614
-0.155504
0.00131268
0.166272
-0.166163
0.00120079
0.177604
-0.177493
0.00108562
0.189696
-0.189581
0.000966825
0.202624
-0.202505
0.000840151
0.21646
-0.216333
0.000708456
0.231264
-0.231133
0.000571999
0.247107
-0.246971
0.000430446
0.264072
-0.26393
0.000290382
0.282255
-0.282115
0.000150099
0.301752
-0.301611
0.322638
-0.322488
0.00637676
0.0516346
0.00604592
0.0539738
0.0059349
0.0565657
0.00601406
0.0595184
0.00617049
0.0629563
0.00627541
0.0669129
0.00629148
0.0713032
0.00627782
0.0760706
0.00624176
0.0812132
0.00619051
0.0866641
0.00609647
0.092405
0.00592604
0.0985153
0.00569326
0.105008
0.00546372
0.111932
0.00522831
0.119495
0.00499074
0.127693
0.00476742
0.136435
0.00453707
0.145815
0.00429204
0.155859
0.00402796
0.166536
0.00373399
0.177898
0.00341327
0.190017
0.00306791
0.202969
0.00269712
0.21683
0.00230923
0.231652
0.00189521
0.247521
0.00145757
0.26451
0.00100075
0.282712
0.000515124
0.302237
0.323153
0.0104593
0.0514052
0.010726
0.0537072
0.0108962
0.0563955
0.0109042
0.0595103
0.0108923
0.0629682
0.0110062
0.0667991
0.0111936
0.0711158
0.0113023
0.0759619
0.0112738
0.0812417
0.0111347
0.0868032
0.0109061
0.0926336
0.0105648
0.0988566
0.010152
0.105421
0.00973152
0.112353
0.00926428
0.119963
0.00878026
0.128177
0.00831407
0.136901
0.00782725
0.146302
0.00733692
0.15635
0.00683352
0.167039
0.00630451
0.178427
0.00575253
0.190569
0.00516712
0.203555
0.00454874
0.217449
0.00389776
0.232303
0.00320548
0.248213
0.00247189
0.265243
0.00169921
0.283485
0.000875671
0.303061
0.324029
0.014133
0.0513927
0.0141956
0.0536446
0.0143915
0.0561996
0.0145273
0.0593745
0.0145058
0.0629898
0.0144059
0.0668989
0.0143359
0.0711858
0.0143168
0.0759811
0.0143095
0.0812489
0.0142733
0.0868393
0.0141262
0.0927807
0.0137952
0.0991877
0.0133807
0.105836
0.0129267
0.112807
0.0123791
0.12051
0.0118477
0.128709
0.0113089
0.13744
0.01072
0.146891
0.0101179
0.156952
0.00947158
0.167686
0.00877193
0.179127
0.00801994
0.191321
0.0072128
0.204362
0.00636061
0.218301
0.00545982
0.233204
0.00449835
0.249175
0.0034758
0.266266
0.00238948
0.284571
0.00123251
0.304218
0.325261
0.0187018
0.0190129
0.0192214
0.0193795
0.0195394
0.0196964
0.0197064
0.0195388
0.019306
0.0190653
0.0187205
0.0931255
0.0182221
0.0996861
0.0177125
0.106345
0.0170672
0.113452
0.0162811
0.121296
0.0155416
0.129448
0.0147429
0.138239
0.0138971
0.147737
0.0130538
0.157795
0.0121687
0.168571
0.0112451
0.180051
0.0102682
0.192298
0.00923762
0.205392
0.00814764
0.219391
0.0069921
0.23436
0.0057598
0.250407
0.00445235
0.267573
0.00306147
0.285962
0.00157981
0.305699
0.326841
0.0216319
0.0211593
0.0206636
0.0199208
0.0191256
0.0183906
0.0175015
0.016589
0.0156508
0.0146373
0.0135597
0.0124066
0.011176
0.00986903
0.00847617
0.00698853
0.00540654
0.0037186
0.00191894
0.0301182
0.0330344
-0.0287455
-0.0344071
0.0319192
0.0296769
-0.0314779
0.0339022
0.0267508
-0.0287338
0.0352258
0.0234355
-0.0247592
0.0367129
0.0193602
-0.0208473
0.0379367
0.0161164
-0.0173402
0.0384468
0.0120777
-0.0125878
0.0391709
0.00788339
-0.00860749
0.0394224
0.00398236
-0.00423382
-0.000392092
0.000418036
0.0294464
0.0311841
-0.027596
0.0311451
0.0279783
0.0330595
0.0248364
0.0344998
0.0219952
0.0355161
0.018344
0.0368693
0.0147632
0.0376481
0.0112989
0.0381279
0.00740355
0.0385627
0.00354761
-0.000289615
0.0287167
0.0291581
-0.0266907
0.0304304
0.0262646
0.0321084
0.0231584
0.0337887
0.0203148
0.0348324
0.0173002
0.0358089
0.0137868
0.0367698
0.010338
0.037282
0.00689132
0.0376691
0.00316053
-0.000311053
0.0280262
0.0271198
-0.0259879
0.0298381
0.0244528
0.0312668
0.0217296
0.032874
0.0187076
0.0341584
0.0160159
0.0351515
0.0127936
0.0358894
0.00960014
0.0365376
0.00624314
0.0368288
0.00286929
-0.000472086
0.0273081
0.0252229
-0.0254113
0.0292008
0.02256
0.0306765
0.020254
0.032051
0.0173331
0.0333053
0.0147615
0.034381
0.011718
0.0351516
0.00882949
0.0357641
0.00563066
0.0361003
0.00253309
-0.000589099
0.0267516
0.0234406
-0.0249693
0.0284539
0.0208577
0.0300562
0.0186517
0.0313846
0.0160047
0.0325888
0.0135574
0.0335817
0.010725
0.0343657
0.0080455
0.0349669
0.00502948
0.0353633
0.00213675
-0.000668591
0.0263671
0.0215252
-0.0244516
0.0279119
0.0193129
0.0294192
0.0171444
0.0307373
0.0146866
0.0319038
0.0123908
0.0329045
0.00972432
0.0336467
0.00730334
0.0342468
0.00442934
0.0346388
0.00174472
-0.000780117
0.0258685
0.0195546
-0.0238979
0.0275109
0.0176704
0.0289328
0.0157226
0.0302228
0.0133967
0.0313298
0.0112838
0.0322999
0.00875431
0.0330448
0.00655839
0.0336441
0.00383006
0.0340055
0.00138336
-0.0009778
0.0253153
0.0177388
-0.0234995
0.0270266
0.0159591
0.0284788
0.0142703
0.0297451
0.0121304
0.0308599
0.0101689
0.0317845
0.00782974
0.0325394
0.0058035
0.0331285
0.00324092
0.0334682
0.00104369
-0.00124506
0.0249051
0.0160595
-0.0232257
0.0265427
0.0143215
0.0280109
0.0128021
0.0292685
0.0108728
0.0303891
0.00904837
0.0313036
0.00691519
0.0320661
0.00504107
0.0326449
0.0026621
0.0329953
0.000693279
-0.00153708
0.0246619
0.0143664
-0.0229688
0.0261589
0.0128245
0.0276274
0.0113337
0.0288323
0.00966787
0.0299553
0.00792533
0.0308408
0.00602971
0.0316087
0.00427315
0.0321828
0.00208808
0.0325331
0.000342903
-0.00187061
0.0244842
0.0126232
-0.0227411
0.0259279
0.0113808
0.0273613
0.00990028
0.0285351
0.0084941
0.0296275
0.00683287
0.0304777
0.00517953
0.0312448
0.00350608
0.0317743
0.00155852
0.0321783
-6.10131e-05
-0.00215078
0.024278
0.0109123
-0.0225671
0.0257651
0.00989366
0.0271507
0.00851473
0.028334
0.00731078
0.0293949
0.00577191
0.0302314
0.00434308
0.0309762
0.00276131
0.0314753
0.00105941
0.0319086
-0.000494311
-0.00238609
0.024115
0.00927767
-0.0224803
0.0256496
0.00835897
0.0269932
0.0071712
0.0281969
0.00610709
0.0292302
0.00473857
0.0300744
0.00349886
0.0307852
0.00205055
0.0312698
0.000574817
0.0317028
-0.000927345
-0.00258164
0.0240535
0.00769464
-0.0224705
0.0255816
0.0068309
0.0268966
0.0058562
0.0280926
0.0049111
0.0291008
0.00373037
0.0299586
0.00264109
0.0306331
0.00137602
0.0311117
9.61918e-05
0.0315211
-0.0013367
-0.00275233
0.0241544
0.00608974
-0.0225495
0.0256554
0.00532991
0.0269475
0.00456409
0.0281192
0.00373944
0.0290695
0.00278004
0.0299463
0.0017643
0.0305833
0.00073898
0.0310603
-0.000380755
0.0314218
-0.00169826
-0.00289588
0.0243307
0.00445101
-0.0226919
0.0258454
0.0038152
0.0271277
0.00328174
0.028304
0.00256309
0.0291639
0.00192013
0.0299417
0.00098656
0.0306431
3.75207e-05
0.0310783
-0.000815879
0.0313506
-0.00197062
-0.00298637
0.0245559
0.00280042
-0.0229053
0.0260735
0.00229763
0.0273412
0.00201403
0.0285846
0.00131968
0.0295258
0.000978946
0.0302162
0.000296175
0.0306016
-0.000347879
0.0310049
-0.00121918
0.0310902
-0.00205588
-0.00290483
0.0250885
0.00115134
-0.0234394
0.0265127
0.000873409
0.0277702
0.000756486
0.0288667
0.000223192
0.0296963
0.000149369
0.0303499
-0.000357401
0.0305854
-0.000583461
0.0304349
-0.00106867
0.029886
-0.00150696
-0.00212805
0.0205672
-0.0194159
0.0214406
0.0221971
0.0224203
0.0225697
0.0222123
0.0216288
0.0205601
0.0190532
0.0207358
0.0421862
0.0231483
0.0401633
-0.0425758
0.0257225
0.037527
-0.0401012
0.035099
-0.038122
0.0176203
0.0412238
0.0202685
0.0395379
0.0227348
0.037697
0.0252913
0.0349705
0.0327943
0.0118661
0.0409454
0.0146023
0.0399511
0.0172407
0.0385854
0.0198365
0.0369421
0.0222911
0.0352425
0.0246005
0.0326611
0.0307041
0.00334263
0.039542
0.00613964
0.0393753
0.00891127
0.0389495
0.0116391
0.0382176
0.0143125
0.0372777
0.0168848
0.036013
0.0194089
0.0344181
0.0217653
0.0328861
0.0239078
0.0305186
0.028624
0.00331866
0.0367921
0.00605609
0.0366378
0.00876584
0.0362397
0.0114278
0.0355556
0.014035
0.0346705
0.0165364
0.0335117
0.0189782
0.0319762
0.0212826
0.0305817
0.0233465
0.0284547
0.0265593
0.0032949
0.0340965
0.00597547
0.0339573
0.00862527
0.0335899
0.011225
0.0329559
0.0137758
0.0321197
0.0162117
0.0310758
0.0185702
0.0296177
0.0208186
0.0283333
0.0228606
0.0264126
0.0244506
0.00327221
0.0314546
0.00589598
0.0313335
0.00849189
0.030994
0.0110341
0.0304137
0.0135262
0.0296275
0.0159172
0.0286848
0.0182077
0.0273272
0.0204282
0.0261129
0.0223845
0.0244563
0.0223835
0.00325769
0.0288669
0.00582836
0.0287628
0.0083693
0.0284531
0.0108595
0.0279235
0.0133044
0.0271827
0.0156498
0.0263394
0.0178655
0.0251115
0.0200986
0.0238798
0.0220325
0.0225223
0.0205182
0.00325045
0.0263281
0.00577146
0.0262418
0.00826696
0.0259576
0.0107034
0.025487
0.0130942
0.0247919
0.0154286
0.024005
0.0175944
0.0229457
0.0197531
0.0217211
0.0217413
0.0205341
0.0187599
0.00325107
0.0238348
0.00572811
0.0237648
0.00818009
0.0235056
0.010586
0.0230811
0.0129169
0.0224609
0.0152062
0.0217157
0.0173778
0.020774
0.0194832
0.0196158
0.0214432
0.0185741
0.0169774
0.00325764
0.021379
0.00569845
0.021324
0.008112
0.0210921
0.0104836
0.0207095
0.0127861
0.0201585
0.0150374
0.0194644
0.017155
0.0186565
0.0192511
0.0175197
0.0212057
0.0166195
0.0152143
0.00327159
0.0189564
0.00568041
0.0189152
0.0080654
0.0187071
0.0104205
0.0183544
0.0126729
0.0179061
0.0149131
0.0172242
0.0170154
0.0165541
0.0190118
0.0155233
0.02102
0.0146113
0.0134932
0.00329193
0.0165587
0.00568017
0.0165269
0.00802829
0.016359
0.0103808
0.0160018
0.0126312
0.0156558
0.0147926
0.0150627
0.0169424
0.0144044
0.0188565
0.0136091
0.0208345
0.0126333
0.0117606
0.00332118
0.0141769
0.00570094
0.0141472
0.00802581
0.0140341
0.0103426
0.013685
0.0126365
0.0133619
0.0147678
0.0129315
0.0168771
0.0122951
0.0188269
0.0116593
0.0207027
0.0107575
0.00998301
0.00335608
0.0118082
0.00573981
0.0117635
0.00806088
0.011713
0.0103464
0.0113995
0.0126151
0.0110931
0.0148263
0.0107203
0.0168797
0.0102417
0.0188776
0.00966139
0.0206757
0.00895945
0.00818816
0.00340099
0.00943436
0.00580488
0.00935957
0.00812451
0.00939337
0.0104229
0.0091011
0.0126381
0.00887791
0.0148585
0.00849999
0.0169528
0.00814737
0.0189693
0.00764487
0.0207874
0.0071413
0.00642608
0.00344734
0.00705057
0.00589149
0.00691542
0.00823785
0.00704701
0.0105445
0.00679442
0.0127872
0.00663522
0.0149596
0.0063276
0.0170835
0.00602352
0.0190779
0.00565048
0.0209719
0.00524726
0.00470606
0.00350949
0.00465257
0.0059743
0.00445061
0.00836226
0.00465905
0.0107043
0.00445239
0.0129548
0.00438466
0.0151518
0.00413061
0.0172968
0.00387851
0.0192514
0.00369594
0.0212039
0.0032947
0.00300467
0.00364909
0.00215517
0.00612745
0.00197225
0.00861823
0.00216827
0.0110508
0.0020198
0.0133848
0.00205072
0.0156406
0.00187479
0.0178092
0.00170995
0.0198147
0.00169042
0.0217425
0.00136687
0.00130778
0.00325501
0.00522726
0.00739552
0.00941533
0.011466
0.0133408
0.0150508
0.0167412
0.0181081
0.0386412
0.00577051
0.00641127
0.00701206
0.00753123
0.00505589
0.0472736
0.00497674
0.0509006
0.00465344
0.0547915
0.00420219
0.0589992
0.00371992
0.0635724
0.00324194
0.068351
0.00278867
0.0732082
0.00236242
0.078168
0.00198973
0.0833448
0.00170069
0.088912
0.00150231
0.0949683
0.00138375
0.101536
0.00133234
0.108685
0.001328
0.116449
0.00132057
0.12473
0.00128544
0.133432
0.00122242
0.142632
0.00113229
0.152465
0.00101836
0.162944
0.000890702
0.174072
0.000765661
0.185937
0.000650705
0.198635
0.000547369
0.212238
0.000452867
0.226792
0.000364782
0.242352
0.000283339
0.258989
0.000200352
0.276823
0.000103134
0.295945
5.53974e-05
0.316602
0.338533
0.00619654
0.0486083
0.00533034
0.0517668
0.00463307
0.0554888
0.0041324
0.0594999
0.00374967
0.0639551
0.00340876
0.0686919
0.00306975
0.0735472
0.00271659
0.0785211
0.00234899
0.0837124
0.00200981
0.0892512
0.00173571
0.0952424
0.00153
0.101742
0.0014012
0.108813
0.00133665
0.116513
0.00130225
0.124765
0.00125673
0.133477
0.00118663
0.142702
0.00109156
0.15256
0.000977301
0.163059
0.000854149
0.174195
0.000733232
0.186057
0.000621995
0.198747
0.000520991
0.212339
0.000428858
0.226884
0.000343531
0.242437
0.000266546
0.259066
0.000187907
0.276902
9.69236e-05
0.296036
5.10346e-05
0.316648
0.338584
-0.034213
0.0484142
-0.0344376
0.0519915
-0.0345882
0.0556394
-0.0347511
0.0596628
-0.0348248
0.0640288
-0.0347216
0.0685888
-0.0344393
0.0732649
-0.034055
0.0781368
-0.0336088
0.0832662
-0.0330914
0.0887338
-0.0324898
0.0946408
-0.031791
0.101043
-0.0309862
0.108009
-0.0300569
0.115584
-0.0290098
0.123718
-0.0278658
0.132333
-0.0266439
0.141481
-0.0253473
0.151263
-0.0239612
0.161673
-0.0224756
0.17271
-0.0208794
0.184461
-0.0191623
0.19703
-0.0173144
0.210491
-0.0153286
0.224898
-0.0131994
0.240308
-0.0109175
0.256784
-0.00846546
0.27445
-0.00586524
0.293435
-0.00301721
0.3138
0.335567
-0.0319112
0.0488474
-0.0321163
0.0521966
-0.0322762
0.0557993
-0.0323531
0.0597397
-0.0322815
0.0639572
-0.032029
0.0683363
-0.0316743
0.0729102
-0.0312595
0.0777219
-0.0307865
0.0827932
-0.0302582
0.0882055
-0.0296682
0.0940508
-0.0290057
0.100381
-0.028249
0.107252
-0.0273865
0.114721
-0.0264203
0.122751
-0.0253719
0.131285
-0.0242597
0.140368
-0.0230793
0.150083
-0.0218171
0.16041
-0.0204619
0.171355
-0.0190051
0.183004
-0.0174381
0.195463
-0.0157535
0.208806
-0.0139439
0.223089
-0.0120037
0.238368
-0.00992625
0.254707
-0.00769824
0.272222
-0.00532265
0.29106
-0.00274663
0.311224
0.33282
-0.0292042
0.0493178
-0.0292011
0.0521934
-0.0290792
0.0556774
-0.0289967
0.0596572
-0.0288566
0.063817
-0.0286669
0.0681466
-0.028425
0.0726683
-0.0281183
0.0774152
-0.0277602
0.0824351
-0.0273412
0.0877865
-0.0268514
0.093561
-0.0262709
0.0998003
-0.0255888
0.10657
-0.0247936
0.113926
-0.0239007
0.121859
-0.0229291
0.130313
-0.0218858
0.139325
-0.0207741
0.148971
-0.0195918
0.159228
-0.0183415
0.170104
-0.0170148
0.181678
-0.0155999
0.194048
-0.0140845
0.207291
-0.0124605
0.221465
-0.0107228
0.23663
-0.00886621
0.25285
-0.00687858
0.270234
-0.00475138
0.288932
-0.0024581
0.30893
0.330362
-0.0246921
0.0492508
-0.0249541
0.0524554
-0.0253575
0.0560808
-0.0254851
0.0597849
-0.025351
0.0636829
-0.0250827
0.0678783
-0.024766
0.0723516
-0.0244502
0.0770994
-0.0241153
0.0821002
-0.0237385
0.0874098
-0.0233029
0.0931254
-0.0227936
0.0992909
-0.0221939
0.10597
-0.0215036
0.113236
-0.0207403
0.121095
-0.0199165
0.129489
-0.0190389
0.138447
-0.0180983
0.148031
-0.017088
0.158218
-0.0160059
0.169022
-0.0148503
0.180522
-0.0136167
0.192814
-0.0122975
0.205972
-0.0108839
0.220051
-0.00936853
0.235115
-0.00774745
0.251229
-0.00601169
0.268498
-0.00414932
0.28707
-0.00215029
0.306931
0.328212
-0.0215524
0.0499559
-0.0218966
0.0527997
-0.0218505
0.0560347
-0.0216851
0.0596194
-0.0215296
0.0635275
-0.0213719
0.0677206
-0.0211803
0.0721599
-0.0209276
0.0768468
-0.0206276
0.0818001
-0.0202903
0.0870726
-0.0199096
0.0927446
-0.0194676
0.0988489
-0.0189516
0.105454
-0.0183564
0.11264
-0.017697
0.120436
-0.0169875
0.12878
-0.0162262
0.137686
-0.01541
0.147214
-0.0145368
0.157345
-0.0136093
0.168095
-0.0126219
0.179535
-0.0115671
0.191759
-0.0104387
0.204843
-0.00923444
0.218847
-0.00794818
0.233828
-0.00657494
0.249856
-0.00510447
0.267028
-0.00352174
0.285487
-0.00182668
0.305236
0.326385
-0.0170838
0.0496994
-0.0168018
0.0525178
-0.0169294
0.0561622
-0.0170784
0.0597684
-0.0170583
0.0635074
-0.016923
0.0675853
-0.0167473
0.0719842
-0.0165919
0.0766914
-0.016441
0.0816492
-0.0162607
0.0868923
-0.0160243
0.0925082
-0.0157133
0.0985378
-0.0153149
0.105056
-0.0148364
0.112162
-0.014304
0.119903
-0.013729
0.128205
-0.0131224
0.137079
-0.0124779
0.14657
-0.0117914
0.156658
-0.0110557
0.167359
-0.0102659
0.178745
-0.00941665
0.19091
-0.00850383
0.20393
-0.00752422
0.217867
-0.00647729
0.232782
-0.00535962
0.248738
-0.00416195
0.26583
-0.00286984
0.284195
-0.00148857
0.303855
0.324896
-0.0130316
0.0501432
-0.0137071
0.0531932
-0.0139271
0.0563822
-0.0137715
0.0596128
-0.0135846
0.0633205
-0.0134258
0.0674264
-0.0132554
0.0718139
-0.0130453
0.0764813
-0.0128057
0.0814097
-0.0125694
0.086656
-0.0123308
0.0922696
-0.0120715
0.0982785
-0.0117675
0.104752
-0.0114114
0.111806
-0.0110069
0.119499
-0.0105655
0.127763
-0.0100871
0.136601
-0.00957355
0.146056
-0.00903196
0.156116
-0.00846513
0.166792
-0.00786061
0.178141
-0.00721127
0.190261
-0.0065126
0.203232
-0.00576121
0.217116
-0.00495913
0.231979
-0.00410623
0.247885
-0.00319189
0.264916
-0.00220085
0.283204
-0.0011409
0.302795
0.323755
-0.00897987
0.0505155
-0.00881216
0.0530255
-0.0086067
0.0561767
-0.00853797
0.0595441
-0.00847464
0.0632572
-0.00838304
0.0673348
-0.00832859
0.0717594
-0.00833387
0.0764866
-0.00837405
0.0814498
-0.00839597
0.0866779
-0.00836283
0.0922364
-0.00825989
0.0981756
-0.00808528
0.104577
-0.00784696
0.111568
-0.00756394
0.119216
-0.00724897
0.127448
-0.00691264
0.136265
-0.00654962
0.145693
-0.00616971
0.155737
-0.00577513
0.166397
-0.00536345
0.177729
-0.00492567
0.189823
-0.00445562
0.202762
-0.00394915
0.21661
-0.00340444
0.231435
-0.00282195
0.247303
-0.00219632
0.26429
-0.00151466
0.282523
-0.000784425
0.302065
0.322971
-0.00437963
0.0506613
-0.00466748
0.0533134
-0.00494594
0.0564552
-0.00512431
0.0597225
-0.00511309
0.0632459
-0.00501479
0.0672365
-0.00480539
0.07155
-0.0045602
0.0762414
-0.00434673
0.0812364
-0.00422029
0.0865515
-0.00415219
0.0921683
-0.00411478
0.0981382
-0.00407603
0.104538
-0.00400909
0.111501
-0.00390089
0.119108
-0.00377384
0.127321
-0.00361994
0.136111
-0.00343855
0.145512
-0.00324379
0.155542
-0.00304158
0.166195
-0.00282904
0.177516
-0.00260314
0.189597
-0.00236025
0.202519
-0.0020989
0.216348
-0.001817
0.231153
-0.00151331
0.246999
-0.00118519
0.263962
-0.000819932
0.282157
-0.00042397
0.301669
0.322547
-7.51323e-05
-0.000434712
-0.000533649
-0.000348374
-0.000137517
5.15644e-05
7.56879e-05
1.09998e-05
-9.72023e-05
-0.000195119
-0.000284219
-0.000360367
-0.00042215
-0.000455138
-0.000458303
-0.000443078
-0.000417192
-0.000377809
-0.000340002
-0.000307387
-0.000283588
-0.000267384
-0.000253742
-0.000238489
-0.000218381
-0.000190129
-0.000158632
-0.000116693
-5.92927e-05
)
;

boundaryField
{
    outlet
    {
        type            calculated;
        value           nonuniform 0();
    }
    upperWall
    {
        type            symmetryPlane;
        value           nonuniform 0();
    }
    lowerWall
    {
        type            symmetryPlane;
        value           uniform 0;
    }
    inlet
    {
        type            calculated;
        value           nonuniform 0();
    }
    cylinder
    {
        type            calculated;
        value           uniform 0;
    }
    frontAndBack
    {
        type            empty;
        value           nonuniform 0();
    }
    procBoundary1to0
    {
        type            processor;
        value           nonuniform List<scalar> 
45
(
-0.0180882
-0.0439221
-0.0448338
-0.0437458
-0.014922
-0.0426873
-0.0423488
-0.0421723
-0.00906571
-0.0417211
-0.0386789
-0.0432419
-0.00573282
-0.040702
-0.00574518
-0.046559
-0.0508214
-0.0544682
-0.058548
-0.0630901
-0.067873
-0.0727549
-0.0777417
-0.0829721
-0.088623
-0.0947699
-0.101418
-0.108633
-0.116444
-0.124723
-0.133396
-0.142569
-0.152375
-0.162831
-0.173945
-0.185811
-0.19852
-0.212134
-0.226698
-0.242264
-0.258907
-0.27674
-0.295847
-0.316554
-0.338477
)
;
    }
    procBoundary1to2
    {
        type            processor;
        value           nonuniform List<scalar> 
63
(
0.0180552
0.0310215
0.0315187
0.031317
0.0173551
0.031504
0.0312457
0.0173763
0.0324936
0.0324895
0.0326689
0.020014
0.0341622
0.034658
0.0349364
0.0205676
-0.00236279
-0.00068364
0.000374695
0.00294816
0.0054945
0.00733042
0.00744296
0.00807988
0.0121119
0.00850719
0.0210115
0.0156083
0.0300348
0.0185338
0.0314019
0.0166085
0.0508485
0.0533334
0.0559911
0.0592165
0.0628299
0.0667418
0.0711759
0.0761487
0.0814817
0.0870801
-0.0219581
0.0934517
0.100159
0.106841
0.114195
0.122091
0.130183
0.139128
0.148649
0.158733
0.169584
0.181128
0.193451
0.206623
0.220698
0.235753
0.251895
0.269155
0.28765
0.307499
0.32876
)
;
    }
    procBoundary1to5
    {
        type            processor;
        value           nonuniform List<scalar> 
20
(
-0.00983308
-0.00878656
-0.00520711
-0.000535893
-0.000568675
-0.000599298
-0.00063032
-0.000670032
-0.000711685
-0.000757723
-0.000801889
-0.000848926
-0.000894285
-0.000939306
-0.000987409
-0.00102717
-0.00106354
-0.00111149
-0.00115169
-0.00109984
)
;
    }
}


// ************************************************************************* //
