/*--------------------------------*- C++ -*----------------------------------*\
| =========                 |                                                 |
| \\      /  F ield         | OpenFOAM: The Open Source CFD Toolbox           |
|  \\    /   O peration     | Version:                                        |
|   \\  /    A nd           | Website:  www.openfoam.com                      |
|    \\/     M anipulation  |                                                 |
\*---------------------------------------------------------------------------*/
FoamFile
{
    version     2.0;
    format      ascii;
    class       volScalarField;
    location    "181.8";
    object      p;
}
// * * * * * * * * * * * * * * * * * * * * * * * * * * * * * * * * * * * * * //

dimensions      [0 2 -2 0 0 0 0];


internalField   nonuniform List<scalar> 
1164
(
-0.520263
-0.571649
-0.595762
-0.590926
-0.55485
-0.497153
-0.378779
-0.39943
-0.405354
-0.395191
-0.369168
-0.334096
-0.282203
-0.2392
-0.188168
-0.13049
-0.3179
-0.309539
-0.295331
-0.271799
-0.242834
-0.216071
-0.185058
-0.159217
-0.130412
-0.096902
-0.305008
-0.268777
-0.233725
-0.200836
-0.167218
-0.137224
-0.110615
-0.0913894
-0.0807207
-0.0667463
-0.363356
-0.302283
-0.243348
-0.189488
-0.140777
-0.100541
-0.0697464
-0.0463723
-0.0313977
-0.0214121
-0.459083
-0.369553
-0.287875
-0.218981
-0.162366
-0.115663
-0.0783583
-0.0495759
-0.0310433
-0.0165101
-0.485893
-0.382053
-0.289764
-0.200923
-0.127758
-0.077886
-0.0490156
-0.0310657
-0.0203702
-0.0109055
-0.413235
-0.337341
-0.267805
-0.207044
-0.154148
-0.109536
-0.0583791
-0.0332966
-0.0202937
-0.0139419
-0.348601
-0.294975
-0.239762
-0.182424
-0.129655
-0.0842795
-0.0500635
-0.0257327
-0.00777484
-0.00246897
-0.280646
-0.261217
-0.239988
-0.2185
-0.190419
-0.152249
-0.107112
-0.0624732
-0.0290698
-0.00461789
-0.274044
-0.278259
-0.281471
-0.277739
-0.263036
-0.239184
-0.203665
-0.161719
-0.115467
-0.0686845
-0.312044
-0.335592
-0.357034
-0.372102
-0.38465
-0.382637
-0.364723
-0.327465
-0.275841
-0.220995
-0.327165
-0.379127
-0.428877
-0.475088
-0.514745
-0.538003
-0.543195
-0.518336
-0.477197
-0.413784
-0.30187
-0.332298
-0.363442
-0.3943
-0.424025
-0.449024
-0.465822
-0.46201
-0.449385
-0.396205
-0.299898
-0.320767
-0.336182
-0.346229
-0.349263
-0.348114
-0.341554
-0.330396
-0.321356
-0.299826
-0.265231
-0.278091
-0.286821
-0.290964
-0.289276
-0.283115
-0.271307
-0.25684
-0.242125
-0.22244
-0.197258
-0.196206
-0.195504
-0.194916
-0.193294
-0.191123
-0.186805
-0.181152
-0.17198
-0.156397
-0.194704
-0.186142
-0.177519
-0.169366
-0.160468
-0.151468
-0.142446
-0.135828
-0.129841
-0.116252
-0.216194
-0.20057
-0.184154
-0.168086
-0.152556
-0.138221
-0.12517
-0.114163
-0.106849
-0.0986006
-0.230205
-0.216388
-0.201158
-0.185439
-0.169627
-0.153474
-0.136665
-0.118492
-0.100251
-0.0817716
-0.192985
-0.186253
-0.178365
-0.169462
-0.159574
-0.148543
-0.136487
-0.123654
-0.109919
-0.097109
-0.170758
-0.167934
-0.163768
-0.158445
-0.152715
-0.146512
-0.139922
-0.133602
-0.125407
-0.116427
-0.174148
-0.171395
-0.168174
-0.164774
-0.161273
-0.15788
-0.154328
-0.150093
-0.144464
-0.136782
-0.191852
-0.191701
-0.190925
-0.189633
-0.188041
-0.185574
-0.182006
-0.176543
-0.167815
-0.155444
-0.160031
-0.161812
-0.162605
-0.162219
-0.160819
-0.158038
-0.15341
-0.14685
-0.138746
-0.129101
-0.129049
-0.132573
-0.136199
-0.139678
-0.142819
-0.145103
-0.146225
-0.145741
-0.143813
-0.141037
-0.154833
-0.169865
-0.186039
-0.203005
-0.220206
-0.236994
-0.252357
-0.265285
-0.275066
-0.280461
-0.140113
-0.147722
-0.156214
-0.165981
-0.176359
-0.187249
-0.197813
-0.207076
-0.214643
-0.218874
-0.0596129
-0.0532672
-0.0472581
-0.0416574
-0.0365678
-0.0320512
-0.0281523
-0.0247106
-0.0221062
-0.0204175
-0.00519556
-0.00104455
0.00246789
0.00527308
0.00722107
0.00832469
0.00852314
0.00798361
0.0066518
0.00480908
-0.0406775
-0.0190275
-0.00418771
0.00894298
0.0165509
0.0221558
0.0256822
0.0270598
0.0285996
0.028694
0.0289257
0.0289046
0.0287195
0.0285546
0.0283929
0.0282412
0.0281046
0.0279933
0.0279149
0.0278853
0.027893
0.0279368
0.0280044
0.0280633
0.0281257
0.0281901
0.0282103
0.0282423
-0.0666097
-0.0434803
-0.0266292
-0.00719496
-0.00255825
0.0135475
0.0146479
0.0227635
0.0246952
0.0277511
0.0291649
0.0295464
0.0300741
0.0300515
0.0299312
0.0297532
0.0294975
0.0292275
0.0289965
0.0287863
0.0286289
0.0285082
0.0284259
0.0283696
0.0283358
0.0283092
0.0283
0.0283028
0.0282832
0.0282912
-0.0413591
-0.0243182
-0.010274
0.00448104
0.0099615
0.0215211
0.021244
0.0285156
0.0277357
0.0304666
0.0306122
0.0309828
0.0312289
0.0311465
0.0309809
0.0307876
0.030524
0.0302556
0.0299308
0.0296174
0.0293367
0.0291114
0.0289297
0.0287821
0.0286659
0.0285633
0.0284818
0.0284243
0.0283626
0.0283462
-0.00796441
0.00287034
0.0087456
0.0139881
0.0195167
0.0242473
0.0280579
0.032049
0.0320878
0.0335958
0.0329858
0.0329524
0.0327543
0.0323994
0.0321177
0.0317236
0.0313307
0.0309202
0.03053
0.0301808
0.0298591
0.0295695
0.029315
0.0290949
0.0289122
0.0287541
0.0286199
0.0285208
0.0284313
0.028397
-0.00437709
0.00314122
0.00828229
0.0129458
0.020425
0.0222998
0.0296091
0.029688
0.0315881
0.0329461
0.0333358
0.0336708
0.0334759
0.0330732
0.0327022
0.0323004
0.0319082
0.0314603
0.0310153
0.0305873
0.0301982
0.0298647
0.0295774
0.02932
0.0291007
0.0289012
0.0287299
0.0285993
0.0284888
0.0284401
-0.00377145
-0.000160401
0.00300886
0.00658143
0.0150547
0.0210148
0.028498
0.030911
0.0335334
0.0345838
0.0349489
0.0352675
0.0350137
0.0346131
0.0339537
0.0333095
0.0326897
0.0321327
0.0316571
0.0311801
0.0307468
0.0303367
0.0299675
0.0296357
0.0293397
0.0290796
0.0288576
0.0286817
0.0285417
0.028474
-0.00649873
0.00163805
0.00857549
0.0150429
0.0239004
0.0297006
0.0343781
0.0364045
0.038575
0.0388264
0.0388358
0.0381287
0.0371129
0.0360675
0.0351708
0.0344158
0.0336745
0.0330048
0.032367
0.0318074
0.0313153
0.0308602
0.0304494
0.0300414
0.0296659
0.0293244
0.0290242
0.0287829
0.0285959
0.0285011
0.00627491
0.0192349
0.0313507
0.0371676
0.0404886
0.0436232
0.0468884
0.0462883
0.0452326
0.0436912
0.0428137
0.0414014
0.0398223
0.038204
0.036787
0.0355772
0.0346574
0.0338896
0.0332078
0.0325867
0.0319878
0.0314283
0.0309014
0.0304111
0.0299565
0.0295401
0.0291731
0.0288702
0.0286394
0.0285191
0.0167186
0.031533
0.0439386
0.0469134
0.0485123
0.0534633
0.0566871
0.0551586
0.0526076
0.0495516
0.0458941
0.0427275
0.0403724
0.0385468
0.0371933
0.0360378
0.0350738
0.0341982
0.0334895
0.0328637
0.0322989
0.0317412
0.0311988
0.0306602
0.0301492
0.0296785
0.0292571
0.0289107
0.0286501
0.0285106
-0.0238101
0.00875162
0.0260589
0.0333194
0.0412537
0.0493308
0.0506589
0.0492432
0.0482431
0.04686
0.0446644
0.0425816
0.0400075
0.0382287
0.0367837
0.0359035
0.0351615
0.0345345
0.0338907
0.0332518
0.0326089
0.0320002
0.0314035
0.0308269
0.0302803
0.0297613
0.0292986
0.0289149
0.0286253
0.028469
-0.159564
-0.109949
-0.081701
-0.0514507
-0.0130979
0.018425
0.030802
0.0344168
0.0353014
0.0356916
0.0368221
0.0369885
0.0371818
0.0368021
0.0363519
0.0357481
0.0352128
0.0346975
0.0342144
0.0336841
0.0331137
0.0324805
0.0318132
0.0311459
0.030495
0.0298908
0.0293518
0.0289046
0.0285708
0.0283891
-0.349057
-0.293599
-0.23243
-0.157777
-0.0835055
-0.0287351
0.00332065
0.0194357
0.0265639
0.0309307
0.0316699
0.0325619
0.0332811
0.0339596
0.0345837
0.0351648
0.0352727
0.0351398
0.0346899
0.0341625
0.0335381
0.0328863
0.0321706
0.031444
0.0307227
0.0300277
0.0294008
0.0288789
0.0284878
0.0282755
-0.357533
-0.315554
-0.257228
-0.189863
-0.120285
-0.0645699
-0.0234692
-0.000348867
0.015025
0.0227736
0.0282457
0.0311466
0.0331412
0.0336433
0.0345661
0.0350362
0.0354217
0.0355114
0.0353095
0.0348215
0.0341469
0.0333546
0.032503
0.0316601
0.0308313
0.0300545
0.02936
0.028778
0.0283461
0.0281101
-0.267084
-0.232999
-0.197269
-0.159245
-0.124354
-0.0896784
-0.0598962
-0.0356841
-0.0130157
0.00117893
0.0148475
0.0225508
0.0287356
0.0321114
0.0342843
0.0353057
0.0357313
0.0357136
0.0354095
0.0349413
0.0343093
0.0335338
0.0326739
0.0317528
0.0308452
0.029991
0.0292233
0.0285895
0.0281201
0.0278631
-0.193081
-0.165867
-0.139049
-0.111088
-0.0864594
-0.0592367
-0.0393542
-0.0200174
-0.00731758
0.00756714
0.0157858
0.0245536
0.0294022
0.03346
0.0357598
0.0371667
0.0376952
0.0375532
0.0369389
0.0360858
0.0350759
0.0340304
0.0329448
0.0318806
0.0308569
0.0298938
0.0290431
0.0283399
0.027819
0.0275352
-0.136046
-0.116191
-0.096263
-0.0749324
-0.0531094
-0.0299569
-0.0103969
0.00780086
0.0180307
0.0299569
0.0330383
0.0380755
0.0391889
0.0402507
0.0402548
0.0400133
0.0395581
0.038887
0.0380719
0.0370657
0.0359265
0.0346644
0.0333742
0.0321035
0.030889
0.0297843
0.0288126
0.0280163
0.0274323
0.0271145
-0.101282
-0.0883551
-0.0765692
-0.0647197
-0.0525064
-0.0392259
-0.0201562
0.00273932
0.0240004
0.0399963
0.0482026
0.0516084
0.0511697
0.0497894
0.0476021
0.0454748
0.0433564
0.0413921
0.0395662
0.0379261
0.0363539
0.0348871
0.0334424
0.0320355
0.0307178
0.0295031
0.0284386
0.0275727
0.0269359
0.0265914
-0.0852222
-0.0723614
-0.0632261
-0.0557012
-0.0496789
-0.0422397
-0.0274647
-0.00362898
0.0275486
0.0431309
0.054928
0.0558589
0.0555755
0.0533564
0.0509855
0.0484631
0.0460935
0.0436732
0.0413972
0.0391848
0.0371398
0.0352353
0.0334543
0.0318339
0.0303425
0.029012
0.0278711
0.0269463
0.0262743
0.0259107
-0.065746
-0.0554506
-0.0481917
-0.0447318
-0.0426458
-0.0384737
-0.0278408
-0.00904153
0.0198247
0.0434994
0.0566665
0.0591557
0.0564899
0.0531324
0.0495701
0.0471827
0.0448056
0.0428851
0.0409233
0.0390092
0.0370987
0.035169
0.0333204
0.0315413
0.0299007
0.0284431
0.0271854
0.0261796
0.0254512
0.0250583
-0.0819596
-0.0669791
-0.0545341
-0.0441114
-0.0325355
-0.0199467
-0.00653302
0.00644298
0.0201131
0.0330434
0.0422703
0.048322
0.0506516
0.0506942
0.049469
0.0476707
0.0455759
0.0434659
0.0412727
0.0391244
0.0369615
0.0348866
0.0328678
0.0309663
0.0292265
0.0276592
0.0263214
0.0252489
0.0244717
0.0240552
-0.105482
-0.0926576
-0.0785784
-0.0635099
-0.0469546
-0.0305311
-0.0150389
-0.000553451
0.0127785
0.0246115
0.0352186
0.0398328
0.0447219
0.046019
0.0467748
0.0459213
0.044873
0.0431612
0.041161
0.0389288
0.0366383
0.0343165
0.0321033
0.0300528
0.0281735
0.0265319
0.0251412
0.024035
0.0232428
0.0228179
-0.127581
-0.116947
-0.104384
-0.0884464
-0.0700859
-0.05052
-0.0290581
-0.0107015
0.00555132
0.0189801
0.0301691
0.0367692
0.0401653
0.0431077
0.0439785
0.0443895
0.0437387
0.0423062
0.0403125
0.0381202
0.0356866
0.0332859
0.0309874
0.0288012
0.0268502
0.0251398
0.0236949
0.022562
0.0217507
0.0213187
-0.144257
-0.131885
-0.115445
-0.0957591
-0.0732565
-0.0485377
-0.0236899
-0.00152904
0.0183816
0.0364948
0.0462144
0.0528703
0.0543901
0.0544124
0.0516231
0.0495753
0.046934
0.0439479
0.0410003
0.0379002
0.0349116
0.0321665
0.0295577
0.0272437
0.0252046
0.023433
0.0219732
0.0208263
0.0200124
0.0195805
-0.117885
-0.105048
-0.0902161
-0.0731728
-0.0544143
-0.0345476
-0.0139523
0.00517373
0.0217441
0.0365183
0.0449301
0.051067
0.0543164
0.0547874
0.0524971
0.0503241
0.046746
0.0433954
0.0397967
0.0362328
0.033055
0.0300406
0.027357
0.0250226
0.0229629
0.0212396
0.0198199
0.0187158
0.0179409
0.0175285
-0.138178
-0.132856
-0.123224
-0.109612
-0.0916002
-0.0684177
-0.0407759
-0.0105797
0.01915
0.0475389
0.067405
0.0740288
0.0730142
0.0663995
0.0598164
0.0535679
0.0485277
0.0432647
0.0382738
0.0341385
0.0304447
0.027224
0.0245387
0.0221893
0.0202229
0.0185908
0.0172541
0.0162347
0.0155166
0.0151381
-0.279114
-0.27225
-0.259399
-0.238193
-0.207551
-0.166433
-0.115618
-0.0570598
-0.00176684
0.0405776
0.0664981
0.0697937
0.0685864
0.0615164
0.0561898
0.0501716
0.044703
0.0392221
0.034364
0.0301787
0.0264547
0.0234324
0.020856
0.0186946
0.0169268
0.0154526
0.0142764
0.0133767
0.0127468
0.012417
-0.221627
-0.224208
-0.222647
-0.213144
-0.194735
-0.168307
-0.133066
-0.088536
-0.0385806
0.00665847
0.0372553
0.0447908
0.0455785
0.0425254
0.0384694
0.034479
0.0309544
0.0274855
0.0246385
0.0219064
0.0195799
0.0175326
0.0156942
0.0141419
0.0128009
0.011679
0.0107723
0.0100698
0.00958103
0.00932296
-0.019709
-0.0192433
-0.0186261
-0.0187921
-0.0206863
-0.0241191
-0.0282643
-0.0325748
-0.0343736
-0.0295145
-0.0204657
-0.00945701
0.00256777
0.00850193
0.0134169
0.0165729
0.0167989
0.0163424
0.0150126
0.0135577
0.0122209
0.0109544
0.00986229
0.00890531
0.00806509
0.00736317
0.00678009
0.00633075
0.00601507
0.00584857
0.00214726
-5.24682e-06
-0.00214819
-0.00427991
-0.00624651
-0.00784017
-0.00901547
-0.00953475
-0.00942277
-0.00690772
-0.00574771
-0.0029405
0.000100853
0.00164836
0.00387394
0.00513855
0.00568905
0.00591687
0.00557189
0.00511322
0.00456101
0.00401859
0.0035553
0.00315507
0.00282652
0.00255927
0.0023422
0.00218005
0.00206524
0.00200626
)
;

boundaryField
{
    outlet
    {
        type            fixedValue;
        value           uniform 0;
    }
    upperWall
    {
        type            symmetryPlane;
    }
    lowerWall
    {
        type            symmetryPlane;
    }
    inlet
    {
        type            zeroGradient;
    }
    cylinder
    {
        type            zeroGradient;
    }
    frontAndBack
    {
        type            empty;
    }
    procBoundary3to2
    {
        type            processor;
        value           nonuniform List<scalar> 
43
(
-0.690467
-0.772802
-0.81909
-0.817675
-0.760655
-0.652653
-0.410318
-0.410318
-0.329803
-0.244612
-0.142463
-0.0983302
-0.0341196
-0.0141577
0.0016023
0.00964287
0.0188391
0.0213579
0.0252676
0.025803
0.0272288
0.0276531
0.0278607
0.0279609
0.0279338
0.0277986
0.0276639
0.0275273
0.0274288
0.0273758
0.0273834
0.0274419
0.0275325
0.027647
0.0277783
0.0278965
0.0280044
0.0281068
0.0281513
0.0281993
-0.0983302
-0.062501
-0.062501
)
;
    }
    procBoundary3to7
    {
        type            processor;
        value           nonuniform List<scalar> 
30
(
-0.453174
-0.351107
-0.319418
-0.334439
-0.419389
-0.545653
-0.592701
-0.490125
-0.398431
-0.29937
-0.265687
-0.286197
-0.275886
-0.270123
-0.273998
-0.249704
-0.198441
-0.20301
-0.230517
-0.242874
-0.198605
-0.172346
-0.176463
-0.191221
-0.157197
-0.125806
-0.140809
-0.13284
-0.0657873
-0.00981645
)
;
    }
}


// ************************************************************************* //
