/*--------------------------------*- C++ -*----------------------------------*\
| =========                 |                                                 |
| \\      /  F ield         | OpenFOAM: The Open Source CFD Toolbox           |
|  \\    /   O peration     | Version:                                        |
|   \\  /    A nd           | Website:  www.openfoam.com                      |
|    \\/     M anipulation  |                                                 |
\*---------------------------------------------------------------------------*/
FoamFile
{
    version     2.0;
    format      ascii;
    class       volVectorField;
    location    "139";
    object      U;
}
// * * * * * * * * * * * * * * * * * * * * * * * * * * * * * * * * * * * * * //

dimensions      [0 1 -1 0 0 0 0];


internalField   nonuniform List<vector> 
1164
(
(0.574179 0.404289 2.04921e-22)
(0.724661 0.417119 -1.2411e-20)
(0.892305 0.374219 2.60358e-20)
(1.06754 0.327868 -1.40421e-20)
(1.23219 0.233923 3.77714e-20)
(1.39177 0.13101 2.40678e-19)
(0.514251 0.700228 -9.78274e-22)
(0.664196 0.740769 2.59043e-20)
(0.83862 0.731409 -2.26586e-20)
(1.03144 0.698893 -4.73172e-20)
(1.20607 0.608382 -2.48776e-20)
(1.35081 0.512243 -6.35786e-20)
(1.44205 0.353079 3.38429e-20)
(1.50341 0.266464 -1.43515e-20)
(1.58303 0.110832 7.3138e-20)
(1.44605 -0.0200409 -4.53138e-20)
(0.632652 0.836552 2.36366e-21)
(0.708644 0.864187 -5.85197e-21)
(0.795063 0.854811 3.19482e-21)
(0.896097 0.821745 9.93782e-21)
(1.00964 0.758787 8.24666e-21)
(1.14859 0.675323 -8.32839e-20)
(1.27743 0.552255 -4.37284e-20)
(1.38285 0.451858 -9.15892e-21)
(1.45454 0.296433 -3.01066e-20)
(1.39381 0.158164 3.47349e-20)
(0.603273 0.875388 7.5325e-23)
(0.644761 0.861958 3.13195e-21)
(0.720861 0.872187 -3.36075e-21)
(0.836362 0.837477 9.19479e-21)
(0.947089 0.812031 2.791e-20)
(1.05216 0.74777 6.41966e-20)
(1.10701 0.668938 2.61785e-20)
(1.16227 0.580648 1.86691e-20)
(1.20493 0.461749 -1.86766e-20)
(1.21291 0.334122 -1.77357e-20)
(0.60239 0.76916 -1.98922e-21)
(0.629281 0.721108 -3.82927e-22)
(0.665966 0.712463 -8.47662e-21)
(0.716495 0.667835 -3.1331e-21)
(0.772062 0.645621 -7.61958e-21)
(0.853015 0.607763 -2.2825e-20)
(0.934038 0.571438 1.0706e-20)
(1.01731 0.536024 3.00617e-21)
(1.06388 0.498379 1.17896e-20)
(1.07199 0.449889 -6.77226e-21)
(0.470412 0.85983 9.6895e-22)
(0.49078 0.815839 -6.89186e-21)
(0.540345 0.763482 -8.13832e-22)
(0.616427 0.709831 8.08767e-22)
(0.71273 0.641488 -5.9145e-21)
(0.799173 0.570437 6.3934e-22)
(0.850838 0.489807 5.51983e-21)
(0.898812 0.423935 7.26815e-21)
(0.947304 0.37912 3.90101e-21)
(0.978687 0.347655 2.6281e-21)
(0.449719 0.518609 -7.08434e-22)
(0.398483 0.479555 8.47187e-21)
(0.38637 0.449248 1.71989e-20)
(0.414846 0.438298 -9.46818e-21)
(0.430747 0.415864 1.38102e-21)
(0.472135 0.410802 -1.1633e-21)
(0.544091 0.380575 -5.16011e-21)
(0.666059 0.341345 4.27555e-22)
(0.7837 0.29377 4.65227e-21)
(0.841422 0.23131 3.65871e-21)
(0.308069 0.159668 2.27893e-21)
(0.287642 0.179078 5.12633e-23)
(0.329596 0.211577 -2.86523e-22)
(0.40467 0.232677 3.71372e-21)
(0.483824 0.244215 3.96631e-21)
(0.579451 0.26883 4.246e-21)
(0.597146 0.283095 -3.44061e-21)
(0.597812 0.303472 4.68547e-21)
(0.607314 0.303845 -2.6036e-21)
(0.648641 0.26469 -1.62804e-21)
(0.526669 -0.206562 -1.56555e-21)
(0.481515 -0.161042 -6.53225e-21)
(0.47159 -0.0870949 -1.68663e-22)
(0.463155 -0.0285637 1.29374e-21)
(0.480859 0.059171 5.51253e-21)
(0.530088 0.123649 2.39312e-21)
(0.583829 0.178731 4.56578e-21)
(0.679351 0.232535 -3.64214e-21)
(0.71629 0.2829 1.66023e-21)
(0.720807 0.329405 2.39084e-21)
(0.552156 -0.604169 -4.11518e-22)
(0.535252 -0.575127 2.26635e-21)
(0.543122 -0.547148 -5.6509e-21)
(0.559383 -0.517744 7.45089e-21)
(0.606826 -0.472152 -1.19151e-20)
(0.620424 -0.410729 -3.74314e-21)
(0.620186 -0.326025 3.80503e-21)
(0.642044 -0.220284 6.49285e-22)
(0.630291 -0.141398 1.64273e-21)
(0.658978 -0.022125 4.19629e-22)
(0.601395 -0.556077 5.0868e-22)
(0.589321 -0.532717 7.43884e-23)
(0.599993 -0.551185 -5.72325e-21)
(0.627666 -0.533362 4.34286e-21)
(0.665175 -0.566596 1.03305e-20)
(0.728859 -0.536844 -4.84853e-21)
(0.812488 -0.548183 -4.39297e-21)
(0.840948 -0.479756 -4.83984e-21)
(0.880532 -0.435332 -3.26026e-21)
(0.871115 -0.304347 2.17721e-21)
(0.593873 -0.838999 -8.37286e-22)
(0.525355 -0.837126 5.06911e-21)
(0.528207 -0.843059 1.37711e-21)
(0.495796 -0.829031 -2.46651e-20)
(0.529638 -0.823021 1.5518e-21)
(0.574597 -0.79915 -1.26214e-20)
(0.647756 -0.819412 3.52298e-21)
(0.746998 -0.779674 -8.43956e-21)
(0.847714 -0.778422 -8.2179e-21)
(0.89526 -0.699474 -1.06788e-20)
(0.606263 -0.68507 1.04769e-21)
(0.616383 -0.677863 -2.85045e-21)
(0.653787 -0.708286 1.89934e-21)
(0.648349 -0.714646 1.77663e-20)
(0.694737 -0.719055 9.97232e-21)
(0.677603 -0.754392 1.51541e-20)
(0.763366 -0.735503 3.27723e-21)
(0.790325 -0.799319 2.68365e-21)
(0.890939 -0.7764 1.32249e-20)
(0.955603 -0.837187 4.00515e-20)
(0.526504 -0.242759 -1.25192e-21)
(0.542535 -0.203442 5.54548e-21)
(0.597081 -0.218527 1.0604e-20)
(0.654355 -0.194737 -3.81863e-21)
(0.745981 -0.202 -2.08476e-20)
(0.825177 -0.199781 1.20887e-20)
(0.936182 -0.181704 9.19457e-21)
(0.986174 -0.220663 -1.28404e-20)
(1.09097 -0.175876 -7.35159e-21)
(1.10454 -0.295418 5.23816e-21)
(0.664023 -0.0783297 9.49397e-22)
(0.679831 -0.0175409 -5.03673e-21)
(0.711489 0.00776641 -2.98998e-21)
(0.754326 0.0596452 1.53513e-21)
(0.816213 0.0826074 1.57103e-20)
(0.898524 0.1216 -9.07791e-21)
(0.989271 0.144328 1.74468e-21)
(1.08343 0.14986 2.0075e-20)
(1.17341 0.183699 -1.88732e-20)
(1.23229 0.133257 9.93796e-22)
(0.803228 0.490811 1.11354e-23)
(0.860522 0.49298 -3.96142e-23)
(0.904564 0.499921 -1.34976e-20)
(0.972224 0.489018 2.52593e-21)
(1.01885 0.487294 5.36265e-21)
(1.08709 0.462508 3.00225e-21)
(1.13428 0.446194 -1.6569e-20)
(1.20168 0.407853 1.33758e-20)
(1.25043 0.394599 1.68727e-20)
(1.31148 0.344482 -2.37768e-20)
(0.713138 0.592177 2.10606e-22)
(0.746738 0.580083 -1.81646e-23)
(0.769115 0.588555 1.08073e-20)
(0.823261 0.579671 -9.75529e-21)
(0.861804 0.576659 -6.44655e-21)
(0.9212 0.567291 8.19854e-21)
(0.964561 0.547904 1.59977e-21)
(1.03365 0.529025 -9.27244e-21)
(1.07688 0.492061 2.60657e-21)
(1.13705 0.458815 -6.44471e-21)
(0.718576 0.625426 -3.59512e-22)
(0.769479 0.62629 -1.0565e-21)
(0.811892 0.629618 -1.90381e-21)
(0.871394 0.634554 2.33239e-21)
(0.91386 0.623053 -5.73181e-21)
(0.965306 0.626391 -1.11468e-20)
(0.9934 0.605057 -7.64463e-21)
(1.02783 0.607862 -3.66836e-21)
(1.04729 0.575622 -2.44888e-21)
(1.07192 0.552141 -4.61631e-21)
(0.754801 0.644543 -4.59202e-22)
(0.772701 0.66021 3.21908e-21)
(0.786913 0.664976 -4.61854e-22)
(0.811481 0.67777 2.73081e-21)
(0.831625 0.667275 -2.89711e-22)
(0.865967 0.672661 -2.62628e-22)
(0.889523 0.649035 9.19827e-21)
(0.930947 0.654136 -3.11429e-22)
(0.959041 0.635954 -4.13269e-21)
(0.996176 0.616712 1.7166e-21)
(0.846829 -0.0850009 3.52372e-22)
(0.828878 -0.0591296 -1.18403e-21)
(0.804997 -0.0621233 -3.38146e-21)
(0.795769 -0.0309278 -2.99177e-21)
(0.775746 -0.0395494 4.47403e-23)
(0.773621 -0.00330036 7.84794e-21)
(0.758963 -0.0131535 -7.77302e-21)
(0.761158 0.0237397 2.72442e-21)
(0.763399 0.0210136 6.67723e-21)
(0.765864 0.0524909 2.8795e-21)
(0.875974 -0.336269 2.12258e-22)
(0.859388 -0.321248 -3.98844e-22)
(0.846248 -0.315997 3.42449e-21)
(0.833283 -0.300878 4.85254e-21)
(0.823833 -0.300622 -3.48031e-21)
(0.815396 -0.287162 2.06658e-21)
(0.809847 -0.288302 4.64484e-21)
(0.808741 -0.27519 6.64222e-21)
(0.80736 -0.274301 -3.49926e-21)
(0.801572 -0.252678 -8.56791e-22)
(0.893387 -0.611601 7.28985e-23)
(0.850642 -0.614536 -1.2299e-22)
(0.821931 -0.601922 -1.60353e-21)
(0.782782 -0.604965 -6.73874e-21)
(0.765542 -0.589821 4.39847e-21)
(0.733909 -0.593592 -3.09648e-21)
(0.724421 -0.581046 -2.41859e-21)
(0.709513 -0.578063 -5.50328e-21)
(0.70042 -0.57485 -1.342e-21)
(0.702818 -0.55877 1.62235e-21)
(0.901863 -0.795668 3.56603e-22)
(0.875234 -0.792352 -7.00349e-22)
(0.856973 -0.770958 -4.04277e-22)
(0.830634 -0.760227 6.66488e-21)
(0.819609 -0.731191 -3.76902e-21)
(0.797337 -0.716867 1.56652e-21)
(0.795321 -0.683083 3.15351e-21)
(0.784996 -0.667981 -1.00103e-21)
(0.801688 -0.631541 -1.00076e-21)
(0.80751 -0.61469 -7.2725e-21)
(0.960533 -0.0313865 -1.8478e-23)
(0.969933 -0.0225757 1.88658e-22)
(0.981478 -0.0140022 -1.741e-21)
(0.988584 -0.00413174 -9.22383e-23)
(0.99724 0.0112976 -1.93341e-21)
(1.00316 0.0205352 -4.93388e-21)
(1.01636 0.0404322 3.51573e-21)
(1.03018 0.0478752 2.4085e-22)
(1.05405 0.0667243 5.5616e-21)
(1.07369 0.0604196 7.82455e-21)
(1.00149 0.309474 3.10487e-23)
(1.01709 0.319844 -1.61257e-21)
(1.03603 0.327123 1.98387e-21)
(1.05888 0.333635 -2.08642e-21)
(1.08067 0.341949 3.07971e-21)
(1.10291 0.345915 5.25544e-21)
(1.1194 0.352886 -6.09568e-21)
(1.13705 0.351698 -4.13689e-22)
(1.15238 0.355627 -2.09377e-21)
(1.17103 0.346496 -5.84141e-21)
(1.02752 0.549454 1.0535e-23)
(1.04812 0.55785 7.30671e-22)
(1.0629 0.56626 4.68132e-22)
(1.08088 0.573748 2.80487e-22)
(1.09297 0.582163 4.58152e-22)
(1.10668 0.585587 -2.77686e-21)
(1.11016 0.591655 -5.66371e-22)
(1.11361 0.588797 -1.46866e-21)
(1.10651 0.589226 -1.07531e-21)
(1.09485 0.580484 -1.31763e-21)
(1.02014 0.731961 2.39497e-22)
(1.0478 0.727941 -6.58069e-22)
(1.06898 0.72253 -1.52634e-23)
(1.08939 0.71519 -2.12292e-21)
(1.10052 0.705627 3.2886e-21)
(1.10838 0.695251 1.1775e-21)
(1.10334 0.680945 3.99471e-21)
(1.09403 0.666745 1.2335e-21)
(1.07078 0.649109 -5.9437e-22)
(1.04626 0.634273 3.89584e-21)
(1.04233 -0.247904 -4.78022e-22)
(1.04313 -0.243202 3.73406e-23)
(1.0422 -0.245805 1.77728e-21)
(1.04176 -0.246113 3.87246e-23)
(1.03424 -0.2576 1.81195e-21)
(1.02572 -0.262172 -4.98122e-21)
(1.00629 -0.280137 -8.21887e-22)
(0.982177 -0.290007 1.63018e-21)
(0.947777 -0.309714 -2.97511e-22)
(0.908459 -0.325207 -1.07753e-21)
(1.06785 -0.673785 -9.46311e-23)
(1.04987 -0.671787 -1.58817e-22)
(1.03026 -0.673805 -2.26939e-22)
(1.0062 -0.671187 1.27324e-21)
(0.978907 -0.672924 -9.09875e-22)
(0.947647 -0.669719 9.71681e-22)
(0.913758 -0.669322 -1.64859e-21)
(0.875119 -0.665178 7.56539e-22)
(0.838522 -0.660641 -1.67204e-22)
(0.801429 -0.652628 7.07749e-22)
(0.992297 -0.166473 7.37273e-24)
(0.988149 -0.168072 1.02385e-24)
(0.98301 -0.172416 4.48107e-23)
(0.974346 -0.172271 1.52366e-24)
(0.964919 -0.174386 -2.96118e-23)
(0.953203 -0.171967 -1.17786e-22)
(0.941487 -0.171082 3.057e-22)
(0.928374 -0.16634 -1.73628e-22)
(0.916557 -0.161634 -2.32267e-24)
(0.903974 -0.154658 -1.6304e-24)
(1.25069 -0.0885568 0)
(1.25555 -0.0897391 0)
(1.24069 -0.0721432 0)
(1.21246 -0.0819558 0)
(1.16677 -0.0513313 0)
(1.1434 -0.0536763 0)
(1.10753 -0.0327306 0)
(1.09675 -0.0253135 0)
(1.07916 -0.0168206 0)
(1.06376 -0.00947053 0)
(1.05194 -0.00702344 0)
(1.04026 -0.00204169 0)
(1.03269 -0.00153217 0)
(1.02823 -0.000441257 0)
(1.02553 -0.00117932 0)
(1.02415 -0.00142035 0)
(1.0231 -0.00196852 0)
(1.02202 -0.00194882 0)
(1.02109 -0.00196229 0)
(1.02016 -0.00185661 0)
(1.01939 -0.00182875 0)
(1.01864 -0.00178842 0)
(1.01795 -0.00169407 0)
(1.01738 -0.00150541 0)
(1.01687 -0.00132499 0)
(1.01641 -0.000993077 0)
(1.01605 -0.00060894 0)
(1.01584 -0.000268537 0)
(1.38293 0.0732191 0)
(1.31598 0.0708646 0)
(1.26536 0.0619845 0)
(1.22045 0.0620405 0)
(1.17192 0.0643243 0)
(1.18235 0.0386624 0)
(1.15169 0.0460552 0)
(1.12509 0.0156923 0)
(1.10624 0.0163119 0)
(1.07496 0.000191481 0)
(1.05335 -0.00400078 0)
(1.04074 -0.014124 0)
(1.03065 -0.0166548 0)
(1.02736 -0.0213009 0)
(1.02446 -0.0198487 0)
(1.02251 -0.0175938 0)
(1.02138 -0.0134143 0)
(1.02061 -0.0105388 0)
(1.01967 -0.00805988 0)
(1.01871 -0.00649718 0)
(1.01775 -0.00509488 0)
(1.01713 -0.00404427 0)
(1.01672 -0.00319469 0)
(1.01642 -0.00256111 0)
(1.01615 -0.00214221 0)
(1.01587 -0.00172888 0)
(1.01558 -0.00144363 0)
(1.01528 -0.00106686 0)
(1.01501 -0.000645936 0)
(1.01485 -0.000278234 0)
(1.2684 0.204361 0)
(1.24665 0.199776 0)
(1.26905 0.0990349 0)
(1.21969 0.103171 0)
(1.21917 0.0546528 0)
(1.1651 0.0663324 0)
(1.13832 0.024159 0)
(1.10071 0.0384925 0)
(1.09217 0.0175841 0)
(1.07536 0.014141 0)
(1.06513 0.011319 0)
(1.05421 0.00902913 0)
(1.04632 0.00886462 0)
(1.03961 0.00978539 0)
(1.03672 0.00744059 0)
(1.03368 0.00610868 0)
(1.03093 0.0033546 0)
(1.02823 0.00178862 0)
(1.02617 0.000178429 0)
(1.02432 -0.000629057 0)
(1.02275 -0.00123483 0)
(1.02126 -0.00152643 0)
(1.02004 -0.00170218 0)
(1.01904 -0.00177802 0)
(1.01823 -0.00172458 0)
(1.01763 -0.00154422 0)
(1.01714 -0.0013573 0)
(1.01673 -0.00102448 0)
(1.01641 -0.000632908 0)
(1.01622 -0.000271129 0)
(1.10729 0.365505 0)
(1.09298 0.360081 0)
(1.11803 0.278021 0)
(1.09473 0.255095 0)
(1.16974 0.172139 0)
(1.08244 0.161092 0)
(1.14017 0.0779509 0)
(1.08928 0.0904022 0)
(1.08222 0.0435712 0)
(1.05846 0.0433539 0)
(1.0481 0.0213796 0)
(1.0346 0.0118915 0)
(1.02861 0.00196699 0)
(1.02387 -0.00560867 0)
(1.01975 -0.00744327 0)
(1.01781 -0.00777243 0)
(1.01688 -0.0061268 0)
(1.01667 -0.00526307 0)
(1.0165 -0.00446533 0)
(1.01647 -0.00404654 0)
(1.0163 -0.00346142 0)
(1.01626 -0.00291668 0)
(1.01623 -0.00246805 0)
(1.01615 -0.00208718 0)
(1.01604 -0.00186669 0)
(1.01585 -0.00158651 0)
(1.01565 -0.00136172 0)
(1.01543 -0.001038 0)
(1.01521 -0.000638871 0)
(1.01508 -0.000269933 0)
(1.02996 0.313515 0)
(0.997269 0.262868 0)
(1.02072 0.249831 0)
(0.963211 0.21565 0)
(1.02394 0.190491 0)
(0.962146 0.152522 0)
(1.03367 0.113417 0)
(1.02444 0.0867961 0)
(1.03219 0.0498599 0)
(1.0328 0.0336692 0)
(1.02732 0.0217969 0)
(1.03064 0.0162521 0)
(1.02779 0.0147611 0)
(1.0313 0.0136303 0)
(1.0348 0.0102839 0)
(1.0356 0.0078743 0)
(1.03391 0.00473568 0)
(1.03098 0.00294024 0)
(1.02847 0.00113464 0)
(1.0261 1.76467e-05 0)
(1.02409 -0.000852633 0)
(1.02223 -0.00137767 0)
(1.02069 -0.00162848 0)
(1.01954 -0.00174065 0)
(1.01863 -0.00169281 0)
(1.018 -0.00150954 0)
(1.01752 -0.00133186 0)
(1.01712 -0.00101478 0)
(1.0168 -0.00063042 0)
(1.01663 -0.000265246 0)
(0.939626 0.189544 0)
(0.958167 0.132911 0)
(1.04153 0.105307 0)
(1.00447 0.0815957 0)
(1.03707 0.0933736 0)
(0.977402 0.0826652 0)
(1.01016 0.0926056 0)
(1.00077 0.0837545 0)
(1.00995 0.0741241 0)
(1.0207 0.0640905 0)
(1.03159 0.0448836 0)
(1.02454 0.0319213 0)
(1.02711 0.0204987 0)
(1.02017 0.0122909 0)
(1.0153 0.00882051 0)
(1.01323 0.00555143 0)
(1.01239 0.00407577 0)
(1.01302 0.00226801 0)
(1.01366 0.00106727 0)
(1.01473 0.000107197 0)
(1.01551 -0.00048715 0)
(1.01604 -0.000773347 0)
(1.01632 -0.0010426 0)
(1.01632 -0.00115121 0)
(1.01623 -0.00127064 0)
(1.01607 -0.00124006 0)
(1.01587 -0.00114421 0)
(1.01567 -0.00091541 0)
(1.01547 -0.000579627 0)
(1.01535 -0.000245213 0)
(0.722559 0.220596 0)
(0.760354 0.165424 0)
(0.881077 0.122629 0)
(0.940864 0.0738581 0)
(1.01502 0.0575174 0)
(0.986709 0.0396774 0)
(1.02279 0.0295338 0)
(1.00627 0.0118895 0)
(0.995416 0.00408308 0)
(0.989101 0.00575031 0)
(0.985735 0.000543968 0)
(0.999519 0.00470852 0)
(1.00432 0.00305373 0)
(1.01673 0.00401518 0)
(1.02675 0.00169812 0)
(1.03082 0.00159488 0)
(1.03165 0.000655645 0)
(1.02964 0.000483526 0)
(1.02759 -1.39005e-05 0)
(1.02543 -0.000622766 0)
(1.02348 -0.00109492 0)
(1.02182 -0.00149742 0)
(1.02041 -0.00160536 0)
(1.01945 -0.00162894 0)
(1.01872 -0.00157132 0)
(1.01819 -0.00138413 0)
(1.0178 -0.00123055 0)
(1.01747 -0.000955714 0)
(1.01719 -0.000598284 0)
(1.01704 -0.000251116 0)
(0.712348 0.321628 0)
(0.749854 0.300216 0)
(0.846041 0.289562 0)
(0.911327 0.242199 0)
(0.957424 0.215823 0)
(0.941963 0.17879 0)
(0.955389 0.165938 0)
(0.971361 0.127967 0)
(0.995527 0.109137 0)
(1.01724 0.0758138 0)
(1.02755 0.0617954 0)
(1.0269 0.0433939 0)
(1.02823 0.0346628 0)
(1.02152 0.0272728 0)
(1.01444 0.0227085 0)
(1.01204 0.0172912 0)
(1.01042 0.0126555 0)
(1.01097 0.0089791 0)
(1.012 0.00606803 0)
(1.01351 0.00414752 0)
(1.01484 0.00250614 0)
(1.01563 0.0013685 0)
(1.01603 0.000376308 0)
(1.0161 -0.000284823 0)
(1.01606 -0.00073062 0)
(1.01599 -0.000932327 0)
(1.0159 -0.000963652 0)
(1.01579 -0.00081561 0)
(1.01568 -0.00053419 0)
(1.0156 -0.000226773 0)
(0.690921 0.0330073 0)
(0.676403 0.0441075 0)
(0.704342 0.0705575 0)
(0.767918 0.0623894 0)
(0.860861 0.0546746 0)
(0.884949 0.0113824 0)
(0.912366 -0.00617914 0)
(0.912425 -0.0222608 0)
(0.910547 -0.0163057 0)
(0.922398 -0.0127993 0)
(0.93712 -0.0124463 0)
(0.958891 -0.0127474 0)
(0.977969 -0.0130458 0)
(0.996742 -0.0140311 0)
(1.01186 -0.0121908 0)
(1.01918 -0.00976474 0)
(1.02307 -0.00660828 0)
(1.0236 -0.00459079 0)
(1.02291 -0.00294175 0)
(1.02177 -0.00234971 0)
(1.0206 -0.00195204 0)
(1.0198 -0.0018952 0)
(1.01914 -0.00176343 0)
(1.01872 -0.00163881 0)
(1.01842 -0.00157422 0)
(1.01815 -0.00139573 0)
(1.01794 -0.00125143 0)
(1.01774 -0.000996952 0)
(1.01754 -0.000629809 0)
(1.01743 -0.000257879 0)
(0.85761 -0.239294 0)
(0.858861 -0.182949 0)
(0.854866 -0.127736 0)
(0.869875 -0.0594337 0)
(0.830604 -0.0294329 0)
(0.783448 -0.0165058 0)
(0.85154 -0.0354892 0)
(0.931762 -0.0422136 0)
(0.993523 -0.0379836 0)
(1.01161 -0.0208293 0)
(1.02488 -0.00956129 0)
(1.03174 0.00717088 0)
(1.03242 0.0139125 0)
(1.02844 0.0220943 0)
(1.02231 0.0207779 0)
(1.01917 0.0186725 0)
(1.01623 0.0137128 0)
(1.01536 0.0104729 0)
(1.01525 0.00736932 0)
(1.01566 0.0053851 0)
(1.0162 0.00340413 0)
(1.01638 0.00188599 0)
(1.01639 0.000617746 0)
(1.01629 -0.000285208 0)
(1.01616 -0.000810773 0)
(1.01612 -0.00105271 0)
(1.01608 -0.00109661 0)
(1.01603 -0.000924887 0)
(1.01596 -0.000607983 0)
(1.01592 -0.000250305 0)
(0.962993 -0.626893 0)
(1.02199 -0.555145 0)
(1.04737 -0.488261 0)
(1.05293 -0.428839 0)
(0.977687 -0.340999 0)
(0.882037 -0.221416 0)
(0.86574 -0.110262 0)
(0.921048 -0.0561705 0)
(0.945482 -0.0297491 0)
(0.960994 -0.0345784 0)
(0.973601 -0.0243229 0)
(0.98013 -0.0312808 0)
(0.992028 -0.0237643 0)
(1.00023 -0.0257546 0)
(1.00697 -0.0185037 0)
(1.01093 -0.0153939 0)
(1.01441 -0.00999494 0)
(1.01654 -0.00738284 0)
(1.01725 -0.00460169 0)
(1.01753 -0.00331287 0)
(1.01753 -0.00237146 0)
(1.0178 -0.0020171 0)
(1.01805 -0.00187394 0)
(1.0182 -0.00175592 0)
(1.01831 -0.00176618 0)
(1.01829 -0.00164882 0)
(1.01823 -0.0014883 0)
(1.01813 -0.00120166 0)
(1.018 -0.000765842 0)
(1.01793 -0.000302337 0)
(1.017 -0.779931 0)
(1.07934 -0.72543 0)
(1.16656 -0.71037 0)
(1.24169 -0.675239 0)
(1.30475 -0.597451 0)
(1.2773 -0.472303 0)
(1.22975 -0.349793 0)
(1.1419 -0.249106 0)
(1.0693 -0.187595 0)
(1.05685 -0.121266 0)
(1.04794 -0.0840324 0)
(1.05107 -0.0409204 0)
(1.04543 -0.0214057 0)
(1.0385 -4.25882e-05 0)
(1.03481 0.0035357 0)
(1.02961 0.00778617 0)
(1.02598 0.0060711 0)
(1.02255 0.00551226 0)
(1.02052 0.00362177 0)
(1.0186 0.0023318 0)
(1.0174 0.0009404 0)
(1.01654 -0.000200063 0)
(1.01607 -0.00100601 0)
(1.01595 -0.00158593 0)
(1.01593 -0.00183274 0)
(1.01606 -0.00182462 0)
(1.01621 -0.00169495 0)
(1.0163 -0.001355 0)
(1.01634 -0.000868882 0)
(1.01636 -0.000341138 0)
(1.21962 -0.215795 0)
(1.32808 -0.194772 0)
(1.39981 -0.157275 0)
(1.47029 -0.11543 0)
(1.46496 -0.10405 0)
(1.41675 -0.0709956 0)
(1.3347 -0.0699054 0)
(1.24215 -0.0503421 0)
(1.18918 -0.0374687 0)
(1.13035 -0.0156283 0)
(1.11046 -0.00846981 0)
(1.08056 -0.00258631 0)
(1.05775 -5.22036e-05 0)
(1.03935 -0.0026804 0)
(1.02049 -0.000966366 0)
(1.01352 -0.00216341 0)
(1.01029 -0.00148612 0)
(1.01162 -0.00174255 0)
(1.01279 -0.0014162 0)
(1.01426 -0.00135202 0)
(1.01542 -0.00146613 0)
(1.01645 -0.00167508 0)
(1.01733 -0.00207635 0)
(1.01784 -0.00228114 0)
(1.01821 -0.00243464 0)
(1.01843 -0.00237646 0)
(1.01855 -0.00213388 0)
(1.01861 -0.00170535 0)
(1.01859 -0.00108959 0)
(1.01859 -0.000415289 0)
(1.32239 0.160168 0)
(1.3775 0.161865 0)
(1.42701 0.187672 0)
(1.44435 0.156574 0)
(1.4025 0.158853 0)
(1.36377 0.0976756 0)
(1.24478 0.0863169 0)
(1.18905 0.0265326 0)
(1.1111 0.0268986 0)
(1.08928 -0.0107737 0)
(1.04914 0.00794657 0)
(1.04608 -0.0111751 0)
(1.03161 -0.00226474 0)
(1.03012 -0.00619214 0)
(1.03247 -0.00424923 0)
(1.03026 -0.00382602 0)
(1.028 -0.00290988 0)
(1.02411 -0.00297683 0)
(1.02102 -0.00343679 0)
(1.01813 -0.00403891 0)
(1.01622 -0.00419695 0)
(1.01535 -0.00433984 0)
(1.01512 -0.00415702 0)
(1.01541 -0.0039632 0)
(1.01582 -0.00370477 0)
(1.01621 -0.00325562 0)
(1.01658 -0.00278935 0)
(1.01683 -0.00214804 0)
(1.01695 -0.00134747 0)
(1.01702 -0.0005053 0)
(1.34876 0.305012 0)
(1.35913 0.291299 0)
(1.38524 0.248315 0)
(1.35246 0.218266 0)
(1.3396 0.18026 0)
(1.27357 0.140372 0)
(1.21356 0.125517 0)
(1.19143 0.102456 0)
(1.1429 0.102134 0)
(1.14518 0.0908362 0)
(1.13431 0.0734403 0)
(1.09064 0.0678267 0)
(1.07685 0.0501473 0)
(1.04563 0.0430392 0)
(1.02653 0.0317231 0)
(1.01641 0.0236145 0)
(1.01221 0.0158609 0)
(1.01263 0.0103298 0)
(1.0142 0.00553819 0)
(1.01588 0.00238589 0)
(1.01726 -0.000218034 0)
(1.01795 -0.00178338 0)
(1.01851 -0.00293564 0)
(1.01882 -0.003541 0)
(1.01905 -0.00370687 0)
(1.01931 -0.00355479 0)
(1.01949 -0.00312611 0)
(1.01962 -0.00243477 0)
(1.01967 -0.00154542 0)
(1.01969 -0.000570701 0)
(1.1629 0.383059 0)
(1.17381 0.383462 0)
(1.19592 0.31076 0)
(1.17038 0.304097 0)
(1.21302 0.225148 0)
(1.1493 0.221275 0)
(1.16481 0.149037 0)
(1.1078 0.151061 0)
(1.10135 0.0969616 0)
(1.016 0.110229 0)
(1.01356 0.0490085 0)
(0.997584 0.0444626 0)
(0.992161 0.0164611 0)
(0.998325 0.00207523 0)
(1.00404 -0.00739069 0)
(1.00656 -0.0112665 0)
(1.00783 -0.0114963 0)
(1.00815 -0.0116475 0)
(1.00843 -0.010567 0)
(1.0093 -0.00986034 0)
(1.0103 -0.00864494 0)
(1.01179 -0.0077175 0)
(1.01324 -0.00689855 0)
(1.01453 -0.006113 0)
(1.01568 -0.00551142 0)
(1.01653 -0.00475328 0)
(1.0172 -0.00395446 0)
(1.01768 -0.00300727 0)
(1.01794 -0.0018767 0)
(1.01807 -0.000682792 0)
(1.07847 0.505005 0)
(1.07808 0.507081 0)
(1.08193 0.466136 0)
(1.0652 0.463026 0)
(1.07552 0.413375 0)
(1.00851 0.403106 0)
(1.02722 0.322273 0)
(0.993068 0.295583 0)
(1.05478 0.210822 0)
(0.990587 0.180578 0)
(1.01083 0.126287 0)
(1.01183 0.102143 0)
(1.0067 0.0749155 0)
(1.00707 0.0636453 0)
(1.01041 0.0459397 0)
(1.01531 0.0341444 0)
(1.01773 0.0214936 0)
(1.019 0.01285 0)
(1.01992 0.00533707 0)
(1.02008 0.0005328 0)
(1.02015 -0.00285902 0)
(1.01989 -0.00474321 0)
(1.01973 -0.00560354 0)
(1.01986 -0.00591653 0)
(1.02006 -0.00569703 0)
(1.0204 -0.0051296 0)
(1.02075 -0.00436099 0)
(1.02101 -0.00331731 0)
(1.02117 -0.00208254 0)
(1.02126 -0.000752828 0)
(1.02973 0.567314 0)
(1.04809 0.549291 0)
(1.05718 0.508002 0)
(1.04231 0.479743 0)
(1.0331 0.445833 0)
(0.948489 0.410405 0)
(0.908171 0.369082 0)
(0.824105 0.309915 0)
(0.842689 0.248292 0)
(0.82098 0.170589 0)
(0.864164 0.116501 0)
(0.883747 0.0601972 0)
(0.91997 0.0281747 0)
(0.936391 -0.00169467 0)
(0.949258 -0.00987299 0)
(0.960824 -0.0161827 0)
(0.97176 -0.0146775 0)
(0.98248 -0.0137042 0)
(0.99125 -0.0114123 0)
(0.999064 -0.0100497 0)
(1.00498 -0.0090738 0)
(1.00932 -0.00832248 0)
(1.01251 -0.00795636 0)
(1.01464 -0.00737141 0)
(1.01628 -0.00676702 0)
(1.0175 -0.00596335 0)
(1.01837 -0.00495883 0)
(1.019 -0.00376197 0)
(1.01936 -0.00235445 0)
(1.01955 -0.00084016 0)
(0.788815 0.0428239 0)
(0.802694 0.00972503 0)
(0.825927 -0.0180918 0)
(0.817545 -0.057455 0)
(0.826191 -0.0991006 0)
(0.777456 -0.14938 0)
(0.757783 -0.182218 0)
(0.682213 -0.210523 0)
(0.666481 -0.218005 0)
(0.697334 -0.18736 0)
(0.771932 -0.152003 0)
(0.851876 -0.0998952 0)
(0.897619 -0.0767053 0)
(0.945423 -0.0454673 0)
(0.987157 -0.0371169 0)
(1.00892 -0.0253324 0)
(1.02014 -0.0216205 0)
(1.02266 -0.0176753 0)
(1.02283 -0.0153867 0)
(1.02182 -0.0136465 0)
(1.02092 -0.0121297 0)
(1.02071 -0.01116 0)
(1.0207 -0.0100751 0)
(1.02112 -0.0090767 0)
(1.02166 -0.00808594 0)
(1.02217 -0.00687713 0)
(1.02268 -0.00563208 0)
(1.02304 -0.00420977 0)
(1.02325 -0.00261132 0)
(1.02337 -0.000926267 0)
(0.800501 -0.260256 0)
(0.795098 -0.263499 0)
(0.786634 -0.280431 0)
(0.768004 -0.296162 0)
(0.757377 -0.314353 0)
(0.738397 -0.312695 0)
(0.75817 -0.305596 0)
(0.787155 -0.271612 0)
(0.868412 -0.230049 0)
(0.957877 -0.162715 0)
(1.03555 -0.110003 0)
(1.03448 -0.0715382 0)
(1.03324 -0.0456569 0)
(1.014 -0.0259235 0)
(0.995534 -0.0140844 0)
(0.991109 -0.00814365 0)
(0.990615 -0.00630023 0)
(0.994981 -0.00544194 0)
(1.00004 -0.00638321 0)
(1.00477 -0.00695806 0)
(1.00891 -0.00809706 0)
(1.01187 -0.00858152 0)
(1.01429 -0.00883346 0)
(1.01623 -0.00867269 0)
(1.01776 -0.00803945 0)
(1.0191 -0.00711815 0)
(1.02014 -0.00592367 0)
(1.0209 -0.00446118 0)
(1.0214 -0.00278771 0)
(1.02165 -0.000983945 0)
(0.706892 -0.554235 0)
(0.699205 -0.546494 0)
(0.699796 -0.529786 0)
(0.722809 -0.509669 0)
(0.763069 -0.473317 0)
(0.805497 -0.427055 0)
(0.857888 -0.363428 0)
(0.896322 -0.306655 0)
(0.947724 -0.233787 0)
(0.984484 -0.185356 0)
(0.9847 -0.138225 0)
(0.989942 -0.134408 0)
(0.97961 -0.101028 0)
(0.995561 -0.097574 0)
(1.00759 -0.0768029 0)
(1.01458 -0.0643052 0)
(1.01797 -0.0490606 0)
(1.01882 -0.0383753 0)
(1.01838 -0.0292177 0)
(1.01842 -0.0233055 0)
(1.01869 -0.0189579 0)
(1.01977 -0.0161248 0)
(1.02101 -0.0140997 0)
(1.02213 -0.0122187 0)
(1.02325 -0.0106162 0)
(1.02414 -0.00892226 0)
(1.02485 -0.00717045 0)
(1.02537 -0.0053146 0)
(1.02567 -0.00327873 0)
(1.02584 -0.00114557 0)
(0.842629 -0.574888 0)
(0.886491 -0.525135 0)
(0.940076 -0.470374 0)
(0.993955 -0.413538 0)
(1.04761 -0.347598 0)
(1.09317 -0.287559 0)
(1.14033 -0.221675 0)
(1.17304 -0.170502 0)
(1.20055 -0.113803 0)
(1.22702 -0.0881114 0)
(1.15475 -0.0392962 0)
(1.15105 -0.0276216 0)
(1.11209 -0.00739411 0)
(1.07921 0.0100933 0)
(1.06189 0.00859994 0)
(1.04753 0.00817943 0)
(1.03612 0.00137252 0)
(1.02794 -0.00341026 0)
(1.02292 -0.00858068 0)
(1.01937 -0.0111903 0)
(1.01795 -0.0127462 0)
(1.01786 -0.0132883 0)
(1.01846 -0.0128666 0)
(1.01968 -0.0121332 0)
(1.02088 -0.0109626 0)
(1.02202 -0.00941462 0)
(1.02303 -0.00769462 0)
(1.02376 -0.00571925 0)
(1.02425 -0.0035376 0)
(1.0245 -0.00123606 0)
(1.10852 0.0982265 0)
(1.13476 0.119582 0)
(1.16673 0.142184 0)
(1.19314 0.165423 0)
(1.21557 0.176182 0)
(1.22821 0.185523 0)
(1.2317 0.184035 0)
(1.21853 0.182944 0)
(1.18298 0.1657 0)
(1.19942 0.126253 0)
(1.14161 0.112436 0)
(1.07367 0.0723332 0)
(1.07645 0.0372341 0)
(1.03222 0.0148178 0)
(1.0108 0.00167166 0)
(1.00172 -0.00783802 0)
(0.999908 -0.0111906 0)
(1.00429 -0.0151453 0)
(1.00845 -0.0165998 0)
(1.01313 -0.0176372 0)
(1.01717 -0.0182675 0)
(1.02002 -0.0175739 0)
(1.02258 -0.0166415 0)
(1.02448 -0.0151648 0)
(1.02596 -0.0133214 0)
(1.02719 -0.0113158 0)
(1.02808 -0.00909787 0)
(1.02871 -0.00670575 0)
(1.02909 -0.00413077 0)
(1.02928 -0.00143124 0)
(1.18653 0.344248 0)
(1.19248 0.33975 0)
(1.19576 0.334748 0)
(1.1892 0.314757 0)
(1.17723 0.297525 0)
(1.15513 0.265253 0)
(1.12459 0.231886 0)
(1.08469 0.192611 0)
(1.03991 0.15137 0)
(1.0005 0.103844 0)
(0.980917 0.0656944 0)
(0.921909 0.0468103 0)
(0.949759 0.012123 0)
(0.971337 -0.00187916 0)
(1.00074 -0.0224703 0)
(1.01046 -0.0263804 0)
(1.01573 -0.0313668 0)
(1.01546 -0.0321518 0)
(1.01498 -0.0305103 0)
(1.01587 -0.0291068 0)
(1.01692 -0.0262508 0)
(1.01889 -0.0237117 0)
(1.02089 -0.0212571 0)
(1.02261 -0.0185551 0)
(1.02428 -0.0160386 0)
(1.02561 -0.0133557 0)
(1.02669 -0.0106072 0)
(1.0275 -0.00776532 0)
(1.02799 -0.00475115 0)
(1.02825 -0.00164051 0)
(1.07296 0.582217 0)
(1.04917 0.569432 0)
(1.02384 0.55798 0)
(1.00159 0.532015 0)
(0.982514 0.505393 0)
(0.965524 0.460049 0)
(0.96259 0.418146 0)
(0.948531 0.358546 0)
(0.967024 0.304398 0)
(0.975423 0.226658 0)
(1.05527 0.165988 0)
(0.994902 0.115893 0)
(1.01047 0.0842041 0)
(0.990699 0.0629847 0)
(0.989099 0.0373874 0)
(0.995787 0.0209272 0)
(1.00372 0.00205731 0)
(1.01105 -0.00780542 0)
(1.0183 -0.0165787 0)
(1.02259 -0.0205514 0)
(1.02572 -0.0222626 0)
(1.02801 -0.0225557 0)
(1.02944 -0.0212678 0)
(1.03078 -0.0194201 0)
(1.03182 -0.0171015 0)
(1.03264 -0.0143785 0)
(1.03332 -0.0115152 0)
(1.03376 -0.00843517 0)
(1.03402 -0.00517166 0)
(1.03415 -0.00178342 0)
(1.01385 0.611027 0)
(0.982008 0.585518 0)
(0.942027 0.553005 0)
(0.895211 0.51171 0)
(0.839565 0.47205 0)
(0.772398 0.412255 0)
(0.710497 0.355246 0)
(0.651829 0.269915 0)
(0.615174 0.195367 0)
(0.555592 0.0888061 0)
(0.634294 0.0169414 0)
(0.693751 -0.0659063 0)
(0.800331 -0.0796743 0)
(0.861003 -0.106062 0)
(0.899168 -0.0929868 0)
(0.93388 -0.0847713 0)
(0.957414 -0.0703686 0)
(0.97783 -0.0587774 0)
(0.993044 -0.0496603 0)
(1.0045 -0.0417968 0)
(1.01339 -0.036509 0)
(1.01934 -0.0316292 0)
(1.02372 -0.0275077 0)
(1.02689 -0.0237735 0)
(1.0291 -0.020105 0)
(1.03078 -0.0165532 0)
(1.03195 -0.0130188 0)
(1.03273 -0.0094354 0)
(1.03319 -0.0057547 0)
(1.03341 -0.00197187 0)
(0.860845 -0.345968 0)
(0.811961 -0.378504 0)
(0.755451 -0.408603 0)
(0.693511 -0.444687 0)
(0.618712 -0.468697 0)
(0.544108 -0.495548 0)
(0.46417 -0.510431 0)
(0.387975 -0.519045 0)
(0.347154 -0.498025 0)
(0.402939 -0.455042 0)
(0.552303 -0.370674 0)
(0.744664 -0.305001 0)
(0.879747 -0.23759 0)
(0.973338 -0.18309 0)
(1.0244 -0.142469 0)
(1.04473 -0.111241 0)
(1.05078 -0.0867878 0)
(1.04967 -0.0703053 0)
(1.04543 -0.0568722 0)
(1.04247 -0.0479374 0)
(1.0404 -0.0408852 0)
(1.03946 -0.0349779 0)
(1.03933 -0.0301557 0)
(1.0394 -0.0256544 0)
(1.03968 -0.0215576 0)
(1.03997 -0.0176309 0)
(1.0402 -0.0137871 0)
(1.04037 -0.00996966 0)
(1.04041 -0.00606451 0)
(1.04043 -0.00207135 0)
(0.765678 -0.646114 0)
(0.735457 -0.637727 0)
(0.708075 -0.619961 0)
(0.686286 -0.595245 0)
(0.676243 -0.558964 0)
(0.688169 -0.514562 0)
(0.722518 -0.455069 0)
(0.783973 -0.380056 0)
(0.871696 -0.290506 0)
(0.964383 -0.204067 0)
(1.01384 -0.115974 0)
(1.08657 -0.0786087 0)
(1.11113 -0.0480918 0)
(1.08296 -0.0281524 0)
(1.06573 -0.0327941 0)
(1.04988 -0.0308761 0)
(1.04171 -0.0365572 0)
(1.03641 -0.0372538 0)
(1.03441 -0.0378319 0)
(1.03381 -0.0369029 0)
(1.03408 -0.0345538 0)
(1.03508 -0.0317573 0)
(1.03616 -0.0285094 0)
(1.03722 -0.0249647 0)
(1.03816 -0.0213542 0)
(1.03888 -0.0176047 0)
(1.03943 -0.0138442 0)
(1.03977 -0.0100288 0)
(1.03994 -0.00610502 0)
(1.04002 -0.00208484 0)
(0.894492 -0.146166 0)
(0.886091 -0.135531 0)
(0.880142 -0.122605 0)
(0.878068 -0.107154 0)
(0.882333 -0.0899614 0)
(0.893693 -0.0712901 0)
(0.912878 -0.0516696 0)
(0.938817 -0.0329105 0)
(0.967945 -0.0116368 0)
(0.991822 -0.00851391 0)
(0.985595 0.00589409 0)
(0.99336 -0.012412 0)
(1.03842 -0.0182713 0)
(1.02497 -0.0326369 0)
(1.02688 -0.0429109 0)