/*--------------------------------*- C++ -*----------------------------------*\
| =========                 |                                                 |
| \\      /  F ield         | OpenFOAM: The Open Source CFD Toolbox           |
|  \\    /   O peration     | Version:                                        |
|   \\  /    A nd           | Website:  www.openfoam.com                      |
|    \\/     M anipulation  |                                                 |
\*---------------------------------------------------------------------------*/
FoamFile
{
    version     2.0;
    format      ascii;
    class       volScalarField;
    location    "187";
    object      p;
}
// * * * * * * * * * * * * * * * * * * * * * * * * * * * * * * * * * * * * * //

dimensions      [0 2 -2 0 0 0 0];


internalField   nonuniform List<scalar> 
1147
(
-0.307822
-0.271562
-0.263795
-0.257602
-0.259813
-0.263759
-0.256381
-0.280457
-0.302023
-0.273875
-0.318075
-0.278075
-0.266097
-0.262014
-0.259155
-0.276369
-0.252703
-0.232881
-0.280659
-0.286342
-0.328903
-0.28475
-0.268517
-0.266089
-0.261724
-0.251902
-0.262206
-0.257908
-0.254825
-0.251548
-0.326551
-0.286087
-0.27502
-0.263641
-0.263541
-0.257434
-0.250821
-0.24452
-0.230416
-0.217644
-0.296049
-0.280858
-0.274847
-0.268923
-0.259096
-0.247221
-0.232896
-0.220033
-0.204479
-0.189156
-0.23642
-0.254563
-0.265288
-0.257693
-0.243265
-0.227431
-0.211451
-0.195348
-0.179411
-0.163615
-0.178831
-0.212849
-0.233908
-0.231276
-0.21963
-0.204343
-0.189083
-0.172569
-0.156356
-0.140435
-0.139032
-0.1773
-0.198129
-0.200664
-0.193298
-0.181107
-0.167088
-0.151769
-0.135355
-0.119499
-0.123908
-0.154958
-0.169353
-0.173625
-0.16832
-0.159041
-0.146319
-0.132254
-0.116135
-0.100172
-0.131499
-0.143299
-0.150649
-0.151461
-0.146933
-0.138502
-0.127425
-0.114068
-0.0985248
-0.0824748
-0.1401
-0.138752
-0.134302
-0.128708
-0.120238
-0.109886
-0.0975403
-0.0825365
-0.0665231
-0.141781
-0.130003
-0.121383
-0.113348
-0.104348
-0.0939147
-0.082246
-0.0681043
-0.0522542
-0.123483
-0.110652
-0.100316
-0.0906512
-0.079873
-0.0681374
-0.0549705
-0.0394864
-0.117081
-0.100812
-0.088811
-0.0781483
-0.0675592
-0.0554576
-0.0429516
-0.0283522
-0.0912429
-0.07802
-0.0666622
-0.0562437
-0.044316
-0.031855
-0.018729
-0.0812021
-0.0674219
-0.0562846
-0.0454596
-0.0345655
-0.0217728
-0.00987756
-0.0710211
-0.0568227
-0.0461017
-0.0354442
-0.0252801
-0.0129935
-0.00131657
-0.0463805
-0.0362354
-0.0258804
-0.0163874
-0.00525812
0.00663431
-0.0368431
-0.0266709
-0.0172123
-0.00777805
0.00168619
0.0134089
-0.0276871
-0.0174075
-0.00882269
0.000764182
0.0083564
0.0190414
-0.865009
-0.721905
-0.608081
-0.532488
-0.487796
-0.45777
-0.447406
-0.446093
-0.423425
-0.368229
-0.883032
-0.729918
-0.603443
-0.518739
-0.4662
-0.436466
-0.442175
-0.451706
-0.43876
-0.387537
-0.917382
-0.750554
-0.61194
-0.516095
-0.461521
-0.440995
-0.445439
-0.461916
-0.475602
-0.408259
-0.782297
-0.629441
-0.525182
-0.463986
-0.438708
-0.438929
-0.450211
-0.447744
-0.396367
-0.432539
-0.414491
-0.397526
-0.382314
-0.337713
-0.380842
-0.327413
-0.28415
-0.249256
-0.268562
-0.189238
-0.161562
-0.129792
-0.111584
-0.0992449
0.0238717
0.0289417
0.0341279
0.0388697
0.043241
0.0469388
0.0500254
0.0526929
0.0550197
0.0568967
0.0583841
0.0595557
0.0604191
0.0609904
0.0613598
0.0615963
0.0617277
0.0617759
0.0617143
0.0615398
0.0612963
0.0610052
0.0606266
0.0602445
0.059858
0.0594614
0.0591187
0.0587911
0.058454
0.0582921
0.0158636
0.0234198
0.0300931
0.0363452
0.0418247
0.0461405
0.0497428
0.0528902
0.0554996
0.0574751
0.0589922
0.0601764
0.0610064
0.0615261
0.0618384
0.0619688
0.0619844
0.0619252
0.0617813
0.0615426
0.0612665
0.0609311
0.0604961
0.0600886
0.0596766
0.0592578
0.0588962
0.0585507
0.0582367
0.0580909
0.00919545
0.0170563
0.0256227
0.0339438
0.0404204
0.0452474
0.0492638
0.0528164
0.0556073
0.0576538
0.0593006
0.0605899
0.0614413
0.0619806
0.0622913
0.0623686
0.0623029
0.0621462
0.0619152
0.0616005
0.0613055
0.060917
0.060425
0.0599916
0.0595344
0.0590832
0.0586987
0.0583293
0.058023
0.057882
0.000775392
0.0116392
0.0224346
0.0314047
0.0378444
0.0427806
0.047392
0.051651
0.0547753
0.0569781
0.0588543
0.0602944
0.0612069
0.0618495
0.0622717
0.0624064
0.0623718
0.0622104
0.0619337
0.0615628
0.0612732
0.0608278
0.060314
0.05988
0.0593819
0.0589113
0.0585079
0.0581164
0.0578092
0.0576666
-0.00817487
0.00284816
0.0153545
0.0262517
0.0335789
0.0391678
0.0448214
0.0497223
0.0528859
0.0553286
0.0576283
0.059246
0.0602667
0.0611268
0.061695
0.0619343
0.0620117
0.0619259
0.0616519
0.0612908
0.0610406
0.0605417
0.0600696
0.059664
0.0591526
0.0586969
0.0582907
0.057893
0.0575877
0.0574449
0.0560057
0.0576502
0.0588582
0.0599757
0.0606576
0.0610441
0.0612842
0.0613163
0.0610719
0.0608118
0.0605914
0.0600563
0.0596953
0.0593198
0.0588311
0.0584227
0.0580313
0.0576496
0.0573543
0.0572183
0.134764
0.12127
0.110905
0.101031
0.0900205
0.0772565
0.0631885
0.0516703
0.0392541
0.028273
0.138159
0.125607
0.1146
0.102743
0.090326
0.0769387
0.0617447
0.0486177
0.0352596
0.0231162
0.142457
0.129187
0.116362
0.102234
0.0880573
0.0739094
0.0579886
0.0437763
0.0304927
0.0170947
0.147634
0.132318
0.117097
0.100408
0.0842114
0.0691234
0.0530937
0.0380309
0.0248833
0.0107828
0.15268
0.134826
0.117019
0.0981763
0.0799508
0.063692
0.0475593
0.0318283
0.0182637
0.00409912
0.156804
0.13623
0.116077
0.0955429
0.0756323
0.0578816
0.0413446
0.0248749
0.0106221
-0.00362699
0.159717
0.136515
0.114013
0.0920814
0.0709037
0.0516143
0.0342676
0.0178611
0.00190953
-0.0129118
0.161358
0.135747
0.110871
0.0873285
0.0649249
0.0442853
0.0257306
0.00824929
-0.00831073
-0.0238536
0.16174
0.133828
0.106589
0.0810292
0.057299
0.0352637
0.0156336
-0.00282547
-0.0200558
-0.0362406
0.160927
0.130428
0.100841
0.0730052
0.0476753
0.0243703
0.00362912
-0.015478
-0.0334175
-0.0501301
0.158674
0.125117
0.0930514
0.0628984
0.0357103
0.0111695
-0.0105767
-0.0302351
-0.048591
-0.0657215
0.154434
0.117393
0.082473
0.0500975
0.0209997
-0.00480332
-0.0273953
-0.0474649
-0.0658204
-0.0830956
0.147424
0.106655
0.0685266
0.0337317
0.00296689
-0.0240709
-0.0473647
-0.0675319
-0.0854668
-0.102193
0.136802
0.0920117
0.0505314
0.0131221
-0.0192859
-0.0471534
-0.0707661
-0.0909358
-0.108012
-0.123579
0.121497
0.0721466
0.0271494
-0.0127574
-0.046661
-0.0749424
-0.0982276
-0.117782
-0.133816
-0.147617
0.10002
0.0455422
-0.00313646
-0.045279
-0.0800515
-0.108305
-0.130304
-0.148012
-0.16271
-0.174467
0.0701798
0.00958601
-0.0432479
-0.0871182
-0.121505
-0.148188
-0.167295
-0.181043
-0.193773
-0.204751
0.0302538
-0.0370459
-0.095451
-0.14294
-0.177284
-0.198836
-0.209954
-0.214403
-0.221628
-0.235995
-0.0220687
-0.0938575
-0.155281
-0.205412
-0.24115
-0.257702
-0.256691
-0.244069
-0.232205
-0.246475
-0.116037
-0.197467
-0.264735
-0.31039
-0.333293
-0.334414
-0.312611
-0.274939
-0.2304
-0.219332
0.191348
0.18119
0.167567
0.151741
0.204955
0.194636
0.1822
0.167974
0.152224
0.225248
0.219681
0.211411
0.199963
0.186173
0.17157
0.156495
0.233326
0.237691
0.23841
0.235505
0.228923
0.219599
0.207629
0.193257
0.177911
0.162728
0.246579
0.250725
0.250968
0.247559
0.2403
0.229857
0.217346
0.202575
0.185945
0.169518
0.261447
0.265598
0.265485
0.261522
0.25369
0.242093
0.228394
0.212731
0.194492
0.176015
0.277954
0.282234
0.281795
0.277047
0.268446
0.255664
0.240122
0.222816
0.20267
0.18162
0.295982
0.300329
0.299503
0.293696
0.283963
0.269797
0.25204
0.232446
0.209926
0.186027
0.315419
0.319647
0.318264
0.311159
0.299891
0.284027
0.263788
0.24149
0.216194
0.189308
0.336198
0.340093
0.337962
0.329371
0.316146
0.298161
0.275223
0.24987
0.221565
0.191587
0.358311
0.361703
0.358596
0.348337
0.332809
0.312229
0.2863
0.257528
0.225888
0.19265
0.381751
0.384512
0.380254
0.368086
0.349906
0.326316
0.297009
0.264408
0.22895
0.191997
0.406429
0.408448
0.402901
0.38854
0.367243
0.34022
0.307178
0.270251
0.230425
0.189034
0.43221
0.433347
0.426316
0.409472
0.384538
0.353453
0.316185
0.27441
0.22962
0.183135
0.458721
0.458943
0.450018
0.430311
0.401329
0.365476
0.323143
0.275787
0.225337
0.17318
0.485369
0.484726
0.473246
0.450347
0.416849
0.375472
0.327072
0.273295
0.216278
0.157671
0.511136
0.509737
0.495066
0.468207
0.42976
0.382115
0.326289
0.265285
0.20069
0.134605
0.534723
0.532351
0.51436
0.482572
0.43826
0.383616
0.319229
0.249699
0.176576
0.102026
0.553836
0.549751
0.528067
0.490633
0.439312
0.375542
0.30175
0.22218
0.139074
0.0566786
0.56623
0.559953
0.534585
0.491958
0.431925
0.35555
0.269679
0.174173
0.0753482
-0.0219898
0.155962
0.179544
0.168374
0.155403
0.143935
0.132905
0.123855
0.116486
0.109999
0.103998
0.0985347
0.0936392
0.0893077
0.0855103
0.082089
0.0789822
0.0762053
0.0737804
0.0717494
0.070061
0.0686402
0.0673938
0.0662697
0.0652716
0.064412
0.0636908
0.0630894
0.0625949
0.0622041
0.0618934
0.0616124
0.0612651
0.0616737
0.0614925
0.139353
0.128369
0.120093
0.113229
0.106957
0.101134
0.0957803
0.0908612
0.0864534
0.0826323
0.0793154
0.0764669
0.0739711
0.0717845
0.0699099
0.0683439
0.0670773
0.0660422
0.0651596
0.0643801
0.0636958
0.0631124
0.0626217
0.0622204
0.0619141
0.0616815
0.0614617
0.0611248
0.0613201
0.0611209
0.13095
0.124161
0.117726
0.111265
0.105025
0.0992414
0.0939094
0.0889905
0.0845305
0.0805574
0.0771367
0.074289
0.0719228
0.0699509
0.068261
0.0668226
0.0656489
0.0647267
0.064007
0.0634172
0.0629182
0.0624974
0.0621421
0.0618494
0.0616325
0.0614834
0.0613324
0.06101
0.0609343
0.0607165
0.116876
0.113448
0.110005
0.10508
0.0998512
0.0946441
0.0897182
0.085225
0.0812047
0.0776097
0.0744718
0.0718188
0.069668
0.0679762
0.0665834
0.0653814
0.0643507
0.0635162
0.0628848
0.0624159
0.0620638
0.0617954
0.0615813
0.0614077
0.0612863
0.0612266
0.061158
0.0608663
0.0605524
0.0603171
0.104925
0.0993294
0.0959408
0.0923065
0.0888504
0.0852554
0.0817058
0.0784091
0.0754982
0.0729675
0.0707928
0.0689016
0.0673247
0.0660745
0.0650611
0.064184
0.0633964
0.0626976
0.0621179
0.0616726
0.0613575
0.0611512
0.0610175
0.0609276
0.0608824
0.0608978
0.0609098
0.0606727
0.0602112
0.0599633
0.0966345
0.0905458
0.0857785
0.0813667
0.0783264
0.0757809
0.0736276
0.0717275
0.0700428
0.0686016
0.0674025
0.0663854
0.0655176
0.0647697
0.0641183
0.0635118
0.0629463
0.0624085
0.0618961
0.0614355
0.0610653
0.0608056
0.0606425
0.0605503
0.0605208
0.0605629
0.0606219
0.0604427
0.0599202
0.059663
0.0868851
0.0829693
0.079434
0.075413
0.0725374
0.0702175
0.0686593
0.0675404
0.0666805
0.0659555
0.0653481
0.0648448
0.0644232
0.0640448
0.0636921
0.0633104
0.0629239
0.062523
0.0620964
0.0616486
0.0612194
0.0608545
0.0605811
0.0603974
0.060304
0.0603021
0.0603487
0.0602022
0.0596762
0.0594133
0.0749237
0.0727158
0.071518
0.0695059
0.0678627
0.0662279
0.0651312
0.0644513
0.0641084
0.0639423
0.0638383
0.0637416
0.0636458
0.0635339
0.0634144
0.0632489
0.06302
0.0627335
0.0624
0.0620099
0.0615793
0.0611504
0.0607717
0.0604648
0.0602551
0.0601505
0.0601257
0.0599716
0.0594674
0.0592035
0.0621823
0.0605392
0.0605689
0.0604217
0.060852
0.0610152
0.0612486
0.0614351
0.0616841
0.0619692
0.0622458
0.0624819
0.062663
0.0627964
0.0629061
0.0629506
0.0629002
0.0627472
0.0625159
0.0622123
0.0618419
0.0614275
0.061009
0.0606173
0.0602973
0.0600729
0.0599463
0.0597523
0.0592761
0.0590186
0.0520152
0.0515182
0.0524997
0.0530265
0.0542994
0.0554961
0.0567421
0.0578439
0.0588436
0.0597071
0.0604519
0.061055
0.0615197
0.0618902
0.0621853
0.0624065
0.0625212
0.0625062
0.0623795
0.0621636
0.0618706
0.061516
0.0611165
0.0607012
0.0603181
0.0599993
0.0597768
0.0595318
0.0590857
0.0588438
0.0414183
0.041775
0.0439518
0.0458041
0.0484188
0.0508351
0.0531132
0.0550928
0.0567348
0.0580495
0.0590991
0.0599273
0.0605792
0.0610953
0.0615136
0.0618398
0.0620578
0.0621435
0.0620912
0.0619336
0.0616963
0.0614
0.0610374
0.0606387
0.0602415
0.059872
0.0595831
0.0592966
0.058885
0.0586678
0.0321248
0.0354762
0.0389999
0.0421818
0.0451818
0.0479603
0.0506205
0.0530627
0.0552424
0.0570235
0.0583953
0.059437
0.0602108
0.0607771
0.0611986
0.0615163
0.0617451
0.0618566
0.0618317
0.0616873
0.0614609
0.0611859
0.0608348
0.0604556
0.0600684
0.0596815
0.0593574
0.0590455
0.0586726
0.0584846
)
;

boundaryField
{
    outlet
    {
        type            fixedValue;
        value           nonuniform 0();
    }
    upperWall
    {
        type            symmetryPlane;
    }
    lowerWall
    {
        type            symmetryPlane;
    }
    inlet
    {
        type            zeroGradient;
    }
    cylinder
    {
        type            zeroGradient;
    }
    frontAndBack
    {
        type            empty;
    }
    procBoundary1to0
    {
        type            processor;
        value           nonuniform List<scalar> 
45
(
0.199548
0.199548
0.187052
0.216254
0.212022
0.212022
0.221444
0.226145
0.227454
0.227454
0.154083
0.174053
0.166017
0.166017
0.187052
0.145115
0.135407
0.126357
0.118908
0.112442
0.106553
0.101252
0.0965595
0.0922745
0.0883018
0.0845781
0.0811711
0.0781912
0.0756499
0.0735246
0.0716891
0.0700402
0.0685385
0.0671866
0.066023
0.0650509
0.0642409
0.0635597
0.0629902
0.0625233
0.0621425
0.0618088
0.0614582
0.0619862
0.0618232
)
;
    }
    procBoundary1to2
    {
        type            processor;
        value           nonuniform List<scalar> 
63
(
-0.146846
-0.117681
-0.146846
-0.159184
-0.142057
-0.142057
-0.139394
-0.109227
-0.109227
-0.0998017
-0.0880665
-0.0604352
-0.0604352
-0.048486
-0.0373891
-0.016529
-0.968792
-0.968792
-0.812887
-0.650464
-0.539776
-0.472081
-0.472081
-0.426692
-0.426692
-0.346903
-0.346903
-0.223704
-0.223704
-0.11554
-0.11554
-0.117681
-0.016529
-0.00310723
0.0113786
0.0221473
0.0285817
0.0347966
0.0419363
0.0472461
0.0503883
0.0533111
0.0533111
0.0542519
0.0559173
0.0574348
0.0587413
0.0594636
0.0600051
0.0603813
0.0605015
0.0603182
0.060245
0.0599943
0.0594922
0.0592648
0.0588916
0.0584566
0.0581052
0.0577391
0.0573912
0.0571102
0.0569888
)
;
    }
    procBoundary1to5
    {
        type            processor;
        value           nonuniform List<scalar> 
20
(
-1.02194
-1.05207
-1.11177
0.224805
0.237901
0.252424
0.268408
0.285903
0.304901
0.325344
0.34717
0.370284
0.394596
0.419951
0.446008
0.472221
0.497643
0.520893
0.539485
0.551183
)
;
    }
}


// ************************************************************************* //
