/*--------------------------------*- C++ -*----------------------------------*\
| =========                 |                                                 |
| \\      /  F ield         | OpenFOAM: The Open Source CFD Toolbox           |
|  \\    /   O peration     | Version:                                        |
|   \\  /    A nd           | Website:  www.openfoam.com                      |
|    \\/     M anipulation  |                                                 |
\*---------------------------------------------------------------------------*/
FoamFile
{
    version     2.0;
    format      ascii;
    class       volScalarField;
    location    "140";
    object      p;
}
// * * * * * * * * * * * * * * * * * * * * * * * * * * * * * * * * * * * * * //

dimensions      [0 2 -2 0 0 0 0];


internalField   nonuniform List<scalar> 
250
(
0.795049
0.778991
0.762923
0.746833
0.730746
0.714667
0.698592
0.68252
0.666449
0.65038
0.634312
0.618246
0.60218
0.586116
0.570052
0.55399
0.537928
0.521867
0.505807
0.489747
0.473688
0.457629
0.441571
0.425513
0.409455
0.393398
0.37734
0.361283
0.345226
0.329169
0.313112
0.297056
0.280999
0.264942
0.248885
0.232829
0.216772
0.200715
0.184658
0.168601
0.152542
0.136485
0.120423
0.104365
0.0882975
0.0722358
0.0561531
0.0400844
0.0239783
0.00794859
0.795054
0.77899
0.762922
0.746835
0.730749
0.714669
0.698594
0.682521
0.66645
0.650381
0.634313
0.618246
0.60218
0.586116
0.570052
0.55399
0.537928
0.521867
0.505807
0.489747
0.473688
0.457629
0.441571
0.425513
0.409455
0.393397
0.37734
0.361283
0.345226
0.329169
0.313112
0.297055
0.280998
0.264942
0.248885
0.232828
0.216771
0.200715
0.184657
0.168601
0.152542
0.136485
0.120424
0.104366
0.0882996
0.0722386
0.0561577
0.0400893
0.0239784
0.00794818
0.795054
0.778983
0.762912
0.746828
0.730745
0.714666
0.69859
0.682518
0.666447
0.650378
0.63431
0.618243
0.602178
0.586114
0.57005
0.553988
0.537926
0.521865
0.505805
0.489746
0.473686
0.457628
0.441569
0.425511
0.409454
0.393396
0.377339
0.361282
0.345225
0.329168
0.313111
0.297054
0.280998
0.264941
0.248884
0.232828
0.216771
0.200714
0.184657
0.1686
0.152542
0.136485
0.120425
0.104367
0.0883033
0.0722432
0.0561686
0.0401025
0.0240061
0.00796815
0.795057
0.778979
0.762903
0.746822
0.73074
0.714662
0.698587
0.682515
0.666444
0.650375
0.634307
0.61824
0.602175
0.586111
0.570048
0.553985
0.537924
0.521863
0.505803
0.489743
0.473684
0.457626
0.441568
0.42551
0.409452
0.393394
0.377337
0.36128
0.345223
0.329166
0.31311
0.297053
0.280996
0.26494
0.248883
0.232826
0.21677
0.200713
0.184656
0.168599
0.152542
0.136485
0.120426
0.104369
0.0883077
0.0722488
0.0561822
0.04012
0.0240433
0.00799484
0.795059
0.778975
0.762895
0.746815
0.730735
0.714658
0.698584
0.682511
0.66644
0.650371
0.634303
0.618237
0.602172
0.586108
0.570045
0.553983
0.537921
0.521861
0.505801
0.489741
0.473682
0.457624
0.441566
0.425508
0.40945
0.393393
0.377335
0.361278
0.345222
0.329165
0.313108
0.297051
0.280995
0.264938
0.248882
0.232825
0.216768
0.200712
0.184655
0.168599
0.152542
0.136485
0.120427
0.10437
0.0883114
0.0722541
0.0561938
0.040136
0.0240752
0.0080185
)
;

boundaryField
{
    inlet
    {
        type            zeroGradient;
    }
    outlet
    {
        type            fixedValue;
        value           uniform 0;
    }
    wall
    {
        type            zeroGradient;
    }
    back
    {
        type            wedge;
    }
    front
    {
        type            wedge;
    }
    axis
    {
        type            empty;
    }
    procBoundary3to2
    {
        type            processor;
        value           nonuniform List<scalar> 5(0.81114 0.811149 0.811149 0.811151 0.81115);
    }
    procBoundary3to7
    {
        type            processor;
        value           nonuniform List<scalar> 
50
(
0.79506
0.778973
0.76289
0.74681
0.730731
0.714655
0.698581
0.682508
0.666438
0.650368
0.634301
0.618235
0.60217
0.586106
0.570043
0.553981
0.537919
0.521859
0.505799
0.489739
0.473681
0.457622
0.441564
0.425506
0.409449
0.393391
0.377334
0.361277
0.34522
0.329163
0.313107
0.29705
0.280994
0.264937
0.248881
0.232824
0.216768
0.200711
0.184655
0.168598
0.152541
0.136485
0.120428
0.104371
0.0883142
0.0722575
0.0562015
0.0401462
0.0240949
0.00803299
)
;
    }
}


// ************************************************************************* //
