/*--------------------------------*- C++ -*----------------------------------*\
| =========                 |                                                 |
| \\      /  F ield         | OpenFOAM: The Open Source CFD Toolbox           |
|  \\    /   O peration     | Version:                                        |
|   \\  /    A nd           | Website:  www.openfoam.com                      |
|    \\/     M anipulation  |                                                 |
\*---------------------------------------------------------------------------*/
FoamFile
{
    version     2.0;
    format      ascii;
    class       surfaceScalarField;
    location    "140";
    object      phi;
}
// * * * * * * * * * * * * * * * * * * * * * * * * * * * * * * * * * * * * * //

dimensions      [0 3 -1 0 0 0 0];
oriented        oriented;


internalField   nonuniform List<scalar> 
445
(
3.42507e-06
-2.33411e-10
3.42528e-06
-2.08041e-10
3.42547e-06
-1.84308e-10
3.42564e-06
-1.66889e-10
3.4258e-06
-1.51915e-10
3.42593e-06
-1.37537e-10
3.42606e-06
-1.23656e-10
3.42617e-06
-1.1053e-10
3.42627e-06
-9.83353e-11
3.42636e-06
-8.71047e-11
3.42644e-06
-7.6836e-11
3.42651e-06
-6.74626e-11
3.42657e-06
-5.89171e-11
3.42662e-06
-5.11565e-11
3.42666e-06
-4.41552e-11
3.4267e-06
-3.78679e-11
3.42674e-06
-3.22337e-11
3.42677e-06
-2.72162e-11
3.42679e-06
-2.28142e-11
3.42681e-06
-1.89637e-11
3.42683e-06
-1.5613e-11
3.42684e-06
-1.26968e-11
3.42685e-06
-1.02165e-11
3.42686e-06
-8.09195e-12
3.42687e-06
-6.28209e-12
3.42688e-06
-4.71657e-12
3.42688e-06
-3.45516e-12
3.42688e-06
-2.39405e-12
3.42689e-06
-1.56609e-12
3.42689e-06
-8.28508e-13
3.42689e-06
-3.42765e-13
3.42689e-06
1.36068e-13
3.42689e-06
3.62697e-13
3.42689e-06
7.66989e-13
3.42689e-06
7.14965e-13
3.42689e-06
1.07254e-12
3.42689e-06
6.55135e-13
3.42689e-06
1.1766e-12
3.42689e-06
1.67567e-13
3.42689e-06
9.90684e-13
3.4269e-06
-1.03839e-12
3.4269e-06
2.92165e-13
3.4269e-06
-3.56495e-12
3.4269e-06
-2.18048e-12
3.42691e-06
-8.88265e-12
3.42692e-06
-9.49236e-12
3.42694e-06
-1.9498e-11
3.42697e-06
-2.73063e-11
3.427e-06
-3.19324e-11
-5.0727e-11
1.00949e-05
-8.72571e-10
1.00954e-05
-7.98495e-10
1.0096e-05
-7.06367e-10
1.00964e-05
-6.32013e-10
1.00969e-05
-5.71391e-10
1.00972e-05
-5.16701e-10
1.00976e-05
-4.65055e-10
1.00979e-05
-4.16903e-10
1.00982e-05
-3.71732e-10
1.00984e-05
-3.30311e-10
1.00986e-05
-2.91848e-10
1.00988e-05
-2.56896e-10
1.0099e-05
-2.24561e-10
1.00991e-05
-1.95572e-10
1.00993e-05
-1.68898e-10
1.00994e-05
-1.45275e-10
1.00995e-05
-1.23586e-10
1.00996e-05
-1.04845e-10
1.00996e-05
-8.77691e-11
1.00997e-05
-7.33042e-11
1.00997e-05
-6.009e-11
1.00998e-05
-4.92878e-11
1.00998e-05
-3.93989e-11
1.00998e-05
-3.14927e-11
1.00999e-05
-2.40815e-11
1.00999e-05
-1.84898e-11
1.00999e-05
-1.32228e-11
1.00999e-05
-9.42312e-12
1.00999e-05
-5.71925e-12
1.00999e-05
-3.30795e-12
1.00999e-05
-9.65724e-13
1.00999e-05
5.6882e-13
1.00999e-05
1.99987e-12
1.00999e-05
3.02192e-12
1.00999e-05
3.34724e-12
1.00999e-05
4.27324e-12
1.00999e-05
3.36103e-12
1.00999e-05
4.6628e-12
1.00999e-05
1.54867e-12
1.00999e-05
4.04309e-12
1.00999e-05
-2.77487e-12
1.00999e-05
1.64742e-12
1.01e-05
-1.24775e-11
1.01e-05
-6.29179e-12
1.01e-05
-3.35463e-11
1.01e-05
-3.03425e-11
1.01001e-05
-8.24019e-11
1.01002e-05
-1.03994e-10
1.01003e-05
-1.96433e-10
-2.92165e-10
1.61617e-05
-1.71643e-09
1.61625e-05
-1.58649e-09
1.61632e-05
-1.4129e-09
1.61638e-05
-1.26396e-09
1.61644e-05
-1.14124e-09
1.61649e-05
-1.03119e-09
1.61654e-05
-9.29847e-10
1.61658e-05
-8.34497e-10
1.61662e-05
-7.46867e-10
1.61665e-05
-6.64622e-10
1.61668e-05
-5.89665e-10
1.61671e-05
-5.19588e-10
1.61674e-05
-4.56541e-10
1.61676e-05
-3.97697e-10
1.61678e-05
-3.45442e-10
1.61679e-05
-2.96753e-10
1.61681e-05
-2.54511e-10
1.61682e-05
-2.15227e-10
1.61683e-05
-1.8193e-10
1.61684e-05
-1.50941e-10
1.61684e-05
-1.25625e-10
1.61685e-05
-1.01844e-10
1.61685e-05
-8.30303e-11
1.61686e-05
-6.49528e-11
1.61686e-05
-5.14767e-11
1.61687e-05
-3.8084e-11
1.61687e-05
-2.87599e-11
1.61687e-05
-1.89606e-11
1.61687e-05
-1.30956e-11
1.61687e-05
-6.1387e-12
1.61687e-05
-2.7993e-12
1.61687e-05
2.37032e-12
1.61687e-05
3.59499e-12
1.61687e-05
7.53418e-12
1.61687e-05
6.87403e-12
1.61687e-05
1.03943e-11
1.61687e-05
7.21166e-12
1.61687e-05
1.10623e-11
1.61687e-05
4.18941e-12
1.61688e-05
9.88954e-12
1.61688e-05
-3.9086e-12
1.61688e-05
4.92652e-12
1.61688e-05
-2.21212e-11
1.61688e-05
-9.82331e-12
1.61688e-05
-6.26377e-11
1.61689e-05
-5.53494e-11
1.61689e-05
-1.58526e-10
1.6169e-05
-1.95002e-10
1.61692e-05
-3.89212e-10
-5.85176e-10
2.12098e-05
-2.49745e-09
2.12105e-05
-2.32369e-09
2.12112e-05
-2.09039e-09
2.12118e-05
-1.87864e-09
2.12124e-05
-1.69766e-09
2.12129e-05
-1.53677e-09
2.12134e-05
-1.38755e-09
2.12138e-05
-1.25017e-09
2.12142e-05
-1.12137e-09
2.12145e-05
-1.00298e-09
2.12148e-05
-8.91918e-10
2.12151e-05
-7.90686e-10
2.12153e-05
-6.96089e-10
2.12156e-05
-6.10735e-10
2.12158e-05
-5.3102e-10
2.12159e-05
-4.60311e-10
2.12161e-05
-3.94708e-10
2.12162e-05
-3.37668e-10
2.12163e-05
-2.84768e-10
2.12164e-05
-2.4002e-10
2.12165e-05
-1.9872e-10
2.12166e-05
-1.64719e-10
2.12166e-05
-1.32859e-10
2.12167e-05
-1.07576e-10
2.12167e-05
-8.37263e-11
2.12168e-05
-6.56042e-11
2.12168e-05
-4.79282e-11
2.12168e-05
-3.53955e-11
2.12168e-05
-2.29836e-11
2.12168e-05
-1.48425e-11
2.12169e-05
-6.12177e-12
2.12169e-05
-9.22459e-13
2.12169e-05
4.54883e-12
2.12169e-05
7.6613e-12
2.12169e-05
1.04678e-11
2.12169e-05
1.25189e-11
2.12169e-05
1.18305e-11
2.12169e-05
1.37351e-11
2.12169e-05
8.49925e-12
2.12169e-05
1.18974e-11
2.12169e-05
-1.97101e-12
2.12169e-05
4.20982e-12
2.12169e-05
-2.58544e-11
2.12169e-05
-1.70532e-11
2.12169e-05
-7.91542e-11
2.1217e-05
-7.83741e-11
2.1217e-05
-2.02024e-10
2.12171e-05
-2.59309e-10
2.12172e-05
-4.99927e-10
-7.54591e-10
2.48192e-05
2.48196e-05
2.482e-05
2.48204e-05
2.48208e-05
2.48212e-05
2.48215e-05
2.48217e-05
2.4822e-05
2.48223e-05
2.48225e-05
2.48227e-05
2.48229e-05
2.4823e-05
2.48232e-05
2.48233e-05
2.48234e-05
2.48235e-05
2.48236e-05
2.48237e-05
2.48237e-05
2.48238e-05
2.48239e-05
2.48239e-05
2.48239e-05
2.4824e-05
2.4824e-05
2.4824e-05
2.4824e-05
2.4824e-05
2.48241e-05
2.48241e-05
2.48241e-05
2.48241e-05
2.48241e-05
2.48241e-05
2.48241e-05
2.48241e-05
2.48241e-05
2.48241e-05
2.48241e-05
2.48241e-05
2.48241e-05
2.48241e-05
2.48241e-05
2.48241e-05
2.48241e-05
2.48241e-05
2.48242e-05
)
;

boundaryField
{
    inlet
    {
        type            calculated;
        value           nonuniform 0();
    }
    outlet
    {
        type            calculated;
        value           nonuniform List<scalar> 5(3.42705e-06 1.01005e-05 1.61694e-05 2.12173e-05 2.48241e-05);
    }
    wall
    {
        type            calculated;
        value           nonuniform 0();
    }
    back
    {
        type            wedge;
        value           nonuniform List<scalar> 
250
(
-2.16521e-20
-4.94068e-20
-1.28958e-19
2.12197e-19
-6.67622e-19
-2.69492e-20
-5.57441e-20
-1.25902e-19
1.96582e-19
-6.33679e-19
-2.26315e-20
-4.49117e-20
-1.14292e-19
1.75982e-19
-5.81358e-19
-2.43972e-20
-4.75895e-20
-1.07102e-19
1.51429e-19
-5.275e-19
-3.22033e-20
-4.70503e-20
-9.67334e-20
1.35317e-19
-4.75997e-19
-2.47622e-20
-5.35677e-20
-9.30192e-20
1.16121e-19
-4.35418e-19
-8.32404e-21
-3.48704e-20
-8.24628e-20
1.0605e-19
-3.903e-19
-1.46793e-20
-4.04086e-20
-8.03927e-20
9.15085e-20
-3.56597e-19
-2.15936e-20
-3.93571e-20
-7.38932e-20
8.04807e-20
-3.22186e-19
-2.03331e-20
-3.98942e-20
-7.3329e-20
6.79252e-20
-2.90455e-19
-1.83912e-20
-3.59573e-20
-6.3688e-20
5.87925e-20
-2.62553e-19
-1.88843e-20
-3.61543e-20
-6.21799e-20
4.96535e-20
-2.3164e-19
-2.42233e-20
-4.12927e-20
-5.99047e-20
3.57656e-20
-2.12302e-19
-2.05097e-20
-3.58623e-20
-5.0932e-20
3.02108e-20
-1.90139e-19
-1.99302e-20
-3.65901e-20
-4.95004e-20
2.27336e-20
-1.70062e-19
-6.38765e-21
-2.42175e-20
-4.38812e-20
1.9611e-20
-1.46275e-19
-1.21943e-20
-3.14775e-20
-4.21978e-20
1.2211e-20
-1.29656e-19
-1.28391e-20
-2.71267e-20
-3.77453e-20
8.80578e-21
-1.1183e-19
-1.6993e-20
-2.8958e-20
-3.79738e-20
2.65445e-21
-9.90977e-20
-1.50872e-20
-2.70253e-20
-3.50554e-20
-3.07741e-22
-8.45856e-20
-1.49978e-20
-3.04621e-20
-3.34739e-20
-3.90883e-21
-7.3287e-20
-2.12559e-20
-2.99016e-20
-3.22e-20
-6.95275e-21
-6.42807e-20
-1.84551e-20
-3.17857e-20
-3.12825e-20
-1.09699e-20
-5.61157e-20
-6.50189e-21
-2.20771e-20
-2.74669e-20
-7.97035e-21
-4.29815e-20
-1.27062e-20
-2.50452e-20
-2.67752e-20
-1.09207e-20
-3.86506e-20
-1.05572e-20
-2.01539e-20
-2.50723e-20
-9.97298e-21
-3.04952e-20
-1.0891e-20
-2.27103e-20
-2.40699e-20
-1.20619e-20
-2.77395e-20
-1.03728e-20
-2.02081e-20
-2.10366e-20
-1.33396e-20
-2.21082e-20
-1.2669e-20
-2.09671e-20
-1.95977e-20
-1.3168e-20
-1.89472e-20
-1.43572e-20
-2.16837e-20
-1.88131e-20
-1.34591e-20
-1.66422e-20
-1.1608e-20
-2.16768e-20
-1.99117e-20
-1.5405e-20
-1.49046e-20
-5.20515e-21
-1.5945e-20
-1.85584e-20
-1.32788e-20
-1.07792e-20
-7.57044e-21
-1.78637e-20
-1.80773e-20
-1.40436e-20
-9.71849e-21
-9.11345e-21
-1.69857e-20
-1.65377e-20
-1.33762e-20
-7.02044e-21
-1.08167e-20
-1.90146e-20
-1.65124e-20
-1.31329e-20
-6.05672e-21
-1.02736e-20
-1.7231e-20
-1.41067e-20
-1.30371e-20
-6.14996e-21
-7.94898e-21
-1.39446e-20
-1.42196e-20
-1.14199e-20
-3.23001e-21
-1.32961e-20
-1.85827e-20
-1.48176e-20
-1.31554e-20
-3.2789e-21
-1.00227e-20
-1.54261e-20
-1.19397e-20
-1.08058e-20
-6.10466e-21
-1.01543e-20
-1.5237e-20
-1.22529e-20
-1.16047e-20
-5.54825e-21
-1.46438e-21
-1.00708e-20
-1.23715e-20
-7.9408e-21
-5.82597e-21
-4.31273e-21
-1.14094e-20
-1.06394e-20
-9.03041e-21
-4.40778e-21
-6.8341e-21
-1.1902e-20
-1.1541e-20
-5.63679e-21
-9.10283e-21
-8.01583e-21
-1.16806e-20
-1.08207e-20
-6.62296e-21
-6.34274e-21
-7.19218e-21
-1.06419e-20
-1.19918e-20
-9.08844e-22
-1.72688e-20
-4.3168e-21
-9.99474e-21
-1.02215e-20
-2.00364e-21
-1.57472e-20
-8.98093e-21
-1.16383e-20
-1.36832e-20
7.11938e-21
-3.52251e-20
-8.10401e-21
-1.03491e-20
-1.44276e-20
1.01964e-20
-4.33237e-20
-5.84209e-21
-1.00475e-20
-1.94312e-20
2.7943e-20
-7.56116e-20
-1.67191e-21
-7.81191e-21
-2.77318e-20
5.81621e-20
-1.29216e-19
)
;
    }
    front
    {
        type            wedge;
        value           nonuniform List<scalar> 
250
(
2.16526e-20
4.94081e-20
-2.04739e-20
3.18132e-19
-5.86115e-19
2.69497e-20
5.57453e-20
-1.47212e-20
3.03735e-19
-5.50405e-19
2.26319e-20
4.49128e-20
-1.23912e-20
2.78255e-19
-5.01778e-19
2.43976e-20
4.75905e-20
-5.43371e-21
2.54585e-19
-4.48002e-19
3.22036e-20
4.70511e-20
-4.08957e-21
2.29232e-19
-4.03753e-19
2.47625e-20
5.35684e-20
2.13238e-21
2.12845e-19
-3.6043e-19
8.32432e-21
3.48711e-20
5.37475e-22
1.90863e-19
-3.29823e-19
1.46796e-20
4.04092e-20
6.79693e-21
1.75839e-19
-2.93768e-19
2.15938e-20
3.93576e-20
8.02704e-21
1.59445e-19
-2.63612e-19
2.03334e-20
3.98946e-20
1.46616e-20
1.46528e-19
-2.35183e-19
1.83914e-20
3.59577e-20
1.16612e-20
1.32021e-19
-2.07161e-19
1.88844e-20
3.61547e-20
1.62962e-20
1.19288e-19
-1.86088e-19
2.42234e-20
4.12931e-20
1.96295e-20
1.13062e-19
-1.57507e-19
2.05098e-20
3.58626e-20
1.5796e-20
1.00197e-19
-1.35427e-19
1.99303e-20
3.65904e-20
1.89995e-20
9.08731e-20
-1.14998e-19
6.38773e-21
2.42177e-20
1.75949e-20
7.87362e-20
-1.01743e-19
1.21944e-20
3.14777e-20
1.9668e-20
7.23975e-20
-8.49672e-20
1.28392e-20
2.71268e-20
1.85936e-20
6.35027e-20
-7.25849e-20
1.6993e-20
2.89581e-20
2.17818e-20
5.87047e-20
-5.83534e-20
1.50872e-20
2.70255e-20
2.15003e-20
5.19683e-20
-4.87963e-20
1.49978e-20
3.04622e-20
2.21912e-20
4.70865e-20
-3.90674e-20
2.12559e-20
2.99017e-20
2.29196e-20
4.27447e-20
-2.94997e-20
1.84551e-20
3.17858e-20
2.36924e-20
4.03594e-20
-2.15412e-20
6.5019e-21
2.20771e-20
2.13664e-20
3.18016e-20
-2.0548e-20
1.27062e-20
2.50452e-20
2.19141e-20
3.00138e-20
-1.29203e-20
1.05572e-20
2.01539e-20
2.13001e-20
2.50212e-20
-1.06609e-20
1.0891e-20
2.27103e-20
2.11706e-20
2.37063e-20
-4.6642e-21
1.03728e-20
2.02081e-20
1.89107e-20
2.20759e-20
-2.73529e-21
1.2669e-20
2.09671e-20
1.8059e-20
1.95676e-20
1.16623e-22
1.43572e-20
2.16837e-20
1.78053e-20
1.78931e-20
3.03572e-21
1.1608e-20
2.16768e-20
1.92575e-20
1.83389e-20
5.35328e-21
5.20515e-21
1.5945e-20
1.82707e-20
1.48381e-20
4.905e-21
7.57044e-21
1.78637e-20
1.79737e-20
1.47359e-20
6.24129e-21
9.11345e-21
1.69857e-20
1.67107e-20
1.31169e-20
6.05881e-21
1.08167e-20
1.90146e-20
1.67005e-20
1.25824e-20
6.22895e-21
1.02736e-20
1.72309e-20
1.45461e-20
1.1679e-20
8.23921e-21
7.94898e-21
1.39446e-20
1.44746e-20
1.04351e-20
4.9178e-21
1.32961e-20
1.85827e-20
1.53838e-20
1.13291e-20
6.60922e-21
1.00227e-20
1.54261e-20
1.20019e-20
1.03246e-20
7.23395e-21
1.01543e-20
1.5237e-20
1.28213e-20
9.77756e-21
8.83484e-21
1.46438e-21
1.00708e-20
1.18991e-20
9.10601e-21
3.73566e-21
4.31273e-21
1.14094e-20
1.10398e-20
7.93715e-21
5.49839e-21
6.83411e-21
1.1902e-20
9.9049e-21
1.05914e-20
-7.39338e-22
8.01584e-21
1.16806e-20
1.05057e-20
8.07991e-21
9.56566e-22
7.1922e-21
1.0642e-20
7.94603e-21
1.37735e-20
-9.21957e-21
4.31681e-21
9.99477e-21
7.48223e-21
1.16759e-20
-8.43611e-21
8.98096e-21
1.16384e-20
4.52743e-21
2.27266e-20
-2.64435e-20
8.10406e-21
1.03493e-20
3.52584e-21
2.57568e-20
-3.45679e-20
5.84217e-21
1.00477e-20
-1.3466e-21
4.13681e-20
-6.79837e-20
1.67202e-21
7.81221e-21
-1.05087e-20
6.84283e-20
-1.23446e-19
)
;
    }
    axis
    {
        type            empty;
        value           nonuniform 0();
    }
    procBoundary3to2
    {
        type            processor;
        value           nonuniform List<scalar> 5(-3.42484e-06 -1.00942e-05 -1.61608e-05 -2.1209e-05 -2.48187e-05);
    }
    procBoundary3to7
    {
        type            processor;
        value           nonuniform List<scalar> 
50
(
-2.95828e-09
-2.77019e-09
-2.5127e-09
-2.2722e-09
-2.06137e-09
-1.87018e-09
-1.69553e-09
-1.53173e-09
-1.38114e-09
-1.2388e-09
-1.10843e-09
-9.8549e-10
-8.7399e-10
-7.68567e-10
-6.74237e-10
-5.85561e-10
-5.07861e-10
-4.34595e-10
-3.71914e-10
-3.13226e-10
-2.64605e-10
-2.18338e-10
-1.81219e-10
-1.45725e-10
-1.18665e-10
-9.16401e-11
-7.22348e-11
-5.24236e-11
-3.97168e-11
-2.50724e-11
-1.6954e-11
-6.40618e-12
-2.45322e-12
5.52361e-12
6.41084e-12
1.22708e-11
9.2227e-12
1.43827e-11
6.94152e-12
1.20499e-11
-3.61855e-12
2.4592e-12
-2.76615e-11
-2.24606e-11
-8.114e-11
-8.67244e-11
-1.98273e-10
-2.5802e-10
-4.69633e-10
-6.9321e-10
)
;
    }
}


// ************************************************************************* //
