/*--------------------------------*- C++ -*----------------------------------*\
| =========                 |                                                 |
| \\      /  F ield         | OpenFOAM: The Open Source CFD Toolbox           |
|  \\    /   O peration     | Version:                                        |
|   \\  /    A nd           | Website:  www.openfoam.com                      |
|    \\/     M anipulation  |                                                 |
\*---------------------------------------------------------------------------*/
FoamFile
{
    version     2.0;
    format      ascii;
    class       volVectorField;
    location    "140";
    object      U;
}
// * * * * * * * * * * * * * * * * * * * * * * * * * * * * * * * * * * * * * //

dimensions      [0 1 -1 0 0 0 0];


internalField   nonuniform List<vector> 
250
(
(1.96875 -4.24991e-05 9.83633e-16)
(1.96888 -3.75954e-05 1.64296e-15)
(1.96899 -3.30244e-05 1.04136e-15)
(1.96909 -2.99051e-05 1.66777e-15)
(1.96919 -2.73318e-05 1.11315e-15)
(1.96927 -2.4816e-05 7.03268e-16)
(1.96935 -2.23348e-05 5.62194e-16)
(1.96941 -1.9964e-05 7.17874e-16)
(1.96947 -1.77514e-05 1.13135e-15)
(1.96953 -1.57151e-05 9.59963e-16)
(1.96958 -1.38534e-05 9.65013e-16)
(1.96962 -1.21593e-05 9.55335e-16)
(1.96966 -1.06148e-05 1.08519e-15)
(1.96969 -9.21551e-06 8.07183e-16)
(1.96972 -7.95074e-06 7.2319e-16)
(1.96974 -6.81815e-06 3.0602e-16)
(1.96976 -5.80121e-06 9.2695e-16)
(1.96978 -4.89822e-06 6.04358e-16)
(1.96979 -4.10249e-06 9.4277e-16)
(1.96981 -3.40992e-06 7.30569e-16)
(1.96982 -2.80493e-06 1.00172e-15)
(1.96983 -2.28162e-06 8.27972e-16)
(1.96983 -1.83254e-06 6.39992e-16)
(1.96984 -1.45169e-06 3.75435e-16)
(1.96984 -1.12458e-06 7.07056e-16)
(1.96985 -8.44737e-07 3.02626e-16)
(1.96985 -6.14983e-07 6.03872e-16)
(1.96985 -4.25622e-07 5.58047e-16)
(1.96986 -2.75467e-07 6.39949e-16)
(1.96986 -1.4514e-07 4.41837e-16)
(1.96986 -5.55944e-08 4.1066e-16)
(1.96986 2.86924e-08 2.14982e-16)
(1.96986 6.99928e-08 5.09568e-16)
(1.96986 1.40935e-07 4.11915e-16)
(1.96986 1.33138e-07 6.39262e-16)
(1.96986 1.96783e-07 3.87054e-16)
(1.96986 1.20716e-07 5.02209e-16)
(1.96986 2.13905e-07 4.62911e-16)
(1.96986 3.11551e-08 3.33963e-16)
(1.96986 1.79093e-07 4.49933e-16)
(1.96986 -1.88811e-07 6.90195e-17)
(1.96987 4.42639e-08 2.65226e-16)
(1.96986 -6.43191e-07 2.90055e-16)
(1.96987 -4.3123e-07 4.11716e-16)
(1.96985 -1.59255e-06 2.78388e-16)
(1.96989 -1.85251e-06 2.23339e-16)
(1.96986 -3.50632e-06 3.43671e-16)
(1.96993 -5.40522e-06 3.12692e-16)
(1.96986 -5.96517e-06 2.31159e-16)
(1.96997 -8.76274e-06 6.91532e-17)
(1.9342 -0.000105253 2.08379e-15)
(1.93432 -9.54725e-05 2.41606e-15)
(1.93442 -8.42316e-05 1.70281e-15)
(1.93451 -7.54953e-05 2.18963e-15)
(1.9346 -6.83965e-05 1.96165e-15)
(1.93468 -6.1909e-05 2.23812e-15)
(1.93475 -5.57048e-05 1.28547e-15)
(1.93481 -4.98829e-05 1.84934e-15)
(1.93486 -4.44133e-05 1.60566e-15)
(1.93491 -3.93966e-05 1.70799e-15)
(1.93496 -3.47519e-05 1.39354e-15)
(1.935 -3.05427e-05 1.5494e-15)
(1.93503 -2.66577e-05 1.68512e-15)
(1.93506 -2.31775e-05 1.43233e-15)
(1.93509 -1.9986e-05 1.42903e-15)
(1.93511 -1.7168e-05 9.85958e-16)
(1.93513 -1.45866e-05 1.41122e-15)
(1.93515 -1.2352e-05 1.0533e-15)
(1.93516 -1.03259e-05 1.22194e-15)
(1.93518 -8.61333e-06 1.09123e-15)
(1.93519 -7.0546e-06 1.37891e-15)
(1.93519 -5.77319e-06 1.14324e-15)
(1.9352 -4.60982e-06 1.28814e-15)
(1.93521 -3.68163e-06 9.07136e-16)
(1.93521 -2.8168e-06 1.14104e-15)
(1.93522 -2.15328e-06 7.7367e-16)
(1.93522 -1.53939e-06 9.64041e-16)
(1.93522 -1.09605e-06 7.68218e-16)
(1.93522 -6.71517e-07 9.26801e-16)
(1.93522 -3.83679e-07 8.65328e-16)
(1.93523 -1.18161e-07 8.29567e-16)
(1.93523 5.90975e-08 6.43559e-16)
(1.93523 2.11732e-07 7.79327e-16)
(1.93523 3.42844e-07 6.81428e-16)
(1.93523 3.65947e-07 8.43291e-16)
(1.93523 4.83906e-07 7.14814e-16)
(1.93523 3.5053e-07 5.85807e-16)
(1.93523 5.31945e-07 7.55317e-16)
(1.93523 1.30968e-07 6.03738e-16)
(1.93523 4.56756e-07 5.90324e-16)
(1.93523 -3.96002e-07 4.13774e-16)
(1.93523 1.66621e-07 4.78e-16)
(1.93522 -1.52996e-06 4.71772e-16)
(1.93524 -8.40563e-07 4.81359e-16)
(1.93522 -3.96454e-06 4.29699e-16)
(1.93526 -3.87933e-06 4.11037e-16)
(1.93522 -9.3794e-06 4.64712e-16)
(1.9353 -1.25278e-05 4.08411e-16)
(1.93522 -2.06827e-05 3.99497e-16)
(1.93537 -3.07376e-05 3.13891e-16)
(1.85798 -0.000150536 2.13829e-15)
(1.85807 -0.000138898 2.2267e-15)
(1.85815 -0.000123413 1.96523e-15)
(1.85823 -0.000110202 1.97829e-15)
(1.8583 -9.93947e-05 1.79044e-15)
(1.85837 -8.97544e-05 1.83942e-15)
(1.85842 -8.08421e-05 1.60486e-15)
(1.85848 -7.24848e-05 1.74379e-15)
(1.85852 -6.47578e-05 1.63477e-15)
(1.85856 -5.75584e-05 1.8156e-15)
(1.8586 -5.09644e-05 1.43488e-15)
(1.85863 -4.48533e-05 1.57709e-15)
(1.85866 -3.93129e-05 1.50255e-15)
(1.85869 -3.42085e-05 1.29897e-15)
(1.85871 -2.96357e-05 1.36937e-15)
(1.85873 -2.54416e-05 1.19661e-15)
(1.85875 -2.17434e-05 1.2221e-15)
(1.85876 -1.83831e-05 1.14483e-15)
(1.85878 -1.5479e-05 1.21781e-15)
(1.85879 -1.2852e-05 1.10736e-15)
(1.8588 -1.06339e-05 1.10056e-15)
(1.8588 -8.6374e-06 1.11511e-15)
(1.85881 -6.99308e-06 1.07694e-15)
(1.85882 -5.49623e-06 9.8714e-16)
(1.85882 -4.30042e-06 9.76819e-16)
(1.85882 -3.20653e-06 9.62675e-16)
(1.85883 -2.3775e-06 8.77078e-16)
(1.85883 -1.5951e-06 7.80688e-16)
(1.85883 -1.05271e-06 7.3433e-16)
(1.85883 -5.12469e-07 7.38156e-16)
(1.85883 -1.98276e-07 7.93078e-16)
(1.85883 1.88088e-07 7.51106e-16)
(1.85883 3.31012e-07 7.25318e-16)
(1.85883 6.21441e-07 6.69881e-16)
(1.85884 5.86606e-07 6.50742e-16)
(1.85884 8.51793e-07 5.63891e-16)
(1.85884 5.98137e-07 5.7078e-16)
(1.85884 9.16019e-07 5.82245e-16)
(1.85884 3.06282e-07 4.82279e-16)
(1.85884 8.18241e-07 4.95162e-16)
(1.85883 -4.26813e-07 4.89943e-16)
(1.85884 4.17959e-07 4.29072e-16)
(1.85883 -2.06953e-06 4.31736e-16)
(1.85885 -8.53395e-07 4.24594e-16)
(1.85883 -5.67723e-06 4.07341e-16)
(1.85886 -4.79374e-06 3.51452e-16)
(1.85883 -1.4097e-05 3.62367e-16)
(1.85889 -1.71122e-05 3.61466e-16)
(1.85883 -3.39059e-05 3.62781e-16)
(1.85894 -5.18601e-05 3.43816e-16)
(1.74167 -0.000178182 2.08623e-15)
(1.74173 -0.000165469 2.25175e-15)
(1.74179 -0.000148241 2.09096e-15)
(1.74184 -0.00013284 2.13034e-15)
(1.74189 -0.000119878 1.85538e-15)
(1.74193 -0.00010837 1.98386e-15)
(1.74197 -9.77525e-05 1.69926e-15)
(1.74201 -8.78983e-05 1.70613e-15)
(1.74204 -7.87386e-05 1.61103e-15)
(1.74207 -7.02507e-05 1.60978e-15)
(1.7421 -6.23832e-05 1.4599e-15)
(1.74212 -5.51378e-05 1.4788e-15)
(1.74215 -4.84739e-05 1.56608e-15)
(1.74216 -4.23841e-05 1.38865e-15)
(1.74218 -3.68148e-05 1.36271e-15)
(1.7422 -3.17758e-05 1.20454e-15)
(1.74221 -2.72291e-05 1.23883e-15)
(1.74222 -2.3172e-05 1.09775e-15)
(1.74223 -1.95456e-05 1.18055e-15)
(1.74224 -1.6357e-05 1.05108e-15)
(1.74225 -1.35567e-05 1.04784e-15)
(1.74225 -1.11306e-05 9.70317e-16)
(1.74226 -9.00732e-06 1.03532e-15)
(1.74226 -7.18613e-06 7.74372e-16)
(1.74227 -5.62244e-06 8.44966e-16)
(1.74227 -4.30303e-06 6.68962e-16)
(1.74227 -3.17662e-06 7.41783e-16)
(1.74227 -2.23939e-06 7.1995e-16)
(1.74228 -1.47662e-06 6.69438e-16)
(1.74228 -8.46854e-07 6.24607e-16)
(1.74228 -3.49014e-07 6.80896e-16)
(1.74228 8.65967e-08 5.64016e-16)
(1.74228 3.62405e-07 6.14699e-16)
(1.74228 6.57108e-07 5.1806e-16)
(1.74228 7.38368e-07 5.53175e-16)
(1.74228 9.77924e-07 5.01917e-16)
(1.74228 8.07466e-07 4.54354e-16)
(1.74228 1.05706e-06 4.86759e-16)
(1.74228 5.30458e-07 4.09614e-16)
(1.74228 9.37339e-07 4.1431e-16)
(1.74228 -2.54037e-07 3.40199e-16)
(1.74228 4.24463e-07 3.60217e-16)
(1.74228 -2.03682e-06 3.23256e-16)
(1.74229 -1.05183e-06 3.03009e-16)
(1.74228 -5.9862e-06 2.88083e-16)
(1.74229 -5.49505e-06 2.76546e-16)
(1.74228 -1.52113e-05 3.10735e-16)
(1.74231 -1.90031e-05 3.09241e-16)
(1.74228 -3.75174e-05 2.64758e-16)
(1.74233 -5.73394e-05 2.052e-16)
(1.58517 -0.00018013 1.53245e-15)
(1.5852 -0.000168263 1.6532e-15)
(1.58523 -0.000152093 1.54423e-15)
(1.58525 -0.000137044 1.55125e-15)
(1.58528 -0.000124003 1.3749e-15)
(1.5853 -0.000112331 1.46354e-15)
(1.58532 -0.000101623 1.09562e-15)
(1.58534 -9.16885e-05 1.2785e-15)
(1.58536 -8.2477e-05 1.11045e-15)
(1.58537 -7.38881e-05 1.06237e-15)
(1.58539 -6.59276e-05 1.04068e-15)
(1.5854 -5.85378e-05 9.16442e-16)
(1.58541 -5.17379e-05 1.1658e-15)
(1.58542 -4.54498e-05 1.01901e-15)
(1.58543 -3.97053e-05 1.06747e-15)
(1.58544 -3.44505e-05 8.47552e-16)
(1.58545 -2.97207e-05 9.07085e-16)
(1.58546 -2.54301e-05 7.46421e-16)
(1.58546 -2.16158e-05 8.24088e-16)
(1.58547 -1.82097e-05 6.66975e-16)
(1.58547 -1.5242e-05 6.73466e-16)
(1.58548 -1.26046e-05 6.75489e-16)
(1.58548 -1.03284e-05 6.29816e-16)
(1.58548 -8.33145e-06 3.88153e-16)
(1.58549 -6.65108e-06 5.37554e-16)
(1.58549 -5.17346e-06 3.38413e-16)
(1.58549 -3.94907e-06 4.85542e-16)
(1.58549 -2.88948e-06 3.29771e-16)
(1.58549 -2.05785e-06 3.97897e-16)
(1.58549 -1.31648e-06 3.72721e-16)
(1.5855 -7.5759e-07 3.78375e-16)
(1.5855 -2.44583e-07 2.87512e-16)
(1.5855 7.09143e-08 3.12666e-16)
(1.5855 4.26617e-07 2.2578e-16)
(1.5855 5.53929e-07 2.40663e-16)
(1.5855 8.08903e-07 2.74631e-16)
(1.5855 6.94324e-07 1.6033e-16)
(1.5855 9.17519e-07 2.14884e-16)
(1.5855 5.10657e-07 2.56214e-16)
(1.5855 7.84762e-07 2.82865e-16)
(1.5855 -1.73737e-07 1.73885e-16)
(1.5855 2.22833e-07 1.95055e-16)
(1.5855 -1.7436e-06 1.54782e-16)
(1.5855 -1.27352e-06 1.41122e-16)
(1.5855 -5.23861e-06 1.58915e-16)
(1.5855 -5.38356e-06 1.46797e-16)
(1.5855 -1.31201e-05 1.71508e-16)
(1.5855 -1.69763e-05 1.73089e-16)
(1.5855 -3.2016e-05 1.50393e-16)
(1.58551 -4.81528e-05 1.16947e-16)
)
;

boundaryField
{
    inlet
    {
        type            fixedValue;
        value           nonuniform 0();
    }
    outlet
    {
        type            zeroGradient;
    }
    wall
    {
        type            noSlip;
    }
    back
    {
        type            wedge;
    }
    front
    {
        type            wedge;
    }
    axis
    {
        type            empty;
    }
    procBoundary3to2
    {
        type            processor;
        value           nonuniform List<vector> 5((1.96861 -4.54866e-05 1.48961e-15) (1.93407 -0.000111811 2.39893e-15) (1.85787 -0.000158928 2.4318e-15) (1.7416 -0.000188033 2.48754e-15) (1.58514 -0.00018975 1.78157e-15));
    }
    procBoundary3to7
    {
        type            processor;
        value           nonuniform List<vector> 
50
(
(1.38828 -0.000158013 1.42909e-15)
(1.38827 -0.000148299 1.49673e-15)
(1.38827 -0.000135644 1.32562e-15)
(1.38827 -0.000123351 1.36159e-15)
(1.38827 -0.000112218 1.17072e-15)
(1.38828 -0.000102026 1.22206e-15)
(1.38828 -9.26345e-05 1.0262e-15)
(1.38828 -8.3873e-05 1.04299e-15)
(1.38828 -7.5745e-05 9.45722e-16)
(1.38828 -6.81195e-05 9.3641e-16)
(1.38829 -6.1062e-05 9.62311e-16)
(1.38829 -5.44699e-05 8.53667e-16)
(1.38829 -4.84013e-05 9.49486e-16)
(1.38829 -4.27269e-05 8.39873e-16)
(1.38829 -3.75553e-05 8.54248e-16)
(1.3883 -3.27731e-05 6.38123e-16)
(1.3883 -2.84738e-05 7.25195e-16)
(1.3883 -2.4505e-05 6.05414e-16)
(1.3883 -2.10028e-05 6.77777e-16)
(1.3883 -1.78254e-05 5.73636e-16)
(1.38831 -1.5075e-05 6.075e-16)
(1.38831 -1.25612e-05 4.90177e-16)
(1.38831 -1.04293e-05 5.37647e-16)
(1.38831 -8.51163e-06 3.30642e-16)
(1.38831 -6.92644e-06 4.24197e-16)
(1.38831 -5.46772e-06 2.9215e-16)
(1.38831 -4.30419e-06 3.47205e-16)
(1.38831 -3.25567e-06 2.79821e-16)
(1.38831 -2.46199e-06 3.48662e-16)
(1.38831 -1.69277e-06 2.59164e-16)
(1.38831 -1.15008e-06 3.13195e-16)
(1.38832 -6.19995e-07 2.17542e-16)
(1.38832 -3.05716e-07 2.27679e-16)
(1.38832 8.28672e-08 1.72505e-16)
(1.38832 2.30132e-07 1.96329e-16)
(1.38832 4.79202e-07 1.72445e-16)
(1.38832 4.21114e-07 1.43469e-16)
(1.38832 6.1951e-07 1.42307e-16)
(1.38832 3.54048e-07 1.44321e-16)
(1.38832 4.99646e-07 1.68481e-16)
(1.38832 -1.44205e-07 8.8741e-17)
(1.38832 -1.32567e-08 1.092e-16)
(1.38832 -1.2918e-06 9.56976e-17)
(1.38832 -1.32975e-06 1.14998e-16)
(1.38832 -3.82307e-06 9.08404e-17)
(1.38832 -4.44485e-06 8.19906e-17)
(1.38832 -9.08056e-06 1.10813e-16)
(1.38831 -1.20054e-05 9.87422e-17)
(1.38831 -2.06219e-05 8.46079e-17)
(1.3883 -3.02191e-05 6.73917e-17)
)
;
    }
}


// ************************************************************************* //
