/*--------------------------------*- C++ -*----------------------------------*\
| =========                 |                                                 |
| \\      /  F ield         | OpenFOAM: The Open Source CFD Toolbox           |
|  \\    /   O peration     | Version:                                        |
|   \\  /    A nd           | Website:  www.openfoam.com                      |
|    \\/     M anipulation  |                                                 |
\*---------------------------------------------------------------------------*/
FoamFile
{
    version     2.0;
    format      ascii;
    class       volVectorField;
    location    "84.8";
    object      U;
}
// * * * * * * * * * * * * * * * * * * * * * * * * * * * * * * * * * * * * * //

dimensions      [0 1 -1 0 0 0 0];


internalField   nonuniform List<vector> 
1147
(
(0.0345063 0.0143373 2.12429e-20)
(0.061885 0.0353136 9.51339e-20)
(0.0697613 0.0459574 3.30903e-19)
(0.056326 0.0430245 -4.51259e-19)
(0.0286995 0.025317 1.62913e-19)
(0.0142077 0.00843333 7.4041e-20)
(-0.0204587 0.0194002 -4.97896e-20)
(-0.0218242 0.069904 3.01107e-19)
(0.0482798 0.08717 -5.73449e-20)
(0.203487 -0.00504063 -4.93538e-20)
(0.0399173 -0.0372954 1.25576e-19)
(0.078495 0.0203939 5.06787e-19)
(0.0760102 0.0572782 -1.83069e-19)
(0.0529939 0.0726192 -2.56211e-20)
(0.0363315 0.0694731 2.50635e-19)
(0.0745976 0.0723641 -4.19721e-19)
(0.214309 0.0653217 1.45952e-19)
(0.625962 -0.045719 -1.39454e-19)
(0.898433 -0.158551 6.29199e-20)
(1.0003 -0.219257 3.03792e-21)
(0.0299458 -0.139265 -4.04438e-20)
(0.0821913 -0.0448941 -3.77125e-19)
(0.0809047 0.0448172 7.14721e-20)
(0.0954608 0.0999256 -4.70025e-20)
(0.229075 0.0931965 -1.0161e-19)
(0.559593 0.00757588 1.50421e-19)
(0.913036 -0.0942057 -1.01462e-19)
(1.09351 -0.14136 -8.69191e-20)
(1.22251 -0.217007 4.06186e-21)
(1.26882 -0.277124 -9.38649e-21)
(0.0823127 -0.175052 6.62047e-20)
(0.137631 -0.0784696 1.61072e-19)
(0.186544 0.0434025 -4.94631e-20)
(0.345888 0.0899425 -3.74515e-21)
(0.684719 0.019919 6.85234e-20)
(1.03025 -0.0754012 1.38549e-19)
(1.20921 -0.135825 2.22602e-19)
(1.27233 -0.170269 -7.83345e-20)
(1.32639 -0.226855 -8.73146e-20)
(1.31674 -0.263751 -1.58946e-20)
(0.201728 -0.149875 5.18782e-19)
(0.289492 -0.0734145 -1.34283e-19)
(0.398563 0.0406213 5.35907e-20)
(0.671205 0.050803 1.99469e-20)
(1.05791 -0.042453 2.9748e-19)
(1.26024 -0.11085 -3.28635e-20)
(1.29205 -0.135102 -1.04099e-19)
(1.3298 -0.176008 2.06687e-19)
(1.33199 -0.216455 2.77204e-21)
(1.30345 -0.242344 3.60512e-20)
(0.381061 -0.0955439 -3.11482e-19)
(0.474397 -0.0489038 -1.33817e-19)
(0.635713 0.0341522 1.17966e-19)
(0.993774 0.00295965 -1.01628e-19)
(1.28441 -0.0825916 -4.3119e-20)
(1.31027 -0.110801 2.91676e-19)
(1.30382 -0.127026 -1.71873e-20)
(1.34267 -0.176605 -3.2007e-20)
(1.29529 -0.198504 -2.17376e-20)
(1.29523 -0.23021 1.52204e-20)
(0.540392 -0.0253217 2.82586e-20)
(0.658376 -0.010449 1.69496e-19)
(0.915659 0.021065 -1.40882e-19)
(1.25386 -0.0379011 2.13915e-19)
(1.3614 -0.0959086 -5.42257e-19)
(1.28009 -0.0947508 -1.98584e-19)
(1.32283 -0.126422 -3.81294e-20)
(1.31514 -0.168886 2.41501e-20)
(1.26778 -0.180265 5.49436e-21)
(1.28803 -0.223541 -7.06002e-21)
(0.707052 0.0485073 -4.52999e-20)
(0.90173 0.0223221 5.04768e-19)
(1.19029 0.00544569 -1.43321e-19)
(1.39254 -0.0601883 -2.1553e-20)
(1.3244 -0.0842641 2.39207e-19)
(1.27087 -0.0821199 1.13623e-19)
(1.33129 -0.13063 -1.16756e-19)
(1.26757 -0.151448 5.31367e-20)
(1.26687 -0.172909 -4.3495e-20)
(1.26091 -0.212536 1.32158e-20)
(0.921283 0.114003 5.20675e-19)
(1.16331 0.0508891 4.07922e-19)
(1.3717 0.00032822 -2.94897e-19)
(1.39015 -0.0516708 3.6636e-21)
(1.27355 -0.0599304 1.54153e-19)
(1.29237 -0.0823253 -6.30172e-20)
(1.30696 -0.124491 4.47507e-20)
(1.23765 -0.136652 1.74301e-20)
(1.26906 -0.169396 -6.38644e-20)
(1.22366 -0.19557 4.15361e-21)
(1.12998 0.174672 -3.84787e-19)
(1.33253 0.0831457 -6.50074e-19)
(1.39975 0.0235514 7.25662e-19)
(1.32386 -0.0211069 -1.37762e-19)
(1.25493 -0.0430716 -1.6557e-19)
(1.30581 -0.0795897 -3.36313e-20)
(1.26043 -0.111581 1.0665e-19)
(1.23503 -0.127927 -1.01979e-19)
(1.24918 -0.160572 -7.33745e-21)
(1.19914 -0.181288 -3.52661e-21)
(1.35997 0.126411 3.26299e-19)
(1.33604 0.0569346 -2.96374e-19)
(1.25402 0.00655687 9.76104e-20)
(1.26526 -0.0302881 9.19751e-20)
(1.27784 -0.0702808 -1.77827e-20)
(1.22641 -0.0977523 3.75316e-20)
(1.23548 -0.119227 2.75359e-20)
(1.21637 -0.151182 3.92198e-20)
(1.19294 -0.166991 1.56529e-20)
(1.30317 0.150324 -3.77737e-21)
(1.23541 0.0820798 1.25342e-19)
(1.22902 0.0236318 2.97004e-20)
(1.25258 -0.0216595 -1.73937e-19)
(1.23341 -0.0568333 -1.49606e-20)
(1.21325 -0.086078 -9.94349e-20)
(1.22172 -0.113378 -9.29944e-21)
(1.19343 -0.13768 -1.58088e-20)
(1.18842 -0.161032 -9.35599e-21)
(1.17391 0.089326 -1.26503e-19)
(1.21274 0.0260416 6.54579e-20)
(1.21695 -0.0155393 -1.80176e-19)
(1.20063 -0.0439848 -4.85654e-20)
(1.20631 -0.0841757 2.42256e-20)
(1.19824 -0.100967 -2.2616e-20)
(1.18375 -0.133411 2.84685e-20)
(1.17426 -0.14684 8.35756e-22)
(1.14384 0.0747926 1.87219e-19)
(1.1879 0.0200935 2.1623e-20)
(1.18258 -0.00965287 1.00999e-19)
(1.18339 -0.0470856 9.98924e-20)
(1.19191 -0.076069 4.81017e-20)
(1.17703 -0.096435 9.44307e-21)
(1.17333 -0.126199 -2.65246e-20)
(1.15611 -0.136936 5.16994e-21)
(1.17202 0.0145536 -4.26135e-20)
(1.14819 -0.019194 -4.39453e-20)
(1.17725 -0.0429617 -7.03728e-20)
(1.16613 -0.0758925 1.98582e-22)
(1.16274 -0.0910528 -1.15724e-21)
(1.16045 -0.117387 5.91983e-21)
(1.1396 -0.133024 4.31423e-21)
(1.12992 -0.00246589 4.53252e-20)
(1.13473 -0.0174943 7.68635e-20)
(1.15907 -0.0529753 -2.16941e-20)
(1.14361 -0.0664237 -7.02215e-21)
(1.15312 -0.0949183 5.56961e-20)
(1.14353 -0.108325 -2.54656e-20)
(1.13599 -0.129009 2.80831e-21)
(1.10222 -0.0106383 2.10003e-20)
(1.12219 -0.0234953 -1.50819e-20)
(1.14439 -0.0572112 2.06022e-20)
(1.12382 -0.0656995 2.98609e-20)
(1.15393 -0.0940325 1.36086e-20)
(1.11976 -0.105955 1.56687e-20)
(1.14306 -0.123688 2.42749e-21)
(1.11735 -0.0453247 -5.44232e-20)
(1.12819 -0.0503485 -2.48363e-22)
(1.11912 -0.076924 -5.93646e-20)
(1.14416 -0.0865787 7.61263e-21)
(1.11098 -0.105476 -1.60435e-20)
(1.13233 -0.119152 -4.18503e-21)
(1.12083 -0.0476725 -1.44925e-21)
(1.10655 -0.0521866 4.66761e-20)
(1.12155 -0.0739822 -8.31437e-21)
(1.12025 -0.086541 -1.54881e-21)
(1.11382 -0.0992072 -3.01826e-21)
(1.10684 -0.116189 -2.34573e-21)
(1.14088 -0.0478082 2.88791e-20)
(1.06483 -0.0665662 -9.02541e-20)
(1.13569 -0.0699444 2.91231e-21)
(1.08327 -0.0974323 -8.47917e-21)
(1.11825 -0.0964421 6.7843e-21)
(1.08286 -0.116728 -5.05023e-22)
(0.158745 0.928073 -2.87108e-20)
(0.168692 0.922316 -6.09727e-20)
(0.17384 0.819899 3.96017e-21)
(0.143144 0.657778 2.49068e-21)
(0.0917904 0.452725 1.46691e-19)
(0.0346911 0.252816 -3.47965e-20)
(-0.0106012 0.0734526 9.43273e-21)
(-0.0313497 -0.0369997 3.06818e-19)
(-0.00875169 -0.0387384 2.97008e-19)
(0.0106628 -0.0106295 -5.91576e-19)
(0.0801821 1.16029 3.53815e-20)
(0.0529435 1.09169 -6.28999e-20)
(0.0168077 0.990519 -1.26207e-19)
(-0.0405859 0.826441 4.57449e-20)
(-0.0964987 0.628281 -2.46932e-19)
(-0.12868 0.404474 -8.86052e-20)
(-0.119137 0.171918 -8.14424e-20)
(-0.0773123 -0.0178594 5.29211e-20)
(-0.0245445 -0.0860058 -1.45066e-19)
(-0.0131287 -0.0849876 1.96952e-19)
(0.106314 1.14952 2.56231e-20)
(0.0159759 1.09482 4.13546e-20)
(-0.0777123 1.01383 1.7504e-19)
(-0.180828 0.883372 -1.09677e-19)
(-0.265581 0.727188 3.38581e-19)
(-0.29346 0.520915 8.2184e-20)
(-0.247408 0.277335 2.73592e-19)
(-0.154384 0.0383617 2.36466e-20)
(-0.079051 -0.124079 8.74482e-20)
(-0.0437059 -0.171315 -3.1476e-20)
(-0.0282972 1.07542 -1.77839e-20)
(-0.155029 1.02589 -1.04772e-19)
(-0.289997 0.932995 3.3555e-20)
(-0.394029 0.812052 -7.64011e-20)
(-0.428072 0.642082 -3.30851e-19)
(-0.356425 0.409999 1.24975e-19)
(-0.22791 0.141013 -2.34918e-19)
(-0.119277 -0.0756131 -8.20927e-19)
(-0.0184719 -0.176353 -2.45692e-19)
(-0.535328 0.756405 5.60036e-19)
(-0.44524 0.554081 2.07559e-19)
(-0.279243 0.261724 -4.49868e-19)
(-0.105189 0.0315537 4.30735e-19)
(0.0706132 -0.115058 4.29881e-19)
(-0.476494 0.695823 -1.1265e-19)
(-0.251044 0.415105 -1.61896e-19)
(-0.00640409 0.163142 -5.64577e-19)
(0.217755 -0.0237083 -9.70216e-20)
(-0.217368 0.55444 1.01889e-19)
(0.100908 0.296722 7.97398e-20)
(0.367356 0.0803453 -2.04286e-20)
(0.217098 0.416785 2.83417e-19)
(0.506381 0.189179 1.86671e-19)
(0.682594 0.286774 -9.72824e-19)
(1.07703 -0.0969591 -1.83088e-22)
(1.07936 -0.0946175 1.66625e-21)
(1.0732 -0.0850526 -1.70237e-21)
(1.06156 -0.0860367 5.9342e-22)
(1.05156 -0.0767477 3.68236e-22)
(1.04596 -0.0709562 -1.11409e-22)
(1.04304 -0.0618848 -1.8883e-22)
(1.04092 -0.0551457 5.83171e-23)
(1.03925 -0.0492928 -4.40049e-23)
(1.0387 -0.0442118 1.75729e-22)
(1.0379 -0.0400349 -7.13798e-23)
(1.03802 -0.0363802 6.12766e-23)
(1.03831 -0.0327476 -3.21145e-22)
(1.03667 -0.02904 4.04142e-22)
(1.03286 -0.0253804 -2.48278e-22)
(1.02905 -0.0225148 1.89699e-22)
(1.02632 -0.0206012 -8.84165e-23)
(1.0247 -0.0191413 -4.90735e-23)
(1.02315 -0.0174298 -6.0814e-24)
(1.02164 -0.0153761 -1.55478e-23)
(1.02031 -0.0132605 -2.12173e-23)
(1.01919 -0.0112494 -1.10532e-22)
(1.01818 -0.00947967 2.22131e-23)
(1.0173 -0.00790321 -2.12943e-22)
(1.01649 -0.00643886 -5.77026e-23)
(1.01578 -0.0050822 1.30156e-22)
(1.01517 -0.00390096 -3.37103e-24)
(1.01469 -0.00254795 -1.28065e-23)
(1.01442 -0.0015079 1.09984e-22)
(1.01426 -0.000639549 -2.52867e-22)
(1.10373 -0.0950464 -1.28618e-20)
(1.07005 -0.100813 3.73963e-21)
(1.05517 -0.0842736 8.16785e-22)
(1.05969 -0.0783447 1.71652e-22)
(1.06661 -0.0713935 -1.6621e-22)
(1.06798 -0.0681963 -1.74578e-22)
(1.06565 -0.0643873 -2.39651e-22)
(1.06296 -0.0602939 5.33406e-23)
(1.05984 -0.0545515 -3.36358e-22)
(1.05416 -0.0479313 4.79412e-22)
(1.04848 -0.0415667 2.72854e-23)
(1.04406 -0.0368011 1.15903e-22)
(1.04107 -0.0333881 -1.89004e-22)
(1.03964 -0.0307638 4.86196e-22)
(1.03909 -0.028066 4.29222e-22)
(1.03748 -0.0245477 -7.00229e-22)
(1.03499 -0.0206149 -1.26293e-22)
(1.03211 -0.0170307 7.10602e-22)
(1.02955 -0.014298 -1.02326e-21)
(1.02723 -0.0123941 -1.8058e-23)
(1.02501 -0.0109361 6.10364e-22)
(1.02289 -0.00967087 3.83995e-22)
(1.02098 -0.00841691 -4.89729e-23)
(1.01939 -0.00716037 4.01076e-22)
(1.01804 -0.00592236 -2.73116e-23)
(1.01696 -0.00474697 -1.72728e-22)
(1.01608 -0.0037048 1.52657e-22)
(1.01542 -0.00245451 1.91874e-23)
(1.01503 -0.0014673 -2.67409e-22)
(1.01478 -0.000625719 1.98302e-22)
(1.07187 -0.0810631 1.39379e-20)
(1.08667 -0.0743734 -3.24836e-22)
(1.08458 -0.0693892 -4.7193e-21)
(1.06847 -0.0720885 1.1507e-21)
(1.05453 -0.0655578 -6.00579e-22)
(1.04783 -0.0602475 1.75549e-21)
(1.04496 -0.0531454 8.89821e-22)
(1.04411 -0.0480743 -5.83795e-23)
(1.04432 -0.0445613 -2.66728e-24)
(1.04406 -0.0410787 -1.03335e-21)
(1.04252 -0.0380308 1.2113e-21)
(1.04108 -0.0340976 -4.65747e-22)
(1.03968 -0.0298317 -6.67054e-22)
(1.03754 -0.0258904 1.43882e-21)
(1.03431 -0.0225913 -1.66927e-22)
(1.03103 -0.0200915 -1.11246e-22)
(1.02841 -0.0186215 -1.68435e-21)
(1.02639 -0.0174233 6.42373e-22)
(1.02427 -0.0159395 1.44947e-22)
(1.0224 -0.0141202 1.07451e-22)
(1.02096 -0.0122623 4.86298e-22)
(1.0198 -0.0104881 -5.68179e-23)
(1.0188 -0.00893512 -1.07253e-22)
(1.0179 -0.00752397 -1.10072e-21)
(1.01701 -0.00617791 9.89349e-22)
(1.01627 -0.00491228 -1.00429e-21)
(1.01563 -0.00379655 -1.05771e-22)
(1.01511 -0.00250493 -2.6818e-22)
(1.01479 -0.00149354 -7.22e-23)
(1.01456 -0.000631619 3.84967e-22)
(1.11627 -0.0725396 2.2288e-20)
(1.06684 -0.0837881 -1.2286e-20)
(1.04398 -0.0771551 -1.88546e-22)
(1.05177 -0.0752063 1.38421e-21)
(1.06456 -0.0716947 -1.53913e-21)
(1.06921 -0.0690659 1.23513e-21)
(1.06739 -0.0641632 -1.55382e-22)
(1.0641 -0.0583956 8.57264e-22)
(1.05965 -0.0502275 -1.38627e-21)
(1.05352 -0.0431167 -3.95582e-22)
(1.04954 -0.0375041 1.36842e-21)
(1.04609 -0.033032 -2.75849e-21)
(1.0425 -0.0294354 8.97322e-22)
(1.04126 -0.0275426 1.49305e-21)
(1.04036 -0.0255162 -1.70361e-21)
(1.03789 -0.022566 2.81414e-21)
(1.03508 -0.0191472 3.06511e-22)
(1.03242 -0.0160441 -5.6368e-23)
(1.03017 -0.0136338 -3.28928e-21)
(1.02805 -0.0119597 2.40324e-21)
(1.02587 -0.0105925 -4.06238e-22)
(1.02367 -0.00936992 -4.17059e-22)
(1.02175 -0.00816938 -8.67701e-22)
(1.0201 -0.00695805 1.26155e-21)
(1.01866 -0.00577515 4.63426e-22)
(1.01753 -0.00465944 -6.10608e-22)
(1.0166 -0.00365548 4.13816e-23)
(1.01588 -0.00244371 5.24703e-22)
(1.01543 -0.00146479 3.39235e-22)
(1.01513 -0.000619884 -1.31572e-22)
(1.06728 -0.0582048 2.54459e-20)
(1.09519 -0.0552411 2.04282e-20)
(1.09592 -0.0556979 -9.28128e-21)
(1.07789 -0.059521 -1.85966e-21)
(1.06271 -0.0561014 -1.38803e-21)
(1.05544 -0.0530252 9.32451e-22)
(1.05359 -0.0512729 3.03692e-22)
(1.05442 -0.0490768 5.72651e-22)
(1.05253 -0.0455492 -1.38451e-21)
(1.05047 -0.0419193 1.49821e-21)
(1.04878 -0.0392015 -1.43618e-21)
(1.04444 -0.0334351 1.8202e-22)
(1.04047 -0.0278442 2.15253e-22)
(1.03816 -0.0237587 9.12045e-22)
(1.0353 -0.0206073 -2.26307e-22)
(1.03253 -0.0183843 -7.92077e-22)
(1.03021 -0.0172445 -1.11914e-21)
(1.02768 -0.0160405 -2.59539e-23)
(1.02505 -0.014611 1.08112e-21)
(1.02293 -0.0129761 1.41735e-21)
(1.02139 -0.011352 -1.22292e-21)
(1.02017 -0.0098201 -6.85986e-22)
(1.01922 -0.00848315 6.11752e-22)
(1.01829 -0.0072041 -7.59065e-22)
(1.01741 -0.0059654 -6.64527e-22)
(1.01669 -0.004781 7.91746e-22)
(1.01602 -0.00371583 -5.83082e-22)
(1.01548 -0.002475 -3.19702e-22)
(1.01513 -0.00147893 1.17806e-22)
(1.01487 -0.000621591 -7.97026e-22)
(1.05646 -0.0348755 5.00933e-21)
(1.05107 -0.0300578 -2.45553e-21)
(1.04674 -0.0267739 6.36544e-21)
(1.04508 -0.0252618 -3.52874e-21)
(1.04206 -0.0229335 -4.53218e-23)
(1.03873 -0.0204468 -2.24922e-21)
(1.03574 -0.017702 2.79067e-21)
(1.03304 -0.0151753 -1.96365e-21)
(1.03098 -0.0131976 4.29184e-22)
(1.02887 -0.0117552 -1.13121e-21)
(1.02655 -0.0104282 1.29159e-21)
(1.02423 -0.00922954 1.44082e-21)
(1.02229 -0.00805726 6.88514e-22)
(1.02051 -0.00685392 8.69665e-22)
(1.01907 -0.00572029 -1.85197e-21)
(1.01794 -0.00463808 1.32401e-22)
(1.01696 -0.00364758 3.21882e-22)
(1.01624 -0.00245984 1.177e-21)
(1.01578 -0.00147207 -2.46047e-22)
(1.01547 -0.000616207 -2.30384e-22)
(0.969758 -0.146488 -2.84638e-20)
(0.983664 -0.137047 1.60181e-21)
(0.993043 -0.133278 -5.65155e-21)
(1.01279 -0.135114 8.55464e-23)
(1.02543 -0.131618 -3.88497e-21)
(1.03875 -0.132112 4.07195e-21)
(1.0541 -0.131836 1.32171e-20)
(1.06696 -0.127264 5.5043e-21)
(1.07258 -0.127455 -7.98812e-21)
(1.09505 -0.117563 4.68093e-22)
(0.962462 -0.154559 3.78335e-20)
(0.980124 -0.155972 2.54815e-20)
(0.991343 -0.152891 -3.01865e-21)
(1.01097 -0.15452 6.76764e-22)
(1.02835 -0.149981 -1.78485e-21)
(1.04304 -0.147693 1.86261e-20)
(1.05813 -0.144125 -4.41654e-21)
(1.0761 -0.13758 -2.14656e-21)
(1.08405 -0.132183 -2.41355e-21)
(1.10122 -0.121886 -2.42897e-22)
(0.953504 -0.157418 2.80525e-20)
(0.976797 -0.167209 -2.60987e-20)
(0.990865 -0.163814 -7.83109e-22)
(1.01333 -0.168429 -6.13982e-22)
(1.03255 -0.163806 -9.62888e-21)
(1.05063 -0.158682 -4.16268e-21)
(1.06758 -0.15595 -1.98841e-20)
(1.08018 -0.14491 -1.11075e-20)
(1.1021 -0.140273 -7.74724e-21)
(1.09844 -0.12771 1.28776e-21)
(0.944061 -0.164333 2.19838e-20)
(0.971436 -0.176058 -1.23212e-20)
(0.990618 -0.174203 1.28629e-20)
(1.01279 -0.176115 -3.52305e-21)
(1.03824 -0.176414 -5.72817e-21)
(1.05277 -0.16768 1.52196e-21)
(1.08168 -0.165116 2.15361e-20)
(1.08037 -0.155751 -1.3417e-21)
(1.11784 -0.146118 3.06052e-20)
(1.10121 -0.135879 2.89679e-21)
(0.938766 -0.177744 1.36748e-20)
(0.96444 -0.188587 -1.52863e-20)
(0.988964 -0.187232 -6.86337e-21)
(1.01026 -0.187183 6.88283e-21)
(1.04173 -0.186348 6.6174e-21)
(1.05324 -0.181497 1.48283e-20)
(1.08669 -0.171643 -4.21448e-21)
(1.09134 -0.167866 9.18219e-21)
(1.11523 -0.153326 -1.57481e-21)
(1.12268 -0.141992 -4.49165e-21)
(0.93521 -0.193138 1.06149e-20)
(0.9607 -0.204321 -3.38523e-22)
(0.988198 -0.203562 2.09273e-21)
(1.0077 -0.202404 -1.71721e-20)
(1.0418 -0.19862 5.95187e-21)
(1.06027 -0.195203 -9.81805e-21)
(1.08112 -0.184089 -3.9376e-21)
(1.10793 -0.175493 -1.21205e-20)
(1.11173 -0.165008 -2.30412e-21)
(1.13936 -0.149006 6.10596e-21)
(0.931846 -0.210993 -1.55128e-20)
(0.956177 -0.220667 1.7043e-20)
(0.989102 -0.221572 -4.35203e-21)
(1.01133 -0.220036 2.39964e-20)
(1.03741 -0.214757 2.1325e-20)
(1.07059 -0.209235 4.00688e-20)
(1.08193 -0.198878 1.43999e-22)
(1.11377 -0.188167 1.58313e-21)
(1.12438 -0.172174 -5.83154e-21)
(1.14478 -0.163152 5.93715e-21)
(0.926836 -0.229564 -4.34194e-20)
(0.955126 -0.240023 8.94125e-21)
(0.984829 -0.239386 -4.76569e-22)
(1.01957 -0.238838 -2.1574e-21)
(1.04 -0.23154 -3.87724e-20)
(1.0734 -0.226943 -1.99487e-20)
(1.09594 -0.211395 2.70637e-20)
(1.11539 -0.20481 -3.34278e-20)
(1.14058 -0.182165 2.95921e-20)
(1.15267 -0.173914 -6.98142e-21)
(0.918282 -0.25084 3.78831e-20)
(0.954947 -0.260179 -5.16457e-21)
(0.984716 -0.261774 -5.61327e-21)
(1.01812 -0.258132 -3.9548e-21)
(1.05146 -0.250796 -3.78485e-20)
(1.0747 -0.243636 8.69387e-21)
(1.10718 -0.230305 -4.76377e-20)
(1.12548 -0.215036 3.82614e-21)
(1.15023 -0.200445 -7.87747e-21)
(1.16489 -0.17997 -9.26108e-21)
(0.909345 -0.274256 -2.46054e-20)
(0.949779 -0.282425 -8.51029e-21)
(0.9888 -0.28335 -1.25067e-20)
(1.02006 -0.281587 -1.3847e-20)
(1.05482 -0.270549 7.14417e-20)
(1.08716 -0.261846 1.57687e-20)
(1.1102 -0.247292 1.28138e-20)
(1.14173 -0.231568 -6.13421e-21)
(1.15515 -0.210866 2.15412e-20)
(1.18483 -0.194962 8.60371e-21)
(0.904462 -0.301517 6.76434e-20)
(0.944263 -0.307801 6.88624e-22)
(0.986469 -0.308242 3.53598e-20)
(1.02668 -0.3037 -3.4328e-20)
(1.05817 -0.295074 1.80781e-20)
(1.09599 -0.279766 -4.69065e-20)
(1.12132 -0.267262 -1.05453e-20)
(1.15333 -0.245265 -5.03649e-21)
(1.16729 -0.228487 5.00567e-21)
(1.20431 -0.203814 -8.89895e-22)
(0.899024 -0.331952 -1.85661e-20)
(0.945211 -0.337126 3.36031e-21)
(0.988359 -0.336792 -1.94601e-20)
(1.02985 -0.329818 7.07087e-21)
(1.07165 -0.319882 9.25484e-21)
(1.10062 -0.302278 -9.83212e-21)
(1.14162 -0.287421 8.04977e-21)
(1.15964 -0.26251 1.54374e-20)
(1.19361 -0.245732 -8.69647e-21)
(1.21215 -0.215758 -2.28033e-20)
(0.894321 -0.366882 2.37763e-20)
(0.941082 -0.370397 5.92791e-22)
(0.996081 -0.369447 -8.03253e-22)
(1.03305 -0.360328 1.17581e-20)
(1.08651 -0.347679 3.99808e-20)
(1.11029 -0.328409 2.24375e-20)
(1.16206 -0.309138 3.39295e-20)
(1.16904 -0.281997 -1.84699e-20)
(1.22194 -0.263424 -3.25402e-20)
(1.21512 -0.226907 2.57967e-20)
(0.890387 -0.403227 8.30281e-21)
(0.940217 -0.407573 1.21447e-20)
(0.998715 -0.402197 -1.34703e-20)
(1.04491 -0.394534 -8.26927e-21)
(1.09394 -0.374273 -1.2905e-19)
(1.13152 -0.357661 -5.53215e-20)
(1.17213 -0.328629 -1.07016e-19)
(1.19494 -0.305014 4.11497e-20)
(1.23594 -0.275786 1.23176e-20)
(1.23546 -0.243739 -1.75831e-20)
(0.880116 -0.445063 -4.39056e-22)
(0.942824 -0.449814 6.08418e-21)
(0.999646 -0.44141 1.53701e-20)
(1.05923 -0.430931 -6.71582e-20)
(1.10232 -0.407303 -1.46616e-20)
(1.15497 -0.387234 5.9759e-20)
(1.18265 -0.353115 9.57331e-20)
(1.22656 -0.329225 -9.73693e-20)
(1.24336 -0.290512 4.38972e-20)
(1.27245 -0.265282 -6.45816e-22)
(0.877307 -0.495601 -9.98835e-21)
(0.944011 -0.49477 4.2704e-20)
(1.01241 -0.487766 6.91538e-21)
(1.07069 -0.467978 -8.13016e-21)
(1.12604 -0.445249 1.92588e-19)
(1.17362 -0.415205 -1.17013e-19)
(1.20978 -0.383406 -8.57673e-21)
(1.25115 -0.348624 5.73748e-20)
(1.26624 -0.312279 7.15779e-20)
(1.30461 -0.281332 7.88708e-21)
(0.874898 -0.55536 2.82214e-20)
(0.943947 -0.551935 -3.16845e-20)
(1.02582 -0.541669 -7.00969e-20)
(1.08465 -0.517225 1.05879e-19)
(1.15084 -0.486544 -5.84189e-20)
(1.19533 -0.449434 1.03743e-19)
(1.2415 -0.412023 2.00616e-19)
(1.27357 -0.372159 -5.41455e-20)
(1.29623 -0.335521 -7.27381e-20)
(1.31968 -0.298712 -2.08698e-20)
(0.872059 -0.616416 -8.43825e-20)
(0.951633 -0.613899 -4.00864e-20)
(1.03787 -0.600124 -5.49011e-21)
(1.10624 -0.576488 3.27438e-20)
(1.17325 -0.539521 -7.54593e-20)
(1.22367 -0.4987 1.01863e-19)
(1.26519 -0.445193 -1.35752e-19)
(1.29382 -0.405133 2.70747e-20)
(1.30216 -0.354574 -1.91814e-20)
(1.30687 -0.321975 -7.73793e-21)
(0.874813 -0.689151 7.03749e-20)
(0.971029 -0.67227 4.87526e-20)
(1.06544 -0.644727 7.72395e-21)
(1.13718 -0.599682 -3.67937e-20)
(1.20529 -0.551302 8.53847e-20)
(1.24034 -0.494336 -1.1335e-19)
(1.26763 -0.433483 -1.45315e-19)
(1.24741 -0.378599 -4.29283e-21)
(1.21571 -0.318029 5.94956e-21)
(1.13775 -0.286155 4.9504e-20)
(0.655066 -0.656913 5.64903e-20)
(0.737614 -0.636592 -2.42713e-19)
(0.80092 -0.60125 -2.79334e-20)
(0.848578 -0.543641 3.01968e-19)
(0.87471 -0.483803 -3.02949e-19)
(0.865305 -0.407832 1.20889e-19)
(0.844421 -0.345638 -8.11713e-20)
(0.749123 -0.263072 2.52713e-20)
(0.671569 -0.204324 5.12197e-20)
(0.424035 -0.135147 3.37214e-20)
(0.887298 -0.0869033 -8.50018e-20)
(0.90335 -0.105952 -7.24084e-20)
(0.92072 -0.115358 2.49258e-20)
(0.942326 -0.128849 3.47958e-21)
(0.870546 -0.0778398 -4.85611e-20)
(0.884447 -0.0911209 -1.89004e-20)
(0.90306 -0.111061 1.99639e-20)
(0.921207 -0.121177 6.0722e-20)
(0.940552 -0.12899 1.51941e-20)
(0.839182 -0.0427267 -5.1643e-20)
(0.84847 -0.0620157 1.84704e-20)
(0.862426 -0.0848164 4.00203e-20)
(0.877725 -0.0982127 1.3452e-19)
(0.897179 -0.118932 -2.00702e-20)
(0.91784 -0.133579 -8.24488e-20)
(0.932666 -0.136589 -1.11118e-20)
(0.816282 0.0287056 -4.51307e-21)
(0.815019 0.00266446 4.18854e-20)
(0.8183 -0.0208253 4.90093e-21)
(0.826347 -0.0472803 -5.46417e-21)
(0.836501 -0.0682412 1.00664e-20)
(0.85149 -0.0936521 -5.08036e-20)
(0.867552 -0.108041 -1.30877e-19)
(0.887252 -0.12801 1.22249e-19)
(0.91115 -0.147504 5.89268e-20)
(0.926634 -0.151714 -5.75645e-20)
(0.800027 0.0313545 -3.69748e-21)
(0.799082 0.00238569 1.00658e-20)
(0.802921 -0.0238103 -1.91435e-22)
(0.811457 -0.0526185 -1.3192e-20)
(0.822412 -0.0752005 6.54812e-20)
(0.838398 -0.103376 2.28085e-20)
(0.855511 -0.120352 7.33096e-21)
(0.873611 -0.138257 1.58575e-20)
(0.901465 -0.160879 3.90102e-20)
(0.920882 -0.169108 -1.63198e-20)
(0.781845 0.033987 7.15647e-21)
(0.781366 0.00183152 2.97206e-20)
(0.785711 -0.0270648 5.97433e-21)
(0.794829 -0.0585244 2.00092e-20)
(0.806544 -0.0827882 -1.02302e-19)
(0.82358 -0.11332 7.72972e-20)
(0.842844 -0.134451 -2.26624e-20)
(0.859339 -0.151184 -4.95986e-20)
(0.888504 -0.173179 -9.05999e-21)
(0.914616 -0.186543 -1.21631e-20)
(0.760969 0.0363685 -6.29689e-21)
(0.760901 0.000916307 2.9062e-20)
(0.765756 -0.0308621 -5.30661e-21)
(0.775562 -0.065344 -2.04896e-20)
(0.788253 -0.0917565 -6.40756e-21)
(0.806391 -0.123306 -7.40129e-20)
(0.829263 -0.14939 1.05369e-19)
(0.845674 -0.167157 -4.93415e-20)
(0.874489 -0.187499 -1.13484e-20)
(0.904253 -0.203604 3.89445e-20)
(0.73761 0.0386609 -5.4728e-22)
(0.737892 -0.000346002 -3.03241e-20)
(0.743266 -0.0351438 -1.07386e-19)
(0.75401 -0.0729404 9.86639e-21)
(0.767985 -0.102484 -4.41786e-20)
(0.786929 -0.134395 2.55918e-20)
(0.813889 -0.164302 -7.63521e-20)
(0.83276 -0.185618 7.64314e-20)
(0.861399 -0.204444 -1.16572e-20)
(0.89302 -0.222202 -3.46062e-20)
(0.710877 0.0409662 1.05126e-20)
(0.711455 -0.00200783 1.67822e-20)
(0.717505 -0.0400854 8.17697e-20)
(0.729495 -0.0812927 7.17025e-21)
(0.745134 -0.115272 -2.32252e-20)
(0.764839 -0.147743 8.39608e-21)
(0.795711 -0.179826 -6.54842e-20)
(0.819194 -0.205304 3.24924e-20)
(0.849501 -0.224635 -2.14062e-20)
(0.88101 -0.243082 5.44953e-20)
(0.681477 0.043345 -1.70398e-20)
(0.682319 -0.00404793 -3.76606e-20)
(0.689159 -0.0459108 -2.28608e-20)
(0.702815 -0.0903458 5.32091e-20)
(0.720846 -0.129393 5.22384e-20)
(0.741541 -0.163907 3.55151e-20)
(0.775252 -0.197059 -4.65401e-20)
(0.803583 -0.226251 -1.45752e-21)
(0.837893 -0.24672 -1.71318e-20)
(0.872562 -0.266427 -2.49412e-20)
(0.647977 0.0458246 1.78693e-20)
(0.649304 -0.00661011 7.83986e-21)
(0.657185 -0.0529444 3.16239e-20)
(0.672791 -0.100628 -8.58483e-20)
(0.693494 -0.144985 2.46336e-20)
(0.716129 -0.183104 -3.05333e-20)
(0.752822 -0.217263 -1.12493e-19)
(0.786585 -0.249482 -1.36568e-20)
(0.824374 -0.271849 -7.67976e-20)
(0.862953 -0.292509 -6.05899e-20)
(0.611448 0.048536 -3.55476e-20)
(0.613336 -0.00966295 6.10347e-20)
(0.622166 -0.0612853 4.16229e-20)
(0.640058 -0.112556 -3.4213e-20)
(0.664245 -0.161672 3.79536e-20)
(0.689355 -0.204694 5.10414e-20)
(0.728003 -0.240718 1.14465e-19)
(0.76708 -0.275491 9.78692e-20)
(0.811138 -0.299883 1.44364e-20)
(0.853949 -0.321804 7.37494e-20)
(0.569575 0.0508445 2.32107e-20)
(0.572186 -0.013447 2.11406e-20)
(0.582357 -0.0713522 -4.37023e-20)
(0.602576 -0.127056 2.13929e-20)
(0.630478 -0.180869 -1.39547e-19)
(0.659514 -0.229327 -1.56281e-20)
(0.700984 -0.267874 -3.15245e-20)
(0.744335 -0.305132 4.71665e-20)
(0.79316 -0.331758 -1.73099e-20)
(0.843411 -0.354583 -8.51534e-20)
(0.523231 0.0533124 -4.19961e-21)
(0.526948 -0.0180084 -4.90768e-20)
(0.538059 -0.0827459 -2.04786e-20)
(0.560867 -0.144257 1.02654e-19)
(0.593833 -0.202781 2.56009e-19)
(0.627804 -0.257209 -3.45048e-20)
(0.672259 -0.299357 -8.8557e-20)
(0.720232 -0.338467 -3.60746e-20)
(0.774418 -0.367232 -2.55604e-20)
(0.828446 -0.390086 6.47208e-21)
(0.469571 0.0554229 -1.50984e-20)
(0.474054 -0.023678 6.64486e-20)
(0.487164 -0.0965356 -2.74047e-20)
(0.511856 -0.164849 -3.75076e-20)
(0.549298 -0.229029 -2.6675e-19)
(0.590886 -0.290076 1.58752e-19)
(0.641748 -0.337187 9.65001e-20)
(0.69539 -0.379349 -7.89916e-20)
(0.755047 -0.409909 9.64757e-20)
(0.814452 -0.433624 2.74933e-20)
(0.409683 0.0565842 1.11129e-20)
(0.415142 -0.0306187 2.81695e-20)
(0.430686 -0.111654 5.2037e-21)
(0.457864 -0.188547 -8.31214e-20)
(0.500157 -0.258502 1.55225e-19)
(0.548201 -0.326081 -2.33214e-19)
(0.605468 -0.379511 5.1806e-20)
(0.669032 -0.424891 7.21391e-20)
(0.737919 -0.459281 -1.12615e-19)
(0.804113 -0.482494 -4.06153e-20)
(0.337254 0.0583263 1.45357e-20)
(0.344589 -0.0396976 7.66784e-21)
(0.366102 -0.131773 6.33612e-20)
(0.394746 -0.217687 -9.27579e-20)
(0.44061 -0.295246 1.82293e-19)
(0.498231 -0.368814 5.67644e-20)
(0.562786 -0.429763 6.99142e-20)
(0.631081 -0.478503 4.98233e-21)
(0.71525 -0.517222 4.68475e-20)
(0.786672 -0.540886 4.02587e-20)
(0.257549 0.0604028 -1.26837e-20)
(0.264805 -0.0508803 -4.34418e-20)
(0.293518 -0.153041 -1.56273e-19)
(0.32894 -0.252196 1.37908e-19)
(0.381374 -0.337902 -2.071e-19)
(0.442369 -0.416821 -5.09869e-20)
(0.523152 -0.484378 -6.28158e-20)
(0.595638 -0.536955 -2.44232e-20)
(0.693107 -0.577891 -3.69217e-20)
(0.774106 -0.602709 1.97599e-20)
(0.157334 0.061777 1.86026e-20)
(0.165149 -0.0654417 -5.49072e-21)
(0.201391 -0.181723 1.63343e-20)
(0.237498 -0.297587 5.74863e-20)
(0.306686 -0.399483 1.74467e-19)
(0.372745 -0.488873 -9.86227e-21)
(0.466569 -0.564811 1.62185e-20)
(0.557295 -0.621981 3.67717e-20)
(0.665018 -0.663628 -2.0198e-20)
(0.766684 -0.683034 1.39989e-20)
(0.0491118 0.047488 6.82608e-21)
(0.0579428 -0.0673647 -3.81634e-20)
(0.0874567 -0.177726 4.11747e-20)
(0.11959 -0.284091 9.49628e-21)
(0.177725 -0.381071 -2.18135e-20)
(0.238697 -0.468474 -1.31045e-19)
(0.313985 -0.541873 1.10561e-19)
(0.397772 -0.598889 -3.8245e-20)
(0.482051 -0.637049 4.66947e-21)
(0.57325 -0.655797 2.95629e-20)
(0.934274 -0.0941165 -1.47852e-21)
(0.902239 -0.104007 2.05743e-20)
(0.916458 -0.114777 -8.68692e-20)
(0.936911 -0.128453 -2.85349e-20)
(0.957594 -0.0906227 0)
(0.967866 -0.0976573 0)
(0.971016 -0.0944449 0)
(0.974923 -0.0891503 0)
(0.979408 -0.082891 0)
(0.984447 -0.078215 0)
(0.990363 -0.074593 0)
(0.996105 -0.0709465 0)
(1.00073 -0.067033 0)
(1.0049 -0.0629734 0)
(1.00887 -0.0589392 0)
(1.01221 -0.0545949 0)
(1.01352 -0.0494398 0)
(1.01312 -0.0437929 0)
(1.01248 -0.0382479 0)
(1.01285 -0.0336755 0)
(1.01414 -0.0297796 0)
(1.01553 -0.0264878 0)
(1.01642 -0.0234257 0)
(1.01663 -0.0205927 0)
(1.01638 -0.0178694 0)
(1.01592 -0.0153471 0)
(1.01535 -0.0130161 0)
(1.01472 -0.0108837 0)
(1.01406 -0.00892796 0)
(1.01337 -0.00711415 0)
(1.01278 -0.00531398 0)
(1.0124 -0.00324644 0)
(1.01142 -0.00171789 0)
(1.01122 -0.000664553 0)
(0.955278 -0.124264 0)
(0.968354 -0.101911 0)
(0.977308 -0.088933 0)
(0.981769 -0.0797107 0)
(0.98357 -0.0728532 0)
(0.985183 -0.0669044 0)
(0.987808 -0.0620674 0)
(0.991111 -0.0580463 0)
(0.995362 -0.0544465 0)
(0.999909 -0.0512532 0)
(1.0049 -0.0482938 0)
(1.00959 -0.0448578 0)
(1.01333 -0.0407551 0)
(1.01545 -0.0362001 0)
(1.01686 -0.0323577 0)
(1.01812 -0.0292926 0)
(1.01875 -0.0268159 0)
(1.01874 -0.0242617 0)
(1.01843 -0.0217112 0)
(1.01807 -0.0191659 0)
(1.01763 -0.0168079 0)
(1.01703 -0.0145603 0)
(1.01631 -0.0124432 0)
(1.01553 -0.0104555 0)
(1.01471 -0.00859895 0)
(1.0139 -0.00687208 0)
(1.0132 -0.00517157 0)
(1.01278 -0.00312252 0)
(1.01198 -0.00161953 0)
(1.0118 -0.000646642 0)
(0.976157 -0.123955 1.65681e-20)
(0.98091 -0.115595 -1.36263e-20)
(0.982095 -0.106839 1.35314e-20)
(0.984179 -0.0994479 -2.06944e-20)
(0.987071 -0.0925594 1.3847e-20)
(0.990451 -0.0871849 4.06953e-21)
(0.994525 -0.0824865 -6.66479e-21)
(0.99896 -0.0775632 -3.75703e-21)
(1.00234 -0.0719621 1.03828e-20)
(1.00607 -0.0663925 -9.12686e-21)
(1.0106 -0.0611567 8.67155e-21)
(1.01498 -0.0563383 -7.41257e-21)
(1.01722 -0.0511071 5.07036e-21)
(1.01698 -0.045507 7.58232e-22)
(1.01585 -0.0396374 -3.12565e-21)
(1.01556 -0.0346112 -3.65534e-21)
(1.01638 -0.0303201 2.38684e-21)
(1.01745 -0.0267668 -1.65139e-21)
(1.01804 -0.0234705 1.80077e-21)
(1.01804 -0.0204557 -3.17551e-21)
(1.01761 -0.0176057 2.34273e-21)
(1.01698 -0.0150171 -9.85932e-22)
(1.01624 -0.0126717 1.99725e-21)
(1.01543 -0.0105536 -1.75319e-21)
(1.01461 -0.00862604 1.1362e-21)
(1.01378 -0.00686287 -1.23547e-22)
(1.01306 -0.00515597 -7.56053e-22)
(1.01267 -0.00308619 2.83868e-22)
(1.01216 -0.00159209 -3.90889e-23)
(1.01204 -0.000649384 4.31556e-22)
(0.988982 -0.10861 -9.50132e-21)
(0.991298 -0.0998341 -6.73175e-21)
(0.992492 -0.0885626 1.2963e-20)
(0.99421 -0.0814572 -1.74575e-20)
(0.994018 -0.0757244 1.68064e-21)
(0.994615 -0.070398 5.74203e-21)
(0.9975 -0.0651361 -4.34636e-21)
(1.00043 -0.0602769 9.30742e-22)
(1.00381 -0.0559379 -5.35335e-21)
(1.00782 -0.0521562 1.95541e-21)
(1.01214 -0.0488778 7.9852e-21)
(1.01581 -0.0450907 -1.17235e-20)
(1.01849 -0.0408824 6.4757e-21)
(1.02002 -0.0361252 1.34146e-21)
(1.02126 -0.032029 -6.85039e-21)
(1.02234 -0.0285808 8.07422e-21)
(1.02252 -0.0257498 -4.38815e-21)
(1.02175 -0.0229677 -2.4681e-21)