/*--------------------------------*- C++ -*----------------------------------*\
| =========                 |                                                 |
| \\      /  F ield         | OpenFOAM: The Open Source CFD Toolbox           |
|  \\    /   O peration     | Version:                                        |
|   \\  /    A nd           | Website:  www.openfoam.com                      |
|    \\/     M anipulation  |                                                 |
\*---------------------------------------------------------------------------*/
FoamFile
{
    version     2.0;
    format      ascii;
    class       volScalarField;
    location    "119.7";
    object      p;
}
// * * * * * * * * * * * * * * * * * * * * * * * * * * * * * * * * * * * * * //

dimensions      [0 2 -2 0 0 0 0];


internalField   nonuniform List<scalar> 
1164
(
-0.661361
-0.518844
-0.384349
-0.260826
-0.161689
-0.122535
-0.549788
-0.444849
-0.346275
-0.259291
-0.183349
-0.120477
-0.0706294
-0.0396115
-0.0187761
-0.000667425
-0.424875
-0.356294
-0.284148
-0.211979
-0.146738
-0.0956018
-0.0570403
-0.031504
-0.0177542
-0.0135393
-0.337001
-0.306925
-0.268766
-0.218849
-0.159142
-0.0999404
-0.0535153
-0.0217367
-0.00141415
0.00725872
-0.306054
-0.303457
-0.28762
-0.256233
-0.211994
-0.162549
-0.115241
-0.0675761
-0.0325219
-0.0103173
-0.344078
-0.363852
-0.370047
-0.349842
-0.308294
-0.25532
-0.191568
-0.133297
-0.0797666
-0.0389939
-0.430877
-0.497252
-0.54389
-0.557643
-0.542863
-0.485033
-0.398978
-0.302253
-0.211553
-0.13951
-0.515359
-0.593248
-0.649405
-0.681777
-0.678604
-0.63674
-0.565898
-0.462525
-0.365293
-0.262929
-0.517172
-0.597206
-0.654462
-0.690785
-0.687184
-0.665074
-0.618673
-0.529247
-0.44857
-0.344516
-0.414691
-0.466634
-0.509925
-0.542627
-0.554013
-0.549869
-0.518184
-0.466831
-0.416824
-0.336715
-0.308559
-0.327463
-0.339914
-0.34832
-0.349624
-0.346282
-0.334109
-0.315003
-0.294859
-0.255072
-0.285373
-0.287288
-0.281722
-0.272326
-0.25882
-0.244604
-0.230352
-0.213168
-0.198468
-0.181164
-0.243175
-0.226591
-0.210741
-0.19789
-0.185956
-0.171895
-0.159703
-0.145938
-0.135719
-0.122248
-0.252424
-0.223564
-0.194673
-0.167136
-0.14316
-0.122687
-0.109132
-0.100661
-0.0978547
-0.0888662
-0.261576
-0.22954
-0.198098
-0.167728
-0.139942
-0.114448
-0.0932444
-0.0770548
-0.0707121
-0.0658306
-0.261533
-0.231155
-0.199935
-0.167631
-0.1358
-0.102577
-0.0750962
-0.0512992
-0.0361439
-0.0271233
-0.226261
-0.211985
-0.196314
-0.181353
-0.166351
-0.150945
-0.135027
-0.117868
-0.0987242
-0.0796244
-0.210145
-0.206042
-0.200772
-0.194327
-0.186547
-0.177544
-0.166744
-0.154247
-0.139396
-0.125594
-0.209267
-0.212401
-0.214051
-0.214806
-0.2156
-0.214976
-0.212264
-0.206265
-0.196053
-0.183444
-0.212139
-0.221375
-0.229424
-0.234911
-0.256132
-0.26006
-0.265467
-0.259887
-0.251742
-0.232792
-0.221654
-0.22721
-0.231854
-0.235118
-0.238453
-0.24006
-0.239692
-0.235465
-0.22799
-0.212854
-0.20981
-0.210387
-0.209266
-0.206203
-0.202147
-0.197885
-0.1928
-0.184497
-0.172328
-0.157022
-0.189562
-0.190273
-0.189534
-0.186972
-0.183343
-0.17914
-0.175492
-0.170719
-0.162493
-0.151193
-0.166223
-0.168528
-0.170797
-0.17317
-0.17507
-0.176155
-0.175459
-0.173072
-0.16866
-0.161931
-0.180623
-0.18003
-0.17893
-0.177626
-0.175948
-0.173706
-0.17081
-0.166377
-0.160493
-0.153503
-0.16639
-0.166665
-0.166053
-0.164636
-0.162323
-0.159428
-0.155408
-0.149952
-0.142654
-0.133248
-0.146622
-0.141049
-0.135566
-0.130113
-0.124319
-0.117933
-0.110073
-0.101216
-0.0917216
-0.0817109
-0.10392
-0.0911439
-0.080344
-0.0714248
-0.063637
-0.0563353
-0.0493503
-0.0428759
-0.036844
-0.0319563
-0.0784749
-0.0763804
-0.0740233
-0.0712909
-0.067896
-0.0636803
-0.0586226
-0.0526561
-0.0461201
-0.0397447
-0.0138315
-0.0168999
-0.0196129
-0.0219599
-0.0238301
-0.0251354
-0.0258298
-0.0258551
-0.0251442
-0.0238495
0.023442
0.0261696
0.0350108
0.0397793
0.0418676
0.040817
0.039612
0.0370297
0.0360568
0.0349058
0.033753
0.0326667
0.0317169
0.0308266
0.0300901
0.0294442
0.0289214
0.0285149
0.0282065
0.0279634
0.0277938
0.0276623
0.0275691
0.0275058
0.027455
0.0274302
0.0273907
0.0273876
-0.00676808
-0.00555609
-0.00598614
-0.00204854
0.0107602
0.0215628
0.0289379
0.0326523
0.0341124
0.0345559
0.0343528
0.0338379
0.0329658
0.0320848
0.0312217
0.0305694
0.03002
0.0295368
0.0291177
0.0287685
0.0284715
0.0282415
0.0280611
0.0279092
0.0277952
0.0276973
0.0276141
0.0275591
0.0274988
0.0274821
0.0126264
0.0125259
0.0110965
0.0110602
0.0156857
0.0200669
0.0234263
0.0258587
0.0287557
0.0304367
0.0314652
0.0316699
0.0316038
0.0311069
0.0306376
0.0301971
0.0297787
0.0294191
0.0291401
0.0288811
0.0286629
0.0284586
0.0282734
0.0281107
0.0279741
0.0278539
0.0277485
0.0276724
0.0275999
0.0275728
0.0103347
0.01641
0.0213635
0.0271135
0.0348809
0.0333171
0.0310774
0.0302622
0.0306845
0.0310631
0.031317
0.031001
0.0305567
0.0299896
0.0297642
0.0296052
0.0294632
0.0293478
0.0291801
0.0290214
0.0288558
0.0286867
0.0285242
0.0283569
0.0281998
0.0280462
0.027907
0.0277994
0.0277037
0.0276616
-0.00543227
0.0151016
0.0226555
0.0300482
0.0378965
0.0338919
0.0318365
0.0321844
0.0323609
0.0322674
0.0315691
0.0312816
0.0302201
0.0299766
0.0298009
0.02965
0.0296229
0.0296119
0.0295733
0.0294984
0.0293492
0.0291658
0.0289553
0.0287351
0.0285147
0.0283014
0.0281076
0.027949
0.0278159
0.0277524
-0.0788032
-0.0389283
-0.0260297
-0.00709806
0.0166861
0.0261423
0.0279196
0.0286146
0.0286626
0.0284477
0.0283264
0.0283889
0.0283816
0.0286415
0.0290072
0.0293513
0.0296591
0.0297972
0.0298749
0.0298432
0.0297527
0.0295874
0.0293734
0.0291106
0.0288387
0.0285648
0.0283101
0.0280978
0.0279256
0.0278397
-0.181591
-0.131202
-0.0896213
-0.045631
-0.0132278
0.00481373
0.0129114
0.0177087
0.0195197
0.0216153
0.0232259
0.0249427
0.0261161
0.0273315
0.0280902
0.0288998
0.0294724
0.0299142
0.0301479
0.0302
0.0301101
0.0299193
0.0296637
0.0293705
0.029065
0.0287522
0.0284601
0.0282136
0.0280163
0.027915
-0.266317
-0.206244
-0.145911
-0.0947001
-0.0555656
-0.0301424
-0.0117815
-0.00110069
0.00822069
0.0130385
0.0176655
0.0202135
0.0232312
0.0252709
0.0270938
0.0284076
0.0292964
0.029888
0.0302115
0.0303543
0.0303411
0.0301781
0.0299306
0.0296072
0.0292626
0.0289107
0.0285787
0.0283012
0.0280811
0.0279656
-0.278226
-0.217605
-0.160792
-0.111814
-0.0765651
-0.0514814
-0.0306567
-0.0154403
-0.00275553
0.00712152
0.0131578
0.017854
0.021622
0.024309
0.0265973
0.0283367
0.0296144
0.0304279
0.0308161
0.0309229
0.0308163
0.0305987
0.030287
0.0299165
0.0295174
0.0291043
0.0287188
0.0283926
0.028135
0.0279985
-0.208073
-0.165995
-0.12702
-0.0911774
-0.0630216
-0.0414601
-0.0257223
-0.0132168
-0.00402106
0.00526319
0.0118995
0.0179814
0.0224106
0.0257059
0.0281123
0.0296888
0.0307916
0.0314147
0.0317533
0.0317852
0.0316355
0.0313052
0.0308731
0.0303784
0.0298593
0.0293511
0.0288802
0.028483
0.0281752
0.0280103
-0.152785
-0.127159
-0.105356
-0.0819073
-0.063456
-0.0441026
-0.0279638
-0.0143145
-0.00219874
0.00718376
0.013832
0.0196396
0.023762
0.0270319
0.0295002
0.0312139
0.0322173
0.0326875
0.0327307
0.0325756
0.0322528
0.0318251
0.031311
0.0307319
0.0301375
0.0295458
0.0289986
0.0285385
0.0281848
0.0279946
-0.10495
-0.0918164
-0.0798916
-0.0666146
-0.0557307
-0.0392321
-0.0260792
-0.0109654
0.000358236
0.0116834
0.0201091
0.026702
0.0302034
0.0324859
0.0335798
0.0340547
0.0343468
0.0342918
0.0340815
0.0336629
0.033093
0.0324359
0.0317281
0.0310165
0.0303106
0.0296401
0.0290322
0.0285218
0.0281362
0.0279267
-0.0769241
-0.067322
-0.0568642
-0.0483267
-0.0351558
-0.02066
-0.00820461
0.004824
0.0125809
0.0228869
0.029359
0.0342459
0.0365218
0.0378895
0.0378852
0.0375095
0.036784
0.0359905
0.03523
0.0344932
0.0337497
0.0329639
0.0321576
0.0313198
0.0305025
0.0297317
0.0290356
0.0284604
0.0280294
0.0277943
-0.0517993
-0.0422769
-0.0378851
-0.038706
-0.0382667
-0.032947
-0.0169367
0.00676269
0.0299303
0.0448842
0.0500524
0.0497949
0.0476889
0.0453348
0.0431333
0.0414445
0.0400031
0.0386364
0.0373212
0.0360788
0.0348828
0.0337711
0.0326987
0.031685
0.0307241
0.029825
0.0290281
0.028367
0.0278751
0.027607
-0.0123195
-0.0076804
-0.009797
-0.0192628
-0.0290704
-0.0299897
-0.0152593
0.014896
0.0454397
0.0569199
0.0599675
0.0582797
0.0554935
0.0512538
0.047698
0.0446115
0.0422162
0.0402435
0.0386608
0.0372023
0.0358579
0.034528
0.0332542
0.0320357
0.0308912
0.0298561
0.0289446
0.0281958
0.027645
0.0273442
-0.0584937
-0.0453756
-0.0410195
-0.0427151
-0.0425455
-0.0342911
-0.0139542
0.0196305
0.050173
0.0646165
0.0648387
0.061985
0.0571375
0.0532647
0.049427
0.0466518
0.0438047
0.041589
0.0395282
0.0378205
0.0362211
0.0347737
0.033393
0.0320702
0.0308393
0.0297048
0.0287123
0.0279013
0.0273056
0.0269811
-0.108054
-0.0932476
-0.0832117
-0.0727108
-0.057063
-0.0386153
-0.0185836
0.00294421
0.0218543
0.0363528
0.043212
0.0468851
0.0477614
0.047527
0.0466495
0.045522
0.0440565
0.0423751
0.0406005
0.0387662
0.0369794
0.0352554
0.0336168
0.0321054
0.0307015
0.0294442
0.0283596
0.0274764
0.0268335
0.0264835
-0.167771
-0.150711
-0.132705
-0.11101
-0.0870254
-0.0638315
-0.0408227
-0.0192488
-5.6052e-05
0.0135607
0.0257585
0.0320732
0.0377149
0.0400352
0.0417345
0.0421299
0.0416883
0.0408999
0.0398509
0.0385327
0.0370141
0.0353667
0.0337092
0.0320615
0.0305212
0.0291323
0.0279226
0.0269479
0.0262377
0.0258532
-0.220598
-0.204091
-0.177381
-0.146612
-0.11451
-0.0805246
-0.0496995
-0.0220446
0.0015229
0.0175892
0.0299982
0.036463
0.0414765
0.0438923
0.0450694
0.0447717
0.0439623
0.0425685
0.0409268
0.0391454
0.0372453
0.0353746
0.0335034
0.0317291
0.0300827
0.0285837
0.0272945
0.0262532
0.0254946
0.0250859
-0.194816
-0.175289
-0.151164
-0.123624
-0.095282
-0.0651396
-0.0357541
-0.0112
0.00872114
0.0259309
0.0342424
0.0436948
0.0443886
0.0477804
0.0474595
0.0466471
0.0454584
0.0437484
0.0418345
0.0396887
0.0375014
0.0352742
0.0331501
0.0311784
0.0293594
0.0277614
0.0263979
0.0253067
0.0245197
0.0240966
-0.141443
-0.124509
-0.105325
-0.0830865
-0.0601258
-0.0382059
-0.0146485
0.0053646
0.0209951
0.0359575
0.0424981
0.0496141
0.050311
0.051331
0.0498793
0.0485787
0.0464808
0.044257
0.0418638
0.0394953
0.0370677
0.0347268
0.0324921
0.0303668
0.0284491
0.0267503
0.0253029
0.0241547
0.0233283
0.0228859
-0.139244
-0.126371
-0.110823
-0.0934297
-0.0730214
-0.0506231
-0.0255443
0.00346224
0.0294385
0.0525645
0.0662069
0.0675518
0.0655904
0.0612439
0.0572085
0.0531418
0.0493843
0.045878
0.0426825
0.0395941
0.0367115
0.0340425
0.0315197
0.029254
0.0272205
0.0254379
0.0239432
0.022758
0.0219111
0.0214578
-0.154764
-0.147115
-0.137128
-0.124397
-0.108575
-0.0883088
-0.0642462
-0.0368148
-0.00691186
0.0182219
0.0418056
0.0513914
0.0558815
0.0552557
0.0527574
0.0499371
0.0468426
0.0439342
0.0409256
0.0379733
0.0351772
0.0324049
0.0298659
0.0275486
0.0254668
0.0236806
0.0221818
0.0210071
0.020172
0.0197268
-0.144361
-0.133248
-0.119196
-0.102053
-0.0820933
-0.059996
-0.0366078
-0.0147379
0.00446732
0.0189408
0.0305284
0.0386114
0.0443481
0.0469645
0.0476926
0.0465651
0.044658
0.0420102
0.0390198
0.0361096
0.0330969
0.0302949
0.0277309
0.0253678
0.0233146
0.0215398
0.0200674
0.0189228
0.0181107
0.0176808
-0.122616
-0.111114
-0.0959724
-0.0772763
-0.0564905
-0.0341143
-0.0111268
0.00960599
0.0263265
0.0372592
0.043564
0.0453613
0.0476107
0.048209
0.0468922
0.0449313
0.0428667
0.0398311
0.036835
0.0335843
0.0304474
0.0276212
0.024985
0.0226783
0.0206726
0.0189613
0.0175673
0.0164838
0.0157235
0.015321
-0.0717902
-0.0594005
-0.042847
-0.0254119
-0.0085607
0.00752987
0.0218276
0.0340946
0.0430669
0.0476442
0.0498939
0.0463746
0.0407836
0.0564747
0.0381828
0.0394403
0.0363321
0.0342413
0.0316342
0.0288136
0.0261658
0.023556
0.0211911
0.0191164
0.0173006
0.0157889
0.0145519
0.013601
0.0129367
0.0125861
-0.0296393
-0.027154
-0.0230672
-0.0168555
-0.00780828
0.00384726
0.0170387
0.0309986
0.0454134
0.0596317
0.0651723
0.0695556
0.0686294
0.0641813
0.0559289
0.0477403
0.0405254
0.0347942
0.0296252
0.0256115
0.0221701
0.0192957
0.0169591
0.0149971
0.0133985
0.0121036
0.0110685
0.0102909
0.00975051
0.0094691
-0.0334851
-0.0265876
-0.0188586
-0.0102391
-0.000470963
0.0106957
0.0231293
0.0354851
0.0466537
0.0568201
0.0587661
0.0566169
0.0575992
0.0490065
0.0442363
0.0391568
0.0340395
0.028908
0.023999
0.0198698
0.0164074
0.0137412
0.0116602
0.0100413
0.00879653
0.00782359
0.00708025
0.00653347
0.0061605
0.00596891
-0.0224895
-0.0209512
-0.0189365
-0.016471
-0.0134412
-0.00956519
-0.00500908
0.000398728
0.00579459
0.0118982
0.0162563
0.0171686
0.01809
0.0154183
0.0139404
0.0124893
0.0112547
0.00993326
0.00857514
0.00725558
0.00605433
0.005059
0.00423826
0.00360503
0.00311698
0.00274328
0.00246317
0.00226014
0.00212319
0.0020538
)
;

boundaryField
{
    outlet
    {
        type            fixedValue;
        value           uniform 0;
    }
    upperWall
    {
        type            symmetryPlane;
    }
    lowerWall
    {
        type            symmetryPlane;
    }
    inlet
    {
        type            zeroGradient;
    }
    cylinder
    {
        type            zeroGradient;
    }
    frontAndBack
    {
        type            empty;
    }
    procBoundary3to2
    {
        type            processor;
        value           nonuniform List<scalar> 
43
(
-0.648522
-0.511495
-0.382908
-0.273151
-0.183375
-0.115385
-0.0691596
-0.0691596
-0.0306036
-0.00419566
0.0138554
0.013821
0.0423698
0.042375
0.0445755
0.0417597
0.0427154
0.0416528
0.0405594
0.0388678
0.0372911
0.0358172
0.0343458
0.0329313
0.0317097
0.0306251
0.0297258
0.0290214
0.0284484
0.0280198
0.0277007
0.027484
0.027352
0.0272861
0.0272581
0.0272522
0.0272609
0.0272827
0.0272768
0.0272931
0.013821
0.0196107
0.0196107
)
;
    }
    procBoundary3to7
    {
        type            processor;
        value           nonuniform List<scalar> 
30
(
-0.792011
-0.64907
-0.488065
-0.360418
-0.298168
-0.31063
-0.358011
-0.431829
-0.425765
-0.356297
-0.285631
-0.279348
-0.262073
-0.282898
-0.292608
-0.291143
-0.240936
-0.213555
-0.204124
-0.201198
-0.214415
-0.207496
-0.186949
-0.163632
-0.180656
-0.165225
-0.152499
-0.118314
-0.0803514
-0.0104862
)
;
    }
}


// ************************************************************************* //
