/*--------------------------------*- C++ -*----------------------------------*\
| =========                 |                                                 |
| \\      /  F ield         | OpenFOAM: The Open Source CFD Toolbox           |
|  \\    /   O peration     | Version:                                        |
|   \\  /    A nd           | Website:  www.openfoam.com                      |
|    \\/     M anipulation  |                                                 |
\*---------------------------------------------------------------------------*/
FoamFile
{
    version     2.0;
    format      ascii;
    class       volScalarField;
    location    "563";
    object      p;
}
// * * * * * * * * * * * * * * * * * * * * * * * * * * * * * * * * * * * * * //

dimensions      [0 2 -2 0 0 0 0];


internalField   nonuniform List<scalar> 
1250
(
0.197654
0.196003
0.194352
0.192704
0.191056
0.189409
0.187764
0.18612
0.184477
0.182835
0.181195
0.179555
0.177917
0.17628
0.174644
0.17301
0.171376
0.169744
0.168112
0.166482
0.164853
0.163225
0.161599
0.159973
0.158348
0.156725
0.155103
0.153481
0.151861
0.150242
0.148624
0.147007
0.145391
0.143777
0.142163
0.14055
0.138939
0.137328
0.135719
0.13411
0.132503
0.130897
0.129291
0.127687
0.126084
0.124481
0.12288
0.12128
0.11968
0.118082
0.116485
0.114889
0.113293
0.111699
0.110106
0.108513
0.106922
0.105331
0.103742
0.102153
0.100566
0.0989792
0.0973936
0.0958089
0.0942251
0.0926422
0.0910603
0.0894793
0.0878993
0.0863201
0.0847419
0.0831646
0.0815882
0.0800127
0.0784381
0.0768645
0.0752917
0.0737198
0.0721488
0.0705787
0.0690095
0.0674412
0.0658738
0.0643073
0.0627416
0.0611768
0.0596129
0.0580499
0.0564878
0.0549264
0.0533661
0.0518065
0.0502478
0.04869
0.047133
0.0455768
0.0440217
0.0424671
0.0409137
0.0393607
0.037809
0.0362576
0.0347076
0.0331577
0.0316095
0.0300609
0.0285146
0.0269671
0.0254228
0.0238762
0.0223341
0.020788
0.0192485
0.0177024
0.0161662
0.0146191
0.0130874
0.0115378
0.0100129
0.00845765
0.00694395
0.00537554
0.00387496
0.0022926
0.00080248
0.197678
0.196027
0.194376
0.192728
0.19108
0.189433
0.187788
0.186144
0.184501
0.182859
0.181218
0.179579
0.177941
0.176304
0.174668
0.173033
0.171399
0.169767
0.168135
0.166505
0.164876
0.163248
0.161621
0.159996
0.158371
0.156748
0.155125
0.153504
0.151884
0.150265
0.148647
0.14703
0.145414
0.143799
0.142185
0.140572
0.138961
0.13735
0.135741
0.134132
0.132525
0.130918
0.129313
0.127709
0.126105
0.124503
0.122901
0.121301
0.119702
0.118103
0.116506
0.11491
0.113314
0.11172
0.110127
0.108534
0.106943
0.105352
0.103763
0.102174
0.100587
0.0989999
0.0974142
0.0958295
0.0942456
0.0926627
0.0910807
0.0894997
0.0879196
0.0863404
0.0847621
0.0831848
0.0816083
0.0800328
0.0784581
0.0768844
0.0753116
0.0737397
0.0721686
0.0705985
0.0690292
0.0674609
0.0658934
0.0643268
0.0627611
0.0611962
0.0596323
0.0580692
0.056507
0.0549457
0.0533852
0.0518256
0.0502669
0.048709
0.047152
0.0455958
0.0440406
0.042486
0.0409325
0.0393796
0.0378278
0.0362764
0.0347264
0.0331765
0.0316282
0.0300797
0.0285333
0.0269859
0.0254415
0.023895
0.0223528
0.0208069
0.0192672
0.0177213
0.0161848
0.0146381
0.0131059
0.0115571
0.0100317
0.00847728
0.00696295
0.00539423
0.00389243
0.00230831
0.000804533
0.197661
0.19601
0.19436
0.192711
0.191063
0.189417
0.187771
0.186127
0.184484
0.182843
0.181202
0.179563
0.177925
0.176287
0.174652
0.173017
0.171383
0.169751
0.16812
0.166489
0.16486
0.163233
0.161606
0.15998
0.158356
0.156732
0.15511
0.153489
0.151868
0.150249
0.148631
0.147014
0.145399
0.143784
0.14217
0.140557
0.138946
0.137335
0.135726
0.134117
0.13251
0.130904
0.129298
0.127694
0.126091
0.124488
0.122887
0.121287
0.119687
0.118089
0.116492
0.114896
0.1133
0.111706
0.110113
0.10852
0.106929
0.105338
0.103749
0.10216
0.100573
0.0989861
0.0974004
0.0958157
0.0942319
0.092649
0.0910671
0.0894861
0.087906
0.0863269
0.0847486
0.0831713
0.0815949
0.0800194
0.0784448
0.0768711
0.0752983
0.0737264
0.0721554
0.0705853
0.0690161
0.0674478
0.0658803
0.0643138
0.0627481
0.0611833
0.0596194
0.0580564
0.0564942
0.0549329
0.0533725
0.0518129
0.0502542
0.0486964
0.0471394
0.0455833
0.0440281
0.0424736
0.0409201
0.0393672
0.0378155
0.0362642
0.0347142
0.0331644
0.0316162
0.0300677
0.0285213
0.0269741
0.0254296
0.0238834
0.0223411
0.0207954
0.0192556
0.01771
0.0161732
0.014627
0.0130943
0.0115464
0.0100203
0.00846715
0.00695158
0.00538406
0.0038809
0.00230079
0.000798472
0.197661
0.19601
0.19436
0.192711
0.191063
0.189417
0.187771
0.186127
0.184484
0.182843
0.181202
0.179563
0.177925
0.176288
0.174652
0.173017
0.171383
0.169751
0.16812
0.16649
0.164861
0.163233
0.161606
0.15998
0.158356
0.156732
0.15511
0.153489
0.151869
0.15025
0.148632
0.147015
0.145399
0.143784
0.14217
0.140558
0.138946
0.137336
0.135726
0.134118
0.13251
0.130904
0.129299
0.127694
0.126091
0.124489
0.122887
0.121287
0.119688
0.11809
0.116492
0.114896
0.113301
0.111706
0.110113
0.108521
0.106929
0.105339
0.103749
0.102161
0.100573
0.0989866
0.097401
0.0958162
0.0942325
0.0926496
0.0910677
0.0894867
0.0879066
0.0863275
0.0847492
0.0831719
0.0815955
0.08002
0.0784454
0.0768717
0.075299
0.0737271
0.0721561
0.070586
0.0690168
0.0674484
0.065881
0.0643144
0.0627488
0.061184
0.0596201
0.058057
0.0564949
0.0549336
0.0533732
0.0518136
0.0502549
0.0486971
0.0471401
0.045584
0.0440288
0.0424743
0.0409209
0.039368
0.0378163
0.0362651
0.0347151
0.0331654
0.0316172
0.0300688
0.0285224
0.0269754
0.0254309
0.0238849
0.0223424
0.0207971
0.0192571
0.017712
0.0161748
0.0146293
0.0130959
0.0115491
0.0100219
0.0084704
0.00695285
0.00538845
0.00388282
0.002307
0.000800156
0.197653
0.196001
0.194351
0.192702
0.191055
0.189408
0.187763
0.186119
0.184476
0.182834
0.181194
0.179554
0.177916
0.176279
0.174644
0.173009
0.171375
0.169743
0.168112
0.166482
0.164853
0.163225
0.161598
0.159972
0.158348
0.156725
0.155102
0.153481
0.151861
0.150242
0.148624
0.147007
0.145391
0.143777
0.142163
0.14055
0.138939
0.137328
0.135719
0.13411
0.132503
0.130897
0.129291
0.127687
0.126084
0.124482
0.12288
0.12128
0.119681
0.118083
0.116485
0.114889
0.113294
0.1117
0.110106
0.108514
0.106922
0.105332
0.103743
0.102154
0.100567
0.09898
0.0973944
0.0958097
0.0942259
0.0926431
0.0910612
0.0894802
0.0879002
0.0863211
0.0847429
0.0831656
0.0815892
0.0800137
0.0784392
0.0768655
0.0752927
0.0737209
0.0721499
0.0705798
0.0690106
0.0674423
0.0658749
0.0643083
0.0627427
0.0611779
0.059614
0.058051
0.0564889
0.0549276
0.0533672
0.0518076
0.050249
0.0486912
0.0471343
0.0455782
0.044023
0.0424686
0.0409151
0.0393624
0.0378107
0.0362595
0.0347096
0.03316
0.0316118
0.0300636
0.0285172
0.0269704
0.0254258
0.0238801
0.0223376
0.0207927
0.0192524
0.0177079
0.0161702
0.0146256
0.0130915
0.0115458
0.0100171
0.00846763
0.00694744
0.00538768
0.00387895
0.0023091
0.000800506
0.197646
0.195994
0.194344
0.192695
0.191048
0.189401
0.187756
0.186112
0.184469
0.182828
0.181187
0.179548
0.17791
0.176273
0.174637
0.173003
0.171369
0.169737
0.168106
0.166475
0.164847
0.163219
0.161592
0.159966
0.158342
0.156719
0.155096
0.153475
0.151855
0.150236
0.148618
0.147001
0.145386
0.143771
0.142157
0.140545
0.138933
0.137323
0.135713
0.134105
0.132498
0.130891
0.129286
0.127682
0.126079
0.124476
0.122875
0.121275
0.119676
0.118077
0.11648
0.114884
0.113289
0.111694
0.110101
0.108509
0.106918
0.105327
0.103738
0.102149
0.100562
0.0989752
0.0973896
0.0958049
0.0942212
0.0926384
0.0910565
0.0894756
0.0878955
0.0863164
0.0847383
0.083161
0.0815846
0.0800092
0.0784346
0.076861
0.0752882
0.0737164
0.0721454
0.0705754
0.0690062
0.0674379
0.0658705
0.064304
0.0627383
0.0611736
0.0596097
0.0580467
0.0564845
0.0549233
0.0533629
0.0518034
0.0502447
0.0486869
0.0471301
0.045574
0.0440188
0.0424645
0.0409111
0.0393584
0.0378067
0.0362556
0.0347057
0.0331562
0.0316081
0.0300601
0.0285137
0.0269671
0.0254225
0.0238772
0.0223345
0.0207901
0.0192495
0.0177057
0.0161676
0.0146238
0.0130889
0.0115443
0.010014
0.00846673
0.00694341
0.00538935
0.00387622
0.00231344
0.000801197
0.197636
0.195985
0.194335
0.192686
0.191039
0.189393
0.187747
0.186103
0.184461
0.182819
0.181179
0.179539
0.177901
0.176264
0.174629
0.172994
0.171361
0.169728
0.168097
0.166467
0.164838
0.163211
0.161584
0.159958
0.158334
0.156711
0.155088
0.153467
0.151847
0.150228
0.14861
0.146994
0.145378
0.143763
0.14215
0.140537
0.138926
0.137315
0.135706
0.134098
0.13249
0.130884
0.129279
0.127675
0.126071
0.124469
0.122868
0.121268
0.119669
0.11807
0.116473
0.114877
0.113282
0.111688
0.110094
0.108502
0.106911
0.10532
0.103731
0.102143
0.100555
0.0989686
0.0973831
0.0957984
0.0942147
0.0926319
0.0910501
0.0894692
0.0878892
0.0863101
0.084732
0.0831547
0.0815784
0.080003
0.0784285
0.0768549
0.0752821
0.0737103
0.0721394
0.0705693
0.0690002
0.0674319
0.0658645
0.064298
0.0627324
0.0611676
0.0596038
0.0580408
0.0564786
0.0549174
0.053357
0.0517975
0.0502389
0.0486811
0.0471243
0.0455682
0.0440131
0.0424588
0.0409054
0.0393528
0.0378011
0.0362502
0.0347003
0.033151
0.0316028
0.030055
0.0285086
0.0269623
0.0254177
0.0238727
0.0223299
0.020786
0.0192452
0.0177021
0.0161636
0.0146206
0.0130849
0.0115415
0.0100094
0.00846439
0.00693764
0.0053895
0.00387141
0.00231603
0.000800041
0.197627
0.195976
0.194326
0.192677
0.19103
0.189384
0.187739
0.186095
0.184452
0.18281
0.18117
0.179531
0.177893
0.176256
0.17462
0.172986
0.171352
0.16972
0.168089
0.166459
0.16483
0.163203
0.161576
0.15995
0.158326
0.156703
0.155081
0.15346
0.15184
0.150221
0.148603
0.146986
0.14537
0.143756
0.142142
0.14053
0.138918
0.137308
0.135699
0.13409
0.132483
0.130877
0.129272
0.127667
0.126064
0.124462
0.122861
0.121261
0.119662
0.118064
0.116466
0.11487
0.113275
0.111681
0.110088
0.108495
0.106904
0.105314
0.103725
0.102136
0.100549
0.0989622
0.0973767
0.0957921
0.0942084
0.0926257
0.0910439
0.089463
0.0878831
0.086304
0.0847259
0.0831487
0.0815724
0.079997
0.0784225
0.0768489
0.0752762
0.0737044
0.0721335
0.0705635
0.0689943
0.0674261
0.0658587
0.0642922
0.0627266
0.0611619
0.059598
0.058035
0.0564729
0.0549117
0.0533514
0.0517919
0.0502333
0.0486755
0.0471186
0.0455626
0.0440075
0.0424532
0.0408999
0.0393473
0.0377957
0.0362448
0.0346949
0.0331457
0.0315976
0.03005
0.0285037
0.0269576
0.025413
0.0238683
0.0223255
0.020782
0.0192411
0.0176986
0.0161597
0.0146176
0.0130811
0.0115388
0.010005
0.00846218
0.00693189
0.00538938
0.00386556
0.00231737
0.000796789
0.197618
0.195967
0.194317
0.192668
0.191021
0.189374
0.187729
0.186085
0.184443
0.182801
0.181161
0.179522
0.177884
0.176247
0.174612
0.172977
0.171344
0.169712
0.16808
0.166451
0.164822
0.163194
0.161568
0.159942
0.158318
0.156695
0.155072
0.153451
0.151831
0.150213
0.148595
0.146978
0.145363
0.143748
0.142134
0.140522
0.138911
0.1373
0.135691
0.134083
0.132476
0.130869
0.129264
0.12766
0.126057
0.124455
0.122854
0.121254
0.119655
0.118056
0.116459
0.114863
0.113268
0.111674
0.110081
0.108489
0.106897
0.105307
0.103718
0.102129
0.100542
0.0989556
0.0973701
0.0957855
0.0942019
0.0926192
0.0910374
0.0894566
0.0878767
0.0862977
0.0847196
0.0831424
0.0815661
0.0799908
0.0784163
0.0768428
0.0752701
0.0736983
0.0721274
0.0705574
0.0689883
0.0674201
0.0658527
0.0642862
0.0627206
0.0611559
0.0595921
0.0580291
0.056467
0.0549058
0.0533454
0.0517859
0.0502273
0.0486696
0.0471127
0.0455567
0.0440016
0.0424474
0.040894
0.0393415
0.0377899
0.0362391
0.0346892
0.0331401
0.031592
0.0300446
0.0284983
0.0269524
0.0254078
0.0238634
0.0223206
0.0207776
0.0192366
0.0176946
0.0161555
0.0146142
0.013077
0.0115358
0.0100004
0.00845943
0.00692588
0.00538793
0.00385832
0.00231673
0.000790929
0.197608
0.195957
0.194308
0.192659
0.191012
0.189365
0.18772
0.186077
0.184434
0.182793
0.181152
0.179513
0.177875
0.176239
0.174603
0.172969
0.171335
0.169703
0.168072
0.166442
0.164814
0.163186
0.161559
0.159934
0.15831
0.156687
0.155065
0.153444
0.151824
0.150205
0.148587
0.146971
0.145355
0.14374
0.142127
0.140515
0.138903
0.137293
0.135684
0.134076
0.132468
0.130862
0.129257
0.127653
0.12605
0.124448
0.122847
0.121247
0.119648
0.11805
0.116453
0.114857
0.113261
0.111667
0.110074
0.108482
0.106891
0.105301
0.103711
0.102123
0.100536
0.0989493
0.0973638
0.0957793
0.0941957
0.092613
0.0910313
0.0894505
0.0878706
0.0862916
0.0847136
0.0831364
0.0815602
0.0799849
0.0784104
0.0768369
0.0752643
0.0736925
0.0721216
0.0705517
0.0689826
0.0674144
0.065847
0.0642806
0.062715
0.0611503
0.0595864
0.0580235
0.0564614
0.0549001
0.0533398
0.0517803
0.0502217
0.048664
0.0471071
0.0455511
0.043996
0.0424417
0.0408884
0.0393359
0.0377843
0.0362335
0.0346837
0.0331346
0.0315865
0.0300392
0.0284929
0.0269472
0.0254026
0.0238585
0.0223157
0.020773
0.0192319
0.0176904
0.0161511
0.0146106
0.0130729
0.0115326
0.00999595
0.00845655
0.00692018
0.00538532
0.00385062
0.0023141
0.000782871
)
;

boundaryField
{
    inlet
    {
        type            zeroGradient;
    }
    outlet
    {
        type            fixedValue;
        value           uniform 0;
    }
    wall
    {
        type            zeroGradient;
    }
    back
    {
        type            wedge;
    }
    front
    {
        type            wedge;
    }
    axis
    {
        type            empty;
    }
    procBoundary3to2
    {
        type            processor;
        value           nonuniform List<scalar> 10(0.199307 0.199331 0.199314 0.199314 0.199305 0.199298 0.199289 0.19928 0.19927 0.199261);
    }
    procBoundary3to7
    {
        type            processor;
        value           nonuniform List<scalar> 
125
(
0.1976
0.195949
0.194299
0.19265
0.191003
0.189357
0.187712
0.186068
0.184426
0.182784
0.181144
0.179505
0.177867
0.176231
0.174595
0.172961
0.171327
0.169695
0.168064
0.166435
0.164806
0.163178
0.161552
0.159927
0.158302
0.156679
0.155057
0.153436
0.151816
0.150198
0.14858
0.146963
0.145348
0.143733
0.14212
0.140508
0.138896
0.137286
0.135677
0.134069
0.132462
0.130855
0.12925
0.127646
0.126043
0.124441
0.12284
0.12124
0.119641
0.118043
0.116446
0.11485
0.113255
0.111661
0.110068
0.108476
0.106885
0.105295
0.103705
0.102117
0.10053
0.0989433
0.0973579
0.0957734
0.0941899
0.0926072
0.0910255
0.0894448
0.0878649
0.086286
0.084708
0.0831309
0.0815546
0.0799793
0.0784049
0.0768314
0.0752588
0.0736871
0.0721162
0.0705463
0.0689772
0.067409
0.0658417
0.0642753
0.0627097
0.061145
0.0595812
0.0580182
0.0564561
0.0548949
0.0533345
0.051775
0.0502164
0.0486587
0.0471018
0.0455458
0.0439906
0.0424364
0.040883
0.0393305
0.0377789
0.0362281
0.0346783
0.0331292
0.0315812
0.0300339
0.0284876
0.026942
0.0253974
0.0238534
0.0223106
0.0207682
0.0192271
0.0176861
0.0161466
0.0146067
0.0130686
0.0115293
0.00999171
0.00845342
0.00691501
0.00538199
0.00384292
0.00231011
0.000773584
)
;
    }
}


// ************************************************************************* //
