/*--------------------------------*- C++ -*----------------------------------*\
| =========                 |                                                 |
| \\      /  F ield         | OpenFOAM: The Open Source CFD Toolbox           |
|  \\    /   O peration     | Version:                                        |
|   \\  /    A nd           | Website:  www.openfoam.com                      |
|    \\/     M anipulation  |                                                 |
\*---------------------------------------------------------------------------*/
FoamFile
{
    version     2.0;
    format      ascii;
    class       surfaceScalarField;
    location    "563";
    object      phi;
}
// * * * * * * * * * * * * * * * * * * * * * * * * * * * * * * * * * * * * * //

dimensions      [0 3 -1 0 0 0 0];
oriented        oriented;


internalField   nonuniform List<scalar> 
2365
(
7.33543e-07
-3.70315e-10
7.33912e-07
-3.69276e-10
7.3428e-07
-3.68241e-10
7.34648e-07
-3.67208e-10
7.35014e-07
-3.66178e-10
7.35379e-07
-3.6515e-10
7.35743e-07
-3.64125e-10
7.36106e-07
-3.63103e-10
7.36468e-07
-3.62083e-10
7.36829e-07
-3.61066e-10
7.37189e-07
-3.60052e-10
7.37548e-07
-3.5904e-10
7.37906e-07
-3.58031e-10
7.38263e-07
-3.57025e-10
7.3862e-07
-3.56021e-10
7.38975e-07
-3.5502e-10
7.39329e-07
-3.54022e-10
7.39682e-07
-3.53026e-10
7.40034e-07
-3.52033e-10
7.40385e-07
-3.51042e-10
7.40735e-07
-3.50054e-10
7.41084e-07
-3.49069e-10
7.41432e-07
-3.48086e-10
7.41779e-07
-3.47106e-10
7.42125e-07
-3.46128e-10
7.4247e-07
-3.45153e-10
7.42814e-07
-3.44181e-10
7.43158e-07
-3.43211e-10
7.435e-07
-3.42244e-10
7.43841e-07
-3.41279e-10
7.44181e-07
-3.40317e-10
7.44521e-07
-3.39358e-10
7.44859e-07
-3.38401e-10
7.45197e-07
-3.37446e-10
7.45533e-07
-3.36494e-10
7.45869e-07
-3.35545e-10
7.46203e-07
-3.34598e-10
7.46537e-07
-3.33654e-10
7.4687e-07
-3.32712e-10
7.47201e-07
-3.31773e-10
7.47532e-07
-3.30837e-10
7.47862e-07
-3.29902e-10
7.48191e-07
-3.28971e-10
7.48519e-07
-3.28042e-10
7.48846e-07
-3.27115e-10
7.49173e-07
-3.26191e-10
7.49498e-07
-3.25269e-10
7.49822e-07
-3.2435e-10
7.50146e-07
-3.23433e-10
7.50468e-07
-3.22519e-10
7.5079e-07
-3.21607e-10
7.5111e-07
-3.20698e-10
7.5143e-07
-3.19791e-10
7.51749e-07
-3.18886e-10
7.52067e-07
-3.17984e-10
7.52384e-07
-3.17084e-10
7.527e-07
-3.16187e-10
7.53016e-07
-3.15291e-10
7.5333e-07
-3.14398e-10
7.53644e-07
-3.13507e-10
7.53956e-07
-3.12619e-10
7.54268e-07
-3.11732e-10
7.54579e-07
-3.10848e-10
7.54889e-07
-3.09965e-10
7.55198e-07
-3.09085e-10
7.55506e-07
-3.08207e-10
7.55813e-07
-3.0733e-10
7.5612e-07
-3.06455e-10
7.56425e-07
-3.05582e-10
7.5673e-07
-3.04711e-10
7.57034e-07
-3.03841e-10
7.57337e-07
-3.02974e-10
7.57639e-07
-3.02106e-10
7.5794e-07
-3.01242e-10
7.58241e-07
-3.00378e-10
7.5854e-07
-2.99517e-10
7.58839e-07
-2.98655e-10
7.59137e-07
-2.97797e-10
7.59434e-07
-2.96938e-10
7.5973e-07
-2.96084e-10
7.60025e-07
-2.95228e-10
7.60319e-07
-2.94378e-10
7.60613e-07
-2.93525e-10
7.60905e-07
-2.9268e-10
7.61197e-07
-2.91831e-10
7.61488e-07
-2.90992e-10
7.61778e-07
-2.90149e-10
7.62068e-07
-2.8932e-10
7.62356e-07
-2.88484e-10
7.62644e-07
-2.87667e-10
7.62931e-07
-2.8684e-10
7.63217e-07
-2.8604e-10
7.63502e-07
-2.85225e-10
7.63786e-07
-2.84447e-10
7.6407e-07
-2.83648e-10
7.64353e-07
-2.82901e-10
7.64635e-07
-2.82119e-10
7.64917e-07
-2.81412e-10
7.65197e-07
-2.80651e-10
7.65477e-07
-2.79996e-10
7.65756e-07
-2.79256e-10
7.66035e-07
-2.78668e-10
7.66313e-07
-2.77948e-10
7.66591e-07
-2.77445e-10
7.66867e-07
-2.76741e-10
7.67144e-07
-2.76343e-10
7.67419e-07
-2.75646e-10
7.67695e-07
-2.75378e-10
7.67969e-07
-2.74668e-10
7.68244e-07
-2.74563e-10
7.68518e-07
-2.73808e-10
7.68792e-07
-2.73907e-10
7.69065e-07
-2.73056e-10
7.69338e-07
-2.7341e-10
7.6961e-07
-2.72392e-10
7.69883e-07
-2.73056e-10
7.70155e-07
-2.71836e-10
7.70428e-07
-2.72805e-10
7.70699e-07
-2.71563e-10
7.70972e-07
-2.72676e-10
7.71243e-07
-2.71492e-10
7.71516e-07
-2.7259e-10
7.71787e-07
-2.70281e-10
7.72058e-07
-2.72761e-10
-2.66462e-10
2.19868e-06
-1.46257e-09
2.19977e-06
-1.4584e-09
2.20085e-06
-1.45425e-09
2.20193e-06
-1.45011e-09
2.20301e-06
-1.44598e-09
2.20409e-06
-1.44186e-09
2.20516e-06
-1.43775e-09
2.20623e-06
-1.43365e-09
2.2073e-06
-1.42956e-09
2.20837e-06
-1.42549e-09
2.20943e-06
-1.42143e-09
2.21049e-06
-1.41737e-09
2.21154e-06
-1.41333e-09
2.21259e-06
-1.4093e-09
2.21364e-06
-1.40528e-09
2.21469e-06
-1.40127e-09
2.21573e-06
-1.39727e-09
2.21677e-06
-1.39329e-09
2.21781e-06
-1.38931e-09
2.21884e-06
-1.38535e-09
2.21988e-06
-1.38139e-09
2.2209e-06
-1.37745e-09
2.22193e-06
-1.37352e-09
2.22295e-06
-1.36959e-09
2.22397e-06
-1.36568e-09
2.22499e-06
-1.36178e-09
2.226e-06
-1.35789e-09
2.22701e-06
-1.35402e-09
2.22802e-06
-1.35015e-09
2.22903e-06
-1.34629e-09
2.23003e-06
-1.34244e-09
2.23103e-06
-1.33861e-09
2.23202e-06
-1.33478e-09
2.23302e-06
-1.33097e-09
2.23401e-06
-1.32717e-09
2.235e-06
-1.32337e-09
2.23598e-06
-1.31959e-09
2.23696e-06
-1.31582e-09
2.23794e-06
-1.31206e-09
2.23892e-06
-1.3083e-09
2.23989e-06
-1.30456e-09
2.24086e-06
-1.30083e-09
2.24183e-06
-1.29711e-09
2.2428e-06
-1.2934e-09
2.24376e-06
-1.28971e-09
2.24472e-06
-1.28602e-09
2.24568e-06
-1.28234e-09
2.24663e-06
-1.27867e-09
2.24758e-06
-1.27501e-09
2.24853e-06
-1.27136e-09
2.24948e-06
-1.26773e-09
2.25042e-06
-1.2641e-09
2.25136e-06
-1.26048e-09
2.2523e-06
-1.25687e-09
2.25323e-06
-1.25327e-09
2.25417e-06
-1.24968e-09
2.2551e-06
-1.24611e-09
2.25602e-06
-1.24254e-09
2.25695e-06
-1.23898e-09
2.25787e-06
-1.23543e-09
2.25879e-06
-1.23188e-09
2.25971e-06
-1.22835e-09
2.26062e-06
-1.22483e-09
2.26153e-06
-1.22131e-09
2.26244e-06
-1.2178e-09
2.26335e-06
-1.2143e-09
2.26425e-06
-1.21081e-09
2.26515e-06
-1.20733e-09
2.26605e-06
-1.20385e-09
2.26695e-06
-1.20038e-09
2.26784e-06
-1.19692e-09
2.26873e-06
-1.19346e-09
2.26962e-06
-1.19001e-09
2.2705e-06
-1.18657e-09
2.27138e-06
-1.18313e-09
2.27226e-06
-1.1797e-09
2.27314e-06
-1.17628e-09
2.27402e-06
-1.17286e-09
2.27489e-06
-1.16944e-09
2.27576e-06
-1.16604e-09
2.27663e-06
-1.16264e-09
2.27749e-06
-1.15925e-09
2.27835e-06
-1.15586e-09
2.27921e-06
-1.15249e-09
2.28007e-06
-1.14911e-09
2.28093e-06
-1.14577e-09
2.28178e-06
-1.14242e-09
2.28263e-06
-1.13911e-09
2.28348e-06
-1.13578e-09
2.28432e-06
-1.13252e-09
2.28516e-06
-1.12923e-09
2.286e-06
-1.12603e-09
2.28684e-06
-1.12278e-09
2.28768e-06
-1.11967e-09
2.28851e-06
-1.11648e-09
2.28934e-06
-1.11349e-09
2.29017e-06
-1.11037e-09
2.29099e-06
-1.10753e-09
2.29182e-06
-1.1045e-09
2.29264e-06
-1.10185e-09
2.29346e-06
-1.09891e-09
2.29428e-06
-1.09652e-09
2.29509e-06
-1.09367e-09
2.29591e-06
-1.09159e-09
2.29672e-06
-1.08884e-09
2.29753e-06
-1.08715e-09
2.29834e-06
-1.08446e-09
2.29915e-06
-1.08324e-09
2.29995e-06
-1.08057e-09
2.30076e-06
-1.07993e-09
2.30156e-06
-1.07719e-09
2.30236e-06
-1.07724e-09
2.30317e-06
-1.07429e-09
2.30397e-06
-1.07519e-09
2.30477e-06
-1.07182e-09
2.30557e-06
-1.07375e-09
2.30637e-06
-1.06978e-09
2.30717e-06
-1.0729e-09
2.30796e-06
-1.06849e-09
2.30876e-06
-1.07256e-09
2.30956e-06
-1.06783e-09
2.31036e-06
-1.07246e-09
2.31116e-06
-1.06712e-09
2.31195e-06
-1.07467e-09
-1.07041e-09
3.65671e-06
-3.21381e-09
3.65845e-06
-3.20441e-09
3.6602e-06
-3.19504e-09
3.66193e-06
-3.18569e-09
3.66366e-06
-3.17637e-09
3.66539e-06
-3.16708e-09
3.66711e-06
-3.15782e-09
3.66882e-06
-3.14858e-09
3.67053e-06
-3.13937e-09
3.67224e-06
-3.13019e-09
3.67394e-06
-3.12103e-09
3.67563e-06
-3.1119e-09
3.67732e-06
-3.1028e-09
3.679e-06
-3.09372e-09
3.68068e-06
-3.08467e-09
3.68236e-06
-3.07565e-09
3.68403e-06
-3.06665e-09
3.68569e-06
-3.05768e-09
3.68735e-06
-3.04874e-09
3.68901e-06
-3.03982e-09
3.69065e-06
-3.03093e-09
3.6923e-06
-3.02207e-09
3.69394e-06
-3.01323e-09
3.69557e-06
-3.00441e-09
3.6972e-06
-2.99563e-09
3.69883e-06
-2.98687e-09
3.70045e-06
-2.97813e-09
3.70206e-06
-2.96942e-09
3.70368e-06
-2.96074e-09
3.70528e-06
-2.95208e-09
3.70688e-06
-2.94345e-09
3.70848e-06
-2.93484e-09
3.71007e-06
-2.92626e-09
3.71166e-06
-2.9177e-09
3.71324e-06
-2.90917e-09
3.71482e-06
-2.90067e-09
3.71639e-06
-2.89219e-09
3.71796e-06
-2.88373e-09
3.71952e-06
-2.8753e-09
3.72108e-06
-2.8669e-09
3.72263e-06
-2.85852e-09
3.72418e-06
-2.85016e-09
3.72573e-06
-2.84183e-09
3.72727e-06
-2.83353e-09
3.7288e-06
-2.82525e-09
3.73033e-06
-2.81699e-09
3.73186e-06
-2.80876e-09
3.73338e-06
-2.80055e-09
3.7349e-06
-2.79237e-09
3.73641e-06
-2.78421e-09
3.73792e-06
-2.77607e-09
3.73942e-06
-2.76796e-09
3.74092e-06
-2.75987e-09
3.74242e-06
-2.75181e-09
3.74391e-06
-2.74377e-09
3.74539e-06
-2.73575e-09
3.74688e-06
-2.72775e-09
3.74835e-06
-2.71978e-09
3.74983e-06
-2.71183e-09
3.75129e-06
-2.7039e-09
3.75276e-06
-2.696e-09
3.75422e-06
-2.68811e-09
3.75567e-06
-2.68024e-09
3.75712e-06
-2.6724e-09
3.75857e-06
-2.66458e-09
3.76001e-06
-2.65677e-09
3.76145e-06
-2.64898e-09
3.76289e-06
-2.64121e-09
3.76432e-06
-2.63346e-09
3.76574e-06
-2.62573e-09
3.76716e-06
-2.61801e-09
3.76858e-06
-2.61031e-09
3.76999e-06
-2.60262e-09
3.7714e-06
-2.59495e-09
3.7728e-06
-2.58729e-09
3.7742e-06
-2.57965e-09
3.7756e-06
-2.57202e-09
3.77699e-06
-2.56441e-09
3.77838e-06
-2.5568e-09
3.77976e-06
-2.54922e-09
3.78114e-06
-2.54164e-09
3.78252e-06
-2.53409e-09
3.78389e-06
-2.52654e-09
3.78525e-06
-2.51903e-09
3.78662e-06
-2.51152e-09
3.78797e-06
-2.50406e-09
3.78933e-06
-2.49659e-09
3.79068e-06
-2.48921e-09
3.79202e-06
-2.4818e-09
3.79337e-06
-2.47451e-09
3.7947e-06
-2.46718e-09
3.79604e-06
-2.46003e-09
3.79737e-06
-2.45279e-09
3.79869e-06
-2.44582e-09
3.80002e-06
-2.43872e-09
3.80134e-06
-2.432e-09
3.80265e-06
-2.42506e-09
3.80396e-06
-2.41866e-09
3.80527e-06
-2.41191e-09
3.80657e-06
-2.40593e-09
3.80787e-06
-2.39941e-09
3.80917e-06
-2.39396e-09
3.81046e-06
-2.38768e-09
3.81176e-06
-2.3829e-09
3.81304e-06
-2.37688e-09
3.81433e-06
-2.37291e-09
3.81561e-06
-2.36712e-09
3.81689e-06
-2.36414e-09
3.81817e-06
-2.35851e-09
3.81945e-06
-2.35672e-09
3.82072e-06
-2.3511e-09
3.822e-06
-2.35075e-09
3.82327e-06
-2.34489e-09
3.82454e-06
-2.34627e-09
3.82581e-06
-2.33979e-09
3.82707e-06
-2.34333e-09
3.82834e-06
-2.3357e-09
3.82961e-06
-2.34198e-09
3.83087e-06
-2.33252e-09
3.83214e-06
-2.34226e-09
3.83341e-06
-2.33047e-09
3.83467e-06
-2.3431e-09
3.83595e-06
-2.33259e-09
3.8372e-06
-2.34556e-09
-2.33881e-09
5.1006e-06
-5.51628e-09
5.1029e-06
-5.49956e-09
5.10518e-06
-5.48289e-09
5.10746e-06
-5.46628e-09
5.10974e-06
-5.44972e-09
5.112e-06
-5.43321e-09
5.11426e-06
-5.41675e-09
5.11651e-06
-5.40035e-09
5.11876e-06
-5.384e-09
5.121e-06
-5.3677e-09
5.12323e-06
-5.35146e-09
5.12545e-06
-5.33526e-09
5.12767e-06
-5.31912e-09
5.12988e-06
-5.30303e-09
5.13208e-06
-5.28699e-09
5.13427e-06
-5.27101e-09
5.13646e-06
-5.25507e-09
5.13864e-06
-5.23918e-09
5.14082e-06
-5.22335e-09
5.14299e-06
-5.20756e-09
5.14515e-06
-5.19183e-09
5.1473e-06
-5.17615e-09
5.14945e-06
-5.16051e-09
5.15159e-06
-5.14493e-09
5.15372e-06
-5.1294e-09
5.15585e-06
-5.11391e-09
5.15797e-06
-5.09848e-09
5.16008e-06
-5.08309e-09
5.16219e-06
-5.06776e-09
5.16429e-06
-5.05247e-09
5.16638e-06
-5.03723e-09
5.16847e-06
-5.02205e-09
5.17055e-06
-5.00691e-09
5.17263e-06
-4.99181e-09
5.17469e-06
-4.97677e-09
5.17676e-06
-4.96178e-09
5.17881e-06
-4.94683e-09
5.18086e-06
-4.93193e-09
5.1829e-06
-4.91708e-09
5.18494e-06
-4.90227e-09
5.18696e-06
-4.88752e-09
5.18899e-06
-4.87281e-09
5.191e-06
-4.85815e-09
5.19301e-06
-4.84353e-09
5.19502e-06
-4.82896e-09
5.19701e-06
-4.81444e-09
5.19901e-06
-4.79997e-09
5.20099e-06
-4.78554e-09
5.20297e-06
-4.77116e-09
5.20494e-06
-4.75682e-09
5.20691e-06
-4.74253e-09
5.20887e-06
-4.72828e-09
5.21082e-06
-4.71408e-09
5.21277e-06
-4.69992e-09
5.21471e-06
-4.68581e-09
5.21665e-06
-4.67174e-09
5.21858e-06
-4.65771e-09
5.2205e-06
-4.64373e-09
5.22242e-06
-4.62979e-09
5.22433e-06
-4.61589e-09
5.22624e-06
-4.60203e-09
5.22814e-06
-4.58821e-09
5.23003e-06
-4.57443e-09
5.23192e-06
-4.56069e-09
5.2338e-06
-4.54698e-09
5.23568e-06
-4.53332e-09
5.23755e-06
-4.51969e-09
5.23942e-06
-4.50609e-09
5.24128e-06
-4.49253e-09
5.24313e-06
-4.479e-09
5.24498e-06
-4.4655e-09
5.24682e-06
-4.45204e-09
5.24865e-06
-4.43859e-09
5.25048e-06
-4.42518e-09
5.25231e-06
-4.4118e-09
5.25413e-06
-4.39844e-09
5.25594e-06
-4.3851e-09
5.25775e-06
-4.3718e-09
5.25955e-06
-4.35851e-09
5.26135e-06
-4.34526e-09
5.26314e-06
-4.33201e-09
5.26492e-06
-4.31882e-09
5.2667e-06
-4.30562e-09
5.26847e-06
-4.2925e-09
5.27024e-06
-4.27936e-09
5.272e-06
-4.26633e-09
5.27376e-06
-4.25326e-09
5.27551e-06
-4.24034e-09
5.27726e-06
-4.22737e-09
5.279e-06
-4.21461e-09
5.28073e-06
-4.20176e-09
5.28246e-06
-4.18922e-09
5.28418e-06
-4.17655e-09
5.2859e-06
-4.16429e-09
5.28762e-06
-4.15184e-09
5.28932e-06
-4.13999e-09
5.29103e-06
-4.12783e-09
5.29272e-06
-4.11651e-09
5.29442e-06
-4.10469e-09
5.29611e-06
-4.09407e-09
5.29779e-06
-4.08266e-09
5.29947e-06
-4.07294e-09
5.30114e-06
-4.062e-09
5.30281e-06
-4.05339e-09
5.30448e-06
-4.04296e-09
5.30614e-06
-4.03574e-09
5.3078e-06
-4.02581e-09
5.30946e-06
-4.02027e-09
5.31111e-06
-4.01076e-09
5.31276e-06
-4.00726e-09
5.31441e-06
-3.99795e-09
5.31605e-06
-3.99696e-09
5.3177e-06
-3.98743e-09
5.31934e-06
-3.98954e-09
5.32098e-06
-3.97912e-09
5.32262e-06
-3.98513e-09
5.32426e-06
-3.9727e-09
5.3259e-06
-3.98398e-09
5.32753e-06
-3.96732e-09
5.32918e-06
-3.98616e-09
5.33081e-06
-3.96379e-09
5.33246e-06
-3.98967e-09
5.33411e-06
-3.97109e-09
5.33573e-06
-3.99569e-09
-3.9859e-09
6.5199e-06
-8.2164e-09
6.52259e-06
-8.1904e-09
6.52527e-06
-8.16452e-09
6.52794e-06
-8.13873e-09
6.5306e-06
-8.113e-09
6.53326e-06
-8.08745e-09
6.5359e-06
-8.06188e-09
6.53854e-06
-8.03651e-09
6.54117e-06
-8.01114e-09
6.54378e-06
-7.98589e-09
6.54639e-06
-7.96073e-09
6.54899e-06
-7.93566e-09
6.55159e-06
-7.91068e-09
6.55417e-06
-7.88575e-09
6.55674e-06
-7.861e-09
6.55931e-06
-7.83622e-09
6.56186e-06
-7.81164e-09
6.56441e-06
-7.78707e-09
6.56695e-06
-7.7626e-09
6.56948e-06
-7.73823e-09
6.572e-06
-7.71391e-09
6.57452e-06
-7.68976e-09
6.57702e-06
-7.66558e-09
6.57952e-06
-7.6416e-09
6.58201e-06
-7.61762e-09
6.58449e-06
-7.59375e-09
6.58696e-06
-7.56996e-09
6.58942e-06
-7.54623e-09
6.59188e-06
-7.52267e-09
6.59432e-06
-7.49908e-09
6.59676e-06
-7.47568e-09
6.59919e-06
-7.45225e-09
6.60161e-06
-7.42902e-09
6.60403e-06
-7.40575e-09
6.60643e-06
-7.38268e-09
6.60883e-06
-7.3596e-09
6.61122e-06
-7.33663e-09
6.6136e-06
-7.31375e-09
6.61598e-06
-7.29091e-09
6.61834e-06
-7.26824e-09
6.6207e-06
-7.24553e-09
6.62305e-06
-7.22302e-09
6.62539e-06
-7.2005e-09
6.62773e-06
-7.17809e-09
6.63006e-06
-7.15575e-09
6.63237e-06
-7.13347e-09
6.63469e-06
-7.11135e-09
6.63699e-06
-7.08918e-09
6.63929e-06
-7.06722e-09
6.64157e-06
-7.04524e-09
6.64386e-06
-7.02336e-09
6.64613e-06
-7.00156e-09
6.64839e-06
-6.97983e-09
6.65065e-06
-6.95818e-09
6.6529e-06
-6.93657e-09
6.65515e-06
-6.91513e-09
6.65738e-06
-6.89364e-09
6.65961e-06
-6.87233e-09
6.66183e-06
-6.85101e-09
6.66405e-06
-6.82979e-09
6.66625e-06
-6.80863e-09
6.66845e-06
-6.78752e-09
6.67064e-06
-6.76655e-09
6.67283e-06
-6.74554e-09
6.67501e-06
-6.7247e-09
6.67718e-06
-6.70384e-09
6.67934e-06
-6.68306e-09
6.6815e-06
-6.66235e-09
6.68365e-06
-6.64166e-09
6.68579e-06
-6.62112e-09
6.68792e-06
-6.6005e-09
6.69005e-06
-6.58006e-09
6.69217e-06
-6.55957e-09
6.69429e-06
-6.53917e-09
6.69639e-06
-6.5188e-09
6.69849e-06
-6.49848e-09
6.70059e-06
-6.47819e-09
6.70267e-06
-6.45793e-09
6.70475e-06
-6.43777e-09
6.70682e-06
-6.41756e-09
6.70889e-06
-6.39747e-09
6.71095e-06
-6.37737e-09
6.713e-06
-6.3573e-09
6.71504e-06
-6.33733e-09
6.71708e-06
-6.31731e-09
6.71911e-06
-6.29751e-09
6.72114e-06
-6.27756e-09
6.72316e-06
-6.25792e-09
6.72517e-06
-6.23813e-09
6.72717e-06
-6.21864e-09
6.72917e-06
-6.19905e-09
6.73116e-06
-6.17983e-09
6.73314e-06
-6.16054e-09
6.73512e-06
-6.14172e-09
6.73709e-06
-6.12269e-09
6.73906e-06
-6.10443e-09
6.74101e-06
-6.08588e-09
6.74297e-06
-6.06834e-09
6.74491e-06
-6.05031e-09
6.74685e-06
-6.0338e-09
6.74878e-06
-6.01635e-09
6.75071e-06
-6.00116e-09
6.75264e-06
-5.98444e-09
6.75455e-06
-5.97094e-09
6.75647e-06
-5.95504e-09
6.75837e-06
-5.94359e-09
6.76028e-06
-5.92859e-09
6.76218e-06
-5.91963e-09
6.76407e-06
-5.90545e-09
6.76596e-06
-5.8996e-09
6.76785e-06
-5.88597e-09
6.76974e-06
-5.88402e-09
6.77162e-06
-5.87028e-09
6.7735e-06
-5.87327e-09
6.77538e-06
-5.85834e-09
6.77727e-06
-5.86765e-09
6.77914e-06
-5.84971e-09
6.78103e-06
-5.86763e-09
6.7829e-06
-5.84267e-09
6.78479e-06
-5.87337e-09
6.78666e-06
-5.83859e-09
6.78855e-06
-5.88176e-09
6.79045e-06
-5.85189e-09
6.79232e-06
-5.89161e-09
-5.87406e-09
7.89934e-06
-1.11165e-08
7.90223e-06
-1.10797e-08
7.90511e-06
-1.10431e-08
7.90798e-06
-1.10066e-08
7.91083e-06
-1.09702e-08
7.91368e-06
-1.0934e-08
7.91651e-06
-1.08979e-08
7.91934e-06
-1.0862e-08
7.92216e-06
-1.08262e-08
7.92496e-06
-1.07905e-08
7.92775e-06
-1.0755e-08
7.93054e-06
-1.07196e-08
7.93331e-06
-1.06844e-08
7.93608e-06
-1.06493e-08
7.93883e-06
-1.06143e-08
7.94157e-06
-1.05795e-08
7.94431e-06
-1.05448e-08
7.94703e-06
-1.05102e-08
7.94974e-06
-1.04758e-08
7.95244e-06
-1.04414e-08
7.95514e-06
-1.04073e-08
7.95782e-06
-1.03732e-08
7.9605e-06
-1.03393e-08
7.96316e-06
-1.03055e-08
7.96581e-06
-1.02719e-08
7.96846e-06
-1.02384e-08
7.97109e-06
-1.0205e-08
7.97372e-06
-1.01717e-08
7.97633e-06
-1.01385e-08
7.97894e-06
-1.01055e-08
7.98154e-06
-1.00726e-08
7.98413e-06
-1.00399e-08
7.9867e-06
-1.00072e-08
7.98927e-06
-9.97472e-09
7.99183e-06
-9.94233e-09
7.99438e-06
-9.91006e-09
7.99692e-06
-9.87792e-09
7.99946e-06
-9.8459e-09
8.00198e-06
-9.814e-09
8.00449e-06
-9.78222e-09
8.007e-06
-9.75056e-09
8.00949e-06
-9.71902e-09
8.01198e-06
-9.6876e-09
8.01446e-06
-9.6563e-09
8.01693e-06
-9.62512e-09
8.01939e-06
-9.59405e-09
8.02184e-06
-9.56311e-09
8.02428e-06
-9.53228e-09
8.02672e-06
-9.50156e-09
8.02914e-06
-9.47096e-09
8.03156e-06
-9.44048e-09
8.03397e-06
-9.41011e-09
8.03637e-06
-9.37985e-09
8.03876e-06
-9.34971e-09
8.04114e-06
-9.31967e-09
8.04352e-06
-9.28975e-09
8.04589e-06
-9.25993e-09
8.04824e-06
-9.23023e-09
8.05059e-06
-9.20063e-09
8.05293e-06
-9.17113e-09
8.05527e-06
-9.14174e-09
8.05759e-06
-9.11245e-09
8.05991e-06
-9.08326e-09
8.06222e-06
-9.05417e-09
8.06452e-06
-9.02517e-09
8.06681e-06
-8.99627e-09
8.0691e-06
-8.96746e-09
8.07137e-06
-8.93874e-09
8.07364e-06
-8.9101e-09
8.0759e-06
-8.88155e-09
8.07815e-06
-8.85308e-09
8.0804e-06
-8.82468e-09
8.08263e-06
-8.79635e-09
8.08486e-06
-8.7681e-09
8.08708e-06
-8.7399e-09
8.0893e-06
-8.71178e-09
8.0915e-06
-8.6837e-09
8.0937e-06
-8.6557e-09
8.09589e-06
-8.62773e-09
8.09807e-06
-8.59984e-09
8.10025e-06
-8.57196e-09
8.10241e-06
-8.54418e-09
8.10457e-06
-8.5164e-09
8.10673e-06
-8.48873e-09
8.10887e-06
-8.46105e-09
8.11101e-06
-8.43352e-09
8.11313e-06
-8.40595e-09
8.11525e-06
-8.3786e-09
8.11737e-06
-8.35119e-09
8.11947e-06
-8.32408e-09
8.12157e-06
-8.29687e-09
8.12366e-06
-8.27011e-09
8.12574e-06
-8.24318e-09
8.12782e-06
-8.21691e-09
8.12989e-06
-8.19037e-09
8.13195e-06
-8.16478e-09
8.134e-06
-8.13877e-09
8.13605e-06
-8.11411e-09
8.13808e-06
-8.0888e-09
8.14012e-06
-8.0654e-09
8.14214e-06
-8.04096e-09
8.14416e-06
-8.01922e-09
8.14617e-06
-7.99585e-09
8.14818e-06
-7.97625e-09
8.15018e-06
-7.95412e-09
8.15217e-06
-7.93727e-09
8.15416e-06
-7.91646e-09
8.15614e-06
-7.90311e-09
8.15812e-06
-7.88353e-09
8.16009e-06
-7.87462e-09
8.16206e-06
-7.85591e-09
8.16403e-06
-7.85265e-09
8.166e-06
-7.834e-09
8.16796e-06
-7.83795e-09
8.16992e-06
-7.81796e-09
8.17188e-06
-7.83119e-09
8.17384e-06
-7.80721e-09
8.17581e-06
-7.83308e-09
8.17776e-06
-7.79948e-09
8.17973e-06
-7.84367e-09
8.18169e-06
-7.79627e-09
8.18367e-06
-7.85856e-09
8.18564e-06
-7.81611e-09
8.18761e-06
-7.87421e-09
-7.84507e-09
9.21765e-06
-1.39827e-08
9.2205e-06
-1.39342e-08
9.22335e-06
-1.38859e-08
9.22618e-06
-1.38378e-08
9.229e-06
-1.37899e-08
9.23181e-06
-1.37422e-08
9.2346e-06
-1.36947e-08
9.23739e-06
-1.36474e-08
9.24016e-06
-1.36004e-08
9.24292e-06
-1.35535e-08
9.24568e-06
-1.35068e-08
9.24842e-06
-1.34603e-08
9.25115e-06
-1.3414e-08
9.25387e-06
-1.33679e-08
9.25657e-06
-1.3322e-08
9.25927e-06
-1.32763e-08
9.26196e-06
-1.32308e-08
9.26463e-06
-1.31855e-08
9.2673e-06
-1.31404e-08
9.26995e-06
-1.30954e-08
9.27259e-06
-1.30507e-08
9.27523e-06
-1.30061e-08
9.27785e-06
-1.29617e-08
9.28046e-06
-1.29175e-08
9.28306e-06
-1.28735e-08
9.28565e-06
-1.28297e-08
9.28823e-06
-1.27861e-08
9.29081e-06
-1.27426e-08
9.29337e-06
-1.26994e-08
9.29592e-06
-1.26562e-08
9.29846e-06
-1.26133e-08
9.30099e-06
-1.25706e-08
9.30351e-06
-1.2528e-08
9.30602e-06
-1.24856e-08
9.30852e-06
-1.24434e-08
9.31101e-06
-1.24014e-08
9.31349e-06
-1.23595e-08
9.31597e-06
-1.23178e-08
9.31843e-06
-1.22763e-08
9.32088e-06
-1.2235e-08
9.32332e-06
-1.21938e-08
9.32576e-06
-1.21528e-08
9.32818e-06
-1.21119e-08
9.3306e-06
-1.20713e-08
9.333e-06
-1.20308e-08
9.3354e-06
-1.19904e-08
9.33779e-06
-1.19502e-08
9.34016e-06
-1.19102e-08
9.34253e-06
-1.18704e-08
9.34489e-06
-1.18307e-08
9.34724e-06
-1.17912e-08
9.34959e-06
-1.17518e-08
9.35192e-06
-1.17126e-08
9.35424e-06
-1.16736e-08
9.35656e-06
-1.16347e-08
9.35886e-06
-1.15959e-08
9.36116e-06
-1.15574e-08
9.36345e-06
-1.15189e-08
9.36573e-06
-1.14806e-08
9.368e-06
-1.14425e-08
9.37026e-06
-1.14045e-08
9.37252e-06
-1.13667e-08
9.37476e-06
-1.1329e-08
9.377e-06
-1.12914e-08
9.37923e-06
-1.1254e-08
9.38145e-06
-1.12167e-08
9.38366e-06
-1.11796e-08
9.38587e-06
-1.11425e-08
9.38806e-06
-1.11056e-08
9.39025e-06
-1.10688e-08
9.39243e-06
-1.10321e-08
9.3946e-06
-1.09955e-08
9.39676e-06
-1.09591e-08
9.39892e-06
-1.09227e-08
9.40106e-06
-1.08864e-08
9.4032e-06
-1.08502e-08
9.40533e-06
-1.08141e-08
9.40745e-06
-1.0778e-08
9.40957e-06
-1.0742e-08
9.41167e-06
-1.07061e-08
9.41377e-06
-1.06703e-08
9.41586e-06
-1.06345e-08
9.41795e-06
-1.05987e-08
9.42002e-06
-1.05631e-08
9.42209e-06
-1.05274e-08
9.42414e-06
-1.04919e-08
9.4262e-06
-1.04564e-08
9.42824e-06
-1.04211e-08
9.43027e-06
-1.03857e-08
9.4323e-06
-1.03506e-08
9.43432e-06
-1.03154e-08
9.43633e-06
-1.02806e-08
9.43833e-06
-1.02457e-08
9.44033e-06
-1.02115e-08
9.44231e-06
-1.01769e-08
9.44429e-06
-1.01434e-08
9.44626e-06
-1.01095e-08
9.44822e-06
-1.0077e-08
9.45018e-06
-1.00439e-08
9.45213e-06
-1.00128e-08
9.45407e-06
-9.98068e-09
9.456e-06
-9.95153e-09
9.45792e-06
-9.92081e-09
9.45984e-06
-9.89418e-09
9.46175e-06
-9.86506e-09
9.46366e-06
-9.8418e-09
9.46556e-06
-9.81442e-09
9.46745e-06
-9.79557e-09
9.46934e-06
-9.7699e-09
9.47122e-06
-9.75685e-09
9.47309e-06
-9.7324e-09
9.47497e-06
-9.72684e-09
9.47684e-06
-9.70281e-09
9.47871e-06
-9.70693e-09
9.48057e-06
-9.68153e-09
9.48244e-06
-9.69825e-09
9.4843e-06
-9.66817e-09
9.48617e-06
-9.70182e-09
9.48803e-06
-9.66028e-09
9.4899e-06
-9.71768e-09
9.49176e-06
-9.65907e-09
9.49365e-06
-9.73994e-09
9.49551e-06
-9.6834e-09
9.49741e-06
-9.76086e-09
-9.71504e-09
1.04466e-05
-1.65595e-08
1.04492e-05
-1.64993e-08
1.04517e-05
-1.64394e-08
1.04543e-05
-1.63797e-08
1.04568e-05
-1.63204e-08
1.04593e-05
-1.62613e-08
1.04618e-05
-1.62025e-08
1.04643e-05
-1.6144e-08
1.04668e-05
-1.60857e-08
1.04693e-05
-1.60277e-08
1.04717e-05
-1.597e-08
1.04742e-05
-1.59125e-08
1.04766e-05
-1.58553e-08
1.04791e-05
-1.57984e-08
1.04815e-05
-1.57417e-08
1.04839e-05
-1.56853e-08
1.04863e-05
-1.56291e-08
1.04887e-05
-1.55732e-08
1.04911e-05
-1.55176e-08
1.04934e-05
-1.54622e-08
1.04958e-05
-1.54071e-08
1.04981e-05
-1.53522e-08
1.05005e-05
-1.52975e-08
1.05028e-05
-1.52431e-08
1.05051e-05
-1.5189e-08
1.05074e-05
-1.51351e-08
1.05097e-05
-1.50814e-08
1.0512e-05
-1.5028e-08
1.05143e-05
-1.49748e-08
1.05165e-05
-1.49219e-08
1.05188e-05
-1.48692e-08
1.0521e-05
-1.48167e-08
1.05233e-05
-1.47645e-08
1.05255e-05
-1.47125e-08
1.05277e-05
-1.46608e-08
1.05299e-05
-1.46092e-08
1.05321e-05
-1.45579e-08
1.05343e-05
-1.45069e-08
1.05365e-05
-1.4456e-08
1.05387e-05
-1.44054e-08
1.05408e-05
-1.4355e-08
1.0543e-05
-1.43048e-08
1.05451e-05
-1.42549e-08
1.05473e-05
-1.42052e-08
1.05494e-05
-1.41556e-08
1.05515e-05
-1.41064e-08
1.05536e-05
-1.40573e-08
1.05557e-05
-1.40084e-08
1.05578e-05
-1.39598e-08
1.05599e-05
-1.39114e-08
1.05619e-05
-1.38632e-08
1.0564e-05
-1.38152e-08
1.05661e-05
-1.37674e-08
1.05681e-05
-1.37198e-08
1.05701e-05
-1.36724e-08
1.05722e-05
-1.36252e-08
1.05742e-05
-1.35782e-08
1.05762e-05
-1.35315e-08
1.05782e-05
-1.34849e-08
1.05802e-05
-1.34385e-08
1.05822e-05
-1.33923e-08
1.05842e-05
-1.33463e-08
1.05861e-05
-1.33005e-08
1.05881e-05
-1.32549e-08
1.05901e-05
-1.32094e-08
1.0592e-05
-1.31642e-08
1.0594e-05
-1.31191e-08
1.05959e-05
-1.30741e-08
1.05978e-05
-1.30294e-08
1.05997e-05
-1.29848e-08
1.06016e-05
-1.29403e-08
1.06035e-05
-1.2896e-08
1.06054e-05
-1.28518e-08
1.06073e-05
-1.28077e-08
1.06092e-05
-1.27638e-08
1.06111e-05
-1.272e-08
1.06129e-05
-1.26762e-08
1.06148e-05
-1.26326e-08
1.06166e-05
-1.25891e-08
1.06185e-05
-1.25456e-08
1.06203e-05
-1.25022e-08
1.06221e-05
-1.24589e-08
1.06239e-05
-1.24156e-08
1.06257e-05
-1.23724e-08
1.06275e-05
-1.23292e-08
1.06293e-05
-1.22862e-08
1.06311e-05
-1.2243e-08
1.06329e-05
-1.22001e-08
1.06347e-05
-1.21571e-08
1.06364e-05
-1.21143e-08
1.06382e-05
-1.20714e-08
1.06399e-05
-1.20289e-08
1.06417e-05
-1.19863e-08
1.06434e-05
-1.19442e-08
1.06451e-05
-1.19019e-08
1.06469e-05
-1.18604e-08
1.06486e-05
-1.18186e-08
1.06503e-05
-1.17781e-08
1.0652e-05
-1.17372e-08
1.06536e-05
-1.16981e-08
1.06553e-05
-1.16582e-08
1.0657e-05
-1.16211e-08
1.06587e-05
-1.15827e-08
1.06603e-05
-1.15483e-08
1.0662e-05
-1.15117e-08
1.06636e-05
-1.1481e-08
1.06652e-05
-1.14465e-08
1.06669e-05
-1.1421e-08
1.06685e-05
-1.13885e-08
1.06701e-05
-1.13698e-08
1.06717e-05
-1.1339e-08
1.06733e-05
-1.13295e-08
1.06749e-05
-1.12994e-08
1.06765e-05
-1.13021e-08
1.06781e-05
-1.12706e-08
1.06797e-05
-1.12891e-08
1.06813e-05
-1.12528e-08
1.06828e-05
-1.12921e-08
1.06844e-05
-1.12441e-08
1.0686e-05
-1.13109e-08
1.06876e-05
-1.12451e-08
1.06892e-05
-1.13389e-08
1.06908e-05
-1.12697e-08
1.06924e-05
-1.13656e-08
-1.12993e-08
1.15507e-05
-1.8593e-08
1.15527e-05
-1.85223e-08
1.15547e-05
-1.84521e-08
1.15567e-05
-1.83821e-08
1.15587e-05
-1.83125e-08
1.15607e-05
-1.82433e-08
1.15627e-05
-1.81744e-08
1.15647e-05
-1.81059e-08
1.15666e-05
-1.80377e-08
1.15685e-05
-1.79698e-08
1.15705e-05
-1.79023e-08
1.15724e-05
-1.7835e-08
1.15743e-05
-1.77682e-08
1.15762e-05
-1.77018e-08
1.15781e-05
-1.76355e-08
1.158e-05
-1.75696e-08
1.15819e-05
-1.75041e-08
1.15837e-05
-1.74389e-08
1.15856e-05
-1.73739e-08
1.15874e-05
-1.73094e-08
1.15893e-05
-1.72451e-08
1.15911e-05
-1.71811e-08
1.15929e-05
-1.71175e-08
1.15947e-05
-1.70541e-08
1.15965e-05
-1.69911e-08
1.15983e-05
-1.69284e-08
1.16001e-05
-1.6866e-08
1.16019e-05
-1.68038e-08
1.16037e-05
-1.6742e-08
1.16054e-05
-1.66805e-08
1.16072e-05
-1.66193e-08
1.16089e-05
-1.65583e-08
1.16106e-05
-1.64977e-08
1.16124e-05
-1.64374e-08
1.16141e-05
-1.63773e-08
1.16158e-05
-1.63175e-08
1.16175e-05
-1.6258e-08
1.16192e-05
-1.61989e-08
1.16209e-05
-1.61399e-08
1.16225e-05
-1.60813e-08
1.16242e-05
-1.60229e-08
1.16259e-05
-1.59648e-08
1.16275e-05
-1.59071e-08
1.16292e-05
-1.58494e-08
1.16308e-05
-1.57923e-08
1.16324e-05
-1.57352e-08
1.16341e-05
-1.56785e-08
1.16357e-05
-1.56221e-08
1.16373e-05
-1.55659e-08
1.16389e-05
-1.55099e-08
1.16405e-05
-1.54543e-08
1.1642e-05
-1.53988e-08
1.16436e-05
-1.53438e-08
1.16452e-05
-1.52889e-08
1.16468e-05
-1.52342e-08
1.16483e-05
-1.51799e-08
1.16499e-05
-1.51257e-08
1.16514e-05
-1.50718e-08
1.16529e-05
-1.50182e-08
1.16545e-05
-1.49648e-08
1.1656e-05
-1.49116e-08
1.16575e-05
-1.48587e-08
1.1659e-05
-1.4806e-08
1.16605e-05
-1.47536e-08
1.1662e-05
-1.47014e-08
1.16635e-05
-1.46493e-08
1.16649e-05
-1.45976e-08
1.16664e-05
-1.45459e-08
1.16679e-05
-1.44946e-08
1.16693e-05
-1.44433e-08
1.16708e-05
-1.43924e-08
1.16722e-05
-1.43415e-08
1.16737e-05
-1.42909e-08
1.16751e-05
-1.42404e-08
1.16765e-05
-1.41901e-08
1.1678e-05
-1.41399e-08
1.16794e-05
-1.40897e-08
1.16808e-05
-1.40399e-08
1.16822e-05
-1.399e-08
1.16836e-05
-1.39403e-08
1.1685e-05
-1.38906e-08
1.16863e-05
-1.3841e-08
1.16877e-05
-1.37914e-08
1.16891e-05
-1.37419e-08
1.16905e-05
-1.36924e-08
1.16918e-05
-1.3643e-08
1.16932e-05
-1.35935e-08
1.16945e-05
-1.35441e-08
1.16958e-05
-1.34947e-08
1.16972e-05
-1.34454e-08
1.16985e-05
-1.33959e-08
1.16998e-05
-1.33467e-08
1.17011e-05
-1.32974e-08
1.17024e-05
-1.32483e-08
1.17037e-05
-1.31992e-08
1.1705e-05
-1.31506e-08
1.17063e-05
-1.31018e-08
1.17076e-05
-1.3054e-08
1.17088e-05
-1.30057e-08
1.17101e-05
-1.2959e-08
1.17114e-05
-1.29117e-08
1.17126e-05
-1.28667e-08
1.17138e-05
-1.28208e-08
1.17151e-05
-1.27785e-08
1.17163e-05
-1.27342e-08
1.17175e-05
-1.26957e-08
1.17187e-05
-1.26536e-08
1.17199e-05
-1.26203e-08
1.17211e-05
-1.25805e-08
1.17223e-05
-1.25546e-08
1.17235e-05
-1.25167e-08
1.17247e-05
-1.25012e-08
1.17258e-05
-1.24641e-08
1.1727e-05
-1.24625e-08
1.17281e-05
-1.24244e-08
1.17293e-05
-1.24412e-08
1.17304e-05
-1.23986e-08
1.17316e-05
-1.24391e-08
1.17327e-05
-1.23861e-08
1.17339e-05
-1.24559e-08
1.1735e-05
-1.23867e-08
1.17362e-05
-1.24852e-08
1.17373e-05
-1.24064e-08
1.17385e-05
-1.2515e-08
-1.24289e-08
1.24875e-05
1.24887e-05
1.249e-05
1.24912e-05
1.24925e-05
1.24937e-05
1.24949e-05
1.24961e-05
1.24973e-05
1.24985e-05
1.24997e-05
1.25009e-05
1.25021e-05
1.25033e-05
1.25044e-05
1.25056e-05
1.25067e-05
1.25079e-05
1.2509e-05
1.25101e-05
1.25112e-05
1.25124e-05
1.25135e-05
1.25146e-05
1.25157e-05
1.25167e-05
1.25178e-05
1.25189e-05
1.252e-05
1.2521e-05
1.25221e-05
1.25231e-05
1.25242e-05
1.25252e-05
1.25262e-05
1.25273e-05
1.25283e-05
1.25293e-05
1.25303e-05
1.25313e-05
1.25323e-05
1.25333e-05
1.25343e-05
1.25353e-05
1.25362e-05
1.25372e-05
1.25382e-05
1.25391e-05
1.25401e-05
1.2541e-05
1.2542e-05
1.25429e-05
1.25438e-05
1.25447e-05
1.25457e-05
1.25466e-05
1.25475e-05
1.25484e-05
1.25493e-05
1.25502e-05
1.25511e-05
1.2552e-05
1.25528e-05
1.25537e-05
1.25546e-05
1.25555e-05
1.25563e-05
1.25572e-05
1.2558e-05
1.25589e-05
1.25597e-05
1.25606e-05
1.25614e-05
1.25622e-05
1.2563e-05
1.25639e-05
1.25647e-05
1.25655e-05
1.25663e-05
1.25671e-05
1.25679e-05
1.25687e-05
1.25695e-05
1.25703e-05
1.25711e-05
1.25718e-05
1.25726e-05
1.25734e-05
1.25742e-05
1.25749e-05
1.25757e-05
1.25764e-05
1.25772e-05
1.25779e-05
1.25786e-05
1.25794e-05
1.25801e-05
1.25808e-05
1.25815e-05
1.25822e-05
1.25829e-05
1.25836e-05
1.25843e-05
1.2585e-05
1.25857e-05
1.25863e-05
1.2587e-05
1.25877e-05
1.25883e-05
1.25889e-05
1.25896e-05
1.25902e-05
1.25908e-05
1.25914e-05