/*--------------------------------*- C++ -*----------------------------------*\
| =========                 |                                                 |
| \\      /  F ield         | OpenFOAM: The Open Source CFD Toolbox           |
|  \\    /   O peration     | Version:                                        |
|   \\  /    A nd           | Website:  www.openfoam.com                      |
|    \\/     M anipulation  |                                                 |
\*---------------------------------------------------------------------------*/
FoamFile
{
    version     2.0;
    format      ascii;
    class       volVectorField;
    location    "563";
    object      U;
}
// * * * * * * * * * * * * * * * * * * * * * * * * * * * * * * * * * * * * * //

dimensions      [0 1 -1 0 0 0 0];


internalField   nonuniform List<vector> 
1250
(
(1.68621 -0.000335703 -3.52675e-14)
(1.68706 -0.000334769 -3.54369e-14)
(1.6879 -0.000333837 -3.57813e-14)
(1.68875 -0.000332908 -3.58963e-14)
(1.68959 -0.000331981 -3.62031e-14)
(1.69043 -0.000331056 -3.65919e-14)
(1.69127 -0.000330134 -3.66544e-14)
(1.69211 -0.000329214 -3.70896e-14)
(1.69294 -0.000328297 -3.71978e-14)
(1.69377 -0.000327382 -3.7616e-14)
(1.6946 -0.000326469 -3.78391e-14)
(1.69543 -0.000325558 -3.80721e-14)
(1.69625 -0.00032465 -3.81429e-14)
(1.69708 -0.000323744 -3.87682e-14)
(1.6979 -0.000322841 -3.83522e-14)
(1.69871 -0.00032194 -3.94677e-14)
(1.69953 -0.000321041 -3.85353e-14)
(1.70034 -0.000320144 -4.04344e-14)
(1.70115 -0.00031925 -3.84317e-14)
(1.70196 -0.000318358 -4.20988e-14)
(1.70277 -0.000317469 -3.67958e-14)
(1.70357 -0.000316581 -4.56086e-14)
(1.70437 -0.000315696 -3.29512e-14)
(1.70517 -0.000314814 -4.03061e-14)
(1.70597 -0.000313933 -4.10258e-14)
(1.70676 -0.000313055 -4.13894e-14)
(1.70755 -0.000312179 -4.14834e-14)
(1.70834 -0.000311306 -4.1888e-14)
(1.70913 -0.000310434 -4.21021e-14)
(1.70992 -0.000309565 -4.2369e-14)
(1.7107 -0.000308699 -4.24455e-14)
(1.71148 -0.000307834 -4.27821e-14)
(1.71226 -0.000306972 -4.28505e-14)
(1.71304 -0.000306112 -4.32514e-14)
(1.71381 -0.000305254 -4.3304e-14)
(1.71459 -0.000304399 -4.35066e-14)
(1.71536 -0.000303546 -4.37798e-14)
(1.71613 -0.000302695 -4.3845e-14)
(1.71689 -0.000301846 -4.40784e-14)
(1.71766 -0.000301 -4.40721e-14)
(1.71842 -0.000300155 -4.43241e-14)
(1.71918 -0.000299314 -4.4517e-14)
(1.71993 -0.000298474 -4.46488e-14)
(1.72069 -0.000297636 -4.48389e-14)
(1.72144 -0.000296801 -4.49142e-14)
(1.72219 -0.000295968 -4.50726e-14)
(1.72294 -0.000295137 -4.51807e-14)
(1.72369 -0.000294308 -4.53494e-14)
(1.72443 -0.000293482 -4.55327e-14)
(1.72518 -0.000292657 -4.56514e-14)
(1.72592 -0.000291835 -4.56894e-14)
(1.72666 -0.000291015 -4.59031e-14)
(1.72739 -0.000290197 -4.58898e-14)
(1.72813 -0.000289381 -4.61461e-14)
(1.72886 -0.000288567 -4.60029e-14)
(1.72959 -0.000287756 -4.6256e-14)
(1.73032 -0.000286946 -4.61734e-14)
(1.73104 -0.000286138 -4.64553e-14)
(1.73177 -0.000285333 -4.63447e-14)
(1.73249 -0.000284529 -4.65711e-14)
(1.73321 -0.000283727 -4.67359e-14)
(1.73393 -0.000282928 -4.66424e-14)
(1.73464 -0.00028213 -4.68036e-14)
(1.73536 -0.000281334 -4.68163e-14)
(1.73607 -0.000280539 -4.67942e-14)
(1.73678 -0.000279747 -4.69587e-14)
(1.73748 -0.000278955 -4.70221e-14)
(1.73819 -0.000278166 -4.70366e-14)
(1.73889 -0.000277378 -4.71066e-14)
(1.7396 -0.000276592 -4.71153e-14)
(1.7403 -0.000275806 -4.71745e-14)
(1.74099 -0.000275024 -4.71721e-14)
(1.74169 -0.000274241 -4.71593e-14)
(1.74238 -0.000273461 -4.72605e-14)
(1.74307 -0.00027268 -4.72854e-14)
(1.74376 -0.000271903 -4.72284e-14)
(1.74445 -0.000271125 -4.7265e-14)
(1.74514 -0.000270351 -4.72595e-14)
(1.74582 -0.000269575 -4.72708e-14)
(1.7465 -0.000268804 -4.72843e-14)
(1.74718 -0.000268031 -4.73523e-14)
(1.74786 -0.000267263 -4.73085e-14)
(1.74854 -0.000266493 -4.72332e-14)
(1.74921 -0.00026573 -4.73304e-14)
(1.74988 -0.000264963 -4.72066e-14)
(1.75055 -0.000264206 -4.7266e-14)
(1.75122 -0.000263445 -4.72494e-14)
(1.75189 -0.000262696 -4.71695e-14)
(1.75255 -0.000261941 -4.72368e-14)
(1.75321 -0.000261204 -4.72491e-14)
(1.75387 -0.000260457 -4.71435e-14)
(1.75453 -0.000259735 -4.70728e-14)
(1.75519 -0.000259 -4.70808e-14)
(1.75584 -0.000258299 -4.69872e-14)
(1.7565 -0.000257576 -4.69884e-14)
(1.75715 -0.000256903 -4.70284e-14)
(1.7578 -0.000256197 -4.6924e-14)
(1.75844 -0.000255561 -4.69493e-14)
(1.75909 -0.000254873 -4.68351e-14)
(1.75974 -0.000254285 -4.67776e-14)
(1.76038 -0.000253615 -4.68027e-14)
(1.76102 -0.00025309 -4.67183e-14)
(1.76166 -0.000252437 -4.67338e-14)
(1.7623 -0.00025199 -4.67845e-14)
(1.76294 -0.000251349 -4.67232e-14)
(1.76357 -0.000251001 -4.66925e-14)
(1.76421 -0.000250361 -4.67513e-14)
(1.76483 -0.000250137 -4.6694e-14)
(1.76548 -0.000249478 -4.67071e-14)
(1.76609 -0.00024941 -4.67413e-14)
(1.76675 -0.000248699 -4.67614e-14)
(1.76735 -0.000248829 -4.67183e-14)
(1.76801 -0.000248014 -4.67421e-14)
(1.7686 -0.000248394 -4.6757e-14)
(1.76928 -0.000247403 -4.68135e-14)
(1.76984 -0.000248088 -4.67896e-14)
(1.77055 -0.00024689 -4.68013e-14)
(1.77107 -0.000247856 -4.68599e-14)
(1.77182 -0.000246652 -4.6936e-14)
(1.77229 -0.000247744 -4.68938e-14)
(1.77311 -0.000246586 -4.70647e-14)
(1.77349 -0.000247887 -4.69719e-14)
(1.77443 -0.000245019 -4.70363e-14)
(1.77467 -0.000248914 -4.69365e-14)
(1.77577 -0.00024094 -4.70787e-14)
(1.68472 -0.000839858 -1.02569e-13)
(1.68555 -0.000837495 -1.03334e-13)
(1.68639 -0.000835138 -1.03991e-13)
(1.68722 -0.000832787 -1.04719e-13)
(1.68805 -0.000830443 -1.05396e-13)
(1.68887 -0.000828104 -1.06151e-13)
(1.6897 -0.000825772 -1.06785e-13)
(1.69052 -0.000823446 -1.0753e-13)
(1.69134 -0.000821126 -1.08085e-13)
(1.69215 -0.000818812 -1.09005e-13)
(1.69297 -0.000816504 -1.09452e-13)
(1.69378 -0.000814203 -1.10412e-13)
(1.69459 -0.000811907 -1.1072e-13)
(1.6954 -0.000809618 -1.12019e-13)
(1.6962 -0.000807334 -1.11798e-13)
(1.69701 -0.000805057 -1.13767e-13)
(1.69781 -0.000802785 -1.12683e-13)
(1.69861 -0.00080052 -1.1583e-13)
(1.6994 -0.000798261 -1.13201e-13)
(1.7002 -0.000796007 -1.1848e-13)
(1.70099 -0.00079376 -1.12658e-13)
(1.70178 -0.000791519 -1.22253e-13)
(1.70256 -0.000789283 -1.10992e-13)
(1.70335 -0.000787054 -1.1819e-13)
(1.70413 -0.00078483 -1.19427e-13)
(1.70491 -0.000782613 -1.201e-13)
(1.70569 -0.000780401 -1.20211e-13)
(1.70647 -0.000778196 -1.21548e-13)
(1.70724 -0.000775996 -1.21202e-13)
(1.70801 -0.000773802 -1.22715e-13)
(1.70878 -0.000771614 -1.22295e-13)
(1.70955 -0.000769432 -1.23673e-13)
(1.71031 -0.000767256 -1.23659e-13)
(1.71107 -0.000765086 -1.24377e-13)
(1.71184 -0.000762921 -1.24858e-13)
(1.71259 -0.000760763 -1.25416e-13)
(1.71335 -0.00075861 -1.25826e-13)
(1.7141 -0.000756463 -1.26254e-13)
(1.71485 -0.000754322 -1.26742e-13)
(1.7156 -0.000752186 -1.27168e-13)
(1.71635 -0.000750057 -1.27576e-13)
(1.7171 -0.000747933 -1.27997e-13)
(1.71784 -0.000745815 -1.284e-13)
(1.71858 -0.000743702 -1.28783e-13)
(1.71932 -0.000741596 -1.29148e-13)
(1.72006 -0.000739495 -1.29549e-13)
(1.72079 -0.0007374 -1.29819e-13)
(1.72152 -0.00073531 -1.30226e-13)
(1.72225 -0.000733226 -1.30498e-13)
(1.72298 -0.000731148 -1.30933e-13)
(1.72371 -0.000729075 -1.31035e-13)
(1.72443 -0.000727008 -1.3159e-13)
(1.72515 -0.000724946 -1.3158e-13)
(1.72587 -0.00072289 -1.3212e-13)
(1.72659 -0.000720839 -1.31993e-13)
(1.72731 -0.000718794 -1.32706e-13)
(1.72802 -0.000716754 -1.32364e-13)
(1.72873 -0.000714719 -1.33196e-13)
(1.72944 -0.000712689 -1.32673e-13)
(1.73015 -0.000710665 -1.33663e-13)
(1.73086 -0.000708645 -1.33064e-13)
(1.73156 -0.000706631 -1.33888e-13)
(1.73226 -0.000704621 -1.33666e-13)
(1.73296 -0.000702616 -1.33987e-13)
(1.73366 -0.000700615 -1.34066e-13)
(1.73435 -0.000698619 -1.34135e-13)
(1.73505 -0.000696627 -1.34243e-13)
(1.73574 -0.00069464 -1.34316e-13)
(1.73643 -0.000692656 -1.34387e-13)
(1.73712 -0.000690677 -1.34443e-13)
(1.7378 -0.000688701 -1.34508e-13)
(1.73848 -0.000686729 -1.34579e-13)
(1.73917 -0.00068476 -1.34576e-13)
(1.73985 -0.000682796 -1.34575e-13)
(1.74052 -0.000680833 -1.34648e-13)
(1.7412 -0.000678876 -1.34687e-13)
(1.74187 -0.000676919 -1.34699e-13)
(1.74254 -0.000674969 -1.34714e-13)
(1.74321 -0.000673019 -1.34693e-13)
(1.74388 -0.000671077 -1.34673e-13)
(1.74455 -0.000669133 -1.34649e-13)
(1.74521 -0.0006672 -1.34649e-13)
(1.74587 -0.000665264 -1.34585e-13)
(1.74653 -0.000663342 -1.34519e-13)
(1.74719 -0.000661415 -1.34458e-13)
(1.74785 -0.000659508 -1.34407e-13)
(1.7485 -0.000657594 -1.34345e-13)
(1.74915 -0.000655706 -1.34272e-13)
(1.7498 -0.000653808 -1.34173e-13)
(1.75045 -0.000651948 -1.34072e-13)
(1.7511 -0.000650071 -1.3394e-13)
(1.75174 -0.000648248 -1.33847e-13)
(1.75239 -0.000646398 -1.33817e-13)
(1.75303 -0.000644626 -1.33693e-13)
(1.75367 -0.000642809 -1.33563e-13)
(1.7543 -0.000641105 -1.33494e-13)
(1.75494 -0.000639328 -1.33407e-13)
(1.75557 -0.000637714 -1.33314e-13)
(1.75621 -0.000635983 -1.3324e-13)
(1.75684 -0.000634486 -1.33177e-13)
(1.75747 -0.000632804 -1.33128e-13)
(1.75809 -0.000631457 -1.33076e-13)
(1.75872 -0.000629823 -1.33047e-13)
(1.75934 -0.000628663 -1.33055e-13)
(1.75997 -0.00062707 -1.33093e-13)
(1.76059 -0.000626142 -1.33063e-13)
(1.76121 -0.000624572 -1.33099e-13)
(1.76182 -0.000623928 -1.33161e-13)
(1.76246 -0.000622345 -1.33214e-13)
(1.76306 -0.000622051 -1.33249e-13)
(1.76369 -0.000620391 -1.33372e-13)
(1.76428 -0.000620531 -1.33405e-13)
(1.76493 -0.000618695 -1.33543e-13)
(1.76551 -0.000619367 -1.33599e-13)
(1.76617 -0.000617222 -1.33785e-13)
(1.76672 -0.00061853 -1.33802e-13)
(1.76741 -0.000615996 -1.34015e-13)
(1.76793 -0.000617949 -1.34015e-13)
(1.76866 -0.000615302 -1.34253e-13)
(1.76912 -0.000617599 -1.34221e-13)
(1.76992 -0.000615032 -1.34551e-13)
(1.77029 -0.000617492 -1.34397e-13)
(1.77121 -0.000613734 -1.34801e-13)
(1.77144 -0.000618496 -1.34524e-13)
(1.77252 -0.000613253 -1.35111e-13)
(1.68117 -0.0013104 -1.81754e-13)
(1.68197 -0.00130663 -1.82954e-13)
(1.68277 -0.00130287 -1.84101e-13)
(1.68357 -0.00129913 -1.85263e-13)
(1.68437 -0.00129539 -1.86389e-13)
(1.68516 -0.00129167 -1.87542e-13)
(1.68596 -0.00128795 -1.8865e-13)
(1.68675 -0.00128424 -1.89818e-13)
(1.68753 -0.00128055 -1.90964e-13)
(1.68832 -0.00127687 -1.92076e-13)
(1.6891 -0.00127319 -1.9322e-13)
(1.68988 -0.00126953 -1.94295e-13)
(1.69066 -0.00126587 -1.95506e-13)
(1.69144 -0.00126223 -1.96455e-13)
(1.69221 -0.0012586 -1.97712e-13)
(1.69298 -0.00125498 -1.98512e-13)
(1.69375 -0.00125136 -1.9999e-13)
(1.69452 -0.00124776 -2.00471e-13)
(1.69528 -0.00124417 -2.02418e-13)
(1.69604 -0.00124059 -2.02162e-13)
(1.6968 -0.00123701 -2.05058e-13)
(1.69756 -0.00123345 -2.03334e-13)
(1.69831 -0.0012299 -2.08267e-13)
(1.69907 -0.00122636 -2.03535e-13)
(1.69982 -0.00122283 -2.12066e-13)
(1.70057 -0.0012193 -2.03214e-13)
(1.70131 -0.00121579 -2.07651e-13)
(1.70206 -0.00121229 -2.11659e-13)
(1.7028 -0.0012088 -2.08677e-13)
(1.70354 -0.00120531 -2.14382e-13)
(1.70428 -0.00120184 -2.08565e-13)
(1.70501 -0.00119838 -2.17871e-13)
(1.70574 -0.00119493 -2.07613e-13)
(1.70647 -0.00119148 -2.13897e-13)
(1.7072 -0.00118805 -2.1481e-13)
(1.70793 -0.00118463 -2.15448e-13)
(1.70865 -0.00118121 -2.16025e-13)
(1.70938 -0.00117781 -2.16611e-13)
(1.7101 -0.00117442 -2.17099e-13)
(1.71081 -0.00117103 -2.17658e-13)
(1.71153 -0.00116766 -2.18096e-13)
(1.71224 -0.00116429 -2.18562e-13)
(1.71295 -0.00116093 -2.18979e-13)
(1.71366 -0.00115759 -2.19481e-13)
(1.71437 -0.00115425 -2.198e-13)
(1.71508 -0.00115093 -2.20232e-13)
(1.71578 -0.00114761 -2.20454e-13)
(1.71648 -0.0011443 -2.20928e-13)
(1.71718 -0.001141 -2.20982e-13)
(1.71787 -0.00113771 -2.21553e-13)
(1.71857 -0.00113443 -2.21414e-13)
(1.71926 -0.00113116 -2.2217e-13)
(1.71995 -0.0011279 -2.21773e-13)
(1.72064 -0.00112465 -2.22836e-13)
(1.72133 -0.0011214 -2.21958e-13)
(1.72201 -0.00111817 -2.23549e-13)
(1.72269 -0.00111494 -2.21844e-13)
(1.72337 -0.00111173 -2.24376e-13)
(1.72405 -0.00110852 -2.21349e-13)
(1.72473 -0.00110532 -2.2559e-13)
(1.7254 -0.00110213 -2.20224e-13)
(1.72608 -0.00109894 -2.27452e-13)
(1.72675 -0.00109577 -2.18355e-13)
(1.72741 -0.0010926 -2.2291e-13)
(1.72808 -0.00108944 -2.2317e-13)
(1.72875 -0.00108629 -2.23134e-13)
(1.72941 -0.00108314 -2.23067e-13)
(1.73007 -0.00108 -2.23021e-13)
(1.73073 -0.00107687 -2.23014e-13)
(1.73138 -0.00107375 -2.22957e-13)
(1.73204 -0.00107063 -2.22914e-13)
(1.73269 -0.00106752 -2.22855e-13)
(1.73334 -0.00106441 -2.22764e-13)
(1.73399 -0.00106131 -2.22694e-13)
(1.73464 -0.00105822 -2.22575e-13)
(1.73528 -0.00105513 -2.22483e-13)
(1.73592 -0.00105204 -2.22365e-13)
(1.73656 -0.00104897 -2.22261e-13)
(1.7372 -0.00104589 -2.2215e-13)
(1.73784 -0.00104283 -2.21986e-13)
(1.73848 -0.00103976 -2.21786e-13)
(1.73911 -0.00103671 -2.21582e-13)
(1.73974 -0.00103366 -2.21342e-13)
(1.74037 -0.00103062 -2.21077e-13)
(1.741 -0.00102759 -2.20831e-13)
(1.74162 -0.00102457 -2.20546e-13)
(1.74225 -0.00102155 -2.20275e-13)
(1.74287 -0.00101857 -2.19989e-13)
(1.74349 -0.00101558 -2.19721e-13)
(1.74411 -0.00101264 -2.1949e-13)
(1.74472 -0.00100967 -2.19277e-13)
(1.74534 -0.00100679 -2.19106e-13)
(1.74595 -0.00100387 -2.18955e-13)
(1.74656 -0.00100106 -2.18819e-13)
(1.74717 -0.000998189 -2.18749e-13)
(1.74778 -0.000995481 -2.18715e-13)
(1.74838 -0.000992678 -2.18714e-13)
(1.74898 -0.000990105 -2.18754e-13)
(1.74959 -0.000987379 -2.18833e-13)
(1.75019 -0.00098498 -2.18949e-13)
(1.75079 -0.00098234 -2.19127e-13)
(1.75138 -0.000980163 -2.19316e-13)
(1.75198 -0.000977617 -2.19565e-13)
(1.75257 -0.000975715 -2.19822e-13)
(1.75317 -0.000973261 -2.20162e-13)
(1.75376 -0.000971696 -2.20487e-13)
(1.75435 -0.000969321 -2.20867e-13)
(1.75493 -0.000968163 -2.21225e-13)
(1.75553 -0.000965834 -2.21704e-13)
(1.75611 -0.000965164 -2.22068e-13)
(1.75671 -0.000962814 -2.22552e-13)
(1.75727 -0.000962734 -2.2297e-13)
(1.75789 -0.000960251 -2.2352e-13)
(1.75844 -0.000960883 -2.23895e-13)
(1.75906 -0.000958108 -2.24507e-13)
(1.75959 -0.000959604 -2.24833e-13)
(1.76024 -0.000956358 -2.25499e-13)
(1.76074 -0.000958903 -2.25738e-13)
(1.76143 -0.000955092 -2.26488e-13)
(1.76187 -0.000958767 -2.26608e-13)
(1.76264 -0.000954345 -2.27413e-13)
(1.76299 -0.000958807 -2.27369e-13)
(1.76387 -0.00095469 -2.28378e-13)
(1.76409 -0.000959835 -2.28004e-13)
(1.76511 -0.000957438 -2.29304e-13)
(1.67502 -0.00178357 -2.81135e-13)
(1.67578 -0.00177828 -2.82702e-13)
(1.67653 -0.001773 -2.84163e-13)
(1.67728 -0.00176774 -2.85763e-13)
(1.67803 -0.0017625 -2.8717e-13)
(1.67877 -0.00175727 -2.88722e-13)
(1.67951 -0.00175206 -2.90121e-13)
(1.68026 -0.00174686 -2.91655e-13)
(1.68099 -0.00174169 -2.92935e-13)
(1.68173 -0.00173652 -2.9447e-13)
(1.68246 -0.00173137 -2.9584e-13)
(1.6832 -0.00172624 -2.97226e-13)
(1.68392 -0.00172112 -2.98585e-13)
(1.68465 -0.00171602 -2.99833e-13)
(1.68538 -0.00171093 -3.01513e-13)
(1.6861 -0.00170586 -3.0233e-13)
(1.68682 -0.00170081 -3.04351e-13)
(1.68754 -0.00169577 -3.04556e-13)
(1.68825 -0.00169074 -3.07339e-13)
(1.68896 -0.00168573 -3.06753e-13)
(1.68968 -0.00168074 -3.09915e-13)
(1.69038 -0.00167576 -3.07564e-13)
(1.69109 -0.0016708 -3.12208e-13)
(1.69179 -0.00166585 -3.07324e-13)
(1.6925 -0.00166091 -3.148e-13)
(1.6932 -0.001656 -3.06207e-13)
(1.69389 -0.00165109 -3.10385e-13)
(1.69459 -0.0016462 -3.13558e-13)
(1.69528 -0.00164133 -3.10599e-13)
(1.69597 -0.00163647 -3.1557e-13)
(1.69666 -0.00163163 -3.1006e-13)
(1.69735 -0.0016268 -3.18546e-13)
(1.69803 -0.00162198 -3.09097e-13)
(1.69872 -0.00161718 -3.14675e-13)
(1.6994 -0.0016124 -3.15137e-13)
(1.70007 -0.00160763 -3.15063e-13)
(1.70075 -0.00160287 -3.15159e-13)
(1.70142 -0.00159813 -3.15126e-13)
(1.7021 -0.0015934 -3.15172e-13)
(1.70277 -0.00158869 -3.15327e-13)
(1.70343 -0.00158399 -3.153e-13)
(1.7041 -0.00157931 -3.15659e-13)
(1.70476 -0.00157464 -3.15863e-13)
(1.70542 -0.00156998 -3.15756e-13)
(1.70608 -0.00156534 -3.15706e-13)
(1.70674 -0.00156072 -3.15444e-13)
(1.70739 -0.00155611 -3.15264e-13)
(1.70805 -0.00155151 -3.15092e-13)
(1.7087 -0.00154692 -3.14829e-13)
(1.70935 -0.00154235 -3.14966e-13)
(1.70999 -0.0015378 -3.14563e-13)
(1.71064 -0.00153325 -3.15204e-13)
(1.71128 -0.00152872 -3.14717e-13)
(1.71192 -0.00152421 -3.15248e-13)
(1.71256 -0.0015197 -3.14046e-13)
(1.7132 -0.00151522 -3.15106e-13)
(1.71383 -0.00151074 -3.13021e-13)
(1.71447 -0.00150628 -3.15051e-13)
(1.7151 -0.00150183 -3.11986e-13)
(1.71573 -0.00149739 -3.15075e-13)
(1.71635 -0.00149297 -3.09713e-13)
(1.71698 -0.00148855 -3.15319e-13)
(1.7176 -0.00148415 -3.06689e-13)
(1.71822 -0.00147976 -3.10318e-13)
(1.71884 -0.00147539 -3.10115e-13)
(1.71946 -0.00147102 -3.09633e-13)
(1.72008 -0.00146667 -3.09314e-13)
(1.72069 -0.00146232 -3.09123e-13)
(1.7213 -0.00145799 -3.09132e-13)
(1.72191 -0.00145366 -3.08641e-13)
(1.72252 -0.00144935 -3.08395e-13)
(1.72312 -0.00144504 -3.07983e-13)
(1.72373 -0.00144074 -3.0756e-13)
(1.72433 -0.00143646 -3.07447e-13)
(1.72493 -0.00143217 -3.07129e-13)
(1.72553 -0.0014279 -3.06755e-13)
(1.72613 -0.00142364 -3.06036e-13)
(1.72672 -0.00141938 -3.05713e-13)
(1.72731 -0.00141513 -3.05084e-13)
(1.7279 -0.00141089 -3.04283e-13)
(1.72849 -0.00140665 -3.03384e-13)
(1.72908 -0.00140244 -3.02477e-13)
(1.72966 -0.00139822 -3.01601e-13)
(1.73025 -0.00139402 -3.00826e-13)
(1.73083 -0.00138982 -3.00169e-13)
(1.73141 -0.00138565 -2.99638e-13)
(1.73199 -0.00138147 -2.99248e-13)
(1.73256 -0.00137734 -2.99014e-13)
(1.73314 -0.0013732 -2.98936e-13)
(1.73371 -0.00136912 -2.99024e-13)
(1.73428 -0.00136502 -2.99276e-13)
(1.73485 -0.00136102 -2.99657e-13)
(1.73542 -0.00135697 -3.00201e-13)
(1.73598 -0.00135307 -3.00812e-13)
(1.73655 -0.00134909 -3.01597e-13)
(1.73711 -0.00134532 -3.02468e-13)
(1.73767 -0.00134144 -3.0346e-13)
(1.73823 -0.00133784 -3.04481e-13)
(1.73878 -0.00133407 -3.05616e-13)
(1.73934 -0.00133071 -3.06808e-13)
(1.73989 -0.00132706 -3.08075e-13)
(1.74044 -0.00132399 -3.09326e-13)
(1.741 -0.00132049 -3.10641e-13)
(1.74154 -0.00131779 -3.11997e-13)
(1.7421 -0.00131444 -3.13411e-13)
(1.74264 -0.00131218 -3.14736e-13)
(1.74319 -0.00130898 -3.16156e-13)
(1.74372 -0.00130726 -3.17496e-13)
(1.74428 -0.00130417 -3.18938e-13)
(1.74481 -0.00130311 -3.2022e-13)
(1.74537 -0.00130006 -3.21659e-13)
(1.74589 -0.00129979 -3.2291e-13)
(1.74645 -0.00129664 -3.24326e-13)
(1.74696 -0.00129734 -3.25441e-13)
(1.74754 -0.00129389 -3.26871e-13)
(1.74803 -0.00129579 -3.27853e-13)
(1.74863 -0.0012917 -3.29306e-13)
(1.74909 -0.00129521 -3.3009e-13)
(1.74973 -0.00128988 -3.31533e-13)
(1.75014 -0.00129562 -3.32101e-13)
(1.75084 -0.00128864 -3.33679e-13)
(1.75116 -0.00129638 -3.33837e-13)
(1.75198 -0.00129044 -3.35626e-13)
(1.75218 -0.00129809 -3.3526e-13)
(1.75313 -0.00129447 -3.37564e-13)
(1.66534 -0.00218967 -4.0596e-13)
(1.66603 -0.00218291 -4.07641e-13)
(1.66672 -0.00217617 -4.09304e-13)
(1.6674 -0.00216945 -4.10997e-13)
(1.66808 -0.00216276 -4.12561e-13)
(1.66876 -0.00215609 -4.14172e-13)
(1.66944 -0.00214944 -4.15534e-13)
(1.67011 -0.00214281 -4.17223e-13)
(1.67078 -0.0021362 -4.18418e-13)
(1.67145 -0.00212962 -4.20243e-13)
(1.67212 -0.00212306 -4.21032e-13)
(1.67279 -0.00211652 -4.23226e-13)
(1.67345 -0.00211 -4.23444e-13)
(1.67411 -0.00210351 -4.26118e-13)
(1.67477 -0.00209703 -4.25799e-13)
(1.67543 -0.00209058 -4.2865e-13)
(1.67608 -0.00208415 -4.28489e-13)
(1.67673 -0.00207774 -4.29975e-13)
(1.67738 -0.00207135 -4.33119e-13)
(1.67803 -0.00206498 -4.27627e-13)
(1.67868 -0.00205864 -4.23976e-13)
(1.67932 -0.00205231 -4.205e-13)
(1.67996 -0.00204601 -4.1894e-13)
(1.6806 -0.00203972 -4.16818e-13)
(1.68124 -0.00203346 -4.16928e-13)
(1.68187 -0.00202722 -4.1579e-13)
(1.6825 -0.002021 -4.16884e-13)
(1.68313 -0.0020148 -4.16404e-13)
(1.68376 -0.00200862 -4.1824e-13)
(1.68439 -0.00200247 -4.18484e-13)
(1.68501 -0.00199633 -4.19522e-13)
(1.68563 -0.00199021 -4.23165e-13)
(1.68625 -0.00198411 -4.18044e-13)
(1.68687 -0.00197804 -4.14031e-13)
(1.68749 -0.00197198 -4.12072e-13)
(1.6881 -0.00196594 -4.09615e-13)
(1.68871 -0.00195993 -4.09894e-13)
(1.68932 -0.00195393 -4.08415e-13)
(1.68993 -0.00194796 -4.10224e-13)
(1.69053 -0.001942 -4.09764e-13)
(1.69114 -0.00193606 -4.11173e-13)
(1.69174 -0.00193015 -4.1447e-13)
(1.69234 -0.00192425 -4.09576e-13)
(1.69294 -0.00191837 -4.05588e-13)
(1.69353 -0.00191251 -4.03833e-13)
(1.69412 -0.00190668 -4.01461e-13)
(1.69472 -0.00190086 -4.02125e-13)
(1.69531 -0.00189506 -4.00621e-13)
(1.69589 -0.00188928 -4.03019e-13)
(1.69648 -0.00188351 -4.02436e-13)
(1.69706 -0.00187777 -4.0465e-13)
(1.69764 -0.00187205 -4.0762e-13)
(1.69822 -0.00186634 -4.03674e-13)
(1.6988 -0.00186066 -3.99143e-13)
(1.69938 -0.00185499 -3.98057e-13)
(1.69995 -0.00184934 -3.95935e-13)
(1.70052 -0.00184371 -3.95339e-13)
(1.70109 -0.00183809 -3.9796e-13)
(1.70166 -0.0018325 -3.91622e-13)
(1.70223 -0.00182692 -3.87458e-13)
(1.70279 -0.00182135 -3.84766e-13)
(1.70336 -0.00181581 -3.82695e-13)
(1.70392 -0.00181028 -3.83133e-13)
(1.70448 -0.00180477 -3.81957e-13)
(1.70503 -0.00179927 -3.84811e-13)
(1.70559 -0.00179379 -3.84565e-13)
(1.70614 -0.00178832 -3.87661e-13)
(1.7067 -0.00178287 -3.90969e-13)
(1.70725 -0.00177743 -3.88303e-13)
(1.70779 -0.00177201 -3.83522e-13)
(1.70834 -0.0017666 -3.84491e-13)
(1.70888 -0.0017612 -3.81694e-13)
(1.70943 -0.00175581 -3.83858e-13)
(1.70997 -0.00175044 -3.85544e-13)
(1.71051 -0.00174507 -3.82097e-13)
(1.71104 -0.00173972 -3.77329e-13)
(1.71158 -0.00173437 -3.75801e-13)
(1.71211 -0.00172904 -3.772e-13)
(1.71265 -0.00172372 -3.70557e-13)
(1.71318 -0.00171841 -3.66039e-13)
(1.71371 -0.0017131 -3.63287e-13)
(1.71423 -0.00170781 -3.62044e-13)
(1.71476 -0.00170253 -3.61972e-13)
(1.71528 -0.00169727 -3.62962e-13)
(1.7158 -0.001692 -3.64709e-13)
(1.71632 -0.00168678 -3.67126e-13)
(1.71684 -0.00168154 -3.7008e-13)
(1.71736 -0.00167636 -3.73395e-13)
(1.71787 -0.00167116 -3.77017e-13)
(1.71838 -0.00166603 -3.80863e-13)
(1.71889 -0.00166088 -3.84849e-13)
(1.7194 -0.00165584 -3.88926e-13)
(1.71991 -0.00165076 -3.93026e-13)
(1.72042 -0.00164583 -3.97097e-13)
(1.72092 -0.00164083 -4.01205e-13)
(1.72142 -0.00163606 -4.05139e-13)
(1.72193 -0.00163118 -4.08993e-13)
(1.72242 -0.00162662 -4.1278e-13)
(1.72292 -0.00162187 -4.16413e-13)
(1.72342 -0.00161758 -4.19901e-13)
(1.72391 -0.001613 -4.23288e-13)
(1.72441 -0.00160906 -4.2652e-13)
(1.7249 -0.00160468 -4.29648e-13)
(1.72539 -0.00160118 -4.32602e-13)
(1.72588 -0.00159701 -4.35496e-13)
(1.72636 -0.00159406 -4.38198e-13)
(1.72686 -0.00159011 -4.40853e-13)
(1.72734 -0.00158783 -4.43296e-13)
(1.72783 -0.00158407 -4.45748e-13)
(1.7283 -0.00158261 -4.47966e-13)
(1.7288 -0.00157896 -4.50224e-13)
(1.72926 -0.00157851 -4.52153e-13)
(1.72977 -0.0015748 -4.54218e-13)
(1.73022 -0.00157561 -4.5592e-13)
(1.73073 -0.00157158 -4.57879e-13)
(1.73117 -0.00157399 -4.59289e-13)
(1.73171 -0.00156915 -4.61133e-13)
(1.73212 -0.00157375 -4.62212e-13)
(1.73269 -0.00156712 -4.64022e-13)
(1.73305 -0.00157493 -4.64722e-13)
(1.73368 -0.00156582 -4.6657e-13)
(1.73397 -0.00157668 -4.6676e-13)
(1.7347 -0.0015691 -4.68833e-13)
(1.73488 -0.00157907 -4.68284e-13)
(1.73574 -0.001575 -4.70951e-13)
(1.65087 -0.0025326 -5.58191e-13)
(1.65148 -0.00252443 -5.58924e-13)
(1.65208 -0.00251628 -5.60538e-13)
(1.65268 -0.00250816 -5.60923e-13)
(1.65328 -0.00250008 -5.62662e-13)
(1.65387 -0.00249202 -5.62736e-13)
(1.65447 -0.00248399 -5.64517e-13)
(1.65506 -0.00247599 -5.64327e-13)
(1.65565 -0.00246803 -5.66055e-13)
(1.65624 -0.00246009 -5.65972e-13)
(1.65682 -0.00245218 -5.67003e-13)
(1.6574 -0.0024443 -5.68094e-13)
(1.65799 -0.00243644 -5.66798e-13)
(1.65856 -0.00242862 -5.71768e-13)
(1.65914 -0.00242083 -5.63931e-13)
(1.65972 -0.00241306 -5.79055e-13)
(1.66029 -0.00240532 -5.55262e-13)
(1.66086 -0.00239761 -5.94923e-13)
(1.66143 -0.00238993 -5.33588e-13)
(1.66199 -0.00238228 -4.32205e-13)
(1.66256 -0.00237466 -4.48652e-13)
(1.66312 -0.00236706 -4.66195e-13)
(1.66368 -0.00235949 -4.78633e-13)
(1.66424 -0.00235195 -4.92553e-13)
(1.66479 -0.00234444 -5.02818e-13)
(1.66535 -0.00233695 -5.123e-13)
(1.6659 -0.00232949 -5.23621e-13)
(1.66645 -0.00232206 -5.25168e-13)
(1.66699 -0.00231465 -5.4449e-13)
(1.66754 -0.00230727 -5.28725e-13)
(1.66808 -0.00229992 -5.71168e-13)
(1.66863 -0.0022926 -5.16226e-13)
(1.66917 -0.0022853 -4.12376e-13)
(1.6697 -0.00227803 -4.3589e-13)
(1.67024 -0.00227079 -4.5415e-13)
(1.67077 -0.00226357 -4.71006e-13)
(1.67131 -0.00225638 -4.88711e-13)
(1.67184 -0.00224921 -4.96134e-13)
(1.67236 -0.00224207 -5.19788e-13)
(1.67289 -0.00223496 -5.08095e-13)
(1.67342 -0.00222787 -5.5369e-13)
(1.67394 -0.00222081 -5.01122e-13)
(1.67446 -0.00221377 -3.96361e-13)
(1.67498 -0.00220676 -4.22831e-13)
(1.6755 -0.00219977 -4.41842e-13)
(1.67601 -0.00219281 -4.61254e-13)
(1.67652 -0.00218588 -4.79219e-13)
(1.67704 -0.00217897 -4.88529e-13)
(1.67755 -0.00217208 -5.12691e-13)
(1.67805 -0.00216522 -5.01449e-13)
(1.67856 -0.00215838 -5.49382e-13)
(1.67906 -0.00215157 -4.93883e-13)
(1.67957 -0.00214478 -3.92458e-13)
(1.68007 -0.00213802 -4.1124e-13)
(1.68057 -0.00213128 -4.44359e-13)
(1.68106 -0.00212456 -4.41302e-13)
(1.68156 -0.00211787 -4.94708e-13)
(1.68205 -0.0021112 -4.47796e-13)
(1.68254 -0.00210455 -3.45372e-13)
(1.68303 -0.00209793 -3.78726e-13)
(1.68352 -0.00209133 -4.02611e-13)
(1.68401 -0.00208475 -4.28606e-13)
(1.6845 -0.00207819 -4.50064e-13)
(1.68498 -0.00207165 -4.65392e-13)
(1.68546 -0.00206513 -4.93028e-13)
(1.68594 -0.00205863 -4.86762e-13)
(1.68642 -0.00205216 -5.37849e-13)
(1.6869 -0.0020457 -4.85598e-13)
(1.68737 -0.00203926 -3.82526e-13)
(1.68784 -0.00203283 -4.05438e-13)
(1.68832 -0.00202643 -4.43361e-13)
(1.68879 -0.00202004 -4.40585e-13)
(1.68925 -0.00201366 -5.03997e-13)
(1.68972 -0.0020073 -4.48343e-13)
(1.69019 -0.00200096 -3.62414e-13)
(1.69065 -0.00199463 -3.7016e-13)
(1.69111 -0.00198831 -4.39507e-13)
(1.69157 -0.001982 -3.98343e-13)
(1.69203 -0.00197571 -3.04103e-13)
(1.69249 -0.00196943 -3.42128e-13)
(1.69294 -0.00196315 -3.76054e-13)
(1.6934 -0.0019569 -4.05852e-13)
(1.69385 -0.00195065 -4.32502e-13)
(1.6943 -0.00194442 -4.561e-13)
(1.69475 -0.00193819 -4.77018e-13)
(1.69519 -0.001932 -4.95852e-13)
(1.69564 -0.0019258 -5.12498e-13)
(1.69608 -0.00191966 -5.26907e-13)
(1.69653 -0.00191349 -5.3956e-13)
(1.69697 -0.00190741 -5.50791e-13)
(1.69741 -0.0019013 -5.60365e-13)
(1.69784 -0.0018953 -5.69307e-13)
(1.69828 -0.00188926 -5.76852e-13)
(1.69872 -0.00188338 -5.8322e-13)
(1.69915 -0.00187743 -5.88648e-13)
(1.69958 -0.00187172 -5.93281e-13)
(1.70001 -0.0018659 -5.97277e-13)
(1.70044 -0.00186041 -6.00734e-13)
(1.70087 -0.00185475 -6.03756e-13)
(1.70129 -0.00184956 -6.06395e-13)
(1.70172 -0.00184411 -6.08769e-13)
(1.70214 -0.0018393 -6.10865e-13)
(1.70256 -0.00183409 -6.1283e-13)
(1.70298 -0.00182979 -6.14528e-13)
(1.7034 -0.00182484 -6.16132e-13)
(1.70381 -0.00182117 -6.17604e-13)
(1.70423 -0.00181652 -6.19e-13)
(1.70464 -0.00181364 -6.20248e-13)
(1.70506 -0.00180924 -6.21504e-13)
(1.70547 -0.00180735 -6.22575e-13)
(1.70589 -0.00180314 -6.23702e-13)
(1.70629 -0.00180249 -6.24592e-13)
(1.70672 -0.00179827 -6.2562e-13)
(1.70711 -0.0017992 -6.26326e-13)
(1.70754 -0.00179465 -6.27278e-13)
(1.70792 -0.0017976 -6.27775e-13)
(1.70837 -0.00179212 -6.28656e-13)
(1.70873 -0.00179784 -6.289e-13)
(1.70921 -0.00179016 -6.29781e-13)
(1.70952 -0.00179995 -6.29701e-13)
(1.71006 -0.00178913 -6.30556e-13)
(1.71031 -0.00180292 -6.30099e-13)
(1.71092 -0.00179347 -6.31113e-13)
(1.71109 -0.00180621 -6.30024e-13)
(1.71182 -0.00180019 -6.3156e-13)
(1.63006 -0.00278703 -7.23693e-13)
(1.63057 -0.00277759 -7.21317e-13)
(1.63107 -0.00276819 -7.22073e-13)
(1.63157 -0.00275883 -7.18718e-13)
(1.63207 -0.00274951 -7.20833e-13)
(1.63257 -0.00274022 -7.15821e-13)
(1.63307 -0.00273098 -7.20332e-13)
(1.63356 -0.00272177 -7.12284e-13)
(1.63405 -0.0027126 -7.21018e-13)
(1.63454 -0.00270346 -7.07555e-13)
(1.63503 -0.00269436 -7.23737e-13)
(1.63551 -0.0026853 -7.00499e-13)
(1.636 -0.00267628 -7.30009e-13)
(1.63648 -0.00266729 -6.89057e-13)
(1.63696 -0.00265834 -7.4262e-13)
(1.63744 -0.00264942 -6.69465e-13)
(1.63791 -0.00264054 -7.66726e-13)
(1.63839 -0.0026317 -6.34615e-13)
(1.63886 -0.00262289 1.05017e-12)
(1.63933 -0.00261411 5.58289e-13)
(1.6398 -0.00260538 -8.68076e-13)
(1.64027 -0.00259667 -8.66355e-13)
(1.64073 -0.002588 -8.39881e-13)
(1.64119 -0.00257937 -8.49294e-13)
(1.64165 -0.00257077 -8.13343e-13)
(1.64211 -0.00256221 -8.4027e-13)
(1.64257 -0.00255368 -7.85104e-13)
(1.64303 -0.00254518 -8.41733e-13)
(1.64348 -0.00253672 -7.50075e-13)
(1.64393 -0.00252829 -8.58902e-13)
(1.64438 -0.00251989 -6.99648e-13)
(1.64483 -0.00251153 1.03357e-12)
(1.64528 -0.0025032 5.59712e-13)
(1.64572 -0.0024949 -9.53692e-13)
(1.64617 -0.00248664 -9.07476e-13)
(1.64661 -0.00247841 -9.31021e-13)
(1.64705 -0.00247021 -8.69589e-13)
(1.64749 -0.00246205 -9.166e-13)
(1.64792 -0.00245391 -8.0858e-13)
(1.64836 -0.00244581 -9.14382e-13)
(1.64879 -0.00243775 -7.38547e-13)
(1.64922 -0.00242971 1.04486e-12)
(1.64965 -0.0024217 5.72768e-13)
(1.65008 -0.00241373 -9.84545e-13)
(1.65051 -0.00240579 -9.28539e-13)
(1.65093 -0.00239788 -9.56535e-13)
(1.65135 -0.00239 -8.82606e-13)
(1.65177 -0.00238215 -9.40168e-13)
(1.65219 -0.00237433 -8.14045e-13)
(1.65261 -0.00236654 -9.39189e-13)
(1.65303 -0.00235878 -7.36117e-13)
(1.65344 -0.00235106 1.06847e-12)
(1.65386 -0.00234336 6.19329e-13)
(1.65427 -0.00233569 -1.01474e-12)
(1.65468 -0.00232805 -8.92527e-13)
(1.65509 -0.00232045 -9.97264e-13)
(1.65549 -0.00231287 -8.02297e-13)
(1.6559 -0.00230531 1.05023e-12)
(1.6563 -0.00229779 5.64281e-13)
(1.65671 -0.0022903 -1.06093e-12)
(1.65711 -0.00228283 -1.00542e-12)
(1.65751 -0.00227539 -1.03591e-12)
(1.65791 -0.00226797 -9.537e-13)
(1.6583 -0.00226058 -1.02952e-12)
(1.6587 -0.00225322 -8.90294e-13)
(1.65909 -0.00224588 -1.02652e-12)
(1.65948 -0.00223857 -8.03372e-13)
(1.65987 -0.00223128 1.06208e-12)
(1.66026 -0.00222401 6.17447e-13)
(1.66065 -0.00221677 -1.12392e-12)
(1.66104 -0.00220954 -9.69742e-13)
(1.66142 -0.00220234 -1.11758e-12)
(1.6618 -0.00219515 -8.70487e-13)
(1.66219 -0.00218799 1.00021e-12)
(1.66257 -0.00218084 5.85999e-13)
(1.66294 -0.00217371 -1.19082e-12)
(1.66332 -0.00216659 -9.85555e-13)
(1.6637 -0.00215948 9.85677e-13)
(1.66407 -0.00215239 4.8302e-13)
(1.66445 -0.00214532 -1.18017e-12)
(1.66482 -0.00213825 -1.1489e-12)
(1.66519 -0.00213121 -1.11844e-12)
(1.66556 -0.00212416 -1.09467e-12)