/*--------------------------------*- C++ -*----------------------------------*\
| =========                 |                                                 |
| \\      /  F ield         | OpenFOAM: The Open Source CFD Toolbox           |
|  \\    /   O peration     | Version:                                        |
|   \\  /    A nd           | Website:  www.openfoam.com                      |
|    \\/     M anipulation  |                                                 |
\*---------------------------------------------------------------------------*/
FoamFile
{
    version     2.0;
    format      ascii;
    class       volScalarField;
    location    "154.8";
    object      p;
}
// * * * * * * * * * * * * * * * * * * * * * * * * * * * * * * * * * * * * * //

dimensions      [0 2 -2 0 0 0 0];


internalField   nonuniform List<scalar> 
1153
(
-0.291094
-0.304253
-0.320269
-0.324027
-0.2957
-0.236235
-0.164027
-0.104275
-0.0723158
-0.0665716
-0.246692
-0.253639
-0.265786
-0.27871
-0.283851
-0.257729
-0.205921
-0.152121
-0.115714
-0.0990447
-0.0935791
-0.0937211
-0.231882
-0.237028
-0.248297
-0.266464
-0.280984
-0.27552
-0.232386
-0.182582
-0.142204
-0.115143
-0.101689
-0.0951342
-0.0896305
-0.0847057
-0.226496
-0.232801
-0.240457
-0.254163
-0.268415
-0.261978
-0.228912
-0.186971
-0.150892
-0.124895
-0.10584
-0.0919526
-0.0822231
-0.0739894
-0.0660409
-0.057731
-0.0490114
-0.222742
-0.224917
-0.234157
-0.238674
-0.245711
-0.235986
-0.210195
-0.178647
-0.148579
-0.122994
-0.103377
-0.0881733
-0.0755833
-0.0650357
-0.0553859
-0.0463639
-0.0375821
-0.0281323
-0.0194266
-0.0121964
-0.223212
-0.225161
-0.208798
-0.226139
-0.224029
-0.209405
-0.187507
-0.162463
-0.138105
-0.116439
-0.097376
-0.081083
-0.0676276
-0.0561195
-0.0457758
-0.0362419
-0.0272773
-0.0188249
-0.0105828
-0.00237127
-0.212459
-0.217737
-0.210651
-0.210343
-0.202232
-0.186191
-0.166143
-0.145212
-0.12447
-0.104913
-0.0875716
-0.0722267
-0.0583952
-0.0463822
-0.0360282
-0.0265498
-0.0176447
-0.00896507
-0.000975541
0.00621239
-0.217464
-0.182966
-0.210788
-0.201321
-0.185076
-0.166537
-0.146723
-0.127022
-0.108475
-0.0910143
-0.0748899
-0.0604623
-0.0474697
-0.0355548
-0.0248065
-0.0156058
-0.00736499
0.000243485
0.00756811
0.0150275
-0.252318
-0.220043
-0.207381
-0.190534
-0.169923
-0.149062
-0.129008
-0.11009
-0.0921043
-0.0753409
-0.060038
-0.0463234
-0.0340856
-0.0231838
-0.0134054
-0.00414832
0.00425747
0.0117084
0.0179839
0.0234682
-0.243492
-0.244398
-0.207676
-0.177203
-0.152366
-0.130603
-0.110384
-0.0917194
-0.0747125
-0.0587975
-0.0441136
-0.0308363
-0.0189159
-0.00841859
0.000425165
0.00793244
0.0151123
0.0221237
0.028515
0.0339128
-1.07225
-1.08071
-1.12177
-0.935875
-0.939321
-0.965549
-0.999742
-0.79975
-0.793615
-0.803524
-0.82512
-0.680633
-0.663968
-0.658696
-0.663029
-0.585996
-0.559668
-0.550576
-0.539573
-0.520059
-0.496585
-0.481162
-0.463657
-0.447457
-0.483512
-0.466705
-0.451312
-0.434986
-0.406388
-0.371492
-0.459662
-0.453802
-0.452313
-0.434816
-0.387497
-0.325735
-0.266373
-0.424711
-0.432327
-0.452206
-0.434811
-0.376477
-0.287741
-0.198153
-0.123824
-0.364236
-0.382812
-0.410266
-0.397953
-0.341341
-0.248826
-0.155184
-0.0875842
-0.0513395
0.0380613
0.0293538
0.0225038
0.0142421
0.00533879
0.0419918
0.0358812
0.0293464
0.0233024
0.0142876
0.0462202
0.0417949
0.0364266
0.0327143
0.0256144
0.050094
0.0470079
0.0437104
0.0411842
0.0361189
0.0535823
0.0518442
0.0498954
0.0473474
0.0431455
0.0380991
0.056561
0.0555776
0.0541471
0.0514397
0.0474802
0.0425523
0.0590049
0.0584377
0.0573828
0.0551228
0.0520895
0.0489886
0.0610591
0.0608911
0.0603603
0.0589429
0.0568597
0.0545461
0.062899
0.0630336
0.0628337
0.061847
0.0598229
0.0571466
0.0643658
0.0645802
0.0644736
0.0635597
0.0616242
0.0593002
0.0654414
0.0656642
0.0656821
0.0649923
0.0635558
0.0618316
0.0662324
0.0665032
0.0666704
0.0661945
0.0650251
0.0633227
0.0667672
0.0670559
0.0672612
0.0668545
0.0657676
0.064181
0.0670601
0.0673126
0.067539
0.0672379
0.0663756
0.0651047
0.067179
0.0673973
0.0676421
0.067474
0.0667966
0.0656674
0.0671894
0.0673368
0.0675391
0.067432
0.0668556
0.0658625
0.0671163
0.0671683
0.0673002
0.0672275
0.0667681
0.0659552
0.0669713
0.0669437
0.0669983
0.06693
0.0665504
0.0658567
0.0667315
0.0666445
0.0666339
0.0665392
0.0661831
0.0655354
0.0663977
0.0662626
0.0661949
0.0660579
0.0657135
0.0651561
0.0660029
0.0658404
0.0657597
0.0656392
0.0653505
0.0648496
0.0655819
0.0653895
0.0652711
0.0651117
0.0647834
0.0642497
0.0650872
0.0648499
0.0646788
0.0644959
0.0642046
0.063785
0.0645897
0.0643408
0.0641542
0.0639786
0.0637256
0.063351
0.0641024
0.0638463
0.0636294
0.0634196
0.063152
0.0627957
0.0636132
0.0633485
0.0631105
0.0628856
0.0626322
0.0623246
0.063191
0.0629189
0.0626698
0.0624343
0.062182
0.0618914
0.0628026
0.0625213
0.0622575
0.0620054
0.0617475
0.0614714
0.0624169
0.0621641
0.0619141
0.0616656
0.0614118
0.0611472
0.0622324
0.0619997
0.0617589
0.0615115
0.061258
0.0609998
0.149686
0.153218
0.157565
0.162983
0.168489
0.173277
0.17697
0.179465
0.180782
0.181035
0.18007
0.177325
0.171997
0.16339
0.150468
0.131849
0.105471
0.069585
0.0224056
-0.0630046
0.136677
0.140984
0.144719
0.148182
0.151278
0.153493
0.154692
0.154901
0.153973
0.151696
0.147716
0.141647
0.13281
0.120348
0.103133
0.0796387
0.0475798
0.00569707
-0.0459415
-0.141268
0.125744
0.129814
0.131979
0.133241
0.133834
0.13364
0.132523
0.130461
0.127401
0.122986
0.116646
0.107738
0.0958137
0.0801393
0.0595759
0.032749
-0.0032527
-0.0505
-0.104726
-0.203087
0.115879
0.118212
0.118365
0.11733
0.115874
0.113975
0.111252
0.10745
0.102316
0.0957025
0.087241
0.0762437
0.062019
0.0439509
0.0209167
-0.00811196
-0.0454278
-0.0955253
-0.152173
-0.246166
0.104583
0.105259
0.103645
0.100722
0.0975287
0.0942372
0.0904633
0.0855142
0.0790768
0.0707941
0.0604252
0.0476028
0.0316693
0.0120584
-0.0121928
-0.0421043
-0.079151
-0.128376
-0.185027
-0.266767
0.0924117
0.092374
0.0898239
0.085656
0.081027
0.0762011
0.0710054
0.064804
0.057118
0.0477496
0.0362786
0.0222489
0.00524269
-0.0153143
-0.0400221
-0.069433
-0.104828
-0.149426
-0.201343
-0.266911
0.0783349
0.0774589
0.0744776
0.070375
0.0655564
0.0600455
0.0536819
0.0462076
0.0373035
0.0267247
0.0143011
-0.000529668
-0.0180717
-0.0388501
-0.0635907
-0.0922674
-0.124769
-0.161301
-0.200198
-0.245938
0.0660623
0.0636373
0.0595407
0.0547626
0.0497155
0.0440791
0.0371559
0.0288307
0.0191125
0.00782273
-0.00532364
-0.0206295
-0.0383335
-0.0587486
-0.0823895
-0.109558
-0.139362
-0.168693
-0.191877
-0.211967
0.0542438
0.0511042
0.0469264
0.041728
0.035631
0.0288505
0.0211212
0.0120785
0.00161621
-0.0102907
-0.0238834
-0.0393942
-0.0570234
-0.0769041
-0.0993374
-0.124683
-0.152761
-0.178589
-0.186339
-0.178333
0.0425158
0.0382653
0.0334022
0.0282901
0.0223451
0.015033
0.00632389
-0.00366534
-0.0148627
-0.0273685
-0.0413226
-0.0568032
-0.0741324
-0.0932966
-0.114237
-0.137546
-0.164484
-0.194359
-0.210738
-0.187528
0.239163
0.252467
0.267351
0.283892
0.301974
0.321463
0.342282
0.364404
0.38784
0.412503
0.438246
0.464724
0.491355
0.517117
0.540701
0.559811
0.572199
0.244621
0.257721
0.272609
0.28931
0.30754
0.327026
0.347637
0.369386
0.392334
0.416441
0.441526
0.46729
0.493226
0.518434
0.541492
0.559611
0.570596
0.246434
0.259126
0.273694
0.290091
0.307973
0.326992
0.346984
0.367927
0.389866
0.412821
0.436595
0.460821
0.484728
0.507229
0.527144
0.541839
0.549387
0.233965
0.244538
0.256802
0.270943
0.28667
0.303578
0.321356
0.339937
0.359348
0.379597
0.400597
0.422125
0.443679
0.464593
0.483536
0.499116
0.508405
0.510815
0.229434
0.239011
0.250552
0.264133
0.279184
0.295089
0.311462
0.328193
0.345354
0.363042
0.381101
0.399238
0.41692
0.433541
0.44772
0.457842
0.460915
0.456477
0.215023
0.222112
0.230775
0.241307
0.253727
0.267591
0.282192
0.296994
0.311764
0.326489
0.341289
0.356051
0.370299
0.383404
0.39464
0.402917
0.40641
0.401272
0.385367
0.201631
0.205616
0.211514
0.219636
0.22974
0.241148
0.253252
0.265655
0.278031
0.290201
0.302112
0.313704
0.324875
0.335084
0.343516
0.349156
0.350562
0.346164
0.331469
0.303026
0.192247
0.194132
0.198696
0.206127
0.215773
0.226353
0.236969
0.247195
0.256928
0.266147
0.274774
0.282697
0.2897
0.295228
0.298293
0.297792
0.291996
0.27918
0.25541
0.213789
0.179275
0.180664
0.185027
0.191852
0.200236
0.209221
0.217991
0.225997
0.233107
0.239393
0.244751
0.248968
0.251754
0.252518
0.250124
0.243359
0.230595
0.209827
0.176447
0.118599
0.164531
0.165722
0.17052
0.177145
0.184349
0.191371
0.197663
0.202918
0.207161
0.210504
0.212739
0.213406
0.211994
0.207935
0.20017
0.187281
0.167328
0.138583
0.0973692
0.0259009
0.189728
0.179135
0.166779
0.167263
0.154856
0.151948
0.143987
0.140757
0.134606
0.13203
0.126865
0.124788
0.120119
0.118198
0.113889
0.111968
0.108183
0.106194
0.10308
0.100908
0.0984978
0.0961498
0.0943646
0.0919795
0.0905759
0.0882927
0.0870882
0.085023
0.0839645
0.0821071
0.0812211
0.0795106
0.0788834
0.0772624
0.0768844
0.0753463
0.0751362
0.0737352
0.0735631
0.0723583
0.072129
0.0711417
0.0708534
0.0700542
0.0697521
0.0690963
0.0688191
0.0682757
0.0680319
0.0675802
0.0673743
0.0670024
0.0668397
0.0665445
0.0664073
0.0661847
0.0660253
0.0658612
0.0656017
0.0654441
0.0659531
0.0655819
0.0657438
0.0653527
0.14533
0.132362
0.119424
0.110887
0.101255
0.089737
0.0767346
0.0662022
0.0555426
0.0457314
0.138092
0.128673
0.113885
0.104195
0.0965636
0.0871005
0.0746435
0.0652688
0.0561134
0.0485904
0.131306
0.125108
0.11065
0.099079
0.0922521
0.085238
0.0741764
0.0656108
0.0570236
0.0512339
0.1246
0.11996
0.106861
0.0943634
0.0874619
0.0822875
0.073407
0.0654625
0.0579669
0.0536217
0.117996
0.114398
0.103124
0.091054
0.0841118
0.0798663
0.0732152
0.0661732
0.0599467
0.0559513
0.111725
0.10879
0.0991272
0.0881584
0.0813936
0.0774658
0.0725888
0.0666954
0.0616518
0.0580932
0.105835
0.103333
0.095058
0.085515
0.0794209
0.0757442
0.0721005
0.067339
0.0633151
0.0602206
0.100334
0.0981542
0.0911469
0.083055
0.0778292
0.0744992
0.0715957
0.0677887
0.0646202
0.0620971
0.0952868
0.0933436
0.087547
0.0807905
0.0764316
0.0735988
0.0711877
0.0681568
0.0656276
0.0637156
0.0907737
0.0889352
0.0842617
0.0787739
0.0751713
0.0728755
0.0708697
0.0684391
0.06637
0.064976
0.0868296
0.0850113
0.0813097
0.0770134
0.0740749
0.0722524
0.0706006
0.0686543
0.06693
0.0658648
0.0834714
0.0816559
0.078681
0.0754309
0.0731231
0.0716854
0.0703411
0.0687788
0.0673323
0.0664769
0.0805994
0.0788645
0.0764257
0.0740064
0.0722731
0.071164
0.0700798
0.0688087
0.0676055
0.0668877
0.078127
0.0765845
0.0745879
0.0727585
0.0714868
0.07066
0.0698031
0.0687761
0.0677705
0.0671452
0.0759748
0.0746532
0.0730588
0.0716686
0.0707611
0.0701774
0.0695408
0.0687063
0.0678571
0.0672884
0.0741092
0.072952
0.0717042
0.0706704
0.0700472
0.0696926
0.0692552
0.0685971
0.0678788
0.0673415
0.0725388
0.0714609
0.0704618
0.0697199
0.0693439
0.0691771
0.068909
0.068419
0.0678195
0.0673314
0.0712412
0.0702068
0.0693421
0.0688118
0.0686357
0.0686218
0.0684949
0.0681441
0.0676567
0.0672217
0.0701624
0.0691913
0.0683842
0.067958
0.0679152
0.0680321
0.0680254
0.0677886
0.0673878
0.0669959
0.0692366
0.0683681
0.0675986
0.06719
0.0671953
0.0673971
0.0674969
0.0673638
0.0670371
0.0666749
0.0684311
0.0676891
0.0669727
0.0665435
0.0665199
0.0667392
0.0669141
0.0668758
0.0666246
0.0662889
0.067741
0.0671276
0.0664844
0.0660351
0.0659352
0.0661047
0.0663024
0.066337
0.066163
0.0658681
0.0671516
0.0666538
0.0660944
0.0656437
0.0654624
0.0655429
0.0657079
0.0657705
0.0656485
0.0653842
0.066659
0.0662561
0.0657779
0.0653454
0.0650995
0.0650745
0.0651614
0.0652044
0.0651069
0.0648749
0.0662741
0.0659473
0.0655397
0.065136
0.064848
0.064724
0.0647083
0.0646908
0.0645833
0.0643711
0.0659855
0.0657325
0.0653937
0.0650247
0.0647099
0.0644993
0.0643723
0.0642628
0.0641058
0.063881
0.0657232
0.0655419
0.0652784
0.0649605
0.0646445
0.0643746
0.0641534
0.0639504
0.0637277
0.0634703
0.0653142
0.0651561
0.0649435
0.0646864
0.0644116
0.0641439
0.0638895
0.0636381
0.0633741
0.0630927
0.0651785
0.0647771
0.0644133
0.0640957
0.0638219
0.0635822
0.0633606
0.0631409
0.0629112
0.0626683
0.0649282
0.064507
0.0641298
0.0638042
0.0635278
0.0632905
0.0630774
0.062874
0.0626688
0.0624557
)
;

boundaryField
{
    outlet
    {
        type            fixedValue;
        value           nonuniform 0();
    }
    upperWall
    {
        type            symmetryPlane;
    }
    lowerWall
    {
        type            symmetryPlane;
    }
    inlet
    {
        type            zeroGradient;
    }
    cylinder
    {
        type            zeroGradient;
    }
    frontAndBack
    {
        type            empty;
    }
    procBoundary5to1
    {
        type            processor;
        value           nonuniform List<scalar> 
20
(
-1.18706
-1.19372
-1.2395
0.229476
0.242606
0.25717
0.273182
0.290651
0.309586
0.329938
0.351648
0.374633
0.398774
0.423904
0.449686
0.475522
0.500483
0.523247
0.541379
0.552744
)
;
    }
    procBoundary5to4
    {
        type            processor;
        value           nonuniform List<scalar> 
45
(
0.227179
0.232909
0.235196
0.235196
0.224521
0.221235
0.221235
0.20891
0.20891
0.196533
0.196533
0.18359
0.1763
0.1763
0.164462
0.155474
0.145556
0.136408
0.128702
0.122048
0.116019
0.110523
0.105577
0.100983
0.0966516
0.0926027
0.0889177
0.0856951
0.0829087
0.0805038
0.0783619
0.0763915
0.0745849
0.0729606
0.0715556
0.0703697
0.0693652
0.0685074
0.0677799
0.067172
0.0666717
0.0662379
0.0658138
0.0662842
0.0660951
)
;
    }
    procBoundary5to6
    {
        type            processor;
        value           nonuniform List<scalar> 
63
(
-0.0798123
-0.0483037
-0.0798123
-0.0990965
-0.0980921
-0.0980921
-0.100789
-0.0795478
-0.0795478
-0.0734488
-0.0655339
-0.0407489
-0.0407489
-0.0316751
-0.0225214
-0.00385459
-1.17343
-1.17343
-1.03651
-0.848747
-0.670313
-0.534479
-0.534479
-0.428952
-0.428952
-0.333667
-0.333667
-0.217992
-0.217992
-0.0812656
-0.0812656
-0.0483037
-0.00385459
0.00735951
0.0204476
0.0319218
0.0319218
0.0326692
0.0382816
0.0464716
0.0517052
0.0539724
0.0570784
0.0600256
0.0613861
0.0625639
0.063752
0.0643394
0.0646981
0.0649505
0.0649439
0.0646989
0.0644944
0.0641886
0.0636108
0.063296
0.0628798
0.062376
0.06197
0.061565
0.0611786
0.0608718
0.0607387
)
;
    }
}


// ************************************************************************* //
