/*--------------------------------*- C++ -*----------------------------------*\
| =========                 |                                                 |
| \\      /  F ield         | OpenFOAM: The Open Source CFD Toolbox           |
|  \\    /   O peration     | Version:                                        |
|   \\  /    A nd           | Website:  www.openfoam.com                      |
|    \\/     M anipulation  |                                                 |
\*---------------------------------------------------------------------------*/
FoamFile
{
    version     2.0;
    format      ascii;
    class       volVectorField;
    location    "1";
    object      U;
}
// * * * * * * * * * * * * * * * * * * * * * * * * * * * * * * * * * * * * * //

dimensions      [0 1 -1 0 0 0 0];


internalField   nonuniform List<vector> 
400
(
(0.0848247 6.42653e-05 0)
(0.0844435 6.15131e-05 0)
(0.0840789 5.8915e-05 0)
(0.0837298 5.64584e-05 0)
(0.0833955 5.41323e-05 0)
(0.0830751 5.19267e-05 0)
(0.0827679 4.98329e-05 0)
(0.0824732 4.78427e-05 0)
(0.0821905 4.59489e-05 0)
(0.081919 4.41451e-05 0)
(0.0816583 4.24253e-05 0)
(0.0814079 4.07842e-05 0)
(0.0811672 3.92167e-05 0)
(0.0809359 3.77186e-05 0)
(0.0807135 3.62856e-05 0)
(0.0804996 3.49141e-05 0)
(0.0802939 3.36006e-05 0)
(0.0800959 3.23419e-05 0)
(0.0799055 3.11353e-05 0)
(0.0797222 2.99775e-05 0)
(0.244526 0.000391235 0)
(0.243468 0.000374091 0)
(0.242456 0.000357941 0)
(0.241488 0.000342701 0)
(0.240562 0.000328297 0)
(0.239675 0.000314663 0)
(0.238825 0.00030174 0)
(0.23801 0.000289475 0)
(0.237228 0.000277822 0)
(0.236478 0.000266737 0)
(0.235758 0.000256182 0)
(0.235067 0.000246122 0)
(0.234403 0.000236525 0)
(0.233765 0.000227363 0)
(0.233151 0.000218608 0)
(0.232562 0.000210238 0)
(0.231995 0.000202229 0)
(0.23145 0.000194562 0)
(0.230926 0.000187218 0)
(0.230422 0.000180179 0)
(0.39411 0.00108269 0)
(0.392468 0.00103466 0)
(0.3909 0.000989453 0)
(0.3894 0.00094684 0)
(0.387965 0.000906604 0)
(0.386592 0.000868552 0)
(0.385276 0.000832517 0)
(0.384016 0.000798345 0)
(0.382807 0.000765901 0)
(0.381648 0.000735062 0)
(0.380536 0.000705719 0)
(0.379468 0.000677769 0)
(0.378443 0.000651124 0)
(0.377458 0.0006257 0)
(0.376512 0.000601422 0)
(0.375603 0.000578222 0)
(0.37473 0.000556037 0)
(0.373889 0.000534809 0)
(0.373082 0.000514486 0)
(0.372305 0.000495018 0)
(0.5333 0.00206286 0)
(0.531183 0.00197056 0)
(0.529161 0.00188376 0)
(0.527228 0.00180199 0)
(0.52538 0.00172482 0)
(0.523612 0.00165189 0)
(0.521919 0.00158286 0)
(0.520296 0.00151743 0)
(0.518742 0.00145535 0)
(0.517251 0.00139636 0)
(0.515822 0.00134026 0)
(0.51445 0.00128685 0)
(0.513133 0.00123595 0)
(0.511868 0.00118741 0)
(0.510654 0.00114107 0)
(0.509487 0.00109681 0)
(0.508366 0.0010545 0)
(0.507288 0.00101403 0)
(0.506252 0.000975294 0)
(0.505256 0.000938206 0)
(0.661755 0.00325527 0)
(0.659288 0.00310872 0)
(0.656932 0.00297095 0)
(0.654682 0.00284122 0)
(0.652529 0.00271883 0)
(0.650471 0.00260321 0)
(0.6485 0.00249381 0)
(0.646612 0.00239016 0)
(0.644804 0.00229184 0)
(0.64307 0.00219845 0)
(0.641407 0.00210966 0)
(0.639812 0.00202516 0)
(0.638282 0.00194465 0)
(0.636813 0.0018679 0)
(0.635402 0.00179465 0)
(0.634047 0.0017247 0)
(0.632745 0.00165786 0)
(0.631494 0.00159394 0)
(0.630292 0.00153279 0)
(0.629136 0.00147424 0)
(0.779121 0.00459085 0)
(0.776448 0.00438337 0)
(0.773896 0.00418837 0)
(0.771457 0.00400476 0)
(0.769125 0.00383158 0)
(0.766895 0.00366798 0)
(0.76476 0.00351321 0)
(0.762715 0.0033666 0)
(0.760756 0.00322755 0)
(0.758879 0.0030955 0)
(0.757078 0.00296997 0)
(0.755351 0.00285052 0)
(0.753695 0.00273675 0)
(0.752104 0.00262829 0)
(0.750578 0.00252481 0)
(0.749112 0.00242601 0)
(0.747703 0.00233161 0)
(0.74635 0.00224137 0)
(0.74505 0.00215504 0)
(0.743801 0.00207241 0)
(0.885084 0.00599242 0)
(0.882366 0.00572131 0)
(0.87977 0.00546644 0)
(0.877289 0.00522642 0)
(0.874915 0.00499999 0)
(0.872644 0.00478607 0)
(0.87047 0.00458368 0)
(0.868388 0.00439195 0)
(0.866393 0.00421008 0)
(0.86448 0.00403738 0)
(0.862647 0.0038732 0)
(0.860888 0.00371698 0)
(0.8592 0.00356818 0)
(0.857581 0.00342635 0)
(0.856026 0.00329103 0)
(0.854533 0.00316185 0)
(0.853099 0.00303843 0)
(0.851722 0.00292045 0)
(0.850399 0.0028076 0)
(0.849127 0.00269961 0)
(0.979438 0.00737392 0)
(0.976846 0.00704093 0)
(0.974368 0.00672772 0)
(0.971998 0.00643258 0)
(0.96973 0.00615405 0)
(0.967559 0.00589079 0)
(0.965479 0.00564164 0)
(0.963486 0.00540552 0)
(0.961576 0.0051815 0)
(0.959745 0.00496872 0)
(0.957988 0.00476641 0)
(0.956303 0.00457387 0)
(0.954687 0.00439046 0)
(0.953135 0.00421561 0)
(0.951645 0.00404879 0)
(0.950214 0.00388952 0)
(0.94884 0.00373735 0)
(0.947521 0.00359189 0)
(0.946252 0.00345275 0)
(0.945034 0.0033196 0)
(1.06213 0.00864525 0)
(1.05984 0.00825683 0)
(1.05765 0.0078911 0)
(1.05554 0.00754619 0)
(1.05353 0.00722042 0)
(1.0516 0.0069123 0)
(1.04975 0.00662051 0)
(1.04798 0.00634383 0)
(1.04627 0.00608119 0)
(1.04464 0.00583161 0)
(1.04308 0.00559423 0)
(1.04157 0.00536823 0)
(1.04013 0.00515288 0)
(1.03874 0.00494753 0)
(1.03741 0.00475157 0)
(1.03614 0.00456444 0)
(1.03491 0.00438564 0)
(1.03373 0.00421469 0)
(1.0326 0.00405116 0)
(1.03151 0.00389465 0)
(1.13333 0.00971809 0)
(1.1315 0.00928503 0)
(1.12975 0.00887674 0)
(1.12806 0.00849121 0)
(1.12644 0.00812667 0)
(1.12489 0.00778154 0)
(1.1234 0.00745439 0)
(1.12197 0.00714394 0)
(1.1206 0.00684902 0)
(1.11928 0.00656858 0)
(1.11801 0.00630169 0)
(1.11679 0.00604745 0)
(1.11562 0.0058051 0)
(1.1145 0.00557389 0)
(1.11342 0.00535318 0)
(1.11238 0.00514235 0)
(1.11138 0.00494084 0)
(1.11043 0.00474813 0)
(1.10951 0.00456376 0)
(1.10862 0.00438728 0)
(1.19342 0.0105119 0)
(1.1922 0.0100487 0)
(1.19102 0.00961125 0)
(1.18989 0.00919755 0)
(1.18879 0.00880582 0)
(1.18774 0.00843446 0)
(1.18673 0.00808204 0)
(1.18575 0.00774724 0)
(1.18481 0.00742889 0)
(1.1839 0.00712592 0)
(1.18303 0.00683734 0)
(1.18219 0.00656226 0)
(1.18139 0.00629987 0)
(1.18061 0.00604941 0)
(1.17987 0.0058102 0)
(1.17915 0.00558159 0)
(1.17846 0.00536301 0)
(1.1778 0.0051539 0)
(1.17716 0.00495378 0)
(1.17655 0.00476217 0)
(1.24304 0.01096 0)
(1.24254 0.0104838 0)
(1.24205 0.0100331 0)
(1.24157 0.00960604 0)
(1.2411 0.00920102 0)
(1.24064 0.00881647 0)
(1.2402 0.00845101 0)
(1.23977 0.00810339 0)
(1.23935 0.00777247 0)
(1.23894 0.0074572 0)
(1.23855 0.00715662 0)
(1.23816 0.00686985 0)
(1.2378 0.0065961 0)
(1.23744 0.00633462 0)
(1.2371 0.00608473 0)
(1.23677 0.00584578 0)
(1.23645 0.00561719 0)
(1.23614 0.00539843 0)
(1.23585 0.00518897 0)
(1.23556 0.00498836 0)
(1.28305 0.0110149 0)
(1.28335 0.0105438 0)
(1.28361 0.0100971 0)
(1.28386 0.00967295 0)
(1.28408 0.00926988 0)
(1.28428 0.00888653 0)
(1.28447 0.00852163 0)
(1.28465 0.00817404 0)
(1.28481 0.00784272 0)
(1.28496 0.00752668 0)
(1.2851 0.00722505 0)
(1.28523 0.00693701 0)
(1.28535 0.0066618 0)
(1.28547 0.0063987 0)
(1.28558 0.00614709 0)
(1.28568 0.00590634 0)
(1.28578 0.00567591 0)
(1.28588 0.00545526 0)
(1.28596 0.0052439 0)
(1.28605 0.00504139 0)
(1.31449 0.0106515 0)
(1.3156 0.0102039 0)
(1.31665 0.00977831 0)
(1.31765 0.00937337 0)
(1.31859 0.00898779 0)
(1.31949 0.00862038 0)
(1.32034 0.00827008 0)
(1.32115 0.00793588 0)
(1.32193 0.00761686 0)
(1.32266 0.00731219 0)
(1.32337 0.00702106 0)
(1.32404 0.00674276 0)
(1.32468 0.0064766 0)
(1.32529 0.00622194 0)
(1.32588 0.00597821 0)
(1.32645 0.00574484 0)
(1.32699 0.00552133 0)
(1.3275 0.00530719 0)
(1.328 0.00510196 0)
(1.32848 0.00490523 0)
(1.33849 0.00986893 0)
(1.3404 0.00946155 0)
(1.34222 0.00907328 0)
(1.34396 0.00870302 0)
(1.34561 0.00834973 0)
(1.34719 0.00801246 0)
(1.3487 0.00769035 0)
(1.35014 0.00738256 0)
(1.35152 0.00708834 0)
(1.35284 0.00680699 0)
(1.35411 0.00653783 0)
(1.35532 0.00628025 0)
(1.35648 0.00603367 0)
(1.35759 0.00579755 0)
(1.35865 0.00557137 0)
(1.35968 0.00535466 0)
(1.36066 0.00514697 0)
(1.3616 0.00494787 0)
(1.36251 0.00475697 0)
(1.36338 0.00457388 0)
(1.35623 0.00868963 0)
(1.35888 0.00833707 0)
(1.36141 0.00800027 0)
(1.36383 0.00767839 0)
(1.36615 0.00737067 0)
(1.36836 0.00707638 0)
(1.37048 0.00679485 0)
(1.37252 0.00652544 0)
(1.37446 0.00626757 0)
(1.37633 0.00602066 0)
(1.37812 0.00578418 0)
(1.37984 0.00555765 0)
(1.38148 0.0053406 0)
(1.38307 0.00513257 0)
(1.38458 0.00493315 0)
(1.38604 0.00474195 0)
(1.38744 0.0045586 0)
(1.38879 0.00438274 0)
(1.39008 0.00421403 0)
(1.39132 0.00405215 0)
(1.36885 0.00715703 0)
(1.37213 0.00687113 0)
(1.37528 0.00659744 0)
(1.37829 0.00633538 0)
(1.38118 0.0060844 0)
(1.38395 0.005844 0)
(1.3866 0.00561368 0)
(1.38915 0.00539299 0)
(1.3916 0.00518148 0)
(1.39394 0.00497874 0)
(1.3962 0.00478438 0)
(1.39836 0.00459802 0)
(1.40043 0.00441931 0)
(1.40243 0.00424791 0)
(1.40434 0.00408349 0)
(1.40618 0.00392574 0)
(1.40795 0.00377438 0)
(1.40965 0.00362914 0)
(1.41129 0.00348975 0)
(1.41286 0.00335594 0)
(1.37734 0.00533203 0)
(1.38112 0.00512174 0)
(1.38476 0.00492008 0)
(1.38824 0.0047267 0)
(1.39159 0.00454122 0)
(1.3948 0.00436333 0)
(1.39788 0.0041927 0)
(1.40085 0.00402901 0)
(1.40369 0.00387199 0)
(1.40642 0.00372134 0)
(1.40905 0.0035768 0)
(1.41157 0.0034381 0)
(1.41399 0.003305 0)
(1.41632 0.00317728 0)
(1.41855 0.00305468 0)
(1.4207 0.002937 0)
(1.42277 0.00282403 0)
(1.42476 0.0027156 0)
(1.42667 0.0026115 0)
(1.4285 0.00251152 0)
(1.38252 0.00328896 0)
(1.38665 0.00316043 0)
(1.39062 0.00303702 0)
(1.39444 0.00291854 0)
(1.3981 0.00280479 0)
(1.40162 0.00269559 0)
(1.405 0.00259075 0)
(1.40825 0.00249011 0)
(1.41137 0.0023935 0)
(1.41438 0.00230075 0)
(1.41726 0.0022117 0)
(1.42003 0.00212621 0)
(1.4227 0.00204413 0)
(1.42526 0.00196534 0)
(1.42772 0.00188969 0)
(1.43009 0.00181703 0)
(1.43236 0.00174726 0)
(1.43455 0.00168027 0)
(1.43666 0.00161595 0)
(1.43868 0.00155417 0)
(1.38496 0.00111146 0)
(1.38927 0.00106823 0)
(1.39341 0.0010267 0)
(1.3974 0.0009868 0)
(1.40122 0.000948476 0)
(1.4049 0.000911664 0)
(1.40844 0.000876312 0)
(1.41183 0.00084236 0)
(1.4151 0.000809751 0)
(1.41824 0.000778434 0)
(1.42126 0.000748367 0)
(1.42416 0.000719499 0)
(1.42695 0.000691768 0)
(1.42963 0.000665123 0)
(1.43221 0.000639544 0)
(1.43469 0.000615002 0)
(1.43707 0.000591427 0)
(1.43936 0.000568752 0)
(1.44157 0.000546975 0)
(1.44369 0.000526096 0)
)
;

boundaryField
{
    fixedWalls
    {
        type            noSlip;
    }
    inlet
    {
        type            fixedValue;
        value           nonuniform 0();
    }
    outlet
    {
        type            zeroGradient;
    }
    frontAndBack
    {
        type            empty;
    }
    procBoundary2to1
    {
        type            processor;
        value           nonuniform List<vector> 
20
(
(0.0852234 6.71856e-05 0)
(0.245634 0.000409466 0)
(0.39583 0.00113384 0)
(0.535519 0.00216121 0)
(0.664341 0.0034115 0)
(0.781922 0.00481202 0)
(0.887932 0.00628136 0)
(0.98215 0.00772856 0)
(1.06453 0.0090585 0)
(1.13523 0.0101781 0)
(1.19468 0.011003 0)
(1.24355 0.0114639 0)
(1.28273 0.011512 0)
(1.31331 0.0111226 0)
(1.33648 0.0102966 0)
(1.35346 0.00905885 0)
(1.36542 0.00745575 0)
(1.37339 0.00555134 0)
(1.37821 0.00342284 0)
(1.38047 0.00115646 0)
)
;
    }
    procBoundary2to3
    {
        type            processor;
        value           nonuniform List<vector> 
20
(
(0.0795458 2.88673e-05 0)
(0.229936 0.000173432 0)
(0.371557 0.000476363 0)
(0.504298 0.000902676 0)
(0.628025 0.00141817 0)
(0.7426 0.00199329 0)
(0.847904 0.00259621 0)
(0.943863 0.00319213 0)
(1.03046 0.00374481 0)
(1.10777 0.00421828 0)
(1.17596 0.00457865 0)
(1.23529 0.00479616 0)
(1.28613 0.0048473 0)
(1.32894 0.00471662 0)
(1.36421 0.00439827 0)
(1.39251 0.00389683 0)
(1.41437 0.00322751 0)
(1.43027 0.00241552 0)
(1.44063 0.00149481 0)
(1.44573 0.000506032 0)
)
;
    }
    procBoundary2to6
    {
        type            processor;
        value           nonuniform List<vector> 
20
(
(1.38496 -0.00111144 0)
(1.38927 -0.00106821 0)
(1.39341 -0.00102668 0)
(1.3974 -0.000986776 0)
(1.40122 -0.000948452 0)
(1.4049 -0.000911643 0)
(1.40844 -0.000876289 0)
(1.41183 -0.000842333 0)
(1.4151 -0.000809728 0)
(1.41824 -0.000778418 0)
(1.42126 -0.000748344 0)
(1.42416 -0.000719456 0)
(1.42695 -0.00069172 0)
(1.42963 -0.000665101 0)
(1.43221 -0.000639532 0)
(1.43469 -0.00061495 0)
(1.43707 -0.000591342 0)
(1.43936 -0.000568699 0)
(1.44157 -0.000546958 0)
(1.44369 -0.000526037 0)
)
;
    }
}


// ************************************************************************* //
