/*--------------------------------*- C++ -*----------------------------------*\
| =========                 |                                                 |
| \\      /  F ield         | OpenFOAM: The Open Source CFD Toolbox           |
|  \\    /   O peration     | Version:                                        |
|   \\  /    A nd           | Website:  www.openfoam.com                      |
|    \\/     M anipulation  |                                                 |
\*---------------------------------------------------------------------------*/
FoamFile
{
    version     2.0;
    format      ascii;
    class       volVectorField;
    location    "185.9";
    object      U;
}
// * * * * * * * * * * * * * * * * * * * * * * * * * * * * * * * * * * * * * //

dimensions      [0 1 -1 0 0 0 0];


internalField   nonuniform List<vector> 
1150
(
(0.854982 -0.0262972 -4.81871e-21)
(0.842919 -0.0290542 1.12151e-20)
(0.829829 -0.0322936 -6.1857e-21)
(0.852968 -0.00707419 -3.3706e-21)
(0.840384 -0.007921 3.00284e-21)
(0.827086 -0.00871684 -3.1638e-20)
(0.853411 0.0108168 -5.66936e-21)
(0.841957 0.0116804 4.41667e-20)
(0.829385 0.0130792 -5.46524e-20)
(0.857286 0.0322781 1.82093e-21)
(0.847033 0.0344597 1.29308e-20)
(0.86275 0.0498877 6.11807e-21)
(0.854324 0.0531652 1.12766e-19)
(0.872344 0.070368 -3.04932e-20)
(0.999669 -0.000216984 -2.0961e-22)
(1.0046 -0.00453817 -6.10483e-23)
(1.0029 -0.00930304 3.91956e-23)
(1.00224 0.000275086 -1.63711e-22)
(0.999546 -0.00125759 4.43345e-23)
(1.00027 -0.00131226 1.89554e-22)
(0.997908 0.00223746 -1.7391e-22)
(0.997647 -0.00221425 1.06025e-23)
(0.996694 -0.00732103 -1.01376e-22)
(0.99545 -0.00218566 1.59035e-22)
(0.993036 -0.00923156 -1.07893e-22)
(0.991939 -0.00895469 3.90776e-23)
(0.990019 -0.00735155 -3.70451e-22)
(0.986855 -0.00731489 3.01173e-22)
(0.983568 -0.00788939 -2.38711e-22)
(0.980294 -0.00674091 5.20221e-22)
(0.976361 -0.00660317 3.23557e-23)
(0.971926 -0.00622346 -1.07304e-21)
(0.966909 -0.00747262 1.13821e-21)
(0.962105 -0.00738746 -3.37448e-22)
(0.955938 -0.00898875 7.97486e-22)
(0.949666 -0.00939259 -2.01244e-21)
(0.941976 -0.0116261 2.68193e-22)
(0.934542 -0.0124562 1.25453e-21)
(0.925378 -0.0149729 3.41478e-22)
(0.916093 -0.0160318 -3.46301e-21)
(0.905316 -0.0185675 2.81478e-21)
(0.894133 -0.0198169 -1.58767e-22)
(0.881642 -0.0223848 5.68731e-22)
(0.868231 -0.023824 2.85303e-21)
(0.999219 -0.00141617 9.0143e-22)
(1.00388 -0.00293448 -1.43414e-22)
(1.00504 -0.0109889 -5.58173e-22)
(1.00248 0.00240731 2.36692e-22)
(0.998569 -0.00268839 -4.20641e-22)
(1.0002 0.000693312 6.82364e-22)
(0.996518 0.00104399 -2.66289e-22)
(0.996443 -0.000787067 -5.39557e-22)
(0.996995 -0.00806548 4.45933e-22)
(0.995637 -0.00047979 -8.00908e-22)
(0.993037 -0.00987967 3.74004e-22)
(0.992626 -0.00690458 -2.64652e-22)
(0.991288 -0.00727256 4.23074e-22)
(0.986627 -0.00496673 -2.52663e-22)
(0.983849 -0.00692659 2.24443e-21)
(0.980057 -0.00382163 -3.45815e-21)
(0.975785 -0.00495677 3.07589e-21)
(0.970962 -0.00260351 2.42438e-21)
(0.965534 -0.00473283 -3.06535e-21)
(0.960983 -0.00265223 3.10655e-21)
(0.954306 -0.00478073 -4.93632e-21)
(0.94832 -0.00314296 -1.69633e-21)
(0.940092 -0.00545269 -1.2683e-21)
(0.93314 -0.00400986 -2.13129e-21)
(0.923625 -0.00615379 5.73623e-21)
(0.914724 -0.00488487 1.11265e-21)
(0.903738 -0.00693907 -3.07013e-21)
(0.89286 -0.00561541 7.03389e-21)
(0.88006 -0.00747064 3.93133e-22)
(0.866623 -0.00595603 -8.15216e-21)
(0.998802 -0.00253219 -1.50439e-21)
(1.00314 -0.0016145 -2.75097e-22)
(1.00732 -0.0126914 -1.86234e-22)
(1.00235 0.00494551 -1.11684e-21)
(0.997611 -0.00422316 1.89819e-22)
(0.999915 0.00294898 -1.56433e-21)
(0.99508 -8.65456e-05 1.31741e-21)
(0.995365 0.000201314 1.55186e-21)
(0.997416 -0.00861779 -1.14269e-21)
(0.995798 0.000830845 -1.69907e-21)
(0.993212 -0.0108838 1.52793e-21)
(0.993311 -0.00439058 -1.82276e-21)
(0.992508 -0.00762152 3.30664e-21)
(0.986278 -0.0025081 -5.83075e-22)
(0.984053 -0.0057477 -1.1537e-21)
(0.979617 -0.000946507 2.09297e-21)
(0.975187 -0.00348024 -7.28212e-21)
(0.969816 0.00053633 1.01131e-20)
(0.964324 -0.00254886 -1.52076e-21)
(0.959875 0.00109189 -4.15969e-23)
(0.952789 -0.00172046 -2.9085e-21)
(0.947263 0.00169501 1.67061e-22)
(0.938601 -0.00106681 -6.28218e-21)
(0.932256 0.00237572 1.26056e-20)
(0.922342 6.84372e-05 1.53121e-21)
(0.91375 0.00377463 -9.35833e-21)
(0.902328 0.00216881 3.65638e-21)
(0.891797 0.00650935 1.39039e-23)
(0.87891 0.00546804 -7.58554e-21)
(0.86599 0.0107146 1.59157e-20)
(0.998431 -0.00343081 9.97648e-22)
(1.00241 -0.000745742 6.86337e-22)
(1.00979 -0.0141517 3.24416e-22)
(1.00176 0.0074996 2.83651e-21)
(0.996634 -0.00549881 3.79998e-22)
(0.999435 0.0051687 -8.55145e-22)
(0.993585 -0.00118961 2.53716e-23)
(0.994461 0.000809044 -8.16028e-22)
(0.998113 -0.00910646 1.58568e-21)
(0.995818 0.00175331 -8.99837e-22)
(0.993784 -0.0118754 -1.82652e-21)
(0.99399 -0.00202909 1.1978e-21)
(0.993494 -0.00770049 1.43177e-21)
(0.985942 5.82278e-05 -3.28775e-21)
(0.984101 -0.00438141 7.03031e-21)
(0.978651 0.00202283 -9.49254e-21)
(0.974344 -0.00159008 4.7683e-21)
(0.968349 0.0042354 -6.99499e-21)
(0.962903 0.000251308 3.64472e-21)
(0.958646 0.00582467 7.77815e-21)
(0.951363 0.0022716 -1.09276e-20)
(0.946182 0.00773088 1.40149e-20)
(0.937422 0.00478467 -1.55096e-20)
(0.931325 0.010558 6.3133e-21)
(0.921531 0.00848664 8.05333e-21)
(0.913896 0.0150266 1.03956e-20)
(0.902611 0.0141013 -3.52404e-20)
(0.892893 0.0217669 7.08861e-21)
(0.880468 0.0220029 -1.74988e-21)
(0.868479 0.0309298 -5.39074e-21)
(0.998106 -0.00428006 4.29484e-22)
(1.00176 -0.00017653 -4.1721e-22)
(1.01235 -0.0155393 6.2475e-22)
(1.00067 0.0105426 -1.05505e-21)
(0.995664 -0.00700294 9.58528e-22)
(0.998688 0.00772294 -6.3813e-22)
(0.992129 -0.0025157 9.54711e-23)
(0.993878 0.00116554 -2.93207e-21)
(0.999067 -0.00942755 2.33842e-21)
(0.995749 0.00231815 1.84959e-21)
(0.994549 -0.0129281 -3.19776e-21)
(0.994781 0.000959666 -7.7543e-22)
(0.994392 -0.00847316 3.82823e-21)
(0.98521 0.00314214 -2.50258e-21)
(0.983937 -0.00326213 9.33744e-22)
(0.977362 0.00501801 -1.11662e-21)
(0.973575 -0.000241313 9.58908e-22)
(0.96692 0.00738476 -3.60974e-22)
(0.962071 0.00222137 -9.00122e-22)
(0.95767 0.00970076 1.39609e-20)
(0.950518 0.00493587 -1.21735e-20)
(0.945702 0.0124171 -1.23449e-20)
(0.937101 0.00899724 -2.53821e-21)
(0.93201 0.017022 3.42839e-20)
(0.922059 0.0148908 1.95854e-20)
(0.915126 0.0239758 -1.93306e-20)
(0.904188 0.0232823 1.32366e-20)
(0.894973 0.0338446 -2.58453e-20)
(0.883189 0.034943 1.44405e-20)
(0.87233 0.0476603 -1.0007e-19)
(0.997884 -0.00481253 -2.2459e-21)
(1.00117 -0.000257633 8.84692e-22)
(1.01498 -0.0163458 -1.51078e-21)
(0.999052 0.013312 1.40618e-21)
(0.994599 -0.00796808 -1.84622e-21)
(0.997891 0.00980568 8.6757e-22)
(0.990696 -0.00369141 5.49781e-22)
(0.993733 0.000950048 1.05869e-21)
(1.00048 -0.00956211 6.45209e-23)
(0.995333 0.00241338 -3.72688e-21)
(0.995892 -0.013491 1.0071e-21)
(0.995331 0.00320728 1.23245e-21)
(0.994762 -0.00820439 6.84998e-21)
(0.984438 0.00668436 -6.78361e-21)
(0.98327 -0.00138324 3.13313e-21)
(0.975562 0.00825915 4.52329e-21)
(0.972239 0.00259519 -4.50719e-21)
(0.965018 0.011062 -1.03689e-20)
(0.961033 0.00510809 -4.78325e-21)
(0.956769 0.0145645 1.80595e-20)
(0.949495 0.0090515 7.34183e-21)
(0.945618 0.0190034 -4.0857e-21)
(0.937066 0.0150482 6.35414e-21)
(0.93199 0.0256227 5.53983e-21)
(0.923332 0.0236232 -2.34015e-20)
(0.916524 0.0353119 -2.98759e-20)
(0.906665 0.0353588 1.44405e-20)
(0.898772 0.0493251 7.08367e-20)
(0.887966 0.0512286 -1.01392e-19)
(0.879302 0.0676854 1.13835e-19)
(0.997793 -0.00540673 1.12747e-21)
(1.00085 -0.00048378 -1.17027e-21)
(1.01742 -0.0171047 -1.82366e-21)
(0.996837 0.0166999 1.16406e-21)
(0.993584 -0.0094272 7.72428e-22)
(0.996929 0.01241 -1.7732e-21)
(0.989663 -0.00555062 1.62761e-21)
(0.994022 0.000943356 1.48713e-21)
(1.00234 -0.00978263 -2.28134e-22)
(0.995137 0.00242211 -1.20974e-21)
(0.997106 -0.0142417 4.73827e-21)
(0.995724 0.00634541 -3.38629e-21)
(0.995513 -0.0094067 6.35301e-21)
(0.983181 0.011925 -1.05368e-20)
(0.981843 -0.00153714 1.26146e-20)
(0.974069 0.0123051 -5.35293e-21)
(0.971253 0.00272018 -1.03802e-20)
(0.963492 0.0138675 -6.23902e-21)
(0.960537 0.00563898 -4.14919e-21)
(0.956369 0.0177693 -2.04244e-21)
(0.950262 0.0104671 3.15248e-20)
(0.946104 0.0220775 -3.40045e-20)
(0.939004 0.0178277 4.56891e-22)
(0.934021 0.0295044 2.22879e-20)
(0.925588 0.0272026 -1.96782e-20)
(0.920689 0.0419051 1.22078e-20)
(0.910903 0.0411613 4.71717e-20)
(0.90447 0.0591489 -8.17912e-20)
(0.895153 0.0611811 6.11853e-20)
(0.887562 0.0819781 1.95334e-20)
(0.997894 -0.00561514 3.40058e-23)
(1.00085 -0.0015161 9.38347e-22)
(1.01979 -0.0168294 1.78813e-21)
(0.993473 0.0193755 1.21652e-21)
(0.993034 -0.0100773 -5.462e-23)
(0.995551 0.013819 -2.54948e-21)
(0.989348 -0.00684745 -1.50221e-21)
(0.994845 -8.77524e-05 4.11062e-21)
(1.00434 -0.00939583 -5.14192e-21)
(0.994764 0.00199323 2.27669e-21)
(0.999362 -0.0130115 -6.87731e-22)
(0.99502 0.00796351 1.00795e-20)
(0.995547 -0.00731742 -1.94694e-21)
(0.981694 0.0169348 -2.16354e-21)
(0.979694 0.000510604 -7.80126e-21)
(0.97218 0.0156014 -6.56874e-21)
(0.969065 0.00651012 2.36791e-20)
(0.962834 0.015992 -8.61786e-21)
(0.960337 0.0110797 -8.03776e-21)
(0.95494 0.0217363 -2.40187e-21)
(0.950863 0.0159125 2.03342e-20)
(0.946165 0.0293005 -8.05842e-21)
(0.940347 0.0244347 1.19406e-20)
(0.936146 0.0403446 7.98418e-21)
(0.928447 0.0363124 -6.3244e-20)
(0.923913 0.0552777 1.09369e-20)
(0.916618 0.0544353 -9.39063e-21)
(0.910927 0.0755714 4.01848e-22)
(0.90501 0.0786449 5.24543e-20)
(0.997798 -0.00606038 9.70697e-22)
(1.00148 -0.00248656 -4.71383e-22)
(1.02219 -0.0164489 -9.79192e-22)
(0.988609 0.0227187 1.40195e-21)
(0.993183 -0.0113492 1.46242e-21)
(0.993262 0.0158549 -2.83161e-22)
(0.989683 -0.00931378 -1.69564e-21)
(0.99595 -0.000385044 2.32357e-21)
(1.006 -0.00979188 -1.10636e-21)
(0.993831 0.00159903 2.87971e-22)
(1.0021 -0.0131777 9.82539e-22)
(0.994019 0.0104709 -5.58088e-21)
(0.994923 -0.00861714 3.53746e-21)
(0.978006 0.023072 1.65111e-21)
(0.979301 -0.00255479 -9.67548e-21)
(0.967654 0.0213199 1.23715e-20)
(0.971448 0.00305917 -1.15268e-20)
(0.958234 0.0188397 2.40247e-20)
(0.965083 0.00951139 -1.64489e-20)
(0.952476 0.0235798 1.18646e-20)
(0.953136 0.0136754 1.01757e-21)
(0.947404 0.0307892 -3.96544e-20)
(0.943373 0.0236427 1.14281e-20)
(0.938274 0.0407173 5.35796e-21)
(0.935197 0.0378373 2.15021e-20)
(0.928284 0.0571156 -2.36742e-20)
(0.925208 0.0569095 -2.50438e-21)
(0.919396 0.0816374 3.1796e-20)
(0.915785 0.0839143 2.19981e-20)
(0.997443 -0.00604773 -1.02055e-21)
(1.00271 -0.00443557 3.01436e-22)
(1.02438 -0.0142336 -1.45835e-21)
(0.984698 0.0246654 2.51558e-22)
(0.991922 -0.0117709 1.01113e-22)
(0.995639 0.0163915 1.78448e-22)
(0.986493 -0.0107333 -5.65634e-22)
(1.00126 -0.00147482 7.71067e-22)
(1.00551 -0.00820031 -4.91101e-21)
(0.994177 0.00083779 6.75146e-21)
(1.00232 -0.00968775 5.48673e-21)
(0.994844 0.0118742 -5.84668e-21)
(0.995375 -0.0028988 -1.03561e-20)
(0.974196 0.0279975 1.93343e-20)
(0.975036 -3.37049e-05 -2.3519e-20)
(0.972323 0.025935 1.7061e-20)
(0.963201 0.0062752 -2.26376e-21)
(0.968101 0.0216776 -1.80361e-20)
(0.957301 0.0175569 1.22058e-20)
(0.95873 0.0270537 1.28583e-20)
(0.95138 0.0232022 1.24904e-20)
(0.950584 0.0378434 -3.18811e-20)
(0.943266 0.0341962 -2.4256e-20)
(0.943864 0.0523466 6.88753e-20)
(0.934522 0.0488372 -4.63516e-20)
(0.939231 0.0738053 -1.05847e-21)
(0.92836 0.069327 -1.99784e-20)
(0.935421 0.100347 7.89157e-20)
(1.00183 -0.00647746 0)
(0.998977 -0.00644609 0)
(1.02811 -0.0122421 0)
(0.977496 0.0273893 0)
(0.997633 -0.0139205 0)
(0.991884 0.0174266 0)
(0.99104 -0.0140893 0)
(0.999732 -0.00279539 0)
(1.00795 -0.00808869 0)
(0.989017 -0.000436318 0)
(1.00858 -0.00987973 0)
(0.990607 0.0119414 0)
(0.999007 -0.00201853 0)
(0.96633 0.0318971 0)
(0.982793 -0.00747291 0)
(0.966657 0.0315585 0)
(0.972715 -0.0040524 0)
(0.966423 0.0246164 0)
(0.965579 0.0123319 0)
(0.956356 0.0239893 0)
(0.960378 0.0173877 0)
(0.95115 0.0364995 0)
(0.952687 0.0262024 0)
(0.943501 0.0485748 0)
(0.952251 0.0432165 0)
(0.936136 0.066148 0)
(0.952694 0.0647025 0)
(0.937286 0.0931679 0)
(1.00931 -0.00626929 0)
(0.991925 -0.00899607 0)
(1.02574 -0.00937027 0)
(0.973598 0.0287942 0)
(1.00542 -0.0141122 0)
(0.982882 0.0173046 0)
(1.00081 -0.0144416 0)
(0.989674 -0.00413021 0)
(1.00764 -0.00620466 0)
(0.982336 -0.00160171 0)
(1.01103 -0.00799417 0)
(0.983784 0.0122617 0)
(0.993024 0.0045325 0)
(0.964347 0.0320709 0)
(0.9899 -0.00457488 0)
(0.958438 0.0354667 0)
(0.985642 -0.00479997 0)
(0.954514 0.0338608 0)
(0.976093 0.0107647 0)
(0.951247 0.0321744 0)
(0.9639 0.0209778 0)
(0.949108 0.0383372 0)
(0.957976 0.0359983 0)
(0.943418 0.0450866 0)
(0.960361 0.0544457 0)
(0.940369 0.0608483 0)
(0.963626 0.0739807 0)
(0.945892 0.0833894 0)
(1.01451 -0.00621889 0)
(0.986282 -0.0105008 0)
(1.01432 -0.00686633 0)
(0.980298 0.0289237 0)
(1.00761 -0.0135763 0)
(0.980764 0.0168945 0)
(1.00674 -0.0144548 0)
(0.980318 -0.00502022 0)
(1.00356 -0.00390571 0)
(0.979185 -0.00497697 0)
(1.00193 -0.00551671 0)
(0.980919 0.0138117 0)
(0.982901 0.0093412 0)
(0.971016 0.0289058 0)
(0.983999 -0.000837029 0)
(0.965627 0.0331929 0)
(0.982866 -0.00277381 0)
(0.954852 0.0345591 0)
(0.97705 0.0117606 0)
(0.950339 0.032892 0)
(0.964793 0.0248291 0)
(0.948499 0.0342855 0)
(0.959025 0.0420383 0)
(0.946131 0.039286 0)
(0.959884 0.0575531 0)
(0.949899 0.0571521 0)
(0.963407 0.0739469 0)
(0.95734 0.0769666 0)
(1.01523 -0.00581041 0)
(0.984202 -0.0107539 0)
(0.999627 -0.00572388 0)
(0.993495 0.0274236 0)
(1.00653 -0.0114112 0)
(0.986411 0.0150764 0)
(1.0086 -0.012334 0)
(0.977296 -0.00565506 0)
(0.999538 -0.00176869 0)
(0.979148 -0.00711128 0)
(0.987529 -0.00230782 0)
(0.983666 0.0130677 0)
(0.980374 0.0135615 0)
(0.979171 0.025735 0)
(0.977455 0.00234597 0)
(0.977271 0.031575 0)
(0.978105 0.00186297 0)
(0.965059 0.0334635 0)
(0.97797 0.0172869 0)
(0.95526 0.0303414 0)
(0.971214 0.0324497 0)
(0.952734 0.0309276 0)
(0.962508 0.0462251 0)
(0.952538 0.0382187 0)
(0.960694 0.0556959 0)
(0.956863 0.0558972 0)
(0.965182 0.0708058 0)
(0.963922 0.072476 0)
(1.01428 -0.00524085 0)
(0.984629 -0.00986164 0)
(0.987948 -0.00595295 0)
(1.00336 0.0245797 0)
(1.00768 -0.00873377 0)
(0.99179 0.0130686 0)
(1.01056 -0.00896143 0)
(0.978204 -0.00592438 0)
(0.996381 0.00036356 0)
(0.980494 -0.00722643 0)
(0.976441 -0.000497825 0)
(0.987192 0.00975727 0)
(0.984336 0.0172028 0)
(0.985608 0.0245156 0)
(0.977458 0.00391239 0)
(0.983125 0.0309344 0)
(0.980162 0.00510802 0)
(0.973289 0.0319747 0)
(0.985293 0.023234 0)
(0.962457 0.0284393 0)
(0.978678 0.0376307 0)
(0.961822 0.0309745 0)
(0.968936 0.0480327 0)
(0.960064 0.0408611 0)
(0.964598 0.0530537 0)
(0.961439 0.054616 0)
(0.968158 0.0670244 0)
(0.967794 0.0686877 0)
(1.01378 -0.00455196 0)
(0.985788 -0.00807691 0)
(0.981489 -0.00689606 0)
(1.00662 0.020039 0)
(1.01035 -0.00535623 0)
(0.993516 0.0108966 0)
(1.01288 -0.00502644 0)
(0.979516 -0.00532136 0)
(0.994067 0.00227063 0)
(0.982562 -0.00542594 0)
(0.971359 0.000125337 0)
(0.987264 0.00537248 0)
(0.988339 0.0183849 0)
(0.990142 0.0259258 0)
(0.981568 0.00478163 0)
(0.985071 0.030349 0)
(0.98444 0.00844477 0)
(0.976767 0.0283998 0)
(0.993033 0.0284421 0)
(0.970033 0.0281954 0)
(0.984546 0.0410141 0)
(0.971044 0.0339702 0)
(0.975453 0.048158 0)
(0.96722 0.0452432 0)
(0.970728 0.0515851 0)
(0.96643 0.0548365 0)
(0.971891 0.0628134 0)
(0.971153 0.065564 0)
(1.01277 -0.00392893 0)
(0.987005 -0.00579344 0)
(0.981337 -0.00788016 0)
(1.00574 0.0145989 0)
(1.01069 -0.00210416 0)
(0.994122 0.0089401 0)
(1.01241 -0.00144643 0)
(0.98151 -0.00351754 0)
(0.992497 0.0031387 0)
(0.984919 -0.00227679 0)
(0.973372 7.13718e-05 0)
(0.984121 0.00146662 0)
(0.99 0.0162452 0)
(0.992924 0.0284128 0)
(0.986206 0.00637095 0)
(0.986469 0.0286416 0)
(0.987424 0.0125166 0)
(0.978769 0.0237412 0)
(0.994667 0.0314874 0)
(0.978038 0.0293284 0)
(0.986655 0.0427544 0)
(0.978787 0.0383432 0)
(0.980504 0.0472547 0)
(0.975014 0.0497263 0)
(0.977125 0.0513281 0)
(0.973207 0.0560713 0)
(0.977399 0.0590066 0)
(0.975651 0.0635313 0)
(1.01033 -0.00322703 0)
(0.988345 -0.00381158 0)
(0.985931 -0.00879484 0)
(1.00437 0.0100209 0)
(1.00783 0.000380788 0)
(0.994977 0.0078629 0)
(1.00875 0.00144907 0)
(0.984057 -0.00110369 0)
(0.991619 0.00324447 0)
(0.987963 0.000974133 0)
(0.980318 -0.000227122 0)
(0.981352 0.000117116 0)
(0.989975 0.0115956 0)
(0.994946 0.0296437 0)
(0.98987 0.00934953 0)
(0.988905 0.0260416 0)
(0.989079 0.0173214 0)
(0.980624 0.0211767 0)
(0.99141 0.0320681 0)
(0.98342 0.030221 0)
(0.986407 0.0429281 0)
(0.984679 0.0423619 0)
(0.984765 0.0467884 0)
(0.98217 0.0524831 0)
(0.983369 0.0512018 0)
(0.980881 0.0569668 0)
(0.984936 0.0565964 0)
(0.98244 0.0616302 0)
(1.00706 -0.00239183 0)
(0.989812 -0.00256063 0)
(0.992762 -0.0100957 0)
(1.0033 0.00735893 0)
(1.00357 0.00206474 0)
(0.995768 0.00760245 0)
(1.00351 0.00376096 0)
(0.987027 0.000938333 0)
(0.991326 0.00276064 0)
(0.990473 0.00340135 0)
(0.989441 -0.000221223 0)
(0.981081 0.00107477 0)
(0.990229 0.00616595 0)
(0.995485 0.0287177 0)
(0.992577 0.0135405 0)
(0.991585 0.0239572 0)
(0.989999 0.0218975 0)
(0.983448 0.0207777 0)
(0.987182 0.031887 0)
(0.986441 0.0310602 0)
(0.984864 0.0410697 0)
(0.988351 0.0447666 0)
(0.987279 0.0458337 0)
(0.988074 0.0529917 0)
(0.989493 0.0508898 0)
(0.988174 0.0567217 0)
(0.993433 0.0550925 0)
(0.99019 0.0592928 0)
(1.0037 -0.00140094 0)
(0.992322 -0.00229327 0)
(0.999139 -0.0117417 0)
(1.00109 0.00682766 0)
(0.999994 0.00315135 0)
(0.995773 0.00772815 0)
(0.998541 0.00588509 0)
(0.991063 0.00175909 0)
(0.991314 0.00232983 0)
(0.992715 0.00431765 0)
(0.997387 -0.000631725 0)
(0.983116 0.00424721 0)
(0.991439 0.00256966 0)
(0.994052 0.0253197 0)
(0.994327 0.0174173 0)
(0.992713 0.0234622 0)
(0.990912 0.0248602 0)
(0.986807 0.0231317 0)
(0.98459 0.0318217 0)
(0.988554 0.0319477 0)
(0.983851 0.0388567 0)
(0.990371 0.0439417 0)
(0.98914 0.0446702 0)
(0.992703 0.0509175 0)
(0.994455 0.0497818 0)
(0.994759 0.0543393 0)
(1.00022 0.0530592 0)
(0.998269 0.0560517 0)
(1.00043 -0.000499292 0)
(0.995879 -0.00292656 0)
(1.00463 -0.0126465 0)
(0.997209 0.00766798 0)
(0.99691 0.00378909 0)
(0.995628 0.00808721 0)
(0.994115 0.00734014 0)
(0.996191 0.00164967 0)
(0.992152 0.00193072 0)
(0.994616 0.00441381 0)
(1.00322 -0.000705376 0)
(0.985497 0.00737957 0)
(0.993651 0.00164839 0)
(0.991679 0.0218262 0)
(0.994278 0.0197074 0)
(0.992166 0.0244186 0)
(0.990832 0.0267562 0)
(0.990151 0.0257963 0)
(0.984081 0.0317128 0)
(0.991031 0.0328706 0)
(0.984448 0.0365981 0)
(0.992893 0.0416829 0)
(0.990941 0.0424035 0)
(0.996643 0.047206 0)
(0.998236 0.0472104 0)
(1.0004 0.050332 0)
(1.00538 0.0501406 0)
(1.00537 0.0518035 0)
(0.998215 0.000274671 0)
(0.999507 -0.00467661 0)
(1.007 -0.0122641 0)
(0.99359 0.00990817 0)
(0.995195 0.00365124 0)
(0.99496 0.00847776 0)
(0.99216 0.00793749 0)
(1.00058 0.000340829 0)
(0.993455 0.00208988 0)
(0.996369 0.00366708 0)
(1.0056 -0.000542532 0)
(0.98851 0.0102178 0)
(0.994633 0.00364208 0)
(0.989763 0.0196138 0)
(0.993734 0.0199132 0)
(0.99059 0.0264307 0)
(0.990606 0.0270266 0)
(0.992502 0.0282887 0)
(0.986252 0.0311894 0)
(0.993499 0.0330178 0)
(0.987633 0.0351462 0)
(0.995502 0.038076 0)
(0.994137 0.0396793 0)
(1.0002 0.0420064 0)
(1.00186 0.0436376 0)
(1.00517 0.0449519 0)
(1.00912 0.0461184 0)
(1.01103 0.0465842 0)
(0.997155 0.00066918 0)
(1.00205 -0.00654898 0)
(1.00688 -0.0105821 0)
(0.991391 0.0120717 0)
(0.994734 0.00320148 0)
(0.99467 0.00858389 0)
(0.991897 0.00756048 0)
(1.00337 -0.00101418 0)
(0.994763 0.00219547 0)
(0.997614 0.00319467 0)
(1.00549 0.00046584 0)
(0.990796 0.0116848 0)
(0.995239 0.00694114 0)
(0.989283 0.0193788 0)
(0.993557 0.0191664 0)
(0.989795 0.0276018 0)
(0.990343 0.0266975 0)
(0.993993 0.0294034 0)
(0.989825 0.0300298 0)
(0.996229 0.0321816 0)
(0.991901 0.0333635 0)
(0.998673 0.0347121 0)
(0.997931 0.0364167 0)
(1.00398 0.0369998 0)
(1.00515 0.0393146 0)
(1.00924 0.0394284 0)
(1.01171 0.0414208 0)
(1.01501 0.0411147 0)
(0.997486 0.00097291 0)
(1.00314 -0.00880657 0)
(1.00352 -0.00809786 0)
(0.991671 0.0145094 0)
(0.995968 0.00243163 0)
(0.994796 0.00854643 0)
(0.993789 0.0066443 0)
(1.00407 -0.00271309 0)
(0.9953 0.00264517 0)
(0.998202 0.00252482 0)
(1.003 0.00223469 0)
(0.993116 0.0123976 0)
(0.994782 0.0101755 0)
(0.990332 0.0207816 0)
(0.99454 0.0181453 0)
(0.990881 0.0281281 0)
(0.991754 0.025527 0)
(0.995074 0.0296144 0)
(0.994248 0.0282744 0)
(0.998959 0.0302669 0)
(0.996887 0.0311411 0)
(1.0016 0.0312586 0)
(1.00175 0.0331469 0)
(1.00713 0.0320902 0)
(1.00813 0.0349301 0)
(1.01224 0.0338218 0)
(1.01343 0.0366586 0)
(1.01718 0.0354826 0)
(0.998752 0.000873959 0)
(1.00348 -0.00956382 0)
(0.997912 -0.00572773 0)
(0.99333 0.01502 0)
(0.998606 0.00211601 0)
(0.995461 0.00820553 0)
(0.997278 0.00570198 0)
(1.00369 -0.00294107 0)
(0.995143 0.00287472 0)
(0.998413 0.00268366 0)
(0.999107 0.00421886 0)
(0.995074 0.0123355 0)
(0.993885 0.0121697 0)
(0.992243 0.0219025 0)
(0.996455 0.0178108 0)
(0.993718 0.0271852 0)
(0.995124 0.0241981 0)
(0.99677 0.0285802 0)
(0.999115 0.0264628 0)
(1.0019 0.0279829 0)
(1.00216 0.0284853 0)
(1.00449 0.0282997 0)
(1.00527 0.029952 0)
(1.00955 0.0284329 0)
(1.01054 0.0308585 0)
(1.01434 0.0294497 0)
(1.01442 0.0321481 0)
(1.0181 0.0308931 0)
(0.999821 0.000570708 0)
(1.00324 -0.00921698 0)
(0.993697 -0.00359076 0)
(0.995243 0.0140237 0)
(1.00059 0.00186282 0)
(0.996665 0.00776316 0)
(1.00004 0.00487856 0)
(1.00305 -0.00215049 0)
(0.995164 0.00332868 0)
(0.998388 0.00306335 0)
(0.996272 0.00615893 0)
(0.996604 0.0119949 0)
(0.993788 0.0128745 0)
(0.994277 0.021932 0)
(0.998308 0.0175658 0)
(0.997255 0.0254834 0)
(0.998973 0.0224227 0)
(0.999352 0.0269133 0)
(1.00289 0.0245043 0)
(1.00482 0.0258026 0)
(1.0063 0.0257527 0)
(1.00731 0.0256117 0)
(1.00799 0.0270683 0)
(1.01119 0.0255919 0)
(1.01223 0.0276029 0)
(1.01554 0.0260191 0)
(1.01522 0.0284457 0)
(1.01825 0.0271383 0)
(1.00041 8.64004e-05 0)
(1.00255 -0.00764333 0)
(0.991774 -0.00205498 0)
(0.99721 0.0115552 0)
(1.00141 0.00184178 0)
(0.997881 0.0071306 0)
(1.00153 0.00440129 0)
(1.0022 -0.000328914 0)
(0.995623 0.00385325 0)
(0.998491 0.00397551 0)
(0.995034 0.00746572 0)
(0.997952 0.0115726 0)
(0.994729 0.0126328 0)
(0.996533 0.0203873 0)
(0.999688 0.0171794 0)
(1.0005 0.023121 0)
(1.00219 0.0205755 0)
(1.00208 0.0245658 0)
(1.00544 0.0226451 0)
(1.00695 0.0238145 0)
(1.00901 0.0233583 0)
(1.00946 0.0234758 0)
(1.01 0.0244478 0)
(1.0121 0.0236437 0)
(1.01311 0.0249247 0)
(1.01589 0.0237665 0)
(1.0157 0.0253898 0)
(1.01808 0.0244628 0)
(1.00043 -0.000278609 0)
(1.00171 -0.00589432 0)
(0.992245 -0.00112572 0)
(0.998797 0.00902621 0)
(1.00116 0.00186629 0)
(0.998866 0.00654003 0)
(1.00165 0.00428387 0)
(1.00151 0.00145232 0)
(0.996533 0.00451033 0)
(0.998892 0.00485432 0)
(0.995568 0.00801789 0)
(0.999206 0.011206 0)
(0.996493 0.0120056 0)
(0.998827 0.0181989 0)
(1.00082 0.0163192 0)
(1.00277 0.02075 0)
(1.00421 0.0187549 0)
(1.00445 0.0221073 0)
(1.00678 0.0207833 0)
(1.00823 0.0219449 0)
(1.01022 0.0213481 0)
(1.01078 0.0215837 0)
(1.01122 0.0221452 0)
(1.0126 0.0218329 0)
(1.01347 0.0226377 0)
(1.01578 0.0218832 0)
(1.01592 0.0228335 0)
(1.01785 0.0222111 0)
(1.00022 -0.000511309 0)
(1.00109 -0.00418011 0)
(0.993651 -0.000657286 0)
(0.999763 0.00668293 0)
(1.00066 0.00204597 0)
(0.999535 0.00598491 0)
(1.00129 0.00439001 0)
(1.00116 0.00306334 0)
(0.997572 0.00502403 0)
(0.999561 0.00564872 0)
(0.996898 0.00805356 0)
(1.00036 0.0106412 0)
(0.998401 0.0113096 0)
(1.00083 0.0158728 0)
(1.00187 0.0151058 0)
(1.00421 0.0184263 0)
(1.00541 0.0171397 0)
(1.00607 0.0197152 0)
(1.00756 0.0189251 0)
(1.00891 0.020106 0)
(1.01061 0.0195353 0)
(1.01146 0.0198836 0)
(1.01191 0.020064 0)
(1.01298 0.0200915 0)
(1.01362 0.020502 0)
(1.01553 0.020124 0)
(1.01589 0.0205511 0)
(1.0176 0.0201666 0)
(0.999939 -0.000569061 0)
(1.00071 -0.00289639 0)
(0.995333 -0.000455562 0)
(1.00023 0.0050397 0)
(1.00016 0.00225207 0)
(0.999975 0.00551147 0)
(1.00086 0.00455162 0)
(1.00112 0.00410947 0)
(0.998614 0.00529857 0)
(1.00037 0.00607931 0)
(0.998489 0.00779026 0)
(1.00139 0.00990878 0)
(1.00011 0.0105424 0)
(1.00235 0.0138775 0)
(1.0029 0.0137255 0)
(1.0051 0.016367 0)
(1.00604 0.0155808 0)
(1.00709 0.0175754 0)
(1.00805 0.0171044 0)
(1.00932 0.0182053 0)
(1.01061 0.0177762 0)
(1.01173 0.0181313 0)
(1.01219 0.0181005 0)
(1.01325 0.0182147 0)
(1.01369 0.0183854 0)
(1.01531 0.0182049 0)
(1.01572 0.018346 0)
(1.0173 0.0180751 0)
(0.999739 -0.000558903 0)
(1.00055 -0.00190795 0)
(0.996671 -0.000322466 0)
(1.00037 0.00386356 0)
(0.999915 0.0024069 0)
(1.00028 0.00509608 0)
(1.00067 0.00461336 0)
(1.00128 0.00470979 0)
(0.999518 0.00536994 0)
(1.00121 0.00620977 0)
(0.999847 0.0073526 0)
(1.00222 0.00908818 0)
(1.00148 0.00966818 0)
(1.00342 0.0121797 0)
(1.00383 0.0123227 0)
(1.00567 0.0144323 0)
(1.00649 0.0140641 0)
(1.00771 0.0156002 0)
(1.00841 0.0153366 0)
(1.00964 0.0162719 0)
(1.01057 0.0159996 0)
(1.01184 0.0163281 0)
(1.01227 0.0161939 0)
(1.0134 0.0163075 0)
(1.01371 0.0163065 0)
(1.01513 0.0162292 0)
(1.01546 0.0161884 0)
(1.0169 0.0160027 0)
(0.999632 -0.000481394 0)
(1.00044 -0.00124892 0)
(0.99766 -0.000232161 0)
(1.00043 0.00311252 0)
(0.999837 0.00249707 0)
(1.0005 0.0047303 0)
(1.00063 0.00454039 0)
(1.00149 0.00487612 0)
(1.00028 0.00528337 0)
(1.00193 0.00602237 0)
(1.00098 0.00679601 0)
(1.00291 0.00828311 0)
(1.00255 0.00873227 0)
(1.00419 0.0107425 0)
(1.00457 0.0109534 0)
(1.00611 0.0126747 0)
(1.00678 0.0125609 0)
(1.00805 0.0137398 0)
(1.00864 0.013629 0)
(1.00987 0.0143459 0)
(1.01053 0.0142037 0)
(1.0118 0.0144476 0)
(1.0122 0.0143082 0)
(1.01337 0.0143553 0)
(1.01362 0.0142724 0)
(1.01488 0.0142023 0)
(1.01513 0.0140776 0)
(1.01638 0.0139265 0)
(0.999597 -0.000394377 0)
(1.00041 -0.000774192 0)
(0.998305 -0.000130387 0)
(1.00041 0.00254425 0)
(0.999908 0.00250856 0)
(1.0007 0.0043792 0)
(1.00075 0.0043571 0)
(1.00177 0.00479203 0)
(1.00086 0.00502626 0)
(1.00246 0.00565299 0)
(1.00186 0.00617158 0)
(1.00339 0.00743756 0)
(1.00334 0.0078021 0)
(1.00473 0.00939242 0)
(1.00513 0.00965376 0)
(1.00645 0.0110173 0)
(1.00701 0.0110638 0)
(1.00828 0.0119707 0)
(1.00879 0.0119438 0)
(1.00998 0.0124738 0)
(1.01046 0.0123843 0)
(1.01168 0.0125707 0)
(1.01203 0.0124239 0)
(1.01317 0.0124401 0)
(1.01339 0.0122915 0)
(1.0145 0.012229 0)
(1.01469 0.0120447 0)
(1.01575 0.0119301 0)
(0.9996 -0.000302238 0)
(1.00038 -0.000452238 0)
(0.998776 -3.7847e-05 0)
(1.0004 0.00212914 0)
(0.999983 0.00242642 0)
(1.00086 0.00400684 0)
(1.00092 0.00410532 0)
(1.002 0.0044865 0)
(1.00135 0.0046334 0)
(1.00285 0.0051743 0)
(1.00252 0.00546607 0)
(1.00378 0.00655399 0)
(1.00387 0.00685371 0)
(1.00511 0.00811177 0)
(1.00553 0.00839506 0)
(1.00669 0.00944768 0)
(1.00717 0.00959444 0)
(1.00836 0.0102655 0)
(1.00883 0.0102932 0)
(1.00997 0.0106615 0)
(1.01037 0.0106026 0)
(1.01147 0.0107281 0)
(1.01178 0.0105835 0)
(1.01283 0.0105762 0)
(1.01304 0.0103931 0)
(1.01401 0.0103349 0)
(1.01416 0.0101187 0)
(1.01504 0.0100335 0)
(0.999615 -0.000224643 0)
(1.00036 -0.000238233 0)
(0.999127 6.94742e-05 0)
(1.00037 0.00179428 0)
(1.00007 0.00225674 0)
(1.00102 0.00358781 0)
(1.00108 0.00372737 0)
(1.00221 0.00405263 0)
(1.00177 0.00415517 0)
(1.00309 0.00459429 0)
(1.00299 0.00475033 0)
(1.00405 0.00562493 0)
(1.00421 0.00589235 0)
(1.00535 0.00686742 0)
(1.00576 0.00712944 0)
(1.00684 0.00793586 0)
(1.00725 0.00810435 0)
(1.00836 0.00861273 0)
(1.0088 0.00865269 0)
(1.00986 0.00891343 0)
(1.01021 0.00885782 0)
(1.01119 0.0089399 0)
(1.01147 0.00880196 0)
(1.0124 0.00878006 0)
(1.01262 0.00859412 0)
(1.01344 0.00853186 0)
(1.01358 0.00831856 0)
(1.01429 0.00824185 0)
(0.999648 -0.00015057 0)
(1.00033 -9.34631e-05 0)
(0.999371 0.000156982 0)
(1.0004 0.00152634 0)
(1.00016 0.002031 0)
(1.00111 0.00308541 0)
(1.00121 0.00326469 0)
(1.00234 0.00353646 0)
(1.00209 0.00358052 0)
(1.00325 0.00394537 0)
(1.00329 0.00403147 0)
(1.00426 0.00469283 0)
(1.00443 0.0049347 0)
(1.00547 0.00566049 0)
(1.00587 0.00589327 0)
(1.00687 0.00648281 0)
(1.00725 0.00664034 0)
(1.00827 0.00701337 0)
(1.00867 0.00704427 0)
(1.00965 0.00722261 0)
(1.00998 0.00715987 0)
(1.01086 0.00721207 0)
(1.01111 0.00708236 0)
(1.01193 0.00705914 0)
(1.01213 0.00688672 0)
(1.01284 0.00683211 0)
(1.01296 0.00664061 0)
(1.01355 0.00657787 0)
(0.999685 -0.000102543 0)
(1.0003 1.5808e-05 0)
(0.999531 0.000212074 0)
(1.0004 0.00130299 0)
(1.00024 0.00171774 0)
(1.00119 0.00254418 0)
(1.00132 0.0026854 0)
(1.00239 0.00290409 0)
(1.0023 0.0028938 0)
(1.00333 0.00320313 0)
(1.00346 0.00323134 0)
(1.00437 0.00372849 0)
(1.00455 0.00390127 0)
(1.0055 0.00445162 0)
(1.00587 0.00461705 0)
(1.00682 0.00504757 0)
(1.00717 0.00514747 0)
(1.00809 0.00541523 0)
(1.00847 0.00540847 0)
(1.00936 0.00552288 0)
(1.0097 0.0054344 0)
(1.01049 0.00545846 0)
(1.01074 0.00532556 0)
(1.01145 0.00530454 0)
(1.01166 0.00514822 0)
(1.01227 0.00511295 0)
(1.01239 0.004953 0)
(1.01287 0.00492244 0)
(0.999715 -3.07037e-05 0)
(1.00026 0.000148176 0)
(0.999616 0.00033847 0)
(1.00038 0.00114591 0)
(1.00027 0.00147348 0)
(1.00118 0.0020525 0)
(1.00132 0.00213945 0)
(1.00235 0.00229594 0)
(1.0024 0.00226494 0)
(1.00333 0.00248346 0)
(1.0035 0.00249744 0)
(1.00438 0.00283367 0)
(1.00458 0.00295674 0)
(1.00545 0.00333939 0)
(1.00578 0.00345324 0)
(1.00666 0.00374314 0)
(1.00699 0.00379725 0)
(1.00782 0.00396902 0)
(1.00816 0.00393451 0)
(1.00897 0.00398101 0)
(1.0093 0.0038637 0)
(1.01003 0.00382349 0)
(1.0103 0.00365478 0)
(1.01096 0.00356514 0)
(1.01119 0.00336707 0)
(1.01177 0.00325824 0)
(1.01192 0.00305917 0)
(1.01238 0.00296444 0)
(0.999744 1.27742e-05 0)
(1.00025 0.000123669 0)
(0.999651 0.000302415 0)
(1.00031 0.000770223 0)
(1.0002 0.00101398 0)
(1.00108 0.00132446 0)
(1.00124 0.00140808 0)
(1.00221 0.00147327 0)
(1.00235 0.00146639 0)
(1.00323 0.00156944 0)
(1.00343 0.00160061 0)
(1.00428 0.00177304 0)
(1.0045 0.00186731 0)
(1.00531 0.00207037 0)
(1.00562 0.00215772 0)
(1.00643 0.0023036 0)
(1.00673 0.0023459 0)
(1.00747 0.00241988 0)
(1.00774 0.00240214 0)
(1.00841 0.0023976 0)
(1.00865 0.0023199 0)