/*--------------------------------*- C++ -*----------------------------------*\
| =========                 |                                                 |
| \\      /  F ield         | OpenFOAM: The Open Source CFD Toolbox           |
|  \\    /   O peration     | Version:                                        |
|   \\  /    A nd           | Website:  www.openfoam.com                      |
|    \\/     M anipulation  |                                                 |
\*---------------------------------------------------------------------------*/
FoamFile
{
    version     2.0;
    format      ascii;
    class       surfaceScalarField;
    location    "19";
    object      phi;
}
// * * * * * * * * * * * * * * * * * * * * * * * * * * * * * * * * * * * * * //

dimensions      [0 3 -1 0 0 0 0];
oriented        oriented;


internalField   nonuniform List<scalar> 
2201
(
-0.000845401
0.000231032
0.000614368
-0.000919824
7.44234e-05
-0.000522062
-0.000397762
0.000401176
-0.000923238
0.00103608
-0.000634904
0.00119354
-0.000157463
0.00120687
-1.33268e-05
0.00141989
-0.000213022
0.00189779
-0.000477899
0.000726266
0.00117153
-0.00019747
0.00180956
-0.00138106
-0.000643849
0.000520802
-5.99393e-05
-0.000981671
0.000992888
-0.00197607
0.00164155
-0.00128356
0.00177377
-0.000289685
0.00165064
0.0001098
-4.23634e-05
0.00147998
-0.00428538
0.00376512
0.00588857
-0.00944768
0.00183246
0.00408278
-0.00410569
0.000663462
0.0016898
0.000943708
-0.00126192
0.00158205
-0.0026144
0.00157141
-0.00127292
0.000495498
0.000786225
-0.00297454
0.00357984
-0.00866978
0.00717522
-0.0136928
0.00878816
0.00891764
-0.0167219
0.00313553
0.006387
-0.00543974
0.00173389
0.00309144
0.00173235
-0.00126037
0.0013972
-0.00227925
-0.000580408
0.000704678
-0.00489914
0.00510495
-0.0107695
0.00945022
-0.0154791
0.0118848
-0.0185292
0.0118383
0.010706
-0.0203176
0.00419153
0.00836582
-0.00617035
0.00263273
0.00465024
0.00188085
-0.0005085
-0.000690406
0.000292008
-0.00541202
0.00542629
-0.0113704
0.0110633
-0.0164202
0.0145
-0.0192972
0.0147618
-0.0208697
0.0134108
0.0117447
-0.0219084
0.00334759
0.0103055
-0.00528724
0.00202971
0.00596812
-5.52059e-05
0.00157641
-0.00459514
0.00483194
-0.0107643
0.0115954
-0.0163251
0.0166242
-0.0196394
0.0178144
-0.0211539
0.0162762
-0.0221638
0.0144208
0.0123232
-0.0227424
0.00266483
0.0125149
-0.00487428
0.000891117
0.00774183
-0.00276304
0.00523057
-0.00887241
0.0109413
-0.0151832
0.0179062
-0.0194239
0.0208648
-0.0212204
0.0196109
-0.0222758
0.0173317
-0.0230834
0.0152283
0.0127142
-0.0234744
0.00119607
0.0143275
-0.00300865
-0.00111418
0.0100521
-0.00615389
0.0102703
-0.0128999
0.0176873
-0.0184086
0.023415
-0.0210626
0.0235189
-0.0221802
0.0207284
-0.0232497
0.0184012
-0.0238915
0.0158702
0.0130957
-0.024273
-0.000385215
0.0167844
-0.00207171
-0.00358076
0.0132476
-0.00974671
0.0164362
-0.0163425
0.024283
-0.0204882
0.0275607
-0.0220164
0.0250471
-0.0231039
0.0218159
-0.0241805
0.0194777
-0.0246587
0.0163484
0.0135434
-0.0251065
-0.00232391
-0.00650768
0.0174314
-0.0131922
0.0231207
-0.0190442
0.0301351
-0.0218511
0.0303676
-0.0227948
0.0259908
-0.0241366
0.0231577
-0.0249879
0.0203291
-0.0254849
0.0168454
0.0140509
-0.0259924
-0.00963063
0.0225481
-0.016384
0.0298741
-0.0211768
0.0349279
-0.0227022
0.031893
-0.0237241
0.0270126
-0.0251888
0.0246225
-0.0258363
0.0209766
-0.0265618
0.0175708
0.0144534
-0.0269643
-0.0128245
-0.0192418
0.0362914
-0.0226585
0.0383446
-0.0234962
0.0327307
-0.02491
0.0284264
-0.0262906
0.0260031
-0.0269332
0.0216192
-0.0277085
0.0183461
0.0147142
-0.0279693
-0.0216251
0.0418984
-0.0238455
0.040565
-0.0244495
0.0333347
-0.0263276
0.0303045
-0.0274362
0.0271117
-0.0279988
0.0221819
-0.0287703
0.0191176
0.0147846
-0.0288406
-0.0237216
-0.0246595
0.0415029
-0.0257256
0.0344008
-0.0278509
0.0324298
-0.0283316
0.0275924
-0.0292065
0.0230567
-0.029761
0.0196721
0.0149776
-0.029954
-0.0256456
0.0419056
-0.0274129
0.0361682
-0.0290051
0.034022
-0.029471
0.0280583
-0.0305939
0.0241796
-0.0309984
0.0200766
0.0153217
-0.0313426
-0.0268173
0.0421235
-0.0289322
0.0382831
-0.0302687
0.0353585
-0.0308181
0.0286076
-0.0321058
0.0254674
-0.0322126
0.0201834
0.0157468
-0.0326377
-0.0281077
-0.0309348
0.0411101
-0.031408
0.0358317
-0.032395
0.0295946
-0.0333503
0.0264227
-0.0333155
0.0201486
0.0163146
-0.0338833
-0.032327
0.0432526
-0.0325807
0.0360854
-0.034017
0.0310309
-0.0343728
0.0267784
-0.0348291
0.020605
0.0166139
-0.0351285
-0.0337481
0.045153
-0.0340895
0.0364269
-0.035552
0.0324934
-0.0359237
0.0271501
-0.0364407
0.021122
0.0167428
-0.0365695
-0.0350585
-0.0354359
0.0368042
-0.0374224
0.0344799
-0.0371606
0.0268882
-0.038053
0.0220144
0.0164546
-0.0377648
0.00258182
-0.00258221
0.00470696
-0.00212513
0.00623941
-0.00153246
0.00704861
-0.000809201
0.00696138
8.72331e-05
0.00606964
0.000891742
0.00433505
0.00173459
0.00204311
0.00229194
0.000219984
0.00182313
0.000834352
0.00296976
-0.00555253
0.00553257
-0.00468795
0.00751495
-0.00351483
0.00881294
-0.00210719
0.00949225
-0.000592084
0.0093514
0.00103259
0.00849084
0.00259515
0.00678423
0.00399855
0.00406139
0.00454597
0.00351468
0.00287619
0.00538356
-0.00719532
0.0073629
-0.00549417
0.00876014
-0.00350443
0.00956347
-0.00139542
0.00980156
0.000794504
0.00946224
0.00293447
0.0085548
0.004906
0.00669185
0.00640891
0.00610085
0.0053815
0.00732441
0.00869114
0.00948035
0.00974148
0.000533376
0.00951107
0.00316487
0.00891274
0.00550433
0.00766919
0.00765247
0.0083303
0.00962427
0.00929283
0.00349631
0.00866013
0.00613703
0.00776539
0.00854721
0.00992533
0.00905741
0.00813725
0.00705718
0.00698619
0.00969827
0.0116243
0.00771141
0.00653278
0.0108769
0.0132828
0.00477342
0.0150476
0.014761
0.0510272
-0.0493336
0.0140251
0.0538365
-0.0531006
0.0138509
0.0576404
-0.0574662
0.01297
0.0622891
-0.0614082
0.0115664
0.0667764
-0.0653728
0.0102903
0.0711045
-0.0698284
0.00931193
0.0758089
-0.0748305
0.00853656
0.0808601
-0.0800847
0.00785751
0.0861999
-0.0855208
0.00720684
0.091881
-0.0912304
0.00655906
0.097921
-0.0972732
0.00593384
0.104315
-0.103689
0.00534415
0.111083
-0.110493
0.00479161
0.118273
-0.11772
0.00427988
0.125912
-0.1254
0.00380865
0.134029
-0.133558
0.00337548
0.142674
-0.142241
0.00297906
0.151886
-0.15149
0.00261887
0.161712
-0.161352
0.00229166
0.172197
-0.17187
0.00199261
0.183398
-0.183099
0.00171782
0.195368
-0.195093
0.00146365
0.208172
-0.207918
0.00122709
0.221876
-0.22164
0.00100459
0.236559
-0.236336
0.000793551
0.252302
-0.252091
0.000590541
0.269203
-0.269
0.000393228
0.287367
-0.28717
0.000198454
0.306917
-0.306722
0.327994
-0.327796
0.0218854
0.0511562
0.0200686
0.0556532
0.018039
0.05967
0.0171849
0.0631432
0.0168292
0.0671321
0.0162033
0.0717305
0.0152337
0.0767785
0.0141586
0.0819352
0.0131061
0.0872524
0.0121025
0.0928846
0.011163
0.0988605
0.0103015
0.105176
0.00950423
0.11188
0.00875761
0.119019
0.00805962
0.12661
0.00740442
0.134684
0.00678637
0.143292
0.00620109
0.152472
0.00564486
0.162268
0.00511182
0.17273
0.00459721
0.183913
0.00409592
0.195869
0.00360287
0.208665
0.00311351
0.222366
0.00262316
0.237049
0.00212759
0.252798
0.00162221
0.269708
0.00110306
0.287886
0.000565016
0.307455
0.328559
0.0252128
0.0528316
0.0250817
0.0557843
0.0245568
0.0601949
0.0229379
0.0647621
0.0211391
0.0689308
0.019703
0.0731666
0.0185741
0.0779074
0.0176106
0.0828987
0.0167096
0.0881533
0.0158025
0.0937917
0.0149007
0.0997623
0.0140251
0.106052
0.0131734
0.112732
0.0123469
0.119846
0.0115503
0.127407
0.0107778
0.135457
0.0100254
0.144044
0.00929029
0.153207
0.0085688
0.16299
0.00785478
0.173444
0.00714327
0.184624
0.00642936
0.196583
0.00570803
0.209386
0.00497431
0.2231
0.00422278
0.2378
0.00344833
0.253572
0.00264521
0.270512
0.00180767
0.288724
0.000928871
0.308334
0.329488
0.0331315
0.0541801
0.0296955
0.0592203
0.0278255
0.062065
0.0274239
0.0651637
0.0269346
0.0694201
0.02579
0.0743112
0.0244062
0.0792912
0.0230615
0.0842435
0.0217732
0.0894416
0.0205384
0.0950265
0.0193812
0.10092
0.0182869
0.107146
0.0172314
0.113787
0.0162145
0.120863
0.0152348
0.128386
0.0142796
0.136412
0.0133443
0.14498
0.0124238
0.154127
0.0115114
0.163902
0.0105987
0.174357
0.00968001
0.185543
0.00874806
0.197515
0.00779622
0.210338
0.0068179
0.224078
0.0058066
0.238812
0.00475561
0.254623
0.00365794
0.271609
0.00250563
0.289876
0.0012897
0.30955
0.330778
0.0370107
0.0368029
0.0345986
0.0321455
0.0303662
0.0289665
0.0277453
0.0265889
0.0253906
0.0241891
0.0230308
0.102078
0.0218911
0.108286
0.0207636
0.114915
0.0196633
0.121963
0.0185828
0.129467
0.0175099
0.137485
0.0164432
0.146047
0.0153773
0.155193
0.0143047
0.164975
0.0132188
0.175443
0.0121134
0.186648
0.0109805
0.198648
0.00981274
0.211506
0.00860273
0.225288
0.00734293
0.240072
0.00602568
0.255941
0.00464281
0.272992
0.0031849
0.291334
0.00164139
0.311093
0.332419
0.0272775
0.0259364
0.0246212
0.0233412
0.0220806
0.0208307
0.0195888
0.0183449
0.0170895
0.0158144
0.0145118
0.0131718
0.0117858
0.0103447
0.00883956
0.00726101
0.00559952
0.00384406
0.00198195
0.0289775
0.0258537
-0.0274234
-0.0274079
0.0311195
0.0227329
-0.0248749
0.0324541
0.0193661
-0.0207007
0.0340311
0.0151423
-0.0167194
0.0351761
0.0112564
-0.0124014
0.036112
0.00680038
-0.00773631
0.0370576
0.00198635
-0.00293188
0.0376023
-0.00251026
0.0019655
0.0379716
-0.00805926
0.00768998
-0.0125446
0.0127514
0.0278263
0.0243275
-0.0263
0.0298553
0.0207039
0.0314908
0.0177307
0.0328879
0.0137452
0.0341516
0.00999273
0.0351325
0.00581947
0.0358635
0.00125533
0.0364162
-0.00306297
0.0365759
-0.00821896
-0.0125382
0.0269303
0.0230602
-0.0256629
0.0286386
0.0189955
0.0302316
0.0161377
0.03164
0.0123368
0.0328169
0.00881579
0.0338544
0.00478198
0.0344244
0.000685366
0.0350312
-0.00366974
0.0350528
-0.00824055
-0.0126139
0.0264876
0.0214647
-0.0248922
0.0277978
0.0176853
0.0292595
0.014676
0.0304524
0.0111439
0.0315562
0.007712
0.032495
0.00384316
0.0330507
0.00012972
0.0336452
-0.00426428
0.0335987
-0.00819405
-0.0128984
0.0258365
0.0193544
-0.0237262
0.0271823
0.0163396
0.0285592
0.0132991
0.029662
0.0100411
0.0306404
0.0067336
0.0314529
0.00303067
0.0320503
-0.000467758
0.0324646
-0.00467853
0.0325826
-0.0083121
-0.0129535
0.0247195
0.0173024
-0.0226675
0.0262934
0.0147656
0.0276727
0.0119198
0.0288399
0.0088739
0.0297852
0.00578827
0.0305315
0.00228438
0.031111
-0.00104731
0.0313926
-0.00496013
0.0315271
-0.00844661
-0.0127689
0.0237421
0.015707
-0.0221467
0.0252472
0.0132605
0.0265535
0.0106136
0.0276986
0.00772876
0.0286581
0.00482879
0.0293427
0.00159974
0.029926
-0.00163059
0.0301101
-0.00514422
0.0302788
-0.00861533
-0.0124441
0.0232427
0.0143848
-0.0219204
0.024595
0.0119082
0.0257237
0.00948493
0.0267549
0.00669749
0.0276234
0.00396029
0.0282706
0.000952524
0.0287931
-0.00215306
0.0289968
-0.00534791
0.0291568
-0.00877531
-0.0121279
0.0227647
0.0129201
-0.0213
0.0240734
0.0105994
0.0252046
0.00835376
0.0261254
0.00577667
0.0269321
0.00315362
0.0275186
0.000366028
0.0279569
-0.00259135
0.0281802
-0.00557125
0.0282104
-0.00880554
-0.0118868
0.0220144
0.0113491
-0.0204435
0.0233189
0.00929491
0.0245002
0.00717249
0.0254122
0.00486467
0.026183
0.00238276
0.0267378
-0.00018871
0.0271014
-0.00295498
0.02729
-0.0057598
0.0272101
-0.00872573
-0.011641
0.0213307
0.00987553
-0.0198571
0.0225472
0.00807843
0.0236759
0.00604373
0.0245682
0.0039724
0.0252904
0.00166057
0.0258256
-0.000723867
0.0261409
-0.00327031
0.0263077
-0.00592663
0.0261777
-0.0085957
-0.0114557
0.0208741
0.00853759
-0.0195361
0.022027
0.00692554
0.0230353
0.00503544
0.0238798
0.00312788
0.0245372
0.00100318
0.0250211
-0.00120778
0.0253293
-0.0035785
0.0254303
-0.00602769
0.0253613
-0.00852667
-0.0112009
0.0204748
0.00727798
-0.0192151
0.021628
0.00577229
0.0225496
0.00411385
0.0233568
0.00232072
0.0239379
0.000422036
0.0243844
-0.00165423
0.0246331
-0.00382719
0.0246939
-0.00608854
0.0246129
-0.00844569
-0.0108609
0.0200649
0.00603045
-0.0188174
0.0211819
0.00465527
0.0220856
0.00321015
0.0228331
0.00157327
0.0233766
-0.000121443
0.0237658
-0.00204342
0.0239458
-0.00400723
0.02397
-0.00611272
0.0238291
-0.00830479
-0.0105062
0.0196978
0.00480478
-0.0184721
0.020745
0.00360804
0.0216234
0.00233182
0.0223005
0.000896109
0.022821
-0.000641893
0.0231495
-0.00237193
0.0232674
-0.00412513
0.0232597
-0.00610503
0.0230579
-0.00810299
-0.0101906
0.0194811
0.00361978
-0.0182961
0.0204529
0.0026363
0.0212867
0.001498
0.0218964
0.000286384
0.0223778
-0.00112328
0.0226288
-0.00262289
0.022714
-0.00421032
0.0226076
-0.00599869
0.0223456
-0.00784097
-0.00975342
0.0193654
0.00247065
-0.0182162
0.0202707
0.00173103
0.0210153
0.00075334
0.0215939
-0.000292166
0.0219743
-0.00150371
0.0221348
-0.0027834
0.0221547
-0.00423023
0.0218842
-0.00572821
0.0213702
-0.00732697
-0.0087008
0.0193175
0.00135445
-0.0182013
0.0202451
0.000803423
0.0208693
0.000129153
0.0212989
-0.000721855
0.0214835
-0.00168825
0.0214381
-0.00273804
0.0211486
-0.00394066
0.0205583
-0.00513794
0.0192309
-0.00599954
-0.00619183
0.0191884
0.00038947
-0.0182234
0.0199948
-2.99322e-06
0.0204549
-0.000330927
0.0204851
-0.000752125
0.0200743
-0.0012774
0.0192581
-0.00192186
0.0179368
-0.00261933
0.0163854
-0.00358659
0.0137486
-0.00336274
-0.00189091
0.0145733
-0.0141839
0.0145704
0.0142394
0.0134873
0.0122099
0.010288
0.00766871
0.00408212
0.000719383
0.0202468
0.0377362
0.0227692
0.034989
-0.0375113
0.0252834
0.0320915
-0.0346058
0.02878
-0.03092
0.0170217
0.037134
0.0195966
0.0351613
0.0220112
0.0325743
0.0245683
0.0295344
0.0270483
0.0111988
0.0374832
0.0138889
0.0362705
0.0164976
0.0345253
0.0190386
0.0326203
0.0212167
0.0303963
0.0236063
0.0271448
0.0249916
0.00274268
0.0365039
0.00548157
0.036256
0.00820069
0.0357245
0.0108799
0.034804
0.0134851
0.0336653
0.0159853
0.0320251
0.0184816
0.0301241
0.0205345
0.0283434
0.02247
0.0252092
0.0225695
0.0026723
0.0338315
0.0053363
0.033592
0.00797167
0.0330891
0.01057
0.0322057
0.0130936
0.0311417
0.0154577
0.029661
0.0179113
0.0276705
0.0200515
0.0262032
0.0215783
0.0236824
0.0204216
0.00260239
0.0312291
0.00519204
0.0310023
0.00774801
0.0305332
0.0102623
0.0296913
0.0127314
0.0286726
0.0149645
0.0274279
0.0172572
0.0253779
0.019617
0.0238434
0.0211304
0.022169
0.0188845
0.00253153
0.0286974
0.00505124
0.0284826
0.00753092
0.0280535
0.00995815
0.0272641
0.0123773
0.0262535
0.0145627
0.0252425
0.0165859
0.0233546
0.0189735
0.0214559
0.0209166
0.0202259
0.0176544
0.00246271
0.0262346
0.00491441
0.0260309
0.00732909
0.0256388
0.0096663
0.0249269
0.012027
0.0238928
0.0142374
0.0230321
0.0160557
0.0215363
0.0181323
0.0193792
0.020363
0.0179951
0.016097
0.00239725
0.0238373
0.00478543
0.0236427
0.00714294
0.0232813
0.00939677
0.0226731
0.0116613
0.0216283
0.0139286
0.0207648
0.0157746
0.0196902
0.0174528
0.017701
0.0194426
0.0160054
0.0142396
0.00233786
0.0214993
0.00466434
0.0213163
0.00697591
0.0209697
0.00917139
0.0204776
0.0113091
0.0194905
0.0135366
0.0185373
0.0155476
0.0176792
0.017168
0.0160807
0.0187479
0.0144255
0.012544
0.00228527
0.0192139
0.00455398
0.0190475
0.00681927
0.0187044
0.0089868
0.0183101
0.0110229
0.0174544
0.0131309
0.0164294
0.0151634
0.0156468
0.0169402
0.0143038
0.0184551
0.0129105
0.011142
0.00224074
0.0169731
0.00445586
0.0168324
0.00667707
0.0164832
0.00882834
0.0161588
0.0108037
0.015479
0.0127952
0.0144379
0.014764
0.013678
0.0165484
0.0125194
0.0181946
0.0112644
0.0098005
0.00220455
0.0147684
0.00437339
0.0146636
0.00654484
0.0143118
0.0086937
0.0140099
0.0106485
0.0135242
0.012519
0.0125673
0.0144253
0.0117718
0.0161513
0.0107933
0.0177857
0.00963
0.00837102
0.00217728
0.012591
0.00431139
0.0125295
0.00642902
0.0121941
0.00856322
0.0118757
0.0105531
0.0115343
0.0123536
0.0107668
0.014153
0.00997243
0.0158439
0.00910239
0.0173845
0.00808941
0.00693813
0.00216001
0.0104309
0.00427454
0.0104149
0.00634301
0.0101257
0.00843717
0.00978159
0.010459
0.00951248
0.0122889
0.0089369
0.0140067
0.00825465
0.0156438
0.00746527
0.0171237
0.00660954
0.00558965
0.00215249
0.00827826
0.00426463
0.0083028
0.00630138
0.00808892
0.00833679
0.00774619
0.0103531
0.00749616
0.0122238
0.00706625
0.0139564
0.00652202
0.0155509
0.00587079
0.0170195
0.00514094
0.00431299
0.00215629
0.00612183
0.00428826
0.00617083
0.00633155
0.00604563
0.00831241
0.00576532
0.0102934
0.00551517
0.0121566
0.00520303
0.0139114
0.00476725
0.0154963
0.00428589
0.016956
0.00368125
0.00305273
0.00215653
0.00396516
0.0043132
0.00401417
0.00640798
0.00395084
0.00837822
0.00379508
0.010331
0.00356235
0.0121744
0.00335964
0.0139195
0.00302222
0.0155045
0.00270088
0.0169439
0.00224185
0.00179534
0.0021805
0.00178451
0.00438776
0.00180691
0.0065636
0.001775
0.00861596
0.00174273
0.0105829
0.0015954
0.0124502
0.00149231
0.0141655
0.00130695
0.0157286
0.00113774
0.0170717
0.000898767
0.000643688
0.00178438
0.00359129
0.0053663
0.00710902
0.00870442
0.0101967
0.0115037
0.0126414
0.0135402
0.0322224
0.00865205
0.00803068
0.00921541
0.0105178
0.00836623
0.0434644
0.00837479
0.0475507
0.00804429
0.0516429
0.00745929
0.0557769
0.00701004
0.0602782
0.00671334
0.0653894
0.00644202
0.0708384
0.00613452
0.0764837
0.00579385
0.0824003
0.00543977
0.0886687
0.00507417
0.0953338
0.00470035
0.10242
0.00432462
0.109948
0.00393973
0.117961
0.00356025
0.126436
0.00320212
0.135438
0.00285731
0.145021
0.00252838
0.155205
0.00221717
0.166012
0.00192592
0.177486
0.00165627
0.189668
0.00140788
0.202617
0.00118079
0.216395
0.000973478
0.231072
0.000784378
0.24673
0.000611037
0.263456
0.000449949
0.281354
0.000296885
0.300536
0.000148477
0.321129
0.343264
0.00945364
0.0445286
0.00879557
0.0482088
0.00845824
0.0519803
0.00824864
0.0559865
0.0079214
0.0606055
0.00749783
0.065813
0.00703505
0.0713012
0.00656396
0.0769548
0.00610438
0.0828599
0.00566233
0.0891108
0.00523025
0.0957658
0.00480016
0.10285
0.00437976
0.110369
0.00396993
0.118371
0.00355297
0.126853
0.00316865
0.135822
0.00280646
0.145384
0.00246641
0.155545
0.00214861
0.16633
0.00185483
0.17778
0.00158565
0.189937
0.00134045
0.202863
0.00111866
0.216617
0.000918022
0.231273
0.000736684
0.246911
0.000571697
0.263621
0.00041975
0.281506
0.000276239
0.30068
0.000137877
0.321267
0.343402
-0.0282584
0.0453791
-0.0290061
0.0489565
-0.0291273
0.0521015
-0.0293426
0.0562017
-0.0298676
0.0611304
-0.0302634
0.0662088
-0.0303736
0.0714114
-0.0302967
0.0768779
-0.0301141
0.0826773
-0.0298494
0.0888461
-0.0295095
0.095426
-0.0290941
0.102435
-0.0285971
0.109872
-0.0279973
0.117771
-0.0272881
0.126144
-0.026456
0.13499
-0.0255001
0.144428
-0.0244201
0.154465
-0.0232118
0.165122
-0.0218688
0.176437
-0.0203867
0.188455
-0.0187617
0.201238
-0.0169894
0.214844
-0.0150658
0.229349
-0.0129857
0.244831
-0.0107432
0.261379
-0.00833134
0.279094
-0.0057422
0.29809
-0.00296783
0.318493
0.340434
-0.0249566
0.0454608
-0.0246043
0.0486043
-0.0248393
0.0523365
-0.0254715
0.056834
-0.0258025
0.0614613
-0.0259429
0.0663493
-0.0260875
0.071556
-0.0261916
0.076982
-0.0262034
0.0826891
-0.0261268
0.0887695
-0.0259713
0.0952705
-0.0257325
0.102196
-0.0254048
0.109544
-0.0249708
0.117337
-0.0244255
0.125598
-0.0237644
0.134329
-0.02297
0.143633
-0.0220424
0.153538
-0.0209827
0.164062
-0.0197899
0.175244
-0.0184629
0.187128
-0.0170001
0.199775
-0.0153994
0.213244
-0.0136585
0.227608
-0.0117736
0.242946
-0.00974049
0.259346
-0.00755352
0.276907
-0.00520589
0.295743
-0.0026906
0.315977
0.337743
-0.0209371
0.0456971
-0.0214864
0.0491536
-0.0218847
0.0527347
-0.0221268
0.057076
-0.0224985
0.0618331
-0.0228911
0.0667419
-0.0230797
0.0717445
-0.023088
0.0769903
-0.0230292
0.0826303
-0.0229378
0.0886781
-0.0227991
0.0951318
-0.0225968
0.101994
-0.0223221
0.109269
-0.0219612
0.116976
-0.0215104
0.125147
-0.0209745
0.133793
-0.020322
0.142981
-0.0195415
0.152757
-0.0186322
0.163152
-0.0175945
0.174206
-0.0164303
0.185964
-0.0151394
0.198484
-0.0137215
0.211826
-0.0121754
0.226062
-0.0104985
0.241269
-0.00868772
0.257535
-0.00673845
0.274958
-0.00464505
0.293649
-0.00240092
0.313733
0.335342
-0.0172489
0.0462267
-0.0174224
0.0493271
-0.0177878
0.0531001
-0.0183635
0.0576518
-0.0186449
0.0621145
-0.0187106
0.0668076
-0.0188136
0.0718475
-0.0189652
0.0771419
-0.019096
0.0827611
-0.0191685
0.0887507
-0.0191736
0.0951368
-0.0191034
0.101923
-0.0189538
0.10912
-0.0187163
0.116739
-0.0183884
0.12482
-0.0179802
0.133385
-0.0174728
0.142473
-0.01685
0.152134
-0.0161067
0.162409
-0.0152423
0.173342
-0.014259
0.184981
-0.0131578
0.197383
-0.0119396
0.210608
-0.0106044
0.224727
-0.00915097
0.239816
-0.00757736
0.255961
-0.00588018
0.273261
-0.00405519
0.291824
-0.00209698
0.311775
0.333245
-0.0126684
0.0464937
-0.0132586
0.0499173
-0.0138726
0.0537141
-0.0143476
0.0581268
-0.0148545
0.0626213
-0.0153684
0.0673215
-0.0157037
0.0721829
-0.0158403
0.0772784
-0.015893
0.0828139
-0.0159188
0.0887764
-0.0159146
0.0951327
-0.0158635
0.101872
-0.0157539
0.10901
-0.0155752
0.11656
-0.0153191
0.124564
-0.0149893
0.133055
-0.0145821
0.142066
-0.0140846
0.151637
-0.0134885
0.161813
-0.0127896
0.172643
-0.0119871
0.184178
-0.0110807
0.196476
-0.0100707
0.209598
-0.00895682
0.223613
-0.00773853
0.238597
-0.00641441
0.254637
-0.00498206
0.271828
-0.00343839
0.290281
-0.00177909
0.310116
0.331466
-0.00820581
0.0469632
-0.00865516
0.0503667
-0.00923541
0.0542943
-0.00987769
0.0587691
-0.0102061
0.0629497
-0.0103582
0.0674736
-0.0105985
0.0724232
-0.0109576
0.0776375
-0.0113214
0.0831777
-0.0116264
0.0890814
-0.0118531
0.0953594
-0.0119986
0.102018
-0.0120621
0.109074
-0.0120452
0.116543
-0.0119436
0.124462
-0.0117564
0.132868
-0.0114903
0.1418
-0.0111436
0.15129
-0.0107129
0.161382
-0.0101943
0.172124
-0.00958631
0.18357
-0.00888803
0.195778
-0.00809958
0.208809
-0.00722078
0.222734
-0.00625143
0.237628
-0.00519086
0.253577
-0.00403771
0.270675
-0.0027901
0.289033
-0.00144509
0.308771
0.330021
-0.00369211
0.0477235
-0.00433574
0.0510103
-0.00468509
0.0546437
-0.00512069
0.0592047
-0.00578639
0.0636154
-0.00653953
0.0682268
-0.00712354
0.0730072
-0.00752353
0.0780375
-0.00781619
0.0834703
-0.00806089
0.0893261
-0.00826804
0.0955665
-0.00843866
0.102189
-0.00855687
0.109192
-0.00861858
0.116605
-0.00861698
0.12446
-0.00854346
0.132794
-0.0083993
0.141656
-0.00818679
0.151078
-0.00790673
0.161102
-0.00755664
0.171774
-0.00713512
0.183149
-0.0066404
0.195283
-0.00607235
0.208241
-0.00543034
0.222092
-0.00471437
0.236912
-0.00392399
0.252786
-0.00305857
0.26981
-0.00211711
0.288092
-0.00109791
0.307751
0.328923
0.00161919
0.0480698
0.00108833
0.0515411
-3.15609e-05
0.0557636
-0.000673776
0.0598469
-0.0010014
0.0639431
-0.00117241
0.0683978
-0.00154773
0.0733825
-0.00211488
0.0786046
-0.00273548
0.0840909
-0.0033082
0.0898988
-0.00379585
0.0960542
-0.00420608
0.102599
-0.00453022
0.109516
-0.00477994
0.116854
-0.00495998
0.12464
-0.00506851
0.132903
-0.00510487
0.141692
-0.00507278
0.151046
-0.00497683
0.161006
-0.00481892
0.171616
-0.00460048
0.18293
-0.00432173
0.195005
-0.00398359
0.207903
-0.00358657
0.221695
-0.00313152
0.236457
-0.00261903
0.252274
-0.00204948
0.26924
-0.00142313
0.287465
-0.000739323
0.307068
0.328184
0.00642227
0.0493375
0.00566847
0.0522949
0.00549032
0.0559417
0.00496085
0.0603764
0.0039007
0.0650032
0.00284228
0.0694562
0.00202512
0.0741997
0.00139967
0.0792301
0.000864233
0.0846264
0.000373783
0.0903893
-8.40525e-05
0.096512
-0.0004836
0.102998
-0.000853089
0.109886
-0.00117937
0.117181
-0.0014599
0.124921
-0.00169093
0.133134
-0.00186813
0.141869
-0.00199127
0.151169
-0.00206318
0.161078
-0.00208605
0.171639
-0.00206257
0.182907
-0.00199392
0.194936
-0.00188218
0.207791
-0.00172838
0.221541
-0.00153418
0.236263
-0.00130073
0.25204
-0.00102933
0.268969
-0.000721107
0.287157
-0.00037698
0.306724
0.327807
0.0127552
0.0119496
0.0104251
0.00939332
0.00902376
0.0086515
0.00802064
0.00716605
0.00627161
0.00543053
0.00466933
0.0039782
0.00337086
0.00283119
0.0023518
0.00192741
0.00155605
0.001235
0.000961157
0.000730352
0.000538119
0.000380741
0.000254369
0.000155945
8.25126e-05
3.14207e-05
2.12701e-07
-1.23927e-05
-1.09986e-05
)
;

boundaryField
{
    outlet
    {
        type            calculated;
        value           nonuniform 0();
    }
    upperWall
    {
        type            symmetryPlane;
        value           nonuniform 0();
    }
    lowerWall
    {
        type            symmetryPlane;
        value           uniform 0;
    }
    inlet
    {
        type            calculated;
        value           nonuniform 0();
    }
    cylinder
    {
        type            calculated;
        value           uniform 0;
    }
    frontAndBack
    {
        type            empty;
        value           nonuniform 0();
    }
    procBoundary1to0
    {
        type            processor;
        value           nonuniform List<scalar> 
45
(
-0.0175894
-0.039837
-0.0403935
-0.0402474
-0.0143187
-0.0389606
-0.0392467
-0.0389949
-0.00843463
-0.0384436
-0.0330898
-0.0386301
-0.00778465
-0.0357905
-0.00691188
-0.0431786
-0.0475593
-0.0513124
-0.0551919
-0.059829
-0.0650927
-0.0705671
-0.0761762
-0.0820597
-0.0883147
-0.0949682
-0.102046
-0.109573
-0.117576
-0.126056
-0.13508
-0.144677
-0.154876
-0.165701
-0.177195
-0.189399
-0.202369
-0.216168
-0.230865
-0.24654
-0.263283
-0.281193
-0.300383
-0.32098
-0.343115
)
;
    }
    procBoundary1to2
    {
        type            processor;
        value           nonuniform List<scalar> 
63
(
0.0192045
-9.61365e-05
0.00451389
0.00686826
0.0285043
0.0160181
0.0189954
0.0466247
0.0252428
0.0265994
0.0275208
0.0427104
0.0301845
0.0318478
0.0342131
0.0459984
-0.00842934
-0.0028792
-0.00969762
-0.00743708
-0.00487116
-0.00218462
-0.00938024
0.000289352
-0.00943372
0.00387262
-0.00863092
0.00797669
-0.00660871
0.0127122
-0.00452225
0.0174981
0.0539735
0.0594281
0.0642693
0.0676168
0.0711993
0.075711
0.0805124
0.0853999
0.0906398
0.096228
-0.0286426
0.103443
0.109627
0.11623
0.123243
0.130727
0.138735
0.147288
0.156437
0.16623
0.176718
0.187951
0.199988
0.212892
0.226729
0.241577
0.257519
0.274654
0.293089
0.312955
0.334401
)
;
    }
    procBoundary1to5
    {
        type            processor;
        value           nonuniform List<scalar> 
20
(
3.91784e-07
5.5511e-07
6.22749e-07
9.02097e-08
9.38344e-08
9.71072e-08
1.00033e-07
1.02931e-07
1.05907e-07
1.0911e-07
1.12406e-07
1.15823e-07
1.19177e-07
1.22463e-07
1.25915e-07
1.2946e-07
1.33577e-07
1.37882e-07
1.47286e-07
1.27331e-07
)
;
    }
}


// ************************************************************************* //
