/*--------------------------------*- C++ -*----------------------------------*\
| =========                 |                                                 |
| \\      /  F ield         | OpenFOAM: The Open Source CFD Toolbox           |
|  \\    /   O peration     | Version:                                        |
|   \\  /    A nd           | Website:  www.openfoam.com                      |
|    \\/     M anipulation  |                                                 |
\*---------------------------------------------------------------------------*/
FoamFile
{
    version     2.0;
    format      ascii;
    class       volVectorField;
    location    "0.5";
    object      U;
}
// * * * * * * * * * * * * * * * * * * * * * * * * * * * * * * * * * * * * * //

dimensions      [0 1 -1 0 0 0 0];


internalField   nonuniform List<vector> 
400
(
(0.0990021 0.000210479 0)
(0.0977326 0.000192555 0)
(0.0965714 0.000177176 0)
(0.0955034 0.000163857 0)
(0.0945164 0.000152218 0)
(0.0936004 0.000141962 0)
(0.092747 0.000132853 0)
(0.0919493 0.000124705 0)
(0.0912013 0.000117366 0)
(0.0904981 0.000110718 0)
(0.0898355 0.000104663 0)
(0.0892098 9.91189e-05 0)
(0.0886178 9.40212e-05 0)
(0.0880568 8.93151e-05 0)
(0.0875244 8.49552e-05 0)
(0.0870184 8.09033e-05 0)
(0.0865369 7.71263e-05 0)
(0.0860782 7.35964e-05 0)
(0.0856409 7.02894e-05 0)
(0.0852235 6.7185e-05 0)
(0.284528 0.00134238 0)
(0.280897 0.00122381 0)
(0.277583 0.00112211 0)
(0.274541 0.00103413 0)
(0.271736 0.000957411 0)
(0.269137 0.000889989 0)
(0.266722 0.000830304 0)
(0.264468 0.000777106 0)
(0.262359 0.000729386 0)
(0.26038 0.000686328 0)
(0.258517 0.000647265 0)
(0.256762 0.000611649 0)
(0.255103 0.000579028 0)
(0.253533 0.000549027 0)
(0.252045 0.000521332 0)
(0.250633 0.00049568 0)
(0.24929 0.000471845 0)
(0.248012 0.000449636 0)
(0.246795 0.000428887 0)
(0.245634 0.000409458 0)
(0.456805 0.00380147 0)
(0.451075 0.00346073 0)
(0.445848 0.00316824 0)
(0.441055 0.00291521 0)
(0.436638 0.00269463 0)
(0.432552 0.00250094 0)
(0.428757 0.00232968 0)
(0.42522 0.00217724 0)
(0.421914 0.00204073 0)
(0.418815 0.00191776 0)
(0.415902 0.00180641 0)
(0.413158 0.00170507 0)
(0.410568 0.00161242 0)
(0.40812 0.00152737 0)
(0.4058 0.001449 0)
(0.403601 0.00137652 0)
(0.401511 0.00130929 0)
(0.399524 0.00124674 0)
(0.397633 0.00118838 0)
(0.39583 0.00113381 0)
(0.614574 0.00733253 0)
(0.607145 0.00667316 0)
(0.60036 0.00610611 0)
(0.594134 0.00561487 0)
(0.588397 0.00518629 0)
(0.58309 0.00480978 0)
(0.578161 0.00447684 0)
(0.573569 0.00418058 0)
(0.569278 0.00391537 0)
(0.565257 0.00367665 0)
(0.561481 0.00346063 0)
(0.557925 0.00326421 0)
(0.554571 0.0030848 0)
(0.551401 0.00292026 0)
(0.548401 0.00276879 0)
(0.545556 0.00262884 0)
(0.542855 0.00249913 0)
(0.540288 0.00237856 0)
(0.537846 0.00226617 0)
(0.535519 0.00216115 0)
(0.756295 0.0116223 0)
(0.747723 0.0105837 0)
(0.739872 0.00968766 0)
(0.732652 0.00890935 0)
(0.725987 0.00822889 0)
(0.719813 0.00763019 0)
(0.714073 0.00710016 0)
(0.708722 0.00662815 0)
(0.70372 0.00620543 0)
(0.69903 0.00582482 0)
(0.694625 0.00548041 0)
(0.690476 0.00516728 0)
(0.686563 0.00488136 0)
(0.682865 0.0046192 0)
(0.679364 0.00437795 0)
(0.676045 0.00415516 0)
(0.672896 0.00394875 0)
(0.669902 0.00375697 0)
(0.667054 0.00357829 0)
(0.664341 0.0034114 0)
(0.880433 0.0163279 0)
(0.871419 0.0148925 0)
(0.86312 0.0136482 0)
(0.855455 0.0125629 0)
(0.848353 0.011611 0)
(0.841754 0.0107711 0)
(0.835604 0.0100259 0)
(0.829859 0.00936106 0)
(0.824478 0.00876478 0)
(0.819427 0.0082273 0)
(0.814676 0.00774051 0)
(0.810198 0.00729766 0)
(0.805971 0.00689308 0)
(0.801973 0.00652203 0)
(0.798187 0.00618048 0)
(0.794596 0.00586502 0)
(0.791186 0.00557275 0)
(0.787945 0.00530119 0)
(0.78486 0.00504817 0)
(0.781922 0.00481188 0)
(0.985807 0.0210453 0)
(0.977137 0.0192445 0)
(0.969088 0.0176733 0)
(0.961601 0.0162958 0)
(0.954621 0.0150818 0)
(0.948102 0.0140064 0)
(0.942 0.0130491 0)
(0.936277 0.0121924 0)
(0.9309 0.0114223 0)
(0.925839 0.0107266 0)
(0.921066 0.0100955 0)
(0.916559 0.00952051 0)
(0.912296 0.00899455 0)
(0.908258 0.00851168 0)
(0.904428 0.00806681 0)
(0.900793 0.00765563 0)
(0.897337 0.00727444 0)
(0.894048 0.00692007 0)
(0.890917 0.00658977 0)
(0.887932 0.00628117 0)
(1.07192 0.0253459 0)
(1.06437 0.0232573 0)
(1.05727 0.0214211 0)
(1.05059 0.0198005 0)
(1.04431 0.0183638 0)
(1.03839 0.0170846 0)
(1.03282 0.0159406 0)
(1.02756 0.014913 0)
(1.02259 0.0139859 0)
(1.01789 0.013146 0)
(1.01343 0.0123819 0)
(1.00922 0.0116842 0)
(1.00521 0.0110448 0)
(1.00141 0.0104566 0)
(0.9978 0.00991394 0)
(0.994362 0.00941167 0)
(0.991087 0.00894547 0)
(0.987967 0.0085116 0)
(0.984991 0.00810682 0)
(0.982151 0.00772833 0)
(1.13918 0.02884 0)
(1.13341 0.026575 0)
(1.12787 0.0245665 0)
(1.12257 0.0227798 0)
(1.1175 0.0211849 0)
(1.11268 0.0197561 0)
(1.10807 0.0184712 0)
(1.10369 0.0173113 0)
(1.09951 0.0162603 0)
(1.09553 0.0153044 0)
(1.09174 0.0144318 0)
(1.08812 0.0136325 0)
(1.08468 0.0128978 0)
(1.08139 0.0122204 0)
(1.07825 0.011594 0)
(1.07525 0.011013 0)
(1.07238 0.0104728 0)
(1.06965 0.00996925 0)
(1.06703 0.00949876 0)
(1.06453 0.00905824 0)
(1.18894 0.031233 0)
(1.1854 0.0289177 0)
(1.18186 0.0268449 0)
(1.17837 0.0249851 0)
(1.17494 0.0233121 0)
(1.17159 0.0218027 0)
(1.16833 0.0204368 0)
(1.16517 0.0191966 0)
(1.16212 0.0180669 0)
(1.15917 0.0170346 0)
(1.15633 0.0160882 0)
(1.1536 0.0152179 0)
(1.15097 0.0144152 0)
(1.14844 0.0136727 0)
(1.14601 0.0129841 0)
(1.14367 0.0123438 0)
(1.14143 0.011747 0)
(1.13928 0.0111894 0)
(1.13722 0.0106674 0)
(1.13523 0.0101778 0)
(1.22335 0.0323602 0)
(1.22226 0.0301145 0)
(1.22096 0.028084 0)
(1.21952 0.0262456 0)
(1.21797 0.0245782 0)
(1.21635 0.0230623 0)
(1.21469 0.0216808 0)
(1.21301 0.0204185 0)
(1.21132 0.0192619 0)
(1.20964 0.0181993 0)
(1.20798 0.0172203 0)
(1.20635 0.0163159 0)
(1.20475 0.0154783 0)
(1.20318 0.0147006 0)
(1.20166 0.0139768 0)
(1.20018 0.0133016 0)
(1.19874 0.0126704 0)
(1.19734 0.0120792 0)
(1.19599 0.0115243 0)
(1.19468 0.0110027 0)
(1.24511 0.0321917 0)
(1.24643 0.0301136 0)
(1.24739 0.0282161 0)
(1.24805 0.0264825 0)
(1.24847 0.0248965 0)
(1.24868 0.0234433 0)
(1.24874 0.0221092 0)
(1.24866 0.0208818 0)
(1.24847 0.0197501 0)
(1.2482 0.0187042 0)
(1.24786 0.0177353 0)
(1.24747 0.0168358 0)
(1.24704 0.0159988 0)
(1.24657 0.0152183 0)
(1.24609 0.0144889 0)
(1.24559 0.0138061 0)
(1.24508 0.0131656 0)
(1.24457 0.0125638 0)
(1.24406 0.0119974 0)
(1.24355 0.0114636 0)
(1.25708 0.030813 0)
(1.26061 0.0289703 0)
(1.26367 0.0272719 0)
(1.26632 0.0257063 0)
(1.26862 0.0242621 0)
(1.27063 0.0229284 0)
(1.27238 0.0216947 0)
(1.27391 0.0205518 0)
(1.27524 0.019491 0)
(1.27641 0.0185046 0)
(1.27744 0.0175856 0)
(1.27834 0.0167277 0)
(1.27914 0.0159254 0)
(1.27985 0.0151738 0)
(1.28047 0.0144684 0)
(1.28103 0.0138054 0)
(1.28153 0.0131812 0)
(1.28197 0.0125926 0)
(1.28237 0.012037 0)
(1.28273 0.0115117 0)
(1.26204 0.028389 0)
(1.26744 0.026818 0)
(1.27231 0.0253579 0)
(1.27672 0.0240008 0)
(1.28072 0.022739 0)
(1.28436 0.0215649 0)
(1.28768 0.020471 0)
(1.29071 0.0194505 0)
(1.29349 0.0184971 0)
(1.29604 0.0176049 0)
(1.29839 0.0167689 0)
(1.30056 0.0159841 0)
(1.30257 0.0152464 0)
(1.30444 0.0145519 0)
(1.30618 0.0138972 0)
(1.3078 0.0132792 0)
(1.30931 0.0126951 0)
(1.31073 0.0121424 0)
(1.31206 0.0116189 0)
(1.31331 0.0111224 0)
(1.26244 0.025123 0)
(1.26931 0.0238341 0)
(1.27566 0.0226274 0)
(1.28152 0.0214977 0)
(1.28695 0.0204399 0)
(1.29199 0.0194486 0)
(1.29667 0.0185188 0)
(1.30103 0.0176456 0)
(1.3051 0.0168247 0)
(1.3089 0.0160519 0)
(1.31246 0.0153235 0)
(1.3158 0.0146361 0)
(1.31893 0.0139865 0)
(1.32189 0.0133721 0)
(1.32467 0.0127902 0)
(1.3273 0.0122386 0)
(1.32978 0.0117152 0)
(1.33213 0.0112182 0)
(1.33436 0.0107458 0)
(1.33648 0.0102964 0)
(1.26027 0.0212222 0)
(1.26824 0.0202073 0)
(1.27571 0.0192514 0)
(1.2827 0.0183513 0)
(1.28927 0.0175032 0)
(1.29543 0.0167036 0)
(1.30123 0.015949 0)
(1.30669 0.0152362 0)
(1.31185 0.0145621 0)
(1.31671 0.0139239 0)
(1.32131 0.0133192 0)
(1.32566 0.0127455 0)
(1.32979 0.0122009 0)
(1.3337 0.0116833 0)
(1.33741 0.011191 0)
(1.34095 0.0107225 0)
(1.34431 0.0102763 0)
(1.3475 0.00985104 0)
(1.35055 0.00944554 0)
(1.35346 0.0090587 0)
(1.25704 0.0168725 0)
(1.26579 0.0161135 0)
(1.27405 0.0153956 0)
(1.28187 0.0147164 0)
(1.28928 0.0140733 0)
(1.29631 0.0134639 0)
(1.30297 0.0128859 0)
(1.30929 0.0123371 0)
(1.3153 0.0118154 0)
(1.32102 0.0113192 0)
(1.32646 0.0108466 0)
(1.33164 0.0103964 0)
(1.33658 0.00996703 0)
(1.34129 0.00955735 0)
(1.34578 0.00916621 0)
(1.35007 0.0087926 0)
(1.35417 0.00843558 0)
(1.35809 0.00809427 0)
(1.36183 0.00776788 0)
(1.36542 0.00745566 0)
(1.25384 0.0122259 0)
(1.26308 0.0117022 0)
(1.27188 0.0112055 0)
(1.28027 0.010734 0)
(1.28826 0.010286 0)
(1.29589 0.00985973 0)
(1.30317 0.00945381 0)
(1.31012 0.00906683 0)
(1.31676 0.00869754 0)
(1.32311 0.00834483 0)
(1.32918 0.0080077 0)
(1.33498 0.00768527 0)
(1.34054 0.00737671 0)
(1.34586 0.00708131 0)
(1.35095 0.00679839 0)
(1.35583 0.00652734 0)
(1.3605 0.00626761 0)
(1.36498 0.00601869 0)
(1.36927 0.00578007 0)
(1.37339 0.00555132 0)
(1.25136 0.00739847 0)
(1.26089 0.00709229 0)
(1.27001 0.00680135 0)
(1.27874 0.00652457 0)
(1.2871 0.00626094 0)
(1.29511 0.00600949 0)
(1.30278 0.00576938 0)
(1.31014 0.00553983 0)
(1.31719 0.00532015 0)
(1.32395 0.00510975 0)
(1.33044 0.00490811 0)
(1.33666 0.00471474 0)
(1.34263 0.00452924 0)
(1.34836 0.00435122 0)
(1.35385 0.00418034 0)
(1.35913 0.00401628 0)
(1.36419 0.00385877 0)
(1.36906 0.00370753 0)
(1.37373 0.00356231 0)
(1.37821 0.00342288 0)
(1.25003 0.00247598 0)
(1.25969 0.0023753 0)
(1.26896 0.00227957 0)
(1.27785 0.0021884 0)
(1.28638 0.00210146 0)
(1.29458 0.00201843 0)
(1.30244 0.00193904 0)
(1.30999 0.00186302 0)
(1.31724 0.00179018 0)
(1.32421 0.00172031 0)
(1.3309 0.00165325 0)
(1.33733 0.00158886 0)
(1.34351 0.00152701 0)
(1.34944 0.00146758 0)
(1.35514 0.00141047 0)
(1.36062 0.00135558 0)
(1.36588 0.00130282 0)
(1.37094 0.00125212 0)
(1.3758 0.00120339 0)
(1.38047 0.00115657 0)
)
;

boundaryField
{
    fixedWalls
    {
        type            noSlip;
    }
    inlet
    {
        type            fixedValue;
        value           nonuniform 0();
    }
    outlet
    {
        type            zeroGradient;
    }
    frontAndBack
    {
        type            empty;
    }
    procBoundary1to0
    {
        type            processor;
        value           nonuniform List<vector> 
20
(
(0.100398 0.000231575 0)
(0.288528 0.00148183 0)
(0.463119 0.00420167 0)
(0.622751 0.00810498 0)
(0.765696 0.012834 0)
(0.890255 0.0179932 0)
(0.99516 0.0231196 0)
(1.07995 0.0277309 0)
(1.14517 0.0314009 0)
(1.19244 0.0338235 0)
(1.22418 0.0348457 0)
(1.24334 0.0344675 0)
(1.25301 0.0328113 0)
(1.25606 0.0300777 0)
(1.25499 0.0264986 0)
(1.25175 0.0222994 0)
(1.2478 0.0176748 0)
(1.24413 0.012778 0)
(1.2414 0.00772091 0)
(1.23994 0.00258194 0)
)
;
    }
    procBoundary1to2
    {
        type            processor;
        value           nonuniform List<vector> 
20
(
(0.0848247 6.42642e-05 0)
(0.244526 0.000391224 0)
(0.39411 0.00108266 0)
(0.5333 0.00206279 0)
(0.661756 0.00325515 0)
(0.779121 0.00459067 0)
(0.885085 0.00599219 0)
(0.979439 0.00737363 0)
(1.06213 0.00864493 0)
(1.13333 0.00971773 0)
(1.19342 0.0105115 0)
(1.24304 0.0109596 0)
(1.28305 0.0110145 0)
(1.31449 0.0106512 0)
(1.33849 0.00986868 0)
(1.35623 0.00868945 0)
(1.36885 0.00715691 0)
(1.37734 0.00533198 0)
(1.38251 0.003289 0)
(1.38496 0.00111158 0)
)
;
    }
    procBoundary1to5
    {
        type            processor;
        value           nonuniform List<vector> 
20
(
(1.25003 -0.00247592 0)
(1.25969 -0.00237524 0)
(1.26896 -0.00227949 0)
(1.27785 -0.00218831 0)
(1.28638 -0.00210136 0)
(1.29458 -0.00201833 0)
(1.30244 -0.00193892 0)
(1.30999 -0.0018629 0)
(1.31724 -0.00179005 0)
(1.32421 -0.00172017 0)
(1.3309 -0.0016531 0)
(1.33733 -0.00158869 0)
(1.34351 -0.00152682 0)
(1.34944 -0.00146738 0)
(1.35514 -0.00141025 0)
(1.36062 -0.00135534 0)
(1.36588 -0.00130257 0)
(1.37094 -0.00125184 0)
(1.3758 -0.00120309 0)
(1.38047 -0.00115624 0)
)
;
    }
}


// ************************************************************************* //
