/*--------------------------------*- C++ -*----------------------------------*\
| =========                 |                                                 |
| \\      /  F ield         | OpenFOAM: The Open Source CFD Toolbox           |
|  \\    /   O peration     | Version:                                        |
|   \\  /    A nd           | Website:  www.openfoam.com                      |
|    \\/     M anipulation  |                                                 |
\*---------------------------------------------------------------------------*/
FoamFile
{
    version     2.0;
    format      ascii;
    class       surfaceScalarField;
    location    "62.5";
    object      phi;
}
// * * * * * * * * * * * * * * * * * * * * * * * * * * * * * * * * * * * * * //

dimensions      [0 3 -1 0 0 0 0];
oriented        oriented;


internalField   nonuniform List<scalar> 
2238
(
0.0228755
0.0331144
0.0233995
0.0333708
0.0237348
-0.0340039
0.0336685
0.0241409
-0.0341041
0.033698
0.0246081
-0.0342285
0.0337613
0.025017
-0.0341972
0.0337883
0.0258557
-0.0343581
0.0335194
0.0268932
-0.0344013
0.0333639
0.0271692
-0.0339163
0.0336402
-0.0336275
0.0334214
0.0273754
0.0212525
0.021673
0.0220968
-0.0346523
0.0227065
-0.0348069
0.0233913
-0.0350429
0.0241322
-0.0351422
0.0257839
-0.035568
-0.0356729
0.0278294
0.0205645
0.0212467
0.0220095
0.0228524
-0.0359851
0.0236672
-0.0363828
-0.036517
0.0245112
0.0217221
0.0226816
0.0237613
0.00536767
0.00635381
0.0117935
0.00740788
0.0074621
0.00863695
0.00183683
0.0102597
-0.00446844
0.0118567
-0.00954706
0.0140338
-0.0146708
0.0174162
-0.02161
0.0213703
-0.029425
0.0247211
-0.0355135
0.0266806
-0.0387515
0.0270962
-0.0398595
0.0261567
-0.0390864
0.0241051
-0.0387326
0.0223475
-0.0377964
0.0218713
-0.0375486
-0.039752
0.021921
0.00917494
0.0104158
0.0105147
0.00612234
0.0121899
0.000161581
0.0136958
-0.00597431
0.0152278
-0.011079
0.0179682
-0.0174112
0.0219928
-0.0256345
0.0255499
-0.0329821
0.0274102
-0.0373738
0.0275229
-0.0388643
0.0266969
-0.0390336
0.0255616
-0.0379511
0.0237344
-0.0369054
0.0224065
-0.0364686
0.0212923
-0.0364344
-0.0370329
0.0185732
0.0111586
0.00872774
0.0129421
0.00433887
0.01485
-0.00174629
0.0161239
-0.0072482
0.0182372
-0.0131924
0.0221313
-0.0213053
0.0261785
-0.0296816
0.0283031
-0.0351067
0.0282279
-0.0372986
0.0268281
-0.0374644
0.0248764
-0.0370818
0.0233533
-0.036428
0.0221762
-0.0357283
0.0213679
-0.0356602
0.0203173
-0.0353839
-0.0338231
0.0171075
0.0118881
0.00683152
0.0140192
0.00220777
0.0155075
-0.00323452
0.0172125
-0.00895329
0.0211003
-0.0170801
0.0258282
-0.0260333
0.0286703
-0.0325237
0.0289856
-0.035422
0.0278234
-0.0361364
0.0262097
-0.0358508
0.0244228
-0.0352949
0.022838
-0.0348431
0.0217686
-0.0346589
0.0202597
-0.0341513
0.0190763
-0.0342004
-0.0325178
0.017771
0.0108975
0.0127632
0.000342049
0.0146033
-0.00507466
0.018911
-0.013261
0.0246615
-0.0228306
0.0286648
-0.0300365
0.029685
-0.0335439
0.0288371
-0.034574
0.0275414
-0.0348407
0.0263395
-0.0346489
0.025461
-0.0344164
0.0244943
-0.0338764
0.0237037
-0.0338684
0.0223649
-0.0328124
0.0203667
-0.0322023
-0.0314201
0.019269
0.0100825
0.0152474
-0.0102395
0.0222067
-0.0202203
0.0272049
-0.0278288
0.0289814
-0.0318131
0.0288275
-0.03339
0.0283086
-0.0340551
0.0278478
-0.0343799
0.0273923
-0.0341935
0.0270996
-0.0341236
0.0267839
-0.0335608
0.0261881
-0.0332725
0.0258321
-0.0324565
0.0250411
-0.0314112
-0.0301238
0.0237448
0.0191539
0.024971
-0.0260374
0.0274476
-0.0303054
0.0279236
-0.032289
0.0278575
-0.0333238
0.0277764
-0.0339741
0.0275215
-0.034125
0.0273488
-0.0340208
0.0270707
-0.0338455
0.026913
-0.0334031
0.0265842
-0.0329438
0.0260782
-0.0319505
0.0264452
-0.0317783
-0.030706
0.0270274
0.0249052
0.0260266
-0.0314268
0.0265255
-0.0327879
0.0267306
-0.033529
0.0264387
-0.0336823
0.025828
-0.0335143
0.0253045
-0.0334972
0.0248024
-0.0333434
0.0245478
-0.0331485
0.024841
-0.033237
0.0252219
-0.0323314
0.0256516
-0.032208
-0.0318433
0.0267889
0.0247788
0.0249835
-0.0329926
0.0246878
-0.0332333
0.0242047
-0.0331992
0.0240318
-0.0333413
0.0239437
-0.0334091
0.0238907
-0.0332904
0.0239486
-0.0332064
0.0238145
-0.0331029
0.0244544
-0.0329712
0.0254936
-0.0332472
-0.0319633
0.0256136
0.0230892
0.0229703
0.0231419
0.0234691
0.023758
0.0242288
0.0248108
0.0252272
0.0256199
0.0260129
0.027471
0.0199065
-0.0560419
0.0208903
-0.0505633
0.0245391
-0.0323523
0.0292004
-0.00373427
0.0343168
0.0240924
0.0393664
0.0450784
0.0431697
0.0563005
0.0455161
0.0604012
0.0469922
0.0613415
0.047678
0.060502
0.0478352
0.0626146
0.0479109
0.0703598
0.0467767
0.077684
0.0435102
0.0783753
0.0393714
0.0646263
0.0358745
0.0327525
0.0342327
-0.0100185
0.0349344
-0.0493872
0.0371327
-0.0746667
-0.0838745
0.0118846
-0.0493533
0.0103
-0.0489787
0.0126332
-0.0346856
0.0184183
-0.00951935
0.0263717
0.016139
0.0344718
0.0369783
0.041174
0.0495983
0.046066
0.0555092
0.0498683
0.0575392
0.0528722
0.057498
0.0550193
0.0604675
0.0569133
0.0684658
0.0575057
0.0770916
0.0558592
0.0800218
0.0524108
0.0680747
0.0478128
0.0373504
0.0436754
-0.00588108
0.0410311
-0.0467429
0.0403926
-0.0740282
-0.0831909
0.00876468
-0.0410105
0.00364411
-0.0438581
0.00393463
-0.0349761
0.0102418
-0.0158266
0.019977
0.00640378
0.030414
0.0265412
0.0391663
0.0408461
0.0456954
0.04898
0.0509895
0.0522451
0.0560001
0.0524874
0.0611572
0.0553105
0.0667139
0.0629091
0.0706976
0.0731079
0.0716695
0.0790499
0.0684965
0.0712477
0.0618359
0.044011
0.0548815
0.00107328
0.0485094
-0.0403707
0.044235
-0.0697538
-0.080387
0.0109058
-0.0341453
0.00285847
-0.0358108
0.000646979
-0.0327646
0.00606747
-0.021247
0.016015
-0.00354377
0.0270906
0.0154657
0.0372348
0.0307019
0.0451101
0.0411047
0.0509866
0.0463685
0.0564812
0.0469928
0.0631248
0.048667
0.0709315
0.0551023
0.0777554
0.0662841
0.0815756
0.0752296
0.0806618
0.0721615
0.0752179
0.049455
0.0661301
0.0101611
0.0570167
-0.0312573
0.0496473
-0.0623845
-0.0745303
0.0151326
-0.0300089
0.00819006
-0.0288683
0.00376874
-0.0283433
0.00595367
-0.023432
0.0133594
-0.0109495
0.0235987
0.00522647
0.0339044
0.0203961
0.0424924
0.0325167
0.0495051
0.0393559
0.0555211
0.0409768
0.0626733
0.0415148
0.0725386
0.045237
0.0829026
0.0559201
0.0897254
0.0684068
0.090941
0.0709459
0.0868488
0.0535471
0.0773264
0.0196835
0.0653827
-0.0193136
0.0545828
-0.0515846
-0.0666099
0.0200036
-0.0262676
0.0160478
-0.0249125
0.010582
-0.0228775
0.00818236
-0.0210323
0.0118164
-0.0145836
0.020384
-0.00334116
0.0303659
0.0104142
0.0392601
0.0236226
0.0465477
0.0320683
0.0522453
0.0352792
0.058627
0.0351331
0.0681403
0.0357237
0.0804991
0.0435613
0.0913993
0.0575067
0.0960928
0.0662524
0.092762
0.0568779
0.0830684
0.029377
0.0704133
-0.0066584
0.0577908
-0.0389622
-0.0573156
0.0230087
-0.0222488
0.020701
-0.0226049
0.0180445
-0.020221
0.0142794
-0.0172672
0.0133692
-0.0136734
0.0174862
-0.00745815
0.0257353
0.00216509
0.0349673
0.0143906
0.0431965
0.023839
0.0497427
0.0287331
0.0554164
0.0294593
0.0629394
0.0282006
0.0741572
0.0323435
0.0854647
0.0461991
0.0927609
0.0589563
0.0937749
0.0558638
0.0869706
0.0361814
0.0747154
0.00559679
0.0617803
-0.026027
0.0518737
-0.0474091
-0.0550833
0.0250651
-0.020525
0.0221032
-0.019643
0.0207795
-0.0188973
0.0200731
-0.0165608
0.0188125
-0.0124127
0.018936
-0.00758165
0.0227445
-0.00164348
0.0295855
0.0075497
0.0367485
0.016676
0.0430902
0.0223914
0.0489914
0.0235581
0.0558609
0.0213312
0.0660296
0.0221747
0.0789365
0.0332922
0.0887442
0.0491487
0.089795
0.054813
0.0833137
0.0426627
0.0725528
0.0163577
0.0611117
-0.0145859
0.0516702
-0.0379676
-0.0470691
0.0239572
-0.0188687
0.0225871
-0.0182729
0.0208166
-0.0171268
0.0201079
-0.015852
0.0206197
-0.0129245
0.0219428
-0.00890478
0.0250301
-0.00473079
0.0305133
0.00206654
0.0366463
0.0105429
0.0415635
0.0174742
0.0445452
0.0205764
0.0470972
0.0187792
0.053742
0.0155299
0.0654858
0.0215484
0.0770234
0.0376111
0.0839922
0.0478442
0.0839418
0.0427131
0.0756787
0.0246208
0.063152
-0.00205918
0.0519267
-0.0267423
-0.0389697
0.0250894
-0.0164871
0.0236245
-0.016808
0.0224184
-0.0159208
0.0212452
-0.0146788
0.0209159
-0.0125952
0.0212862
-0.00927508
0.0231004
-0.00654503
0.0279684
-0.00280139
0.0345421
0.00396923
0.0396447
0.0123716
0.0413769
0.0188443
0.0413529
0.0188032
0.0437249
0.0131579
0.0519333
0.0133401
0.0640665
0.0254778
0.0729792
0.0389315
0.0732376
0.0424547
0.0673959
0.0304624
0.0597553
0.00558149
0.0516841
-0.0186712
-0.0322791
0.0464513
-0.0140434
-0.048895
0.0435282
-0.0138849
0.0407985
-0.0131911
0.0386902
-0.0125704
0.0373398
-0.0112449
0.0359476
-0.00788283
0.0344925
-0.00508999
0.0339952
-0.00230406
0.0343194
0.00364503
0.0350782
0.0116128
0.0366287
0.0172937
0.0385697
0.0168622
0.0400585
0.0116691
0.0425022
0.0108963
0.0464701
0.02151
0.0502587
0.0351429
0.0548409
0.0378724
0.0609822
0.0243212
0.0643134
0.00225024
0.062805
-0.0171627
0.0588696
-0.0283437
-0.0321238
0.0492752
-0.0117794
-0.0515392
0.0473289
-0.0119387
0.0453975
-0.0112597
0.0431003
-0.0102732
0.0409574
-0.00910199
0.0398026
-0.00672806
0.0390529
-0.00434029
0.0384967
-0.00174788
0.0386954
0.00344641
0.0401656
0.0101426
0.0433461
0.0141133
0.0461007
0.0141075
0.0462196
0.0115502
0.0450901
0.0120258
0.0457181
0.020882
0.0501612
0.0306999
0.0582295
0.0298041
0.0658975
0.0166532
0.0680555
9.2231e-05
0.0649656
-0.0140727
0.0607481
-0.0241261
-0.0274095
0.0534954
-0.00987571
-0.0553991
0.0513544
-0.00979774
0.049479
-0.0093843
0.0478538
-0.00864797
0.046125
-0.00737323
0.0448333
-0.00543634
0.0439125
-0.00341943
0.0433392
-0.00117464
0.0438365
0.00294913
0.0457934
0.00818566
0.0489217
0.0109849
0.0514833
0.011546
0.0519388
0.0110948
0.050805
0.0131596
0.0517755
0.0199115
0.0577172
0.0247582
0.0655462
0.0219751
0.0707359
0.0114635
0.0717182
-0.000890037
0.0692735
-0.0116281
0.0657417
-0.0205943
-0.0235607
0.0576886
-0.00798049
-0.0595838
0.0558523
-0.00796144
0.0541212
-0.00765315
0.0525292
-0.00705604
0.0510696
-0.00591364
0.0500689
-0.00443558
0.0492675
-0.00261802
0.0487961
-0.000703274
0.0493924
0.00235288
0.0512837
0.00629431
0.0538135
0.00845519
0.055746
0.00961338
0.0566784
0.0101624
0.0571097
0.0127282
0.0597941
0.0172271
0.065801
0.0187512
0.0716939
0.0160822
0.0747212
0.0084361
0.0746545
-0.000823292
0.0718599
-0.00883347
0.0671709
-0.0159054
-0.0190109
0.0623754
-0.00636303
-0.0639929
0.0607978
-0.00638381
0.059262
-0.00611734
0.0578602
-0.00565423
0.0566002
-0.0046537
0.0557123
-0.00354769
0.0550027
-0.00190843
0.0546645
-0.00036507
0.0551297
0.00188775
0.0565696
0.00485434
0.0585468
0.00647802
0.0600728
0.00808744
0.0612097
0.00902547
0.0629293
0.0110087
0.0664974
0.013659
0.0710882
0.0141604
0.0751065
0.012064
0.0773074
0.00623524
0.0768796
-0.000395564
0.0749407
-0.00689452
0.0723968
-0.0133615
-0.0165542
0.0673164
-0.00509256
-0.0685868
0.0659869
-0.00505433
0.0646827
-0.00481316
0.0634585
-0.00443003
0.0623995
-0.00359472
0.0616014
-0.00274959
0.061062
-0.00136896
0.0608195
-0.000122614
0.0611124
0.00159489
0.0622496
0.00371712
0.0636636
0.005064
0.0650637
0.00668731
0.06658
0.00750923
0.0684682
0.00912041
0.0715365
0.0105907
0.0752496
0.0104473
0.0784173
0.00889628
0.0800162
0.00463639
0.0799419
-0.000321307
0.0783252
-0.00527777
0.0749655
-0.0100019
-0.0122901
0.0720748
-0.00399686
-0.0731705
0.0709833
-0.00396286
0.0699232
-0.00375302
0.0689468
-0.00345362
0.0681668
-0.00281476
0.0675143
-0.00209709
0.0671596
-0.00101427
0.0670066
3.03817e-05
0.0672685
0.00133306
0.0681019
0.00288368
0.0691615
0.00400436
0.0705109
0.00533794
0.071894
0.00612614
0.0737593
0.00725513
0.0763961
0.00795384
0.0791579
0.00768553
0.0816277
0.00642652
0.0828035
0.00346057
0.082589
-0.000106857
0.0813988
-0.00408754
0.0797002
-0.00830329
-0.0102434
0.0769177
-0.00305121
-0.0778633
0.0760312
-0.00307643
0.0751872
-0.00290901
0.0744425
-0.00270892
0.0738428
-0.00221507
0.0733641
-0.00161837
0.0731581
-0.000808273
0.0730848
0.00010374
0.0733559
0.00106192
0.0739825
0.00225713
0.0748296
0.00315718
0.0760042
0.00416334
0.0772748
0.00485556
0.0790234
0.00550655
0.0810015
0.00597575
0.0831644
0.00552264
0.0850245
0.00456642
0.0860482
0.0024368
0.0863599
-0.000418484
0.0851151
-0.00284279
0.0832134
-0.0064016
-0.00812939
0.0824151
-0.00228126
-0.083185
0.0816956
-0.00235695
0.080935
-0.00214844
0.0803419
-0.00211585
0.0797857
-0.00165886
0.0794534
-0.00128605
0.079301
-0.000655894
0.0792905
0.00011428
0.0796698
0.000682636
0.0800942
0.00183275
0.0809655
0.00228582
0.0818923
0.00323651
0.082969
0.00377896
0.0845178
0.00395766
0.0858477
0.00464591
0.0877681
0.00360218
0.0890223
0.00331222
0.0897365
0.00172261
0.0901513
-0.000833292
0.089122
-0.00181341
0.0883579
-0.00563758
-0.00653167
0.0885249
-0.00163541
-0.0891708
0.0879049
-0.00173694
0.087284
-0.0015275
0.0867679
-0.00159973
0.0863274
-0.00121837
0.086017
-0.000975624
0.0859156
-0.000554519
0.0859328
9.71062e-05
0.0862615
0.000353892
0.0866919
0.00140234
0.0873827
0.00159504
0.0882002
0.002419
0.0891237
0.00285548
0.0903657
0.00271569
0.0914686
0.003543
0.0927511
0.00231965
0.0937175
0.00234584
0.0943782
0.0010619
0.0946846
-0.00113973
0.0941356
-0.00126439
0.0932615
-0.00476341
-0.00497694
0.0950002
-0.0011499
-0.0954857
0.0945181
-0.00125485
0.0940713
-0.00108075
0.0936245
-0.00115293
0.0933134
-0.000907236
0.0930257
-0.000687917
0.0929413
-0.00047011
0.0929437
9.46476e-05
0.0931318
0.000165783
0.0935482
0.000985982
0.0940273
0.00111597
0.0948271
0.00161915
0.0955371
0.00214546
0.0965065
0.00174631
0.0974361
0.00261337
0.098321
0.00143476
0.0991984
0.00146847
0.099531
0.000729263
0.0997418
-0.00135047
0.0993737
-0.000896331
0.0985355
-0.00392522
-0.00412589
0.101854
-0.000767057
-0.102237
0.101487
-0.000887561
0.101136
-0.000729919
0.100792
-0.000809033
0.100575
-0.000690751
0.100305
-0.000417108
0.100276
-0.000441117
0.100202
0.000168441
0.100372
-4.80367e-06
0.100675
0.000683449
0.101018
0.000773079
0.101706
0.000930805
0.10217
0.00168154
0.10307
0.000846655
0.103745
0.00193797
0.104392
0.000788145
0.105161
0.000699575
0.105215
0.000674662
0.105525
-0.0016607
0.105222
-0.000592556
0.104412
-0.00311535
-0.00372407
0.109039
-0.000497778
-0.109308
0.108764
-0.000612439
0.108578
-0.000543634
0.108258
-0.00048917
0.108126
-0.000559112
0.107891
-0.00018209
0.10788
-0.000429699
0.107866
0.000182587
0.107932
-7.11692e-05
0.108209
0.000407005
0.108397
0.000584875
0.108932
0.000395485
0.109355
0.00125896
0.109907
0.000294439
0.110579
0.00126626
0.110941
0.000426028
0.111559
8.09656e-05
0.111721
0.000513282
0.111689
-0.00162904
0.111723
-0.000626832
0.110872
-0.00226422
-0.00337796
0.116723
-0.000346952
-0.116873
0.116491
-0.00038075
0.116319
-0.000371902
0.116104
-0.000273914
0.115969
-0.000424744
0.115887
-9.99251e-05
0.1158
-0.000342081
0.115884
9.7944e-05
0.115869
-5.56943e-05
0.116104
0.000171455
0.116282
0.000407471
0.116572
0.000105719
0.117037
0.000793486
0.11724
9.16808e-05
0.117917
0.000589385
0.118044
0.000298228
0.118505
-0.000379516
0.11873
0.000287878
0.11845
-0.00134901
0.118786
-0.000962878
0.117861
-0.00133891
-0.00321946
0.1248
-0.000186605
-0.12496
0.124636
-0.000217555
0.12448
-0.000215587
0.124401
-0.000195217
0.124247
-0.000270563
0.124253
-0.000105364
0.124137
-0.000226622
0.124228
7.00819e-06
0.124247
-7.44405e-05
0.12437
4.8461e-05
0.124611
0.00016606
0.124689
2.82956e-05
0.125154
0.000328338
0.125208
3.76717e-05
0.125675
0.000122254
0.125861
0.000112327
0.125966
-0.000484428
0.126357
-0.000103729
0.125964
-0.000955214
0.126196
-0.00119476
0.125744
-0.000887572
-0.00267329
0.133422
-7.56052e-05
-0.133533
0.133352
-0.000147996
0.133253
-0.000116277
0.133192
-0.00013408
0.13309
-0.000169038
0.133058
-7.34696e-05
0.133027
-0.000195458
0.133031
2.63708e-06
0.133113
-0.000155821
0.13314
2.14168e-05
0.133335
-2.89279e-05
0.13341
-4.68986e-05
0.133642
9.60007e-05
0.133836
-0.000155681
0.133947
1.1247e-05
0.134276
-0.000217327
0.13419
-0.000398587
0.134441
-0.000354559
0.134348
-0.000862306
0.134099
-0.000945297
0.13426
-0.00104882
-0.0018511
0.142711
-1.63324e-05
-0.14277
0.142635
-7.17321e-05
0.142578
-5.95894e-05
0.142508
-6.36107e-05
0.142466
-0.000127348
0.142427
-3.47959e-05
0.142413
-0.000181522
0.14242
-4.05379e-06
0.142441
-0.000176148
0.142503
-4.08005e-05
0.142563
-8.89912e-05
0.14269
-0.000173722
0.142763
2.23131e-05
0.142937
-0.000329549
0.142996
-4.79895e-05
0.143146
-0.00036674
0.143203
-0.000455657
0.143173
-0.000324721
0.143298
-0.00098706
0.142956
-0.000603762
0.143063
-0.00115562
-0.0014291
0.152532
1.35112e-05
-0.152562
0.152477
-1.67624e-05
0.152445
-2.78445e-05
0.15241
-2.82245e-05
0.152375
-9.29093e-05
0.152373
-3.23885e-05
0.152332
-0.000140897
0.152372
-4.34357e-05
0.152347
-0.000151701
0.152416
-0.000109096
0.152436
-0.000109496
0.152499
-0.000236382
0.152586
-6.54343e-05
0.152608
-0.000351457
0.152739
-0.000178369
0.152723
-0.000351198
0.152819
-0.000551329
0.152777
-0.000282343
0.15275
-0.000960357
0.152683
-0.000537163
0.15249
-0.000962398
-0.00133074
0.163016
2.61595e-05
-0.163028
0.16299
9.30773e-06
0.16297
-7.8227e-06
0.162955
-1.35872e-05
0.162923
-6.09799e-05
0.162928
-3.71467e-05
0.162894
-0.000106864
0.16292
-6.98069e-05
0.162904
-0.000135464
0.162931
-0.000136044
0.162961
-0.000140127
0.162956
-0.000231408
0.163047
-0.000156411
0.163011
-0.000314936
0.163108
-0.000275121
0.163086
-0.00032993
0.163075
-0.000539817
0.163129
-0.000336076
0.162961
-0.000792568
0.163002
-0.000578796
0.16281
-0.000770051
-0.00114389
0.174216
3.90681e-05
-0.174229
0.174198
2.7425e-05
0.174182
8.0635e-06
0.174173
-4.6186e-06
0.174152
-3.91828e-05
0.174153
-3.89567e-05
0.174132
-8.57639e-05
0.174141
-7.87948e-05
0.174132
-0.000126421
0.174134
-0.000137878
0.174156
-0.000162069
0.174137
-0.000212003
0.174188
-0.000207376
0.174151
-0.000278462
0.174183
-0.000306698
0.174179
-0.000325944
0.174121
-0.000482429
0.174166
-0.000380833
0.174017
-0.000643279
0.174001
-0.000563285
0.17391
-0.000679155
-0.000891352
0.186143
4.41569e-05
-0.186148
0.186137
3.35701e-05
0.186131
1.37494e-05
0.186126
8.84866e-07
0.186115
-2.90255e-05
0.186113
-3.65793e-05
0.1861
-7.26007e-05
0.186099
-7.80744e-05
0.18609
-0.000117228
0.186084
-0.000131692
0.186087
-0.000165333
0.186069
-0.000193515
0.18608
-0.000218868
0.186057
-0.000255781
0.186053
-0.000302543
0.186041
-0.000314016
0.18598
-0.000421065
0.185979
-0.000379557
0.185876
-0.000540449
0.185813
-0.000500752
0.18575
-0.000616258
-0.000674783
0.198888
4.19599e-05
-0.198885
0.198887
3.40112e-05
0.198885
1.62953e-05
0.198881
4.32497e-06
0.198874
-2.17794e-05
0.19887
-3.22946e-05
0.198859
-6.21778e-05
0.198853
-7.21772e-05
0.198844
-0.0001076
0.198834
-0.000122134
0.198826
-0.000157308
0.198809
-0.00017596
0.198801
-0.00021085
0.198774
-0.000229632
0.19875
-0.000277831
0.198721
-0.000285745
0.198669
-0.000368467
0.198636
-0.000346936
0.198558
-0.000461821
0.198482
-0.000424723
0.19841
-0.000544497
-0.000523396
0.212495
3.90898e-05
-0.212492
0.212496
3.28336e-05
0.212496
1.66156e-05
0.212495
5.34277e-06
0.21249
-1.70099e-05
0.212486
-2.82251e-05
0.212477
-5.38224e-05
0.212471
-6.60359e-05
0.21246
-9.58758e-05
0.212446
-0.000108688
0.21243
-0.000141356
0.212408
-0.000153741
0.212387
-0.000189803
0.212357
-0.000199779
0.212328
-0.000249064
0.212293
-0.000250418
0.212244
-0.000319118
0.212196
-0.000299686
0.212125
-0.000390578
0.212054
-0.000353276
0.211971
-0.000461605
-0.000410363
0.227027
3.44822e-05
-0.227023
0.227031
2.8958e-05
0.227033
1.47102e-05
0.227034
4.67055e-06
0.227031
-1.44465e-05
0.227028
-2.48948e-05
0.22702
-4.63749e-05
0.227011
-5.64e-05
0.226997
-8.1835e-05
0.226981
-9.29574e-05
0.226963
-0.00012348
0.226942
-0.000132377
0.226919
-0.000166667
0.226889
-0.000170426
0.226854
-0.00021418
0.226814
-0.000209781
0.226763
-0.000268125
0.226712
-0.000248913
0.226644
-0.00032258
0.226576
-0.000285128
0.226489
-0.000375153
-0.000318361
0.242563
2.71163e-05
-0.242555
0.242569
2.23644e-05
0.242573
1.08091e-05
0.242575
2.80314e-06
0.242573
-1.28486e-05
0.242569
-2.10497e-05
0.242562
-3.86962e-05
0.242552
-4.71057e-05
0.24254
-6.98433e-05
0.242526
-7.8424e-05
0.242507
-0.000104121
0.242483
-0.000109077
0.242455
-0.000138479
0.242423
-0.000138477
0.242385
-0.000176055
0.242346
-0.000170352
0.242296
-0.000218081
0.242246
-0.000199316
0.24218
-0.000256901
0.242117
-0.000222147
0.242037
-0.000294579
-0.000239378
0.259189
2.04526e-05
-0.259182
0.259194
1.71248e-05
0.259197
7.80579e-06
0.259198
1.51547e-06
0.259196
-1.08657e-05
0.259193
-1.72819e-05
0.259186
-3.18432e-05
0.259177
-3.81393e-05
0.259163
-5.59014e-05
0.259146
-6.1797e-05
0.259125
-8.30052e-05
0.259102
-8.60845e-05
0.259074
-0.000110308
0.259044
-0.000108901
0.259007
-0.000139002
0.258969
-0.000132179
0.25892
-0.0001692
0.258873
-0.000152054
0.258812
-0.00019629
0.258756
-0.000165363
0.258682
-0.000220513
-0.00017045
0.276972
1.35993e-05
-0.276965
0.276978
1.11199e-05
0.276981
3.97085e-06
0.276983
-2.78269e-07
0.276982
-9.62883e-06
0.276979
-1.4118e-05
0.276972
-2.49284e-05
0.276963
-2.89929e-05
0.276949
-4.25365e-05
0.276934
-4.66768e-05
0.276914
-6.29048e-05
0.276892
-6.44338e-05
0.276865
-8.24511e-05
0.276836
-8.02056e-05
0.276799
-0.000102395
0.276763
-9.61393e-05
0.276718
-0.000123492
0.276675
-0.000109039
0.276619
-0.000140967
0.276569
-0.00011485
0.276503
-0.000154599
-0.000113158
0.296018
6.40375e-06
-0.296011
0.296024
4.99536e-06
0.296028
2.8655e-07
0.29603
-2.20046e-06
0.296028
-8.03111e-06
0.296025
-1.06284e-05
0.296017
-1.76682e-05
0.296009
-2.02445e-05
0.295995
-2.92964e-05
0.29598
-3.17273e-05
0.29596
-4.24296e-05
0.295938
-4.29746e-05
0.295911
-5.48765e-05
0.295884
-5.29096e-05
0.295849
-6.77179e-05
0.295816
-6.29509e-05
0.295773
-8.08331e-05
0.295734
-7.00293e-05
0.295684
-9.06169e-05
0.29564
-7.16508e-05
0.295583
-9.7345e-05
-6.75462e-05
0.316449
2.88928e-06
-0.316445
0.316452
2.25233e-06
0.316452
7.49143e-08
0.316451
-1.11132e-06
0.316447
-4.16093e-06
0.316442
-5.44287e-06
0.316433
-9.0621e-06
0.316423
-1.01533e-05
0.316408
-1.46114e-05
0.316392
-1.57098e-05
0.316371
-2.13359e-05
0.31635
-2.1733e-05
0.316323
-2.79873e-05
0.316297
-2.68097e-05
0.316263
-3.40788e-05
0.316232
-3.1297e-05
0.316191
-4.02445e-05
0.316155
-3.44564e-05
0.31611
-4.47435e-05
0.316072
-3.45102e-05
0.316022
-4.71129e-05
-3.10634e-05
0.338332
-0.338329
0.338334
0.338334
0.338333
0.338329
0.338323
0.338314
0.338304
0.338289
0.338274
0.338252
0.338231
0.338203
0.338176
0.338142
0.33811
0.33807
0.338036
0.337991
0.337956
0.337909
0.0533691
0.0199089
0.0523686
0.0247618
0.051931
0.0249488
0.0502995
0.0294609
0.0287799
0.0558328
0.0197689
0.0549481
0.0256465
0.0540168
0.02588
0.0529371
0.0305406
0.0301779
0.0586675
0.0198026
0.0583676
0.0259463
0.0574915
0.0267561
0.0566627
0.0313694
0.0314415
0.0618535
0.061993
0.0258068
0.061447
0.0273021
0.0608001
0.0320163
0.0326578
0.0653667
0.0257424
0.0651163
0.0275524
0.0648629
0.0322698
0.0335278
0.0689863
0.0257326
0.0687994
0.0277394
0.0689714
0.0320978
0.0339123
0.073175
0.0255719
0.0729638
0.0279506
0.0732001
0.0318614
0.033942
0.0778088
0.0253476
0.0776996
0.0280599
0.077811
0.03175
0.0338896
0.0828169
0.0250728
0.0828908
0.0279859
0.0830718
0.031569
0.0337764
0.0882262
0.0247152
0.0885069
0.0277052
0.0888653
0.0312106
0.0334709
0.0941163
0.0242655
0.0945033
0.0273182
0.0950242
0.0306898
0.0330094
0.100472
0.0237287
0.100983
0.0268074
0.10161
0.030063
0.0323826
0.107193
0.0231897
0.107861
0.0261388
0.10856
0.0293641
0.0316345
0.114394
0.0225468
0.115143
0.0253892
0.116057
0.0284506
0.0308178
0.122263
0.0217343
0.123063
0.0245896
0.124031
0.0274826
0.0298887
0.130467
0.0209333
0.131343
0.0237141
0.132399
0.0264267
0.0287549
0.139323
0.0200186
0.140406
0.0226313
0.141579
0.0252532
0.0275638
0.148978
0.0189937
0.150064
0.0215447
0.151269
0.0240484
0.0262712
0.159051
0.0179566
0.160211
0.0203841
0.161568
0.0226917
0.0248109
0.169916
0.0167956
0.17123
0.0190705
0.172683
0.0212385
0.0232645
0.181572
0.0155556
0.18295
0.0176921
0.184477
0.0197113
0.0215939
0.193947
0.0142471
0.195426
0.0162131
0.197078
0.0180587
0.0197866
0.207196
0.0128415
0.208791
0.0146186
0.210561
0.0162887
0.0178554
0.221366
0.0113403
0.223068
0.012917
0.224956
0.0144004
0.0157891
0.236506
0.00974305
0.238321
0.0111017
0.240342
0.0123801
0.0135756
0.252713
0.00803647
0.254654
0.00915985
0.256816
0.0102189
0.011209
0.270059
0.00621892
0.272129
0.00709048
0.274435
0.00791232
0.00867957
0.288634
0.00428061
0.290844
0.00488106
0.293308
0.00544779
0.00597711
0.308559
0.00220962
0.31092
0.00251998
0.313555
0.00281306
0.00308629
0.329909
0.332429
0.335242
)
;

boundaryField
{
    outlet
    {
        type            calculated;
        value           nonuniform 0();
    }
    upperWall
    {
        type            symmetryPlane;
        value           uniform 0;
    }
    lowerWall
    {
        type            symmetryPlane;
        value           nonuniform 0();
    }
    inlet
    {
        type            calculated;
        value           nonuniform 0();
    }
    cylinder
    {
        type            calculated;
        value           nonuniform 0();
    }
    frontAndBack
    {
        type            empty;
        value           nonuniform 0();
    }
    procBoundary6to2
    {
        type            processor;
        value           nonuniform List<scalar> 
37
(
-0.0156787
-0.0127797
-0.00851616
-0.0030659
0.00284568
0.00795006
0.0124936
0.0182275
0.0254709
0.0321627
0.036792
0.0394439
0.040026
0.0407842
0.039554
0.0380249
0.0397023
0.0580564
0.0495795
0.0287036
-0.000927009
-0.0292088
-0.050128
-0.0601038
-0.0627476
-0.0628176
-0.0611878
-0.0627718
-0.0704355
-0.0765497
-0.0751088
-0.0604876
-0.0292555
0.0116603
0.0486854
0.0724684
0.0823672
)
;
    }
    procBoundary6to5
    {
        type            processor;
        value           nonuniform List<scalar> 
63
(
-0.0224093
-0.0329345
-0.0335806
-0.0338948
-0.0210318
-0.0342245
-0.0345246
-0.020073
-0.0351439
-0.035489
-0.0358057
-0.0207125
-0.0369947
-0.0373423
-0.0375967
-0.0197657
-0.00453975
0.0148508
-0.00779722
-0.00947057
-0.00999191
-0.00868493
0.004619
-0.00779922
-0.00194126
-0.0110443
-0.0183491
-0.0218967
-0.029046
-0.0239242
-0.0322814
-0.0231473
-0.0535123
-0.0556927
-0.0587012
-0.0621477
0.0200968
-0.0653023
-0.0689765
-0.0730143
-0.0775845
-0.0825421
-0.0878686
-0.0936666
-0.0999356
-0.106654
-0.113751
-0.121451
-0.129666
-0.138408
-0.147953
-0.158013
-0.168755
-0.180332
-0.192638
-0.205791
-0.219865
-0.234909
-0.251006
-0.268242
-0.286696
-0.306488
-0.3277
)
;
    }
    procBoundary6to7
    {
        type            processor;
        value           nonuniform List<scalar> 
42
(
0.03864
0.0397091
0.0414312
0.0437906
0.0466623
0.0484966
0.0635042
0.0434527
0.043656
0.0438274
0.0449935
0.0372585
0.0537349
0.0560337
0.061893
0.0626211
0.0699401
0.0707014
0.0776535
0.0810995
0.0867602
0.0917067
0.0976845
0.10401
0.110526
0.117703
0.125198
0.133438
0.142641
0.152392
0.162623
0.173658
0.185534
0.198258
0.211858
0.226397
0.241958
0.258613
0.276445
0.295538
0.315986
0.337878
)
;
    }
}


// ************************************************************************* //
