/*--------------------------------*- C++ -*----------------------------------*\
| =========                 |                                                 |
| \\      /  F ield         | OpenFOAM: The Open Source CFD Toolbox           |
|  \\    /   O peration     | Version:                                        |
|   \\  /    A nd           | Website:  www.openfoam.com                      |
|    \\/     M anipulation  |                                                 |
\*---------------------------------------------------------------------------*/
FoamFile
{
    version     2.0;
    format      ascii;
    class       volScalarField;
    location    "111.1";
    object      p;
}
// * * * * * * * * * * * * * * * * * * * * * * * * * * * * * * * * * * * * * //

dimensions      [0 2 -2 0 0 0 0];


internalField   nonuniform List<scalar> 
1139
(
-0.57973
-0.479296
-0.385269
-0.391899
-0.302987
-0.321017
-0.233029
-0.261353
-0.281701
-0.177089
-0.210395
-0.235641
-0.130628
-0.165983
-0.196001
-0.089939
-0.129999
-0.160745
-0.185803
-0.0596879
-0.100605
-0.129604
-0.15655
-0.0338281
-0.0744663
-0.102752
-0.129431
-0.733804
-0.802113
-0.846416
-0.939057
-1.07071
-1.20007
-0.875195
-0.911106
-0.986324
-1.10418
-1.22305
-1.28855
-0.948622
-0.969008
-1.01573
-1.10884
-1.20965
-1.26337
-1.22837
-1.01732
-1.01751
-1.02908
-1.08539
-1.16029
-1.20125
-1.16617
-1.07801
-1.07919
-1.05607
-1.02695
-1.03525
-1.07766
-1.10406
-1.07372
-0.994257
-0.907771
-1.13007
-1.08422
-1.0109
-0.96361
-0.965757
-0.973676
-0.948909
-0.882447
-0.803298
-0.734372
-1.16865
-1.10269
-0.984783
-0.877876
-0.831208
-0.812257
-0.789484
-0.738701
-0.67401
-0.617183
-1.19262
-1.11264
-0.952839
-0.78582
-0.686478
-0.633848
-0.603207
-0.571016
-0.530364
-0.49514
-1.20612
-1.11551
-0.920557
-0.693121
-0.541798
-0.456212
-0.411637
-0.399925
-0.390701
-0.380295
-1.2146
-1.11389
-0.886415
-0.602289
-0.40554
-0.290501
-0.230815
-0.241048
-0.265329
-0.281411
-1.20592
-1.09188
-0.836654
-0.52075
-0.293207
-0.151587
-0.0772687
-0.103887
-0.164667
-0.201754
-1.1523
-1.02685
-0.771964
-0.449134
-0.207932
-0.0456783
0.0464193
0.00354278
-0.0902243
-0.134922
-1.04189
-0.921322
-0.685822
-0.389297
-0.151999
-0.00421955
0.0767698
0.0629206
-0.0389237
-0.0834345
-0.893051
-0.78272
-0.566758
-0.291363
-0.0794974
0.036558
0.0837654
0.0622937
-0.000661825
-0.045079
-0.743861
-0.645715
-0.457422
-0.224426
-0.0419499
0.070288
0.124131
0.0928885
0.0247304
-0.0172988
-0.619543
-0.534204
-0.373195
-0.175643
-0.0106836
0.0855343
0.123817
0.109232
0.0455661
0.00474941
-0.510974
-0.439694
-0.306776
-0.142781
0.00128569
0.0924331
0.126826
0.116364
0.0544643
0.0200483
-0.434988
-0.383146
-0.283786
-0.154683
-0.0340164
0.0553864
0.10898
0.126505
0.0866792
0.0441828
-0.410464
-0.382415
-0.306818
-0.192981
-0.0797757
0.0114372
0.0720318
0.117737
0.10572
0.0722352
-0.428109
-0.417455
-0.354596
-0.245129
-0.129693
-0.0363472
0.025607
0.0790777
0.105865
0.0863242
-0.482601
-0.486359
-0.429555
-0.318633
-0.191962
-0.0896025
-0.0196541
0.0374734
0.0860917
0.0841652
-0.590497
-0.610928
-0.554003
-0.42562
-0.272318
-0.147222
-0.0617861
0.00262668
0.0621566
0.07748
-0.763453
-0.800712
-0.735016
-0.574377
-0.382744
-0.221781
-0.113505
-0.0362592
0.0343433
0.0689043
-0.953568
-1.00162
-0.932385
-0.749871
-0.52115
-0.318157
-0.173756
-0.0767684
-0.0011545
0.0525295
-1.07257
-1.13391
-1.07457
-0.897151
-0.65731
-0.424042
-0.237982
-0.119146
-0.0433754
0.0263694
-1.04252
-1.11969
-1.09315
-0.954914
-0.749848
-0.52105
-0.323257
-0.192591
-0.108291
-0.0138195
-0.885559
-0.960853
-0.963743
-0.879653
-0.729782
-0.554995
-0.385615
-0.259939
-0.190272
-0.0450033
-0.681826
-0.738825
-0.746452
-0.700221
-0.609066
-0.495507
-0.373201
-0.267869
-0.190439
-0.0837549
-0.505728
-0.538761
-0.542221
-0.510539
-0.454667
-0.383901
-0.303107
-0.228084
-0.170888
-0.0913348
-0.391728
-0.401203
-0.396671
-0.370157
-0.329551
-0.282288
-0.228985
-0.178773
-0.140235
-0.0848417
-0.333605
-0.323297
-0.307539
-0.281119
-0.245816
-0.208199
-0.170106
-0.133819
-0.106671
-0.0685651
-0.314603
-0.287795
-0.257845
-0.227302
-0.192494
-0.156914
-0.125858
-0.0974265
-0.0781675
-0.0530124
-0.3364
-0.289454
-0.241039
-0.199197
-0.159619
-0.123795
-0.0951614
-0.0700144
-0.0533618
-0.0342235
-0.405558
-0.329919
-0.255735
-0.195458
-0.144602
-0.102766
-0.071059
-0.0479072
-0.0348747
-0.0200039
-0.521899
-0.409909
-0.303172
-0.213618
-0.14323
-0.0911885
-0.0534782
-0.0270925
-0.0128407
-0.000503241
-0.634064
-0.497699
-0.369233
-0.260257
-0.17262
-0.105054
-0.0547893
-0.0207526
-0.00276163
0.0103927
-0.0588086
-0.0237963
0.000779747
0.0181894
0.0129848
-0.0147878
-0.0213169
-0.0234093
-0.0257172
-0.0264171
-0.0235786
-0.0188031
-0.015865
-0.0117485
-0.00714285
-0.00477816
-0.000544667
0.00336664
0.00547981
0.00830704
0.0110638
0.0130763
0.0150646
0.0169145
0.0185209
0.0199298
0.0212568
0.0223353
0.0232166
0.0240093
0.0245966
0.0250043
0.0252246
0.0254092
0.0366211
0.0178327
0.00494266
-0.00592843
-0.0130493
-0.0166715
-0.0166524
-0.0151321
-0.0133027
-0.00986628
-0.00695839
-0.00410745
1.5975e-05
0.00288102
0.0053285
0.00832097
0.0107859
0.0128572
0.0149302
0.0167515
0.0183664
0.0198172
0.0211652
0.0222365
0.0231731
0.0239761
0.0245732
0.0250096
0.0252218
0.025413
0.0592551
0.0442524
0.0293159
0.0145919
0.00401925
-0.00256265
-0.00612663
-0.00765408
-0.00725149
-0.0059187
-0.00433176
-0.00147208
0.00146143
0.00363178
0.00624375
0.00891923
0.0110909
0.0131633
0.0151552
0.0168819
0.0184517
0.019893
0.0211909
0.0222423
0.0232006
0.0239772
0.0245776
0.0250281
0.0252245
0.0254188
0.0743247
0.060878
0.0461061
0.0312538
0.0197204
0.0112114
0.00501172
0.00147748
-0.000148434
-0.000820007
3.16613e-06
0.00198395
0.00363569
0.00544386
0.00779932
0.00993498
0.0118463
0.0138014
0.0155937
0.017194
0.0186766
0.0200598
0.0212644
0.022297
0.0232449
0.0239834
0.0245873
0.0250408
0.0252272
0.0254229
0.079772
0.0685166
0.0546641
0.0418321
0.0314972
0.0221782
0.0149647
0.0101726
0.00674516
0.00479458
0.00481018
0.00538184
0.00615243
0.00761355
0.00938769
0.0110277
0.0127173
0.014449
0.0160172
0.0174854
0.0188761
0.0201771
0.0212985
0.0223251
0.0232464
0.0239628
0.0245759
0.0250313
0.0252249
0.0254223
0.0800422
0.0720023
0.0599899
0.049563
0.0400522
0.0305862
0.0232047
0.0176463
0.0130855
0.0105063
0.00939886
0.00885894
0.00903216
0.00992869
0.0110089
0.0122334
0.0136377
0.0150682
0.0164205
0.0177531
0.0190476
0.0202414
0.0213044
0.0223235
0.0232081
0.0239231
0.024545
0.0250047
0.0252205
0.0254193
0.0809929
0.0756006
0.0657129
0.0571773
0.0476819
0.0384085
0.0310177
0.0246257
0.0195274
0.0162441
0.0139787
0.0126178
0.012181
0.0123281
0.0128211
0.0136654
0.0147188
0.0158039
0.0169458
0.0181252
0.0193013
0.0203678
0.0213846
0.0223647
0.0231996
0.0239115
0.0245259
0.0249848
0.0252225
0.0254188
0.0763192
0.0742987
0.0682599
0.061948
0.0530692
0.0445173
0.0373391
0.0306909
0.0255873
0.0216633
0.0186887
0.0167819
0.0157061
0.0150964
0.0151079
0.0154996
0.0161246
0.0168934
0.0178016
0.0187927
0.019785
0.0207052
0.0216479
0.022534
0.0233008
0.0239789
0.0245571
0.0249989
0.0252401
0.0254274
0.0569291
0.0621376
0.0634324
0.061079
0.0546734
0.0482019
0.0416456
0.035602
0.0306074
0.0263318
0.0231188
0.0207999
0.0191707
0.018085
0.0176868
0.0176305
0.017843
0.0183241
0.0189656
0.0197317
0.0204987
0.0212756
0.0221012
0.0228505
0.0235308
0.0241357
0.0246496
0.0250544
0.0252751
0.0254468
0.0210289
0.0377174
0.0486784
0.051759
0.0504324
0.0473165
0.0426272
0.0383501
0.0340529
0.0300951
0.0269484
0.0243631
0.0223422
0.0209721
0.0201715
0.0197369
0.0196551
0.0198499
0.0202405
0.0207623
0.0213032
0.021948
0.0226193
0.023231
0.0238219
0.0243351
0.0247767
0.0251344
0.0253224
0.0254766
-0.00974505
0.0138707
0.0312079
0.0385361
0.0442024
0.0422266
0.0407691
0.038596
0.0353332
0.0322285
0.0294247
0.026901
0.0248308
0.0233289
0.0222349
0.0215279
0.0212265
0.0211302
0.0213008
0.0216048
0.0219957
0.022521
0.023043
0.0235564
0.0240688
0.0245062
0.024892
0.0252093
0.0253721
0.0255121
-0.0374019
-0.00555604
0.0160902
0.0270938
0.0354165
0.0369907
0.0380991
0.037647
0.0354517
0.0332421
0.030874
0.0285074
0.0264961
0.0249025
0.0236477
0.0227903
0.0223045
0.0220226
0.0220407
0.0221773
0.0224727
0.0228804
0.0233017
0.0237624
0.0242201
0.0246156
0.0249722
0.0252654
0.0254204
0.0255518
-0.0480418
-0.015341
0.0061975
0.0197254
0.0297304
0.03293
0.036466
0.0363538
0.0349813
0.0336515
0.0317036
0.0296582
0.0277794
0.0261792
0.0248277
0.0238272
0.0231368
0.0227183
0.0225873
0.0226163
0.0228288
0.0231338
0.023494
0.0239099
0.0243244
0.0246956
0.0250354
0.0253141
0.0254703
0.0255955
-0.0470548
-0.0175179
0.00140192
0.0165336
0.0260505
0.0310355
0.035833
0.0356791
0.0354111
0.034343
0.0324943
0.0305713
0.0287963
0.0272033
0.0258111
0.0247572
0.0239636
0.0234475
0.02318
0.0231129
0.0232185
0.023438
0.0237468
0.0241042
0.0244726
0.0248104
0.0251238
0.0253818
0.0255313
0.0256475
-0.0358478
-0.0113791
0.00598298
0.0203388
0.0270711
0.0336928
0.0364465
0.0362906
0.0367303
0.0356101
0.0338875
0.0321333
0.0303629
0.0286873
0.0271882
0.0260122
0.0250762
0.0244186
0.0240168
0.0238331
0.0238163
0.0239384
0.0241577
0.0244257
0.0247213
0.0249989
0.0252631
0.0254835
0.025609
0.0257099
-0.0262609
-0.00657487
0.0100739
0.0241547
0.0287145
0.0371352
0.0379366
0.038586
0.0385412
0.0368009
0.0351836
0.0334992
0.0317504
0.03005
0.0285504
0.0273135
0.0262858
0.0255086
0.024976
0.0246486
0.0245101
0.0245274
0.024644
0.02482
0.0250317
0.0252365
0.0254368
0.0256099
0.0257013
0.0257836
-0.0132344
0.00155505
0.0146349
0.0264261
0.0288588
0.0380301
0.0373837
0.0398842
0.0394593
0.0381094
0.0366229
0.0348206
0.0329926
0.0312483
0.0297127
0.0283901
0.0272688
0.0264063
0.025787
0.0253632
0.0251239
0.0250399
0.0250594
0.025159
0.0252999
0.0254486
0.0255968
0.0257324
0.025797
0.025864
-3.86876e-05
0.0135676
0.02329
0.0325223
0.0348934
0.0406082
0.038784
0.0404985
0.0390644
0.0380578
0.0367295
0.0350842
0.0333583
0.0316709
0.0301947
0.0288698
0.0277648
0.026884
0.0262236
0.0257479
0.0254701
0.0253406
0.0253201
0.0253776
0.0254834
0.0256023
0.0257208
0.0258365
0.0258897
0.0259475
0.0135547
0.0248264
0.0321462
0.0382541
0.0433158
0.0437838
0.0425687
0.0426157
0.0404697
0.0388886
0.0369812
0.0351408
0.0333781
0.0318167
0.0303564
0.0291036
0.0280491
0.0271982
0.0265387
0.0260604
0.02576
0.0255936
0.0255366
0.0255608
0.0256425
0.0257366
0.0258362
0.0259369
0.0259837
0.0260337
0.0223961
0.0319284
0.0374992
0.0387976
0.045157
0.042811
0.0437451
0.0431496
0.0414233
0.0397889
0.0376893
0.0355897
0.0337363
0.0320343
0.0306426
0.0294787
0.0284584
0.0276216
0.0269664
0.0264836
0.0261703
0.0259721
0.0258795
0.0258577
0.0258867
0.0259324
0.0259941
0.0260627
0.0260906
0.0261269
0.0298686
0.0376475
0.0443263
0.0435101
0.0450043
0.0416304
0.0425739
0.0414826
0.0402602
0.0385411
0.0368722
0.0353265
0.0338156
0.0323349
0.0310687
0.0299473
0.0290008
0.0282503
0.0276129
0.0271165
0.0267486
0.0264962
0.0263404
0.0262562
0.0262138
0.0261976
0.0262008
0.0262197
0.0262133
0.0262294
0.0162937
0.0217914
-0.122403
-0.0991884
-0.0862601
-0.0763149
-0.0633754
-0.0506931
-0.0415241
-0.034514
-0.0263446
-0.0182997
-0.101497
-0.0840716
-0.0795493
-0.0714717
-0.0568168
-0.0449065
-0.0381234
-0.0316256
-0.022549
-0.0159438
-0.0125572
-0.00633106
-0.00134842
0.000866327
0.00493569
0.00828201
0.0104449
0.0130197
0.0151852
0.0169783
0.0186614
0.0201459
0.0213654
0.0224845
0.0233877
0.024069
0.0246635
0.0250496
0.0252575
0.0254284
-0.0751771
-0.063042
-0.0668754
-0.0600871
-0.0469102
-0.039363
-0.0353163
-0.0283325
-0.0190922
-0.0147781
-0.0109503
-0.0039646
-0.0012175
0.00147007
0.00609723
0.00852915
0.0107696
0.0134166
0.0153626
0.0171372
0.0188074
0.0202325
0.0214287
0.0225483
0.0233993
0.0240835
0.0246737
0.0250434
0.0252507
0.02542
-0.0489572
-0.0491015
-0.0576745
-0.0478672
-0.0372283
-0.0341652
-0.0310604
-0.0236654
-0.0164043
-0.013679
-0.00828232
-0.00291791
-0.00141409
0.00283801
0.00671566
0.00849901
0.0111628
0.0136116
0.0153993
0.0172041
0.0188395
0.0202144
0.0214311
0.0225426
0.0233637
0.0240778
0.0246632
0.0250297
0.0252423
0.0254137
-0.0142869
-0.0360924
-0.0425361
-0.0355448
-0.0317771
-0.0309055
-0.027293
-0.0203364
-0.0156947
-0.0125142
-0.00670767
-0.00374666
-0.000987129
0.00384134
0.00634361
0.00847807
0.0113776
0.0134912
0.0153152
0.0171518
0.0187492
0.0201139
0.0213799
0.0224688
0.0232986
0.0240539
0.0246351
0.0250144
0.025233
0.0254099
)
;

boundaryField
{
    outlet
    {
        type            fixedValue;
        value           nonuniform 0();
    }
    upperWall
    {
        type            symmetryPlane;
    }
    lowerWall
    {
        type            symmetryPlane;
    }
    inlet
    {
        type            zeroGradient;
    }
    cylinder
    {
        type            zeroGradient;
    }
    frontAndBack
    {
        type            empty;
    }
    procBoundary2to1
    {
        type            processor;
        value           nonuniform List<scalar> 
63
(
-0.680368
-0.680368
-0.553752
-0.46982
-0.46982
-0.3958
-0.335226
-0.335226
-0.298277
-0.256247
-0.219037
-0.219037
-0.202751
-0.17471
-0.149415
-0.149415
-0.675461
-0.77968
-0.77968
-0.876742
-1.01193
-1.14615
-1.27571
-1.27571
-1.25761
-1.25761
-1.13407
-1.13407
-0.984516
-0.984516
-0.833744
-0.833744
-0.137112
-0.112704
-0.0959018
-0.083361
-0.0700976
-0.0569392
-0.0457667
-0.0371332
-0.0292779
-0.0211339
-0.0136291
-0.0136291
-0.00868487
-0.00268437
0.000475944
0.0037871
0.00753556
0.01004
0.0124802
0.0148006
0.0166898
0.0184045
0.0199538
0.02124
0.0223705
0.0233318
0.0240408
0.0246421
0.0250503
0.0252654
0.0254396
)
;
    }
    procBoundary2to3
    {
        type            processor;
        value           nonuniform List<scalar> 
43
(
-0.653895
-0.513654
-0.382566
-0.265047
-0.173206
-0.107349
-0.107349
-0.0691759
-0.0384009
-0.0178828
0.000715417
0.000715417
0.0254148
0.0272588
0.0356539
0.04021
0.0422763
0.0408288
0.0393016
0.0369013
0.0357133
0.0344324
0.0332427
0.0320974
0.0311137
0.0301694
0.0293972
0.0286887
0.0281028
0.0276339
0.0272796
0.0270039
0.0268029
0.0266541
0.0265462
0.0264711
0.026413
0.026384
0.0263425
0.0263385
-0.00421876
0.0254148
-0.00321204
)
;
    }
    procBoundary2to6
    {
        type            processor;
        value           nonuniform List<scalar> 
37
(
-0.715808
-0.781303
-0.852462
-0.925306
-0.997145
-1.06354
-1.12215
-1.16935
-1.19659
-1.20854
-1.2184
-1.21505
-1.16728
-1.05782
-0.909497
-0.761675
-0.63771
-0.526401
-0.444279
-0.406435
-0.408145
-0.445083
-0.52643
-0.661327
-0.816295
-0.915425
-0.890507
-0.759003
-0.59257
-0.456801
-0.372218
-0.333135
-0.331204
-0.371485
-0.471945
-0.62588
-0.763163
)
;
    }
}


// ************************************************************************* //
