/*--------------------------------*- C++ -*----------------------------------*\
| =========                 |                                                 |
| \\      /  F ield         | OpenFOAM: The Open Source CFD Toolbox           |
|  \\    /   O peration     | Version:                                        |
|   \\  /    A nd           | Website:  www.openfoam.com                      |
|    \\/     M anipulation  |                                                 |
\*---------------------------------------------------------------------------*/
FoamFile
{
    version     2.0;
    format      ascii;
    class       volVectorField;
    location    "12.9";
    object      U;
}
// * * * * * * * * * * * * * * * * * * * * * * * * * * * * * * * * * * * * * //

dimensions      [0 1 -1 0 0 0 0];


internalField   nonuniform List<vector> 
1164
(
(0.657616 0.0162174 -3.7807e-23)
(0.820264 0.0488897 1.98549e-21)
(0.931117 0.0721197 -3.66276e-21)
(0.938793 0.0867397 1.67269e-21)
(0.872213 0.0898482 -4.58588e-21)
(0.810805 0.0925601 -3.13746e-20)
(0.711251 0.0129755 2.23312e-22)
(0.861922 0.0383088 -4.14468e-21)
(0.955654 0.0550587 3.1211e-21)
(0.945056 0.0646196 6.45844e-21)
(0.870067 0.0657233 3.95593e-21)
(0.818442 0.0693286 7.399e-21)
(0.843483 0.0833337 -5.2069e-21)
(0.891595 0.0997518 3.13646e-21)
(0.919307 0.108855 -1.66237e-20)
(0.926634 0.13175 1.41168e-20)
(0.753852 0.010185 -4.92723e-22)
(0.894735 0.0300661 1.1732e-21)
(0.973807 0.0433965 -7.28846e-22)
(0.948412 0.0507888 -1.33521e-21)
(0.86932 0.0513925 -1.2044e-22)
(0.828595 0.055075 1.59292e-20)
(0.86429 0.0663482 1.03064e-20)
(0.907943 0.0809759 3.77638e-21)
(0.925027 0.0876893 7.62447e-21)
(0.928288 0.106071 -1.2256e-20)
(0.788018 0.00786228 -2.15178e-23)
(0.921556 0.0226198 -6.82112e-22)
(0.990555 0.033047 6.14195e-22)
(0.953787 0.0406534 -2.09418e-21)
(0.871278 0.0424356 -6.22177e-21)
(0.838374 0.0467004 -1.53578e-20)
(0.881777 0.0550374 -4.84543e-21)
(0.923365 0.066722 -3.65137e-21)
(0.931806 0.0715394 8.79092e-21)
(0.930504 0.0856819 7.07235e-21)
(0.815081 0.0063333 4.24503e-22)
(0.941909 0.017325 9.7296e-23)
(1.00587 0.0240484 2.15401e-21)
(0.962635 0.0309144 8.07904e-22)
(0.876934 0.0336331 2.24953e-21)
(0.848109 0.0389817 7.71527e-21)
(0.894407 0.0459016 -3.266e-21)
(0.935968 0.0547215 4.09124e-22)
(0.938916 0.0585988 -2.60857e-21)
(0.932119 0.0702611 6.07856e-21)
(0.837773 0.00551964 -2.19676e-22)
(0.956758 0.014923 1.27495e-21)
(1.016 0.0187532 1.93134e-23)
(0.970122 0.0223883 -1.84817e-22)
(0.884181 0.0240195 2.30806e-21)
(0.859197 0.029821 9.72269e-24)
(0.904509 0.0366623 -3.21982e-21)
(0.945473 0.0439634 -4.57727e-21)
(0.947487 0.0464025 -4.09734e-22)
(0.935376 0.0570326 1.54727e-21)
(0.858985 0.00523682 6.43305e-23)
(0.969559 0.014099 -1.43999e-21)
(1.02015 0.0174049 -3.48628e-21)
(0.971278 0.0179288 2.35807e-21)
(0.889527 0.0176288 -9.61316e-22)
(0.872018 0.0227882 3.05572e-22)
(0.916325 0.0292439 3.30887e-21)
(0.953044 0.0365611 -3.5892e-22)
(0.955942 0.0370491 -5.14393e-21)
(0.9419 0.0455055 -4.90909e-21)
(0.880257 0.00502115 -2.30717e-22)
(0.983113 0.0128924 5.96704e-23)
(1.02343 0.0167993 3.02055e-22)
(0.96939 0.0173632 -1.0214e-21)
(0.893052 0.0166762 -1.40403e-21)
(0.884433 0.0210794 -1.87863e-21)
(0.93013 0.0254365 1.74578e-21)
(0.960516 0.0325928 -3.44495e-21)
(0.96128 0.0323834 2.5013e-21)
(0.948598 0.0373567 1.74412e-21)
(0.900075 0.00438984 1.48617e-22)
(0.996052 0.010503 7.48687e-22)
(1.02991 0.013878 1.03308e-22)
(0.971476 0.0163644 -2.55731e-22)
(0.897742 0.0169534 -1.52945e-21)
(0.893358 0.0214937 -9.20809e-22)
(0.940342 0.0233179 -2.46608e-21)
(0.96742 0.0285067 2.31628e-21)
(0.963964 0.0291669 -3.98285e-22)
(0.952018 0.0319253 -2.05049e-21)
(0.916146 0.00343433 4.15587e-23)
(1.00517 0.00794718 -2.64831e-22)
(1.03688 0.00926762 8.72373e-22)
(0.977693 0.0118282 -1.18038e-21)
(0.90506 0.0129818 2.38555e-21)
(0.899847 0.0183792 1.34291e-21)
(0.943938 0.0197923 -1.76573e-21)
(0.971395 0.0226086 -2.96469e-23)
(0.96679 0.0239314 -2.88572e-21)
(0.953766 0.0266521 8.6722e-22)
(0.928567 0.00279536 -5.14424e-23)
(1.0099 0.00669777 -3.54383e-23)
(1.03847 0.0063124 6.80355e-22)
(0.980637 0.00652341 -3.56068e-22)
(0.912777 0.00659971 -1.89757e-21)
(0.908697 0.0122485 6.72958e-22)
(0.947026 0.0153881 1.29324e-21)
(0.973409 0.01764 2.08112e-21)
(0.971068 0.0184833 1.39324e-21)
(0.957584 0.0213894 -4.37531e-21)
(0.940498 0.00265808 7.05808e-23)
(1.01399 0.0065309 -4.43428e-22)
(1.03535 0.00622344 -1.61043e-22)
(0.977758 0.00470918 2.10562e-21)
(0.918883 0.00383608 8.90305e-24)
(0.921379 0.00851233 6.12368e-22)
(0.955593 0.0126223 -5.68846e-22)
(0.976317 0.0154763 3.49526e-22)
(0.97494 0.0152847 3.69205e-23)
(0.963372 0.0172161 2.37521e-21)
(0.952899 0.00263601 -8.1609e-23)
(1.01973 0.00597841 2.23269e-22)
(1.03321 0.00676566 -1.15284e-22)
(0.974349 0.00601301 -1.33724e-21)
(0.923552 0.00592184 -3.84897e-22)
(0.93299 0.00936779 -1.20754e-21)
(0.965736 0.012186 -1.31511e-22)
(0.97887 0.0147684 -5.64139e-22)
(0.975382 0.0139165 -1.19729e-21)
(0.967558 0.0145051 -2.87323e-21)
(0.964255 0.00231003 7.83229e-23)
(1.02559 0.00434471 -2.98962e-22)
(1.03551 0.00514161 -4.84657e-22)
(0.976631 0.00615372 1.76831e-22)
(0.92963 0.00788678 9.8198e-22)
(0.940056 0.0110068 -5.16662e-22)
(0.971177 0.0118548 -3.27915e-22)
(0.97917 0.0131943 4.45972e-22)
(0.973527 0.0124676 3.37359e-22)
(0.969663 0.0124926 1.24589e-22)
(0.972125 0.00179236 -5.37247e-23)
(1.02744 0.00235606 2.64885e-22)
(1.03836 0.00147706 1.7416e-22)
(0.983507 0.00288629 -6.19542e-23)
(0.93873 0.00600157 -6.37775e-22)
(0.944549 0.00970954 3.65983e-22)
(0.971535 0.00994952 -6.97143e-23)
(0.978033 0.0104712 -8.05251e-22)
(0.972349 0.010512 7.89953e-22)
(0.970957 0.0107394 -4.76001e-23)
(0.976639 0.00127457 -5.38084e-25)
(1.02404 0.000836301 4.67218e-24)
(1.03676 -0.00221536 5.95058e-22)
(0.990393 -0.00209617 -1.1778e-22)
(0.950425 0.0011548 -2.55005e-22)
(0.951148 0.00575967 -1.15295e-22)
(0.972012 0.00659458 6.70847e-22)
(0.978395 0.00717702 -6.02418e-22)
(0.973814 0.00796801 -7.00033e-22)
(0.97266 0.00863041 1.02504e-21)
(0.978505 0.000813536 -1.14171e-23)
(1.0165 6.60108e-05 2.00089e-24)
(1.02905 -0.00416122 -5.02561e-22)
(0.993632 -0.00547909 4.45e-22)
(0.961899 -0.00317731 2.17023e-22)
(0.960189 0.00120609 -4.04515e-22)
(0.974673 0.00306392 -5.58319e-23)
(0.980107 0.00383385 4.04417e-22)
(0.976478 0.00481373 -1.40435e-22)
(0.97459 0.00578881 3.09823e-22)
(0.979317 0.00043395 2.10813e-23)
(1.00807 -0.000254149 4.94524e-23)
(1.01868 -0.00451492 9.59141e-23)
(0.993962 -0.00642521 -1.12713e-22)
(0.971528 -0.00516174 2.79793e-22)
(0.969468 -0.00190886 5.87583e-22)
(0.978414 -0.000344411 4.58898e-22)
(0.982087 0.000185963 2.18929e-22)
(0.979643 0.00124734 1.32223e-22)
(0.978112 0.00260471 3.12175e-22)
(0.979106 0.000204343 2.10279e-23)
(1.00025 -0.000332583 -1.49929e-22)
(1.00848 -0.00382985 3.01161e-23)
(0.992269 -0.00558678 -1.41832e-22)
(0.977375 -0.00513906 1.72482e-23)
(0.975451 -0.00330976 1.5497e-23)
(0.980465 -0.0026355 -5.52741e-22)
(0.983125 -0.00237691 4.35407e-23)
(0.982963 -0.0016298 3.13382e-22)
(0.982873 9.05709e-05 -1.07032e-22)
(0.978957 9.20559e-05 -1.41366e-23)
(0.994454 -0.000227819 5.31042e-23)
(1.00072 -0.00281199 1.36382e-22)
(0.990272 -0.00407571 1.36728e-22)
(0.980148 -0.00416068 2.31161e-23)
(0.978011 -0.00336729 -4.41122e-22)
(0.981086 -0.00340935 4.38146e-22)
(0.984561 -0.00321941 -1.93408e-22)
(0.987445 -0.00255394 -4.89342e-22)
(0.988417 -0.000873921 -2.41207e-22)
(0.978717 0.000145282 -6.65077e-24)
(0.9901 2.03299e-05 1.39724e-23)
(0.994917 -0.00166616 -1.22885e-22)
(0.988068 -0.00248734 -1.71076e-22)
(0.980636 -0.0026366 1.51887e-22)
(0.978256 -0.00230816 -8.55571e-23)
(0.980954 -0.00238462 -2.55403e-22)
(0.986307 -0.00219942 -3.12405e-22)
(0.991632 -0.00148117 2.45024e-22)
(0.992792 -0.000390865 8.53326e-23)
(0.979642 0.000225484 -2.17412e-24)
(0.987888 0.0003625 3.45807e-24)
(0.991619 -0.000652624 5.19185e-23)
(0.987138 -0.0010543 2.22196e-22)
(0.981524 -0.00102227 -1.44184e-22)
(0.97928 -0.000621964 1.09166e-22)
(0.982066 -0.000354332 8.94191e-23)
(0.988626 -0.000125715 2.61157e-22)
(0.994942 0.000422086 5.63119e-23)
(0.996119 0.000734151 -6.41377e-23)
(0.981103 0.000349182 -9.86531e-24)
(0.98686 0.000702814 1.95311e-23)
(0.989711 0.000288169 1.42928e-23)
(0.986999 0.00020949 -1.93302e-22)
(0.983022 0.000557302 1.1684e-22)
(0.981274 0.0011879 -4.64506e-23)
(0.98371 0.00186829 -1.11278e-22)
(0.989801 0.00214769 3.86628e-23)
(0.995778 0.00232076 1.04392e-23)
(0.997495 0.0021083 2.51355e-22)
(0.983997 0.000381527 3.58414e-25)
(0.987797 0.000982832 -2.46067e-24)
(0.989915 0.000925446 4.11226e-23)
(0.988563 0.00117332 1.03128e-23)
(0.986149 0.00165352 3.44046e-23)
(0.985002 0.00252611 1.13031e-22)
(0.986582 0.00331175 -7.57038e-23)
(0.990833 0.00365195 -5.71072e-25)
(0.995681 0.00359077 -1.48862e-22)
(0.998288 0.00324323 -2.28396e-22)
(0.986944 0.000404453 -4.49456e-25)
(0.989271 0.00108377 3.00188e-23)
(0.990757 0.00131916 -3.78621e-23)
(0.990299 0.0017166 4.15945e-23)
(0.989146 0.00226648 -6.53099e-23)
(0.98847 0.00311242 -1.05456e-22)
(0.989094 0.00386685 1.22808e-22)
(0.991129 0.0042437 1.27785e-23)
(0.994555 0.00424931 4.76646e-23)
(0.997777 0.00391624 1.34438e-22)
(0.990616 0.000340354 -1.16614e-26)
(0.991915 0.00101507 -1.20655e-23)
(0.992888 0.00133067 -6.93218e-24)
(0.992882 0.00177691 -2.20875e-24)
(0.992553 0.00224768 -1.50346e-23)
(0.992174 0.00291254 4.96021e-23)
(0.992134 0.00353975 -6.04273e-24)
(0.992484 0.00391701 2.94845e-23)
(0.994581 0.00406655 -1.1244e-24)
(0.997739 0.00384812 -2.58031e-24)
(0.993231 0.00031659 -2.77251e-24)
(0.993858 0.000778393 8.33634e-24)
(0.994428 0.00119901 4.22052e-25)
(0.994511 0.00149308 2.34701e-23)
(0.994566 0.00196175 -3.69358e-23)
(0.994295 0.00230963 -7.92698e-24)
(0.993941 0.00288539 -4.21912e-23)
(0.993412 0.00312084 -8.74715e-24)
(0.994517 0.00351133 -7.66944e-24)
(0.997081 0.00331305 -4.4995e-23)
(0.995931 0.000277888 4.89481e-24)
(0.996179 0.000491498 -8.17377e-25)
(0.996472 0.000936877 -1.63159e-23)
(0.996518 0.00103804 -5.37575e-25)
(0.996668 0.00148602 -1.17009e-23)
(0.996463 0.00156272 3.59692e-23)
(0.996089 0.00206748 4.87142e-24)
(0.995385 0.00211713 -8.05755e-24)
(0.995902 0.00265911 9.56555e-25)
(0.997663 0.0024576 6.69497e-24)
(0.997113 0.000288766 9.814e-25)
(0.997154 0.000246761 1.6578e-24)
(0.997278 0.000765344 2.64899e-24)
(0.997212 0.000661493 -1.27656e-23)
(0.997334 0.00116486 9.44074e-24)
(0.997103 0.00101496 -9.412e-24)
(0.996783 0.00155346 1.34443e-23)
(0.996137 0.00140018 -6.6862e-24)
(0.996374 0.00207007 3.43436e-24)
(0.997542 0.00181093 -6.14669e-24)
(0.998755 0.000318684 -3.97584e-25)
(0.998718 -1.02734e-05 1.00358e-24)
(0.998723 0.000598352 -2.16036e-25)
(0.998627 0.000267373 -2.05927e-24)
(0.998644 0.000843813 3.05968e-24)
(0.998482 0.000519731 -3.0065e-24)
(0.998299 0.00108165 3.99717e-24)
(0.997998 0.000797608 -5.02939e-24)
(0.998142 0.00141999 -6.41328e-25)
(0.998775 0.00112477 2.81876e-24)
(0.950941 0.0988295 0)
(0.956882 0.139259 0)
(0.968423 0.0995156 0)
(0.974929 0.120963 0)
(0.987689 0.102128 0)
(0.994697 0.102719 0)
(1.00244 0.0958093 0)
(1.00905 0.0901546 0)
(1.01505 0.0831586 0)
(1.02003 0.0767922 0)
(1.02427 0.0698291 0)
(1.02744 0.0634033 0)
(1.02985 0.0568055 0)
(1.03151 0.0505175 0)
(1.03263 0.0443715 0)
(1.03298 0.0387152 0)
(1.03296 0.0333911 0)
(1.03251 0.0285176 0)
(1.03176 0.0240533 0)
(1.03076 0.0200802 0)
(1.02962 0.0165154 0)
(1.02842 0.0133677 0)
(1.0272 0.0106057 0)
(1.02604 0.00818908 0)
(1.025 0.00606337 0)
(1.02415 0.00417798 0)
(1.02353 0.00245987 0)
(1.02319 0.000736633 0)
(0.930917 0.0977483 0)
(0.922199 0.117544 0)
(0.947777 0.0845859 0)
(0.954492 0.122424 0)
(0.962606 0.0847714 0)
(0.970574 0.108512 0)
(0.98191 0.089685 0)
(0.988066 0.0932769 0)
(0.99559 0.0873524 0)
(1.0022 0.0827599 0)
(1.00825 0.0771201 0)
(1.01333 0.0718932 0)
(1.01768 0.0661015 0)
(1.02116 0.0605797 0)
(1.02403 0.0547645 0)
(1.02633 0.0490428 0)
(1.02783 0.043602 0)
(1.02881 0.0383123 0)
(1.02931 0.0333573 0)
(1.02936 0.0286853 0)
(1.02906 0.0244221 0)
(1.0285 0.0205105 0)
(1.02773 0.0170073 0)
(1.02686 0.0138439 0)
(1.02591 0.0110573 0)
(1.02499 0.00857492 0)
(1.02413 0.00637278 0)
(1.02341 0.00440394 0)
(1.02287 0.00259047 0)
(1.0226 0.000904279 0)
(0.930775 0.0822632 0)
(0.922691 0.0978383 0)
(0.948182 0.0724067 0)
(0.953975 0.1067 0)
(0.958507 0.0718892 0)
(0.968044 0.0969379 0)
(0.977686 0.0779397 0)
(0.98319 0.0844457 0)
(0.990808 0.0783195 0)
(0.996941 0.0751502 0)
(1.00305 0.0706577 0)
(1.0079 0.0668325 0)
(1.01246 0.0619725 0)
(1.01612 0.0574118 0)
(1.01951 0.052147 0)
(1.02202 0.047275 0)
(1.02394 0.0423269 0)
(1.02539 0.0375324 0)
(1.0263 0.0329013 0)
(1.02673 0.0285789 0)
(1.02686 0.0244636 0)
(1.0266 0.0207394 0)
(1.02617 0.0172844 0)
(1.02554 0.0141851 0)
(1.02482 0.0113937 0)
(1.02406 0.00889386 0)
(1.02333 0.00664716 0)
(1.0227 0.00461868 0)
(1.02226 0.00272851 0)
(1.02198 0.000958523 0)
(0.931603 0.0690245 0)
(0.92552 0.0811023 0)
(0.950037 0.0620495 0)
(0.95491 0.0920893 0)
(0.956334 0.0605668 0)
(0.966655 0.0860332 0)
(0.97475 0.0670163 0)
(0.979772 0.076073 0)
(0.986977 0.0694187 0)
(0.992694 0.0678798 0)
(0.998236 0.0643425 0)
(1.00288 0.0616187 0)
(1.00733 0.0575383 0)
(1.01124 0.0536708 0)
(1.01479 0.0492624 0)
(1.01749 0.0451451 0)
(1.01981 0.0408022 0)
(1.02164 0.0364329 0)
(1.02284 0.0323247 0)
(1.02376 0.0282265 0)
(1.02417 0.024437 0)
(1.02433 0.0208347 0)
(1.02418 0.0175302 0)
(1.02386 0.0144763 0)
(1.02341 0.0117156 0)
(1.02289 0.00919626 0)
(1.02236 0.0069061 0)
(1.02189 0.00479709 0)
(1.02153 0.0028358 0)
(1.02133 0.000823477 0)
(0.932236 0.0577612 0)
(0.929898 0.0667511 0)
(0.953604 0.0523985 0)
(0.956935 0.0786931 0)
(0.956065 0.0503423 0)
(0.967395 0.0755263 0)
(0.973533 0.0571017 0)
(0.978138 0.0676658 0)
(0.984802 0.0609514 0)
(0.990036 0.0609579 0)
(0.995048 0.0583369 0)
(0.999524 0.0565371 0)
(1.00389 0.0529366 0)
(1.00776 0.0498345 0)
(1.01119 0.0461124 0)
(1.01391 0.0427323 0)
(1.01657 0.0387527 0)
(1.01845 0.0350745 0)
(1.0201 0.0312564 0)
(1.02123 0.0275971 0)
(1.02204 0.0240234 0)
(1.02248 0.0206762 0)
(1.02267 0.0174891 0)
(1.02262 0.0145539 0)
(1.02241 0.0118339 0)
(1.02208 0.00934469 0)
(1.02169 0.0070535 0)
(1.02127 0.00493771 0)
(1.02086 0.0029284 0)
(1.02065 0.00102521 0)
(0.934513 0.0482356 0)
(0.934212 0.0554718 0)
(0.958475 0.0438106 0)
(0.95956 0.06698 0)
(0.956174 0.0418337 0)
(0.969389 0.0660708 0)
(0.972847 0.0484357 0)
(0.977069 0.0599347 0)
(0.983129 0.0530158 0)
(0.987573 0.0543877 0)
(0.992236 0.0524214 0)
(0.996572 0.0511518 0)
(1.00088 0.0482567 0)
(1.00474 0.0459434 0)
(1.00792 0.0430925 0)
(1.01098 0.0400661 0)
(1.01354 0.0367609 0)
(1.01567 0.0334745 0)
(1.01746 0.030133 0)
(1.01882 0.0267716 0)
(1.01983 0.0235522 0)
(1.02052 0.0203851 0)
(1.02092 0.0174181 0)
(1.0211 0.014584 0)
(1.02106 0.0119697 0)
(1.02091 0.00952105 0)
(1.02066 0.0072557 0)
(1.0204 0.00513488 0)
(1.02018 0.00307953 0)
(1.01998 0.00113999 0)
(0.939722 0.040755 0)
(0.938772 0.0472201 0)
(0.963097 0.0375335 0)
(0.962884 0.0569563 0)
(0.95713 0.0354011 0)
(0.971702 0.0581284 0)
(0.972987 0.04102 0)
(0.976869 0.0535527 0)
(0.982284 0.0458332 0)
(0.985875 0.0487516 0)
(0.990199 0.046666 0)
(0.994076 0.0459684 0)
(0.99813 0.0434104 0)
(1.00151 0.0421131 0)
(1.0047 0.0396252 0)
(1.00775 0.0372363 0)
(1.01029 0.0344259 0)
(1.01256 0.0316978 0)
(1.01446 0.0286867 0)
(1.01594 0.0257915 0)
(1.01719 0.0227793 0)
(1.01801 0.0199355 0)
(1.01866 0.017101 0)
(1.01898 0.01445 0)
(1.01918 0.0119073 0)
(1.01921 0.00952556 0)
(1.01917 0.00727747 0)
(1.0191 0.00513815 0)
(1.01906 0.00308809 0)
(1.019 0.000878344 0)
(0.944957 0.0347436 0)
(0.943896 0.0400533 0)
(0.96628 0.0326713 0)
(0.965879 0.048139 0)
(0.959232 0.0300417 0)
(0.973584 0.0508712 0)
(0.973884 0.0345682 0)
(0.97749 0.0475941 0)
(0.982284 0.0394386 0)
(0.985416 0.043556 0)
(0.989341 0.0413849 0)
(0.992986 0.0411416 0)
(0.996563 0.039282 0)
(0.999596 0.0385229 0)
(1.00273 0.036385 0)
(1.00559 0.0344157 0)
(1.00803 0.0321923 0)
(1.01044 0.029751 0)
(1.01225 0.0273033 0)
(1.01406 0.0246175 0)
(1.01531 0.0220317 0)
(1.01644 0.0193551 0)
(1.01719 0.016782 0)
(1.01774 0.0142507 0)
(1.01807 0.0118324 0)
(1.01824 0.00951055 0)
(1.01828 0.00730173 0)
(1.01826 0.00517848 0)
(1.01817 0.00311234 0)
(1.0182 0.00102176 0)
(0.947885 0.0291085 0)
(0.948804 0.0330352 0)
(0.969116 0.0276944 0)
(0.967889 0.0406108 0)
(0.961718 0.0249943 0)
(0.975161 0.044113 0)
(0.974743 0.0288716 0)
(0.97808 0.0418233 0)
(0.982188 0.0335584 0)
(0.984813 0.03856 0)
(0.988321 0.0360682 0)
(0.991552 0.036383 0)
(0.994714 0.0350853 0)
(0.997524 0.034814 0)
(1.00072 0.0328975 0)
(1.00318 0.031642 0)
(1.00588 0.0296255 0)
(1.00795 0.0277722 0)
(1.01006 0.0255328 0)
(1.01175 0.0233001 0)
(1.01323 0.0209473 0)
(1.01442 0.0185967 0)
(1.01538 0.0162117 0)
(1.01607 0.0138996 0)
(1.01659 0.0116058 0)
(1.0169 0.00940618 0)
(1.0171 0.00725986 0)
(1.01721 0.00519019 0)
(1.01729 0.00312321 0)
(1.0173 0.00126658 0)
(0.950504 0.0242472 0)
(0.953229 0.0274266 0)
(0.973089 0.0232121 0)
(0.969974 0.0347179 0)
(0.964322 0.0211255 0)
(0.977344 0.0384915 0)
(0.97591 0.0244912 0)
(0.979177 0.0370445 0)
(0.982622 0.0288585 0)
(0.984851 0.0344979 0)
(0.987864 0.0316782 0)
(0.990718 0.0324306 0)
(0.99316 0.0315095 0)
(0.995996 0.0311809 0)
(0.998605 0.0297894 0)
(1.00111 0.0288106 0)
(1.00353 0.02728 0)
(1.00567 0.0257299 0)
(1.00772 0.0238862 0)
(1.0095 0.0219293 0)
(1.011 0.0199202 0)
(1.01236 0.0177568 0)
(1.01338 0.0156456 0)
(1.0143 0.0134565 0)
(1.01494 0.0113306 0)
(1.01546 0.00920965 0)
(1.01582 0.0071321 0)
(1.01606 0.00507715 0)
(1.01628 0.00306077 0)
(1.01627 0.000934193 0)
(0.955144 0.0203435 0)
(0.957703 0.0234107 0)
(0.977539 0.0196258 0)
(0.973039 0.0294096 0)
(0.967486 0.0180596 0)
(0.98 0.0333224 0)
(0.977972 0.0205427 0)
(0.980961 0.032619 0)
(0.984156 0.0243889 0)
(0.98599 0.0306994 0)
(0.988926 0.0273965 0)
(0.991404 0.0289954 0)
(0.993655 0.0280492 0)
(0.996288 0.0279341 0)
(0.998514 0.0267824 0)
(1.00085 0.0261056 0)
(1.00302 0.0247982 0)
(1.00501 0.023614 0)
(1.00706 0.0219841 0)
(1.00866 0.0204475 0)
(1.01032 0.0185997 0)
(1.01154 0.0167868 0)
(1.01273 0.0148176 0)
(1.01359 0.0128613 0)
(1.01431 0.010869 0)
(1.01481 0.00889107 0)
(1.01515 0.00692641 0)
(1.01532 0.00495725 0)
(1.01533 0.00301235 0)
(1.01538 0.000776654 0)
(0.96051 0.0173232 0)
(0.961634 0.0203733 0)
(0.979791 0.0169951 0)
(0.975273 0.0245143 0)
(0.970496 0.0154069 0)
(0.981209 0.0286715 0)
(0.979512 0.0168667 0)
(0.981795 0.0284842 0)
(0.984826 0.0202509 0)
(0.986151 0.0269544 0)
(0.98899 0.0232644 0)
(0.991045 0.0255265 0)
(0.99326 0.0246182 0)
(0.995731 0.0247632 0)
(0.997738 0.0240684 0)
(1.0001 0.0235375 0)
(1.0019 0.0226549 0)
(1.00406 0.0215572 0)
(1.00571 0.0203586 0)
(1.00752 0.0189648 0)
(1.00894 0.0174686 0)
(1.01033 0.0158442 0)
(1.01145 0.0141277 0)
(1.01242 0.0123481 0)
(1.01315 0.0105427 0)
(1.01374 0.00869043 0)
(1.01414 0.00684292 0)
(1.01442 0.00498017 0)
(1.01452 0.0030379 0)
(1.01469 0.00122771 0)
(0.965729 0.0146376 0)
(0.965688 0.0175666 0)
(0.980299 0.0147968 0)
(0.9764 0.0204473 0)
(0.974044 0.0130038 0)
(0.981794 0.0249003 0)
(0.980991 0.0136126 0)
(0.982742 0.0250279 0)
(0.985297 0.0166774 0)
(0.986281 0.0237677 0)
(0.988811 0.0195739 0)
(0.99023 0.0224327 0)
(0.992387 0.021184 0)
(0.994209 0.0217269 0)
(0.996316 0.0211386 0)
(0.998146 0.0209927 0)
(1.00012 0.0202582 0)
(1.0019 0.0195122 0)
(1.00366 0.0185243 0)
(1.00523 0.0174028 0)
(1.00673 0.0161305 0)
(1.00803 0.0147372 0)
(1.00926 0.0132074 0)
(1.01022 0.0116504 0)
(1.01112 0.00997833 0)
(1.01181 0.00827162 0)
(1.01241 0.00652201 0)
(1.01287 0.00474364 0)
(1.0133 0.00288405 0)
(1.0134 0.00123858 0)
(0.970114 0.0122727 0)
(0.970115 0.0147588 0)
(0.980565 0.0128048 0)
(0.976901 0.0171994 0)
(0.978065 0.0111117 0)
(0.982599 0.0215488 0)
(0.982686 0.0112914 0)
(0.984581 0.0219633 0)
(0.986265 0.0140322 0)
(0.987651 0.0210486 0)
(0.98954 0.0168155 0)
(0.99096 0.0199274 0)
(0.992692 0.0185514 0)
(0.994339 0.019228 0)
(0.996065 0.018774 0)
(0.997747 0.0187356 0)
(0.999446 0.018178 0)
(1.00115 0.0176463 0)
(1.00272 0.0168769 0)
(1.00432 0.0159654 0)
(1.00565 0.0149259 0)
(1.00708 0.0136765 0)
(1.00816 0.0123857 0)
(1.00924 0.010952 0)
(1.01011 0.00943452 0)
(1.01086 0.00783981 0)
(1.01146 0.00619382 0)
(1.0119 0.00446516 0)
(1.01229 0.00273616 0)
(1.01233 0.000659947 0)
(0.973501 0.00984617 0)
(0.974608 0.0116395 0)
(0.981562 0.0104488 0)
(0.977634 0.0139822 0)
(0.981969 0.00929748 0)
(0.983593 0.0177474 0)
(0.984507 0.00937618 0)
(0.986505 0.0184585 0)
(0.987444 0.0116228 0)
(0.989276 0.018006 0)
(0.990598 0.0141162 0)
(0.99214 0.0172853 0)
(0.99361 0.0159183 0)
(0.995139 0.0168211 0)
(0.9967 0.0164497 0)
(0.998128 0.0165492 0)
(0.999768 0.0161008 0)
(1.00112 0.0157637 0)
(1.00276 0.0151166 0)
(1.004 0.0144518 0)
(1.00547 0.0135369 0)
(1.00661 0.012525 0)
(1.00775 0.0114202 0)
(1.0087 0.0101455 0)
(1.00958 0.00880056 0)
(1.01023 0.00736614 0)
(1.01077 0.00586091 0)
(1.01114 0.00425869 0)
(1.01128 0.00263037 0)
(1.01153 0.000560274 0)
(0.975711 0.00705024 0)
(0.977972 0.00837861 0)
(0.982669 0.00760297 0)
(0.978627 0.0107117 0)
(0.984691 0.00737549 0)
(0.984218 0.0137911 0)
(0.985939 0.00772499 0)
(0.987529 0.0148874 0)
(0.988187 0.00966023 0)
(0.990026 0.0149775 0)
(0.990911 0.0118547 0)
(0.992462 0.0147041 0)
(0.993545 0.0136177 0)
(0.995119 0.0145462 0)
(0.996271 0.0144085 0)
(0.997835 0.0145454 0)
(0.999038 0.0143314 0)
(1.00057 0.0140844 0)
(1.00179 0.0136393 0)
(1.00316 0.0131298 0)
(1.00438 0.012353 0)
(1.00557 0.0115699 0)
(1.00659 0.0105945 0)
(1.00763 0.00947583 0)
(1.00844 0.00829412 0)
(1.00918 0.00699386 0)
(1.00976 0.0055957 0)
(1.01022 0.00414623 0)
(1.01043 0.00252563 0)
(1.01079 0.00113134 0)
(0.978741 0.00383988 0)
(0.981121 0.00520838 0)
(0.984709 0.00450845 0)
(0.981121 0.00766719 0)
(0.987198 0.00513853 0)
(0.985862 0.0102959 0)
(0.987987 0.00583643 0)
(0.988948 0.0117932 0)
(0.989715 0.00769463 0)
(0.991056 0.012323 0)
(0.991909 0.00972279 0)
(0.992999 0.0124067 0)
(0.99406 0.0114325 0)
(0.995159 0.0124418 0)
(0.996314 0.012365 0)
(0.997451 0.0125839 0)
(0.998668 0.0125058 0)
(0.999853 0.0123405 0)
(1.00105 0.0121137 0)
(1.00217 0.0116556 0)
(1.00338 0.0110982 0)
(1.00433 0.0104415 0)
(1.00545 0.0095953 0)
(1.00631 0.00862912 0)
(1.00716 0.0076051 0)
(1.00787 0.00642118 0)
(1.0085 0.00515205 0)
(1.00898 0.00383483 0)
(1.00941 0.00231784 0)
(1.00949 0.00128928 0)
(0.982759 0.0013626 0)
(0.984109 0.00275947 0)
(0.987401 0.00223499 0)
(0.984495 0.00538743 0)
(0.989418 0.00335164 0)
(0.988286 0.00785406 0)
(0.990006 0.00435311 0)
(0.990766 0.00956093 0)
(0.991375 0.00617528 0)
(0.992418 0.0103352 0)
(0.993094 0.00810926 0)
(0.993986 0.0106392 0)
(0.994835 0.00977989 0)
(0.995779 0.0108054 0)
(0.996692 0.0107738 0)
(0.997727 0.0110635 0)
(0.998687 0.011013 0)
(0.999827 0.0110023 0)
(1.00073 0.010836 0)
(1.00194 0.0104906 0)
(1.00283 0.010071 0)
(1.0039 0.00952546 0)
(1.00483 0.00876685 0)
(1.0057 0.0079828 0)
(1.00647 0.00703732 0)
(1.00719 0.00597131 0)
(1.00777 0.00480676 0)
(1.00822 0.00354283 0)
(1.0087 0.00219718 0)
(1.00857 0.000671357 0)
(0.987463 9.54148e-05 0)
(0.987617 0.00144931 0)
(0.990982 0.00117148 0)
(0.988503 0.00399687 0)
(0.991958 0.00230706 0)
(0.991377 0.00629113 0)
(0.992165 0.0033187 0)
(0.993001 0.00790566 0)
(0.993171 0.00492439 0)
(0.994037 0.00869509 0)
(0.994458 0.00664632 0)
(0.995142 0.00905106 0)
(0.995851 0.00820547 0)
(0.996501 0.00925083 0)
(0.997381 0.00922726 0)
(0.998049 0.00954275 0)
(0.999065 0.00953851 0)
(0.999763 0.00961443 0)
(1.00078 0.00949406 0)
(1.00162 0.00921369 0)
(1.00254 0.00896244 0)
(1.00339 0.00842279 0)
(1.00427 0.00787626 0)
(1.00497 0.00717865 0)
(1.00573 0.00636255 0)
(1.00635 0.00541118 0)
(1.00685 0.00439429 0)
(1.0073 0.00319745 0)
(1.00759 0.00204843 0)
(1.00772 5.84534e-05 0)
(0.991098 0.000374503 0)
(0.990772 0.00147196 0)
(0.994069 0.00138809 0)
(0.991689 0.003616 0)
(0.994015 0.00231652 0)
(0.993769 0.0055326 0)
(0.993762 0.00314582 0)
(0.994648 0.0068668 0)
(0.99438 0.00445046 0)
(0.995204 0.00754919 0)
(0.995249 0.00586815 0)
(0.995975 0.00788977 0)
(0.996281 0.00720081 0)
(0.997019 0.00811019 0)
(0.997494 0.00813808 0)
(0.998287 0.00842471 0)
(0.998924 0.00845323 0)
(0.999704 0.00861999 0)
(1.00048 0.00842373 0)
(1.00131 0.008347 0)
(1.00204 0.00805372 0)
(1.00293 0.00766341 0)
(1.00361 0.00718837 0)
(1.00438 0.00660535 0)
(1.00505 0.00583424 0)
(1.00567 0.0050386 0)
(1.00613 0.00407683 0)
(1.00664 0.00301522 0)
(1.00669 0.00189824 0)
(1.00729 0.000205099 0)
(0.994272 0.00134332 0)
(0.994051 0.00225655 0)
(0.996818 0.00213989 0)
(0.994473 0.00377604 0)
(0.996035 0.00268504 0)
(0.995852 0.00515675 0)
(0.995497 0.0031513 0)
(0.996163 0.00612884 0)
(0.995826 0.00409422 0)
(0.99636 0.0066169 0)
(0.996379 0.0052037 0)
(0.996839 0.0068693 0)
(0.997101 0.00629527 0)
(0.997581 0.00702683 0)
(0.998005 0.00711091 0)
(0.998558 0.00724277 0)
(0.999127 0.00743031 0)
(0.999671 0.00743814 0)
(1.00043 0.00738385 0)
(1.00095 0.00729754 0)
(1.00173 0.00709064 0)
(1.00234 0.00673843 0)
(1.00301 0.006407 0)
(1.00366 0.00582639 0)
(1.00425 0.00521902 0)
(1.00478 0.0045216 0)
(1.00519 0.00364873 0)
(1.00567 0.00279154 0)
(1.00564 0.00165172 0)
(1.00632 0.000807367 0)
(0.996344 0.00266847 0)
(0.996182 0.00333151 0)
(0.998087 0.00312271 0)
(0.99594 0.00427273 0)
(0.996936 0.00334399 0)
(0.996786 0.00514986 0)
(0.996403 0.00350484 0)
(0.996853 0.00581869 0)
(0.996611 0.00410381 0)
(0.996927 0.0061269 0)
(0.996996 0.00491862 0)
(0.997305 0.00629383 0)
(0.997521 0.00575007 0)
(0.997945 0.00640866 0)
(0.998215 0.00639705 0)
(0.998816 0.006554 0)
(0.999109 0.00669603 0)
(0.999803 0.00670757 0)
(1.00023 0.00665288 0)
(1.00087 0.00665755 0)
(1.00145 0.00636691 0)
(1.00207 0.00620231 0)
(1.00264 0.00579385 0)
(1.00328 0.00535774 0)
(1.00378 0.00479136 0)
(1.0043 0.00419832 0)
(1.00472 0.00335227 0)
(1.00512 0.00266534 0)
(1.00525 0.00148758 0)
(1.00561 0.00119909 0)
(0.998318 0.00365427 0)
(0.997941 0.00409144 0)
(0.998878 0.00375772 0)
(0.997189 0.00456011 0)
(0.997592 0.00372451 0)
(0.997642 0.00503911 0)
(0.997222 0.0036569 0)
(0.997627 0.0054588 0)
(0.997448 0.00393875 0)
(0.997612 0.00561897 0)
(0.997801 0.00448098 0)
(0.997839 0.00567245 0)
(0.998232 0.0050868 0)
(0.998302 0.00568789 0)
(0.998759 0.00560644 0)
(0.998988 0.00571935 0)
(0.999403 0.00590819 0)
(0.99981 0.00576486 0)
(1.00024 0.00591487 0)
(1.00069 0.00571837 0)
(1.00122 0.00562323 0)
(1.00165 0.00539088 0)
(1.0022 0.0050977 0)
(1.00266 0.00469976 0)
(1.00309 0.00425634 0)
(1.00355 0.0036905 0)
(1.00391 0.00297765 0)
(1.0042 0.00237738 0)
(1.00453 0.00131675 0)
(1.00444 0.0010426 0)
(0.998881 0.00420131 0)
(0.998267 0.00436609 0)
(0.998476 0.00412376 0)
(0.997382 0.00451978 0)
(0.997301 0.00405384 0)
(0.997657 0.00476083 0)
(0.997143 0.00394371 0)
(0.997758 0.00503619 0)
(0.997423 0.00402692 0)
(0.997813 0.00519127 0)
(0.997824 0.00430723 0)
(0.998018 0.00528226 0)
(0.998276 0.00466747 0)
(0.998414 0.00534354 0)
(0.998784 0.00501882 0)
(0.999018 0.00537353 0)
(0.999361 0.00527161 0)
(0.999786 0.00534952 0)
(1.00008 0.00532302 0)
(1.00062 0.00524174 0)
(1.00097 0.00509437 0)
(1.00146 0.00496997 0)
(1.00192 0.00461946 0)
(1.00233 0.00437018 0)
(1.00279 0.00388096 0)
(1.00318 0.0034015 0)
(1.00356 0.00276762 0)
(1.00378 0.00214819 0)
(1.00423 0.00126449 0)
(1.00393 0.000618995 0)
(0.99936 0.00404145 0)
(0.998693 0.00397018 0)
(0.99848 0.00391414 0)
(0.997937 0.00393267 0)
(0.997531 0.00390086 0)
(0.998126 0.00402663 0)
(0.997501 0.00383556 0)
(0.998299 0.00422839 0)
(0.997794 0.00384676 0)
(0.998383 0.00438492 0)
(0.998199 0.00397699 0)
(0.998509 0.00450768 0)
(0.99865 0.00417101 0)
(0.99875 0.00460151 0)
(0.999127 0.00438407 0)
(0.999161 0.00464341 0)
(0.999613 0.00456639 0)
(0.999749 0.00459532 0)
(1.00013 0.00464542 0)
(1.00044 0.00445853 0)
(1.00074 0.00450712 0)
(1.00112 0.00423034 0)
(1.00145 0.00407371 0)
(1.00179 0.00376861 0)
(1.00216 0.00338604 0)
(1.00244 0.00296408 0)
(1.00275 0.00244252 0)
(1.00292 0.00181681 0)
(1.0033 0.00116153 0)
(1.00301 0.000232865 0)
(0.998699 0.00358575 0)
(0.998173 0.00330035 0)
(0.997881 0.00357463 0)
(0.997707 0.00321348 0)
(0.997258 0.00372229 0)
(0.997921 0.00325489 0)
(0.997304 0.00381891 0)
(0.998213 0.00344521 0)
(0.997574 0.0038369 0)
(0.998424 0.00369371 0)
(0.997967 0.00387418 0)
(0.998623 0.00394851 0)
(0.998437 0.00392831 0)
(0.998869 0.00417886 0)
(0.998962 0.0039993 0)
(0.999218 0.00433576 0)
(0.999507 0.00407821 0)
(0.999704 0.00436723 0)
(1.00005 0.00413965 0)
(1.00032 0.00423344 0)
(1.00063 0.00407946 0)
(1.00099 0.00395183 0)
(1.00128 0.00375096 0)
(1.00162 0.0035013 0)
(1.00195 0.003146 0)
(1.00219 0.00276972 0)
(1.00252 0.00228049 0)
(1.00267 0.00165192 0)
(1.00294 0.00113528 0)
(1.00284 8.84867e-05 0)
(0.9989 0.0028045 0)
(0.998565 0.002423 0)
(0.998307 0.00290566 0)
(0.998318 0.00234454 0)
(0.997934 0.00315575 0)
(0.998504 0.0023558 0)
(0.997977 0.00339828 0)
(0.998772 0.00249838 0)
(0.99817 0.00349215 0)
(0.998972 0.00274095 0)
(0.998456 0.00355178 0)
(0.999133 0.00301832 0)
(0.998816 0.00358482 0)
(0.999291 0.00329785 0)
(0.999228 0.00360603 0)
(0.999493 0.00352863 0)
(0.999654 0.00362119 0)
(0.999782 0.00365323 0)
(1.00007 0.00361732 0)
(1.00018 0.00360985 0)
(1.00045 0.00354715 0)
(1.00067 0.00338263 0)
(1.00085 0.00329516 0)
(1.00113 0.00300811 0)
(1.00129 0.00277408 0)
(1.00151 0.00239812 0)
(1.00172 0.00199011 0)
(1.00182 0.00144936 0)
(1.00198 0.00100616 0)
(1.00199 8.27975e-05 0)
(0.998422 0.00228036 0)
(0.998247 0.00183271 0)
(0.998106 0.00251182 0)
(0.99818 0.00180059 0)
(0.997941 0.00286901 0)
(0.99838 0.00181687 0)
(0.997993 0.0032253 0)
(0.998681 0.00193903 0)
(0.998132 0.0033985 0)
(0.998941 0.00224725 0)
(0.998361 0.00346085 0)
(0.999164 0.0026063 0)
(0.99868 0.00346574 0)
(0.99936 0.00297563 0)
(0.999078 0.00343842 0)
(0.99956 0.0032937 0)
(0.999529 0.00340012 0)
(0.999803 0.00349266 0)
(0.999994 0.00335329 0)
(1.00013 0.00351021 0)
(1.00043 0.00327601 0)
(1.00054 0.00330223 0)
(1.00082 0.00309017 0)
(1.001 0.00288768 0)
(1.00121 0.00265408 0)
(1.00142 0.00227103 0)
(1.00157 0.00193242 0)
(1.00172 0.0013894 0)