/*--------------------------------*- C++ -*----------------------------------*\
| =========                 |                                                 |
| \\      /  F ield         | OpenFOAM: The Open Source CFD Toolbox           |
|  \\    /   O peration     | Version:                                        |
|   \\  /    A nd           | Website:  www.openfoam.com                      |
|    \\/     M anipulation  |                                                 |
\*---------------------------------------------------------------------------*/
FoamFile
{
    version     2.0;
    format      ascii;
    class       surfaceScalarField;
    location    "76";
    object      phi;
}
// * * * * * * * * * * * * * * * * * * * * * * * * * * * * * * * * * * * * * //

dimensions      [0 3 -1 0 0 0 0];
oriented        oriented;


internalField   nonuniform List<scalar> 
2201
(
-0.000512584
9.6216e-05
0.000416368
-0.000948484
0.0004359
-0.00118443
0.000235947
-0.000968438
-0.000215993
-0.000413097
-0.000555342
1.27767e-05
-0.000425873
0.000475334
-0.000462557
0.000208236
0.000267098
-0.001409
0.00161724
0.00269711
-0.00410611
0.000175249
0.000806276
-0.000885309
-0.000784346
0.0013955
-0.00118952
0.000641119
-0.00099792
-0.000407591
-0.000697656
-0.000855606
-0.0016292
0.000505674
-0.00511186
0.0030201
-0.0102238
0.00537901
-0.0150649
0.00645831
0.00603156
-0.0183993
0.00172217
0.00205467
-0.00297057
1.34396e-05
0.00310423
-0.0011739
0.00182846
-0.00207784
0.000496346
-0.0046503
0.00171685
-0.00986126
0.00571664
-0.0156155
0.00877432
-0.0191652
0.00892872
-0.0214175
0.00871059
0.00785507
-0.023241
0.00169458
0.00370481
-0.00334472
-0.000650348
0.00544916
-0.00317336
0.00435148
-0.00628105
0.00360403
-0.0119072
0.00734297
-0.0177595
0.0115689
-0.0211125
0.0121274
-0.0231201
0.0109363
-0.0242794
0.00986989
0.00827646
-0.0247008
-0.000108836
0.00574178
-0.00192814
-0.00319046
0.00853078
-0.0064529
0.00761392
-0.0116735
0.00882462
-0.0181758
0.0138453
-0.0221993
0.0155924
-0.0236714
0.0135995
-0.0248827
0.0121476
-0.0253909
0.0103782
0.00824482
-0.0253593
-0.00347738
0.00791999
0.00129918
-0.00639184
0.0114452
-0.0108282
0.0120503
-0.0174114
0.0154079
-0.0224839
0.0189177
-0.0241303
0.0172389
-0.0249506
0.0144197
-0.0258191
0.0130162
-0.025891
0.01045
0.00833284
-0.025979
-0.0074425
0.0102864
0.00507608
-0.0109981
0.0150008
-0.016647
0.0176992
-0.0223999
0.0211608
-0.0247564
0.0212743
-0.025041
0.0175234
-0.0259867
0.0153654
-0.0263762
0.0134057
-0.0264238
0.0104976
0.00852143
-0.0266124
-0.0126867
0.0133359
0.00963717
-0.0172075
0.0195216
-0.0224427
0.0229344
-0.0255436
0.0242616
-0.0257136
0.0214443
-0.0260354
0.0178452
-0.0268712
0.0162012
-0.0268887
0.0134232
-0.027152
0.0107609
0.00857184
-0.0272024
-0.0189272
0.0170517
0.0152114
-0.0232482
0.0238426
-0.0263865
0.0260727
-0.0268548
0.02473
-0.0264931
0.0210827
-0.027231
0.0185831
-0.0275796
0.0165498
-0.0276266
0.0134702
-0.0279144
0.0110486
0.00848682
-0.0278294
-0.0243515
-0.0272107
0.0267018
-0.0279815
0.0268435
-0.0273498
0.0240982
-0.0275455
0.0212784
-0.0282058
0.0192434
-0.0282578
0.0166018
-0.0284708
0.0136832
-0.0286094
0.0111872
0.00836934
-0.0284919
-0.0287296
0.0279871
-0.0281944
0.0263082
-0.0278682
0.023772
-0.028572
0.0219822
-0.0288306
0.019502
-0.0289917
0.016763
-0.0292782
0.0139697
-0.0293152
0.0112242
0.00831486
-0.0292607
-0.0286178
-0.0280336
0.025724
-0.0285699
0.0243084
-0.0291953
0.0226075
-0.0293543
0.019661
-0.0298131
0.0172218
-0.0300162
0.0141728
-0.0301674
0.0113754
0.00821761
-0.0300702
-0.0281479
0.0260485
-0.0291184
0.0252789
-0.0295706
0.0230597
-0.0300548
0.0201453
-0.0306077
0.0177746
-0.0308033
0.0143684
-0.0310382
0.0116103
0.00810805
-0.0309286
-0.028391
-0.0295281
0.026416
-0.0300435
0.0235751
-0.0308861
0.0209879
-0.0312974
0.0181859
-0.0316894
0.0147604
-0.0317707
0.0116915
0.00817119
-0.0318338
-0.0299405
0.0275708
-0.0306142
0.0242489
-0.0316788
0.0220525
-0.0319544
0.0184616
-0.0325323
0.0153382
-0.0326042
0.0117635
0.00824531
-0.0326783
-0.030186
0.028566
-0.0313184
0.0253813
-0.0322815
0.0230156
-0.0327744
0.0189545
-0.0333603
0.015924
-0.0335709
0.0119742
0.00829383
-0.0336194
-0.0305677
-0.0322296
0.0270432
-0.0329375
0.0237235
-0.0338269
0.0198439
-0.0343306
0.0164278
-0.0346014
0.0122449
0.0084192
-0.0347267
-0.0330894
0.0288574
-0.0338902
0.0245243
-0.0348858
0.0208395
-0.0354079
0.0169499
-0.0356837
0.0125206
0.00853031
-0.0357948
-0.0339416
0.0305755
-0.0349501
0.0255328
-0.0358677
0.0217571
-0.0364121
0.0174943
-0.0367335
0.012842
0.00857772
-0.0367809
-0.0348742
-0.0358659
0.0265246
-0.0369268
0.022818
-0.0372671
0.0178346
-0.0377928
0.0133678
0.00853197
-0.0377471
-0.0164824
0.00182964
-0.0169549
0.00047257
-0.0159092
-0.00104568
-0.0133911
-0.00251816
-0.00992819
-0.0034629
-0.00619552
-0.00373267
-0.00312443
-0.00307109
-0.00143588
-0.00168855
-0.000916849
-0.000519029
-0.000500481
-0.0209296
0.00257159
-0.0201246
-0.000332495
-0.0183068
-0.00286343
-0.0154166
-0.00540837
-0.0114343
-0.00744518
-0.00702446
-0.00814253
-0.0031796
-0.00691595
-0.000742084
-0.00412606
0.000471019
-0.00173213
-0.000914771
-0.0209623
-0.0204282
-0.000866658
-0.018631
-0.00466056
-0.0157759
-0.00826355
-0.0118333
-0.0113877
-0.00721168
-0.0127642
-0.00280197
-0.0113257
0.00058367
-0.0075117
0.00273585
-0.00388431
-0.00114949
-0.0202285
-0.0187449
-0.0161036
-0.0123677
-0.00777846
-0.0173534
-0.00309249
-0.0160116
0.000864255
-0.0114684
0.00337225
-0.0063923
-0.00112197
-0.00812961
-0.0034461
-0.0206951
0.000341316
-0.0152559
0.00234058
-0.00839156
-0.000709527
-0.00513076
-0.00180291
-0.0185837
-0.000559456
-0.00963501
3.0192e-05
-0.00449627
-0.00395197
-0.0101793
0.0011543
-0.00781911
0.00297236
0.00770334
0.0501264
-0.0492978
0.00720102
0.053008
-0.0525057
0.00684157
0.0561478
-0.0557884
0.00640775
0.0597569
-0.0593231
0.00589899
0.0635967
-0.0630879
0.0053844
0.0676817
-0.0671671
0.0048951
0.0720656
-0.0715763
0.00445697
0.0768316
-0.0763935
0.00406895
0.0819899
-0.0816019
0.00375992
0.087425
-0.087116
0.00349073
0.0931903
-0.0929211
0.0031829
0.0994172
-0.0991094
0.00284886
0.106069
-0.105735
0.00252325
0.113137
-0.112811
0.00222745
0.12068
-0.120384
0.0019909
0.12871
-0.128474
0.00180893
0.137285
-0.137103
0.00166769
0.146466
-0.146325
0.00154782
0.156302
-0.156182
0.00143018
0.166837
-0.166719
0.001308
0.178108
-0.177985
0.00118376
0.190164
-0.19004
0.00105188
0.203077
-0.202945
0.00091124
0.216909
-0.216768
0.000769666
0.231703
-0.231562
0.000621045
0.247555
-0.247406
0.000468851
0.264532
-0.26438
0.000317415
0.28273
-0.282578
0.000163478
0.302261
-0.302107
0.323178
-0.323014
0.0129176
0.0505766
0.0121269
0.0537986
0.011305
0.0569698
0.0107306
0.0603313
0.0102781
0.0640492
0.00984052
0.0681192
0.00940511
0.072501
0.00893409
0.0773027
0.00847622
0.0824477
0.00807911
0.0878221
0.00767639
0.0935931
0.00729243
0.0998012
0.00698316
0.106378
0.00668532
0.113435
0.0063552
0.12101
0.00600007
0.129065
0.00561779
0.137667
0.00521483
0.146869
0.0048092
0.156708
0.00440747
0.167238
0.00401196
0.178503
0.00362161
0.190555
0.00321922
0.20348
0.00280982
0.217318
0.00239302
0.23212
0.00195599
0.247992
0.00150146
0.264987
0.00102831
0.283203
0.000529128
0.30276
0.323707
0.0170607
0.0513505
0.016651
0.0542084
0.0162948
0.0573259
0.015688
0.0609381
0.0149494
0.0647879
0.0142877
0.0687808
0.0136824
0.0731064
0.0130752
0.0779098
0.0125735
0.0829494
0.0121765
0.0882191
0.0116945
0.094075
0.0111234
0.100372
0.010551
0.106951
0.00996176
0.114024
0.00940142
0.12157
0.00889976
0.129567
0.0084215
0.138146
0.00795478
0.147336
0.00747835
0.157184
0.00696994
0.167747
0.00643248
0.179041
0.00586868
0.191119
0.00526138
0.204087
0.00463141
0.217948
0.00396697
0.232784
0.00326093
0.248698
0.00251504
0.265733
0.00172555
0.283992
0.000889782
0.303595
0.324597
0.0224024
0.0517661
0.0217077
0.0549031
0.0210495
0.057984
0.020532
0.0614557
0.02003
0.0652899
0.0194624
0.0693484
0.018696
0.0738728
0.0178359
0.0787699
0.0171522
0.0836331
0.0165036
0.0888678
0.0157731
0.0948056
0.0152011
0.100944
0.0146944
0.107457
0.0140909
0.114627
0.0134591
0.122202
0.0127896
0.130237
0.0120674
0.138868
0.0113289
0.148074
0.0105756
0.157938
0.00980875
0.168514
0.0090322
0.179817
0.00821595
0.191935
0.00736186
0.204941
0.00647977
0.21883
0.00554886
0.233715
0.00456447
0.249682
0.00352429
0.266773
0.00241978
0.285097
0.00124812
0.304767
0.325845
0.0263181
0.0262042
0.0256927
0.0247655
0.0238479
0.0231345
0.0223548
0.0216383
0.0210993
0.0203445
0.0194909
0.0956592
0.0187339
0.101701
0.0179
0.108291
0.0170626
0.115465
0.0163219
0.122943
0.0155751
0.130984
0.0148181
0.139625
0.0140459
0.148847
0.013207
0.158776
0.0123198
0.169401
0.0113876
0.180749
0.0103882
0.192934
0.00933939
0.20599
0.00823962
0.21993
0.00706566
0.234889
0.00582051
0.250927
0.00449913
0.268094
0.00309182
0.286504
0.00159557
0.306263
0.327441
0.0234983
0.0228214
0.0219397
0.0210296
0.0201052
0.0190985
0.0180818
0.0170464
0.0159808
0.0149041
0.0137762
0.0125756
0.0113135
0.00998268
0.0085616
0.00705689
0.00545711
0.00375193
0.0019367
0.0284606
0.0310798
-0.0269161
-0.0326243
0.0302645
0.0277621
-0.0295659
0.0318861
0.0242843
-0.025906
0.0335066
0.0204866
-0.0221071
0.034867
0.016606
-0.0179664
0.03597
0.0123265
-0.0134294
0.0368423
0.00805946
-0.00893183
0.0373923
0.00355116
-0.00410111
0.0378387
-0.00121859
0.000772155
-0.00573623
0.00582786
0.027695
0.0290334
-0.0256486
0.0295003
0.0259568
0.0311205
0.0226641
0.0326152
0.0189918
0.0338973
0.0153238
0.0349218
0.0113021
0.0358312
0.00715
0.0364298
0.0029526
0.0367494
-0.00153817
-0.00576772
0.0267209
0.0269739
-0.0246614
0.0286226
0.024055
0.0302815
0.0210052
0.0317263
0.0175471
0.0329922
0.0140578
0.0339804
0.0103139
0.0348071
0.00632332
0.035412
0.00234772
0.0356826
-0.0018088
-0.00587987
0.0258285
0.0250199
-0.0238745
0.0277058
0.0221777
0.0293586
0.0193524
0.0307953
0.0161104
0.0320249
0.0128282
0.0330628
0.00927596
0.0337431
0.00564306
0.0343965
0.00169431
0.0345863
-0.00199866
-0.00602026
0.0250613
0.0231715
-0.0232128
0.0268324
0.0204066
0.0284306
0.0177541
0.0298444
0.0146966
0.0310138
0.0116588
0.0320657
0.00822406
0.0327556
0.00495324
0.0332867
0.0011632
0.0336002
-0.00231217
-0.00603949
0.0243917
0.0213803
-0.0226005
0.0260642
0.0187341
0.027573
0.0162453
0.028932
0.0133376
0.0300899
0.0105009
0.0310164
0.00729755
0.0318296
0.00414002
0.0322405
0.000752331
0.0326037
-0.00267533
-0.00611418
0.0237459
0.0196152
-0.0219808
0.0253644
0.0171156
0.026835
0.0147747
0.0280817
0.0120908
0.0292462
0.00933643
0.0301194
0.00642441
0.0308626
0.00339675
0.0314003
0.000214687
0.031629
-0.00290409
-0.00631895
0.0231433
0.0178589
-0.0213871
0.0246821
0.0155769
0.0261582
0.0132987
0.0273664
0.0108826
0.0284333
0.00826949
0.0293577
0.00549999
0.0300093
0.00274514
0.0305517
-0.000327642
0.0308481
-0.00320049
-0.00639953
0.0225753
0.0160965
-0.020813
0.0240758
0.0140764
0.0254543
0.0119202
0.0267115
0.00962534
0.0276955
0.00728553
0.0285706
0.00462488
0.0292571
0.00205868
0.0296789
-0.000749498
0.0300349
-0.00355646
-0.0064348
0.0219954
0.0143882
-0.0202871
0.023524
0.0125479
0.0248338
0.0106104
0.0260158
0.00844326
0.0270422
0.00625913
0.0277923
0.00387477
0.0284894
0.00136162
0.0288847
-0.00114481
0.0291928
-0.00386458
-0.0065027
0.0214815
0.0127697
-0.019863
0.0229557
0.0110738
0.0242809
0.00928517
0.0253882
0.00733594
0.0263839
0.00526347
0.0271478
0.00311087
0.027746
0.000763416
0.0281782
-0.00157701
0.0284561
-0.00414251
-0.00653845
0.0211061
0.0111756
-0.019512
0.0225223
0.0096576
0.0237772
0.00803022
0.0248982
0.00621497
0.025788
0.00437369
0.0265958
0.002303
0.0271087
0.000250577
0.0275667
-0.00203506
0.0277759
-0.00435173
-0.0065919
0.0207313
0.00963571
-0.0191915
0.0221617
0.00822724
0.0233635
0.00682835
0.024447
0.00513154
0.0253081
0.00351257
0.0260431
0.001568
0.0265429
-0.000249265
0.0269611
-0.00245318
0.0270939
-0.0044846
-0.00670034
0.0204095
0.00812807
-0.0189018
0.0217748
0.00686188
0.0229976
0.0056056
0.0239993
0.00412983
0.0248783
0.00263356
0.0255182
0.000928117
0.0260432
-0.000774323
0.0263616
-0.00277159
0.0264848
-0.00460777
-0.00682796
0.0201789
0.00662217
-0.018673
0.021489
0.00555182
0.0226753
0.00441929
0.0236373
0.00316782
0.0244832
0.00178769
0.025068
0.0003433
0.025592
-0.00129831
0.0258027
-0.00298228
0.0259771
-0.00478222
-0.00682982
0.0200387
0.00516824
-0.0185848
0.0213511
0.00423943
0.0224492
0.00332123
0.0234128
0.00220415
0.0241626
0.00103797
0.0247673
-0.000261434
0.0251817
-0.00171275
0.0253839
-0.00318448
0.0255032
-0.00490148
-0.00668592
0.0200044
0.00373487
-0.018571
0.0212985
0.00294524
0.0223385
0.00228128
0.0232253
0.00131738
0.0239232
0.000340034
0.0244843
-0.000822549
0.0247702
-0.00199864
0.0249924
-0.00340666
0.0249135
-0.00482255
-0.00647328
0.0200553
0.00226172
-0.0185822
0.0212905
0.00171005
0.0224079
0.00116394
0.02321
0.000515235
0.0237603
-0.000210254
0.0241272
-0.00118946
0.024278
-0.00214948
0.0242236
-0.00335226
0.0238894
-0.00448831
-0.00582484
0.0202146
0.00085755
-0.0188104
0.0213094
0.000615253
0.022326
0.00014731
0.0229876
-0.000146334
0.023322
-0.000544664
0.0231132
-0.000980612
0.0226132
-0.00164949
0.0215271
-0.00226615
0.020324
-0.00328524
-0.00390015
0.0161162
-0.0152587
0.0167315
0.0168788
0.0167324
0.0161878
0.0152072
0.0135577
0.0112915
0.00800627
0.0190106
0.0411885
0.0215932
0.0388078
-0.0413904
0.0241873
0.0362581
-0.0388522
0.0330802
-0.035809
0.0158201
0.040309
0.018463
0.0385457
0.0209663
0.0363045
0.0234424
0.0337821
0.030874
0.00996851
0.0403433
0.0126761
0.039172
0.0153281
0.0376569
0.0179146
0.0359592
0.0203806
0.0338385
0.0226397
0.031523
0.0288523
0.00141026
0.0393681
0.00418954
0.0390366
0.00693679
0.0384778
0.00964945
0.0376306
0.0122905
0.036531
0.0148573
0.0350902
0.0173586
0.0334579
0.0197543
0.0314428
0.021911
0.0293663
0.0268888
0.00127954
0.0366274
0.00399895
0.0363172
0.00668862
0.0357881
0.00934004
0.0349792
0.0119244
0.0339466
0.0144062
0.0326084
0.0168028
0.0310613
0.0191279
0.0291176
0.0212614
0.0272328
0.0249374
0.00115411
0.0339413
0.00381542
0.0336559
0.00644498
0.0331586
0.0090334
0.0323908
0.0115657
0.0314143
0.0139919
0.0301822
0.0162918
0.0287614
0.0185216
0.0268877
0.0206392
0.0251152
0.0229761
0.00103657
0.0313096
0.00364276
0.0310497
0.00621508
0.0305862
0.00873565
0.0298702
0.0112103
0.0289396
0.0135989
0.0277936
0.0158305
0.0265298
0.0179739
0.0247443
0.0200389
0.0230502
0.0210343
0.000922786
0.0287327
0.00347673
0.0284957
0.00599707
0.0280659
0.0084544
0.0274129
0.0108703
0.0265237
0.0132155
0.0254484
0.0154122
0.0243332
0.0174928
0.0226637
0.0194894
0.0210536
0.0191366
0.000812465
0.0262053
0.00331706
0.0259911
0.00579141
0.0255915
0.00819592
0.0250084
0.0105518
0.0241678
0.0128472
0.023153
0.0150261
0.0221543
0.0170583
0.0206316
0.018981
0.0191308
0.0173047
0.000705368
0.0237209
0.00316561
0.0235309
0.00559938
0.0231578
0.00796372
0.0226441
0.010266
0.0218655
0.0125125
0.0209066
0.0146683
0.0199985
0.0166695
0.0186304
0.0185461
0.0172542
0.0155636
0.000600486
0.0212765
0.0030211
0.0211103
0.00541994
0.0207589
0.00775372
0.0203103
0.0100091
0.0196101
0.0122137
0.018702
0.0143446
0.0178675
0.0163224
0.0166526
0.0181672
0.0154094
0.0138678
0.000500471
0.0188616
0.00288812
0.0187226
0.00525803
0.018389
0.00756947
0.0179988
0.00978727
0.0173923
0.011943
0.0165463
0.0140424
0.0157681
0.0160147
0.0146804
0.0178483
0.0135758
0.0122041
0.000408039
0.0164726
0.00276693
0.0163637
0.00511281
0.0160431
0.00741292
0.0156987
0.00960932
0.0151959
0.0117188
0.0144368
0.0137686
0.0137183
0.0157058
0.0127432
0.0175389
0.0117427
0.0105516
0.000318155
0.0141074
0.00266483
0.014017
0.00498505
0.0137229
0.00728127
0.0134025
0.009478
0.0129992
0.0115595
0.0123553
0.0135662
0.0117116
0.0154506
0.0108588
0.0172457
0.00994753
0.00889551
0.000240637
0.0117392
0.00259062
0.0116671
0.00488012
0.0114334
0.00716567
0.011117
0.00937878
0.010786
0.0114726
0.0102615
0.0134752
0.00970892
0.0153206
0.00901341
0.0170564
0.00821174
0.00727886
0.000171362
0.009358
0.00253575
0.00930268
0.00480193
0.00916724
0.0070708
0.00884809
0.00927544
0.00858141
0.0113762
0.00816073
0.0134062
0.00767895
0.0152914
0.00712822
0.0169903
0.00651279
0.0056844
0.000103255
0.00696382
0.00251474
0.00689119
0.00479141
0.00689056
0.00704773
0.00659177
0.00923413
0.00639502
0.011348
0.00604681
0.0133337
0.00569328
0.0152678
0.00519415
0.0169771
0.00480344
0.00409055
4.68919e-05
0.00454998
0.00247361
0.00446447
0.00481496
0.00454922
0.00711332
0.0042934
0.00924641
0.00426193
0.0114015
0.00389171
0.0133695
0.00372524
0.0152673
0.00329636
0.0170282
0.00304262
0.00253653
7.19285e-07
0.00206664
0.00244592
0.00201927
0.00490406
0.00209108
0.00728969
0.00190778
0.00952944
0.00202218
0.0116825
0.00173864
0.0137245
0.00168322
0.0155738
0.00144712
0.017336
0.00128042
0.00106209
6.86136e-06
0.00202613
0.00411721
0.00602499
0.00804717
0.0097858
0.011469
0.0129161
0.0141966
0.0366768
0.0050556
0.00487791
0.00578874
0.00665657
0.00494692
0.045114
0.00498105
0.0489637
0.00480004
0.0527912
0.00449054
0.0567797
0.00415281
0.0610255
0.00388398
0.0656067
0.00370075
0.070618
0.00352833
0.0760747
0.00331279
0.0818723
0.00305361
0.0879656
0.00277764
0.0943916
0.00251038
0.101159
0.0022586
0.108317
0.00202624
0.115938
0.00180998
0.124099
0.00160544
0.132834
0.0014123
0.142154
0.001237
0.152077
0.00108418
0.162642
0.00094854
0.173904
0.000826495
0.185914
0.000713786
0.198731
0.000607397
0.212414
0.000506395
0.227025
0.000410547
0.242628
0.000319885
0.259304
0.000230046
0.277167
0.000126392
0.296331
6.52258e-05
0.316972
0.338971
0.00542092
0.0463496
0.00473856
0.049646
0.00429401
0.0532358
0.00399981
0.0570739
0.00379005
0.0612353
0.00360674
0.06579
0.00343707
0.0707877
0.00326446
0.0762473
0.00306966
0.0820671
0.0028433
0.088192
0.00259812
0.0946367
0.00234859
0.101409
0.00212006
0.108546
0.0019223
0.116136
0.00174368
0.124277
0.00157644
0.133002
0.00141551
0.142315
0.00125855
0.152234
0.00110477
0.162795
0.000958456
0.17405
0.000822209
0.18605
0.000698277
0.198855
0.000585844
0.212527
0.000482958
0.227128
0.000387705
0.242724
0.000300025
0.259391
0.000213889
0.277253
0.000116974
0.296428
5.85845e-05
0.31703
0.33903
-0.0326869
0.0464122
-0.0329426
0.0499018
-0.0330286
0.0533217
-0.0331061
0.0571514
-0.0331754
0.0613046
-0.0332178
0.0658324
-0.0331849
0.0707548
-0.0330106
0.076073
-0.0326891
0.0817455
-0.0322533
0.0877563
-0.0317077
0.0940911
-0.0310511
0.100752
-0.0303016
0.107796
-0.0294722
0.115306
-0.0285582
0.123363
-0.0275517
0.131995
-0.0264429
0.141206
-0.0252237
0.151015
-0.0238891
0.161461
-0.0224326
0.172593
-0.0208489
0.184466
-0.0191355
0.197142
-0.017289
0.21068
-0.0153046
0.225143
-0.0131763
0.240595
-0.0108967
0.257112
-0.00844977
0.274806
-0.00584437
0.293823
-0.00301595
0.314202
0.336014
-0.0297763
0.0466226
-0.029873
0.0499985
-0.0299242
0.0533729
-0.0299427
0.0571699
-0.0298656
0.0612275
-0.0297482
0.065715
-0.0295958
0.0706023
-0.0294208
0.075898
-0.0292087
0.0815335
-0.0289157
0.0874632
-0.0285148
0.0936902
-0.0280128
0.10025
-0.0274053
0.107188
-0.0266921
0.114593
-0.025883
0.122554
-0.0249734
0.131086
-0.0239617
0.140194
-0.0228498
0.149903
-0.0216388
0.16025
-0.0203258
0.17128
-0.0189025
0.183043
-0.0173608
0.1956
-0.0156944
0.209014
-0.0138984
0.223347
-0.0119684
0.238665
-0.00989964
0.255043
-0.00768055
0.272587
-0.00530661
0.291449
-0.0027446
0.31164
0.333269
-0.0261041
0.0468207
-0.0260034
0.0498977
-0.0257834
0.0531529
-0.0256741
0.0570607
-0.0256654
0.0612187
-0.0257002
0.0657499
-0.0257029
0.0706049
-0.0256455
0.0758406
-0.0255146
0.0814026
-0.0253083
0.087257
-0.0250133
0.0933951
-0.0246172
0.099854
-0.0241319
0.106703
-0.0235791
0.11404
-0.0229451
0.12192
-0.0222125
0.130353
-0.0213694
0.139351
-0.0204106
0.148944
-0.0193409
0.15918
-0.0181651
0.170105
-0.0168866
0.181765
-0.0155036
0.194217
-0.0140123
0.207523
-0.012407
0.221742
-0.0106828
0.236941
-0.00883574
0.253196
-0.00685695
0.270608
-0.00473432
0.289326
-0.00245274
0.309358
0.330817
-0.0223612
0.0470749
-0.022654
0.0501905
-0.0228908
0.0533898
-0.0230254
0.0571953
-0.0230044
0.0611977
-0.0228877
0.0656332
-0.0227257
0.0704429
-0.0225295
0.0756444
-0.0223059
0.0811789
-0.0220349
0.0869861
-0.0217088
0.093069
-0.0213416
0.0994868
-0.0209283
0.10629
-0.020446
0.113558
-0.019886
0.12136
-0.0192438
0.129711
-0.0185134
0.13862
-0.0176935
0.148124
-0.0167815
0.158268
-0.0157762
0.169099
-0.0146789
0.180667
-0.0134895
0.193028
-0.0122034
0.206237
-0.0108146
0.220353
-0.00931845
0.235445
-0.00771181
0.251589
-0.00598804
0.268884
-0.00413313
0.287471
-0.00214334
0.307368
0.328673
-0.0180828
0.0471913
-0.0181446
0.0502523
-0.0181944
0.0534396
-0.0182216
0.0572225
-0.0183187
0.0612948
-0.0184647
0.0657792
-0.0185631
0.0705413
-0.0185884
0.0756697
-0.0185342
0.0811247
-0.0184033
0.0868552
-0.0182091
0.0928748
-0.0179495
0.0992272
-0.0176314
0.105972
-0.0172721
0.113199
-0.0168579
0.120946
-0.0163692
0.129222
-0.0157943
0.138046
-0.0151243
0.147454
-0.0143571
0.157501
-0.0134937
0.168236
-0.0125412
0.179715
-0.0115032
0.19199
-0.0103841
0.205117
-0.00918839
0.219157
-0.00791021
0.234167
-0.00654361
0.250223
-0.00508028
0.267421
-0.00350438
0.285896
-0.00181721
0.305681
0.326856
-0.0136826
0.0474445
-0.0140949
0.0506645
-0.0146305
0.0539752
-0.0151206
0.0577127
-0.0154169
0.061591
-0.0155151
0.0658774
-0.0154912
0.0705174
-0.0153985
0.075577
-0.0152454
0.0809717
-0.0150347
0.0866445
-0.0147747
0.0926148
-0.0144898
0.0989423
-0.0141955
0.105678
-0.0138666
0.11287
-0.0134872
0.120566
-0.0130578
0.128793
-0.0125786
0.137566
-0.0120513
0.146927
-0.0114676
0.156917
-0.0108181
0.167586
-0.0100963
0.178993
-0.00929695
0.19119
-0.00841735
0.204238
-0.00745868
0.218199
-0.00642784
0.233136
-0.00532257
0.249118
-0.0041355
0.266234
-0.00285256
0.284613
-0.0014787
0.304307
0.325377
-0.00926966
0.0477824
-0.00941514
0.05081
-0.00949138
0.0540514
-0.00960956
0.0578309
-0.00983416
0.0618156
-0.010136
0.0661793
-0.0104311
0.0708125
-0.0106619
0.0758078
-0.0108179
0.0811277
-0.0108904
0.0867169
-0.0108808
0.0926052
-0.0108016
0.0988631
-0.0106739
0.10555
-0.0105159
0.112712
-0.0103163
0.120367
-0.0100537
0.12853
-0.00972251
0.137235
-0.00932256
0.146527
-0.00886075
0.156455
-0.00834207
0.167068
-0.00776739
0.178418
-0.00713772
0.190561
-0.00645278
0.203553
-0.00571266
0.217459
-0.00491912
0.232342
-0.00407203
0.24827
-0.00316432
0.265326
-0.00218201
0.28363
-0.00113004
0.303255
0.324247
-0.00443892
0.0481202
-0.00497417
0.0513452
-0.00560737
0.0546846
-0.00620177
0.0584253
-0.00666901
0.0622829
-0.00694691
0.0664572
-0.00706811
0.0709337
-0.00709987
0.0758395
-0.00708675
0.0811146
-0.00705653
0.0866867
-0.00700871
0.0925574
-0.00693757
0.098792
-0.00684594
0.105458
-0.00671985
0.112586
-0.00656119
0.120208
-0.00638129
0.12835
-0.00617907
0.137033
-0.00595712
0.146305
-0.00571156
0.15621
-0.00543377
0.16679
-0.00511421
0.178099
-0.00474582
0.190192
-0.00432638
0.203133
-0.00385789
0.21699
-0.00333938
0.231824
-0.00277499
0.247706
-0.0021631
0.264714
-0.00149397
0.282961
-0.000773442
0.302535
0.323474
4.96294e-05
0.0488427
-0.000353007
0.0517479
-0.000622216
0.0549538
-0.000795779
0.0585989
-0.00107857
0.0625656
-0.00142194
0.0668006
-0.00182192
0.0713337
-0.0021758
0.0761934
-0.00247448
0.0814132
-0.00270903
0.0869213
-0.00288185
0.0927302
-0.00302825
0.0989384
-0.00316635
0.105596
-0.00328447
0.112704
-0.00336082
0.120285
-0.00337611
0.128365
-0.00333059
0.136987
-0.00322793
0.146203
-0.00308235
0.156064
-0.00290965
0.166617
-0.00271745
0.177907
-0.00250761
0.189982
-0.00228009
0.202906
-0.0020341
0.216744
-0.00176372
0.231554
-0.00146978
0.247412
-0.00115064
0.264395
-0.000797049
0.282608
-0.000412317
0.30215
0.323062
0.00537277
0.00461494
0.00378035
0.00305614
0.00253385
0.00216735
0.00192474
0.0017246
0.001536
0.00134129
0.00115034
0.000979345
0.000840637
0.000733112
0.000633586
0.00052524
0.000409481
0.000287093
0.000168764
6.70818e-05
-1.17737e-05
-6.95375e-05
-0.000108891
-0.000132934
-0.000141059
-0.00013508
-0.000119885
-9.06121e-05
-4.70954e-05
)
;

boundaryField
{
    outlet
    {
        type            calculated;
        value           nonuniform 0();
    }
    upperWall
    {
        type            symmetryPlane;
        value           nonuniform 0();
    }
    lowerWall
    {
        type            symmetryPlane;
        value           uniform 0;
    }
    inlet
    {
        type            calculated;
        value           nonuniform 0();
    }
    cylinder
    {
        type            calculated;
        value           uniform 0;
    }
    frontAndBack
    {
        type            empty;
        value           nonuniform 0();
    }
    procBoundary1to0
    {
        type            processor;
        value           nonuniform List<scalar> 
45
(
-0.0163728
-0.0430357
-0.0438263
-0.0431157
-0.0130934
-0.0418796
-0.0421628
-0.0418159
-0.00719613
-0.041225
-0.0373192
-0.0422331
-0.00441321
-0.0397631
-0.0040352
-0.0450053
-0.0489978
-0.0526102
-0.0564702
-0.0606878
-0.0653379
-0.0704348
-0.0759022
-0.0816567
-0.0877065
-0.0941156
-0.100892
-0.108065
-0.115706
-0.123882
-0.13263
-0.14196
-0.151902
-0.162489
-0.173768
-0.185792
-0.198618
-0.212308
-0.226924
-0.242533
-0.259213
-0.277077
-0.296228
-0.316911
-0.338906
)
;
    }
    procBoundary1to2
    {
        type            processor;
        value           nonuniform List<scalar> 
63
(
0.0209564
0.0204469
0.0274443
0.0284844
0.0281206
0.0278233
0.027272
0.0271675
0.0287857
0.0291908
0.0296062
0.0295274
0.0312751
0.0322235
0.0334909
0.0319588
0.00284057
0.0208836
-0.00152173
-0.00614421
-0.0109048
-0.0151235
0.0124444
-0.0216682
0.00921948
-0.0247838
0.00692976
-0.0210172
0.00747454
-0.00983475
0.0126051
0.00557864
0.0519725
0.055017
0.0584955
0.0623829
0.0662076
0.0700618
0.0746524
0.0794865
0.084172
0.0896226
-0.024327
0.096488
0.102378
0.109173
0.116375
0.123867
0.13199
0.140642
0.149882
0.159842
0.170477
0.181877
0.194135
0.207252
0.221261
0.23631
0.252432
0.269694
0.288209
0.308079
0.329377
)
;
    }
    procBoundary1to5
    {
        type            processor;
        value           nonuniform List<scalar> 
20
(
0.0146527
0.0201877
0.0206933
0.00138446
0.00146115
0.00153204
0.00159505
0.00165414
0.00171499
0.00177904
0.00184391
0.00191443
0.00198091
0.00204706
0.00212757
0.00220983
0.00229092
0.00236695
0.00248262
0.00205978
)
;
    }
}


// ************************************************************************* //
