/*--------------------------------*- C++ -*----------------------------------*\
| =========                 |                                                 |
| \\      /  F ield         | OpenFOAM: The Open Source CFD Toolbox           |
|  \\    /   O peration     | Version:                                        |
|   \\  /    A nd           | Website:  www.openfoam.com                      |
|    \\/     M anipulation  |                                                 |
\*---------------------------------------------------------------------------*/
FoamFile
{
    version     2.0;
    format      ascii;
    class       volScalarField;
    location    "129";
    object      p;
}
// * * * * * * * * * * * * * * * * * * * * * * * * * * * * * * * * * * * * * //

dimensions      [0 2 -2 0 0 0 0];


internalField   nonuniform List<scalar> 
1164
(
-0.396576
-0.324217
-0.252112
-0.193132
-0.143638
-0.102201
-0.50981
-0.410879
-0.314092
-0.225351
-0.152794
-0.0977197
-0.0578642
-0.0292155
-0.00762915
0.00574759
-0.599756
-0.479197
-0.364831
-0.267394
-0.189968
-0.126815
-0.0810425
-0.0475341
-0.0223044
-0.00155763
-0.580446
-0.464073
-0.354355
-0.249216
-0.157621
-0.0866374
-0.0728413
-0.0395456
-0.0178406
-0.00348501
-0.458972
-0.379606
-0.303885
-0.234447
-0.170684
-0.115883
-0.0721309
-0.0397856
-0.0240242
-0.0118156
-0.360384
-0.314109
-0.26014
-0.198918
-0.141938
-0.0911092
-0.0507328
-0.022499
-0.00379394
0.000235406
-0.296168
-0.285998
-0.268845
-0.244212
-0.20274
-0.148587
-0.0970916
-0.0527796
-0.0215722
-0.00050571
-0.308165
-0.320834
-0.330689
-0.323403
-0.296494
-0.257903
-0.20708
-0.152973
-0.1017
-0.0554468
-0.372804
-0.413372
-0.446695
-0.460772
-0.456581
-0.419103
-0.361041
-0.288038
-0.212787
-0.14517
-0.423697
-0.498711
-0.56266
-0.612745
-0.639196
-0.630096
-0.590062
-0.504368
-0.415141
-0.316857
-0.402118
-0.461965
-0.516299
-0.569526
-0.604455
-0.624626
-0.614161
-0.550481
-0.495204
-0.392325
-0.364777
-0.406136
-0.438735
-0.464873
-0.480786
-0.491545
-0.483396
-0.454401
-0.421696
-0.359925
-0.295639
-0.313868
-0.327112
-0.334864
-0.33317
-0.329332
-0.317552
-0.301668
-0.287242
-0.259382
-0.249166
-0.249682
-0.247633
-0.244173
-0.236613
-0.226189
-0.213978
-0.198551
-0.186787
-0.174871
-0.25304
-0.243844
-0.233953
-0.223705
-0.212234
-0.199462
-0.186418
-0.173436
-0.161136
-0.140699
-0.230635
-0.204214
-0.179948
-0.159186
-0.141401
-0.126407
-0.113827
-0.103618
-0.10028
-0.0889665
-0.245453
-0.223402
-0.201004
-0.178199
-0.15564
-0.129718
-0.10967
-0.0665283
-0.0530897
-0.0417233
-0.250528
-0.234835
-0.216918
-0.196425
-0.174404
-0.150877
-0.127433
-0.105741
-0.0855935
-0.0712168
-0.235277
-0.225804
-0.21346
-0.198793
-0.181528
-0.164235
-0.145464
-0.12766
-0.109654
-0.0921207
-0.183681
-0.183731
-0.183147
-0.182468
-0.181352
-0.1798
-0.176637
-0.170885
-0.162567
-0.150471
-0.183677
-0.189591
-0.19518
-0.200328
-0.204198
-0.206047
-0.205397
-0.201589
-0.194645
-0.183399
-0.213747
-0.212308
-0.212371
-0.212616
-0.213003
-0.212242
-0.209811
-0.20421
-0.197107
-0.184783
-0.221914
-0.219342
-0.2155
-0.211271
-0.207191
-0.202723
-0.19644
-0.186633
-0.173431
-0.156495
-0.172209
-0.176672
-0.179656
-0.18062
-0.179998
-0.177651
-0.173798
-0.167473
-0.158887
-0.149725
-0.148053
-0.152563
-0.156602
-0.16005
-0.162799
-0.16475
-0.16557
-0.165035
-0.162639
-0.158548
-0.178175
-0.186323
-0.194527
-0.202641
-0.210451
-0.217482
-0.223024
-0.226408
-0.226938
-0.224301
-0.170428
-0.175122
-0.179676
-0.184161
-0.18842
-0.192081
-0.194816
-0.195515
-0.193864
-0.189609
-0.116296
-0.106116
-0.0956348
-0.084947
-0.0744813
-0.0644043
-0.0548974
-0.0455658
-0.0373869
-0.0302997
-0.0499822
-0.0406972
-0.0331627
-0.0275356
-0.0236576
-0.0212337
-0.0197712
-0.018907
-0.0186091
-0.0186722
-0.0194975
-0.0182494
-0.0171385
-0.016181
-0.0153422
-0.0146139
-0.0138803
-0.0130316
-0.0120298
-0.0109341
0.0269355
0.0297923
0.0348054
0.0315613
0.0317621
0.0307382
0.0299549
0.0298491
0.0286447
0.027234
0.0256348
0.0239964
0.022485
0.0211021
0.0199066
0.0189434
0.0181776
0.0175889
0.0171724
0.0168899
0.0167317
0.0166692
0.0166747
0.0167196
0.016792
0.0168762
0.0169249
0.0169729
0.012153
0.0195895
0.0260599
0.0270873
0.0373271
0.0315534
0.0364082
0.0324495
0.0322475
0.0310227
0.0294349
0.0277944
0.0261657
0.024545
0.0231835
0.0219275
0.0208666
0.0199449
0.0191507
0.018522
0.0180458
0.0177011
0.0174714
0.0173207
0.0172459
0.0172115
0.0172039
0.0172238
0.017225
0.0172454
0.00590212
0.00988101
0.0145204
0.0155933
0.0210034
0.0202094
0.0250777
0.0271389
0.0290374
0.0295967
0.0288866
0.0279749
0.0266012
0.0252427
0.0238364
0.0225887
0.0215286
0.020626
0.0198841
0.0192749
0.0187693
0.0183756
0.0180753
0.0178614
0.01773
0.0176378
0.0175802
0.0175565
0.0175273
0.0175281
-0.00423301
-0.00048649
0.00130706
0.00190159
0.00725297
0.0132337
0.0200298
0.023458
0.0259946
0.026586
0.0267873
0.0263201
0.0255554
0.0245867
0.023641
0.0227244
0.0218445
0.0210399
0.0203642
0.0197802
0.0193124
0.0189232
0.018617
0.0183699
0.0181879
0.0180483
0.0179462
0.0178841
0.0178304
0.0178142
0.00318007
0.00523373
0.00501179
0.00584825
0.0146378
0.024507
0.0297672
0.0306743
0.0304721
0.029222
0.0281966
0.0271543
0.0260327
0.0249467
0.0239018
0.0230441
0.0222802
0.0216599
0.0210629
0.0205237
0.0200366
0.0196134
0.0192563
0.0189579
0.0187132
0.0185106
0.0183511
0.0182365
0.0181462
0.018108
0.0200553
0.0285608
0.032402
0.0259206
0.0292096
0.0343962
0.0369963
0.0365299
0.0356576
0.0315915
0.0297358
0.0278125
0.0263825
0.025166
0.0243555
0.0235732
0.0229541
0.0223439
0.0217995
0.0213065
0.0208549
0.0204275
0.0200324
0.0196611
0.0193308
0.0190442
0.0188028
0.0186175
0.0184761
0.0184086
-0.0201066
0.00194469
0.00984557
0.0135717
0.0275116
0.0397226
0.0409313
0.0387824
0.0352365
0.031902
0.02944
0.0276526
0.0259879
0.0248907
0.0241404
0.0236797
0.023356
0.0229713
0.0225421
0.0220785
0.0216003
0.0211457
0.0207085
0.0202902
0.0199079
0.0195545
0.0192469
0.0189991
0.0188105
0.0187157
-0.0840721
-0.0395325
-0.0178147
0.00302627
0.0258691
0.0367014
0.0361047
0.0337552
0.0302613
0.0278844
0.0258439
0.0249002
0.0242603
0.0240202
0.023748
0.023622
0.023431
0.0231956
0.0229357
0.022598
0.0222049
0.0217567
0.0212939
0.0208303
0.0203932
0.0199915
0.0196354
0.0193455
0.0191268
0.0190126
-0.231029
-0.170864
-0.121509
-0.0705631
-0.0320137
-0.0109478
0.000595294
0.00788717
0.0130555
0.016176
0.0184026
0.0198451
0.0209476
0.0216142
0.0223648
0.0230086
0.023313
0.0234198
0.0232789
0.0230272
0.0226518
0.0222438
0.0218021
0.0213244
0.0208611
0.020411
0.020007
0.0196768
0.0194259
0.019293
-0.319722
-0.261883
-0.196031
-0.134461
-0.0862298
-0.0541772
-0.0320454
-0.0180048
-0.00671311
0.00223679
0.0100009
0.0155169
0.0191932
0.0211327
0.0225608
0.0233229
0.0238704
0.0241325
0.0241731
0.0239799
0.0235513
0.0230769
0.0225382
0.0219779
0.0214169
0.0208838
0.0204081
0.0200136
0.0197163
0.0195575
-0.302502
-0.244896
-0.184131
-0.129272
-0.0836104
-0.0519685
-0.0289752
-0.0254175
-0.0123646
-0.0021074
0.00543153
0.0138259
0.0173449
0.0206154
0.0227126
0.024091
0.0247567
0.0250405
0.0250321
0.0248845
0.0243267
0.0238905
0.0233248
0.0226805
0.0220253
0.0213948
0.0208232
0.0203504
0.0199954
0.0198048
-0.22317
-0.188324
-0.153515
-0.117527
-0.0890548
-0.0632667
-0.0418768
-0.0255917
-0.00981341
0.0013147
0.00971253
0.0160359
0.0198102
0.022559
0.0243369
0.0255473
0.0262665
0.0265446
0.0264348
0.0260566
0.0254171
0.0247467
0.0240086
0.0232599
0.0225177
0.0218079
0.0211702
0.0206377
0.0202391
0.0200239
-0.154019
-0.134984
-0.120308
-0.102149
-0.0882287
-0.0652591
-0.0488199
-0.027411
-0.0124518
0.0019008
0.0111871
0.0186167
0.0228168
0.0256725
0.0271392
0.0277172
0.0279208
0.0278001
0.0275077
0.0270009
0.0263359
0.0255458
0.0246933
0.0238131
0.0229528
0.0221556
0.0214427
0.0208557
0.0204212
0.0201848
-0.120917
-0.104122
-0.0881241
-0.0739007
-0.0560808
-0.0355123
-0.0182903
-0.00223693
0.0053268
0.0174589
0.0212906
0.0262693
0.0281235
0.029955
0.0307247
0.0311611
0.0309025
0.0302911
0.0293934
0.0284296
0.0274007
0.0263902
0.0253717
0.0243641
0.0234028
0.0224984
0.0216976
0.0210403
0.0205528
0.020288
-0.0740096
-0.0627449
-0.0542372
-0.0490615
-0.0418783
-0.0323501
-0.0154852
0.0073627
0.027262
0.0409683
0.0445258
0.0437717
0.0412537
0.0385044
0.0368288
0.0352194
0.0340723
0.0328411
0.0316293
0.0303052
0.0289519
0.0275968
0.0262808
0.0250446
0.0238855
0.0228376
0.0219247
0.0211765
0.0206282
0.0203305
-0.0347911
-0.0322026
-0.028812
-0.0277127
-0.0272421
-0.0306292
-0.0212136
0.00292758
0.0375257
0.0473485
0.0526108
0.0528146
0.0496432
0.0462369
0.0427256
0.0395882
0.0369056
0.0347701
0.0328974
0.0312953
0.0297561
0.0282831
0.0268705
0.0254978
0.0242189
0.0230575
0.0220418
0.0212187
0.0206171
0.0202911
-0.0531722
-0.0405996
-0.0304559
-0.0231475
-0.0168917
-0.0098405
0.00113421
0.0203304
0.0413151
0.0519031
0.0540681
0.0544408
0.0521138
0.0494198
0.0462344
0.0431507
0.0401917
0.0375011
0.0350208
0.0328019
0.0307835
0.0289652
0.0272812
0.0257472
0.0243444
0.0230825
0.0220004
0.0211233
0.0204844
0.0201389
-0.0750444
-0.061914
-0.0523957
-0.0448223
-0.0333413
-0.0172969
0.000937403
0.0205232
0.0376067
0.0475431
0.0497802
0.0493327
0.0475606
0.045399
0.043161
0.0411897
0.0391703
0.0372484
0.0353126
0.0333653
0.0314428
0.029523
0.0277084
0.0259992
0.0244291
0.0230458
0.0218583
0.0209056
0.0202169
0.0198447
-0.134265
-0.119053
-0.10677
-0.0927204
-0.0749304
-0.0548509
-0.0322498
-0.00985882
0.0107601
0.0258732
0.034959
0.0387372
0.0416831
0.039749
0.0405981
0.0398582
0.0386838
0.0371881
0.0353553
0.033511
0.0315625
0.0296631
0.0277964
0.026003
0.0243588
0.0228731
0.0215961
0.0205735
0.0198308
0.0194317
-0.172568
-0.16264
-0.14894
-0.131293
-0.109936
-0.0828899
-0.056285
-0.0280964
-0.00332954
0.0154653
0.0303799
0.0362195
0.0414323
0.0416961
0.0422907
0.0412684
0.0401862
0.0384003
0.036393
0.0341824
0.0319527
0.0297603
0.0276605
0.0257346
0.0239666
0.0224035
0.0210781
0.0200171
0.0192525
0.0188425
-0.168863
-0.15036
-0.12957
-0.107002
-0.0843912
-0.0606335
-0.0377334
-0.0176664
0.000924117
0.0159549
0.0246277
0.0356097
0.0372625
0.0407118
0.0404872
0.0403595
0.0392267
0.0377077
0.035841
0.0337887
0.0315886
0.0293534
0.0272128
0.0251739
0.0233217
0.0217006
0.0203197
0.0192282
0.0184444
0.0180251
-0.139859
-0.122016
-0.101026
-0.0778226
-0.054193
-0.0303113
-0.00622247
0.0132733
0.0292198
0.0443918
0.0504846
0.0553125
0.0541028
0.0527927
0.0491353
0.0459033
0.0426645
0.0395927
0.0368259
0.0340465
0.0313761
0.0289038
0.026543
0.024385
0.0224663
0.0207747
0.0193581
0.0182405
0.0174401
0.0170135
-0.138594
-0.124734
-0.108908
-0.090506
-0.0687325
-0.0446264
-0.0187725
0.00645792
0.0252415
0.0403217
0.0500354
0.0494959
0.0570167
0.0524736
0.0492771
0.0462784
0.0430575
0.0398193
0.0366471
0.0334634
0.0305768
0.0278321
0.025326
0.0231196
0.0211456
0.0194566
0.0180539
0.0169508
0.0161692
0.0157527
-0.154143
-0.147246
-0.136857
-0.122515
-0.103417
-0.0793322
-0.0514296
-0.021994
0.00566135
0.0178765
0.0385181
0.0424172
0.0472649
0.0459715
0.0446613
0.0431491
0.0402593
0.0376124
0.0343965
0.0314586
0.0285803
0.025854
0.0234503
0.0212557
0.0193432
0.0177227
0.0163726
0.0153258
0.0145837
0.0141899
-0.216691
-0.205038
-0.190324
-0.164283
-0.135954
-0.101633
-0.0622193
-0.0242709
0.0087328
0.0323024
0.0470445
0.050565
0.0509312
0.0479794
0.0456993
0.0427162
0.0395546
0.0359829
0.0325488
0.0293419
0.0262364
0.0235447
0.0211192
0.0189818
0.017174
0.0156305
0.0143721
0.0133993
0.0127124
0.0123497
-0.184264
-0.178961
-0.169793
-0.152382
-0.126673
-0.0943118
-0.0561488
-0.0160659
0.0200731
0.0454935
0.0574779
0.0552568
0.0515451
0.046025
0.0409273
0.0364359
0.032967
0.0297764
0.0271903
0.0245056
0.0220561
0.0197962
0.0177036
0.0159087
0.0143414
0.0130165
0.0119367
0.0110959
0.0105062
0.0101939
-0.0236204
-0.016957
-0.00986273
-0.00341896
0.000916462
0.00386157
0.00706811
0.011971
0.0183056
0.0244052
0.0236709
0.0278319
0.0307414
0.0323008
0.0302463
0.0302936
0.0270709
0.024678
0.0218741
0.0193814
0.0172333
0.0152706
0.013613
0.0121736
0.0109301
0.00990001
0.00905018
0.00839578
0.00793539
0.00769232
-0.0192215
-0.0192122
-0.0180536
-0.0156415
-0.011734
-0.00608985
0.00102826
0.00920994
0.0188375
0.0289926
0.0322605
0.0360529
0.0368045
0.0308312
0.0300909
0.0269752
0.0236598
0.020553
0.0173185
0.0146475
0.0123872
0.0105956
0.00918744
0.0080337
0.00711383
0.00637027
0.00577657
0.00533148
0.0050205
0.00485917
-0.00979825
-0.00849279
-0.00696315
-0.00514103
-0.00294907
-0.000387879
0.00245911
0.00532372
0.00735634
0.0103699
0.0111351
0.012883
0.0144448
0.0118028
0.0115012
0.0102718
0.00910836
0.00797259
0.00680808
0.00577913
0.0048239
0.00405193
0.00342155
0.00292599
0.00254607
0.00224726
0.00201834
0.00185054
0.00173462
0.00167589
)
;

boundaryField
{
    outlet
    {
        type            fixedValue;
        value           uniform 0;
    }
    upperWall
    {
        type            symmetryPlane;
    }
    lowerWall
    {
        type            symmetryPlane;
    }
    inlet
    {
        type            zeroGradient;
    }
    cylinder
    {
        type            zeroGradient;
    }
    frontAndBack
    {
        type            empty;
    }
    procBoundary3to2
    {
        type            processor;
        value           nonuniform List<scalar> 
43
(
-0.334638
-0.294379
-0.250484
-0.207537
-0.16642
-0.133212
-0.0689485
-0.0689485
-0.0481069
-0.0384576
-0.028827
0.0137609
0.0108504
0.0190641
0.0232324
0.0290291
0.0286889
0.0313061
0.0294742
0.0294595
0.0279349
0.0262218
0.0243884
0.0226209
0.0210218
0.0196997
0.0185691
0.0176703
0.0169632
0.0164537
0.0161279
0.015954
0.0159134
0.0159628
0.0160835
0.0162235
0.0163824
0.0165398
0.0166386
0.0167157
0.0137609
0.021906
0.021906
)
;
    }
    procBoundary3to7
    {
        type            processor;
        value           nonuniform List<scalar> 
30
(
-0.460658
-0.602255
-0.712867
-0.689586
-0.535621
-0.401804
-0.301592
-0.287886
-0.327172
-0.347457
-0.342788
-0.315548
-0.271326
-0.247073
-0.261918
-0.257529
-0.267694
-0.264123
-0.242739
-0.183249
-0.177764
-0.214579
-0.222997
-0.16635
-0.143225
-0.170019
-0.165769
-0.126586
-0.0607768
-0.0208246
)
;
    }
}


// ************************************************************************* //
