/*--------------------------------*- C++ -*----------------------------------*\
| =========                 |                                                 |
| \\      /  F ield         | OpenFOAM: The Open Source CFD Toolbox           |
|  \\    /   O peration     | Version:                                        |
|   \\  /    A nd           | Website:  www.openfoam.com                      |
|    \\/     M anipulation  |                                                 |
\*---------------------------------------------------------------------------*/
FoamFile
{
    version     2.0;
    format      ascii;
    class       surfaceScalarField;
    location    "72.1";
    object      phi;
}
// * * * * * * * * * * * * * * * * * * * * * * * * * * * * * * * * * * * * * //

dimensions      [0 3 -1 0 0 0 0];
oriented        oriented;


internalField   nonuniform List<scalar> 
2257
(
0.0296284
0.0234893
0.0251064
0.0218418
0.0191114
0.0220735
0.0125137
0.0230611
0.00635767
0.0244662
0.0249433
0.0614704
0.0287488
0.0545834
0.0287288
0.0463071
0.0303499
0.0371012
0.032267
0.0276789
0.0338884
0.0183498
0.0342724
0.0107417
0.0338348
0.00543869
0.0319928
0.00302937
0.0301099
0.0287232
0.082155
0.0337837
0.0751942
0.0356895
0.0667603
0.0387838
0.0573001
0.0417272
0.0469156
0.0442729
0.0354189
0.0457691
0.0244313
0.0448224
0.0138057
0.0426184
0.00563348
0.038282
0.0322812
0.00207556
0.0913885
0.0353079
0.0886424
0.0384357
0.0845533
0.0428729
0.0781689
0.0481116
0.0695962
0.0528456
0.0593139
0.0560514
0.0468132
0.0573232
0.0335608
0.0558708
0.0193364
0.0525065
0.0446837
0.00693381
0.100653
0.0331331
0.101819
0.03727
0.101013
0.0436789
0.0986602
0.0504645
0.0938048
0.057701
0.0867524
0.0631037
0.0766518
0.0674239
0.0654149
0.0671076
0.05088
0.0670414
0.0601596
0.0354041
0.104237
0.0284046
0.107422
0.0340841
0.109127
0.0419742
0.109678
0.0499139
0.107358
0.0600206
0.103874
0.0665881
0.0977227
0.0735749
0.0899325
0.0748978
0.0804756
0.0764983
0.0721157
0.0685196
0.0793913
0.0253466
0.0819469
0.0315286
0.0846524
0.0392687
0.0872017
0.0473646
0.0894515
0.0577709
0.09096
0.0650795
0.0902482
0.0742867
0.0887258
0.0764202
0.085416
0.0798081
0.0785212
0.0790104
0.022446
0.0269672
0.02241
0.0315646
0.0241189
0.0375598
0.0275603
0.0439232
0.0337801
0.0515511
0.0404471
0.0584125
0.0474986
0.0672353
0.0539268
0.069992
0.0577094
0.0760256
0.0761456
0.060085
-0.0410247
0.0313579
-0.0433036
0.0338435
-0.0432821
0.0375382
-0.0413379
0.041979
-0.0365776
0.0467908
-0.0296187
0.0514536
-0.0191911
0.0568077
-0.00882226
0.0596231
0.00346391
0.0637394
0.0650923
0.0145172
-0.0784255
0.0341265
-0.0801288
0.0355468
-0.0799195
0.037329
-0.0786452
0.0407048
-0.0756419
0.0437875
-0.0713233
0.047135
-0.0646302
0.0501146
-0.0567916
0.0517844
-0.0463334
0.0532812
0.0538721
-0.0351131
-0.101962
0.0323383
-0.0996608
0.0332461
-0.0957622
0.0334304
-0.090656
0.0355986
-0.0845352
0.0376666
-0.0780172
0.040617
-0.0713839
0.0434813
-0.0653416
0.0457421
-0.0595126
0.0474522
0.0478067
-0.0534473
-0.105057
0.029491
-0.101831
0.0300205
-0.0981901
0.0297894
-0.0932234
0.0306319
-0.0870779
0.0315211
-0.0794521
0.0329912
-0.0710888
0.035118
-0.0622343
0.0368875
-0.0539826
0.0392006
0.0407924
-0.0469683
-0.0956179
0.0279717
-0.0941267
0.0285293
-0.0925607
0.0282233
-0.0901176
0.0281888
-0.0868041
0.0282076
-0.0818054
0.0279925
-0.07574
0.0290527
-0.0682236
0.0293711
-0.0593706
0.0303476
0.0313663
-0.0499445
-0.0467842
0.031
-0.049792
0.0315372
-0.0524273
0.0308586
-0.0551352
0.0308967
-0.0578091
0.0308814
-0.0600879
0.0302713
-0.0621388
0.0311036
-0.0634303
0.0306626
-0.0636767
0.030594
0.0298902
-0.0622006
0.0110944
0.0348391
0.00789288
0.0347387
0.00477724
0.0339742
0.00125548
0.0344185
-0.00255409
0.034691
-0.0077251
0.0354423
-0.0134573
0.0368358
-0.0200896
0.037295
-0.0281827
0.0386871
0.0384646
-0.0367572
0.0726766
0.036123
0.071845
0.0355702
0.0701203
0.0356989
0.0685858
0.035953
0.0664859
0.0367909
0.0637413
0.038187
0.0604168
0.0401603
0.0555042
0.0422076
0.0494203
0.0447709
0.0463902
0.0414948
0.114809
0.0341472
0.116575
0.0338039
0.117326
0.0349479
0.117691
0.0355883
0.117091
0.0373908
0.116629
0.0386482
0.115952
0.040838
0.115227
0.0429324
0.114412
0.0455861
0.0484791
0.112323
0.117861
0.0342325
0.117175
0.0344903
0.116312
0.0358109
0.115013
0.036887
0.113961
0.0384427
0.113309
0.0393005
0.113333
0.0408138
0.114158
0.0421082
0.115812
0.0439317
0.0463711
0.11792
0.0744496
0.0378034
0.0705088
0.038431
0.0667615
0.0395582
0.0628608
0.0407876
0.0595024
0.0418011
0.0559558
0.0428471
0.0527945
0.0439751
0.0492942
0.0456084
0.0460831
0.0471428
0.0492129
0.0432413
-0.00633237
0.0393301
-0.00770995
0.0398086
-0.00845373
0.040302
-0.00888151
0.0412154
-0.00864395
0.0415636
-0.00822549
0.0424286
-0.00709894
0.0428485
-0.00596348
0.044473
-0.00442711
0.0456065
0.0475785
-0.0027928
-0.114361
0.0404963
-0.114864
0.0403113
-0.11411
0.0395487
-0.112382
0.0394874
-0.109772
0.0389531
-0.106311
0.0389681
-0.102049
0.0385862
-0.0970242
0.0394481
-0.0913139
0.0398961
0.0411609
-0.0848963
-0.146062
0.0374825
-0.142387
0.0366359
-0.138455
0.0356174
-0.134505
0.0355373
-0.131293
0.0357407
-0.128783
0.0364582
-0.127271
0.0370746
-0.126096
0.0382727
-0.125271
0.039071
0.0398734
-0.123983
-0.111666
0.0368096
-0.110118
0.0350873
-0.108353
0.0338531
-0.106315
0.0334992
-0.104553
0.0339786
-0.103214
0.0351187
-0.102258
0.0361195
-0.100928
0.0369427
-0.0991044
0.037247
0.0374232
-0.0966542
0.00264066
0.0366389
0.00200544
0.0357225
0.00030885
0.0355497
-0.00211503
0.0359231
-0.00477367
0.0366372
-0.00717013
0.0375151
-0.00962246
0.0385718
-0.0120555
0.0393757
-0.014681
0.0398724
0.039889
-0.0171468
0.127452
0.0384922
0.125085
0.0380895
0.122618
0.0380162
0.120666
0.0378749
0.119351
0.0379521
0.118958
0.0379083
0.119417
0.0381128
0.120553
0.0382403
0.12201
0.0384152
0.0382927
0.123606
0.118529
0.0424362
0.114753
0.0418661
0.111282
0.0414873
0.107787
0.0413696
0.104074
0.0416649
0.100019
0.0419635
0.0958169
0.0423148
0.0917315
0.0423256
0.0881264
0.0420203
0.0413012
0.0851179
0.114
0.0361299
0.119159
0.0367068
0.122862
0.0377847
0.124754
0.0394771
0.124945
0.0414748
0.123384
0.0435239
0.120258
0.0454409
0.115526
0.0470574
0.109295
0.0482516
0.0488875
0.101709
-0.00291588
0.0328021
2.69982e-05
0.0337639
0.00273732
0.0350743
0.00546746
0.0367469
0.00843399
0.0385082
0.0114969
0.040461
0.0145138
0.042424
0.0171435
0.0444277
0.0190963
0.0462989
0.0480001
0.0199837
-0.155033
0.0378913
-0.1592
0.0379315
-0.16219
0.0380637
-0.163835
0.0383926
-0.16415
0.0388227
-0.163185
0.0394966
-0.161144
0.0403824
-0.158304
0.0415876
-0.154982
0.0429771
0.0445319
-0.151514
-0.0659759
-0.0682681
-0.0702928
-0.0719661
-0.0732714
-0.07412
-0.074471
-0.0742549
-0.0735086
-0.0723178
0.0139735
0.0408548
0.0138645
0.0503211
0.0106557
0.0583669
0.00663949
0.0635795
0.00348046
0.0685805
0.0012379
0.0737585
-6.95074e-05
0.0795462
-0.000343674
0.0855455
0.000159428
0.0922366
0.00115907
0.0993677
0.00189584
0.107316
0.00228027
0.115658
0.00235184
0.124369
0.00217271
0.133504
0.00185151
0.143111
0.00147052
0.153259
0.00115398
0.163986
0.000929544
0.17539
0.000762351
0.187564
0.000635809
0.20055
0.00054076
0.214406
0.00046998
0.229199
0.000408997
0.245007
0.000349058
0.261902
0.000279816
0.27997
0.000198961
0.299295
0.00010501
0.319981
0.342136
0.000658381
0.0311393
0.000329292
0.0336789
0.00254405
0.03864
0.00524306
0.0476221
0.00644494
0.057165
0.00596023
0.0640642
0.00482232
0.0697184
0.00338554
0.0751953
0.0023665
0.0805652
0.000983122
0.0869288
-0.000273588
0.0934933
-0.00149552
0.10059
-0.00205803
0.107879
-0.00212704
0.115727
-0.00194083
0.124183
-0.00154688
0.13311
-0.00109259
0.142657
-0.000670744
0.152837
-0.000341205
0.163657
-0.000113125
0.175162
7.02682e-05
0.18738
0.000209168
0.200411
0.00030247
0.214313
0.000344254
0.229157
0.000345803
0.245006
0.000316182
0.261932
0.000262236
0.280024
0.000189809
0.299368
0.000101037
0.32007
0.342237
-0.000713392
0.0387865
-0.00753846
0.040504
-0.0113797
0.0424812
-0.010681
0.0469234
-0.00705271
0.0535367
-0.00415481
0.0611663
-0.0020115
0.0675751
-0.000340056
0.0735238
0.000873061
0.0793521
0.00209804
0.0857039
0.00296928
0.092622
0.00327597
0.100283
0.0028784
0.108276
0.00214221
0.116463
0.00153465
0.12479
0.00101363
0.133631
0.000641913
0.143028
0.000472492
0.153007
0.000425538
0.163704
0.000454832
0.175133
0.000463478
0.187372
0.000456463
0.200418
0.000440235
0.214329
0.000423553
0.229174
0.000398449
0.245031
0.000356692
0.261974
0.00029492
0.280086
0.000212736
0.29945
0.000113118
0.32017
0.34235
0.0277277
0.0464629
0.0189224
0.0493093
0.010879
0.0505247
0.00677237
0.05103
0.00496519
0.0553439
0.0039354
0.0621961
0.00335432
0.0681562
0.00295796
0.0739202
0.00159982
0.0807103
0.000325057
0.0869786
-0.000618261
0.0935654
-0.000560249
0.100225
0.00012189
0.107594
0.000958265
0.115626
0.00145793
0.124291
0.00169012
0.133398
0.00167699
0.143042
0.00140054
0.153283
0.00108754
0.164017
0.000815585
0.175405
0.000668395
0.187519
0.000589058
0.200498
0.00054018
0.214378
0.000487611
0.229226
0.000430583
0.245088
0.000365651
0.262038
0.000291891
0.28016
0.000207013
0.299535
0.000109543
0.320267
0.342459
0.0612938
0.0536886
0.0527697
0.0578334
0.0433646
0.0599298
0.0337224
0.0606721
0.0242435
0.0648229
0.0175862
0.0688534
0.0138224
0.0719199
0.0117109
0.0760317
0.0103855
0.0820356
0.00877466
0.0885895
0.00678793
0.0955521
0.00416964
0.102843
0.00155978
0.110204
-0.000495942
0.117682
-0.00173386
0.125529
-0.00226672
0.133931
-0.00219996
0.142975
-0.00162966
0.152713
-0.000979538
0.163366
-0.000414907
0.17484
-5.34429e-05
0.187157
0.000172539
0.200272
0.000304686
0.214246
0.000380163
0.229151
0.000406381
0.245062
0.000386266
0.262059
0.000327944
0.280218
0.000239271
0.299623
0.00012745
0.320379
0.342587
0.0712962
0.0614029
0.0622522
0.0668774
0.0516422
0.0705397
0.0393735
0.0729408
0.0281657
0.0760306
0.0207775
0.0762417
0.015512
0.0771854
0.0106106
0.080933
0.00747369
0.0851725
0.00545653
0.0906067
0.00488446
0.0961241
0.00535479
0.102373
0.00615525
0.109404
0.00666153
0.117176
0.00670227
0.125488
0.00625302
0.134381
0.00532669
0.143901
0.00403927
0.154
0.00288043
0.164525
0.00200266
0.175718
0.00144895
0.187711
0.00109767
0.200623
0.000861707
0.214482
0.000689661
0.229323
0.000556242
0.245195
0.000447057
0.262168
0.000346042
0.280319
0.000241699
0.299728
0.000126504
0.320494
0.342713
0.0531821
0.0683058
0.045108
0.0749515
0.0362137
0.079434
0.0273565
0.081798
0.0215667
0.0818204
0.0179288
0.0798796
0.0149771
0.0801371
0.0118351
0.084075
0.00791537
0.0890922
0.00407701
0.094445
0.000600642
0.0996005
-0.00233749
0.105311
-0.00431485
0.111381
-0.00543114
0.118292
-0.00590308
0.12596
-0.00566518
0.134143
-0.00474007
0.142976
-0.00333535
0.152596
-0.0020109
0.163201
-0.00101727
0.174724
-0.000368247
0.187062
4.00856e-05
0.200215
0.000299158
0.214223
0.00044434
0.229178
0.000499567
0.24514
0.000479583
0.262188
0.000406134
0.280392
0.00029417
0.29984
0.000155875
0.320633
0.342869
0.0130077
0.0698153
0.0127419
0.0752173
0.0127693
0.0794067
0.0126749
0.0818924
0.0134789
0.0810164
0.0122223
0.0811362
0.0109671
0.0813923
0.0104728
0.0845694
0.010473
0.089092
0.0112222
0.0936959
0.011474
0.0993488
0.0113564
0.105429
0.0106346
0.112103
0.00967129
0.119256
0.00879479
0.126836
0.00772176
0.135216
0.00630237
0.144395
0.004754
0.154144
0.00340341
0.164551
0.00246018
0.175668
0.00182652
0.187696
0.00139971
0.200641
0.00108312
0.21454
0.000851965
0.229409
0.000679062
0.245313
0.000543188
0.262324
0.000421757
0.280514
0.000294286
0.299967
0.00015437
0.320773
0.343024
-0.0296189
0.064321
-0.0218795
0.0674779
-0.0145574
0.0720846
-0.00699639
0.0743313
-0.00207458
0.0760946
-0.000602201
0.0796638
-0.00278622
0.0835763
-0.00551138
0.0872946
-0.00809197
0.0916726
-0.00957309
0.095177
-0.0101544
0.09993
-0.00929043
0.104565
-0.00782135
0.110634
-0.00635871
0.117793
-0.00523445
0.125712
-0.00416778
0.134149
-0.00293445
0.143162
-0.00179307
0.153003
-0.000832184
0.163591
-0.000232713
0.175068
0.000174177
0.187289
0.000444949
0.200371
0.000631757
0.214353
0.00072248
0.229318
0.000723707
0.245312
0.000653663
0.262394
0.000532277
0.280635
0.000376819
0.300123
0.00019771
0.320952
0.343221
-0.0468356
0.0577094
-0.0397019
0.0603442
-0.033785
0.0661677
-0.0257944
0.0663408
-0.0200869
0.0703871
-0.0130741
0.072651
-0.00691431
0.0774165
-0.000364421
0.0807447
0.00327804
0.0880301
0.00464357
0.0938115
0.00516861
0.099405
0.00428454
0.105449
0.00301734
0.111901
0.00215011
0.11866
0.00162039
0.126242
0.00125481
0.134515
0.000982229
0.143435
0.000983816
0.153001
0.00102312
0.163551
0.00115262
0.174939
0.00118084
0.187261
0.00112196
0.200429
0.000994231
0.21448
0.000861879
0.229451
0.00074159
0.245432
0.000627463
0.262508
0.000502883
0.28076
0.000357862
0.300268
0.000189004
0.321121
0.34341
-0.0400907
0.0508318
-0.0344629
0.0547163
-0.0303998
0.0621046
-0.0260623
0.0620032
-0.0245835
0.0689083
-0.0222666
0.0703341
-0.0216456
0.0767955
-0.019239
0.0783381
-0.0142199
0.083011
-0.00878133
0.0883729
-0.00428494
0.0949086
-0.000493658
0.101657
0.00218846
0.109219
0.00357761
0.117271
0.0044646
0.125355
0.00497965
0.134
0.00483773
0.143577
0.00403734
0.153801
0.00317217
0.164416
0.0023801
0.175731
0.00187888
0.187762
0.00158358
0.200725
0.00141309
0.214651
0.00126733
0.229596
0.00110286
0.245596
0.000915814
0.262695
0.000710162
0.280965
0.000489887
0.300488
0.000253712
0.321357
0.343664
-0.0402628
0.0411502
-0.0315464
0.0459999
-0.0224745
0.0530327
-0.0154838
0.0550125
-0.00943529
0.0628598
-0.00444238
0.0653412
-0.0055804
0.0779335
-0.00892129
0.0816789
-0.0128627
0.0869524
-0.0156419
0.0911521
-0.0163572
0.0956239
-0.0156638
0.100964
-0.0140461
0.107601
-0.0119031
0.115128
-0.0102346
0.123686
-0.00886286
0.132628
-0.00700147
0.141715
-0.00471501
0.151515
-0.00264484
0.162346
-0.00105156
0.174137
-6.50056e-05
0.186775
0.00046433
0.200195
0.000701219
0.214414
0.00078284
0.229515
0.000784081
0.245595
0.000721554
0.262757
0.000604347
0.281083
0.000438182
0.300654
0.000233535
0.321561
0.343898
-0.0574976
0.0364472
-0.052469
0.0409713
-0.0461675
0.0467312
-0.0423903
0.0512353
-0.0362562
0.0567257
-0.0295932
0.0586782
-0.0188917
0.067232
-0.00656059
0.0693479
0.00243521
0.0779566
0.00814714
0.0854402
0.0116896
0.0920815
0.0126938
0.0999598
0.0126412
0.107654
0.0123147
0.115455
0.0124376
0.123563
0.0123822
0.132683
0.0110515
0.143046
0.00889374
0.153673
0.00668365
0.164556
0.00491134
0.17591
0.0036677
0.188019
0.00285303
0.20101
0.00229298
0.214974
0.00187263
0.229935
0.00151545
0.245952
0.00120006
0.263073
0.000905329
0.281377
0.00061556
0.300944
0.000317216
0.32186
0.344215
-0.0387933
0.0384833
-0.0409556
0.0431336
-0.0434256
0.0492012
-0.0474578
0.0552675
-0.051608
0.060876
-0.0577825
0.0648526
-0.0567981
0.0662475
-0.050881
0.0634308
-0.0385277
0.0656033
-0.0263427
0.0732551
-0.0178938
0.0836326
-0.0115894
0.0936555
-0.00754991
0.103614
-0.00613951
0.114044
-0.00610492
0.123529
-0.00622698
0.132805
-0.00531256
0.142132
-0.0037905
0.152151
-0.00217967
0.162946
-0.000950351
0.17468
-9.22321e-05
0.187161
0.000426312
0.200492
0.000735341
0.214665
0.000888152
0.229782
0.000931646
0.245909
0.000876625
0.263128
0.000738374
0.281516
0.000536217
0.301146
0.000285765
0.32211
0.3445
0.0407092
0.0392689
0.0395821
0.0442606
0.038518
0.0502653
0.0377997
0.0559858
0.0363268
0.0623489
0.0337082
0.0674712
0.0298148
0.070141
0.0236754
0.0695703
0.0173693
0.0719094
0.0110708
0.0795536
0.00602472
0.0886787
0.003402
0.0962782
0.00283875
0.104178
0.00474559
0.112137
0.00666769
0.121607
0.00746426
0.132009
0.00704404
0.142552
0.00622008
0.152975
0.00527965
0.163886
0.00448538
0.175475
0.00377299
0.187873
0.0031793
0.201085
0.0026583
0.215186
0.00220117
0.230239
0.00179502
0.246315
0.00142808
0.263495
0.00108452
0.281859
0.00074085
0.30149
0.000382494
0.322469
0.344883
0.113782
0.0378093
0.114881
0.0431624
0.115772
0.0493737
0.116186
0.0555719
0.116329
0.0622061
0.114998
0.0688025
0.108061
0.0770775
0.0934316
0.0841997
0.0724284
0.0929126
0.0531531
0.0988289
0.0392518
0.10258
0.028868
0.106662
0.0203928
0.112653
0.0131104
0.11942
0.00843472
0.126282
0.00631859
0.134125
0.0051025
0.143768
0.00398195
0.154095
0.00299219
0.164876
0.00225296
0.176214
0.00183032
0.188296
0.00161637
0.201299
0.0015101
0.215292
0.00143881
0.230311
0.00133893
0.246415
0.00118288
0.263651
0.00096229
0.28208
0.000685114
0.301767
0.000361029
0.322793
0.345244
0.115819
0.0399104
0.112966
0.0460154
0.109062
0.053278
0.103704
0.06093
0.0972269
0.0686828
0.0885302
0.0774992
0.0791976
0.0864101
0.0671036
0.0962937
0.0556254
0.104391
0.0454824
0.108972
0.0372904
0.110772
0.0300231
0.113929
0.0242399
0.118436
0.0183267
0.125333
0.0123459
0.132263
0.00675823
0.139712
0.00358271
0.146943
0.0024097
0.155268
0.00232945
0.164956
0.00252514
0.176018
0.00265329
0.188168
0.0026282
0.201324
0.00248206
0.215438
0.00223463
0.230558
0.001935
0.246714
0.00160604
0.26398
0.00125286
0.282433
0.000869749
0.30215
0.000451554
0.323211
0.345696
0.034423
0.0487287
0.0252892
0.0551491
0.0162769
0.0622903
0.00757122
0.0696357
-0.00105784
0.0773119
-0.00872355
0.085165
-0.0149536
0.0926402
-0.0184709
0.099811
-0.0170341
0.102954
-0.0160257
0.107963
-0.0146289
0.109375
-0.0138327
0.113133
-0.0124481
0.117051
-0.00837085
0.121256
-0.00323994
0.127132
0.00148363
0.134989
0.00381292
0.144614
0.00432985
0.154751
0.00408409
0.165202
0.00362542
0.176477
0.00317826
0.188615
0.00278794
0.201715
0.0024618
0.215765
0.00218924
0.230831
0.0019274
0.246976
0.00163365
0.264273
0.00129481
0.282772
0.000907277
0.302538
0.000473682
0.323644
0.346169
-0.00492624
0.0508622
-0.00684845
0.0570713
-0.00821882
0.0636606
-0.00878192
0.0701989
-0.00811022
0.0766402
-0.00605285
0.0831076
-0.00353681
0.0901241
0.000959765
0.0953144
0.00506535
0.0988485
0.00885675
0.104172
0.0116488
0.106583
0.0142294
0.110552
0.0135148
0.117766
0.0106405
0.12413
0.00681724
0.130955
0.00439002
0.137416
0.00339822
0.145606
0.00319477
0.154955
0.00288673
0.16551
0.00271257
0.176651
0.0026326
0.188695
0.00262954
0.201718
0.00256686
0.215827
0.00241241
0.230985
0.00216152
0.247227
0.00184405
0.264591
0.00146623
0.28315
0.00103052
0.302973
0.000538944
0.324136
0.346708
-0.0812432
0.0472092
-0.0762699
0.052098
-0.0701683
0.057559
-0.063313
0.0633435
-0.0557411
0.0690683
-0.047647
0.0750134
-0.037835
0.0803122
-0.026857
0.0843364
-0.0196759
0.0916674
-0.012338
0.0968341
-0.0100145
0.10426
-0.00589055
0.106429
-0.00222434
0.1141
0.000727868
0.121178
0.00227919
0.129404
0.00177898
0.137916
0.00141649
0.145968
0.00159994
0.154771
0.00253212
0.164578
0.00324339
0.17594
0.00357965
0.188358
0.00355443
0.201743
0.00336801
0.216014
0.0030863
0.231267
0.00273389
0.24758
0.00230667
0.265018
0.00181099
0.283645
0.00125798
0.303526
0.000653253
0.324741
0.347361
-0.121838
0.0450635
-0.118927
0.0491873
-0.115181
0.0538131
-0.110296
0.0584589
-0.105138
0.0639103
-0.0990754
0.0689507
-0.0935191
0.074756
-0.0879129
0.0787302
-0.0824932
0.0862478
-0.074792
0.0891328
-0.0674711
0.0969388
-0.0601604
0.0991178
-0.0513864
0.105326
-0.0410239
0.110815
-0.0284363
0.116816
-0.015976
0.125456
-0.00701816
0.13701
-0.00197242
0.149726
0.000471004
0.162134
0.00172737
0.174683
0.00245089
0.187635
0.00281214
0.201382
0.00289037
0.215935
0.00276417
0.231393
0.00252211
0.247822
0.0021868
0.265353
0.00176769
0.284064
0.00125714
0.304037
0.000663782
0.325334
0.348025
-0.0904374
0.0388467
-0.0835926
0.0423425
-0.0765911
0.0468116
-0.0689855
0.0508533
-0.0610102
0.055935
-0.0521778
0.0601183
-0.0441002
0.0666783
-0.0360497
0.0706797
-0.0261789
0.076377
-0.0140443
0.0769982
0.00233221
0.0805623
0.0167977
0.0846524
0.0260658
0.0960577
0.0273045
0.109577
0.0228955
0.121225
0.0174962
0.130855
0.0134855
0.141021
0.011418
0.151793
0.00969487
0.163857
0.00825456
0.176124
0.00697842
0.188911
0.00606665
0.202293
0.00535078
0.216651
0.00471579
0.232028
0.00403455
0.248503
0.0033085
0.26608
0.00253733
0.284836
0.00173298
0.304841
0.00089172
0.326175
0.348917
-0.0147969
0.0364967
-0.0120635
0.0396092
-0.00897151
0.0437196
-0.00612056
0.0480023
-0.00297511
0.0527895
0.000735295
0.0564079
0.00556713
0.0618465
0.0103213
0.0659255
0.0156092
0.0710891
0.0191813
0.0734261
0.0220964
0.0776471
0.0225591
0.0841898
0.022185
0.0964318
0.0215858
0.110176
0.0185487
0.124262
0.0135867
0.135817
0.00882135
0.145787
0.00524179
0.155373
0.00393802
0.165161
0.00362252
0.176439
0.00371473
0.188819
0.00366988
0.202338
0.00354511
0.216776
0.00335188
0.232221
0.00310524
0.24875
0.00275112
0.266434
0.002253
0.285334
0.00161501
0.305479
0.000854055
0.326936
0.349771
0.126892
0.0332108
0.1303
0.0362014
0.134032
0.0399872
0.137143
0.0448918
0.139465
0.0504675
0.139687
0.056186
0.137623
0.0639101
0.131395
0.0721536
0.121296
0.0811882
0.106013
0.0887094
0.0859699
0.09769
0.0627283
0.107431
0.0435839
0.115576
0.0298983
0.123861
0.0234215
0.130739
0.0206543
0.138585
0.019173
0.147268
0.0172497
0.157296
0.0148203
0.16759
0.0125239
0.178736
0.0106624
0.19068
0.00917811
0.203823
0.00789461
0.21806
0.00668579
0.23343
0.00552694
0.249908
0.00440292
0.267558
0.00332659
0.28641
0.00225647
0.306549
0.0011572
0.328036
0.350928
0.0824661
0.0358626
0.0804643
0.0382032
0.0791457
0.0413058
0.0784687
0.0455688
0.077784
0.0511521
0.0745821
0.059388
0.0679274
0.0705648
0.0578864
0.0821946
0.0466779
0.0923967
0.0338941
0.101493
0.0224793
0.109105
0.0134098
0.116501
0.00675041
0.122236
0.00163159
0.12898
-0.00239939
0.13477
-0.00411045
0.140296
-0.00372602
0.146883
-0.00152006
0.15509
0.000613141
0.165457
0.00228857
0.17706
0.00328547
0.189683
0.00396688
0.203141
0.0043505
0.217676
0.00447419
0.233306
0.00428717
0.250095
0.00381467
0.26803
0.00309112
0.287134
0.00218237
0.307458
0.00114192
0.329076
0.35207
0.0928505
0.0447208
0.0828239
0.0482298
0.0722221
0.0519075
0.0618141
0.0559769
0.0520226
0.0609437
0.0435528
0.0678577
0.0369243
0.0771934
0.0320272
0.0870916
0.0289494
0.0954745
0.0266872
0.103755
0.0261541
0.109638
0.0256331
0.117022
0.0254147
0.122454
0.0264621
0.127933
0.0266063
0.134626
0.0254726
0.141429
0.0223802
0.149976
0.0184551
0.159015
0.0151376
0.168775
0.012761
0.179437
0.0111542
0.19129
0.00983646
0.204459
0.00861615
0.218896
0.00744702
0.234475
0.00631877
0.251224
0.00520384
0.269145
0.004042
0.288295
0.00279668
0.308703
0.00144915
0.330424
0.353519
0.0185705
0.046134
0.016235
0.0505654
0.0128539
0.0552886
0.00875894
0.0600718
0.00436386
0.0653387
0.000885705
0.0713358
-0.000154288
0.0782334
0.00117306
0.0857643
0.00369857
0.092949
0.00707173
0.100382
0.0114627
0.105247
0.0152056
0.113279
0.0145916
0.123068
0.0117894
0.130735
0.00720669
0.139209
0.00352484
0.145111
0.00193972
0.151561
0.00252667
0.158428
0.0043657
0.166936
0.00617392
0.177629
0.00749882
0.189965
0.00815121
0.203807
0.00822379
0.218824
0.00774826
0.234951
0.00686752
0.252104
0.00571502
0.270298
0.00441649
0.289594
0.0030277
0.310092
0.00155827
0.331893
0.355078
-0.147849
0.042469
-0.143979
0.0466958
-0.140008
0.0513171
-0.13603
0.0560945
-0.131928
0.061237
-0.127463
0.06687
-0.122231
0.0730014
-0.11599
0.0795238
-0.109707
0.0866653
-0.103164
0.0938398
-0.0978929
0.0999757
-0.0916232
0.107009
-0.0855128
0.116958
-0.0769295
0.122152
-0.0649095
0.127189
-0.0495474
0.129749
-0.0335954
0.135609
-0.0194231
0.144256
-0.00849002
0.156003
-0.000903347
0.170042
0.00388522
0.185177
0.00658044
0.201111
0.00777931
0.217625
0.00795775
0.234773
0.00743526
0.252627
0.00642224
0.271311
0.00507871
0.290937
0.00352016
0.311651
0.00181876
0.333594
0.356896
-0.0699574
-0.0671934
-0.0640386
-0.0606023
-0.0569086
-0.0528053
-0.048254
-0.0432878
-0.038248
-0.032736
-0.0285842
-0.0249306
-0.0211207
-0.01484
-0.00430684
0.00839507
0.0195283
0.0256084
0.0269207
0.0254106
0.0226531
0.0195806
0.016545
0.0137083
0.0111104
0.0087245
0.00648573
0.00432822
0.00219087
)
;

boundaryField
{
    outlet
    {
        type            calculated;
        value           nonuniform List<scalar> 
40
(
0.0403925
0.0402238
0.0400884
0.0400659
0.040128
0.0403451
0.0407334
0.0413716
0.0422308
0.0433411
0.0401086
0.0439318
0.0481623
0.0526582
0.0575432
0.0627667
0.0684502
0.0745576
0.0816255
0.0883277
0.0958239
0.103356
0.113148
0.115871
0.116656
0.117047
0.124476
0.138176
0.15469
0.171552
0.187934
0.204184
0.22066
0.237609
0.255225
0.273696
0.293176
0.313808
0.335732
0.359087
)
;
    }
    upperWall
    {
        type            symmetryPlane;
        value           nonuniform 0();
    }
    lowerWall
    {
        type            symmetryPlane;
        value           uniform 0;
    }
    inlet
    {
        type            calculated;
        value           nonuniform 0();
    }
    cylinder
    {
        type            calculated;
        value           nonuniform 0();
    }
    frontAndBack
    {
        type            empty;
        value           nonuniform 0();
    }
    procBoundary3to2
    {
        type            processor;
        value           nonuniform List<scalar> 
43
(
-0.020921
-0.0173198
-0.0160785
-0.0164634
-0.0183101
-0.0205043
0.0019186
-0.0262267
-0.0266898
-0.0277005
-0.0288549
0.00316106
-0.0446838
-0.0502121
-0.0551582
-0.0595632
-0.0654215
-0.0715159
-0.0782388
-0.0852713
-0.0927397
-0.100367
-0.108053
-0.116042
-0.12444
-0.133324
-0.14279
-0.152878
-0.16367
-0.175166
-0.187396
-0.200424
-0.214311
-0.229128
-0.244946
-0.261842
-0.279901
-0.299214
-0.319888
-0.342031
-0.0297221
-0.0101444
-0.0333498
)
;
    }
    procBoundary3to7
    {
        type            processor;
        value           nonuniform List<scalar> 
30
(
-0.0321968
-0.06673
-0.0871899
-0.0929127
-0.0984786
-0.099508
-0.0763333
-0.0240666
0.036634
0.0756569
0.10375
0.107904
0.0971372
0.0437559
-0.0149335
-0.0739605
-0.112833
-0.117947
-0.0780205
0.00480569
0.113195
0.149076
0.112339
-0.00247
-0.129305
-0.122473
-0.107694
0.00624374
0.149943
0.0634746
)
;
    }
}


// ************************************************************************* //
