/*--------------------------------*- C++ -*----------------------------------*\
| =========                 |                                                 |
| \\      /  F ield         | OpenFOAM: The Open Source CFD Toolbox           |
|  \\    /   O peration     | Version:                                        |
|   \\  /    A nd           | Website:  www.openfoam.com                      |
|    \\/     M anipulation  |                                                 |
\*---------------------------------------------------------------------------*/
FoamFile
{
    version     2.0;
    format      ascii;
    class       volVectorField;
    location    "1.4";
    object      U;
}
// * * * * * * * * * * * * * * * * * * * * * * * * * * * * * * * * * * * * * //

dimensions      [0 1 -1 0 0 0 0];


internalField   nonuniform List<vector> 
1136
(
(0.981654 -0.011332 6.22848e-25)
(0.983385 -0.0122471 -4.28117e-24)
(0.984922 -0.0128953 8.95902e-24)
(0.986324 -0.013203 4.8369e-25)
(0.987607 -0.0132059 -8.27435e-24)
(0.988774 -0.012999 4.31948e-24)
(0.989832 -0.012625 -1.28361e-24)
(0.990792 -0.0121236 4.34926e-24)
(0.991667 -0.0115319 -2.83619e-24)
(0.992468 -0.0108754 -7.15437e-25)
(0.993199 -0.0101776 2.94404e-24)
(0.993862 -0.00946294 -3.29843e-24)
(0.994462 -0.00874456 1.36118e-24)
(0.995007 -0.00802865 -1.16809e-24)
(0.995502 -0.00732799 7.3395e-25)
(0.995952 -0.00665601 -3.35948e-26)
(0.996359 -0.00601883 -8.60067e-26)
(0.996727 -0.00541481 -4.6142e-25)
(0.99706 -0.00484082 4.75488e-25)
(0.997364 -0.00429501 -2.45662e-25)
(0.997643 -0.00377428 -2.20559e-25)
(0.997902 -0.00327805 -8.1671e-27)
(0.998143 -0.00280503 -5.42753e-25)
(0.998377 -0.0023539 -4.76229e-27)
(0.998604 -0.00192486 -1.06362e-25)
(0.998824 -0.00151665 -4.44076e-26)
(0.999071 -0.00114635 -6.53814e-25)
(0.999217 -0.000767444 1.45348e-24)
(0.999494 -0.000560898 3.58042e-25)
(0.999538 -0.000252973 -1.94948e-25)
(0.980342 0.00938757 -4.80344e-23)
(0.982379 0.0105123 9.67711e-23)
(0.984283 0.0114083 -2.78551e-23)
(0.986045 0.0119394 1.69937e-23)
(0.987598 0.0121296 -2.40077e-24)
(0.988948 0.0120854 -3.14078e-23)
(0.990138 0.0118628 3.62254e-23)
(0.991183 0.0114906 -9.35387e-25)
(0.992108 0.0110116 -2.08648e-23)
(0.992934 0.0104571 7.28208e-24)
(0.993668 0.00985069 6.29566e-25)
(0.994318 0.00921669 1.64891e-24)
(0.994897 0.00856964 4.07766e-24)
(0.995414 0.00791369 8.21794e-24)
(0.995875 0.00726375 -7.06592e-24)
(0.996285 0.00663565 -6.46411e-25)
(0.996653 0.00603577 3.32054e-25)
(0.996985 0.005463 -1.59347e-24)
(0.997286 0.00491502 2.63653e-24)
(0.997562 0.00438944 -9.14366e-25)
(0.997814 0.00388468 2.21769e-25)
(0.998049 0.00339961 -1.33263e-25)
(0.998268 0.00293262 -4.68674e-25)
(0.998482 0.00248146 -2.00888e-25)
(0.998689 0.00205049 3.40425e-24)
(0.998891 0.00162839 -1.41304e-24)
(0.999115 0.00124953 1.77608e-24)
(0.999238 0.000866211 -9.97019e-26)
(0.999479 0.000608904 5.91712e-25)
(0.999484 0.000315849 5.66774e-25)
(0.982655 -0.0143935 4.91869e-23)
(0.984134 -0.0147812 -4.5388e-23)
(0.985355 -0.0150259 1.08994e-23)
(0.986404 -0.0150949 -1.00722e-23)
(0.987426 -0.014905 -3.26944e-23)
(0.988426 -0.0145349 -1.15283e-24)
(0.989369 -0.0140216 5.36317e-23)
(0.990251 -0.0134124 -3.91608e-24)
(0.991083 -0.0127419 -4.92724e-24)
(0.991866 -0.0120229 -1.25339e-23)
(0.992599 -0.0112736 -7.51519e-24)
(0.993278 -0.0105177 1.48972e-24)
(0.993899 -0.00976401 -6.3405e-25)
(0.994469 -0.00901379 1.14345e-24)
(0.995 -0.00828062 3.86504e-25)
(0.995489 -0.00757926 5.77003e-24)
(0.995934 -0.00691518 -7.41167e-24)
(0.996337 -0.00628553 4.04415e-25)
(0.996701 -0.00568831 3.14321e-25)
(0.997033 -0.00512207 7.21996e-24)
(0.997337 -0.0045819 -8.29858e-24)
(0.99762 -0.0040661 3.65563e-24)
(0.997882 -0.00357243 1.76595e-24)
(0.998136 -0.00310005 5.63801e-24)
(0.998379 -0.00264284 -5.30028e-24)
(0.998623 -0.00220081 -1.96127e-24)
(0.998882 -0.00178029 1.10959e-24)
(0.99907 -0.00129665 -5.29862e-24)
(0.999369 -0.00102591 9.93264e-25)
(0.999441 -0.000335091 -1.52694e-25)
(0.979514 0.00853744 -5.49718e-23)
(0.981765 0.00953775 -1.92297e-22)
(0.983884 0.0103592 3.82367e-23)
(0.985885 0.0111386 5.97466e-23)
(0.987661 0.0115424 -2.08996e-23)
(0.989169 0.0116671 5.0862e-24)
(0.990473 0.0116225 -6.90774e-23)
(0.991588 0.0114142 3.11944e-23)
(0.992556 0.0110933 6.39302e-24)
(0.993409 0.0106899 3.91696e-23)
(0.994151 0.0102272 1.08384e-23)
(0.994795 0.00972626 -8.04517e-23)
(0.995364 0.00919821 4.98188e-23)
(0.995865 0.00863802 -3.23177e-24)
(0.996299 0.00806683 2.71763e-24)
(0.996677 0.00750659 6.40181e-24)
(0.997014 0.006963 -1.56254e-23)
(0.997318 0.00643504 4.5161e-24)
(0.997593 0.00592249 1.81919e-24)
(0.997844 0.00542306 -3.27255e-25)
(0.998076 0.00493612 1.74928e-24)
(0.998291 0.00445767 -2.91839e-25)
(0.998492 0.00398535 -6.50716e-24)
(0.998691 0.00351414 -8.14902e-25)
(0.998882 0.00304937 4.03484e-24)
(0.999076 0.00256271 -1.1943e-24)
(0.999284 0.0021186 4.3939e-24)
(0.999409 0.00160497 4.61398e-24)
(0.999634 0.00125575 -1.65978e-24)
(0.99962 0.000679595 -1.09114e-24)
(0.982994 -0.0185107 6.53898e-23)
(0.984318 -0.0180186 -4.61749e-23)
(0.985495 -0.0175533 -5.3992e-24)
(0.986417 -0.0171753 8.68157e-23)
(0.987221 -0.0167952 -3.00186e-23)
(0.988106 -0.0163015 -3.0489e-23)
(0.988981 -0.0156622 1.65174e-23)
(0.989814 -0.014969 2.02951e-23)
(0.990622 -0.0142511 1.89971e-23)
(0.991397 -0.0135122 -2.122e-23)
(0.992134 -0.0127532 1.32598e-23)
(0.992824 -0.0119956 -2.17606e-24)
(0.993455 -0.0112434 -1.94762e-24)
(0.994038 -0.0104839 1.65974e-24)
(0.994592 -0.00973794 -5.68225e-24)
(0.99511 -0.00902353 -7.34235e-24)
(0.995582 -0.00834294 2.73748e-24)
(0.996009 -0.00769274 5.75392e-24)
(0.996395 -0.00707446 -1.90267e-24)
(0.996747 -0.0064896 -1.60094e-24)
(0.997068 -0.00593017 7.48423e-24)
(0.997365 -0.00539145 -1.30476e-23)
(0.997638 -0.00487236 1.35271e-23)
(0.997904 -0.00437009 1.32146e-23)
(0.998151 -0.00387523 -1.0894e-23)
(0.998417 -0.00338203 -1.08774e-24)
(0.998656 -0.00289966 -1.06537e-23)
(0.998911 -0.00226739 -7.86747e-24)
(0.999183 -0.00196975 5.96716e-25)
(0.999258 -0.000796329 1.94562e-24)
(0.979589 0.00840226 1.15352e-21)
(0.981857 0.00908035 -2.74783e-22)
(0.983939 0.00961941 -5.17513e-22)
(0.985905 0.0100569 4.83077e-22)
(0.987702 0.0105946 -2.32291e-22)
(0.989297 0.0110428 6.50198e-25)
(0.990679 0.0112302 -7.52767e-24)
(0.991825 0.0112321 5.75578e-23)
(0.992812 0.0111142 3.14673e-23)
(0.993683 0.0109152 -4.27179e-23)
(0.994437 0.0106479 -2.58827e-23)
(0.995085 0.0103275 -2.17853e-23)
(0.995661 0.00996347 4.33121e-23)
(0.996164 0.00953307 1.96233e-23)
(0.996587 0.00907111 -1.46424e-23)
(0.99695 0.00860784 2.21023e-24)
(0.997272 0.0081452 1.457e-23)
(0.997562 0.00768346 -2.04336e-23)
(0.997821 0.00722691 7.35164e-25)
(0.998059 0.00677919 5.16517e-24)
(0.998279 0.00633748 -3.04533e-24)
(0.998486 0.00589663 4.19395e-24)
(0.998677 0.00544841 -1.12536e-25)
(0.99887 0.00498751 1.07415e-24)
(0.999054 0.00451694 -6.47441e-24)
(0.999259 0.00398272 1.00917e-23)
(0.999456 0.0034896 -9.58414e-25)
(0.999623 0.0027816 9.63131e-24)
(0.999831 0.00242801 -3.58694e-24)
(0.999851 0.00142035 -2.08105e-24)
(0.983814 -0.0217249 7.52151e-23)
(0.985045 -0.0203954 -1.40764e-22)
(0.986124 -0.0192435 6.56926e-23)
(0.987087 -0.0183065 4.84272e-23)
(0.987956 -0.0175078 4.7971e-23)
(0.988768 -0.0168672 -5.38171e-23)
(0.989582 -0.0161469 -2.81348e-23)
(0.990388 -0.0154176 4.05021e-23)
(0.991164 -0.0147145 2.68926e-23)
(0.991903 -0.013983 -2.16562e-23)
(0.992594 -0.0132599 8.58665e-24)
(0.993214 -0.0125386 -5.08963e-25)
(0.993789 -0.0117908 8.30746e-25)
(0.994352 -0.011055 -1.02253e-24)
(0.994882 -0.0103469 7.54883e-25)
(0.995362 -0.00966105 -1.4097e-24)
(0.995797 -0.00899589 8.4743e-24)
(0.996193 -0.00835914 -1.10917e-23)
(0.996553 -0.00776619 1.53073e-23)
(0.99688 -0.00719577 -1.14939e-23)
(0.997179 -0.00664093 8.41994e-24)
(0.997451 -0.00610711 -9.41212e-24)
(0.997716 -0.00558909 6.42448e-25)
(0.997946 -0.00507239 1.01305e-23)
(0.998225 -0.00454452 -9.02255e-24)
(0.998401 -0.00403685 -7.57429e-24)
(0.998745 -0.00328677 5.46098e-24)
(0.998924 -0.00303447 3.81469e-25)
(0.99902 -0.00148462 4.50501e-24)
(0.982545 0.0085302 -1.00701e-22)
(0.984469 0.00885174 -1.11691e-22)
(0.986245 0.00912746 1.24215e-22)
(0.987868 0.00940777 -8.23423e-24)
(0.989314 0.00966207 1.33424e-22)
(0.990635 0.00993316 9.06638e-24)
(0.991801 0.0101699 9.9052e-23)
(0.992782 0.0103261 -6.49964e-23)
(0.993663 0.0104011 2.6526e-24)
(0.994443 0.0103714 -5.72632e-23)
(0.995111 0.0102607 -1.10584e-23)
(0.995716 0.0100788 1.72606e-23)
(0.99624 0.00980059 -1.43282e-23)
(0.99667 0.00946833 2.63926e-23)
(0.99704 0.00911791 1.63186e-23)
(0.997371 0.00874341 -1.22724e-23)
(0.997665 0.00834971 -3.02128e-24)
(0.997921 0.00794972 1.54986e-24)
(0.998156 0.00757093 6.22433e-25)
(0.998379 0.00718587 -6.72084e-24)
(0.998588 0.00679853 4.63342e-24)
(0.99878 0.00641851 1.85109e-24)
(0.998979 0.00603808 -2.12826e-25)
(0.999165 0.00564072 -2.05054e-26)
(0.999398 0.00516088 8.62508e-24)
(0.999575 0.00472697 -6.38958e-24)
(0.999854 0.00389663 -2.93878e-24)
(0.999987 0.00367423 -2.52034e-24)
(1.00011 0.00220067 -3.61668e-24)
(0.983156 -0.025195 3.53333e-22)
(0.984529 -0.0231809 -1.47843e-22)
(0.985767 -0.0214121 -1.5727e-22)
(0.986883 -0.0199054 4.38872e-23)
(0.987884 -0.0185994 2.98609e-24)
(0.988802 -0.0174736 9.69514e-23)
(0.989676 -0.0165197 -5.33877e-23)
(0.990497 -0.0156428 7.34874e-24)
(0.991259 -0.0149105 6.19687e-23)
(0.99198 -0.0142653 -3.08577e-23)
(0.992649 -0.0135951 -1.05382e-24)
(0.993239 -0.0129022 2.6288e-23)
(0.993792 -0.0121801 -7.86099e-24)
(0.994348 -0.0114671 -1.54964e-23)
(0.994867 -0.010763 1.36888e-23)
(0.995334 -0.010052 2.2605e-24)
(0.99576 -0.00933493 -2.29098e-24)
(0.996156 -0.00860975 -1.74409e-24)
(0.996514 -0.00786914 1.12684e-24)
(0.996834 -0.00715258 6.55551e-25)
(0.99713 -0.00649136 1.40262e-24)
(0.997398 -0.00595162 1.95576e-24)
(0.997655 -0.00551847 -8.48484e-24)
(0.997857 -0.00514677 3.16087e-24)
(0.998134 -0.00476095 8.40672e-25)
(0.998212 -0.00439659 -3.71494e-24)
(0.998656 -0.00367082 4.28869e-24)
(0.998618 -0.00355106 -4.67533e-27)
(0.998854 -0.00196473 -6.89156e-25)
(0.983996 0.0069608 -5.31305e-22)
(0.985631 0.00737878 4.00848e-22)
(0.987141 0.00771283 -2.1756e-22)
(0.98854 0.00800079 -1.6813e-22)
(0.989812 0.00824364 -3.64973e-23)
(0.990972 0.00849221 1.33724e-22)
(0.992029 0.0087028 -4.66495e-23)
(0.992937 0.00883171 5.48227e-23)
(0.993748 0.00902025 -2.24984e-23)
(0.994517 0.00913614 1.15301e-22)
(0.995221 0.00911098 -5.95624e-23)
(0.995861 0.00899058 6.70983e-23)
(0.99641 0.00880984 -5.86405e-24)
(0.996861 0.00856481 -3.8927e-24)
(0.997263 0.00825867 -2.04925e-23)
(0.997628 0.00790965 -4.62263e-24)
(0.997952 0.00752013 2.5998e-26)
(0.998239 0.00709094 8.72188e-25)
(0.998494 0.00662192 -5.76e-24)
(0.998717 0.00614156 1.74404e-24)
(0.998902 0.00565986 -6.62205e-24)
(0.999058 0.00530606 3.18115e-23)
(0.999238 0.00507733 -3.53839e-23)
(0.999414 0.00491588 2.78253e-23)
(0.999695 0.00472347 1.3496e-24)
(0.999838 0.0045535 -1.34192e-23)
(1.00031 0.00387236 -2.03297e-24)
(1.00032 0.00398899 3.24572e-24)
(1.00053 0.00228118 2.0805e-24)
(0.986566 -0.0270874 0)
(0.987886 -0.0247508 0)
(0.989083 -0.0226937 0)
(0.990171 -0.0208947 0)
(0.991156 -0.0193076 0)
(0.992067 -0.0179194 0)
(0.992949 -0.016666 0)
(0.993738 -0.0154812 0)
(0.994406 -0.0144173 0)
(0.995024 -0.0134533 0)
(0.995596 -0.0125493 0)
(0.996143 -0.0117008 0)
(0.996678 -0.0108669 0)
(0.99717 -0.0100499 0)
(0.997612 -0.00925322 0)
(0.998013 -0.00846936 0)
(0.998382 -0.00769635 0)
(0.998716 -0.00693485 0)
(0.999019 -0.00619184 0)
(0.999324 -0.00547206 0)
(0.999624 -0.00483598 0)
(0.999889 -0.00428514 0)
(1.00009 -0.00384224 0)
(1.00029 -0.00340851 0)
(1.00041 -0.00307085 0)
(1.00061 -0.00246651 0)
(1.00068 -0.00234861 0)
(1.00089 -0.00148053 0)
(0.98616 0.00856309 0)
(0.987329 0.00886897 0)
(0.988424 0.00906623 0)
(0.989435 0.00918219 0)
(0.990373 0.00924479 0)
(0.991248 0.00927169 0)
(0.992027 0.0092375 0)
(0.992723 0.009102 0)
(0.993381 0.00896709 0)
(0.994003 0.0088135 0)
(0.994577 0.00862757 0)
(0.99507 0.00842503 0)
(0.995478 0.00816353 0)
(0.995839 0.00784358 0)
(0.996169 0.00748611 0)
(0.996463 0.00709976 0)
(0.996723 0.00668667 0)
(0.996953 0.00624931 0)
(0.997153 0.00580646 0)
(0.997303 0.00537517 0)
(0.997416 0.00496237 0)
(0.997551 0.00459921 0)
(0.997715 0.00428019 0)
(0.997948 0.00399814 0)
(0.998219 0.00380637 0)
(0.998441 0.00318477 0)
(0.99881 0.00331885 0)
(0.998781 0.0019544 0)
(0.986999 -0.0280569 0)
(0.988142 -0.0258018 0)
(0.989206 -0.0237727 0)
(0.9902 -0.0219514 0)
(0.99112 -0.0203043 0)
(0.99197 -0.0188245 0)
(0.992784 -0.0174902 0)
(0.993532 -0.0162451 0)
(0.994186 -0.0150913 0)
(0.994778 -0.0140365 0)
(0.995326 -0.0130711 0)
(0.995851 -0.0121851 0)
(0.996364 -0.0113262 0)
(0.996844 -0.0104835 0)
(0.997283 -0.00966483 0)
(0.997685 -0.00886714 0)
(0.998058 -0.00808583 0)
(0.998403 -0.00732038 0)
(0.998727 -0.00657907 0)
(0.999061 -0.00585919 0)
(0.999401 -0.005137 0)
(0.999704 -0.00449253 0)
(0.99994 -0.00386818 0)
(1.00013 -0.00331983 0)
(1.00024 -0.00290875 0)
(1.00038 -0.00233426 0)
(1.0004 -0.00219595 0)
(1.00069 -0.00134212 0)
(0.988426 0.00566911 0)
(0.989297 0.0064201 0)
(0.990128 0.00700531 0)
(0.990908 0.00745536 0)
(0.991642 0.00778761 0)
(0.992336 0.00802564 0)
(0.992971 0.00817752 0)
(0.99355 0.00822549 0)
(0.994098 0.00821573 0)
(0.994619 0.00816673 0)
(0.995106 0.00807986 0)
(0.995534 0.00796399 0)
(0.995894 0.00779154 0)
(0.996207 0.00755698 0)
(0.996489 0.00727413 0)
(0.996741 0.00695485 0)
(0.996961 0.00660323 0)
(0.99715 0.006223 0)
(0.997309 0.00582734 0)
(0.997421 0.00542551 0)
(0.997482 0.00497875 0)
(0.997567 0.00455497 0)
(0.99769 0.00413639 0)
(0.997884 0.00370104 0)
(0.998138 0.00343487 0)
(0.998389 0.00284553 0)
(0.998727 0.00296157 0)
(0.998706 0.00178441 0)
(0.987899 -0.026039 0)
(0.988811 -0.0241452 0)
(0.989696 -0.0224234 0)
(0.990553 -0.0208554 0)
(0.991368 -0.0194192 0)
(0.992136 -0.0181015 0)
(0.992875 -0.016898 0)
(0.993569 -0.0157727 0)
(0.994193 -0.0147169 0)
(0.994763 -0.0137386 0)
(0.995293 -0.0128359 0)
(0.995801 -0.0120005 0)
(0.996292 -0.0111972 0)
(0.996759 -0.0104102 0)
(0.997193 -0.00964093 0)
(0.997597 -0.00888848 0)
(0.997976 -0.00814963 0)
(0.998334 -0.00742283 0)
(0.998676 -0.00670835 0)
(0.999025 -0.00600497 0)
(0.999392 -0.0052683 0)
(0.999728 -0.00454238 0)
(0.999984 -0.00386635 0)
(1.0002 -0.00318716 0)
(1.00031 -0.00265724 0)
(1.00043 -0.00210845 0)
(1.00041 -0.0019136 0)
(1.00072 -0.00111543 0)
(0.990744 0.000733271 0)
(0.991339 0.00202247 0)
(0.991933 0.00310679 0)
(0.992505 0.00400834 0)
(0.993055 0.00474523 0)
(0.993584 0.00534714 0)
(0.994077 0.00582487 0)
(0.994539 0.00617196 0)
(0.994977 0.00642165 0)
(0.995394 0.0066018 0)
(0.995788 0.00671812 0)
(0.996141 0.00677755 0)
(0.996444 0.00677032 0)
(0.996706 0.00669275 0)
(0.996938 0.00655272 0)
(0.997143 0.00636096 0)
(0.99732 0.00612346 0)
(0.997466 0.00584526 0)
(0.997582 0.00553155 0)
(0.997664 0.00518758 0)
(0.99769 0.00477758 0)
(0.997722 0.00431208 0)
(0.997806 0.00387048 0)
(0.997958 0.0033947 0)
(0.998159 0.00299467 0)
(0.998414 0.00244645 0)
(0.998696 0.00249286 0)
(0.998726 0.00150128 0)
(0.989482 -0.0221532 0)
(0.990073 -0.0207188 0)
(0.990689 -0.0194112 0)
(0.991322 -0.0182112 0)
(0.991956 -0.0170987 0)
(0.992578 -0.0160719 0)
(0.993188 -0.0151158 0)
(0.993774 -0.0142153 0)
(0.994327 -0.013368 0)
(0.994844 -0.012568 0)
(0.99533 -0.0118177 0)
(0.995799 -0.0111148 0)
(0.996254 -0.0104377 0)
(0.996691 -0.00977174 0)
(0.997106 -0.00911326 0)
(0.9975 -0.00846126 0)
(0.997875 -0.00781343 0)
(0.998235 -0.00716809 0)
(0.998584 -0.00651984 0)
(0.998935 -0.00586531 0)
(0.999303 -0.00517942 0)
(0.999664 -0.00441516 0)
(0.999944 -0.00371065 0)
(1.00017 -0.00303382 0)
(1.0003 -0.00238914 0)
(1.00042 -0.00184304 0)
(1.00041 -0.00155866 0)
(1.00067 -0.00084043 0)
(0.992813 -0.00497102 0)
(0.993179 -0.00325885 0)
(0.993574 -0.00175026 0)
(0.993978 -0.000429906 0)
(0.994379 0.000709756 0)
(0.994774 0.00168952 0)
(0.995153 0.00252094 0)
(0.995514 0.00321191 0)
(0.995861 0.00378096 0)
(0.996193 0.00424443 0)
(0.996506 0.00462185 0)
(0.996791 0.00491759 0)
(0.99704 0.00512756 0)
(0.997255 0.00525639 0)
(0.997444 0.00530921 0)
(0.997606 0.00529302 0)
(0.997742 0.00521372 0)
(0.99785 0.00507679 0)
(0.997931 0.00488426 0)
(0.997985 0.00463783 0)
(0.998001 0.00432174 0)
(0.997996 0.00389782 0)
(0.99802 0.00344516 0)
(0.998137 0.00299029 0)
(0.998285 0.00256778 0)
(0.9985 0.00203934 0)
(0.99871 0.00197701 0)
(0.998819 0.00116258 0)
(0.991869 -0.0175935 0)
(0.99208 -0.0165469 0)
(0.992363 -0.0155992 0)
(0.992701 -0.0147364 0)
(0.99308 -0.0139416 0)
(0.993484 -0.0132075 0)
(0.993904 -0.0125242 0)
(0.994329 -0.0118802 0)
(0.99475 -0.0112707 0)
(0.995163 -0.0106918 0)
(0.995564 -0.0101424 0)
(0.995956 -0.00961894 0)
(0.996344 -0.00911146 0)
(0.996726 -0.00860661 0)
(0.997098 -0.00809894 0)
(0.997458 -0.00758742 0)
(0.997808 -0.00706907 0)
(0.998151 -0.00654067 0)
(0.998489 -0.00599534 0)
(0.998827 -0.00542814 0)
(0.999171 -0.0048273 0)
(0.999525 -0.00416216 0)
(0.999828 -0.00343256 0)
(1.00007 -0.00277008 0)
(1.00022 -0.00213987 0)
(1.00036 -0.00159775 0)
(1.0004 -0.00119688 0)
(1.00057 -0.000569009 0)
(0.994547 -0.00989673 0)
(0.994714 -0.00807714 0)
(0.994939 -0.00640314 0)
(0.995201 -0.00487423 0)
(0.995483 -0.00348948 0)
(0.995774 -0.00224852 0)
(0.996065 -0.00114662 0)
(0.996351 -0.000177625 0)
(0.99663 0.000668703 0)
(0.9969 0.00140201 0)
(0.997155 0.00203155 0)
(0.997389 0.00256645 0)
(0.997599 0.00300931 0)
(0.997782 0.00336027 0)
(0.99794 0.00362485 0)
(0.998073 0.00380722 0)
(0.99818 0.00391109 0)
(0.998262 0.00394206 0)
(0.998319 0.00390128 0)
(0.998354 0.00378833 0)
(0.998363 0.00359698 0)
(0.998357 0.00330638 0)
(0.998342 0.00291698 0)
(0.998398 0.00249482 0)
(0.998494 0.00211517 0)
(0.998659 0.00166441 0)
(0.998796 0.0014771 0)
(0.998972 0.000828887 0)
(0.994779 -0.0138299 0)
(0.994651 -0.0129153 0)
(0.994616 -0.0121127 0)
(0.994657 -0.0114029 0)
(0.99476 -0.0107752 0)
(0.994911 -0.0102174 0)
(0.995102 -0.0097176 0)
(0.995325 -0.0092631 0)
(0.995569 -0.00884378 0)
(0.995829 -0.00845234 0)
(0.996099 -0.00808407 0)
(0.996377 -0.00773345 0)
(0.996662 -0.00739273 0)
(0.996954 -0.00705245 0)
(0.997249 -0.00670604 0)
(0.997545 -0.00634974 0)
(0.997842 -0.00597825 0)
(0.998142 -0.00558633 0)
(0.998443 -0.00516848 0)
(0.998747 -0.00471989 0)
(0.999054 -0.0042335 0)
(0.999367 -0.00369444 0)
(0.999658 -0.00309212 0)
(0.999925 -0.00244911 0)
(1.00009 -0.00185516 0)
(1.00025 -0.0013593 0)
(1.00032 -0.000879872 0)
(1.00043 -0.000345375 0)
(0.996242 -0.0124053 0)
(0.996159 -0.0109518 0)
(0.996185 -0.00952267 0)
(0.996283 -0.00813231 0)
(0.996427 -0.00680378 0)
(0.996604 -0.00555405 0)
(0.996804 -0.00439182 0)
(0.997017 -0.00332065 0)
(0.997238 -0.00233949 0)
(0.997459 -0.00144805 0)
(0.997672 -0.000646939 0)
(0.997872 6.54811e-05 0)
(0.998056 0.000691275 0)
(0.99822 0.0012298 0)
(0.998362 0.00168093 0)
(0.998482 0.00204795 0)
(0.998578 0.00233254 0)
(0.99865 0.00253587 0)
(0.998699 0.00265789 0)
(0.998728 0.00269779 0)
(0.998736 0.00265416 0)
(0.998736 0.00251932 0)
(0.998723 0.00228965 0)
(0.998739 0.00196757 0)
(0.998767 0.00163597 0)
(0.998884 0.00126844 0)
(0.998961 0.00103641 0)
(0.99916 0.000545841 0)
(0.997394 -0.0122648 0)
(0.997139 -0.011148 0)
(0.996952 -0.0101511 0)
(0.996818 -0.00929404 0)
(0.996723 -0.00856936 0)
(0.996667 -0.00796308 0)
(0.996655 -0.00745665 0)
(0.996687 -0.00702881 0)
(0.996754 -0.00666067 0)
(0.996847 -0.00633972 0)
(0.996964 -0.00605998 0)
(0.997102 -0.00581142 0)
(0.997259 -0.00558189 0)
(0.997433 -0.00536195 0)
(0.997623 -0.00514238 0)
(0.997826 -0.00491601 0)
(0.99804 -0.00467652 0)
(0.998267 -0.00441702 0)
(0.998503 -0.00413133 0)
(0.998749 -0.00381315 0)
(0.999001 -0.00345691 0)
(0.999261 -0.0030563 0)
(0.999505 -0.00260609 0)
(0.999751 -0.0021185 0)
(0.999934 -0.00157076 0)
(1.00011 -0.00112156 0)
(1.00021 -0.000642143 0)
(1.00029 -0.000194968 0)
(0.998478 -0.0119527 0)
(0.998124 -0.0109432 0)
(0.997851 -0.00997835 0)
(0.997661 -0.00905159 0)
(0.997554 -0.00814606 0)
(0.997524 -0.00724086 0)
(0.997563 -0.00633183 0)
(0.997656 -0.00542675 0)
(0.997786 -0.00453854 0)
(0.997934 -0.00368498 0)
(0.998089 -0.00287679 0)
(0.998247 -0.00212333 0)
(0.998404 -0.00142823 0)
(0.998551 -0.000795305 0)
(0.998684 -0.000231187 0)
(0.9988 0.000262054 0)
(0.998896 0.000681618 0)
(0.998972 0.00102509 0)
(0.999026 0.00129081 0)
(0.999062 0.00147696 0)
(0.999079 0.00158176 0)
(0.999088 0.00160171 0)
(0.999083 0.00153665 0)
(0.999103 0.00138972 0)
(0.999099 0.00117976 0)
(0.999161 0.000899464 0)
(0.999189 0.000694222 0)
(0.99936 0.000335844 0)
(0.999521 -0.0114924 0)
(0.9991 -0.0105822 0)
(0.998764 -0.00969483 0)
(0.99851 -0.00883222 0)
(0.998333 -0.00800648 0)
(0.998218 -0.00722785 0)
(0.998145 -0.00651592 0)
(0.9981 -0.00588844 0)
(0.998068 -0.00535945 0)
(0.998047 -0.00492926 0)
(0.99804 -0.00458279 0)
(0.998054 -0.00430329 0)
(0.99809 -0.00407296 0)
(0.998147 -0.00387663 0)
(0.998223 -0.00370284 0)
(0.998318 -0.00354175 0)
(0.998432 -0.00338302 0)
(0.998565 -0.00321685 0)
(0.998715 -0.0030342 0)
(0.998882 -0.00282818 0)
(0.999061 -0.00259275 0)
(0.999253 -0.00232306 0)
(0.999438 -0.00201477 0)
(0.999633 -0.001676 0)
(0.999788 -0.00129725 0)
(0.999961 -0.00092795 0)
(1.00007 -0.000505697 0)
(1.00016 -0.000119848 0)
(1.0005 -0.0109273 0)
(1.00003 -0.0101286 0)
(0.999642 -0.00933981 0)
(0.999327 -0.00856985 0)
(0.99908 -0.00782676 0)
(0.998892 -0.00712303 0)
(0.99875 -0.00645954 0)
(0.998647 -0.00583384 0)
(0.998584 -0.00523931 0)
(0.998565 -0.00465469 0)
(0.998589 -0.00406651 0)
(0.998651 -0.00347135 0)
(0.998741 -0.00287723 0)
(0.998843 -0.00229714 0)
(0.998947 -0.00174358 0)
(0.999045 -0.00122955 0)
(0.999136 -0.000762599 0)
(0.999215 -0.000349374 0)
(0.999278 4.52299e-06 0)
(0.999326 0.00029386 0)
(0.999357 0.000514188 0)
(0.999381 0.00066231 0)
(0.999387 0.000737903 0)
(0.999413 0.000740262 0)
(0.99941 0.000690914 0)
(0.99946 0.000553721 0)
(0.999458 0.000428803 0)
(0.999567 0.000191925 0)
(1.0014 -0.0102792 0)
(1.0009 -0.00959478 0)
(1.00047 -0.00890911 0)
(1.00011 -0.00823157 0)
(0.999805 -0.00756824 0)
(0.99956 -0.00692829 0)
(0.999366 -0.00631224 0)
(0.999214 -0.00572184 0)
(0.999105 -0.00515622 0)
(0.999039 -0.00461847 0)
(0.999003 -0.00411962 0)
(0.998982 -0.00367155 0)
(0.998968 -0.00328804 0)
(0.998958 -0.00297611 0)
(0.998952 -0.00272842 0)
(0.998958 -0.00253074 0)
(0.99898 -0.00236677 0)
(0.999022 -0.0022203 0)
(0.999082 -0.00207984 0)
(0.999161 -0.00193652 0)
(0.999256 -0.00178194 0)
(0.999371 -0.00160898 0)
(0.999486 -0.00141236 0)
(0.999622 -0.00119426 0)
(0.999728 -0.000946622 0)
(0.999861 -0.000702011 0)
(0.999949 -0.000410389 0)
(1.00006 -9.449e-05 0)
(1.00221 -0.00956384 0)
(1.00169 -0.00898974 0)
(1.00124 -0.00840554 0)
(1.00084 -0.007818 0)
(1.0005 -0.00723535 0)
(1.00021 -0.00666197 0)
(0.99997 -0.00610358 0)
(0.999775 -0.00556308 0)
(0.999622 -0.00504158 0)
(0.999505 -0.00454725 0)
(0.999417 -0.00408415 0)
(0.999354 -0.00365127 0)
(0.99931 -0.00324524 0)
(0.99929 -0.00285457 0)
(0.999295 -0.00246744 0)
(0.999324 -0.00207723 0)
(0.999373 -0.00168803 0)
(0.999429 -0.00131028 0)
(0.999484 -0.000957656 0)
(0.999532 -0.000641392 0)
(0.99957 -0.00036971 0)
(0.999605 -0.00014864 0)
(0.999623 1.94628e-05 0)
(0.999657 0.000130042 0)
(0.999659 0.000197369 0)
(0.999707 0.000193372 0)
(0.999711 0.000188267 0)
(0.999767 9.50478e-05 0)
(1.00292 -0.00879725 0)
(1.0024 -0.00832656 0)
(1.00193 -0.00783827 0)
(1.00152 -0.00733915 0)
(1.00115 -0.00683544 0)
(1.00083 -0.00633273 0)
(1.00055 -0.00583627 0)
(1.00032 -0.00534965 0)
(1.00013 -0.00487755 0)
(0.999968 -0.00442456 0)
(0.999841 -0.00399204 0)
(0.999739 -0.00358121 0)
(0.999661 -0.00319179 0)
(0.999609 -0.00282292 0)
(0.999578 -0.00247858 0)
(0.99956 -0.00216609 0)
(0.999549 -0.00189415 0)
(0.99954 -0.00166831 0)
(0.999537 -0.00148351 0)
(0.999545 -0.00132742 0)
(0.999566 -0.00118828 0)
(0.999607 -0.00105542 0)
(0.999652 -0.000919356 0)
(0.999725 -0.000777551 0)
(0.999775 -0.000621831 0)
(0.999863 -0.000469923 0)
(0.999911 -0.000297252 0)
(1 -9.17003e-05 0)
(1.00353 -0.00799667 0)
(1.00302 -0.00761964 0)
(1.00256 -0.00722044 0)
(1.00213 -0.00680469 0)
(1.00175 -0.00637804 0)
(1.00141 -0.00594556 0)
(1.00111 -0.00551232 0)
(1.00084 -0.00508259 0)
(1.00062 -0.00466105 0)
(1.00042 -0.00425016 0)
(1.00026 -0.00385382 0)
(1.00013 -0.00347463 0)
(1.00002 -0.00311031 0)
(0.999929 -0.00276522 0)
(0.999863 -0.00244313 0)
(0.999812 -0.00214569 0)
(0.999775 -0.00186963 0)
(0.999751 -0.00160953 0)
(0.999744 -0.0013593 0)
(0.999751 -0.00111552 0)
(0.999766 -0.000882125 0)
(0.999791 -0.000666649 0)
(0.999807 -0.000475922 0)
(0.999841 -0.000318356 0)
(0.999845 -0.00018907 0)
(0.999889 -0.000106339 0)
(0.999897 -3.67528e-05 0)
(0.999939 3.83945e-06 0)
(1.00404 -0.00717858 0)
(1.00355 -0.00688406 0)
(1.0031 -0.00656503 0)
(1.00268 -0.00622614 0)
(1.00229 -0.00587205 0)
(1.00194 -0.00550734 0)
(1.00162 -0.00513645 0)
(1.00134 -0.00476376 0)
(1.00108 -0.00439276 0)
(1.00086 -0.00402765 0)
(1.00067 -0.00367088 0)
(1.00051 -0.00332529 0)
(1.00037 -0.00299318 0)
(1.00025 -0.0026762 0)
(1.00015 -0.00237601 0)
(1.00007 -0.00209374 0)
(1.00001 -0.00182879 0)
(0.999963 -0.00158069 0)
(0.99993 -0.00135096 0)
(0.99991 -0.00114257 0)
(0.999896 -0.0009573 0)
(0.999895 -0.000795498 0)
(0.999891 -0.000654551 0)
(0.999913 -0.000530346 0)
(0.999914 -0.000412915 0)
(0.999958 -0.000308284 0)
(0.999973 -0.000204587 0)
(1.00002 -7.29514e-05 0)
(1.00445 -0.00635785 0)
(1.00399 -0.00613382 0)
(1.00356 -0.00588495 0)
(1.00315 -0.00561482 0)
(1.00277 -0.00532715 0)
(1.00242 -0.00502579 0)
(1.00209 -0.00471452 0)
(1.00179 -0.00439716 0)
(1.00152 -0.0040773 0)
(1.00128 -0.0037582 0)
(1.00106 -0.00344337 0)
(1.00087 -0.00313461 0)
(1.0007 -0.00283617 0)
(1.00056 -0.00254834 0)
(1.00044 -0.00227271 0)
(1.00033 -0.00201129 0)
(1.00025 -0.00176483 0)
(1.00017 -0.00153402 0)
(1.00012 -0.00131927 0)
(1.00008 -0.00112257 0)
(1.00004 -0.000942598 0)
(1.00002 -0.000777595 0)
(1 -0.000626697 0)
(1.00001 -0.000490502 0)
(1 -0.000365921 0)
(1.00003 -0.000260527 0)
(1.00003 -0.000170852 0)
(1.00006 -6.30545e-05 0)
(1.00477 -0.00554683 0)
(1.00435 -0.00538114 0)
(1.00395 -0.00519183 0)
(1.00356 -0.00498145 0)
(1.00319 -0.00475287 0)
(1.00284 -0.00450907 0)
(1.00251 -0.00425329 0)
(1.0022 -0.00398855 0)
(1.00192 -0.00371826 0)
(1.00167 -0.00344515 0)
(1.00143 -0.0031724 0)
(1.00122 -0.00290271 0)
(1.00103 -0.00263784 0)
(1.00087 -0.00238076 0)
(1.00072 -0.00213304 0)
(1.00059 -0.00189628 0)
(1.00048 -0.00167232 0)
(1.00038 -0.00146061 0)
(1.00031 -0.00126248 0)
(1.00024 -0.00107895 0)
(1.00019 -0.000909835 0)
(1.00015 -0.000754902 0)
(1.00012 -0.000613639 0)
(1.00011 -0.000486796 0)
(1.00008 -0.000372074 0)
(1.0001 -0.000271345 0)
(1.00009 -0.000189331 0)
(1.00011 -7.66755e-05 0)
(1.00502 -0.00475454 0)
(1.00463 -0.00463556 0)
(1.00426 -0.00449526 0)
(1.00389 -0.00433536 0)
(1.00354 -0.00415788 0)
(1.0032 -0.00396512 0)
(1.00287 -0.0037595 0)
(1.00257 -0.00354367 0)
(1.00228 -0.00332011 0)
(1.00202 -0.00309169 0)
(1.00177 -0.00286056 0)
(1.00154 -0.00262982 0)
(1.00134 -0.00240088 0)
(1.00115 -0.00217711 0)
(1.00098 -0.00195972 0)
(1.00084 -0.00174953 0)
(1.0007 -0.00154865 0)
(1.00059 -0.00135816 0)
(1.00049 -0.00117962 0)
(1.00041 -0.00101263 0)
(1.00034 -0.000858135 0)
(1.00028 -0.000715945 0)
(1.00023 -0.000585886 0)
(1.00021 -0.000468429 0)
(1.00017 -0.000362294 0)
(1.00017 -0.000266257 0)
(1.00016 -0.000191763 0)
(1.00016 -8.14788e-05 0)
(1.0052 -0.00398633 0)
(1.00485 -0.00390337 0)
(1.0045 -0.00380214 0)
(1.00416 -0.00368365 0)
(1.00383 -0.00354925 0)
(1.0035 -0.00340055 0)
(1.00319 -0.00323941 0)
(1.00289 -0.00306773 0)
(1.0026 -0.00288769 0)
(1.00233 -0.00270127 0)
(1.00208 -0.00251097 0)
(1.00184 -0.00231837 0)
(1.00162 -0.00212658 0)
(1.00142 -0.00193605 0)
(1.00123 -0.00175025 0)
(1.00107 -0.00156976 0)
(1.00092 -0.00139507 0)
(1.00078 -0.00122863 0)
(1.00067 -0.00107097 0)
(1.00057 -0.000923416 0)
(1.00048 -0.00078623 0)
(1.00041 -0.000659305 0)
(1.00034 -0.000542731 0)
(1.0003 -0.000436513 0)
(1.00025 -0.000340709 0)
(1.00024 -0.000252008 0)
(1.00022 -0.000186162 0)
(1.00021 -8.19928e-05 0)
(1.00533 -0.00324289 0)
(1.00502 -0.0031868 0)
(1.00469 -0.0031158 0)
(1.00438 -0.00303045 0)
(1.00406 -0.00293157 0)
(1.00375 -0.00282022 0)
(1.00345 -0.00269767 0)
(1.00315 -0.00256533 0)
(1.00287 -0.0024248 0)
(1.0026 -0.00227771 0)
(1.00234 -0.0021259 0)
(1.0021 -0.00197096 0)
(1.00187 -0.00181486 0)
(1.00166 -0.00165906 0)
(1.00146 -0.00150514 0)
(1.00128 -0.00135513 0)
(1.00111 -0.00120903 0)
(1.00096 -0.00106885 0)
(1.00083 -0.000935839 0)
(1.00071 -0.000810485 0)
(1.00061 -0.000692567 0)
(1.00053 -0.000583165 0)
(1.00045 -0.000482342 0)
(1.0004 -0.000390179 0)
(1.00033 -0.000306804 0)
(1.00031 -0.000228076 0)
(1.00028 -0.000171841 0)
(1.00026 -7.77044e-05 0)
(1.00542 -0.00252269 0)
(1.00513 -0.00248529 0)
(1.00484 -0.00243668 0)
(1.00454 -0.00237704 0)
(1.00424 -0.00230679 0)
(1.00395 -0.00222653 0)
(1.00366 -0.00213704 0)
(1.00337 -0.00203929 0)
(1.00309 -0.00193434 0)
(1.00282 -0.0018235 0)
(1.00256 -0.00170787 0)
(1.00232 -0.00158912 0)
(1.00208 -0.00146808 0)
(1.00186 -0.00134684 0)
(1.00165 -0.00122586 0)
(1.00146 -0.00110691 0)
(1.00128 -0.000991303 0)
(1.00112 -0.000879784 0)
(1.00097 -0.000773041 0)
(1.00084 -0.000671173 0)
(1.00073 -0.000575277 0)
(1.00063 -0.00048609 0)
(1.00054 -0.0004037 0)
(1.00048 -0.000328117 0)
(1.00041 -0.000259789 0)
(1.00038 -0.000194017 0)
(1.00034 -0.000148398 0)
(1.00031 -6.84106e-05 0)
(1.00549 -0.00181102 0)
(1.00522 -0.00178839 0)
(1.00494 -0.00175755 0)
(1.00466 -0.00171869 0)
(1.00438 -0.00167209 0)
(1.0041 -0.00161811 0)
(1.00382 -0.00155723 0)
(1.00354 -0.00149007 0)
(1.00327 -0.00141735 0)
(1.003 -0.00133987 0)
(1.00274 -0.00125852 0)
(1.00249 -0.00117424 0)
(1.00225 -0.00108802 0)
(1.00202 -0.00100076 0)
(1.00181 -0.000913643 0)
(1.00161 -0.000827256 0)
(1.00142 -0.000743186 0)
(1.00125 -0.000661312 0)
(1.0011 -0.000582017 0)
(1.00096 -0.000506668 0)
(1.00083 -0.000435902 0)
(1.00072 -0.000369658 0)
(1.00062 -0.000308213 0)
(1.00055 -0.00025122 0)
(1.00047 -0.000199807 0)