/*--------------------------------*- C++ -*----------------------------------*\
| =========                 |                                                 |
| \\      /  F ield         | OpenFOAM: The Open Source CFD Toolbox           |
|  \\    /   O peration     | Version:                                        |
|   \\  /    A nd           | Website:  www.openfoam.com                      |
|    \\/     M anipulation  |                                                 |
\*---------------------------------------------------------------------------*/
FoamFile
{
    version     2.0;
    format      ascii;
    class       surfaceScalarField;
    location    "29";
    object      phi;
}
// * * * * * * * * * * * * * * * * * * * * * * * * * * * * * * * * * * * * * //

dimensions      [0 3 -1 0 0 0 0];
oriented        oriented;


internalField   nonuniform List<scalar> 
2238
(
0.0198546
0.000325376
0.0228068
0.00238512
0.0268542
-0.00750202
0.0034546
0.0311625
-0.0100956
0.0057873
0.0366723
-0.0125704
0.00706057
0.0422566
-0.0155677
0.00998338
0.0489774
-0.0181769
0.0114562
0.0551148
-0.0214333
0.0152959
0.0619157
-0.0237767
0.0169758
-0.0264799
0.0220438
0.0663517
0.0311008
0.0373465
0.0437978
-0.0190217
0.0499263
-0.0216962
0.0555763
-0.0238269
0.0602962
-0.0261533
0.0638708
-0.0273513
-0.0295268
0.0669178
0.04871
0.0517995
0.0541267
0.0548865
-0.0269131
0.0555971
-0.0280618
-0.0292091
0.0552793
0.0449742
0.0466439
0.0490351
-0.0100479
-0.0126313
0.0026149
-0.0152473
0.00264646
-0.0179103
0.00269168
-0.0206348
0.00275112
-0.0234336
0.00282272
-0.0263154
0.00290286
-0.0292905
0.00299268
-0.0323657
0.00308914
-0.0355494
0.00319357
-0.0388507
0.00330687
-0.0422778
0.00342792
-0.0458385
0.00355746
-0.0495354
0.00368905
-0.0533601
0.00381189
-0.0572975
0.00391942
0.00402456
-0.0613454
-0.0107827
0.00481539
-0.0129814
0.0048452
-0.015195
0.0049052
-0.0174349
0.00499103
-0.0197041
0.00509191
-0.022009
0.00520777
-0.0243515
0.0053352
-0.0267306
0.00546828
-0.0291535
0.00561641
-0.0316144
0.00576782
-0.0341174
0.00593095
-0.0366662
0.00610624
-0.0392553
0.00627815
-0.0418959
0.00645249
-0.044566
0.00658945
0.00668105
-0.0472224
-0.00825911
0.00651583
-0.00994878
0.00653487
-0.0116288
0.00658525
-0.0132903
0.00665249
-0.0149307
0.00673237
-0.01655
0.00682704
-0.01814
0.00692521
-0.0197088
0.00703702
-0.0212468
0.00715447
-0.0227472
0.00726818
-0.0242179
0.00740167
-0.0256254
0.00751372
-0.026984
0.00763675
-0.0282906
0.00775907
-0.0294844
0.00778329
0.00784266
-0.030646
-0.00550363
0.00771871
-0.00666898
0.00770022
-0.00778512
0.0077014
-0.00883625
0.00770362
-0.00981997
0.00771609
-0.0107292
0.00773623
-0.0115566
0.00775263
-0.0123022
0.00778265
-0.0129478
0.00780009
-0.0135022
0.00782256
-0.0139471
0.0078466
-0.0142728
0.00783936
-0.0144471
0.00781103
-0.0144245
0.00773651
-0.0143096
0.00766843
0.0073199
-0.0137869
-0.00262814
-0.00326566
0.00833774
-0.00381898
0.00825471
-0.00426301
0.00814765
-0.0046137
0.00806677
-0.00482949
0.00795202
-0.0048952
0.00781834
-0.00484509
0.00773254
-0.00457374
0.00752875
-0.00417782
0.00742663
-0.00358174
0.00725053
-0.00267603
0.00693364
-0.00171395
0.00684896
-0.000318839
0.0063414
0.00123952
0.00611007
0.00572154
0.00283789
4.67991e-05
4.18785e-05
0.00825963
0.000126691
0.00806283
0.000450499
0.00774297
0.000872391
0.00753013
0.00148263
0.0072081
0.00242795
0.00678722
0.00335321
0.00660348
0.00484666
0.00593318
0.00628984
0.00580736
0.00826405
0.00495943
0.0104064
0.00470663
0.0129976
0.00375017
0.0157499
0.00335775
0.00201224
0.0194592
0.00364014
0.00429049
0.00741249
0.00499991
0.00703354
0.00619711
0.00633293
0.00729209
0.00611311
0.00901065
0.00506866
0.0106571
0.00495704
0.0130205
0.00356975
0.015201
0.00362688
0.0184216
0.0017388
0.0212056
0.00192265
0.0252805
-0.000324733
0.0289018
-0.000263519
-0.00288655
0.0338006
0.00793566
0.00910081
0.00586839
0.0108393
0.00459442
0.0124491
0.00450331
0.0149463
0.00257146
0.017001
0.00290235
0.0202584
0.000312393
0.0229873
0.000897941
0.0269249
-0.00219874
0.0304935
-0.00164595
0.0351827
-0.00501403
0.0396638
-0.00474462
-0.00829743
0.0450747
0.0122766
0.0144423
0.00242875
0.0165775
0.00236811
0.0191797
-3.0754e-05
0.0219946
8.74588e-05
0.0251796
-0.00287265
0.0287329
-0.00265529
0.0326348
-0.00610063
0.0369325
-0.00594367
0.0420039
-0.0100854
0.0473423
-0.0100831
-0.014525
0.0535699
0.016824
0.0195175
0.0218719
0.0254139
0.0283286
0.0327338
0.0366166
0.0421291
0.0473396
0.0542323
0.0617512
-0.0629885
0.00160343
-0.0642819
0.00124401
-0.065454
0.001113
-0.0662099
0.000685593
-0.0668156
0.000523093
-0.0668843
-2.56395e-05
-0.066759
-0.000222016
-0.0660725
-0.000793344
-0.0651642
-0.00102035
-0.0635923
-0.00169246
-0.0618078
-0.00190649
-0.0593465
-0.00258548
-0.0568029
-0.00266096
-0.0536493
-0.00326383
-0.0505938
-0.00315146
-0.0466473
-0.00401892
-0.0428008
-0.0038776
-0.0381048
-0.00466676
-0.0329027
-0.00509056
-0.00740128
-0.0489237
0.00330473
-0.0502082
0.0025285
-0.0513666
0.00227142
-0.0520867
0.00140562
-0.0526022
0.00103861
-0.0526779
5.00266e-05
-0.0524875
-0.000412403
-0.0518132
-0.00146762
-0.0508169
-0.00201663
-0.0492829
-0.0032265
-0.0473418
-0.00384761
-0.0449292
-0.00499805
-0.0421746
-0.00541557
-0.0391341
-0.00630429
-0.0358617
-0.00642388
-0.0323437
-0.00753693
-0.0283102
-0.00791109
-0.0241742
-0.00880277
-0.0188001
-0.0104647
-0.0147265
-0.0325063
0.00516501
-0.0337861
0.00380827
-0.0350987
0.00358403
-0.0359729
0.00227983
-0.0366524
0.00171812
-0.0369306
0.000328173
-0.0369011
-0.000441855
-0.0364936
-0.00187513
-0.0356164
-0.00289379
-0.0343714
-0.00447151
-0.0324327
-0.00578638
-0.0301975
-0.00723324
-0.0273605
-0.00825258
-0.0243937
-0.00927103
-0.0210083
-0.00980928
-0.0174198
-0.0111255
-0.0132806
-0.0120503
-0.00900385
-0.0130795
-0.00395488
-0.0155136
-0.0215727
-0.0155545
0.00693261
-0.0170512
0.00530502
-0.0185311
0.00506391
-0.0197815
0.0035302
-0.0205593
0.00249595
-0.0211775
0.000946327
-0.0213348
-0.000284515
-0.0213632
-0.00184672
-0.0208684
-0.00338856
-0.0200944
-0.00524556
-0.0186141
-0.00726671
-0.0166612
-0.00918614
-0.0141809
-0.0107328
-0.0113636
-0.0120883
-0.00828588
-0.012887
-0.00477715
-0.0146342
-0.000884508
-0.0159429
0.00333526
-0.0172993
0.0085346
-0.020713
-0.0276525
0.00134772
0.00842277
-0.000290366
0.00694311
-0.00143263
0.00620618
-0.0028119
0.00490946
-0.00377518
0.00345924
-0.00466122
0.00183236
-0.00518604
0.000240311
-0.00556596
-0.0014668
-0.00562528
-0.00332924
-0.00535017
-0.00552067
-0.00458776
-0.00802913
-0.00327177
-0.0105021
-0.00144473
-0.0125599
0.000797477
-0.0143305
0.00338045
-0.01547
0.00632825
-0.017582
0.00975141
-0.0193661
0.0138
-0.0213479
0.0189025
-0.0258155
-0.0332024
0.0175344
0.0103476
0.015759
0.00871851
0.0143312
0.00763401
0.0128481
0.00639252
0.0114732
0.00483417
0.0102311
0.00307442
0.009148
0.00132345
0.00849184
-0.000810645
0.00817098
-0.00300837
0.00815986
-0.00550955
0.00847121
-0.00834048
0.00906834
-0.0110993
0.0100449
-0.0135365
0.0114601
-0.0157457
0.0133686
-0.0173785
0.0156992
-0.0199127
0.0186323
-0.0222991
0.0225781
-0.0252936
0.0275105
-0.030748
-0.0376009
0.0323475
0.0118006
0.0307803
0.0102857
0.0291425
0.00927179
0.0274786
0.00805643
0.0258647
0.00644803
0.0243371
0.00460207
0.0230673
0.00259324
0.0219023
0.000354374
0.0210398
-0.00214592
0.0203205
-0.00479027
0.0197466
-0.00776656
0.0193385
-0.0106911
0.0194305
-0.0136285
0.0201163
-0.0164315
0.0215277
-0.0187899
0.0234809
-0.0218659
0.0262058
-0.025024
0.0299845
-0.0290724
0.034036
-0.0347994
0.036648
-0.0402129
-0.0423585
0.0441328
0.0127426
0.0428804
0.0115381
0.0413855
0.0107667
0.0397965
0.00964545
0.0382025
0.00804207
0.0365674
0.00623712
0.0348792
0.00428149
0.0334196
0.00181393
0.0322551
-0.000981355
0.0312052
-0.00374042
0.0302096
-0.00677099
0.0293583
-0.00983975
0.0287841
-0.0130542
0.0285308
-0.0161782
0.0291589
-0.019418
0.0305456
-0.0232526
0.0328045
-0.0272829
0.0358231
-0.032091
0.0382121
-0.0371885
0.0387873
-0.040788
-0.0416654
0.0528962
0.0134163
0.0517605
0.0126738
0.0503275
0.0121997
0.0487141
0.0112589
0.0469328
0.00982328
0.0451049
0.00806504
0.0434305
0.00595589
0.0416629
0.00358151
0.0398383
0.000843252
0.0382386
-0.00214073
0.0367181
-0.00525044
0.0354894
-0.00861104
0.0346467
-0.0122116
0.034384
-0.0159155
0.0348684
-0.0199024
0.0358841
-0.0242683
0.0375188
-0.0289176
0.0390927
-0.0336649
0.0394034
-0.0374992
0.0383508
-0.0397354
-0.0401161
0.0605549
0.0146127
0.0590417
0.0141869
0.0575154
0.013726
0.0558659
0.0129083
0.0540718
0.0116174
0.0522217
0.00991513
0.0503273
0.00785032
0.0482739
0.00563483
0.0463411
0.00277608
0.0446613
-0.000460944
0.0431217
-0.00371085
0.0418823
-0.00737163
0.0410463
-0.0113756
0.04077
-0.0156392
0.0409791
-0.0201115
0.0413934
-0.0246826
0.04163
-0.0291542
0.0411555
-0.0331903
0.0397017
-0.0360455
0.0376441
-0.0376777
-0.0378153
0.0643607
0.0157272
-0.0654752
0.063641
0.0149066
0.0627876
0.0145794
0.0620069
0.0136891
0.0612549
0.0123694
0.0605235
0.0106465
0.0598905
0.00848336
0.0596073
0.00591804
0.0594287
0.00295468
0.059312
-0.000344269
0.0595927
-0.00399153
0.060181
-0.00795992
0.0609032
-0.0120978
0.0616257
-0.0163617
0.0621409
-0.0206267
0.0622294
-0.0247712
0.061595
-0.0285197
0.06006
-0.0316553
0.057879
-0.0338646
0.0553165
-0.0351153
0.0527936
-0.0352923
-0.0346831
0.0709257
0.0152197
-0.0704182
0.0713186
0.0145137
0.072036
0.013862
0.0726609
0.0130642
0.0731164
0.0119139
0.0734178
0.0103451
0.0735656
0.00833547
0.0736031
0.00588055
0.0734833
0.00307448
0.0730891
4.99454e-05
0.0729833
-0.00388573
0.072749
-0.00772556
0.0723311
-0.01168
0.0716403
-0.0156709
0.0705149
-0.0195013
0.0688435
-0.0230998
0.0666537
-0.0263299
0.064006
-0.0290076
0.0610303
-0.0308888
0.0579277
-0.0320127
0.055069
-0.0324336
-0.0320502
0.0736768
0.0140308
-0.0724879
0.074859
0.0133315
0.0761493
0.0125716
0.0774214
0.0117921
0.0785502
0.0107851
0.0794633
0.00943207
0.0800979
0.0077008
0.0804222
0.00555632
0.0804548
0.00304186
0.0805747
-6.99492e-05
0.080011
-0.00332204
0.0791608
-0.0068754
0.0780024
-0.0105215
0.0764517
-0.0141201
0.0745453
-0.017595
0.0722556
-0.02081
0.0696919
-0.0237662
0.0670024
-0.0263181
0.0642657
-0.0281521
0.061728
-0.0294751
0.0595274
-0.0302331
-0.0302348
0.077023
0.0124561
-0.0754484
0.0782523
0.0121022
0.0794053
0.0114187
0.0805922
0.0106051
0.0817219
0.00965535
0.0826924
0.00846163
0.0834664
0.00692683
0.0839983
0.00502435
0.0843231
0.00271713
0.08424
1.3131e-05
0.0837277
-0.00280977
0.0828113
-0.00595896
0.0815376
-0.00924786
0.079945
-0.0125275
0.0780629
-0.0157129
0.075984
-0.0187311
0.0737176
-0.0214998
0.0713256
-0.023926
0.0689459
-0.0257724
0.0666821
-0.0272112
0.0645377
-0.0280887
-0.0281227
0.0811789
0.0112197
-0.0799425
0.0823251
0.010956
0.0833613
0.0103825
0.0843727
0.00959375
0.0853448
0.0086832
0.0862441
0.0075623
0.0870002
0.00617073
0.0875512
0.00447335
0.0878092
0.0024592
0.0876986
0.000123717
0.0872852
-0.00239637
0.086499
-0.0051728
0.085356
-0.0081048
0.0839215
-0.0110931
0.0822299
-0.0140212
0.0803277
-0.0168289
0.0782215
-0.0193937
0.0759566
-0.0216611
0.0736953
-0.0235111
0.0714332
-0.0249491
0.0691408
-0.0257963
-0.0257842
0.0853932
0.0101474
-0.0843209
0.0865144
0.00983474
0.0875674
0.00932955
0.0885201
0.00864103
0.0894153
0.00778809
0.090229
0.00674856
0.0909055
0.00549425
0.0913838
0.00399507
0.091608
0.00223498
0.0915459
0.000185783
0.0911872
-0.0020377
0.0905014
-0.004487
0.0894924
-0.0070958
0.088185
-0.00978563
0.0866221
-0.0124584
0.0848228
-0.0150296
0.0828304
-0.0174013
0.0806784
-0.0195091
0.0784643
-0.0212971
0.0761554
-0.0226402
0.0737327
-0.0233736
-0.023406
0.0897477
0.00902861
-0.0886289
0.0908039
0.00877853
0.0917852
0.0083483
0.0926842
0.00774202
0.0935066
0.00696562
0.0942321
0.00602308
0.0948291
0.00489724
0.0952561
0.00356809
0.0954781
0.00201298
0.0954594
0.000204473
0.0951655
-0.00174377
0.0945786
-0.00390009
0.0936941
-0.00621133
0.092522
-0.00861353
0.0910864
-0.0110228
0.0894158
-0.013359
0.0875419
-0.0155274
0.0855013
-0.0174685
0.0833241
-0.0191199
0.0810183
-0.0203343
0.0786702
-0.0210256
-0.0212453
0.0945878
0.00804078
-0.0936
0.0955222
0.00784415
0.0964083
0.00746219
0.0972319
0.00691848
0.0979778
0.00621965
0.0986289
0.00537204
0.0991645
0.0043616
0.0995562
0.00317641
0.099773
0.00179618
0.0997699
0.000207571
0.0995352
-0.00150906
0.0990381
-0.00340296
0.0982684
-0.00544168
0.0972221
-0.00756724
0.095916
-0.00971663
0.0943691
-0.0118122
0.092608
-0.0137663
0.090674
-0.0155345
0.0885766
-0.0170225
0.0863913
-0.0181491
0.0842685
-0.0189028
-0.0193357
0.0999343
0.00719522
-0.0990888
0.100796
0.00698231
0.101626
0.00663285
0.102396
0.00614833
0.103086
0.00552909
0.103685
0.00477351
0.104172
0.00387398
0.104528
0.00282074
0.104722
0.00160268
0.10472
0.000209059
0.10451
-0.00129922
0.104065
-0.0029582
0.103366
-0.00474246
0.102405
-0.00660602
0.101189
-0.00850019
0.0997291
-0.0103527
0.0980634
-0.0121006
0.0962194
-0.0136905
0.0942449
-0.0150479
0.0922439
-0.0161481
0.0903252
-0.016984
-0.0175401
0.105609
0.00635815
-0.104772
0.10643
0.00616082
0.107213
0.00585003
0.107938
0.00542388
0.108586
0.00488026
0.109145
0.00421537
0.109594
0.00342435
0.109916
0.00249897
0.110085
0.00143357
0.110077
0.000216712
0.109874
-0.00109601
0.109454
-0.00253798
0.108796
-0.00408462
0.107894
-0.00570344
0.106747
-0.00735341
0.105373
-0.00897908
0.103806
-0.0105334
0.102081
-0.0119653
0.100271
-0.0132382
0.0984542
-0.0143312
0.0966749
-0.0152048
-0.0158323
0.111514
0.0055579
-0.110713
0.112279
0.00539507
0.113005
0.00512449
0.113678
0.00475113
0.114283
0.00427473
0.114803
0.00369542
0.115221
0.00300658
0.115516
0.00220396
0.115669
0.00128043
0.115655
0.000230376
0.115461
-0.000901852
0.115064
-0.00214079
0.114449
-0.00346984
0.113611
-0.0048656
0.112551
-0.0062929
0.111289
-0.00771687
0.109854
-0.00909874
0.10829
-0.0104017
0.106654
-0.0116023
0.104991
-0.0126673
0.103333
-0.013547
-0.0142151
0.11773
0.00485127
-0.117023
0.118424
0.00470039
0.119088
0.00446062
0.119706
0.00413361
0.120261
0.00371944
0.120739
0.00321762
0.121122
0.00262341
0.121393
0.00193351
0.121531
0.00114153
0.121516
0.00024532
0.121339
-0.000723875
0.120975
-0.0017776
0.120419
-0.00291351
0.119663
-0.00410958
0.118714
-0.00534351
0.117588
-0.00659125
0.11631
-0.00782041
0.114915
-0.00900732
0.113439
-0.0101259
0.111914
-0.0111427
0.110371
-0.0120041
-0.0126821
0.12438
0.00421183
-0.123741
0.125008
0.00407288
0.125608
0.0038609
0.126165
0.00357677
0.126664
0.00321948
0.127094
0.00278823
0.127437
0.00228005
0.127679
0.00169147
0.127802
0.00101865
0.127789
0.000258857
0.12763
-0.000565118
0.127312
-0.00145934
0.126824
-0.00242619
0.126163
-0.00344818
0.125335
-0.0045158
0.124349
-0.00560489
0.123226
-0.00669721
0.121986
-0.00776752
0.120653
-0.00879296
0.119254
-0.00974411
0.117816
-0.0105657
-0.0112404
0.131513
0.00362898
-0.13093
0.132077
0.00350914
0.132611
0.00332633
0.133105
0.00308242
0.133549
0.00277609
0.133928
0.00240893
0.134232
0.00197663
0.134444
0.00147882
0.134553
0.000909578
0.134544
0.000268623
0.134408
-0.000429443
0.134135
-0.00118665
0.133717
-0.00200817
0.133152
-0.00288255
0.132438
-0.00380231
0.131583
-0.00475035
0.130599
-0.00571245
0.129497
-0.00666573
0.128294
-0.00759043
0.127014
-0.00846365
0.125686
-0.00923796
-0.0098962
0.139132
0.00311371
-0.138617
0.139631
0.00300999
0.140104
0.00285312
0.140542
0.00264508
0.140933
0.00238463
0.141268
0.00207401
0.141536
0.00170892
0.141725
0.00129008
0.141823
0.000810882
0.14182
0.000272293
0.141708
-0.000318154
0.141479
-0.000957278
0.141125
-0.00165475
0.140643
-0.00240054
0.140031
-0.00319009
0.139291
-0.00401026
0.138428
-0.00484919
0.137451
-0.0056892
0.136373
-0.0065124
0.135213
-0.00730312
0.133998
-0.00802306
-0.00865633
0.147268
0.00266204
-0.146817
0.147707
0.0025712
0.148124
0.00243647
0.148509
0.00225999
0.148854
0.00203982
0.149149
0.0017786
0.149386
0.00147188
0.149555
0.00112113
0.149646
0.000719471
0.14965
0.00026855
0.149561
-0.000229331
0.149371
-0.000766843
0.149073
-0.00135716
0.148663
-0.00199018
0.148138
-0.0026647
0.147497
-0.00336932
0.146742
-0.00409496
0.145882
-0.00482886
0.144924
-0.00555456
0.143882
-0.00626091
0.142783
-0.00692432
-0.00752012
0.155973
0.0022648
-0.155576
0.156358
0.00218687
0.156722
0.00207225
0.157058
0.00192346
0.15736
0.00173805
0.15762
0.00151917
0.157829
0.00126248
0.15798
0.000969596
0.158066
0.000634393
0.158076
0.000257806
0.158007
-0.000159812
0.15785
-0.000610481
0.1576
-0.00110692
0.157252
-0.00164191
0.156802
-0.00221438
0.156248
-0.00281582
0.155592
-0.00343923
0.154838
-0.00407501
0.153993
-0.00470943
0.153068
-0.00533519
0.152079
-0.00593596
-0.00648839
0.165297
0.00191819
-0.16495
0.165632
0.00185221
0.165948
0.00175546
0.166241
0.00163067
0.166504
0.00147508
0.166731
0.00129239
0.166915
0.00107804
0.167051
0.000834523
0.16713
0.000555402
0.167145
0.000242478
0.167092
-0.000106733
0.166964
-0.000482298
0.166754
-0.000897707
0.16646
-0.00134717
0.166075
-0.00182988
0.165599
-0.00234
0.165032
-0.0028719
0.164375
-0.00341825
0.163635
-0.00396959
0.162817
-0.00451729
0.161936
-0.00505432
-0.00555847
0.175288
0.00161748
-0.174987
0.175579
0.00156169
0.175854
0.00148053
0.176108
0.00137621
0.176337
0.00124652
0.176535
0.00109439
0.176696
0.000916436
0.176816
0.000714371
0.176888
0.000483267
0.176907
0.000224049
0.176867
-6.63747e-05
0.176762
-0.000377821
0.176588
-0.00072343
0.176339
-0.00109858
0.176013
-0.00150317
0.175605
-0.00193269
0.175117
-0.0023835
0.174548
-0.00284943
0.173903
-0.00332451
0.173185
-0.00379977
0.172404
-0.00427276
-0.00472635
0.185997
0.00135634
-0.185736
0.186249
0.0013097
0.186488
0.00124208
0.186708
0.00115557
0.186907
0.00104798
0.187079
0.000922095
0.187221
0.000774968
0.187327
0.000608219
0.187392
0.00041769
0.187412
0.000204084
0.187382
-3.63342e-05
0.187298
-0.00029301
0.187153
-0.000578792
0.186944
-0.00088985
0.186668
-0.00122678
0.186321
-0.00158567
0.185902
-0.00196514
0.185412
-0.00235904
0.184853
-0.00276508
0.184226
-0.0031735
0.183538
-0.00358492
-0.00398603
0.19748
0.00112983
-0.197253
0.197698
0.0010913
0.197905
0.00103557
0.198096
0.000964355
0.198268
0.000875769
0.198418
0.000772247
0.198541
0.000651321
0.198635
0.000514531
0.198695
0.000358281
0.198715
0.00018338
0.198694
-1.46777e-05
0.198625
-0.000224547
0.198506
-0.000459385
0.198331
-0.00071529
0.198098
-0.000993969
0.197804
-0.00129127
0.197447
-0.00160833
0.197026
-0.0019381
0.196543
-0.00228205
0.195999
-0.00262927
0.195397
-0.00298328
-0.00333152
0.209795
0.000933753
-0.209599
0.209984
0.000902313
0.210163
0.0008568
0.210329
0.000798729
0.210478
0.000726361
0.210608
0.000641923
0.210717
0.000543243
0.210799
0.000431877
0.210853
0.00030467
0.210874
0.00016256
0.210859
-1.203e-07
0.210804
-0.000169691
0.210706
-0.000361109
0.210561
-0.000569964
0.210365
-0.000798345
0.210116
-0.00104262
0.209813
-0.00130475
0.209453
-0.00157841
0.209037
-0.00186632
0.208566
-0.0021583
0.208042
-0.00245938
-0.00275641
0.22301
0.000763915
-0.22284
0.223173
0.000738659
0.223328
0.000701887
0.223472
0.000655111
0.223602
0.000596525
0.223715
0.000528394
0.22381
0.000448524
0.223883
0.000358729
0.223932
0.000255919
0.223953
0.000141472
0.223942
1.09385e-05
0.223899
-0.000126535
0.223819
-0.000280966
0.223698
-0.000449428
0.223534
-0.000634653
0.223325
-0.000832993
0.223067
-0.00104732
0.222761
-0.00127169
0.222404
-0.00150956
0.221997
-0.00175187
0.221542
-0.00200412
-0.00225393
0.237197
0.000616365
-0.237049
0.237339
0.000596483
0.237473
0.000567266
0.237598
0.000530134
0.237711
0.000483396
0.237811
0.000429124
0.237894
0.000365377
0.237959
0.000293806
0.238003
0.000211852
0.238024
0.000120738
0.238017
1.70817e-05
0.237984
-9.27271e-05
0.237918
-0.000215446
0.237818
-0.000349638
0.237681
-0.000497541
0.237505
-0.000656516
0.237286
-0.000829021
0.237025
-0.00101034
0.236719
-0.00120367
0.236369
-0.00140132
0.235973
-0.00160898
-0.00181547
0.252439
0.000487424
-0.25231
0.252563
0.000472277
0.252681
0.000449508
0.25279
0.000420756
0.252889
0.000384118
0.252977
0.000341839
0.25305
0.000291823
0.253108
0.000235906
0.253148
0.000171642
0.253169
0.000100401
0.253166
1.94666e-05
0.25314
-6.65503e-05
0.253087
-0.000162139
0.253004
-0.000266906
0.252889
-0.000382528
0.25274
-0.000507517
0.252554
-0.000643492
0.252331
-0.000787085
0.252068
-0.000940773
0.251765
-0.00109836
0.251422
-0.00126528
-0.00143191
0.268829
0.000373666
-0.268715
0.268939
0.00036254
0.269043
0.000345434
0.26914
0.000323863
0.269228
0.000296075
0.269305
0.000264123
0.269371
0.000226056
0.269423
0.000183585
0.26946
0.000134576
0.269481
8.03765e-05
0.269481
1.89199e-05
0.269461
-4.64562e-05
0.269417
-0.000118654
0.269349
-0.000197982
0.269252
-0.000285522
0.269125
-0.000380903
0.268966
-0.000484767
0.268774
-0.000595073
0.268547
-0.000713256
0.268283
-0.000834764
0.267982
-0.000964438
-0.00109412
0.286474
0.000271619
-0.286372
0.286572
0.000263974
0.286666
0.000251803
0.286753
0.000236561
0.286833
0.000216527
0.286903
0.00019372
0.286963
0.000166079
0.287011
0.000135512
0.287046
9.97593e-05
0.287066
6.0653e-05
0.287069
1.60443e-05
0.287053
-3.09968e-05
0.287018
-8.28745e-05
0.286959
-0.000139767
0.286877
-0.000202708
0.286767
-0.000271832
0.28663
-0.000347054
0.286462
-0.000427623
0.286263
-0.000513484
0.28603
-0.000602481
0.285763
-0.000697431
-0.000793128
0.305498
0.000177945
-0.305404
0.305589
0.000173254
0.305675
0.000165482
0.305756
0.000155785
0.305829
0.00014277
0.305895
0.000128054
0.305951
0.000109927
0.305997
8.99921e-05
0.30603
6.64423e-05
0.30605
4.08749e-05
0.306054
1.16908e-05
0.306042
-1.89864e-05
0.306012
-5.25689e-05
0.305962
-8.95328e-05
0.305889
-0.000130287
0.305793
-0.000175585
0.305671
-0.000224665
0.305521
-0.000277741
0.305341
-0.000333986
0.305131
-0.000392565
0.304889
-0.000455231
-0.000518423
0.326047
8.91011e-05
-0.325958
0.326133
8.6694e-05
0.326216
8.30305e-05
0.326293
7.82562e-05
0.326364
7.15979e-05
0.326428
6.46471e-05
0.326483
5.49862e-05
0.326527
4.59086e-05
0.32656
3.3072e-05
0.326579
2.15495e-05
0.326586
5.63952e-06
0.326575
-8.43879e-06
0.326548
-2.60851e-05
0.326503
-4.39638e-05
0.326437
-6.42327e-05
0.326349
-8.75252e-05
0.326235
-0.000110704
0.326096
-0.000139113
0.325928
-0.000165284
0.325731
-0.000196445
0.325503
-0.000226861
-0.000258662
0.348298
-0.348209
0.348385
0.348468
0.348546
0.348618
0.348682
0.348737
0.348783
0.348816
0.348838
0.348844
0.348835
0.348809
0.348765
0.348701
0.348613
0.348503
0.348363
0.348198
0.348002
0.347775
0.0558666
0.0448851
0.0541985
0.0507032
0.0585393
0.0509385
0.0643568
0.0611003
0.0652333
0.0614646
0.0404858
0.062628
0.0495399
0.0632589
0.0503076
0.068077
0.0562822
0.062892
0.0642199
0.0389778
0.0674686
0.0462912
0.0670846
0.0506916
0.0695424
0.0538244
0.0599466
0.0671158
0.0700486
0.0433583
0.0713058
0.0494344
0.0729306
0.0521996
0.0574288
0.0736314
0.0412987
0.0760074
0.0470585
0.0778279
0.0503791
0.0553143
0.0783397
0.0398182
0.0802955
0.0451027
0.0821892
0.0484854
0.0531826
0.0830614
0.0385026
0.0847178
0.0434463
0.0865122
0.046691
0.0510659
0.0881873
0.0370616
0.0899326
0.041701
0.0916365
0.044987
0.0491024
0.0937017
0.0355135
0.0954695
0.0399333
0.0971907
0.0432658
0.0472044
0.0992914
0.0339797
0.101024
0.0382006
0.102828
0.0414614
0.045261
0.105186
0.0324509
0.106914
0.0364732
0.108738
0.0396371
0.0432858
0.111578
0.0309265
0.113281
0.0347696
0.115063
0.0378557
0.0413255
0.118378
0.0294332
0.120051
0.0330966
0.121806
0.036101
0.0393904
0.125591
0.0279554
0.127255
0.031433
0.129009
0.0343473
0.037469
0.133287
0.0264759
0.134945
0.0297749
0.136699
0.0325931
0.0355513
0.141487
0.0249979
0.143139
0.0281238
0.144896
0.0308359
0.0336305
0.150219
0.0235176
0.151874
0.0264693
0.153644
0.0290657
0.0316984
0.159536
0.0220242
0.161204
0.024801
0.162997
0.0272732
0.0297449
0.169488
0.0205116
0.171178
0.0231114
0.173001
0.0254496
0.0277588
0.18012
0.0189729
0.18184
0.0213912
0.183705
0.0235843
0.0257279
0.191486
0.0173991
0.193248
0.0196295
0.195165
0.0216666
0.02364
0.203648
0.0157811
0.205461
0.0178161
0.207442
0.0196858
0.021483
0.216669
0.0141098
0.218545
0.0159403
0.220601
0.0176303
0.0192439
0.230622
0.0123753
0.232572
0.0139905
0.234714
0.0154878
0.0169092
0.245587
0.0105672
0.247623
0.0119549
0.249865
0.0132454
0.0144647
0.261655
0.00867462
0.263789
0.00982069
0.266145
0.0108894
0.0118947
0.278929
0.00668581
0.281175
0.00757442
0.28366
0.00840465
0.0091827
0.297527
0.00458757
0.299901
0.00520072
0.302532
0.00577431
0.00631007
0.317591
0.0023648
0.32011
0.00268202
0.322904
0.00297975
0.00325646
0.339291
0.341973
0.344953
)
;

boundaryField
{
    outlet
    {
        type            calculated;
        value           nonuniform 0();
    }
    upperWall
    {
        type            symmetryPlane;
        value           uniform 0;
    }
    lowerWall
    {
        type            symmetryPlane;
        value           nonuniform 0();
    }
    inlet
    {
        type            calculated;
        value           nonuniform 0();
    }
    cylinder
    {
        type            calculated;
        value           nonuniform 0();
    }
    frontAndBack
    {
        type            empty;
        value           nonuniform 0();
    }
    procBoundary6to2
    {
        type            processor;
        value           nonuniform List<scalar> 
37
(
-3.18375e-05
-3.14693e-05
-3.04122e-05
-2.87399e-05
-2.65758e-05
-2.39706e-05
-2.09909e-05
-1.76205e-05
-1.3917e-05
-9.89e-06
-5.58492e-06
-8.41594e-07
3.28022e-06
7.86686e-06
1.2786e-05
1.79816e-05
2.33724e-05
3.96928e-05
4.93704e-05
5.90891e-05
7.02949e-05
8.26539e-05
9.4243e-05
9.67339e-05
0.000106883
0.000111997
0.000120557
0.000122024
0.000124226
0.000117339
0.000110195
9.59983e-05
7.24347e-05
3.10867e-05
-2.92114e-05
-0.000111607
-0.000210046
)
;
    }
    procBoundary6to5
    {
        type            processor;
        value           nonuniform List<scalar> 
63
(
-0.0169443
0.000574071
-0.00323567
-0.00533733
-0.0251083
-0.0134945
-0.0163413
-0.0442503
-0.0234814
-0.0247856
-0.0261542
-0.0439183
-0.027969
-0.0297315
-0.0316003
-0.0477933
0.00747661
0.00260309
0.00858221
0.00655867
0.00430074
0.00194693
0.00839993
-0.000162575
0.00845352
-0.00319201
0.0078115
-0.00674087
0.0062177
-0.010791
0.00438282
-0.0149693
-0.0529585
-0.0570653
-0.0627119
-0.0670786
0.0389406
-0.0715718
-0.0768592
-0.0817458
-0.0867463
-0.0921537
-0.0977575
-0.103658
-0.110053
-0.116885
-0.124113
-0.131807
-0.14001
-0.148739
-0.158043
-0.167975
-0.178581
-0.189912
-0.20203
-0.214998
-0.228888
-0.243779
-0.259762
-0.27694
-0.295429
-0.315368
-0.336926
)
;
    }
    procBoundary6to7
    {
        type            processor;
        value           nonuniform List<scalar> 
42
(
-0.0252913
-0.0114748
0.00289126
0.0146144
0.0244524
0.031909
0.0413322
0.0376743
0.0380942
0.0368015
0.0353433
0.0372546
0.0502221
0.0524361
0.057712
0.0624256
0.0668023
0.0713545
0.0765096
0.0823589
0.0885296
0.0949672
0.101716
0.108838
0.116374
0.124342
0.132758
0.141647
0.151048
0.161006
0.171572
0.182798
0.194743
0.207467
0.22104
0.235535
0.251038
0.267644
0.285462
0.304614
0.325243
0.347516
)
;
    }
}


// ************************************************************************* //
