/*--------------------------------*- C++ -*----------------------------------*\
| =========                 |                                                 |
| \\      /  F ield         | OpenFOAM: The Open Source CFD Toolbox           |
|  \\    /   O peration     | Version:                                        |
|   \\  /    A nd           | Website:  www.openfoam.com                      |
|    \\/     M anipulation  |                                                 |
\*---------------------------------------------------------------------------*/
FoamFile
{
    version     2.0;
    format      ascii;
    class       surfaceScalarField;
    location    "183";
    object      phi;
}
// * * * * * * * * * * * * * * * * * * * * * * * * * * * * * * * * * * * * * //

dimensions      [0 3 -1 0 0 0 0];
oriented        oriented;


internalField   nonuniform List<scalar> 
2202
(
0.0286464
-0.0834657
0.0226921
-0.0625306
0.0226503
-0.0383317
0.0229788
0.0205266
0.0288106
0.0520609
0.0341191
0.084156
0.0341386
0.101006
0.0302536
0.0948014
0.0287319
0.115541
0.0265495
0.0555627
0.0322336
-0.0029239
0.0374131
-0.0459534
0.0355663
-0.100199
0.0342363
-0.0867767
0.034971
-0.126285
0.0385519
-0.0859333
0.0413326
0.0101736
0.0448932
0.0357262
0.045128
0.143134
0.0456289
0.140088
0.047821
0.0582587
0.0530662
0.0125688
0.0542562
-0.14512
0.0532304
-0.166013
0.052897
-0.0687882
0.0561771
-0.0248968
0.0571191
0.172565
0.0560029
0.194785
0.0549045
-0.0644579
-0.0930314
0.0246997
-0.0766561
0.019042
-0.0568729
0.0198114
-0.0391011
0.0210258
0.0193122
0.0282741
0.0448126
0.0358494
0.0765807
0.0357722
0.101083
0.0317454
0.0988281
0.0321349
0.115152
0.029622
0.0580756
0.0341606
-0.00746248
0.039388
-0.0511808
0.0375542
-0.0983647
0.0361426
-0.0853651
0.0353395
-0.125482
0.0385067
-0.0891004
0.0411886
0.00749165
0.043891
0.0330238
0.0445605
0.142465
0.0456268
0.139021
0.0477415
0.0561441
0.0534683
0.00684193
0.0544979
-0.146149
0.0531368
-0.164652
0.0530852
-0.0687366
0.0556315
-0.0274431
0.0557448
0.172452
0.0554953
0.195035
0.0549569
-0.0639194
-0.0916294
0.0225132
-0.0700643
0.0174622
-0.0518219
0.0177818
-0.0394206
0.0215841
0.0155099
0.029175
0.0372216
0.0387001
0.0670557
0.03965
0.100133
0.0364443
0.102034
0.0375544
0.114042
0.0346638
0.0609662
0.0371455
-0.00994419
0.0409098
-0.0549451
0.0382474
-0.0957022
0.0367382
-0.0838559
0.0350298
-0.123773
0.0377421
-0.0918127
0.0406425
0.00459132
0.0434088
0.0302575
0.0450559
0.140818
0.0461842
0.137893
0.0478154
0.0545128
0.053448
0.00120942
0.0540425
-0.146744
0.0525009
-0.16311
0.0530991
-0.0693349
0.0550932
-0.0294372
0.0544253
0.17312
0.0549982
0.194462
0.0549719
-0.0638931
-0.0900814
0.0226392
-0.0640512
0.0179946
-0.0471773
0.0173854
-0.0388114
0.023912
0.00898321
0.0305723
0.0305614
0.0413465
0.0562814
0.0447827
0.0966969
0.0419279
0.104889
0.0427099
0.11326
0.0396055
0.0640705
0.039967
-0.0103056
0.0437391
-0.0587172
0.0413691
-0.0933321
0.0386863
-0.0811731
0.0354946
-0.120582
0.0378289
-0.094147
0.0408222
0.00159803
0.0426429
0.0284368
0.044766
0.138695
0.0462671
0.136392
0.0479588
0.0528211
0.0535627
-0.0043945
0.053997
-0.147178
0.0521318
-0.161245
0.0531811
-0.0703842
0.0543713
-0.0306274
0.0528143
0.174677
0.0542707
0.193006
0.0548738
-0.0644962
-0.0884058
0.0242128
-0.0591922
0.0202974
-0.0432619
0.018103
-0.0366171
0.0255936
0.0014926
0.0322211
0.023934
0.0437961
0.0447064
0.051609
0.088884
0.050895
0.105603
0.051829
0.112326
0.047398
0.0685015
0.0446065
-0.00751405
0.0461977
-0.0603085
0.0430944
-0.0902288
0.0396056
-0.0776844
0.0354826
-0.116459
0.0373407
-0.0960051
0.0407589
-0.00182019
0.0424684
0.0267272
0.0454477
0.135716
0.0470615
0.134778
0.0484497
0.0514329
0.0534386
-0.00938345
0.0534999
-0.147239
0.0513583
-0.159103
0.0528495
-0.0718754
0.0534713
-0.0312491
0.0513492
0.176799
0.053712
0.190643
0.0547608
-0.065545
-0.0865027
0.0259454
0.0223344
-0.0396509
0.0189428
-0.0332254
0.0261235
-0.0056881
0.034685
0.0153724
0.0451976
0.0341938
0.0556355
0.0784461
0.0580211
0.103217
0.0587716
0.111575
0.0536622
0.0736109
0.0492489
-0.00310074
0.0493017
-0.0603613
0.0461278
-0.0870548
0.0412853
-0.072842
0.035627
-0.1108
0.0371583
-0.0975364
0.0409659
-0.00562778
0.0421122
0.025581
0.0452561
0.132572
0.0473374
0.132697
0.0491471
0.0496232
0.0535664
-0.0138028
0.0533048
-0.146978
0.0508385
-0.156637
0.0524127
-0.0734496
0.0523472
-0.0311837
0.0496629
0.179483
0.0530442
0.187262
0.0545612
-0.067062
-0.0844159
0.0248911
-0.0366202
0.0214053
-0.0297396
0.0261598
-0.0104426
0.0348817
0.00665056
0.0456832
0.0233923
0.0587461
0.0653832
0.0649911
0.0969721
0.0678498
0.108717
0.0641283
0.0773324
0.0560594
0.00496819
0.0521332
-0.0564351
0.0480964
-0.0830181
0.0421194
-0.0668649
0.0352462
-0.103927
0.0369884
-0.0992786
0.0411913
-0.00983063
0.0419957
0.0247765
0.0455276
0.12904
0.0481784
0.130046
0.0501675
0.0476341
0.0534786
-0.0171138
0.0525887
-0.146088
0.0498542
-0.153902
0.0512756
-0.074871
0.0509625
-0.0308706
0.0481279
0.182318
0.0525977
0.182792
0.0543836
-0.068848
-0.0820884
0.0267501
-0.0347503
0.0233246
-0.0263141
0.0257767
-0.0128947
0.0336973
-0.0012701
0.0456212
0.0114685
0.0579809
0.0530234
0.0668339
0.088119
0.0717774
0.103773
0.0688251
0.0802846
0.0605861
0.0132072
0.0544222
-0.0502713
0.0499114
-0.0785072
0.0429716
-0.0599251
0.0346877
-0.0956432
0.0363666
-0.100957
0.0412829
-0.014747
0.0422888
0.0237706
0.0455649
0.125764
0.0485066
0.127104
0.0512325
0.0449082
0.0536997
-0.0195809
0.0522608
-0.144649
0.0492163
-0.150858
0.0500627
-0.0757175
0.0492773
-0.0300851
0.0464833
0.185112
0.0520963
0.177179
0.0541532
-0.0709048
-0.079594
0.0283141
-0.0348499
0.025604
-0.023604
0.0262146
-0.0135052
0.0307656
-0.00582119
0.0430651
-0.000830973
0.0577016
0.0383869
0.0689589
0.0768618
0.0750008
0.0977312
0.0741553
0.0811301
0.0649559
0.0224067
0.056325
-0.0416405
0.0509304
-0.0731126
0.0436102
-0.0526049
0.0346877
-0.0867207
0.0361971
-0.102467
0.0417321
-0.020282
0.0427362
0.0227665
0.0459337
0.122566
0.0498093
0.123229
0.0525389
0.0421786
0.0536705
-0.0207125
0.0515207
-0.142499
0.0482068
-0.147544
0.0483737
-0.0758844
0.0473261
-0.0290375
0.0450202
0.187418
0.0518107
0.170388
0.053896
-0.0729901
-0.0768819
0.029692
0.0280065
-0.0219184
0.0266876
-0.0121864
0.027339
-0.00647259
0.0373418
-0.0108337
0.0526887
0.02304
0.0651749
0.0643756
0.074427
0.0884792
0.075326
0.080231
0.0664616
0.0312711
0.0573621
-0.032541
0.0518659
-0.0676163
0.0439421
-0.0446812
0.0357193
-0.0784978
0.0356496
-0.102397
0.0410892
-0.0257216
0.0426799
0.0211758
0.0457343
0.119512
0.0501603
0.118803
0.0536355
0.0387034
0.0539263
-0.0210033
0.0511122
-0.139685
0.0474398
-0.143871
0.0465375
-0.074982
0.0451184
-0.0276185
0.0434883
0.189048
0.0513745
0.162502
0.0535568
-0.0751725
-0.0740401
0.0364972
-0.0155111
0.0323832
-0.00807235
0.0305336
-0.00462302
0.0357729
-0.016073
0.0429844
0.0158284
0.0492656
0.0580944
0.0576802
0.0800646
0.0643919
0.0735193
0.0678604
0.0278027
0.0659528
-0.0306334
0.0620559
-0.0637194
0.0536479
-0.0362732
0.047139
-0.0719889
0.0436171
-0.0988753
0.0411708
-0.0232753
0.0363906
0.0259559
0.0357292
0.120173
0.0437545
0.110777
0.0522721
0.0301857
0.0564426
-0.0251738
0.0546639
-0.137907
0.0479426
-0.13715
0.0439407
-0.0709801
0.0383745
-0.0220523
0.0362477
0.191175
0.0467915
0.151958
0.0490013
-0.0773823
-0.0703291
0.0399822
-0.0108423
0.036433
-0.00452313
0.0330692
-0.00125926
0.0374296
-0.0204334
0.0462585
0.0069995
0.0530478
0.0513052
0.0627684
0.070344
0.0719135
0.0643741
0.0746889
0.0250273
0.0706222
-0.0265667
0.0652443
-0.0583415
0.0562417
-0.0272707
0.0494798
-0.065227
0.0471233
-0.0965187
0.0446118
-0.0207638
0.0400767
0.030491
0.0398712
0.120379
0.049226
0.101423
0.0578973
0.0215144
0.0613337
-0.0286103
0.0582288
-0.134802
0.0502529
-0.129174
0.0453484
-0.0660757
0.0392932
-0.0159971
0.038018
0.19245
0.0504045
0.139572
0.0522578
-0.0792355
-0.0659383
0.0470953
-0.00806692
0.0443665
-0.00179437
0.0387492
0.00435806
0.0401405
-0.0218247
0.0495575
-0.00241746
0.056938
0.0439247
0.0679287
0.0593533
0.0785799
0.0537229
0.0812849
0.0223223
0.0759097
-0.0211914
0.0707235
-0.0531553
0.0626232
-0.0191703
0.0546561
-0.05726
0.0518887
-0.0937513
0.0487788
-0.0176539
0.0435956
0.0356742
0.0444843
0.11949
0.0553508
0.0905561
0.0639098
0.0129555
0.0663004
-0.0310009
0.061797
-0.130298
0.0526525
-0.12003
0.0466457
-0.0600689
0.0399832
-0.00933462
0.0401171
0.192316
0.0544174
0.125272
0.0557068
-0.0805249
-0.0607476
0.0504126
-0.00715613
0.0520613
-0.00344313
0.0485178
0.00790155
0.0457067
-0.0190136
0.0516569
-0.00836758
0.0587711
0.0368105
0.069958
0.0481663
0.0822531
0.0414278
0.0858399
0.0187354
0.0784668
-0.0138183
0.0710497
-0.0457382
0.0643842
-0.0125048
0.0584156
-0.0512914
0.0558124
-0.0911482
0.0521875
-0.014029
0.0471539
0.0407078
0.0500734
0.116571
0.0621956
0.0784338
0.0697956
0.00535553
0.0710059
-0.0322113
0.0650766
-0.124369
0.0542471
-0.1092
0.046788
-0.0526098
0.0397334
-0.00228007
0.042475
0.189574
0.0588562
0.10889
0.0592584
-0.0809271
-0.0546399
0.0566532
-0.00439302
0.0592059
-0.00599577
0.05935
0.00775742
0.05237
-0.0120336
0.05316
-0.00915759
0.0600889
0.0298816
0.0720317
0.0362234
0.0846155
0.0288441
0.08765
0.0157009
0.0802581
-0.00642644
0.0757389
-0.0412189
0.0726991
-0.0094651
0.0653875
-0.0439797
0.0604233
-0.086184
0.0563389
-0.00994455
0.0516732
0.0453734
0.0568702
0.111374
0.0696558
0.0656482
0.0760386
-0.00102727
0.0757583
-0.031931
0.0680448
-0.116655
0.0555771
-0.0967326
0.0466018
-0.0436345
0.0391606
0.00516113
0.0455255
0.183209
0.0639724
0.0904435
0.0630624
-0.0800171
-0.0474261
0.0608007
-0.00264008
0.0629921
-0.00818718
0.0655788
0.00517075
0.0596754
-0.00613021
0.0581214
-0.00760357
0.0657377
0.0222652
0.0759707
0.0259905
0.0844786
0.0203362
0.0880357
0.0121438
0.0827221
-0.00111278
0.0768097
-0.0353065
0.0746061
-0.00726155
0.069023
-0.0383966
0.0629114
-0.0800724
0.0583905
-0.00542364
0.0559379
0.0478261
0.0647461
0.102565
0.0775687
0.0528256
0.081907
-0.0053655
0.0801391
-0.0301631
0.0705834
-0.1071
0.0556877
-0.0818368
0.0452966
-0.0332434
0.0388197
0.0116381
0.05001
0.172019
0.0696912
0.0707623
0.0670117
-0.0773376
-0.0389698
0.068202
-0.00187592
0.0681139
-0.00809903
0.0704259
0.0028587
0.0673862
-0.00309049
0.0648164
-0.00503373
0.0721846
0.014897
0.0791494
0.0190257
0.0832192
0.0162663
0.0869728
0.00839016
0.0840288
0.00183128
0.0796733
-0.0309511
0.0809032
-0.00849141
0.0759357
-0.0334291
0.0650616
-0.0691983
0.0593282
0.000309732
0.0606419
0.0465123
0.0731163
0.0900911
0.0854424
0.0404995
0.0875201
-0.00744312
0.0841535
-0.0267965
0.0729908
-0.095937
0.0565225
-0.0653685
0.0450797
-0.0218005
0.0397237
0.0169941
0.0561423
0.1556
0.0761572
0.0507474
0.0712122
-0.0723926
-0.0291066
0.0743515
-0.00138813
0.0736586
-0.00740612
0.0752906
0.00122669
0.0741973
-0.00199719
0.0716118
-0.00244818
0.0764777
0.0100312
0.0817772
0.0137261
0.0851807
0.0128629
0.0886495
0.00492142
0.0881182
0.00236249
0.0828556
-0.0256884
0.081292
-0.00692781
0.0750831
-0.0272203
0.062358
-0.0564731
0.0582295
0.00443817
0.0648468
0.039895
0.0811875
0.0737505
0.0928186
0.0288684
0.0924849
-0.00710947
0.0886613
-0.0229729
0.0754194
-0.0826951
0.056801
-0.0467501
0.046164
-0.0111636
0.0431485
0.0200096
0.0643789
0.13437
0.0832673
0.031859
0.0753056
-0.064431
-0.0180249
0.0808356
-0.00156666
0.0798305
-0.00640104
0.0804012
0.000656064
0.0805241
-0.00212013
0.0785335
-0.000457606
0.0819819
0.00658273
0.0859154
0.00979271
0.0886914
0.0100868
0.0915981
0.00201468
0.0923564
0.00160425
0.0872809
-0.020613
0.0871598
-0.00680675
0.0832968
-0.0233572
0.0674686
-0.0406449
0.063866
0.00804076
0.0739024
0.0298587
0.0906583
0.0569946
0.0985589
0.0209678
0.0952078
-0.00375835
0.0917045
-0.0194696
0.0788806
-0.0698712
0.0619228
-0.0297924
0.0519558
-0.0011965
0.0485158
0.0234496
0.0732071
0.109679
0.0906137
0.0144524
0.0791455
-0.0529628
-0.0056098
0.0873503
-0.00162305
0.0862979
-0.00534861
0.0867433
0.000210681
0.0869481
-0.00232494
0.085691
0.000799444
0.0881515
0.00412232
0.0911551
0.00678902
0.0943099
0.00693212
0.095291
0.00103352
0.0960701
0.00082518
0.0915655
-0.0161084
0.0900184
-0.00525962
0.0858896
-0.0192284
0.0728913
-0.0276467
0.0733146
0.00761747
0.0820903
0.021083
0.0968152
0.0422697
0.104702
0.013081
0.101035
-9.12675e-05
0.0956117
-0.0140465
0.0790503
-0.0533098
0.0647398
-0.0154818
0.0592163
0.00432706
0.0575556
0.0251102
0.0836107
0.0836236
0.0972694
0.000793643
0.0824403
-0.0381337
0.00701796
0.0943299
-0.00181806
0.0932126
-0.00423134
0.093526
-0.000102699
0.0936038
-0.00240271
0.0930743
0.00132893
0.0953985
0.00179813
0.09681
0.00537752
0.0998963
0.00384576
0.100201
0.000728431
0.100856
0.000170903
0.0973413
-0.012594
0.0953319
-0.00325024
0.0919026
-0.0157991
0.081196
-0.01694
0.0840076
0.0048058
0.0905048
0.0145859
0.10014
0.0326347
0.105351
0.00786953
0.102887
0.00237314
0.103028
-0.0141877
0.0896074
-0.0398892
0.077342
-0.00321643
0.0748023
0.00686672
0.0722338
0.0276787
0.0920088
0.0638487
0.099819
-0.00701654
0.0857176
-0.0240323
0.0173915
0.101561
-0.00199427
0.100558
-0.00322875
0.100793
-0.000337132
0.100863
-0.00247317
0.10059
0.00160191
0.102308
8.00458e-05
0.10347
0.00421593
0.105719
0.00159678
0.105628
0.000819511
0.105998
-0.000199437
0.102646
-0.00924205
0.101279
-0.00188291
0.098657
-0.0131772
0.0907356
-0.00901866
0.0930975
0.00244393
0.0975721
0.0101113
0.106198
0.0240086
0.109816
0.00425198
0.106917
0.00527161
0.103823
-0.0110931
0.0914168
-0.0274835
0.0853177
0.00288273
0.0880478
0.0041366
0.0891089
0.0266177
0.104647
0.0483104
0.104278
-0.00664753
0.0879171
-0.00767128
0.025164
0.109113
-0.00210319
0.108316
-0.0024316
0.108474
-0.000494943
0.108354
-0.00235319
0.108373
0.00158307
0.10967
-0.00121733
0.110135
0.00375061
0.11193
-0.000197906
0.111592
0.00115722
0.111771
-0.000378108
0.109537
-0.00700817
0.108042
-0.000388136
0.105667
-0.0108018
0.100433
-0.00378519
0.1028
7.7009e-05
0.105268
0.00764373
0.111355
0.0179213
0.115099
0.000508529
0.113026
0.00734436
0.111413
-0.00947982
0.101292
-0.0173629
0.0969088
0.00726621
0.100687
0.000358155
0.101358
0.0259471
0.112845
0.0368235
0.113921
-0.0077237
0.101399
0.00485101
0.0312649
0.116956
-0.00205939
0.11639
-0.00186586
0.116408
-0.000513191
0.116325
-0.00227021
0.11633
0.00157816
0.117013
-0.00190039
0.117523
0.00324054
0.118406
-0.00108085
0.118344
0.00121882
0.118322
-0.000355763
0.116379
-0.00506551
0.115533
0.000458289
0.113631
-0.00889969
0.110205
-0.000358856
0.111623
-0.00134169
0.113762
0.00550498
0.118411
0.0132721
0.120087
-0.00116764
0.118923
0.0085089
0.116849
-0.00740603
0.109658
-0.010172
0.107602
0.00932211
0.109699
-0.00173844
0.111779
0.0238665
0.119415
0.0291876
0.117227
-0.00553563
0.109268
0.0128106
0.0327171
0.125142
-0.00179216
0.124785
-0.00150847
0.124758
-0.000486474
0.12448
-0.00199201
0.124747
0.00131121
0.124804
-0.0019575
0.125443
0.00260151
0.125623
-0.0012608
0.125785
0.00105702
0.125659
-0.000230532
0.124307
-0.00371275
0.123889
0.000875532
0.121801
-0.00681138
0.120445
0.000997182
0.120875
-0.00177193
0.122355
0.00402464
0.125817
0.0098107
0.126347
-0.00169799
0.126564
0.00829218
0.124081
-0.0049227
0.119339
-0.00542994
0.118721
0.00993985
0.11837
-0.0013873
0.121829
0.0204073
0.127644
0.0233725
0.123826
-0.00171794
0.119615
0.0170223
0.0313473
0.133869
-0.00145946
0.13355
-0.0011893
0.133512
-0.00044811
0.133164
-0.001644
0.133509
0.000965858
0.133239
-0.00168694
0.133895
0.00194545
0.133786
-0.0011523
0.133988
0.000854704
0.133978
-0.000220033
0.132775
-0.00250938
0.132785
0.000865086
0.130957
-0.00498344
0.130393
0.00156074
0.13032
-0.00169863
0.131394
0.00295045
0.134041
0.00716399
0.133734
-0.00139077
0.134527
0.00749924
0.132312
-0.00270798
0.128984
-0.00210227
0.1295
0.00942473
0.128303
-0.000190424
0.131342
0.0173679
0.135625
0.0190898
0.132086
0.00182104
0.130707
0.0184015
0.028575
0.143127
-0.00109913
0.142842
-0.000904985
0.142805
-0.000411063
0.142414
-0.00125287
0.142776
0.000603863
0.142391
-0.00130162
0.143018
0.00131786
0.142786
-0.000919906
0.143007
0.000633676
0.142975
-0.000187812
0.142104
-0.00163861
0.142199
0.000769851
0.140619
-0.00340366
0.140593
0.00158739
0.14016
-0.00126556
0.1409
0.00221017
0.142778
0.00528569
0.142141
-0.00075374
0.143284
0.00635694
0.141374
-0.000798167
0.1392
7.13596e-05
0.140145
0.00848009
0.13847
0.00148434
0.141373
0.0144653
0.14453
0.0159327
0.141536
0.00481454
0.141767
0.0181705
0.0253109
0.153033
-0.000805284
0.152765
-0.00063762
0.152719
-0.000365156
0.152376
-0.000909651
0.152652
0.00032832
0.152331
-0.000981124
0.152783
0.000866174
0.1526
-0.000736669
0.152749
0.000484115
0.152737
-0.000175641
0.152074
-0.00097565
0.152151
0.000692872
0.15096
-0.00221266
0.151041
0.00150668
0.150515
-0.000740059
0.150999
0.00172651
0.152313
0.00397126
0.15167
-0.000110485
0.15276
0.00526681
0.151387
0.000575519
0.149908
0.00155011
0.150835
0.00755285
0.149437
0.00288211
0.15176
0.0121423
0.154056
0.0136375
0.152001
0.00686954
0.153194
0.0169775
0.022049
0.163601
-0.000558462
0.163388
-0.000424483
0.163322
-0.0002999
0.163059
-0.000646152
0.16323
0.000156913
0.162976
-0.000727252
0.163294
0.000549063
0.163121
-0.000563775
0.16324
0.000365194
0.16316
-9.60132e-05
0.16272
-0.000535706
0.162746
0.00066654
0.16184
-0.00130677
0.161997
0.00135016
0.161483
-0.000226538
0.161798
0.00141197
0.162692
0.00307718
0.162129
0.000452911
0.163059
0.00433649
0.162098
0.00153607
0.161178
0.00247094
0.162018
0.00671224
0.160983
0.00391731
0.162742
0.010383
0.164573
0.0118073
0.163418
0.00802381
0.165053
0.015343
0.0190323
0.174897
-0.000365856
0.174741
-0.000268362
0.17466
-0.00021882
0.174469
-0.000455672
0.174548
7.76919e-05
0.174358
-0.000536755
0.174549
0.000358368
0.174386
-0.000401037
0.174467
0.000283892
0.174361
1.02706e-05
0.174066
-0.000241081
0.174062
0.000671061
0.173414
-0.000659253
0.173557
0.00120747
0.173146
0.000184857
0.173323
0.00123487
0.173923
0.00247672
0.173496
0.000880389
0.174218
0.00361382
0.173625
0.00212966
0.173123
0.00297239
0.17378
0.00605543
0.173165
0.00453252
0.17456
0.00898782
0.176066
0.0103011
0.175616
0.00847375
0.177372
0.0135877
0.0163044
0.186958
-0.000210774
0.18685
-0.000160484
0.186765
-0.000133632
0.186621
-0.000312067
0.186652
4.67772e-05
0.186483
-0.000367571
0.186605
0.00023688
0.186438
-0.000234236
0.1865
0.000222077
0.18638
0.000129634
0.186181
-4.16042e-05
0.186186
0.000665879
0.185718
-0.000190924
0.185855
0.00107015
0.185549
0.000491137
0.185639
0.00114445
0.186054
0.00206215
0.185743
0.00119075
0.186297
0.00306037
0.185984
0.00244209
0.185751
0.00320601
0.18633
0.00547613
0.18609
0.00477207
0.187207
0.00787098
0.188489
0.00901885
0.188616
0.00834683
0.19033
0.0118743
0.0138929
0.199839
-9.28881e-05
0.199761
-8.26378e-05
0.199686
-5.9104e-05
0.199572
-0.000197591
0.199573
4.5817e-05
0.199428
-0.000223125
0.199492
0.000172741
0.199347
-8.89497e-05
0.199375
0.000193624
0.199282
0.000223115
0.199136
0.000104327
0.199159
0.000643336
0.19884
0.000127921
0.198952
0.000958144
0.198757
0.000686042
0.1988
0.00110177
0.199087
0.00177452
0.1989
0.00137772
0.199316
0.00264454
0.199212
0.00254632
0.1992
0.00321754
0.199757
0.00491979
0.199778
0.00475041
0.200727
0.00692209
0.20188
0.00786625
0.202406
0.00782042
0.203997
0.0102834
0.0117794
0.213589
-8.67053e-06
0.21353
-2.29922e-05
0.213474
-3.13559e-06
0.213378
-0.000102283
0.213372
5.18158e-05
0.21325
-0.000100875
0.213282
0.000141262
0.213168
2.45216e-05
0.21317
0.000191459
0.213113
0.000279908
0.213001
0.000216588
0.21304
0.000604088
0.212835
0.000333235
0.212927
0.00086626
0.212831
0.00078253
0.212862
0.00107043
0.213082
0.00155476
0.21301
0.00144916
0.213328
0.00232676
0.213389
0.0024848
0.21352
0.00308699
0.214056
0.00438377
0.214302
0.00450461
0.215187
0.00603707
0.216233
0.00681992
0.21699
0.00706364
0.218472
0.00880118
0.00991996
0.228276
4.53446e-05
0.228233
2.03951e-05
0.228193
3.62304e-05
0.228123
-3.20913e-05
0.228111
6.40342e-05
0.228024
-1.41285e-05
0.228033
0.000132053
0.227956
0.000101879
0.227946
0.000201129
0.227917
0.000309408
0.227845
0.000288858
0.227886
0.000562446
0.227774
0.000445316
0.227855
0.000784829
0.227835
0.000803037
0.227891
0.00101454
0.228078
0.00136735
0.228105
0.00142271
0.228383
0.00204859
0.228545
0.00232223
0.22878
0.00285214
0.22933
0.00383393
0.229745
0.00409017
0.23059
0.00519144
0.231574
0.00583622
0.232464
0.00617404
0.233851
0.00741397
0.0082628
0.243974
7.28235e-05
0.243942
5.16647e-05
0.24392
5.85002e-05
0.243871
1.71898e-05
0.243861
7.35902e-05
0.243807
4.02757e-05
0.243807
0.000132152
0.243768
0.000140098
0.243758
0.000211265
0.243758
0.000309589
0.243723
0.00032361
0.243769
0.000516533
0.243733
0.000481152
0.243811
0.000706923
0.243852
0.000762091
0.243942
0.000925304
0.24412
0.00118934
0.244233
0.00130898
0.244503
0.00177893
0.244746
0.00207879
0.245072
0.00252617
0.245632
0.00327378
0.246158
0.0035651
0.246995
0.00435444
0.247957
0.00487414
0.248911
0.00521928
0.250212
0.00611301
0.00675576
0.260761
8.37474e-05
0.260745
6.76612e-05
0.260734
6.86532e-05
0.260706
4.57474e-05
0.260703
7.67587e-05
0.260674
6.88753e-05
0.260679
0.000126998
0.260668
0.00015133
0.260674
0.000205722
0.260696
0.000286975
0.260699
0.000320482
0.260761
0.000454462
0.260782
0.000460939
0.260874
0.000614021
0.260962
0.000675019
0.261081
0.000805651
0.261273
0.00099751
0.261448
0.00113427
0.261736
0.00149035
0.262051
0.00176366
0.262446
0.00213167
0.263028
0.00269167
0.263637
0.00295568
0.264472
0.00351971
0.26542
0.00392598
0.266412
0.00422811
0.267655
0.00487
0.00535124
0.278718
7.9272e-05
0.278718
6.81956e-05
0.278719
6.75935e-05
0.27871
5.45805e-05
0.278714
7.30602e-05
0.278708
7.44863e-05
0.278722
0.000113435
0.278734
0.000139121
0.278759
0.000180598
0.278802
0.000243829
0.278843
0.000279254
0.278924
0.000373281
0.278992
0.000393566
0.279109
0.000497279
0.279231
0.000552428
0.279387
0.000650042
0.279597
0.000787721
0.279822
0.000909264
0.280143
0.0011692
0.280514
0.00139236
0.280972
0.0016742
0.281587
0.00207584
0.282254
0.00228907
0.283093
0.00268084
0.284042
0.00297697
0.285057
0.00321268
0.286264
0.00366307
0.00401029
0.297926
6.1547e-05
0.297939
5.54526e-05
0.297953
5.38616e-05
0.29796
4.74463e-05
0.297975
5.80971e-05
0.297987
6.18844e-05
0.298013
8.73641e-05
0.298046
0.000106548
0.29809
0.000136449
0.298155
0.000178786
0.298226
0.000207964
0.298331
0.000269102
0.298436
0.000288348
0.298577
0.000355928
0.298734
0.000395523
0.298922
0.000462217
0.299157
0.000552796
0.299425
0.000640879
0.29978
0.000814611
0.300202
0.000970544
0.300714
0.00116158
0.301365
0.00142542
0.30208
0.00157351
0.302939
0.00182235
0.303898
0.00201775
0.304932
0.00217862
0.306128
0.002467
0.00269364
0.318478
3.45641e-05
0.318501
3.16835e-05
0.318524
3.07547e-05
0.318544
2.81021e-05
0.318569
3.28886e-05
0.318595
3.57623e-05
0.318634
4.82605e-05
0.318682
5.89979e-05
0.318744
7.45431e-05
0.318826
9.63569e-05
0.318921
0.000112738
0.319047
0.000143158
0.319181
0.000154957
0.319348
0.000188375
0.319534
0.000209332
0.319753
0.000243711
0.320017
0.000288964
0.320322
0.00033583
0.320713
0.000423775
0.321178
0.000504781
0.321737
0.000603008
0.322427
0.00073511
0.323189
0.00081129
0.324078
0.000934128
0.325064
0.00103188
0.326129
0.00111296
0.32734
0.00125587
0.00137054
0.34051
0.340542
0.340573
0.340601
0.340634
0.340669
0.340718
0.340777
0.340851
0.340947
0.34106
0.341203
0.341358
0.341547
0.341756
0.342
0.342289
0.342625
0.343048
0.343553
0.344156
0.344891
0.345702
0.346637
0.347668
0.348781
0.350037
)
;

boundaryField
{
    outlet
    {
        type            calculated;
        value           nonuniform List<scalar> 
40
(
0.0535638
0.0535549
0.0534239
0.0531983
0.0528577
0.0524744
0.0520561
0.0516588
0.0511838
0.050715
0.0452903
0.0478669
0.0505161
0.0531507
0.0558486
0.0585555
0.061349
0.0642239
0.0667305
0.0698126
0.075344
0.0801447
0.0952976
0.107816
0.120984
0.133479
0.145031
0.156455
0.168069
0.1801
0.192741
0.206111
0.220332
0.235508
0.251719
0.269059
0.287605
0.307445
0.328663
0.351408
)
;
    }
    upperWall
    {
        type            symmetryPlane;
        value           uniform 0;
    }
    lowerWall
    {
        type            symmetryPlane;
        value           nonuniform 0();
    }
    inlet
    {
        type            calculated;
        value           nonuniform 0();
    }
    cylinder
    {
        type            calculated;
        value           nonuniform 0();
    }
    frontAndBack
    {
        type            empty;
        value           nonuniform 0();
    }
    procBoundary7to3
    {
        type            processor;
        value           nonuniform List<scalar> 
30
(
0.0898035
0.0684849
0.0383734
-0.020855
-0.0578928
-0.0894645
-0.101025
-0.0909164
-0.11402
-0.0533803
-0.00276015
0.0407739
0.102045
0.0881067
0.12555
0.0823524
-0.0129543
-0.0392869
-0.143369
-0.140589
-0.0604507
-0.017814
0.14393
0.167038
0.0691217
0.0216168
-0.173507
-0.193669
0.0655562
0.0943722
)
;
    }
    procBoundary7to6
    {
        type            processor;
        value           nonuniform List<scalar> 
42
(
-0.0349841
-0.0315094
-0.029105
-0.0286523
-0.0290717
-0.0300769
-0.0550608
-0.0279219
-0.0286199
-0.0282146
-0.0286287
-0.0359132
-0.0429046
-0.0446509
-0.0498707
-0.0513234
-0.0594163
-0.0625536
-0.0689662
-0.0748393
-0.0806571
-0.0872939
-0.0941349
-0.101385
-0.109004
-0.116999
-0.125409
-0.134202
-0.143487
-0.153327
-0.163848
-0.175089
-0.187113
-0.199956
-0.213673
-0.22833
-0.244001
-0.260771
-0.278714
-0.297908
-0.318451
-0.340476
)
;
    }
}


// ************************************************************************* //
