/*--------------------------------*- C++ -*----------------------------------*\
| =========                 |                                                 |
| \\      /  F ield         | OpenFOAM: The Open Source CFD Toolbox           |
|  \\    /   O peration     | Version:                                        |
|   \\  /    A nd           | Website:  www.openfoam.com                      |
|    \\/     M anipulation  |                                                 |
\*---------------------------------------------------------------------------*/
FoamFile
{
    version     2.0;
    format      ascii;
    class       volVectorField;
    location    "154";
    object      U;
}
// * * * * * * * * * * * * * * * * * * * * * * * * * * * * * * * * * * * * * //

dimensions      [0 1 -1 0 0 0 0];


internalField   nonuniform List<vector> 
1147
(
(0.070621 0.0431649 2.41753e-20)
(0.0813984 0.0607648 1.12323e-19)
(0.0680672 0.0559501 3.94533e-19)
(0.0454371 0.0377711 -5.41505e-19)
(0.0276094 0.0143093 1.95634e-19)
(0.00644142 0.0144384 8.70157e-20)
(-0.0190328 0.0510069 -6.16291e-20)
(0.0175222 0.0934534 3.626e-19)
(0.140856 0.0627272 -6.7777e-20)
(0.330806 -0.0591655 -5.82942e-20)
(0.106354 0.0260719 1.40187e-19)
(0.103823 0.0819222 5.95764e-19)
(0.0745055 0.0944088 -2.17724e-19)
(0.057144 0.0853653 -3.14708e-20)
(0.0802037 0.0803804 3.01923e-19)
(0.16355 0.0944095 -5.02217e-19)
(0.465988 0.0446575 1.76249e-19)
(0.870975 -0.0786525 -1.6897e-19)
(1.00479 -0.14691 7.42806e-20)
(1.13642 -0.215138 3.59237e-21)
(0.126936 -0.0380946 -4.68853e-20)
(0.112901 0.0622004 -4.38721e-19)
(0.099668 0.122064 8.61889e-20)
(0.193029 0.131611 -5.65827e-20)
(0.455201 0.0846097 -1.21964e-19)
(0.837428 -0.00750629 1.79532e-19)
(1.08066 -0.0616808 -1.19844e-19)
(1.23243 -0.1187 -1.03921e-19)
(1.3157 -0.196846 4.908e-21)
(1.35725 -0.251003 -1.09639e-20)
(0.186244 -0.0616027 6.64156e-20)
(0.182745 0.063603 1.86148e-19)
(0.293611 0.139512 -5.78063e-20)
(0.60535 0.105977 -4.52599e-21)
(0.959922 0.0236381 8.23412e-20)
(1.20775 -0.0416481 1.63665e-19)
(1.30604 -0.082559 2.63716e-19)
(1.36492 -0.131866 -9.22059e-20)
(1.38884 -0.190243 -1.03238e-19)
(1.37821 -0.22543 -1.88827e-20)
(0.300618 -0.0268682 5.49032e-19)
(0.368947 0.0895972 -1.41398e-19)
(0.614357 0.135209 6.16917e-20)
(0.981194 0.0696631 2.16679e-20)
(1.2535 -0.00723199 3.47512e-19)
(1.33674 -0.0424786 -3.93771e-20)
(1.36486 -0.0812256 -1.23014e-19)
(1.39472 -0.13155 2.43074e-19)
(1.37162 -0.17032 3.3501e-21)
(1.36219 -0.207506 4.27666e-20)
(0.482801 0.0355787 -3.2601e-19)
(0.612428 0.116094 -1.47073e-19)
(0.920941 0.118507 1.30506e-19)
(1.24459 0.0383056 -1.17409e-19)
(1.3613 -0.0105742 -5.51011e-20)
(1.34265 -0.0317831 3.39874e-19)
(1.37763 -0.0797196 -2.05539e-20)
(1.37381 -0.122702 -3.74515e-20)
(1.33712 -0.153763 -2.55552e-20)
(1.34677 -0.197615 1.80405e-20)
(0.664719 0.102979 2.40278e-20)
(0.855961 0.136925 1.81026e-19)
(1.18206 0.0975275 -1.58249e-19)
(1.38047 0.0237741 2.41977e-19)
(1.34857 0.00115821 -6.17386e-19)
(1.32657 -0.023737 -2.31647e-19)
(1.37885 -0.0791405 -4.48863e-20)
(1.32384 -0.107285 2.82834e-20)
(1.32494 -0.143733 6.44733e-21)
(1.31756 -0.186542 -8.404e-21)
(0.844953 0.160617 -5.16147e-20)
(1.09274 0.147759 5.16624e-19)
(1.36065 0.0821944 -1.50219e-19)
(1.39276 0.0237231 -2.38971e-20)
(1.29486 0.0182175 2.70142e-19)
(1.33774 -0.0263367 1.3017e-19)
(1.34696 -0.0741072 -1.34623e-19)
(1.28494 -0.0925113 6.18297e-20)
(1.32028 -0.141122 -5.12408e-20)
(1.2748 -0.170166 1.56842e-20)
(1.04235 0.200133 5.00408e-19)
(1.28952 0.153571 4.09291e-19)
(1.41686 0.0757371 -3.0962e-19)
(1.32834 0.0426028 2.92108e-21)
(1.27602 0.0252032 1.70962e-19)
(1.34322 -0.0314595 -7.19591e-20)
(1.29698 -0.0618932 5.16804e-20)
(1.27148 -0.0867387 2.04649e-20)
(1.30208 -0.134575 -7.527e-20)
(1.23737 -0.153864 4.86583e-21)
(1.21475 0.232246 -3.76083e-19)
(1.37488 0.160456 -6.62036e-19)
(1.36918 0.0941304 7.64185e-19)
(1.26463 0.0604547 -1.47482e-19)
(1.28331 0.0250834 -1.82997e-19)
(1.32361 -0.0295643 -3.87986e-20)
(1.24845 -0.0502138 1.22819e-19)
(1.27494 -0.084978 -1.1814e-19)
(1.26207 -0.122787 -8.62375e-21)
(1.22237 -0.143112 -4.20287e-21)
(1.35282 0.18635 3.40615e-19)
(1.27836 0.109741 -3.13856e-19)
(1.23161 0.0758819 1.05831e-19)
(1.28899 0.0234697 1.04889e-19)
(1.27132 -0.0199722 -2.06057e-20)
(1.22929 -0.0427735 4.28205e-20)
(1.26432 -0.081515 3.17916e-20)
(1.22418 -0.111388 4.61615e-20)
(1.21942 -0.135019 1.86943e-20)
(1.25929 0.196914 -1.99461e-21)
(1.19962 0.126393 1.38441e-19)
(1.22733 0.0797319 3.21069e-20)
(1.25887 0.0263623 -1.9407e-19)
(1.22308 -0.00940073 -1.67601e-20)
(1.2261 -0.0388169 -1.14657e-19)
(1.23611 -0.0771286 -1.07715e-20)
(1.20418 -0.100705 -1.88272e-20)
(1.20941 -0.130387 -1.12243e-20)
(1.15804 0.125553 -1.4408e-19)
(1.21517 0.0765409 7.31736e-20)
(1.20715 0.031986 -2.06802e-19)
(1.20098 -0.00259122 -5.67898e-20)
(1.21394 -0.0405672 2.79765e-20)
(1.20753 -0.065811 -2.6948e-20)
(1.19361 -0.0985976 3.39282e-20)
(1.18956 -0.118583 9.35488e-22)
(1.13914 0.108817 2.18209e-19)
(1.17866 0.0727521 2.533e-20)
(1.17389 0.0326193 1.16636e-19)
(1.18191 -0.00677007 1.16321e-19)
(1.19689 -0.0348299 5.68444e-20)
(1.18072 -0.0642946 1.10321e-20)
(1.184 -0.0914802 -3.17752e-20)
(1.16723 -0.110594 6.29219e-21)
(1.15862 0.0578265 -5.00937e-20)
(1.13748 0.0260461 -5.18912e-20)
(1.176 -0.00742215 -8.33524e-20)
(1.16456 -0.0373248 4.90545e-22)
(1.16942 -0.0580388 -1.81985e-21)
(1.1653 -0.0895392 7.15343e-21)
(1.15356 -0.103444 5.29528e-21)
(1.11671 0.0450802 5.64692e-20)
(1.12412 0.0180722 9.31794e-20)
(1.15601 -0.0129183 -2.64215e-20)
(1.14112 -0.0359235 -8.33394e-21)
(1.15905 -0.0609034 6.74074e-20)
(1.14856 -0.0820429 -3.13243e-20)
(1.14422 -0.1035 3.47514e-21)
(1.08085 0.02703 2.902e-20)
(1.11798 0.0149926 -1.74882e-20)
(1.13161 -0.0251261 2.50139e-20)
(1.1274 -0.0320604 3.7107e-20)
(1.14979 -0.0680866 1.69857e-20)
(1.12975 -0.0762624 1.97009e-20)
(1.14318 -0.102123 3.09232e-21)
(1.10672 -0.00688688 -6.83489e-20)
(1.1139 -0.0236463 -3.34361e-22)
(1.12037 -0.0444855 -7.34993e-20)
(1.13774 -0.0613928 9.66464e-21)
(1.11444 -0.0808495 -1.9982e-20)
(1.13695 -0.0946445 -5.29511e-21)
(1.09516 -0.0164794 -2.41079e-21)
(1.10501 -0.0208331 6.03454e-20)
(1.10867 -0.0507731 -1.09492e-20)
(1.12427 -0.0564314 -1.92599e-21)
(1.10519 -0.0803491 -3.79495e-21)
(1.11682 -0.0918618 -3.03915e-21)
(1.11429 -0.0237963 3.97816e-20)
(1.06093 -0.0339766 -1.18831e-19)
(1.12287 -0.0506112 3.31863e-21)
(1.08357 -0.0698609 -1.13161e-20)
(1.11518 -0.0749466 9.12808e-21)
(1.08295 -0.09763 -6.86241e-22)
(0.102445 0.841068 -2.40091e-20)
(0.084904 0.734182 -4.93302e-20)
(0.066391 0.576252 -4.00393e-22)
(0.0113076 0.3644 -9.89278e-21)
(-0.0404791 0.156815 1.46766e-19)
(-0.089041 -0.0334915 -5.53722e-20)
(-0.103066 -0.15891 1.56062e-20)
(-0.0787022 -0.182833 4.03458e-19)
(-0.0173279 -0.10432 3.63727e-19)
(0.0401095 -0.0110882 -7.0187e-19)
(-0.0139331 1.04245 2.95538e-20)
(-0.0616591 0.905775 -5.27388e-20)
(-0.11794 0.770754 -1.11911e-19)
(-0.173174 0.552776 4.17593e-20)
(-0.201801 0.349733 -2.72769e-19)
(-0.19539 0.116788 -1.12978e-19)
(-0.139246 -0.0771747 -1.09398e-19)
(-0.0515705 -0.196049 6.87798e-20)
(0.0331022 -0.174337 -1.75469e-19)
(0.0806183 -0.0771267 2.36352e-19)
(-0.0443346 1.06826 2.19658e-20)
(-0.150553 0.972453 3.49754e-20)
(-0.246507 0.85193 1.50713e-19)
(-0.326119 0.691385 -1.10523e-19)
(-0.345753 0.504005 3.82082e-19)
(-0.293175 0.284318 1.02957e-19)
(-0.176276 0.0532627 3.65707e-19)
(-0.0275731 -0.139729 2.59895e-20)
(0.0719663 -0.20636 1.01462e-19)
(0.110431 -0.151696 -3.05073e-20)
(-0.202281 1.03322 -1.48386e-20)
(-0.344481 0.954894 -9.28528e-20)
(-0.430008 0.827824 2.80469e-20)
(-0.451828 0.666235 -8.58512e-20)
(-0.365214 0.461114 -4.13629e-19)
(-0.198169 0.208087 1.53282e-19)
(-0.00950203 -0.0339678 -2.99701e-19)
(0.114381 -0.16178 -9.45006e-19)
(0.164677 -0.160731 -2.53482e-19)
(-0.42353 0.640251 6.76833e-19)
(-0.211786 0.381452 2.51781e-19)
(0.0142229 0.105631 -5.42323e-19)
(0.18007 -0.0524167 4.69678e-19)
(0.26297 -0.100004 4.53806e-19)
(-0.196131 0.554641 -1.41751e-19)
(0.0885678 0.262532 -1.70019e-19)
(0.298223 0.0827776 -5.92491e-19)
(0.414666 -0.00545496 -1.00341e-19)
(0.160606 0.405636 1.19597e-19)
(0.422442 0.213195 9.30273e-20)
(0.567729 0.0929321 -1.82498e-20)
(0.523283 0.325486 2.83248e-19)
(0.695409 0.189748 1.7395e-19)
(0.838337 0.269981 -9.37483e-19)
(1.06736 -0.0796724 -2.76183e-22)
(1.07699 -0.0744171 2.39178e-21)
(1.07843 -0.0634491 -2.55266e-21)
(1.06686 -0.065858 9.13057e-22)
(1.053 -0.0561681 6.91111e-22)
(1.04238 -0.0496222 -1.49918e-22)
(1.03688 -0.0416959 -5.21359e-22)
(1.03737 -0.0373927 1.51806e-22)
(1.04086 -0.0354758 1.82434e-22)
(1.04416 -0.0342391 -1.97619e-22)
(1.04522 -0.0328329 6.72552e-23)
(1.04405 -0.0305672 2.60371e-23)
(1.04137 -0.0279594 -9.94352e-23)
(1.03733 -0.0248729 1.67209e-22)
(1.03281 -0.021992 -1.21109e-22)
(1.02905 -0.019393 1.07389e-22)
(1.02618 -0.0172992 -5.43146e-23)
(1.02433 -0.0155762 -3.44893e-23)
(1.02297 -0.0141141 -4.68237e-24)
(1.02176 -0.0126691 -1.09759e-23)
(1.02053 -0.0112427 -1.70502e-23)
(1.01933 -0.00980796 -8.49103e-23)
(1.01818 -0.00843392 1.73686e-23)
(1.01717 -0.00711289 -1.68003e-22)
(1.01626 -0.00581978 -4.63838e-23)
(1.01549 -0.00461917 1.05139e-22)
(1.01481 -0.00357931 -2.56088e-24)
(1.01427 -0.00228232 -1.04206e-23)
(1.01392 -0.00135565 9.03488e-23)
(1.01373 -0.000623188 -2.08106e-22)
(1.11381 -0.0701616 -1.73473e-20)
(1.07465 -0.0826229 5.11577e-21)
(1.04721 -0.0710705 1.21293e-21)
(1.04738 -0.0680785 3.40029e-22)
(1.05518 -0.0622988 -2.0032e-22)
(1.05845 -0.0611184 -2.82916e-22)
(1.05662 -0.0568985 -8.07601e-22)
(1.05276 -0.0515634 1.01536e-21)
(1.04975 -0.0448073 3.77843e-23)
(1.04713 -0.0388432 -5.90953e-22)
(1.04461 -0.0342953 5.8688e-23)
(1.04152 -0.031706 5.86062e-23)
(1.03778 -0.0293551 -3.76466e-23)
(1.03385 -0.0276429 2.40058e-22)
(1.03085 -0.0257331 2.65529e-22)
(1.02857 -0.0235757 -3.87626e-22)
(1.02689 -0.0208967 -8.47354e-23)
(1.02574 -0.0182703 4.77205e-22)
(1.02458 -0.0158042 -7.14484e-22)
(1.02332 -0.0136906 -2.12971e-23)
(1.02189 -0.0118279 4.54003e-22)
(1.02048 -0.0101704 2.95912e-22)
(1.01912 -0.00865053 -3.62553e-23)
(1.01796 -0.00722572 3.17345e-22)
(1.01692 -0.00587992 -2.15259e-23)
(1.01606 -0.00464253 -1.39481e-22)
(1.01532 -0.00359251 1.24129e-22)
(1.01474 -0.00230348 1.59016e-23)
(1.01433 -0.00136862 -2.19637e-22)
(1.0141 -0.000625074 1.63185e-22)
(1.05595 -0.0625603 1.85407e-20)
(1.07259 -0.0570807 -3.23868e-22)
(1.08518 -0.0491402 -7.55777e-21)
(1.07544 -0.0525307 1.31279e-21)
(1.05844 -0.0476767 -2.35532e-21)
(1.04624 -0.043521 3.30896e-21)
(1.0413 -0.0393893 4.62181e-21)
(1.0424 -0.0374243 -2.52946e-21)
(1.04531 -0.0367447 3.14526e-22)
(1.04707 -0.0353356 2.38175e-22)
(1.04683 -0.033916 -1.14861e-22)
(1.04532 -0.0313982 -1.12674e-22)
(1.04204 -0.0284382 -3.18709e-22)
(1.03779 -0.0251574 6.6067e-22)
(1.03372 -0.022181 -5.53436e-23)
(1.03021 -0.0193014 -4.03689e-23)
(1.0275 -0.01702 -1.08166e-21)
(1.02561 -0.0151728 4.1472e-22)
(1.02408 -0.0136151 9.1327e-23)
(1.02275 -0.0121502 6.56684e-23)
(1.02147 -0.0107426 3.58573e-22)
(1.02019 -0.00936399 -3.85407e-23)
(1.01895 -0.00807305 -7.7989e-23)
(1.01785 -0.00684385 -8.70702e-22)
(1.0168 -0.00562515 7.92747e-22)
(1.01596 -0.00448924 -8.11393e-22)
(1.01524 -0.00349948 -8.73053e-23)
(1.01467 -0.00225314 -2.20223e-22)
(1.01426 -0.00134587 -5.94066e-23)
(1.01402 -0.000615858 3.17168e-22)
(1.11639 -0.0454734 3.05356e-20)
(1.06594 -0.0579865 -1.73413e-20)
(1.03115 -0.058347 -4.94433e-22)
(1.03352 -0.0634405 2.50521e-21)
(1.04761 -0.0633417 -3.83966e-21)
(1.05431 -0.0626962 3.58654e-21)
(1.05262 -0.0562323 4.22661e-23)
(1.04868 -0.0487323 -1.8858e-21)
(1.04662 -0.0402123 1.48216e-21)
(1.04441 -0.0343197 -2.4389e-22)
(1.04384 -0.0311707 1.5172e-22)
(1.04227 -0.029771 -9.27001e-22)
(1.03856 -0.0279614 2.13229e-22)
(1.03505 -0.0271362 7.25375e-22)
(1.03216 -0.0256428 -9.81119e-22)
(1.02941 -0.0234706 1.72284e-21)
(1.0275 -0.0206933 2.49409e-22)
(1.02622 -0.0179558 -2.21715e-24)
(1.02495 -0.0153962 -2.33826e-21)
(1.02373 -0.0132959 1.74241e-21)
(1.02241 -0.0114576 -2.95231e-22)
(1.02105 -0.00982603 -3.2051e-22)
(1.01976 -0.00836099 -6.84458e-22)
(1.01859 -0.00699181 9.96131e-22)
(1.01748 -0.00570633 3.7376e-22)
(1.01657 -0.00453237 -4.93826e-22)
(1.01578 -0.00352725 3.39475e-23)
(1.01514 -0.00228364 4.30186e-22)
(1.01469 -0.00136002 2.78627e-22)
(1.0144 -0.000616881 -1.08478e-22)
(1.04949 -0.0351296 3.31869e-20)
(1.07716 -0.0395011 3.23261e-20)
(1.09007 -0.0413685 -1.46481e-20)
(1.07823 -0.0454718 -3.41103e-21)
(1.06195 -0.0429071 -4.28098e-21)
(1.05282 -0.0413793 4.4584e-21)
(1.0503 -0.042883 -3.00659e-21)
(1.05195 -0.0438024 4.75447e-22)
(1.05108 -0.0421757 8.7067e-22)
(1.04866 -0.0386616 8.77401e-23)
(1.04781 -0.0367857 -2.83116e-22)
(1.0456 -0.0328419 2.31319e-23)
(1.04116 -0.0288992 9.89127e-23)
(1.03784 -0.0257572 5.25794e-22)
(1.03442 -0.0227516 -8.44484e-23)
(1.03104 -0.0196663 -4.76036e-22)
(1.02872 -0.0173325 -7.53807e-22)
(1.02673 -0.0152523 -3.84092e-23)
(1.02497 -0.0134734 7.68477e-22)
(1.02351 -0.0119307 1.05734e-21)
(1.02214 -0.0104808 -9.03259e-22)
(1.02076 -0.00911149 -5.22201e-22)
(1.01953 -0.00786221 4.7919e-22)
(1.01837 -0.00666679 -6.0197e-22)
(1.01728 -0.00549477 -5.35692e-22)
(1.01642 -0.00440728 6.40022e-22)
(1.01564 -0.00345029 -4.75244e-22)
(1.01503 -0.0022424 -2.62017e-22)
(1.01459 -0.00133945 9.73973e-23)
(1.01431 -0.000607616 -6.57349e-22)
(1.04906 -0.0307907 1.17824e-21)
(1.04543 -0.0286055 -1.0092e-21)
(1.04107 -0.0269966 3.23878e-21)
(1.0385 -0.0271667 -1.82058e-21)
(1.03431 -0.0254905 1.22114e-23)
(1.03096 -0.0232825 -1.4468e-21)
(1.02893 -0.02055 1.8671e-21)
(1.02714 -0.0176534 -1.36283e-21)
(1.02565 -0.0150558 3.00044e-22)
(1.02431 -0.0130046 -8.44825e-22)
(1.02289 -0.0111797 9.61913e-22)
(1.02147 -0.00958564 1.1092e-21)
(1.02023 -0.00817153 5.4966e-22)
(1.01898 -0.00682718 7.03356e-22)
(1.01787 -0.00559705 -1.48183e-21)
(1.01697 -0.0044683 1.05375e-22)
(1.01613 -0.00349004 2.60022e-22)
(1.01548 -0.00228388 9.64856e-22)
(1.015 -0.0013584 -2.02207e-22)
(1.0147 -0.000609763 -1.90663e-22)
(0.975231 -0.144582 -1.47386e-20)
(0.989892 -0.13503 1.49153e-21)
(0.999345 -0.128952 4.41946e-21)
(1.01619 -0.127941 1.53453e-20)
(1.03189 -0.123266 -1.63341e-20)
(1.04518 -0.120917 8.44559e-21)
(1.05656 -0.119316 2.08431e-20)
(1.07595 -0.111625 8.2774e-21)
(1.07167 -0.111451 -1.1321e-20)
(1.10186 -0.097143 6.43533e-22)
(0.96936 -0.153292 2.124e-20)
(0.987055 -0.154319 5.49162e-21)
(0.998243 -0.149346 1.48816e-21)
(1.01619 -0.147501 -1.3301e-20)
(1.03412 -0.141896 -4.84382e-21)
(1.05139 -0.136418 3.50826e-20)
(1.06212 -0.131732 -7.25315e-21)
(1.08153 -0.12172 -3.03407e-21)
(1.09124 -0.114747 -3.20022e-21)
(1.09774 -0.10216 -2.88593e-22)
(0.961364 -0.156603 1.37926e-20)
(0.985153 -0.165951 -9.03104e-21)
(1.00021 -0.161088 7.36556e-21)
(1.02046 -0.161572 -4.99229e-21)
(1.04018 -0.156328 -2.2047e-20)
(1.05857 -0.147076 -7.16353e-21)
(1.07825 -0.142852 -2.94971e-20)
(1.08212 -0.129464 -1.55281e-20)
(1.11459 -0.120909 -1.00547e-20)
(1.09741 -0.108783 1.77049e-21)
(0.953325 -0.163675 1.20026e-20)
(0.980537 -0.174536 -3.90054e-21)
(1.00168 -0.171969 -2.10769e-20)
(1.0227 -0.169257 3.09962e-22)
(1.0493 -0.16881 -7.92806e-21)
(1.05974 -0.157089 3.21768e-21)
(1.09602 -0.150493 3.25055e-20)
(1.08755 -0.140083 -1.36071e-21)
(1.12627 -0.127561 4.08402e-20)
(1.11238 -0.112583 3.75976e-21)
(0.948938 -0.17757 8.0344e-21)
(0.974948 -0.186588 -1.07213e-21)
(1.00135 -0.185251 1.85496e-20)
(1.01998 -0.180836 2.07027e-20)
(1.05656 -0.177544 1.31096e-20)
(1.06354 -0.171594 2.23621e-20)
(1.09739 -0.157868 -6.33113e-21)
(1.10709 -0.149651 1.19878e-20)
(1.12257 -0.136032 -2.05798e-21)
(1.1355 -0.118541 -5.75024e-21)
(0.947549 -0.193815 2.80258e-21)
(0.971789 -0.202584 -2.37492e-21)
(1.00363 -0.201183 -5.20835e-21)
(1.01936 -0.197444 -3.81696e-20)
(1.05389 -0.189894 1.19326e-20)
(1.07753 -0.184115 -1.49166e-20)
(1.09147 -0.17167 -5.66588e-21)
(1.12207 -0.158115 -1.66126e-20)
(1.12716 -0.14332 -2.90805e-21)
(1.14787 -0.12901 7.75192e-21)
(0.946482 -0.212825 -7.66234e-21)
(0.969074 -0.21969 -6.65924e-21)
(1.00371 -0.219312 8.88287e-21)
(1.02917 -0.215092 5.11817e-20)
(1.0495 -0.207239 3.19381e-20)
(1.08639 -0.198497 5.64977e-20)
(1.09982 -0.184097 2.99918e-22)
(1.12498 -0.173315 1.96995e-21)
(1.14118 -0.149587 -7.19965e-21)
(1.15727 -0.138949 7.35058e-21)
(0.94248 -0.231588 -1.82632e-20)
(0.971893 -0.24008 2.61975e-21)
(0.999809 -0.237611 -1.15594e-20)
(1.03691 -0.234623 -5.23455e-21)
(1.05918 -0.222924 -5.82952e-20)
(1.08765 -0.217494 -2.77585e-20)
(1.11558 -0.19667 3.55994e-20)
(1.13173 -0.186999 -4.32641e-20)
(1.15673 -0.161675 3.70109e-20)
(1.16678 -0.147192 -8.65912e-21)
(0.932776 -0.253784 1.36113e-20)
(0.972731 -0.260333 7.10233e-21)
(1.00434 -0.260291 -1.61269e-20)
(1.03614 -0.254943 -4.52651e-21)
(1.07113 -0.243328 -5.23588e-20)
(1.09565 -0.232298 1.26275e-20)
(1.12566 -0.216914 -6.19057e-20)
(1.14622 -0.197612 5.01224e-21)
(1.17031 -0.177071 -9.87842e-21)
(1.18124 -0.154871 -1.12864e-20)
(0.926383 -0.278402 -5.89682e-21)
(0.966783 -0.284132 3.76541e-22)
(1.00871 -0.282085 -2.08539e-20)
(1.04339 -0.278536 -2.22401e-20)
(1.0754 -0.264387 1.04632e-19)
(1.11135 -0.252099 2.03925e-20)
(1.13273 -0.232063 1.63025e-20)
(1.16691 -0.215894 -8.04636e-21)
(1.17718 -0.186666 2.62575e-20)
(1.20642 -0.169397 1.04298e-20)
(0.922706 -0.30683 1.82368e-20)
(0.9655 -0.310736 -2.00399e-20)
(1.00581 -0.308472 6.80442e-20)
(1.05153 -0.301252 -5.09055e-20)
(1.08154 -0.289464 2.59709e-20)
(1.1237 -0.270666 -6.20482e-20)
(1.14297 -0.252856 -1.27907e-20)
(1.18665 -0.229329 -5.60261e-21)
(1.18595 -0.202642 5.94473e-21)
(1.23635 -0.180506 -1.08182e-21)
(0.917612 -0.338399 6.35178e-21)
(0.966917 -0.340783 1.67034e-20)
(1.01137 -0.338321 -3.9706e-20)
(1.05435 -0.327268 9.59476e-21)
(1.09807 -0.315978 1.26958e-20)
(1.12992 -0.292212 -1.17039e-20)
(1.16653 -0.274495 1.01528e-20)
(1.19581 -0.244868 1.95074e-20)
(1.21177 -0.219935 -1.07515e-20)
(1.25549 -0.192169 -2.75103e-20)
(0.917203 -0.375293 1.77073e-20)
(0.963282 -0.375181 -7.13865e-21)
(1.02297 -0.37282 4.1116e-23)
(1.05733 -0.358304 1.65649e-20)
(1.11836 -0.345719 5.21601e-20)
(1.13783 -0.317593 3.00231e-20)
(1.19558 -0.29973 4.23752e-20)
(1.2035 -0.261353 -2.2633e-20)
(1.24911 -0.241164 -3.92611e-20)
(1.26176 -0.200851 3.10381e-20)
(0.914541 -0.41282 7.41149e-21)
(0.96484 -0.415001 1.68898e-20)
(1.02917 -0.407145 -2.18611e-20)
(1.07197 -0.394748 -1.15502e-20)
(1.13047 -0.374218 -1.67131e-19)
(1.16041 -0.347857 -6.93721e-20)
(1.21446 -0.321809 -1.32354e-19)
(1.22561 -0.283483 5.02332e-20)
(1.27855 -0.25793 1.48826e-20)
(1.27408 -0.212192 -2.10603e-20)
(0.903622 -0.455312 -5.82691e-21)
(0.970552 -0.460156 1.50574e-21)
(1.02917 -0.446435 2.0218e-20)
(1.09206 -0.434832 -9.01974e-20)
(1.13819 -0.406228 -1.63234e-20)
(1.19105 -0.381718 7.54815e-20)
(1.22592 -0.344821 1.18131e-19)
(1.262 -0.310696 -1.17965e-19)
(1.29458 -0.272067 5.28951e-20)
(1.30575 -0.231925 -7.89781e-22)
(0.901608 -0.507612 -2.43257e-20)
(0.975945 -0.508003 6.84682e-20)
(1.04087 -0.494151 8.20511e-21)
(1.11053 -0.475176 -1.00661e-20)
(1.15892 -0.444304 2.4213e-19)
(1.22035 -0.413042 -1.44138e-19)
(1.24928 -0.37236 -1.01059e-20)
(1.30026 -0.335479 6.92436e-20)
(1.31424 -0.289453 8.58264e-20)
(1.34918 -0.252798 9.37867e-21)
(0.899885 -0.569808 4.33703e-20)
(0.978133 -0.567578 -5.44105e-20)
(1.05632 -0.551508 -9.05401e-20)
(1.12758 -0.526698 1.35022e-19)
(1.18747 -0.490024 -7.26694e-20)
(1.24692 -0.44965 1.27435e-19)
(1.28471 -0.402689 2.42536e-19)
(1.33044 -0.359542 -6.52759e-20)
(1.34669 -0.311866 -8.709e-20)
(1.37861 -0.272326 -2.48992e-20)
(0.898021 -0.632961 -1.39009e-19)
(0.986919 -0.632739 -5.35984e-20)
(1.07151 -0.612387 -5.30627e-21)
(1.14966 -0.589298 4.01371e-20)
(1.21585 -0.545518 -9.19001e-20)
(1.27659 -0.503607 1.22478e-19)
(1.31805 -0.443236 -1.63621e-19)
(1.35418 -0.394 3.25176e-20)
(1.36788 -0.339228 -2.31021e-20)
(1.37529 -0.293065 -9.2783e-21)
(0.906852 -0.710474 1.06604e-19)
(1.00615 -0.694187 5.95376e-20)
(1.10776 -0.661815 1.19404e-20)
(1.18291 -0.617167 -4.58638e-20)
(1.2598 -0.55905 1.02719e-19)
(1.30029 -0.502783 -1.36324e-19)
(1.33631 -0.431616 -1.74589e-19)
(1.32885 -0.374291 -5.61454e-21)
(1.30446 -0.305775 7.12806e-21)
(1.24559 -0.261669 5.93677e-20)
(0.684631 -0.685197 7.44628e-20)
(0.764197 -0.662573 -3.04241e-19)
(0.842565 -0.629976 -3.15374e-20)
(0.886498 -0.570494 3.61864e-19)
(0.933126 -0.508675 -3.62729e-19)
(0.919317 -0.43147 1.45174e-19)
(0.92093 -0.360718 -9.76142e-20)
(0.834939 -0.285958 2.98413e-20)
(0.766014 -0.207877 6.25909e-20)
(0.592026 -0.158444 4.10561e-20)
(0.892246 -0.0910823 -7.61629e-20)
(0.908364 -0.108612 -6.19043e-20)
(0.925973 -0.11831 2.2006e-20)
(0.94826 -0.128032 2.9012e-21)
(0.875819 -0.082739 -4.40171e-20)
(0.890476 -0.0954991 -1.61629e-20)
(0.909281 -0.113595 1.70481e-20)
(0.92806 -0.123734 4.86291e-20)
(0.948427 -0.129379 1.20599e-20)
(0.843399 -0.0491963 -4.88825e-20)
(0.853808 -0.0678833 1.74862e-20)
(0.868425 -0.0898914 3.66745e-20)
(0.884569 -0.103125 1.18861e-19)
(0.904416 -0.121874 -1.76948e-20)
(0.925088 -0.135979 -6.68531e-20)
(0.942088 -0.137589 -9.07328e-21)
(0.817561 0.0208287 -4.41662e-21)
(0.817513 -0.00506045 4.08897e-20)
(0.821728 -0.0281258 4.55015e-21)
(0.830846 -0.0544202 -5.11447e-21)
(0.842119 -0.0747726 9.41948e-21)
(0.857874 -0.0992329 -4.65011e-20)
(0.87496 -0.113279 -1.15679e-19)
(0.89533 -0.132026 1.03494e-19)
(0.918637 -0.150253 4.66504e-20)
(0.936384 -0.153244 -3.9434e-20)
(0.801307 0.0228126 -3.63243e-21)
(0.801542 -0.00602727 9.8119e-21)
(0.806304 -0.0317694 -2.8233e-22)
(0.816084 -0.0604133 -1.2443e-20)
(0.828131 -0.0825386 6.16274e-20)
(0.844836 -0.109725 2.11632e-20)
(0.863139 -0.125922 6.47655e-21)
(0.882705 -0.143064 1.34629e-20)
(0.909735 -0.164476 3.00137e-20)
(0.931637 -0.171281 -1.18263e-20)
(0.78317 0.0247215 7.05175e-21)
(0.783889 -0.00727639 2.89509e-20)
(0.789204 -0.035787 5.59519e-21)
(0.799607 -0.067073 1.88372e-20)
(0.812572 -0.090801 -9.56272e-20)
(0.83036 -0.12072 7.08154e-20)
(0.850729 -0.140339 -2.03268e-20)
(0.869089 -0.156548 -4.10626e-20)
(0.897664 -0.177468 -6.41883e-21)
(0.926365 -0.18981 -8.87152e-21)
(0.762307 0.0264207 -6.25405e-21)
(0.763512 -0.00893307 2.84507e-20)
(0.769466 -0.0403175 -5.24246e-21)
(0.780632 -0.0746326 -1.9692e-20)
(0.794687 -0.100264 -5.93813e-21)
(0.813664 -0.131929 -6.75839e-20)
(0.837628 -0.156057 9.42902e-20)
(0.855997 -0.172867 -4.192e-20)
(0.884473 -0.192139 -8.62557e-21)
(0.917016 -0.207268 2.71636e-20)
(0.739102 0.0279174 -5.19291e-22)
(0.740685 -0.0109863 -2.97626e-20)
(0.747311 -0.0454279 -1.04111e-19)
(0.75942 -0.083183 9.29796e-21)
(0.774995 -0.111365 -4.2001e-20)
(0.794932 -0.143914 2.36791e-20)
(0.82343 -0.172035 -6.74074e-20)
(0.844089 -0.192065 6.48513e-20)
(0.872126 -0.209538 -1.01268e-20)
(0.905339 -0.226435 -2.46211e-20)
(0.712422 0.0293124 1.04479e-20)
(0.714383 -0.013537 1.64731e-20)
(0.72188 -0.0512604 7.93066e-20)
(0.73529 -0.0926682 6.6782e-21)
(0.752717 -0.124708 -2.18985e-20)
(0.773117 -0.158022 7.33591e-21)
(0.80609 -0.188773 -5.87583e-20)
(0.83174 -0.212868 2.77865e-20)
(0.862218 -0.230519 -1.79445e-20)
(0.89478 -0.248061 3.58988e-20)
(0.683119 0.0308139 -1.69201e-20)
(0.685424 -0.0165458 -3.70073e-20)
(0.693801 -0.0579393 -2.2017e-20)
(0.708814 -0.102984 5.1455e-20)
(0.729073 -0.1398 4.92571e-20)
(0.750046 -0.174753 3.19424e-20)
(0.786329 -0.206927 -4.23563e-20)
(0.817177 -0.23508 -2.12965e-21)
(0.851534 -0.253781 -1.3707e-20)
(0.888147 -0.272552 -1.32425e-20)
(0.649719 0.0321623 1.7772e-20)
(0.652461 -0.020158 7.62808e-21)
(0.662057 -0.0659571 3.04375e-20)
(0.679024 -0.114479 -8.2784e-20)
(0.702625 -0.156691 2.35953e-20)
(0.724852 -0.194905 -2.79357e-20)
(0.763658 -0.228071 -1.00217e-19)
(0.800706 -0.259294 -1.14072e-20)
(0.839839 -0.279993 -6.18665e-20)
(0.879311 -0.29964 -3.70326e-20)
(0.613058 0.0337543 -3.5314e-20)
(0.616571 -0.0243933 6.01575e-20)
(0.627194 -0.0752972 4.04468e-20)
(0.646149 -0.127536 -3.30324e-20)
(0.674089 -0.174933 3.58644e-20)
(0.699093 -0.217715 4.6734e-20)
(0.739675 -0.25271 1.02492e-19)
(0.781318 -0.286466 8.4001e-20)
(0.826923 -0.309003 1.25155e-20)
(0.872555 -0.32997 4.864e-20)
(0.571266 0.035056 2.30384e-20)
(0.575481 -0.0293777 2.073e-20)
(0.587658 -0.0866369 -4.25272e-20)
(0.608751 -0.143124 2.09108e-20)
(0.640829 -0.195484 -1.32335e-19)
(0.669937 -0.243922 -1.4573e-20)
(0.713008 -0.281456 -2.73668e-20)
(0.759973 -0.317763 4.14996e-20)
(0.810201 -0.342582 -1.35782e-20)
(0.862317 -0.363557 -4.68958e-20)
(0.524903 0.0359939 -4.16056e-21)
(0.530274 -0.0352989 -4.84311e-20)
(0.543667 -0.0994037 -2.00728e-20)
(0.566977 -0.161525 9.86986e-20)
(0.604187 -0.218724 2.4215e-19)
(0.639237 -0.272952 -3.3134e-20)
(0.685381 -0.314606 -7.96794e-20)
(0.735663 -0.352576 -2.96718e-20)
(0.794179 -0.380342 -1.73068e-20)
(0.847227 -0.401069 7.62169e-21)
(0.47092 0.0369727 -1.50287e-20)
(0.477556 -0.0422893 6.55469e-20)
(0.493089 -0.114808 -2.71263e-20)
(0.518755 -0.183717 -3.67004e-20)
(0.560053 -0.246485 -2.53654e-19)
(0.602162 -0.307158 1.47355e-19)
(0.655331 -0.353594 8.56915e-20)
(0.710652 -0.395093 -6.58664e-20)
(0.775246 -0.42373 7.35838e-20)
(0.83682 -0.447504 1.15967e-20)
(0.411428 0.0370604 1.1007e-20)
(0.418661 -0.050752 2.76589e-20)
(0.436397 -0.131578 5.11633e-21)
(0.464951 -0.209154 -7.97747e-20)
(0.511542 -0.277901 1.4741e-19)
(0.561447 -0.345354 -2.16814e-19)
(0.620676 -0.397749 4.50404e-20)
(0.684949 -0.442812 5.76094e-20)
(0.756737 -0.474409 -8.13748e-20)
(0.828705 -0.498335 -1.16627e-21)
(0.339398 0.0364637 1.45652e-20)
(0.348199 -0.0611441 7.6533e-21)
(0.371235 -0.152947 6.20158e-20)
(0.402636 -0.240022 -8.9323e-20)
(0.451423 -0.316475 1.72958e-19)
(0.510431 -0.389898 5.22845e-20)
(0.58044 -0.450447 6.09913e-20)
(0.649056 -0.499045 1.79883e-21)
(0.734593 -0.53522 3.38958e-20)
(0.811819 -0.55885 1.97473e-20)
(0.258889 0.0367591 -1.2673e-20)
(0.269094 -0.0739351 -4.2933e-20)
(0.298215 -0.176612 -1.52627e-19)
(0.336395 -0.275502 1.33407e-19)
(0.393182 -0.361166 -1.96362e-19)
(0.454505 -0.440089 -4.71887e-20)
(0.540124 -0.506423 -5.56318e-20)
(0.616362 -0.560021 -2.09805e-20)
(0.713257 -0.598277 -2.05391e-20)
(0.801452 -0.624078 3.36253e-20)
(0.158181 0.0367349 1.84935e-20)
(0.168368 -0.0911171 -5.52527e-21)
(0.207156 -0.208264 1.62354e-20)
(0.245336 -0.322428 5.55875e-20)
(0.316607 -0.425042 1.64675e-19)
(0.385956 -0.51427 -9.45492e-21)
(0.483107 -0.589901 1.54984e-20)
(0.577715 -0.646692 2.57602e-20)
(0.68856 -0.687909 -2.44654e-21)
(0.7938 -0.706986 6.30379e-21)
(0.050196 0.0234853 6.8299e-21)
(0.0600245 -0.0916666 -3.76849e-20)
(0.0924075 -0.202003 4.06429e-20)
(0.126219 -0.308692 1.02093e-20)
(0.184356 -0.406892 -1.93187e-20)
(0.248953 -0.493431 -1.1648e-19)
(0.326576 -0.567269 9.41486e-20)
(0.412518 -0.623377 -2.24919e-20)
(0.502376 -0.664396 -1.41027e-20)
(0.593402 -0.681355 5.0774e-20)
(0.938036 -0.0943836 -2.04984e-21)
(0.905506 -0.1073 1.76912e-20)
(0.919954 -0.117429 -7.25766e-20)
(0.939767 -0.126418 -2.30949e-20)
(0.959156 -0.0894824 0)
(0.968382 -0.0951612 0)
(0.970823 -0.0902281 0)
(0.973212 -0.0829144 0)
(0.976991 -0.0749533 0)
(0.982915 -0.0695445 0)
(0.991225 -0.0665209 0)
(0.999462 -0.0643013 0)
(1.00625 -0.0618598 0)
(1.01005 -0.0578404 0)
(1.01169 -0.0526587 0)
(1.01201 -0.0464186 0)
(1.01291 -0.0403698 0)
(1.014 -0.0349701 0)
(1.01505 -0.0305105 0)
(1.01597 -0.0269682 0)
(1.01658 -0.0242654 0)
(1.01693 -0.0220329 0)
(1.01695 -0.0200239 0)
(1.01669 -0.0179954 0)
(1.01624 -0.0159569 0)
(1.0157 -0.0139399 0)
(1.0151 -0.0120056 0)
(1.01444 -0.0101471 0)
(1.01375 -0.00838453 0)
(1.01304 -0.00672847 0)
(1.01242 -0.00505628 0)
(1.01201 -0.00301795 0)
(1.01092 -0.00157707 0)
(1.01078 -0.000644432 0)
(0.959347 -0.127454 0)
(0.969277 -0.104166 0)
(0.975585 -0.0907792 0)
(0.979812 -0.0816894 0)
(0.982276 -0.0746739 0)
(0.98442 -0.0690085 0)
(0.98762 -0.0654767 0)
(0.993281 -0.0638067 0)
(1.00013 -0.0625068 0)
(1.00612 -0.0600145 0)
(1.01001 -0.0555439 0)
(1.01278 -0.0494338 0)
(1.0146 -0.042721 0)
(1.01643 -0.0362157 0)
(1.01797 -0.0310207 0)
(1.01886 -0.0270195 0)
(1.01911 -0.0242048 0)
(1.01902 -0.0219836 0)
(1.01874 -0.0200051 0)
(1.01823 -0.017955 0)
(1.01756 -0.0159242 0)
(1.01679 -0.0139206 0)
(1.01598 -0.0119868 0)
(1.01514 -0.010136 0)
(1.0143 -0.00836165 0)
(1.01348 -0.00669995 0)
(1.01276 -0.00505655 0)
(1.01233 -0.00297772 0)
(1.01143 -0.00152569 0)
(1.01131 -0.000645776 0)
(0.981056 -0.122239 8.96083e-21)
(0.98438 -0.110994 -7.31101e-21)
(0.984732 -0.101052 6.72593e-21)
(0.985214 -0.0916048 -9.96261e-21)
(0.986852 -0.0826551 6.33937e-21)
(0.989953 -0.0754737 1.65234e-21)
(0.994802 -0.070221 -2.83564e-21)
(1.00101 -0.0662277 -1.58272e-21)
(1.00763 -0.0628892 4.52392e-21)
(1.01305 -0.0586849 -4.06321e-21)
(1.01678 -0.0535382 4.19057e-21)
(1.01841 -0.0472494 -3.65802e-21)
(1.0196 -0.040916 2.75267e-21)
(1.02001 -0.035073 5.62865e-22)
(1.01989 -0.0302927 -1.77776e-21)
(1.0195 -0.0265965 -2.319e-21)
(1.01899 -0.0238804 1.53695e-21)
(1.01864 -0.0216663 -1.14695e-21)
(1.01832 -0.0196567 1.26222e-21)
(1.01794 -0.0176074 -2.33743e-21)
(1.01739 -0.015554 1.72031e-21)
(1.01673 -0.0135333 -7.62289e-22)
(1.01598 -0.0116181 1.54754e-21)
(1.01516 -0.00979003 -1.38049e-21)
(1.01431 -0.00806288 9.04902e-22)
(1.01346 -0.00646052 -9.66921e-23)
(1.0127 -0.0048845 -6.14931e-22)
(1.01228 -0.00284447 2.32598e-22)
(1.01167 -0.00145192 -3.18794e-23)
(1.01158 -0.000637674 3.55575e-22)
(0.996085 -0.105719 -2.90133e-21)
(0.995222 -0.096043 -1.58949e-21)
(0.993685 -0.0853107 2.77684e-21)
(0.994982 -0.077926 -3.68509e-21)
(0.996051 -0.0720978 3.66301e-22)
(0.997502 -0.0675921 1.15023e-21)
(1.00066 -0.0642326 -9.05773e-22)
(1.00609 -0.0623678 1.80334e-22)
(1.01193 -0.0603028 -1.60982e-21)
(1.0166 -0.0570888 3.82003e-22)
(1.01915 -0.0522931 3.00835e-21)
(1.02093 -0.0461893 -5.01663e-21)
(1.02181 -0.039883 2.89947e-21)
(1.02248 -0.0339263 7.21813e-22)
(1.02291 -0.0292514 -3.91478e-21)
(1.02277 -0.0256932 4.75991e-21)
(1.02216 -0.0231502 -2.76908e-21)
(1.02137 -0.0210447 -1.74088e-21)
(1.02055 -0.0191001 5.11507e-21)
(1.01965 -0.0170682 1.40873e-21)
(1.0187 -0.0150698 -4.39227e-21)