/*--------------------------------*- C++ -*----------------------------------*\
| =========                 |                                                 |
| \\      /  F ield         | OpenFOAM: The Open Source CFD Toolbox           |
|  \\    /   O peration     | Version:                                        |
|   \\  /    A nd           | Website:  www.openfoam.com                      |
|    \\/     M anipulation  |                                                 |
\*---------------------------------------------------------------------------*/
FoamFile
{
    version     2.0;
    format      ascii;
    class       volScalarField;
    location    "0.1";
    object      p;
}
// * * * * * * * * * * * * * * * * * * * * * * * * * * * * * * * * * * * * * //

dimensions      [0 2 -2 0 0 0 0];


internalField   nonuniform List<scalar> 
400
(
0.754819
0.751893
0.745279
0.735309
0.722929
0.708887
0.693753
0.678015
0.662066
0.646195
0.630605
0.615431
0.600761
0.58664
0.573086
0.560097
0.547656
0.535737
0.524308
0.513334
0.755773
0.752774
0.746005
0.735838
0.723268
0.709062
0.693796
0.677958
0.661939
0.646021
0.630402
0.615214
0.60054
0.586423
0.572878
0.559901
0.547475
0.535573
0.524161
0.513203
0.757704
0.754554
0.747464
0.736895
0.723939
0.709403
0.693872
0.677836
0.661676
0.645665
0.629991
0.614776
0.600096
0.585987
0.572461
0.55951
0.547114
0.535245
0.523866
0.512943
0.760662
0.75727
0.749672
0.738475
0.724928
0.709892
0.693962
0.677628
0.66126
0.645114
0.629361
0.614108
0.599421
0.585327
0.571831
0.55892
0.546571
0.534751
0.523424
0.512552
0.764725
0.760979
0.752648
0.74057
0.726211
0.710497
0.694035
0.677307
0.660668
0.644348
0.628494
0.613198
0.598506
0.584436
0.570984
0.558129
0.545845
0.534094
0.522836
0.512034
0.770006
0.765762
0.756419
0.743165
0.727752
0.711176
0.694045
0.676833
0.659865
0.643338
0.627371
0.612029
0.597341
0.583308
0.569916
0.557137
0.544937
0.533274
0.522106
0.511392
0.776666
0.771723
0.76101
0.746232
0.729501
0.711868
0.693934
0.676152
0.658806
0.64205
0.625964
0.610583
0.595912
0.581935
0.568624
0.555943
0.543849
0.532297
0.521239
0.510633
0.784925
0.779001
0.766446
0.749727
0.731385
0.712494
0.693626
0.675199
0.657441
0.640445
0.624246
0.608842
0.594211
0.580315
0.567112
0.554554
0.542591
0.531173
0.520247
0.509768
0.795091
0.787765
0.772736
0.753578
0.733304
0.71295
0.693026
0.673897
0.65571
0.638482
0.622192
0.606794
0.592235
0.578453
0.56539
0.552984
0.54118
0.529921
0.51915
0.508817
0.807593
0.798226
0.779864
0.757671
0.735123
0.7131
0.69202
0.672159
0.653553
0.636126
0.619786
0.604441
0.589998
0.576371
0.563484
0.551264
0.539647
0.528571
0.517975
0.507807
0.823044
0.810628
0.787759
0.761836
0.736658
0.71278
0.690477
0.669898
0.650923
0.633359
0.617038
0.601807
0.587537
0.574113
0.561442
0.549442
0.53804
0.527169
0.516767
0.506777
0.842331
0.825241
0.796261
0.765821
0.73767
0.711791
0.688265
0.667044
0.647802
0.630206
0.613995
0.598958
0.584924
0.571754
0.559339
0.547588
0.536423
0.525774
0.515577
0.505773
0.866782
0.842324
0.805055
0.769264
0.737861
0.709929
0.685281
0.663581
0.644235
0.626746
0.61076
0.596004
0.58227
0.569399
0.557271
0.54579
0.534875
0.524455
0.514465
0.504845
0.898428
0.862068
0.813594
0.771668
0.736889
0.707014
0.681496
0.659582
0.640349
0.623133
0.60749
0.593095
0.579712
0.56717
0.555347
0.544142
0.533477
0.52328
0.513487
0.504039
0.940317
0.884442
0.821005
0.772419
0.734438
0.702981
0.677018
0.65524
0.636363
0.619579
0.604375
0.590394
0.577388
0.565184
0.553661
0.542722
0.53229
0.522297
0.512681
0.503385
0.996576
0.908859
0.826028
0.770935
0.730395
0.698
0.672143
0.650858
0.632543
0.616299
0.601585
0.588032
0.575397
0.563515
0.552268
0.541568
0.531342
0.521525
0.512058
0.502888
1.07275
0.933931
0.827099
0.766914
0.725019
0.692508
0.667275
0.646739
0.629099
0.613433
0.599205
0.586058
0.573764
0.562168
0.551164
0.540669
0.530616
0.520944
0.511599
0.502529
1.18082
0.958444
0.82251
0.759966
0.718416
0.686713
0.662527
0.642903
0.625992
0.610909
0.597147
0.584378
0.572393
0.561054
0.550264
0.539947
0.530042
0.520494
0.511249
0.502261
1.34741
0.981912
0.809859
0.747919
0.709134
0.679707
0.657219
0.638793
0.622756
0.608331
0.595073
0.582701
0.571035
0.559958
0.549383
0.539245
0.529488
0.520061
0.510916
0.502009
1.567
0.99776
0.788543
0.729719
0.696589
0.67122
0.651153
0.634238
0.619237
0.605557
0.592855
0.580914
0.56959
0.55879
0.548443
0.538493
0.528892
0.519594
0.510555
0.501734
)
;

boundaryField
{
    fixedWalls
    {
        type            zeroGradient;
    }
    inlet
    {
        type            zeroGradient;
    }
    outlet
    {
        type            fixedValue;
        value           nonuniform 0();
    }
    frontAndBack
    {
        type            empty;
    }
    procBoundary4to0
    {
        type            processor;
        value           nonuniform List<scalar> 
20
(
0.754819
0.751893
0.745279
0.735309
0.72293
0.708887
0.693753
0.678015
0.662066
0.646195
0.630605
0.615431
0.600761
0.58664
0.573086
0.560096
0.547656
0.535737
0.524308
0.513334
)
;
    }
    procBoundary4to5
    {
        type            processor;
        value           nonuniform List<scalar> 
20
(
0.502772
0.502658
0.502431
0.50209
0.50164
0.501082
0.500425
0.499681
0.498867
0.498009
0.497141
0.496304
0.495538
0.494882
0.494356
0.493964
0.493687
0.493485
0.493297
0.493092
)
;
    }
}


// ************************************************************************* //
