/*--------------------------------*- C++ -*----------------------------------*\
| =========                 |                                                 |
| \\      /  F ield         | OpenFOAM: The Open Source CFD Toolbox           |
|  \\    /   O peration     | Version:                                        |
|   \\  /    A nd           | Website:  www.openfoam.com                      |
|    \\/     M anipulation  |                                                 |
\*---------------------------------------------------------------------------*/
FoamFile
{
    version     2.0;
    format      ascii;
    class       surfaceScalarField;
    location    "0.1";
    object      phi;
}
// * * * * * * * * * * * * * * * * * * * * * * * * * * * * * * * * * * * * * //

dimensions      [0 3 -1 0 0 0 0];
oriented        oriented;


internalField   nonuniform List<scalar> 
760
(
2.50486e-05
-4.86237e-08
2.51927e-05
-1.44085e-07
2.54204e-05
-2.27668e-07
2.5713e-05
-2.92665e-07
2.60515e-05
-3.38519e-07
2.64189e-05
-3.67409e-07
2.68011e-05
-3.82232e-07
2.71873e-05
-3.86146e-07
2.75695e-05
-3.82163e-07
2.79423e-05
-3.72802e-07
2.83024e-05
-3.59975e-07
2.86475e-05
-3.45002e-07
2.89763e-05
-3.2868e-07
2.92877e-05
-3.11399e-07
2.9581e-05
-2.93269e-07
2.98552e-05
-2.74268e-07
3.01094e-05
-2.54369e-07
3.03428e-05
-2.33626e-07
3.05547e-05
-2.12146e-07
-1.90323e-07
2.50499e-05
-9.85021e-08
2.51976e-05
-2.91786e-07
2.54303e-05
-4.60364e-07
2.57283e-05
-5.90739e-07
2.60721e-05
-6.82228e-07
2.64442e-05
-7.39511e-07
2.68305e-05
-7.68566e-07
2.72202e-05
-7.75818e-07
2.76053e-05
-7.67322e-07
2.79806e-05
-7.48089e-07
2.83425e-05
-7.21893e-07
2.86889e-05
-6.91333e-07
2.90182e-05
-6.57984e-07
2.93294e-05
-6.22623e-07
2.96216e-05
-5.85503e-07
2.9894e-05
-5.46633e-07
3.01456e-05
-5.06015e-07
3.03758e-05
-4.63809e-07
3.0584e-05
-4.20296e-07
-3.76288e-07
2.50525e-05
-1.50995e-07
2.52077e-05
-4.47019e-07
2.54508e-05
-7.03441e-07
2.576e-05
-8.99919e-07
2.61143e-05
-1.03657e-06
2.6496e-05
-1.12123e-06
2.68908e-05
-1.16328e-06
2.72876e-05
-1.17263e-06
2.76787e-05
-1.15843e-06
2.80587e-05
-1.12813e-06
2.84241e-05
-1.0873e-06
2.87726e-05
-1.03978e-06
2.91025e-05
-9.87902e-07
2.94127e-05
-9.32849e-07
2.97023e-05
-8.75085e-07
2.99704e-05
-8.14737e-07
3.02163e-05
-7.51932e-07
3.04395e-05
-6.8703e-07
3.06398e-05
-6.20565e-07
-5.53731e-07
2.50567e-05
-2.07692e-07
2.52239e-05
-6.1427e-07
2.54834e-05
-9.62863e-07
2.58099e-05
-1.22643e-06
2.61808e-05
-1.40746e-06
2.65774e-05
-1.51786e-06
2.6985e-05
-1.57094e-06
2.73928e-05
-1.58034e-06
2.77927e-05
-1.55839e-06
2.81795e-05
-1.51493e-06
2.85495e-05
-1.45726e-06
2.89001e-05
-1.39041e-06
2.92297e-05
-1.31748e-06
2.9537e-05
-1.24015e-06
2.98211e-05
-1.15917e-06
3.00813e-05
-1.07495e-06
3.03172e-05
-9.87866e-07
3.05288e-05
-8.98579e-07
3.07162e-05
-8.07968e-07
-7.17617e-07
2.50629e-05
-2.70584e-07
2.52476e-05
-7.98999e-07
2.55304e-05
-1.24562e-06
2.58813e-05
-1.57738e-06
2.62754e-05
-1.80153e-06
2.66928e-05
-1.93527e-06
2.71183e-05
-1.99642e-06
2.75406e-05
-2.00269e-06
2.79519e-05
-1.96968e-06
2.83466e-05
-1.90963e-06
2.87209e-05
-1.83154e-06
2.90721e-05
-1.74165e-06
2.93986e-05
-1.64391e-06
2.9699e-05
-1.5406e-06
2.99728e-05
-1.43297e-06
3.02197e-05
-1.32181e-06
3.04397e-05
-1.20793e-06
3.06335e-05
-1.09239e-06
3.0802e-05
-9.76471e-07
-8.62141e-07
2.50717e-05
-3.42305e-07
2.52809e-05
-1.00818e-06
2.55955e-05
-1.56022e-06
2.59793e-05
-1.9612e-06
2.64043e-05
-2.2265e-06
2.6849e-05
-2.38001e-06
2.72973e-05
-2.44469e-06
2.77374e-05
-2.44283e-06
2.81613e-05
-2.3935e-06
2.85631e-05
-2.31142e-06
2.89389e-05
-2.20742e-06
2.92864e-05
-2.08908e-06
2.96038e-05
-1.96136e-06
2.98906e-05
-1.82734e-06
3.01465e-05
-1.6889e-06
3.03721e-05
-1.54743e-06
3.05684e-05
-1.40422e-06
3.07369e-05
-1.26083e-06
3.08793e-05
-1.11893e-06
-9.80801e-07
2.50842e-05
-4.26532e-07
2.53271e-05
-1.25105e-06
2.56843e-05
-1.91744e-06
2.61113e-05
-2.38819e-06
2.65762e-05
-2.69135e-06
2.70551e-05
-2.85894e-06
2.75304e-05
-2.91997e-06
2.79895e-05
-2.902e-06
2.84241e-05
-2.82807e-06
2.88284e-05
-2.71572e-06
2.91989e-05
-2.57792e-06
2.95337e-05
-2.42386e-06
2.98321e-05
-2.25975e-06
3.00943e-05
-2.08958e-06
3.03215e-05
-1.91606e-06
3.05152e-05
-1.74119e-06
3.06778e-05
-1.5668e-06
3.08118e-05
-1.39488e-06
3.09203e-05
-1.22739e-06
-1.06678e-06
2.51021e-05
-5.28617e-07
2.53914e-05
-1.54033e-06
2.58052e-05
-2.33124e-06
2.62879e-05
-2.87095e-06
2.68026e-05
-3.20602e-06
2.73218e-05
-3.37813e-06
2.78255e-05
-3.42369e-06
2.83005e-05
-3.37695e-06
2.87383e-05
-3.26588e-06
2.91341e-05
-3.11155e-06
2.94858e-05
-2.92956e-06
2.97929e-05
-2.73103e-06
3.00567e-05
-2.52352e-06
3.02791e-05
-2.31203e-06
3.04631e-05
-2.09999e-06
3.06118e-05
-1.88995e-06
3.07292e-05
-1.68413e-06
3.0819e-05
-1.48473e-06
3.08854e-05
-1.29381e-06
-1.11368e-06
2.51281e-05
-6.56693e-07
2.54817e-05
-1.89391e-06
2.59703e-05
-2.81989e-06
2.65238e-05
-3.42444e-06
2.70977e-05
-3.77993e-06
2.76594e-05
-3.93978e-06
2.81862e-05
-3.95058e-06
2.86651e-05
-3.85578e-06
2.90891e-05
-3.68989e-06
2.9456e-05
-3.47848e-06
2.97667e-05
-3.24023e-06
3.00239e-05
-2.98826e-06
3.02317e-05
-2.73132e-06
3.03948e-05
-2.47514e-06
3.05184e-05
-2.22352e-06
3.06076e-05
-1.97919e-06
3.06678e-05
-1.74438e-06
3.07043e-05
-1.52115e-06
3.07217e-05
-1.31129e-06
-1.11668e-06
2.51669e-05
-8.23604e-07
2.56105e-05
-2.3375e-06
2.61974e-05
-3.40683e-06
2.68372e-05
-4.06421e-06
2.74749e-05
-4.41761e-06
2.80714e-05
-4.53625e-06
2.8603e-05
-4.48226e-06
2.90596e-05
-4.31229e-06
2.9439e-05
-4.0693e-06
2.97445e-05
-3.78404e-06
2.99824e-05
-3.47815e-06
3.01603e-05
-3.16615e-06
3.02862e-05
-2.85722e-06
3.03681e-05
-2.55698e-06
3.04135e-05
-2.26889e-06
3.04294e-05
-1.99517e-06
3.04225e-05
-1.73749e-06
3.03987e-05
-1.49729e-06
3.03631e-05
-1.27569e-06
-1.07379e-06
2.52268e-05
-1.05039e-06
2.57972e-05
-2.9079e-06
2.651e-05
-4.11968e-06
2.72465e-05
-4.80067e-06
2.79384e-05
-5.10954e-06
2.85423e-05
-5.1401e-06
2.90389e-05
-4.97889e-06
2.94269e-05
-4.70031e-06
2.97144e-05
-4.3568e-06
2.99139e-05
-3.98355e-06
3.00394e-05
-3.60364e-06
3.01045e-05
-3.23124e-06
3.01216e-05
-2.87432e-06
3.01016e-05
-2.53703e-06
3.00541e-05
-2.22133e-06
2.99871e-05
-1.92814e-06
2.99075e-05
-1.6579e-06
2.98211e-05
-1.41092e-06
2.97327e-05
-1.18729e-06
-9.87128e-07
2.5322e-05
-1.37237e-06
2.60698e-05
-3.65569e-06
2.69336e-05
-4.98355e-06
2.77583e-05
-5.62537e-06
2.84653e-05
-5.8165e-06
2.90164e-05
-5.6912e-06
2.94088e-05
-5.37133e-06
2.96597e-05
-4.95121e-06
2.97933e-05
-4.49034e-06
2.98345e-05
-4.02474e-06
2.98061e-05
-3.57527e-06
2.97274e-05
-3.15259e-06
2.96142e-05
-2.76108e-06
2.94789e-05
-2.40169e-06
2.93313e-05
-2.07376e-06
2.91792e-05
-1.77606e-06
2.90286e-05
-1.50729e-06
2.8884e-05
-1.26634e-06
2.87488e-05
-1.05209e-06
-8.63576e-07
2.54766e-05
-1.84898e-06
2.64632e-05
-4.64229e-06
2.74815e-05
-6.00186e-06
2.8342e-05
-6.48585e-06
2.89743e-05
-6.4488e-06
2.93688e-05
-6.0857e-06
2.95574e-05
-5.55992e-06
2.9586e-05
-4.97979e-06
2.94988e-05
-4.40318e-06
2.93334e-05
-3.85931e-06
2.91192e-05
-3.36106e-06
2.88782e-05
-2.91166e-06
2.86266e-05
-2.50941e-06
2.83755e-05
-2.15062e-06
2.8133e-05
-1.83124e-06
2.79045e-05
-1.54755e-06
2.76936e-05
-1.2964e-06
2.75025e-05
-1.07527e-06
2.73324e-05
-8.81944e-07
-7.14555e-07
2.5727e-05
-2.57596e-06
2.70041e-05
-5.91937e-06
2.81181e-05
-7.11589e-06
2.88827e-05
-7.25048e-06
2.92832e-05
-6.84924e-06
2.93751e-05
-6.17762e-06
2.92437e-05
-5.42858e-06
2.89681e-05
-4.70411e-06
2.86092e-05
-4.04429e-06
2.8211e-05
-3.4611e-06
2.78031e-05
-2.95322e-06
2.74047e-05
-2.51325e-06
2.70274e-05
-2.13214e-06
2.66781e-05
-1.80132e-06
2.63604e-05
-1.51349e-06
2.60757e-05
-1.26284e-06
2.58241e-05
-1.04484e-06
2.56048e-05
-8.55968e-07
2.54162e-05
-6.93336e-07
-5.54561e-07
2.61136e-05
-3.68957e-06
2.76631e-05
-7.46888e-06
2.86882e-05
-8.14098e-06
2.91163e-05
-7.67857e-06
2.9067e-05
-6.7999e-06
2.8698e-05
-5.80863e-06
2.81516e-05
-4.88222e-06
2.75281e-05
-4.08061e-06
2.68905e-05
-3.40669e-06
2.62758e-05
-2.84636e-06
2.57036e-05
-2.38104e-06
2.51831e-05
-1.99273e-06
2.47171e-05
-1.66622e-06
2.43054e-05
-1.38953e-06
2.39454e-05
-1.15355e-06
2.36341e-05
-9.51504e-07
2.33676e-05
-7.78392e-07
2.31421e-05
-6.30448e-07
2.29535e-05
-5.04704e-07
-3.98746e-07
2.66387e-05
-5.32829e-06
2.82496e-05
-9.07981e-06
2.88107e-05
-8.70205e-06
2.85662e-05
-7.43408e-06
2.7848e-05
-6.08166e-06
2.69176e-05
-4.87826e-06
2.59419e-05
-3.90655e-06
2.50076e-05
-3.14629e-06
2.41536e-05
-2.55271e-06
2.33933e-05
-2.08604e-06
2.27269e-05
-1.71457e-06
2.21486e-05
-1.41443e-06
2.16506e-05
-1.16829e-06
2.12249e-05
-9.63774e-07
2.08634e-05
-7.92107e-07
2.0559e-05
-6.47079e-07
2.03049e-05
-5.24268e-07
2.00949e-05
-4.20433e-07
1.99233e-05
-3.33086e-07
-2.6022e-07
2.71459e-05
-7.47416e-06
2.82328e-05
-1.01668e-05
2.77697e-05
-8.23887e-06
2.65369e-05
-6.20131e-06
2.50634e-05
-4.6082e-06
2.36321e-05
-3.44691e-06
2.2354e-05
-2.62845e-06
2.12525e-05
-2.0448e-06
2.0318e-05
-1.61825e-06
1.95305e-05
-1.29853e-06
1.88686e-05
-1.05262e-06
1.8313e-05
-8.58855e-07
1.78476e-05
-7.02928e-07
1.74591e-05
-5.75227e-07
1.71362e-05
-4.69249e-07
1.68697e-05
-3.8055e-07
1.66515e-05
-3.06045e-07
1.64746e-05
-2.43517e-07
1.63328e-05
-1.91298e-07
-1.48046e-07
2.70587e-05
-9.53286e-06
2.65096e-05
-9.61768e-06
2.449e-05
-6.21926e-06
2.2244e-05
-3.95529e-06
2.025e-05
-2.6142e-06
1.8623e-05
-1.81996e-06
1.73239e-05
-1.32929e-06
1.6285e-05
-1.00596e-06
1.54485e-05
-7.81729e-07
1.47695e-05
-6.19492e-07
1.42145e-05
-4.97634e-07
1.37588e-05
-4.03219e-07
1.33841e-05
-3.28174e-07
1.30761e-05
-2.67273e-07
1.2824e-05
-2.17074e-07
1.26187e-05
-1.75279e-07
1.2453e-05
-1.40321e-07
1.23205e-05
-1.11094e-07
1.2216e-05
-8.67742e-08
-6.6704e-08
2.4808e-05
-9.34084e-06
2.11737e-05
-5.98339e-06
1.77406e-05
-2.78613e-06
1.51562e-05
-1.37098e-06
1.33195e-05
-7.77445e-07
1.2009e-05
-5.09483e-07
1.1042e-05
-3.62257e-07
1.03055e-05
-2.69513e-07
9.73108e-06
-2.07266e-07
9.27479e-06
-1.63202e-07
8.9077e-06
-1.30544e-07
8.60997e-06
-1.05486e-07
8.36751e-06
-8.57143e-08
8.16998e-06
-6.97446e-08
8.00953e-06
-5.66158e-08
7.87994e-06
-4.5695e-08
7.77618e-06
-3.65586e-08
7.694e-06
-2.8913e-08
7.62977e-06
-2.25442e-08
-1.72812e-08
1.56592e-05
9.67577e-06
6.88964e-06
5.51866e-06
4.74121e-06
4.23173e-06
3.86948e-06
3.59996e-06
3.3927e-06
3.22949e-06
3.09895e-06
2.99346e-06
2.90775e-06
2.838e-06
2.78139e-06
2.73569e-06
2.69913e-06
2.67022e-06
2.64768e-06
)
;

boundaryField
{
    fixedWalls
    {
        type            calculated;
        value           uniform 0;
    }
    inlet
    {
        type            calculated;
        value           nonuniform List<scalar> 
20
(
-2.5e-05
-2.5e-05
-2.5e-05
-2.5e-05
-2.5e-05
-2.5e-05
-2.5e-05
-2.5e-05
-2.5e-05
-2.5e-05
-2.5e-05
-2.5e-05
-2.5e-05
-2.5e-05
-2.5e-05
-2.5e-05
-2.5e-05
-2.5e-05
-2.5e-05
-2.5e-05
)
;
    }
    outlet
    {
        type            calculated;
        value           nonuniform 0();
    }
    frontAndBack
    {
        type            empty;
        value           nonuniform 0();
    }
    procBoundary4to0
    {
        type            processor;
        value           nonuniform List<scalar> 
20
(
-3.24503e-13
1.27367e-11
1.42269e-11
1.57569e-11
1.8409e-11
1.83691e-11
1.13316e-11
-6.33066e-12
-3.32245e-11
-6.30326e-11
-8.79871e-11
-9.83833e-11
-9.13514e-11
-5.70323e-11
-2.90173e-12
6.8421e-11
1.38636e-10
2.05742e-10
2.67527e-10
2.8539e-10
)
;
    }
    procBoundary4to5
    {
        type            processor;
        value           nonuniform List<scalar> 
20
(
3.07448e-05
3.07699e-05
3.08173e-05
3.08801e-05
3.09466e-05
3.0998e-05
3.10063e-05
3.09323e-05
3.07247e-05
3.03202e-05
2.9646e-05
2.86253e-05
2.71833e-05
2.52562e-05
2.27976e-05
1.97847e-05
1.62206e-05
1.21347e-05
7.58035e-06
2.6304e-06
)
;
    }
}


// ************************************************************************* //
