/*--------------------------------*- C++ -*----------------------------------*\
| =========                 |                                                 |
| \\      /  F ield         | OpenFOAM: The Open Source CFD Toolbox           |
|  \\    /   O peration     | Version:                                        |
|   \\  /    A nd           | Website:  www.openfoam.com                      |
|    \\/     M anipulation  |                                                 |
\*---------------------------------------------------------------------------*/
FoamFile
{
    version     2.0;
    format      ascii;
    class       volVectorField;
    location    "0.1";
    object      U;
}
// * * * * * * * * * * * * * * * * * * * * * * * * * * * * * * * * * * * * * //

dimensions      [0 1 -1 0 0 0 0];


internalField   nonuniform List<vector> 
400
(
(1.00025 -0.000485308 0)
(1.00395 -0.00143427 0)
(1.01138 -0.00226534 0)
(1.02201 -0.00291323 0)
(1.03485 -0.00337166 0)
(1.04913 -0.00366148 0)
(1.06426 -0.00381105 0)
(1.07973 -0.00385154 0)
(1.09518 -0.00381291 0)
(1.11033 -0.00372042 0)
(1.12502 -0.00359339 0)
(1.13915 -0.00344522 0)
(1.15264 -0.00328386 0)
(1.16546 -0.00311336 0)
(1.17756 -0.00293469 0)
(1.18892 -0.00274743 0)
(1.1995 -0.00255109 0)
(1.20926 -0.00234606 0)
(1.21817 -0.0021332 0)
(1.22621 -0.00191611 0)
(1.00026 -0.00146837 0)
(1.00405 -0.00433807 0)
(1.01166 -0.00684512 0)
(1.02251 -0.00879258 0)
(1.03557 -0.0101657 0)
(1.05005 -0.0110303 0)
(1.06536 -0.0114733 0)
(1.08098 -0.0115897 0)
(1.09656 -0.0114695 0)
(1.11182 -0.0111882 0)
(1.1266 -0.0108028 0)
(1.14078 -0.0103527 0)
(1.15431 -0.00986166 0)
(1.16714 -0.00934139 0)
(1.17922 -0.00879521 0)
(1.19052 -0.00822277 0)
(1.20101 -0.0076234 0)
(1.21065 -0.00699884 0)
(1.21942 -0.00635267 0)
(1.22731 -0.00569707 0)
(1.00027 -0.00248982 0)
(1.00426 -0.00735168 0)
(1.01225 -0.0115767 0)
(1.02355 -0.0148349 0)
(1.03705 -0.0171161 0)
(1.05195 -0.0185406 0)
(1.06761 -0.0192592 0)
(1.08355 -0.0194336 0)
(1.09939 -0.0192151 0)
(1.11486 -0.0187285 0)
(1.12981 -0.0180674 0)
(1.14411 -0.0172963 0)
(1.15769 -0.0164545 0)
(1.17051 -0.0155612 0)
(1.18251 -0.0146233 0)
(1.19368 -0.0136416 0)
(1.20396 -0.0126168 0)
(1.21335 -0.0115534 0)
(1.22182 -0.0104595 0)
(1.22937 -0.00935478 0)
(1.00029 -0.00357887 0)
(1.00459 -0.0105576 0)
(1.01317 -0.0165713 0)
(1.02519 -0.0211576 0)
(1.03939 -0.0243349 0)
(1.05492 -0.0262934 0)
(1.07115 -0.0272564 0)
(1.08756 -0.0274571 0)
(1.10379 -0.0271094 0)
(1.11958 -0.0263863 0)
(1.13475 -0.0254166 0)
(1.14919 -0.0242887 0)
(1.16281 -0.023057 0)
(1.17556 -0.0217496 0)
(1.1874 -0.020378 0)
(1.19829 -0.0189468 0)
(1.20822 -0.0174602 0)
(1.21717 -0.0159279 0)
(1.22514 -0.0143638 0)
(1.23216 -0.0127954 0)
(1.00032 -0.00477091 0)
(1.00508 -0.0140532 0)
(1.01452 -0.0219559 0)
(1.02754 -0.0278917 0)
(1.04273 -0.0319456 0)
(1.05915 -0.0343992 0)
(1.07615 -0.0355592 0)
(1.09322 -0.0357366 0)
(1.10997 -0.035209 0)
(1.12615 -0.034197 0)
(1.14156 -0.0328632 0)
(1.1561 -0.0313198 0)
(1.16967 -0.0296367 0)
(1.18222 -0.0278526 0)
(1.19371 -0.0259869 0)
(1.20412 -0.0240506 0)
(1.21346 -0.0220547 0)
(1.22173 -0.0200162 0)
(1.22896 -0.0179564 0)
(1.23521 -0.0159111 0)
(1.00036 -0.00611147 0)
(1.00577 -0.0179599 0)
(1.0164 -0.0278821 0)
(1.0308 -0.0351899 0)
(1.0473 -0.04009 0)
(1.06489 -0.0429819 0)
(1.08291 -0.0442682 0)
(1.10079 -0.044345 0)
(1.11815 -0.0435566 0)
(1.13472 -0.042171 0)
(1.15031 -0.0403855 0)
(1.1648 -0.038337 0)
(1.17811 -0.0361137 0)
(1.1902 -0.033768 0)
(1.20105 -0.0313305 0)
(1.21068 -0.0288223 0)
(1.2191 -0.026264 0)
(1.22638 -0.0236818 0)
(1.23258 -0.0211054 0)
(1.23778 -0.0185779 0)
(1.00041 -0.0076625 0)
(1.00674 -0.0224354 0)
(1.019 -0.0345382 0)
(1.03522 -0.0432358 0)
(1.05342 -0.0489341 0)
(1.07252 -0.0521784 0)
(1.09177 -0.0534815 0)
(1.11058 -0.0533357 0)
(1.12854 -0.0521574 0)
(1.14537 -0.050266 0)
(1.16089 -0.0478972 0)
(1.17502 -0.0452171 0)
(1.18768 -0.042336 0)
(1.19889 -0.039324 0)
(1.20866 -0.0362267 0)
(1.21706 -0.0330778 0)
(1.22417 -0.0299091 0)
(1.23007 -0.0267566 0)
(1.23489 -0.0236574 0)
(1.23875 -0.0206599 0)
(1.00049 -0.00951216 0)
(1.00811 -0.0276923 0)
(1.02258 -0.0421648 0)
(1.0412 -0.0522557 0)
(1.06157 -0.0586699 0)
(1.0825 -0.0621269 0)
(1.10314 -0.0632698 0)
(1.12284 -0.0627055 0)
(1.14117 -0.0609359 0)
(1.15788 -0.0583421 0)
(1.17285 -0.0552066 0)
(1.18602 -0.0517311 0)
(1.19742 -0.0480526 0)
(1.20712 -0.044262 0)
(1.21522 -0.0404211 0)
(1.22184 -0.036577 0)
(1.22712 -0.0327714 0)
(1.23122 -0.0290477 0)
(1.23431 -0.0254476 0)
(1.23654 -0.0220203 0)
(1.0006 -0.0117914 0)
(1.01007 -0.0340254 0)
(1.02757 -0.0510763 0)
(1.0493 -0.0625262 0)
(1.07235 -0.0695027 0)
(1.09534 -0.0729311 0)
(1.11731 -0.0736205 0)
(1.13755 -0.072329 0)
(1.15565 -0.0696694 0)
(1.17148 -0.0661023 0)
(1.18501 -0.0619684 0)
(1.19634 -0.0575106 0)
(1.20559 -0.0528942 0)
(1.21296 -0.0482294 0)
(1.21864 -0.0435913 0)
(1.22284 -0.0390355 0)
(1.22578 -0.034609 0)
(1.22766 -0.0303568 0)
(1.22869 -0.0263193 0)
(1.22906 -0.0225405 0)
(1.00075 -0.0147023 0)
(1.01293 -0.0418538 0)
(1.03461 -0.0616846 0)
(1.06031 -0.074366 0)
(1.08645 -0.0816028 0)
(1.11144 -0.0845768 0)
(1.1342 -0.0843374 0)
(1.15404 -0.0818584 0)
(1.17075 -0.0779019 0)
(1.18439 -0.0730288 0)
(1.19519 -0.067645 0)
(1.20343 -0.0620325 0)
(1.20942 -0.0563771 0)
(1.2135 -0.0507981 0)
(1.21597 -0.0453732 0)
(1.21713 -0.0401563 0)
(1.21725 -0.0351899 0)
(1.21657 -0.0305116 0)
(1.21533 -0.0261528 0)
(1.21373 -0.0221452 0)
(1.00098 -0.0185698 0)
(1.01725 -0.0517807 0)
(1.04467 -0.0745081 0)
(1.07518 -0.0880765 0)
(1.1044 -0.0949818 0)
(1.13061 -0.0967753 0)
(1.15274 -0.094887 0)
(1.1704 -0.0905989 0)
(1.1838 -0.0848618 0)
(1.1934 -0.0783437 0)
(1.19975 -0.0715049 0)
(1.20343 -0.0646451 0)
(1.20496 -0.0579475 0)
(1.2048 -0.0515185 0)
(1.20336 -0.045419 0)
(1.20099 -0.0396854 0)
(1.19799 -0.0343423 0)
(1.19462 -0.0294095 0)
(1.19108 -0.0249007 0)
(1.18755 -0.0208294 0)
(1.00135 -0.0239349 0)
(1.02394 -0.0646657 0)
(1.05903 -0.0901221 0)
(1.09472 -0.103769 0)
(1.12595 -0.109251 0)
(1.15126 -0.108725 0)
(1.17007 -0.104216 0)
(1.18272 -0.0974047 0)
(1.19014 -0.0894319 0)
(1.19339 -0.0810389 0)
(1.19343 -0.0726919 0)
(1.19111 -0.0646596 0)
(1.18712 -0.0570805 0)
(1.18204 -0.0500153 0)
(1.17629 -0.043483 0)
(1.17023 -0.0374844 0)
(1.16412 -0.0320129 0)
(1.15818 -0.0270615 0)
(1.15256 -0.0226202 0)
(1.14736 -0.0186805 0)
(1.00201 -0.0317086 0)
(1.03444 -0.0816567 0)
(1.07904 -0.108946 0)
(1.11875 -0.120997 0)
(1.14884 -0.123239 0)
(1.16915 -0.118834 0)
(1.18043 -0.110623 0)
(1.18431 -0.10068 0)
(1.1827 -0.0902465 0)
(1.1773 -0.0800277 0)
(1.16944 -0.0703981 0)
(1.16015 -0.0615198 0)
(1.15015 -0.0534324 0)
(1.14 -0.0461147 0)
(1.13006 -0.0395219 0)
(1.1206 -0.0336048 0)
(1.11178 -0.0283187 0)
(1.10372 -0.0236256 0)
(1.09649 -0.0194909 0)
(1.09011 -0.0158849 0)
(1.00337 -0.0433736 0)
(1.05065 -0.10402 0)
(1.10502 -0.130692 0)
(1.14428 -0.138131 0)
(1.1669 -0.134555 0)
(1.17589 -0.124561 0)
(1.1743 -0.111829 0)
(1.16543 -0.0986088 0)
(1.15218 -0.0859901 0)
(1.13666 -0.074451 0)
(1.12029 -0.0641402 0)
(1.10401 -0.0550296 0)
(1.08841 -0.0470141 0)
(1.07382 -0.0399688 0)
(1.06045 -0.0337761 0)
(1.0484 -0.0283364 0)
(1.03768 -0.0235691 0)
(1.02827 -0.0194103 0)
(1.02013 -0.0158063 0)
(1.01318 -0.0127121 0)
(1.00624 -0.0611851 0)
(1.07386 -0.132461 0)
(1.13359 -0.153314 0)
(1.16252 -0.151598 0)
(1.1678 -0.139358 0)
(1.15781 -0.12263 0)
(1.13835 -0.105462 0)
(1.1141 -0.0897082 0)
(1.08835 -0.0759158 0)
(1.06302 -0.0641032 0)
(1.03913 -0.0540753 0)
(1.01722 -0.0455674 0)
(0.997473 -0.0383226 0)
(0.979931 -0.0321223 0)
(0.964523 -0.026792 0)
(0.951131 -0.022198 0)
(0.939613 -0.0182391 0)
(0.929813 -0.0148381 0)
(0.92157 -0.0119331 0)
(0.914721 -0.00947362 0)
(1.01166 -0.0884399 0)
(1.10136 -0.165602 0)
(1.1529 -0.171545 0)
(1.15525 -0.155394 0)
(1.13165 -0.132768 0)
(1.09659 -0.109934 0)
(1.05731 -0.0900305 0)
(1.01844 -0.0736695 0)
(0.982391 -0.0604588 0)
(0.950035 -0.0498221 0)
(0.921522 -0.0412108 0)
(0.896688 -0.0341675 0)
(0.875239 -0.0283391 0)
(0.856842 -0.0234631 0)
(0.841172 -0.0193482 0)
(0.827923 -0.0158566 0)
(0.816815 -0.0128886 0)
(0.807591 -0.0103706 0)
(0.800013 -0.00824527 0)
(0.79386 -0.0064666 0)
(1.01855 -0.129096 0)
(1.11885 -0.196983 0)
(1.13612 -0.175684 0)
(1.09254 -0.141775 0)
(1.03264 -0.110552 0)
(0.97296 -0.0853007 0)
(0.918251 -0.0662897 0)
(0.870518 -0.0521919 0)
(0.829912 -0.0416308 0)
(0.795666 -0.0335841 0)
(0.766865 -0.0273283 0)
(0.742679 -0.0223628 0)
(0.7224 -0.0183456 0)
(0.705439 -0.0150429 0)
(0.69131 -0.012294 0)
(0.679607 -0.0099881 0)
(0.669986 -0.0080476 0)
(0.662148 -0.00641632 0)
(0.655831 -0.00505179 0)
(0.650803 -0.00391967 0)
(1.01406 -0.179618 0)
(1.08775 -0.209446 0)
(1.03628 -0.152673 0)
(0.935975 -0.105194 0)
(0.846327 -0.073051 0)
(0.774252 -0.0521242 0)
(0.716328 -0.0385078 0)
(0.670042 -0.0293223 0)
(0.63298 -0.0228666 0)
(0.603026 -0.0181587 0)
(0.578612 -0.0146064 0)
(0.558599 -0.0118455 0)
(0.542143 -0.00964625 0)
(0.528609 -0.00785881 0)
(0.517502 -0.00638428 0)
(0.508431 -0.00515612 0)
(0.501078 -0.00412888 0)
(0.495172 -0.00327009 0)
(0.490483 -0.00255565 0)
(0.486809 -0.00196619 0)
(0.944134 -0.199649 0)
(0.926418 -0.171986 0)
(0.788184 -0.0957961 0)
(0.652635 -0.0524915 0)
(0.563309 -0.0312253 0)
(0.502856 -0.0205366 0)
(0.458584 -0.0145633 0)
(0.425192 -0.010829 0)
(0.399445 -0.00832255 0)
(0.379152 -0.00654797 0)
(0.362902 -0.00523348 0)
(0.34976 -0.0042248 0)
(0.339069 -0.00342874 0)
(0.330355 -0.00278593 0)
(0.323262 -0.00225789 0)
(0.317515 -0.00181929 0)
(0.312894 -0.00145298 0)
(0.309213 -0.00114714 0)
(0.306319 -0.000892912 0)
(0.304074 -0.000683369 0)
(0.631188 -0.0956142 0)
(0.480559 -0.0650354 0)
(0.330312 -0.0272451 0)
(0.242815 -0.0114514 0)
(0.201871 -0.00566636 0)
(0.177865 -0.00345578 0)
(0.161057 -0.0023833 0)
(0.148722 -0.00174193 0)
(0.139381 -0.00132518 0)
(0.132096 -0.00103685 0)
(0.126303 -0.000826042 0)
(0.121639 -0.000665919 0)
(0.117856 -0.000540556 0)
(0.114777 -0.000439739 0)
(0.112274 -0.000357109 0)
(0.110247 -0.000288336 0)
(0.108618 -0.000230742 0)
(0.107322 -0.000182389 0)
(0.106304 -0.000142071 0)
(0.105517 -0.000108607 0)
)
;

boundaryField
{
    fixedWalls
    {
        type            noSlip;
    }
    inlet
    {
        type            fixedValue;
        value           uniform (1 0 0);
    }
    outlet
    {
        type            zeroGradient;
    }
    frontAndBack
    {
        type            empty;
    }
    procBoundary4to0
    {
        type            processor;
        value           nonuniform List<vector> 
20
(
(1.00025 0.00048531 0)
(1.00395 0.00143377 0)
(1.01138 0.00226478 0)
(1.02201 0.00291261 0)
(1.03485 0.00337093 0)
(1.04913 0.00366075 0)
(1.06426 0.00381058 0)
(1.07973 0.00385174 0)
(1.09518 0.00381421 0)
(1.11033 0.00372299 0)
(1.12502 0.00359699 0)
(1.13915 0.00344918 0)
(1.15264 0.00328753 0)
(1.16546 0.00311566 0)
(1.17756 0.0029348 0)
(1.18892 0.00274476 0)
(1.1995 0.00254559 0)
(1.20926 0.0023378 0)
(1.21817 0.00212248 0)
(1.22621 0.00190472 0)
)
;
    }
    procBoundary4to5
    {
        type            processor;
        value           nonuniform List<vector> 
20
(
(1.23338 -0.00169841 0)
(1.2343 -0.00504203 0)
(1.23602 -0.00825627 0)
(1.23825 -0.0112473 0)
(1.24053 -0.0139119 0)
(1.24207 -0.0161367 0)
(1.24177 -0.0178043 0)
(1.23806 -0.0188049 0)
(1.22893 -0.019053 0)
(1.2119 -0.0185089 0)
(1.18415 -0.0171983 0)
(1.14267 -0.015226 0)
(1.08457 -0.0127742 0)
(1.00733 -0.0100831 0)
(0.909104 -0.00741196 0)
(0.78893 -0.00499274 0)
(0.646856 -0.00298999 0)
(0.483975 -0.00148504 0)
(0.302364 -0.000512557 0)
(0.104921 -8.12655e-05 0)
)
;
    }
}


// ************************************************************************* //
