/*--------------------------------*- C++ -*----------------------------------*\
| =========                 |                                                 |
| \\      /  F ield         | OpenFOAM: The Open Source CFD Toolbox           |
|  \\    /   O peration     | Version:                                        |
|   \\  /    A nd           | Website:  www.openfoam.com                      |
|    \\/     M anipulation  |                                                 |
\*---------------------------------------------------------------------------*/
FoamFile
{
    version     2.0;
    format      ascii;
    class       volVectorField;
    location    "39.4";
    object      U;
}
// * * * * * * * * * * * * * * * * * * * * * * * * * * * * * * * * * * * * * //

dimensions      [0 1 -1 0 0 0 0];


internalField   nonuniform List<vector> 
1136
(
(-0.773189 0.0573059 -1.67768e-22)
(-0.660417 0.0740704 -3.30145e-24)
(-0.518721 0.0698381 -2.45451e-22)
(-0.325594 0.049127 1.56679e-22)
(-0.171043 0.0233947 -1.01972e-21)
(0.0494796 -0.00449316 5.50014e-22)
(0.192117 -0.0144329 -3.06951e-22)
(0.337094 -0.0283513 1.00008e-21)
(0.44392 -0.0338103 -6.62134e-22)
(0.533676 -0.0345121 -1.88417e-22)
(0.59567 -0.0327455 7.30141e-22)
(0.648606 -0.0299465 -7.85466e-22)
(0.681261 -0.0263834 3.50593e-22)
(0.711465 -0.0226138 -3.28257e-22)
(0.728586 -0.0185829 2.22793e-22)
(0.747252 -0.0147892 1.51545e-24)
(0.756571 -0.0112416 4.31833e-23)
(0.771002 -0.00794945 -8.24265e-23)
(0.779268 -0.00499583 -7.93366e-23)
(0.794888 -0.00224073 5.25982e-23)
(0.8003 -0.000104872 2.44024e-23)
(0.812091 0.00143544 7.86389e-24)
(0.816262 0.00215948 3.52299e-23)
(0.831634 0.00247997 -1.25735e-24)
(0.83963 0.00249319 1.63027e-24)
(0.853308 0.0024183 2.53249e-26)
(0.855746 0.0019146 9.77443e-24)
(0.867181 0.00121608 -1.69082e-23)
(0.867381 0.000428688 -3.27875e-24)
(0.884223 -0.00048886 1.32905e-24)
(-0.622341 0.00670801 2.33684e-21)
(-0.504494 -0.00516535 -5.80716e-21)
(-0.366176 -0.0336105 2.32275e-22)
(-0.166465 -0.0629664 2.61956e-22)
(0.0126714 -0.0782558 -6.08747e-23)
(0.203547 -0.0940982 -4.4021e-21)
(0.354881 -0.0890363 5.24419e-21)
(0.48802 -0.0844935 -1.54518e-22)
(0.589378 -0.0745566 -3.33445e-21)
(0.670372 -0.0642559 1.18801e-21)
(0.727182 -0.0539546 1.70892e-22)
(0.772879 -0.0447134 3.14691e-22)
(0.802017 -0.0365432 6.0366e-22)
(0.82659 -0.029438 1.24516e-21)
(0.840612 -0.0227592 -1.10139e-21)
(0.852921 -0.0172797 -1.8576e-23)
(0.856986 -0.0128724 -6.25979e-24)
(0.863262 -0.00942388 -1.84854e-22)
(0.864852 -0.00686126 5.64436e-22)
(0.871998 -0.00405015 -1.9855e-22)
(0.873923 -0.0014386 -5.17865e-23)
(0.87948 0.00015161 -1.25984e-23)
(0.880308 0.000289203 2.62845e-23)
(0.889308 -0.000154527 8.91708e-24)
(0.896222 5.17977e-05 -1.07541e-22)
(0.907597 0.000694068 4.32751e-23)
(0.911099 0.000556604 -2.95864e-23)
(0.919484 0.000144764 2.80488e-24)
(0.91955 -0.00104262 -5.5758e-24)
(0.931303 -0.0019544 -3.33285e-24)
(-0.361279 -0.0395769 -6.40683e-21)
(-0.246665 -0.0679549 5.59627e-21)
(-0.117932 -0.121476 2.27101e-22)
(0.0543365 -0.161291 6.74822e-22)
(0.225721 -0.172484 -4.58751e-21)
(0.388418 -0.170993 -1.60544e-21)
(0.518621 -0.153742 1.25716e-20)
(0.626344 -0.130861 -7.61035e-22)
(0.70799 -0.107205 -2.7379e-22)
(0.770436 -0.0880795 -3.80445e-21)
(0.81545 -0.0717938 -2.982e-21)
(0.851145 -0.0574485 7.0381e-22)
(0.875715 -0.0456538 4.85613e-22)
(0.895848 -0.0362771 1.9991e-21)
(0.910753 -0.0275925 -7.36724e-22)
(0.923636 -0.0202722 -2.39416e-21)
(0.930039 -0.0146952 1.98061e-21)
(0.937217 -0.0105513 -3.76666e-22)
(0.94044 -0.00779331 -1.15704e-22)
(0.944729 -0.00509781 -5.05009e-22)
(0.948729 -0.00230086 4.52097e-22)
(0.954026 -0.000441987 -1.89412e-22)
(0.954796 -0.000375311 -1.46952e-22)
(0.957142 -0.00154282 -1.46191e-22)
(0.960117 -0.00191025 1.35225e-22)
(0.969072 -0.000962142 2.47435e-23)
(0.97306 -0.000669479 -1.44478e-24)
(0.978653 -0.000600006 5.64448e-23)
(0.977049 -0.00191779 -8.72125e-24)
(0.981967 -0.00287017 7.20422e-25)
(-0.101255 -0.0816534 5.04915e-21)
(0.00511977 -0.13287 1.20103e-20)
(0.135127 -0.197414 -2.87648e-21)
(0.287088 -0.241766 4.51663e-22)
(0.428494 -0.250357 -2.55003e-22)
(0.55608 -0.23708 1.04057e-21)
(0.655721 -0.205991 -8.15909e-21)
(0.733955 -0.16948 3.46573e-21)
(0.792022 -0.135591 1.00353e-21)
(0.836138 -0.108398 5.02603e-21)
(0.868084 -0.0866669 1.47515e-21)
(0.893141 -0.0682037 -8.82661e-21)
(0.911249 -0.0533909 5.56527e-21)
(0.926346 -0.0423293 -7.24935e-22)
(0.939254 -0.0325794 2.48845e-22)
(0.95117 -0.0238989 4.58903e-22)
(0.958247 -0.0174112 -1.7369e-21)
(0.966448 -0.0127681 4.37434e-22)
(0.971824 -0.00930951 5.26575e-22)
(0.975556 -0.00662344 -5.03836e-22)
(0.982064 -0.00406314 6.23705e-22)
(0.989617 -0.00159493 -8.03762e-22)
(0.992342 -0.000584001 6.8931e-22)
(0.991841 -0.00158081 -3.63843e-23)
(0.991514 -0.00287324 -1.4833e-22)
(1.00014 -0.00229943 7.63563e-24)
(1.00475 -0.00159484 -8.24619e-23)
(1.0101 -0.000819993 -4.19333e-23)
(1.00661 -0.0018088 1.8017e-23)
(1.0069 -0.00306068 6.83107e-24)
(0.118028 -0.12811 -1.25878e-20)
(0.233916 -0.187426 6.92892e-21)
(0.365927 -0.258299 -4.57322e-21)
(0.498919 -0.307962 -3.05249e-21)
(0.609766 -0.311292 -1.41595e-21)
(0.69865 -0.285682 -6.5828e-21)
(0.763379 -0.243512 8.63278e-22)
(0.811417 -0.196367 4.13972e-21)
(0.845374 -0.154311 5.77562e-21)
(0.872042 -0.121421 -9.61587e-21)
(0.891912 -0.0963177 7.66832e-21)
(0.908507 -0.0754175 -5.62024e-23)
(0.921134 -0.0589516 1.53696e-21)
(0.933384 -0.0470733 -3.92945e-21)
(0.944704 -0.0367302 2.53986e-21)
(0.95512 -0.02703 9.68666e-22)
(0.962167 -0.0198878 -8.83936e-22)
(0.970788 -0.0149137 -1.06599e-21)
(0.976461 -0.01076 -6.71782e-23)
(0.979911 -0.00822025 -8.53893e-23)
(0.987875 -0.00615124 -5.54373e-22)
(0.996495 -0.00338974 5.15621e-22)
(0.999652 -0.0011167 -4.17067e-22)
(0.99803 -0.00148077 -2.75286e-22)
(0.996984 -0.00384816 2.32048e-22)
(1.00625 -0.00397338 5.39246e-23)
(1.01106 -0.00292282 1.2973e-22)
(1.0166 -0.00110977 8.39799e-23)
(1.01169 -0.00137478 -6.87537e-24)
(1.01035 -0.00305667 -1.02345e-23)
(0.318528 -0.172491 -9.45524e-20)
(0.443911 -0.239415 2.39855e-20)
(0.5795 -0.316985 2.60007e-20)
(0.688655 -0.359591 -1.37791e-20)
(0.762104 -0.354688 -1.74285e-21)
(0.811094 -0.319896 -2.04686e-21)
(0.84215 -0.269522 -2.20695e-21)
(0.862263 -0.216956 5.25147e-21)
(0.874727 -0.168931 3.36133e-21)
(0.887082 -0.13207 -4.93107e-21)
(0.897518 -0.10463 -2.62631e-21)
(0.908518 -0.0819033 -2.4063e-21)
(0.917772 -0.064216 4.71853e-21)
(0.92868 -0.0518606 2.02393e-21)
(0.939014 -0.0409534 -1.43069e-21)
(0.948067 -0.0303888 4.52622e-22)
(0.955452 -0.0227727 1.51882e-21)
(0.964419 -0.0172802 -2.18755e-21)
(0.969702 -0.0121307 -4.96745e-23)
(0.973823 -0.00978861 1.61287e-21)
(0.982646 -0.00829271 3.11106e-22)
(0.990708 -0.00469162 -3.90283e-22)
(0.993162 -0.000980987 1.64911e-22)
(0.992016 -0.000877517 -2.4741e-22)
(0.993421 -0.00454031 3.74659e-22)
(1.00325 -0.00521998 -2.67961e-22)
(1.00732 -0.00377914 2.74597e-23)
(1.01215 -0.000985386 -1.23453e-22)
(1.00644 -0.00057481 3.16134e-23)
(1.00622 -0.00283298 1.00701e-23)
(0.647927 -0.290298 -1.65607e-20)
(0.768712 -0.360271 1.83984e-20)
(0.844293 -0.393304 -1.36177e-20)
(0.880555 -0.379954 -3.58138e-21)
(0.893457 -0.339082 3.53348e-21)
(0.894736 -0.283832 -6.30596e-21)
(0.892224 -0.22947 -5.88605e-21)
(0.888428 -0.177728 6.96218e-21)
(0.890618 -0.138854 6.13794e-21)
(0.895406 -0.110822 -5.53839e-21)
(0.903906 -0.0874626 2.12326e-21)
(0.91217 -0.0690133 4.95895e-22)
(0.922885 -0.0562077 1.26079e-21)
(0.93266 -0.04461 2.6552e-22)
(0.94097 -0.0334309 -2.5643e-21)
(0.948637 -0.0256715 2.18249e-22)
(0.957696 -0.0197299 -1.67874e-21)
(0.962965 -0.0139342 2.02077e-21)
(0.968512 -0.012019 -1.5885e-21)
(0.977594 -0.0107761 9.24704e-22)
(0.984082 -0.00631286 -3.16602e-22)
(0.985187 -0.00168491 3.94359e-22)
(0.985419 -0.00161718 -1.05922e-23)
(0.990508 -0.00626094 -1.66535e-22)
(1.00061 -0.006946 2.05188e-22)
(1.00337 -0.00480908 8.15897e-23)
(1.00682 -0.000997052 -5.18673e-23)
(1.00056 -0.0002191 -3.77422e-24)
(1.00262 -0.00303919 -2.16457e-23)
(0.835524 -0.330425 8.39255e-21)
(0.924942 -0.38739 4.27103e-21)
(0.965136 -0.408709 -1.23744e-20)
(0.967923 -0.389281 -4.41731e-21)
(0.951198 -0.345622 7.62811e-22)
(0.928849 -0.289564 7.89175e-22)
(0.909718 -0.235083 9.00941e-21)
(0.895314 -0.184022 -5.32267e-21)
(0.89143 -0.143948 5.09093e-22)
(0.893909 -0.115844 -6.22376e-21)
(0.902303 -0.0929612 -1.33627e-21)
(0.911094 -0.0744648 2.02549e-21)
(0.92213 -0.0613169 -1.68474e-21)
(0.931261 -0.0488456 3.00395e-21)
(0.939094 -0.0367596 2.25286e-21)
(0.946312 -0.0284898 -1.51829e-21)
(0.954827 -0.0218124 -7.99624e-22)
(0.960466 -0.0152621 -1.54872e-22)
(0.967676 -0.0134875 7.00209e-22)
(0.976244 -0.0120817 1.1218e-21)
(0.980884 -0.00666162 -9.37437e-22)
(0.980937 -0.0014391 -1.36935e-22)
(0.982787 -0.00194869 1.79959e-24)
(0.990549 -0.0074878 -4.48086e-23)
(1.00053 -0.00777876 -1.95561e-22)
(1.00215 -0.00502805 9.57329e-23)
(1.00434 -0.000516021 2.7097e-23)
(0.997605 0.000247109 2.2498e-23)
(1.00132 -0.0032118 1.75428e-23)
(0.996269 -0.354909 -6.94592e-20)
(1.04447 -0.395224 2.63123e-20)
(1.05044 -0.40941 1.22783e-20)
(1.02742 -0.3887 -1.19225e-20)
(0.988924 -0.345742 -6.797e-21)
(0.949647 -0.291745 2.39603e-21)
(0.920038 -0.238932 -5.90247e-21)
(0.901077 -0.192198 -6.61608e-22)
(0.895826 -0.153166 7.87066e-21)
(0.898226 -0.122766 -4.64522e-21)
(0.907616 -0.0984446 -2.99839e-22)
(0.9176 -0.0790955 4.23582e-21)
(0.928962 -0.0655342 -1.2285e-21)
(0.93748 -0.0526971 -2.91605e-21)
(0.945111 -0.0403678 2.58303e-21)
(0.951337 -0.032082 5.14384e-22)
(0.958918 -0.0252691 -4.85253e-22)
(0.96492 -0.0184786 -1.12253e-21)
(0.972821 -0.0167914 1.75021e-21)
(0.980187 -0.0148802 -8.75996e-22)
(0.983501 -0.00825655 -1.98747e-22)
(0.983053 -0.00261813 -3.54384e-23)
(0.985686 -0.00369778 5.23151e-22)
(0.9936 -0.0100554 -1.66819e-22)
(1.00247 -0.0095983 4.80889e-24)
(1.0034 -0.00579265 8.25116e-23)
(1.005 -0.000245709 -5.56954e-23)
(0.998486 0.000358373 5.98832e-25)
(1.00221 -0.00372999 2.17703e-24)
(1.11386 -0.383126 7.69785e-20)
(1.12256 -0.408961 -4.8548e-20)
(1.10473 -0.411505 2.2407e-20)
(1.06628 -0.390112 5.10516e-21)
(1.01451 -0.349949 -7.41403e-21)
(0.965136 -0.299384 -2.60007e-21)
(0.93045 -0.249121 -5.31662e-21)
(0.910725 -0.204552 2.0872e-21)
(0.907412 -0.165745 -3.46754e-21)
(0.911233 -0.134358 1.26118e-20)
(0.920073 -0.108297 -7.65504e-21)
(0.929391 -0.0863827 9.84865e-21)
(0.939214 -0.0704461 -3.02456e-22)
(0.946044 -0.0557967 2.59751e-22)
(0.953142 -0.0420353 -3.69759e-21)
(0.958276 -0.0328581 -1.12844e-21)
(0.965019 -0.0257634 -1.12744e-21)
(0.971604 -0.0187842 3.86744e-22)
(0.979562 -0.01689 8.65691e-22)
(0.985279 -0.0145985 -3.0705e-22)
(0.98834 -0.00771082 2.25186e-22)
(0.988768 -0.0021043 -8.84151e-22)
(0.991669 -0.00374915 8.01203e-22)
(0.997233 -0.010497 -4.70162e-22)
(1.00406 -0.00966418 1.0397e-23)
(1.00485 -0.00562118 1.55399e-22)
(1.00673 0.000187992 1.1367e-23)
(1.0014 0.000645954 -2.38792e-23)
(1.00387 -0.00387276 -9.78338e-24)
(1.1795 -0.332888 0)
(1.14653 -0.333692 0)
(1.09409 -0.320857 0)
(1.03373 -0.292884 0)
(0.980563 -0.256577 0)
(0.945824 -0.220261 0)
(0.927664 -0.187784 0)
(0.92475 -0.159439 0)
(0.927998 -0.136525 0)
(0.934799 -0.11482 0)
(0.94185 -0.0943764 0)
(0.948702 -0.0785813 0)
(0.952688 -0.0637581 0)
(0.958276 -0.0492834 0)
(0.962042 -0.0393183 0)
(0.967774 -0.0318621 0)
(0.974713 -0.0242282 0)
(0.9826 -0.0215884 0)
(0.986814 -0.0184042 0)
(0.990384 -0.010223 0)
(0.992214 -0.00360821 0)
(0.995445 -0.00538549 0)
(0.997966 -0.0127336 0)
(1.00236 -0.0114846 0)
(1.0031 -0.00662246 0)
(1.00597 0.000243535 0)
(1.00281 0.000937515 0)
(1.00425 -0.00415349 0)
(1.20187 -0.365748 0)
(1.13841 -0.363952 0)
(1.06584 -0.344326 0)
(1.0023 -0.311377 0)
(0.959641 -0.272553 0)
(0.940337 -0.235553 0)
(0.93523 -0.203023 0)
(0.939381 -0.17361 0)
(0.944263 -0.146731 0)
(0.948559 -0.120849 0)
(0.951594 -0.0972787 0)
(0.954288 -0.0791749 0)
(0.954735 -0.0632225 0)
(0.958253 -0.0485459 0)
(0.960882 -0.0386509 0)
(0.965984 -0.0317362 0)
(0.972908 -0.0246584 0)
(0.981061 -0.0217034 0)
(0.984378 -0.0180764 0)
(0.98847 -0.0101879 0)
(0.991203 -0.00401026 0)
(0.995222 -0.00572082 0)
(0.99588 -0.0127228 0)
(0.998465 -0.011414 0)
(0.998833 -0.00675792 0)
(1.00222 -8.21963e-05 0)
(1.00119 0.000758755 0)
(1.00299 -0.00431791 0)
(1.15685 -0.295004 0)
(1.09928 -0.281455 0)
(1.05123 -0.261575 0)
(1.02154 -0.241858 0)
(1.00435 -0.221504 0)
(0.993457 -0.200397 0)
(0.983097 -0.178212 0)
(0.974624 -0.154633 0)
(0.965865 -0.131853 0)
(0.95814 -0.109818 0)
(0.952446 -0.0892581 0)
(0.949719 -0.073378 0)
(0.947049 -0.0596174 0)
(0.949215 -0.0466348 0)
(0.952083 -0.0377891 0)
(0.957561 -0.0320277 0)
(0.964775 -0.0256163 0)
(0.973992 -0.0223386 0)
(0.977073 -0.0183171 0)
(0.981443 -0.0103932 0)
(0.985241 -0.00409727 0)
(0.991872 -0.00550711 0)
(0.9928 -0.0124205 0)
(0.993721 -0.0112228 0)
(0.992876 -0.00681036 0)
(0.9963 3.96761e-05 0)
(0.997893 0.00105024 0)
(1.00169 -0.00425139 0)
(1.16074 -0.289745 0)
(1.12297 -0.293913 0)
(1.09029 -0.29339 0)
(1.06132 -0.284852 0)
(1.02984 -0.266271 0)
(0.998372 -0.238564 0)
(0.970696 -0.207474 0)
(0.951565 -0.176502 0)
(0.939353 -0.148688 0)
(0.932886 -0.123556 0)
(0.930572 -0.101077 0)
(0.932605 -0.0832469 0)
(0.934333 -0.0681007 0)
(0.939523 -0.0545174 0)
(0.945652 -0.0449989 0)
(0.95329 -0.0386892 0)
(0.96118 -0.0319667 0)
(0.971451 -0.0274316 0)
(0.97487 -0.0220502 0)
(0.978678 -0.0138364 0)
(0.982638 -0.00774059 0)
(0.99147 -0.00864433 0)
(0.994114 -0.0143324 0)
(0.994273 -0.0124178 0)
(0.992192 -0.00793483 0)
(0.994264 -0.00136081 0)
(0.99737 -0.000544983 0)
(1.00279 -0.00538669 0)
(1.16202 -0.266848 0)
(1.1254 -0.264002 0)
(1.08855 -0.252247 0)
(1.05142 -0.231297 0)
(1.01477 -0.205551 0)
(0.985643 -0.177946 0)
(0.966644 -0.153217 0)
(0.958351 -0.132275 0)
(0.955183 -0.114063 0)
(0.954985 -0.0968372 0)
(0.955809 -0.0807515 0)
(0.958797 -0.0673762 0)
(0.960402 -0.0555172 0)
(0.964244 -0.0448195 0)
(0.968704 -0.0374072 0)
(0.973829 -0.0327708 0)
(0.978527 -0.0275838 0)
(0.985809 -0.0234157 0)
(0.987973 -0.0178996 0)
(0.991315 -0.0105663 0)
(0.994753 -0.00581671 0)
(1.00208 -0.00699237 0)
(1.00261 -0.0117082 0)
(1.0011 -0.00967485 0)
(0.998763 -0.00596203 0)
(1.00043 -0.00065773 0)
(1.00445 -0.000360784 0)
(1.00797 -0.00493434 0)
(1.16141 -0.242164 0)
(1.1272 -0.24226 0)
(1.09251 -0.237869 0)
(1.05928 -0.229891 0)
(1.02949 -0.219056 0)
(1.00749 -0.204472 0)
(0.992067 -0.187404 0)
(0.982345 -0.169489 0)
(0.974498 -0.149979 0)
(0.968662 -0.129063 0)
(0.964296 -0.108892 0)
(0.963164 -0.0915339 0)
(0.962387 -0.0761903 0)
(0.964722 -0.0627806 0)
(0.967767 -0.0528395 0)
(0.971865 -0.0459085 0)
(0.975186 -0.0391413 0)
(0.980814 -0.0333108 0)
(0.982957 -0.0262334 0)
(0.988039 -0.0178033 0)
(0.992404 -0.0122902 0)
(0.998941 -0.0121636 0)
(0.99829 -0.0155664 0)
(0.997462 -0.0126906 0)
(0.996724 -0.00871444 0)
(0.999713 -0.00315303 0)
(1.00423 -0.00271738 0)
(1.00718 -0.00665167 0)
(1.15772 -0.224183 0)
(1.12561 -0.225942 0)
(1.09302 -0.222601 0)
(1.06236 -0.213165 0)
(1.03482 -0.197414 0)
(1.01294 -0.176876 0)
(0.994907 -0.155363 0)
(0.981408 -0.134527 0)
(0.97086 -0.114326 0)
(0.964094 -0.0951601 0)
(0.960136 -0.0781992 0)
(0.960212 -0.0645666 0)
(0.961233 -0.0531701 0)
(0.964906 -0.043612 0)
(0.968928 -0.0366167 0)
(0.973562 -0.0320267 0)
(0.976522 -0.0274515 0)
(0.981231 -0.0231686 0)
(0.98279 -0.0176974 0)
(0.987518 -0.0114384 0)
(0.99176 -0.00734118 0)
(0.998641 -0.00727314 0)
(0.998888 -0.00994152 0)
(0.998536 -0.008127 0)
(0.998119 -0.00556272 0)
(1.00115 -0.0018817 0)
(1.00591 -0.00149112 0)
(1.00906 -0.00509103 0)
(1.15162 -0.203887 0)
(1.12241 -0.205536 0)
(1.09302 -0.202108 0)
(1.0658 -0.193972 0)
(1.04112 -0.182531 0)
(1.02068 -0.169972 0)
(1.00334 -0.157691 0)
(0.990702 -0.144787 0)
(0.981434 -0.130492 0)
(0.976188 -0.115137 0)
(0.973201 -0.100365 0)
(0.973493 -0.0873066 0)
(0.97432 -0.0751687 0)
(0.977269 -0.064145 0)
(0.979894 -0.0554974 0)
(0.982914 -0.0488682 0)
(0.983981 -0.0424513 0)
(0.98653 -0.0363287 0)
(0.986748 -0.0292675 0)
(0.990716 -0.0215898 0)
(0.99427 -0.0165272 0)
(0.999996 -0.0150546 0)
(0.999706 -0.0164391 0)
(0.99955 -0.0133712 0)
(0.999489 -0.0102494 0)
(1.00234 -0.00582764 0)
(1.00665 -0.00533435 0)
(1.00883 -0.00795789 0)
(1.14584 -0.184221 0)
(1.11974 -0.186258 0)
(1.09385 -0.184491 0)
(1.0699 -0.179374 0)
(1.04789 -0.171777 0)
(1.0291 -0.161879 0)
(1.01288 -0.149543 0)
(1.00076 -0.134266 0)
(0.99139 -0.117168 0)
(0.98536 -0.100159 0)
(0.98108 -0.0847628 0)
(0.97963 -0.0715702 0)
(0.978923 -0.0598538 0)
(0.980358 -0.0497659 0)
(0.981624 -0.0417857 0)
(0.983614 -0.0358801 0)
(0.983956 -0.030471 0)
(0.985936 -0.0254456 0)
(0.986106 -0.0199355 0)
(0.989814 -0.0144653 0)
(0.992827 -0.0106687 0)
(0.998046 -0.00923967 0)
(0.998325 -0.00982291 0)
(0.998946 -0.00788501 0)
(0.99932 -0.00600346 0)
(1.00213 -0.00344045 0)
(1.00597 -0.00288279 0)
(1.00849 -0.00537503 0)
(1.14133 -0.165579 0)
(1.11847 -0.168323 0)
(1.09585 -0.16824 0)
(1.07477 -0.165173 0)
(1.05478 -0.159468 0)
(1.03727 -0.150948 0)
(1.02173 -0.139763 0)
(1.00936 -0.126823 0)
(0.999053 -0.113597 0)
(0.992026 -0.100942 0)
(0.986824 -0.0894607 0)
(0.98438 -0.0792127 0)
(0.98281 -0.0694005 0)
(0.983515 -0.0601564 0)
(0.984182 -0.0525349 0)
(0.985737 -0.0462902 0)
(0.985779 -0.040511 0)
(0.987387 -0.034943 0)
(0.987438 -0.0289851 0)
(0.990702 -0.0227478 0)
(0.993088 -0.018409 0)
(0.997629 -0.016132 0)
(0.998112 -0.0160367 0)
(0.999246 -0.013224 0)
(0.9998 -0.0109499 0)
(1.0024 -0.00778364 0)
(1.00557 -0.00710418 0)
(1.008 -0.00867183 0)
(1.13752 -0.148188 0)
(1.11766 -0.151771 0)
(1.09775 -0.152982 0)
(1.07876 -0.151432 0)
(1.06033 -0.147256 0)
(1.04379 -0.140273 0)
(1.02864 -0.131027 0)
(1.01617 -0.120478 0)
(1.00571 -0.109012 0)
(0.998484 -0.0973397 0)
(0.993185 -0.0858744 0)
(0.990331 -0.0749573 0)
(0.988155 -0.0645173 0)
(0.987986 -0.0549568 0)
(0.987889 -0.0467701 0)
(0.988774 -0.0401064 0)
(0.988548 -0.0341791 0)
(0.989764 -0.0287054 0)
(0.989609 -0.0232929 0)
(0.992255 -0.0182831 0)
(0.994197 -0.0145748 0)
(0.998091 -0.0121984 0)
(0.998677 -0.0113832 0)
(0.99986 -0.00921046 0)
(1.00052 -0.00757838 0)
(1.0028 -0.00559923 0)
(1.00553 -0.0049176 0)
(1.00775 -0.00634475 0)
(1.13332 -0.132226 0)
(1.11613 -0.136421 0)
(1.0985 -0.138436 0)
(1.08134 -0.137874 0)
(1.06441 -0.134849 0)
(1.04888 -0.129424 0)
(1.03441 -0.122107 0)
(1.02229 -0.113135 0)
(1.01201 -0.103223 0)
(1.00482 -0.0927286 0)
(0.999245 -0.0824677 0)
(0.995751 -0.0730082 0)
(0.992828 -0.064215 0)
(0.991714 -0.0560587 0)
(0.990793 -0.0491562 0)
(0.991111 -0.0431661 0)
(0.990558 -0.037819 0)
(0.991524 -0.0327356 0)
(0.991472 -0.0277576 0)
(0.993837 -0.0228003 0)
(0.995155 -0.0191607 0)
(0.998316 -0.0165625 0)
(0.998917 -0.0155313 0)
(1.00044 -0.0129884 0)
(1.00117 -0.0112224 0)
(1.0033 -0.00896524 0)
(1.00538 -0.00825316 0)
(1.00754 -0.00903885 0)
(1.12845 -0.117637 0)
(1.11351 -0.12204 0)
(1.09795 -0.124458 0)
(1.08259 -0.124564 0)
(1.06725 -0.122645 0)
(1.05297 -0.118713 0)
(1.03945 -0.112933 0)
(1.02798 -0.105601 0)
(1.01812 -0.0970962 0)
(1.01076 -0.088116 0)
(1.00488 -0.079279 0)
(1.00088 -0.0709355 0)
(0.99749 -0.0629564 0)
(0.995728 -0.0554152 0)
(0.994367 -0.0485465 0)
(0.994144 -0.0422981 0)
(0.993502 -0.0365934 0)
(0.994176 -0.0312216 0)
(0.993976 -0.0261772 0)
(0.995706 -0.0215668 0)
(0.99673 -0.0179735 0)
(0.999299 -0.0150878 0)
(0.999871 -0.0134272 0)
(1.00115 -0.0110576 0)
(1.0019 -0.00946622 0)
(1.00366 -0.0077458 0)
(1.00546 -0.0069769 0)
(1.00723 -0.00754717 0)
(1.12302 -0.104158 0)
(1.11004 -0.108503 0)
(1.09637 -0.111153 0)
(1.08279 -0.111876 0)
(1.06909 -0.110936 0)
(1.05619 -0.108162 0)
(1.04388 -0.103757 0)
(1.0332 -0.097804 0)
(1.02364 -0.0908641 0)
(1.01628 -0.0833413 0)
(1.01014 -0.0757257 0)
(1.00578 -0.0682769 0)
(1.0021 -0.0611061 0)
(0.999852 -0.0540831 0)
(0.997988 -0.0477173 0)
(0.997318 -0.0417625 0)
(0.996303 -0.0364509 0)
(0.996525 -0.0314808 0)
(0.996148 -0.0269691 0)
(0.997504 -0.0227397 0)
(0.997999 -0.0194867 0)
(0.99993 -0.0167626 0)
(1.00031 -0.0151788 0)
(1.00164 -0.0128693 0)
(1.00228 -0.0113638 0)
(1.00389 -0.00967907 0)
(1.00517 -0.00896313 0)
(1.00686 -0.00920455 0)
(1.11731 -0.0916215 0)
(1.10602 -0.0958485 0)
(1.09413 -0.0987058 0)
(1.08221 -0.0999409 0)
(1.07013 -0.0997426 0)
(1.05865 -0.0979224 0)
(1.04752 -0.0946389 0)
(1.03758 -0.090084 0)
(1.02857 -0.0844858 0)
(1.02126 -0.0782313 0)
(1.01508 -0.0717248 0)
(1.01043 -0.0651694 0)
(1.0065 -0.0587596 0)
(1.00379 -0.0524504 0)
(1.00159 -0.0466374 0)
(1.00033 -0.0410796 0)
(0.999105 -0.03608 0)
(0.998939 -0.0313376 0)
(0.998369 -0.0270637 0)
(0.9991 -0.0231315 0)
(0.999351 -0.0199504 0)
(1.00078 -0.0170366 0)
(1.00113 -0.0150546 0)
(1.00214 -0.012673 0)
(1.00273 -0.0111332 0)
(1.00397 -0.00955537 0)
(1.00506 -0.00874941 0)
(1.00638 -0.00869988 0)
(1.1114 -0.08006 0)
(1.10169 -0.084162 0)
(1.09142 -0.087129 0)
(1.08105 -0.0887419 0)
(1.07047 -0.0891074 0)
(1.06029 -0.0880692 0)
(1.05027 -0.0858177 0)
(1.0412 -0.0823727 0)
(1.03276 -0.0779513 0)
(1.0257 -0.0728484 0)
(1.01953 -0.067387 0)
(1.01469 -0.061717 0)
(1.0106 -0.0561261 0)
(1.00753 -0.0504752 0)
(1.005 -0.0452273 0)
(1.00338 -0.0400604 0)
(1.00186 -0.0354151 0)
(1.00121 -0.0310088 0)
(1.00041 -0.0270287 0)
(1.0008 -0.0232642 0)
(1.00074 -0.0201525 0)
(1.00166 -0.0173212 0)
(1.00177 -0.015357 0)
(1.00257 -0.0131128 0)
(1.00299 -0.0116491 0)
(1.00399 -0.010228 0)
(1.00471 -0.00949579 0)
(1.00583 -0.0093485 0)
(1.10541 -0.0695327 0)
(1.09713 -0.0734273 0)
(1.08835 -0.076431 0)
(1.07936 -0.0782832 0)
(1.07015 -0.0790785 0)
(1.06115 -0.0787032 0)
(1.05223 -0.0772547 0)
(1.04399 -0.0747466 0)
(1.03622 -0.0713713 0)
(1.02944 -0.067288 0)
(1.02346 -0.0627956 0)
(1.01852 -0.0579603 0)
(1.01433 -0.0531454 0)
(1.01098 -0.0481428 0)
(1.00828 -0.0434748 0)
(1.00618 -0.03879 0)
(1.00444 -0.0345761 0)
(1.00344 -0.0304223 0)
(1.0025 -0.0266807 0)
(1.00238 -0.0231654 0)
(1.00204 -0.0202839 0)
(1.00251 -0.0175253 0)
(1.0025 -0.0155519 0)
(1.00296 -0.0133533 0)
(1.00323 -0.011971 0)
(1.00388 -0.0105925 0)
(1.00442 -0.00987051 0)
(1.00524 -0.00947759 0)
(1.09941 -0.059968 0)
(1.09239 -0.063633 0)
(1.08491 -0.0665861 0)
(1.07718 -0.0685734 0)
(1.06921 -0.0696881 0)
(1.06129 -0.0698186 0)
(1.05342 -0.0690113 0)
(1.046 -0.0672992 0)
(1.03889 -0.0648137 0)
(1.03252 -0.0616205 0)
(1.0268 -0.0579959 0)
(1.02183 -0.0539608 0)
(1.01768 -0.049871 0)
(1.0141 -0.0455271 0)
(1.01122 -0.0414591 0)
(1.00882 -0.0372467 0)
(1.00696 -0.0333778 0)
(1.00554 -0.0295752 0)
(1.00438 -0.0261568 0)
(1.00386 -0.0229014 0)
(1.00335 -0.020154 0)
(1.00336 -0.0175119 0)
(1.00317 -0.0155958 0)
(1.00329 -0.0135186 0)
(1.00344 -0.0121552 0)
(1.00376 -0.010826 0)
(1.00412 -0.0100941 0)
(1.0046 -0.00962127 0)
(1.09341 -0.0513681 0)
(1.08748 -0.0547652 0)
(1.08118 -0.0575931 0)
(1.07456 -0.0596308 0)
(1.06769 -0.0609589 0)
(1.06081 -0.0614483 0)
(1.0539 -0.061159 0)
(1.04723 -0.0600933 0)
(1.04085 -0.0583318 0)
(1.0349 -0.0559098 0)
(1.02952 -0.0530718 0)
(1.02466 -0.049754 0)
(1.02055 -0.0463615 0)
(1.01681 -0.042646 0)
(1.01392 -0.0391118 0)
(1.01124 -0.0353648 0)
(1.0092 -0.0319495 0)
(1.00745 -0.028505 0)
(1.00617 -0.0253601 0)
(1.00526 -0.0223478 0)
(1.00453 -0.0198259 0)
(1.00413 -0.017346 0)
(1.00381 -0.0155043 0)
(1.00359 -0.0135035 0)
(1.00362 -0.0121853 0)
(1.00358 -0.0109211 0)
(1.0038 -0.0102271 0)
(1.00393 -0.0096868 0)
(1.08746 -0.0436799 0)
(1.08248 -0.0467713 0)
(1.0772 -0.0494249 0)
(1.07155 -0.0514439 0)
(1.06571 -0.0528736 0)
(1.05973 -0.0536243 0)
(1.05372 -0.0537284 0)
(1.04779 -0.0531576 0)
(1.04209 -0.0519949 0)
(1.0366 -0.0502299 0)
(1.03164 -0.048068 0)
(1.0269 -0.0454098 0)
(1.02297 -0.0426518 0)
(1.01917 -0.0394952 0)
(1.01623 -0.0365077 0)
(1.01333 -0.0332545 0)
(1.01125 -0.0302422 0)
(1.00921 -0.0271429 0)
(1.00777 -0.02433 0)
(1.00648 -0.0216095 0)
(1.00561 -0.0192921 0)
(1.00485 -0.0169556 0)
(1.0044 -0.0152188 0)
(1.00383 -0.0133395 0)
(1.00374 -0.0120987 0)
(1.00335 -0.0108925 0)
(1.00346 -0.0102323 0)
(1.00323 -0.0096489 0)
(1.08163 -0.0368386 0)
(1.07746 -0.0396152 0)
(1.07307 -0.0420552 0)
(1.06828 -0.0439883 0)
(1.06334 -0.0454501 0)
(1.05817 -0.0463678 0)
(1.05299 -0.0467414 0)
(1.04773 -0.0465546 0)
(1.0427 -0.0458665 0)
(1.03768 -0.0446314 0)
(1.03315 -0.0430582 0)
(1.02864 -0.0409623 0)
(1.02491 -0.0387818 0)
(1.02107 -0.0361627 0)
(1.01821 -0.0336831 0)
(1.01516 -0.030866 0)
(1.01303 -0.0282747 0)
(1.01071 -0.0255721 0)
(1.00919 -0.0230749 0)
(1.00759 -0.0206173 0)
(1.00659 -0.0185092 0)
(1.00546 -0.0163644 0)
(1.00491 -0.0147662 0)
(1.004 -0.0130138 0)
(1.00382 -0.0118526 0)
(1.00307 -0.0107098 0)
(1.0031 -0.0100938 0)
(1.0025 -0.0094943 0)
(1.07598 -0.0307859 0)
(1.07249 -0.0332425 0)
(1.06888 -0.0354357 0)
(1.06482 -0.0372454 0)
(1.06068 -0.0386708 0)
(1.05622 -0.0396686 0)
(1.0518 -0.0402211 0)
(1.04716 -0.0403075 0)
(1.04276 -0.0399838 0)
(1.03819 -0.0391705 0)
(1.03413 -0.0380774 0)
(1.02985 -0.0364732 0)
(1.02638 -0.0348122 0)
(1.0226 -0.0326597 0)
(1.01983 -0.0306448 0)
(1.01666 -0.0282724 0)
(1.01453 -0.0260874 0)
(1.01202 -0.0237448 0)
(1.01044 -0.0215528 0)
(1.00853 -0.0193938 0)
(1.00743 -0.017516 0)
(1.00598 -0.0155665 0)
(1.00534 -0.014113 0)
(1.0041 -0.0124979 0)
(1.00384 -0.0114376 0)
(1.00274 -0.0103748 0)
(1.0027 -0.00980181 0)
(1.00175 -0.00920555 0)
(1.07059 -0.0254501 0)
(1.06767 -0.0275851 0)
(1.06472 -0.0295217 0)
(1.06127 -0.0311671 0)
(1.05784 -0.0325082 0)
(1.05399 -0.0335188 0)
(1.05025 -0.0341693 0)
(1.04616 -0.0344389 0)
(1.04235 -0.0343824 0)
(1.03821 -0.0338859 0)
(1.0346 -0.0331875 0)
(1.03059 -0.0319925 0)
(1.02742 -0.0307605 0)
(1.02372 -0.0290426 0)
(1.02107 -0.0274526 0)
(1.01785 -0.025487 0)
(1.01577 -0.0236619 0)
(1.01309 -0.0216819 0)
(1.01146 -0.0198068 0)
(1.0093 -0.0179368 0)
(1.00815 -0.0162881 0)
(1.0064 -0.0145417 0)
(1.00569 -0.0132533 0)
(1.00412 -0.0117924 0)
(1.0038 -0.010841 0)
(1.00237 -0.00986503 0)
(1.00229 -0.00934014 0)
(1.00098 -0.00876876 0)
(1.06553 -0.0207591 0)
(1.06308 -0.0225769 0)
(1.06068 -0.0242512 0)
(1.05775 -0.0257047 0)
(1.05492 -0.0269288 0)
(1.05159 -0.0278918 0)
(1.04846 -0.0285791 0)
(1.04484 -0.0289517 0)
(1.04159 -0.0290724 0)
(1.03782 -0.0288189 0)
(1.03466 -0.028412 0)
(1.03092 -0.0275518 0)
(1.02805 -0.0266784 0)
(1.02447 -0.0253448 0)
(1.02199 -0.0241149 0)
(1.01875 -0.0225243 0)
(1.01672 -0.0210447 0)
(1.01392 -0.019403 0)
(1.0123 -0.017825 0)
(1.00992 -0.0162377 0)
(1.00874 -0.0148288 0)
(1.00671 -0.0133032 0)
(1.00594 -0.0121872 0)
(1.00408 -0.0108881 0)
(1.00371 -0.0100508 0)
(1.00197 -0.00917208 0)
(1.00185 -0.00870422 0)
(1.0002 -0.00817345 0)
(1.06088 -0.0166323 0)
(1.0588 -0.0181415 0)
(1.05686 -0.0195538 0)
(1.05436 -0.0207996 0)
(1.05203 -0.0218769 0)
(1.04914 -0.022753 0)
(1.04653 -0.0234205 0)
(1.04333 -0.0238334 0)
(1.04055 -0.0240616 0)
(1.03713 -0.0239743 0)
(1.03438 -0.0237764 0)
(1.03091 -0.0231881 0)
(1.02833 -0.0225909 0)
(1.0249 -0.0215848 0)
(1.02259 -0.0206667 0)
(1.01937 -0.0194187 0)
(1.01744 -0.0182492 0)
(1.01455 -0.0169118 0)
(1.01294 -0.015628 0)
(1.01038 -0.0143129 0)
(1.00919 -0.0131443 0)
(1.00693 -0.0118476 0)
(1.00612 -0.0108981 0)
(1.00399 -0.00977906 0)
(1.00357 -0.00906054 0)
(1.00156 -0.00828576 0)
(1.0014 -0.00788386 0)
(0.999438 -0.0074077 0)
(1.05672 -0.0129861 0)
(1.05494 -0.0141994 0)
(1.05338 -0.0153512 0)
(1.0512 -0.0163814 0)
(1.0493 -0.0172892 0)
(1.04677 -0.0180513 0)
(1.0446 -0.0186493 0)
(1.04175 -0.0190605 0)
(1.03938 -0.0193257 0)
(1.03626 -0.0193497 0)
(1.03387 -0.01929 0)
(1.03064 -0.0189062 0)
(1.02835 -0.0185203 0)
(1.02505 -0.0177847 0)
(1.02292 -0.0171323 0)
(1.01975 -0.0161789 0)
(1.01793 -0.0152885 0)
(1.01497 -0.0142351 0)
(1.01341 -0.0132233 0)
(1.0107 -0.0121694 0)
(1.00952 -0.0112355 0)
(1.00706 -0.0101649 0)
(1.00622 -0.00939057 0)
(1.00385 -0.00846337 0)
(1.00341 -0.00786081 0)
(1.00114 -0.00720856 0)
(1.00095 -0.00687637 0)
(0.998714 -0.00646262 0)
(1.05314 -0.00973512 0)
(1.05159 -0.0106617 0)
(1.05032 -0.0115608 0)
(1.0484 -0.012366 0)
(1.04683 -0.0130947 0)
(1.0446 -0.0137133 0)
(1.04279 -0.0142138 0)
(1.04021 -0.0145789 0)
(1.03819 -0.0148335 0)
(1.03531 -0.0149205 0)
(1.03324 -0.0149325 0)
(1.03022 -0.0147063 0)
(1.02819 -0.0144646 0)
(1.02501 -0.0139558 0)
(1.02305 -0.0135129 0)
(1.01994 -0.012816 0)
(1.01823 -0.0121787 0)
(1.01525 -0.0113734 0)
(1.01372 -0.0106244 0)
(1.0109 -0.00981285 0)
(1.00975 -0.00910145 0)
(1.00713 -0.00826787 0)
(1.00626 -0.00765868 0)
(1.0037 -0.00693475 0)
(1.00324 -0.00645633 0)
(1.00075 -0.00593187 0)
(1.00054 -0.00567129 0)
(0.99806 -0.00533197 0)
(1.05025 -0.00678409 0)
(1.04887 -0.00743803 0)
(1.04781 -0.00808351 0)
(1.04608 -0.00866565 0)
(1.04477 -0.00919798 0)
(1.04276 -0.00966056 0)
(1.04122 -0.0100333 0)
(1.03887 -0.0103239 0)
(1.03709 -0.0105308 0)
(1.03441 -0.0106337 0)
(1.0326 -0.0106771 0)
(1.02975 -0.0105537 0)
(1.02793 -0.0104171 0)
(1.02485 -0.0100852 0)
(1.02305 -0.00981021 0)
(1.01998 -0.00933635 0)
(1.0184 -0.00891211 0)
(1.0154 -0.0083455 0)
(1.01391 -0.00783014 0)
(1.01101 -0.00725413 0)
(1.00988 -0.00675835 0)
(1.00715 -0.0061542 0)
(1.00627 -0.005716 0)
(1.00354 -0.00519849 0)
(1.00309 -0.00484343 0)
(1.00041 -0.00446277 0)
(1.00018 -0.00427568 0)
(0.997506 -0.0040181 0)
(1.04815 -0.00402423 0)
(1.0469 -0.00441657 0)
(1.04597 -0.00480678 0)
(1.04438 -0.00516205 0)
(1.04322 -0.00548873 0)
(1.04138 -0.00577678 0)
(1.04004 -0.00600835 0)
(1.03783 -0.00619612 0)
(1.03624 -0.00633082 0)
(1.03368 -0.00641254 0)
(1.03207 -0.00645132 0)
(1.02934 -0.00639554 0)
(1.02769 -0.006327 0)
(1.02466 -0.00613995 0)
(1.02297 -0.00599514 0)
(1.01996 -0.00571675 0)
(1.01847 -0.00547859 0)
(1.01547 -0.00513952 0)
(1.014 -0.00483746 0)
(1.01105 -0.0044941 0)
(1.00995 -0.00419538 0)
(1.00715 -0.00382876 0)
(1.00623 -0.00356613 0)
(1.00342 -0.00325007 0)
(1.00296 -0.00303396 0)
(1.00014 -0.00279998 0)
(0.999917 -0.00268288 0)
(0.997097 -0.00252291 0)
(1.04701 -0.00134744 0)
(1.04581 -0.00146708 0)
(1.04497 -0.00160135 0)
(1.04343 -0.00173011 0)
(1.04237 -0.00183269 0)
(1.04061 -0.00194278 0)
(1.03938 -0.00200554 0)
(1.03725 -0.00208125 0)
(1.03574 -0.00212539 0)
(1.03326 -0.00215346 0)
(1.03174 -0.00217675 0)