/*--------------------------------*- C++ -*----------------------------------*\
| =========                 |                                                 |
| \\      /  F ield         | OpenFOAM: The Open Source CFD Toolbox           |
|  \\    /   O peration     | Version:                                        |
|   \\  /    A nd           | Website:  www.openfoam.com                      |
|    \\/     M anipulation  |                                                 |
\*---------------------------------------------------------------------------*/
FoamFile
{
    version     2.0;
    format      ascii;
    class       surfaceScalarField;
    location    "123.1";
    object      phi;
}
// * * * * * * * * * * * * * * * * * * * * * * * * * * * * * * * * * * * * * //

dimensions      [0 3 -1 0 0 0 0];
oriented        oriented;


internalField   nonuniform List<scalar> 
2238
(
0.0218947
0.0335718
0.0221889
0.0336887
0.0224074
-0.0341095
0.033891
0.0227549
-0.0341766
0.0338291
0.0232674
-0.0343391
0.0338266
0.023886
-0.0344311
0.0338126
0.0247942
-0.0345765
0.0336682
0.0257914
-0.0345632
0.033566
0.0260364
-0.034256
0.034011
-0.0338914
0.0332338
0.026694
0.0206761
0.0212494
0.0217959
-0.0348855
0.0223641
-0.0349994
0.0230445
-0.0352569
0.0239283
-0.035447
0.0254364
-0.0357641
-0.0359911
0.0275362
0.0204582
0.0211657
0.0219309
0.0227226
-0.0362387
0.0237132
-0.0367547
-0.0368537
0.0245757
0.0209207
0.0217333
0.0227814
0.00605104
0.00710097
0.0120029
0.00822176
0.00731164
0.00966043
0.00120492
0.0115158
-0.0047515
0.0138433
-0.0104165
0.0173033
-0.0182692
0.0211179
-0.027097
0.0240646
-0.0338879
0.0254786
-0.0375413
0.0259791
-0.0388276
0.0259636
-0.0391282
0.0256403
-0.0389099
0.0251772
-0.0388612
0.0239625
-0.0377103
0.0229004
-0.037913
-0.0416333
0.0220469
0.00966667
0.0106172
0.011144
0.00583435
0.0129953
-0.000646464
0.0146403
-0.00639646
0.0173561
-0.0131323
0.0212237
-0.0221368
0.0245421
-0.0304154
0.0262341
-0.03558
0.0262402
-0.0375474
0.02516
-0.0377474
0.0238024
-0.0377705
0.0223258
-0.0374334
0.0207245
-0.03726
0.0196064
-0.0365921
0.0183383
-0.036645
-0.0384854
0.0151904
0.0113408
0.00892199
0.013427
0.0037481
0.0151588
-0.00237825
0.0171464
-0.00838406
0.0209784
-0.0169642
0.0250802
-0.0262386
0.0274504
-0.0327856
0.0277548
-0.0358845
0.0268226
-0.0366152
0.0255027
-0.0364275
0.024126
-0.0363939
0.0223093
-0.0356166
0.020349
-0.0352998
0.0193328
-0.0355759
0.0179894
-0.0353016
-0.034162
0.013666
0.011868
0.0067498
0.0140076
0.00160856
0.0156054
-0.00397606
0.0192128
-0.0119915
0.0241058
-0.0218573
0.0275043
-0.029637
0.0285713
-0.0338526
0.0280729
-0.0353861
0.027203
-0.0357453
0.0264622
-0.0356867
0.0255488
-0.0354805
0.0244442
-0.034512
0.0231396
-0.0339951
0.0214561
-0.0338924
0.0201251
-0.0339706
-0.0317891
0.0177522
0.0105313
0.0123235
-0.000183595
0.0159018
-0.00755443
0.0218767
-0.0179663
0.0267516
-0.0267322
0.0288662
-0.0317516
0.0290408
-0.0340273
0.0284112
-0.0347565
0.0277485
-0.0350826
0.0271255
-0.0350637
0.0261936
-0.0345486
0.0254834
-0.0338017
0.024914
-0.0334258
0.0235325
-0.0325109
0.0215948
-0.0320329
-0.0311755
0.0209813
0.0110804
0.0182814
-0.0147554
0.0244169
-0.0241019
0.0274101
-0.0297254
0.028186
-0.0325275
0.0280235
-0.0338648
0.0277474
-0.0344804
0.0273116
-0.0346467
0.0265424
-0.0342945
0.0258936
-0.0338998
0.0255064
-0.0334146
0.0252992
-0.0332185
0.0251644
-0.0323761
0.0241305
-0.0309991
-0.0301657
0.0231207
0.0212138
0.0251538
-0.0280418
0.0267206
-0.0312922
0.0272028
-0.0330096
0.0270645
-0.0337265
0.0265807
-0.0339966
0.0258452
-0.0339112
0.0250906
-0.0335399
0.0247311
-0.0335403
0.0245175
-0.033201
0.0243182
-0.0330192
0.0240825
-0.0321404
0.0248546
-0.0317711
-0.0303031
0.0249919
0.0243902
0.0253402
-0.0322422
0.0254849
-0.0331544
0.0252676
-0.0335092
0.0248256
-0.0335545
0.0243224
-0.033408
0.0242164
-0.033434
0.0241081
-0.033432
0.0240959
-0.0331887
0.0241767
-0.0331
0.0240603
-0.032024
0.0246711
-0.0323819
-0.0319305
0.0262985
0.0238838
0.023817
-0.0330875
0.0236662
-0.0333585
0.0235846
-0.0334729
0.0237496
-0.0335731
0.0240768
-0.0337612
0.0241771
-0.0335322
0.0243332
-0.0333449
0.0243804
-0.0331472
0.0251751
-0.0328187
0.025877
-0.0330837
-0.0320909
0.0260374
0.0223874
0.0226007
0.0228165
0.0231344
0.0232023
0.0234966
0.0239644
0.0244853
0.0252326
0.0261599
0.0273028
0.0200606
-0.0571524
0.0209796
-0.045301
0.024901
-0.02263
0.0296382
0.00832903
0.0349204
0.0342732
0.0393448
0.0508684
0.0428217
0.058072
0.0450417
0.0620766
0.0466046
0.0606358
0.0473279
0.062475
0.0467522
0.0683957
0.0453198
0.0742568
0.0424886
0.0789496
0.0376919
0.0724544
0.0336783
0.0526118
0.0304636
0.0142689
0.0305429
-0.0276378
0.0322568
-0.0627709
0.0352684
-0.0809591
-0.0859392
0.00924024
-0.0512022
0.00958276
-0.0456435
0.0138721
-0.0269194
0.0207263
0.00147486
0.0294905
0.025509
0.0367998
0.0435591
0.0425462
0.0523256
0.04693
0.0576928
0.0498017
0.057764
0.0524218
0.0598549
0.0540932
0.0667243
0.0545778
0.0737723
0.0536152
0.0799122
0.0502415
0.075828
0.0463789
0.0564744
0.0415079
0.0191399
0.0383382
-0.0244681
0.0366086
-0.0610413
0.037432
-0.0817825
-0.0856663
0.00516424
-0.0427004
0.00282804
-0.0433073
0.0059577
-0.0300491
0.0142605
-0.00682791
0.0249873
0.0147822
0.0347983
0.033748
0.0421941
0.0449298
0.0484403
0.0514467
0.0532113
0.052993
0.0579036
0.0551625
0.0627886
0.0618394
0.0664836
0.0700772
0.0684575
0.0779383
0.0668972
0.0773883
0.0622153
0.0611564
0.0549099
0.0264453
0.0486829
-0.0182411
0.0436115
-0.0559699
0.0406194
-0.0787904
-0.0829197
0.00928446
-0.0342327
0.00282468
-0.0368475
0.00374303
-0.0309674
0.0113913
-0.0144761
0.0220378
0.00413566
0.0328746
0.0229112
0.0416537
0.0361507
0.0487812
0.0443191
0.0547132
0.047061
0.0610464
0.0488293
0.0686261
0.0542597
0.0754999
0.0632034
0.0804099
0.0730283
0.0815507
0.0762475
0.0778627
0.0648444
0.0694812
0.0348267
0.0597083
-0.00846822
0.0512792
-0.0475407
0.0446888
-0.0722
-0.0778814
0.0159188
-0.0291702
0.00818279
-0.0291115
0.0054571
-0.0282417
0.0103846
-0.0194036
0.0198477
-0.00532744
0.0301403
0.0126186
0.0395278
0.0267631
0.0472391
0.0366078
0.0537497
0.0405505
0.0606454
0.0419335
0.069471
0.0454341
0.0799792
0.0526952
0.0886329
0.0643746
0.0921941
0.0726863
0.0897238
0.0673147
0.0822385
0.0423121
0.0711579
0.00261236
0.058992
-0.0353748
0.0491421
-0.0623501
-0.0707948
0.0204065
-0.0264561
0.0153575
-0.0240625
0.0101559
-0.0230401
0.0107483
-0.019996
0.017156
-0.0117351
0.0267591
0.00301552
0.036301
0.0172212
0.0444692
0.0284396
0.0506213
0.0343984
0.0568266
0.0357282
0.0650674
0.0371933
0.0766577
0.041105
0.0888464
0.0521859
0.0974426
0.06409
0.0983709
0.0663864
0.091202
0.049481
0.0787296
0.0150847
0.0647902
-0.0214353
0.0529761
-0.0505361
-0.0620886
0.0215841
-0.0230483
0.0198161
-0.0222945
0.0165318
-0.0197558
0.013778
-0.0172421
0.0156132
-0.0135704
0.0228553
-0.00422661
0.0318672
0.00820929
0.0406306
0.0196762
0.0474874
0.0275417
0.0532164
0.0299992
0.0596636
0.0307462
0.0699628
0.0308058
0.0831409
0.0390077
0.0931359
0.054095
0.096954
0.0625683
0.0941953
0.0522398
0.0841899
0.02509
0.0700892
-0.00733463
0.0569685
-0.0374154
0.0466586
-0.0517787
-0.0583178
0.0238643
-0.0206141
0.0216076
-0.0200378
0.0205671
-0.0187153
0.018819
-0.015494
0.0175427
-0.012294
0.0206123
-0.00729616
0.0272631
0.00155848
0.0348734
0.0120658
0.0413738
0.0210414
0.0464994
0.0248736
0.0521094
0.0251362
0.0607283
0.0221868
0.0732762
0.0264598
0.0863538
0.0410175
0.0945822
0.0543399
0.0926388
0.0541832
0.0827787
0.0349502
0.0697854
0.00565864
0.0570968
-0.0247268
0.047396
-0.0420779
-0.0493855
0.0244591
-0.0190358
0.022595
-0.0181737
0.0210042
-0.0171245
0.0206626
-0.0151525
0.0203418
-0.0119732
0.0218903
-0.00884458
0.0270016
-0.00355287
0.0335736
0.00549384
0.0400066
0.0146083
0.0445298
0.0203504
0.0474006
0.0222654
0.0514998
0.0180876
0.0609008
0.0170589
0.0739363
0.027982
0.0847074
0.0435688
0.08867
0.0502205
0.0858366
0.0377836
0.0742324
0.0172628
0.0601274
-0.0106218
0.0497146
-0.0316651
-0.0399381
0.0251284
-0.0168614
0.0235529
-0.0165983
0.0219369
-0.0155085
0.0212049
-0.0144204
0.0210225
-0.0117908
0.0211917
-0.0090138
0.0239732
-0.00633435
0.0301873
-0.000720285
0.0370781
0.00771751
0.0416691
0.0157593
0.0431277
0.0208068
0.0442004
0.0170149
0.0488239
0.0124354
0.0587088
0.0180971
0.0709222
0.0313554
0.0779026
0.0432402
0.0762231
0.039463
0.067702
0.0257839
0.0577065
-0.00062625
0.0500002
-0.0239588
-0.0314042
0.0460252
-0.0141497
-0.0487369
0.0433718
-0.0139449
0.0410506
-0.0131872
0.0391544
-0.0125242
0.0376123
-0.0102487
0.0356269
-0.00702837
0.0340519
-0.00475936
0.033743
-0.000411368
0.034619
0.00684144
0.035764
0.0146144
0.03756
0.0190108
0.0396753
0.0148996
0.0422799
0.00983079
0.0463347
0.0140423
0.0524642
0.0252258
0.0561665
0.0395379
0.0597472
0.0358823
0.0630516
0.0224795
0.0635803
-0.00115497
0.0619721
-0.0223506
0.0556743
-0.0251064
-0.0370625
0.0494654
-0.011959
-0.0516561
0.0474901
-0.0119696
0.0453287
-0.0110259
0.0428508
-0.0100463
0.0409441
-0.00834201
0.0394905
-0.00557472
0.0387691
-0.00403796
0.0379967
0.00036094
0.0387565
0.00608165
0.0410362
0.0123347
0.0443844
0.0156625
0.0461588
0.0131252
0.0465888
0.00940078
0.0467388
0.0138924
0.0495222
0.0224424
0.0534572
0.0356029
0.0606774
0.0286621
0.0665824
0.0165745
0.0663428
-0.000915353
0.0634988
-0.0195065
0.0579825
-0.0195901
-0.0316119
0.0536381
-0.0100447
-0.0555525
0.0514603
-0.00979172
0.0496607
-0.00922629
0.0476907
-0.0080764
0.0461643
-0.00681557
0.0445959
-0.00400635
0.0436766
-0.00311859
0.0431666
0.00087095
0.044043
0.00520519
0.046493
0.00988467
0.0499154
0.0122402
0.0515659
0.0114748
0.0513839
0.00958275
0.0497636
0.0155127
0.0519461
0.02026
0.0576814
0.0298676
0.0654464
0.0208971
0.0707984
0.0112225
0.0702926
-0.000409608
0.0682505
-0.0174644
0.0644623
-0.0158018
-0.0265435
0.0574861
-0.00821174
-0.059319
0.0555232
-0.00782888
0.0539248
-0.00762783
0.0521836
-0.00633522
0.0510008
-0.00563275
0.0498992
-0.00290473
0.0489893
-0.00220877
0.0486898
0.00117044
0.0497122
0.00418279
0.0517849
0.00781197
0.0544859
0.0095392
0.0557328
0.0102279
0.0560106
0.00930486
0.0554997
0.0160236
0.0589096
0.0168501
0.0655254
0.0232518
0.0710436
0.0153789
0.0747539
0.00751226
0.0735914
0.000752827
0.0698323
-0.0137053
0.0648041
-0.0107736
-0.0224449
0.0615626
-0.00665013
-0.0631242
0.0599043
-0.00617064
0.0585082
-0.00623165
0.0570612
-0.00488823
0.0559833
-0.00455491
0.0551768
-0.00209822
0.0544742
-0.00150614
0.0543586
0.00128608
0.0552233
0.00331808
0.0567081
0.00632717
0.0589533
0.00729398
0.0596066
0.00957465
0.0606024
0.00830904
0.0622458
0.0143801
0.0657156
0.0133803
0.0714
0.0175674
0.0747215
0.0120574
0.0770591
0.00517467
0.0758577
0.00195416
0.0739224
-0.01177
0.071513
-0.00836424
-0.020759
0.0661567
-0.00538312
-0.0674238
0.0647371
-0.00475104
0.0634525
-0.00494705
0.0622466
-0.00368229
0.0612378
-0.00354608
0.0606618
-0.00152221
0.0601319
-0.000976257
0.0600716
0.00134635
0.0608347
0.00255501
0.0618175
0.00534441
0.0635588
0.00555265
0.0645017
0.00863171
0.0657718
0.007039
0.0679528
0.0121991
0.0708987
0.0104344
0.0755405
0.0129256
0.0778489
0.00974902
0.0798515
0.00317211
0.0792123
0.00259336
0.0769982
-0.0095559
0.0732356
-0.00460162
-0.0164653
0.0709967
-0.00425951
-0.0721203
0.069874
-0.00362833
0.0687814
-0.00385445
0.067854
-0.00275484
0.0670272
-0.00271929
0.0665121
-0.00100719
0.0661943
-0.000658424
0.0661161
0.00142453
0.0667463
0.00192487
0.0675016
0.00458903
0.0687737
0.00428057
0.0699331
0.00747231
0.0711023
0.00586986
0.0734492
0.00985217
0.0757936
0.00808997
0.0792808
0.00943843
0.0812176
0.00781227
0.0825084
0.00188123
0.0821855
0.00291632
0.0812268
-0.00859724
0.07957
-0.00294482
-0.0131698
0.0761046
-0.00333818
-0.077026
0.0752936
-0.00281727
0.0744653
-0.00302618
0.0738031
-0.00209264
0.0731773
-0.00209346
0.0728055
-0.000635446
0.0726174
-0.000470361
0.0726094
0.00143256
0.0730581
0.00147621
0.0736914
0.00395577
0.074637
0.00333496
0.0758746
0.00623468
0.0769603
0.00478418
0.0790633
0.00774913
0.080879
0.00627423
0.0834301
0.00688737
0.085343
0.00589939
0.0862001
0.00102407
0.0863784
0.00273807
0.0842472
-0.00646606
0.0829503
-0.00164792
-0.0101973
0.0816835
-0.00263005
-0.0823916
0.0810869
-0.00222066
0.0804329
-0.00237223
0.0799575
-0.00161719
0.0795231
-0.0016591
0.0793167
-0.000428996
0.0792387
-0.000392408
0.0793818
0.0012895
0.0797315
0.00112646
0.0804093
0.00327801
0.0811292
0.00261509
0.0822714
0.00509248
0.0832399
0.00381562
0.0848766
0.00611244
0.0864351
0.00471573
0.0882411
0.00508136
0.0896563
0.00448423
0.0899752
0.000705148
0.0903957
0.00231757
0.0888814
-0.00495179
0.088282
-0.0010485
-0.00762159
0.0877363
-0.00199823
-0.0883681
0.0872618
-0.00174614
0.0867186
-0.00182904
0.0864125
-0.00131103
0.086083
-0.00132967
0.0860338
-0.000379783
0.0860211
-0.00037973
0.0863171
0.000993502
0.0866555
0.000788108
0.0873103
0.0026232
0.0879412
0.00198422
0.0889294
0.0041042
0.0898258
0.0029193
0.0911042
0.00483402
0.0923382
0.00348174
0.0934381
0.00398148
0.0947022
0.00322007
0.0946315
0.000775875
0.0951553
0.00179373
0.0935593
-0.00335581
0.0930502
-0.000539382
-0.0056612
0.0942804
-0.00144708
-0.0948315
0.0939171
-0.00138289
0.0934436
-0.00135551
0.0932255
-0.00109295
0.092939
-0.00104319
0.0929693
-0.000410009
0.0929637
-0.000374158
0.0932858
0.000671386
0.0935896
0.00048437
0.0942241
0.0019887
0.0948286
0.00137971
0.0956959
0.00323684
0.096517
0.00209823
0.0974603
0.00389076
0.0984517
0.00249035
0.0991718
0.00326132
0.100078
0.00231402
0.0998496
0.00100414
0.100295
0.00134863
0.0989286
-0.00198969
0.0987405
-0.000351266
-0.00406156
0.101335
-0.000977386
-0.101805
0.100997
-0.00104499
0.10059
-0.000948153
0.100394
-0.000896958
0.10014
-0.000788823
0.100141
-0.000411061
0.100116
-0.000349281
0.100387
0.000399645
0.100641
0.000231197
0.101209
0.00142016
0.101707
0.000882226
0.102487
0.00245654
0.103144
0.00144089
0.10397
0.00306549
0.104729
0.00173119
0.105228
0.00276222
0.105951
0.00159074
0.105663
0.00129199
0.10611
0.000901467
0.105018
-0.0008972
0.104857
-0.000190584
-0.00280883
0.108802
-0.000602531
-0.109176
0.10857
-0.000813366
0.108245
-0.000623457
0.108053
-0.000704519
0.107781
-0.000517294
0.107748
-0.000377491
0.107668
-0.000269549
0.107869
0.000199115
0.108013
8.71098e-05
0.108444
0.000988674
0.108816
0.000510584
0.109434
0.00183823
0.109985
0.000889686
0.110623
0.00242763
0.111257
0.00109691
0.111642
0.00237776
0.112226
0.00100644
0.11206
0.00145791
0.112403
0.000559109
0.111619
-0.000113382
0.111548
-0.000119759
-0.00183958
0.116841
-0.000352094
-0.117091
0.116607
-0.000579204
0.116316
-0.000332672
0.116115
-0.000503542
0.115901
-0.000302992
0.115828
-0.000304558
0.11573
-0.000171922
0.115811
0.000117912
0.115864
3.45154e-05
0.116145
0.000707195
0.116374
0.000281775
0.116838
0.00137418
0.117214
0.000514081
0.117732
0.00190937
0.118191
0.000638144
0.118549
0.00201922
0.118996
0.000559953
0.118961
0.00149285
0.119235
0.000284694
0.118783
0.000339065
0.118705
-4.22248e-05
-0.00120002
0.125137
-0.000146422
-0.125343
0.124919
-0.000361089
0.124737
-0.000150306
0.12458
-0.000346559
0.124427
-0.000150679
0.124318
-0.000195555
0.124224
-7.72557e-05
0.124233
0.00010874
0.124234
3.33225e-05
0.124405
0.000536253
0.124518
0.000169054
0.124844
0.00104776
0.125058
0.000299664
0.125483
0.00148442
0.125758
0.000363143
0.126142
0.00163532
0.126386
0.000315926
0.12656
0.00131895
0.126674
0.000171042
0.126538
0.000474953
0.126449
4.63723e-05
-0.000783673
0.133887
-2.36644e-05
-0.13401
0.133751
-0.000224664
0.133634
-3.41934e-05
0.133484
-0.000195874
0.133368
-3.46012e-05
0.13326
-8.8022e-05
0.133181
1.67573e-06
0.133166
0.000123953
0.133138
6.09604e-05
0.133239
0.000435168
0.133274
0.000133955
0.133515
0.000807654
0.133612
0.000201981
0.133958
0.00113914
0.134094
0.000226943
0.134444
0.00128499
0.13457
0.000189918
0.134798
0.00109114
0.134853
0.000116417
0.134849
0.000478154
0.134796
0.000100126
-0.000501092
0.143221
5.71474e-05
-0.143302
0.143078
-8.14588e-05
0.142987
5.67107e-05
0.142857
-6.54182e-05
0.142779
4.33419e-05
0.142689
1.64447e-06
0.142633
5.78671e-05
0.14261
0.000147214
0.142579
9.12357e-05
0.142652
0.000362556
0.142655
0.000131432
0.14284
0.000622004
0.142871
0.00017076
0.143148
0.000862411
0.143187
0.000187691
0.143502
0.000970073
0.143525
0.000167682
0.143776
0.000840002
0.143754
0.000137968
0.143822
0.00040989
0.143776
0.000146167
-0.000302746
0.153037
0.000120346
-0.153101
0.152941
1.53423e-05
0.152892
0.00010565
0.152808
1.81741e-05
0.152757
9.43928e-05
0.152697
6.1493e-05
0.15265
0.000104775
0.152637
0.00016008
0.152607
0.000121384
0.152668
0.000301674
0.152655
0.00014468
0.152796
0.000480987
0.152795
0.000171955
0.153007
0.000650379
0.153012
0.000182839
0.153247
0.000734469
0.153245
0.00016968
0.153429
0.000656176
0.153416
0.000151353
0.153462
0.000363603
0.153453
0.000154849
-0.000143215
0.163537
0.000137928
-0.163555
0.163482
7.01485e-05
0.163452
0.000136106
0.163394
7.59363e-05
0.163358
0.000130905
0.163317
0.000101816
0.163291
0.000130527
0.163289
0.000162278
0.16327
0.000140856
0.163313
0.000258717
0.163299
0.000158799
0.163398
0.000381557
0.16339
0.000179887
0.163537
0.00050367
0.163528
0.000191982
0.163696
0.000566513
0.163681
0.000184625
0.163817
0.000519512
0.163798
0.000170838
0.16384
0.000321627
0.163831
0.000163924
-3.70572e-05
0.174729
0.000162095
-0.174753
0.174685
0.000114179
0.174663
0.000158147
0.17463
0.000109038
0.174616
0.000144398
0.1746
0.000118756
0.174588
0.00014231
0.17459
0.000160391
0.174581
0.000149811
0.174613
0.000226463
0.174611
0.000160583
0.174679
0.000314031
0.174679
0.000179436
0.174778
0.000404413
0.174779
0.00019132
0.174889
0.000456327
0.174882
0.000192254
0.174969
0.000432273
0.174953
0.000186332
0.174977
0.000298232
0.174964
0.00017712
4.06837e-05
0.186669
0.000172067
-0.186679
0.186647
0.000136421
0.186643
0.000162036
0.186624
0.000127809
0.186618
0.000150356
0.186604
0.000132549
0.186601
0.000145787
0.186604
0.000157343
0.186607
0.000146774
0.186634
0.000199786
0.186642
0.000152105
0.186697
0.000259499
0.186709
0.000167231
0.186786
0.000327553
0.186791
0.000185943
0.186874
0.000373061
0.186867
0.000199163
0.186934
0.000365815
0.186911
0.000208873
0.186927
0.000282321
0.1869
0.000204502
9.94961e-05
0.199466
0.000168379
-0.199462
0.199456
0.000145964
0.199456
0.000162569
0.199444
0.000140021
0.199443
0.000151303
0.199435
0.000139841
0.199437
0.000144149
0.199441
0.000153152
0.199448
0.000139666
0.199471
0.000177477
0.199482
0.000141181
0.199521
0.000219946
0.199532
0.000156757
0.199587
0.000271849
0.199596
0.000177208
0.19966
0.000308824
0.199661
0.000198667
0.199712
0.000314785
0.199699
0.000221645
0.199715
0.000266595
0.199695
0.000224345
0.000138843
0.213135
0.000160687
-0.213128
0.213133
0.000148194
0.213139
0.000156406
0.213136
0.00014277
0.213142
0.000146234
0.213142
0.000139681
0.213148
0.000137816
0.213156
0.000145671
0.213161
0.000134126
0.213176
0.000162484
0.21318
0.000137523
0.213208
0.000191223
0.213215
0.00014981
0.21326
0.00022675
0.213267
0.000170329
0.213319
0.000257193
0.213322
0.000195223
0.213369
0.000268477
0.213369
0.000220961
0.213393
0.000243286
0.213391
0.000226563
0.000157103
0.227724
0.000146675
-0.22771
0.227732
0.000139695
0.227746
0.000142215
0.227755
0.000133996
0.227768
0.000133496
0.227776
0.000131963
0.227784
0.000129855
0.227791
0.00013814
0.227796
0.00012902
0.22781
0.000148413
0.227817
0.000130404
0.227842
0.000166492
0.227849
0.000142983
0.227881
0.000194321
0.227888
0.000163459
0.227928
0.000217178
0.227938
0.000185189
0.227979
0.000227928
0.227992
0.000207945
0.228021
0.000214624
0.228035
0.000211771
0.000157189
0.243318
0.000124225
-0.243296
0.243337
0.000121317
0.243356
0.000122884
0.243371
0.000119576
0.243385
0.000119136
0.243397
0.000119568
0.243409
0.000117753
0.243424
0.000123563
0.243436
0.000117497
0.243454
0.000130378
0.243463
0.000121447
0.243483
0.000145581
0.243492
0.000134605
0.24352
0.000166556
0.243532
0.000151335
0.243565
0.00018349
0.243582
0.000168627
0.243617
0.000193093
0.24364
0.000185128
0.243668
0.000186379
0.243693
0.000186434
0.000148399
0.260004
0.000103112
-0.259983
0.260023
0.000102695
0.260042
0.000103278
0.26006
0.000101716
0.260079
0.000100321
0.260098
0.000100811
0.260116
9.94674e-05
0.260135
0.000104305
0.260151
0.00010196
0.26017
0.000111028
0.260184
0.00010713
0.260208
0.000121969
0.260225
0.000117918
0.260254
0.000137507
0.260273
0.000132237
0.260305
0.000151073
0.260328
0.000145835
0.260362
0.000159519
0.260389
0.000158053
0.260418
0.000157009
0.260447
0.00015769
0.000133309
0.277841
7.84669e-05
-0.277816
0.277865
7.80377e-05
0.277891
7.77319e-05
0.277915
7.70494e-05
0.277939
7.65586e-05
0.277962
7.7935e-05
0.277983
7.80483e-05
0.278006
8.18756e-05
0.278027
8.10172e-05
0.278051
8.6783e-05
0.278073
8.54007e-05
0.2781
9.51009e-05
0.278123
9.48456e-05
0.278153
0.000107649
0.278178
0.000106674
0.278211
0.000118194
0.27824
0.000116815
0.278275
0.000125006
0.278307
0.000125674
0.278339
0.000124957
0.278371
0.000125959
0.000110674
0.296952
5.01079e-05
-0.296924
0.29698
5.06776e-05
0.297006
5.12947e-05
0.297032
5.159e-05
0.297056
5.18498e-05
0.297081
5.30769e-05
0.297106
5.35999e-05
0.297132
5.60144e-05
0.297157
5.60982e-05
0.297184
5.96681e-05
0.297209
5.98258e-05
0.297239
6.57856e-05
0.297267
6.68103e-05
0.2973
7.44408e-05
0.297331
7.50168e-05
0.297368
8.19187e-05
0.297402
8.22063e-05
0.29744
8.7415e-05
0.297477
8.84707e-05
0.297514
8.85642e-05
0.297551
8.88641e-05
8.06577e-05
0.317458
2.66522e-05
-0.317434
0.317481
2.68908e-05
0.317506
2.70183e-05
0.31753
2.70809e-05
0.317555
2.71147e-05
0.31758
2.77157e-05
0.317606
2.80711e-05
0.317633
2.93538e-05
0.317659
2.96349e-05
0.317687
3.13766e-05
0.317715
3.16451e-05
0.317747
3.43865e-05
0.317778
3.52052e-05
0.317814
3.88478e-05
0.317849
3.96246e-05
0.317888
4.28657e-05
0.317927
4.3374e-05
0.317969
4.57401e-05
0.318011
4.65788e-05
0.318053
4.67168e-05
0.318095
4.70793e-05
4.34638e-05
0.339387
-0.339361
0.339414
0.339441
0.339468
0.339496
0.339523
0.339551
0.339581
0.33961
0.339642
0.339673
0.339708
0.339743
0.339782
0.339821
0.339864
0.339908
0.339953
0.34
0.340047
0.340094
0.0534293
0.0194356
0.0524393
0.0237714
0.0521884
0.0248266
0.050485
0.0292396
0.0284421
0.0557324
0.0191696
0.054792
0.0247118
0.0542145
0.0254041
0.0531648
0.0302893
0.0299508
0.058244
0.0190891
0.0578574
0.0250985
0.0572578
0.0260037
0.0567208
0.0308262
0.0311191
0.0611634
0.0612306
0.0250313
0.0607088
0.0265255
0.0603672
0.0311678
0.0321673
0.0644842
0.0249273
0.0640747
0.0269349
0.0639232
0.0313193
0.0329664
0.0680687
0.024852
0.067792
0.0272116
0.0678698
0.0312415
0.0334124
0.0722908
0.024715
0.0720928
0.0274096
0.0722632
0.0310711
0.0335553
0.0769983
0.0245738
0.0768478
0.0275601
0.0769726
0.0309463
0.0335019
0.0821055
0.0244597
0.0820826
0.0275829
0.0822115
0.0308174
0.0333218
0.0877491
0.0242889
0.0878882
0.0274439
0.0881037
0.030602
0.0330573
0.0938939
0.0240352
0.0941843
0.0271534
0.0944747
0.0303116
0.0327004
0.100451
0.0236948
0.100894
0.0267103
0.101336
0.0298696
0.0322316
0.107388
0.023247
0.10796
0.0261385
0.108555
0.0292749
0.03161
0.114782
0.0226462
0.115528
0.0253927
0.116316
0.0284863
0.0308353
0.122801
0.0218912
0.123592
0.0246026
0.12445
0.0276277
0.0299428
0.131024
0.0211397
0.131861
0.0237659
0.132921
0.0265677
0.0288539
0.139921
0.0201965
0.140986
0.0227009
0.142159
0.0253945
0.0277107
0.149572
0.0191527
0.150625
0.021648
0.151813
0.0242061
0.0264233
0.159583
0.0181123
0.160735
0.0204965
0.162095
0.0228457
0.0249637
0.170456
0.0169434
0.171763
0.0191901
0.173211
0.0213967
0.0234218
0.182116
0.0157037
0.183482
0.0178242
0.18501
0.0198692
0.0217525
0.19452
0.0143911
0.195998
0.0163459
0.197656
0.0182118
0.019946
0.207814
0.0129746
0.209411
0.0147487
0.21119
0.016433
0.0180085
0.222022
0.0114629
0.223729
0.0130412
0.225631
0.0145317
0.0159294
0.237195
0.00985068
0.239025
0.0112113
0.241064
0.0124927
0.0136971
0.253458
0.00812521
0.255417
0.00925233
0.257597
0.0103132
0.0113111
0.270851
0.0062888
0.272939
0.00716413
0.275265
0.00798706
0.00876014
0.289479
0.0043285
0.291711
0.00493204
0.294198
0.0054999
0.00603382
0.309465
0.00223373
0.311852
0.00254527
0.314513
0.00283846
0.00311302
0.330864
0.333409
0.336248
)
;

boundaryField
{
    outlet
    {
        type            calculated;
        value           nonuniform 0();
    }
    upperWall
    {
        type            symmetryPlane;
        value           uniform 0;
    }
    lowerWall
    {
        type            symmetryPlane;
        value           nonuniform 0();
    }
    inlet
    {
        type            calculated;
        value           nonuniform 0();
    }
    cylinder
    {
        type            calculated;
        value           nonuniform 0();
    }
    frontAndBack
    {
        type            empty;
        value           nonuniform 0();
    }
    procBoundary6to2
    {
        type            processor;
        value           nonuniform List<scalar> 
37
(
-0.0160084
-0.0130528
-0.00843243
-0.00264359
0.00289611
0.00808906
0.0148092
0.0232825
0.0309412
0.0361274
0.0383271
0.0391438
0.0392332
0.0393243
0.038925
0.0389751
0.0424868
0.0591387
0.044382
0.0187086
-0.0130662
-0.0395554
-0.0552928
-0.0615488
-0.0642966
-0.0621987
-0.0631982
-0.06782
-0.0728244
-0.0761184
-0.0676577
-0.0485982
-0.0110542
0.0275585
0.061057
0.0779475
0.0839246
)
;
    }
    procBoundary6to5
    {
        type            processor;
        value           nonuniform List<scalar> 
63
(
-0.0217111
-0.0333465
-0.0337554
-0.0339829
-0.0203752
-0.0344104
-0.0347499
-0.0199619
-0.0353818
-0.0357069
-0.0360221
-0.0198551
-0.0373043
-0.0375673
-0.0379017
-0.0193182
-0.00519368
0.015151
-0.00828102
-0.00964554
-0.00969584
-0.00814136
0.00435985
-0.00713677
-0.00412726
-0.0140196
-0.0219496
-0.0221988
-0.0302332
-0.0234267
-0.0326994
-0.0221283
-0.0535467
-0.0554664
-0.0581635
-0.0613674
0.0192932
-0.0643802
-0.0679934
-0.0721538
-0.0768571
-0.0819914
-0.0875783
-0.0936402
-0.100111
-0.10694
-0.114181
-0.122046
-0.130273
-0.138978
-0.148528
-0.158543
-0.169287
-0.180876
-0.193207
-0.206398
-0.22051
-0.235583
-0.251733
-0.269014
-0.287518
-0.30737
-0.32863
)
;
    }
    procBoundary6to7
    {
        type            processor;
        value           nonuniform List<scalar> 
42
(
0.0372831
0.0371592
0.0378727
0.0396506
0.0420554
0.04427
0.0673278
0.0376486
0.0384637
0.0402671
0.0414663
0.0420917
0.0506451
0.0525319
0.0593938
0.0607055
0.0698272
0.0689418
0.0762745
0.0799778
0.0857063
0.0910898
0.0971408
0.103605
0.110579
0.118066
0.126033
0.134513
0.143578
0.153294
0.163725
0.174886
0.186841
0.199656
0.213372
0.228035
0.243702
0.260462
0.278393
0.297581
0.318132
0.340137
)
;
    }
}


// ************************************************************************* //
