/*--------------------------------*- C++ -*----------------------------------*\
| =========                 |                                                 |
| \\      /  F ield         | OpenFOAM: The Open Source CFD Toolbox           |
|  \\    /   O peration     | Version:                                        |
|   \\  /    A nd           | Website:  www.openfoam.com                      |
|    \\/     M anipulation  |                                                 |
\*---------------------------------------------------------------------------*/
FoamFile
{
    version     2.0;
    format      ascii;
    class       volVectorField;
    location    "15";
    object      U;
}
// * * * * * * * * * * * * * * * * * * * * * * * * * * * * * * * * * * * * * //

dimensions      [0 1 -1 0 0 0 0];


internalField   nonuniform List<vector> 
1150
(
(0.801123 0.00965499 -5.20742e-21)
(0.788169 0.0100429 1.20274e-20)
(0.774169 0.0106675 -6.7156e-21)
(0.803515 0.033245 -3.5138e-21)
(0.791241 0.0349172 2.99184e-21)
(0.777914 0.0372256 -3.32124e-20)
(0.808336 0.0541832 -5.95754e-21)
(0.797295 0.0568103 4.55269e-20)
(0.784967 0.060573 -5.65074e-20)
(0.815773 0.0779358 1.73576e-21)
(0.806346 0.0819366 1.34715e-20)
(0.825892 0.097116 6.22793e-21)
(0.818146 0.101305 1.13215e-19)
(0.838208 0.120573 -3.04567e-20)
(1.00005 -0.000544315 -1.01247e-22)
(1.0028 0.000884103 -2.71693e-23)
(1.00196 -0.00101112 1.87536e-23)
(1.00419 0.000960078 -8.00205e-23)
(0.999988 -0.000348636 2.13368e-23)
(0.994727 0.0013924 9.97074e-23)
(0.991089 -0.000483695 -9.5688e-23)
(0.991892 0.000626397 4.66624e-24)
(0.991897 -0.000748439 -6.09438e-23)
(0.992416 0.00066733 1.00984e-22)
(0.991398 -4.65433e-05 -7.17812e-23)
(0.98714 0.00150774 2.67289e-23)
(0.980217 0.000665639 -2.69999e-22)
(0.974174 0.00185219 2.24408e-22)
(0.968466 0.000801208 -1.91708e-22)
(0.962944 0.00169159 4.2739e-22)
(0.957152 0.000875123 4.00605e-23)
(0.951812 0.00197211 -9.50098e-22)
(0.945823 0.00154271 1.04292e-21)
(0.938648 0.00282181 -3.01609e-22)
(0.929864 0.00264512 7.92804e-22)
(0.92042 0.00402613 -1.99459e-21)
(0.909849 0.00394795 2.55928e-22)
(0.898505 0.00526374 1.29052e-21)
(0.886084 0.00523622 3.68591e-22)
(0.873202 0.00655057 -3.67132e-21)
(0.859627 0.00658239 2.99671e-21)
(0.84573 0.00792941 -1.68791e-22)
(0.830969 0.00800005 6.14064e-22)
(0.815626 0.00947528 3.08273e-21)
(1.0001 -0.0016023 4.33365e-22)
(1.00294 0.00255396 -6.39046e-23)
(1.00211 -0.00289157 -2.64034e-22)
(1.00359 0.00280721 1.16758e-22)
(0.999418 -0.0010222 -2.12326e-22)
(0.994331 0.00422391 3.56125e-22)
(0.991678 -0.00166698 -1.42656e-22)
(0.992757 0.00199747 -3.0743e-22)
(0.992806 -0.00219084 2.63499e-22)
(0.992678 0.00210022 -5.00847e-22)
(0.991337 4.36727e-05 2.40655e-22)
(0.986637 0.00459587 -1.84013e-22)
(0.979902 0.00218525 2.99977e-22)
(0.973908 0.00560658 -1.88384e-22)
(0.968552 0.00269984 1.78274e-21)
(0.963092 0.00532076 -2.80546e-21)
(0.957509 0.00314018 2.60034e-21)
(0.952071 0.00640975 2.18831e-21)
(0.946109 0.00529044 -2.71427e-21)
(0.938749 0.00911565 2.95764e-21)
(0.930072 0.00883137 -4.69018e-21)
(0.920554 0.0129928 -1.69261e-21)
(0.910151 0.0130313 -1.32307e-21)
(0.898881 0.0171138 -2.24625e-21)
(0.886741 0.0173742 5.86255e-21)
(0.874038 0.0215129 1.15573e-21)
(0.860725 0.0220453 -3.23935e-21)
(0.84699 0.0264103 7.44761e-21)
(0.832474 0.0272219 4.25929e-22)
(0.817378 0.0320965 -8.6566e-21)
(1.00025 -0.00270632 -7.19104e-22)
(1.00314 0.0042421 -1.20955e-22)
(1.00236 -0.00469279 -8.34212e-23)
(1.00236 0.00483194 -5.3097e-22)
(0.998338 -0.00171069 9.84352e-23)
(0.99367 0.00671539 -8.17522e-22)
(0.992908 -0.00295418 7.09382e-22)
(0.994547 0.00317218 8.85732e-22)
(0.994361 -0.00343817 -6.54069e-22)
(0.993097 0.00379794 -1.06094e-21)
(0.991033 0.000335258 9.53777e-22)
(0.98564 0.00765421 -1.28341e-21)
(0.979209 0.00345881 2.34773e-21)
(0.973497 0.00898602 -3.97462e-22)
(0.968711 0.00404417 -8.74921e-22)
(0.963438 0.00835997 1.72445e-21)
(0.958104 0.0049006 -6.14491e-21)
(0.952519 0.0102774 8.77286e-21)
(0.946459 0.00858063 -1.22224e-21)
(0.938861 0.014812 9.31059e-23)
(0.93029 0.0142486 -2.66494e-21)
(0.920718 0.020922 2.11266e-22)
(0.910615 0.0207705 -6.19949e-21)
(0.899586 0.0273128 1.26865e-20)
(0.887916 0.0275183 1.6751e-21)
(0.875656 0.0342246 -9.53558e-21)
(0.862841 0.0349564 3.80668e-21)
(0.849573 0.0422471 4.07417e-23)
(0.835538 0.0436702 -7.89545e-21)
(0.821062 0.0520908 1.65633e-20)
(1.00059 -0.00370717 4.76086e-22)
(1.0033 0.00568411 3.07485e-22)
(1.00264 -0.00604208 1.51581e-22)
(1.00043 0.00671689 1.35951e-21)
(0.996863 -0.00233689 2.00116e-22)
(0.993073 0.00879841 -4.39335e-22)
(0.995 -0.00480283 1.08771e-23)
(0.997066 0.00447353 -4.73696e-22)
(0.996375 -0.00456075 9.21e-22)
(0.993264 0.00593831 -5.54239e-22)
(0.990352 0.000868606 -1.20513e-21)
(0.984018 0.0108705 7.40093e-22)
(0.978357 0.00466569 1.01191e-21)
(0.972896 0.0123155 -2.42985e-21)
(0.969078 0.00545691 5.42758e-21)
(0.963866 0.0117982 -7.57455e-21)
(0.958969 0.00711064 3.90512e-21)
(0.952985 0.0149701 -6.08112e-21)
(0.946895 0.0125537 3.09327e-21)
(0.938706 0.0215087 7.10699e-21)
(0.930377 0.0205237 -1.02277e-20)
(0.920577 0.0299766 1.33627e-20)
(0.911001 0.0295189 -1.50514e-20)
(0.900165 0.0389497 6.14228e-21)
(0.889328 0.0390151 8.05189e-21)
(0.877575 0.0488409 1.05944e-20)
(0.86566 0.0497874 -3.58286e-20)
(0.853059 0.0606056 7.1807e-21)
(0.840007 0.0627054 -1.81602e-21)
(0.82662 0.0751335 -5.49587e-21)
(1.00114 -0.00483352 2.01194e-22)
(1.00336 0.00721755 -1.83718e-22)
(1.00274 -0.00723154 2.89721e-22)
(0.997719 0.00892239 -5.09605e-22)
(0.995527 -0.00319858 4.74413e-22)
(0.992753 0.0103169 -3.20146e-22)
(0.998163 -0.00693002 6.06783e-23)
(1 0.00577132 -1.6179e-21)
(0.998209 -0.00515512 1.37686e-21)
(0.992926 0.00863407 1.15422e-21)
(0.989058 0.00172895 -1.97916e-21)
(0.982087 0.0137583 -5.25095e-22)
(0.977507 0.00544858 2.71605e-21)
(0.972645 0.0148691 -1.79556e-21)
(0.96992 0.00590659 6.79416e-22)
(0.964479 0.014509 -9.39452e-22)
(0.960048 0.00869737 7.33232e-22)
(0.953278 0.019018 -3.54302e-22)
(0.947287 0.0160027 -8.65947e-22)
(0.938334 0.0273327 1.26368e-20)
(0.930731 0.0257 -1.11291e-20)
(0.920534 0.0374015 -1.17443e-20)
(0.912298 0.0361481 -2.67719e-21)
(0.901471 0.0478503 3.33244e-20)
(0.892244 0.0473547 1.95733e-20)
(0.880872 0.0597201 -1.89648e-20)
(0.870549 0.0606132 1.33888e-20)
(0.858475 0.0745512 -2.58804e-20)
(0.846988 0.0772756 1.45588e-20)
(0.834442 0.0935573 -1.00624e-19)
(1.00199 -0.00570687 -1.04744e-21)
(1.00324 0.00833439 3.93411e-22)
(1.0023 -0.00758574 -7.07539e-22)
(0.994571 0.0105667 6.71076e-22)
(0.994512 -0.00392547 -9.0542e-22)
(0.993362 0.0108469 4.35489e-22)
(1.00223 -0.00935143 2.702e-22)
(1.00288 0.00755508 5.30379e-22)
(0.999501 -0.00523744 2.70647e-24)
(0.991523 0.0118378 -2.28013e-21)
(0.987106 0.00284824 5.05383e-22)
(0.980094 0.016685 6.90128e-22)
(0.976651 0.00620078 4.76199e-21)
(0.972967 0.0175847 -4.87652e-21)
(0.970483 0.00705855 2.32158e-21)
(0.965711 0.0180802 3.66457e-21)
(0.960339 0.0115811 -3.55557e-21)
(0.953926 0.0246507 -8.77129e-21)
(0.946584 0.0210232 -4.41836e-21)
(0.938211 0.03498 1.58901e-20)
(0.929848 0.0327018 6.78808e-21)
(0.920849 0.0468288 -3.65289e-21)
(0.912461 0.0450853 6.10977e-21)
(0.903413 0.0595523 5.48172e-21)
(0.894403 0.0587328 -2.25224e-20)
(0.885092 0.0744739 -2.9237e-20)
(0.875222 0.0754165 1.40052e-20)
(0.865383 0.0932713 6.97878e-20)
(0.854612 0.0964563 -1.00059e-19)
(0.845062 0.116991 1.12304e-19)
(1.00325 -0.00684611 5.25895e-22)
(1.00272 0.00983643 -5.20603e-22)
(1.00118 -0.00787928 -8.44805e-22)
(0.99104 0.012491 5.41942e-22)
(0.994626 -0.00530516 3.77955e-22)
(0.994986 0.0108181 -9.1867e-22)
(1.007 -0.0118822 8.46665e-22)
(1.00522 0.00970114 8.67747e-22)
(0.9998 -0.00483085 -6.35282e-23)
(0.988357 0.0158062 -7.11409e-22)
(0.985932 0.00327803 3.02069e-21)
(0.977428 0.0188438 -2.1431e-21)
(0.978003 0.00578308 4.4621e-21)
(0.972541 0.0191808 -7.43326e-21)
(0.973165 0.00642942 9.51316e-21)
(0.965081 0.0210142 -3.87527e-21)
(0.962411 0.0129056 -8.32191e-21)
(0.952332 0.0292469 -5.31983e-21)
(0.94736 0.0239857 -3.87064e-21)
(0.936535 0.0406589 -2.16947e-21)
(0.93128 0.0363088 2.81428e-20)
(0.920686 0.0529016 -3.10667e-20)
(0.916086 0.0488072 1.34356e-22)
(0.905771 0.0661256 2.07971e-20)
(0.900691 0.0634301 -1.87631e-20)
(0.890276 0.0825358 1.15801e-20)
(0.884247 0.0825222 4.54215e-20)
(0.87352 0.104586 -7.89295e-20)
(0.866425 0.107594 5.91449e-20)
(0.856383 0.133157 1.88254e-20)
(1.00497 -0.00755462 1.59741e-23)
(1.0015 0.0108559 4.1472e-22)
(0.999589 -0.00710382 8.12493e-22)
(0.98723 0.013098 5.69734e-22)
(0.995947 -0.00649937 -2.07313e-23)
(0.9979 0.00952467 -1.29669e-21)
(1.01197 -0.0136001 -8.07941e-22)
(1.00674 0.0125472 2.22989e-21)
(0.997611 -0.00294253 -2.97959e-21)
(0.985943 0.0192842 1.3126e-21)
(0.982319 0.0044843 -4.89638e-22)
(0.977887 0.0206442 6.70544e-21)
(0.977563 0.00666138 -1.17152e-21)
(0.975059 0.0211558 -1.38081e-21)
(0.972892 0.00901802 -5.75444e-21)
(0.966645 0.0253432 -5.27428e-21)
(0.961184 0.0179768 1.88265e-20)
(0.952625 0.0363333 -6.82111e-21)
(0.945385 0.0310022 -6.72134e-21)
(0.936314 0.0491183 -2.14459e-21)
(0.930778 0.0445981 1.79437e-20)
(0.921911 0.0623176 -7.02578e-21)
(0.918413 0.058878 1.10065e-20)
(0.909121 0.0779078 7.59112e-21)
(0.905908 0.0761854 -5.86787e-20)
(0.896223 0.0980581 1.00626e-20)
(0.892567 0.0988011 -8.93019e-21)
(0.883096 0.124473 3.02881e-22)
(0.878913 0.127862 4.94781e-20)
(1.00668 -0.00858784 4.38056e-22)
(1.0002 0.012508 -2.08454e-22)
(0.996716 -0.00648876 -4.49256e-22)
(0.984524 0.0137044 6.68511e-22)
(0.997285 -0.00862625 7.48626e-22)
(1.00297 0.00768489 -1.03589e-22)
(1.01768 -0.0148901 -8.68338e-22)
(1.00453 0.0159849 1.286e-21)
(0.997866 -0.00165573 -5.9459e-22)
(0.978542 0.0232438 1.97459e-22)
(0.984166 0.00316805 7.07989e-22)
(0.973314 0.021331 -3.60038e-21)
(0.984962 0.00478428 2.38956e-21)
(0.971696 0.0222616 1.22898e-21)
(0.978682 0.00793009 -7.04989e-21)
(0.961882 0.0285145 9.38675e-21)
(0.964141 0.0184122 -8.99113e-21)
(0.946964 0.0407757 1.94734e-20)
(0.947919 0.0316408 -1.33196e-20)
(0.933086 0.053055 1.02273e-20)
(0.934909 0.0439049 1.16547e-21)
(0.922896 0.0655646 -3.48088e-20)
(0.92478 0.0575796 9.98614e-21)
(0.914386 0.0816124 4.75294e-21)
(0.914208 0.0758552 1.95298e-20)
(0.905208 0.103547 -2.15682e-20)
(0.902704 0.101292 -2.30753e-21)
(0.895561 0.133695 2.92118e-20)
(0.891427 0.135632 2.02142e-20)
(1.00834 -0.0090122 -4.57877e-22)
(0.998416 0.0136813 1.3371e-22)
(0.994234 -0.00489507 -6.69647e-22)
(0.98089 0.0125557 1.03734e-22)
(1.00276 -0.0105389 3.75636e-23)
(1.00456 0.00493734 8.3425e-23)
(1.02385 -0.0136117 -2.92341e-22)
(1.00448 0.0202339 4.26342e-22)
(0.989549 0.00218198 -2.82313e-21)
(0.979337 0.0264008 3.93588e-21)
(0.977965 0.0038469 3.5456e-21)
(0.980781 0.0217985 -3.62666e-21)
(0.979022 0.00708034 -7.02065e-21)
(0.980931 0.0250135 1.35148e-20)
(0.970939 0.0141842 -1.70313e-20)
(0.967328 0.0345883 1.27418e-20)
(0.955207 0.0277346 -1.69252e-21)
(0.95113 0.0488644 -1.44754e-20)
(0.938931 0.0416294 9.75458e-21)
(0.939254 0.061447 1.07212e-20)
(0.929551 0.0545467 1.07902e-20)
(0.931905 0.0751719 -2.73167e-20)
(0.924407 0.0708681 -2.12544e-20)
(0.924393 0.0944271 6.03681e-20)
(0.918538 0.092442 -4.0855e-20)
(0.915868 0.120748 -9.68624e-22)
(0.912189 0.119982 -1.7748e-20)
(0.908037 0.154171 7.00286e-20)
(1.01087 -0.00982813 0)
(0.994614 0.0153947 0)
(0.994177 -0.00346838 0)
(0.980565 0.0105151 0)
(1.00567 -0.0131888 0)
(1.00526 0.00201489 0)
(1.02821 -0.0136891 0)
(0.996035 0.024814 0)
(0.989537 0.00315999 0)
(0.971042 0.0276062 0)
(0.983846 -0.000496353 0)
(0.977108 0.0212492 0)
(0.985621 0.00295769 0)
(0.976691 0.0257096 0)
(0.97593 0.0117625 0)
(0.962379 0.0363417 0)
(0.960443 0.0242547 0)
(0.944969 0.050022 0)
(0.945148 0.0345503 0)
(0.934838 0.0598161 0)
(0.940227 0.0440188 0)
(0.932799 0.0723867 0)
(0.9402 0.0597077 0)
(0.928723 0.0920993 0)
(0.938234 0.0820909 0)
(0.922435 0.119682 0)
(0.935236 0.111867 0)
(0.917535 0.153548 0)
(1.01377 -0.0099816 0)
(0.986553 0.0163908 0)
(1.00091 -0.00187073 0)
(0.984406 0.00867926 0)
(0.998921 -0.0146668 0)
(1.01766 -0.00137654 0)
(1.01012 -0.0106174 0)
(0.992801 0.0283774 0)
(0.988285 0.00684022 0)
(0.968063 0.0291846 0)
(0.988831 -0.00182108 0)
(0.966091 0.02306 0)
(0.997826 0.00286709 0)
(0.958662 0.0296331 0)
(0.98735 0.0144273 0)
(0.945176 0.0400954 0)
(0.973786 0.0299015 0)
(0.925432 0.0531824 0)
(0.962826 0.040166 0)
(0.918586 0.0599511 0)
(0.960428 0.0487861 0)
(0.921424 0.0707344 0)
(0.959591 0.0658082 0)
(0.9228 0.0894021 0)
(0.956904 0.0905273 0)
(0.921596 0.114352 0)
(0.953244 0.121164 0)
(0.922965 0.143267 0)
(1.01565 -0.00943585 0)
(0.976702 0.0163573 0)
(1.01431 -0.0012219 0)
(0.98441 0.00891615 0)
(0.995015 -0.0179415 0)
(1.02898 -0.00224767 0)
(0.973798 -0.00591429 0)
(1.00663 0.0286833 0)
(0.968755 0.0103308 0)
(0.995756 0.0286427 0)
(0.968884 -0.000961374 0)
(0.983517 0.0214373 0)
(0.978656 0.00422689 0)
(0.972743 0.0320513 0)
(0.969473 0.0170146 0)
(0.959304 0.0425319 0)
(0.957137 0.0362678 0)
(0.941844 0.0533094 0)
(0.952553 0.0436742 0)
(0.939539 0.0576606 0)
(0.95137 0.0506887 0)
(0.940991 0.0683187 0)
(0.948182 0.0677806 0)
(0.943112 0.0879191 0)
(0.943992 0.0934306 0)
(0.946365 0.113415 0)
(0.940581 0.122671 0)
(0.951001 0.141599 0)
(1.01345 -0.00814563 0)
(0.975441 0.0147976 0)
(1.02095 -0.00072433 0)
(0.98424 0.00995673 0)
(1.00027 -0.021747 0)
(1.01918 0.001412 0)
(0.955917 -0.00293829 0)
(1.01351 0.0273672 0)
(0.954771 0.0112709 0)
(1.02115 0.0282851 0)
(0.953387 0.00190692 0)
(1.00678 0.019727 0)
(0.951912 0.00615989 0)
(0.999407 0.0338323 0)
(0.947549 0.0190871 0)
(0.985522 0.0464374 0)
(0.936603 0.0383656 0)
(0.977151 0.0543486 0)
(0.937629 0.0423872 0)
(0.975277 0.0593662 0)
(0.93727 0.0495339 0)
(0.970398 0.0718143 0)
(0.935325 0.0657004 0)
(0.966504 0.0917386 0)
(0.9331 0.0899253 0)
(0.968017 0.116181 0)
(0.934523 0.117186 0)
(0.970424 0.142692 0)
(1.00819 -0.00664539 0)
(0.983256 0.0124379 0)
(1.01594 8.48392e-06 0)
(0.990805 0.0102093 0)
(1.00407 -0.022411 0)
(1.00011 0.0059085 0)
(0.963243 -0.00180603 0)
(1.00414 0.0260237 0)
(0.961848 0.00999509 0)
(1.01887 0.0277646 0)
(0.962488 0.00460949 0)
(1.00718 0.0207203 0)
(0.950506 0.00764422 0)
(1.0013 0.0342069 0)
(0.950819 0.0210567 0)
(0.988617 0.0501886 0)
(0.944881 0.0376652 0)
(0.989401 0.0555369 0)
(0.94694 0.0410319 0)
(0.984728 0.0621677 0)
(0.946442 0.0496505 0)
(0.976151 0.075529 0)
(0.946975 0.0650869 0)
(0.969011 0.0948227 0)
(0.947525 0.0871551 0)
(0.968767 0.116618 0)
(0.951751 0.112104 0)
(0.970862 0.139863 0)
(1.00338 -0.0056784 0)
(0.991688 0.0106401 0)
(1.00774 0.000648694 0)
(0.998705 0.0095188 0)
(1.0027 -0.0201739 0)
(0.988749 0.00837115 0)
(0.976239 -0.00074314 0)
(0.993126 0.0244655 0)
(0.975897 0.00874203 0)
(1.00477 0.0272773 0)
(0.978641 0.00645576 0)
(0.995892 0.0241053 0)
(0.964845 0.00848962 0)
(0.989191 0.0349916 0)
(0.965072 0.0227052 0)
(0.979823 0.0525588 0)
(0.964486 0.0352328 0)
(0.985154 0.0567285 0)
(0.96435 0.0411657 0)
(0.979498 0.0644183 0)
(0.962913 0.0513181 0)
(0.972461 0.0774298 0)
(0.96327 0.0659927 0)
(0.967839 0.0954091 0)
(0.964915 0.085749 0)
(0.968973 0.115039 0)
(0.968898 0.107786 0)
(0.973117 0.134659 0)
(1.0006 -0.00471091 0)
(0.99619 0.00904446 0)
(1.00286 0.00105624 0)
(1.00249 0.00865764 0)
(1.00044 -0.0163144 0)
(0.985753 0.00974543 0)
(0.984506 8.48604e-05 0)
(0.988229 0.0232345 0)
(0.984898 0.00780342 0)
(0.995335 0.026904 0)
(0.987869 0.0073928 0)
(0.988216 0.0274841 0)
(0.976885 0.00956882 0)
(0.981669 0.0361645 0)
(0.974339 0.0241298 0)
(0.976456 0.052534 0)
(0.976873 0.033035 0)
(0.981248 0.0576307 0)
(0.975367 0.0428419 0)
(0.977319 0.0655831 0)
(0.973203 0.0533909 0)
(0.973908 0.0779826 0)
(0.972948 0.0674938 0)
(0.972657 0.0938519 0)
(0.975134 0.0847652 0)
(0.975339 0.11142 0)
(0.979701 0.103822 0)
(0.980966 0.128153 0)
(0.999237 -0.00410071 0)
(0.998245 0.00794691 0)
(1.00095 0.00100965 0)
(1.00255 0.00851404 0)
(0.999196 -0.0131903 0)
(0.986395 0.0109723 0)
(0.988865 0.000218498 0)
(0.987536 0.022744 0)
(0.988709 0.0073953 0)
(0.991721 0.0266988 0)
(0.991144 0.00822248 0)
(0.985707 0.0296382 0)
(0.983052 0.0114485 0)
(0.980671 0.0367844 0)
(0.978991 0.0256596 0)
(0.978838 0.0511317 0)
(0.98233 0.0328433 0)
(0.980583 0.0573896 0)
(0.980827 0.0448019 0)
(0.979579 0.0656661 0)
(0.979334 0.0552346 0)
(0.979272 0.0770351 0)
(0.979925 0.0686414 0)
(0.980064 0.0907549 0)
(0.982723 0.0837376 0)
(0.983807 0.106133 0)
(0.988379 0.0998923 0)
(0.990051 0.120725 0)
(0.9986 -0.00337358 0)
(0.999397 0.00702517 0)
(1.00011 0.000493782 0)
(1.00145 0.00923652 0)
(0.998765 -0.0106889 0)
(0.988134 0.0123272 0)
(0.991098 0.000388664 0)
(0.988313 0.021948 0)
(0.989998 0.00750933 0)
(0.990925 0.0262633 0)
(0.992249 0.00934397 0)
(0.985909 0.0304558 0)
(0.985976 0.0141178 0)
(0.982479 0.0366654 0)
(0.982363 0.0270126 0)
(0.982276 0.0492473 0)
(0.985358 0.03408 0)
(0.982317 0.0560944 0)
(0.984533 0.046049 0)
(0.983467 0.0650707 0)
(0.984909 0.0567173 0)
(0.985201 0.0750197 0)
(0.986681 0.0687827 0)
(0.987281 0.0871102 0)
(0.990013 0.0822033 0)
(0.99205 0.100421 0)
(0.996164 0.0955812 0)
(0.998513 0.112922 0)
(0.99829 -0.00306245 0)
(1.00028 0.0067814 0)
(0.999742 -0.000428543 0)
(1.00024 0.0105084 0)
(0.998419 -0.008959 0)
(0.990138 0.0132843 0)
(0.992305 0.00101548 0)
(0.989854 0.0207857 0)
(0.990615 0.00816108 0)
(0.991272 0.0257314 0)
(0.992812 0.0107895 0)
(0.987273 0.0303991 0)
(0.987576 0.0169343 0)
(0.985254 0.0361752 0)
(0.98566 0.0280533 0)
(0.985533 0.0474112 0)
(0.987822 0.0358613 0)
(0.985768 0.0545316 0)
(0.987937 0.0466296 0)
(0.987426 0.0636 0)
(0.989871 0.0573426 0)
(0.990855 0.0725111 0)
(0.993067 0.0679413 0)
(0.99421 0.0832038 0)
(0.996777 0.0796495 0)
(0.999606 0.0945105 0)
(1.00314 0.0906714 0)
(1.00633 0.104888 0)
(0.998209 -0.00269644 0)
(1.00079 0.00672804 0)
(0.999699 -0.00129522 0)
(0.999171 0.0113191 0)
(0.998281 -0.00678723 0)
(0.992214 0.0133565 0)
(0.993066 0.00249631 0)
(0.99147 0.0194503 0)
(0.991201 0.00899998 0)
(0.992018 0.0249763 0)
(0.993495 0.0124987 0)
(0.98923 0.0297796 0)
(0.988905 0.0194553 0)
(0.988165 0.0355849 0)
(0.988873 0.028786 0)
(0.988641 0.0455885 0)
(0.990148 0.0372943 0)
(0.98974 0.0528063 0)
(0.991548 0.0466478 0)
(0.991611 0.0614043 0)
(0.994403 0.0569995 0)
(0.996357 0.0698597 0)
(0.998939 0.0663307 0)
(1.00065 0.0790156 0)
(1.00287 0.0761779 0)
(1.00611 0.0884083 0)
(1.00938 0.0853412 0)
(1.01311 0.0968054 0)
(0.998285 -0.00269361 0)
(1.00098 0.0071161 0)
(0.999922 -0.00206004 0)
(0.998445 0.0117788 0)
(0.997995 -0.00432983 0)
(0.994108 0.0127135 0)
(0.993835 0.00401932 0)
(0.992984 0.0184328 0)
(0.992158 0.00978679 0)
(0.99305 0.0243003 0)
(0.994348 0.0141544 0)
(0.991304 0.0289686 0)
(0.990342 0.0213391 0)
(0.990851 0.035043 0)
(0.992001 0.0292894 0)
(0.991982 0.0438125 0)
(0.992745 0.0380931 0)
(0.993489 0.0510777 0)
(0.995249 0.0462475 0)
(0.995998 0.0588284 0)
(0.998579 0.0557178 0)
(1.00117 0.0667372 0)
(1.00397 0.0638762 0)
(1.00633 0.0744461 0)
(1.00846 0.072091 0)
(1.0118 0.0821788 0)
(1.01496 0.0796603 0)
(1.01885 0.0888086 0)
(0.998447 -0.00254916 0)
(1.00086 0.00726658 0)
(1.00024 -0.00223719 0)
(0.998083 0.011372 0)
(0.997711 -0.00168075 0)
(0.995809 0.0119854 0)
(0.994789 0.00542465 0)
(0.994264 0.0177984 0)
(0.993281 0.0105676 0)
(0.99421 0.0234567 0)
(0.995336 0.0155737 0)
(0.993461 0.0281552 0)
(0.992146 0.0226631 0)
(0.993302 0.0344508 0)
(0.994878 0.0296505 0)
(0.995339 0.0419779 0)
(0.995594 0.0381521 0)
(0.996799 0.049197 0)
(0.998694 0.0454332 0)
(1.00033 0.0559872 0)
(1.00268 0.0537093 0)
(1.00555 0.0632129 0)
(1.00847 0.060925 0)
(1.01129 0.069702 0)
(1.01347 0.0676691 0)
(1.01667 0.0758914 0)
(1.01963 0.0737139 0)
(1.0235 0.0810314 0)
(0.998659 -0.00255452 0)
(1.00061 0.00740578 0)
(1.00045 -0.00198681 0)
(0.998144 0.0105656 0)
(0.997427 0.000781922 0)
(0.997152 0.0114762 0)
(0.995921 0.00637801 0)
(0.995431 0.0173105 0)
(0.994489 0.0113443 0)
(0.995563 0.0225899 0)
(0.996513 0.0167499 0)
(0.99556 0.0273927 0)
(0.994105 0.0234055 0)
(0.995537 0.0335951 0)
(0.997482 0.0298039 0)
(0.998668 0.0401216 0)
(0.998716 0.037616 0)
(0.999956 0.0470876 0)
(1.00185 0.0442778 0)
(1.00426 0.0529519 0)
(1.00657 0.0512006 0)
(1.00951 0.0593202 0)
(1.0123 0.05753 0)
(1.01532 0.06472 0)
(1.01758 0.0629427 0)
(1.02069 0.0695605 0)
(1.02348 0.0676963 0)
(1.02727 0.0735526 0)
(0.99889 -0.00235111 0)
(1.00028 0.0071253 0)
(1.00049 -0.00121435 0)
(0.998516 0.00950731 0)
(0.997301 0.00281637 0)
(0.998137 0.0112743 0)
(0.997136 0.00717194 0)
(0.996579 0.0167355 0)
(0.995667 0.0121415 0)
(0.996975 0.0217142 0)
(0.997804 0.0175544 0)
(0.99754 0.0265428 0)
(0.996188 0.0237336 0)
(0.997746 0.0325387 0)
(0.999907 0.02975 0)
(1.00173 0.0382532 0)
(1.00182 0.0365674 0)
(1.00293 0.0446525 0)
(1.00463 0.0426604 0)
(1.0076 0.0497472 0)
(1.01014 0.048353 0)
(1.01314 0.0551491 0)
(1.0157 0.0537934 0)
(1.01868 0.0596599 0)
(1.02094 0.0581211 0)
(1.02399 0.0633822 0)
(1.02658 0.061759 0)
(1.03017 0.06639 0)
(0.999105 -0.0021109 0)
(0.999997 0.00662828 0)
(1.0004 -0.000208468 0)
(0.999024 0.00853499 0)
(0.997403 0.00418786 0)
(0.998813 0.0113114 0)
(0.99824 0.00778147 0)
(0.997729 0.0160479 0)
(0.99688 0.0127958 0)
(0.998391 0.0208908 0)
(0.999196 0.0180026 0)
(0.999431 0.0256512 0)
(0.998277 0.0237005 0)
(0.999874 0.031245 0)
(1.0021 0.0292931 0)
(1.00445 0.0363196 0)
(1.00478 0.0351712 0)
(1.00581 0.0419902 0)
(1.00724 0.0406672 0)
(1.01046 0.0464748 0)
(1.01322 0.0452938 0)
(1.01629 0.0508168 0)
(1.0186 0.0497712 0)
(1.02136 0.0545292 0)
(1.02349 0.0532017 0)
(1.02643 0.0573289 0)
(1.02887 0.0558823 0)
(1.03227 0.0595113 0)
(0.999292 -0.00172699 0)
(0.99981 0.00590228 0)
(1.00021 0.000847773 0)
(0.99951 0.00774114 0)
(0.997778 0.0050163 0)
(0.999308 0.0113497 0)
(0.999155 0.00834679 0)
(0.998909 0.0153895 0)
(0.99811 0.013208 0)
(0.999735 0.0200738 0)
(1.0006 0.018163 0)
(1.00118 0.0246328 0)
(1.00028 0.0233292 0)
(1.00192 0.0297409 0)
(1.00418 0.0284917 0)
(1.00688 0.0343199 0)
(1.00745 0.0335058 0)
(1.00843 0.0391325 0)
(1.00957 0.0382678 0)
(1.01275 0.0430264 0)
(1.01566 0.0420232 0)
(1.01889 0.0464378 0)
(1.02106 0.0455905 0)
(1.02354 0.0494295 0)
(1.02544 0.0482968 0)
(1.02819 0.0515136 0)
(1.03049 0.0502103 0)
(1.0337 0.0530105 0)
(0.999435 -0.00129983 0)
(0.999753 0.00510634 0)
(1.00004 0.00178269 0)
(0.999901 0.00716754 0)
(0.998325 0.00551808 0)
(0.999743 0.0111524 0)
(0.999906 0.00892191 0)
(0.999984 0.0146963 0)
(0.999322 0.0133262 0)
(1.00105 0.0192109 0)
(1.00197 0.0180559 0)
(1.00277 0.0234865 0)
(1.00215 0.0226873 0)
(1.00385 0.0280653 0)
(1.00609 0.0273398 0)
(1.00893 0.0321255 0)
(1.00972 0.0315692 0)
(1.01072 0.036132 0)
(1.01167 0.0355832 0)
(1.01468 0.0394731 0)
(1.01762 0.0386664 0)
(1.02093 0.042124 0)
(1.023 0.0413807 0)
(1.02518 0.0444015 0)
(1.02678 0.0434279 0)
(1.02926 0.0459011 0)
(1.03138 0.0447256 0)
(1.0344 0.0468277 0)
(0.999546 -0.000871232 0)
(0.999786 0.00439139 0)
(0.999937 0.00244715 0)
(1.00017 0.00677886 0)
(0.99893 0.00577471 0)
(1.00024 0.0107499 0)
(1.00053 0.00935734 0)
(1.00088 0.0139896 0)
(1.00053 0.0132717 0)
(1.00231 0.0182421 0)
(1.00326 0.017674 0)
(1.00419 0.022202 0)
(1.00383 0.0217913 0)
(1.00558 0.0262158 0)
(1.00781 0.0258701 0)
(1.0107 0.029791 0)
(1.01165 0.0294456 0)
(1.01264 0.0330839 0)
(1.01345 0.0327125 0)
(1.01622 0.0358278 0)
(1.01905 0.0351843 0)
(1.02234 0.0378435 0)
(1.02435 0.0371751 0)
(1.0263 0.0394994 0)
(1.02764 0.0386684 0)
(1.0298 0.0405445 0)
(1.03172 0.0395033 0)
(1.03452 0.0410444 0)
(0.999627 -0.000489837 0)
(0.999869 0.00379311 0)
(0.999936 0.00285409 0)
(1.00033 0.00647802 0)
(0.999517 0.00590119 0)
(1.00078 0.0102127 0)
(1.00108 0.00950886 0)
(1.00165 0.013319 0)
(1.00163 0.0130105 0)
(1.00346 0.0171287 0)
(1.00447 0.0170239 0)
(1.00544 0.020784 0)
(1.00529 0.0206552 0)
(1.00709 0.0242393 0)
(1.00933 0.0241613 0)
(1.01216 0.027327 0)
(1.01318 0.0271323 0)
(1.01413 0.0299765 0)
(1.01485 0.0297108 0)
(1.01739 0.0321559 0)
(1.02008 0.0316569 0)
(1.02327 0.0336845 0)
(1.02522 0.0330936 0)
(1.02695 0.0348289 0)
(1.02803 0.0341013 0)
(1.02985 0.0354774 0)
(1.03152 0.0345594 0)
(1.03406 0.0356461 0)
(0.99969 -0.00018014 0)
(0.999965 0.00331934 0)
(1.00002 0.00305574 0)
(1.00045 0.0061613 0)
(1.00003 0.00594932 0)
(1.00131 0.00956014 0)
(1.00163 0.00940329 0)
(1.00229 0.0125885 0)
(1.00257 0.0125398 0)
(1.00451 0.0159337 0)
(1.00559 0.0161381 0)
(1.00651 0.0192251 0)
(1.00651 0.0192944 0)
(1.00835 0.0221647 0)
(1.01059 0.0222351 0)
(1.01333 0.0247543 0)
(1.01436 0.0246712 0)
(1.01523 0.026869 0)
(1.01589 0.0266735 0)
(1.0182 0.0285418 0)
(1.02073 0.0281441 0)
(1.02375 0.0296568 0)
(1.02558 0.0291311 0)
(1.0271 0.0303811 0)
(1.02797 0.0297391 0)
(1.02947 0.0307151 0)
(1.03091 0.0299205 0)
(1.03319 0.0306623 0)
(0.99974 5.0806e-05 0)
(1.00005 0.00293988 0)
(1.00015 0.00310322 0)
(1.00057 0.00579336 0)
(1.00045 0.00588447 0)
(1.00181 0.00884741 0)
(1.00218 0.00906551 0)
(1.00282 0.0117241 0)
(1.00337 0.0118995 0)
(1.00541 0.0146544 0)
(1.00655 0.0150173 0)
(1.00741 0.0175321 0)
(1.00751 0.0177402 0)
(1.00934 0.0200042 0)
(1.0116 0.0201518 0)
(1.01422 0.0221286 0)
(1.01522 0.0221151 0)
(1.01596 0.0237854 0)
(1.01654 0.0236267 0)
(1.01865 0.025017 0)
(1.02104 0.0246887 0)
(1.02385 0.0257932 0)
(1.02557 0.0253361 0)
(1.02687 0.0262138 0)
(1.02756 0.0256525 0)
(1.02877 0.0263152 0)
(1.02998 0.0256301 0)
(1.032 0.0261067 0)
(0.999782 0.000207701 0)
(1.00011 0.00261758 0)
(1.0003 0.00303733 0)
(1.00068 0.00535521 0)
(1.0008 0.00567729 0)
(1.00224 0.00809785 0)
(1.00269 0.00851303 0)
(1.0033 0.0107361 0)
(1.00403 0.0110698 0)
(1.00613 0.0132661 0)
(1.00737 0.0137083 0)
(1.00814 0.015736 0)
(1.00828 0.0160156 0)
(1.01007 0.0177819 0)
(1.01235 0.0179608 0)
(1.01484 0.01948 0)
(1.01579 0.0195002 0)
(1.01638 0.0207481 0)
(1.01688 0.0206173 0)
(1.0188 0.021628 0)
(1.02105 0.0213486 0)
(1.02366 0.0221314 0)
(1.02524 0.0217354 0)
(1.02632 0.0223271 0)
(1.02684 0.0218374 0)
(1.02777 0.0222585 0)
(1.0288 0.0216709 0)
(1.03057 0.0219519 0)
(0.999818 0.000302178 0)
(1.00015 0.00232116 0)
(1.00045 0.0028785 0)
(1.00079 0.00484483 0)
(1.00108 0.00532332 0)
(1.00258 0.00729012 0)
(1.00314 0.00779077 0)
(1.0037 0.00963073 0)
(1.00455 0.0100432 0)
(1.0067 0.0117889 0)
(1.00802 0.0122481 0)
(1.0087 0.0138484 0)
(1.00886 0.0141533 0)
(1.01058 0.0155149 0)
(1.01285 0.0156925 0)
(1.01522 0.0168368 0)
(1.01611 0.0168681 0)
(1.01653 0.0177837 0)
(1.01694 0.0176711 0)
(1.01867 0.0183842 0)
(1.0208 0.0181417 0)
(1.02322 0.0186766 0)
(1.02466 0.0183365 0)
(1.02555 0.0187184 0)
(1.0259 0.0183001 0)
(1.0266 0.0185478 0)
(1.02745 0.0180525 0)
(1.029 0.0181955 0)
(0.99985 0.000344235 0)
(1.00018 0.00202512 0)
(1.00058 0.00263533 0)
(1.0009 0.00427203 0)
(1.00132 0.00482154 0)
(1.00283 0.00640807 0)
(1.00351 0.00692619 0)
(1.00403 0.00841168 0)
(1.00497 0.00884916 0)
(1.00711 0.0102215 0)
(1.00851 0.0106499 0)
(1.0091 0.0118902 0)
(1.00926 0.0121842 0)
(1.01088 0.0132142 0)
(1.01314 0.0133761 0)
(1.01538 0.0142194 0)
(1.01621 0.0142491 0)
(1.01647 0.014904 0)
(1.01679 0.0148058 0)
(1.01834 0.0152949 0)
(1.02037 0.0150869 0)
(1.02262 0.0154375 0)
(1.02393 0.0151499 0)
(1.02463 0.0153815 0)
(1.02484 0.0150311 0)
(1.02532 0.0151571 0)
(1.02603 0.014746 0)
(1.02738 0.0147952 0)
(0.999878 0.000344646 0)
(1.0002 0.00171506 0)
(1.00069 0.00231023 0)
(1.00098 0.00363821 0)
(1.0015 0.00418571 0)
(1.00303 0.00544172 0)
(1.0038 0.00592657 0)
(1.00428 0.0070914 0)
(1.00528 0.00750694 0)
(1.0074 0.00855984 0)
(1.00885 0.0089379 0)
(1.00935 0.00987405 0)
(1.0095 0.0101316 0)
(1.01103 0.0108934 0)
(1.01326 0.0110312 0)
(1.01539 0.011637 0)
(1.01616 0.0116595 0)
(1.01626 0.0121148 0)
(1.0165 0.012031 0)
(1.01789 0.0123549 0)
(1.01982 0.0121804 0)
(1.02191 0.0123979 0)
(1.02312 0.0121596 0)
(1.02365 0.0122873 0)
(1.02373 0.0120013 0)
(1.02402 0.0120469 0)
(1.02461 0.0117151 0)
(1.0258 0.0117062 0)
(0.999901 0.000310304 0)
(1.00021 0.00138075 0)
(1.00077 0.00191172 0)
(1.00105 0.00294122 0)
(1.00165 0.0034288 0)
(1.00316 0.00438547 0)
(1.00402 0.00480203 0)
(1.00446 0.0056775 0)
(1.00551 0.0060333 0)
(1.00759 0.00681317 0)
(1.00906 0.0071244 0)
(1.00949 0.00780279 0)
(1.00963 0.00801201 0)
(1.01106 0.00855458 0)
(1.01327 0.00866457 0)
(1.01528 0.00908463 0)
(1.016 0.00910024 0)
(1.01597 0.00940547 0)
(1.01613 0.00933821 0)
(1.01738 0.00954445 0)
(1.01923 0.00940648 0)
(1.02118 0.00953323 0)
(1.0223 0.00934491 0)
(1.0227 0.00940578 0)
(1.02265 0.00918138 0)
(1.02278 0.00917815 0)
(1.02328 0.00891918 0)
(1.02433 0.00887817 0)
(0.999919 0.000249507 0)
(1.00021 0.00101742 0)
(1.00083 0.00144145 0)
(1.0011 0.0021808 0)
(1.00175 0.00256353 0)
(1.00325 0.00324089 0)
(1.00416 0.00356209 0)
(1.00458 0.00417053 0)
(1.00565 0.00444259 0)
(1.00769 0.00498262 0)
(1.00919 0.00521599 0)
(1.00954 0.00567464 0)
(1.00967 0.00582692 0)
(1.01103 0.00618731 0)
(1.01321 0.00626846 0)
(1.01513 0.00654317 0)
(1.0158 0.00655489 0)
(1.01566 0.00674865 0)
(1.01577 0.0067014 0)
(1.01689 0.00682621 0)
(1.01868 0.0067288 0)
(1.02052 0.00679808 0)
(1.02156 0.0066622 0)
(1.02184 0.0066856 0)
(1.02169 0.00652146 0)
(1.02169 0.00649433 0)
(1.02211 0.00630411 0)
(1.02306 0.00625111 0)
(0.999931 0.00016256 0)
(1.00021 0.000629096 0)
(1.00087 0.000907392 0)
(1.00113 0.00135651 0)
(1.00181 0.00159808 0)
(1.00331 0.00200414 0)
(1.00425 0.00221344 0)
(1.00464 0.00257518 0)
(1.00574 0.00274517 0)
(1.00775 0.00306081 0)
(1.00925 0.00320651 0)
(1.00955 0.00347334 0)
(1.00966 0.00356808 0)
(1.01097 0.00377493 0)
(1.01313 0.00382533 0)
(1.01498 0.00398035 0)
(1.01562 0.00398735 0)
(1.0154 0.00409347 0)
(1.01547 0.00406634 0)
(1.01652 0.00413274 0)
(1.01826 0.00407714 0)
(1.02001 0.00411258 0)
(1.021 0.00403215 0)
(1.02118 0.00403986 0)
(1.02094 0.00393891 0)
(1.02083 0.00390966 0)
(1.02119 0.00378993 0)
(1.02206 0.0037436 0)
(0.99994 5.67952e-05 0)
(1.00021 0.000211883 0)
(1.00089 0.000310933 0)
(1.00114 0.000466924 0)
(1.00185 0.000551002 0)
(1.00333 0.000683515 0)
(1.0043 0.000753576 0)
(1.00467 0.000873021 0)
(1.00577 0.000932475 0)
(1.00777 0.0010383 0)
(1.00927 0.00109001 0)
(1.00954 0.00117832 0)
(1.00964 0.00121049 0)
(1.01092 0.00127662 0)
(1.01307 0.00129271 0)