/*--------------------------------*- C++ -*----------------------------------*\
| =========                 |                                                 |
| \\      /  F ield         | OpenFOAM: The Open Source CFD Toolbox           |
|  \\    /   O peration     | Version:                                        |
|   \\  /    A nd           | Website:  www.openfoam.com                      |
|    \\/     M anipulation  |                                                 |
\*---------------------------------------------------------------------------*/
FoamFile
{
    version     2.0;
    format      ascii;
    class       volVectorField;
    location    "115";
    object      U;
}
// * * * * * * * * * * * * * * * * * * * * * * * * * * * * * * * * * * * * * //

dimensions      [0 1 -1 0 0 0 0];


internalField   nonuniform List<vector> 
1139
(
(1.24473 0.215608 1.41233e-19)
(1.25516 0.244989 -2.6184e-19)
(1.20461 0.227542 3.32528e-20)
(1.20389 0.155657 1.39449e-19)
(1.11724 0.20046 -1.63106e-20)
(1.13117 0.137697 -2.12554e-20)
(1.05431 0.162967 -1.83356e-20)
(1.08645 0.100505 -2.58081e-20)
(1.12168 0.0578773 -6.0936e-20)
(1.01387 0.0979042 -1.47354e-20)
(1.03809 0.0732564 7.51543e-20)
(1.129 0.0380453 9.61911e-20)
(0.93886 0.065138 4.13703e-21)
(1.05548 0.0405998 -4.76595e-21)
(1.1051 0.0161544 -8.46233e-20)
(0.960571 0.00492051 9.35396e-21)
(1.05604 0.0185541 -1.20463e-20)
(1.08602 -0.0126978 2.96035e-20)
(1.08579 -0.0105978 7.04381e-20)
(0.959046 0.0102023 -3.89432e-22)
(1.03468 -0.0180527 -1.42703e-20)
(1.08656 -0.0193266 -4.49801e-21)
(1.06076 -0.0272505 -2.66973e-20)
(0.932965 -0.0705917 -1.25722e-20)
(1.0759 -0.0454249 -2.65203e-21)
(1.07785 -0.0358811 2.10837e-21)
(1.04725 -0.0422392 -1.34465e-20)
(0.0769751 1.1061 -4.00593e-20)
(0.0714492 1.0162 4.64076e-20)
(-0.0590714 1.01417 3.54526e-20)
(-0.207587 1.00197 -2.29425e-19)
(-0.366551 0.958018 -5.15914e-20)
(-0.497192 0.87709 -5.87562e-20)
(0.0811057 0.910778 -9.54662e-22)
(-0.0625379 0.942028 -8.52773e-21)
(-0.231308 0.971225 7.60334e-20)
(-0.408561 0.974004 1.87772e-19)
(-0.554029 0.936465 4.07732e-19)
(-0.598017 0.855837 3.73525e-19)
(0.104537 0.77467 -2.13748e-20)
(-0.0442664 0.83188 1.62327e-19)
(-0.226551 0.895826 1.37467e-19)
(-0.425686 0.952581 -1.54824e-19)
(-0.59186 0.971379 -5.7277e-19)
(-0.639236 0.942832 5.56058e-21)
(-0.506241 0.820797 -3.27208e-19)
(0.140335 0.619657 3.21223e-20)
(-0.0120839 0.706193 -1.16328e-19)
(-0.204123 0.802822 -6.19901e-20)
(-0.421019 0.907125 -5.69859e-20)
(-0.593134 0.978555 6.67797e-19)
(-0.635556 1.00339 -1.61832e-19)
(-0.481442 0.927609 -9.92221e-20)
(-0.160149 0.674747 -1.01153e-19)
(0.193833 0.444255 2.12639e-20)
(0.028696 0.562532 -5.15083e-20)
(-0.175406 0.681555 -1.20893e-19)
(-0.40384 0.815166 3.16371e-20)
(-0.579766 0.930283 -2.39436e-20)
(-0.619126 1.01325 -8.38889e-20)
(-0.443464 0.994993 -6.53087e-19)
(-0.0601802 0.783296 -3.62666e-19)
(0.358951 0.534705 -1.05222e-19)
(0.254492 0.243471 -5.72916e-20)
(0.0841082 0.38658 4.1714e-21)
(-0.128639 0.51945 1.7714e-19)
(-0.365696 0.677415 1.0671e-19)
(-0.548354 0.836414 -4.04414e-19)
(-0.583445 0.972744 2.57694e-19)
(-0.400372 1.0063 1.49486e-19)
(0.0249544 0.853763 6.15604e-19)
(0.494642 0.632614 3.31739e-19)
(0.86044 0.380643 1.13216e-19)
(0.312831 0.0558698 4.37019e-20)
(0.137013 0.189952 1.04103e-19)
(-0.0880019 0.321338 -3.64562e-20)
(-0.331006 0.501633 -2.0795e-19)
(-0.514882 0.69012 1.95687e-19)
(-0.536172 0.870301 -2.16846e-20)
(-0.344831 0.948878 -7.31902e-20)
(0.118951 0.864035 2.40889e-19)
(0.623165 0.668853 -4.25127e-19)
(1.00535 0.431975 9.38468e-20)
(0.376012 -0.172037 -5.03965e-20)
(0.173281 -0.0663541 -5.34986e-20)
(-0.0596134 0.0785131 -2.84341e-19)
(-0.292428 0.261601 -2.18177e-20)
(-0.468609 0.480226 -3.58657e-20)
(-0.484256 0.706975 1.69026e-19)
(-0.293726 0.817383 -7.84096e-20)
(0.194277 0.800923 9.05084e-20)
(0.711613 0.6317 4.37078e-21)
(1.06625 0.431365 -3.21637e-19)
(0.455177 -0.508496 -4.45409e-20)
(0.226193 -0.391374 1.90974e-19)
(-0.0221221 -0.264731 3.2066e-19)
(-0.264919 -0.0318266 2.62579e-19)
(-0.408844 0.255362 6.29589e-20)
(-0.422611 0.529424 -2.4216e-19)
(-0.251047 0.653292 1.45843e-19)
(0.229495 0.67105 4.66557e-21)
(0.747441 0.555229 -6.38009e-20)
(1.08844 0.413565 1.52693e-19)
(0.536109 -0.851331 3.71517e-20)
(0.28135 -0.73632 -3.82767e-20)
(0.0271379 -0.54985 -1.95163e-20)
(-0.166038 -0.303632 6.69594e-20)
(-0.291238 0.0342197 -9.96251e-20)
(-0.316239 0.362104 8.81309e-20)
(-0.159984 0.548563 -2.3303e-20)
(0.27934 0.528964 8.29139e-21)
(0.827365 0.491872 -2.27577e-20)
(1.05968 0.319715 -3.73181e-20)
(0.579723 -1.105 3.87113e-20)
(0.324992 -1.01172 -1.46876e-20)
(0.105914 -0.83158 -1.19322e-19)
(-0.110509 -0.56857 1.35524e-21)
(-0.200593 -0.183293 -5.63552e-20)
(-0.187074 0.209936 4.32031e-20)
(0.0577716 0.552693 3.18665e-20)
(0.414681 0.425125 -6.27057e-20)
(0.809424 0.35028 -3.33991e-20)
(0.995322 0.245 2.57589e-20)
(0.61259 -1.23169 -2.74245e-20)
(0.391874 -1.14042 7.74021e-20)
(0.202643 -0.985332 -2.90933e-20)
(0.0734597 -0.748568 -7.122e-20)
(-0.0330291 -0.419046 -7.32693e-20)
(0.00794119 0.0292213 1.48316e-20)
(0.110391 0.286842 1.99025e-20)
(0.346619 0.325494 -3.23174e-20)
(0.777822 0.209472 5.62423e-21)
(0.988973 0.166668 5.64543e-21)
(0.626348 -1.28571 -1.59728e-20)
(0.422083 -1.21728 2.12594e-19)
(0.23833 -1.07183 -1.14491e-20)
(0.135877 -0.854701 -7.75066e-20)
(0.0700146 -0.60219 4.09916e-20)
(0.0709625 -0.31148 -1.91342e-20)
(-0.0352386 -0.11525 -9.28055e-20)
(0.260024 0.0764293 1.70895e-19)
(0.821723 0.0992538 7.62607e-20)
(0.979864 0.0834559 -3.28835e-20)
(0.656294 -1.23661 -4.34514e-20)
(0.508675 -1.20816 -2.05737e-20)
(0.381154 -1.10065 -2.07969e-19)
(0.291611 -0.878379 -1.17657e-20)
(0.219063 -0.634976 2.39507e-20)
(0.182415 -0.306586 2.63632e-20)
(0.307427 0.0048112 9.71565e-20)
(0.611097 0.0706343 -7.44211e-20)
(0.866427 0.0189825 -1.17931e-19)
(0.935002 0.00508666 3.40975e-20)
(0.632867 -1.1738 1.04211e-21)
(0.495767 -1.17375 -2.88466e-20)
(0.426609 -1.11266 1.60076e-19)
(0.348832 -0.97546 7.99236e-20)
(0.288286 -0.752693 1.16012e-20)
(0.301881 -0.451926 2.0524e-20)
(0.241315 -0.221178 -3.79972e-20)
(0.450897 -0.0993513 -2.66974e-20)
(0.862409 -0.103962 1.4743e-19)
(0.990831 -0.0533573 1.38382e-20)
(0.66606 -1.15004 1.35634e-20)
(0.559586 -1.14165 -7.00188e-21)
(0.51023 -1.06081 1.27903e-20)
(0.451826 -0.960616 -6.75195e-20)
(0.452689 -0.780536 -5.71102e-20)
(0.450497 -0.525354 -1.40747e-20)
(0.434761 -0.259951 1.00152e-20)
(0.692019 -0.118575 3.99689e-20)
(0.958929 -0.121325 -1.43993e-19)
(0.969447 -0.074166 8.96361e-21)
(0.646192 -1.11192 -1.54906e-20)
(0.582466 -1.11616 9.93418e-21)
(0.552885 -1.02123 -9.53834e-21)
(0.503586 -0.886232 6.20275e-20)
(0.541069 -0.721862 5.99117e-20)
(0.513596 -0.591253 1.78444e-20)
(0.426889 -0.428594 -9.77085e-21)
(0.641298 -0.268869 -9.19795e-20)
(0.966964 -0.233113 1.88335e-20)
(1.01196 -0.159703 2.69166e-21)
(0.648268 -1.1358 3.60992e-21)
(0.636701 -1.15398 2.55862e-20)
(0.654563 -1.07061 -1.04791e-20)
(0.622827 -0.908758 -3.02878e-20)
(0.636313 -0.721066 1.85627e-20)
(0.586073 -0.64164 -4.04098e-21)
(0.484037 -0.548786 -2.17258e-20)
(0.625316 -0.405478 4.21553e-20)
(0.967068 -0.317838 4.26264e-20)
(1.05937 -0.204596 5.09557e-21)
(0.612823 -1.23845 9.05499e-21)
(0.658142 -1.26923 5.48451e-21)
(0.734484 -1.21265 -1.80592e-20)
(0.741817 -1.06401 -6.74007e-20)
(0.728773 -0.851183 -1.40025e-19)
(0.647799 -0.715879 -3.80791e-20)
(0.562944 -0.58911 5.59684e-21)
(0.674375 -0.44378 2.60206e-20)
(0.981348 -0.347925 -1.13985e-21)
(1.09325 -0.241046 3.79682e-20)
(0.576397 -1.23644 -2.14475e-20)
(0.685629 -1.26868 -3.22377e-20)
(0.805714 -1.24465 -9.46511e-20)
(0.858332 -1.13995 4.41452e-20)
(0.851577 -0.954888 1.20308e-19)
(0.769209 -0.793452 -6.82511e-21)
(0.695175 -0.632439 1.98437e-20)
(0.759985 -0.480126 -2.51084e-20)
(1.01249 -0.38722 9.14389e-21)
(1.13571 -0.280487 -3.83394e-20)
(0.586405 -0.984115 1.78472e-20)
(0.755996 -1.01129 -3.56838e-20)
(0.905306 -1.02916 1.02446e-19)
(0.988175 -0.999191 -7.62432e-20)
(0.986757 -0.912583 2.38194e-20)
(0.8986 -0.814656 8.51335e-20)
(0.816332 -0.687575 -2.83638e-20)
(0.843424 -0.540362 -8.66067e-21)
(1.07136 -0.426064 -2.25917e-21)
(1.19718 -0.309534 -3.38433e-20)
(0.61574 -0.505374 -6.99345e-21)
(0.821475 -0.518715 1.27908e-20)
(0.984037 -0.585527 2.65121e-20)
(1.08599 -0.635578 1.00921e-19)
(1.10243 -0.65949 -6.27677e-20)
(1.04333 -0.648777 -7.77119e-20)
(0.998632 -0.579209 -5.7334e-20)
(1.04621 -0.45741 -2.93583e-20)
(1.26182 -0.338951 -6.78568e-21)
(1.31216 -0.262949 3.21024e-20)
(0.642663 0.0808244 -6.56403e-21)
(0.870044 0.0896656 1.30029e-20)
(1.04637 -0.00289595 -9.27291e-20)
(1.16695 -0.0949518 -1.05013e-19)
(1.22325 -0.178475 -1.02899e-20)
(1.23028 -0.228361 4.52661e-20)
(1.26056 -0.21727 1.43828e-20)
(1.34854 -0.168859 -2.28303e-20)
(1.49454 -0.134264 -3.59213e-21)
(1.41192 -0.172119 -1.14012e-20)
(0.676693 0.611227 1.06729e-20)
(0.88842 0.640894 -5.14409e-20)
(1.08609 0.56991 7.70287e-21)
(1.2525 0.49007 -9.15375e-22)
(1.36132 0.372945 3.18653e-20)
(1.43273 0.282912 -1.60272e-19)
(1.49664 0.217725 1.66752e-21)
(1.55356 0.168837 9.38887e-20)
(1.58962 0.0928351 4.89814e-20)
(1.4536 -0.0429013 4.09001e-21)
(0.703122 0.922465 -5.73782e-21)
(0.882019 0.96561 5.59755e-20)
(1.0713 0.931519 -1.33585e-20)
(1.23985 0.871436 1.03744e-19)
(1.35966 0.744709 1.11924e-19)
(1.4683 0.63901 2.05561e-19)
(1.53813 0.505107 4.67738e-21)
(1.57095 0.381995 -2.30237e-20)
(1.55921 0.250398 -8.83046e-20)
(1.45131 0.0885081 -9.72874e-21)
(0.722548 1.02134 1.34152e-20)
(0.865733 1.04961 2.52645e-20)
(1.02129 1.04018 2.30737e-20)
(1.16411 0.980393 -2.30007e-20)
(1.28164 0.879584 -7.28575e-20)
(1.38753 0.776441 -5.68815e-20)
(1.43289 0.635241 1.29191e-20)
(1.46966 0.504079 2.76904e-20)
(1.46784 0.362345 4.31509e-20)
(1.41555 0.212482 1.87668e-20)
(0.739456 0.995629 -2.64463e-21)
(0.845855 1.01162 -1.05462e-20)
(0.962319 1.0111 5.39446e-20)
(1.05845 0.948545 3.02883e-20)
(1.15573 0.86966 -4.24834e-20)
(1.24665 0.772742 5.17247e-20)
(1.30198 0.65888 -1.37985e-22)
(1.34668 0.559371 5.76136e-21)
(1.35767 0.436844 -5.79078e-22)
(1.35451 0.313125 -9.0016e-21)
(0.760577 0.922066 -1.09796e-21)
(0.821971 0.925714 -2.77667e-20)
(0.893583 0.919562 -7.00084e-21)
(0.960111 0.882847 -1.95925e-20)
(1.04421 0.834101 4.50422e-21)
(1.11869 0.746077 -8.94669e-20)
(1.18716 0.654171 6.43538e-20)
(1.2169 0.564051 -1.53097e-20)
(1.24464 0.467271 4.88063e-21)
(1.2729 0.373007 -1.99319e-20)
(0.763899 0.908676 -4.07897e-21)
(0.797717 0.88503 -2.39628e-22)
(0.844456 0.8522 8.39225e-21)
(0.903662 0.811955 1.78552e-20)
(0.950634 0.775763 -3.09777e-20)
(0.986029 0.705318 3.76746e-20)
(1.06268 0.647514 -2.59912e-20)
(1.09399 0.569944 -2.79819e-20)
(1.14988 0.499113 1.89962e-20)
(1.18952 0.411682 2.90976e-21)
(0.719046 0.894787 -2.68008e-21)
(0.726235 0.856376 3.05738e-20)
(0.737664 0.798313 -1.78901e-20)
(0.795385 0.746803 -3.28076e-20)
(0.845361 0.705448 -6.83124e-21)
(0.897965 0.640902 2.14319e-20)
(0.970469 0.597235 -2.098e-20)
(0.988921 0.537625 -1.11446e-20)
(1.04283 0.500627 -3.5786e-20)
(1.09201 0.433969 1.22833e-20)
(0.65892 0.934628 2.37587e-21)
(0.65687 0.883093 -2.22757e-20)
(0.653871 0.805555 9.65343e-21)
(0.712964 0.746639 -6.96287e-21)
(0.749033 0.677029 2.78591e-20)
(0.791962 0.618031 -4.74706e-21)
(0.857894 0.560087 2.35035e-20)
(0.902996 0.506575 1.24274e-20)
(0.965364 0.46907 1.6347e-20)
(1.01339 0.412624 7.16007e-21)
(0.56064 0.880352 3.84377e-22)
(0.53476 0.811454 1.1016e-20)
(0.515023 0.718218 -1.50332e-20)
(0.55309 0.677527 2.35805e-20)
(0.603166 0.611967 -4.8543e-21)
(0.68768 0.578294 -1.81332e-20)
(0.762061 0.52139 -9.24776e-21)
(0.80835 0.476574 -5.79224e-21)
(0.855034 0.445211 -4.17798e-21)
(0.899664 0.403241 -5.42354e-21)
(0.427237 0.724932 6.47519e-22)
(0.383598 0.67934 2.7578e-21)
(0.394042 0.60376 -2.28241e-20)
(0.456733 0.571961 -4.79799e-21)
(0.514112 0.508785 1.42233e-20)
(0.578523 0.486172 -2.7308e-21)
(0.628254 0.445857 -7.66783e-21)
(0.707343 0.42147 5.96227e-21)
(0.790941 0.399612 -5.93212e-22)
(0.843794 0.383365 3.46862e-22)
(0.394028 0.388092 4.19816e-21)
(0.315029 0.381543 -2.35996e-20)
(0.288834 0.354146 2.11612e-20)
(0.313743 0.361364 5.58607e-21)
(0.365017 0.343623 5.52301e-21)
(0.473775 0.348033 -5.85439e-21)
(0.558331 0.32489 -1.22185e-20)
(0.630303 0.328008 3.30758e-22)
(0.69633 0.326358 1.49003e-21)
(0.756961 0.326362 -1.60861e-22)
(0.374616 -0.0759491 -7.77057e-21)
(0.271432 -0.0451081 3.76173e-20)
(0.244646 -0.0269263 2.2945e-20)
(0.283209 0.00526857 -2.5302e-20)
(0.33198 0.0281251 -2.12127e-20)
(0.387666 0.082726 6.51475e-23)
(0.436416 0.105319 4.49452e-21)
(0.52911 0.136822 -8.12174e-23)
(0.627597 0.154946 7.05404e-22)
(0.68463 0.1804 -1.2498e-21)
(0.402295 -0.44325 3.60915e-21)
(0.321937 -0.367862 -1.53572e-20)
(0.292726 -0.294381 -1.27452e-20)
(0.292241 -0.204709 4.76062e-21)
(0.346805 -0.141443 2.00644e-20)
(0.424261 -0.0930739 3.26008e-20)
(0.474821 -0.0603633 1.96039e-20)
(0.519655 -0.0134113 1.26711e-21)
(0.558288 0.00213326 -1.5767e-21)
(0.600971 0.0339677 1.34764e-21)
(0.471767 -0.217694 -8.52742e-21)
(0.521734 -0.157074 -1.04611e-22)
(0.579819 -0.124414 2.96301e-21)
(0.629764 -0.0976861 -6.83336e-22)
(0.990985 -0.0982343 0)
(1.05445 -0.0879553 0)
(1.08719 -0.0875679 0)
(1.09716 -0.0803717 0)
(1.10505 -0.0739037 0)
(1.1079 -0.0697358 0)
(1.10203 -0.0635582 0)
(1.09627 -0.0536461 0)
(1.09056 -0.0457875 0)
(1.0843 -0.037681 0)
(1.07952 -0.0315838 0)
(1.07378 -0.0248164 0)
(1.06537 -0.0186822 0)
(1.05908 -0.0134761 0)
(1.05317 -0.0103171 0)
(1.04673 -0.00769854 0)
(1.04146 -0.00662142 0)
(1.03698 -0.0063055 0)
(1.03301 -0.00656569 0)
(1.02959 -0.00679743 0)
(1.02665 -0.00685664 0)
(1.02422 -0.00666513 0)
(1.02202 -0.00618639 0)
(1.02036 -0.00559357 0)
(1.01893 -0.00487038 0)
(1.01767 -0.00400102 0)
(1.0167 -0.00325368 0)
(1.01592 -0.00219867 0)
(1.01539 -0.00130211 0)
(1.01503 -0.000581258 0)
(1.03187 -0.133102 0)
(1.07075 -0.109402 0)
(1.0936 -0.091469 0)
(1.10104 -0.0724633 0)
(1.10236 -0.0564417 0)
(1.1035 -0.0458529 0)
(1.10424 -0.035544 0)
(1.10239 -0.0272598 0)
(1.09844 -0.0204613 0)
(1.09364 -0.0172526 0)
(1.08798 -0.0145301 0)
(1.07835 -0.012072 0)
(1.06872 -0.00952342 0)
(1.05988 -0.00809155 0)
(1.0515 -0.00632759 0)
(1.04468 -0.00531402 0)
(1.03936 -0.00474298 0)
(1.03533 -0.00503218 0)
(1.03186 -0.0056078 0)
(1.02905 -0.00622556 0)
(1.02654 -0.00649611 0)
(1.02436 -0.00639716 0)
(1.02239 -0.00599384 0)
(1.02084 -0.00543704 0)
(1.01941 -0.00474262 0)
(1.01817 -0.00391578 0)
(1.01718 -0.00320592 0)
(1.01635 -0.00218157 0)
(1.01583 -0.00129531 0)
(1.01545 -0.00057556 0)
(1.07004 -0.174226 0)
(1.09109 -0.145306 0)
(1.11691 -0.12312 0)
(1.12692 -0.101596 0)
(1.13141 -0.0830635 0)
(1.12928 -0.0694573 0)
(1.12083 -0.057353 0)
(1.11061 -0.0437123 0)
(1.10047 -0.0335323 0)
(1.09342 -0.0270943 0)
(1.08574 -0.0217031 0)
(1.07795 -0.0165991 0)
(1.07026 -0.0130558 0)
(1.0631 -0.00978522 0)
(1.05565 -0.00742017 0)
(1.04864 -0.00571075 0)
(1.04274 -0.00514981 0)
(1.03737 -0.00506552 0)
(1.03317 -0.00554483 0)
(1.0297 -0.00601482 0)
(1.02687 -0.0062287 0)
(1.02441 -0.0061587 0)
(1.02234 -0.00580959 0)
(1.02068 -0.00532577 0)
(1.01917 -0.00465257 0)
(1.01795 -0.00385576 0)
(1.01695 -0.00316586 0)
(1.01613 -0.00216092 0)
(1.01564 -0.00128519 0)
(1.01526 -0.000567849 0)
(1.13488 -0.192629 0)
(1.14378 -0.144707 0)
(1.14667 -0.111369 0)
(1.14157 -0.0778851 0)
(1.13584 -0.053512 0)
(1.1316 -0.0366175 0)
(1.12876 -0.023026 0)
(1.12182 -0.0119861 0)
(1.11538 -0.0060749 0)
(1.10637 -0.0028533 0)
(1.09629 -0.00121417 0)
(1.08538 -0.000846368 0)
(1.07489 -0.00106771 0)
(1.06387 -0.00119491 0)
(1.05419 -0.00106212 0)
(1.04672 -0.00142082 0)
(1.04036 -0.00179047 0)
(1.03564 -0.00272276 0)
(1.03198 -0.0039088 0)
(1.02918 -0.00494399 0)
(1.0268 -0.00552101 0)
(1.02467 -0.00564216 0)
(1.02288 -0.00545268 0)
(1.02127 -0.00503752 0)
(1.01979 -0.00444689 0)
(1.01858 -0.00372662 0)
(1.01752 -0.00308302 0)
(1.01666 -0.00212826 0)
(1.01615 -0.00127201 0)
(1.01575 -0.000557788 0)
(1.206 -0.214124 0)
(1.19837 -0.169228 0)
(1.19199 -0.130223 0)
(1.18102 -0.097691 0)
(1.16981 -0.0735484 0)
(1.15852 -0.056238 0)
(1.14044 -0.0394725 0)
(1.12457 -0.0273184 0)
(1.10957 -0.0178489 0)
(1.09785 -0.0126781 0)
(1.08785 -0.00890566 0)
(1.08005 -0.0073733 0)
(1.07176 -0.00609342 0)
(1.06417 -0.00519448 0)
(1.05683 -0.00462766 0)
(1.0495 -0.00419533 0)
(1.04313 -0.00404119 0)
(1.03746 -0.00423083 0)
(1.03321 -0.00481979 0)
(1.02983 -0.00537312 0)
(1.02712 -0.00563765 0)
(1.02482 -0.00566759 0)
(1.02287 -0.00541722 0)
(1.02113 -0.00499249 0)
(1.01962 -0.00439581 0)
(1.01839 -0.00367375 0)
(1.01732 -0.0030351 0)
(1.01646 -0.00210291 0)
(1.01593 -0.00125836 0)
(1.01553 -0.000547648 0)
(1.2935 -0.175188 0)
(1.26222 -0.130078 0)
(1.22513 -0.0815748 0)
(1.19972 -0.0503163 0)
(1.18074 -0.0292288 0)
(1.16309 -0.012049 0)
(1.15313 -0.00148753 0)
(1.14039 0.00722675 0)
(1.12788 0.0109155 0)
(1.11362 0.0137687 0)
(1.10157 0.0127555 0)
(1.08885 0.0111506 0)
(1.07733 0.00841768 0)
(1.06594 0.00623182 0)
(1.0561 0.00415502 0)
(1.04819 0.00244232 0)
(1.04132 0.000985093 0)
(1.03634 -0.000634826 0)
(1.03248 -0.0023383 0)
(1.0297 -0.00365454 0)
(1.0274 -0.0044855 0)
(1.02545 -0.00482556 0)
(1.02367 -0.00481419 0)
(1.02196 -0.00453298 0)
(1.02047 -0.00408219 0)
(1.01917 -0.00346865 0)
(1.01803 -0.00290034 0)
(1.01711 -0.00203753 0)
(1.01651 -0.00122606 0)
(1.0161 -0.000531126 0)
(1.36219 -0.120621 0)
(1.31089 -0.097711 0)
(1.26291 -0.0677021 0)
(1.2265 -0.045875 0)
(1.20105 -0.0297199 0)
(1.17812 -0.0169042 0)
(1.15277 -0.00546422 0)
(1.13267 0.000603159 0)
(1.11167 0.00656821 0)
(1.09726 0.00662004 0)
(1.08526 0.00656 0)
(1.07694 0.00388268 0)
(1.06856 0.00192959 0)
(1.06201 -0.000588553 0)
(1.05523 -0.00210691 0)
(1.0483 -0.00315451 0)
(1.04223 -0.00350673 0)
(1.03676 -0.00390857 0)
(1.03266 -0.00437308 0)
(1.02955 -0.00484096 0)
(1.02711 -0.00507396 0)
(1.02513 -0.00515268 0)
(1.02325 -0.00492651 0)
(1.02157 -0.00456081 0)
(1.02011 -0.00405526 0)
(1.01883 -0.00340183 0)
(1.01773 -0.00283376 0)
(1.01683 -0.00199235 0)
(1.01623 -0.00119825 0)
(1.01583 -0.000517293 0)
(1.40188 -0.0146295 0)
(1.33696 -0.0104559 0)
(1.27831 0.00728618 0)
(1.23976 0.0148811 0)
(1.20617 0.0240144 0)
(1.18123 0.0296901 0)
(1.16663 0.0295279 0)
(1.14657 0.0324756 0)
(1.12985 0.0314145 0)
(1.11282 0.0305152 0)
(1.09884 0.0265141 0)
(1.08519 0.0230631 0)
(1.07426 0.0176518 0)
(1.06374 0.0133609 0)
(1.05477 0.0091464 0)
(1.04745 0.00597659 0)
(1.04094 0.00325813 0)
(1.03592 0.00103089 0)
(1.03211 -0.00100824 0)
(1.0294 -0.00243919 0)
(1.02739 -0.00345618 0)
(1.02564 -0.00394825 0)
(1.02391 -0.00406158 0)
(1.02231 -0.00393993 0)
(1.02086 -0.00362766 0)
(1.01956 -0.00312231 0)
(1.01842 -0.00265008 0)
(1.01749 -0.00188993 0)
(1.01686 -0.00114429 0)
(1.01645 -0.000494497 0)
(1.40589 0.0768803 0)
(1.3358 0.0542688 0)
(1.28215 0.0583593 0)
(1.24219 0.0424008 0)
(1.20693 0.0439018 0)
(1.17942 0.0413627 0)
(1.15239 0.0407336 0)
(1.12907 0.0383837 0)
(1.10781 0.0349884 0)
(1.09101 0.0281972 0)
(1.07719 0.0232742 0)
(1.06833 0.0156792 0)
(1.06055 0.00991524 0)
(1.05482 0.00385274 0)
(1.0492 0.000237739 0)
(1.04369 -0.00252871 0)
(1.03861 -0.00341532 0)
(1.03385 -0.00396945 0)
(1.03031 -0.00417803 0)
(1.02772 -0.00444078 0)
(1.02592 -0.00457756 0)
(1.02432 -0.00459821 0)
(1.02274 -0.00436845 0)
(1.02135 -0.00406822 0)
(1.02005 -0.00363703 0)
(1.01891 -0.0030611 0)
(1.01791 -0.00257647 0)
(1.01706 -0.00183365 0)
(1.01649 -0.00110882 0)
(1.0161 -0.00047841 0)
(1.3815 0.163082 0)
(1.32193 0.143819 0)
(1.27446 0.117756 0)
(1.2339 0.104044 0)
(1.19933 0.0939833 0)
(1.1805 0.0791306 0)
(1.15984 0.0665583 0)
(1.13818 0.0593275 0)
(1.11975 0.0503429 0)
(1.10221 0.0452789 0)
(1.08827 0.0382165 0)
(1.07552 0.0326976 0)
(1.06642 0.0252982 0)
(1.05748 0.0196531 0)
(1.05076 0.0133634 0)
(1.04502 0.00882811 0)
(1.03936 0.00490938 0)
(1.03482 0.00215182 0)
(1.03109 -4.96536e-05 0)
(1.02858 -0.00147459 0)
(1.02687 -0.00255693 0)
(1.02521 -0.0030785 0)
(1.02369 -0.0033155 0)
(1.02224 -0.00333734 0)
(1.02087 -0.00313925 0)
(1.01969 -0.00274909 0)
(1.01865 -0.00236955 0)
(1.01777 -0.0017132 0)
(1.01719 -0.00104502 0)
(1.01679 -0.000451669 0)
(1.33077 0.236395 0)
(1.27139 0.21851 0)
(1.24654 0.167889 0)
(1.2122 0.138748 0)
(1.18168 0.127871 0)
(1.1609 0.10267 0)
(1.13482 0.0924349 0)
(1.11675 0.076777 0)
(1.09797 0.0630201 0)
(1.08095 0.0491578 0)
(1.06701 0.0382849 0)
(1.05796 0.0261624 0)
(1.05018 0.0170822 0)
(1.04546 0.00806179 0)
(1.04143 0.00244928 0)
(1.03777 -0.00176691 0)
(1.03425 -0.0032373 0)
(1.03074 -0.00404192 0)
(1.02787 -0.00398828 0)
(1.02609 -0.00410851 0)
(1.02473 -0.00406245 0)
(1.02349 -0.00397505 0)
(1.0223 -0.00377919 0)
(1.02112 -0.00351662 0)
(1.01998 -0.00316495 0)
(1.01898 -0.00268537 0)
(1.01807 -0.00228361 0)
(1.01728 -0.00164782 0)
(1.01674 -0.00100346 0)
(1.01637 -0.00043293 0)
(1.27121 0.286316 0)
(1.21802 0.274455 0)
(1.20009 0.206372 0)
(1.16791 0.196314 0)
(1.16416 0.154545 0)
(1.14475 0.12448 0)
(1.12922 0.103372 0)
(1.11171 0.08226 0)
(1.09593 0.0665214 0)
(1.08302 0.0560215 0)
(1.07212 0.0460834 0)
(1.06252 0.0386901 0)
(1.05615 0.0304518 0)
(1.05025 0.0240235 0)
(1.04657 0.0164059 0)
(1.04289 0.010933 0)
(1.03898 0.00594817 0)
(1.03498 0.00282957 0)
(1.03158 0.00056329 0)
(1.02914 -0.000754357 0)
(1.02727 -0.00170384 0)
(1.02562 -0.00224402 0)
(1.0241 -0.00258002 0)
(1.02261 -0.00269697 0)
(1.02122 -0.00261471 0)
(1.02005 -0.00233861 0)
(1.019 -0.00205039 0)
(1.01814 -0.00150556 0)
(1.01754 -0.000925327 0)
(1.01715 -0.000401363 0)
(1.19426 0.325552 0)
(1.15012 0.308364 0)
(1.17114 0.214287 0)
(1.12715 0.228692 0)
(1.119 0.169348 0)
(1.10476 0.157024 0)
(1.09445 0.131307 0)
(1.08737 0.105445 0)
(1.0777 0.0843489 0)
(1.06478 0.0652852 0)
(1.05435 0.048935 0)
(1.04614 0.0341149 0)
(1.03936 0.0226956 0)
(1.03556 0.0120322 0)
(1.03307 0.00531829 0)
(1.03158 3.69565e-05 0)
(1.03008 -0.00210856 0)
(1.02814 -0.00333503 0)
(1.02641 -0.00336184 0)
(1.02521 -0.00339807 0)
(1.0242 -0.00324143 0)
(1.02332 -0.00314649 0)
(1.02231 -0.00299486 0)
(1.02125 -0.00279179 0)
(1.0202 -0.00256261 0)
(1.01923 -0.00220531 0)
(1.01833 -0.00191023 0)
(1.01755 -0.00140421 0)
(1.017 -0.000861814 0)
(1.01663 -0.00037623 0)
(1.10909 0.363304 0)
(1.05305 0.347813 0)
(1.10437 0.260988 0)
(1.07194 0.253364 0)
(1.09422 0.180702 0)
(1.08093 0.157836 0)
(1.07281 0.120797 0)
(1.06513 0.0948175 0)
(1.05594 0.0755385 0)
(1.05307 0.0597645 0)
(1.04842 0.0481736 0)
(1.04509 0.039397 0)
(1.04264 0.0315208 0)
(1.04099 0.0252651 0)
(1.04082 0.0175794 0)
(1.0399 0.0119106 0)
(1.03816 0.00641994 0)
(1.03535 0.00315475 0)
(1.03248 0.000980819 0)
(1.02996 -7.602e-05 0)
(1.02799 -0.000873669 0)
(1.0262 -0.00139958 0)
(1.02453 -0.00177159 0)
(1.02299 -0.00197777 0)
(1.02157 -0.00200653 0)
(1.02038 -0.00184315 0)
(1.01933 -0.00166013 0)
(1.01847 -0.00124178 0)
(1.01786 -0.000768896 0)
(1.01748 -0.000340727 0)
(1.05189 0.345189 0)
(1.00421 0.319205 0)
(1.05283 0.267646 0)
(0.988769 0.253397 0)
(1.03053 0.196668 0)
(1.01139 0.18953 0)
(1.03647 0.145679 0)
(1.03841 0.119823 0)
(1.04235 0.0943182 0)
(1.03858 0.0725567 0)
(1.03566 0.0534383 0)
(1.03053 0.0384749 0)
(1.02674 0.0264713 0)
(1.02413 0.0159626 0)
(1.02307 0.00925479 0)
(1.02371 0.00357152 0)
(1.02432 0.000692416 0)
(1.02446 -0.00127111 0)
(1.02401 -0.00173695 0)
(1.02364 -0.00199264 0)
(1.02314 -0.0019737 0)
(1.02257 -0.00196074 0)
(1.02182 -0.00194022 0)
(1.02097 -0.0018754 0)
(1.02008 -0.0018123 0)
(1.01922 -0.00161541 0)
(1.01841 -0.00145686 0)
(1.0177 -0.00110401 0)
(1.01718 -0.000685846 0)
(1.01684 -0.00030968 0)
(0.949597 0.331615 0)
(0.934176 0.297248 0)
(1.01513 0.238247 0)
(0.939667 0.223852 0)
(1.02658 0.153844 0)
(0.990743 0.1532 0)
(0.99831 0.110147 0)
(1.00046 0.0937041 0)
(1.00653 0.0714462 0)
(1.01474 0.053801 0)
(1.01813 0.0424196 0)
(1.02293 0.0332245 0)
(1.02525 0.0266252 0)
(1.02876 0.021713 0)
(1.0321 0.0156388 0)
(1.03409 0.0109502 0)
(1.03499 0.00594717 0)
(1.0339 0.00303885 0)
(1.03204 0.00121615 0)
(1.02985 0.000424891 0)
(1.02788 -0.000160389 0)
(1.02603 -0.000628069 0)
(1.02435 -0.00100734 0)
(1.02286 -0.00127885 0)
(1.02152 -0.00139686 0)
(1.02041 -0.00133229 0)
(1.01946 -0.00125206 0)
(1.01867 -0.00096207 0)
(1.01812 -0.000602016 0)
(1.01776 -0.00027715 0)
(0.881777 0.338188 0)
(0.871151 0.307382 0)
(0.953458 0.263418 0)
(0.881642 0.243879 0)
(0.95935 0.19478 0)
(0.953919 0.172337 0)
(0.983726 0.132465 0)
(0.991108 0.112157 0)
(1.00145 0.0878175 0)
(1.00823 0.0698093 0)
(1.01523 0.0521751 0)
(1.01564 0.0392862 0)
(1.01671 0.028579 0)
(1.01501 0.0199187 0)
(1.01478 0.0141561 0)
(1.01663 0.00869171 0)
(1.01871 0.00514533 0)
(1.02076 0.00227778 0)
(1.02171 0.000917969 0)
(1.02221 9.79351e-05 0)
(1.02215 -0.000263415 0)
(1.02187 -0.000497692 0)
(1.02135 -0.000723232 0)
(1.02067 -0.000868862 0)
(1.01991 -0.001013 0)
(1.01915 -0.00100338 0)
(1.01844 -0.000993575 0)
(1.01779 -0.000797258 0)
(1.01732 -0.000507544 0)
(1.01701 -0.00024198 0)
(0.808701 0.296738 0)
(0.793238 0.236979 0)
(0.861088 0.215078 0)
(0.83615 0.163627 0)
(0.88771 0.140858 0)
(0.900536 0.1152 0)
(0.924256 0.0906437 0)
(0.947443 0.0706836 0)
(0.966513 0.052693 0)
(0.980394 0.0371039 0)
(0.990472 0.0273054 0)
(1.00265 0.0194056 0)
(1.00941 0.0152567 0)
(1.01796 0.0128335 0)
(1.02423 0.00977878 0)
(1.02856 0.00737715 0)
(1.03168 0.00419288 0)
(1.0324 0.00233457 0)
(1.03181 0.00118476 0)
(1.0301 0.000711512 0)
(1.02815 0.000374796 0)
(1.02624 -2.72226e-05 0)
(1.0245 -0.000366029 0)
(1.023 -0.000656303 0)
(1.02167 -0.000832899 0)
(1.02059 -0.000850315 0)
(1.01968 -0.000862556 0)
(1.0189 -0.000691317 0)
(1.01836 -0.000440553 0)
(1.01802 -0.000215171 0)
(0.737133 0.185621 0)
(0.764456 0.13327 0)
(0.82583 0.138293 0)
(0.819421 0.100763 0)
(0.869933 0.0957983 0)
(0.898662 0.072565 0)
(0.918461 0.0657512 0)
(0.939455 0.066741 0)
(0.960435 0.0593468 0)
(0.981179 0.0544497 0)
(0.999317 0.044993 0)
(1.00649 0.0368096 0)
(1.01322 0.0292598 0)
(1.01223 0.0232728 0)
(1.01218 0.0190031 0)
(1.01358 0.0144695 0)
(1.01579 0.0105874 0)
(1.01889 0.00690881 0)
(1.02082 0.00443272 0)
(1.02185 0.00285148 0)
(1.02204 0.00187367 0)
(1.02182 0.0012229 0)
(1.02136 0.000638183 0)
(1.02069 0.000205892 0)
(1.01995 -0.000179495 0)
(1.01922 -0.000385083 0)
(1.01852 -0.000530358 0)
(1.0179 -0.000487826 0)
(1.01744 -0.000328017 0)
(1.01714 -0.000174312 0)
(0.6712 0.0516181 0)
(0.695121 0.000710271 0)
(0.756982 0.00157841 0)
(0.773577 -0.00892251 0)
(0.821511 0.0150476 0)
(0.869334 -0.00263084 0)
(0.914721 0.00169606 0)
(0.943821 -0.00566147 0)
(0.952903 -0.0039472 0)
(0.96174 -0.00314961 0)
(0.969157 -0.00322115 0)
(0.985067 -0.0025256 0)
(0.994885 -0.00181185 0)
(1.00805 -0.000383082 0)
(1.01621 0.000491181 0)
(1.02195 0.00140167 0)
(1.02668 0.00116278 0)
(1.02904 0.00105178 0)
(1.02986 0.000985289 0)
(1.02897 0.000890249 0)
(1.02741 0.000780208 0)
(1.0257 0.000447178 0)
(1.02408 0.000173041 0)
(1.02272 -0.000101421 0)
(1.02154 -0.000324645 0)
(1.02056 -0.00041135 0)
(1.01974 -0.0005037 0)
(1.01904 -0.000440823 0)
(1.01854 -0.000290686 0)
(1.01823 -0.000158414 0)
(0.671038 -0.0988509 0)
(0.700521 -0.11427 0)
(0.798273 -0.125243 0)
(0.861264 -0.126763 0)
(0.873491 -0.0727142 0)
(0.883788 -0.0237514 0)
(0.909846 0.0106442 0)
(0.933438 0.0217059 0)
(0.964696 0.0315064 0)
(0.985223 0.0302976 0)
(1.00251 0.0319791 0)
(1.00906 0.0278462 0)
(1.01649 0.0256826 0)
(1.01519 0.0231165 0)
(1.01409 0.0213519 0)
(1.01404 0.018424 0)
(1.01481 0.0149535 0)
(1.01765 0.0111961 0)
(1.01981 0.00789561 0)
(1.0211 0.00564445 0)
(1.02144 0.00398786 0)
(1.02124 0.0028623 0)
(1.02081 0.00187845 0)
(1.02021 0.00112107 0)
(1.01957 0.00049757 0)
(1.01894 0.000105284 0)
(1.01836 -0.00016915 0)
(1.01784 -0.000247544 0)
(1.01746 -0.000189308 0)
(1.01722 -0.000121496 0)
(0.60452 -0.106103 0)
(0.626507 -0.0957334 0)
(1.09033 -0.0476503 3.17691e-20)
(1.04171 -0.0605815 -8.21985e-21)
(1.03833 -0.067447 3.36407e-21)
(1.0568 -0.0743345 5.94083e-22)
(1.06786 -0.0729855 -1.60398e-21)
(1.06895 -0.0693834 -1.00761e-21)
(1.0686 -0.0636625 1.15899e-21)
(1.06566 -0.0552245 -1.82332e-21)
(1.05877 -0.0435256 4.10506e-21)
(1.05497 -0.0369558 1.73289e-21)
(1.08766 -0.0346699 3.51496e-21)
(1.10958 -0.0416122 3.70074e-21)
(1.10265 -0.0535141 5.03789e-21)
(1.08389 -0.0552747 -4.78745e-22)
(1.07071 -0.0497098 -7.15116e-22)
(1.06744 -0.0493249 -3.02109e-22)
(1.07294 -0.0537074 1.97859e-21)
(1.07239 -0.0507588 -3.98558e-21)
(1.06674 -0.0459936 9.3107e-22)
(1.06557 -0.0421895 6.12519e-22)
(1.06007 -0.0360971 1.00749e-21)
(1.05279 -0.0275221 -1.60947e-22)
(1.04967 -0.0222098 4.90577e-21)
(1.04632 -0.0172375 -4.08659e-21)
(1.0422 -0.0133893 -5.00309e-21)
(1.03934 -0.0109929 5.54931e-21)
(1.03643 -0.0098786 -6.48722e-21)
(1.03327 -0.0091463 4.26827e-21)
(1.03027 -0.00890717 1.46047e-21)
(1.02729 -0.00855373 -1.24801e-21)
(1.02459 -0.00803002 3.52581e-22)
(1.02235 -0.00740021 8.83757e-22)
(1.0206 -0.00669118 -1.4023e-22)
(1.01901 -0.00585584 -1.69837e-21)
(1.01781 -0.00499468 1.18127e-21)
(1.01681 -0.00408566 -4.01752e-22)
(1.01592 -0.00325084 2.94957e-22)
(1.01528 -0.00214277 -5.42106e-22)
(1.01483 -0.00127857 -5.66095e-22)
(1.01452 -0.00058354 -1.53634e-21)
(1.01775 -0.0267811 1.00716e-20)
(1.01735 -0.0442154 -3.02514e-21)
(1.05364 -0.063302 -1.60949e-21)
(1.07548 -0.0703288 1.04705e-21)
(1.07327 -0.0628988 -1.41604e-21)
(1.07086 -0.0574904 2.3041e-21)
(1.07292 -0.0519031 -1.26418e-21)
(1.0689 -0.0431857 3.4546e-21)
(1.06804 -0.0364402 -3.47537e-21)
(1.06901 -0.0338531 -1.783e-21)
(1.06213 -0.0269245 4.88499e-21)
(1.05584 -0.0219667 1.5742e-21)
(1.053 -0.0190518 -2.33244e-21)
(1.04712 -0.0160847 -9.29905e-22)
(1.04201 -0.0132924 -2.50034e-21)
(1.03878 -0.0119455 1.90055e-21)
(1.03541 -0.0104237 1.31586e-21)
(1.03268 -0.00956408 3.95833e-21)
(1.03015 -0.00908119 -9.96531e-21)
(1.02755 -0.00872535 3.79116e-21)
(1.02504 -0.00821094 1.83777e-22)
(1.02298 -0.00760963 2.58815e-22)
(1.02123 -0.00686294 5.5616e-24)
(1.01962 -0.00596812 -6.7781e-22)
(1.01845 -0.00509206 1.46934e-21)
(1.01737 -0.00414456 -2.00171e-23)
(1.01644 -0.0033027 3.23582e-22)
(1.01575 -0.00219761 -6.16909e-22)