/*--------------------------------*- C++ -*----------------------------------*\
| =========                 |                                                 |
| \\      /  F ield         | OpenFOAM: The Open Source CFD Toolbox           |
|  \\    /   O peration     | Version:                                        |
|   \\  /    A nd           | Website:  www.openfoam.com                      |
|    \\/     M anipulation  |                                                 |
\*---------------------------------------------------------------------------*/
FoamFile
{
    version     2.0;
    format      ascii;
    class       volVectorField;
    location    "65.7";
    object      U;
}
// * * * * * * * * * * * * * * * * * * * * * * * * * * * * * * * * * * * * * //

dimensions      [0 1 -1 0 0 0 0];


internalField   nonuniform List<vector> 
1150
(
(0.858282 -0.0283779 4.7647e-21)
(0.862219 -0.0493034 -9.76468e-21)
(0.868723 -0.0686198 -3.22198e-20)
(0.877743 -0.0883971 -1.86807e-21)
(0.889817 -0.106154 -6.47929e-21)
(0.903171 -0.123713 2.98988e-20)
(0.846783 -0.0297396 -1.10562e-20)
(0.851447 -0.0521967 -2.92187e-21)
(0.859396 -0.0730413 -4.29677e-20)
(0.870161 -0.094206 -1.27376e-20)
(0.884662 -0.112486 -1.09136e-19)
(0.834315 -0.0315806 6.12473e-21)
(0.839945 -0.055814 3.08967e-20)
(0.849183 -0.0782287 5.3253e-20)
(0.99928 0.00180694 1.99972e-22)
(0.998909 0.00323825 -8.59613e-22)
(0.998678 0.00478983 1.43371e-21)
(0.99863 0.00625936 -9.50975e-22)
(0.998825 0.00788627 -4.08634e-22)
(0.999232 0.00929659 2.13401e-21)
(0.999829 0.0109605 -1.07165e-21)
(1.00108 0.0122529 -3.19693e-23)
(1.0032 0.0138583 -9.18048e-22)
(1.00503 0.0148879 9.6307e-22)
(1.0062 -2.24001e-05 5.75348e-23)
(1.00742 -0.00181716 1.34906e-22)
(1.00849 -0.00364776 2.57872e-22)
(1.00943 -0.00532778 -6.45925e-22)
(1.01022 -0.00710556 3.9024e-22)
(1.01093 -0.00862336 -8.29398e-22)
(1.01157 -0.0104338 1.09701e-21)
(1.01159 -0.0118108 -8.75451e-22)
(1.01077 -0.0136486 4.39702e-22)
(1.01202 -0.0150378 -2.81926e-22)
(1.0029 -0.00729983 -3.70632e-23)
(1.00279 -0.00607757 5.29668e-22)
(1.0026 -0.00516641 1.7569e-22)
(1.00228 -0.00463339 -3.0598e-22)
(1.00165 -0.00444263 -5.94501e-22)
(1.0006 -0.00482664 1.44292e-21)
(0.999099 -0.00543098 1.74462e-21)
(0.997373 -0.00679351 -1.70771e-21)
(0.994872 -0.00812323 9.36259e-22)
(0.990406 -0.0100594 1.39791e-21)
(1.00009 -0.00615639 -1.19565e-22)
(0.998365 -0.00791802 5.06879e-23)
(0.996402 -0.00945815 -4.91371e-23)
(0.994129 -0.0106273 -1.02533e-21)
(0.991745 -0.0115409 1.00646e-21)
(0.989314 -0.0117306 -1.33149e-21)
(0.987013 -0.0117225 -1.11927e-21)
(0.984983 -0.0104867 -1.16578e-21)
(0.983502 -0.00925938 -1.30895e-21)
(0.983573 -0.00633458 -2.56037e-22)
(0.999335 -0.000851088 -4.24423e-23)
(1.00006 0.000662078 3.9858e-22)
(1.00097 0.00222743 4.2312e-22)
(1.00222 0.00359399 -1.55307e-21)
(1.00377 0.00506302 -8.992e-22)
(1.00579 0.00603164 1.72576e-21)
(1.00823 0.00725492 -7.20902e-22)
(1.01111 0.00765669 4.00472e-23)
(1.01454 0.00840976 -1.36401e-21)
(1.0176 0.00785075 -9.70543e-23)
(1.00061 -0.00803255 1.35959e-22)
(1.00041 -0.0100454 -9.61435e-22)
(1.00008 -0.0121931 1.48287e-21)
(0.99958 -0.0139975 8.10202e-22)
(0.998829 -0.0159439 6.0157e-22)
(0.997801 -0.0170471 -8.16884e-22)
(0.996683 -0.0185231 1.69869e-21)
(0.995234 -0.0188612 2.43209e-21)
(0.992609 -0.0196884 2.1888e-22)
(0.990357 -0.0193587 -1.6063e-22)
(0.997678 -0.00180255 1.65409e-22)
(0.997171 -0.00029882 2.56823e-22)
(0.996763 0.00162132 -1.26613e-21)
(0.996514 0.0035037 6.98054e-22)
(0.9966 0.00582102 6.44739e-22)
(0.996938 0.00749909 -5.66854e-22)
(0.997517 0.00983895 -1.54518e-21)
(0.998924 0.0106808 -1.59778e-21)
(1.00184 0.0123236 1.62341e-21)
(1.00277 0.0117979 5.35355e-22)
(0.997043 0.000892568 -1.05713e-23)
(0.997968 -0.00105897 1.38815e-22)
(0.998792 -0.00337108 4.22892e-22)
(0.999589 -0.00565728 7.75064e-22)
(1.00017 -0.00859991 1.22275e-21)
(1.0007 -0.0111228 -9.94666e-22)
(1.00109 -0.0148252 -1.40509e-21)
(1.00076 -0.017317 -6.61784e-22)
(0.99777 -0.0211375 -2.1878e-21)
(1.00075 -0.0225099 -7.34452e-22)
(0.995762 -0.00467801 9.627e-23)
(0.996192 -0.00376921 -4.23636e-22)
(0.996502 -0.00273166 -5.29954e-22)
(0.996537 -0.00179108 -1.49975e-21)
(0.996394 -0.00041003 -2.23039e-21)
(0.995643 0.000778394 -8.87294e-22)
(0.994461 0.00309581 4.57972e-21)
(0.993714 0.00461289 1.29406e-21)
(0.995542 0.00778434 1.02472e-21)
(0.990387 0.00913235 -2.94386e-21)
(0.995099 -0.00237901 -1.517e-22)
(0.994871 -0.00377538 7.63795e-22)
(0.994644 -0.00475367 1.6185e-21)
(0.99451 -0.00537943 8.67926e-22)
(0.994438 -0.00609356 -1.75606e-21)
(0.99472 -0.00633757 2.58009e-21)
(0.995449 -0.00751655 -1.65525e-21)
(0.996132 -0.00772612 1.66654e-21)
(0.994877 -0.00948972 -2.50958e-22)
(1.0037 -0.0108388 1.79505e-21)
(0.993204 -0.00104801 1.03469e-22)
(0.993829 -0.000662931 -3.57708e-22)
(0.994541 -0.000678854 -1.45046e-21)
(0.995388 -0.00103203 1.73381e-21)
(0.99637 -0.00149459 3.01524e-21)
(0.997285 -0.00251066 -9.32083e-22)
(0.99824 -0.00273275 -4.4847e-21)
(0.999678 -0.00437729 6.5753e-22)
(1.00163 -0.00404769 -9.79957e-22)
(0.997007 -0.0059601 -5.29385e-21)
(0.991814 -0.00746376 -3.72597e-23)
(0.992764 -0.00941529 2.5358e-22)
(0.993532 -0.0110378 1.7601e-21)
(0.994044 -0.0125321 -1.11501e-21)
(0.994248 -0.0137718 7.51388e-22)
(0.994128 -0.0145511 -1.11339e-21)
(0.993566 -0.015433 3.20669e-21)
(0.992771 -0.0151967 -9.75187e-21)
(0.991296 -0.0162274 5.36752e-21)
(0.993405 -0.0164122 5.58671e-21)
(0.98922 -0.0064481 3.54553e-22)
(0.989176 -0.00631344 -4.04889e-22)
(0.989218 -0.00601024 -3.17805e-21)
(0.989359 -0.00568713 -1.37829e-21)
(0.989628 -0.00557479 -3.69475e-21)
(0.990199 -0.00582995 -6.61949e-21)
(0.991276 -0.006311 -6.09893e-21)
(0.991958 -0.00802639 1.94975e-21)
(0.993628 -0.0084611 -3.41325e-21)
(0.992958 -0.0121381 9.97647e-21)
(0.987566 -0.00868067 -2.87831e-22)
(0.987808 -0.0108895 2.41893e-22)
(0.988095 -0.0132047 5.65161e-22)
(0.988333 -0.0157125 3.14211e-21)
(0.98865 -0.017971 2.41346e-21)
(0.988831 -0.020462 6.51273e-21)
(0.989263 -0.0222954 1.0134e-20)
(0.989896 -0.0238405 2.07454e-21)
(0.988061 -0.024319 -1.20964e-21)
(0.991632 -0.0246338 -1.901e-20)
(0.984526 -0.00908302 2.29075e-22)
(0.985245 -0.0097692 -2.15653e-21)
(0.985898 -0.0100491 1.10237e-21)
(0.986667 -0.0103749 -7.55474e-22)
(0.987241 -0.0105081 -8.92048e-22)
(0.987931 -0.0107941 -3.00966e-21)
(0.988578 -0.010833 -1.22043e-20)
(0.990079 -0.012547 7.51993e-21)
(0.992338 -0.0128548 9.33356e-21)
(0.990491 -0.0173961 8.09602e-21)
(0.981038 -0.0113213 -5.00094e-22)
(0.98127 -0.0140407 3.33072e-21)
(0.981461 -0.0167111 -2.02954e-21)
(0.981541 -0.0191885 2.78601e-21)
(0.981661 -0.0220813 1.0952e-21)
(0.981701 -0.0247625 -4.41153e-21)
(0.981658 -0.0280364 5.14669e-21)
(0.981446 -0.0303661 6.41851e-21)
(0.981269 -0.0335946 -1.20098e-20)
(0.981898 -0.0352382 -8.40624e-22)
(0.977296 -0.011152 -3.10464e-23)
(0.977872 -0.012572 -2.9731e-21)
(0.978601 -0.0135632 7.05936e-21)
(0.979359 -0.0147618 -4.63216e-21)
(0.980259 -0.0152861 -9.36252e-22)
(0.981085 -0.0164937 4.38678e-21)
(0.982466 -0.0161849 1.01214e-20)
(0.983786 -0.0182183 -6.68376e-21)
(0.984825 -0.0159954 1.17531e-20)
(0.987757 -0.0209498 2.21765e-21)
(0.973472 -0.0121628 1.03442e-21)
(0.973719 -0.0157239 -2.34206e-21)
(0.973917 -0.018982 -9.80082e-21)
(0.974305 -0.0223024 6.2757e-21)
(0.974501 -0.025609 8.70092e-22)
(0.974768 -0.0288695 1.00901e-20)
(0.974853 -0.0325213 6.06378e-21)
(0.975658 -0.0358342 -9.65717e-21)
(0.976119 -0.0402083 -2.34019e-20)
(0.976179 -0.0429529 1.75243e-20)
(0.968791 -0.0121948 -1.0999e-21)
(0.969735 -0.0147258 2.95991e-21)
(0.970704 -0.016805 1.45423e-21)
(0.971761 -0.0188247 -3.52125e-21)
(0.973165 -0.0205022 8.95393e-22)
(0.974255 -0.0225051 4.71964e-21)
(0.975652 -0.0228201 4.14498e-21)
(0.977069 -0.0256604 7.82564e-21)
(0.979282 -0.0231093 3.80126e-20)
(0.981748 -0.0290775 -1.18683e-20)
(0.963327 -0.0132079 3.25167e-22)
(0.963805 -0.0177893 -3.34191e-21)
(0.964477 -0.0219143 3.33429e-22)
(0.96507 -0.0261744 -7.60247e-21)
(0.965833 -0.0301975 -1.3695e-20)
(0.966731 -0.0343984 -1.76662e-20)
(0.967676 -0.0388545 2.05036e-21)
(0.968446 -0.0421826 2.34541e-21)
(0.969272 -0.0486913 -3.51623e-20)
(0.972216 -0.0516919 -1.24873e-20)
(0.957427 -0.0135004 -7.77411e-22)
(0.958489 -0.0174796 4.81326e-21)
(0.959797 -0.020774 2.84178e-21)
(0.961292 -0.024241 1.07038e-20)
(0.963137 -0.0270689 1.19584e-20)
(0.96501 -0.0305563 -7.19898e-21)
(0.967648 -0.0320513 -3.10026e-20)
(0.969435 -0.0370119 -1.98686e-20)
(0.972655 -0.0335809 -1.03621e-21)
(0.974668 -0.0432454 -1.21885e-20)
(0.951255 -0.0146117 1.96008e-21)
(0.95208 -0.0207999 1.65796e-21)
(0.953175 -0.0262361 -1.6561e-22)
(0.954495 -0.0320079 -1.37322e-20)
(0.956019 -0.037027 1.21465e-20)
(0.957574 -0.0426866 4.00224e-21)
(0.95974 -0.0477191 3.34711e-20)
(0.962715 -0.0526089 7.87451e-21)
(0.963148 -0.0594265 3.88729e-20)
(0.969563 -0.0621371 3.10251e-20)
(0.944124 -0.0150917 -2.5981e-22)
(0.945486 -0.0210745 1.24696e-21)
(0.947138 -0.0260763 6.16941e-21)
(0.949228 -0.0314112 1.52073e-20)
(0.951784 -0.0360048 2.52619e-21)
(0.954696 -0.0410962 -6.24013e-21)
(0.957811 -0.0441714 -4.33798e-22)
(0.961108 -0.0510498 -1.16606e-20)
(0.967857 -0.0490826 -1.1198e-20)
(0.966758 -0.0613092 2.35376e-20)
(0.93625 -0.0166532 -1.22704e-21)
(0.937678 -0.0249851 2.10407e-21)
(0.939498 -0.0324082 -1.24121e-20)
(0.941596 -0.0400893 -6.19039e-21)
(0.944344 -0.0470128 -3.38132e-20)
(0.94724 -0.0544652 -5.4372e-21)
(0.950705 -0.0607737 -2.19611e-20)
(0.955573 -0.0668951 -7.75419e-21)
(0.956706 -0.0745579 -5.26675e-21)
(0.969546 -0.0784368 -6.67679e-20)
(0.92744 -0.0175409 -3.36849e-22)
(0.929173 -0.0260786 -5.63127e-21)
(0.931545 -0.0334411 -1.51888e-21)
(0.934507 -0.0412278 -7.92199e-21)
(0.938149 -0.0479835 -1.93432e-20)
(0.942848 -0.0551638 2.29621e-20)
(0.947688 -0.0608789 1.93597e-20)
(0.952521 -0.0684201 6.16139e-20)
(0.962844 -0.0703089 -2.09873e-20)
(0.96074 -0.0826251 4.48059e-20)
(0.918087 -0.0194814 3.40649e-21)
(0.920175 -0.0307477 -1.09534e-21)
(0.922864 -0.0407913 9.22768e-21)
(0.926254 -0.0511869 -1.02377e-20)
(0.930552 -0.0605465 1.90993e-20)
(0.935152 -0.0704352 2.92498e-20)
(0.941553 -0.0789529 -1.2028e-20)
(0.948759 -0.0878816 -1.07189e-20)
(0.951068 -0.0955949 2.30736e-20)
(0.970643 -0.101561 9.51202e-22)
(0.907679 -0.0206667 -2.7707e-21)
(0.909872 -0.0324708 3.03264e-21)
(0.913153 -0.0429519 -3.60705e-21)
(0.917334 -0.0539545 3.46978e-20)
(0.922719 -0.063651 -1.30098e-20)
(0.929194 -0.0736219 -1.41765e-20)
(0.936034 -0.0820632 -4.61783e-20)
(0.945197 -0.0909563 9.01577e-21)
(0.957331 -0.0974416 2.39238e-21)
(0.958964 -0.104154 1.89983e-20)
(0.89661 -0.0229462 1.56124e-22)
(0.899334 -0.0378951 -6.95303e-21)
(0.903077 -0.0513732 4.19618e-22)
(0.908168 -0.0653913 -7.42323e-21)
(0.914427 -0.07826 2.54885e-20)
(0.922096 -0.0911659 -6.9162e-20)
(0.931374 -0.102659 2.1901e-20)
(0.941259 -0.114331 -5.20948e-22)
(0.949901 -0.123196 -3.05967e-20)
(0.973417 -0.128699 -7.52477e-20)
(0.884181 -0.0242855 -5.6247e-22)
(0.887059 -0.0402755 -3.90522e-22)
(0.891451 -0.0547965 7.97289e-21)
(0.89721 -0.0697555 1.20835e-21)
(0.905219 -0.0833198 -1.41186e-20)
(0.914079 -0.0971071 9.87917e-20)
(0.925129 -0.108513 2.36053e-21)
(0.93911 -0.11966 -5.05133e-20)
(0.95411 -0.130058 -2.08271e-20)
(0.871155 -0.0269572 -2.821e-21)
(0.874638 -0.0464634 8.05982e-21)
(0.880088 -0.0645124 2.1592e-20)
(0.887476 -0.083196 5.23889e-21)
(0.896774 -0.100134 9.77274e-20)
(0.90879 -0.117234 -1.10489e-19)
(0.922521 -0.132151 -1.8617e-20)
(1.01069 0.0168182 0)
(1.01875 0.0179572 0)
(1.02322 0.0188367 0)
(1.02017 0.0185709 0)
(1.0144 0.0175144 0)
(1.00922 0.0156821 0)
(1.00364 0.0136266 0)
(0.998861 0.0115488 0)
(0.997503 0.00964054 0)
(0.998847 0.00807068 0)
(1.00023 0.00690222 0)
(1.00048 0.00595305 0)
(1.00006 0.0051083 0)
(0.99974 0.00435274 0)
(0.999744 0.0036793 0)
(0.999889 0.00307319 0)
(0.999995 0.0025023 0)
(1.00001 0.00199202 0)
(0.999978 0.00153968 0)
(0.999927 0.00114878 0)
(0.999887 0.000837393 0)
(0.999865 0.000603618 0)
(0.999864 0.000427556 0)
(0.999881 0.000295726 0)
(0.99991 0.000195489 0)
(0.999944 0.000118337 0)
(0.999981 6.38212e-05 0)
(1.00001 2.56908e-05 0)
(1.00004 3.97879e-07 0)
(1.00006 -3.94963e-06 0)
(1.00827 -0.0171775 0)
(0.99648 -0.0182755 0)
(0.983359 -0.0193842 0)
(0.976481 -0.0189643 0)
(0.974768 -0.017515 0)
(0.976549 -0.0152893 0)
(0.982034 -0.0128563 0)
(0.988599 -0.0105646 0)
(0.992801 -0.00865946 0)
(0.994354 -0.0073963 0)
(0.994954 -0.0068776 0)
(0.99563 -0.0067656 0)
(0.996554 -0.00659001 0)
(0.997465 -0.00622908 0)
(0.998132 -0.0056829 0)
(0.998596 -0.00504048 0)
(0.998945 -0.00436523 0)
(0.999256 -0.00375365 0)
(0.999536 -0.0032321 0)
(0.999769 -0.00280198 0)
(0.999938 -0.00246612 0)
(1.00005 -0.00220763 0)
(1.0001 -0.00199366 0)
(1.00012 -0.00179522 0)
(1.00011 -0.00159365 0)
(1.00009 -0.00137453 0)
(1.00007 -0.00113135 0)
(1.00004 -0.000850666 0)
(1.00002 -0.000527826 0)
(1.00002 -0.000179343 0)
(0.992627 -0.0118315 0)
(1.00222 -0.0145988 0)
(1.01278 -0.0162791 0)
(1.01954 -0.0169397 0)
(1.02144 -0.0161155 0)
(1.01883 -0.014372 0)
(1.01258 -0.0126043 0)
(1.00552 -0.0110809 0)
(1.00088 -0.00990105 0)
(0.998896 -0.00882688 0)
(0.998494 -0.00765282 0)
(0.999051 -0.00628108 0)
(0.99995 -0.00502586 0)
(1.00047 -0.00410665 0)
(1.00039 -0.00369213 0)
(0.999943 -0.00366077 0)
(0.999513 -0.00377686 0)
(0.99927 -0.00386437 0)
(0.999215 -0.00383164 0)
(0.999297 -0.00366537 0)
(0.999481 -0.00340977 0)
(0.999707 -0.00312948 0)
(0.999928 -0.00285077 0)
(1.00012 -0.00258442 0)
(1.00028 -0.002316 0)
(1.0004 -0.00201802 0)
(1.00048 -0.00167032 0)
(1.00053 -0.00127062 0)
(1.00057 -0.000815582 0)
(1.0006 -0.000286534 0)
(0.979557 -0.0035573 0)
(0.975299 -0.00070103 0)
(0.978163 0.000438451 0)
(0.988252 -0.00131198 0)
(0.998128 -0.0044152 0)
(1.00273 -0.00675402 0)
(1.00469 -0.00758664 0)
(1.00549 -0.00778079 0)
(1.00394 -0.00800682 0)
(1.00162 -0.00841688 0)
(1.00065 -0.00864384 0)
(1.00104 -0.00854816 0)
(1.00163 -0.00827906 0)
(1.00185 -0.00802727 0)
(1.00181 -0.00779345 0)
(1.00173 -0.0074959 0)
(1.00169 -0.00713288 0)
(1.00165 -0.00677274 0)
(1.00154 -0.00645408 0)
(1.00139 -0.00612219 0)
(1.00125 -0.00573199 0)
(1.00115 -0.00526183 0)
(1.00111 -0.00474432 0)
(1.00111 -0.00421184 0)
(1.00112 -0.00367076 0)
(1.00111 -0.00311167 0)
(1.00108 -0.00252436 0)
(1.00105 -0.00188808 0)
(1.00102 -0.00118403 0)
(1.00101 -0.000407056 0)
(1.02148 0.00776444 0)
(1.01738 0.00678891 0)
(1.00197 0.0046167 0)
(0.987646 0.00154206 0)
(0.987631 -0.00210117 0)
(0.996575 -0.00562399 0)
(1.00194 -0.00818392 0)
(1.0015 -0.00923629 0)
(1.00042 -0.00858903 0)
(1.00091 -0.00700401 0)
(1.00152 -0.00557119 0)
(1.00095 -0.00504146 0)
(0.999527 -0.00527284 0)
(0.998354 -0.00576873 0)
(0.998095 -0.00606331 0)
(0.99859 -0.00595637 0)
(0.999311 -0.00559601 0)
(0.999979 -0.00518875 0)
(1.0005 -0.00484147 0)
(1.00087 -0.00459195 0)
(1.00111 -0.00441085 0)
(1.00129 -0.00424628 0)
(1.00141 -0.00404792 0)
(1.00152 -0.00378096 0)
(1.00161 -0.00342833 0)
(1.00168 -0.00298952 0)
(1.00172 -0.00246987 0)
(1.00175 -0.00187906 0)
(1.00176 -0.00120862 0)
(1.00177 -0.000424051 0)
(0.982766 -0.0192014 0)
(0.973096 -0.0179965 0)
(0.969296 -0.0144296 0)
(0.974495 -0.00880979 0)
(0.984061 -0.00426506 0)
(0.993368 -0.0020532 0)
(1.00184 -0.00173448 0)
(1.00853 -0.00230103 0)
(1.01081 -0.00313923 0)
(1.00929 -0.00394769 0)
(1.00661 -0.00470853 0)
(1.00399 -0.00558477 0)
(1.00194 -0.00652375 0)
(1.00076 -0.00721185 0)
(1.00021 -0.00763301 0)
(0.999902 -0.00788703 0)
(0.999712 -0.007993 0)
(0.999699 -0.00790586 0)
(0.999921 -0.00755058 0)
(1.00035 -0.00700877 0)
(1.00089 -0.00641463 0)
(1.0014 -0.00582495 0)
(1.00181 -0.00525802 0)
(1.00209 -0.00472003 0)
(1.00225 -0.00416941 0)
(1.00232 -0.00356879 0)
(1.00233 -0.00292017 0)
(1.0023 -0.00220258 0)
(1.00226 -0.00139388 0)
(1.00223 -0.000482386 0)
(1.0113 0.0132145 0)
(1.02163 0.0129533 0)
(1.02039 0.0133713 0)
(1.00713 0.0146466 0)
(0.993752 0.0167598 0)
(0.988429 0.0165836 0)
(0.98881 0.0137567 0)
(0.99138 0.0100582 0)
(0.994924 0.00688534 0)
(0.997539 0.00420102 0)
(0.99822 0.00176589 0)
(0.998366 -6.92085e-05 0)
(0.999238 -0.00123458 0)
(1.00066 -0.00188905 0)
(1.00191 -0.00242922 0)
(1.00251 -0.00315914 0)
(1.00253 -0.00409368 0)
(1.00223 -0.00499805 0)
(1.00188 -0.00564271 0)
(1.00171 -0.00593839 0)
(1.00175 -0.00587414 0)
(1.00194 -0.00554741 0)
(1.00224 -0.00508871 0)
(1.00254 -0.00457313 0)
(1.00277 -0.00402615 0)
(1.00291 -0.00344654 0)
(1.00299 -0.00282313 0)
(1.00302 -0.00214293 0)
(1.00302 -0.00137262 0)
(1.003 -0.000480167 0)
(0.996815 -0.025589 0)
(0.988004 -0.026735 0)
(0.99138 -0.0265707 0)
(1.00396 -0.0235181 0)
(1.00707 -0.0184725 0)
(0.998211 -0.0131474 0)
(0.990836 -0.00969875 0)
(0.99143 -0.00847663 0)
(0.994459 -0.00847037 0)
(0.995618 -0.00925063 0)
(0.995528 -0.0103153 0)
(0.995783 -0.0107701 0)
(0.996912 -0.0103031 0)
(0.998381 -0.00934913 0)
(0.999581 -0.00835959 0)
(1.00053 -0.00758871 0)
(1.00137 -0.00712859 0)
(1.00206 -0.00697237 0)
(1.00251 -0.00704718 0)
(1.00271 -0.00713158 0)
(1.00279 -0.00706349 0)
(1.00288 -0.00680519 0)
(1.00302 -0.00634157 0)
(1.00318 -0.00571124 0)
(1.00333 -0.00499434 0)
(1.00343 -0.00422932 0)
(1.00348 -0.00342876 0)
(1.00349 -0.00257325 0)
(1.00348 -0.00161406 0)
(1.00345 -0.000553905 0)
(0.996469 0.0142335 0)
(1.0136 0.0152406 0)
(1.02504 0.0142089 0)
(1.02546 0.00951766 0)
(1.01941 0.00441454 0)
(1.00909 0.00149992 0)
(0.999473 0.00109066 0)
(0.994865 0.000715808 0)
(0.993435 -0.000272507 0)
(0.992526 -0.00138441 0)
(0.992853 -0.0025297 0)
(0.994545 -0.00368248 0)
(0.99618 -0.00493562 0)
(0.997 -0.00625976 0)
(0.997367 -0.00736638 0)
(0.99789 -0.00799322 0)
(0.998863 -0.00811141 0)
(1.00015 -0.00792704 0)
(1.0014 -0.00766679 0)
(1.00239 -0.00742488 0)
(1.00308 -0.00719486 0)
(1.00352 -0.00690335 0)
(1.00379 -0.00647718 0)
(1.00397 -0.00590733 0)
(1.00409 -0.00521935 0)
(1.00416 -0.00444765 0)
(1.0042 -0.00361614 0)
(1.00422 -0.0027213 0)
(1.00422 -0.0017117 0)
(1.00418 -0.000586105 0)
(1.00346 -0.0119612 0)
(0.98776 -0.0132364 0)
(0.974554 -0.0155655 0)
(0.977011 -0.0185071 0)
(0.987066 -0.0214469 0)
(0.991112 -0.0226433 0)
(0.987891 -0.0216566 0)
(0.98534 -0.0194906 0)
(0.988016 -0.0178158 0)
(0.992437 -0.0165648 0)
(0.995457 -0.0149461 0)
(0.997667 -0.0132659 0)
(0.999592 -0.0122498 0)
(1.00078 -0.0118999 0)
(1.00124 -0.0120107 0)
(1.00143 -0.0122717 0)
(1.00168 -0.0123072 0)
(1.00212 -0.0119287 0)
(1.00276 -0.0112577 0)
(1.00345 -0.0104751 0)
(1.00406 -0.00967556 0)
(1.00452 -0.00887574 0)
(1.00482 -0.00805232 0)
(1.00498 -0.00718005 0)
(1.00501 -0.0062554 0)
(1.00498 -0.00529262 0)
(1.00491 -0.00428884 0)
(1.00483 -0.00320734 0)
(1.00476 -0.00198909 0)
(1.00469 -0.00067052 0)
(0.999854 -0.00633126 0)
(1.00474 -0.00684907 0)
(1.00247 -0.00716323 0)
(0.998602 -0.00842107 0)
(1.00033 -0.0117134 0)
(1.00691 -0.0160762 0)
(1.0104 -0.0184408 0)
(1.00676 -0.0174949 0)
(1.00018 -0.0156022 0)
(0.99613 -0.0145954 0)
(0.995397 -0.0141079 0)
(0.996056 -0.0134936 0)
(0.997026 -0.0127341 0)
(0.998149 -0.0121083 0)
(0.999404 -0.0117343 0)
(1.0007 -0.0115741 0)
(1.00182 -0.011521 0)
(1.00266 -0.0114419 0)
(1.00331 -0.0111941 0)
(1.00387 -0.010723 0)
(1.00438 -0.0100881 0)
(1.00482 -0.00934107 0)
(1.00517 -0.00848982 0)
(1.00543 -0.00755254 0)
(1.00557 -0.00656378 0)
(1.00562 -0.0055457 0)
(1.00561 -0.00448931 0)
(1.00558 -0.00335952 0)
(1.00553 -0.00208689 0)
(1.00548 -0.000701523 0)
(0.992297 -0.0155103 0)
(0.987534 -0.0160538 0)
(0.98145 -0.0129728 0)
(0.976033 -0.0087664 0)
(0.974685 -0.00653073 0)
(0.978228 -0.00778808 0)
(0.985013 -0.0107664 0)
(0.991855 -0.0134483 0)
(0.995459 -0.0149776 0)
(0.996561 -0.0155546 0)
(0.997117 -0.0160513 0)
(0.997655 -0.0169241 0)
(0.997874 -0.0179495 0)
(0.998029 -0.0185292 0)
(0.99886 -0.0183516 0)
(1.0004 -0.0174948 0)
(1.00218 -0.0163349 0)
(1.00372 -0.0151768 0)
(1.00483 -0.0141127 0)
(1.00556 -0.0131259 0)
(1.00603 -0.0121272 0)
(1.00631 -0.0110741 0)
(1.00647 -0.00995956 0)
(1.00654 -0.00878327 0)
(1.00653 -0.00756963 0)
(1.00645 -0.00634255 0)
(1.00632 -0.00510816 0)
(1.00621 -0.00379941 0)
(1.00609 -0.00233522 0)
(1.00601 -0.000778108 0)
(0.998588 -0.0108996 0)
(1.00542 -0.0120489 0)
(1.00564 -0.0155585 0)
(0.998721 -0.0194415 0)
(0.991225 -0.0210552 0)
(0.990223 -0.0216448 0)
(0.994271 -0.0222134 0)
(0.996686 -0.0222775 0)
(0.997031 -0.0215785 0)
(0.997716 -0.020389 0)
(0.998453 -0.0189596 0)
(0.998956 -0.0178932 0)
(0.999216 -0.0176569 0)
(0.999608 -0.0178849 0)
(1.00026 -0.0180043 0)
(1.00121 -0.0176181 0)
(1.0024 -0.0167872 0)
(1.00367 -0.0156631 0)
(1.00487 -0.0144693 0)
(1.00583 -0.0133146 0)
(1.00653 -0.0122072 0)
(1.00699 -0.0111097 0)
(1.00723 -0.00998302 0)
(1.00732 -0.00881806 0)
(1.00731 -0.00761768 0)
(1.00722 -0.006391 0)
(1.00708 -0.00515259 0)
(1.00695 -0.00384076 0)
(1.00684 -0.00236996 0)
(1.00677 -0.000791948 0)
(0.991072 -0.0234599 0)
(0.985228 -0.022194 0)
(0.981818 -0.0190311 0)
(0.98256 -0.0148364 0)
(0.983429 -0.0122958 0)
(0.984244 -0.0121145 0)
(0.987352 -0.0133939 0)
(0.991305 -0.0152862 0)
(0.993329 -0.0169559 0)
(0.99387 -0.0187781 0)
(0.994868 -0.0202903 0)
(0.996427 -0.0213478 0)
(0.997849 -0.0214724 0)
(0.999557 -0.021198 0)
(1.00125 -0.0208027 0)
(1.00267 -0.0202569 0)
(1.00379 -0.0194626 0)
(1.00479 -0.0183862 0)
(1.00575 -0.017046 0)
(1.00665 -0.0155664 0)
(1.00739 -0.0140694 0)
(1.00792 -0.0125881 0)
(1.00821 -0.0111342 0)
(1.00831 -0.0097141 0)
(1.00824 -0.00831293 0)
(1.00806 -0.00692231 0)
(1.0078 -0.00555787 0)
(1.00755 -0.00413316 0)
(1.00738 -0.00254055 0)
(1.00728 -0.000846674 0)
(0.9972 -0.0173539 0)
(1.00394 -0.022453 0)
(1.00228 -0.0260523 0)
(0.992611 -0.0283506 0)
(0.98224 -0.029671 0)
(0.980932 -0.0310616 0)
(0.988554 -0.0328802 0)
(0.996304 -0.0330627 0)
(0.999139 -0.0312319 0)
(0.998391 -0.0286571 0)
(0.99744 -0.0267687 0)
(0.997287 -0.0257777 0)
(0.998402 -0.0248543 0)
(1.00031 -0.0235888 0)
(1.00258 -0.0219544 0)
(1.0046 -0.0204753 0)
(1.00596 -0.0192034 0)
(1.00678 -0.017989 0)
(1.00736 -0.0167397 0)
(1.00783 -0.0153905 0)
(1.00827 -0.0139399 0)
(1.00864 -0.0124604 0)
(1.0089 -0.0109887 0)
(1.00902 -0.00954691 0)
(1.00899 -0.00813545 0)
(1.00883 -0.00674664 0)
(1.00857 -0.005398 0)
(1.00827 -0.00402878 0)
(1.00811 -0.00249906 0)
(1.00801 -0.000837326 0)
(0.97981 -0.0339429 0)
(0.982434 -0.0314808 0)
(0.989877 -0.0287064 0)
(0.995773 -0.0261768 0)
(0.99181 -0.0231671 0)
(0.981571 -0.0211631 0)
(0.979457 -0.022247 0)
(0.987408 -0.025491 0)
(0.995671 -0.0284104 0)
(0.999825 -0.0297048 0)
(1.00082 -0.0300345 0)
(1.0006 -0.0295606 0)
(1.00073 -0.0285798 0)
(1.00182 -0.0269768 0)
(1.00362 -0.0250679 0)
(1.00547 -0.0230946 0)
(1.00699 -0.0212752 0)
(1.00808 -0.0196848 0)
(1.00876 -0.0181679 0)
(1.00917 -0.0166238 0)
(1.00944 -0.0150528 0)
(1.00962 -0.0134356 0)
(1.00974 -0.0118025 0)
(1.00977 -0.0101965 0)
(1.00969 -0.00862749 0)
(1.00949 -0.00709444 0)
(1.00918 -0.00562816 0)
(1.00879 -0.00419262 0)
(1.0086 -0.00260362 0)
(1.00847 -0.000869534 0)
(0.99523 -0.0164963 0)
(0.996754 -0.0218371 0)
(0.991744 -0.0287354 0)
(0.987136 -0.0355491 0)
(0.984462 -0.0387268 0)
(0.983924 -0.0372416 0)
(0.985859 -0.0336459 0)
(0.989733 -0.0310339 0)
(0.993318 -0.0302189 0)
(0.995354 -0.029895 0)
(0.997219 -0.0289974 0)
(0.999967 -0.0282184 0)
(1.00251 -0.0273718 0)
(1.00437 -0.0262033 0)
(1.00584 -0.024749 0)
(1.00721 -0.0230699 0)
(1.00852 -0.021273 0)
(1.0096 -0.0194407 0)
(1.01035 -0.0176793 0)
(1.0108 -0.0160561 0)
(1.01095 -0.0144833 0)
(1.01093 -0.0129261 0)
(1.01084 -0.0113812 0)
(1.0107 -0.00983992 0)
(1.01051 -0.00831636 0)
(1.01026 -0.00681285 0)
(1.00991 -0.00536465 0)
(1.00948 -0.00400854 0)
(1.00927 -0.00252006 0)
(1.00913 -0.000843895 0)
(0.976103 -0.045147 0)
(0.977246 -0.0430412 0)
(0.982472 -0.0382823 0)
(0.989834 -0.0366971 0)
(0.993023 -0.0369787 0)
(0.990235 -0.0379843 0)
(0.989272 -0.03776 0)
(0.993669 -0.0371327 0)
(0.999323 -0.0368397 0)
(1.00223 -0.0364287 0)
(1.00246 -0.0355856 0)
(1.00215 -0.0338089 0)
(1.00328 -0.0313152 0)
(1.00534 -0.0288603 0)
(1.00715 -0.0266286 0)
(1.00835 -0.0246741 0)
(1.00926 -0.0228085 0)
(1.01007 -0.020885 0)
(1.01085 -0.0189307 0)
(1.01144 -0.0170085 0)
(1.01175 -0.0151813 0)
(1.01183 -0.0134703 0)
(1.01171 -0.0118133 0)
(1.0115 -0.0101951 0)
(1.01121 -0.00860198 0)
(1.01088 -0.00701921 0)
(1.01047 -0.00548426 0)
(1.00997 -0.00408959 0)
(1.0097 -0.00257794 0)
(1.00952 -0.000859509 0)
(0.990004 -0.0202833 0)
(0.992121 -0.0247937 0)
(0.983981 -0.0322479 0)
(0.977472 -0.0355431 0)
(0.977475 -0.0376079 0)
(0.98011 -0.0378956 0)
(0.98355 -0.0371926 0)
(0.988472 -0.0366694 0)
(0.993201 -0.0361086 0)
(0.99655 -0.0354867 0)
(0.999831 -0.0348692 0)
(1.00334 -0.0336592 0)
(1.00613 -0.0317983 0)
(1.00813 -0.0293381 0)
(1.00961 -0.026824 0)
(1.0107 -0.0245011 0)
(1.01145 -0.022435 0)
(1.012 -0.0204688 0)
(1.01242 -0.0185126 0)
(1.01272 -0.0165781 0)
(1.0129 -0.0147254 0)
(1.01289 -0.0129703 0)
(1.01272 -0.0113156 0)
(1.01244 -0.00974196 0)
(1.01207 -0.00820588 0)
(1.01166 -0.00668056 0)
(1.01121 -0.00517942 0)
(1.01066 -0.00386453 0)
(1.01031 -0.00246419 0)
(1.01011 -0.000823945 0)
(0.971098 -0.0579308 0)
(0.970754 -0.0604026 0)
(0.978983 -0.0548358 0)
(0.989828 -0.0529546 0)
(0.99554 -0.0523253 0)
(0.995013 -0.0509462 0)
(0.994408 -0.048722 0)
(0.997513 -0.0461562 0)
(1.00229 -0.0438118 0)
(1.00531 -0.0415476 0)
(1.00609 -0.0386104 0)
(1.00664 -0.0356402 0)
(1.00837 -0.0329094 0)
(1.01029 -0.0304796 0)
(1.01155 -0.0280658 0)
(1.01231 -0.0257313 0)
(1.01286 -0.0234792 0)
(1.01324 -0.0213111 0)
(1.01349 -0.0192152 0)
(1.01361 -0.0171856 0)
(1.01364 -0.015234 0)
(1.01355 -0.0133872 0)
(1.01335 -0.0116421 0)
(1.01304 -0.009987 0)
(1.01265 -0.00838861 0)
(1.0122 -0.00681029 0)
(1.01173 -0.00524567 0)
(1.01115 -0.00388816 0)
(1.01068 -0.00247567 0)
(1.01044 -0.000826902 0)
(0.984941 -0.0295669 0)
(0.991508 -0.0282417 0)
(0.983543 -0.034344 0)
(0.977076 -0.0387973 0)
(0.980006 -0.0409197 0)
(0.98613 -0.0410464 0)
(0.990994 -0.0408306 0)
(0.995082 -0.0408034 0)
(0.998711 -0.0407738 0)
(1.0021 -0.0405596 0)
(1.00536 -0.0398389 0)
(1.00811 -0.0375769 0)
(1.01014 -0.0344102 0)
(1.01172 -0.0311154 0)
(1.01294 -0.0281445 0)
(1.01381 -0.0254718 0)
(1.01445 -0.0230473 0)
(1.01485 -0.0207773 0)
(1.01502 -0.0186399 0)
(1.01496 -0.0166129 0)
(1.01478 -0.0146978 0)
(1.01451 -0.0128812 0)
(1.01419 -0.011174 0)
(1.0138 -0.00956655 0)
(1.01336 -0.00801767 0)
(1.01288 -0.00649341 0)
(1.01239 -0.00496382 0)
(1.01182 -0.00365098 0)
(1.01123 -0.00233387 0)
(1.01096 -0.000785626 0)
(0.969368 -0.0703289 0)
(0.963895 -0.0747752 0)
(0.970521 -0.0680907 0)
(0.982564 -0.0642608 0)
(0.99019 -0.0626188 0)
(0.993082 -0.0612031 0)
(0.994165 -0.0576129 0)
(0.998083 -0.053299 0)
(1.0037 -0.049715 0)
(1.00771 -0.0460832 0)
(1.01025 -0.0420312 0)
(1.01266 -0.0384998 0)
(1.01463 -0.0354603 0)
(1.01562 -0.0325379 0)
(1.01582 -0.0296615 0)
(1.01592 -0.0268483 0)
(1.01608 -0.0241075 0)
(1.01626 -0.0215337 0)
(1.01627 -0.0191708 0)
(1.01608 -0.0170133 0)
(1.01573 -0.0150226 0)
(1.01529 -0.0131655 0)
(1.01483 -0.0114233 0)
(1.01434 -0.00976947 0)
(1.01384 -0.00817786 0)
(1.01332 -0.00661408 0)
(1.01282 -0.00503507 0)
(1.01226 -0.00364955 0)
(1.01155 -0.00230751 0)
(1.01124 -0.000780667 0)
(0.982117 -0.0457498 0)
(0.997711 -0.0429475 0)
(0.99312 -0.046909 0)
(0.983498 -0.047773 0)
(0.985628 -0.0484165 0)
(0.99333 -0.0500389 0)
(0.998203 -0.0497964 0)
(1.00043 -0.0487457 0)
(1.00295 -0.0471439 0)
(1.00646 -0.0452673 0)
(1.00983 -0.04271 0)
(1.0122 -0.0390151 0)
(1.01411 -0.0349113 0)
(1.01557 -0.0314489 0)
(1.01649 -0.0285588 0)
(1.01687 -0.0259079 0)
(1.01712 -0.0233622 0)
(1.01727 -0.020894 0)
(1.01728 -0.0185548 0)
(1.01709 -0.0163981 0)
(1.0167 -0.0144275 0)
(1.01619 -0.0126216 0)
(1.01562 -0.0109451 0)
(1.01504 -0.00936735 0)
(1.01447 -0.0078442 0)
(1.01391 -0.00634123 0)
(1.0134 -0.00480392 0)
(1.01286 -0.0034241 0)
(1.01204 -0.00214917 0)
(1.01171 -0.000737406 0)
(0.967808 -0.0858138 0)
(0.96247 -0.0903031 0)
(0.970026 -0.085379 0)
(0.982311 -0.0801732 0)
(0.989672 -0.0757479 0)
(0.994645 -0.0702379 0)
(0.999357 -0.0646845 0)
(1.00471 -0.0595559 0)
(1.00939 -0.0548994 0)
(1.01286 -0.0505523 0)
(1.01596 -0.0464414 0)
(1.0187 -0.0423963 0)
(1.01999 -0.038467 0)
(1.02003 -0.0344994 0)
(1.01964 -0.0308499 0)
(1.01931 -0.0275141 0)
(1.01906 -0.0244422 0)
(1.01881 -0.0216279 0)
(1.0185 -0.0190945 0)
(1.01806 -0.0168063 0)
(1.01752 -0.0147446 0)
(1.01689 -0.0128722 0)
(1.01623 -0.0111501 0)
(1.01555 -0.00953849 0)
(1.0149 -0.00798914 0)
(1.0143 -0.00646226 0)
(1.01376 -0.00489308 0)
(1.01323 -0.00342031 0)
(1.01233 -0.00210177 0)
(1.01194 -0.000727356 0)
(0.983334 -0.0700034 0)
(1.001 -0.0677601 0)
(1.00076 -0.0696543 0)
(0.994503 -0.0693115 0)
(0.99634 -0.0665663 0)
(1.00249 -0.063948 0)
(1.0076 -0.0607754 0)
(1.00984 -0.0563778 0)
(1.01178 -0.0515387 0)
(1.01455 -0.0472404 0)
(1.01693 -0.0430934 0)
(1.01852 -0.0389936 0)
(1.01969 -0.0349928 0)
(1.02045 -0.031712 0)
(1.02062 -0.0288041 0)
(1.02043 -0.026006 0)
(1.02015 -0.0233044 0)
(1.01981 -0.0207333 0)
(1.01938 -0.0183324 0)
(1.01885 -0.016136 0)
(1.01825 -0.0141507 0)
(1.01757 -0.0123487 0)
(1.01686 -0.0106979 0)
(1.01613 -0.00916243 0)
(1.01544 -0.00768565 0)
(1.0148 -0.0062236 0)
(1.01424 -0.00470426 0)
(1.01374 -0.00321917 0)
(1.01279 -0.00194185 0)
(1.01237 -0.00068246 0)
(0.963652 -0.105039 0)
(0.964609 -0.105854 0)
(0.977141 -0.102146 0)
(0.991167 -0.0964259 0)
(0.997817 -0.0890018 0)
(1.00151 -0.0796665 0)
(1.00681 -0.0721385 0)
(1.01247 -0.0661824 0)
(1.01703 -0.0605362 0)
(1.02028 -0.0548108 0)
(1.0233 -0.0496043 0)
(1.02547 -0.0446203 0)
(1.0257 -0.0399141 0)
(1.02474 -0.0353675 0)
(1.02374 -0.0312622 0)
(1.02299 -0.0276017 0)
(1.02232 -0.0243128 0)
(1.02158 -0.0213801 0)
(1.02076 -0.0188056 0)
(1.0199 -0.0165138 0)
(1.01903 -0.0144603 0)
(1.01818 -0.0126003 0)
(1.01736 -0.0109028 0)
(1.01655 -0.00933036 0)
(1.0158 -0.00782829 0)
(1.01511 -0.00634688 0)
(1.01452 -0.00480668 0)
(1.01402 -0.00322806 0)
(1.01306 -0.00189165 0)
(1.01259 -0.000667839 0)
(0.988614 -0.0950112 0)
(1.00271 -0.0939947 0)
(1.00353 -0.0933155 0)
(1.00434 -0.0912547 0)
(1.01131 -0.0874127 0)
(1.01783 -0.0807516 0)