/*--------------------------------*- C++ -*----------------------------------*\
| =========                 |                                                 |
| \\      /  F ield         | OpenFOAM: The Open Source CFD Toolbox           |
|  \\    /   O peration     | Version:                                        |
|   \\  /    A nd           | Website:  www.openfoam.com                      |
|    \\/     M anipulation  |                                                 |
\*---------------------------------------------------------------------------*/
FoamFile
{
    version     2.0;
    format      ascii;
    class       volVectorField;
    location    "199.2";
    object      U;
}
// * * * * * * * * * * * * * * * * * * * * * * * * * * * * * * * * * * * * * //

dimensions      [0 1 -1 0 0 0 0];


internalField   nonuniform List<vector> 
1150
(
(0.856163 -0.0199523 -4.64899e-21)
(0.84425 -0.0217819 1.07649e-20)
(0.831157 -0.0238999 -6.01568e-21)
(0.855004 -0.000639699 -3.13532e-21)
(0.843292 -0.000812022 2.63814e-21)
(0.830184 -0.000680661 -2.98839e-20)
(0.856105 0.0168382 -5.31241e-21)
(0.845371 0.0180716 4.06748e-20)
(0.833146 0.0202548 -5.0515e-20)
(0.860319 0.0382179 1.43833e-21)
(0.851524 0.0406959 1.20633e-20)
(0.86676 0.0548992 5.55726e-21)
(0.859837 0.0584002 9.92411e-20)
(0.876831 0.0748989 -2.68581e-20)
(0.999858 0.000348596 -1.98536e-22)
(1.00427 -0.00205079 -5.74877e-23)
(1.00271 -0.0103853 3.69711e-23)
(1.00269 -0.00298879 -1.54504e-22)
(0.999706 -0.00179363 4.18942e-23)
(1.00042 -0.00291142 1.79192e-22)
(0.99819 0.0013598 -1.64308e-22)
(0.997384 0.000579988 1.01966e-23)
(0.996477 -0.00703421 -9.56431e-23)
(0.995632 -0.00170549 1.49796e-22)
(0.993119 -0.0071525 -1.02259e-22)
(0.991525 -0.00959035 3.71966e-23)
(0.989954 -0.00831525 -3.49506e-22)
(0.987347 -0.00812424 2.84168e-22)
(0.984113 -0.00910849 -2.25853e-22)
(0.980824 -0.00812793 4.91966e-22)
(0.976885 -0.00788978 3.12224e-23)
(0.972681 -0.00682603 -1.01484e-21)
(0.967296 -0.00778558 1.07897e-21)
(0.962497 -0.00714781 -3.19149e-22)
(0.956338 -0.00829869 7.57788e-22)
(0.950276 -0.00799959 -1.91499e-21)
(0.94251 -0.00969701 2.53922e-22)
(0.934995 -0.00993479 1.19748e-21)
(0.926113 -0.0118247 3.28775e-22)
(0.916759 -0.0122987 -3.31906e-21)
(0.906138 -0.0142426 2.70103e-21)
(0.894872 -0.0150006 -1.52205e-22)
(0.882534 -0.0169512 5.47387e-22)
(0.869172 -0.0179943 2.75173e-21)
(0.999757 -0.000819474 8.51682e-22)
(1.00287 -0.000385697 -1.34495e-22)
(1.00437 -0.0122211 -5.26231e-22)
(1.00382 -0.000930289 2.2333e-22)
(0.998966 -0.00318872 -3.96468e-22)
(1.00052 -0.000916237 6.42125e-22)
(0.997257 0.000355897 -2.49047e-22)
(0.995691 0.00202154 -5.07231e-22)
(0.996231 -0.00789419 4.19807e-22)
(0.995593 9.95008e-05 -7.50998e-22)
(0.992904 -0.00782351 3.50809e-22)
(0.991691 -0.00759499 -2.47694e-22)
(0.991342 -0.00835524 3.97885e-22)
(0.987561 -0.00597801 -2.36655e-22)
(0.984541 -0.00819547 2.1033e-21)
(0.981209 -0.00520231 -3.24173e-21)
(0.976762 -0.00622584 2.88021e-21)
(0.972344 -0.00320108 2.27116e-21)
(0.966237 -0.00499854 -2.87051e-21)
(0.961748 -0.00241384 2.917e-21)
(0.954955 -0.00400829 -4.63238e-21)
(0.949187 -0.00176116 -1.59423e-21)
(0.940861 -0.00339631 -1.19584e-21)
(0.933623 -0.00161297 -2.0061e-21)
(0.924564 -0.00327341 5.3959e-21)
(0.915493 -0.00148338 1.0476e-21)
(0.904669 -0.00294547 -2.89716e-21)
(0.893584 -0.00104481 6.65176e-21)
(0.881168 -0.00223577 3.75663e-22)
(0.867519 -9.81602e-06 -7.72023e-21)
(0.999667 -0.00186534 -1.41776e-21)
(1.00139 0.00105859 -2.56806e-22)
(1.00629 -0.0142734 -1.73905e-22)
(1.00464 0.00150112 -1.04515e-21)
(0.998214 -0.00459606 1.786e-22)
(1.00044 0.00122615 -1.46871e-21)
(0.996168 -0.000368811 1.23025e-21)
(0.994024 0.00307646 1.4548e-21)
(0.996143 -0.00863823 -1.07156e-21)
(0.99552 0.0017191 -1.58267e-21)
(0.992886 -0.00914271 1.42276e-21)
(0.991906 -0.00524273 -1.6988e-21)
(0.992735 -0.00867114 3.07913e-21)
(0.987739 -0.0040499 -5.39614e-22)
(0.98499 -0.00712234 -1.07261e-21)
(0.981333 -0.00237129 1.94022e-21)
(0.976647 -0.00464232 -6.74918e-21)
(0.971834 7.27855e-05 9.37024e-21)
(0.965208 -0.00267573 -1.4066e-21)
(0.96111 0.00142215 -3.57365e-23)
(0.953619 -0.000895275 -2.69474e-21)
(0.948346 0.00314983 1.55543e-22)
(0.939497 0.000813746 -5.8317e-21)
(0.93255 0.00486626 1.17303e-20)
(0.923169 0.00312395 1.41584e-21)
(0.914447 0.00740645 -8.7067e-21)
(0.903759 0.00613349 3.39244e-21)
(0.892686 0.0111303 1.10334e-24)
(0.88073 0.0105147 -7.03531e-21)
(0.867677 0.0164267 1.47242e-20)
(0.999592 -0.00265027 9.38141e-22)
(0.999838 0.00208089 6.43278e-22)
(1.00854 -0.0162385 3.06911e-22)
(1.00511 0.00393043 2.64886e-21)
(0.997375 -0.00572054 3.55661e-22)
(1.00016 0.00331877 -7.97546e-22)
(0.994914 -0.000918683 2.18456e-23)
(0.992366 0.00376258 -7.63434e-22)
(0.996403 -0.00930541 1.48325e-21)
(0.995319 0.00291696 -8.25854e-22)
(0.993205 -0.0104765 -1.70196e-21)
(0.992337 -0.00312701 1.1194e-21)
(0.993966 -0.00898384 1.3264e-21)
(0.987912 -0.00198867 -3.02743e-21)
(0.985521 -0.00580809 6.4821e-21)
(0.981037 0.000718091 -8.74363e-21)
(0.976247 -0.00269916 4.38536e-21)
(0.97098 0.00392691 -6.42282e-21)
(0.963822 0.000175714 3.34883e-21)
(0.960043 0.00620141 7.14038e-21)
(0.952344 0.00312012 -1.00031e-20)
(0.947059 0.00935408 1.28252e-20)
(0.938299 0.0068212 -1.41874e-20)
(0.93216 0.013348 5.77856e-21)
(0.9226 0.0117763 7.337e-21)
(0.914444 0.0190053 9.4597e-21)
(0.90414 0.0185011 -3.20565e-20)
(0.893604 0.0266393 6.44973e-21)
(0.882335 0.0272924 -1.57908e-21)
(0.869856 0.0367534 -4.84747e-21)
(0.999514 -0.0033286 4.00549e-22)
(0.998316 0.00283055 -3.88515e-22)
(1.01106 -0.0183576 5.84686e-22)
(1.00515 0.00689415 -9.82772e-22)
(0.996463 -0.00696378 8.92076e-22)
(0.999594 0.00575755 -5.92697e-22)
(0.993516 -0.00143531 9.17414e-23)
(0.990878 0.00410679 -2.72499e-21)
(0.997021 -0.00983108 2.16469e-21)
(0.995143 0.00392602 1.69724e-21)
(0.993724 -0.0123199 -2.94845e-21)
(0.992837 -0.000247765 -7.12962e-22)
(0.995351 -0.00991827 3.49911e-21)
(0.987952 0.000465459 -2.28781e-21)
(0.985966 -0.0046229 8.52883e-22)
(0.980375 0.00348044 -1.01674e-21)
(0.97576 -0.00115697 8.79709e-22)
(0.969815 0.00721781 -3.26471e-22)
(0.96282 0.00227569 -8.13788e-22)
(0.959279 0.0103067 1.2669e-20)
(0.951461 0.00610683 -1.10349e-20)
(0.946989 0.014009 -1.11313e-20)
(0.937964 0.0111155 -2.25953e-21)
(0.932444 0.0196183 3.08357e-20)
(0.923355 0.017688 1.75158e-20)
(0.915667 0.0273097 -1.73618e-20)
(0.9059 0.0269066 1.17594e-20)
(0.896102 0.0381841 -2.30784e-20)
(0.885509 0.0393196 1.27748e-20)
(0.874218 0.0527755 -8.83903e-20)
(0.999478 -0.00363054 -2.09548e-21)
(0.996844 0.00290211 8.23901e-22)
(1.01382 -0.0200469 -1.40712e-21)
(1.00477 0.00961484 1.30887e-21)
(0.995334 -0.00763462 -1.71812e-21)
(0.998895 0.00788933 8.11315e-22)
(0.992003 -0.00170849 5.01291e-22)
(0.989573 0.00386256 9.76055e-22)
(0.998321 -0.0101916 6.55821e-23)
(0.994728 0.00424669 -3.40904e-21)
(0.994734 -0.0135514 9.10891e-22)
(0.993496 0.0018715 1.16332e-21)
(0.996321 -0.010347 6.23046e-21)
(0.988016 0.00300726 -6.1593e-21)
(0.98583 -0.0024743 2.84041e-21)
(0.979126 0.00648001 4.07571e-21)
(0.974855 0.0018515 -4.07656e-21)
(0.968205 0.011568 -9.32696e-21)
(0.961186 0.00519767 -4.28836e-21)
(0.958295 0.0154798 1.62138e-20)
(0.95036 0.0103958 6.53179e-21)
(0.946045 0.0206471 -3.65636e-21)
(0.938224 0.0171422 5.60751e-21)
(0.932439 0.0280232 4.84593e-21)
(0.924044 0.0261611 -2.06287e-20)
(0.917322 0.0386157 -2.61135e-20)
(0.908178 0.0385674 1.27166e-20)
(0.899742 0.0531871 6.15165e-20)
(0.890848 0.0552222 -8.76718e-20)
(0.881205 0.072259 9.77048e-20)
(0.999453 -0.00393189 1.05151e-21)
(0.995677 0.00281224 -1.08638e-21)
(1.01668 -0.021901 -1.69062e-21)
(1.00377 0.0130273 1.07825e-21)
(0.994134 -0.00866595 7.16547e-22)
(0.997897 0.0104838 -1.63516e-21)
(0.990674 -0.0024197 1.49912e-21)
(0.988643 0.00355647 1.37251e-21)
(1.00004 -0.0106449 -2.29147e-22)
(0.994761 0.00461765 -1.10633e-21)
(0.996062 -0.0154401 4.33834e-21)
(0.993828 0.00493965 -3.10605e-21)
(0.997429 -0.012456 5.72738e-21)
(0.988304 0.00733449 -9.50407e-21)
(0.985177 -0.00234675 1.13444e-20)
(0.977785 0.0103531 -4.83541e-21)
(0.974016 0.00291345 -9.26714e-21)
(0.966397 0.0147107 -5.53969e-21)
(0.960516 0.00602004 -3.65514e-21)
(0.957353 0.0182512 -1.73722e-21)
(0.950711 0.0122922 2.77773e-20)
(0.946505 0.0234682 -2.98227e-20)
(0.939183 0.0195701 4.88663e-22)
(0.935088 0.032624 1.94211e-20)
(0.926543 0.029346 -1.69522e-20)
(0.920931 0.0449013 1.0575e-20)
(0.913309 0.0441661 4.01242e-20)
(0.905478 0.0623151 -6.91687e-20)
(0.898535 0.0646021 5.14322e-20)
(0.890568 0.0858565 1.58591e-20)
(0.999465 -0.00377275 3.21481e-23)
(0.994825 0.00179189 8.69925e-22)
(1.01997 -0.0228431 1.65548e-21)
(1.00161 0.0158549 1.12066e-21)
(0.993176 -0.00881659 -5.11905e-23)
(0.996393 0.0120805 -2.34633e-21)
(0.989669 -0.00261761 -1.37758e-21)
(0.988326 0.00225276 3.77124e-21)
(1.00226 -0.0105843 -4.68544e-21)
(0.994275 0.0039688 2.05924e-21)
(0.998419 -0.0149413 -6.33773e-22)
(0.993996 0.00648623 9.09052e-21)
(0.997921 -0.0122643 -1.77812e-21)
(0.988181 0.0123986 -1.94904e-21)
(0.983523 0.000823953 -6.96401e-21)
(0.976203 0.0132328 -5.79365e-21)
(0.971813 0.00783272 2.08961e-20)
(0.963988 0.0168958 -7.57705e-21)
(0.960644 0.0110086 -7.06415e-21)
(0.956018 0.0235155 -2.0688e-21)
(0.950181 0.0166791 1.7625e-20)
(0.946563 0.031201 -7.01272e-21)
(0.939908 0.0252015 1.01476e-20)
(0.936202 0.0424419 6.6304e-21)
(0.930012 0.0383838 -5.33925e-20)
(0.924291 0.056942 9.38598e-21)
(0.919062 0.056407 -7.48235e-21)
(0.912607 0.077693 7.21651e-22)
(0.908357 0.0797577 4.24354e-20)
(0.999193 -0.00377506 8.96905e-22)
(0.994433 0.000737475 -4.36316e-22)
(1.02384 -0.0238496 -9.0503e-22)
(0.997915 0.0195186 1.29122e-21)
(0.992553 -0.00947105 1.34775e-21)
(0.994145 0.0143679 -2.75003e-22)
(0.988662 -0.00391434 -1.5497e-21)
(0.988609 0.00129837 2.12422e-21)
(1.00458 -0.011167 -1.0143e-21)
(0.993177 0.00355956 2.68072e-22)
(1.00084 -0.0163224 8.8009e-22)
(0.994006 0.00934641 -5.02634e-21)
(0.999492 -0.0150518 3.15683e-21)
(0.98482 0.0189388 1.45549e-21)
(0.983979 -0.00175305 -8.57585e-21)
(0.970655 0.0188599 1.09057e-20)
(0.973702 0.00710958 -1.00881e-20)
(0.959016 0.0189837 2.09417e-20)
(0.962696 0.00976545 -1.43633e-20)
(0.955567 0.0256657 1.01777e-20)
(0.951602 0.0155823 7.82048e-22)
(0.946716 0.0317262 -3.37557e-20)
(0.944206 0.0260042 9.76994e-21)
(0.937133 0.0429988 4.548e-21)
(0.935677 0.0391849 1.76948e-20)
(0.929464 0.0602747 -1.93659e-20)
(0.926991 0.0582241 -1.91511e-21)
(0.921949 0.0840647 2.49013e-20)
(0.920224 0.0854012 1.62152e-20)
(0.998787 -0.00322539 -9.4207e-22)
(0.994451 -0.00158273 2.7834e-22)
(1.02735 -0.0231182 -1.33891e-21)
(0.995611 0.022144 2.29951e-22)
(0.989709 -0.00920558 9.24203e-23)
(0.996684 0.0153514 1.63556e-22)
(0.985055 -0.0042728 -5.14682e-22)
(0.992062 -0.000779057 6.99563e-22)
(1.00586 -0.00981497 -4.42601e-21)
(0.993517 0.00233344 6.07392e-21)
(1.00134 -0.0135543 4.91015e-21)
(0.993857 0.00976263 -5.26261e-21)
(1.00143 -0.0114824 -9.17446e-21)
(0.985754 0.0255862 1.70776e-20)
(0.975539 0.00126985 -2.0705e-20)
(0.976915 0.0240887 1.49437e-20)
(0.963451 0.0114695 -1.97783e-21)
(0.965559 0.02048 -1.55585e-20)
(0.959329 0.0175239 1.05681e-20)
(0.957552 0.029103 1.09154e-20)
(0.950859 0.0234517 1.04317e-20)
(0.951461 0.0389671 -2.66877e-20)
(0.941918 0.0338905 -1.97699e-20)
(0.945699 0.0541726 5.60671e-20)
(0.934506 0.0477568 -3.7268e-20)
(0.93962 0.0732843 -6.03561e-22)
(0.93209 0.0682406 -1.47958e-20)
(0.935698 0.0965954 5.86778e-20)
(1.00297 -0.00299869 0)
(0.99045 -0.00388782 0)
(1.03192 -0.0229293 0)
(0.988318 0.0256709 0)
(0.994395 -0.0105593 0)
(0.993363 0.0165869 0)
(0.989114 -0.006105 0)
(0.990643 -0.00318881 0)
(1.01016 -0.0100939 0)
(0.987261 0.00131535 0)
(1.00649 -0.0142703 0)
(0.989995 0.00956937 0)
(1.00794 -0.014033 0)
(0.976777 0.0327491 0)
(0.981867 -0.00529457 0)
(0.971462 0.0300875 0)
(0.969549 0.00495652 0)
(0.965321 0.0190752 0)
(0.967766 0.0148696 0)
(0.956472 0.0276856 0)
(0.959349 0.0170001 0)
(0.950378 0.0378044 0)
(0.95626 0.0289315 0)
(0.940626 0.0498144 0)
(0.953636 0.0440314 0)
(0.938391 0.0690316 0)
(0.951228 0.0633064 0)
(0.941324 0.0941377 0)
(1.00979 -0.00225362 0)
(0.986088 -0.00677085 0)
(1.02916 -0.021501 0)
(0.980566 0.0277862 0)
(1.00326 -0.0101283 0)
(0.98386 0.016529 0)
(0.99856 -0.00551352 0)
(0.984706 -0.0053318 0)
(1.00963 -0.0083178 0)
(0.979567 0.000367671 0)
(1.00706 -0.0126367 0)
(0.987452 0.00787939 0)
(1.00351 -0.00886352 0)
(0.965458 0.0356392 0)
(0.991291 -0.00348622 0)
(0.95944 0.0363531 0)
(0.982808 0.00325552 0)
(0.958348 0.0269382 0)
(0.973192 0.0153334 0)
(0.955482 0.0315434 0)
(0.964737 0.0248962 0)
(0.947578 0.0357774 0)
(0.962816 0.0400333 0)
(0.939617 0.0463036 0)
(0.961417 0.0542648 0)
(0.941311 0.0627262 0)
(0.961218 0.0731151 0)
(0.950631 0.0826527 0)
(1.01432 -0.00188884 0)
(0.985516 -0.00861055 0)
(1.01553 -0.019696 0)
(0.981398 0.028498 0)
(1.00768 -0.0093931 0)
(0.97982 0.0163274 0)
(1.00613 -0.00509592 0)
(0.98032 -0.00718922 0)
(1.00353 -0.0053898 0)
(0.978529 -0.00222486 0)
(0.997855 -0.0121132 0)
(0.986475 0.0073595 0)
(0.989782 -0.00268761 0)
(0.967885 0.0344119 0)
(0.98545 -0.000979747 0)
(0.961502 0.0359228 0)
(0.984911 0.00339839 0)
(0.956821 0.0277241 0)
(0.975364 0.017424 0)
(0.955075 0.0294463 0)
(0.966165 0.0316771 0)
(0.949553 0.0310094 0)
(0.96114 0.0459288 0)
(0.946661 0.0426834 0)
(0.958679 0.0562738 0)
(0.949916 0.0576768 0)
(0.962351 0.0739282 0)
(0.960125 0.0735 0)
(1.01468 -0.0016194 0)
(0.988399 -0.00886787 0)
(0.997762 -0.0181743 0)
(0.98934 0.0268451 0)
(1.00849 -0.00729074 0)
(0.98389 0.0146825 0)
(1.01057 -0.00345645 0)
(0.98063 -0.00781955 0)
(0.997774 -0.00285133 0)
(0.983367 -0.00410644 0)
(0.984695 -0.00960449 0)
(0.984548 0.00590869 0)
(0.981733 0.00252217 0)
(0.977959 0.0324264 0)
(0.977773 0.00203569 0)
(0.971254 0.0334139 0)
(0.983083 0.00760631 0)
(0.961784 0.0259865 0)
(0.980529 0.0241559 0)
(0.957939 0.0257434 0)
(0.970741 0.0380363 0)
(0.9582 0.0304824 0)
(0.963198 0.0478791 0)
(0.956421 0.0438284 0)
(0.961682 0.0560803 0)
(0.957907 0.054324 0)
(0.965085 0.0712314 0)
(0.966948 0.0667605 0)
(1.01335 -0.00156315 0)
(0.992247 -0.00769563 0)
(0.984292 -0.0171358 0)
(0.995136 0.0233981 0)
(1.01053 -0.0050613 0)
(0.98905 0.0125636 0)
(1.01382 -0.00103158 0)
(0.984077 -0.00753448 0)
(0.994036 -0.000916217 0)
(0.98854 -0.0041727 0)
(0.975257 -0.00624461 0)
(0.981508 0.00271842 0)
(0.981093 0.005028 0)
(0.986165 0.0315588 0)
(0.978809 0.00459861 0)
(0.977084 0.0317583 0)
(0.985337 0.011581 0)
(0.966379 0.0230106 0)
(0.987446 0.029366 0)
(0.966311 0.0247963 0)
(0.977059 0.0408192 0)
(0.968724 0.0324898 0)
(0.971036 0.0474281 0)
(0.966449 0.046247 0)
(0.969793 0.0557796 0)
(0.966377 0.0531422 0)
(0.969918 0.0667614 0)
(0.972722 0.0632413 0)
(1.0124 -0.00166461 0)
(0.9952 -0.00554982 0)
(0.977733 -0.0159525 0)
(0.995686 0.0179566 0)
(1.01337 -0.00264667 0)
(0.991177 0.0103136 0)
(1.01608 0.00154693 0)
(0.987494 -0.00610338 0)
(0.991488 0.000593308 0)
(0.991661 -0.0025987 0)
(0.972337 -0.00247104 0)
(0.978334 -0.000515399 0)
(0.981565 0.00400502 0)
(0.989712 0.0314741 0)
(0.984576 0.0072259 0)
(0.979672 0.029743 0)
(0.989996 0.0165591 0)
(0.96932 0.0196311 0)
(0.991659 0.0314288 0)
(0.975135 0.0256843 0)
(0.983041 0.040983 0)
(0.977802 0.0364761 0)
(0.980126 0.0459562 0)
(0.974706 0.0488985 0)
(0.977938 0.0552503 0)
(0.974914 0.0541845 0)
(0.976425 0.0633022 0)
(0.977911 0.0616534 0)
(1.01137 -0.00194293 0)
(0.996203 -0.00297811 0)
(0.978014 -0.0143411 0)
(0.994654 0.0115989 0)
(1.0134 -0.000666507 0)
(0.992271 0.00828522 0)
(1.01526 0.00356687 0)
(0.989996 -0.00331555 0)
(0.990235 0.00130033 0)
(0.992047 -2.48155e-05 0)
(0.976094 0.000848252 0)
(0.976819 -0.00206522 0)
(0.981024 0.000179658 0)
(0.989886 0.0304604 0)
(0.989566 0.0105028 0)
(0.982407 0.0267529 0)
(0.992726 0.0217559 0)
(0.974568 0.0174844 0)
(0.990941 0.0303941 0)
(0.982136 0.0270388 0)
(0.986334 0.0393292 0)
(0.98413 0.0408302 0)
(0.986355 0.0444537 0)
(0.981366 0.0510944 0)
(0.984917 0.054301 0)
(0.981699 0.0563759 0)
(0.984469 0.0607506 0)
(0.982431 0.0610842 0)
(1.00947 -0.00209721 0)
(0.995597 -0.000634983 0)
(0.982852 -0.012854 0)
(0.995543 0.006147 0)
(1.01017 0.000678826 0)
(0.993652 0.00702515 0)
(1.01138 0.00495161 0)
(0.991414 0.000104494 0)
(0.989885 0.00148335 0)
(0.991277 0.00273911 0)
(0.983796 0.00255264 0)
(0.978553 -0.000713235 0)
(0.980541 -0.00378163 0)
(0.989355 0.0271821 0)
(0.992208 0.0141858 0)
(0.986325 0.0233992 0)
(0.993819 0.0254915 0)
(0.981355 0.0181844 0)
(0.988418 0.0290901 0)
(0.986088 0.028024 0)
(0.986619 0.0365493 0)
(0.986956 0.0433683 0)
(0.989918 0.0436509 0)
(0.986535 0.0523121 0)
(0.990495 0.0533361 0)
(0.986744 0.0573984 0)
(0.992138 0.0589075 0)
(0.987703 0.0605551 0)
(1.00694 -0.00194589 0)
(0.994159 0.00102649 0)
(0.990083 -0.0123937 0)
(0.998043 0.0026475 0)
(1.00531 0.00154528 0)
(0.995092 0.00652447 0)
(1.00572 0.0060092 0)
(0.992129 0.00316524 0)
(0.990661 0.00138228 0)
(0.989743 0.00467929 0)
(0.992287 0.00293577 0)
(0.98267 0.00271862 0)
(0.982539 -0.00628963 0)
(0.98913 0.0217598 0)
(0.992817 0.0174796 0)
(0.990669 0.0208877 0)
(0.993585 0.0277545 0)
(0.987873 0.0207642 0)
(0.986461 0.0282467 0)
(0.988722 0.0297037 0)
(0.985823 0.0336889 0)
(0.987742 0.0436244 0)
(0.991174 0.0428556 0)
(0.988926 0.0514845 0)
(0.994781 0.051889 0)
(0.990334 0.0565871 0)
(0.998702 0.0572776 0)
(0.993222 0.0592746 0)
(1.00403 -0.00135597 0)
(0.993491 0.00165706 0)
(0.997829 -0.0132107 0)
(0.999618 0.00149952 0)
(1.00059 0.00229966 0)
(0.99595 0.00629496 0)
(0.999525 0.00745211 0)
(0.993443 0.00481615 0)
(0.99204 0.00142426 0)
(0.988904 0.00576831 0)
(0.999274 0.00143593 0)
(0.987206 0.00663077 0)
(0.987016 -0.00554034 0)
(0.989083 0.016059 0)
(0.992514 0.0188139 0)
(0.993275 0.0202841 0)
(0.992509 0.027905 0)
(0.99281 0.0239398 0)
(0.985774 0.0290115 0)
(0.990692 0.0313599 0)
(0.98587 0.0329368 0)
(0.988191 0.0417215 0)
(0.991121 0.0417613 0)
(0.990555 0.0487905 0)
(0.99715 0.0496097 0)
(0.993868 0.0540231 0)
(1.00269 0.0544003 0)
(0.998644 0.0566802 0)
(1.00108 -0.000465729 0)
(0.993903 0.00111837 0)
(1.00494 -0.0142756 0)
(0.999655 0.00228416 0)
(0.996177 0.00306568 0)
(0.99649 0.00633602 0)
(0.993592 0.00884371 0)
(0.995382 0.0051106 0)
(0.994079 0.00139901 0)
(0.989085 0.00602244 0)
(1.00446 -0.00022954 0)
(0.99056 0.00951808 0)
(0.992107 -0.00289228 0)
(0.990031 0.0123408 0)
(0.991608 0.0186325 0)
(0.993868 0.0209126 0)
(0.99038 0.0275641 0)
(0.995525 0.0266135 0)
(0.985708 0.0298051 0)
(0.992468 0.0328264 0)
(0.986629 0.0330789 0)
(0.989911 0.0393101 0)
(0.99163 0.0402536 0)
(0.992578 0.0450184 0)
(0.998603 0.0464995 0)
(0.997109 0.0496739 0)
(1.00513 0.0504784 0)
(1.00316 0.0524242 0)
(0.998945 0.000706917 0)
(0.995775 -0.000644262 0)
(1.00825 -0.0152524 0)
(0.998357 0.00489193 0)
(0.994119 0.00375303 0)
(0.996063 0.00644179 0)
(0.990262 0.0101259 0)
(0.997671 0.00375218 0)
(0.995583 0.0014887 0)
(0.990772 0.00566395 0)
(1.00621 -0.00190165 0)
(0.993385 0.0108991 0)
(0.995649 0.00112851 0)
(0.990909 0.0120573 0)
(0.99166 0.017101 0)
(0.992901 0.0226223 0)
(0.988828 0.0268505 0)
(0.995861 0.0281005 0)
(0.987312 0.0306202 0)
(0.993719 0.0328331 0)
(0.989028 0.0340208 0)
(0.992465 0.0365957 0)
(0.99346 0.0385742 0)
(0.995609 0.0405656 0)
(1.00014 0.042653 0)
(1.00086 0.0443878 0)
(1.00672 0.0455295 0)
(1.00729 0.0470182 0)
(0.997802 0.00164055 0)
(0.998088 -0.00268038 0)
(1.00842 -0.0152058 0)
(0.996514 0.0075402 0)
(0.993906 0.00432031 0)
(0.995832 0.00664317 0)
(0.989326 0.0105739 0)
(0.999776 0.00220356 0)
(0.996555 0.00128654 0)
(0.992847 0.0050356 0)
(1.00599 -0.0021344 0)
(0.994765 0.010892 0)
(0.997312 0.00477328 0)
(0.991934 0.0140004 0)
(0.992723 0.0160974 0)
(0.99244 0.0237879 0)
(0.988423 0.0263298 0)
(0.995215 0.0286904 0)
(0.989697 0.0304437 0)
(0.99552 0.0319754 0)
(0.991999 0.0338157 0)
(0.995812 0.0341685 0)
(0.996108 0.0363713 0)
(0.999657 0.0363803 0)
(1.0024 0.0385815 0)
(1.00486 0.0390422 0)
(1.00845 0.0404008 0)
(1.01056 0.0411731 0)
(0.997677 0.00251274 0)
(1.00062 -0.00510636 0)
(1.00529 -0.0144918 0)
(0.994788 0.0104334 0)
(0.995424 0.00463932 0)
(0.995866 0.00683476 0)
(0.991032 0.0106389 0)
(1.00165 0.000224329 0)
(0.996766 0.00131483 0)
(0.994938 0.00401174 0)
(1.00357 -0.00138183 0)
(0.995678 0.0104976 0)
(0.997064 0.00714664 0)
(0.992426 0.0172008 0)
(0.994494 0.0156669 0)
(0.993066 0.0246774 0)
(0.990306 0.0256344 0)
(0.994969 0.0286567 0)
(0.99306 0.0297599 0)
(0.99786 0.0301438 0)
(0.995944 0.0326008 0)
(0.99948 0.0314066 0)
(0.99937 0.034028 0)
(1.0037 0.0322466 0)
(1.00517 0.0346981 0)
(1.0087 0.0336975 0)
(1.0103 0.035556 0)
(1.01328 0.0352795 0)
(0.998177 0.00266328 0)
(1.0032 -0.00630128 0)
(1.00028 -0.0126009 0)
(0.993231 0.0114448 0)
(0.997881 0.00462242 0)
(0.996255 0.00689436 0)
(0.994493 0.00989485 0)
(1.00347 -0.000319017 0)
(0.996571 0.0014781 0)
(0.996922 0.00348996 0)
(1.00001 0.000426195 0)
(0.996197 0.0100611 0)
(0.99579 0.00835003 0)
(0.992476 0.0191293 0)
(0.996237 0.0160771 0)
(0.994636 0.0244257 0)
(0.994044 0.0246295 0)
(0.995925 0.0278533 0)
(0.997163 0.0283886 0)
(1.00081 0.028198 0)
(1.00066 0.030294 0)
(1.0035 0.0288291 0)
(1.00302 0.0312227 0)
(1.00744 0.029032 0)
(1.00802 0.0310745 0)
(1.01219 0.0295221 0)
(1.01221 0.0312719 0)
(1.01555 0.030537 0)
(0.998747 0.00239508 0)
(1.00456 -0.00664415 0)
(0.996356 -0.0100574 0)
(0.992991 0.011216 0)
(0.999552 0.00410926 0)
(0.997074 0.00673704 0)
(0.997516 0.00875009 0)
(1.00437 -0.000120259 0)
(0.996701 0.00215735 0)
(0.998262 0.00327663 0)
(0.997323 0.00257015 0)
(0.996811 0.00998706 0)
(0.99516 0.0088158 0)
(0.993039 0.0195829 0)
(0.997353 0.0162941 0)
(0.996791 0.0234876 0)
(0.997836 0.0229022 0)
(0.998212 0.0263565 0)
(1.00067 0.026483 0)
(1.00374 0.0261727 0)
(1.00473 0.0276708 0)
(1.00705 0.0261532 0)
(1.00643 0.028392 0)
(1.0101 0.0262298 0)
(1.01042 0.0280802 0)
(1.01449 0.0262114 0)
(1.01397 0.0278351 0)
(1.01707 0.0267907 0)
(0.999263 0.00171945 0)
(1.0046 -0.00587342 0)
(0.994029 -0.00730672 0)
(0.994153 0.00955936 0)
(1.00046 0.00342053 0)
(0.997932 0.00632699 0)
(0.999562 0.007417 0)
(1.00416 0.00105917 0)
(0.996998 0.00303973 0)
(0.999161 0.00378128 0)
(0.995915 0.00449435 0)
(0.997672 0.0100629 0)
(0.995548 0.0091216 0)
(0.9947 0.0183228 0)
(0.998243 0.0160689 0)
(0.999013 0.0217423 0)
(1.00103 0.020871 0)
(1.00085 0.0240914 0)
(1.00342 0.0241514 0)
(1.00587 0.0241979 0)
(1.00759 0.024945 0)
(1.00949 0.0239234 0)
(1.00905 0.0254914 0)
(1.01173 0.0240922 0)
(1.01189 0.0254215 0)
(1.01546 0.0239464 0)
(1.015 0.0250545 0)
(1.01771 0.0241644 0)
(0.99954 0.00109183 0)
(1.00369 -0.00473526 0)
(0.993708 -0.00512931 0)
(0.996051 0.00763784 0)
(1.00054 0.00282182 0)
(0.998738 0.00583474 0)
(1.00034 0.00645238 0)
(1.00328 0.00231895 0)
(0.997546 0.00396796 0)
(0.999719 0.00456521 0)
(0.996081 0.00568069 0)
(0.998755 0.0100881 0)
(0.996836 0.00930617 0)
(0.997109 0.0164541 0)
(0.99938 0.0152641 0)
(1.00102 0.0197439 0)
(1.00307 0.0188474 0)
(1.00329 0.0216003 0)
(1.00524 0.0217332 0)
(1.00717 0.022163 0)
(1.00901 0.0225125 0)
(1.01073 0.0219043 0)
(1.01061 0.0228897 0)
(1.01248 0.0221083 0)
(1.01258 0.0230184 0)
(1.01546 0.0220518 0)
(1.0153 0.0226895 0)
(1.01766 0.0220431 0)
(0.999626 0.000562773 0)
(1.0027 -0.00342474 0)
(0.994458 -0.00348287 0)
(0.997649 0.00563713 0)
(1.00037 0.00244368 0)
(0.999381 0.00536726 0)
(1.00046 0.00577572 0)
(1.0025 0.0035886 0)
(0.998205 0.00470484 0)
(1.00022 0.00537202 0)
(0.9971 0.00636938 0)
(0.999852 0.00976671 0)
(0.998407 0.0093697 0)
(0.999467 0.0144618 0)
(1.0007 0.0141011 0)
(1.0026 0.0175837 0)
(1.0044 0.0170023 0)
(1.00508 0.0192262 0)
(1.00644 0.0193546 0)
(1.00798 0.0201361 0)
(1.00955 0.0202693 0)
(1.01122 0.0200844 0)
(1.01136 0.0205694 0)
(1.01285 0.0202543 0)
(1.01288 0.0207883 0)
(1.01514 0.0202854 0)
(1.01519 0.0205704 0)
(1.01726 0.0201578 0)
(0.999597 0.000256597 0)
(1.00185 -0.00234304 0)
(0.995727 -0.00242702 0)
(0.998819 0.00413444 0)
(1.00007 0.00228135 0)
(0.999839 0.00496006 0)
(1.00033 0.00538199 0)
(1.00197 0.00445578 0)
(0.99894 0.00512808 0)
(1.00075 0.00585666 0)
(0.998496 0.00661251 0)
(1.00092 0.0091997 0)
(0.999953 0.00912413 0)
(1.00134 0.0127564 0)
(1.00201 0.0127765 0)
(1.00384 0.015596 0)
(1.00517 0.0153017 0)
(1.00623 0.0170876 0)
(1.00717 0.0172176 0)
(1.00853 0.0180949 0)
(1.00966 0.0182018 0)
(1.01131 0.0182571 0)
(1.0116 0.0184699 0)
(1.01296 0.0183615 0)
(1.01299 0.0186445 0)
(1.01479 0.0183957 0)
(1.01495 0.0184975 0)
(1.01675 0.0182168 0)
(0.999544 6.82957e-05 0)
(1.00132 -0.00147054 0)
(0.996897 -0.0016678 0)
(0.999464 0.00302851 0)
(0.999872 0.00218419 0)
(1.00016 0.0046108 0)
(1.00029 0.00506582 0)
(1.00177 0.00495247 0)
(0.999635 0.00529729 0)
(1.00136 0.00604535 0)
(0.999784 0.0065509 0)
(1.0018 0.00851116 0)
(1.00125 0.00860922 0)
(1.00264 0.0112677 0)
(1.00314 0.0114787 0)
(1.00472 0.0137184 0)
(1.00571 0.0136889 0)
(1.00697 0.0151327 0)
(1.00766 0.0152762 0)
(1.00895 0.0160944 0)
(1.00971 0.0162109 0)
(1.01129 0.0164086 0)
(1.01161 0.0164704 0)
(1.01297 0.0164705 0)
(1.01302 0.0165581 0)
(1.01454 0.0164637 0)
(1.01468 0.0164247 0)
(1.01624 0.0162633 0)
(0.999519 -2.29621e-06 0)
(1.00097 -0.000873388 0)
(0.997829 -0.00117077 0)
(0.999864 0.00232216 0)
(0.999777 0.00213289 0)
(1.00038 0.0042924 0)
(1.00033 0.00477791 0)
(1.00176 0.00506128 0)
(1.00028 0.00527351 0)
(1.00191 0.00594095 0)
(1.00088 0.00622489 0)
(1.00252 0.00780736 0)
(1.00229 0.00791415 0)
(1.00358 0.00996997 0)
(1.004 0.0102296 0)
(1.00538 0.0120043 0)
(1.00611 0.0121667 0)
(1.00741 0.0133062 0)
(1.00796 0.0134979 0)
(1.00925 0.0141647 0)
(1.00977 0.0143094 0)
(1.01122 0.0145234 0)
(1.01153 0.0145383 0)
(1.01284 0.0145581 0)
(1.01295 0.0145351 0)
(1.01426 0.0144902 0)
(1.0144 0.0143665 0)
(1.01569 0.0142686 0)
(0.999521 -2.82734e-05 0)
(1.00077 -0.000470784 0)
(0.998489 -0.000773 0)
(1.00005 0.00184494 0)
(0.999796 0.00206187 0)
(1.00056 0.00396206 0)
(1.00046 0.00444692 0)
(1.0019 0.00493354 0)
(1.00082 0.00507002 0)
(1.00235 0.00564631 0)
(1.00176 0.00578535 0)
(1.00305 0.00705131 0)
(1.00304 0.00716866 0)
(1.00422 0.00873226 0)
(1.00462 0.00902311 0)
(1.00586 0.0104053 0)
(1.0064 0.0106601 0)
(1.0077 0.0115721 0)
(1.00816 0.011777 0)
(1.00943 0.0123184 0)
(1.0098 0.0124381 0)
(1.01112 0.0126549 0)
(1.0114 0.0126308 0)
(1.01262 0.0126735 0)
(1.01278 0.0125732 0)
(1.01391 0.0125549 0)
(1.01404 0.0123744 0)
(1.0151 0.0123144 0)
(0.999555 -1.59107e-05 0)
(1.00062 -0.000218024 0)
(0.998939 -0.000490062 0)
(1.0002 0.00154623 0)
(0.999873 0.0019718 0)
(1.00071 0.00359561 0)
(1.00064 0.0041045 0)
(1.00202 0.00459938 0)
(1.00127 0.00468763 0)
(1.00268 0.0052276 0)
(1.00242 0.00522781 0)
(1.0035 0.00624798 0)
(1.00358 0.00637175 0)
(1.00468 0.00755055 0)
(1.00506 0.00785702 0)
(1.0062 0.00889829 0)
(1.00662 0.00920228 0)
(1.00783 0.00990657 0)
(1.00825 0.0101115 0)
(1.00944 0.0105316 0)
(1.00977 0.010625 0)
(1.01094 0.0108206 0)
(1.0112 0.0107704 0)
(1.01229 0.0108257 0)
(1.01248 0.0106797 0)
(1.01346 0.0106798 0)
(1.0136 0.0104655 0)
(1.01446 0.0104354 0)
(0.999594 3.54925e-06 0)
(1.00052 -6.57411e-05 0)
(0.999258 -0.000262483 0)
(1.00027 0.00132574 0)
(0.999968 0.00183557 0)
(1.00087 0.00321123 0)
(1.00081 0.00368703 0)
(1.00212 0.00413052 0)
(1.00167 0.00420411 0)
(1.00289 0.00467132 0)
(1.00286 0.00461028 0)
(1.00383 0.0053936 0)
(1.00395 0.00552391 0)
(1.00499 0.00641335 0)
(1.00535 0.00668605 0)
(1.00642 0.00746951 0)
(1.00676 0.00775238 0)
(1.00787 0.00829917 0)
(1.00825 0.00847762 0)
(1.00935 0.00880322 0)
(1.00967 0.008867 0)
(1.01068 0.00902703 0)
(1.01094 0.00896731 0)
(1.01189 0.00901588 0)
(1.0121 0.00886526 0)
(1.01294 0.00886124 0)
(1.01308 0.00865314 0)
(1.01379 0.00862415 0)
(0.999642 3.14754e-05 0)
(1.00045 4.43072e-05 0)
(0.999465 -8.55415e-05 0)
(1.00034 0.00114359 0)
(1.00009 0.00167255 0)
(1.00097 0.00277262 0)
(1.00095 0.00320635 0)
(1.0022 0.00360007 0)
(1.00195 0.0036282 0)
(1.00304 0.00401301 0)
(1.00314 0.00395063 0)
(1.00406 0.00451629 0)
(1.00421 0.00465367 0)
(1.00517 0.00530545 0)
(1.00551 0.00554114 0)
(1.00651 0.00611295 0)
(1.00683 0.00634736 0)
(1.00783 0.00676211 0)
(1.00819 0.00689651 0)
(1.00918 0.00714084 0)
(1.00949 0.00716796 0)
(1.01039 0.00729191 0)
(1.01063 0.00722487 0)
(1.01145 0.00726584 0)
(1.01166 0.00712656 0)
(1.01238 0.00712129 0)
(1.01252 0.00693926 0)
(1.0131 0.00691255 0)
(0.999683 3.22196e-05 0)
(1.0004 0.000115722 0)
(0.99961 1.91491e-05 0)
(1.00036 0.000989691 0)
(1.00015 0.00142411 0)
(1.00104 0.00229544 0)
(1.00108 0.00263049 0)
(1.00222 0.00295813 0)
(1.00215 0.00293388 0)
(1.00313 0.00325296 0)
(1.00328 0.00318083 0)
(1.00418 0.00359595 0)
(1.00434 0.00368818 0)
(1.00523 0.0041794 0)
(1.00555 0.00434747 0)
(1.00648 0.00476775 0)
(1.00679 0.00492215 0)
(1.00769 0.00522723 0)
(1.00803 0.00529729 0)
(1.00893 0.00546902 0)
(1.00925 0.00544718 0)
(1.01006 0.00552911 0)
(1.01031 0.00544219 0)
(1.01103 0.00547153 0)
(1.01124 0.00534078 0)
(1.01187 0.0053432 0)
(1.01201 0.00519131 0)
(1.0125 0.00518648 0)
(0.999718 5.87714e-05 0)
(1.00034 0.000222384 0)
(0.999688 0.000211796 0)
(1.00036 0.000921604 0)
(1.00018 0.0012582 0)
(1.00104 0.00187892 0)
(1.00111 0.00209798 0)
(1.00217 0.00233325 0)
(1.00224 0.00229638 0)
(1.00315 0.00251505 0)
(1.00333 0.00246451 0)
(1.00419 0.00274076 0)
(1.00438 0.00280436 0)
(1.0052 0.00314695 0)
(1.00549 0.00326157 0)
(1.00634 0.00354892 0)
(1.00664 0.00363887 0)
(1.00745 0.00383976 0)
(1.00777 0.00385932 0)
(1.00857 0.00394978 0)
(1.00889 0.00388156 0)
(1.00963 0.00388328 0)
(1.00991 0.00374889 0)
(1.01058 0.00369427 0)
(1.01082 0.00351641 0)
(1.01141 0.00343274 0)
(1.01158 0.00324074 0)
(1.01205 0.00316159 0)
(0.999747 6.92358e-05 0)
(1.00032 0.00017106 0)
(0.999714 0.000232189 0)
(1.00028 0.000634059 0)
(1.0001 0.000881568 0)
(1.00092 0.00121894 0)
(1.00103 0.00137867 0)
(1.00202 0.00149635 0)
(1.00218 0.00148975 0)
(1.00305 0.00158967 0)
(1.00325 0.00158449 0)
(1.00409 0.00172015 0)
(1.0043 0.00177836 0)
(1.00508 0.00195656 0)
(1.00534 0.00204309 0)
(1.00612 0.00218878 0)
(1.0064 0.00225115 0)
(1.00712 0.0023435 0)
(1.00738 0.00235728 0)
(1.00804 0.00238042 0)
(1.00827 0.00233228 0)