/*--------------------------------*- C++ -*----------------------------------*\
| =========                 |                                                 |
| \\      /  F ield         | OpenFOAM: The Open Source CFD Toolbox           |
|  \\    /   O peration     | Version:                                        |
|   \\  /    A nd           | Website:  www.openfoam.com                      |
|    \\/     M anipulation  |                                                 |
\*---------------------------------------------------------------------------*/
FoamFile
{
    version     2.0;
    format      ascii;
    class       volVectorField;
    location    "161";
    object      U;
}
// * * * * * * * * * * * * * * * * * * * * * * * * * * * * * * * * * * * * * //

dimensions      [0 1 -1 0 0 0 0];


internalField   nonuniform List<vector> 
1161
(
(1.16725 -0.453065 -1.77863e-19)
(1.11003 -0.437451 3.11119e-19)
(1.07775 -0.416243 -4.41826e-20)
(1.02168 -0.369449 6.62488e-21)
(1.02961 -0.326012 3.52204e-20)
(0.980526 -0.309911 7.62199e-21)
(0.966867 -0.254441 -4.09673e-20)
(0.958575 -0.20933 -2.71189e-20)
(0.950322 -0.203933 -2.85581e-20)
(0.941426 -0.133541 -3.93229e-20)
(1.15369 -0.320906 -2.00092e-19)
(1.14879 -0.312857 3.76446e-20)
(1.09482 -0.294551 7.50848e-20)
(1.05253 -0.245898 -1.62572e-19)
(1.02164 -0.214494 1.19828e-20)
(0.988672 -0.193912 4.78494e-20)
(0.962901 -0.149596 1.30054e-19)
(0.932409 -0.119476 -9.13221e-20)
(1.08703 -0.224381 -1.43023e-19)
(1.06454 -0.211371 4.79062e-20)
(1.04702 -0.201821 1.86372e-19)
(1.01895 -0.162736 -6.94166e-20)
(1.00836 -0.149305 2.30289e-20)
(0.994573 -0.120848 -4.31094e-21)
(1.07048 -0.127533 -1.49876e-19)
(1.06131 -0.109486 6.14338e-20)
(1.04324 -0.0872689 4.0969e-20)
(-0.412058 -0.384624 4.28355e-20)
(-0.480228 -0.612786 -5.08088e-20)
(-0.529534 -0.83021 2.27526e-21)
(-0.552583 -1.01517 2.07e-20)
(-0.552488 -1.16201 -3.23429e-20)
(-0.546616 -1.28718 -1.43669e-20)
(-0.499478 -1.35943 4.45814e-20)
(-0.425302 -1.36729 -3.17151e-20)
(-0.311509 -1.29819 3.62845e-20)
(-0.167649 -1.14787 3.3063e-20)
(-0.0183415 -0.921928 -2.86139e-20)
(0.159392 -0.60583 -3.59735e-20)
(0.28151 -0.36093 2.95228e-20)
(0.392037 -0.00635528 1.94229e-20)
(0.490306 0.344506 6.51268e-20)
(0.562173 0.69253 -2.12443e-21)
(0.638664 0.965163 -1.85999e-20)
(-0.335735 -0.538719 -5.35297e-20)
(-0.354477 -0.756418 1.50911e-21)
(-0.379607 -0.955607 -4.59176e-20)
(-0.394952 -1.12362 -6.24625e-21)
(-0.40647 -1.26251 3.94059e-20)
(-0.405811 -1.37272 -1.83384e-19)
(-0.378362 -1.42639 6.64446e-20)
(-0.331563 -1.41021 3.62244e-20)
(-0.258375 -1.30745 -1.35516e-19)
(-0.157032 -1.10523 2.84757e-20)
(-0.0254086 -0.811526 2.40557e-20)
(0.0638115 -0.540295 -6.95314e-20)
(0.143469 -0.14622 -2.7183e-19)
(0.221888 0.202937 2.3876e-20)
(0.29966 0.531508 3.8648e-20)
(0.379686 0.812304 4.83559e-20)
(-0.130422 -0.455237 3.23761e-19)
(-0.102253 -0.671133 -1.21938e-19)
(-0.0904325 -0.858238 -1.72056e-19)
(-0.0978295 -1.02935 8.03807e-20)
(-0.111459 -1.1799 1.22083e-19)
(-0.131936 -1.31121 -1.77569e-19)
(-0.150404 -1.41278 3.6316e-20)
(-0.16631 -1.4572 2.03214e-19)
(-0.160535 -1.41993 -2.28792e-19)
(-0.141695 -1.26997 9.19852e-21)
(-0.104561 -1.02347 9.2427e-20)
(-0.0570083 -0.721468 2.77521e-20)
(-0.0535314 -0.338395 1.55353e-20)
(0.0180361 -0.0280446 2.62025e-19)
(0.105674 0.310801 -2.05206e-19)
(0.179882 0.556865 6.43431e-20)
(0.0892868 -0.367806 1.03633e-19)
(0.149347 -0.572967 -2.76568e-19)
(0.189191 -0.740789 2.17219e-19)
(0.211254 -0.881788 7.29385e-20)
(0.214269 -1.01217 -4.43001e-20)
(0.210429 -1.13253 4.54622e-20)
(0.19258 -1.24174 2.08889e-19)
(0.154904 -1.32363 5.16606e-21)
(0.10566 -1.36055 -2.10428e-19)
(0.0441154 -1.31778 -5.56836e-20)
(-0.0248701 -1.14752 -9.86337e-21)
(-0.0366968 -0.826278 6.17411e-20)
(-0.143085 -0.473492 8.31001e-20)
(-0.0349632 -0.309366 1.48945e-20)
(0.0111015 0.0351109 -8.3418e-20)
(0.119361 0.240566 5.94649e-20)
(0.272157 -0.309075 9.67209e-20)
(0.343907 -0.500158 -6.40957e-19)
(0.383606 -0.657973 8.33819e-19)
(0.415552 -0.79116 -4.36245e-19)
(0.442351 -0.906503 -3.79301e-19)
(0.462591 -1.00595 3.03586e-19)
(0.473321 -1.07559 -2.14739e-19)
(0.446488 -1.10961 3.52079e-20)
(0.391354 -1.12734 -8.31514e-20)
(0.309759 -1.12581 9.81058e-20)
(0.187414 -1.06721 6.26408e-20)
(0.137579 -0.830686 8.32671e-20)
(-0.0514127 -0.491009 -4.9746e-20)
(0.115915 -0.520204 -2.65952e-20)
(0.0404895 -0.215978 -1.20379e-20)
(0.184953 -0.106082 4.37395e-20)
(0.472858 -0.407274 -5.93509e-19)
(0.510614 -0.555268 4.8132e-21)
(0.553957 -0.693508 2.14445e-19)
(0.60625 -0.819614 1.10814e-19)
(0.658826 -0.922631 -3.29765e-19)
(0.697706 -0.988874 1.38827e-20)
(0.692505 -0.997714 -2.37221e-19)
(0.652186 -0.953713 3.50487e-19)
(0.578306 -0.871541 -1.14627e-19)
(0.458891 -0.836522 -9.14696e-20)
(0.423328 -0.724873 -5.46285e-21)
(0.161097 -0.447653 -2.05116e-20)
(0.381585 -0.47317 2.25889e-20)
(0.182871 -0.308639 -2.00614e-21)
(0.354038 -0.291963 7.72242e-21)
(0.568491 -0.481851 -6.02529e-20)
(0.666065 -0.620845 5.40988e-19)
(0.769423 -0.745885 8.1135e-19)
(0.860195 -0.835509 -1.78946e-19)
(0.909916 -0.881138 1.21084e-19)
(0.905491 -0.890163 1.45222e-19)
(0.869654 -0.867695 -3.03673e-19)
(0.786974 -0.795926 2.1015e-20)
(0.708811 -0.672239 2.21558e-19)
(0.64201 -0.518612 -3.24274e-20)
(0.397562 -0.397337 -4.86663e-20)
(0.62608 -0.321456 2.08479e-20)
(0.443441 -0.241575 -8.23599e-21)
(0.549319 -0.190733 -7.15643e-21)
(0.839237 -0.603292 9.4413e-20)
(0.997146 -0.695238 3.97074e-19)
(1.09057 -0.747034 -6.7165e-19)
(1.11063 -0.758466 -2.88994e-19)
(1.07175 -0.737051 -1.50882e-19)
(0.992688 -0.693355 1.7269e-20)
(0.89717 -0.649416 -1.33532e-19)
(0.847889 -0.606714 -7.20318e-20)
(0.725815 -0.491502 2.73241e-20)
(0.754459 -0.419995 1.08583e-19)
(0.711778 -0.336805 -4.75254e-20)
(0.705207 -0.233148 -1.20153e-20)
(0.69996 -0.159089 -3.05116e-21)
(1.23084 -0.641078 9.58536e-20)
(1.2645 -0.650987 1.34845e-19)
(1.22043 -0.641624 2.72596e-20)
(1.14167 -0.619864 -2.01543e-20)
(1.03718 -0.586112 9.95341e-20)
(0.948842 -0.527257 2.36808e-20)
(0.843418 -0.45896 -7.09292e-20)
(0.775399 -0.406083 3.39469e-20)
(0.791512 -0.344548 7.59218e-20)
(0.737871 -0.282168 -1.02542e-19)
(0.747995 -0.223156 6.69995e-20)
(0.764224 -0.194362 -3.36251e-20)
(1.29882 -0.562137 -1.13722e-19)
(1.2074 -0.5485 -1.22201e-19)
(1.10486 -0.521878 3.84428e-19)
(1.02295 -0.487884 -2.32696e-19)
(0.965226 -0.466004 6.92551e-20)
(0.903151 -0.42933 -1.0519e-19)
(0.926805 -0.35521 9.03496e-20)
(0.860778 -0.340242 -6.63992e-20)
(0.833272 -0.250227 8.25562e-20)
(0.81813 -0.221821 4.49071e-20)
(0.824076 -0.150561 1.13207e-20)
(0.684728 1.09704 1.97583e-20)
(0.693134 1.08895 -4.30718e-21)
(0.715383 1.0679 3.09554e-21)
(0.728171 1.02763 2.35061e-21)
(0.752482 1.00957 -7.88014e-21)
(0.757522 1.03964 2.78234e-21)
(0.730456 1.11259 3.67175e-21)
(0.689297 1.13846 -5.70278e-21)
(0.658366 0.963878 6.43975e-21)
(0.608482 0.600913 -2.25331e-20)
(0.60646 0.0751444 1.72751e-21)
(0.586931 -0.433076 2.21177e-21)
(0.611615 -0.799844 1.05134e-20)
(0.621046 -0.944552 4.42304e-21)
(0.684692 -0.938553 -3.81556e-21)
(0.692412 -0.902397 -3.3108e-22)
(0.705041 -0.852851 -3.44432e-22)
(0.662658 -0.89257 -2.09494e-21)
(0.577201 -0.832391 4.30227e-21)
(0.426451 -0.766548 -2.57094e-21)
(0.485824 0.997403 -1.18402e-20)
(0.565735 1.02604 -1.76113e-20)
(0.637766 1.03341 1.65336e-21)
(0.695333 1.00095 1.69863e-20)
(0.746506 0.985372 1.32648e-20)
(0.793282 1.04153 -4.39409e-21)
(0.821447 1.14276 -4.20822e-21)
(0.82429 1.19447 4.12694e-20)
(0.841045 1.04734 -4.1654e-20)
(0.829571 0.663147 -4.77209e-20)
(0.826576 0.110532 1.16852e-20)
(0.805781 -0.432911 7.65998e-20)
(0.786911 -0.826737 -5.116e-20)
(0.766421 -1.00381 -2.289e-20)
(0.764809 -0.980051 3.95655e-20)
(0.752516 -0.915158 -1.22129e-20)
(0.726257 -0.852305 -4.47528e-22)
(0.658194 -0.862448 1.36279e-20)
(0.570905 -0.759255 -2.31087e-20)
(0.415529 -0.711404 8.53703e-21)
(0.299641 0.794166 -6.72048e-20)
(0.453061 0.914106 1.03801e-20)
(0.564016 0.988545 1.00692e-20)
(0.669146 0.97647 -1.48634e-20)
(0.751915 0.94917 9.18531e-21)
(0.824937 0.997194 -1.01941e-20)
(0.894284 1.1154 4.2083e-20)
(0.93208 1.21133 9.37707e-21)
(0.983194 1.1086 3.93622e-20)
(1.02706 0.754538 -1.1395e-21)
(1.04243 0.216708 -1.14572e-19)
(1.03197 -0.357227 1.49799e-20)
(0.976892 -0.782486 -2.40841e-20)
(0.936048 -0.987837 5.12487e-20)
(0.86686 -0.982145 -1.8305e-20)
(0.834792 -0.910953 2.03148e-20)
(0.765954 -0.805773 1.482e-20)
(0.683029 -0.807101 -1.73279e-20)
(0.57723 -0.699239 -1.52925e-20)
(0.441238 -0.656553 8.35888e-21)
(0.20624 0.530394 -4.55259e-20)
(0.369916 0.710276 2.11659e-20)
(0.497696 0.824663 2.88087e-20)
(0.630759 0.851326 -1.9417e-20)
(0.754199 0.847162 2.4913e-20)
(0.880064 0.885596 -3.37864e-20)
(0.985525 1.01384 4.67318e-20)
(1.06379 1.14018 2.08439e-20)
(1.13643 1.10317 -7.71247e-20)
(1.206 0.8338 3.02868e-20)
(1.22824 0.339929 6.02077e-20)
(1.22854 -0.234756 -8.04846e-20)
(1.17578 -0.698961 3.86009e-20)
(1.10109 -0.933802 6.38699e-21)
(0.975633 -0.94457 6.95611e-21)
(0.917756 -0.893389 -4.35104e-20)
(0.803987 -0.792903 7.41574e-21)
(0.743318 -0.776874 -3.83319e-21)
(0.598929 -0.654537 1.8775e-20)
(0.499524 -0.607368 -1.71933e-21)
(0.212538 0.253298 -2.74738e-20)
(0.342194 0.510867 -4.92587e-21)
(0.455919 0.652939 4.00825e-20)
(0.569007 0.683629 -3.27622e-20)
(0.696889 0.67228 -7.19925e-21)
(0.836695 0.71034 1.83252e-20)
(0.959459 0.851607 5.19631e-21)
(1.09258 1.01714 -1.45641e-20)
(1.19677 1.0557 -1.08399e-19)
(1.30132 0.878234 4.24536e-20)
(1.34864 0.478907 6.50063e-20)
(1.36163 -0.0479631 -1.29258e-20)
(1.33252 -0.537476 9.84109e-20)
(1.23396 -0.816359 1.38342e-20)
(1.0993 -0.879697 -8.46446e-20)
(1.00576 -0.83061 -2.35449e-20)
(0.861922 -0.734086 6.88396e-21)
(0.801833 -0.709455 -3.85636e-21)
(0.629337 -0.609545 1.73274e-20)
(0.582734 -0.544208 -1.60919e-20)
(0.271534 -0.0228377 -1.61362e-20)
(0.344745 0.286517 6.41523e-21)
(0.434332 0.504082 -8.56403e-22)
(0.546063 0.582594 6.39615e-21)
(0.658267 0.558554 -1.18235e-20)
(0.783381 0.548752 1.72653e-20)
(0.898891 0.639652 -1.22388e-20)
(1.02946 0.816135 7.42811e-20)
(1.15427 0.922943 -1.13158e-19)
(1.27641 0.852564 4.37167e-20)
(1.37052 0.5549 -1.02131e-19)
(1.41446 0.0878383 4.61068e-20)
(1.42471 -0.388216 5.52028e-20)
(1.33475 -0.686811 4.0847e-20)
(1.21102 -0.790882 -7.44901e-21)
(1.07719 -0.77336 -2.69755e-20)
(0.9488 -0.697456 2.43223e-21)
(0.851834 -0.664488 4.54347e-21)
(0.703815 -0.588025 -3.34953e-21)
(0.638169 -0.503933 -2.77476e-20)
(0.446955 -0.128899 -4.91147e-21)
(0.380882 0.0705664 1.42932e-20)
(0.415765 0.294809 -4.78321e-22)
(0.538095 0.420997 1.05168e-20)
(0.66114 0.438849 -9.73579e-21)
(0.779408 0.427939 9.92256e-21)
(0.868967 0.48052 1.56945e-21)
(0.973558 0.632725 4.33089e-21)
(1.10666 0.780396 5.97019e-21)
(1.23741 0.805402 2.25504e-22)
(1.36873 0.631826 1.18647e-20)
(1.41533 0.255286 -1.92028e-20)
(1.4643 -0.196053 -6.22195e-20)
(1.41504 -0.523686 6.4304e-20)
(1.30536 -0.670788 -7.60746e-20)
(1.13704 -0.684645 3.28341e-20)
(1.00993 -0.622788 2.23853e-20)
(0.879293 -0.592835 2.02217e-20)
(0.785607 -0.533794 -1.15676e-20)
(0.666725 -0.455025 -1.72729e-20)
(0.556493 -0.300046 6.29285e-21)
(0.677728 -0.051155 1.82709e-20)
(0.605167 0.020314 -1.28543e-20)
(0.528898 0.147364 -2.69447e-20)
(0.546272 0.279799 3.28699e-20)
(0.618661 0.327802 -1.61006e-20)
(0.673224 0.322781 7.61313e-21)
(0.721615 0.339515 9.73627e-21)
(0.812879 0.436407 -1.95523e-20)
(0.978706 0.576551 4.71661e-21)
(1.14739 0.662963 -2.23755e-20)
(1.24315 0.61251 -2.08097e-20)
(1.2995 0.343926 1.22343e-21)
(1.43069 -0.0589226 5.18223e-20)
(1.44344 -0.380015 3.81944e-20)
(1.3534 -0.539911 -3.97358e-20)
(1.2149 -0.589325 2.18344e-20)
(1.08996 -0.56061 -2.21687e-20)
(0.95437 -0.550405 -1.48002e-21)
(0.874566 -0.509577 -1.35964e-22)
(0.727873 -0.439572 -1.19119e-21)
(0.671367 -0.292826 6.37809e-23)
(0.760249 -0.0961224 1.18696e-20)
(0.743931 -0.00941342 -2.86084e-22)
(0.734749 0.0846654 -2.62321e-24)
(0.727458 0.190274 -7.70659e-21)
(0.716736 0.293547 -5.16654e-21)
(0.699812 0.338407 1.33321e-20)
(0.707136 0.304693 -9.80723e-22)
(0.744921 0.301881 -4.85794e-21)
(0.856292 0.401288 1.85584e-20)
(0.958573 0.546504 -1.36541e-20)
(1.05135 0.598396 9.57564e-23)
(1.22225 0.389314 -8.09157e-21)
(1.40588 0.020774 -5.26203e-20)
(1.45237 -0.276573 1.00449e-19)
(1.38485 -0.450361 -5.67535e-20)
(1.26503 -0.520771 1.72063e-20)
(1.13831 -0.496677 6.23378e-21)
(1.00231 -0.489591 -1.40112e-21)
(0.916326 -0.459766 -1.17402e-20)
(0.768369 -0.415884 5.04845e-21)
(0.725485 -0.285411 -1.38699e-21)
(0.784321 -0.116393 -1.33333e-21)
(0.766812 -0.070808 -2.41742e-21)
(0.767314 -0.0170627 -1.35083e-20)
(0.781685 0.0516969 8.48142e-21)
(0.778011 0.167785 2.03667e-20)
(0.762291 0.278497 -2.33343e-20)
(0.807253 0.289684 1.58185e-20)
(0.863369 0.241314 -6.03285e-21)
(0.865877 0.290196 -9.43566e-22)
(0.814364 0.452005 -4.34167e-21)
(0.876629 0.550596 2.73155e-21)
(1.08703 0.420311 2.43857e-20)
(1.31828 0.135621 8.94559e-21)
(1.43394 -0.118064 -2.4661e-20)
(1.40015 -0.292032 -2.97022e-20)
(1.27382 -0.398555 2.43223e-20)
(1.16662 -0.414026 9.45181e-21)
(1.04676 -0.429513 -9.44755e-21)
(0.964139 -0.415831 -2.65228e-21)
(0.826593 -0.388737 2.71259e-21)
(0.772893 -0.312896 -2.02765e-21)
(0.885075 -0.0839598 0)
(0.8665 -0.0405247 0)
(0.840755 0.00065398 0)
(0.820468 0.0529859 0)
(0.819171 0.129445 0)
(0.850041 0.21035 0)
(0.91988 0.227985 0)
(0.954487 0.221257 0)
(0.926738 0.284183 0)
(0.910227 0.377729 0)
(1.05327 0.396405 0)
(1.26995 0.27515 0)
(1.41978 0.0506252 0)
(1.44388 -0.113551 0)
(1.40463 -0.217762 0)
(1.28318 -0.305456 0)
(1.21083 -0.339627 0)
(1.08742 -0.347398 0)
(1.02429 -0.346181 0)
(0.896885 -0.330063 0)
(0.838535 -0.309677 0)
(0.77748 -0.10787 0)
(0.921167 -0.0606246 0)
(0.903512 -0.022987 0)
(0.881977 0.0240324 0)
(0.870337 0.0632424 0)
(0.87046 0.120073 0)
(0.907 0.170108 0)
(0.955425 0.192066 0)
(0.981061 0.208296 0)
(1.00298 0.275809 0)
(1.05154 0.322033 0)
(1.19562 0.296331 0)
(1.34287 0.202463 0)
(1.40233 0.039012 0)
(1.37531 -0.0808431 0)
(1.33473 -0.190534 0)
(1.21967 -0.26647 0)
(1.15933 -0.306254 0)
(1.03812 -0.316212 0)
(1.00119 -0.323137 0)
(0.868711 -0.279399 0)
(0.846042 -0.260305 0)
(0.788522 -0.0365971 0)
(0.945017 -0.0389222 0)
(0.933103 -0.0208849 0)
(0.920077 0.0233145 0)
(0.914258 0.0615792 0)
(0.920379 0.105276 0)
(0.94948 0.14448 0)
(0.986848 0.172731 0)
(1.00604 0.187936 0)
(1.04739 0.23789 0)
(1.12219 0.259722 0)
(1.21294 0.211339 0)
(1.30608 0.149872 0)
(1.33659 0.0216079 0)
(1.31905 -0.068199 0)
(1.2905 -0.137939 0)
(1.2171 -0.190974 0)
(1.19016 -0.232543 0)
(1.08375 -0.246358 0)
(1.06136 -0.262541 0)
(0.930328 -0.234346 0)
(0.880902 -0.271821 0)
(0.848478 -0.0362822 0)
(0.964602 -0.0148099 0)
(0.962075 -0.00496516 0)
(0.951572 0.0332195 0)
(0.947145 0.0577466 0)
(0.955465 0.0968381 0)
(0.97613 0.120237 0)
(1.00533 0.146952 0)
(1.02972 0.161203 0)
(1.06035 0.180834 0)
(1.13077 0.195512 0)
(1.1883 0.154478 0)
(1.25784 0.109649 0)
(1.27991 0.0199613 0)
(1.26764 -0.0316712 0)
(1.25064 -0.118723 0)
(1.17594 -0.182804 0)
(1.13712 -0.217829 0)
(1.02317 -0.228833 0)
(0.971862 -0.246928 0)
(0.899734 -0.177423 0)
(0.838666 -0.242341 0)
(0.831473 -0.0128181 0)
(0.983398 0.00415295 0)
(0.98363 0.00768123 0)
(0.976273 0.0368305 0)
(0.974434 0.0534287 0)
(0.977582 0.080907 0)
(0.997934 0.100785 0)
(1.0128 0.116111 0)
(1.04804 0.132856 0)
(1.06472 0.13863 0)
(1.12592 0.151331 0)
(1.161 0.110452 0)
(1.2122 0.0915826 0)
(1.2277 0.0110766 0)
(1.2153 -0.0417118 0)
(1.22567 -0.0939285 0)
(1.15862 -0.128434 0)
(1.13715 -0.157799 0)
(1.10882 -0.147794 0)
(1.04285 -0.19546 0)
(1.02295 -0.127216 0)
(0.914321 -0.218515 0)
(0.85364 -0.0551751 0)
(0.996252 0.0158787 0)
(0.999835 0.0151588 0)
(0.994802 0.0376781 0)
(0.997417 0.0494461 0)
(0.99603 0.0673604 0)
(1.01659 0.0860523 0)
(1.0262 0.0919574 0)
(1.05678 0.111668 0)
(1.07082 0.103096 0)
(1.11414 0.115894 0)
(1.13997 0.0801614 0)
(1.17245 0.0625144 0)
(1.1992 0.00808045 0)
(1.18491 -0.0231333 0)
(1.18736 -0.0750813 0)
(1.14493 -0.101149 0)
(1.10765 -0.152477 0)
(1.065 -0.143033 0)
(0.985716 -0.200083 0)
(0.983963 -0.109744 0)
(0.92209 -0.158032 0)
(0.868173 -0.0465181 0)
(1.00414 0.0225057 0)
(1.01699 0.0229292 0)
(1.00792 0.0367775 0)
(1.01816 0.047212 0)
(1.01185 0.0561942 0)
(1.03222 0.0734788 0)
(1.03729 0.0717741 0)
(1.0603 0.0886381 0)
(1.0756 0.0757855 0)
(1.09877 0.0858743 0)
(1.12969 0.0551518 0)
(1.14155 0.0468197 0)
(1.16907 0.00057522 0)
(1.15264 -0.0230486 0)
(1.1556 -0.0684418 0)
(1.12764 -0.0807998 0)
(1.09752 -0.117212 0)
(1.08302 -0.0819635 0)
(1.02841 -0.145018 0)
(0.992541 -0.0728731 0)
(0.965293 -0.121592 0)
(0.897556 -0.0738729 0)
(1.01336 0.027963 0)
(1.02873 0.0261056 0)
(1.02009 0.0361984 0)
(1.03189 0.0422051 0)
(1.0253 0.04691 0)
(1.04171 0.0592805 0)
(1.04535 0.0549674 0)
(1.06226 0.0680618 0)
(1.07576 0.0550979 0)
(1.09042 0.0626098 0)
(1.11218 0.0374021 0)
(1.11959 0.0322274 0)
(1.1389 -0.00590615 0)
(1.12947 -0.0154324 0)
(1.13126 -0.0556201 0)
(1.11129 -0.0521151 0)
(1.08275 -0.098472 0)
(1.06211 -0.0718621 0)
(1.03142 -0.126206 0)
(0.985889 -0.0709577 0)
(0.995227 -0.0918497 0)
(0.924196 -0.0626871 0)
(1.01923 0.0283445 0)
(1.03834 0.0271088 0)
(1.02873 0.0335005 0)
(1.04229 0.0370476 0)
(1.03446 0.0395527 0)
(1.04912 0.0476729 0)
(1.05137 0.0434638 0)
(1.06303 0.0517478 0)
(1.07304 0.0401979 0)
(1.08049 0.0444939 0)
(1.09773 0.0243119 0)
(1.09999 0.0217251 0)
(1.11479 -0.00751713 0)
(1.10674 -0.0118259 0)
(1.10735 -0.0460899 0)
(1.0869 -0.0417425 0)
(1.0773 -0.0809468 0)
(1.04748 -0.0484312 0)
(1.04761 -0.0959035 0)
(0.988132 -0.0493185 0)
(1.01314 -0.0646293 0)
(0.943225 -0.0619205 0)
(1.02644 0.0291757 0)
(1.04414 0.0255246 0)
(1.03496 0.0322165 0)
(1.04908 0.0316946 0)
(1.04076 0.0357291 0)
(1.05541 0.0380102 0)
(1.05231 0.0359809 0)
(1.06418 0.0384631 0)
(1.06637 0.0302935 0)
(1.07495 0.0319982 0)
(1.08175 0.0161153 0)
(1.08493 0.0151001 0)
(1.09289 -0.00885814 0)
(1.08532 -0.00902928 0)
(1.08889 -0.0388001 0)
(1.06819 -0.0288692 0)
(1.07074 -0.0623946 0)
(1.03449 -0.0369944 0)
(1.05223 -0.0731193 0)
(0.989241 -0.0411125 0)
(1.02707 -0.0530008 0)
(0.963436 -0.0449926 0)
(1.02938 0.0271361 0)
(1.04695 0.0239752 0)
(1.03863 0.0294104 0)
(1.0531 0.0277272 0)
(1.04315 0.0312634 0)
(1.0573 0.0302261 0)
(1.05115 0.030227 0)
(1.06319 0.0287305 0)
(1.06063 0.0252949 0)
(1.06784 0.0221167 0)
(1.06966 0.0136323 0)
(1.07101 0.00907059 0)
(1.07677 -0.00573185 0)
(1.06772 -0.0077127 0)
(1.07534 -0.0291418 0)
(1.05153 -0.0207029 0)
(1.06438 -0.050355 0)
(1.02464 -0.0260568 0)
(1.05236 -0.0596005 0)
(0.996408 -0.0297241 0)
(1.03199 -0.0419875 0)
(0.980592 -0.0357432 0)
(1.03366 0.0253255 0)
(1.04708 0.0212486 0)
(1.04124 0.0271968 0)
(1.05107 0.0225085 0)
(1.04372 0.0282115 0)
(1.05492 0.0234088 0)
(1.04956 0.0275661 0)
(1.05941 0.0216116 0)
(1.05446 0.0229661 0)
(1.0616 0.0159815 0)
(1.0585 0.0131833 0)
(1.06244 0.00645189 0)
(1.06186 -0.00248915 0)
(1.05876 -0.00550621 0)
(1.06057 -0.0216578 0)
(1.04542 -0.015645 0)
(1.05371 -0.0388415 0)
(1.02462 -0.0206586 0)
(1.04759 -0.0466312 0)
(1.00341 -0.0223688 0)
(1.03533 -0.0382278 0)
(0.992263 -0.0218563 0)
(1.03504 0.0233949 0)
(1.04387 0.0194717 0)
(1.03977 0.0242077 0)
(1.04767 0.019669 0)
(1.04215 0.0254872 0)
(1.05129 0.0197719 0)
(1.04574 0.0250947 0)
(1.05433 0.0172664 0)
(1.04833 0.021478 0)
(1.05525 0.0122959 0)
(1.05047 0.013826 0)
(1.05472 0.00468063 0)
(1.05286 0.00111036 0)
(1.05099 -0.00435814 0)
(1.0527 -0.0150625 0)
(1.04015 -0.0119481 0)
(1.04827 -0.0303124 0)
(1.02488 -0.0156218 0)
(1.04337 -0.0384798 0)
(1.01137 -0.0168029 0)
(1.03405 -0.0337033 0)
(1.00296 -0.0157264 0)
(1.03296 0.0216604 0)
(1.03924 0.0178344 0)
(1.03877 0.0232095 0)
(1.04322 0.0175088 0)
(1.04022 0.0243587 0)
(1.04561 0.0162216 0)
(1.04216 0.0238874 0)
(1.04842 0.0134428 0)
(1.04361 0.0210792 0)
(1.0497 0.00919011 0)
(1.04399 0.0146967 0)
(1.04987 0.00320331 0)
(1.04502 0.00408133 0)
(1.04822 -0.00356903 0)
(1.04433 -0.0097108 0)
(1.04103 -0.00929355 0)
(1.04051 -0.0233005 0)
(1.02983 -0.011965 0)
(1.0371 -0.0323345 0)
(1.01892 -0.0113366 0)
(1.03168 -0.0326232 0)
(1.01057 -0.00767396 0)
(1.03262 0.0204249 0)
(1.0358 0.0172536 0)
(1.03699 0.0217332 0)
(1.03838 0.0161851 0)
(1.0374 0.0220897 0)
(1.04077 0.0144325 0)
(1.03897 0.0215669 0)
(1.04409 0.0118231 0)
(1.03951 0.0190889 0)
(1.04569 0.00802749 0)
(1.03889 0.0136941 0)
(1.04697 0.0032333 0)
(1.03922 0.00501828 0)
(1.04706 -0.00202387 0)
(1.03834 -0.00638849 0)
(1.04257 -0.00644421 0)
(1.03479 -0.0181232 0)
(1.03426 -0.00863174 0)
(1.0318 -0.0266368 0)
(1.02536 -0.0082258 0)
(1.02841 -0.0281287 0)
(1.01558 -0.00576907 0)
(1.03081 0.0191942 0)
(1.03214 0.015959 0)
(1.03396 0.0197447 0)
(1.03469 0.0145841 0)
(1.0349 0.0199516 0)
(1.03745 0.0128798 0)
(1.03633 0.0193363 0)
(1.0406 0.0103448 0)
(1.03657 0.0169632 0)
(1.04244 0.00701943 0)
(1.03574 0.0124757 0)
(1.04418 0.00315876 0)
(1.03565 0.00533599 0)
(1.04518 -0.00101254 0)
(1.03462 -0.00391823 0)
(1.04232 -0.00454108 0)
(1.03135 -0.0136507 0)
(1.03594 -0.00630359 0)
(1.02909 -0.0211918 0)
(1.02823 -0.00585108 0)
(1.02673 -0.0238703 0)
(1.01876 -0.00369205 0)
(1.0281 0.0169014 0)
(1.02935 0.014446 0)
(1.03171 0.0173104 0)
(1.03221 0.0134141 0)
(1.03283 0.017262 0)
(1.03475 0.0118144 0)
(1.03411 0.0163302 0)
(1.03772 0.00955872 0)
(1.03432 0.0141622 0)
(1.03961 0.00680106 0)
(1.03339 0.0104345 0)
(1.0412 0.00358311 0)
(1.03302 0.00483123 0)
(1.04267 0.000239448 0)
(1.03198 -0.00228208 0)
(1.04083 -0.00267424 0)
(1.02897 -0.0097536 0)
(1.03607 -0.00432532 0)
(1.02692 -0.015668 0)
(1.02978 -0.00458315 0)
(1.02508 -0.0179849 0)
(1.02099 -0.00366059 0)
(1.02663 0.0148001 0)
(1.02795 0.0130319 0)
(1.02971 0.0149911 0)
(1.03022 0.0120041 0)
(1.0306 0.0146183 0)
(1.03238 0.0105074 0)
(1.0319 0.0136616 0)
(1.03508 0.00859058 0)
(1.03229 0.0118317 0)
(1.03657 0.00629056 0)
(1.03129 0.00885385 0)
(1.03793 0.00371296 0)
(1.03108 0.00467348 0)
(1.03929 0.00105473 0)
(1.03009 -0.000658841 0)
(1.03797 -0.00131002 0)
(1.02748 -0.00628448 0)
(1.03434 -0.00276914 0)
(1.02576 -0.0109768 0)
(1.02953 -0.00321453 0)
(1.02414 -0.0132583 0)
(1.02238 -0.00284548 0)
(1.02532 0.0127663 0)
(1.02646 0.0115069 0)
(1.02764 0.0125962 0)
(1.0283 0.0105564 0)
(1.02855 0.0121174 0)
(1.03028 0.00934815 0)
(1.0298 0.0112607 0)
(1.03253 0.00781217 0)
(1.03008 0.00977289 0)
(1.03359 0.00593708 0)
(1.02922 0.00753932 0)
(1.03463 0.00393437 0)
(1.02894 0.00448784 0)
(1.03575 0.00179829 0)
(1.0282 0.00063809 0)
(1.03482 -0.000155844 0)
(1.02606 -0.00346643 0)
(1.03211 -0.0015183 0)
(1.02479 -0.00700707 0)
(1.02862 -0.00220584 0)
(1.02355 -0.00901084 0)
(1.02303 -0.00231839 0)
(1.02384 0.0108705 0)
(1.02508 0.00996853 0)
(1.02584 0.0106244 0)
(1.02661 0.00918334 0)
(1.0266 0.0101859 0)
(1.02814 0.00818559 0)
(1.02765 0.00944511 0)
(1.02991 0.00692402 0)
(1.02785 0.00825946 0)
(1.03059 0.00545989 0)
(1.02709 0.00663338 0)
(1.0313 0.00394165 0)
(1.02698 0.00443022 0)
(1.03228 0.00234752 0)
(1.0265 0.00163124 0)
(1.03162 0.000831089 0)
(1.0249 -0.00143974 0)
(1.02973 -0.0002975 0)
(1.02409 -0.00420948 0)
(1.02739 -0.00101718 0)
(1.0231 -0.00606649 0)
(1.02332 -0.0013912 0)
(1.02253 0.00931307 0)
(1.02373 0.00869122 0)
(1.02408 0.00903396 0)
(1.02489 0.00802296 0)
(1.02464 0.00859165 0)
(1.02608 0.00719795 0)
(1.0255 0.00795593 0)
(1.02743 0.0062028 0)
(1.02568 0.00704801 0)
(1.02792 0.00511682 0)
(1.02513 0.00586852 0)
(1.0284 0.00398449 0)
(1.0251 0.00427744 0)
(1.02921 0.00277058 0)
(1.02491 0.00223552 0)
(1.02877 0.00157424 0)
(1.0238 -4.33264e-05 0)
(1.02751 0.000599434 0)
(1.0234 -0.00217303 0)
(1.02601 -0.000181003 0)
(1.02271 -0.00374684 0)
(1.02315 -0.000729757 0)
(1.02127 0.0080739 0)
(1.02237 0.00757102 0)
(1.02246 0.00777871 0)
(1.02323 0.00701228 0)
(1.02288 0.00738005 0)
(1.02416 0.00637509 0)
(1.02365 0.00686429 0)
(1.0253 0.00563476 0)
(1.02391 0.00616034 0)
(1.0256 0.00481755 0)
(1.02338 0.00522906 0)
(1.02584 0.00395785 0)
(1.02348 0.00403169 0)
(1.02656 0.00305162 0)
(1.02346 0.002495 0)
(1.02628 0.00210118 0)
(1.02269 0.000768012 0)
(1.0255 0.0012673 0)
(1.02251 -0.000876012 0)
(1.02469 0.000493888 0)
(1.02202 -0.00213998 0)
(1.02276 -0.000162124 0)
(1.01995 0.00692184 0)
(1.02096 0.00654738 0)
(1.02088 0.00665022 0)
(1.02167 0.00612138 0)
(1.0213 0.00632779 0)
(1.02249 0.00565955 0)
(1.02203 0.00591707 0)
(1.0234 0.00509731 0)
(1.02223 0.00533765 0)
(1.02355 0.00446403 0)
(1.0219 0.00463601 0)
(1.0238 0.00385319 0)
(1.02212 0.00377449 0)
(1.02439 0.00316025 0)
(1.02219 0.00263426 0)
(1.02421 0.002388 0)
(1.02166 0.00135895 0)
(1.02375 0.00165287 0)
(1.02159 0.000106163 0)
(1.02336 0.000901874 0)
(1.0212 -0.000927127 0)
(1.02212 0.000206917 0)
(1.01872 0.00584486 0)
(1.01965 0.00557932 0)
(1.01952 0.0056378 0)
(1.02026 0.00528395 0)
(1.01989 0.00538364 0)
(1.0209 0.00495121 0)
(1.02047 0.00505015 0)
(1.02163 0.00454643 0)
(1.02074 0.00461478 0)
(1.02185 0.00412298 0)
(1.0206 0.00412381 0)
(1.02206 0.00369968 0)
(1.02082 0.00349288 0)
(1.02258 0.00316776 0)
(1.02098 0.00265412 0)
(1.02255 0.00253547 0)
(1.02064 0.00170994 0)
(1.02231 0.00187324 0)
(1.02067 0.000759677 0)
(1.02221 0.00113302 0)
(1.02039 -8.19253e-05 0)
(1.02144 0.00042617 0)
(1.0177 0.00485947 0)
(1.01848 0.0046772 0)
(1.01827 0.00469071 0)
(1.01892 0.00445517 0)
(1.01856 0.00449305 0)
(1.01945 0.00422508 0)
(1.01912 0.00426091 0)
(1.02012 0.00395799 0)
(1.01943 0.00395924 0)
(1.02033 0.00366349 0)
(1.01937 0.00360704 0)
(1.02054 0.00336007 0)
(1.01963 0.00316687 0)
(1.02104 0.00297122 0)
(1.01986 0.00256547 0)
(1.02113 0.00247102 0)
(1.01969 0.00187072 0)
(1.02111 0.00192297 0)
(1.01979 0.00114574 0)
(1.0212 0.0012731 0)
(1.01964 0.000455972 0)
(1.02079 0.000647004 0)
(1.0167 0.00387776 0)
(1.01736 0.00376531 0)
(1.01715 0.00375058 0)
(1.01777 0.0036193 0)
(1.01747 0.00362111 0)
(1.01826 0.00347734 0)
(1.01794 0.00346598 0)
(1.01881 0.00329251 0)
(1.01825 0.0032478 0)
(1.01905 0.00307816 0)
(1.01831 0.00300687 0)
(1.01932 0.00286802 0)
(1.01861 0.00271295 0)
(1.01979 0.00257644 0)
(1.01887 0.00228697 0)
(1.01998 0.00218149 0)
(1.01885 0.00178527 0)
(1.02009 0.00173848 0)
(1.019 0.0012425 0)
(1.0203 0.00121111 0)
(1.01897 0.00069858 0)
(1.02013 0.000701338 0)
(1.01589 0.00308481 0)
(1.01646 0.00302341 0)
(1.01626 0.00301544 0)
(1.01681 0.00293995 0)
(1.01654 0.00293446 0)
(1.01722 0.00284861 0)
(1.01694 0.00282853 0)
(1.01771 0.0027248 0)
(1.01726 0.00268056 0)
(1.01801 0.00258019 0)
(1.01741 0.0025155 0)
(1.01831 0.00242944 0)
(1.01771 0.00230659 0)
(1.01875 0.00221029 0)
(1.01799 0.00199811 0)
(1.01902 0.00190586 0)
(1.01808 0.00162814 0)
(1.01924 0.001559 0)
(1.01828 0.00122342 0)
(1.01951 0.00114554 0)
(1.01833 0.000801812 0)
(1.01951 0.000744207 0)
(1.01525 0.00206149 0)
(1.01573 0.00203548 0)
(1.01551 0.0020357 0)
(1.01601 0.00200228 0)
(1.01576 0.00200777 0)
(1.01638 0.00196983 0)
(1.01612 0.00196715 0)
(1.01682 0.0019128 0)
(1.01644 0.00189116 0)
(1.01715 0.00183228 0)
(1.01665 0.00179831 0)
(1.01748 0.00174505 0)
(1.01696 0.00167599 0)
(1.01791 0.00160903 0)
(1.01725 0.0014814 0)
(1.01823 0.00141057 0)
(1.01742 0.00124183 0)
(1.0185 0.00118209 0)
(1.01764 0.000971516 0)
(1.01881 0.000902871 0)
(1.01776 0.000680304 0)
(1.01894 0.00063362 0)
(1.01478 0.0012106 0)
(1.01521 0.00119789 0)
(1.01502 0.00119734 0)
(1.0155 0.00118423 0)
(1.01527 0.00118849 0)
(1.01584 0.0011738 0)
(1.01557 0.00117232 0)
(1.0162 0.00114665 0)
(1.01585 0.00113353 0)
(1.01655 0.00110442 0)
(1.01611 0.00108584 0)
(1.0169 0.00105869 0)
(1.0164 0.00102096 0)
(1.01729 0.000982064 0)
(1.01669 0.000911542 0)
(1.01764 0.000866479 0)
(1.01692 0.000774354 0)
(1.01796 0.000732503 0)
(1.01715 0.000617924 0)
(1.01826 0.000568564 0)
(1.01732 0.000446587 0)
(1.01847 0.000410315 0)
(1.01446 0.000543128 0)
(1.01487 0.000535726 0)
(1.01468 0.000532668 0)
(1.01514 0.000524007 0)
(1.01492 0.00052138 0)
(1.01546 0.000511739 0)
(1.0152 0.00050751 0)
(1.01582 0.000495519 0)
(1.01549 0.000488361 0)
(1.01617 0.000475684 0)
(1.01577 0.00046564 0)
(1.01654 0.000452635 0)
(1.01606 0.000435145 0)
(1.01692 0.000418537 0)
(1.01635 0.000390226 0)
(1.01729 0.000371912 0)
(1.01662 0.000335998 0)
(1.01763 0.000318614 0)
(1.01686 0.00027566 0)
(1.01795 0.000256053 0)
(1.01705 0.000211951 0)
(1.0182 0.000196092 0)
(1.03826 -0.0707312 -8.35449e-20)
(1.03575 -0.0818344 2.1836e-22)
(0.98795 -0.110715 -8.54413e-20)
(0.940015 -0.112096 3.09574e-20)
(0.903351 -0.143057 -2.24921e-20)
(1.01256 -0.0467043 2.69706e-20)
(1.02892 -0.0584398 -6.09207e-20)
(0.990073 -0.0756324 4.09233e-20)
(0.96359 -0.069451 1.81103e-20)
(0.934833 -0.110143 1.84335e-20)
(1.0089 -0.0283539 -1.53744e-20)
(1.02368 -0.0304605 1.41471e-20)
(1.00232 -0.0485687 2.12486e-20)
(0.990553 -0.02444 -3.39765e-20)
(0.956196 -0.0699359 -2.0842e-20)
(1.0167 -0.0139861 -6.72024e-21)
(1.02017 -0.00554723 4.70272e-22)
(0.999388 -0.0347386 -1.04008e-20)
(0.99771 -0.00471995 4.33324e-20)
(0.965862 -0.043188 3.19268e-20)
(1.01907 0.00666451 -1.06087e-20)
(0.996327 -0.0246791 -2.30999e-20)
(1.00097 0.00514389 -4.68717e-21)
(0.979494 -0.0223764 -2.07104e-20)
(1.02357 0.0173294 1.70881e-20)
(1.00096 -0.0116089 2.46183e-20)
(1.01052 0.0163162 -1.17337e-20)
(0.992044 -0.00637528 1.48427e-20)
(1.02633 0.0236713 1.237e-20)
(1.00925 -9.22349e-05 -7.68888e-21)
(1.01564 0.0229657 8.15316e-21)
(1.00416 0.00619936 -9.38588e-21)
(1.02567 0.0251494 -1.76949e-20)
(1.01561 0.00606495 9.60091e-21)
(1.01828 0.0256678 -1.86199e-21)
(1.01517 0.0138839 4.56545e-21)
(1.02394 0.0229737 4.36038e-21)
(1.02076 0.00891484 -8.46116e-21)
(1.01849 0.0241499 6.28562e-21)
(1.02299 0.0176228 -1.11262e-20)
(1.02372 0.0213239 1.06585e-20)
(1.02603 0.0112518 -2.29801e-21)
(1.02214 0.0242841 -3.10933e-21)
(1.02985 0.0191815 9.54993e-21)
(1.02633 0.021619 -6.96748e-21)
(1.03318 0.0147859 5.97244e-21)
(1.02656 0.0233625 -7.99544e-21)
(1.03397 0.0198884 -6.70383e-21)
(1.02745 0.0203081 -5.4572e-21)
(1.03231 0.0147679 4.9666e-22)
(1.02643 0.0206795 8.54265e-21)
(1.0338 0.0181945 5.50926e-21)
(1.02561 0.0182343 7.57416e-21)
(1.03107 0.0152633 -1.95105e-21)
(1.02928 0.0199539 -4.49739e-21)
(1.03567 0.018671 -2.65561e-21)
(1.02674 0.0179503 -2.56935e-21)