/*--------------------------------*- C++ -*----------------------------------*\
| =========                 |                                                 |
| \\      /  F ield         | OpenFOAM: The Open Source CFD Toolbox           |
|  \\    /   O peration     | Version:                                        |
|   \\  /    A nd           | Website:  www.openfoam.com                      |
|    \\/     M anipulation  |                                                 |
\*---------------------------------------------------------------------------*/
FoamFile
{
    version     2.0;
    format      ascii;
    class       volScalarField;
    location    "117";
    object      p;
}
// * * * * * * * * * * * * * * * * * * * * * * * * * * * * * * * * * * * * * //

dimensions      [0 2 -2 0 0 0 0];


internalField   nonuniform List<scalar> 
1136
(
-0.424362
-0.337871
-0.320665
-0.352844
-0.456647
-0.579105
-0.604369
-0.470545
-0.37701
-0.286634
-0.265294
-0.291884
-0.284855
-0.268612
-0.27397
-0.24779
-0.196669
-0.204725
-0.235582
-0.243544
-0.193572
-0.170306
-0.178565
-0.195059
-0.15475
-0.12593
-0.146898
-0.139379
-0.0641313
-0.00952255
-0.365166
-0.311333
-0.316621
-0.381477
-0.509887
-0.655207
-0.694604
-0.532858
-0.406767
-0.296074
-0.252099
-0.263102
-0.233733
-0.235792
-0.246427
-0.2343
-0.200182
-0.213266
-0.247992
-0.253457
-0.197595
-0.1704
-0.179921
-0.193444
-0.150845
-0.122369
-0.132631
-0.131842
-0.0705435
-0.0145034
-0.299582
-0.273105
-0.29635
-0.394407
-0.540753
-0.700432
-0.755853
-0.583288
-0.423999
-0.296316
-0.234598
-0.236695
-0.187274
-0.204562
-0.215128
-0.217571
-0.203943
-0.220999
-0.258527
-0.261266
-0.200603
-0.169477
-0.181037
-0.191125
-0.146488
-0.119005
-0.119101
-0.123972
-0.0758468
-0.0194586
-0.226963
-0.223137
-0.25581
-0.377985
-0.533796
-0.710113
-0.799959
-0.618878
-0.431749
-0.290832
-0.214708
-0.21154
-0.14553
-0.171081
-0.181195
-0.20152
-0.207376
-0.22718
-0.267183
-0.266519
-0.201719
-0.167327
-0.181832
-0.188203
-0.141534
-0.115498
-0.106509
-0.115794
-0.0800154
-0.024052
-0.155931
-0.167313
-0.202664
-0.331085
-0.492378
-0.673556
-0.775834
-0.625758
-0.427787
-0.278062
-0.194951
-0.188501
-0.111695
-0.140075
-0.144557
-0.181107
-0.208886
-0.232564
-0.274006
-0.270243
-0.201388
-0.163763
-0.182181
-0.184075
-0.136109
-0.111692
-0.0948143
-0.106947
-0.082914
-0.0282388
-0.0988997
-0.112989
-0.144688
-0.265275
-0.422786
-0.595986
-0.720355
-0.608813
-0.417129
-0.261344
-0.173562
-0.163788
-0.0843356
-0.101746
-0.109881
-0.159974
-0.208371
-0.235207
-0.277428
-0.270889
-0.199758
-0.159164
-0.181728
-0.179314
-0.129908
-0.107218
-0.083773
-0.0973073
-0.0842281
-0.0318349
-0.0658992
-0.0931583
-0.194008
-0.339271
-0.498938
-0.630331
-0.549266
-0.39096
-0.245601
-0.155363
-0.140986
-0.0680463
-0.0737024
-0.0787397
-0.135259
-0.204058
-0.235192
-0.276888
-0.268518
-0.196724
-0.154996
-0.1802
-0.17307
-0.123006
-0.101881
-0.0734778
-0.0873627
-0.0839655
-0.0347321
-0.0336591
-0.0475374
-0.13014
-0.253033
-0.384005
-0.518953
-0.477438
-0.353886
-0.227136
-0.140209
-0.11991
-0.060058
-0.0476686
-0.0520096
-0.111399
-0.196396
-0.230875
-0.270216
-0.260048
-0.191009
-0.150835
-0.178246
-0.165697
-0.115335
-0.096201
-0.064268
-0.0776946
-0.0822536
-0.0367593
-0.0143536
-0.0164854
-0.07811
-0.167583
-0.285244
-0.420447
-0.411958
-0.315489
-0.21364
-0.127259
-0.103493
-0.0594102
-0.02895
-0.0312082
-0.0877897
-0.186109
-0.223084
-0.259108
-0.247171
-0.18151
-0.143334
-0.17527
-0.157573
-0.106666
-0.089367
-0.0558439
-0.0685362
-0.078945
-0.0379962
-0.00314859
-0.00245966
-0.0380018
-0.102236
-0.1916
-0.303621
-0.308191
-0.259163
-0.189379
-0.117993
-0.0882688
-0.0553351
-0.0208484
-0.0219555
-0.0649028
-0.173495
-0.210739
-0.242508
-0.22626
-0.167169
-0.132185
-0.169143
-0.14701
-0.0977147
-0.0820807
-0.0483628
-0.0596756
-0.0744284
-0.0380084
0.00795731
-0.00584218
-0.0480276
-0.115529
-0.221374
-0.254673
-0.20208
-0.152258
-0.0992825
-0.0720679
-0.0432369
-0.014151
-0.0075646
-0.0449922
-0.154093
-0.196288
-0.224008
-0.204567
-0.150096
-0.121984
-0.159032
-0.138156
-0.088073
-0.0744723
-0.0413074
-0.0518191
-0.0694201
-0.0374269
0.00176663
0.0061901
-0.012063
-0.0701081
-0.165765
-0.189891
-0.149824
-0.120872
-0.0827105
-0.0609966
-0.0356483
-0.00964917
0.00135431
-0.0325244
-0.138343
-0.182469
-0.201123
-0.181542
-0.132169
-0.111357
-0.147949
-0.131612
-0.0770305
-0.0645037
-0.0330428
-0.0431704
-0.0636255
-0.0365508
0.00117246
0.0143158
0.00549115
-0.0410262
-0.10929
-0.129615
-0.109493
-0.0923288
-0.0677868
-0.0508917
-0.029486
-0.00821794
0.00463847
-0.0296719
-0.127461
-0.165912
-0.174115
-0.152248
-0.112548
-0.0978377
-0.135554
-0.123336
-0.0638727
-0.0508766
-0.0236084
-0.0318935
-0.0565601
-0.0348458
0.00307717
0.0239056
0.0240667
-0.0103218
-0.0622997
-0.0820143
-0.0714364
-0.0658984
-0.0517233
-0.0398317
-0.0238608
-0.0112583
0.00141929
-0.0353978
-0.113627
-0.145903
-0.143017
-0.119551
-0.0890717
-0.0823567
-0.119692
-0.111702
-0.0495468
-0.0357979
-0.0127651
-0.0186085
-0.0482236
-0.0321102
0.0119321
0.031726
0.0372828
0.00566877
-0.0340339
-0.0492951
-0.0566783
-0.0469438
-0.0389519
-0.0304052
-0.013602
-0.0115748
-0.00284122
-0.0386031
-0.0920384
-0.121753
-0.111949
-0.0871699
-0.0634086
-0.0634829
-0.0995943
-0.0970075
-0.0347723
-0.0201977
-0.000108405
-0.00393181
-0.0386056
-0.0283864
0.0211933
0.0321769
0.0363222
0.0117402
-0.0179969
-0.0278412
-0.0350038
-0.0288273
-0.024898
-0.0168935
-0.000220596
-0.00568539
0.000226962
-0.0286805
-0.0631529
-0.0935468
-0.0798798
-0.0552626
-0.0395047
-0.0435415
-0.0734994
-0.0785391
-0.0205588
-0.00498248
0.0131981
0.012567
-0.027592
-0.0235704
0.0274637
0.0318558
0.0342409
0.0162665
-0.00529702
-0.012235
-0.0182227
-0.0162067
-0.0128291
-0.003574
0.0126572
0.0108848
0.0235191
0.000450025
-0.0271419
-0.0609119
-0.0504063
-0.0255819
-0.0145335
-0.0219945
-0.043755
-0.054799
-0.0075692
0.0088661
0.0261823
0.0307803
-0.0149238
-0.0176773
0.0310643
0.032107
0.0336711
0.0204759
0.00512059
-0.00101086
-0.00524137
-0.00272759
-0.000684884
0.00901125
0.0243602
0.0296712
0.0471431
0.0419953
0.00851682
-0.0285227
-0.0246845
-0.00109619
0.00763081
0.00280013
-0.0111032
-0.0268528
0.00347874
0.021419
0.0381218
0.0495653
-0.00100899
-0.0106866
0.0338234
0.0329823
0.0328096
0.0240408
0.0137867
0.00853544
0.00580269
0.00504739
0.00903686
0.0186278
0.0306437
0.0443614
0.0664563
0.0736292
0.0348769
-0.000419025
-0.00201299
0.0169091
0.0229044
0.0255677
0.0273696
0.00487031
0.0141793
0.0323151
0.0488277
0.069248
0.0127435
-0.00327682
0.0352886
0.0334876
0.0331017
0.0270884
0.0200385
0.0155478
0.0133525
0.0145399
0.0174937
0.0260616
0.0365983
0.048999
0.064524
0.0831027
0.0504997
0.0177182
0.0128373
0.0331511
0.0383271
0.0460651
0.0512351
0.032413
0.0249925
0.0417136
0.0588952
0.0901826
0.0296953
0.00358622
0.0365426
0.0343535
0.0333908
0.0293961
0.0248884
0.0215121
0.0197543
0.0203198
0.0230529
0.0304314
0.0403473
0.050257
0.0664217
0.0803868
0.0548268
0.0328169
0.0260064
0.0409972
0.0464892
0.0594923
0.0679558
0.0530992
0.0370535
0.0505198
0.0637505
0.0991856
0.0399391
0.00807467
0.0374395
0.0350371
0.0342417
0.0316173
0.0282624
0.0259815
0.0242165
0.0262861
0.0282358
0.034065
0.042871
0.049195
0.0583995
0.0735575
0.0570679
0.0384507
0.0344793
0.0489059
0.0538324
0.0650579
0.0687149
0.0616772
0.0471968
0.0534565
0.0660151
0.102794
0.0436431
0.00805936
0.0381584
0.0360154
0.0348685
0.0332823
0.0309397
0.0297908
0.0284582
0.0299134
0.0319976
0.0361995
0.0437554
0.0487109
0.057556
0.0670791
0.0563629
0.0452055
0.0411486
0.0511071
0.0555787
0.0658102
0.0691715
0.0635445
0.0551669
0.0559395
0.0638653
0.0996632
0.0479858
0.00847377
0.0386886
0.0368541
0.0357906
0.0348868
0.0331422
0.0324409
0.0314349
0.0331049
0.035071
0.03807
0.0440776
0.0482616
0.0544673
0.061051
0.0557384
0.0470209
0.0447473
0.0535728
0.0570247
0.0645825
0.0665319
0.0618847
0.0572631
0.0557645
0.0613236
0.0755921
0.0452753
0.0084725
0.039141
0.0377841
0.0367422
0.0362404
0.0349568
0.0346342
0.0342096
0.0354199
0.0374
0.0396246
0.0441018
0.0476227
0.0522543
0.0563227
0.0541139
0.0490422
0.047334
0.0537721
0.0557903
0.0616719
0.0637277
0.0590189
0.0578634
0.0544012
0.0565811
0.0697564
0.0437651
0.00951561
0.0396398
0.0385647
0.0377307
0.0374453
0.0366823
0.0364098
0.036253
0.0373119
0.0390419
0.0409051
0.0439543
0.0469583
0.0501885
0.0527152
0.0526274
0.0495431
0.0485149
0.0531859
0.0548902
0.0588849
0.0605917
0.0565133
0.0559188
0.052287
0.0533795
0.0590127
0.0403108
0.0102295
0.0400887
0.03926
0.0386911
0.0385404
0.0380517
0.0378214
0.0378716
0.0387992
0.0401793
0.0417475
0.0438291
0.0461296
0.0487222
0.0500751
0.0508968
0.0495848
0.0487687
0.0526115
0.0532074
0.05578
0.057222
0.0537537
0.0534357
0.0497777
0.0479763
0.0500926
0.0361478
0.0103865
0.0405368
0.0398765
0.0395267
0.0394138
0.0391747
0.0390207
0.039052
0.0399148
0.0409358
0.0422362
0.0436255
0.0453037
0.0473847
0.0481833
0.0492392
0.048897
0.0483819
0.0508933
0.0513851
0.0528405
0.0537648
0.0510247
0.0500011
0.0465563
0.043817
0.0427104
0.0312931
0.00981343
0.040941
0.0404169
0.0401843
0.0401918
0.0400169
0.0399257
0.0399356
0.0406859
0.0414455
0.0423881
0.043433
0.0445134
0.0462448
0.0467308
0.0475642
0.0478713
0.0474195
0.0491039
0.049399
0.0499927
0.0503901
0.0478943
0.0465262
0.0432693
0.0393089
0.0362784
0.0265835
0.00887897
0.041295
0.0408798
0.0407302
0.0407747
0.0406493
0.0406034
0.0405617
0.0411579
0.0417363
0.0423762
0.0431255
0.0438297
0.0451404
0.0455002
0.0460496
0.0465058
0.0462163
0.0471247
0.0472329
0.0472543
0.047028
0.0448387
0.0430567
0.039631
0.0353204
0.0312138
0.0223937
0.00773258
0.041597
0.0412826
0.0411485
0.041232
0.0411191
0.0410559
0.0409999
0.0414117
0.0418763
0.0422184
0.0427487
0.0431693
0.0440914
0.0443919
0.0446084
0.0450385
0.0447389
0.0451198
0.0450098
0.0445524
0.0438936
0.0417776
0.0395771
0.0362008
0.0317103
0.0268563
0.0187912
0.00662662
0.0418618
0.0415953
0.0414816
0.0415486
0.0414374
0.0413338
0.0412614
0.0415158
0.0418396
0.0419978
0.0422961
0.042546
0.0431107
0.0432935
0.0432908
0.0435215
0.0433284
0.0431744
0.0427481
0.0420233
0.0409379
0.0387848
0.0364184
0.0329892
0.028392
0.0233365
0.015957
0.00565422
0.0420789
0.0418413
0.0417249
0.0417486
0.041637
0.0414827
0.041393
0.0414999
0.0416998
0.0417092
0.0418046
0.0419149
0.0421721
0.042227
0.0420278
0.0420197
0.0417257
0.0412455
0.0405949
0.0396184
0.0382176
0.0360695
0.0334986
0.0300168
0.0255625
0.0204746
0.0136779
0.00482926
0.0422533
0.0420204
0.0418906
0.0418619
0.0417322
0.0415387
0.041401
0.0414019
0.0414641
0.0413661
0.0412935
0.0412633
0.0412968
0.0411781
0.0408346
0.0405911
0.040145
0.0394495
0.0385502
0.0373794
0.035792
0.0335471
0.0308601
0.0274356
0.0231072
0.0181246
0.0119011
0.00417988
0.0423962
0.0421531
0.0419988
0.0419076
0.0417515
0.041519
0.0413325
0.0412357
0.0411732
0.0409931
0.040778
0.0406212
0.0404634
0.0401809
0.0397135
0.0392483
0.0386588
0.0377743
0.0366692
0.035351
0.0335906
0.0312873
0.0285677
0.0251767
0.021019
0.0162522
0.0105174
0.00366692
0.0424798
0.0422281
0.0420397
0.041894
0.0417008
0.0414387
0.0412009
0.0410199
0.040853
0.040587
0.0402749
0.0399903
0.0396816
0.0392608
0.0386716
0.0380399
0.0372921
0.0362621
0.0350089
0.033538
0.0316724
0.0293375
0.0265879
0.0232715
0.0192993
0.014749
0.00943738
0.00327232
0.0425286
0.0422668
0.0420459
0.0418475
0.0416149
0.0413284
0.0410434
0.0407908
0.0405311
0.0401995
0.0398057
0.0394107
0.0389818
0.0384402
0.0377559
0.0369848
0.0360961
0.0349636
0.0335865
0.0320019
0.0300666
0.0277018
0.0249572
0.0217181
0.0179035
0.0135703
0.00861389
0.00297233
0.0425609
0.0422913
0.0420385
0.0417935
0.0415263
0.0412185
0.0408971
0.0405813
0.0402474
0.0398597
0.0394062
0.0389252
0.0383948
0.037762
0.0369998
0.0361236
0.0351282
0.033915
0.0324555
0.0307851
0.0287987
0.0264245
0.0236889
0.0205163
0.0168413
0.0126896
0.00800575
0.00275335
0.042549
0.0422765
0.0420014
0.0417236
0.0414295
0.041108
0.0407617
0.0404022
0.0400173
0.0395887
0.0390971
0.0385539
0.0379536
0.0372589
0.0364438
0.0354962
0.0344198
0.0331536
0.0316405
0.0299105
0.0278958
0.0255178
0.0227951
0.0196778
0.0161017
0.0120832
0.0075937
0.00260528
0.0425559
0.0422799
0.041992
0.0416947
0.0413842
0.0410527
0.0406917
0.0403077
0.0398931
0.0394409
0.0389274
0.038351
0.0377125
0.0369841
0.03614
0.035154
0.0340366
0.0327436
0.0312026
0.0294421
0.0274132
0.0250361
0.0223221
0.0192336
0.0157129
0.0117685
0.00738122
0.00252968
)
;

boundaryField
{
    outlet
    {
        type            fixedValue;
        value           uniform 0;
    }
    upperWall
    {
        type            symmetryPlane;
    }
    lowerWall
    {
        type            symmetryPlane;
    }
    inlet
    {
        type            zeroGradient;
    }
    cylinder
    {
        type            zeroGradient;
    }
    frontAndBack
    {
        type            empty;
    }
    procBoundary7to3
    {
        type            processor;
        value           nonuniform List<scalar> 
30
(
-0.477558
-0.354592
-0.311505
-0.315166
-0.392647
-0.487015
-0.502202
-0.400142
-0.334605
-0.274206
-0.277718
-0.321996
-0.33911
-0.300574
-0.29794
-0.26077
-0.193196
-0.1954
-0.220812
-0.231157
-0.188225
-0.169084
-0.176589
-0.195983
-0.158001
-0.129653
-0.161873
-0.146572
-0.0570343
-0.00489676
)
;
    }
    procBoundary7to6
    {
        type            processor;
        value           nonuniform List<scalar> 
42
(
-0.552653
-0.449144
-0.349069
-0.258802
-0.182834
-0.121809
-0.0589997
-0.0589997
-0.031248
-0.0127526
-0.00220954
0.00209794
0.00209794
0.00283178
0.000937656
0.00395893
0.0143178
0.0237492
0.0303878
0.0348673
0.037434
0.0389958
0.0397309
0.0400225
0.0401806
0.0403081
0.0404458
0.0406776
0.0409245
0.0411582
0.0414136
0.0416771
0.0419357
0.0421655
0.0423695
0.0425295
0.0426603
0.0427419
0.0427876
0.0428208
0.0428073
0.0428167
)
;
    }
}


// ************************************************************************* //
