/*--------------------------------*- C++ -*----------------------------------*\
| =========                 |                                                 |
| \\      /  F ield         | OpenFOAM: The Open Source CFD Toolbox           |
|  \\    /   O peration     | Version:                                        |
|   \\  /    A nd           | Website:  www.openfoam.com                      |
|    \\/     M anipulation  |                                                 |
\*---------------------------------------------------------------------------*/
FoamFile
{
    version     2.0;
    format      ascii;
    class       volVectorField;
    location    "54.5";
    object      U;
}
// * * * * * * * * * * * * * * * * * * * * * * * * * * * * * * * * * * * * * //

dimensions      [0 1 -1 0 0 0 0];


internalField   nonuniform List<vector> 
1147
(
(0.0497304 0.0542886 2.09863e-20)
(0.0368505 0.0405109 9.91603e-20)
(0.0233421 0.0246968 3.5425e-19)
(0.0105767 0.0128167 -4.85821e-19)
(-0.00170002 0.00219315 1.75753e-19)
(-0.0111278 -0.00328996 7.89089e-20)
(-0.0497617 0.0230953 -5.52698e-20)
(-0.0466944 0.0759629 3.29747e-19)
(0.0376988 0.0842963 -6.26295e-20)
(0.200832 -0.0217099 -5.42526e-20)
(0.0416913 0.0745931 1.24067e-19)
(0.0314711 0.0649198 5.32315e-19)
(0.0203519 0.0470361 -1.94969e-19)
(0.0112651 0.0337937 -2.81994e-20)
(0.012076 0.0333676 2.70337e-19)
(0.0538388 0.0596486 -4.5247e-19)
(0.241457 0.0570594 1.58323e-19)
(0.695294 -0.0670637 -1.52548e-19)
(0.916731 -0.163112 6.92522e-20)
(1.04482 -0.231964 3.5065e-21)
(0.0053601 0.0508666 -4.38366e-20)
(0.0113916 0.0607925 -3.96939e-19)
(0.0256837 0.0609862 7.90934e-20)
(0.0746521 0.0658391 -5.15781e-20)
(0.229331 0.0593588 -1.09693e-19)
(0.618694 -0.0155603 1.61877e-19)
(0.960726 -0.100758 -1.10684e-19)
(1.13591 -0.147725 -9.51769e-20)
(1.26239 -0.22711 4.60568e-21)
(1.31106 -0.286132 -1.03032e-20)
(0.0040971 0.0271598 5.31612e-20)
(0.041795 0.0531165 1.65441e-19)
(0.131929 0.0683752 -5.30378e-20)
(0.371355 0.0554029 -4.08374e-21)
(0.765088 -0.0117441 7.4195e-20)
(1.08636 -0.0879758 1.51594e-19)
(1.2463 -0.138636 2.4369e-19)
(1.31563 -0.176754 -8.66056e-20)
(1.36365 -0.234954 -9.71815e-20)
(1.35514 -0.268805 -1.79131e-20)
(0.0530293 0.0209234 4.92643e-19)
(0.158898 0.053366 -1.30642e-19)
(0.40597 0.0598989 5.74218e-20)
(0.803936 0.0124208 2.19629e-20)
(1.14275 -0.0641797 3.26545e-19)
(1.29055 -0.112076 -3.54545e-20)
(1.33697 -0.140654 -1.14356e-19)
(1.3687 -0.183134 2.29423e-19)
(1.36421 -0.220983 2.89254e-21)
(1.34552 -0.251255 4.0601e-20)
(0.168294 0.024855 -2.95656e-19)
(0.393821 0.0542393 -1.42627e-19)
(0.774812 0.0376345 1.23947e-19)
(1.14168 -0.0288699 -1.11559e-19)
(1.31851 -0.0847562 -4.64475e-20)
(1.34006 -0.107675 3.25354e-19)
(1.35923 -0.138309 -1.83766e-20)
(1.36592 -0.178023 -3.55308e-20)
(1.33639 -0.205433 -2.44242e-20)
(1.33211 -0.240161 1.73935e-20)
(0.381976 0.0502104 1.78088e-20)
(0.720727 0.0568099 1.68793e-19)
(1.0967 0.0111758 -1.52144e-19)
(1.32833 -0.0495968 2.3302e-19)
(1.35473 -0.0795389 -5.98515e-19)
(1.33673 -0.0962208 -2.21866e-19)
(1.36245 -0.135443 -4.25063e-20)
(1.33341 -0.165212 2.7422e-20)
(1.31887 -0.192903 6.42655e-21)
(1.30928 -0.229044 -8.10388e-21)
(0.674245 0.0864767 -6.04666e-20)
(1.02648 0.055238 5.07668e-19)
(1.30981 -0.00295363 -1.49545e-19)
(1.38201 -0.0485937 -2.34285e-20)
(1.32728 -0.0607305 2.64592e-19)
(1.33867 -0.0902721 1.29092e-19)
(1.34138 -0.128729 -1.32595e-19)
(1.30214 -0.150209 6.10651e-20)
(1.30731 -0.185936 -5.01234e-20)
(1.27893 -0.214081 1.54169e-20)
(0.948686 0.117704 5.16851e-19)
(1.25959 0.0598935 4.27486e-19)
(1.39828 -0.00255384 -3.20191e-19)
(1.34972 -0.0268822 3.53257e-21)
(1.3079 -0.046259 1.72298e-19)
(1.33776 -0.0878491 -7.0313e-20)
(1.30586 -0.11524 5.1106e-20)
(1.28657 -0.140748 2.09038e-20)
(1.29028 -0.176867 -7.49657e-20)
(1.25207 -0.198572 4.85597e-21)
(1.17533 0.146255 -4.07122e-19)
(1.37749 0.068677 -6.99678e-19)
(1.38327 0.0200417 7.97156e-19)
(1.30121 -0.00372873 -1.55024e-19)
(1.30628 -0.0402817 -1.86535e-19)
(1.3192 -0.0801498 -3.84968e-20)
(1.27346 -0.102128 1.2433e-19)
(1.27798 -0.134856 -1.18746e-19)
(1.26599 -0.16403 -9.31784e-21)
(1.2324 -0.187386 -4.25838e-21)
(1.38979 0.0929175 3.79693e-19)
(1.32169 0.0452065 -3.37933e-19)
(1.26739 0.0111906 1.07991e-19)
(1.30428 -0.0349804 1.12808e-19)
(1.28699 -0.0697283 -2.11827e-20)
(1.24697 -0.092165 4.53002e-20)
(1.27328 -0.128359 3.25856e-20)
(1.23015 -0.151762 4.64637e-20)
(1.2285 -0.177043 1.89898e-20)
(1.34504 0.110766 5.45414e-21)
(1.24426 0.0641594 1.59899e-19)
(1.25438 0.0206447 2.97404e-20)
(1.29395 -0.0329749 -2.06904e-19)
(1.23781 -0.0559011 -1.82566e-20)
(1.24597 -0.0870496 -1.19752e-19)
(1.24719 -0.121905 -1.11657e-20)
(1.21068 -0.138219 -1.96266e-20)
(1.21827 -0.172251 -1.14794e-20)
(1.19233 0.0775809 -1.75839e-19)
(1.26142 0.0152365 8.18713e-20)
(1.24844 -0.0235652 -2.31389e-19)
(1.21464 -0.0469444 -6.22237e-20)
(1.23939 -0.0868107 2.96566e-20)
(1.21916 -0.109383 -2.86326e-20)
(1.20029 -0.13345 3.53854e-20)
(1.20443 -0.161517 9.1596e-22)
(1.18417 0.0678506 2.78011e-19)
(1.23784 0.0154503 2.98771e-20)
(1.2102 -0.0172677 1.34019e-19)
(1.20066 -0.0444113 1.29479e-19)
(1.22535 -0.0837189 6.26779e-20)
(1.19234 -0.0994491 1.09233e-20)
(1.19452 -0.129851 -3.36928e-20)
(1.1817 -0.14909 6.59987e-21)
(1.2173 0.00991158 -6.39321e-20)
(1.17351 -0.0117502 -6.30099e-20)
(1.19145 -0.0472643 -9.52584e-20)
(1.20645 -0.0775447 1.798e-21)
(1.16855 -0.093893 -2.55144e-21)
(1.1926 -0.124716 7.77437e-21)
(1.15519 -0.138608 5.71795e-21)
(1.18642 0.00843043 7.56499e-20)
(1.13881 -0.0156853 1.15557e-19)
(1.1917 -0.0483793 -3.19157e-20)
(1.17539 -0.0747746 -8.48365e-21)
(1.16025 -0.0893598 7.49489e-20)
(1.18021 -0.12223 -3.46112e-20)
(1.13925 -0.128032 3.83024e-21)
(1.14018 0.000241187 4.42554e-20)
(1.12593 -0.0135269 -2.06989e-20)
(1.18905 -0.0554832 2.93793e-20)
(1.1389 -0.0672123 4.3839e-20)
(1.169 -0.0915421 1.92478e-20)
(1.15278 -0.114262 2.20505e-20)
(1.14022 -0.125327 3.46559e-21)
(1.13825 -0.0267599 -8.94274e-20)
(1.15709 -0.059606 -4.50928e-22)
(1.13589 -0.0622471 -8.72723e-20)
(1.15828 -0.0977505 1.15178e-20)
(1.14093 -0.101093 -2.26159e-20)
(1.13491 -0.129331 -5.95329e-21)
(1.11691 -0.0326763 -4.05797e-21)
(1.15554 -0.0544614 7.91295e-20)
(1.1151 -0.0618848 -1.38253e-20)
(1.15981 -0.0932518 -2.27069e-21)
(1.11565 -0.0984176 -4.34015e-21)
(1.14054 -0.121244 -3.49399e-21)
(1.14031 -0.0452854 5.66898e-20)
(1.12804 -0.054297 -1.58743e-19)
(1.10335 -0.0720398 3.9029e-21)
(1.15434 -0.0911126 -1.39906e-20)
(1.08971 -0.105228 1.11647e-20)
(1.14307 -0.115646 -8.14731e-22)
(0.0378679 0.430575 -2.03742e-20)
(0.0486868 0.397478 -4.61875e-20)
(0.054826 0.334762 -2.65033e-21)
(0.0584863 0.265983 -1.1319e-20)
(0.0599548 0.202047 1.58215e-19)
(0.0585868 0.150862 -4.49305e-20)
(0.0552395 0.111579 2.54137e-20)
(0.0561882 0.085188 3.41479e-19)
(0.0602971 0.0721088 3.09905e-19)
(0.0607543 0.0643518 -6.05658e-19)
(0.000989843 0.624227 2.60879e-20)
(-0.00137293 0.559262 -4.67367e-20)
(0.00127268 0.467955 -1.07428e-19)
(0.0116414 0.371583 4.2988e-20)
(0.0262398 0.282359 -2.68689e-19)
(0.0378108 0.211056 -1.09168e-19)
(0.0421799 0.155906 -8.73639e-20)
(0.053014 0.114114 5.36678e-20)
(0.0621776 0.0918274 -1.49921e-19)
(0.0610847 0.0830506 2.02457e-19)
(-0.0383828 0.69324 1.77725e-20)
(-0.0678558 0.616517 2.94526e-20)
(-0.0828417 0.512032 1.35609e-19)
(-0.0784712 0.391716 -9.58774e-20)
(-0.0563934 0.275816 3.48334e-19)
(-0.0323575 0.180417 7.98263e-20)
(-0.0242113 0.115619 2.87341e-19)
(-0.00607405 0.0636335 1.58594e-20)
(0.0127493 0.0377872 7.56414e-20)
(0.0189885 0.0417312 -3.19089e-20)
(-0.126726 0.731782 -1.31428e-20)
(-0.158134 0.622472 -8.17514e-20)
(-0.159694 0.483891 3.37943e-20)
(-0.128233 0.33776 -7.91968e-20)
(-0.0855124 0.203187 -3.32533e-19)
(-0.0690977 0.11491 1.09895e-19)
(-0.0431549 0.041701 -2.26035e-19)
(-0.013434 -0.00105444 -7.53945e-19)
(-0.00119518 0.00236287 -2.23662e-19)
(-0.141629 0.265784 5.13471e-19)
(-0.108652 0.150651 1.80761e-19)
(-0.0659779 0.0580019 -3.89926e-19)
(-0.0186523 -0.00106479 3.71144e-19)
(0.00870462 -0.00873702 3.76575e-19)
(-0.148907 0.198239 -1.04569e-19)
(-0.0819634 0.091062 -1.34333e-19)
(-0.00993401 0.015183 -4.73351e-19)
(0.0574501 -0.00372016 -8.60186e-20)
(-0.0817662 0.153317 8.2395e-20)
(0.0365379 0.0549247 6.13806e-20)
(0.171116 0.0299679 -2.26734e-20)
(0.15652 0.137603 2.52423e-19)
(0.38139 0.100131 1.75169e-19)
(0.630136 0.172481 -9.1737e-19)
(1.1001 -0.105568 -3.69082e-22)
(1.07469 -0.105711 3.02354e-21)
(1.09559 -0.0870913 -3.33944e-21)
(1.11108 -0.0831376 1.21678e-21)
(1.09978 -0.0736457 1.02208e-21)
(1.07808 -0.0688792 -1.84518e-22)
(1.06563 -0.0638839 -8.78831e-22)
(1.06135 -0.0613747 2.50634e-22)
(1.05771 -0.058428 4.57413e-22)
(1.0535 -0.0547718 -6.76072e-22)
(1.05055 -0.0507589 2.46242e-22)
(1.04859 -0.0467867 -3.09619e-23)
(1.04682 -0.0429035 2.42395e-22)
(1.04488 -0.0389791 -2.15539e-22)
(1.04267 -0.0350987 9.36684e-23)
(1.04032 -0.0313993 -4.02907e-23)
(1.0379 -0.0279702 9.91557e-24)
(1.03542 -0.0248607 -3.63258e-24)
(1.03299 -0.0220694 -1.24716e-24)
(1.03059 -0.0195279 -1.29334e-24)
(1.02828 -0.0172003 -6.13122e-24)
(1.02613 -0.0150583 -2.36311e-23)
(1.02413 -0.0130408 5.47072e-24)
(1.02234 -0.0111461 -5.55607e-23)
(1.02079 -0.00932602 -1.70581e-23)
(1.01946 -0.00754065 3.97494e-23)
(1.01838 -0.00582338 -6.61825e-25)
(1.01752 -0.00411578 -4.07523e-24)
(1.01692 -0.00242644 3.73178e-23)
(1.01662 -0.000802227 -8.6533e-23)
(1.11758 -0.0931899 -2.13038e-20)
(1.12682 -0.0941485 6.36214e-21)
(1.09701 -0.0843754 1.59766e-21)
(1.07478 -0.0851884 5.12778e-22)
(1.07245 -0.0802969 -2.2748e-22)
(1.07239 -0.0775757 -3.8983e-22)
(1.06807 -0.0722286 -1.44461e-21)
(1.06513 -0.066888 2.155e-21)
(1.065 -0.062051 5.52757e-22)
(1.06306 -0.0573184 -1.9665e-21)
(1.0587 -0.0522201 8.90025e-23)
(1.05442 -0.0472166 -3.76645e-23)
(1.05122 -0.0425488 1.85376e-22)
(1.04847 -0.0381364 -1.76153e-22)
(1.04552 -0.0341125 -4.19593e-23)
(1.04247 -0.0304854 1.65554e-22)
(1.03938 -0.0271499 -4.76538e-25)
(1.03642 -0.0241407 5.18227e-24)
(1.03369 -0.0214653 -6.52586e-23)
(1.03109 -0.0190595 -1.98582e-23)
(1.02865 -0.0168682 9.86158e-23)
(1.02642 -0.0148394 8.41656e-23)
(1.02436 -0.0129256 -7.43723e-24)
(1.02254 -0.0111154 1.06523e-22)
(1.02097 -0.00935282 -6.90251e-24)
(1.01963 -0.00760203 -5.25206e-23)
(1.01855 -0.00589666 4.83346e-23)
(1.0177 -0.00418285 6.77656e-24)
(1.01712 -0.00247453 -9.02738e-23)
(1.01682 -0.000818083 6.79385e-23)
(1.09652 -0.0800129 2.30189e-20)
(1.07149 -0.0825786 -2.64596e-22)
(1.09244 -0.0739637 -1.08159e-20)
(1.10958 -0.0747409 1.52834e-21)
(1.10294 -0.0694137 -4.38557e-21)
(1.0851 -0.0661016 5.03237e-21)
(1.07216 -0.061444 9.07978e-21)
(1.06547 -0.0584051 -5.55437e-21)
(1.06052 -0.0552107 7.04118e-22)
(1.05593 -0.0517056 1.99592e-21)
(1.05283 -0.0482225 -1.97952e-21)
(1.05075 -0.0445726 4.15263e-22)
(1.04863 -0.0405679 2.62247e-22)
(1.04621 -0.0365508 -6.20429e-22)
(1.04371 -0.0329098 1.17236e-22)
(1.04125 -0.0295475 6.87919e-23)
(1.03858 -0.0263729 8.51783e-23)
(1.03597 -0.023527 -2.79435e-23)
(1.03349 -0.0209665 -1.15688e-23)
(1.03101 -0.018621 -1.33283e-23)
(1.0287 -0.0165004 7.19763e-23)
(1.02657 -0.0145393 -8.70225e-25)
(1.02455 -0.0126824 -1.32022e-23)
(1.02279 -0.0109374 -2.9165e-22)
(1.02124 -0.0092285 2.84911e-22)
(1.01992 -0.00752363 -3.04518e-22)
(1.01886 -0.00585416 -3.62121e-23)
(1.01803 -0.00416391 -8.91988e-23)
(1.01747 -0.00246958 -2.40632e-23)
(1.01718 -0.000815856 1.3059e-22)
(1.13888 -0.0742475 4.04725e-20)
(1.12748 -0.077789 -2.35883e-20)
(1.08504 -0.0712491 -8.00079e-22)
(1.06611 -0.0726513 3.75713e-21)
(1.07064 -0.0707022 -6.47382e-21)
(1.07266 -0.067895 6.33748e-21)
(1.06779 -0.0640413 3.25229e-22)
(1.06551 -0.0615083 -5.54304e-21)
(1.06639 -0.058643 5.39452e-21)
(1.06421 -0.0544065 2.46952e-23)
(1.05994 -0.0499041 -1.65635e-21)
(1.05616 -0.0456212 1.94293e-21)
(1.05294 -0.0411576 -8.15341e-22)
(1.04963 -0.0366735 -5.76417e-22)
(1.04648 -0.0327244 3.21439e-22)
(1.04331 -0.0291654 -3.18872e-22)
(1.0399 -0.0258933 9.44876e-23)
(1.03689 -0.0230671 7.21515e-23)
(1.03408 -0.0205438 -2.99293e-22)
(1.0314 -0.0182899 2.90913e-22)
(1.02902 -0.0162843 -5.06404e-23)
(1.02682 -0.0143986 -9.00951e-23)
(1.02476 -0.0126257 -2.25688e-22)
(1.02301 -0.0109537 3.30391e-22)
(1.02144 -0.00928607 1.37927e-22)
(1.02012 -0.0076108 -1.85293e-22)
(1.01906 -0.00594982 1.38967e-23)
(1.01823 -0.00424871 1.72505e-22)
(1.01767 -0.0025285 1.13078e-22)
(1.01738 -0.000835365 -4.50518e-23)
(1.06675 -0.044223 4.44368e-20)
(1.07167 -0.052609 4.82311e-20)
(1.09851 -0.0582682 -2.19202e-20)
(1.11044 -0.0683463 -5.27759e-21)
(1.10326 -0.0682439 -7.82686e-21)
(1.08748 -0.0652481 8.89683e-21)
(1.07294 -0.0599569 -7.35023e-21)
(1.06566 -0.0564119 2.58504e-22)
(1.06134 -0.0528407 4.02603e-21)
(1.05756 -0.0490869 -2.04844e-21)
(1.05549 -0.0458039 1.50894e-21)
(1.05355 -0.042172 -2.14365e-22)
(1.0509 -0.0380196 -9.60867e-23)
(1.04798 -0.0342349 -1.79205e-22)
(1.04542 -0.0311052 1.47259e-22)
(1.04247 -0.0279511 1.1478e-22)
(1.0393 -0.0249588 -1.15601e-23)
(1.03659 -0.0223984 -4.30598e-23)
(1.03385 -0.0200014 9.29808e-23)
(1.03127 -0.0178567 2.32388e-22)
(1.02903 -0.0159478 -1.7922e-22)
(1.02687 -0.0141261 -1.34809e-22)
(1.02488 -0.0124208 1.51427e-22)
(1.02322 -0.0108104 -2.03049e-22)
(1.02168 -0.00918601 -1.97965e-22)
(1.0204 -0.00755478 2.40276e-22)
(1.01937 -0.00592534 -1.83902e-22)
(1.01857 -0.00424379 -1.04461e-22)
(1.01803 -0.00253265 3.97882e-23)
(1.01775 -0.000836678 -2.67853e-22)
(1.06357 -0.0495185 -5.02998e-21)
(1.05946 -0.0444512 1.46043e-21)
(1.05537 -0.0393238 -2.43731e-21)
(1.05187 -0.0349041 1.30988e-21)
(1.04865 -0.0312426 9.07024e-23)
(1.04476 -0.0277389 1.62551e-22)
(1.04116 -0.0247071 -3.9488e-23)
(1.03798 -0.0221206 -8.20816e-23)
(1.03474 -0.0196957 2.30603e-23)
(1.03194 -0.017652 -1.8012e-22)
(1.02953 -0.0158275 1.98329e-22)
(1.02718 -0.014052 3.04591e-22)
(1.02516 -0.0124308 1.9159e-22)
(1.02346 -0.0108758 2.59188e-22)
(1.02188 -0.00927794 -5.1996e-22)
(1.0206 -0.00767228 3.70501e-23)
(1.01956 -0.00604311 9.6677e-23)
(1.01876 -0.00434604 3.82084e-22)
(1.01823 -0.00260333 -8.1781e-23)
(1.01794 -0.000860844 -7.63641e-23)
(0.976425 -0.16932 -8.20855e-21)
(0.988474 -0.165112 1.27018e-21)
(1.00376 -0.158652 8.76879e-21)
(1.02236 -0.157095 2.17024e-20)
(1.03543 -0.154443 -2.16054e-20)
(1.0574 -0.148151 1.06857e-20)
(1.06595 -0.15093 2.44809e-20)
(1.06592 -0.139675 9.82412e-21)
(1.11396 -0.134315 -1.32827e-20)
(1.07643 -0.128256 7.62335e-22)
(0.97368 -0.177375 1.32307e-20)
(0.985899 -0.182578 -3.47873e-21)
(0.996074 -0.178488 3.37218e-21)
(1.01717 -0.176352 -1.88875e-20)
(1.03729 -0.172363 -6.13328e-21)
(1.04819 -0.165038 4.20213e-20)
(1.09236 -0.156698 -8.57217e-21)
(1.0667 -0.154722 -3.44601e-21)
(1.11773 -0.138488 -3.58878e-21)
(1.09879 -0.130544 -3.14135e-22)
(0.967258 -0.180858 7.42804e-21)
(0.987258 -0.193382 -1.39849e-21)
(1.00056 -0.190831 1.04325e-20)
(1.01521 -0.187802 -6.54468e-21)
(1.04905 -0.184498 -2.65645e-20)
(1.0454 -0.179605 -8.34136e-21)
(1.08454 -0.167028 -3.31578e-20)
(1.10029 -0.157397 -1.73528e-20)
(1.10601 -0.151861 -1.10601e-20)
(1.12925 -0.13142 2.03968e-21)
(0.959188 -0.190091 7.83044e-21)
(0.983649 -0.200203 -3.69724e-22)
(1.00842 -0.203132 -3.41939e-20)
(1.0149 -0.199859 2.04266e-21)
(1.05208 -0.192663 -8.39746e-21)
(1.07411 -0.18847 3.72231e-21)
(1.0736 -0.180673 3.67131e-20)
(1.1142 -0.167787 -1.38676e-21)
(1.1103 -0.155905 4.51171e-20)
(1.13965 -0.146541 4.18215e-21)
(0.953754 -0.205435 5.80103e-21)
(0.974508 -0.213029 4.04332e-21)
(1.00915 -0.212878 2.77089e-20)
(1.02814 -0.213615 2.55575e-20)
(1.03773 -0.206314 1.5292e-20)
(1.08614 -0.199743 2.455e-20)
(1.0868 -0.187469 -6.82336e-21)
(1.12161 -0.183471 1.27742e-20)
(1.11829 -0.160094 -2.27149e-21)
(1.15537 -0.158056 -6.22293e-21)
(0.955193 -0.222428 8.43947e-23)
(0.974034 -0.230485 -3.20455e-21)
(0.996804 -0.228974 -7.7304e-21)
(1.03757 -0.226603 -4.46018e-20)
(1.0458 -0.220268 1.37903e-20)
(1.07677 -0.214486 -1.62852e-20)
(1.09679 -0.200722 -5.87118e-21)
(1.12123 -0.191043 -1.81627e-20)
(1.13281 -0.174463 -3.10551e-21)
(1.15838 -0.161041 8.28476e-21)
(0.950348 -0.24155 -4.75193e-21)
(0.984318 -0.248222 -1.44604e-20)
(0.999923 -0.249017 1.30953e-20)
(1.03101 -0.244327 5.9124e-20)
(1.06172 -0.237517 3.44319e-20)
(1.07662 -0.227863 6.01989e-20)
(1.11203 -0.217669 4.39148e-22)
(1.11807 -0.201692 1.73731e-21)
(1.15406 -0.188017 -7.48761e-21)
(1.1555 -0.168882 7.68515e-21)
(0.937764 -0.260494 -9.21261e-21)
(0.978921 -0.26728 4.43455e-22)
(1.01531 -0.268432 -1.48728e-20)
(1.03132 -0.264384 -6.21363e-21)
(1.07429 -0.256554 -6.27611e-20)
(1.08337 -0.244699 -2.94581e-20)
(1.1261 -0.233959 3.70881e-20)
(1.12863 -0.214747 -4.52041e-20)
(1.1699 -0.202207 3.83958e-20)
(1.16467 -0.177029 -9.03529e-21)
(0.935626 -0.284358 4.94731e-21)
(0.96447 -0.286695 1.08518e-20)
(1.01406 -0.289072 -1.89095e-20)
(1.03989 -0.283238 -4.77284e-21)
(1.07467 -0.276305 -5.4769e-20)
(1.10269 -0.262114 1.34182e-20)
(1.12694 -0.249481 -6.38476e-20)
(1.15091 -0.230061 5.20516e-21)
(1.17443 -0.213733 -1.02919e-20)
(1.1842 -0.188292 -1.15258e-20)
(0.934915 -0.308261 6.72492e-22)
(0.968252 -0.313013 3.38437e-21)
(1.00355 -0.309454 -2.26243e-20)
(1.04962 -0.307022 -2.4134e-20)
(1.07273 -0.292746 1.11031e-19)
(1.11678 -0.284663 2.08844e-20)
(1.13231 -0.26161 1.68213e-20)
(1.16945 -0.249822 -8.25494e-21)
(1.18149 -0.221655 2.63556e-20)
(1.20713 -0.205635 1.0586e-20)
(0.927183 -0.336116 1.01942e-21)
(0.97572 -0.341133 -2.62083e-20)
(1.00555 -0.336872 7.57451e-20)
(1.05466 -0.331182 -5.37569e-20)
(1.08151 -0.317417 2.73042e-20)
(1.12594 -0.303812 -6.36653e-20)
(1.14402 -0.283123 -1.27271e-20)
(1.18648 -0.264765 -5.34903e-21)
(1.1914 -0.238078 5.54812e-21)
(1.23436 -0.21842 -1.12104e-21)
(0.92431 -0.367237 1.45265e-20)
(0.974443 -0.370781 2.04431e-20)
(1.01725 -0.367517 -4.46002e-20)
(1.05783 -0.357613 9.87738e-21)
(1.09937 -0.344294 1.31376e-20)
(1.13191 -0.32527 -1.13831e-20)
(1.16693 -0.305022 1.01432e-20)
(1.19465 -0.281604 1.9822e-20)
(1.21652 -0.254909 -1.09376e-20)
(1.24741 -0.231408 -2.72688e-20)
(0.923682 -0.402859 1.48421e-20)
(0.969562 -0.403001 -9.45479e-21)
(1.02748 -0.401015 3.95528e-22)
(1.06359 -0.387003 1.72591e-20)
(1.11646 -0.373612 5.30537e-20)
(1.14293 -0.34874 3.09439e-20)
(1.1887 -0.3289 4.22702e-20)
(1.20673 -0.298267 -2.23111e-20)
(1.24294 -0.274372 -3.85885e-20)
(1.25881 -0.24208 3.05483e-20)
(0.918448 -0.440428 6.68017e-21)
(0.971914 -0.441167 1.78729e-20)
(1.03127 -0.434837 -2.38133e-20)
(1.0785 -0.42131 -1.19627e-20)
(1.12811 -0.401956 -1.69601e-19)
(1.165 -0.377245 -6.93224e-20)
(1.20587 -0.350458 -1.31013e-19)
(1.22996 -0.319144 4.94675e-20)
(1.26597 -0.290753 1.46376e-20)
(1.27685 -0.255237 -2.04609e-20)
(0.910869 -0.484075 -7.95998e-21)
(0.976116 -0.485644 -2.11171e-22)
(1.0353 -0.474256 2.07199e-20)
(1.09407 -0.459928 -9.31007e-20)
(1.14105 -0.434357 -1.57641e-20)
(1.1895 -0.409155 7.57457e-20)
(1.22308 -0.374444 1.16749e-19)
(1.2595 -0.344182 -1.15004e-19)
(1.28466 -0.306648 5.13579e-20)
(1.30542 -0.274171 -7.05577e-22)
(0.910894 -0.534831 -2.94689e-20)
(0.981371 -0.532923 7.58672e-20)
(1.04768 -0.519396 8.13702e-21)
(1.1114 -0.499035 -1.03097e-20)
(1.16168 -0.469789 2.43255e-19)
(1.21569 -0.439494 -1.42814e-19)
(1.24631 -0.400976 -9.72217e-21)
(1.29146 -0.366392 6.70542e-20)
(1.30519 -0.324656 8.24396e-20)
(1.34014 -0.292205 8.86879e-21)
(0.910242 -0.595679 4.78222e-20)
(0.986583 -0.591961 -6.11479e-20)
(1.0626 -0.574181 -9.35509e-20)
(1.12999 -0.54883 1.37949e-19)
(1.1879 -0.510848 -7.25506e-20)
(1.24175 -0.473705 1.26136e-19)
(1.27815 -0.428663 2.36021e-19)
(1.31878 -0.38991 -6.31041e-20)
(1.33275 -0.34594 -8.33047e-20)
(1.36203 -0.311343 -2.36281e-20)
(0.910976 -0.659395 -1.6035e-19)
(0.996517 -0.655963 -5.6754e-20)
(1.07952 -0.635894 -4.90211e-21)
(1.1528 -0.609898 4.07501e-20)
(1.21606 -0.566732 -9.16127e-20)
(1.27008 -0.522899 1.19713e-19)
(1.30769 -0.465049 -1.58431e-19)
(1.33837 -0.421018 3.13397e-20)
(1.3437 -0.368677 -2.16541e-20)
(1.34914 -0.331557 -8.59589e-21)
(0.921795 -0.731798 1.19669e-19)
(1.0178 -0.711314 6.22522e-20)
(1.11587 -0.678017 1.26432e-20)
(1.18518 -0.630318 -4.70907e-20)
(1.2561 -0.575531 1.01621e-19)
(1.28725 -0.516216 -1.33432e-19)
(1.31542 -0.449079 -1.68022e-19)
(1.29158 -0.391943 -4.22273e-21)
(1.25917 -0.328171 6.91072e-21)
(1.17867 -0.29143 5.55181e-20)
(0.691001 -0.696507 8.12743e-20)
(0.769636 -0.669841 -3.21545e-19)
(0.838883 -0.631377 -3.08984e-20)
(0.879039 -0.568635 3.61923e-19)
(0.911429 -0.505364 -3.59203e-19)
(0.892246 -0.426151 1.39418e-19)
(0.876191 -0.358464 -9.33124e-20)
(0.772835 -0.276073 2.93775e-20)
(0.692457 -0.208909 5.80569e-20)
(0.455871 -0.146622 3.77288e-20)
(0.895878 -0.113091 -7.06124e-20)
(0.912328 -0.131102 -5.57762e-20)
(0.92985 -0.142972 2.00799e-20)
(0.952337 -0.151935 2.60498e-21)
(0.879335 -0.104252 -4.11533e-20)
(0.894896 -0.117918 -1.46448e-20)
(0.913281 -0.136658 1.53479e-20)
(0.932015 -0.148633 4.222e-20)
(0.953434 -0.154376 1.05333e-20)
(0.84493 -0.0694295 -4.67867e-20)
(0.856731 -0.0891454 1.67392e-20)
(0.871562 -0.112099 3.45677e-20)
(0.889337 -0.126556 1.09699e-19)
(0.909012 -0.145441 -1.64471e-20)
(0.928646 -0.16094 -5.86933e-20)
(0.945994 -0.164582 -7.73456e-21)
(0.814048 0.00150422 -4.2987e-21)
(0.816284 -0.0251555 3.97106e-20)
(0.822282 -0.0497074 4.31585e-21)
(0.832089 -0.0759511 -4.86023e-21)
(0.845321 -0.0968826 8.96885e-21)
(0.861006 -0.12243 -4.3809e-20)
(0.878992 -0.137016 -1.06969e-19)
(0.900365 -0.156655 9.37022e-20)
(0.923499 -0.175047 4.04954e-20)
(0.938342 -0.180934 -3.11929e-20)
(0.797443 0.00175731 -3.54606e-21)
(0.799908 -0.0276983 9.51721e-21)
(0.806555 -0.0545284 -3.08523e-22)
(0.816979 -0.0832982 -1.18871e-20)
(0.831066 -0.105748 5.89752e-20)
(0.848412 -0.1338 2.00986e-20)
(0.86659 -0.150949 5.87938e-21)
(0.886441 -0.167843 1.24606e-20)
(0.915463 -0.190272 2.59725e-20)
(0.933407 -0.198949 -9.81807e-21)
(0.778993 0.0020398 6.91178e-21)
(0.781794 -0.0305724 2.81727e-20)
(0.78893 -0.0597912 5.37264e-21)
(0.800101 -0.0912381 1.8093e-20)
(0.814455 -0.115431 -9.12696e-20)
(0.833901 -0.145484 6.69959e-20)
(0.854266 -0.166976 -1.91524e-20)
(0.871808 -0.181758 -3.69688e-20)
(0.903411 -0.203492 -5.16118e-21)
(0.928225 -0.21772 -7.4202e-21)
(0.757829 0.00206753 -6.16491e-21)
(0.761017 -0.0337181 2.78249e-20)
(0.768613 -0.0657605 -5.1164e-21)
(0.781214 -0.100021 -1.90746e-20)
(0.795909 -0.1265 -5.62506e-21)
(0.816859 -0.156795 -6.39395e-20)
(0.841808 -0.184797 8.8323e-20)
(0.858662 -0.198598 -3.84202e-20)
(0.889807 -0.219253 -7.42697e-21)
(0.916795 -0.235014 2.23396e-20)
(0.73431 0.0020469 -5.02343e-22)
(0.738092 -0.0372763 -2.91593e-20)
(0.746007 -0.0722992 -1.01411e-19)
(0.7601 -0.10954 8.95033e-21)
(0.775949 -0.139653 -4.05272e-20)
(0.797261 -0.168529 2.25171e-20)
(0.826897 -0.202183 -6.27643e-20)
(0.847786 -0.218783 5.94341e-20)
(0.879269 -0.236426 -9.37631e-21)
(0.908487 -0.255149 -2.05144e-20)
(0.707513 0.00161849 1.03124e-20)
(0.71184 -0.0412215 1.61452e-20)
(0.720377 -0.0797411 7.72695e-20)
(0.736283 -0.119883 6.39465e-21)
(0.754432 -0.15522 -2.10407e-20)
(0.776323 -0.182491 6.79296e-21)
(0.808711 -0.219649 -5.50883e-20)
(0.835481 -0.24099 2.55248e-20)
(0.868438 -0.257847 -1.63673e-20)
(0.90178 -0.275446 2.85415e-20)
(0.67802 0.00134618 -1.6693e-20)
(0.683056 -0.0458103 -3.62715e-20)
(0.692504 -0.0881229 -2.13509e-20)
(0.709765 -0.130782 4.99705e-20)
(0.73089 -0.172634 4.72761e-20)
(0.754727 -0.200025 2.9926e-20)
(0.787519 -0.237457 -3.98261e-20)
(0.821394 -0.264476 -2.24946e-21)
(0.86021 -0.282448 -1.22377e-20)
(0.893205 -0.299895 -8.86426e-21)
(0.644686 0.00072966 1.7547e-20)
(0.650259 -0.0510054 7.45956e-21)
(0.661181 -0.0980499 2.94673e-20)
(0.680238 -0.142989 -8.02352e-20)
(0.70405 -0.191062 2.27552e-20)
(0.732979 -0.221974 -2.63261e-20)
(0.765784 -0.258457 -9.3017e-20)
(0.80057 -0.288636 -1.00033e-20)
(0.847777 -0.309587 -5.50596e-20)
(0.889047 -0.328221 -2.7959e-20)
(0.608105 0.000274584 -3.48294e-20)
(0.614475 -0.0570326 5.90334e-20)
(0.627181 -0.109451 3.93195e-20)
(0.648147 -0.157105 -3.19466e-20)
(0.673465 -0.210162 3.4213e-20)
(0.708197 -0.247071 4.40682e-20)
(0.745801 -0.283522 9.54208e-20)
(0.782855 -0.316277 7.67152e-20)
(0.828063 -0.337574 1.1408e-20)
(0.882392 -0.358597 3.82957e-20)
(0.56654 -0.000606288 2.26963e-20)
(0.573453 -0.0639238 2.02336e-20)
(0.58799 -0.122719 -4.13542e-20)
(0.612518 -0.174569 2.03836e-20)
(0.63939 -0.230677 -1.26549e-19)
(0.679566 -0.275464 -1.3819e-20)
(0.721198 -0.313338 -2.49504e-20)
(0.765311 -0.348364 3.81761e-20)
(0.812368 -0.371975 -1.17226e-20)
(0.865787 -0.390754 -3.18993e-20)
(0.520612 -0.00178535 -4.08738e-21)
(0.528517 -0.0718593 -4.74323e-20)
(0.544749 -0.137277 -1.95754e-20)
(0.572828 -0.195713 9.48381e-20)
(0.601765 -0.25407 2.3061e-19)
(0.646886 -0.305583 -3.18249e-20)
(0.696496 -0.347997 -7.37787e-20)
(0.743873 -0.384123 -2.59e-20)
(0.801034 -0.410979 -1.32179e-20)
(0.853331 -0.42942 7.68566e-21)
(0.467277 -0.00353038 -1.48089e-20)
(0.476078 -0.0813305 6.41423e-20)
(0.494056 -0.153575 -2.65284e-20)
(0.526915 -0.220815 -3.57477e-20)
(0.56051 -0.28289 -2.41568e-19)
(0.60741 -0.340325 1.3812e-19)
(0.665974 -0.387497 7.84233e-20)
(0.720737 -0.427676 -5.75286e-20)
(0.783432 -0.454817 6.10505e-20)
(0.845437 -0.47599 4.41181e-21)
(0.407724 -0.00583408 1.08014e-20)
(0.418328 -0.0926784 2.68932e-20)
(0.439307 -0.171878 5.0239e-21)
(0.473412 -0.248463 -7.618e-20)
(0.514743 -0.315846 1.3993e-19)
(0.566114 -0.379245 -2.03077e-19)
(0.631766 -0.431099 4.02012e-20)
(0.696589 -0.475816 4.90152e-20)
(0.767818 -0.50564 -6.36995e-20)
(0.837372 -0.526481 1.64556e-20)
(0.337261 -0.00854561 1.44211e-20)
(0.348314 -0.106745 7.51965e-21)
(0.375559 -0.194959 5.99698e-20)
(0.412956 -0.282015 -8.51072e-20)
(0.460157 -0.35686 1.62972e-19)
(0.515079 -0.426421 4.81214e-20)
(0.590569 -0.48346 5.39512e-20)
(0.662067 -0.532036 -1.30211e-22)
(0.747627 -0.566124 2.57484e-20)
(0.824247 -0.587802 9.05257e-21)
(0.258069 -0.0125033 -1.25015e-20)
(0.270757 -0.121419 -4.18747e-20)
(0.304272 -0.220819 -1.47174e-19)
(0.345095 -0.318389 1.27717e-19)
(0.406787 -0.40295 -1.84232e-19)
(0.464094 -0.479263 -4.37694e-20)
(0.550827 -0.541301 -4.96101e-20)
(0.630051 -0.592493 -1.85652e-20)
(0.727317 -0.62894 -1.10731e-20)
(0.815138 -0.652429 3.945e-20)
(0.159446 -0.0167743 1.81265e-20)
(0.172316 -0.140462 -5.4767e-21)
(0.214103 -0.256929 1.59703e-20)
(0.256446 -0.36857 5.29945e-20)
(0.329828 -0.468695 1.53265e-19)
(0.401201 -0.555515 -9.3307e-21)
(0.497893 -0.626499 1.46542e-20)
(0.594756 -0.678758 1.69862e-20)
(0.705348 -0.715919 8.24419e-21)
(0.809975 -0.731488 2.07692e-21)
(0.052636 -0.0223963 6.73962e-21)
(0.0637343 -0.135429 -3.66323e-20)
(0.0971667 -0.244353 3.94846e-20)
(0.136023 -0.349207 1.07307e-20)
(0.193311 -0.445839 -1.67549e-20)
(0.260747 -0.530743 -1.01276e-19)
(0.337882 -0.599674 7.79899e-20)
(0.424595 -0.650394 -1.04075e-20)
(0.512809 -0.685515 -2.68492e-20)
(0.603835 -0.698363 6.35173e-20)
(0.944039 -0.117115 -2.14343e-21)
(0.909917 -0.130068 1.6005e-20)
(0.92318 -0.141109 -6.42302e-20)
(0.941143 -0.149966 -1.98862e-20)
(0.959933 -0.112701 0)
(0.968751 -0.118767 0)
(0.973778 -0.117065 0)
(0.981142 -0.110642 0)
(0.994574 -0.102863 0)
(1.00376 -0.094898 0)
(1.0034 -0.0874012 0)
(1.00233 -0.0805141 0)
(1.00642 -0.0742521 0)
(1.01195 -0.0682479 0)
(1.0161 -0.0625645 0)
(1.01902 -0.0572076 0)
(1.0208 -0.0523746 0)
(1.02155 -0.0478026 0)
(1.02196 -0.0433367 0)
(1.02236 -0.0390121 0)
(1.02267 -0.0349195 0)
(1.02274 -0.0310406 0)
(1.02249 -0.0273893 0)
(1.02199 -0.0240152 0)
(1.02125 -0.0208897 0)
(1.02035 -0.0180072 0)
(1.01932 -0.0153471 0)
(1.01821 -0.0128896 0)
(1.01708 -0.0106107 0)
(1.01597 -0.00845627 0)
(1.01499 -0.00637494 0)
(1.01421 -0.00430036 0)
(1.01345 -0.00240937 0)
(1.01267 -0.000788593 0)
(0.964239 -0.153355 0)
(0.977505 -0.129842 0)
(0.984171 -0.11646 0)
(0.989687 -0.108569 0)
(0.999422 -0.102612 0)
(1.00956 -0.097279 0)
(1.01238 -0.0907058 0)
(1.0107 -0.0836053 0)
(1.01116 -0.0769516 0)
(1.01444 -0.0707862 0)
(1.01814 -0.0647209 0)
(1.02116 -0.0590402 0)
(1.02293 -0.0539967 0)
(1.02358 -0.0493407 0)
(1.02375 -0.0447961 0)
(1.02395 -0.0403613 0)
(1.0241 -0.0360747 0)
(1.02403 -0.0320013 0)
(1.02368 -0.0282136 0)
(1.02305 -0.0247013 0)
(1.0222 -0.0214543 0)
(1.02118 -0.018474 0)
(1.02002 -0.015726 0)
(1.01879 -0.0131943 0)
(1.01754 -0.0108534 0)
(1.01633 -0.00865 0)
(1.01526 -0.00653231 0)
(1.01444 -0.00440663 0)
(1.01375 -0.00243393 0)
(1.01307 -0.000778836 0)
(0.98292 -0.148695 5.12357e-21)
(0.986583 -0.138041 -4.07586e-21)
(0.986985 -0.128089 2.94472e-21)
(0.991308 -0.117834 -3.80743e-21)
(1.00353 -0.109031 1.8234e-21)
(1.01283 -0.101187 -6.50146e-23)
(1.01283 -0.0935859 -3.20206e-22)
(1.0111 -0.086145 9.53595e-23)
(1.014 -0.0790035 -5.20483e-22)
(1.01888 -0.0721217 5.08129e-22)
(1.02276 -0.0657307 -5.84611e-22)
(1.02528 -0.0598637 4.84467e-22)
(1.02664 -0.0546579 -2.1619e-22)
(1.02708 -0.049756 9.84235e-23)
(1.02716 -0.0449124 7.47709e-23)
(1.02713 -0.0401908 -1.70014e-22)
(1.02693 -0.0357427 1.37878e-22)
(1.02646 -0.0316051 -2.08507e-22)
(1.02569 -0.0277714 2.45949e-22)
(1.02471 -0.0242665 -6.18775e-22)
(1.02354 -0.0210533 4.49222e-22)
(1.02225 -0.0181116 -2.55982e-22)
(1.02087 -0.0154132 5.26396e-22)
(1.01946 -0.0129332 -5.03383e-22)
(1.01806 -0.0106428 3.46423e-22)
(1.01673 -0.00849034 -3.34052e-23)
(1.01556 -0.00642649 -2.56751e-22)
(1.0147 -0.00434349 1.00178e-22)
(1.01409 -0.0023808 -1.3001e-23)
(1.01357 -0.000750765 1.58789e-22)
(1.00152 -0.135701 1.20513e-22)
(1.00237 -0.124694 8.81751e-22)
(1.00445 -0.1141 -2.58288e-21)
(1.01369 -0.107786 3.6847e-21)
(1.02313 -0.102424 -2.74021e-22)
(1.02488 -0.0965306 -1.6399e-21)
(1.02149 -0.0893757 1.32545e-21)
(1.0207 -0.082181 -2.92149e-22)
(1.0233 -0.0755786 1.49224e-21)
(1.02611 -0.0694399 -6.64398e-22)
(1.02816 -0.0634136 -1.89721e-21)
(1.02964 -0.0578354 2.41946e-21)
(1.03029 -0.0529123 -1.242e-21)
(1.03026 -0.0482054 -1.39513e-22)
(1.02993 -0.0435373 4.34536e-22)
(1.02954 -0.0390304 -3.29452e-22)
(1.02899 -0.0347748 -6.67608e-23)
(1.02817 -0.0307979 -3.08197e-22)
(1.02711 -0.0271485 7.97393e-22)
(1.02588 -0.0237915 4.31682e-22)