/*--------------------------------*- C++ -*----------------------------------*\
| =========                 |                                                 |
| \\      /  F ield         | OpenFOAM: The Open Source CFD Toolbox           |
|  \\    /   O peration     | Version:                                        |
|   \\  /    A nd           | Website:  www.openfoam.com                      |
|    \\/     M anipulation  |                                                 |
\*---------------------------------------------------------------------------*/
FoamFile
{
    version     2.0;
    format      ascii;
    class       surfaceScalarField;
    location    "167";
    object      phi;
}
// * * * * * * * * * * * * * * * * * * * * * * * * * * * * * * * * * * * * * //

dimensions      [0 3 -1 0 0 0 0];
oriented        oriented;


internalField   nonuniform List<scalar> 
2227
(
0.0022239
0.0480843
-0.0511206
0.00521565
0.0477433
-0.050735
0.00819547
0.0471447
-0.0501245
0.0111237
0.0462161
-0.0491443
0.013986
0.0450027
-0.0478651
-0.0461728
0.00209118
0.0451496
0.00499572
0.0448387
0.00788267
0.0442577
0.0107237
0.00197674
0.00481885
-0.000461634
0.0538607
-0.00121811
0.0537895
-0.00186592
0.0536808
-0.00236884
0.0535359
-0.00269305
0.0533572
-0.00280834
0.0531483
-0.00269036
0.052915
-0.00231681
0.0526595
-0.00165996
0.0523761
0.052076
-0.000703005
-0.000298581
0.0537429
-0.00021146
0.0537024
-0.000147142
0.0536165
-9.95775e-05
0.0534884
-6.37899e-05
0.0533214
-3.13926e-05
0.0531159
3.61914e-06
0.05288
3.97475e-05
0.0526233
5.75754e-05
0.0523583
0.0520577
7.59359e-05
-0.00338764
0.0546359
-0.00432738
0.0546421
-0.0052711
0.0545602
-0.00617662
0.0543939
-0.00699208
0.0541369
-0.00767305
0.0537969
-0.00815472
0.0533617
-0.00836773
0.0528363
-0.0082204
0.052211
0.0515451
-0.00770777
-0.00121401
0.0544964
-0.00100697
0.0544351
-0.000711841
0.0542651
-0.000300196
0.0539822
0.00024506
0.0535916
0.000957073
0.0530849
0.00184632
0.0524724
0.00293926
0.0517434
0.00424464
0.0509056
0.049979
0.00581066
-0.0010069
0.0551945
-0.00166419
0.0550924
-0.00225072
0.0548516
-0.00274117
0.0544727
-0.00309987
0.0539503
-0.00330793
0.0532929
-0.00332799
0.0524925
-0.00315191
0.0515673
-0.00275517
0.0505089
0.0494136
-0.00218969
-0.000869229
0.0550821
-0.000720119
0.0549433
-0.000515242
0.0546467
-0.000231509
0.054189
0.000141214
0.0535776
0.000620943
0.0528132
0.00119381
0.0519196
0.00187113
0.05089
0.00264843
0.0497316
0.0485376
0.00352437
-0.000258327
0.0556178
-0.000711671
0.0553966
-0.00106718
0.0550022
-0.00132045
0.0544422
-0.00146086
0.053718
-0.00149559
0.0528479
-0.00140887
0.0518329
-0.00122493
0.050706
-0.000934478
0.0494411
0.048087
-0.000483815
0.000262474
0.0555732
0.000264733
0.0553943
0.000234665
0.0550323
0.000188748
0.0544881
0.000129105
0.0537776
7.67473e-05
0.0529003
2.62644e-05
0.0518834
3.23315e-06
0.0507291
-7.50606e-06
0.0494519
0.048097
-1.75313e-05
-0.0015081
0.0560213
-0.00193201
0.0558182
-0.00230674
0.055407
-0.00261813
0.0547995
-0.00284146
0.054001
-0.00298218
0.053041
-0.00300313
0.0519043
-0.0028985
0.0506244
-0.00259738
0.0491507
0.0475676
-0.00206804
-0.000286075
0.0559507
-0.000211634
0.0557438
-0.000140722
0.0553361
-6.60612e-05
0.0547249
-2.32679e-06
0.0539372
8.18781e-05
0.0529568
0.000150778
0.0518354
0.000252329
0.0505229
0.000395909
0.0490072
0.0473566
0.000606938
-0.00118808
0.0562875
-0.00159171
0.0561474
-0.0020308
0.0557752
-0.00248727
0.0551813
-0.00289559
0.0543456
-0.0032425
0.0533037
-0.00340229
0.0519952
-0.00338885
0.0505095
-0.00312579
0.0487441
0.0467841
-0.00255325
-0.00142614
0.0562085
-0.00131943
0.0560407
-0.0011675
0.0556233
-0.000943796
0.0549576
-0.000652146
0.0540539
-0.000256029
0.0529076
0.000189897
0.0515493
0.000719998
0.0499794
0.00120327
0.0482608
0.0463411
0.00164629
-0.00135715
0.0564439
-0.00159258
0.0562762
-0.00182327
0.055854
-0.00205851
0.0551929
-0.0022866
0.054282
-0.00253819
0.0531592
-0.00275113
0.0517622
-0.00291303
0.0501413
-0.00283379
0.0481816
0.0461072
-0.00259994
-0.00109711
0.0563789
-0.00104147
0.0562205
-0.000973499
0.055786
-0.000850851
0.0550702
-0.000640417
0.0540716
-0.00024095
0.0527597
0.00032359
0.0511977
0.00118494
0.0492799
0.00223164
0.0471349
0.0446692
0.00366971
-0.00125704
0.0564779
-0.00133066
0.0562941
-0.00135374
0.0558091
-0.00132553
0.055042
-0.00121261
0.0539586
-0.00106088
0.052608
-0.000798431
0.0509352
-0.000574602
0.0490561
-0.000306696
0.046867
0.0444982
-0.00013576
-0.000950107
0.0563374
-0.000783645
0.0561277
-0.000587203
0.0556126
-0.000341422
0.0547962
-6.27195e-05
0.0536799
0.000293361
0.0522519
0.000667456
0.0505612
0.00126582
0.0484577
0.00202268
0.0461101
0.043458
0.00306292
-0.000942665
0.0563477
-0.000927695
0.0561127
-0.000881734
0.0555667
-0.000789456
0.054704
-0.000616027
0.0535065
-0.000372502
0.0520084
6.40659e-05
0.0501246
0.00047623
0.0480456
0.000942525
0.0456438
0.0430858
0.00131467
-0.000639348
0.0561523
-0.000425057
0.0558984
-0.000170837
0.0553124
0.000126722
0.0544064
0.000452243
0.053181
0.000850386
0.0516102
0.00117274
0.0498022
0.00155235
0.0476659
0.00185969
0.0453365
0.0428039
0.00214159
-0.000716971
0.0560626
-0.000600639
0.0557821
-0.000468049
0.0551799
-0.000293884
0.0542322
-9.24712e-05
0.0529796
0.000117089
0.0514007
0.000392091
0.0495272
0.00066169
0.0473963
0.00106777
0.0449304
0.0422617
0.00161002
-0.00049938
0.0558098
-0.000225213
0.0555079
8.24427e-05
0.0548722
0.000387202
0.0539275
0.000726569
0.0526402
0.00108853
0.0510387
0.00146932
0.0491464
0.00195181
0.0469139
0.00230823
0.044574
0.041806
0.00276386
-0.000560983
0.0556235
-0.000361859
0.0553088
-0.000144847
0.0546552
0.000106605
0.053676
0.000340033
0.0524068
0.000598861
0.0507799
0.00085497
0.0488903
0.00112694
0.0466419
0.00150404
0.0441969
0.0414378
0.0018723
-0.000389568
0.0552899
-4.0071e-05
0.0549593
0.000304681
0.0543104
0.000657778
0.0533229
0.00102233
0.0520422
0.00141382
0.0503884
0.00182778
0.0484764
0.00227229
0.0461974
0.00266588
0.0438033
0.0408959
0.00320773
-0.000461971
0.0549948
-0.000167884
0.0546652
0.000151146
0.0539914
0.000443253
0.0530308
0.000745988
0.0517395
0.00104681
0.0500876
0.00132936
0.0481938
0.00167909
0.0458476
0.00205949
0.0434229
0.0404472
0.00250819
-0.000344706
0.0545651
9.00364e-05
0.0542305
0.000515177
0.0535663
0.000944781
0.0526012
0.00137484
0.0513094
0.0018418
0.0496206
0.0023074
0.0477282
0.00279445
0.0453606
0.00330346
0.0429139
0.0399087
0.003842
-0.000406946
0.0541552
6.70116e-06
0.0538168
0.000406118
0.0531668
0.000793549
0.0522138
0.00117621
0.0509268
0.00156028
0.0492365
0.00194254
0.047346
0.00234187
0.0449613
0.00271721
0.0425385
0.0394278
0.00319814
-0.000316186
0.0536218
0.000211964
0.0532887
0.000735059
0.0526438
0.00125549
0.0516934
0.00177443
0.0504079
0.0023136
0.0486974
0.0028505
0.0468091
0.00342747
0.0443843
0.0040182
0.0419478
0.038846
0.00459999
-0.000370188
0.0530999
0.000154346
0.0527641
0.000659816
0.0521383
0.00116338
0.0511898
0.00165678
0.0499145
0.00215071
0.0482034
0.00263615
0.0463236
0.00311557
0.0439049
0.00357731
0.0414861
0.038401
0.00402231
-0.000294138
0.0524684
0.000344245
0.0521258
0.000976279
0.0515062
0.00161405
0.050552
0.00224936
0.0492792
0.00288903
0.0475638
0.00354152
0.0456711
0.00420083
0.0432456
0.00487656
0.0408103
0.00543741
-0.000337293
0.0518484
0.000305132
0.0514833
0.00093276
0.0508786
0.00156669
0.0499181
0.00219877
0.0486471
0.00281389
0.0469486
0.00342988
0.0450551
0.00401979
-0.000263824
0.000484482
0.0012386
0.00201242
0.00279443
0.00357025
-0.000476908
0.0476025
-0.000263732
0.0509348
-0.000157711
0.0545918
-0.000174656
0.058511
-0.00029429
0.0626733
-0.00048881
0.0670896
-0.000675681
0.0717246
-0.000752525
0.0765795
-0.000652178
0.0817118
-0.000388788
0.0872268
-1.46895e-05
0.0931881
0.000359599
0.0996814
0.000681381
0.106678
0.000890749
0.114217
0.000921396
0.122337
0.000809576
0.130972
0.00061857
0.140133
0.000430045
0.149843
0.000275874
0.160195
0.00017103
0.171253
0.000105333
0.183092
7.05325e-05
0.195764
5.38128e-05
0.20933
4.69169e-05
0.223847
4.34447e-05
0.239379
3.98762e-05
0.255992
3.53217e-05
0.273759
3.72032e-05
0.292752
2.0578e-05
0.313089
0.334821
-0.000682964
0.0483614
-0.0013788
0.0516307
-0.00170007
0.0549131
-0.00154264
0.0583535
-0.00103004
0.0621607
-0.000358427
0.066418
0.000269968
0.0710962
0.000740598
0.0761089
0.00103923
0.0814132
0.00116739
0.0870986
0.00105518
0.0933004
0.000693864
0.100043
0.000103083
0.107269
-0.00051351
0.114833
-0.000926184
0.122749
-0.00107808
0.131124
-0.000992062
0.140047
-0.000779182
0.14963
-0.000537408
0.159953
-0.00033051
0.171046
-0.000176399
0.182938
-7.3184e-05
0.195661
-6.73329e-06
0.209263
3.31927e-05
0.223807
5.51361e-05
0.239357
7.03246e-05
0.255977
8.14259e-05
0.273748
8.55991e-05
0.292748
3.88427e-05
0.313135
0.33486
-0.00766532
0.0483189
-0.00735373
0.0513191
-0.00685938
0.0544187
-0.00631676
0.0578109
-0.0056947
0.0615386
-0.00490821
0.0656315
-0.00407105
0.0702591
-0.00348043
0.0755183
-0.00344744
0.0813802
-0.0038689
0.0875201
-0.00445286
0.0938843
-0.00483659
0.100426
-0.00486633
0.107299
-0.00456143
0.114528
-0.00394178
0.12213
-0.00315227
0.130334
-0.00235779
0.139253
-0.00170277
0.148975
-0.00119547
0.159446
-0.000826975
0.170678
-0.000558014
0.182669
-0.000369122
0.195472
-0.000232301
0.209127
-0.000135954
0.223711
-6.55511e-05
0.239286
-1.57926e-05
0.255927
2.73653e-05
0.273705
6.59717e-05
0.292709
3.77501e-05
0.313164
0.334897
0.0065671
0.0475625
0.00697231
0.0509139
0.00682663
0.0545644
0.00607959
0.0585579
0.00482003
0.0627982
0.00326762
0.0671839
0.00179358
0.0717331
0.000705615
0.0766062
0.000140871
0.081945
-3.79774e-05
0.0876989
0.000118085
0.0937283
0.000523316
0.100021
0.00112983
0.106692
0.00172031
0.113938
0.00203422
0.121816
0.00202957
0.130339
0.00176295
0.139519
0.00138912
0.149349
0.00102503
0.15981
0.000752134
0.170951
0.000570251
0.182851
0.000456262
0.195586
0.000382716
0.2092
0.000330171
0.223763
0.00029158
0.239325
0.000257697
0.255961
0.000227971
0.273735
0.000199169
0.292738
9.93406e-05
0.313263
0.334997
-0.00217811
0.0475509
-0.00202622
0.050762
-0.00170539
0.0542436
-0.00125867
0.0581112
-0.000798776
0.0623383
-0.000416945
0.0668021
-0.000158364
0.0714745
2.82723e-05
0.0764196
0.000259444
0.0817138
0.000593277
0.0873651
0.000940471
0.0933811
0.00118406
0.0997777
0.00129052
0.106586
0.00131185
0.113916
0.0012417
0.121886
0.00109223
0.130488
0.000910967
0.139701
0.000762018
0.149498
0.000653719
0.159918
0.000581588
0.171023
0.000528918
0.182904
0.000494514
0.19562
0.000465337
0.209229
0.000438888
0.22379
0.00040536
0.239358
0.000363093
0.256003
0.000310162
0.273788
0.000257483
0.292791
0.000136081
0.313385
0.335133
0.00365997
0.0474153
0.00363591
0.0507861
0.00342364
0.0544559
0.00301753
0.0585173
0.00250629
0.0628496
0.00198546
0.0673229
0.00153393
0.0719261
0.00122506
0.0767285
0.00108889
0.08185
0.00108955
0.0873644
0.00119773
0.0932729
0.00135366
0.0996217
0.00147382
0.106465
0.00151827
0.113872
0.00149885
0.121905
0.00143937
0.130548
0.0013612
0.139779
0.0012765
0.149583
0.00118937
0.160006
0.00110187
0.17111
0.00101664
0.182989
0.000934695
0.195702
0.000850566
0.209313
0.000763756
0.223876
0.000671347
0.239451
0.000576006
0.256099
0.000469123
0.273895
0.00035232
0.292908
0.000182222
0.313555
0.335315
-0.000380241
0.0473117
-0.000215114
0.0506209
2.24005e-05
0.0542183
0.00038096
0.0581588
0.000782912
0.0624476
0.0010925
0.0670133
0.00125855
0.07176
0.00133411
0.0766529
0.00149808
0.081686
0.0018172
0.0870453
0.00223061
0.0928595
0.00256887
0.0992835
0.00274766
0.106287
0.00272697
0.113893
0.00250726
0.122125
0.00219453
0.130861
0.00188239
0.140091
0.00163331
0.149832
0.00144363
0.160195
0.00129565
0.171258
0.00117371
0.183111
0.00106918
0.195807
0.000969912
0.209413
0.000870208
0.223976
0.000764271
0.239557
0.000647123
0.256216
0.000517916
0.274024
0.000380944
0.293045
0.000200127
0.313736
0.335515
-0.000517848
0.047812
-0.00100788
0.051111
-0.00128842
0.0544989
-0.00130355
0.0581739
-0.00106935
0.0622134
-0.000599869
0.0665438
1.13544e-05
0.0711488
0.000646718
0.0760176
0.0011288
0.0812039
0.00140734
0.0867668
0.00144329
0.0928235
0.00128866
0.0994381
0.000996792
0.106579
0.000704158
0.114185
0.000557954
0.122271
0.000562112
0.130856
0.000688568
0.139964
0.000859902
0.14966
0.00101433
0.160041
0.00110492
0.171168
0.00112744
0.183088
0.00109433
0.19584
0.00102424
0.209483
0.000931027
0.224069
0.000819334
0.239668
0.000695251
0.25634
0.000557574
0.274161
0.000402029
0.2932
0.0002078
0.31393
0.335723
-0.0019003
0.0476443
-0.00147271
0.0506834
-0.000932161
0.0539583
-0.000463141
0.0577049
-0.000100104
0.0618504
0.000149143
0.0662946
0.000290966
0.071007
0.000335092
0.0759734
0.00033418
0.0812048
0.000305356
0.0867956
0.000279913
0.092849
0.000276686
0.0994413
0.000300739
0.106555
0.000347476
0.114139
0.000433009
0.122186
0.000568539
0.130721
0.000725319
0.139808
0.000873638
0.149512
0.000982344
0.159932
0.00104393
0.171106
0.00106141
0.183071
0.00103467
0.195866
0.000972315
0.209545
0.000881756
0.22416
0.000773063
0.239777
0.000649578
0.256463
0.000516304
0.274295
0.000373144
0.293343
0.000194927
0.314108
0.335918
0.000480505
0.0477707
0.000224795
0.0509391
-6.77317e-05
0.0542509
-0.000221539
0.0578587
-0.000160616
0.0617894
8.81974e-05
0.0660457
0.000473291
0.0706219
0.000857661
0.0755891
0.00114973
0.0809128
0.00132127
0.0866241
0.00135253
0.0928177
0.00128254
0.0995113
0.00113066
0.106706
0.00096462
0.114305
0.000850631
0.1223
0.000817061
0.130754
0.000870589
0.139754
0.000965277
0.149417
0.00105251
0.159845
0.00110442
0.171054
0.00111224
0.183063
0.00107814
0.1959
0.00101174
0.209611
0.000918025
0.224254
0.000803464
0.239892
0.000673444
0.256593
0.000532763
0.274435
0.000380034
0.293496
0.000194418
0.314294
0.336112
-0.00242236
0.0476398
-0.00224742
0.0507641
-0.00198359
0.053987
-0.00145853
0.0573336
-0.000691414
0.0610223
0.000117388
0.0652369
0.000678833
0.0700604
0.000864912
0.075403
0.00065821
0.0811195
0.000199933
0.0870823
-0.000263624
0.0932813
-0.000530457
0.0997781
-0.000523572
0.1067
-0.000302561
0.114084
4.52389e-05
0.121952
0.000394513
0.130405
0.000672744
0.139476
0.000857264
0.149233
0.000974534
0.159728
0.00102983
0.170999
0.00103282
0.18306
0.000991673
0.195942
0.000921045
0.209682
0.000829356
0.224345
0.000725276
0.239996
0.000608434
0.25671
0.00048176
0.274562
0.000348214
0.29363
0.000179957
0.314462
0.336292
0.00155699
0.0477291
0.00122014
0.051101
0.000884342
0.0543228
0.000521911
0.0576961
0.000161041
0.0613832
3.14711e-05
0.0653665
0.000308584
0.0697833
0.000879225
0.0748323
0.00146681
0.0805319
0.00180911
0.08674
0.00185217
0.0932382
0.00168468
0.0999456
0.00149832
0.106886
0.00139555
0.114186
0.0013941
0.121954
0.00144892
0.13035
0.00148853
0.139436
0.00148056
0.149241
0.00142693
0.159781
0.00134629
0.171079
0.00125531
0.183151
0.00115367
0.196043
0.00103911
0.209797
0.000912841
0.224472
0.000778309
0.24013
0.0006396
0.256849
0.000499845
0.274702
0.000356232
0.293773
0.000180332
0.314638
0.336472
-0.00259797
0.0477272
-0.00192903
0.0504321
-0.00109601
0.0534898
-0.000563978
0.057164
-0.000489888
0.0613091
-0.000798545
0.0656752
-0.00121034
0.0701951
-0.00136412
0.0749861
-0.00112646
0.0802942
-0.000590687
0.0862043
-1.03235e-05
0.0926578
0.000460828
0.0994745
0.000744151
0.106603
0.000882885
0.114048
0.000965582
0.121871
0.00104452
0.130271
0.00112617
0.139355
0.00119187
0.149175
0.00122064
0.159752
0.00120299
0.171097
0.00114584
0.183208
0.00106327
0.196126
0.000966692
0.209893
0.000857727
0.224581
0.000737426
0.240251
0.000607819
0.256978
0.000473657
0.274836
0.000340149
0.293907
0.000172547
0.314806
0.336645
0.00453646
0.0468604
0.00478797
0.0501805
0.00471632
0.0535615
0.00455103
0.0573293
0.00431461
0.0615455
0.00396703
0.0660228
0.00341787
0.0707443
0.00265892
0.0757451
0.00188294
0.0810702
0.00133266
0.0867546
0.00117015
0.0928203
0.00138324
0.0992614
0.00178733
0.106198
0.00217291
0.113662
0.00237369
0.12167
0.00237461
0.130271
0.00222239
0.139507
0.00199986
0.149398
0.00177443
0.159978
0.00157623
0.171295
0.0014026
0.183382
0.00124409
0.196284
0.00109053
0.210047
0.000939991
0.224731
0.000790832
0.2404
0.000643034
0.257126
0.000496808
0.274982
0.000352576
0.294051
0.000176079
0.314982
0.336821
-0.000349334
0.047074
-0.000190664
0.0500219
0.000156009
0.0532148
0.000565712
0.0569196
0.000997166
0.0611141
0.00141282
0.0656071
0.00182268
0.0703344
0.00216564
0.0754021
0.00234137
0.0808945
0.00232167
0.0867743
0.00217803
0.092964
0.00199805
0.0994414
0.00189162
0.106305
0.00188513
0.113669
0.0019293
0.121626
0.00195282
0.130247
0.00192055
0.139539
0.00182163
0.149497
0.00167629
0.160123
0.00151185
0.17146
0.00135161
0.183542
0.00120212
0.196434
0.0010589
0.21019
0.000916789
0.224873
0.000772664
0.240544
0.000627083
0.257272
0.000481741
0.275128
0.000342394
0.29419
0.000171793
0.315153
0.336993
0.00387529
0.0462616
0.00427137
0.0496258
0.00422153
0.0532646
0.00391356
0.0572276
0.00356747
0.0614602
0.00319808
0.0659765
0.00279697
0.0707355
0.00245182
0.0757472
0.00225562
0.0810907
0.0022416
0.0867883
0.00236665
0.0928389
0.00254015
0.0992679
0.00268651
0.106159
0.00275375
0.113601
0.00271344
0.121666
0.00258757
0.130373
0.0023964
0.13973
0.00218177
0.149711
0.00195473
0.16035
0.00173133
0.171683
0.00151886
0.183754
0.00132234
0.19663
0.00114002
0.210372
0.000968871
0.225044
0.000805478
0.240707
0.000647026
0.25743
0.000492977
0.275282
0.000346312
0.294337
0.000171826
0.315327
0.337165
0.00111221
0.0464641
0.00102177
0.0497162
0.00123486
0.0530515
0.00168883
0.0567736
0.00221349
0.0609355
0.00272748
0.0654625
0.00311752
0.0703455
0.00328952
0.0755753
0.0032778
0.0811024
0.0031696
0.0868965
0.00305557
0.092953
0.00296739
0.0993561
0.00290797
0.106218
0.00283344
0.113676
0.00269767
0.121802
0.00249842
0.130572
0.00227327
0.139955
0.00205102
0.149933
0.00183768
0.160564
0.00164024
0.171881
0.00145413
0.183941
0.00127912
0.196805
0.00111066
0.210541
0.000947964
0.225207
0.000788642
0.240867
0.000630964
0.257588
0.000476795
0.275436
0.000330821
0.294483
0.00016591
0.315492
0.337331
0.00248632
0.0461194
0.00273096
0.0494716
0.00266851
0.053114
0.00235913
0.057083
0.00205611
0.0612385
0.0019199
0.0655987
0.00200014
0.0702652
0.00224765
0.0753277
0.00255473
0.0807953
0.00281723
0.086634
0.00298496
0.0927852
0.0030471
0.0992939
0.00303585
0.106229
0.00296688
0.113745
0.00283844
0.12193
0.00264624
0.130764
0.00241169
0.14019
0.00216203
0.150183
0.00192304
0.160803
0.00170253
0.172101
0.00149775
0.184145
0.00130729
0.196996
0.00112696
0.210721
0.000956183
0.225378
0.00079214
0.241031
0.000632092
0.257748
0.000475259
0.275593
0.000324968
0.294633
0.00016222
0.315655
0.337493
0.00160592
0.0461234
0.00183539
0.0492421
0.00235026
0.0525991
0.00289765
0.0565356
0.00315354
0.0609826
0.00309984
0.0656524
0.00291634
0.0704487
0.00278299
0.0754611
0.00277334
0.080805
0.00287569
0.0865316
0.00301621
0.0926447
0.00311558
0.0991945
0.00311238
0.106232
0.00301576
0.113841
0.00283867
0.122107
0.00261655
0.130986
0.00236987
0.140437
0.00211568
0.150437
0.00187109
0.161047
0.00164763
0.172325
0.00144651
0.184346
0.00126203
0.19718
0.0010879
0.210895
0.000922509
0.225543
0.000762927
0.24119
0.000608333
0.257903
0.000452747
0.275748
0.00030603
0.29478
0.000155053
0.315806
0.337648
0.00299444
0.0458929
0.00283645
0.0494001
0.00251673
0.0529188
0.00234031
0.056712
0.0023684
0.0609546
0.00248719
0.0655336
0.00260583
0.0703301
0.00274041
0.0753265
0.0028869
0.0806585
0.00301761
0.0864009
0.00309811
0.0925642
0.00308914
0.0992035
0.00298813
0.106333
0.00281697
0.114013
0.00261264
0.122312
0.00240121
0.131198
0.00220218
0.140636
0.0020072
0.150632
0.00181158
0.161243
0.00161488
0.172521
0.00142278
0.184539
0.00123881
0.197364
0.00106569
0.211068
0.000901387
0.225707
0.000744221
0.241347
0.000592875
0.258054
0.00044273
0.275898
0.00029196
0.294931
0.000149341
0.315948
0.337797
0.00209756
0.0456676
0.00271871
0.048779
0.00331214
0.0523254
0.00360532
0.0564188
0.00362011
0.0609398
0.00342157
0.0657322
0.00311183
0.0706398
0.00283516
0.0756032
0.00271926
0.0807744
0.00277308
0.0863471
0.00290859
0.0924287
0.00301233
0.0990998
0.00301019
0.106336
0.00288929
0.114134
0.00267709
0.122524
0.00242586
0.131449
0.00217218
0.140889
0.00194363
0.150861
0.00173682
0.16145
0.00154499
0.172713
0.00136179
0.184722
0.00118567
0.19754
0.00101729
0.211237
0.000857192
0.225868
0.000705158
0.241499
0.00055894
0.2582
0.000414888
0.276042
0.00026826
0.295077
0.000139074
0.316078
0.337936
0.00318861
0.0456867
0.00285842
0.0491092
0.00269396
0.0524899
0.00279537
0.0563174
0.00304917
0.060686
0.00330838
0.065473
0.00346839
0.0704798
0.00346819
0.0756034
0.00334107
0.0809015
0.00319433
0.0864938
0.00305649
0.0925665
0.00292537
0.0992309
0.00276709
0.106494
0.0025705
0.11433
0.00235533
0.122739
0.00213998
0.131664
0.00194435
0.141085
0.0017674
0.151038
0.00160467
0.161612
0.00144646
0.172871
0.00128691
0.184881
0.00112727
0.1977
0.000971137
0.211393
0.000819937
0.226019
0.000674721
0.241645
0.000534747
0.25834
0.000395781
0.276181
0.000249788
0.295223
0.000129952
0.316197
0.338066
0.00283306
0.0453619
0.00336916
0.048573
0.00367499
0.0521841
0.0037392
0.0562532
0.00365236
0.0607728
0.00351194
0.0656134
0.00338675
0.070605
0.00325877
0.0757314
0.00314568
0.0810146
0.00304964
0.0865899
0.00296887
0.0926473
0.00288348
0.0993163
0.00276371
0.106614
0.00259689
0.114497
0.00238974
0.122946
0.0021637
0.131891
0.00193487
0.141314
0.00172565
0.151247
0.00154007
0.161798
0.00137312
0.173038
0.0012148
0.18504
0.00106113
0.197854
0.000910977
0.211543
0.000766708
0.226163
0.000629009
0.241782
0.000496624
0.258472
0.000364932
0.276313
0.000224847
0.295363
0.000118469
0.316304
0.338185
0.00376785
0.045436
0.00348552
0.0488554
0.00336741
0.0523022
0.00340492
0.0562157
0.0034843
0.0606934
0.00359572
0.065502
0.00366226
0.0705385
0.00361475
0.0757789
0.00346328
0.081166
0.00324869
0.0868045
0.00301387
0.0928821
0.00278158
0.0995486
0.0025376
0.106858
0.00229551
0.114739
0.00207698
0.123165
0.00188539
0.132082
0.00171873
0.14148
0.00156515
0.151401
0.00141899
0.161944
0.00127653
0.173181
0.00113525
0.185181
0.000995002
0.197994
0.000857346
0.211681
0.000723517
0.226297
0.000593882
0.241912
0.000469171
0.258597
0.000343619
0.276439
0.000205939
0.295501
0.000108855
0.316401
0.338294
0.0034798
0.0451543
0.00386098
0.0484742
0.00404927
0.0521139
0.00405442
0.0562106
0.00398062
0.0607672
0.00386777
0.0656148
0.00373279
0.0706735
0.00358664
0.075925
0.00339667
0.081356
0.00316182
0.0870393
0.00292496
0.093119
0.00269638
0.0997771
0.00248076
0.107073
0.00226636
0.114953
0.00205426
0.123377
0.00185618
0.13228
0.0016734
0.141663
0.00150649
0.151567
0.00135316
0.162097
0.00120829
0.173326
0.00106727
0.185322
0.000929531
0.198132
0.000796146
0.211814
0.000668591
0.226424
0.000546889
0.242034
0.000430559
0.258714
0.000313006
0.276556
0.000182456
0.295632
9.75928e-05
0.316486
0.338391
0.00444224
0.0453121
0.00400157
0.0489149
0.00363293
0.0524825
0.00348466
0.0563588
0.00350396
0.0607479
0.00358094
0.0655378
0.00362896
0.0706254
0.00359738
0.0759566
0.00346006
0.0814933
0.00322861
0.0872708
0.00293872
0.0934089
0.00263184
0.100084
0.00232938
0.107376
0.00205466
0.115228
0.00182464
0.123607
0.00163729
0.132468
0.00148956
0.141811
0.00136139
0.151696
0.00123996
0.162219
0.00111774
0.173448
0.000993902
0.185446
0.000868994
0.198257
0.000746494
0.211937
0.000627642
0.226543
0.000512961
0.242148
0.000403313
0.258823
0.000292275
0.276667
0.000165438
0.295759
8.85838e-05
0.316563
0.33848
0.00421701
0.0451174
0.0044374
0.0486945
0.00440286
0.0525171
0.00418824
0.0565735
0.00396199
0.0609742
0.00379225
0.0657076
0.00366252
0.0707552
0.00352751
0.0760916
0.00333211
0.0816887
0.00307445
0.0875284
0.00278221
0.0937011
0.00248534
0.100381
0.00221718
0.107644
0.00197712
0.115468
0.00176671
0.123817
0.00158374
0.132651
0.00142474
0.14197
0.00128601
0.151834
0.00116196
0.162343
0.00104249
0.173567
0.000923109
0.185565
0.000804058
0.198376
0.000687872
0.212053
0.000575336
0.226656
0.000468713
0.242255
0.000366348
0.258926
0.000264145
0.276769
0.000145328
0.295877
7.85031e-05
0.316629
0.338558
0.00520079
0.00446972
0.00398075
0.00369801
0.00355645
0.00348725
0.0034423
0.00337641
0.0032522
0.00304727
0.00276381
0.00244427
0.00212542
0.00184322
0.00161701
0.00143951
0.00129944
0.00117957
0.00107029
0.000963328
0.000857136
0.000750573
0.000644055
0.000538745
0.000438195
0.000342202
0.000245804
0.000131949
7.09634e-05
)
;

boundaryField
{
    outlet
    {
        type            calculated;
        value           nonuniform 0();
    }
    upperWall
    {
        type            symmetryPlane;
        value           nonuniform 0();
    }
    lowerWall
    {
        type            symmetryPlane;
        value           uniform 0;
    }
    inlet
    {
        type            calculated;
        value           nonuniform List<scalar> 
40
(
-0.053033
-0.053033
-0.053033
-0.053033
-0.053033
-0.053033
-0.053033
-0.053033
-0.053033
-0.053033
-0.0478286
-0.051148
-0.0546978
-0.058494
-0.0625537
-0.0668951
-0.0715378
-0.0765027
-0.0818122
-0.0874902
-0.0935622
-0.100056
-0.107
-0.114426
-0.122367
-0.13086
-0.139942
-0.149655
-0.160041
-0.171148
-0.183026
-0.195729
-0.209313
-0.22384
-0.239375
-0.255988
-0.273755
-0.292754
-0.313072
-0.3348
)
;
    }
    cylinder
    {
        type            calculated;
        value           nonuniform 0();
    }
    frontAndBack
    {
        type            empty;
        value           nonuniform 0();
    }
    procBoundary0to1
    {
        type            processor;
        value           nonuniform List<scalar> 
45
(
0.01676
0.0433988
0.044248
0.043375
0.0135185
0.042208
0.0422889
0.0419966
0.0076369
0.0414397
0.0378401
0.0426557
0.00461854
0.0402116
0.00437738
0.045354
0.0494256
0.053006
0.0568562
0.0611157
0.0657768
0.0708001
0.0761575
0.081813
0.0877334
0.0939846
0.1007
0.107963
0.11575
0.124044
0.132828
0.14211
0.151954
0.162452
0.173674
0.185671
0.198482
0.212159
0.226761
0.242355
0.259022
0.276866
0.295991
0.31669
0.338629
)
;
    }
    procBoundary0to4
    {
        type            processor;
        value           nonuniform List<scalar> 
33
(
0.000812474
0.00084345
0.000884042
-0.00036602
0.000416355
0.00249458
0.00135358
0.000308718
0.000981712
-0.000277384
-0.000217917
0.00106006
0.000356677
0.000851244
0.00150517
0.00112171
0.00116211
0.001158
0.00109063
0.000932364
0.000834723
0.000806746
0.00075213
0.00074728
0.000723151
0.000757079
0.000774377
0.000816879
0.000849572
0.000892082
0.000925658
0.000957269
0.000991623
)
;
    }
}


// ************************************************************************* //
