/*--------------------------------*- C++ -*----------------------------------*\
| =========                 |                                                 |
| \\      /  F ield         | OpenFOAM: The Open Source CFD Toolbox           |
|  \\    /   O peration     | Version:                                        |
|   \\  /    A nd           | Website:  www.openfoam.com                      |
|    \\/     M anipulation  |                                                 |
\*---------------------------------------------------------------------------*/
FoamFile
{
    version     2.0;
    format      ascii;
    class       volScalarField;
    location    "197";
    object      p;
}
// * * * * * * * * * * * * * * * * * * * * * * * * * * * * * * * * * * * * * //

dimensions      [0 2 -2 0 0 0 0];


internalField   nonuniform List<scalar> 
1147
(
-0.732339
-0.718196
-0.70574
-0.699096
-0.697882
-0.699127
-0.700924
-0.723116
-0.708238
-0.668117
-0.737303
-0.716819
-0.703118
-0.698532
-0.702264
-0.703336
-0.689247
-0.697734
-0.701634
-0.663292
-0.752844
-0.712659
-0.69468
-0.692179
-0.694011
-0.69178
-0.680941
-0.664477
-0.647776
-0.616092
-0.773777
-0.712114
-0.681501
-0.677795
-0.676273
-0.662495
-0.645626
-0.622017
-0.593523
-0.563498
-0.802716
-0.717536
-0.673699
-0.659456
-0.646151
-0.624462
-0.602923
-0.576751
-0.545279
-0.515422
-0.833918
-0.728254
-0.670784
-0.640253
-0.61236
-0.583874
-0.559856
-0.532536
-0.501716
-0.472118
-0.848301
-0.733692
-0.665385
-0.619746
-0.578013
-0.544609
-0.518615
-0.490514
-0.461441
-0.432316
-0.837107
-0.722796
-0.646539
-0.590877
-0.542271
-0.507215
-0.479627
-0.451121
-0.423767
-0.395129
-0.789582
-0.683584
-0.60792
-0.550346
-0.503675
-0.4699
-0.44179
-0.414147
-0.388311
-0.360302
-0.692855
-0.605971
-0.544652
-0.496793
-0.459123
-0.430511
-0.404298
-0.378874
-0.354795
-0.327847
-0.501549
-0.465602
-0.434645
-0.409324
-0.388216
-0.366562
-0.344831
-0.322697
-0.297677
-0.39605
-0.384303
-0.371217
-0.357748
-0.344659
-0.329026
-0.311558
-0.291907
-0.269344
-0.310787
-0.310973
-0.308547
-0.302261
-0.292474
-0.279365
-0.262623
-0.2425
-0.248009
-0.258551
-0.263934
-0.262885
-0.258202
-0.248633
-0.23528
-0.217451
-0.213626
-0.22447
-0.22741
-0.226649
-0.220307
-0.209614
-0.194644
-0.174625
-0.189182
-0.19627
-0.197428
-0.194717
-0.185829
-0.173661
-0.141185
-0.157727
-0.168192
-0.171462
-0.170631
-0.164472
-0.15411
-0.131097
-0.141815
-0.148573
-0.148438
-0.144621
-0.136307
-0.107314
-0.118598
-0.127148
-0.128961
-0.126089
-0.119897
-0.0848521
-0.0982998
-0.106569
-0.110815
-0.109283
-0.104748
-0.926215
-0.870203
-0.766304
-0.650957
-0.574425
-0.564929
-0.608411
-0.688968
-0.726781
-0.738917
-0.899326
-0.845873
-0.757968
-0.663695
-0.598304
-0.591226
-0.629724
-0.709354
-0.74373
-0.751681
-0.932966
-0.880269
-0.797565
-0.710146
-0.650351
-0.643712
-0.681774
-0.753963
-0.783487
-0.781423
-0.936991
-0.861876
-0.780006
-0.722851
-0.718181
-0.760797
-0.826345
-0.848356
-0.829471
-0.797516
-0.848015
-0.914214
-0.934861
-0.893766
-0.915433
-0.984436
-1.00289
-0.945007
-1.01426
-1.03164
-0.967183
-1.01685
-0.953702
-0.894751
-0.0900282
-0.074362
-0.0594598
-0.0462343
-0.0345457
-0.0244023
-0.0151871
-0.00709915
-2.41998e-05
0.00627339
0.0118273
0.0164535
0.0204048
0.0239324
0.0269536
0.0295933
0.0319477
0.033974
0.0357149
0.0372182
0.0384947
0.0395428
0.0403822
0.0409882
0.0414198
0.0417069
0.0419003
0.0419936
0.041934
0.04193
-0.0923071
-0.0742736
-0.057744
-0.043795
-0.0317744
-0.0215735
-0.0126156
-0.00489885
0.00185889
0.00799431
0.0132977
0.0175365
0.0213476
0.0247888
0.027604
0.0300951
0.0323252
0.0342206
0.0358638
0.0372733
0.0384587
0.0394513
0.0402662
0.040866
0.0413157
0.0416056
0.0417916
0.0418771
0.0418381
0.0418547
-0.0908871
-0.0698433
-0.051516
-0.0369082
-0.0253703
-0.0162401
-0.00814889
-0.00123885
0.00486046
0.0108555
0.0156442
0.0192778
0.0229362
0.0261383
0.0286102
0.0309225
0.0329569
0.0346591
0.0361767
0.0374625
0.0385245
0.0394295
0.0401736
0.0407382
0.0411921
0.0414786
0.04167
0.0417602
0.0417395
0.0417749
-0.0852279
-0.0635917
-0.0456705
-0.0327688
-0.022254
-0.0126913
-0.00417805
0.00217928
0.00802102
0.0140265
0.017915
0.0210552
0.0248
0.0275826
0.0297083
0.031903
0.033688
0.035192
0.0365829
0.0377329
0.0386803
0.039503
0.0401543
0.0406731
0.0411057
0.0413691
0.0415638
0.0416566
0.0416458
0.0416937
-0.0759457
-0.0523615
-0.0359989
-0.0259583
-0.0172048
-0.00819811
-0.000714287
0.00459633
0.010941
0.0166334
0.0192652
0.022561
0.0264361
0.0285661
0.0306148
0.0327527
0.0342721
0.0356677
0.0369505
0.0379817
0.0388528
0.0396152
0.0401833
0.0406735
0.0410654
0.0412944
0.0414864
0.0415711
0.0415611
0.0416132
0.0197707
0.0241582
0.0274423
0.0289208
0.0313073
0.0332514
0.0345665
0.0359724
0.0371498
0.0381072
0.0389531
0.0396772
0.0401984
0.040691
0.0410346
0.0412392
0.0414276
0.0414968
0.0414839
0.0415347
0.0527638
0.0357735
0.0192288
0.000618901
-0.0182707
-0.0371946
-0.0550753
-0.0706444
-0.0845491
-0.0965273
0.0542471
0.0366885
0.0187438
-0.00189125
-0.0228639
-0.0434799
-0.0633127
-0.080865
-0.0966415
-0.109922
0.0551913
0.0351444
0.0149145
-0.00775868
-0.0307017
-0.0529261
-0.0743484
-0.0934238
-0.109876
-0.124364
0.0561336
0.0325634
0.00965866
-0.0150454
-0.0401255
-0.0637809
-0.0865045
-0.107022
-0.124528
-0.140154
0.0568881
0.0299334
0.00402539
-0.0227285
-0.0498932
-0.0753567
-0.0992242
-0.121436
-0.140707
-0.157477
0.057073
0.0270489
-0.00185778
-0.0308659
-0.0600543
-0.0876367
-0.113051
-0.136686
-0.158376
-0.176769
0.0564708
0.0234748
-0.0085002
-0.0398927
-0.0712529
-0.100888
-0.12834
-0.153557
-0.177122
-0.198125
0.0550183
0.0189595
-0.0162138
-0.0501504
-0.0837473
-0.11573
-0.145033
-0.172495
-0.197405
-0.220977
0.0525725
0.0133525
-0.0251907
-0.0619807
-0.0977032
-0.132259
-0.163706
-0.19306
-0.219982
-0.245261
0.0489181
0.00641792
-0.0355597
-0.0756507
-0.113724
-0.15053
-0.184542
-0.215657
-0.244602
-0.271653
0.0438389
-0.00222091
-0.0476902
-0.0912459
-0.132291
-0.171151
-0.207627
-0.240718
-0.271492
-0.30006
0.0370335
-0.0129625
-0.0622383
-0.109238
-0.153572
-0.19478
-0.233397
-0.268381
-0.301064
-0.330768
0.0280389
-0.0264164
-0.0797867
-0.130605
-0.178106
-0.222141
-0.262523
-0.299334
-0.333513
-0.3643
0.0161844
-0.0434421
-0.101137
-0.156092
-0.206803
-0.25371
-0.295842
-0.33431
-0.369345
-0.400913
0.000453043
-0.0648899
-0.127526
-0.186594
-0.240741
-0.290236
-0.334103
-0.373847
-0.409197
-0.441135
-0.0205921
-0.0920613
-0.160348
-0.223448
-0.281056
-0.332601
-0.378234
-0.418457
-0.453762
-0.485569
-0.048814
-0.127262
-0.201827
-0.269588
-0.330009
-0.382447
-0.429381
-0.468835
-0.503177
-0.534182
-0.0857531
-0.171851
-0.252947
-0.326874
-0.39219
-0.445502
-0.489909
-0.525429
-0.556469
-0.584947
-0.134637
-0.227204
-0.312451
-0.389942
-0.457808
-0.514482
-0.555273
-0.582201
-0.602665
-0.62374
-0.216874
-0.322846
-0.417642
-0.497338
-0.558716
-0.603198
-0.628759
-0.639981
-0.63793
-0.642007
0.138759
0.121536
0.101938
0.0788113
0.156009
0.139256
0.11988
0.0987204
0.0755274
0.189328
0.176801
0.161142
0.142666
0.121883
0.0999165
0.0770903
0.217916
0.215853
0.209331
0.19902
0.185353
0.168497
0.14868
0.126659
0.103851
0.0804123
0.230674
0.228209
0.221108
0.210038
0.195334
0.177447
0.15648
0.133067
0.1087
0.0836887
0.244846
0.241893
0.234233
0.222422
0.206596
0.187495
0.165281
0.140252
0.113633
0.0863341
0.260542
0.257147
0.248914
0.236285
0.219177
0.198441
0.174619
0.147709
0.118481
0.0883779
0.277829
0.274083
0.265201
0.251609
0.233072
0.210322
0.184347
0.155165
0.123087
0.0898394
0.29667
0.29264
0.282989
0.268178
0.248041
0.223063
0.194412
0.162441
0.127276
0.0905919
0.316955
0.312668
0.302115
0.28577
0.263779
0.236417
0.20474
0.169477
0.130859
0.0904656
0.338584
0.333998
0.322446
0.304292
0.28009
0.250088
0.215144
0.176215
0.133791
0.0893155
0.361462
0.356511
0.343891
0.323741
0.29693
0.263909
0.225441
0.182503
0.135892
0.086974
0.385517
0.38015
0.366387
0.344133
0.314301
0.277748
0.235347
0.188029
0.136777
0.0829899
0.410654
0.404839
0.389807
0.365295
0.332117
0.291474
0.24456
0.192297
0.135808
0.0766209
0.436568
0.430324
0.413807
0.386789
0.349944
0.304629
0.252531
0.194663
0.132173
0.0668758
0.462764
0.456208
0.43778
0.407834
0.367006
0.316457
0.258389
0.194186
0.124846
0.0526245
0.488327
0.481509
0.460786
0.427399
0.381874
0.32556
0.260664
0.18914
0.11216
0.032139
0.511856
0.504725
0.481609
0.444302
0.39317
0.33029
0.257798
0.177585
0.0921147
0.00344392
0.530508
0.522951
0.497829
0.455786
0.398273
0.327381
0.245887
0.155406
0.0602149
-0.0377252
0.542
0.534055
0.507269
0.460426
0.396687
0.316167
0.222225
0.117953
0.00765466
-0.105247
0.0947001
0.124258
0.10786
0.0881344
0.0799808
0.0690481
0.0616202
0.0555712
0.0506917
0.0468203
0.0437409
0.0412708
0.0393498
0.0380287
0.0372106
0.0368296
0.0368065
0.0370455
0.037446
0.0379031
0.0383738
0.0388587
0.039382
0.0399438
0.0405228
0.0410837
0.0416039
0.0420767
0.0425043
0.0428915
0.0431721
0.0432667
0.0439984
0.0439794
0.0680327
0.0597278
0.0538806
0.0490457
0.0451324
0.042035
0.0396932
0.0378778
0.0365024
0.0355347
0.0349291
0.0346988
0.0348107
0.0352277
0.0358736
0.0366415
0.0374269
0.0381551
0.0388302
0.0394759
0.0401166
0.0407393
0.0413237
0.0418626
0.042353
0.0427999
0.0431281
0.0432117
0.0437241
0.0436764
0.0512431
0.0483036
0.0450141
0.0416441
0.0387442
0.036443
0.0348272
0.0337972
0.0332009
0.0328535
0.0326806
0.0327138
0.0329761
0.0334936
0.0342553
0.0352157
0.0362656
0.0372871
0.038209
0.0390225
0.0397677
0.04046
0.0411007
0.0416913
0.0422332
0.0427346
0.0431146
0.0431917
0.0434239
0.0433485
0.0329149
0.0312014
0.030674
0.0293798
0.0283101
0.0275023
0.0271724
0.0273463
0.0279016
0.0286285
0.029411
0.0301839
0.0309593
0.0318042
0.0327669
0.0338826
0.0351185
0.0363815
0.0375572
0.0385797
0.0394616
0.0402352
0.0409255
0.0415487
0.0421203
0.0426566
0.0430862
0.0431636
0.0431386
0.0430353
0.0157957
0.0125951
0.0127211
0.0128979
0.0138672
0.0149989
0.0165251
0.0183973
0.0204811
0.0226076
0.0246851
0.0266032
0.028346
0.0299391
0.0314264
0.0328683
0.0342882
0.0356855
0.0369993
0.0381642
0.0391633
0.040017
0.0407536
0.0413996
0.0419838
0.0425338
0.0430019
0.0430988
0.0428981
0.0427714
-0.000299861
-0.00301689
-0.00300908
-0.0027856
-0.000924364
0.00161686
0.00475854
0.008183
0.011758
0.0152917
0.0186655
0.0217892
0.0246551
0.0272276
0.0295332
0.0315861
0.0334007
0.035012
0.0364379
0.0376893
0.0387724
0.0397031
0.0404984
0.0411816
0.0417852
0.0423451
0.0428426
0.0429821
0.0426998
0.0425607
-0.0169627
-0.017143
-0.0155437
-0.0145865
-0.0119035
-0.00868435
-0.00488642
-0.000735263
0.00370889
0.00828266
0.0127643
0.0169591
0.020787
0.0242049
0.0272475
0.0299286
0.0322428
0.034195
0.0358213
0.0371815
0.0383363
0.0393296
0.0401785
0.0409041
0.0415346
0.0421056
0.0426218
0.0428164
0.0425345
0.0423997
-0.0340054
-0.0308398
-0.0261851
-0.0232292
-0.0189938
-0.0148106
-0.0101861
-0.00545191
-0.000639106
0.00424052
0.00912775
0.0138461
0.0182105
0.0220965
0.0255283
0.0285458
0.0311809
0.0334372
0.0353024
0.0368125
0.0380415
0.0390702
0.0399373
0.0406747
0.0413114
0.0418775
0.0423881
0.0426271
0.0423963
0.0422805
-0.0497553
-0.0442766
-0.0368643
-0.0310843
-0.0244556
-0.0184517
-0.0124671
-0.00682351
-0.00147696
0.00360445
0.00850261
0.0132132
0.0176083
0.0215575
0.0250286
0.0280527
0.0307234
0.0330793
0.0350875
0.0367261
0.0380223
0.0390625
0.0399091
0.0406111
0.0412073
0.0417304
0.0421982
0.0424492
0.0422822
0.0421922
-0.0638826
-0.0562869
-0.0463548
-0.0379271
-0.0289077
-0.0210362
-0.0135855
-0.00681442
-0.000720486
0.0047171
0.00963677
0.0141523
0.0183007
0.022073
0.0254216
0.0283365
0.0309102
0.0332014
0.0352024
0.0368786
0.0382156
0.0392607
0.040079
0.0407247
0.0412473
0.0416917
0.0420819
0.0423059
0.0421879
0.0421231
-0.075734
-0.0653512
-0.0541558
-0.0436627
-0.0327853
-0.0232933
-0.0147056
-0.00712267
-0.000400292
0.00553268
0.0107477
0.015292
0.0192724
0.0228523
0.0260562
0.0288686
0.0313454
0.0335299
0.0354462
0.0370881
0.0384337
0.0394884
0.0402992
0.0409044
0.0413599
0.0417206
0.0420224
0.0421958
0.0421048
0.0420614
-0.0843624
-0.0717103
-0.0591663
-0.0474287
-0.0357678
-0.0252736
-0.0157778
-0.00750857
-0.000397261
0.00581995
0.0112926
0.015949
0.0199109
0.0234284
0.0265414
0.0292738
0.0316939
0.0337969
0.0356197
0.0371958
0.0385241
0.0395882
0.0404168
0.0410141
0.0414393
0.041744
0.0419747
0.0420986
0.0420225
0.0419987
)
;

boundaryField
{
    outlet
    {
        type            fixedValue;
        value           nonuniform 0();
    }
    upperWall
    {
        type            symmetryPlane;
    }
    lowerWall
    {
        type            symmetryPlane;
    }
    inlet
    {
        type            zeroGradient;
    }
    cylinder
    {
        type            zeroGradient;
    }
    frontAndBack
    {
        type            empty;
    }
    procBoundary1to0
    {
        type            processor;
        value           nonuniform List<scalar> 
45
(
0.153143
0.153143
0.138199
0.18107
0.170034
0.170034
0.206378
0.204559
0.198715
0.198715
0.0978544
0.123675
0.110704
0.110704
0.138199
0.0869597
0.0766904
0.0681694
0.0613236
0.0557763
0.0513528
0.0477786
0.0448524
0.0425633
0.0409565
0.0399004
0.0392628
0.0389612
0.0388675
0.0388893
0.0389872
0.0391966
0.0395421
0.0400103
0.0405324
0.0410476
0.0415246
0.0419589
0.0423509
0.0427093
0.0430365
0.0432745
0.0433851
0.0442369
0.0442462
)
;
    }
    procBoundary1to2
    {
        type            processor;
        value           nonuniform List<scalar> 
63
(
-0.555423
-0.775485
-0.555423
-0.414624
-0.302477
-0.302477
-0.22831
-0.196085
-0.196085
-0.152389
-0.115581
-0.111165
-0.111165
-0.0857031
-0.0638595
-0.060865
-0.980972
-0.980972
-1.00461
-0.936705
-0.857054
-0.799511
-0.799511
-0.861404
-0.861404
-0.945931
-0.945931
-0.989898
-0.989898
-0.946317
-0.946317
-0.775485
-0.060865
-0.0401101
-0.0297578
-0.0232854
-0.0142495
-0.00427695
0.00195507
0.0067921
0.0140249
0.0180275
0.0180275
0.0207867
0.0258838
0.0275694
0.0291727
0.0318897
0.0333746
0.0346731
0.0361153
0.037177
0.0380977
0.0389428
0.0396295
0.0401483
0.0406632
0.0409663
0.0411755
0.0413645
0.0414211
0.0414086
0.0414583
)
;
    }
    procBoundary1to5
    {
        type            processor;
        value           nonuniform List<scalar> 
20
(
-0.919282
-0.913724
-0.945077
0.215795
0.228514
0.2428
0.258601
0.27583
0.294405
0.31429
0.335447
0.357881
0.381488
0.406086
0.431344
0.45655
0.480638
0.502506
0.519674
0.529862
)
;
    }
}


// ************************************************************************* //
