/*--------------------------------*- C++ -*----------------------------------*\
| =========                 |                                                 |
| \\      /  F ield         | OpenFOAM: The Open Source CFD Toolbox           |
|  \\    /   O peration     | Version:                                        |
|   \\  /    A nd           | Website:  www.openfoam.com                      |
|    \\/     M anipulation  |                                                 |
\*---------------------------------------------------------------------------*/
FoamFile
{
    version     2.0;
    format      ascii;
    class       volScalarField;
    location    "0.6";
    object      p;
}
// * * * * * * * * * * * * * * * * * * * * * * * * * * * * * * * * * * * * * //

dimensions      [0 2 -2 0 0 0 0];


internalField   nonuniform List<scalar> 
400
(
0.131032
0.124056
0.117114
0.110207
0.103332
0.0964887
0.0896752
0.0828911
0.0761344
0.0694056
0.0627007
0.0560234
0.0493648
0.0427366
0.0361155
0.029538
0.0229383
0.0164245
0.00980793
0.00340753
0.131021
0.124045
0.117104
0.110197
0.103323
0.0964798
0.0896667
0.082883
0.0761266
0.0693981
0.0626937
0.0560167
0.0493585
0.0427305
0.0361101
0.0295324
0.0229342
0.0164189
0.00980607
0.00340064
0.130999
0.124024
0.117085
0.110178
0.103305
0.0964624
0.0896501
0.0828671
0.0761115
0.0693837
0.06268
0.0560036
0.0493462
0.0427187
0.0360997
0.0295216
0.0229262
0.0164082
0.00980255
0.00338731
0.130968
0.123995
0.117056
0.110151
0.103279
0.0964376
0.0896264
0.0828444
0.0760899
0.069363
0.0626604
0.0559848
0.0493288
0.0427018
0.0360847
0.0295062
0.0229148
0.016393
0.00979756
0.00336829
0.130929
0.123958
0.117021
0.110117
0.103246
0.0964066
0.0895967
0.082816
0.0760628
0.0693371
0.0626359
0.0559614
0.0493069
0.0426807
0.0360661
0.0294871
0.0229006
0.0163742
0.00979138
0.00334466
0.130885
0.123915
0.11698
0.110078
0.103209
0.0963708
0.0895625
0.0827834
0.0760316
0.0693073
0.0626076
0.0559344
0.0492818
0.0426565
0.0360447
0.0294653
0.0228844
0.016353
0.00978435
0.00331773
0.130836
0.123869
0.116936
0.110036
0.103168
0.096332
0.0895254
0.0827479
0.0759978
0.069275
0.0625771
0.0559053
0.0492547
0.0426304
0.0360216
0.0294419
0.0228669
0.0163306
0.00977681
0.00328895
0.130786
0.12382
0.116889
0.109992
0.103126
0.0962917
0.0894869
0.0827111
0.0759627
0.0692416
0.0625454
0.0558751
0.0492266
0.0426035
0.0359978
0.0294181
0.022849
0.016308
0.0097691
0.00325981
0.130735
0.123772
0.116843
0.109948
0.103084
0.0962514
0.0894484
0.0826743
0.0759277
0.0692082
0.0625138
0.055845
0.0491986
0.0425769
0.0359741
0.0293948
0.0228313
0.0162864
0.00976148
0.00323175
0.130686
0.123725
0.116798
0.109905
0.103043
0.0962122
0.089411
0.0826386
0.0758937
0.0691757
0.0624831
0.0558159
0.0491715
0.0425511
0.0359512
0.0293726
0.0228143
0.0162665
0.00975416
0.00320606
0.130639
0.12368
0.116756
0.109864
0.103004
0.096175
0.0893754
0.0826046
0.0758614
0.069145
0.062454
0.0557882
0.0491458
0.0425268
0.0359295
0.0293519
0.0227982
0.0162489
0.00974719
0.00318379
0.130595
0.123638
0.116716
0.109826
0.102967
0.09614
0.089342
0.0825728
0.075831
0.069116
0.0624266
0.0557622
0.0491216
0.0425041
0.0359092
0.0293329
0.022783
0.0162336
0.0097405
0.00316569
0.130554
0.123599
0.116678
0.10979
0.102933
0.0961071
0.0893106
0.0825427
0.0758024
0.0690888
0.0624007
0.0557378
0.0490987
0.0424827
0.0358898
0.0293152
0.0227685
0.0162205
0.00973381
0.00315217
0.130515
0.123561
0.116642
0.109755
0.1029
0.0960756
0.0892806
0.082514
0.075775
0.0690626
0.0623759
0.0557142
0.0490766
0.042462
0.0358709
0.0292982
0.0227541
0.0162087
0.00972661
0.00314316
0.130476
0.123524
0.116607
0.109721
0.102868
0.0960446
0.0892509
0.0824856
0.0757478
0.0690367
0.0623512
0.0556907
0.0490544
0.0424411
0.0358516
0.0292809
0.0227387
0.0161972
0.00971812
0.00313813
0.130437
0.123487
0.11657
0.109687
0.102835
0.0960128
0.0892203
0.0824564
0.0757198
0.0690099
0.0623257
0.0556663
0.0490313
0.0424193
0.035831
0.0292623
0.0227216
0.0161847
0.00970731
0.00313603
0.130395
0.123447
0.116532
0.10965
0.102799
0.0959789
0.0891879
0.0824252
0.0756899
0.0689812
0.0622982
0.05564
0.0490061
0.0423954
0.0358083
0.0292414
0.0227017
0.0161698
0.00969293
0.00313547
0.130348
0.123402
0.116489
0.109609
0.10276
0.0959408
0.0891512
0.0823899
0.0756561
0.0689487
0.0622669
0.05561
0.0489773
0.0423678
0.0357818
0.0292165
0.0226774
0.0161502
0.00967255
0.00313388
0.13029
0.123346
0.116435
0.109557
0.102709
0.0958925
0.0891048
0.0823453
0.0756131
0.0689073
0.0622271
0.0555717
0.0489404
0.0423323
0.0357474
0.0291837
0.0226451
0.0161215
0.00964094
0.00312459
0.13022
0.123279
0.116371
0.109495
0.10265
0.0958351
0.0890495
0.0822921
0.0755618
0.068858
0.0621796
0.0555259
0.0488962
0.0422896
0.0357061
0.0291438
0.0226057
0.0160837
0.00959949
0.00310063
)
;

boundaryField
{
    fixedWalls
    {
        type            zeroGradient;
    }
    inlet
    {
        type            zeroGradient;
    }
    outlet
    {
        type            fixedValue;
        value           uniform 0;
    }
    frontAndBack
    {
        type            empty;
    }
    procBoundary7to3
    {
        type            processor;
        value           nonuniform List<scalar> 
20
(
0.131032
0.124056
0.117114
0.110207
0.103332
0.0964887
0.0896753
0.0828912
0.0761344
0.0694056
0.0627008
0.0560235
0.0493647
0.0427366
0.0361155
0.029538
0.0229383
0.0164244
0.00980789
0.00340753
)
;
    }
    procBoundary7to6
    {
        type            processor;
        value           nonuniform List<scalar> 
20
(
0.138044
0.138033
0.13801
0.137978
0.137937
0.13789
0.13784
0.137787
0.137734
0.137682
0.137633
0.137587
0.137544
0.137503
0.137462
0.137421
0.137378
0.137329
0.137269
0.137196
)
;
    }
}


// ************************************************************************* //
