/*--------------------------------*- C++ -*----------------------------------*\
| =========                 |                                                 |
| \\      /  F ield         | OpenFOAM: The Open Source CFD Toolbox           |
|  \\    /   O peration     | Version:                                        |
|   \\  /    A nd           | Website:  www.openfoam.com                      |
|    \\/     M anipulation  |                                                 |
\*---------------------------------------------------------------------------*/
FoamFile
{
    version     2.0;
    format      ascii;
    class       surfaceScalarField;
    location    "0.6";
    object      phi;
}
// * * * * * * * * * * * * * * * * * * * * * * * * * * * * * * * * * * * * * //

dimensions      [0 3 -1 0 0 0 0];
oriented        oriented;


internalField   nonuniform List<scalar> 
760
(
3.61676e-05
-4.99713e-08
3.62157e-05
-4.80596e-08
3.62619e-05
-4.62236e-08
3.63064e-05
-4.44581e-08
3.63492e-05
-4.27625e-08
3.63904e-05
-4.11304e-08
3.643e-05
-3.95664e-08
3.64681e-05
-3.8057e-08
3.65047e-05
-3.66174e-08
3.654e-05
-3.52158e-08
3.6574e-05
-3.39027e-08
3.66066e-05
-3.25886e-08
3.66381e-05
-3.14168e-08
3.66683e-05
-3.0151e-08
3.66975e-05
-2.91739e-08
3.67255e-05
-2.78767e-08
3.67527e-05
-2.71969e-08
3.67786e-05
-2.57363e-08
3.68042e-05
-2.54931e-08
-2.3813e-08
3.60389e-05
-9.76861e-08
3.60848e-05
-9.39499e-08
3.6129e-05
-9.03605e-08
3.61714e-05
-8.69103e-08
3.62123e-05
-8.35978e-08
3.62515e-05
-8.04105e-08
3.62893e-05
-7.73555e-08
3.63257e-05
-7.44078e-08
3.63607e-05
-7.15972e-08
3.63943e-05
-6.8862e-08
3.64267e-05
-6.62978e-08
3.64578e-05
-6.37357e-08
3.64879e-05
-6.1449e-08
3.65167e-05
-5.89838e-08
3.65446e-05
-5.7074e-08
3.65713e-05
-5.45532e-08
3.65973e-05
-5.3225e-08
3.6622e-05
-5.03898e-08
3.66464e-05
-4.99126e-08
-4.6646e-08
3.57779e-05
-1.40983e-07
3.58195e-05
-1.35587e-07
3.58596e-05
-1.30404e-07
3.58981e-05
-1.25423e-07
3.59351e-05
-1.20641e-07
3.59708e-05
-1.16041e-07
3.6005e-05
-1.11633e-07
3.6038e-05
-1.0738e-07
3.60697e-05
-1.03325e-07
3.61002e-05
-9.93811e-08
3.61296e-05
-9.56807e-08
3.61579e-05
-9.19902e-08
3.61851e-05
-8.86888e-08
3.62113e-05
-8.51452e-08
3.62366e-05
-8.23815e-08
3.62608e-05
-7.87668e-08
3.62844e-05
-7.68378e-08
3.63068e-05
-7.27796e-08
3.6329e-05
-7.20791e-08
-6.73872e-08
3.53773e-05
-1.77999e-07
3.54129e-05
-1.71178e-07
3.54471e-05
-1.64629e-07
3.548e-05
-1.58336e-07
3.55117e-05
-1.52296e-07
3.55421e-05
-1.46488e-07
3.55714e-05
-1.40921e-07
3.55996e-05
-1.35554e-07
3.56267e-05
-1.30434e-07
3.56528e-05
-1.25459e-07
3.56779e-05
-1.20786e-07
3.5702e-05
-1.16137e-07
3.57253e-05
-1.11964e-07
3.57477e-05
-1.07511e-07
3.57693e-05
-1.04007e-07
3.579e-05
-9.94832e-08
3.58102e-05
-9.7023e-08
3.58294e-05
-9.19534e-08
3.58483e-05
-9.10457e-08
-8.5159e-08
3.48271e-05
-2.07256e-07
3.48552e-05
-1.99304e-07
3.48823e-05
-1.9167e-07
3.49083e-05
-1.84338e-07
3.49333e-05
-1.77302e-07
3.49573e-05
-1.70538e-07
3.49805e-05
-1.64055e-07
3.50027e-05
-1.57807e-07
3.50241e-05
-1.51846e-07
3.50447e-05
-1.4606e-07
3.50646e-05
-1.40617e-07
3.50837e-05
-1.35218e-07
3.5102e-05
-1.30351e-07
3.51197e-05
-1.25197e-07
3.51368e-05
-1.21095e-07
3.51532e-05
-1.15885e-07
3.51692e-05
-1.1298e-07
3.51844e-05
-1.07161e-07
3.51994e-05
-1.06067e-07
-9.92711e-08
3.41154e-05
-2.27743e-07
3.41351e-05
-2.18994e-07
3.4154e-05
-2.10598e-07
3.41722e-05
-2.02536e-07
3.41897e-05
-1.94801e-07
3.42065e-05
-1.87368e-07
3.42227e-05
-1.80243e-07
3.42383e-05
-1.73381e-07
3.42533e-05
-1.6683e-07
3.42677e-05
-1.60481e-07
3.42816e-05
-1.54497e-07
3.42949e-05
-1.48583e-07
3.43078e-05
-1.43224e-07
3.43202e-05
-1.37601e-07
3.43322e-05
-1.33063e-07
3.43437e-05
-1.27416e-07
3.43549e-05
-1.24169e-07
3.43656e-05
-1.17893e-07
3.43762e-05
-1.16639e-07
-1.09258e-07
3.32289e-05
-2.38966e-07
3.32396e-05
-2.29776e-07
3.325e-05
-2.2096e-07
3.326e-05
-2.12497e-07
3.32695e-05
-2.04379e-07
3.32788e-05
-1.96579e-07
3.32876e-05
-1.89104e-07
3.32961e-05
-1.81908e-07
3.33044e-05
-1.75036e-07
3.33123e-05
-1.68384e-07
3.33199e-05
-1.62104e-07
3.33272e-05
-1.5592e-07
3.33343e-05
-1.50284e-07
3.33411e-05
-1.44432e-07
3.33477e-05
-1.39635e-07
3.33541e-05
-1.33809e-07
3.33602e-05
-1.30332e-07
3.33662e-05
-1.23903e-07
3.33721e-05
-1.22518e-07
-1.149e-07
3.21543e-05
-2.40958e-07
3.21562e-05
-2.31685e-07
3.2158e-05
-2.22791e-07
3.21598e-05
-2.14255e-07
3.21614e-05
-2.0607e-07
3.21631e-05
-1.98208e-07
3.21646e-05
-1.90673e-07
3.21662e-05
-1.83423e-07
3.21676e-05
-1.76496e-07
3.2169e-05
-1.69801e-07
3.21704e-05
-1.63468e-07
3.21717e-05
-1.57256e-07
3.2173e-05
-1.51561e-07
3.21743e-05
-1.45715e-07
3.21755e-05
-1.40839e-07
3.21768e-05
-1.35082e-07
3.21779e-05
-1.31494e-07
3.21792e-05
-1.25209e-07
3.21804e-05
-1.23725e-07
-1.16225e-07
3.0879e-05
-2.34249e-07
3.08725e-05
-2.25232e-07
3.08663e-05
-2.16585e-07
3.08603e-05
-2.0829e-07
3.08546e-05
-2.00335e-07
3.08491e-05
-1.92697e-07
3.08438e-05
-1.85376e-07
3.08387e-05
-1.78337e-07
3.08338e-05
-1.71607e-07
3.08291e-05
-1.65111e-07
3.08246e-05
-1.58954e-07
3.08203e-05
-1.52942e-07
3.08161e-05
-1.47395e-07
3.08122e-05
-1.4177e-07
3.08084e-05
-1.36991e-07
3.08048e-05
-1.31524e-07
3.08012e-05
-1.27946e-07
3.07981e-05
-1.22077e-07
3.07949e-05
-1.2053e-07
-1.1349e-07
2.93919e-05
-2.19815e-07
2.93781e-05
-2.11356e-07
2.93647e-05
-2.03246e-07
2.93519e-05
-1.95467e-07
2.93396e-05
-1.88008e-07
2.93277e-05
-1.80848e-07
2.93163e-05
-1.73985e-07
2.93054e-05
-1.67389e-07
2.92949e-05
-1.6108e-07
2.92847e-05
-1.54997e-07
2.9275e-05
-1.49224e-07
2.92657e-05
-1.43607e-07
2.92567e-05
-1.38395e-07
2.92481e-05
-1.33174e-07
2.92397e-05
-1.28655e-07
2.92319e-05
-1.23664e-07
2.92241e-05
-1.20215e-07
2.92171e-05
-1.1499e-07
2.92099e-05
-1.13418e-07
-1.07157e-07
2.76842e-05
-1.98985e-07
2.76641e-05
-1.91335e-07
2.76449e-05
-1.84001e-07
2.76264e-05
-1.76968e-07
2.76086e-05
-1.70224e-07
2.75915e-05
-1.63752e-07
2.75751e-05
-1.57548e-07
2.75593e-05
-1.51587e-07
2.75441e-05
-1.45883e-07
2.75295e-05
-1.40391e-07
2.75154e-05
-1.3517e-07
2.75019e-05
-1.3011e-07
2.74889e-05
-1.25389e-07
2.74765e-05
-1.20718e-07
2.74644e-05
-1.16599e-07
2.7453e-05
-1.12219e-07
2.74418e-05
-1.09012e-07
2.74314e-05
-1.04599e-07
2.7421e-05
-1.03048e-07
-9.78464e-08
2.57491e-05
-1.7335e-07
2.57244e-05
-1.66696e-07
2.57008e-05
-1.60317e-07
2.5678e-05
-1.54201e-07
2.56561e-05
-1.48337e-07
2.56351e-05
-1.42709e-07
2.56148e-05
-1.37313e-07
2.55954e-05
-1.32131e-07
2.55767e-05
-1.27171e-07
2.55587e-05
-1.224e-07
2.55413e-05
-1.17858e-07
2.55247e-05
-1.13472e-07
2.55087e-05
-1.09359e-07
2.54933e-05
-1.0534e-07
2.54784e-05
-1.01732e-07
2.54643e-05
-9.80501e-08
2.54504e-05
-9.51834e-08
2.54375e-05
-9.16829e-08
2.54247e-05
-9.02044e-08
-8.62905e-08
2.35826e-05
-1.44655e-07
2.3555e-05
-1.39115e-07
2.35285e-05
-1.33804e-07
2.3503e-05
-1.28712e-07
2.34785e-05
-1.23829e-07
2.3455e-05
-1.19143e-07
2.34323e-05
-1.14651e-07
2.34105e-05
-1.10337e-07
2.33895e-05
-1.06207e-07
2.33694e-05
-1.02237e-07
2.335e-05
-9.84552e-08
2.33313e-05
-9.48139e-08
2.33133e-05
-9.13865e-08
2.32961e-05
-8.80744e-08
2.32794e-05
-8.50545e-08
2.32634e-05
-8.21024e-08
2.32479e-05
-7.96553e-08
2.32333e-05
-7.70921e-08
2.32189e-05
-7.57446e-08
-7.32792e-08
2.1183e-05
-1.14701e-07
2.11542e-05
-1.10321e-07
2.11266e-05
-1.06122e-07
2.10999e-05
-1.02095e-07
2.10744e-05
-9.82341e-08
2.10497e-05
-9.45286e-08
2.10261e-05
-9.09754e-08
2.10033e-05
-8.75641e-08
2.09814e-05
-8.42978e-08
2.09603e-05
-8.11609e-08
2.094e-05
-7.81696e-08
2.09205e-05
-7.52977e-08
2.09017e-05
-7.25864e-08
2.08836e-05
-6.99941e-08
2.08662e-05
-6.7598e-08
2.08494e-05
-6.53602e-08
2.08332e-05
-6.33849e-08
2.08178e-05
-6.17079e-08
2.08026e-05
-6.05527e-08
-5.96079e-08
1.85507e-05
-8.52649e-08
1.85224e-05
-8.20202e-08
1.84952e-05
-7.89092e-08
1.8469e-05
-7.59256e-08
1.84438e-05
-7.3064e-08
1.84196e-05
-7.0318e-08
1.83963e-05
-6.76845e-08
1.83739e-05
-6.51565e-08
1.83523e-05
-6.27356e-08
1.83316e-05
-6.04121e-08
1.83116e-05
-5.81956e-08
1.82924e-05
-5.60726e-08
1.82739e-05
-5.40639e-08
1.8256e-05
-5.21627e-08
1.82388e-05
-5.03851e-08
1.82223e-05
-4.88042e-08
1.82062e-05
-4.73182e-08
1.81909e-05
-4.64072e-08
1.81758e-05
-4.54967e-08
-4.60268e-08
1.56874e-05
-5.80299e-08
1.56612e-05
-5.58302e-08
1.5636e-05
-5.3721e-08
1.56118e-05
-5.16978e-08
1.55885e-05
-4.9757e-08
1.5566e-05
-4.78944e-08
1.55445e-05
-4.61082e-08
1.55237e-05
-4.43936e-08
1.55037e-05
-4.27514e-08
1.54845e-05
-4.11762e-08
1.54659e-05
-3.96734e-08
1.54481e-05
-3.8237e-08
1.54309e-05
-3.68758e-08
1.54144e-05
-3.56e-08
1.53984e-05
-3.43952e-08
1.53829e-05
-3.3381e-08
1.5368e-05
-3.23621e-08
1.53536e-05
-3.20393e-08
1.53395e-05
-3.13982e-08
-3.32011e-08
1.2596e-05
-3.45485e-08
1.25734e-05
-3.32448e-08
1.25517e-05
-3.19943e-08
1.25308e-05
-3.07945e-08
1.25107e-05
-2.96436e-08
1.24913e-05
-2.85386e-08
1.24727e-05
-2.7479e-08
1.24548e-05
-2.64622e-08
1.24375e-05
-2.54886e-08
1.24209e-05
-2.45546e-08
1.24049e-05
-2.36635e-08
1.23895e-05
-2.28136e-08
1.23746e-05
-2.20074e-08
1.23603e-05
-2.12595e-08
1.23464e-05
-2.05455e-08
1.2333e-05
-1.99834e-08
1.232e-05
-1.93691e-08
1.23074e-05
-1.9418e-08
1.2295e-05
-1.90201e-08
-2.16908e-08
9.28001e-06
-1.62261e-08
9.26238e-06
-1.56167e-08
9.24542e-06
-1.50322e-08
9.2291e-06
-1.44709e-08
9.21339e-06
-1.39327e-08
9.19826e-06
-1.34161e-08
9.18371e-06
-1.29208e-08
9.16969e-06
-1.24452e-08
9.15619e-06
-1.19897e-08
9.14319e-06
-1.15532e-08
9.13066e-06
-1.11367e-08
9.11859e-06
-1.07402e-08
9.10694e-06
-1.03637e-08
9.0957e-06
-1.00186e-08
9.08484e-06
-9.6829e-09
9.0743e-06
-9.44487e-09
9.06407e-06
-9.14177e-09
9.05399e-06
-9.33281e-09
9.04406e-06
-9.08974e-09
-1.19475e-08
5.74261e-06
-4.32657e-09
5.73116e-06
-4.16516e-09
5.72013e-06
-4.01009e-09
5.70952e-06
-3.86146e-09
5.69931e-06
-3.71874e-09
5.68948e-06
-3.58157e-09
5.68e-06
-3.45028e-09
5.67088e-06
-3.32427e-09
5.6621e-06
-3.20338e-09
5.65363e-06
-3.08757e-09
5.64547e-06
-2.97738e-09
5.6376e-06
-2.87244e-09
5.63001e-06
-2.7724e-09
5.62268e-06
-2.68305e-09
5.61559e-06
-2.59174e-09
5.60868e-06
-2.54007e-09
5.60198e-06
-2.44445e-09
5.59523e-06
-2.57469e-09
5.58857e-06
-2.43646e-09
-4.29875e-09
1.98653e-06
1.98237e-06
1.97836e-06
1.9745e-06
1.97078e-06
1.96719e-06
1.96374e-06
1.96042e-06
1.95722e-06
1.95413e-06
1.95115e-06
1.94828e-06
1.94551e-06
1.94282e-06
1.94023e-06
1.93769e-06
1.93525e-06
1.93267e-06
1.93024e-06
)
;

boundaryField
{
    fixedWalls
    {
        type            calculated;
        value           uniform 0;
    }
    inlet
    {
        type            calculated;
        value           nonuniform 0();
    }
    outlet
    {
        type            calculated;
        value           nonuniform List<scalar> 
20
(
3.68281e-05
3.66692e-05
3.63497e-05
3.58661e-05
3.52135e-05
3.43862e-05
3.33777e-05
3.21818e-05
3.07922e-05
2.92036e-05
2.74117e-05
2.54131e-05
2.32059e-05
2.07889e-05
1.81623e-05
1.53267e-05
1.22835e-05
9.03431e-06
5.58092e-06
1.92594e-06
)
;
    }
    frontAndBack
    {
        type            empty;
        value           nonuniform 0();
    }
    procBoundary7to3
    {
        type            processor;
        value           nonuniform List<scalar> 
20
(
-2.39284e-11
-2.55224e-11
-2.74669e-11
-2.85705e-11
-3.09463e-11
-3.29388e-11
-3.71261e-11
-3.99816e-11
-4.23706e-11
-4.57163e-11
-4.95114e-11
-5.36712e-11
-5.63215e-11
-5.98647e-11
-6.52968e-11
-7.00562e-11
-7.57021e-11
-8.00962e-11
-8.53952e-11
-9.8855e-11
)
;
    }
    procBoundary7to6
    {
        type            processor;
        value           nonuniform List<scalar> 
20
(
-3.61176e-05
-3.59912e-05
-3.57346e-05
-3.53403e-05
-3.47979e-05
-3.40949e-05
-3.32176e-05
-3.21523e-05
-3.08857e-05
-2.94064e-05
-2.7705e-05
-2.57747e-05
-2.36113e-05
-2.1213e-05
-1.85801e-05
-1.57146e-05
-1.26195e-05
-9.29833e-06
-5.75451e-06
-1.99086e-06
)
;
    }
}


// ************************************************************************* //
