/*--------------------------------*- C++ -*----------------------------------*\
| =========                 |                                                 |
| \\      /  F ield         | OpenFOAM: The Open Source CFD Toolbox           |
|  \\    /   O peration     | Version:                                        |
|   \\  /    A nd           | Website:  www.openfoam.com                      |
|    \\/     M anipulation  |                                                 |
\*---------------------------------------------------------------------------*/
FoamFile
{
    version     2.0;
    format      ascii;
    class       volVectorField;
    location    "0.6";
    object      U;
}
// * * * * * * * * * * * * * * * * * * * * * * * * * * * * * * * * * * * * * //

dimensions      [0 1 -1 0 0 0 0];


internalField   nonuniform List<vector> 
400
(
(1.44572 -0.000505338 0)
(1.44769 -0.000485985 0)
(1.44957 -0.000467397 0)
(1.45139 -0.000449529 0)
(1.45313 -0.000432352 0)
(1.45481 -0.000415822 0)
(1.45642 -0.000399961 0)
(1.45798 -0.000384659 0)
(1.45947 -0.00037007 0)
(1.46091 -0.000355855 0)
(1.46229 -0.000342533 0)
(1.46363 -0.000329189 0)
(1.46489 -0.00031731 0)
(1.46616 -0.000304459 0)
(1.4673 -0.000294526 0)
(1.46852 -0.000281336 0)
(1.46949 -0.000274407 0)
(1.47078 -0.000259574 0)
(1.47143 -0.000257045 0)
(1.47304 -0.000239922 0)
(1.44062 -0.0014938 0)
(1.44249 -0.00143668 0)
(1.44429 -0.00138181 0)
(1.44602 -0.00132905 0)
(1.44769 -0.00127839 0)
(1.44929 -0.00122964 0)
(1.45083 -0.00118292 0)
(1.45232 -0.00113783 0)
(1.45374 -0.00109483 0)
(1.45511 -0.00105298 0)
(1.45643 -0.00101375 0)
(1.45771 -0.000974525 0)
(1.45892 -0.000939546 0)
(1.46012 -0.00090177 0)
(1.46121 -0.000872584 0)
(1.46238 -0.000833914 0)
(1.4633 -0.000813612 0)
(1.46453 -0.000770114 0)
(1.46515 -0.000762777 0)
(1.46669 -0.000712765 0)
(1.43027 -0.0024142 0)
(1.43196 -0.00232185 0)
(1.4336 -0.00223313 0)
(1.43517 -0.00214786 0)
(1.43668 -0.00206599 0)
(1.43813 -0.00198723 0)
(1.43953 -0.00191174 0)
(1.44087 -0.00183891 0)
(1.44217 -0.00176946 0)
(1.44341 -0.00170189 0)
(1.44461 -0.00163853 0)
(1.44577 -0.00157526 0)
(1.44686 -0.00151874 0)
(1.44795 -0.00145792 0)
(1.44894 -0.00141067 0)
(1.45 -0.00134853 0)
(1.45084 -0.00131561 0)
(1.45196 -0.00124582 0)
(1.45252 -0.00123383 0)
(1.45392 -0.00115337 0)
(1.41437 -0.00322591 0)
(1.41582 -0.00310238 0)
(1.41721 -0.00298374 0)
(1.41856 -0.00286974 0)
(1.41985 -0.00276031 0)
(1.42109 -0.00265506 0)
(1.42228 -0.00255418 0)
(1.42343 -0.00245688 0)
(1.42453 -0.00236409 0)
(1.4256 -0.00227389 0)
(1.42662 -0.00218921 0)
(1.42761 -0.00210485 0)
(1.42855 -0.00202927 0)
(1.42948 -0.00194834 0)
(1.43032 -0.00188499 0)
(1.43123 -0.00180258 0)
(1.43195 -0.00175823 0)
(1.4329 -0.00166583 0)
(1.43339 -0.00164947 0)
(1.43458 -0.00154254 0)
(1.39251 -0.00389499 0)
(1.39366 -0.00374566 0)
(1.39476 -0.00360227 0)
(1.39582 -0.00346453 0)
(1.39684 -0.00333234 0)
(1.39782 -0.00320523 0)
(1.39877 -0.0030834 0)
(1.39967 -0.00296596 0)
(1.40055 -0.00285392 0)
(1.40139 -0.00274512 0)
(1.40219 -0.00264285 0)
(1.40298 -0.00254123 0)
(1.40371 -0.00244984 0)
(1.40445 -0.00235266 0)
(1.40512 -0.00227579 0)
(1.40584 -0.00217726 0)
(1.4064 -0.00212306 0)
(1.40716 -0.00201286 0)
(1.40754 -0.00199253 0)
(1.40849 -0.00186434 0)
(1.36421 -0.00439625 0)
(1.36502 -0.00422747 0)
(1.36579 -0.00406547 0)
(1.36653 -0.00390989 0)
(1.36724 -0.00376061 0)
(1.36793 -0.00361712 0)
(1.36859 -0.00347959 0)
(1.36923 -0.00334708 0)
(1.36984 -0.00322062 0)
(1.37043 -0.00309797 0)
(1.37099 -0.00298249 0)
(1.37154 -0.00286813 0)
(1.37205 -0.00276477 0)
(1.37257 -0.0026558 0)
(1.37304 -0.00256851 0)
(1.37354 -0.00245868 0)
(1.37394 -0.00239654 0)
(1.37447 -0.00227416 0)
(1.37474 -0.00225034 0)
(1.37541 -0.00210708 0)
(1.32893 -0.00471447 0)
(1.32937 -0.00453325 0)
(1.3298 -0.00435937 0)
(1.3302 -0.00419243 0)
(1.33059 -0.00403228 0)
(1.33097 -0.0038784 0)
(1.33133 -0.00373091 0)
(1.33168 -0.00358889 0)
(1.33201 -0.00345329 0)
(1.33234 -0.00332194 0)
(1.33264 -0.00319805 0)
(1.33295 -0.00307582 0)
(1.33323 -0.00296475 0)
(1.33351 -0.00284878 0)
(1.33377 -0.0027545 0)
(1.33405 -0.00263852 0)
(1.33427 -0.00257062 0)
(1.33457 -0.00244212 0)
(1.33471 -0.00241538 0)
(1.33509 -0.00226385 0)
(1.28613 -0.00484508 0)
(1.28621 -0.00465867 0)
(1.28628 -0.00447986 0)
(1.28636 -0.00430823 0)
(1.28642 -0.00414362 0)
(1.28649 -0.0039855 0)
(1.28655 -0.00383395 0)
(1.28662 -0.0036881 0)
(1.28668 -0.00354878 0)
(1.28673 -0.00341402 0)
(1.28679 -0.00328667 0)
(1.28684 -0.00316152 0)
(1.28689 -0.00304712 0)
(1.28695 -0.00292899 0)
(1.28699 -0.00283133 0)
(1.28705 -0.00271432 0)
(1.28709 -0.002643 0)
(1.28716 -0.0025145 0)
(1.28718 -0.00248546 0)
(1.28727 -0.00233275 0)
(1.23529 -0.00479396 0)
(1.23503 -0.00460941 0)
(1.23477 -0.00443244 0)
(1.23453 -0.00426262 0)
(1.2343 -0.00409978 0)
(1.23407 -0.0039434 0)
(1.23386 -0.00379352 0)
(1.23365 -0.00364936 0)
(1.23345 -0.00351158 0)
(1.23326 -0.00337849 0)
(1.23307 -0.00325248 0)
(1.2329 -0.00312916 0)
(1.23273 -0.00301573 0)
(1.23257 -0.0029 0)
(1.23241 -0.00280258 0)
(1.23226 -0.0026893 0)
(1.23212 -0.002617 0)
(1.23198 -0.00249426 0)
(1.23188 -0.00246362 0)
(1.2317 -0.00231677 0)
(1.17596 -0.00457652 0)
(1.17539 -0.00440035 0)
(1.17485 -0.00423143 0)
(1.17433 -0.0040694 0)
(1.17382 -0.00391403 0)
(1.17334 -0.00376487 0)
(1.17288 -0.0036219 0)
(1.17243 -0.00348445 0)
(1.172 -0.00335303 0)
(1.17159 -0.00322624 0)
(1.17119 -0.00310599 0)
(1.17081 -0.00298879 0)
(1.17044 -0.00288033 0)
(1.17009 -0.00277102 0)
(1.16975 -0.00267726 0)
(1.16943 -0.00257186 0)
(1.16913 -0.00250099 0)
(1.1688 -0.00238908 0)
(1.16858 -0.0023576 0)
(1.16817 -0.00222328 0)
(1.10777 -0.0042163 0)
(1.10696 -0.00405409 0)
(1.10617 -0.00389859 0)
(1.10542 -0.00374946 0)
(1.10469 -0.00360647 0)
(1.104 -0.00346922 0)
(1.10333 -0.00333766 0)
(1.10268 -0.00321123 0)
(1.10206 -0.00309029 0)
(1.10147 -0.00297377 0)
(1.10089 -0.00286306 0)
(1.10034 -0.00275559 0)
(1.09981 -0.00265557 0)
(1.0993 -0.00255602 0)
(1.09882 -0.00246899 0)
(1.09834 -0.00237471 0)
(1.09791 -0.00230761 0)
(1.09742 -0.00221056 0)
(1.09711 -0.00217907 0)
(1.09651 -0.00206333 0)
(1.03047 -0.00374303 0)
(1.02946 -0.00359922 0)
(1.02849 -0.00346137 0)
(1.02757 -0.00332917 0)
(1.02667 -0.00320243 0)
(1.02581 -0.00308079 0)
(1.02499 -0.00296418 0)
(1.0242 -0.00285216 0)
(1.02343 -0.00274496 0)
(1.0227 -0.0026418 0)
(1.02199 -0.00254364 0)
(1.02131 -0.00244871 0)
(1.02066 -0.00235988 0)
(1.02003 -0.00227257 0)
(1.01943 -0.00219483 0)
(1.01884 -0.00211391 0)
(1.01831 -0.00205272 0)
(1.01771 -0.00197326 0)
(1.01732 -0.00194272 0)
(1.01658 -0.00185072 0)
(0.943867 -0.0031906 0)
(0.942742 -0.00306826 0)
(0.94166 -0.00295099 0)
(0.940621 -0.00283854 0)
(0.939621 -0.00273072 0)
(0.93866 -0.00262725 0)
(0.937736 -0.00252805 0)
(0.936847 -0.00243278 0)
(0.935992 -0.00234158 0)
(0.93517 -0.00225391 0)
(0.934379 -0.00217039 0)
(0.933618 -0.00208988 0)
(0.932887 -0.00201422 0)
(0.93218 -0.00194073 0)
(0.931507 -0.00187417 0)
(0.930842 -0.00180777 0)
(0.930241 -0.00175431 0)
(0.929577 -0.0016937 0)
(0.929128 -0.0016652 0)
(0.928295 -0.00160091 0)
(0.847909 -0.00259496 0)
(0.846734 -0.00249573 0)
(0.845605 -0.0024006 0)
(0.84452 -0.00230938 0)
(0.843476 -0.00222191 0)
(0.842472 -0.00213797 0)
(0.841507 -0.00205748 0)
(0.840578 -0.0019802 0)
(0.839685 -0.00190621 0)
(0.838826 -0.00183514 0)
(0.837999 -0.00176737 0)
(0.837203 -0.00170224 0)
(0.836438 -0.00164082 0)
(0.835698 -0.00158182 0)
(0.834993 -0.00152759 0)
(0.834298 -0.00147586 0)
(0.833663 -0.00143147 0)
(0.832973 -0.00138943 0)
(0.83249 -0.00136418 0)
(0.831623 -0.00133004 0)
(0.742604 -0.00199235 0)
(0.74145 -0.00191641 0)
(0.74034 -0.0018436 0)
(0.739273 -0.00177378 0)
(0.738246 -0.00170682 0)
(0.737259 -0.00164257 0)
(0.736309 -0.00158095 0)
(0.735396 -0.00152179 0)
(0.734517 -0.00146515 0)
(0.733671 -0.00141077 0)
(0.732857 -0.0013589 0)
(0.732073 -0.00130917 0)
(0.731319 -0.00126216 0)
(0.730591 -0.00121746 0)
(0.729894 -0.00117587 0)
(0.72921 -0.00113803 0)
(0.728579 -0.00110344 0)
(0.727902 -0.00107822 0)
(0.727411 -0.00105741 0)
(0.726561 -0.00105383 0)
(0.628029 -0.00141752 0)
(0.626961 -0.0013637 0)
(0.625934 -0.00131209 0)
(0.624946 -0.00126259 0)
(0.623995 -0.00121511 0)
(0.623081 -0.00116955 0)
(0.622201 -0.00112585 0)
(0.621355 -0.00108391 0)
(0.62054 -0.00104374 0)
(0.619756 -0.0010052 0)
(0.619001 -0.000968428 0)
(0.618274 -0.000933253 0)
(0.617575 -0.000899942 0)
(0.616899 -0.000868589 0)
(0.616251 -0.000839105 0)
(0.615616 -0.000813651 0)
(0.615025 -0.00078883 0)
(0.6144 -0.000777368 0)
(0.613928 -0.000761838 0)
(0.613139 -0.000786601 0)
(0.504302 -0.000902286 0)
(0.503381 -0.000868177 0)
(0.502495 -0.000835465 0)
(0.501643 -0.000804084 0)
(0.500823 -0.000773978 0)
(0.500033 -0.00074508 0)
(0.499274 -0.00071737 0)
(0.498543 -0.000690774 0)
(0.49784 -0.000665301 0)
(0.497162 -0.000640872 0)
(0.49651 -0.000617566 0)
(0.495881 -0.000595316 0)
(0.495276 -0.000574223 0)
(0.494691 -0.00055457 0)
(0.49413 -0.000535907 0)
(0.493581 -0.000520757 0)
(0.493065 -0.000504858 0)
(0.492525 -0.000503102 0)
(0.492101 -0.000492871 0)
(0.49141 -0.000540213 0)
(0.37156 -0.000476177 0)
(0.370841 -0.000458265 0)
(0.37015 -0.000441085 0)
(0.369484 -0.000424593 0)
(0.368844 -0.000408776 0)
(0.368227 -0.000393591 0)
(0.367634 -0.000379028 0)
(0.367063 -0.000365052 0)
(0.366513 -0.000351671 0)
(0.365983 -0.000338839 0)
(0.365472 -0.000326598 0)
(0.364981 -0.000314938 0)
(0.364507 -0.000303876 0)
(0.364049 -0.000293687 0)
(0.363608 -0.000283881 0)
(0.363178 -0.000276581 0)
(0.36277 -0.000268014 0)
(0.362347 -0.000271322 0)
(0.362 -0.000265325 0)
(0.361441 -0.000324067 0)
(0.229938 -0.000173377 0)
(0.229471 -0.000166898 0)
(0.229022 -0.00016068 0)
(0.228589 -0.000154711 0)
(0.228173 -0.000148984 0)
(0.227772 -0.000143486 0)
(0.227386 -0.000138218 0)
(0.227014 -0.000133158 0)
(0.226656 -0.000128311 0)
(0.226312 -0.000123668 0)
(0.225979 -0.000119243 0)
(0.225659 -0.000115036 0)
(0.22535 -0.000111037 0)
(0.225051 -0.000107423 0)
(0.224764 -0.000103836 0)
(0.224482 -0.000101591 0)
(0.224215 -9.81925e-05 0)
(0.223937 -0.00010211 0)
(0.223701 -9.89583e-05 0)
(0.223307 -0.000150127 0)
(0.0795463 -2.88622e-05 0)
(0.0793765 -2.77961e-05 0)
(0.0792131 -2.67715e-05 0)
(0.0790557 -2.57895e-05 0)
(0.0789041 -2.48458e-05 0)
(0.0787582 -2.39377e-05 0)
(0.0786176 -2.3069e-05 0)
(0.0784821 -2.22355e-05 0)
(0.0783516 -2.14367e-05 0)
(0.0782259 -2.0671e-05 0)
(0.0781046 -1.99452e-05 0)
(0.0779877 -1.92548e-05 0)
(0.0778749 -1.8595e-05 0)
(0.0777657 -1.80254e-05 0)
(0.0776605 -1.74141e-05 0)
(0.0775575 -1.71789e-05 0)
(0.0774592 -1.64773e-05 0)
(0.0773567 -1.80795e-05 0)
(0.0772665 -1.71925e-05 0)
(0.0770938 -3.79676e-05 0)
)
;

boundaryField
{
    fixedWalls
    {
        type            noSlip;
    }
    inlet
    {
        type            fixedValue;
        value           nonuniform 0();
    }
    outlet
    {
        type            zeroGradient;
    }
    frontAndBack
    {
        type            empty;
    }
    procBoundary7to3
    {
        type            processor;
        value           nonuniform List<vector> 
20
(
(1.44572 0.000506283 0)
(1.44768 0.000487006 0)
(1.44957 0.000468484 0)
(1.45138 0.000450679 0)
(1.45313 0.000433594 0)
(1.45481 0.00041715 0)
(1.45642 0.000401418 0)
(1.45798 0.000386234 0)
(1.45947 0.000371757 0)
(1.46091 0.000357673 0)
(1.46229 0.0003445 0)
(1.46363 0.000331319 0)
(1.46489 0.000319584 0)
(1.46616 0.000306882 0)
(1.4673 0.000297152 0)
(1.46852 0.000284168 0)
(1.46949 0.000277455 0)
(1.47078 0.000262846 0)
(1.47143 0.000260504 0)
(1.47304 0.000243873 0)
)
;
    }
    procBoundary7to6
    {
        type            processor;
        value           nonuniform List<vector> 
20
(
(1.44369 -0.000525502 0)
(1.43868 -0.00155325 0)
(1.4285 -0.00251033 0)
(1.41286 -0.00335452 0)
(1.39132 -0.00405053 0)
(1.36338 -0.0045721 0)
(1.32848 -0.00490335 0)
(1.28605 -0.00503945 0)
(1.23556 -0.00498643 0)
(1.17655 -0.0047603 0)
(1.10862 -0.00438554 0)
(1.03151 -0.00389309 0)
(0.945038 -0.00331826 0)
(0.849131 -0.00269852 0)
(0.743805 -0.00207158 0)
(0.62914 -0.00147367 0)
(0.505259 -0.000937866 0)
(0.372307 -0.000494856 0)
(0.230423 -0.000180131 0)
(0.0797227 -2.99744e-05 0)
)
;
    }
}


// ************************************************************************* //
