/*--------------------------------*- C++ -*----------------------------------*\
| =========                 |                                                 |
| \\      /  F ield         | OpenFOAM: The Open Source CFD Toolbox           |
|  \\    /   O peration     | Version:                                        |
|   \\  /    A nd           | Website:  www.openfoam.com                      |
|    \\/     M anipulation  |                                                 |
\*---------------------------------------------------------------------------*/
FoamFile
{
    version     2.0;
    format      ascii;
    class       surfaceScalarField;
    location    "71.7";
    object      phi;
}
// * * * * * * * * * * * * * * * * * * * * * * * * * * * * * * * * * * * * * //

dimensions      [0 3 -1 0 0 0 0];
oriented        oriented;


internalField   nonuniform List<scalar> 
2201
(
-0.000614557
0.00026662
0.000347937
-0.00106264
0.000448084
-0.00122288
0.000160237
-0.000936325
-0.000286552
-0.000405121
-0.000531203
-2.1152e-05
-0.000383969
0.000422256
-0.000443408
-4.77003e-06
0.000427026
-0.00173449
0.00172972
0.00281208
-0.00454657
-9.29106e-05
0.00116208
-0.000802554
-0.00102362
0.00137879
-0.00130781
0.000444431
-0.00103228
-0.000562084
-0.000827348
-0.000736138
-0.00201888
0.000807558
-0.00578154
0.00331925
-0.0109349
0.00558034
-0.0155942
0.00638909
0.0059604
-0.0187426
0.00126689
0.002641
-0.00274581
-0.000378312
0.003024
-0.0014093
0.00147542
-0.00238202
0.000410636
-0.00529941
0.00218125
-0.0106998
0.00620794
-0.0162686
0.00888802
-0.0195256
0.00883738
-0.021765
0.00862847
0.00765108
-0.0234557
0.00114616
0.00450511
-0.00301027
-0.00119686
0.00536702
-0.00363667
0.00391523
-0.00704656
0.00382053
-0.0128783
0.00801299
-0.0184254
0.0117551
-0.0214954
0.011958
-0.0233994
0.0107414
-0.0244585
0.0096876
0.00802945
-0.0248369
-0.000806696
0.0066812
-0.00136939
-0.00385647
0.00841679
-0.00725718
0.00731594
-0.0127575
0.00932084
-0.0190213
0.0142768
-0.0225892
0.0153229
-0.0239135
0.0132823
-0.0250968
0.0119247
-0.0254876
0.0100784
0.00801501
-0.0254731
-0.0042506
0.00892838
0.00200341
-0.00722678
0.011393
-0.0119047
0.0119938
-0.0184384
0.0158545
-0.0229877
0.0188261
-0.0243296
0.0166649
-0.0251711
0.0141238
-0.0259527
0.0127063
-0.0259726
0.0100984
0.00812026
-0.0260779
-0.00820772
0.0113047
0.00583143
-0.0119069
0.0150922
-0.0176791
0.0177661
-0.0230572
0.0212325
-0.0249396
0.0207085
-0.0252007
0.016926
-0.02617
0.015093
-0.0264458
0.0129822
-0.0265173
0.0101699
0.00827834
-0.0266754
-0.0134008
0.0143779
0.0103277
-0.0179946
0.0196859
-0.0231153
0.0228868
-0.0257798
0.023897
-0.0257557
0.0206844
-0.0262075
0.0173778
-0.0269644
0.0158499
-0.0269376
0.0129554
-0.0272315
0.0104637
0.00827284
-0.027226
-0.019516
0.0180609
0.015833
-0.0237806
0.0239505
-0.0266421
0.0257483
-0.0268449
0.0240999
-0.0265474
0.0203869
-0.0273599
0.0181903
-0.0276031
0.0160932
-0.0276751
0.0130273
-0.0279514
0.01074
0.0081539
-0.0278324
-0.0248138
-0.0274506
0.0265873
-0.027977
0.0262747
-0.0273077
0.0234306
-0.0276307
0.0207099
-0.0282569
0.0188165
-0.0282583
0.0160946
-0.0285059
0.0132749
-0.0286064
0.0108405
0.00803033
-0.0284828
-0.0287751
0.0276114
-0.0281127
0.0256122
-0.0278901
0.023208
-0.028636
0.0214559
-0.0288275
0.0190079
-0.0290005
0.0162677
-0.0292812
0.0135556
-0.0292911
0.0108504
0.00797412
-0.0292349
-0.0285704
-0.0280089
0.0250507
-0.0286322
0.0238313
-0.0292158
0.0220395
-0.0293498
0.0191419
-0.0298208
0.0167387
-0.029998
0.0137328
-0.0301265
0.0109788
0.00786958
-0.0300219
-0.0282036
0.0254478
-0.0291695
0.0247973
-0.029577
0.022447
-0.0300658
0.0196307
-0.0305987
0.0172716
-0.0307683
0.0139024
-0.0309854
0.011196
0.00773123
-0.0308471
-0.0284833
-0.0295589
0.0258729
-0.0300599
0.0229479
-0.0308826
0.0204534
-0.0312721
0.0176612
-0.0316288
0.014259
-0.0317
0.0112672
0.00776649
-0.0317352
-0.0299451
0.026933
-0.0306291
0.0236319
-0.0316587
0.0214831
-0.031908
0.0179104
-0.0324797
0.0148307
-0.0325131
0.0113005
0.00784099
-0.0325876
-0.0301971
0.0278761
-0.0313273
0.0247622
-0.0322712
0.0224269
-0.0327334
0.0183726
-0.0333218
0.0154192
-0.0334971
0.0114758
0.00786983
-0.0335259
-0.0305913
-0.0322499
0.0264208
-0.0329304
0.0231075
-0.0338262
0.0192684
-0.0342839
0.0158768
-0.0345507
0.0117426
0.00794498
-0.0346258
-0.0331311
0.0282392
-0.033891
0.0238674
-0.034898
0.0202754
-0.0353706
0.0163494
-0.0356191
0.011991
0.00803218
-0.0357063
-0.0339905
0.0299611
-0.0349828
0.0248597
-0.0358694
0.021162
-0.0364032
0.0168833
-0.0366727
0.0122605
0.00807201
-0.0367126
-0.034906
-0.0359044
0.0258581
-0.0369264
0.0221841
-0.0372569
0.0172138
-0.037778
0.0127816
0.00800921
-0.0377152
-0.0163123
0.00169418
-0.0166183
0.000305955
-0.0152866
-0.0013317
-0.0125178
-0.00276876
-0.00886701
-0.00365079
-0.00509395
-0.00377306
-0.00218083
-0.00291312
-0.000744049
-0.00143678
-0.000528621
-0.000215428
-0.000180684
-0.0207529
0.00232058
-0.0197684
-0.000678525
-0.0177742
-0.00332596
-0.0146506
-0.00589237
-0.0104752
-0.0078262
-0.00600173
-0.00824649
-0.00227302
-0.00664184
-0.000134206
-0.00357559
0.000784833
-0.00113447
-0.000198404
-0.0209565
-0.0202137
-0.00142134
-0.0182318
-0.00530782
-0.0151538
-0.00897044
-0.0110252
-0.0119548
-0.00632352
-0.0129481
-0.00201057
-0.0109548
0.00114628
-0.00673245
0.00286863
-0.00285681
-7.55846e-05
-0.0201307
-0.0184434
-0.0155882
-0.0116775
-0.00701183
-0.0176138
-0.00241858
-0.015548
0.00124177
-0.0103928
0.00328004
-0.00489508
0.000194183
-0.00767178
-0.00308575
-0.0201341
0.000397723
-0.0138763
0.00202673
-0.00652408
0.000851519
-0.00503999
-0.0019955
-0.0169208
-0.000999694
-0.00751989
0.00185524
-0.00488048
-0.00455076
-0.00784962
0.00313591
-0.00852023
0.00494334
0.00721866
0.0501541
-0.0493635
0.00682707
0.0531828
-0.0527913
0.00660459
0.0564646
-0.0562421
0.00627778
0.0601992
-0.0598724
0.00580564
0.0639574
-0.0634853
0.00531139
0.0678441
-0.0673498
0.00490141
0.0720512
-0.0716413
0.0045685
0.0767388
-0.0764059
0.00421416
0.0818726
-0.0815182
0.00383399
0.0873068
-0.0869267
0.0034853
0.0930826
-0.0927339
0.00319299
0.0993087
-0.0990164
0.00296855
0.105946
-0.105721
0.00279118
0.112991
-0.112814
0.00262007
0.120531
-0.12036
0.00244351
0.128592
-0.128415
0.00225669
0.137209
-0.137022
0.00206113
0.146428
-0.146232
0.00186728
0.156282
-0.156089
0.00167891
0.166825
-0.166636
0.00149788
0.178099
-0.177918
0.00132614
0.19016
-0.189988
0.00115725
0.203075
-0.202907
0.000989142
0.216911
-0.216743
0.000828663
0.231711
-0.23155
0.000665643
0.24757
-0.247407
0.000501579
0.264557
-0.264392
0.000339606
0.28276
-0.282598
0.000174608
0.302297
-0.302132
0.323221
-0.323046
0.0124231
0.0505127
0.0117592
0.0538467
0.0110863
0.0571375
0.0106426
0.0606429
0.0102804
0.0643197
0.00989172
0.0682327
0.00943611
0.0725068
0.00890687
0.077268
0.00842839
0.0823511
0.00807665
0.0876586
0.00769717
0.0934621
0.00722334
0.0997825
0.00675122
0.106418
0.00630116
0.113441
0.00587788
0.120954
0.00551146
0.128958
0.00518278
0.137538
0.00487194
0.146738
0.00456322
0.156591
0.00424392
0.167144
0.00391141
0.178431
0.00356763
0.190503
0.00319584
0.203447
0.00280587
0.217301
0.00239987
0.232117
0.00196757
0.248002
0.0015135
0.265011
0.0010372
0.283237
0.000534594
0.302799
0.323756
0.0164665
0.05126
0.0161439
0.0541692
0.0159544
0.0573271
0.0155372
0.0610601
0.0149143
0.0649425
0.0143134
0.0688336
0.0138037
0.0730166
0.0132751
0.0777966
0.0127331
0.0828931
0.0122343
0.0881574
0.0117256
0.0939707
0.0112653
0.100243
0.0108806
0.106803
0.010458
0.113864
0.00998807
0.121424
0.00948822
0.129458
0.00894351
0.138082
0.00837485
0.147307
0.00779792
0.157168
0.00720963
0.167732
0.00661295
0.179028
0.00600415
0.191112
0.00536399
0.204087
0.00471035
0.217955
0.00402836
0.232799
0.00330787
0.248723
0.00254992
0.265769
0.00174897
0.284038
0.00090162
0.303647
0.324657
0.0217896
0.0516544
0.0211846
0.0547742
0.0206793
0.0578324
0.020328
0.0614114
0.019917
0.0653535
0.0193606
0.06939
0.0185931
0.0737841
0.0177664
0.0786234
0.0171561
0.0835033
0.0165483
0.0887652
0.0157322
0.0947868
0.0149571
0.101018
0.0142419
0.107518
0.0135019
0.114604
0.0128349
0.122091
0.0122264
0.130066
0.0116186
0.13869
0.011009
0.147917
0.010365
0.157812
0.00967591
0.168421
0.00895286
0.179751
0.00817523
0.19189
0.00734816
0.204914
0.00648266
0.218821
0.00556038
0.233721
0.00457838
0.249705
0.00353776
0.266809
0.00243032
0.285145
0.00125372
0.304823
0.325911
0.0256974
0.0256371
0.0252333
0.0245159
0.0238058
0.0232068
0.022458
0.021698
0.021108
0.0203736
0.0196471
0.0955133
0.0191128
0.101552
0.0184791
0.108151
0.0177353
0.115348
0.016994
0.122832
0.016169
0.130891
0.0152918
0.139567
0.0143983
0.14881
0.0134648
0.158746
0.0125148
0.169371
0.011539
0.180727
0.0105082
0.19292
0.00943432
0.205988
0.0083167
0.219938
0.00712805
0.23491
0.00586973
0.250963
0.00453672
0.268142
0.00311733
0.286564
0.00160836
0.306332
0.327519
0.0232198
0.0223059
0.0212726
0.0203296
0.0194793
0.0186056
0.0177366
0.0168319
0.0158579
0.0148358
0.0137421
0.0125643
0.0113173
0.00999622
0.008579
0.00707459
0.00547321
0.00376384
0.00194298
0.0284131
0.0306393
-0.0269266
-0.0321258
0.0301882
0.027336
-0.0291111
0.0317883
0.0239116
-0.0255118
0.0334104
0.0202291
-0.0218512
0.034778
0.0164894
-0.017857
0.0359061
0.0123578
-0.0134858
0.0368019
0.00821228
-0.0091081
0.0373492
0.00382918
-0.00437645
0.0378266
-0.00085655
0.000379139
-0.00526515
0.00537652
0.027637
0.0286639
-0.0256615
0.0293958
0.0255773
0.0309752
0.0223322
0.0324551
0.0187492
0.0337373
0.0152073
0.0347713
0.0113237
0.0356967
0.00728693
0.0363115
0.00321429
0.0366535
-0.00119848
-0.00532423
0.0266758
0.0266687
-0.0246806
0.0285247
0.0237284
0.0301322
0.0207246
0.0315467
0.0173347
0.0328058
0.0139482
0.0337981
0.0103315
0.0346334
0.00645157
0.0352656
0.00258214
0.0355496
-0.00148253
-0.00548088
0.0257917
0.0247749
-0.0238979
0.0276167
0.0219034
0.0292284
0.0191129
0.0306318
0.0159313
0.0318439
0.0127361
0.0328916
0.00928378
0.0335731
0.00577006
0.0342507
0.00190461
0.0344651
-0.00169698
-0.00564162
0.0250397
0.0229774
-0.0232422
0.0267546
0.0201884
0.0283089
0.0175586
0.0296973
0.0145429
0.0308447
0.0115887
0.031898
0.00823046
0.0326054
0.00506265
0.0331398
0.00137023
0.0334881
-0.00204527
-0.00567943
0.0243876
0.0212232
-0.0226335
0.0260122
0.0185639
0.0274733
0.0160975
0.0287982
0.0132179
0.0299418
0.0104452
0.0308507
0.00732154
0.0316798
0.0042336
0.0321034
0.000946593
0.032472
-0.00241384
-0.00579502
0.0237508
0.019488
-0.0220156
0.0253328
0.016982
0.0267672
0.014663
0.0279739
0.0120113
0.0291193
0.00929974
0.0299828
0.00645805
0.0307162
0.00350023
0.0312798
0.000382973
0.0315097
-0.00264374
-0.00602053
0.0231595
0.0177535
-0.0214251
0.0246651
0.0154764
0.0261134
0.0132148
0.0272954
0.0108292
0.0283319
0.00826322
0.0292517
0.00553827
0.0298943
0.0028576
0.0304415
-0.000164227
0.03076
-0.00296221
-0.0061076
0.0225966
0.0160062
-0.0208493
0.0240772
0.0139958
0.0254263
0.0118657
0.0266661
0.00958948
0.0276319
0.00729743
0.0284898
0.00468038
0.0291812
0.0021662
0.0295995
-0.000582576
0.0299646
-0.00332734
-0.00616489
0.0220155
0.0143173
-0.0203266
0.0235304
0.0124808
0.0248257
0.0105704
0.0259843
0.00843081
0.0270058
0.00627594
0.0277417
0.00394451
0.0284371
0.00147078
0.0288368
-0.000982249
0.0291504
-0.00364095
-0.00624941
0.0215136
0.0127155
-0.0199118
0.0229658
0.0110286
0.0242828
0.00925346
0.0253744
0.00733919
0.0263614
0.00528895
0.02712
0.00318593
0.0277218
0.000868974
0.0281468
-0.0014072
0.0284453
-0.00393947
-0.00628692
0.0211489
0.0111366
-0.01957
0.0225504
0.00962701
0.0237891
0.00801482
0.0249033
0.00622494
0.0257817
0.00441053
0.0265853
0.0023824
0.0271021
0.000352132
0.0275559
-0.00186103
0.0277892
-0.00417277
-0.00633012
0.0207825
0.00961617
-0.0192621
0.0222026
0.00820695
0.0233893
0.00682814
0.0244693
0.00514489
0.0253188
0.00356101
0.0260597
0.00164157
0.0265517
-0.000139856
0.0269779
-0.00228724
0.0271269
-0.00432182
-0.00642922
0.0204767
0.00811601
-0.0189765
0.0218305
0.00685318
0.0230415
0.00561708
0.0240386
0.00414778
0.0249091
0.00269059
0.0255546
0.000996023
0.0260733
-0.00065854
0.0264117
-0.00262564
0.0265279
-0.00443804
-0.00657671
0.0202515
0.00660968
-0.0187452
0.0215536
0.0055511
0.0227379
0.00443277
0.0236911
0.00319457
0.0245378
0.00184398
0.0251199
0.000413902
0.0256462
-0.0011849
0.0258753
-0.00285474
0.0260352
-0.00459791
-0.00661939
0.0201151
0.00515786
-0.0186633
0.0214213
0.00424494
0.0225206
0.0033334
0.0234789
0.00223634
0.024236
0.00108688
0.0248325
-0.000182621
0.0252608
-0.00161325
0.0254662
-0.00306012
0.0255941
-0.00472576
-0.00649847
0.0200889
0.00372946
-0.0186605
0.0213818
0.00295202
0.0224202
0.00229497
0.0233095
0.0013471
0.0240037
0.000392685
0.0245775
-0.000756396
0.0248665
-0.00190227
0.0250941
-0.00328772
0.0250369
-0.00466855
-0.00629852
0.0201483
0.00226288
-0.0186817
0.0213867
0.00171366
0.0225003
0.00118132
0.0233161
0.00053134
0.023862
-0.000153249
0.0242481
-0.00114252
0.0244008
-0.00205497
0.024368
-0.00325492
0.0240382
-0.00433871
-0.00571601
0.0203142
0.00086223
-0.0189135
0.0214126
0.000615226
0.0224313
0.000162659
0.023099
-0.000136354
0.0234616
-0.000515912
0.0232721
-0.000952939
0.022804
-0.00158695
0.021763
-0.00221384
0.0205591
-0.0031348
-0.0038995
0.016209
-0.0153468
0.0168242
0.0169869
0.0168505
0.0163346
0.0153817
0.0137947
0.0115809
0.00844607
0.0191448
0.0410606
0.0217063
0.0386163
-0.0411778
0.024261
0.0359709
-0.0385257
0.0327267
-0.0353923
0.0159449
0.0402441
0.018584
0.0384215
0.0210717
0.0361286
0.0235141
0.0335285
0.0305793
0.0100808
0.0403227
0.0127961
0.0391349
0.0154475
0.0375927
0.0180266
0.0358423
0.0204768
0.0336784
0.0227031
0.0313022
0.0286017
0.00150727
0.039369
0.00428979
0.0390305
0.00704318
0.0384731
0.00975898
0.0376069
0.012406
0.0364879
0.0149717
0.0350271
0.0174626
0.0333514
0.0198442
0.0312968
0.0219704
0.0291759
0.0266743
0.0013789
0.0366259
0.00410094
0.0363085
0.00679585
0.0357782
0.00944811
0.0349547
0.0120354
0.0339006
0.0145174
0.0325451
0.0169001
0.0309687
0.0192124
0.0289845
0.0213207
0.0270676
0.0247528
0.00125532
0.0339378
0.00391847
0.0336454
0.00655233
0.0331443
0.00914032
0.0323667
0.0116716
0.0313693
0.0140995
0.0301173
0.0163849
0.0286833
0.0186009
0.0267685
0.0206979
0.0249706
0.0228172
0.00113914
0.0313044
0.0037463
0.0310382
0.00632205
0.0305686
0.00884344
0.0298453
0.011313
0.0288997
0.0137036
0.0277266
0.0159227
0.0264642
0.0180491
0.024642
0.0200959
0.0229239
0.0208975
0.00102686
0.0287261
0.00358104
0.028484
0.00610317
0.0280465
0.00856292
0.0273855
0.0109707
0.0264919
0.0133171
0.0253802
0.0155062
0.0242752
0.0175662
0.022582
0.0195451
0.020945
0.0190175
0.000917926
0.026198
0.00342256
0.0259794
0.00589665
0.0255724
0.00830483
0.0249774
0.0106518
0.0241449
0.0129449
0.0230871
0.0151207
0.0220994
0.0171337
0.020569
0.0190361
0.0190426
0.0172044
0.000812311
0.0237128
0.00327292
0.0235188
0.0057045
0.0231408
0.0080725
0.0226093
0.0103677
0.0218497
0.0126073
0.0208475
0.0147634
0.0199433
0.0167497
0.0185827
0.0186052
0.0171871
0.015483
0.000709176
0.0212681
0.0031304
0.0210976
0.00552519
0.020746
0.00786144
0.0202731
0.0101124
0.0195988
0.0123052
0.0186547
0.0144386
0.0178099
0.01641
0.0166113
0.0182352
0.0153619
0.0138064
0.000610784
0.0188537
0.0030001
0.0187083
0.00536482
0.0183813
0.00767688
0.017961
0.00989327
0.0173824
0.0120342
0.0165138
0.0141301
0.015714
0.0161019
0.0146395
0.0179253
0.0135384
0.0121617
0.0005203
0.0164647
0.00288082
0.0163477
0.00522076
0.0160413
0.00751931
0.0156625
0.00971848
0.0151833
0.0118151
0.0144172
0.0138553
0.0136737
0.0157897
0.0127052
0.0176176
0.0117105
0.0105172
0.000433073
0.0141014
0.00277977
0.014001
0.00509425
0.0137268
0.00738662
0.0133701
0.00958877
0.0129811
0.0116625
0.0123435
0.0136566
0.0116796
0.0155362
0.0108256
0.0173228
0.00992389
0.00886351
0.000356162
0.0117379
0.00270537
0.0116518
0.00499119
0.011441
0.00727081
0.0110905
0.00948788
0.0107641
0.0115784
0.010253
0.0135705
0.00968748
0.0154106
0.00898547
0.0171388
0.00819569
0.00725713
0.000290073
0.00935758
0.00265048
0.00929142
0.00491565
0.00917586
0.00718015
0.008826
0.0093873
0.00855691
0.0114848
0.00815544
0.0135047
0.00766763
0.0153842
0.00710592
0.0170804
0.00649954
0.00567422
0.000225895
0.00696021
0.00263087
0.00688645
0.00490775
0.00689898
0.00715936
0.00657439
0.00934713
0.00636914
0.0114623
0.00604032
0.0134407
0.00568922
0.0153667
0.00517989
0.0170728
0.0047934
0.00408656
0.000175565
0.00454403
0.00259353
0.00446848
0.00493309
0.00455942
0.00722803
0.00427944
0.00935788
0.00423929
0.0115132
0.003885
0.0134805
0.00372195
0.0153733
0.00328705
0.0171287
0.00303798
0.00253357
0.000130063
0.00206404
0.00257234
0.0020262
0.0050315
0.00210027
0.00741208
0.00189886
0.00964394
0.00200744
0.0117945
0.00173447
0.0138349
0.00168154
0.0156803
0.00144163
0.0174384
0.00127993
0.00105839
0.000118039
0.00214424
0.0042445
0.00614336
0.0081508
0.00988527
0.0115668
0.0130084
0.0142884
0.0362481
0.00543658
0.00515979
0.0061054
0.0069612
0.00538999
0.044871
0.00546761
0.0487403
0.0052633
0.0526364
0.00481327
0.0567073
0.00424188
0.0609714
0.0037496
0.0654882
0.00344468
0.0705009
0.00326532
0.0761192
0.00310673
0.0821161
0.00291732
0.0882858
0.00270351
0.0946553
0.00248447
0.101328
0.00226247
0.108422
0.00203787
0.116032
0.00182205
0.124193
0.00162948
0.132918
0.00145748
0.142213
0.00129888
0.152113
0.00115045
0.16266
0.0010105
0.173905
0.000880314
0.185902
0.000759225
0.198707
0.00064454
0.212383
0.000536247
0.226989
0.000434094
0.242592
0.000338198
0.259271
0.000243962
0.277138
0.000137175
0.296304
6.92e-05
0.316926
0.338941
0.00575155
0.0460806
0.00512682
0.0493651
0.00471091
0.0530523
0.00433551
0.0570827
0.00393873
0.0613681
0.00355401
0.065873
0.00326171
0.0707932
0.00305565
0.0763253
0.00287435
0.0822974
0.00268441
0.0884757
0.00249798
0.0948417
0.00231918
0.101506
0.00213932
0.108602
0.00195592
0.116215
0.00176581
0.124383
0.00157408
0.13311
0.0013923
0.142395
0.00122579
0.15228
0.00107465
0.162811
0.00093636
0.174044
0.000809674
0.186028
0.000694086
0.198823
0.000587852
0.212489
0.000489164
0.227088
0.000395886
0.242686
0.000308496
0.259358
0.000222004
0.277224
0.000124641
0.296402
6.05202e-05
0.31699
0.339001
-0.0321588
0.0461136
-0.0324614
0.0496677
-0.0326894
0.0532803
-0.0329554
0.0573487
-0.0331812
0.0615939
-0.0333271
0.0660188
-0.0333822
0.0708483
-0.0332793
0.0762224
-0.0329706
0.0819887
-0.0324821
0.0879872
-0.0318642
0.0942239
-0.0311581
0.1008
-0.0303822
0.107826
-0.0295383
0.115371
-0.0286149
0.12346
-0.0275921
0.132087
-0.0264619
0.141265
-0.0252202
0.151038
-0.0238649
0.161456
-0.0223939
0.172573
-0.0208035
0.184438
-0.0190904
0.19711
-0.0172488
0.210647
-0.0152712
0.22511
-0.0131501
0.240564
-0.0108767
0.257085
-0.0084355
0.274783
-0.0058311
0.293797
-0.00301311
0.314172
0.335988
-0.0293585
0.046361
-0.0295563
0.0498655
-0.0297976
0.0535216
-0.0300191
0.0575703
-0.0300913
0.0616661
-0.0300676
0.0659952
-0.0299665
0.0707472
-0.0297871
0.0760429
-0.0295182
0.0817198
-0.0291444
0.0876134
-0.0286576
0.0937371
-0.0280751
0.100218
-0.0274206
0.107171
-0.0266955
0.114646
-0.0258844
0.122649
-0.0249768
0.131179
-0.0239719
0.14026
-0.0228678
0.149934
-0.0216604
0.160249
-0.0203428
0.171255
-0.0189099
0.183005
-0.0173582
0.195558
-0.0156846
0.208973
-0.0138847
0.22331
-0.0119539
0.238634
-0.00988627
0.255017
-0.00766968
0.272566
-0.00529699
0.291425
-0.00274171
0.311617
0.333247
-0.0257817
0.0466309
-0.0258581
0.0499419
-0.0258638
0.0535273
-0.0259183
0.0576247
-0.0259687
0.0617165
-0.0260036
0.0660301
-0.0260028
0.0707464
-0.0259374
0.0759776
-0.0257589
0.0815412
-0.0254646
0.0873192
-0.025094
0.0933664
-0.0246819
0.0998057
-0.0242166
0.106706
-0.0236678
0.114097
-0.0230108
0.121992
-0.0222345
0.130403
-0.0213456
0.139371
-0.0203547
0.148943
-0.0192711
0.159165
-0.018096
0.17008
-0.0168242
0.181733
-0.0154488
0.194183
-0.0139646
0.207489
-0.0123665
0.221712
-0.0106496
0.236917
-0.00880957
0.253177
-0.0068375
0.270594
-0.00472064
0.289308
-0.00244651
0.309343
0.3308
-0.0222197
0.0469994
-0.0226867
0.0504089
-0.0230679
0.0539085
-0.0232934
0.0578501
-0.0233398
0.061763
-0.023284
0.0659742
-0.0231479
0.0706104
-0.0229144
0.0757441
-0.0226103
0.0812371
-0.0222642
0.0869731
-0.0218814
0.0929835
-0.0214534
0.0993777
-0.0209827
0.106235
-0.0204708
0.113585
-0.0199013
0.121422
-0.0192618
0.129763
-0.0185414
0.13865
-0.0177282
0.14813
-0.0168174
0.158254
-0.0158076
0.16907
-0.0147027
0.180628
-0.0135035
0.192984
-0.0122074
0.206193
-0.01081
0.220315
-0.00930829
0.235415
-0.00769941
0.251568
-0.00597613
0.268871
-0.00412401
0.287456
-0.00213817
0.307357
0.328662
-0.0180717
0.0472141
-0.0182558
0.050593
-0.0184223
0.054075
-0.0185419
0.0579697
-0.0186514
0.0618725
-0.0187519
0.0660747
-0.0188042
0.0706627
-0.01879
0.0757298
-0.0186815
0.0811286
-0.018483
0.0867746
-0.0182396
0.0927402
-0.0179828
0.0991209
-0.0176951
0.105948
-0.0173364
0.113227
-0.0168867
0.120973
-0.0163444
0.129221
-0.0157149
0.138021
-0.0150065
0.147421
-0.0142235
0.157471
-0.0133659
0.168213
-0.0124315
0.179694
-0.0114158
0.191968
-0.0103174
0.205095
-0.00913758
0.219135
-0.00787099
0.234148
-0.00651309
0.25021
-0.00505707
0.267415
-0.003489
0.285888
-0.0018087
0.305677
0.326853
-0.0138339
0.0475621
-0.0143408
0.0511
-0.0149135
0.0546476
-0.015384
0.0584402
-0.0156597
0.0621482
-0.0157808
0.0661958
-0.0157804
0.0706623
-0.0156716
0.0756211
-0.0154725
0.0809295
-0.0152187
0.0865208
-0.0149349
0.0924564
-0.0146233
0.0988093
-0.0142867
0.105611
-0.0139306
0.11287
-0.013548
0.12059
-0.0131337
0.128807
-0.0126773
0.137564
-0.0121598
0.146904
-0.0115663
0.156878
-0.0108934
0.16754
-0.0101451
0.178946
-0.00932267
0.191145
-0.00842632
0.204198
-0.00745725
0.218166
-0.00642014
0.233111
-0.00531158
0.249102
-0.00412389
0.266227
-0.00284377
0.284607
-0.0014731
0.304306
0.32538
-0.00949046
0.0479445
-0.00966466
0.0512742
-0.00975339
0.0547364
-0.00989658
0.0585834
-0.0101245
0.062376
-0.0103905
0.0664618
-0.0106282
0.0709001
-0.0107937
0.0757865
-0.0108841
0.08102
-0.0109138
0.0865505
-0.0108923
0.0924349
-0.0108261
0.0987431
-0.0107118
0.105497
-0.0105265
0.112685
-0.0102627
0.120326
-0.0099307
0.128475
-0.00954498
0.137179
-0.00912288
0.146482
-0.00866804
0.156423
-0.00817271
0.167044
-0.00762675
0.1784
-0.00702575
0.190544
-0.00636619
0.203539
-0.00564737
0.217447
-0.0048706
0.232334
-0.00403575
0.248267
-0.00313754
0.265329
-0.0021647
0.283635
-0.00112075
0.303262
0.324259
-0.00471935
0.0482874
-0.00524135
0.0517962
-0.0058347
0.0553297
-0.00636735
0.0591161
-0.00676324
0.0627719
-0.00700775
0.0667063
-0.00714501
0.0710373
-0.00721596
0.0758574
-0.00722737
0.0810314
-0.00718475
0.0865079
-0.007114
0.0923642
-0.00703348
0.0986626
-0.00694162
0.105405
-0.00683639
0.11258
-0.00671504
0.120205
-0.00656892
0.128329
-0.00638462
0.136994
-0.00615373
0.146251
-0.00587757
0.156147
-0.00555845
0.166725
-0.00519729
0.178038
-0.00479299
0.19014
-0.00434669
0.203092
-0.00386043
0.216961
-0.00333222
0.231806
-0.0027636
0.247698
-0.00215118
0.264717
-0.00148501
0.282968
-0.000768236
0.302545
0.323491
-0.000309172
0.0489757
-0.0006391
0.0521261
-0.000828298
0.0555189
-0.000964084
0.0592519
-0.00125204
0.0630599
-0.00159692
0.0670512
-0.00194964
0.07139
-0.00221708
0.0761249
-0.0024482
0.0812625
-0.00268492
0.0867446
-0.00290103
0.0925803
-0.00306274
0.0988243
-0.00316185
0.105504
-0.00318952
0.112608
-0.00315991
0.120175
-0.00309654
0.128265
-0.00301361
0.136911
-0.00291869
0.146156
-0.00281132
0.156039
-0.00268859
0.166603
-0.00254506
0.177895
-0.00237725
0.189972
-0.00218267
0.202898
-0.00196108
0.216739
-0.00170867
0.231554
-0.0014283
0.247418
-0.00112018
0.264409
-0.00077723
0.282625
-0.000402424
0.30217
0.323089
0.00498871
0.00432359
0.00360038
0.00297986
0.00255447
0.00225582
0.00200461
0.00172359
0.00146785
0.00128577
0.00113214
0.000940017
0.000722831
0.000516688
0.000332316
0.000182492
7.16911e-05
-4.34067e-06
-5.35027e-05
-8.72841e-05
-0.000110158
-0.000125594
-0.000134277
-0.000138385
-0.000135008
-0.000124009
-0.000107916
-8.08482e-05
-4.2182e-05
)
;

boundaryField
{
    outlet
    {
        type            calculated;
        value           nonuniform 0();
    }
    upperWall
    {
        type            symmetryPlane;
        value           nonuniform 0();
    }
    lowerWall
    {
        type            symmetryPlane;
        value           uniform 0;
    }
    inlet
    {
        type            calculated;
        value           nonuniform 0();
    }
    cylinder
    {
        type            calculated;
        value           uniform 0;
    }
    frontAndBack
    {
        type            empty;
        value           nonuniform 0();
    }
    procBoundary1to0
    {
        type            processor;
        value           nonuniform List<scalar> 
45
(
-0.0165043
-0.0429725
-0.043701
-0.0431019
-0.0132164
-0.0418502
-0.0421663
-0.0418131
-0.00730165
-0.0412265
-0.036939
-0.042061
-0.00474567
-0.0394713
-0.0042766
-0.0448244
-0.048818
-0.0524321
-0.0562572
-0.0604
-0.064996
-0.0701959
-0.0759399
-0.0819575
-0.0880964
-0.0944415
-0.101109
-0.1082
-0.115807
-0.123977
-0.132725
-0.142041
-0.151955
-0.162512
-0.173765
-0.185771
-0.198586
-0.212268
-0.226881
-0.24249
-0.259175
-0.277043
-0.296198
-0.316858
-0.338872
)
;
    }
    procBoundary1to2
    {
        type            processor;
        value           nonuniform List<scalar> 
63
(
0.0217814
0.0210933
0.0277511
0.0286762
0.0275056
0.0278065
0.027328
0.026603
0.028885
0.0292541
0.0296288
0.0288385
0.0313126
0.0322685
0.0335517
0.0313154
0.00245608
0.0209179
-0.0022085
-0.0069952
-0.0118256
-0.0158655
0.0120722
-0.0220143
0.00906305
-0.0241571
0.00709841
-0.0191387
0.00806651
-0.0073959
0.0133498
0.00742647
0.0518151
0.0548346
0.0582362
0.0621288
0.0660636
0.069989
0.0745329
0.0793833
0.0840934
0.0894996
-0.0242906
0.096584
0.102466
0.109185
0.116291
0.123683
0.131765
0.140436
0.149715
0.15972
0.170393
0.181821
0.194098
0.207235
0.221259
0.236327
0.252468
0.269744
0.288274
0.308153
0.329462
)
;
    }
    procBoundary1to5
    {
        type            processor;
        value           nonuniform List<scalar> 
20
(
0.0146181
0.0201265
0.020821
0.00129005
0.00136415
0.00143277
0.0014943
0.00155141
0.00161024
0.00167284
0.00173554
0.00180365
0.00186869
0.00193018
0.00200738
0.00209024
0.00217147
0.00224061
0.00234993
0.001946
)
;
    }
}


// ************************************************************************* //
