/*--------------------------------*- C++ -*----------------------------------*\
| =========                 |                                                 |
| \\      /  F ield         | OpenFOAM: The Open Source CFD Toolbox           |
|  \\    /   O peration     | Version:                                        |
|   \\  /    A nd           | Website:  www.openfoam.com                      |
|    \\/     M anipulation  |                                                 |
\*---------------------------------------------------------------------------*/
FoamFile
{
    version     2.0;
    format      ascii;
    class       volScalarField;
    location    "0.5";
    object      p;
}
// * * * * * * * * * * * * * * * * * * * * * * * * * * * * * * * * * * * * * //

dimensions      [0 2 -2 0 0 0 0];


internalField   nonuniform List<scalar> 
400
(
0.130079
0.123139
0.116233
0.10936
0.102518
0.0957072
0.0889258
0.0821731
0.0754482
0.0687504
0.0620787
0.0554326
0.0488112
0.0422139
0.0356404
0.0290891
0.0225627
0.0160539
0.00958241
0.0031004
0.130148
0.123206
0.116297
0.109421
0.102577
0.0957641
0.0889805
0.0822257
0.0754988
0.068799
0.0621255
0.0554775
0.0488544
0.0422555
0.0356805
0.0291278
0.0226006
0.0160901
0.00962174
0.00312289
0.130206
0.123262
0.116351
0.109473
0.102627
0.0958118
0.0890263
0.0822696
0.075541
0.0688394
0.0621643
0.0555147
0.0488902
0.0422897
0.0357134
0.0291591
0.0226313
0.0161173
0.00965134
0.00313137
0.130252
0.123306
0.116394
0.109514
0.102666
0.0958493
0.0890623
0.0823041
0.075574
0.068871
0.0621945
0.0555436
0.0489177
0.0423159
0.0357385
0.0291824
0.022654
0.0161355
0.00967008
0.00313244
0.130294
0.123346
0.116431
0.10955
0.102701
0.0958826
0.0890941
0.0823345
0.075603
0.0688988
0.0622209
0.0555688
0.0489416
0.0423384
0.0357598
0.0292019
0.0226723
0.0161491
0.00968311
0.00313247
0.130333
0.123383
0.116467
0.109584
0.102734
0.0959139
0.089124
0.0823631
0.0756302
0.0689247
0.0622456
0.0555921
0.0489636
0.042359
0.035779
0.0292192
0.0226881
0.0161605
0.00969289
0.00313394
0.130371
0.12342
0.116502
0.109618
0.102766
0.0959445
0.0891531
0.0823909
0.0756568
0.0689499
0.0622694
0.0556147
0.0489847
0.0423788
0.0357972
0.0292354
0.0227024
0.016171
0.0097007
0.00313825
0.13041
0.123457
0.116538
0.109652
0.102798
0.0959756
0.0891828
0.0824192
0.0756837
0.0689755
0.0622936
0.0556375
0.0490061
0.0423987
0.0358153
0.0292516
0.0227161
0.0161821
0.00970756
0.00314646
0.130451
0.123496
0.116576
0.109688
0.102833
0.0960083
0.089214
0.082449
0.075712
0.0690024
0.0623191
0.0556615
0.0490285
0.0424196
0.0358342
0.0292688
0.0227303
0.0161948
0.00971428
0.00315916
0.130495
0.123538
0.116616
0.109726
0.102869
0.0960433
0.0892474
0.0824808
0.0757423
0.0690313
0.0623463
0.0556874
0.0490525
0.0424421
0.0358544
0.0292876
0.0227454
0.0162099
0.00972132
0.00317644
0.130542
0.123583
0.116658
0.109767
0.102908
0.0960806
0.0892831
0.0825148
0.0757747
0.0690622
0.0623756
0.0557151
0.0490784
0.0424665
0.0358762
0.0293083
0.0227618
0.0162274
0.0097289
0.00319793
0.130592
0.12363
0.116703
0.10981
0.102949
0.09612
0.0893207
0.0825508
0.075809
0.0690949
0.0624066
0.0557446
0.0491059
0.0424926
0.0358996
0.0293308
0.0227794
0.0162474
0.00973706
0.00322295
0.130642
0.123679
0.11675
0.109855
0.102992
0.0961606
0.0893596
0.082588
0.0758444
0.0691287
0.0624387
0.0557751
0.0491344
0.0425198
0.0359239
0.0293547
0.0227978
0.0162693
0.00974566
0.00325046
0.130693
0.123727
0.116796
0.109899
0.103034
0.0962013
0.0893985
0.0826252
0.07588
0.0691627
0.0624709
0.0558059
0.0491632
0.0425474
0.0359485
0.0293791
0.0228167
0.0162922
0.00975443
0.00327917
0.130742
0.123774
0.116841
0.109942
0.103075
0.0962406
0.089436
0.0826612
0.0759144
0.0691956
0.0625021
0.0558357
0.0491911
0.0425742
0.0359725
0.0294031
0.022835
0.0163151
0.009763
0.0033076
0.130787
0.123817
0.116882
0.109981
0.103113
0.0962767
0.0894707
0.0826943
0.0759461
0.0692259
0.062531
0.0558633
0.0492169
0.042599
0.0359946
0.0294255
0.0228522
0.0163367
0.00977099
0.00333428
0.130826
0.123854
0.116918
0.110016
0.103146
0.0963082
0.0895007
0.0827232
0.0759736
0.0692523
0.062556
0.0558873
0.0492393
0.0426207
0.036014
0.0294452
0.0228671
0.0163558
0.00977797
0.00335772
0.130857
0.123884
0.116946
0.110043
0.103172
0.0963333
0.0895248
0.0827462
0.0759957
0.0692734
0.0625761
0.0559065
0.0492573
0.0426381
0.0360295
0.0294611
0.0228792
0.0163713
0.00978355
0.00337662
0.130878
0.123905
0.116966
0.110062
0.10319
0.0963508
0.0895416
0.0827623
0.0760111
0.0692882
0.0625901
0.0559199
0.0492698
0.0426502
0.0360403
0.0294722
0.0228876
0.0163822
0.00978747
0.00338989
0.130889
0.123915
0.116977
0.110072
0.1032
0.0963597
0.0895502
0.0827706
0.076019
0.0692957
0.0625973
0.0559268
0.0492762
0.0426564
0.0360459
0.029478
0.0228919
0.0163878
0.00978945
0.00339676
)
;

boundaryField
{
    fixedWalls
    {
        type            zeroGradient;
    }
    inlet
    {
        type            zeroGradient;
    }
    outlet
    {
        type            fixedValue;
        value           uniform 0;
    }
    frontAndBack
    {
        type            empty;
    }
    procBoundary3to2
    {
        type            processor;
        value           nonuniform List<scalar> 
20
(
0.137053
0.137125
0.137186
0.137234
0.137277
0.137318
0.137358
0.137399
0.137442
0.137488
0.137537
0.137589
0.137642
0.137695
0.137746
0.137793
0.137834
0.137866
0.137889
0.1379
)
;
    }
    procBoundary3to7
    {
        type            processor;
        value           nonuniform List<scalar> 
20
(
0.130889
0.123915
0.116977
0.110072
0.1032
0.0963597
0.0895501
0.0827705
0.0760189
0.0692956
0.0625972
0.0559267
0.0492761
0.0426563
0.0360458
0.0294779
0.0228919
0.0163878
0.00978941
0.0033968
)
;
    }
}


// ************************************************************************* //
