/*--------------------------------*- C++ -*----------------------------------*\
| =========                 |                                                 |
| \\      /  F ield         | OpenFOAM: The Open Source CFD Toolbox           |
|  \\    /   O peration     | Version:                                        |
|   \\  /    A nd           | Website:  www.openfoam.com                      |
|    \\/     M anipulation  |                                                 |
\*---------------------------------------------------------------------------*/
FoamFile
{
    version     2.0;
    format      ascii;
    class       surfaceScalarField;
    location    "0.5";
    object      phi;
}
// * * * * * * * * * * * * * * * * * * * * * * * * * * * * * * * * * * * * * //

dimensions      [0 3 -1 0 0 0 0];
oriented        oriented;


internalField   nonuniform List<scalar> 
760
(
1.98657e-06
4.31953e-09
1.98241e-06
4.15709e-09
1.97841e-06
4.00083e-09
1.97456e-06
3.8503e-09
1.97086e-06
3.70526e-09
1.96729e-06
3.56556e-09
1.96386e-06
3.43108e-09
1.96056e-06
3.30144e-09
1.95738e-06
3.17714e-09
1.95433e-06
3.05768e-09
1.95138e-06
2.94313e-09
1.94855e-06
2.83353e-09
1.94582e-06
2.72868e-09
1.94319e-06
2.6333e-09
1.94065e-06
2.53723e-09
1.93817e-06
2.47663e-09
1.9358e-06
2.3777e-09
1.93331e-06
2.48289e-09
1.93097e-06
2.34523e-09
4.04947e-09
5.74276e-06
1.61924e-08
5.73134e-06
1.55774e-08
5.72036e-06
1.49863e-08
5.70979e-06
1.4417e-08
5.69963e-06
1.38686e-08
5.68985e-06
1.33403e-08
5.68045e-06
1.2832e-08
5.67141e-06
1.23421e-08
5.66272e-06
1.18712e-08
5.65436e-06
1.14179e-08
5.64632e-06
1.09831e-08
5.63858e-06
1.05666e-08
5.63114e-06
1.01692e-08
5.62398e-06
9.80056e-09
5.61707e-06
9.44216e-09
5.61038e-06
9.17129e-09
5.60391e-06
8.84522e-09
5.59743e-06
8.96626e-09
5.59108e-06
8.69501e-09
1.12513e-08
9.2803e-06
3.44675e-08
9.26272e-06
3.31492e-08
9.24583e-06
3.18829e-08
9.22958e-06
3.06636e-08
9.21396e-06
2.94891e-08
9.19894e-06
2.83579e-08
9.18451e-06
2.7269e-08
9.17063e-06
2.62196e-08
9.15729e-06
2.521e-08
9.14447e-06
2.42371e-08
9.13215e-06
2.33036e-08
9.12031e-06
2.24081e-08
9.10892e-06
2.15538e-08
9.09797e-06
2.0752e-08
9.08743e-06
1.99832e-08
9.07725e-06
1.93515e-08
9.06742e-06
1.86782e-08
9.05778e-06
1.86046e-08
9.04834e-06
1.81309e-08
2.04188e-08
1.25964e-05
5.78826e-08
1.25739e-05
5.56559e-08
1.25523e-05
5.35178e-08
1.25315e-05
5.146e-08
1.25115e-05
4.94782e-08
1.24923e-05
4.75692e-08
1.24738e-05
4.57313e-08
1.24561e-05
4.39595e-08
1.2439e-05
4.22544e-08
1.24227e-05
4.06106e-08
1.24069e-05
3.90329e-08
1.23918e-05
3.75164e-08
1.23773e-05
3.60702e-08
1.23634e-05
3.47007e-08
1.23499e-05
3.33976e-08
1.2337e-05
3.22667e-08
1.23246e-05
3.11391e-08
1.23125e-05
3.06405e-08
1.23008e-05
2.98677e-08
3.12457e-08
1.56878e-05
8.50382e-08
1.56618e-05
8.17511e-08
1.56367e-05
7.85957e-08
1.56126e-05
7.55597e-08
1.55894e-05
7.26369e-08
1.55672e-05
6.98212e-08
1.55458e-05
6.711e-08
1.55252e-05
6.44958e-08
1.55055e-05
6.19797e-08
1.54866e-05
5.9553e-08
1.54684e-05
5.72241e-08
1.54509e-05
5.49808e-08
1.54342e-05
5.28427e-08
1.54181e-05
5.08012e-08
1.54026e-05
4.88739e-08
1.53877e-05
4.71249e-08
1.53734e-05
4.54716e-08
1.53597e-05
4.43342e-08
1.53463e-05
4.32308e-08
4.33184e-08
1.85512e-05
1.14389e-07
1.8523e-05
1.09949e-07
1.84959e-05
1.05689e-07
1.84699e-05
1.01592e-07
1.84449e-05
9.76473e-08
1.84208e-05
9.38477e-08
1.83977e-05
9.01893e-08
1.83756e-05
8.66614e-08
1.83543e-05
8.32659e-08
1.83339e-05
7.99894e-08
1.83142e-05
7.68459e-08
1.82954e-05
7.38109e-08
1.82773e-05
7.09226e-08
1.826e-05
6.81413e-08
1.82433e-05
6.55404e-08
1.82274e-05
6.30828e-08
1.8212e-05
6.08763e-08
1.81974e-05
5.89285e-08
1.81831e-05
5.75178e-08
5.61255e-08
2.11835e-05
1.44259e-07
2.11549e-05
1.38642e-07
2.11273e-05
1.33253e-07
2.11008e-05
1.28072e-07
2.10754e-05
1.23085e-07
2.10509e-05
1.18282e-07
2.10275e-05
1.13657e-07
2.10049e-05
1.09198e-07
2.09833e-05
1.04906e-07
2.09625e-05
1.00762e-07
2.09426e-05
9.67882e-08
2.09234e-05
9.2942e-08
2.09051e-05
8.92907e-08
2.08875e-05
8.57431e-08
2.08706e-05
8.2464e-08
2.08544e-05
7.92446e-08
2.08388e-05
7.65023e-08
2.08241e-05
7.36312e-08
2.08096e-05
7.19684e-08
6.90554e-08
2.35831e-05
1.7288e-07
2.35556e-05
1.66133e-07
2.35292e-05
1.59661e-07
2.35038e-05
1.53439e-07
2.34794e-05
1.47452e-07
2.3456e-05
1.41686e-07
2.34335e-05
1.36135e-07
2.3412e-05
1.30781e-07
2.33912e-05
1.2563e-07
2.33713e-05
1.20653e-07
2.33522e-05
1.15884e-07
2.33339e-05
1.11256e-07
2.33163e-05
1.06877e-07
2.32995e-05
1.02582e-07
2.32833e-05
9.86652e-08
2.32679e-05
9.46757e-08
2.32529e-05
9.14553e-08
2.32389e-05
8.76177e-08
2.32251e-05
8.57719e-08
8.14114e-08
2.57494e-05
1.98457e-07
2.57249e-05
1.907e-07
2.57013e-05
1.83259e-07
2.56786e-05
1.76107e-07
2.56568e-05
1.69226e-07
2.56359e-05
1.62599e-07
2.56158e-05
1.5622e-07
2.55965e-05
1.50067e-07
2.5578e-05
1.44151e-07
2.55602e-05
1.38427e-07
2.55432e-05
1.3295e-07
2.55268e-05
1.27619e-07
2.55111e-05
1.22596e-07
2.54961e-05
1.17617e-07
2.54816e-05
1.13147e-07
2.54678e-05
1.0843e-07
2.54545e-05
1.04822e-07
2.5442e-05
1.0005e-07
2.54297e-05
9.80921e-08
9.24458e-08
2.76844e-05
2.19248e-07
2.76644e-05
2.10672e-07
2.76452e-05
2.02446e-07
2.76268e-05
1.94539e-07
2.76091e-05
1.86932e-07
2.75921e-05
1.79606e-07
2.75757e-05
1.72556e-07
2.75601e-05
1.65753e-07
2.7545e-05
1.59215e-07
2.75305e-05
1.52884e-07
2.75167e-05
1.46834e-07
2.75033e-05
1.40927e-07
2.74906e-05
1.35389e-07
2.74783e-05
1.29839e-07
2.74665e-05
1.24938e-07
2.74554e-05
1.1959e-07
2.74445e-05
1.15707e-07
2.74344e-05
1.1011e-07
2.74244e-05
1.08107e-07
1.01406e-07
2.9392e-05
2.33666e-07
2.93782e-05
2.24526e-07
2.93649e-05
2.15758e-07
2.93521e-05
2.0733e-07
2.93398e-05
1.99222e-07
2.9328e-05
1.91413e-07
2.93166e-05
1.83898e-07
2.93057e-05
1.76647e-07
2.92953e-05
1.6968e-07
2.92852e-05
1.62927e-07
2.92756e-05
1.56483e-07
2.92663e-05
1.50172e-07
2.92574e-05
1.44286e-07
2.92489e-05
1.38322e-07
2.92407e-05
1.33143e-07
2.9233e-05
1.27315e-07
2.92254e-05
1.23285e-07
2.92185e-05
1.17041e-07
2.92116e-05
1.15054e-07
1.07583e-07
3.08789e-05
2.4038e-07
3.08725e-05
2.30984e-07
3.08662e-05
2.21968e-07
3.08603e-05
2.13301e-07
3.08545e-05
2.04963e-07
3.0849e-05
1.96931e-07
3.08437e-05
1.89203e-07
3.08386e-05
1.81743e-07
3.08337e-05
1.74579e-07
3.0829e-05
1.67629e-07
3.08245e-05
1.61008e-07
3.08202e-05
1.545e-07
3.0816e-05
1.48464e-07
3.0812e-05
1.42283e-07
3.08082e-05
1.37006e-07
3.08046e-05
1.30893e-07
3.0801e-05
1.26852e-07
3.07978e-05
1.20199e-07
3.07946e-05
1.18284e-07
1.1037e-07
3.21541e-05
2.38417e-07
3.21559e-05
2.29108e-07
3.21577e-05
2.20175e-07
3.21594e-05
2.11585e-07
3.21611e-05
2.0332e-07
3.21627e-05
1.95358e-07
3.21642e-05
1.87699e-07
3.21656e-05
1.80301e-07
3.2167e-05
1.73201e-07
3.21683e-05
1.66306e-07
3.21696e-05
1.5975e-07
3.21708e-05
1.53281e-07
3.21719e-05
1.47316e-07
3.21731e-05
1.41145e-07
3.21741e-05
1.3596e-07
3.21752e-05
1.29796e-07
3.21762e-05
1.25882e-07
3.21773e-05
1.19103e-07
3.21782e-05
1.17311e-07
1.09306e-07
3.32285e-05
2.27244e-07
3.32392e-05
2.18385e-07
3.32495e-05
2.0988e-07
3.32594e-05
2.01702e-07
3.32689e-05
1.93832e-07
3.3278e-05
1.86248e-07
3.32868e-05
1.78955e-07
3.32952e-05
1.71907e-07
3.33032e-05
1.65147e-07
3.33109e-05
1.58574e-07
3.33184e-05
1.52336e-07
3.33255e-05
1.4616e-07
3.33323e-05
1.40494e-07
3.33389e-05
1.3458e-07
3.33451e-05
1.29683e-07
3.33512e-05
1.23728e-07
3.3357e-05
1.20076e-07
3.33626e-05
1.13479e-07
3.33681e-05
1.11856e-07
1.04125e-07
3.41149e-05
2.06826e-07
3.41345e-05
1.98776e-07
3.41533e-05
1.91047e-07
3.41714e-05
1.83613e-07
3.41888e-05
1.76459e-07
3.42055e-05
1.69563e-07
3.42215e-05
1.62932e-07
3.42369e-05
1.56522e-07
3.42517e-05
1.50376e-07
3.42659e-05
1.44395e-07
3.42795e-05
1.38727e-07
3.42925e-05
1.33099e-07
3.43051e-05
1.27961e-07
3.43171e-05
1.22553e-07
3.43286e-05
1.18133e-07
3.43397e-05
1.12654e-07
3.43504e-05
1.09395e-07
3.43606e-05
1.03293e-07
3.43705e-05
1.01879e-07
9.4781e-08
3.48265e-05
1.77654e-07
3.48546e-05
1.70753e-07
3.48815e-05
1.64124e-07
3.49074e-05
1.57747e-07
3.49322e-05
1.51611e-07
3.49561e-05
1.45694e-07
3.4979e-05
1.40005e-07
3.5001e-05
1.34504e-07
3.50222e-05
1.29232e-07
3.50425e-05
1.24097e-07
3.5062e-05
1.19237e-07
3.50807e-05
1.144e-07
3.50986e-05
1.10002e-07
3.51158e-05
1.05341e-07
3.51324e-05
1.01574e-07
3.51482e-05
9.68281e-08
3.51635e-05
9.40747e-08
3.51781e-05
8.87717e-08
3.51923e-05
8.76026e-08
8.14723e-08
3.53766e-05
1.40737e-07
3.54121e-05
1.35279e-07
3.54462e-05
1.30036e-07
3.54789e-05
1.24993e-07
3.55104e-05
1.20139e-07
3.55406e-05
1.15458e-07
3.55697e-05
1.10957e-07
3.55976e-05
1.06605e-07
3.56244e-05
1.02436e-07
3.56501e-05
9.83704e-08
3.56748e-05
9.45292e-08
3.56985e-05
9.06979e-08
3.57213e-05
8.72275e-08
3.57431e-05
8.35272e-08
3.57641e-05
8.05651e-08
3.57842e-05
7.67847e-08
3.58036e-05
7.46346e-08
3.5822e-05
7.04023e-08
3.58401e-05
6.95063e-08
6.46362e-08
3.57772e-05
9.75485e-08
3.58187e-05
9.37727e-08
3.58586e-05
9.01456e-08
3.58969e-05
8.66563e-08
3.59337e-05
8.32987e-08
3.59691e-05
8.00608e-08
3.60031e-05
7.69479e-08
3.60358e-05
7.39368e-08
3.60672e-05
7.10535e-08
3.60973e-05
6.82417e-08
3.61263e-05
6.5588e-08
3.6154e-05
6.29367e-08
3.61807e-05
6.05427e-08
3.62063e-05
5.79794e-08
3.62309e-05
5.59428e-08
3.62544e-05
5.33169e-08
3.62771e-05
5.18484e-08
3.62986e-05
4.89064e-08
3.63198e-05
4.83037e-08
4.4933e-08
3.60382e-05
4.99487e-08
3.60839e-05
4.80215e-08
3.61279e-05
4.61704e-08
3.61702e-05
4.43908e-08
3.62108e-05
4.26795e-08
3.62498e-05
4.10289e-08
3.62873e-05
3.94425e-08
3.63234e-05
3.79095e-08
3.6358e-05
3.6442e-08
3.63912e-05
3.50106e-08
3.64231e-05
3.36631e-08
3.64538e-05
3.23159e-08
3.64832e-05
3.11021e-08
3.65114e-05
2.97993e-08
3.65385e-05
2.87725e-08
3.65644e-05
2.74357e-08
3.65896e-05
2.67025e-08
3.66133e-05
2.52038e-08
3.66367e-05
2.49128e-08
2.32034e-08
3.61668e-05
3.62148e-05
3.62609e-05
3.63052e-05
3.63477e-05
3.63886e-05
3.6428e-05
3.64657e-05
3.6502e-05
3.65368e-05
3.65703e-05
3.66024e-05
3.66333e-05
3.66628e-05
3.66913e-05
3.67184e-05
3.67448e-05
3.67697e-05
3.67942e-05
)
;

boundaryField
{
    fixedWalls
    {
        type            calculated;
        value           uniform 0;
    }
    inlet
    {
        type            calculated;
        value           nonuniform 0();
    }
    outlet
    {
        type            calculated;
        value           nonuniform List<scalar> 
20
(
1.92692e-06
5.58387e-06
9.03918e-06
1.229e-05
1.53343e-05
1.81703e-05
2.07967e-05
2.32128e-05
2.54187e-05
2.74155e-05
2.92054e-05
3.07918e-05
3.21793e-05
3.33733e-05
3.43799e-05
3.52056e-05
3.58569e-05
3.63395e-05
3.66584e-05
3.6817e-05
)
;
    }
    frontAndBack
    {
        type            empty;
        value           nonuniform 0();
    }
    procBoundary3to2
    {
        type            processor;
        value           nonuniform List<scalar> 
20
(
-1.99089e-06
-5.75464e-06
-9.29857e-06
-1.26198e-05
-1.5715e-05
-1.85805e-05
-2.12134e-05
-2.36117e-05
-2.5775e-05
-2.77052e-05
-2.94064e-05
-3.08856e-05
-3.21521e-05
-3.32173e-05
-3.40945e-05
-3.47974e-05
-3.53397e-05
-3.5734e-05
-3.59906e-05
-3.6117e-05
)
;
    }
    procBoundary3to7
    {
        type            processor;
        value           nonuniform List<scalar> 
20
(
7.11702e-11
7.88514e-11
8.53571e-11
9.44918e-11
1.05095e-10
1.17925e-10
1.31071e-10
1.44614e-10
1.6031e-10
1.76773e-10
1.94128e-10
2.14142e-10
2.37026e-10
2.56906e-10
2.81616e-10
3.03813e-10
3.3188e-10
3.57786e-10
3.84434e-10
4.22813e-10
)
;
    }
}


// ************************************************************************* //
