/*--------------------------------*- C++ -*----------------------------------*\
| =========                 |                                                 |
| \\      /  F ield         | OpenFOAM: The Open Source CFD Toolbox           |
|  \\    /   O peration     | Version:                                        |
|   \\  /    A nd           | Website:  www.openfoam.com                      |
|    \\/     M anipulation  |                                                 |
\*---------------------------------------------------------------------------*/
FoamFile
{
    version     2.0;
    format      ascii;
    class       volVectorField;
    location    "0.5";
    object      U;
}
// * * * * * * * * * * * * * * * * * * * * * * * * * * * * * * * * * * * * * //

dimensions      [0 1 -1 0 0 0 0];


internalField   nonuniform List<vector> 
400
(
(0.0795477 2.88323e-05 0)
(0.0793782 2.77628e-05 0)
(0.0792151 2.67344e-05 0)
(0.0790582 2.5744e-05 0)
(0.0789071 2.47887e-05 0)
(0.0787617 2.38692e-05 0)
(0.0786219 2.29844e-05 0)
(0.0784873 2.21311e-05 0)
(0.0783577 2.13157e-05 0)
(0.0782331 2.0534e-05 0)
(0.0781131 1.97864e-05 0)
(0.0779976 1.90736e-05 0)
(0.0778865 1.83915e-05 0)
(0.0777792 1.77889e-05 0)
(0.077676 1.71615e-05 0)
(0.0775755 1.68721e-05 0)
(0.0774797 1.61764e-05 0)
(0.0773805 1.7559e-05 0)
(0.077293 1.66996e-05 0)
(0.0771299 3.57873e-05 0)
(0.229944 0.000173071 0)
(0.229478 0.000166544 0)
(0.22903 0.000160268 0)
(0.228599 0.000154222 0)
(0.228185 0.000148396 0)
(0.227786 0.000142786 0)
(0.227403 0.000137388 0)
(0.227034 0.000132186 0)
(0.226679 0.000127193 0)
(0.226338 0.000122389 0)
(0.22601 0.000117785 0)
(0.225695 0.000113382 0)
(0.225392 0.00010918 0)
(0.2251 0.000105327 0)
(0.224819 0.000101529 0)
(0.224546 9.89302e-05 0)
(0.224286 9.53384e-05 0)
(0.22402 9.83638e-05 0)
(0.223792 9.49928e-05 0)
(0.223421 0.000141417 0)
(0.37157 0.000475129 0)
(0.370854 0.000457036 0)
(0.370165 0.000439648 0)
(0.369502 0.000422904 0)
(0.368865 0.000406774 0)
(0.368252 0.000391238 0)
(0.367663 0.000376287 0)
(0.367097 0.000361877 0)
(0.366553 0.000348021 0)
(0.36603 0.000334676 0)
(0.365528 0.000321876 0)
(0.365045 0.000309612 0)
(0.36458 0.000297915 0)
(0.364133 0.00028701 0)
(0.363705 0.000276493 0)
(0.363288 0.000268235 0)
(0.362895 0.000258922 0)
(0.36249 0.000260348 0)
(0.362158 0.000253374 0)
(0.361632 0.000305136 0)
(0.504316 0.000900079 0)
(0.503398 0.000865571 0)
(0.502516 0.000832426 0)
(0.501667 0.000800518 0)
(0.500852 0.000769787 0)
(0.500068 0.000740183 0)
(0.499315 0.000711685 0)
(0.498591 0.000684215 0)
(0.497896 0.000657784 0)
(0.497228 0.00063231 0)
(0.496586 0.000607864 0)
(0.495969 0.000584397 0)
(0.495377 0.000562013 0)
(0.494808 0.000540925 0)
(0.494262 0.000520778 0)
(0.493732 0.000503806 0)
(0.493235 0.000486286 0)
(0.49272 0.000481558 0)
(0.492314 0.000469294 0)
(0.491665 0.000508431 0)
(0.628046 0.00141382 0)
(0.626982 0.00135932 0)
(0.625959 0.00130699 0)
(0.624976 0.00125662 0)
(0.624031 0.00120813 0)
(0.623123 0.00116142 0)
(0.622251 0.00111644 0)
(0.621413 0.00107307 0)
(0.620608 0.00103134 0)
(0.619835 0.000991092 0)
(0.619092 0.000952468 0)
(0.618379 0.00091531 0)
(0.617695 0.000879877 0)
(0.617037 0.000846205 0)
(0.616408 0.000814269 0)
(0.615796 0.000785982 0)
(0.615227 0.000758436 0)
(0.614631 0.000742944 0)
(0.614179 0.000724187 0)
(0.613438 0.000740202 0)
(0.742623 0.00198696 0)
(0.741472 0.00191 0)
(0.740367 0.00183615 0)
(0.739305 0.00176509 0)
(0.738284 0.00169669 0)
(0.737304 0.0016308 0)
(0.736362 0.00156735 0)
(0.735458 0.00150617 0)
(0.734589 0.00144728 0)
(0.733755 0.00139047 0)
(0.732954 0.00133596 0)
(0.732185 0.0012834 0)
(0.731448 0.00123332 0)
(0.730738 0.00118534 0)
(0.730062 0.0011402 0)
(0.729402 0.00109848 0)
(0.728794 0.00105992 0)
(0.728149 0.0010297 0)
(0.727678 0.00100441 0)
(0.726878 0.000991892 0)
(0.847927 0.00258785 0)
(0.846757 0.00248725 0)
(0.845632 0.00239072 0)
(0.844551 0.00229789 0)
(0.843513 0.00220855 0)
(0.842516 0.00212248 0)
(0.841559 0.00203961 0)
(0.840639 0.0019597 0)
(0.839756 0.00188279 0)
(0.838908 0.00180855 0)
(0.838094 0.00173734 0)
(0.837313 0.00166851 0)
(0.836563 0.00160306 0)
(0.835843 0.0015398 0)
(0.835157 0.00148091 0)
(0.834485 0.00142428 0)
(0.833873 0.00137461 0)
(0.833214 0.00132676 0)
(0.832749 0.00129578 0)
(0.831932 0.00125267 0)
(0.943883 0.00318188 0)
(0.942762 0.00305783 0)
(0.941684 0.00293883 0)
(0.940649 0.00282442 0)
(0.939655 0.00271432 0)
(0.9387 0.00260827 0)
(0.937782 0.00250617 0)
(0.936901 0.00240771 0)
(0.936056 0.00231297 0)
(0.935244 0.00222145 0)
(0.934464 0.00213373 0)
(0.933716 0.00204872 0)
(0.932999 0.00196812 0)
(0.932309 0.00188948 0)
(0.931653 0.00181721 0)
(0.93101 0.00174502 0)
(0.930427 0.00168503 0)
(0.929792 0.00161794 0)
(0.929359 0.00158256 0)
(0.92857 0.00150931 0)
(1.03048 0.00373297 0)
(1.02948 0.00358714 0)
(1.02851 0.00344727 0)
(1.02759 0.00331281 0)
(1.0267 0.00318344 0)
(1.02585 0.00305884 0)
(1.02503 0.0029389 0)
(1.02424 0.00282322 0)
(1.02348 0.00271195 0)
(1.02276 0.00260437 0)
(1.02206 0.00250136 0)
(1.02139 0.00240125 0)
(1.02075 0.0023067 0)
(1.02014 0.0022135 0)
(1.01955 0.00212911 0)
(1.01897 0.00204168 0)
(1.01846 0.00197288 0)
(1.01789 0.00188643 0)
(1.01751 0.00184807 0)
(1.0168 0.00174713 0)
(1.10778 0.00420524 0)
(1.10697 0.00404078 0)
(1.10619 0.00388304 0)
(1.10543 0.0037314 0)
(1.10471 0.00358554 0)
(1.10402 0.00344504 0)
(1.10335 0.00330983 0)
(1.10271 0.0031794 0)
(1.1021 0.00305399 0)
(1.10151 0.00293262 0)
(1.10094 0.00281655 0)
(1.10039 0.00270342 0)
(1.09987 0.00259705 0)
(1.09937 0.00249108 0)
(1.0989 0.00239666 0)
(1.09843 0.00229539 0)
(1.09801 0.00221985 0)
(1.09754 0.00211545 0)
(1.09724 0.0020755 0)
(1.09666 0.00195087 0)
(1.17596 0.0045649 0)
(1.1754 0.00438631 0)
(1.17486 0.00421501 0)
(1.17433 0.00405033 0)
(1.17383 0.00389194 0)
(1.17335 0.00373936 0)
(1.17289 0.00359255 0)
(1.17244 0.00345089 0)
(1.17202 0.00331476 0)
(1.17161 0.00318287 0)
(1.17121 0.00305693 0)
(1.17083 0.00293379 0)
(1.17047 0.0028186 0)
(1.17012 0.00270257 0)
(1.16979 0.00260091 0)
(1.16947 0.00248828 0)
(1.16918 0.00240845 0)
(1.16885 0.00228903 0)
(1.16864 0.00224875 0)
(1.16824 0.00210567 0)
(1.23529 0.00478224 0)
(1.23502 0.00459521 0)
(1.23477 0.00441579 0)
(1.23453 0.00424329 0)
(1.23429 0.00407737 0)
(1.23407 0.00391754 0)
(1.23385 0.00376377 0)
(1.23364 0.00361534 0)
(1.23344 0.00347278 0)
(1.23325 0.00333453 0)
(1.23307 0.00320272 0)
(1.23289 0.00307339 0)
(1.23272 0.0029531 0)
(1.23256 0.00283057 0)
(1.2324 0.00272506 0)
(1.23225 0.00260455 0)
(1.23211 0.0025231 0)
(1.23197 0.00239288 0)
(1.23187 0.00235347 0)
(1.23169 0.00219809 0)
(1.28612 0.00483372 0)
(1.2862 0.00464485 0)
(1.28627 0.00446363 0)
(1.28634 0.00428939 0)
(1.28641 0.00412176 0)
(1.28648 0.00396028 0)
(1.28654 0.00380493 0)
(1.2866 0.00365492 0)
(1.28665 0.00351093 0)
(1.28671 0.00337114 0)
(1.28676 0.0032381 0)
(1.28681 0.00310708 0)
(1.28685 0.00298591 0)
(1.2869 0.00286119 0)
(1.28694 0.00275556 0)
(1.28699 0.00263155 0)
(1.28702 0.00255125 0)
(1.28708 0.00241551 0)
(1.2871 0.00237804 0)
(1.28717 0.00221723 0)
(1.32892 0.0047039 0)
(1.32936 0.00452036 0)
(1.32978 0.00434421 0)
(1.33018 0.00417481 0)
(1.33057 0.00401182 0)
(1.33094 0.00385477 0)
(1.3313 0.00370373 0)
(1.33164 0.0035578 0)
(1.33197 0.00341779 0)
(1.33229 0.00328174 0)
(1.33259 0.00315249 0)
(1.33288 0.00302475 0)
(1.33316 0.00290726 0)
(1.33343 0.00278514 0)
(1.33368 0.00268331 0)
(1.33394 0.0025608 0)
(1.33415 0.00248442 0)
(1.33443 0.00234916 0)
(1.33457 0.0023146 0)
(1.33491 0.00215562 0)
(1.3642 0.00438687 0)
(1.365 0.00421599 0)
(1.36576 0.00405194 0)
(1.3665 0.00389415 0)
(1.36721 0.00374232 0)
(1.36789 0.00359598 0)
(1.36855 0.00345526 0)
(1.36918 0.00331925 0)
(1.36978 0.00318882 0)
(1.37036 0.00306194 0)
(1.37091 0.00294162 0)
(1.37145 0.0028223 0)
(1.37195 0.00271313 0)
(1.37246 0.00259865 0)
(1.37291 0.00250453 0)
(1.37339 0.00238886 0)
(1.37377 0.00231907 0)
(1.37428 0.0021906 0)
(1.37454 0.00215984 0)
(1.37516 0.00200999 0)
(1.39249 0.00388718 0)
(1.39363 0.00373603 0)
(1.39473 0.00359089 0)
(1.39579 0.00345127 0)
(1.3968 0.00331691 0)
(1.39778 0.00318738 0)
(1.39871 0.00306282 0)
(1.39961 0.0029424 0)
(1.40047 0.00282697 0)
(1.4013 0.00271458 0)
(1.40209 0.00260816 0)
(1.40286 0.00250233 0)
(1.40359 0.00240594 0)
(1.40431 0.00230408 0)
(1.40495 0.00222136 0)
(1.40565 0.00211788 0)
(1.4062 0.00205714 0)
(1.40691 0.00194173 0)
(1.40729 0.00191553 0)
(1.40818 0.00178183 0)
(1.41434 0.00321994 0)
(1.41579 0.00309497 0)
(1.41718 0.00297493 0)
(1.41852 0.00285945 0)
(1.4198 0.00274832 0)
(1.42103 0.00264116 0)
(1.42222 0.00253811 0)
(1.42336 0.00243846 0)
(1.42445 0.00234299 0)
(1.4255 0.00224994 0)
(1.42651 0.00216196 0)
(1.42748 0.00207427 0)
(1.4284 0.00199472 0)
(1.42931 0.00191011 0)
(1.43013 0.0018421 0)
(1.43101 0.00175579 0)
(1.43171 0.00170624 0)
(1.43262 0.00160972 0)
(1.43309 0.00158876 0)
(1.43422 0.00147757 0)
(1.43024 0.00241033 0)
(1.43193 0.00231695 0)
(1.43356 0.00222726 0)
(1.43512 0.00214096 0)
(1.43663 0.00205791 0)
(1.43807 0.00197782 0)
(1.43946 0.00190082 0)
(1.44079 0.00182634 0)
(1.44207 0.001755 0)
(1.4433 0.00168544 0)
(1.44448 0.00161975 0)
(1.44562 0.00155416 0)
(1.4467 0.00149485 0)
(1.44776 0.00143146 0)
(1.44873 0.00138094 0)
(1.44975 0.00131607 0)
(1.45057 0.0012795 0)
(1.45164 0.00120686 0)
(1.45219 0.00119163 0)
(1.45351 0.00110831 0)
(1.44059 0.00149218 0)
(1.44246 0.0014345 0)
(1.44425 0.00137909 0)
(1.44598 0.0013258 0)
(1.44764 0.00127452 0)
(1.44923 0.00122507 0)
(1.45076 0.00117754 0)
(1.45223 0.00113157 0)
(1.45364 0.00108755 0)
(1.455 0.00104462 0)
(1.4563 0.00100414 0)
(1.45756 0.000963676 0)
(1.45874 0.000927184 0)
(1.45992 0.000888044 0)
(1.46098 0.000857078 0)
(1.46211 0.000816953 0)
(1.46302 0.000794689 0)
(1.46419 0.000749721 0)
(1.4648 0.000740646 0)
(1.46626 0.000689314 0)
(1.4457 0.00050606 0)
(1.44765 0.000486659 0)
(1.44953 0.000467999 0)
(1.45134 0.00045009 0)
(1.45307 0.000432887 0)
(1.45474 0.000416319 0)
(1.45635 0.000400405 0)
(1.45789 0.000385035 0)
(1.45937 0.000370349 0)
(1.46079 0.000356031 0)
(1.46215 0.000342575 0)
(1.46347 0.000329144 0)
(1.46472 0.000317099 0)
(1.46595 0.000304108 0)
(1.46707 0.000293979 0)
(1.46825 0.00028066 0)
(1.4692 0.00027353 0)
(1.47043 0.000258623 0)
(1.47107 0.000255926 0)
(1.4726 0.000238983 0)
)
;

boundaryField
{
    fixedWalls
    {
        type            noSlip;
    }
    inlet
    {
        type            fixedValue;
        value           nonuniform 0();
    }
    outlet
    {
        type            zeroGradient;
    }
    frontAndBack
    {
        type            empty;
    }
    procBoundary3to2
    {
        type            processor;
        value           nonuniform List<vector> 
20
(
(0.0797238 2.99518e-05 0)
(0.230428 0.000179891 0)
(0.372316 0.000494004 0)
(0.505271 0.000936052 0)
(0.629154 0.00147062 0)
(0.74382 0.00206713 0)
(0.849146 0.00269262 0)
(0.945051 0.00331102 0)
(1.03152 0.00388471 0)
(1.10863 0.00437631 0)
(1.17655 0.00475058 0)
(1.23556 0.00497661 0)
(1.28604 0.00502992 0)
(1.32847 0.0048945 0)
(1.36336 0.00456426 0)
(1.3913 0.00404402 0)
(1.41284 0.00334958 0)
(1.42848 0.00250717 0)
(1.43865 0.00155199 0)
(1.44366 0.00052621 0)
)
;
    }
    procBoundary3to7
    {
        type            processor;
        value           nonuniform List<vector> 
20
(
(1.4457 -0.000503218 0)
(1.44765 -0.000483525 0)
(1.44953 -0.000464569 0)
(1.45134 -0.000446288 0)
(1.45308 -0.000428653 0)
(1.45474 -0.000411601 0)
(1.45635 -0.000395172 0)
(1.45789 -0.000379245 0)
(1.45937 -0.000363946 0)
(1.46079 -0.000348976 0)
(1.46215 -0.000334801 0)
(1.46347 -0.000320583 0)
(1.46472 -0.000307656 0)
(1.46595 -0.000293839 0)
(1.46707 -0.000282707 0)
(1.46826 -0.000268512 0)
(1.4692 -0.000260251 0)
(1.47043 -0.00024431 0)
(1.47107 -0.000240538 0)
(1.4726 -0.000222067 0)
)
;
    }
}


// ************************************************************************* //
