/*--------------------------------*- C++ -*----------------------------------*\
| =========                 |                                                 |
| \\      /  F ield         | OpenFOAM: The Open Source CFD Toolbox           |
|  \\    /   O peration     | Version:                                        |
|   \\  /    A nd           | Website:  www.openfoam.com                      |
|    \\/     M anipulation  |                                                 |
\*---------------------------------------------------------------------------*/
FoamFile
{
    version     2.0;
    format      ascii;
    class       surfaceScalarField;
    location    "72";
    object      phi;
}
// * * * * * * * * * * * * * * * * * * * * * * * * * * * * * * * * * * * * * //

dimensions      [0 3 -1 0 0 0 0];
oriented        oriented;


internalField   nonuniform List<scalar> 
2201
(
-0.00164256
0.000627502
0.00101506
-0.00160942
-3.31425e-05
-0.00116965
-0.000439773
-0.000721584
-0.000448062
-0.000437188
-0.000284396
-2.91708e-05
-0.000408017
-0.000350544
0.000321373
-0.00209519
0.00174465
-0.00478114
0.00268595
0.00376565
-0.00854679
-0.0021876
0.00167094
0.00114416
-0.00223702
1.62686e-05
-0.00180836
-0.000868432
-0.0017495
-0.000506916
-0.0030736
0.0010397
-0.00682185
0.00334023
-0.011931
0.00543048
-0.0166029
0.00641656
-0.0199614
0.00604443
0.00571237
-0.0219081
-0.00211804
0.00299831
0.000790672
-0.00268803
0.000586255
-0.00373164
0.000175182
-0.00692745
0.00268889
-0.0122386
0.00635086
-0.0176416
0.00874321
-0.0210138
0.00880266
-0.023188
0.00859085
-0.0250004
0.00785683
0.00637298
-0.025661
-0.00318732
0.00464462
0.00154102
-0.00524386
0.0026428
-0.00921609
0.00414741
-0.0149794
0.00845217
-0.0201074
0.0114789
-0.0231018
0.0117375
-0.0249653
0.0106662
-0.02608
0.00970555
-0.0265385
0.00831528
0.00650901
-0.0266745
-0.00624599
0.00687926
0.00401135
-0.00997481
0.00637162
-0.015548
0.00972063
-0.0210488
0.0139529
-0.0242549
0.014685
-0.0255539
0.0130365
-0.0266406
0.011753
-0.027131
0.0101959
-0.027118
0.00830221
0.00654574
-0.0271547
-0.0106683
0.00959858
0.007949
-0.0152891
0.0109924
-0.0209044
0.0153359
-0.0247557
0.0178043
-0.0259684
0.0158977
-0.0266684
0.0137365
-0.0274457
0.0125302
-0.0275149
0.0102652
-0.0275741
0.00836138
0.00652729
-0.0275556
-0.0154442
0.0128208
0.0122219
-0.0203866
0.0159348
-0.0249018
0.0198511
-0.0265401
0.0194426
-0.0266441
0.0160017
-0.0274906
0.014583
-0.0278876
0.0129272
-0.0278544
0.010232
-0.0281002
0.00860716
0.00636648
-0.0279394
-0.0202515
0.016627
0.0164452
-0.0247574
0.0204407
-0.027235
0.0223288
-0.0270944
0.0193019
-0.0273114
0.0162188
-0.0282125
0.0154841
-0.0281803
0.012895
-0.028383
0.0104346
-0.0285792
0.00880337
0.00615406
-0.0283668
-0.0246836
0.0205055
0.0208051
-0.0276548
0.0234119
-0.0279993
0.0226733
-0.0274285
0.0187311
-0.0282066
0.0169969
-0.0287304
0.0160079
-0.0285955
0.0127601
-0.0290324
0.0108715
-0.0290053
0.00877622
0.00604719
-0.0288984
-0.0278397
-0.028801
0.0243732
-0.0280447
0.0219171
-0.0280415
0.0187279
-0.0290672
0.0180226
-0.0290851
0.0160258
-0.0292247
0.0128997
-0.0296348
0.0112817
-0.0294854
0.00862683
0.0060738
-0.0295121
-0.0287603
0.0239067
-0.0281026
0.0212593
-0.0289003
0.0195256
-0.0295758
0.0186981
-0.0294657
0.0159157
-0.0299681
0.0134022
-0.0301627
0.0114762
-0.0301118
0.00857589
0.00611989
-0.0301579
-0.0282246
-0.0284994
0.0215341
-0.0295784
0.0206046
-0.0297865
0.0189063
-0.030043
0.0161721
-0.0306673
0.0140265
-0.0307081
0.011517
-0.0308625
0.00873032
0.00603451
-0.0307771
-0.0289972
0.0226066
-0.0298346
0.0214421
-0.0300875
0.0191591
-0.0307604
0.016845
-0.0312433
0.0145094
-0.0313743
0.011648
-0.0315873
0.00894329
0.00588329
-0.0314361
-0.0291917
-0.0300296
0.02228
-0.030559
0.0196885
-0.0314026
0.0176886
-0.031791
0.0148978
-0.0320859
0.011943
-0.032282
0.0091394
0.0057949
-0.0321937
-0.0302835
0.0231789
-0.0310965
0.0205016
-0.0319835
0.0185756
-0.0323798
0.0152941
-0.0328696
0.0124328
-0.0330089
0.00927868
0.0058698
-0.0330838
-0.0305173
0.0240908
-0.0316805
0.0216648
-0.0325731
0.0194682
-0.033071
0.015792
-0.0337579
0.0131197
-0.0338195
0.00934029
0.0060754
-0.0340251
-0.0308828
-0.032364
0.0231459
-0.0331649
0.020269
-0.0340082
0.0166353
-0.0345548
0.0136663
-0.0348244
0.00960993
0.0061227
-0.0348717
-0.0330904
0.0247634
-0.0338935
0.0210721
-0.035051
0.0177928
-0.0353577
0.013973
-0.0358527
0.0101049
0.00605323
-0.0357832
-0.0339762
0.0265757
-0.0348559
0.0219519
-0.0359368
0.0188737
-0.0363979
0.0144341
-0.0366902
0.0103972
0.00625139
-0.0368884
-0.0346717
-0.0357333
0.0230134
-0.0367794
0.0199198
-0.0373412
0.0149959
-0.0376749
0.010731
0.00643371
-0.0378572
-0.013188
-0.000290605
-0.0107704
-0.00241764
-0.00710516
-0.00366525
-0.00290141
-0.00420375
0.000889555
-0.00379097
0.00348391
-0.00259436
0.00394256
-0.000458647
0.00250195
0.00144061
0.000471266
0.00203069
0.00148633
-0.0165687
-0.00195249
-0.0139366
-0.00504974
-0.00999624
-0.00760562
-0.00539774
-0.00880224
-0.000956759
-0.00823195
0.00227937
-0.00583049
0.00354838
-0.00172765
0.00275064
0.00223835
0.000738412
0.00404291
0.0033689
-0.0181995
-0.0156868
-0.00756245
-0.0119905
-0.011302
-0.00760041
-0.0131923
-0.00319209
-0.0126403
6.85652e-05
-0.00909115
0.001978
-0.00363709
0.00208736
0.00212899
0.000865114
0.00526516
0.00502469
-0.0179052
-0.0145795
-0.0103285
-0.00593474
-0.00229951
-0.0127264
-0.000264058
-0.00567254
0.000509675
0.00135526
-9.60375e-06
0.00578443
0.0065561
-0.00526908
-0.00298676
-0.00795485
-0.00223309
0.000601588
-0.00257903
0.00613037
0.00798843
-0.00642708
-0.00599698
0.000171491
-0.00643665
0.00657003
0.00950078
-0.00976801
-0.0105249
0.0073269
0.0111978
-0.014393
0.0132501
0.0055744
0.0501517
-0.0492924
0.00499603
0.0531982
-0.0526198
0.0048338
0.0561989
-0.0560367
0.00467695
0.0596865
-0.0595297
0.00437301
0.0633208
-0.0630169
0.00407068
0.0671666
-0.0668643
0.00387895
0.0713804
-0.0711887
0.00375389
0.076097
-0.075972
0.00359407
0.0812469
-0.0810871
0.00340888
0.086688
-0.0865028
0.00325876
0.092454
-0.0923039
0.00312703
0.0987029
-0.0985711
0.00299818
0.105412
-0.105284
0.00287205
0.11253
-0.112404
0.00271414
0.120141
-0.119984
0.00252202
0.128269
-0.128077
0.00231354
0.136928
-0.13672
0.00209818
0.146181
-0.145965
0.00189065
0.156068
-0.155861
0.00169395
0.166638
-0.166441
0.00150785
0.177937
-0.177751
0.00133197
0.190022
-0.189847
0.00116172
0.202956
-0.202786
0.000992647
0.216806
-0.216637
0.000831201
0.231619
-0.231458
0.000667643
0.247486
-0.247322
0.000502859
0.264479
-0.264314
0.000340488
0.282687
-0.282525
0.000175002
0.302224
-0.302058
0.323147
-0.322972
0.0106011
0.0502816
0.0104747
0.0533247
0.0101285
0.056545
0.0097748
0.0600403
0.00944961
0.063646
0.0091142
0.067502
0.00874894
0.0717457
0.00837472
0.0764713
0.00801316
0.0816085
0.00768688
0.0870143
0.00731497
0.0928259
0.00685428
0.0991636
0.00641299
0.105854
0.00602587
0.112917
0.00566732
0.1205
0.00536373
0.128573
0.00509109
0.137201
0.00481706
0.146455
0.00453262
0.156353
0.00422909
0.166941
0.00390593
0.178261
0.00356591
0.190362
0.00319704
0.203325
0.00280716
0.217196
0.00240098
0.232025
0.00196876
0.247918
0.00151412
0.264933
0.00103779
0.283164
0.000534765
0.302727
0.323682
0.0146373
0.0506401
0.0144408
0.0535212
0.014343
0.0566428
0.0140985
0.0602848
0.0136714
0.0640732
0.0132625
0.0679109
0.0129494
0.0720589
0.0126186
0.076802
0.0122302
0.0819968
0.0119312
0.0873133
0.0116384
0.0931187
0.0112806
0.0995213
0.0109343
0.1062
0.0105307
0.113321
0.0100414
0.120989
0.00952031
0.129094
0.00896294
0.137758
0.00838397
0.147034
0.00780331
0.156933
0.00721255
0.167532
0.00661315
0.17886
0.00600261
0.190973
0.00536416
0.203963
0.00470975
0.21785
0.00402832
0.232707
0.00330803
0.248638
0.00254974
0.265692
0.00174913
0.283964
0.00090162
0.303574
0.324583
0.0196233
0.0509366
0.0192684
0.0538761
0.0191119
0.0567993
0.0190479
0.0603487
0.0188095
0.0643116
0.0183755
0.0683449
0.0178309
0.0726034
0.0172108
0.0774221
0.01664
0.0825677
0.0160938
0.0878595
0.015356
0.0938565
0.0146095
0.100268
0.0139943
0.106815
0.0133466
0.113969
0.0127284
0.121607
0.0121749
0.129647
0.0115983
0.138335
0.0109988
0.147633
0.0103637
0.157568
0.00967833
0.168217
0.00895507
0.179583
0.00817795
0.19175
0.00735168
0.204789
0.00648363
0.218719
0.00556154
0.233629
0.00457884
0.249621
0.00353763
0.266733
0.00243046
0.285071
0.00125367
0.304751
0.325837
0.0234656
0.0240379
0.0240356
0.023478
0.0227874
0.0222461
0.0217146
0.0210716
0.0206353
0.0202054
0.0195881
0.0944738
0.0190684
0.100788
0.0184915
0.107392
0.0177174
0.114743
0.0169573
0.122368
0.0161458
0.130459
0.0152666
0.139214
0.0143813
0.148518
0.0134577
0.158492
0.0125109
0.169164
0.0115347
0.180559
0.0105073
0.192778
0.0094341
0.205863
0.0083151
0.219838
0.00712787
0.234816
0.00586881
0.25088
0.00453574
0.268066
0.00311685
0.28649
0.00160794
0.30626
0.327445
0.0228481
0.0220844
0.0211931
0.02028
0.0194927
0.0186511
0.0177723
0.0168644
0.0158854
0.0148558
0.0137558
0.0125769
0.0113245
0.0099999
0.00858196
0.00707512
0.00547322
0.00376368
0.00194265
0.0287323
0.031188
-0.027326
-0.0325943
0.0305292
0.0279158
-0.0297127
0.0321228
0.0245409
-0.0261345
0.0336961
0.0208829
-0.0224563
0.0350741
0.0172446
-0.0186226
0.0360781
0.0133109
-0.0143149
0.0370148
0.00911387
-0.0100505
0.0374758
0.00515418
-0.00561519
0.0379417
0.000383276
-0.000849193
-0.00361587
0.00370034
0.0279949
0.0292744
-0.0260813
0.0297477
0.026163
0.0313275
0.0229611
0.032737
0.0194735
0.0340487
0.0159329
0.0350182
0.0123413
0.035834
0.00829806
0.0365532
0.00443499
0.0366834
0.000253005
-0.00382081
0.0270975
0.0273012
-0.0251243
0.0289229
0.0243376
0.0305286
0.0213555
0.031881
0.0181211
0.0331034
0.0147105
0.034177
0.0112677
0.0348238
0.00765124
0.0355166
0.00374219
0.035747
2.2688e-05
-0.00385707
0.0262512
0.025412
-0.0243621
0.0280471
0.0225417
0.0296498
0.0197528
0.0310712
0.0166997
0.0321524
0.0136293
0.0332859
0.0101342
0.0339655
0.00697158
0.0344929
0.00321481
0.0348467
-0.000331114
-0.00388207
0.0255337
0.0236084
-0.0237301
0.0272377
0.0208377
0.0287362
0.0182543
0.0301766
0.0152592
0.0313
0.0125059
0.0322359
0.00919831
0.0331015
0.00610602
0.0335498
0.00276649
0.0338459
-0.000627211
-0.00406129
0.0249144
0.021856
-0.023162
0.0265556
0.0191965
0.0279959
0.016814
0.0292547
0.0140004
0.030488
0.0112727
0.0313273
0.00835893
0.0320973
0.00533608
0.0326867
0.00217705
0.032894
-0.000834494
-0.00425105
0.0243292
0.0201119
-0.0225851
0.0258811
0.0176445
0.0273739
0.0153213
0.0285404
0.0128339
0.0296278
0.0101853
0.030585
0.00740176
0.0312093
0.0047118
0.0318014
0.0015849
0.0320891
-0.00112216
-0.00435564
0.0237981
0.018299
-0.0219851
0.025275
0.0161675
0.026691
0.0139053
0.0279554
0.0115695
0.0289304
0.00921024
0.0298329
0.00649924
0.0305293
0.0040154
0.0310003
0.0011139
0.0313608
-0.00148267
-0.00443087
0.0232154
0.0165064
-0.0214229
0.0247757
0.0146071
0.0260861
0.012595
0.0273121
0.0103435
0.028356
0.00816632
0.0291462
0.00570902
0.0298684
0.00329325
0.0303214
0.000660898
0.0306466
-0.00180787
-0.00456141
0.0226695
0.0148226
-0.0209857
0.0242135
0.0130632
0.0255942
0.0112142
0.0267118
0.00922595
0.0277894
0.00708872
0.0285452
0.00495321
0.0292434
0.00259509
0.0296766
0.000227684
0.0299676
-0.00209885
-0.00475173
0.0222558
0.013173
-0.0206063
0.0236991
0.0116199
0.0250597
0.00985358
0.0261825
0.00810316
0.0271994
0.00607186
0.0279691
0.0041835
0.0286421
0.0019221
0.0290453
-0.000175533
0.0293742
-0.00242776
-0.00488958
0.0218889
0.0115882
-0.0203041
0.0233532
0.0101556
0.0245926
0.00861426
0.0257595
0.00693623
0.0266718
0.00515956
0.0274877
0.00336762
0.028089
0.00132077
0.0284976
-0.00058412
0.0288565
-0.00278668
-0.00493151
0.0215917
0.0100776
-0.020081
0.0230632
0.00868405
0.0242569
0.00742053
0.0253959
0.00579722
0.0262704
0.00428506
0.0270692
0.00256881
0.0276248
0.000765154
0.0280467
-0.00100599
0.0283622
-0.00310215
-0.0049361
0.0213703
0.00852503
-0.0198178
0.0227719
0.00728248
0.0240184
0.006174
0.02507
0.00474563
0.0259615
0.0033936
0.026699
0.00183129
0.0272198
0.000244367
0.0276586
-0.0014448
0.0278532
-0.00329674
-0.00502226
0.0211883
0.0069604
-0.0196237
0.0225223
0.00594851
0.0237859
0.00491036
0.0247837
0.00374788
0.0256872
0.00249003
0.0263541
0.00116438
0.0268828
-0.000284282
0.0272801
-0.00184216
0.0274022
-0.00341882
-0.00517565
0.0211235
0.00544244
-0.0196055
0.0224575
0.0046145
0.0236428
0.00372503
0.0246337
0.00275698
0.0254871
0.00163666
0.026133
0.000518495
0.0266414
-0.000792694
0.0269574
-0.00215817
0.0271012
-0.00356263
-0.00522913
0.0211432
0.00394865
-0.0196494
0.0225092
0.00324849
0.0236248
0.00260943
0.0245963
0.0017855
0.0253324
0.000900573
0.0260238
-0.000172934
0.0264093
-0.0011782
0.0266664
-0.00241525
0.0267878
-0.00368407
-0.00511579
0.0212329
0.00244932
-0.0197336
0.0225832
0.00189822
0.0237302
0.00146243
0.0247258
0.000789919
0.0253355
0.000290871
0.0258613
-0.000698806
0.0261041
-0.00142094
0.0262105
-0.00252166
0.0260382
-0.00351181
-0.00473861
0.02151
0.000999406
-0.02006
0.0227422
0.000665977
0.0238001
0.000404496
0.0246335
-4.34261e-05
0.0252028
-0.000278442
0.0252646
-0.000760584
0.0249816
-0.00113797
0.0243385
-0.00187857
0.023194
-0.00236727
-0.00345273
0.0173953
-0.0163959
0.0180613
0.0184658
0.0184224
0.0181439
0.0173833
0.0162454
0.0143668
0.0119995
0.0194773
0.041441
0.0220246
0.0390827
-0.04163
0.0245789
0.0364484
-0.0390026
0.0334274
-0.0361745
0.0162896
0.0405665
0.0189356
0.038795
0.0214253
0.036593
0.0239162
0.0339575
0.0312623
0.0104427
0.0405346
0.0131677
0.0394006
0.0158274
0.0379068
0.0184096
0.0362128
0.0208529
0.0341497
0.0231236
0.0316868
0.0292617
0.00188565
0.0394386
0.00467258
0.0391559
0.00743081
0.0386265
0.0101486
0.0378168
0.0128021
0.0367471
0.0153824
0.0353265
0.0178849
0.0337103
0.020249
0.0317856
0.0223892
0.0295465
0.0272888
0.00178214
0.0366952
0.00451035
0.0364277
0.00720751
0.0359293
0.00986551
0.0351588
0.0124543
0.0341584
0.0149499
0.0328309
0.0173545
0.0313057
0.0196656
0.0294744
0.0217634
0.0274487
0.0253221
0.00168384
0.0340058
0.0043546
0.033757
0.00699128
0.0332926
0.00958792
0.0325621
0.0121207
0.0316256
0.0145537
0.0303979
0.0168591
0.0290004
0.0190917
0.0272419
0.0211824
0.025358
0.0233425
0.00159134
0.031372
0.00420563
0.0311427
0.00678382
0.0307144
0.009317
0.0300289
0.0117933
0.0291493
0.0141905
0.0280007
0.0164166
0.0267743
0.0185651
0.0250933
0.0206058
0.0233173
0.0213632
0.00150486
0.0287911
0.00406644
0.0285811
0.0065929
0.028188
0.00906412
0.0275577
0.0114787
0.0267347
0.0138446
0.0256348
0.0160379
0.024581
0.0181167
0.0230144
0.0200697
0.0213643
0.0194479
0.00142345
0.0262607
0.00393463
0.0260699
0.00641529
0.0257073
0.00883465
0.0251383
0.0111839
0.0243854
0.0135042
0.0233145
0.0156927
0.0223925
0.0177394
0.0209677
0.0196298
0.0194739
0.0176548
0.00134472
0.0237737
0.00381192
0.0236027
0.00625211
0.0232671
0.00863464
0.0227558
0.0109256
0.0220944
0.0131879
0.0210523
0.0153645
0.0202159
0.0173868
0.0189454
0.0192567
0.017604
0.0159259
0.00127177
0.0213227
0.00369879
0.0211757
0.00610241
0.0208635
0.0084582
0.0204
0.0107083
0.0198443
0.0129089
0.0188517
0.0150572
0.0180676
0.0170713
0.0169313
0.0189208
0.0157545
0.0142404
0.00120286
0.0189047
0.003597
0.0187816
0.00596759
0.0184929
0.00830272
0.0180649
0.0105326
0.0176144
0.0126829
0.0167014
0.0147883
0.0159622
0.0167768
0.0149429
0.0186428
0.0138885
0.0125791
0.00113889
0.01651
0.00350959
0.0164109
0.00585515
0.0161474
0.00816875
0.0157513
0.0103917
0.0153915
0.0125015
0.0145915
0.0145684
0.0138954
0.0165292
0.0129821
0.0183599
0.0120578
0.010858
0.00108673
0.0141315
0.00343788
0.0140597
0.00576193
0.0138233
0.00805864
0.0134546
0.0102865
0.0131637
0.0123842
0.0124938
0.0143973
0.0118823
0.0163394
0.01104
0.0181221
0.0102751
0.00916238
0.00103361
0.0117691
0.00339107
0.0117022
0.00570327
0.0115111
0.00797979
0.0111781
0.0102104
0.0109331
0.0123176
0.0103866
0.0143241
0.00987572
0.0162273
0.0091368
0.0180157
0.00848665
0.00755444
0.000992641
0.00939837
0.00336352
0.00933136
0.00566501
0.00920961
0.00793005
0.00891304
0.01017
0.00869314
0.0122896
0.00826694
0.0142981
0.0078673
0.0162058
0.00722907
0.0179903
0.0067021
0.00593926
0.000959584
0.00698794
0.00336502
0.00692593
0.00567733
0.0068973
0.0079393
0.00665106
0.0101527
0.00647971
0.0123153
0.00610437
0.0143186
0.00586397
0.0162401
0.00530761
0.0180106
0.00493158
0.00430045
0.000934561
0.00455189
0.00337638
0.00448411
0.0057144
0.00455928
0.00803277
0.0043327
0.0102147
0.00429781
0.0123705
0.0039485
0.0144133
0.00382125
0.0163169
0.00340397
0.0181088
0.00313963
0.00267571
0.000933535
0.00206808
0.0034091
0.00200855
0.00585022
0.00211815
0.00823684
0.00194608
0.0105329
0.00200172
0.0126949
0.00178657
0.0148028
0.00171333
0.0166988
0.00150795
0.0184916
0.00134686
0.00110724
0.00085944
0.00286799
0.00498614
0.00693222
0.00893394
0.0107205
0.0124338
0.0139418
0.0152887
0.036906
0.00546071
0.0053848
0.00632243
0.0070539
0.00527127
0.0454229
0.00531826
0.0492133
0.00503818
0.0529598
0.00452072
0.0567386
0.00400237
0.0608066
0.00366257
0.0654557
0.00348401
0.0707909
0.00333664
0.0765689
0.00313396
0.0825027
0.00288319
0.0885362
0.00261553
0.0948079
0.00236126
0.101424
0.00213108
0.108454
0.00192218
0.115991
0.00173652
0.124095
0.0015735
0.13279
0.00142396
0.142077
0.00127989
0.151974
0.00114086
0.162521
0.00100734
0.173766
0.000880939
0.185766
0.000762017
0.198577
0.000648471
0.21226
0.000540547
0.226875
0.000438275
0.242486
0.000342017
0.259172
0.000247129
0.277046
0.000139153
0.296216
7.04553e-05
0.31684
0.338852
0.00580043
0.0466764
0.00514406
0.0498697
0.00468219
0.0534216
0.00422311
0.0571977
0.00375513
0.0612746
0.00337107
0.0658398
0.0031358
0.0710262
0.00297585
0.0767289
0.00281073
0.0826678
0.00262743
0.0887195
0.00244421
0.0949911
0.00227134
0.101597
0.00209756
0.108628
0.00191655
0.116172
0.00172752
0.124284
0.00153723
0.132981
0.00135994
0.142255
0.00119973
0.152134
0.00105543
0.162665
0.000923664
0.173898
0.000802765
0.185887
0.000691732
0.198688
0.000588459
0.212363
0.000491514
0.226972
0.000398884
0.242579
0.000311573
0.259259
0.000224653
0.277133
0.000126335
0.296314
6.17971e-05
0.316905
0.338914
-0.0324646
0.0465467
-0.0326278
0.0500329
-0.0327026
0.0534965
-0.0328399
0.057335
-0.0330133
0.061448
-0.0331729
0.0659994
-0.0332514
0.0711046
-0.0331691
0.0766466
-0.0328769
0.0823755
-0.032415
0.0882577
-0.0318317
0.0944078
-0.0311497
0.100915
-0.0303813
0.107859
-0.0295325
0.115323
-0.0286026
0.123354
-0.0275766
0.131955
-0.0264435
0.141121
-0.0252001
0.150891
-0.0238436
0.161308
-0.0223729
0.172427
-0.0207843
0.184298
-0.0190741
0.196978
-0.0172357
0.210525
-0.0152609
0.224997
-0.013142
0.24046
-0.0108705
0.256987
-0.00843046
0.274693
-0.00582797
0.293711
-0.00301107
0.314088
0.335903
-0.0299833
0.0468173
-0.0300676
0.0501171
-0.0301995
0.0536284
-0.030371
0.0575065
-0.0304662
0.0615432
-0.0304796
0.0660129
-0.0303653
0.0709902
-0.030111
0.0763923
-0.0297574
0.082022
-0.0293259
0.0878262
-0.028801
0.0938828
-0.0281767
0.100291
-0.0274782
0.107161
-0.0267209
0.114566
-0.0258947
0.122528
-0.024984
0.131044
-0.0239811
0.140118
-0.022879
0.149789
-0.0216705
0.1601
-0.0203495
0.171106
-0.0189124
0.182861
-0.017357
0.195423
-0.0156811
0.208849
-0.0138802
0.223196
-0.0119493
0.238529
-0.00988223
0.25492
-0.00766603
0.272477
-0.00529452
0.29134
-0.00274014
0.311534
0.333162
-0.0263403
0.0470231
-0.0263224
0.0500992
-0.0262995
0.0536055
-0.0263531
0.0575601
-0.0264323
0.0616223
-0.0264851
0.0660657
-0.0264626
0.0709678
-0.0263484
0.076278
-0.0261138
0.0817874
-0.0257656
0.087478
-0.0253393
0.0934565
-0.0248713
0.0998225
-0.0243583
0.106648
-0.0237677
0.113976
-0.0230767
0.121837
-0.0222732
0.130241
-0.0213629
0.139208
-0.0203576
0.148784
-0.0192653
0.159008
-0.0180864
0.169927
-0.0168133
0.181588
-0.0154381
0.194048
-0.0139546
0.207365
-0.0123574
0.221599
-0.0106418
0.236814
-0.00880343
0.253082
-0.00683266
0.270506
-0.0047175
0.289225
-0.0024448
0.309261
0.330718
-0.0227815
0.0473483
-0.0232556
0.0505733
-0.0236584
0.0540082
-0.0238961
0.0577979
-0.0239566
0.0616828
-0.0238821
0.0659911
-0.0236952
0.0707809
-0.0233964
0.0759793
-0.0230166
0.0814076
-0.0225897
0.0870511
-0.0221237
0.0929905
-0.0216223
0.0993211
-0.0210944
0.10612
-0.0205462
0.113427
-0.0199571
0.121248
-0.019302
0.129586
-0.0185671
0.138473
-0.0177411
0.147958
-0.0168212
0.158088
-0.0158065
0.168913
-0.0146989
0.18048
-0.0134979
0.192847
-0.0122006
0.206068
-0.010803
0.220201
-0.00930179
0.235312
-0.00769411
0.251474
-0.00597202
0.268784
-0.0041214
0.287374
-0.00213686
0.307276
0.328581
-0.018804
0.0475298
-0.0189287
0.0506979
-0.0190599
0.0541395
-0.0191807
0.0579186
-0.0192864
0.0617886
-0.0193503
0.0660551
-0.0193356
0.0707661
-0.0192352
0.0758789
-0.0190596
0.081232
-0.0188136
0.0868051
-0.0185108
0.0926876
-0.0181739
0.0989842
-0.0178052
0.105751
-0.0173812
0.113003
-0.0168849
0.120752
-0.0163137
0.129014
-0.0156698
0.137829
-0.0149563
0.147244
-0.0141739
0.157305
-0.0133214
0.16806
-0.0123946
0.179553
-0.0113873
0.191839
-0.0102967
0.204977
-0.00912255
0.219027
-0.00785984
0.23405
-0.00650509
0.25012
-0.00505154
0.26733
-0.00348566
0.285808
-0.00180716
0.305598
0.326774
-0.0145523
0.0477671
-0.0150163
0.0511619
-0.0155782
0.0547013
-0.0160265
0.058367
-0.0162636
0.0620256
-0.0163199
0.0661113
-0.0162329
0.0706792
-0.0160484
0.0756944
-0.0157832
0.0809668
-0.0154565
0.0864785
-0.015108
0.0923392
-0.0147592
0.0986354
-0.0144038
0.105396
-0.0140374
0.112637
-0.0136447
0.120359
-0.0132108
0.128581
-0.0127299
0.137348
-0.0121891
0.146703
-0.0115785
0.156695
-0.0108935
0.167375
-0.0101374
0.178797
-0.00931113
0.191013
-0.00841411
0.20408
-0.00744677
0.21806
-0.00641178
0.233015
-0.00530536
0.249013
-0.00411953
0.266144
-0.00284108
0.28453
-0.00147188
0.304229
0.325302
-0.0105693
0.0482859
-0.0108096
0.0514022
-0.0108566
0.0547483
-0.0109476
0.058458
-0.0111189
0.062197
-0.011307
0.0662994
-0.0114202
0.0707924
-0.011437
0.0757112
-0.0113972
0.080927
-0.0113293
0.0864105
-0.011216
0.0922259
-0.0110445
0.0984639
-0.0108274
0.105179
-0.0105629
0.112373
-0.0102478
0.120044
-0.00989355
0.128226
-0.00950524
0.13696
-0.00908707
0.146285
-0.00863741
0.156245
-0.00814693
0.166884
-0.00760527
0.178256
-0.00700797
0.190416
-0.00635186
0.203424
-0.00563579
0.217344
-0.00486166
0.232241
-0.0040292
0.248181
-0.00313298
0.265248
-0.00216185
0.283559
-0.00111941
0.303186
0.324182
-0.00578306
0.0484538
-0.00616797
0.0517871
-0.00671891
0.0552992
-0.00718529
0.0589244
-0.00747541
0.0624871
-0.00760193
0.0664259
-0.0076385
0.070829
-0.00763921
0.0757119
-0.00758694
0.0808748
-0.00747487
0.0862984
-0.00734957
0.0921006
-0.00724705
0.0983614
-0.00715449
0.105086
-0.00704807
0.112266
-0.00691067
0.119906
-0.0067308
0.128046
-0.00650411
0.136733
-0.00623372
0.146015
-0.00592667
0.155938
-0.00558514
0.166543
-0.00520915
0.17788
-0.00479576
0.190002
-0.00434466
0.202973
-0.00385635
0.216855
-0.00332797
0.231712
-0.00275992
0.247613
-0.00214838
0.264637
-0.00148314
0.282893
-0.000767282
0.30247
0.323415
-0.00161327
0.0492179
-0.00202895
0.0522028
-0.00215027
0.0554206
-0.00223555
0.0590097
-0.00248087
0.0627324
-0.00273118
0.0666762
-0.00291557
0.0710133
-0.0029864
0.0757827
-0.00304364
0.080932
-0.00313715
0.0863919
-0.00321579
0.0921792
-0.00323727
0.0983829
-0.00321758
0.105066
-0.00316543
0.112214
-0.00309506
0.119836
-0.00302746
0.127979
-0.00295756
0.136663
-0.00287922
0.145936
-0.00278466
0.155843
-0.00267055
0.166429
-0.00253274
0.177742
-0.00236873
0.189838
-0.00217607
0.20278
-0.00195532
0.216635
-0.00170408
0.231461
-0.00142463
0.247333
-0.00111754
0.264329
-0.000775537
0.282551
-0.000401554
0.302096
0.323013
0.00362583
0.00320881
0.0025927
0.00207268
0.0017882
0.00160016
0.00142479
0.00123551
0.00108044
0.000969576
0.000844902
0.000656632
0.000439501
0.000249369
0.000101897
3.5471e-06
-5.25159e-05
-8.13046e-05
-9.84655e-05
-0.000110721
-0.000120173
-0.000128319
-0.000133516
-0.000135963
-0.000132638
-0.0001218
-0.000106317
-7.98934e-05
-4.16626e-05
)
;

boundaryField
{
    outlet
    {
        type            calculated;
        value           nonuniform 0();
    }
    upperWall
    {
        type            symmetryPlane;
        value           nonuniform 0();
    }
    lowerWall
    {
        type            symmetryPlane;
        value           uniform 0;
    }
    inlet
    {
        type            calculated;
        value           nonuniform 0();
    }
    cylinder
    {
        type            calculated;
        value           uniform 0;
    }
    frontAndBack
    {
        type            empty;
        value           nonuniform 0();
    }
    procBoundary1to0
    {
        type            processor;
        value           nonuniform List<scalar> 
45
(
-0.0168206
-0.0432944
-0.0440977
-0.0433162
-0.0135617
-0.0421256
-0.0422366
-0.0419429
-0.0076611
-0.0413847
-0.0374915
-0.0424778
-0.00487519
-0.0399403
-0.00453697
-0.0452335
-0.0492603
-0.0526797
-0.0562211
-0.0602883
-0.0651159
-0.0706123
-0.0764215
-0.0823
-0.0882854
-0.0945403
-0.10117
-0.108224
-0.115782
-0.12391
-0.132627
-0.141928
-0.15183
-0.162382
-0.173632
-0.185639
-0.198458
-0.212146
-0.226767
-0.242384
-0.259075
-0.276951
-0.296108
-0.316772
-0.338781
)
;
    }
    procBoundary1to2
    {
        type            processor;
        value           nonuniform List<scalar> 
63
(
0.0233041
0.0250411
0.0292268
0.0291762
0.0229551
0.0279247
0.0280029
0.0237954
0.0293846
0.0296053
0.0296542
0.0253195
0.0314729
0.0321639
0.0330687
0.0281788
-0.00331475
0.0199239
-0.00958122
-0.0146277
-0.0174433
-0.017034
0.00901192
-0.0164692
0.00864242
-0.0101702
0.00991786
2.16456e-05
0.013308
0.00841188
0.0183021
0.0157531
0.0504844
0.0533038
0.0568016
0.0609063
0.0650023
0.0688862
0.0731349
0.0780651
0.083004
0.0882894
-0.0239127
0.0955384
0.101551
0.108283
0.115656
0.123155
0.131301
0.140093
0.149426
0.159471
0.170194
0.18166
0.193956
0.207115
0.221162
0.236234
0.252387
0.269668
0.2882
0.308081
0.329387
)
;
    }
    procBoundary1to5
    {
        type            processor;
        value           nonuniform List<scalar> 
20
(
0.0134786
0.0182306
0.0195618
0.000912319
0.00096128
0.00100553
0.00104246
0.00107612
0.00110689
0.00114227
0.0011793
0.00121508
0.0012558
0.00129181
0.00132877
0.00137811
0.00145085
0.00150148
0.00155028
0.00120864
)
;
    }
}


// ************************************************************************* //
