/*--------------------------------*- C++ -*----------------------------------*\
| =========                 |                                                 |
| \\      /  F ield         | OpenFOAM: The Open Source CFD Toolbox           |
|  \\    /   O peration     | Version:                                        |
|   \\  /    A nd           | Website:  www.openfoam.com                      |
|    \\/     M anipulation  |                                                 |
\*---------------------------------------------------------------------------*/
FoamFile
{
    version     2.0;
    format      ascii;
    class       volScalarField;
    location    "0.7";
    object      p;
}
// * * * * * * * * * * * * * * * * * * * * * * * * * * * * * * * * * * * * * //

dimensions      [0 2 -2 0 0 0 0];


internalField   nonuniform List<scalar> 
400
(
0.130243
0.123301
0.116393
0.109517
0.102672
0.0958569
0.0890709
0.0823129
0.075582
0.0688773
0.062198
0.0555431
0.0489121
0.042304
0.0357187
0.0291544
0.0226142
0.0160897
0.00960291
0.00310083
0.130313
0.123368
0.116458
0.109579
0.102732
0.0959144
0.0891262
0.0823662
0.0756334
0.0689268
0.0622457
0.0555891
0.0489565
0.0423469
0.0357603
0.0291946
0.0226538
0.0161277
0.00964475
0.00312503
0.130371
0.123425
0.116512
0.109631
0.102782
0.0959627
0.0891727
0.082411
0.0756764
0.0689683
0.0622856
0.0556276
0.0489936
0.0423826
0.0357949
0.0292277
0.0226865
0.0161567
0.0096767
0.00313443
0.130418
0.12347
0.116555
0.109673
0.102822
0.0960009
0.0892095
0.0824463
0.0757104
0.069001
0.062317
0.0556578
0.0490226
0.0424104
0.0358216
0.0292528
0.022711
0.0161765
0.00969737
0.00313609
0.130459
0.12351
0.116593
0.109709
0.102857
0.0960349
0.0892421
0.0824776
0.0757405
0.0690298
0.0623447
0.0556843
0.049048
0.0424345
0.0358446
0.0292739
0.0227312
0.0161917
0.00971201
0.00313671
0.130499
0.123547
0.116629
0.109744
0.10289
0.0960668
0.0892727
0.082507
0.0757686
0.0690568
0.0623704
0.0557089
0.0490714
0.0424566
0.0358655
0.0292928
0.0227486
0.0162044
0.00972304
0.00313889
0.130538
0.123584
0.116665
0.109778
0.102923
0.096098
0.0893025
0.0825355
0.0757959
0.0690828
0.0623953
0.0557325
0.0490937
0.0424776
0.035885
0.0293103
0.0227641
0.0162161
0.00973171
0.00314404
0.130577
0.123622
0.116701
0.109813
0.102956
0.0961295
0.0893327
0.0825644
0.0758234
0.0691091
0.0624202
0.0557562
0.0491159
0.0424985
0.0359041
0.0293275
0.0227788
0.016228
0.00973902
0.00315318
0.130618
0.123661
0.116739
0.109849
0.10299
0.0961625
0.0893642
0.0825944
0.0758521
0.0691364
0.0624461
0.0557808
0.0491389
0.04252
0.0359235
0.0293454
0.0227934
0.0162413
0.00974576
0.00316687
0.130662
0.123704
0.116779
0.109887
0.103027
0.0961975
0.0893976
0.0826264
0.0758825
0.0691654
0.0624735
0.0558068
0.0491632
0.0425428
0.035944
0.0293644
0.0228086
0.0162566
0.00975244
0.00318514
0.130709
0.123748
0.116822
0.109928
0.103066
0.0962348
0.0894332
0.0826603
0.0759148
0.0691962
0.0625027
0.0558344
0.0491889
0.0425672
0.0359656
0.0293851
0.0228246
0.0162743
0.00975934
0.00320758
0.130758
0.123795
0.116866
0.109971
0.103107
0.0962739
0.0894706
0.082696
0.0759488
0.0692286
0.0625333
0.0558635
0.049216
0.0425928
0.0359884
0.0294072
0.0228416
0.0162942
0.00976653
0.00323344
0.130809
0.123844
0.116913
0.110015
0.103149
0.0963142
0.089509
0.0827327
0.0759838
0.0692619
0.0625649
0.0558936
0.0492439
0.0426194
0.036012
0.0294305
0.0228592
0.0163157
0.00977397
0.00326163
0.130859
0.123892
0.116959
0.110059
0.103191
0.0963545
0.0895475
0.0827695
0.0760187
0.0692953
0.0625965
0.0559236
0.0492718
0.0426462
0.0360357
0.0294541
0.0228769
0.0163382
0.00978149
0.00329088
0.130908
0.123938
0.117003
0.110101
0.103232
0.0963933
0.0895846
0.0828049
0.0760525
0.0693275
0.0626269
0.0559527
0.0492989
0.0426721
0.0360586
0.0294773
0.0228941
0.0163606
0.00978882
0.00331975
0.130953
0.123981
0.117044
0.11014
0.103269
0.0964291
0.0896187
0.0828375
0.0760836
0.0693571
0.062655
0.0559796
0.0493238
0.0426962
0.0360798
0.029499
0.0229102
0.0163817
0.00979564
0.00334676
0.130991
0.124018
0.117079
0.110174
0.103302
0.0964601
0.0896484
0.0828659
0.0761106
0.069383
0.0626795
0.0560029
0.0493455
0.0427171
0.0360983
0.029518
0.0229241
0.0164003
0.00980162
0.00337045
0.131022
0.124048
0.117108
0.110201
0.103328
0.0964849
0.0896721
0.0828885
0.0761322
0.0694036
0.062699
0.0560216
0.0493629
0.0427339
0.0361131
0.0295332
0.0229354
0.0164154
0.00980643
0.00338952
0.131044
0.124068
0.117127
0.11022
0.103346
0.0965022
0.0896886
0.0829044
0.0761473
0.069418
0.0627127
0.0560347
0.0493751
0.0427457
0.0361235
0.029544
0.0229432
0.0164261
0.00980982
0.00340288
0.131055
0.124079
0.117138
0.11023
0.103355
0.0965111
0.0896972
0.0829125
0.0761551
0.0694255
0.0627197
0.0560414
0.0493813
0.0427518
0.0361288
0.0295495
0.0229473
0.0164316
0.00981158
0.00340978
)
;

boundaryField
{
    fixedWalls
    {
        type            zeroGradient;
    }
    inlet
    {
        type            zeroGradient;
    }
    outlet
    {
        type            fixedValue;
        value           uniform 0;
    }
    frontAndBack
    {
        type            empty;
    }
    procBoundary3to2
    {
        type            processor;
        value           nonuniform List<scalar> 
20
(
0.137219
0.137291
0.137352
0.137401
0.137444
0.137485
0.137526
0.137567
0.13761
0.137656
0.137705
0.137757
0.13781
0.137863
0.137914
0.13796
0.138001
0.138033
0.138056
0.138068
)
;
    }
    procBoundary3to7
    {
        type            processor;
        value           nonuniform List<scalar> 
20
(
0.131055
0.124079
0.117138
0.11023
0.103355
0.0965112
0.0896972
0.0829126
0.0761551
0.0694255
0.0627198
0.0560414
0.0493814
0.0427518
0.0361288
0.0295496
0.0229473
0.0164316
0.00981157
0.00340978
)
;
    }
}


// ************************************************************************* //
