/*--------------------------------*- C++ -*----------------------------------*\
| =========                 |                                                 |
| \\      /  F ield         | OpenFOAM: The Open Source CFD Toolbox           |
|  \\    /   O peration     | Version:                                        |
|   \\  /    A nd           | Website:  www.openfoam.com                      |
|    \\/     M anipulation  |                                                 |
\*---------------------------------------------------------------------------*/
FoamFile
{
    version     2.0;
    format      ascii;
    class       volVectorField;
    location    "0.7";
    object      U;
}
// * * * * * * * * * * * * * * * * * * * * * * * * * * * * * * * * * * * * * //

dimensions      [0 1 -1 0 0 0 0];


internalField   nonuniform List<vector> 
400
(
(0.0795458 2.88678e-05 0)
(0.079376 2.78022e-05 0)
(0.0792125 2.67787e-05 0)
(0.079055 2.57957e-05 0)
(0.0789034 2.4852e-05 0)
(0.0787574 2.39465e-05 0)
(0.0786167 2.30798e-05 0)
(0.0784811 2.22467e-05 0)
(0.0783505 2.14502e-05 0)
(0.0782246 2.06866e-05 0)
(0.0781031 1.99618e-05 0)
(0.077986 1.92778e-05 0)
(0.077873 1.86238e-05 0)
(0.0777636 1.80581e-05 0)
(0.077658 1.74486e-05 0)
(0.0775547 1.72265e-05 0)
(0.0774561 1.65285e-05 0)
(0.0773529 1.81715e-05 0)
(0.0772623 1.72756e-05 0)
(0.0770881 3.83345e-05 0)
(0.229936 0.00017343 0)
(0.229469 0.000166959 0)
(0.22902 0.000160748 0)
(0.228587 0.00015479 0)
(0.22817 0.000149074 0)
(0.227769 0.000143589 0)
(0.227383 0.000138332 0)
(0.227011 0.000133287 0)
(0.226652 0.000128461 0)
(0.226307 0.000123839 0)
(0.225974 0.000119441 0)
(0.225653 0.000115268 0)
(0.225343 0.000111303 0)
(0.225043 0.000107732 0)
(0.224755 0.000104182 0)
(0.224472 0.000102003 0)
(0.224203 9.86453e-05 0)
(0.223924 0.000102726 0)
(0.223686 9.96001e-05 0)
(0.223289 0.000151567 0)
(0.371557 0.000476352 0)
(0.370838 0.000458465 0)
(0.370146 0.00044131 0)
(0.369481 0.000424858 0)
(0.36884 0.000409078 0)
(0.368223 0.000393938 0)
(0.367628 0.000379425 0)
(0.367056 0.000365502 0)
(0.366505 0.000352181 0)
(0.365975 0.000339423 0)
(0.365463 0.000327272 0)
(0.36497 0.000315712 0)
(0.364495 0.000304755 0)
(0.364035 0.00029469 0)
(0.363593 0.000285007 0)
(0.36316 0.000277886 0)
(0.36275 0.000269459 0)
(0.362324 0.000273104 0)
(0.361975 0.000267262 0)
(0.36141 0.000327192 0)
(0.504298 0.000902651 0)
(0.503377 0.000868594 0)
(0.50249 0.000835943 0)
(0.501637 0.000804633 0)
(0.500817 0.000774613 0)
(0.500027 0.000745811 0)
(0.499267 0.000718204 0)
(0.498535 0.000691724 0)
(0.49783 0.000666386 0)
(0.497151 0.000642111 0)
(0.496497 0.000618982 0)
(0.495867 0.000596937 0)
(0.495259 0.000576062 0)
(0.494672 0.000556653 0)
(0.494108 0.000538245 0)
(0.493556 0.000523432 0)
(0.493037 0.000507828 0)
(0.492493 0.000506616 0)
(0.492066 0.000496713 0)
(0.491368 0.000545497 0)
(0.628025 0.00141813 0)
(0.626956 0.0013644 0)
(0.625928 0.0013129 0)
(0.62494 0.00126352 0)
(0.623989 0.00121618 0)
(0.623073 0.00117077 0)
(0.622192 0.00112725 0)
(0.621345 0.00108551 0)
(0.620529 0.00104557 0)
(0.619743 0.00100728 0)
(0.618986 0.000970803 0)
(0.618257 0.000935962 0)
(0.617555 0.000903015 0)
(0.616876 0.000872064 0)
(0.616225 0.000843005 0)
(0.615587 0.000818075 0)
(0.614992 0.000793755 0)
(0.614362 0.000783051 0)
(0.613886 0.000768056 0)
(0.613089 0.000794429 0)
(0.7426 0.00199323 0)
(0.741445 0.00191742 0)
(0.740334 0.00184478 0)
(0.739266 0.00177513 0)
(0.738239 0.00170837 0)
(0.737251 0.00164435 0)
(0.7363 0.00158299 0)
(0.735385 0.00152413 0)
(0.734504 0.00146782 0)
(0.733656 0.00141382 0)
(0.73284 0.00136238 0)
(0.732054 0.00131313 0)
(0.731297 0.00126664 0)
(0.730566 0.00122253 0)
(0.729866 0.00118156 0)
(0.729178 0.00114446 0)
(0.728543 0.00111061 0)
(0.72786 0.00108635 0)
(0.727366 0.00106632 0)
(0.726506 0.00106448 0)
(0.847905 0.00259613 0)
(0.84673 0.00249707 0)
(0.8456 0.00240216 0)
(0.844513 0.00231117 0)
(0.843469 0.00222397 0)
(0.842464 0.00214033 0)
(0.841497 0.0020602 0)
(0.840567 0.00198331 0)
(0.839672 0.00190977 0)
(0.838811 0.00183919 0)
(0.837982 0.001772 0)
(0.837184 0.0017075 0)
(0.836416 0.00164679 0)
(0.835674 0.00158855 0)
(0.834964 0.00153516 0)
(0.834266 0.00148437 0)
(0.833627 0.00144098 0)
(0.832931 0.0014001 0)
(0.832445 0.00137591 0)
(0.831569 0.00134363 0)
(0.943863 0.00319203 0)
(0.942737 0.0030699 0)
(0.941655 0.00295291 0)
(0.940615 0.00284075 0)
(0.939615 0.00273327 0)
(0.938652 0.00263017 0)
(0.937727 0.0025314 0)
(0.936837 0.00243662 0)
(0.935981 0.00234599 0)
(0.935157 0.00225893 0)
(0.934364 0.00217612 0)
(0.933601 0.00209639 0)
(0.932867 0.00202161 0)
(0.932157 0.00194907 0)
(0.931481 0.00188357 0)
(0.930812 0.00181829 0)
(0.930207 0.00176609 0)
(0.929538 0.00170681 0)
(0.929086 0.00167964 0)
(0.928245 0.00161735 0)
(1.03046 0.0037447 0)
(1.02946 0.00360114 0)
(1.02849 0.00346361 0)
(1.02756 0.00333177 0)
(1.02667 0.00320541 0)
(1.02581 0.00308421 0)
(1.02498 0.00296811 0)
(1.02419 0.00285666 0)
(1.02342 0.00275012 0)
(1.02269 0.00264767 0)
(1.02198 0.00255035 0)
(1.0213 0.00245633 0)
(1.02065 0.00236854 0)
(1.02001 0.00228233 0)
(1.01941 0.00220585 0)
(1.01881 0.00212621 0)
(1.01828 0.00206652 0)
(1.01768 0.00198853 0)
(1.01729 0.00195956 0)
(1.01653 0.00186972 0)
(1.10777 0.00421817 0)
(1.10695 0.00405624 0)
(1.10617 0.00390109 0)
(1.10541 0.00375236 0)
(1.10469 0.00360981 0)
(1.10399 0.00347305 0)
(1.10332 0.00334205 0)
(1.10267 0.00321626 0)
(1.10205 0.00309605 0)
(1.10146 0.00298033 0)
(1.10088 0.00287056 0)
(1.10033 0.00276411 0)
(1.0998 0.00266525 0)
(1.09929 0.00256692 0)
(1.0988 0.00248131 0)
(1.09832 0.00238844 0)
(1.09788 0.00232305 0)
(1.0974 0.00222758 0)
(1.09709 0.00219785 0)
(1.09648 0.00208443 0)
(1.17596 0.00457854 0)
(1.17539 0.00440266 0)
(1.17485 0.00423411 0)
(1.17432 0.00407251 0)
(1.17382 0.00391761 0)
(1.17334 0.00376898 0)
(1.17287 0.00362662 0)
(1.17243 0.00348985 0)
(1.172 0.00335922 0)
(1.17158 0.00323329 0)
(1.17118 0.00311404 0)
(1.1708 0.00299792 0)
(1.17043 0.00289072 0)
(1.17008 0.00278271 0)
(1.16974 0.0026905 0)
(1.16941 0.00258659 0)
(1.16911 0.00251757 0)
(1.16878 0.00240731 0)
(1.16857 0.00237771 0)
(1.16815 0.00224584 0)
(1.23529 0.00479606 0)
(1.23503 0.00461182 0)
(1.23477 0.00443522 0)
(1.23453 0.00426585 0)
(1.2343 0.00410349 0)
(1.23407 0.00394766 0)
(1.23385 0.00379841 0)
(1.23365 0.00365496 0)
(1.23345 0.00351799 0)
(1.23326 0.00338579 0)
(1.23307 0.00326081 0)
(1.23289 0.0031386 0)
(1.23272 0.00302649 0)
(1.23256 0.00291209 0)
(1.2324 0.00281627 0)
(1.23226 0.00270453 0)
(1.23212 0.00263415 0)
(1.23197 0.00251309 0)
(1.23187 0.00248439 0)
(1.23169 0.00234007 0)
(1.28613 0.00484721 0)
(1.28621 0.0046611 0)
(1.28628 0.00448265 0)
(1.28636 0.00431147 0)
(1.28642 0.00414734 0)
(1.28649 0.00398977 0)
(1.28656 0.00383886 0)
(1.28662 0.00369372 0)
(1.28668 0.00355521 0)
(1.28673 0.00342134 0)
(1.28679 0.00329501 0)
(1.28685 0.00317096 0)
(1.28689 0.00305787 0)
(1.28695 0.00294107 0)
(1.28699 0.00284502 0)
(1.28706 0.00272952 0)
(1.28709 0.00266014 0)
(1.28716 0.0025333 0)
(1.28718 0.00250617 0)
(1.28727 0.00235602 0)
(1.32894 0.00471656 0)
(1.32938 0.00453563 0)
(1.3298 0.0043621 0)
(1.3302 0.00419558 0)
(1.3306 0.0040359 0)
(1.33097 0.00388255 0)
(1.33133 0.00373567 0)
(1.33168 0.00359433 0)
(1.33202 0.00345952 0)
(1.33234 0.00332903 0)
(1.33265 0.00320613 0)
(1.33295 0.00308495 0)
(1.33323 0.00297514 0)
(1.33352 0.00286044 0)
(1.33378 0.00276773 0)
(1.33406 0.00265318 0)
(1.33428 0.00258715 0)
(1.33458 0.00246026 0)
(1.33473 0.00243532 0)
(1.33511 0.0022863 0)
(1.36421 0.00439824 0)
(1.36502 0.00422972 0)
(1.36579 0.00406805 0)
(1.36653 0.00391286 0)
(1.36725 0.00376402 0)
(1.36793 0.00362102 0)
(1.36859 0.00348406 0)
(1.36923 0.00335218 0)
(1.36984 0.00322646 0)
(1.37043 0.0031046 0)
(1.371 0.00299005 0)
(1.37155 0.00287664 0)
(1.37207 0.00277446 0)
(1.37259 0.00266666 0)
(1.37305 0.00258084 0)
(1.37356 0.00247233 0)
(1.37396 0.00241191 0)
(1.3745 0.00229104 0)
(1.37477 0.00226885 0)
(1.37544 0.00212795 0)
(1.39251 0.00389684 0)
(1.39366 0.00374773 0)
(1.39476 0.00360464 0)
(1.39583 0.00346725 0)
(1.39685 0.00333545 0)
(1.39783 0.00320878 0)
(1.39877 0.00308746 0)
(1.39968 0.00297057 0)
(1.40055 0.00285918 0)
(1.4014 0.00275109 0)
(1.4022 0.00264965 0)
(1.40299 0.00254888 0)
(1.40373 0.00245853 0)
(1.40447 0.00236238 0)
(1.40514 0.00228682 0)
(1.40586 0.00218946 0)
(1.40643 0.00213677 0)
(1.40719 0.00202792 0)
(1.40758 0.00200901 0)
(1.40853 0.00188294 0)
(1.41437 0.00322754 0)
(1.41582 0.00310422 0)
(1.41722 0.00298582 0)
(1.41856 0.00287213 0)
(1.41985 0.00276303 0)
(1.42109 0.00265815 0)
(1.42229 0.0025577 0)
(1.42344 0.00246087 0)
(1.42454 0.00236862 0)
(1.42561 0.00227901 0)
(1.42663 0.00219504 0)
(1.42763 0.00211139 0)
(1.42856 0.00203669 0)
(1.4295 0.00195663 0)
(1.43035 0.00189438 0)
(1.43126 0.00181295 0)
(1.43198 0.00176986 0)
(1.43294 0.00167861 0)
(1.43343 0.00166341 0)
(1.43463 0.00155828 0)
(1.43027 0.0024156 0)
(1.43197 0.00232341 0)
(1.4336 0.00223489 0)
(1.43517 0.00214985 0)
(1.43668 0.00206825 0)
(1.43814 0.00198979 0)
(1.43954 0.00191463 0)
(1.44088 0.00184216 0)
(1.44218 0.00177313 0)
(1.44343 0.00170602 0)
(1.44462 0.00164321 0)
(1.44578 0.00158051 0)
(1.44688 0.00152469 0)
(1.44798 0.00146453 0)
(1.44897 0.00141813 0)
(1.45003 0.00135675 0)
(1.45088 0.00132481 0)
(1.452 0.00125593 0)
(1.45257 0.00124481 0)
(1.45398 0.00116576 0)
(1.44063 0.00149491 0)
(1.4425 0.00143794 0)
(1.4443 0.00138319 0)
(1.44603 0.0013306 0)
(1.4477 0.00128014 0)
(1.4493 0.0012316 0)
(1.45084 0.0011851 0)
(1.45233 0.00114026 0)
(1.45375 0.00109757 0)
(1.45513 0.00105602 0)
(1.45645 0.00101717 0)
(1.45773 0.000978329 0)
(1.45894 0.000943839 0)
(1.46015 0.000906523 0)
(1.46124 0.000877889 0)
(1.46241 0.00083973 0)
(1.46334 0.000820122 0)
(1.46458 0.00077726 0)
(1.4652 0.00077048 0)
(1.46675 0.000721428 0)
(1.44573 0.000506186 0)
(1.44769 0.000486881 0)
(1.44958 0.000468402 0)
(1.45139 0.000450583 0)
(1.45314 0.000433515 0)
(1.45482 0.000417114 0)
(1.45643 0.000401392 0)
(1.45799 0.000386231 0)
(1.45948 0.000371799 0)
(1.46093 0.000357745 0)
(1.46231 0.000344608 0)
(1.46365 0.000331475 0)
(1.46492 0.000319828 0)
(1.46619 0.000307197 0)
(1.46733 0.000297532 0)
(1.46856 0.000284596 0)
(1.46953 0.000278015 0)
(1.47083 0.000263493 0)
(1.47148 0.000261222 0)
(1.47311 0.000244622 0)
)
;

boundaryField
{
    fixedWalls
    {
        type            noSlip;
    }
    inlet
    {
        type            fixedValue;
        value           nonuniform 0();
    }
    outlet
    {
        type            zeroGradient;
    }
    frontAndBack
    {
        type            empty;
    }
    procBoundary3to2
    {
        type            processor;
        value           nonuniform List<vector> 
20
(
(0.0797222 2.99786e-05 0)
(0.230422 0.000180179 0)
(0.372305 0.000495012 0)
(0.505256 0.000938189 0)
(0.629136 0.00147421 0)
(0.743801 0.00207236 0)
(0.849127 0.00269955 0)
(0.945034 0.00331953 0)
(1.03151 0.00389457 0)
(1.10862 0.00438719 0)
(1.17655 0.00476209 0)
(1.23556 0.00498829 0)
(1.28605 0.00504133 0)
(1.32848 0.0049052 0)
(1.36338 0.00457387 0)
(1.39132 0.00405216 0)
(1.41286 0.00335598 0)
(1.4285 0.00251158 0)
(1.43868 0.00155426 0)
(1.44369 0.000526246 0)
)
;
    }
    procBoundary3to7
    {
        type            processor;
        value           nonuniform List<vector> 
20
(
(1.44573 -0.00050573 0)
(1.44769 -0.000486459 0)
(1.44958 -0.000467889 0)
(1.45139 -0.000450093 0)
(1.45314 -0.000432991 0)
(1.45482 -0.000416528 0)
(1.45643 -0.000400764 0)
(1.45799 -0.000385555 0)
(1.45948 -0.000371071 0)
(1.46093 -0.000356978 0)
(1.46231 -0.000343792 0)
(1.46365 -0.000330596 0)
(1.46492 -0.000318897 0)
(1.46619 -0.00030622 0)
(1.46733 -0.000296503 0)
(1.46856 -0.000283512 0)
(1.46953 -0.000276849 0)
(1.47083 -0.00026224 0)
(1.47148 -0.000259943 0)
(1.47311 -0.000243247 0)
)
;
    }
}


// ************************************************************************* //
