/*--------------------------------*- C++ -*----------------------------------*\
| =========                 |                                                 |
| \\      /  F ield         | OpenFOAM: The Open Source CFD Toolbox           |
|  \\    /   O peration     | Version:                                        |
|   \\  /    A nd           | Website:  www.openfoam.com                      |
|    \\/     M anipulation  |                                                 |
\*---------------------------------------------------------------------------*/
FoamFile
{
    version     2.0;
    format      ascii;
    class       volScalarField;
    location    "66.1";
    object      p;
}
// * * * * * * * * * * * * * * * * * * * * * * * * * * * * * * * * * * * * * //

dimensions      [0 2 -2 0 0 0 0];


internalField   nonuniform List<scalar> 
1161
(
-0.59319
-0.512315
-0.439323
-0.373736
-0.314094
-0.261115
-0.217064
-0.177689
-0.141421
-0.106837
-0.445388
-0.383681
-0.329231
-0.281419
-0.236633
-0.197708
-0.162943
-0.132857
-0.341787
-0.294707
-0.255326
-0.219302
-0.186301
-0.155953
-0.235864
-0.205871
-0.178525
-1.13842
-1.18514
-1.20887
-1.20631
-1.17958
-1.1325
-1.07176
-1.00767
-0.955853
-0.930646
-0.930909
-0.950324
-0.99157
-1.03232
-1.05312
-1.02673
-0.948907
-1.32685
-1.34376
-1.33028
-1.28891
-1.22354
-1.13805
-1.04123
-0.949239
-0.877139
-0.836854
-0.839778
-0.870021
-0.895791
-0.89711
-0.884273
-0.805177
-1.39654
-1.40105
-1.375
-1.32129
-1.24444
-1.14508
-1.02545
-0.896787
-0.781213
-0.697935
-0.657124
-0.642203
-0.639008
-0.620361
-0.578911
-0.53377
-1.39512
-1.38861
-1.35359
-1.29404
-1.21174
-1.1066
-0.979995
-0.814627
-0.673824
-0.555616
-0.465551
-0.399117
-0.387626
-0.360372
-0.311638
-0.263368
-1.34578
-1.33589
-1.3011
-1.24317
-1.16082
-1.05067
-0.911842
-0.752324
-0.596714
-0.458359
-0.349265
-0.229157
-0.228306
-0.196228
-0.131909
-0.108014
-1.25545
-1.22725
-1.17692
-1.09816
-0.987728
-0.849467
-0.696144
-0.545637
-0.412871
-0.29835
-0.196929
-0.14923
-0.112475
-0.0515193
-0.0315716
-1.14621
-1.10003
-1.02063
-0.909233
-0.777485
-0.638651
-0.5062
-0.391737
-0.291768
-0.208678
-0.143263
-0.0971196
-0.0510745
-0.00727512
-1.03343
-0.947007
-0.835019
-0.712202
-0.59131
-0.479924
-0.378403
-0.291797
-0.225308
-0.168835
-0.114778
-0.0772206
-0.0397464
-0.880762
-0.773775
-0.663331
-0.558183
-0.461793
-0.374714
-0.298687
-0.230187
-0.173481
-0.127622
-0.0881
-0.0580564
-0.719463
-0.62266
-0.531569
-0.446806
-0.370418
-0.303552
-0.246518
-0.194437
-0.146743
-0.109552
-0.075871
-0.801882
-0.614213
-0.478509
-0.404443
-0.372913
-0.373965
-0.404704
-0.478943
-0.618302
-0.813043
-0.989591
-1.05063
-0.971978
-0.783273
-0.576735
-0.422409
-0.335694
-0.296861
-0.298984
-0.345973
-0.672116
-0.513487
-0.416785
-0.367501
-0.349379
-0.35928
-0.400149
-0.487104
-0.640112
-0.847681
-1.03952
-1.14432
-1.04309
-0.842573
-0.616699
-0.438983
-0.331934
-0.274582
-0.257363
-0.280445
-0.446455
-0.369299
-0.320376
-0.293429
-0.289019
-0.305833
-0.351138
-0.438831
-0.587216
-0.788166
-0.97891
-1.07944
-1.02452
-0.843548
-0.618871
-0.434946
-0.318285
-0.250431
-0.216914
-0.215883
-0.218198
-0.213804
-0.193635
-0.182796
-0.188907
-0.213607
-0.262335
-0.340094
-0.464
-0.635852
-0.810362
-0.919344
-0.909666
-0.777807
-0.582725
-0.408397
-0.291903
-0.220277
-0.179767
-0.162492
-0.0579263
-0.0807468
-0.0758448
-0.0805675
-0.0954493
-0.123816
-0.169272
-0.233604
-0.324721
-0.449763
-0.587754
-0.695005
-0.726016
-0.661324
-0.518747
-0.368579
-0.258707
-0.187053
-0.143389
-0.117283
0.0128225
0.0080662
0.00447798
-0.00562177
-0.0216649
-0.0493778
-0.0905128
-0.14147
-0.203611
-0.287474
-0.387036
-0.481276
-0.55055
-0.529707
-0.437253
-0.318925
-0.222965
-0.156691
-0.11391
-0.0831243
0.0333082
0.0606936
0.0555007
0.045017
0.0281079
0.00307787
-0.0310977
-0.0722588
-0.115613
-0.169676
-0.235832
-0.300239
-0.360767
-0.38468
-0.342486
-0.260286
-0.184184
-0.12704
-0.0876755
-0.0557386
-0.034872
-0.00744208
0.0430806
0.0766886
0.0805131
0.0634777
0.0358338
0.00369252
-0.027846
-0.0574094
-0.0958686
-0.133002
-0.160748
-0.207138
-0.252562
-0.249743
-0.201547
-0.145588
-0.0984809
-0.0650734
-0.03693
-0.0130367
-0.0310523
0.00519253
0.0410179
0.0675746
0.0752494
0.0651729
0.0393156
0.0133857
-0.00911193
-0.0391654
-0.0655819
-0.0859232
-0.123416
-0.186078
-0.189435
-0.161024
-0.120986
-0.0823261
-0.0513842
-0.0261398
-0.0014422
-0.0456815
-0.0194112
0.0071305
0.0349223
0.0532164
0.05855
0.0491616
0.0332721
0.0219365
0.00195478
-0.0212979
-0.0374998
-0.0607231
-0.0888359
-0.111501
-0.102605
-0.0820415
-0.0582548
-0.0350142
-0.0148057
0.00706769
-0.0525618
-0.027568
0.00060812
0.0252082
0.0447852
0.0566695
0.0538272
0.0416774
0.0347971
0.0302437
0.0198906
6.17314e-05
-0.0306265
-0.053666
-0.0684613
-0.0620359
-0.0485639
-0.0335335
-0.0148455
0.00203864
0.0176859
0.0316506
-0.0663937
-0.0371731
-0.00748364
0.016686
0.0346965
0.0459695
0.0478155
0.0429112
0.0414234
0.0410266
0.0335587
0.0159509
-0.00704813
-0.0188942
-0.0314601
-0.029924
-0.0223376
-0.0138443
-0.000188892
0.0139909
0.0265461
0.0373032
-0.0664918
-0.0437066
-0.0160712
0.00659281
0.0235515
0.0339754
0.0386169
0.0396425
0.0412969
0.0418663
0.0375472
0.0270386
0.0136923
0.00669523
-0.00665784
-0.0087755
-0.00395512
0.00186778
0.0113965
0.0220329
0.0317226
0.040403
-0.0631435
-0.0489156
-0.028992
-0.00565062
0.0118463
0.0226391
0.0295688
0.0346701
0.0388973
0.0417247
0.0407973
0.0337512
0.0226284
0.00886952
0.00688303
0.00705413
0.0110993
0.0150178
0.021597
0.029549
0.0354712
0.0395989
-0.0611468
-0.0508114
-0.0334496
-0.0138194
0.00247858
0.013862
0.0221354
0.0290115
0.0347418
0.0385711
0.0387478
0.0342333
0.0272993
0.0223605
0.0185907
0.0180111
0.0189936
0.0194418
0.0232956
0.030899
0.0389135
0.0436466
-0.0578824
-0.0500635
-0.0363848
-0.0199334
-0.00501134
0.00628558
0.0146088
0.0220494
0.0285309
0.0330999
0.0348719
0.0328652
0.0285428
0.0223362
0.0223315
0.0228033
0.0253956
0.0278519
0.0313388
0.0356834
0.0385514
0.0395322
-0.0530556
-0.0481437
-0.0379001
-0.0242729
-0.0111835
-0.000610944
0.00777885
0.0154813
0.0224051
0.0276979
0.0303718
0.0298664
0.0277295
0.0266622
0.0263841
0.0272248
0.0284643
0.0284843
0.0291057
0.0332629
0.0375096
0.039624
-0.048007
-0.0450621
-0.0373887
-0.026426
-0.0152349
-0.00559402
0.00246885
0.00991577
0.0166458
0.0219907
0.0253872
0.0263971
0.0261439
0.0255482
0.0257004
0.0266173
0.0282423
0.029855
0.0317452
0.0349129
0.037325
0.0374939
-0.0429385
-0.041289
-0.0355165
-0.0266775
-0.0173757
-0.0091062
-0.00183616
0.00499547
0.0114935
0.0169794
0.0208615
0.0228436
0.0234948
0.0238082
0.0246922
0.02655
0.028804
0.0299636
0.0305693
0.0321162
0.0342881
0.0349668
-0.0381816
-0.0370584
-0.0326188
-0.0257678
-0.0183918
-0.0114152
-0.00487349
0.00146825
0.0075579
0.0127256
0.0167105
0.0192823
0.0207298
0.0219333
0.0234175
0.0252757
0.0270642
0.0281977
0.0290297
0.0304283
0.0323221
0.0328775
-0.032098
-0.0320846
-0.0293288
-0.0241161
-0.017928
-0.0119359
-0.00634472
-0.000941324
0.00436846
0.00925583
0.013319
0.0161833
0.0180269
0.0195545
0.0211984
0.0231297
0.0250834
0.0264732
0.0274855
0.0284119
0.0297656
0.0304456
-0.0273598
-0.0280565
-0.0257461
-0.0212572
-0.0162341
-0.0115819
-0.00716834
-0.00260811
0.00217006
0.00672375
0.0105486
0.0134118
0.0154222
0.0171708
0.0189407
0.0209829
0.0230568
0.0244862
0.0254141
0.026167
0.0273021
0.0280488
-0.0231262
-0.0230871
-0.021277
-0.018147
-0.0145218
-0.0109194
-0.00722229
-0.00326863
0.000885153
0.00489775
0.00842008
0.0111855
0.0132123
0.014993
0.0168111
0.0188932
0.0209297
0.0223203
0.0232405
0.0239463
0.0249442
0.0257396
-0.0173754
-0.0182124
-0.0176396
-0.0154772
-0.012515
-0.00943158
-0.00636981
-0.00319705
0.000226102
0.00373776
0.00691962
0.00948568
0.0114204
0.0131289
0.0149307
0.0168936
0.0188294
0.0201912
0.0211124
0.0218332
0.022747
0.0235576
-0.0138553
-0.0149519
-0.0142952
-0.012275
-0.00980019
-0.00746579
-0.00520827
-0.00273829
0.000138964
0.00318711
0.00600825
0.00828329
0.0100263
0.0115965
0.0132453
0.0150814
0.0169231
0.0182676
0.0191683
0.0198548
0.0207392
0.0215678
-0.0106824
-0.0110766
-0.0104232
-0.00896948
-0.0072306
-0.00557254
-0.00385137
-0.00184257
0.000541378
0.00310427
0.00552614
0.00749465
0.00903748
0.0104366
0.011962
0.0136244
0.0153282
0.0165745
0.0174096
0.0180999
0.0189628
0.0197705
-0.0067166
-0.00733818
-0.00716858
-0.00621124
-0.00489343
-0.00358098
-0.00222601
-0.000673141
0.00123132
0.00336189
0.00541517
0.00711943
0.00843836
0.00961919
0.0109368
0.0124467
0.0139778
0.015113
0.0159086
0.0165566
0.0173943
0.0181559
-0.00381239
-0.00449709
-0.00436929
-0.0035515
-0.00248951
-0.00149879
-0.000540821
0.000617416
0.00211998
0.00389194
0.00564632
0.00705716
0.00811675
0.00907879
0.0102443
0.011562
0.0129185
0.0139373
0.0146676
0.0152699
0.0160429
0.016797
-0.0013107
-0.00175401
-0.00160543
-0.000971575
-0.000218298
0.000452795
0.00111084
0.00197988
0.00318817
0.00464356
0.00607057
0.0072117
0.00810045
0.0089196
0.00986682
0.0109741
0.0121441
0.0130541
0.0136863
0.0142151
0.01494
0.0156494
0.00121708
0.000808112
0.000843798
0.00127313
0.0018098
0.00228173
0.00274265
0.00339345
0.00433986
0.00549536
0.00665217
0.0075881
0.00828869
0.00890108
0.00966698
0.0106206
0.0116222
0.0123904
0.012928
0.0134106
0.014069
0.0147365
0.00337953
0.00300268
0.00300137
0.0033233
0.0037136
0.00402722
0.00432457
0.0047827
0.00549771
0.00640622
0.00733254
0.0080686
0.00860118
0.00908451
0.00970958
0.0104971
0.0113265
0.0119798
0.0124315
0.0128481
0.0134202
0.0140285
0.0052747
0.00496654
0.00494799
0.00517384
0.00544221
0.00563598
0.00580413
0.00609628
0.00662024
0.00733711
0.00808019
0.00865293
0.00905577
0.00941316
0.00989044
0.0105211
0.0111969
0.0117367
0.0121112
0.0124631
0.0129502
0.0135011
0.00696813
0.00672358
0.00669246
0.0068326
0.00698968
0.00707569
0.00714674
0.00733626
0.00773569
0.00828919
0.00885075
0.00927246
0.00955706
0.00981327
0.0101791
0.0106806
0.0112204
0.0116522
0.011942
0.0122352
0.0126529
0.0131317
0.00845282
0.00823643
0.0081772
0.00824883
0.0083379
0.00837544
0.00840198
0.00851395
0.00877952
0.00916644
0.00957615
0.00988954
0.0100934
0.0102751
0.0105429
0.0109282
0.0113464
0.0116791
0.0119115
0.0121513
0.0124895
0.01288
0.00966181
0.00949653
0.00944913
0.00949341
0.00954018
0.00953315
0.0095056
0.00954093
0.00970483
0.00998104
0.0102809
0.0105032
0.0106352
0.0107512
0.0109421
0.0112299
0.011544
0.0117947
0.0119732
0.0121542
0.0124229
0.0127446
0.0107038
0.0105845
0.010533
0.0105315
0.0105247
0.0104818
0.0104321
0.0104357
0.0105358
0.0107149
0.0109075
0.0110458
0.0111257
0.0112024
0.0113373
0.0115402
0.0117661
0.011949
0.0120825
0.012223
0.012434
0.0126825
0.0115289
0.0114296
0.0113727
0.0113484
0.0113221
0.0112734
0.0112191
0.0111964
0.011235
0.0113279
0.0114378
0.0115214
0.0115714
0.0116178
0.0117029
0.0118378
0.0119932
0.0121218
0.0122216
0.0123293
0.0124844
0.0126696
0.0121181
0.0120488
0.0120033
0.0119726
0.011936
0.0118815
0.011822
0.0117825
0.0117845
0.0118239
0.0118776
0.0119171
0.0119393
0.0119626
0.0120143
0.0120986
0.0121988
0.0122871
0.0123625
0.0124433
0.0125563
0.0126917
0.0124996
0.0124453
0.0123964
0.0123496
0.0123006
0.0122483
0.0122007
0.0121666
0.0121525
0.0121544
0.0121644
0.0121733
0.012183
0.0121998
0.0122332
0.0122831
0.0123452
0.0124069
0.0124675
0.0125347
0.012619
0.0127163
0.0127046
0.0126558
0.0126092
0.0125629
0.0125164
0.0124691
0.0124248
0.0123871
0.01236
0.0123423
0.0123335
0.0123303
0.0123337
0.0123437
0.0123645
0.0123954
0.012437
0.0124845
0.0125376
0.0125946
0.0126613
0.0127371
-0.164484
-0.150043
-0.124653
-0.10448
-0.076532
-0.139691
-0.128623
-0.109161
-0.0940551
-0.0835604
-0.123222
-0.117368
-0.1063
-0.0943735
-0.0830572
-0.109706
-0.104041
-0.0947644
-0.0817343
-0.0722684
-0.0873921
-0.0800174
-0.0708407
-0.0659866
-0.0750431
-0.0709394
-0.0657059
-0.0619055
-0.0663289
-0.0632932
-0.0586409
-0.0550995
-0.0572437
-0.05402
-0.0500932
-0.0482607
-0.047941
-0.0451382
-0.0427686
-0.0423103
-0.0399832
-0.0384051
-0.0373374
-0.0373648
-0.0342499
-0.0334945
-0.0322898
-0.0315283
-0.0285375
-0.0268649
-0.0253451
-0.0255453
-0.0218513
-0.0209894
-0.0212044
-0.0221686
-0.0179969
-0.0180658
-0.0176876
-0.0169835
-0.0140848
-0.0130378
-0.0120545
-0.0122997
-0.00924153
-0.008794
-0.00909021
-0.00984394
-0.00643787
-0.0064408
-0.00637308
-0.00627692
-0.00354017
-0.00313463
-0.00286595
-0.00304935
-0.000571121
-0.000367486
-0.000431861
-0.000751572
0.00167127
0.00178302
0.00178
0.00163298
0.00378659
0.0039336
0.00395015
0.00378543
0.00571257
0.00580819
0.00577996
0.00561133
0.00734778
0.00739445
0.0073587
0.00722746
0.00877603
0.00881197
0.00878523
0.00867282
0.0100161
0.0100121
0.00995687
0.00984159
0.0109831
0.0109553
0.0109064
0.0108262
0.0117832
0.0117492
0.0117017
0.0116299
0.0123714
0.0123185
0.0122609
0.012194
0.0127248
0.0126649
0.0126099
0.0125553
0.0129368
0.0128714
0.0128125
0.0127567
)
;

boundaryField
{
    outlet
    {
        type            fixedValue;
        value           nonuniform 0();
    }
    upperWall
    {
        type            symmetryPlane;
    }
    lowerWall
    {
        type            symmetryPlane;
    }
    inlet
    {
        type            zeroGradient;
    }
    cylinder
    {
        type            zeroGradient;
    }
    frontAndBack
    {
        type            empty;
    }
    procBoundary6to2
    {
        type            processor;
        value           nonuniform List<scalar> 
37
(
-0.955398
-0.994796
-1.01842
-1.02302
-1.00931
-0.982347
-0.949894
-0.921385
-0.905711
-0.912989
-0.943369
-0.972874
-1.00607
-1.04412
-1.06428
-1.05178
-0.97729
-0.833027
-0.652069
-0.510376
-0.420628
-0.374036
-0.363018
-0.383293
-0.442395
-0.555008
-0.714227
-0.861008
-0.906538
-0.842342
-0.683066
-0.514127
-0.395383
-0.332968
-0.311556
-0.330472
-0.404778
)
;
    }
    procBoundary6to5
    {
        type            processor;
        value           nonuniform List<scalar> 
63
(
-0.678558
-0.678558
-0.583385
-0.512248
-0.512248
-0.450445
-0.393873
-0.393873
-0.348247
-0.307372
-0.269643
-0.269643
-0.250341
-0.220564
-0.193174
-0.193174
-1.08173
-1.28136
-1.28136
-1.36277
-1.37278
-1.32998
-1.26441
-1.26441
-1.16813
-1.16813
-1.08725
-1.08725
-0.973631
-0.973631
-0.81794
-0.81794
-0.178124
-0.152263
-0.132974
-0.116987
-0.0945045
-0.0945045
-0.0808598
-0.0701373
-0.0605821
-0.0511152
-0.0423912
-0.0355432
-0.029945
-0.0235226
-0.0185172
-0.0148475
-0.0102446
-0.00678094
-0.00401537
-0.00104276
0.00139226
0.0035395
0.00552832
0.00724675
0.00871584
0.00999914
0.0110103
0.0118236
0.0124304
0.0127953
0.0130109
)
;
    }
    procBoundary6to7
    {
        type            processor;
        value           nonuniform List<scalar> 
42
(
-0.438136
-0.340167
-0.248778
-0.173009
-0.113436
-0.0687236
-0.0687236
-0.0364672
-0.00785464
0.0105994
0.023512
0.023512
0.0313939
0.0362507
0.041032
0.0396736
0.0424215
0.0386258
0.0386401
0.0360787
0.0340058
0.0319917
0.0298425
0.0277641
0.0257386
0.0237415
0.0218986
0.0201753
0.0186646
0.0173494
0.0162175
0.0152778
0.0145263
0.0139505
0.0135202
0.0132209
0.0130272
0.0129035
0.0128429
0.0128216
0.0128159
0.0128204
)
;
    }
}


// ************************************************************************* //
