/*--------------------------------*- C++ -*----------------------------------*\
| =========                 |                                                 |
| \\      /  F ield         | OpenFOAM: The Open Source CFD Toolbox           |
|  \\    /   O peration     | Version:                                        |
|   \\  /    A nd           | Website:  www.openfoam.com                      |
|    \\/     M anipulation  |                                                 |
\*---------------------------------------------------------------------------*/
FoamFile
{
    version     2.0;
    format      ascii;
    class       surfaceScalarField;
    location    "122.2";
    object      phi;
}
// * * * * * * * * * * * * * * * * * * * * * * * * * * * * * * * * * * * * * //

dimensions      [0 3 -1 0 0 0 0];
oriented        oriented;


internalField   nonuniform List<scalar> 
2238
(
0.0171062
0.0299709
0.0176722
0.0292509
0.0187029
-0.029745
0.0287143
0.0203738
-0.0297094
0.0280385
0.0218908
-0.0294837
0.0279667
0.0232011
-0.0289034
0.0275931
0.0252578
-0.0287488
0.0266921
0.0277386
-0.0282868
0.025806
0.0298747
-0.0282024
0.0260663
-0.0274758
0.0253594
0.0319911
0.0200342
0.0208742
0.0216476
-0.0302571
0.0228713
-0.0301271
0.0241939
-0.0300714
0.0257813
-0.0298743
0.0276344
-0.0300554
-0.0299102
0.0300688
0.0196227
0.0206996
0.0220411
0.0237495
-0.0315827
0.0256966
-0.0320025
-0.0321748
0.0279612
0.0228271
0.0245722
0.0265322
-0.010544
-0.0128747
-0.00942509
-0.0149181
-0.0144472
-0.016459
-0.0193889
-0.0176502
-0.0240026
-0.0182944
-0.0284151
-0.0177023
-0.0322974
-0.0155909
-0.0349849
-0.0116718
-0.0359052
-0.0059324
-0.0344011
0.000900981
-0.0302106
0.00855897
-0.0230754
0.0153726
-0.0164371
0.0207709
-0.00595655
0.0265128
0.00475719
0.0331593
0.0161365
0.0270371
0.0391699
-0.00925228
-0.00782884
-0.0109653
-0.0127342
-0.0128502
-0.017504
-0.0147102
-0.0221427
-0.0165157
-0.0266096
-0.017872
-0.0309411
-0.0181889
-0.034668
-0.016989
-0.037105
-0.0138151
-0.037575
-0.00907201
-0.0349537
-0.00302427
-0.0291231
0.00238216
-0.0218435
0.00750665
-0.011081
0.0134207
-0.00115686
0.0206087
0.00894852
0.0185717
0.0290741
-0.00420133
-0.00725272
-0.00485117
-0.0120844
-0.00588615
-0.016469
-0.00742808
-0.0206008
-0.00939131
-0.0246463
-0.0116893
-0.0286432
-0.0138917
-0.0324655
-0.0154618
-0.0355349
-0.0157652
-0.0372717
-0.0143046
-0.0364143
-0.0111876
-0.0322402
-0.00835097
-0.0246802
-0.00485848
-0.0145735
0.00268372
-0.00869905
0.00970386
0.00192839
0.0089274
0.0193482
0.000902759
-0.00745677
0.000977209
-0.0121588
0.000769889
-0.0162617
0.000164456
-0.0199953
-0.000863887
-0.023618
-0.00236636
-0.0271407
-0.00452246
-0.0303094
-0.00741938
-0.032638
-0.0106252
-0.0340659
-0.0128544
-0.0341851
-0.0131111
-0.0319834
-0.0123155
-0.0254757
-0.0114022
-0.0154868
-0.00420454
-0.0158967
0.00308539
-0.00536154
-0.00160268
0.0136155
0.00466888
0.00471779
-0.0122077
0.00445845
-0.0160023
0.00418604
-0.0197229
0.00400818
-0.0234401
0.00381696
-0.0269495
0.00326665
-0.0297591
0.00182459
-0.0311959
-0.000827133
-0.0314142
-0.0044488
-0.0305634
-0.00730429
-0.029128
-0.00705255
-0.0257275
-0.00708685
-0.0154525
-0.0040733
-0.0189103
0.00151396
-0.0109488
-0.0110792
0.0109904
0.00730923
0.00707224
-0.0157653
0.00715275
-0.0198034
0.00760947
-0.0238969
0.00817291
-0.0275129
0.00853414
-0.0301203
0.00863832
-0.0313001
0.0083065
-0.0310823
0.00685611
-0.0291131
0.00472884
-0.0270007
0.00292877
-0.0239274
0.00437886
-0.0169026
0.00464324
-0.0191747
0.00744744
-0.013753
-0.0153447
0.011713
0.00836314
0.00976315
-0.0212034
0.01155
-0.0256837
0.013093
-0.0290559
0.0139057
-0.030933
0.0139835
-0.0313779
0.0135861
-0.0306849
0.0135108
-0.0290378
0.0135639
-0.0270538
0.0125337
-0.0228973
0.0157448
-0.0201137
0.0168263
-0.0202561
0.0197784
-0.0167051
-0.0164754
0.0209091
0.0132132
0.016035
-0.0285055
0.0178095
-0.0308305
0.0184349
-0.0315584
0.0181697
-0.0311126
0.017214
-0.0297292
0.0162996
-0.0281234
0.0157654
-0.0265196
0.0171098
-0.0242417
0.0207031
-0.023707
0.0220468
-0.0215998
0.0258541
-0.0205125
-0.0196905
0.0290692
0.0192495
0.0198282
-0.0314092
0.0193268
-0.0310571
0.0182601
-0.0300459
0.0173845
-0.0288536
0.0170282
-0.027767
0.0167217
-0.0262131
0.0183169
-0.0258369
0.0201622
-0.0255523
0.0220926
-0.0235302
0.0248729
-0.0232928
-0.0231618
0.0283442
0.0183108
0.0172247
0.0164297
0.0162903
0.0165618
0.0183154
0.0200716
0.0212114
0.0234872
0.0262608
0.0284584
0.0419374
0.0504758
0.0441339
0.0532961
0.0449705
0.0548373
0.0456491
0.0548737
0.0464478
0.0552908
0.0464233
0.0588408
0.0454517
0.0659264
0.0435097
0.0726321
0.0399748
0.068146
0.0364926
0.0488433
0.0339241
0.0146387
0.0335686
-0.0225702
0.034499
-0.054221
0.0373598
-0.0729081
0.0395931
-0.0771437
0.04053
-0.0772823
0.0400506
-0.0748461
0.0369009
-0.0804833
0.0309399
-0.0762473
-0.0751519
0.0373731
0.0421768
0.0430017
0.0476674
0.0462494
0.0515896
0.0486423
0.0524809
0.0514869
0.0524462
0.054373
0.0559547
0.0566398
0.0636596
0.0573609
0.071911
0.0551927
0.0703142
0.0511884
0.0528476
0.0461841
0.019643
0.0424629
-0.0188489
0.0402484
-0.0520066
0.0400242
-0.0726838
0.0401972
-0.0773168
0.0397014
-0.0767864
0.0374427
-0.0725875
0.0335166
-0.0765572
0.0277613
-0.070492
-0.0694066
0.0319065
0.0296185
0.0410604
0.0385135
0.0474822
0.0451679
0.0523418
0.0476212
0.0567396
0.0480484
0.061781
0.0509133
0.0667614
0.0586792
0.0703282
0.0683441
0.0709338
0.0697087
0.0675498
0.0562316
0.0604334
0.0267595
0.0532976
-0.0117132
0.0478962
-0.0466052
0.0441777
-0.0689653
0.0418172
-0.0749562
0.0397013
-0.0746705
0.0363678
-0.069254
0.0313734
-0.0715628
0.0260438
-0.0651624
-0.0634036
0.0269105
0.0163234
0.0374812
0.0279429
0.046146
0.0365031
0.0536307
0.0401366
0.0607051
0.040974
0.0684864
0.043132
0.0762202
0.0509454
0.0825413
0.0620231
0.0854073
0.0668426
0.083083
0.0585558
0.0756259
0.0342166
0.0654652
-0.00155244
0.0562164
-0.0373564
0.0486996
-0.0614485
0.0436828
-0.0699394
0.039492
-0.0704797
0.0357446
-0.0655066
0.0306037
-0.0664218
0.0257707
-0.0603294
-0.0572306
0.0237303
0.00358362
0.0343749
0.0172982
0.0427988
0.0280793
0.0499006
0.0330347
0.0574014
0.0334732
0.0662451
0.0342882
0.0766336
0.0405569
0.0864896
0.0521671
0.0926174
0.0607149
0.0926757
0.0584976
0.0859121
0.0409802
0.0751165
0.00924311
0.0633621
-0.025602
0.0531838
-0.0512702
0.0462654
-0.063021
0.0407032
-0.0649175
0.0361677
-0.0609711
0.0305559
-0.0608101
0.0264295
-0.056203
-0.0515514
0.0200806
-0.00478395
0.0307636
0.00661516
0.0401451
0.0186977
0.0471965
0.0259833
0.0533184
0.0273513
0.0605327
0.0270739
0.0703845
0.0307051
0.0814269
0.0411247
0.0901027
0.0520391
0.0931637
0.0554365
0.0892726
0.0448713
0.0795704
0.0189452
0.0678101
-0.0138417
0.0567633
-0.0402234
0.0481789
-0.0544366
0.0417806
-0.0585193
0.0367151
-0.0559055
0.0311697
-0.0552647
0.027247
-0.0522803
-0.0468525
0.0205138
-0.00438867
0.0259396
0.00118941
0.0350002
0.00963709
0.0436377
0.0173458
0.0502958
0.0206932
0.0563145
0.0210552
0.064115
0.0229046
0.0746949
0.0305448
0.0850458
0.0416882
0.0914608
0.0490216
0.0906089
0.0457232
0.0824555
0.0270987
0.0713084
-0.00269465
0.0600857
-0.0290006
0.0501831
-0.044534
0.0425447
-0.0508809
0.036753
-0.0501138
0.0318172
-0.0503289
0.0280594
-0.0485225
0.0248181
-0.0436112
-0.0318464
0.0283662
-0.00368574
0.0297874
-0.000231777
0.0334447
0.00597982
0.0390551
0.0117354
0.0433468
0.0164014
0.0461069
0.0182952
0.050926
0.0180855
0.0607668
0.020704
0.0731911
0.0292639
0.0820628
0.0401499
0.0828552
0.0449308
0.0775695
0.0323844
0.0700189
0.00485593
0.060411
-0.0193927
0.0512177
-0.0353407
0.0438437
-0.043507
0.0379083
-0.0441784
0.032899
-0.0453196
0.0289439
-0.0445674
0.0266145
-0.0412817
-0.0307305
0.0299926
-0.00533416
0.0321688
-0.002408
0.0365888
0.00155988
0.0417239
0.00660036
0.045163
0.0129623
0.0456579
0.0178003
0.0457943
0.0179491
0.0504636
0.0160347
0.0597108
0.0200168
0.068632
0.0312287
0.0734064
0.0401564
0.0731815
0.0326093
0.0677165
0.0103209
0.0594336
-0.0111098
0.0506807
-0.0265878
0.0434264
-0.0362527
0.0377288
-0.0384808
0.0327031
-0.0402939
0.0285507
-0.0404151
0.0261728
-0.0389038
-0.0316999
0.0283137
-0.00518952
0.029155
-0.00324922
0.0316316
-0.000916762
0.0360251
0.00220684
0.0415004
0.00748705
0.045447
0.0138536
0.0474071
0.015989
0.0490245
0.0144173
0.0519894
0.0170519
0.0570185
0.0261996
0.0629248
0.0342501
0.0659975
0.0295365
0.0649055
0.0114129
0.0594847
-0.00568901
0.051181
-0.0182841
0.0432336
-0.0283053
0.0375091
-0.0327562
0.0327498
-0.0355346
0.0287816
-0.0364469
0.0257039
-0.0358261
-0.0335282
0.0420645
-0.00369874
-0.0435552
0.0407346
-0.00191936
0.0395294
0.000288414
0.0389388
0.00279741
0.039484
0.00694193
0.0417899
0.0115477
0.0443415
0.0134374
0.0448817
0.0138771
0.0436216
0.0183119
0.045412
0.0244092
0.0532418
0.0264203
0.0622682
0.0205101
0.0676682
0.00601295
0.0678323
-0.0058531
0.0650691
-0.0155209
0.0601437
-0.0233799
0.0558997
-0.0285122
0.0508477
-0.0304826
0.0469639
-0.0325631
0.041828
-0.0306902
0.0391025
-0.0308027
-0.00907605
0.0459003
-0.00295998
-0.0466391
0.045461
-0.00148011
0.0447471
0.00100236
0.0443326
0.00321191
0.0449829
0.00629159
0.0470848
0.00944583
0.0490765
0.0114457
0.0502919
0.0126617
0.0518419
0.0167619
0.0559318
0.0203193
0.0632399
0.0191123
0.0689808
0.0147692
0.0708796
0.00411414
0.0692346
-0.00420808
0.066047
-0.0123333
0.0613827
-0.0187157
0.0569017
-0.0240312
0.0525075
-0.0260884
0.0486575
-0.0287131
0.0440298
-0.0260624
0.0422025
-0.0289754
-0.00592415
0.0508748
-0.00163308
-0.0522017
0.0502843
-0.000889654
0.0499315
0.00135513
0.0499775
0.00316593
0.0506634
0.00560573
0.052333
0.00777624
0.0539872
0.00979148
0.0555309
0.011118
0.0585661
0.0137267
0.0627615
0.0161239
0.0678408
0.014033
0.0714274
0.0111825
0.0725722
0.00296937
0.0711906
-0.00282647
0.0689675
-0.0101102
0.0660582
-0.0158064
0.0626176
-0.0205906
0.058808
-0.0222787
0.0551549
-0.02506
0.0497082
-0.0206157
0.0475685
-0.0268358
-0.00453364
0.0561726
-0.000402515
-0.0574032
0.0553772
-9.41859e-05
0.0550853
0.00164697
0.0553562
0.00289503
0.056039
0.00492293
0.0572694
0.00654587
0.0589326
0.00812826
0.0604518
0.00959887
0.0634149
0.0107636
0.0669796
0.0125591
0.0708082
0.0102044
0.0734684
0.00852233
0.0743393
0.00209844
0.0734368
-0.00192399
0.0713078
-0.00798113
0.0679832
-0.0124818
0.0637951
-0.0164026
0.0586048
-0.0170884
0.0554175
-0.0218727
0.0509844
-0.0161826
0.0490176
-0.024869
-0.00592708
0.0612617
0.000419424
-0.0620836
0.0606837
0.000483819
0.0604839
0.00184677
0.0606097
0.00276916
0.0613185
0.00421412
0.0621906
0.00567383
0.063816
0.00650287
0.0653544
0.0080605
0.0679313
0.00818665
0.0708032
0.00968717
0.0736758
0.00733189
0.0756035
0.00659464
0.0761939
0.00150799
0.0759816
-0.00171163
0.0747387
-0.00673824
0.0719995
-0.00974266
0.0701863
-0.0145893
0.0673444
-0.0142466
0.065046
-0.0195743
0.061184
-0.0123205
0.0554458
-0.0191308
-0.00684704
0.0665814
0.000884125
-0.0670461
0.0661115
0.000953718
0.0660318
0.00192641
0.0661049
0.00269613
0.0667778
0.00354118
0.0675989
0.00485269
0.0690022
0.00509961
0.0704415
0.00662116
0.0725155
0.00611271
0.0747813
0.00742137
0.0768347
0.00527846
0.0786898
0.0047396
0.079404
0.000793716
0.079039
-0.0013466
0.0779599
-0.00565918
0.0755383
-0.007321
0.0727284
-0.0117794
0.0687228
-0.010241
0.0659747
-0.0168263
0.0639352
-0.010281
0.0597165
-0.0149121
-0.00806668
0.0722417
0.001235
-0.0725926
0.0718936
0.0013018
0.0718701
0.00194992
0.0720216
0.00254468
0.0725781
0.00298465
0.0733418
0.004089
0.0744136
0.00402783
0.0757475
0.0052872
0.0772992
0.00456104
0.0792021
0.0055185
0.0808422
0.00363832
0.0821264
0.00345541
0.0827413
0.000178821
0.0823459
-0.000951178
0.0815399
-0.00485321
0.0797237
-0.00550479
0.0779525
-0.0100083
0.0755222
-0.00781064
0.0723803
-0.0136844
0.0703353
-0.00823598
0.0664547
-0.0110315
-0.00853772
0.0782439
0.00150873
-0.0785176
0.0780466
0.00149913
0.0780674
0.00192913
0.0782906
0.00232149
0.0786812
0.00259401
0.0793613
0.0034089
0.080179
0.00321009
0.0813605
0.00410573
0.0825595
0.00336203
0.0840145
0.00406355
0.0851645
0.00248827
0.086159
0.00246091
0.0865756
-0.000237792
0.0863379
-0.000713448
0.0856625
-0.00417778
0.0840396
-0.00388187
0.0820561
-0.00802479
0.0799783
-0.00573286
0.0771405
-0.0108466
0.0758372
-0.00693265
0.0732079
-0.00840224
-0.00798106
0.0844882
0.00151624
-0.0844957
0.0845311
0.00145623
0.0845947
0.00186561
0.084839
0.00207711
0.0851186
0.00231449
0.0857651
0.0027624
0.0863551
0.00262009
0.0873084
0.00315244
0.088109
0.00256142
0.0891838
0.00298875
0.0899822
0.0016898
0.0906714
0.00177176
0.0908675
-0.000433883
0.0906016
-0.000447523
0.0898
-0.00337621
0.0886791
-0.002761
0.0871021
-0.0064478
0.0855905
-0.00422122
0.0832488
-0.00850492
0.0817581
-0.00544193
0.0798017
-0.00644581
-0.0069279
0.0910125
0.00141448
-0.0909108
0.0911135
0.0013552
0.0912085
0.00177068
0.0915211
0.00176449
0.0917938
0.00204176
0.0923579
0.00219837
0.0927526
0.00222537
0.0934877
0.00241732
0.093989
0.00206014
0.0947801
0.00219766
0.0951837
0.00128615
0.0956584
0.0012971
0.0955824
-0.00035796
0.0953817
-0.000246741
0.0947007
-0.00269529
0.0938103
-0.00187054
0.0924626
-0.00510013
0.091237
-0.00299563
0.0893175
-0.00658539
0.0879941
-0.00411858
0.0867969
-0.00524855
-0.00536816
0.097375
0.00134436
-0.0973049
0.0975593
0.00117094
0.0977926
0.00153738
0.0981631
0.00139393
0.0984231
0.00178181
0.0989126
0.00170882
0.0992098
0.0019282
0.0998175
0.00180967
0.100107
0.00177038
0.100693
0.00161177
0.100835
0.00114383
0.101158
0.000974749
0.100949
-0.000149401
0.100785
-8.24157e-05
0.100106
-0.00201595
0.0994088
-0.00117377
0.0982869
-0.0039783
0.097288
-0.00199666
0.0959303
-0.00522772
0.0947011
-0.00288933
0.0938478
-0.00439533
-0.00389201
0.1039
0.00109796
-0.103653
0.104201
0.00087002
0.104439
0.00129884
0.104754
0.00107899
0.104993
0.00154261
0.105437
0.00126536
0.105712
0.00165323
0.106201
0.00132063
0.10642
0.00155144
0.106842
0.00118916
0.106909
0.00107757
0.107114
0.000769161
0.106894
7.07841e-05
0.106736
7.61296e-05
0.106126
-0.00140591
0.105627
-0.000675245
0.104652
-0.00300291
0.10396
-0.00130503
0.102808
-0.00407572
0.10186
-0.00194096
0.101247
-0.0037827
-0.00251417
0.110982
0.000924497
-0.110808
0.111125
0.000727173
0.111279
0.00114402
0.111536
0.000822699
0.111779
0.00129888
0.112142
0.00090266
0.112374
0.00142116
0.112762
0.000932672
0.112933
0.00138096
0.113281
0.000841249
0.113318
0.00104003
0.11351
0.000577027
0.1133
0.000281124
0.113224
0.000152402
0.112715
-0.000897183
0.112363
-0.000322896
0.111602
-0.00224252
0.111022
-0.000725317
0.110209
-0.00326268
0.109386
-0.00111743
0.108924
-0.00332122
-0.00146411
0.118376
0.000874049
-0.118325
0.118473
0.000629286
0.118634
0.00098391
0.118827
0.000628875
0.119008
0.00111865
0.119244
0.000665968
0.119436
0.0012297
0.119707
0.000661066
0.119884
0.00120419
0.12013
0.000595497
0.120209
0.000961338
0.120338
0.000447479
0.120233
0.000386021
0.120186
0.000199426
0.119836
-0.000546517
0.119601
-8.88016e-05
0.119013
-0.0016538
0.11862
-0.000332999
0.117942
-0.00258393
0.117367
-0.000542638
0.116937
-0.00289103
-0.000720734
0.126382
0.000758946
-0.126267
0.126473
0.000538376
0.126593
0.000864017
0.126674
0.000548129
0.126812
0.000980497
0.126937
0.000540749
0.127122
0.00104498
0.127273
0.000510213
0.127451
0.00102602
0.127588
0.000458767
0.127709
0.000839863
0.12779
0.000366973
0.127778
0.000397466
0.127757
0.000220534
0.127535
-0.000324775
0.127391
5.60036e-05
0.126945
-0.00120825
0.126696
-8.42334e-05
0.126118
-0.00200537
0.125786
-0.000210669
0.125256
-0.00236131
-0.000362101
0.135006
0.000689713
-0.134936
0.135023
0.000521002
0.1351
0.000787384
0.135142
0.000505806
0.135271
0.000851403
0.135338
0.00047349
0.13549
0.000892875
0.135563
0.00043752
0.135722
0.000866948
0.135791
0.000390087
0.135917
0.000714039
0.135961
0.000322865
0.135981
0.00037739
0.135971
0.000230754
0.135816
-0.000170093
0.135747
0.000124888
0.135393
-0.000853988
0.13527
3.80027e-05
0.13476
-0.00149472
0.134601
-5.19593e-05
0.134086
-0.00184623
-0.000192283
0.144126
0.000641548
-0.144077
0.144146
0.000500902
0.144245
0.000687695
0.144278
0.000473264
0.144398
0.000731004
0.144422
0.000449327
0.144557
0.000758033
0.14458
0.000415036
0.144722
0.000724475
0.144743
0.000369593
0.144853
0.000604088
0.144859
0.000316878
0.144887
0.000348586
0.144872
0.000246391
0.144761
-5.89344e-05
0.144723
0.000162888
0.144439
-0.000570364
0.14439
8.74264e-05
0.143953
-0.00105771
0.143909
-8.78347e-06
0.143412
-0.00134835
-0.000160679
0.153914
0.000561754
-0.153835
0.15395
0.000464771
0.154036
0.000601839
0.154053
0.000456221
0.154147
0.000637154
0.15416
0.000436083
0.154271
0.000647678
0.154285
0.000401272
0.154393
0.000616474
0.1544
0.000362123
0.154481
0.000522919
0.154483
0.000314747
0.154494
0.00033845
0.154486
0.000253648
0.154383
4.41296e-05
0.15437
0.000176455
0.154136
-0.000336396
0.154124
9.87202e-05
0.153776
-0.000708982
0.153763
4.2441e-06
0.153373
-0.000958452
-0.000136646
0.164358
0.00049814
-0.164294
0.16438
0.000441866
0.16445
0.000532521
0.164471
0.000435087
0.164555
0.000553292
0.164574
0.000416681
0.164664
0.000557676
0.164675
0.000390897
0.164756
0.000534828
0.164762
0.000356817
0.164814
0.000470121
0.164809
0.000320137
0.164811
0.000336718
0.164801
0.000262906
0.164727
0.00011867
0.164714
0.000188977
0.164541
-0.000162576
0.16453
0.000109675
0.164269
-0.000448731
0.164261
1.29764e-05
0.163962
-0.00066027
-0.000115654
0.175457
0.000441724
-0.1754
0.175494
0.000405081
0.175562
0.00046375
0.175598
0.000399163
0.175673
0.000478874
0.1757
0.000389585
0.17577
0.000487324
0.175787
0.000374163
0.175845
0.000476622
0.17585
0.000351679
0.17589
0.000430574
0.17589
0.000319525
0.175892
0.00033479
0.175881
0.000274288
0.175823
0.000176861
0.175801
0.000210996
0.175674
-3.6235e-05
0.175648
0.000136192
0.175464
-0.000264956
0.175438
3.9033e-05
0.175229
-0.000451605
-8.76956e-05
0.187315
0.000383153
-0.187257
0.187361
0.00035922
0.187427
0.000397803
0.187468
0.000358167
0.187533
0.000413853
0.187565
0.000357437
0.187627
0.000425062
0.187652
0.000350064
0.187711
0.000417179
0.187729
0.000334177
0.18777
0.000388833
0.187771
0.000318653
0.187776
0.000329847
0.18776
0.000290847
0.187719
0.000217392
0.187689
0.000240521
0.187594
5.96028e-05
0.187559
0.000171111
0.187416
-0.000122351
0.187388
6.67853e-05
0.187228
-0.000290845
-7.00477e-05
0.200023
0.000330272
-0.19997
0.200065
0.000317163
0.200117
0.000346068
0.200154
0.000321381
0.200208
0.000359417
0.200244
0.00032185
0.200304
0.000365153
0.200337
0.000316722
0.200391
0.000362973
0.200411
0.000314441
0.200447
0.000352453
0.200454
0.000312096
0.200469
0.000315133
0.200464
0.000295881
0.200442
0.000238969
0.200423
0.00025999
0.200357
0.000125049
0.200329
0.000199185
0.200225
-1.79106e-05
0.200196
9.56969e-05
0.200071
-0.000166592
-4.52129e-05
0.213608
0.000290846
-0.213568
0.213642
0.000283268
0.213686
0.000301315
0.213723
0.000284534
0.213775
0.000307465
0.213811
0.000285565
0.213862
0.000314605
0.21389
0.000288885
0.213935
0.000318111
0.213958
0.000291275
0.213999
0.000311633
0.214019
0.000292194
0.214043
0.000290895
0.214053
0.000285563
0.21405
0.000242278
0.214051
0.0002585
0.214014
0.000162107
0.214007
0.000206346
0.213933
5.56334e-05
0.213916
0.000112729
0.213817
-6.70479e-05
-1.37612e-05
0.228132
0.000247692
-0.228088
0.228172
0.000242513
0.228219
0.000254696
0.228256
0.000247085
0.228299
0.000264517
0.22833
0.000254731
0.228372
0.000273082
0.228402
0.000258842
0.228446
0.000274098
0.228476
0.000260977
0.228516
0.00027214
0.228542
0.000266172
0.22857
0.000261996
0.228594
0.000262282
0.228607
0.000229187
0.228625
0.000240404
0.228614
0.000173522
0.228622
0.00019751
0.228582
9.64777e-05
0.228573
0.000121115
0.228501
4.90135e-06
2.06337e-05
0.24369
0.000204681
-0.243647
0.243728
0.000205147
0.243767
0.000214942
0.243801
0.000212863
0.243842
0.000223956
0.243877
0.000219589
0.24392
0.000230173
0.243955
0.000223867
0.243996
0.000233313
0.244028
0.00022869
0.244065
0.000234938
0.244098
0.000233496
0.244131
0.00022895
0.244164
0.000229758
0.244186
0.0002068
0.244215
0.000211683
0.24422
0.00016833
0.244239
0.000178257
0.244221
0.000114342
0.244222
0.000120683
0.244179
4.79194e-05
4.79175e-05
0.260326
0.000166338
-0.260288
0.260364
0.000167491
0.260405
0.000173171
0.260445
0.000172914
0.26049
0.000179842
0.260529
0.000179724
0.260572
0.000187119
0.26061
0.000186263
0.260652
0.000191803
0.260689
0.000190896
0.260731
0.000193737
0.260769
0.000194746
0.260807
0.00019125
0.260844
0.000192371
0.260874
0.000177318
0.260907
0.000178823
0.260923
0.000151965
0.260947
0.000154207
0.260946
0.000115134
0.260954
0.000112687
0.260933
6.88975e-05
6.28925e-05
0.278143
0.000123263
-0.2781
0.278185
0.00012484
0.278229
0.000129154
0.278272
0.000130771
0.278315
0.000136225
0.278357
0.000137992
0.278401
0.000143074
0.278444
0.00014368
0.278488
0.000147076
0.278532
0.00014771
0.278575
0.000149872
0.278618
0.000151831
0.278659
0.000150091
0.278701
0.000151077
0.278736
0.00014161
0.278774
0.000141473
0.278801
0.000124931
0.278831
0.000124473
0.278845
0.000100993
0.278861
9.67708e-05
0.278859
7.02585e-05
6.38424e-05
0.297234
8.03355e-05
-0.297191
0.297276
8.24265e-05
0.297319
8.5751e-05
0.297362
8.77979e-05
0.297407
9.14765e-05
0.297452
9.3384e-05
0.297498
9.66773e-05
0.297544
9.78651e-05
0.297591
0.000100269
0.297637
0.000101439
0.297684
0.000103151
0.297731
0.000104676
0.297777
0.000103998
0.297824
0.000104487
0.297866
9.9494e-05
0.297908
9.90171e-05
0.297943
9.00622e-05
0.297979
8.88651e-05
0.298004
7.55563e-05
0.298029
7.16786e-05
0.298043
5.64022e-05
5.18967e-05
0.317725
4.15168e-05
-0.317687
0.317765
4.25023e-05
0.317807
4.38999e-05
0.31785
4.49129e-05
0.317895
4.66724e-05
0.31794
4.78984e-05
0.317987
4.96749e-05
0.318035
5.06359e-05
0.318083
5.1872e-05
0.318132
5.26235e-05
0.318182
5.3463e-05
0.318232
5.44109e-05
0.318281
5.43008e-05
0.318331
5.46986e-05
0.318378
5.24967e-05
0.318425
5.21147e-05
0.318467
4.80628e-05
0.318509
4.72584e-05
0.318543
4.13611e-05
0.318575
3.9232e-05
0.318599
3.23918e-05
2.98697e-05
0.339661
-0.33962
0.339704
0.339748
0.339793
0.339839
0.339887
0.339937
0.339987
0.340039
0.340092
0.340145
0.3402
0.340254
0.340309
0.340361
0.340413
0.340462
0.340509
0.34055
0.340589
0.340622
0.0500284
0.022957
0.0491466
0.0274141
0.0475819
0.0295259
0.0451716
0.032479
0.0336075
0.0523252
0.0235059
0.0515311
0.0282082
0.0502143
0.0308427
0.0478163
0.0348771
0.0347847
0.0553936
0.0239429
0.0548786
0.0287233
0.054756
0.0309653
0.0537355
0.0358975
0.0363186
0.0593407
0.0590193
0.0290447
0.0590238
0.0309608
0.0584441
0.0364772
0.0373595
0.0629432
0.0294152
0.062703
0.0312011
0.0625713
0.0366089
0.0378472
0.0673011
0.0294658
0.067122
0.0313802
0.0672947
0.0364361
0.0380958
0.0723186
0.0289975
0.0723664
0.0313324
0.0727465
0.0360561
0.0382497
0.0775696
0.0282473
0.0778558
0.0310462
0.078429
0.0354828
0.038161
0.0827628
0.0274671
0.0831995
0.0306096
0.0840015
0.0346808
0.0376668
0.0882227
0.0266189
0.0889199
0.0299124
0.0899989
0.0336018
0.0367549
0.0944815
0.0256803
0.0952822
0.0291117
0.096309
0.0325749
0.0357591
0.100766
0.0250193
0.101504
0.028373
0.102475
0.0316039
0.034581
0.107557
0.0242587
0.108553
0.0273771
0.109645
0.0305111
0.0334181
0.115305
0.0233406
0.116266
0.0264167
0.117188
0.0295894
0.0322806
0.123035
0.0225779
0.123931
0.0255209
0.125005
0.0285145
0.0310187
0.131336
0.0216454
0.132451
0.0244059
0.133679
0.027287
0.0297613
0.140396
0.0205989
0.141517
0.0232856
0.142751
0.0260525
0.028435
0.14987
0.0195443
0.151031
0.0221245
0.152382
0.0247016
0.0269821
0.160026
0.0183935
0.161304
0.020846
0.162756
0.0232501
0.0254438
0.170871
0.0171746
0.172226
0.0194905
0.173753
0.0217233
0.0237964
0.182438
0.0158898
0.183879
0.0180499
0.185496
0.0201064
0.0220355
0.19485
0.0145325
0.196384
0.0165159
0.198097
0.0183925
0.0201627
0.208129
0.0130894
0.209763
0.0148828
0.21158
0.016575
0.0181745
0.222299
0.0115596
0.224034
0.0131471
0.225968
0.0146417
0.0160536
0.237461
0.00992412
0.239319
0.01129
0.241385
0.0125757
0.013791
0.253706
0.00818353
0.255682
0.00931462
0.257879
0.0103784
0.0113822
0.271075
0.00633171
0.273181
0.00720872
0.275526
0.00803264
0.0088089
0.289695
0.00435525
0.291944
0.00496029
0.294447
0.00552922
0.00606525
0.309675
0.002248
0.312075
0.00256044
0.31475
0.00285398
0.00312913
0.331076
0.333637
0.336491
)
;

boundaryField
{
    outlet
    {
        type            calculated;
        value           nonuniform 0();
    }
    upperWall
    {
        type            symmetryPlane;
        value           uniform 0;
    }
    lowerWall
    {
        type            symmetryPlane;
        value           nonuniform 0();
    }
    inlet
    {
        type            calculated;
        value           nonuniform 0();
    }
    cylinder
    {
        type            calculated;
        value           nonuniform 0();
    }
    frontAndBack
    {
        type            empty;
        value           nonuniform 0();
    }
    procBoundary6to2
    {
        type            processor;
        value           nonuniform List<scalar> 
37
(
0.00705493
0.0117558
0.0164906
0.0209298
0.0251938
0.0290593
0.0317053
0.0328735
0.0319861
0.0286617
0.0233772
0.0154174
0.0096235
0.000558171
-0.0104991
-0.0227831
-0.0330477
-0.0532434
-0.0554925
-0.0556739
-0.0555523
-0.0560895
-0.0588163
-0.0649548
-0.0706901
-0.0646111
-0.0453611
-0.0120702
0.0229256
0.0532905
0.0700473
0.0749105
0.0763453
0.0753256
0.0836329
0.0822084
0.0798303
)
;
    }
    procBoundary6to5
    {
        type            processor;
        value           nonuniform List<scalar> 
63
(
-0.0172612
-0.0305374
-0.029816
-0.0298168
-0.0190948
-0.0306844
-0.0305494
-0.0188097
-0.0310702
-0.031204
-0.0314129
-0.0210847
-0.0333251
-0.0337477
-0.0341348
-0.0226655
0.00802999
-0.0045409
0.00765603
0.00362521
-0.000698709
-0.00427651
-0.00784914
-0.00742244
-0.0120945
-0.00781865
-0.0163098
-0.00997411
-0.0244426
-0.0171301
-0.0306249
-0.0191826
-0.05032
-0.0528742
-0.0558305
-0.0593738
0.023976
-0.0633138
-0.0673516
-0.0718503
-0.0768194
-0.0819826
-0.0873745
-0.0935429
-0.100105
-0.106796
-0.114387
-0.122272
-0.130404
-0.13935
-0.148815
-0.158875
-0.169652
-0.181154
-0.193492
-0.206686
-0.220769
-0.235826
-0.251966
-0.269223
-0.287719
-0.307568
-0.328828
)
;
    }
    procBoundary6to7
    {
        type            processor;
        value           nonuniform List<scalar> 
42
(
0.0262615
0.022016
0.0200408
0.0195977
0.0207503
0.0225482
0.0338596
0.0228049
0.0254986
0.0271422
0.0275322
0.0126238
0.0355547
0.0390506
0.046178
0.050411
0.0563657
0.0609361
0.0669258
0.0726512
0.0787485
0.0852371
0.0923717
0.0998692
0.107874
0.116193
0.124897
0.133916
0.14338
0.153349
0.163941
0.175201
0.18721
0.200047
0.213785
0.228467
0.244151
0.260918
0.278858
0.298055
0.318621
0.340652
)
;
    }
}


// ************************************************************************* //
