/*--------------------------------*- C++ -*----------------------------------*\
| =========                 |                                                 |
| \\      /  F ield         | OpenFOAM: The Open Source CFD Toolbox           |
|  \\    /   O peration     | Version:                                        |
|   \\  /    A nd           | Website:  www.openfoam.com                      |
|    \\/     M anipulation  |                                                 |
\*---------------------------------------------------------------------------*/
FoamFile
{
    version     2.0;
    format      ascii;
    class       volVectorField;
    location    "1.2";
    object      U;
}
// * * * * * * * * * * * * * * * * * * * * * * * * * * * * * * * * * * * * * //

dimensions      [0 1 -1 0 0 0 0];


internalField   nonuniform List<vector> 
400
(
(1.38496 -0.00111146 0)
(1.38927 -0.00106823 0)
(1.39341 -0.00102669 0)
(1.3974 -0.000986789 0)
(1.40122 -0.000948464 0)
(1.4049 -0.000911657 0)
(1.40844 -0.000876303 0)
(1.41183 -0.000842342 0)
(1.4151 -0.00080973 0)
(1.41824 -0.000778424 0)
(1.42126 -0.000748358 0)
(1.42416 -0.000719468 0)
(1.42695 -0.000691724 0)
(1.42963 -0.000665103 0)
(1.43221 -0.000639542 0)
(1.43469 -0.000614969 0)
(1.43707 -0.000591357 0)
(1.43936 -0.000568705 0)
(1.44157 -0.000546963 0)
(1.44369 -0.000526064 0)
(1.38252 -0.00328897 0)
(1.38665 -0.00316043 0)
(1.39062 -0.00303702 0)
(1.39444 -0.00291853 0)
(1.3981 -0.00280478 0)
(1.40162 -0.00269558 0)
(1.405 -0.00259074 0)
(1.40825 -0.0024901 0)
(1.41137 -0.00239348 0)
(1.41438 -0.00230072 0)
(1.41726 -0.00221168 0)
(1.42003 -0.00212619 0)
(1.4227 -0.00204412 0)
(1.42526 -0.00196531 0)
(1.42772 -0.00188964 0)
(1.43009 -0.00181699 0)
(1.43236 -0.00174723 0)
(1.43455 -0.00168023 0)
(1.43666 -0.00161588 0)
(1.43868 -0.0015541 0)
(1.37734 -0.00533203 0)
(1.38112 -0.00512174 0)
(1.38476 -0.00492009 0)
(1.38824 -0.0047267 0)
(1.39159 -0.00454122 0)
(1.3948 -0.00436332 0)
(1.39789 -0.00419269 0)
(1.40085 -0.00402901 0)
(1.40369 -0.00387198 0)
(1.40642 -0.00372132 0)
(1.40905 -0.00357677 0)
(1.41157 -0.00343808 0)
(1.41399 -0.00330498 0)
(1.41632 -0.00317723 0)
(1.41855 -0.00305463 0)
(1.4207 -0.00293697 0)
(1.42277 -0.00282401 0)
(1.42476 -0.00271555 0)
(1.42667 -0.00261143 0)
(1.4285 -0.00251146 0)
(1.36885 -0.00715704 0)
(1.37213 -0.00687113 0)
(1.37528 -0.00659744 0)
(1.37829 -0.00633538 0)
(1.38118 -0.0060844 0)
(1.38395 -0.00584399 0)
(1.3866 -0.00561367 0)
(1.38915 -0.00539298 0)
(1.3916 -0.00518147 0)
(1.39394 -0.00497873 0)
(1.3962 -0.00478436 0)
(1.39836 -0.004598 0)
(1.40043 -0.00441929 0)
(1.40243 -0.00424787 0)
(1.40434 -0.00408345 0)
(1.40618 -0.0039257 0)
(1.40795 -0.00377435 0)
(1.40965 -0.00362909 0)
(1.41129 -0.00348969 0)
(1.41286 -0.00335589 0)
(1.35623 -0.00868964 0)
(1.35888 -0.00833708 0)
(1.36141 -0.00800027 0)
(1.36383 -0.00767839 0)
(1.36615 -0.00737067 0)
(1.36836 -0.00707638 0)
(1.37048 -0.00679484 0)
(1.37252 -0.00652544 0)
(1.37446 -0.00626756 0)
(1.37633 -0.00602064 0)
(1.37812 -0.00578416 0)
(1.37984 -0.00555763 0)
(1.38148 -0.00534057 0)
(1.38307 -0.00513254 0)
(1.38458 -0.00493312 0)
(1.38604 -0.00474192 0)
(1.38744 -0.00455856 0)
(1.38879 -0.00438269 0)
(1.39008 -0.00421398 0)
(1.39132 -0.0040521 0)
(1.33849 -0.00986894 0)
(1.3404 -0.00946156 0)
(1.34222 -0.00907329 0)
(1.34396 -0.00870302 0)
(1.34561 -0.00834973 0)
(1.34719 -0.00801246 0)
(1.3487 -0.00769034 0)
(1.35014 -0.00738255 0)
(1.35152 -0.00708833 0)
(1.35284 -0.00680697 0)
(1.35411 -0.00653781 0)
(1.35532 -0.00628022 0)
(1.35648 -0.00603364 0)
(1.35759 -0.00579752 0)
(1.35865 -0.00557133 0)
(1.35968 -0.00535462 0)
(1.36066 -0.00514692 0)
(1.3616 -0.00494782 0)
(1.36251 -0.00475692 0)
(1.36338 -0.00457382 0)
(1.31449 -0.0106515 0)
(1.3156 -0.0102039 0)
(1.31665 -0.00977831 0)
(1.31765 -0.00937337 0)
(1.31859 -0.00898779 0)
(1.31949 -0.00862038 0)
(1.32034 -0.00827007 0)
(1.32115 -0.00793587 0)
(1.32193 -0.00761685 0)
(1.32266 -0.00731217 0)
(1.32337 -0.00702105 0)
(1.32404 -0.00674274 0)
(1.32468 -0.00647657 0)
(1.32529 -0.00622192 0)
(1.32588 -0.00597818 0)
(1.32645 -0.0057448 0)
(1.32699 -0.00552129 0)
(1.3275 -0.00530714 0)
(1.328 -0.00510192 0)
(1.32848 -0.00490518 0)
(1.28305 -0.0110149 0)
(1.28335 -0.0105439 0)
(1.28361 -0.0100971 0)
(1.28386 -0.00967295 0)
(1.28408 -0.00926989 0)
(1.28428 -0.00888653 0)
(1.28447 -0.00852163 0)
(1.28465 -0.00817404 0)
(1.28481 -0.00784271 0)
(1.28496 -0.00752667 0)
(1.2851 -0.00722504 0)
(1.28523 -0.00693699 0)
(1.28535 -0.00666177 0)
(1.28547 -0.00639868 0)
(1.28558 -0.00614706 0)
(1.28568 -0.00590631 0)
(1.28578 -0.00567587 0)
(1.28588 -0.00545521 0)
(1.28596 -0.00524386 0)
(1.28605 -0.00504134 0)
(1.24304 -0.01096 0)
(1.24254 -0.0104838 0)
(1.24205 -0.0100331 0)
(1.24157 -0.00960604 0)
(1.2411 -0.00920102 0)
(1.24064 -0.00881647 0)
(1.2402 -0.00845101 0)
(1.23977 -0.00810339 0)
(1.23935 -0.00777246 0)
(1.23894 -0.00745718 0)
(1.23855 -0.0071566 0)
(1.23816 -0.00686984 0)
(1.2378 -0.00659608 0)
(1.23744 -0.0063346 0)
(1.2371 -0.0060847 0)
(1.23677 -0.00584574 0)
(1.23645 -0.00561716 0)
(1.23614 -0.00539839 0)
(1.23585 -0.00518893 0)
(1.23556 -0.00498831 0)
(1.19342 -0.0105119 0)
(1.1922 -0.0100487 0)
(1.19102 -0.00961126 0)
(1.18989 -0.00919755 0)
(1.18879 -0.00880582 0)
(1.18774 -0.00843446 0)
(1.18673 -0.00808203 0)
(1.18575 -0.00774724 0)
(1.18481 -0.00742888 0)
(1.1839 -0.00712591 0)
(1.18303 -0.00683733 0)
(1.18219 -0.00656225 0)
(1.18139 -0.00629985 0)
(1.18061 -0.00604939 0)
(1.17987 -0.00581017 0)
(1.17915 -0.00558156 0)
(1.17846 -0.00536297 0)
(1.1778 -0.00515387 0)
(1.17716 -0.00495374 0)
(1.17655 -0.00476212 0)
(1.13333 -0.0097181 0)
(1.1315 -0.00928504 0)
(1.12975 -0.00887674 0)
(1.12806 -0.00849121 0)
(1.12644 -0.00812668 0)
(1.12489 -0.00778154 0)
(1.1234 -0.00745439 0)
(1.12197 -0.00714393 0)
(1.1206 -0.00684901 0)
(1.11928 -0.00656857 0)
(1.11801 -0.00630167 0)
(1.11679 -0.00604744 0)
(1.11562 -0.00580508 0)
(1.1145 -0.00557387 0)
(1.11342 -0.00535315 0)
(1.11238 -0.00514232 0)
(1.11138 -0.00494081 0)
(1.11043 -0.0047481 0)
(1.10951 -0.00456372 0)
(1.10862 -0.00438724 0)
(1.06213 -0.00864526 0)
(1.05984 -0.00825683 0)
(1.05765 -0.0078911 0)
(1.05554 -0.00754619 0)
(1.05353 -0.00722042 0)
(1.0516 -0.0069123 0)
(1.04975 -0.0066205 0)
(1.04798 -0.00634382 0)
(1.04627 -0.00608118 0)
(1.04464 -0.0058316 0)
(1.04308 -0.00559421 0)
(1.04157 -0.00536821 0)
(1.04013 -0.00515286 0)
(1.03874 -0.00494751 0)
(1.03741 -0.00475155 0)
(1.03614 -0.00456442 0)
(1.03491 -0.00438561 0)
(1.03373 -0.00421466 0)
(1.0326 -0.00405113 0)
(1.03151 -0.00389462 0)
(0.979438 -0.00737392 0)
(0.976846 -0.00704094 0)
(0.974368 -0.00672772 0)
(0.971998 -0.00643258 0)
(0.96973 -0.00615405 0)
(0.967559 -0.00589079 0)
(0.965479 -0.00564163 0)
(0.963486 -0.00540552 0)
(0.961576 -0.0051815 0)
(0.959745 -0.00496871 0)
(0.957988 -0.0047664 0)
(0.956303 -0.00457386 0)
(0.954687 -0.00439045 0)
(0.953135 -0.00421559 0)
(0.951645 -0.00404877 0)
(0.950214 -0.00388949 0)
(0.94884 -0.00373733 0)
(0.947521 -0.00359186 0)
(0.946253 -0.00345272 0)
(0.945034 -0.00331957 0)
(0.885084 -0.00599243 0)
(0.882367 -0.00572132 0)
(0.87977 -0.00546645 0)
(0.877289 -0.00522642 0)
(0.874915 -0.00499999 0)
(0.872644 -0.00478607 0)
(0.87047 -0.00458368 0)
(0.868388 -0.00439194 0)
(0.866393 -0.00421007 0)
(0.86448 -0.00403737 0)
(0.862647 -0.00387319 0)
(0.860888 -0.00371697 0)
(0.8592 -0.00356817 0)
(0.857581 -0.00342633 0)
(0.856026 -0.00329102 0)
(0.854533 -0.00316183 0)
(0.853099 -0.00303841 0)
(0.851722 -0.00292043 0)
(0.850399 -0.00280758 0)
(0.849127 -0.00269958 0)
(0.779121 -0.00459085 0)
(0.776448 -0.00438338 0)
(0.773896 -0.00418837 0)
(0.771457 -0.00400476 0)
(0.769125 -0.00383158 0)
(0.766895 -0.00366798 0)
(0.76476 -0.00351321 0)
(0.762715 -0.0033666 0)
(0.760756 -0.00322754 0)
(0.758878 -0.00309549 0)
(0.757078 -0.00296996 0)
(0.755351 -0.00285051 0)
(0.753695 -0.00273673 0)
(0.752104 -0.00262827 0)
(0.750578 -0.00252479 0)
(0.749112 -0.00242599 0)
(0.747703 -0.0023316 0)
(0.74635 -0.00224135 0)
(0.74505 -0.00215502 0)
(0.743801 -0.00207239 0)
(0.661755 -0.00325528 0)
(0.659288 -0.00310872 0)
(0.656932 -0.00297095 0)
(0.654682 -0.00284121 0)
(0.652529 -0.00271883 0)
(0.650471 -0.00260321 0)
(0.6485 -0.00249381 0)
(0.646612 -0.00239016 0)
(0.644804 -0.00229183 0)
(0.64307 -0.00219844 0)
(0.641407 -0.00210965 0)
(0.639812 -0.00202515 0)
(0.638282 -0.00194464 0)
(0.636813 -0.00186788 0)
(0.635402 -0.00179464 0)
(0.634047 -0.00172469 0)
(0.632745 -0.00165785 0)
(0.631494 -0.00159393 0)
(0.630292 -0.00153277 0)
(0.629136 -0.00147423 0)
(0.5333 -0.00206287 0)
(0.531183 -0.00197056 0)
(0.529161 -0.00188376 0)
(0.527228 -0.00180199 0)
(0.52538 -0.00172482 0)
(0.523612 -0.00165189 0)
(0.521919 -0.00158285 0)
(0.520296 -0.00151743 0)
(0.518742 -0.00145534 0)
(0.517251 -0.00139635 0)
(0.515821 -0.00134025 0)
(0.51445 -0.00128684 0)
(0.513133 -0.00123594 0)
(0.511868 -0.0011874 0)
(0.510654 -0.00114106 0)
(0.509487 -0.0010968 0)
(0.508366 -0.00105449 0)
(0.507288 -0.00101402 0)
(0.506252 -0.000975284 0)
(0.505256 -0.000938196 0)
(0.39411 -0.00108269 0)
(0.392468 -0.00103466 0)
(0.3909 -0.000989452 0)
(0.3894 -0.000946839 0)
(0.387965 -0.000906602 0)
(0.386592 -0.00086855 0)
(0.385276 -0.000832514 0)
(0.384016 -0.000798342 0)
(0.382807 -0.000765898 0)
(0.381648 -0.000735059 0)
(0.380536 -0.000705715 0)
(0.379468 -0.000677766 0)
(0.378443 -0.00065112 0)
(0.377458 -0.000625696 0)
(0.376512 -0.000601418 0)
(0.375603 -0.000578217 0)
(0.37473 -0.000556032 0)
(0.37389 -0.000534804 0)
(0.373082 -0.000514481 0)
(0.372305 -0.000495014 0)
(0.244526 -0.000391234 0)
(0.243468 -0.00037409 0)
(0.242456 -0.000357941 0)
(0.241488 -0.000342701 0)
(0.240562 -0.000328296 0)
(0.239675 -0.000314662 0)
(0.238825 -0.000301739 0)
(0.23801 -0.000289474 0)
(0.237228 -0.000277821 0)
(0.236478 -0.000266736 0)
(0.235758 -0.000256181 0)
(0.235067 -0.000246121 0)
(0.234403 -0.000236524 0)
(0.233765 -0.000227361 0)
(0.233151 -0.000218607 0)
(0.232562 -0.000210236 0)
(0.231995 -0.000202227 0)
(0.23145 -0.00019456 0)
(0.230926 -0.000187216 0)
(0.230422 -0.000180178 0)
(0.0848247 -6.42647e-05 0)
(0.0844435 -6.15127e-05 0)
(0.0840788 -5.89147e-05 0)
(0.0837298 -5.64581e-05 0)
(0.0833955 -5.4132e-05 0)
(0.0830751 -5.19264e-05 0)
(0.0827679 -4.98326e-05 0)
(0.0824732 -4.78423e-05 0)
(0.0821904 -4.59486e-05 0)
(0.081919 -4.41448e-05 0)
(0.0816583 -4.2425e-05 0)
(0.0814078 -4.07838e-05 0)
(0.0811672 -3.92164e-05 0)
(0.0809359 -3.77182e-05 0)
(0.0807135 -3.62853e-05 0)
(0.0804996 -3.49138e-05 0)
(0.0802939 -3.36003e-05 0)
(0.0800959 -3.23417e-05 0)
(0.0799055 -3.1135e-05 0)
(0.0797222 -2.99777e-05 0)
)
;

boundaryField
{
    fixedWalls
    {
        type            noSlip;
    }
    inlet
    {
        type            fixedValue;
        value           nonuniform 0();
    }
    outlet
    {
        type            zeroGradient;
    }
    frontAndBack
    {
        type            empty;
    }
    procBoundary6to2
    {
        type            processor;
        value           nonuniform List<vector> 
20
(
(1.38496 0.00111146 0)
(1.38927 0.00106822 0)
(1.39341 0.00102669 0)
(1.3974 0.000986796 0)
(1.40122 0.000948471 0)
(1.4049 0.000911656 0)
(1.40844 0.000876304 0)
(1.41183 0.000842357 0)
(1.4151 0.00080975 0)
(1.41824 0.000778427 0)
(1.42126 0.000748352 0)
(1.42416 0.000719487 0)
(1.42695 0.000691761 0)
(1.42963 0.000665114 0)
(1.43221 0.000639525 0)
(1.43469 0.000614977 0)
(1.43707 0.000591404 0)
(1.43936 0.000568735 0)
(1.44157 0.000546956 0)
(1.44369 0.000526056 0)
)
;
    }
    procBoundary6to5
    {
        type            processor;
        value           nonuniform List<vector> 
20
(
(1.38047 -0.00115645 0)
(1.37821 -0.00342284 0)
(1.37339 -0.00555135 0)
(1.36542 -0.00745576 0)
(1.35346 -0.00905886 0)
(1.33648 -0.0102966 0)
(1.31331 -0.0111227 0)
(1.28273 -0.011512 0)
(1.24355 -0.0114639 0)
(1.19468 -0.011003 0)
(1.13523 -0.0101781 0)
(1.06453 -0.00905851 0)
(0.98215 -0.00772857 0)
(0.887932 -0.00628137 0)
(0.781922 -0.00481203 0)
(0.664341 -0.0034115 0)
(0.535519 -0.00216121 0)
(0.39583 -0.00113384 0)
(0.245634 -0.000409466 0)
(0.0852234 -6.71857e-05 0)
)
;
    }
    procBoundary6to7
    {
        type            processor;
        value           nonuniform List<vector> 
20
(
(1.44573 -0.00050597 0)
(1.44063 -0.00149476 0)
(1.43027 -0.00241547 0)
(1.41437 -0.00322745 0)
(1.39251 -0.00389677 0)
(1.36421 -0.00439821 0)
(1.32894 -0.00471656 0)
(1.28613 -0.00484724 0)
(1.23529 -0.00479611 0)
(1.17596 -0.0045786 0)
(1.10777 -0.00421824 0)
(1.03046 -0.00374477 0)
(0.943863 -0.00319209 0)
(0.847905 -0.00259618 0)
(0.7426 -0.00199327 0)
(0.628025 -0.00141816 0)
(0.504298 -0.000902667 0)
(0.371557 -0.000476359 0)
(0.229936 -0.000173431 0)
(0.0795458 -2.88671e-05 0)
)
;
    }
}


// ************************************************************************* //
