/*--------------------------------*- C++ -*----------------------------------*\
| =========                 |                                                 |
| \\      /  F ield         | OpenFOAM: The Open Source CFD Toolbox           |
|  \\    /   O peration     | Version:                                        |
|   \\  /    A nd           | Website:  www.openfoam.com                      |
|    \\/     M anipulation  |                                                 |
\*---------------------------------------------------------------------------*/
FoamFile
{
    version     2.0;
    format      ascii;
    class       surfaceScalarField;
    location    "70.8";
    object      phi;
}
// * * * * * * * * * * * * * * * * * * * * * * * * * * * * * * * * * * * * * //

dimensions      [0 3 -1 0 0 0 0];
oriented        oriented;


internalField   nonuniform List<scalar> 
2227
(
0.0022679
0.0479154
-0.0509569
0.00529513
0.0475859
-0.0506131
0.00829638
0.0469255
-0.0499268
0.0112415
0.0459221
-0.0488672
0.0141217
0.0445674
-0.0474476
-0.0456769
0.00210882
0.0449748
0.00503965
0.044655
0.00795126
0.0440139
0.0108173
0.00196795
0.00482691
-0.0012067
0.053871
-0.00201816
0.0538445
-0.00276853
0.0537834
-0.00342727
0.0536917
-0.00396744
0.0535732
-0.00436577
0.0534313
-0.00460155
0.0532688
-0.00466216
0.0530936
-0.00453788
0.0529087
0.0527299
-0.00423478
-0.00180605
0.0537638
-0.00174942
0.0537878
-0.00172612
0.0537601
-0.00171672
0.0536823
-0.0016982
0.0535546
-0.00164336
0.0533765
-0.00151683
0.0531423
-0.00125887
0.0528356
-0.000822748
0.0524726
0.0521165
-0.000209368
-0.000704033
0.0546057
-0.00144497
0.0545288
-0.00204242
0.0543575
-0.00244893
0.0540889
-0.00261003
0.0537157
-0.00247353
0.05324
-0.00198922
0.052658
-0.00112026
0.0519667
0.000205867
0.0511465
0.05026
0.00206236
0.00140469
0.0544553
0.00160474
0.0543287
0.00186555
0.0540967
0.00219817
0.0537562
0.00260189
0.053312
0.00308257
0.0527593
0.00362374
0.0521168
0.00419673
0.0513937
0.00474037
0.0506028
0.0497661
0.00523427
-0.000841384
0.0551632
-0.00154577
0.0550331
-0.00221297
0.0547639
-0.00281739
0.0543607
-0.00332428
0.0538189
-0.00372124
0.0531563
-0.00397333
0.0523689
-0.00406316
0.0514835
-0.00394291
0.0504826
0.0494856
-0.00366234
0.000631037
0.0550261
0.000824623
0.0548395
0.00107996
0.0545085
0.00140652
0.0540341
0.00178841
0.053437
0.00222942
0.0527153
0.00270069
0.0518976
0.00320473
0.0509795
0.00370595
0.0499814
0.0488517
0.00433977
-0.000181882
0.0556362
-0.000840574
0.0554982
-0.00152607
0.055194
-0.00222862
0.0547367
-0.00292249
0.0541309
-0.00360204
0.0533948
-0.00422355
0.0525191
-0.00477228
0.0515282
-0.00516869
0.0503778
0.0491625
-0.00547946
-0.00131403
0.0555873
-0.00128453
0.0554687
-0.00125377
0.0551633
-0.00119088
0.0546738
-0.00106889
0.0540089
-0.000839495
0.0531654
-0.000493497
0.0521731
1.50619e-05
0.0510197
0.000695773
0.0496971
0.0482184
0.00163991
-0.000936308
0.0560198
-0.00131955
0.055852
-0.00164332
0.0554871
-0.00190669
0.0549371
-0.00209133
0.0541935
-0.00220429
0.0532784
-0.00219613
0.0521649
-0.00206715
0.0508907
-0.00180134
0.0494313
0.0477754
-0.00135841
-0.000288721
0.0559898
-0.000325325
0.0558886
-0.000412472
0.0555742
-0.000502162
0.0550268
-0.000578501
0.0542699
-0.000576463
0.0532763
-0.00049397
0.0520825
-0.000245429
0.0506421
0.000183114
0.0490027
0.0472619
0.000696655
-0.00146003
0.0563228
-0.00174706
0.0561756
-0.00195404
0.0557812
-0.00206405
0.0551368
-0.00202761
0.0542334
-0.00185218
0.0531009
-0.00147605
0.0517063
-0.000955578
0.0501217
-0.000210322
0.0482575
0.0463085
0.000743034
-0.000351345
0.0562327
-0.000210897
0.0560351
-1.6665e-05
0.0555869
0.000226363
0.0548938
0.000503503
0.0539563
0.000833464
0.0527709
0.001169
0.0513708
0.00157244
0.0497182
0.00200016
0.0478297
0.045724
0.00258468
-0.0004886
0.0564321
-0.00070113
0.0562477
-0.000897557
0.0557834
-0.00104705
0.0550433
-0.00110652
0.0540158
-0.00105898
0.0527234
-0.000805105
0.0511169
-0.000373319
0.0492864
0.000290711
0.0471657
0.0448817
0.00113304
-0.000253173
0.0563127
-8.56671e-05
0.0560802
0.00013746
0.0555602
0.000436766
0.054744
0.000805919
0.0536466
0.00126992
0.0522594
0.00171592
0.0506709
0.00220041
0.0488019
0.00255893
0.0468072
0.0446343
0.00280628
-0.000384545
0.0564126
-0.000467272
0.0561629
-0.000523171
0.0556161
-0.000570046
0.0547909
-0.000594288
0.0536709
-0.000629732
0.0522948
-0.000599406
0.0506406
-0.000594068
0.0487966
-0.00042825
0.0466414
0.0443312
-0.000125087
-9.22296e-05
0.0562684
6.36222e-05
0.056007
0.000237894
0.0554419
0.000460993
0.0545678
0.000718464
0.0534134
0.00107832
0.051935
0.00146985
0.0502491
0.00204411
0.0482223
0.00256084
0.0461246
0.043643
0.00324905
-0.000205162
0.0562794
-0.000210068
0.0560119
-0.00019828
0.0554301
-0.000174189
0.0545437
-0.000112449
0.0533517
-8.87182e-05
0.0519112
-9.34864e-06
0.0501697
-3.51981e-05
0.0482482
9.57761e-05
0.0459937
0.043616
0.000122718
-8.62908e-05
0.0560932
0.000106238
0.0558194
0.000313437
0.0552229
0.000553829
0.0543033
0.000811707
0.0530938
0.00115931
0.0515636
0.00150863
0.0498204
0.00208495
0.0476719
0.00267787
0.0454007
0.0426247
0.0036692
-0.000205636
0.05601
-0.000108677
0.0557225
5.14712e-06
0.0551091
0.000118543
0.0541899
0.000268881
0.0529434
0.000415961
0.0514166
0.000657144
0.0495792
0.000797446
0.0475316
0.00107647
0.0451217
0.0425501
0.00115107
-0.000101206
0.0557544
0.000146983
0.0554743
0.000410526
0.0548455
0.000697318
0.0539031
0.000997418
0.0526433
0.00136496
0.051049
0.00173075
0.0492134
0.00226628
0.046996
0.00275673
0.0446313
0.0416577
0.0036491
-0.000215054
0.0555654
-1.50559e-05
0.0552743
0.000180326
0.0546501
0.00039408
0.0536894
0.00063512
0.0524023
0.000882352
0.0508018
0.00123041
0.0488653
0.00157785
0.0466486
0.00208098
0.0441281
0.0412019
0.00253678
-0.000138586
0.0552232
0.000194439
0.0549412
0.000542622
0.054302
0.00090906
0.0533229
0.00129388
0.0520175
0.00173957
0.0503561
0.00217199
0.0484329
0.00273445
0.0460861
0.00327592
0.0435867
0.0405083
0.00396956
-0.000249595
0.0549215
6.35553e-05
0.0546281
0.00037425
0.0539913
0.000696175
0.053001
0.00103721
0.0516765
0.00138994
0.0500034
0.00180664
0.0480162
0.00224775
0.045645
0.0027728
0.0430616
0.0399338
0.00334724
-0.000182231
0.0544831
0.000249714
0.0541962
0.000695153
0.0535458
0.00115304
0.0525431
0.00162738
0.0512021
0.00214718
0.0494836
0.00267003
0.0474934
0.00327492
0.0450401
0.00385921
0.0424773
0.039255
0.00453803
-0.000274622
0.0540665
0.000151803
0.0537697
0.000575939
0.0531217
0.00101068
0.0521084
0.00145356
0.0507592
0.0019192
0.0490179
0.0024151
0.0469975
0.00290877
0.0445465
0.00344595
0.0419402
0.0387303
0.00397069
-0.000205004
0.0535235
0.000335209
0.0532295
0.000884329
0.0525726
0.00144141
0.0515513
0.00201507
0.0501856
0.00259796
0.048435
0.00320668
0.0463888
0.00386386
0.0438893
0.00449137
0.0413126
0.0379996
0.00522208
-0.00027865
0.0529942
0.000264849
0.052686
0.000808925
0.0520285
0.00136134
0.0509989
0.00191943
0.0496275
0.0024951
0.0478594
0.00307435
0.0458095
0.00364276
0.0433209
0.0042675
0.0406879
0.0374368
0.0048303
-0.000203979
0.0523471
0.000445068
0.052037
0.00110439
0.0513692
0.0017723
0.050331
0.00245396
0.0489458
0.00313714
0.0471762
0.0038631
0.0450835
0.00457571
0.0426083
0.00532667
0.0399369
0.00598755
-0.000259996
0.0517081
0.000403068
0.0513739
0.00106829
0.050704
0.00173942
0.0496598
0.00242977
0.0482555
0.00311137
0.0464946
0.0038072
0.0443877
0.00448807
-0.000184586
0.000576217
0.00135339
0.00214601
0.00295385
0.00377153
-0.00466135
0.0482552
-0.00502169
0.0515084
-0.00516286
0.054839
-0.00501029
0.0583414
-0.00463615
0.0621795
-0.00413252
0.0663914
-0.00354461
0.0709499
-0.00294471
0.0759028
-0.0024453
0.0813128
-0.00209683
0.0871417
-0.00185717
0.0933226
-0.00166498
0.0998635
-0.00147866
0.106814
-0.0012866
0.114234
-0.00110056
0.122181
-0.000935172
0.130695
-0.000795682
0.139803
-0.000678019
0.149537
-0.00057666
0.15994
-0.000487507
0.171059
-0.000407361
0.182946
-0.000334896
0.195656
-0.000269839
0.209248
-0.000212206
0.223782
-0.000162283
0.239325
-0.00011979
0.255946
-8.31353e-05
0.273718
-5.03052e-05
0.292721
-2.22347e-05
0.313044
0.334778
-0.000359742
0.0484055
-0.00036626
0.0515149
-0.000141415
0.0546142
0.000165291
0.0580347
0.000358733
0.0619861
0.000354292
0.0663959
0.000208245
0.0710959
4.87772e-05
0.0760623
-3.87819e-05
0.0814003
-3.70696e-05
0.08714
2.93352e-05
0.0932562
0.000121373
0.0997715
0.00019156
0.106743
0.000222355
0.114203
0.00022488
0.122179
0.000215524
0.130704
0.000206403
0.139812
0.000198053
0.149545
0.000189091
0.159949
0.000177661
0.171071
0.000163377
0.182961
0.000151378
0.195668
0.000145763
0.209254
0.000145371
0.223783
0.000144208
0.239326
0.000137382
0.255953
0.000120751
0.273735
9.04508e-05
0.292752
4.90819e-05
0.313085
0.334827
0.00330096
0.0471669
0.00441715
0.0503987
0.00499341
0.0540379
0.00492684
0.0581013
0.00446346
0.0624495
0.00391063
0.0669487
0.00336107
0.0716455
0.00276103
0.0766623
0.00212057
0.0820408
0.00154892
0.0877116
0.00109564
0.0937095
0.000761834
0.100105
0.000543743
0.106961
0.000408297
0.114339
0.000318518
0.122269
0.000258794
0.130764
0.000227647
0.139843
0.00022336
0.149549
0.00023867
0.159933
0.000259636
0.17105
0.000276053
0.182944
0.000284958
0.19566
0.000288492
0.20925
0.000285194
0.223786
0.000272303
0.239339
0.000246856
0.255978
0.00020937
0.273772
0.000158993
0.292802
9.02966e-05
0.313154
0.334917
0.00494595
0.0474553
0.0043471
0.0509975
0.00355538
0.0548296
0.00278248
0.0588742
0.00213916
0.0630928
0.0016364
0.0674515
0.00129698
0.0719849
0.00116227
0.076797
0.00125614
0.0819469
0.00147122
0.0874966
0.00165087
0.0935298
0.00170532
0.100051
0.00164653
0.10702
0.00154577
0.114439
0.00146002
0.122354
0.0014039
0.13082
0.00135545
0.139891
0.00129673
0.149608
0.00122286
0.160007
0.00114203
0.17113
0.00105973
0.183026
0.000975121
0.195744
0.000893937
0.209331
0.000809435
0.223871
0.000713267
0.239435
0.000604489
0.256087
0.000483593
0.273893
0.000344874
0.292941
0.000183579
0.313315
0.335101
-0.00387337
0.0476663
-0.0037449
0.0508691
-0.00328074
0.0543655
-0.00266815
0.0582616
-0.00201842
0.0624431
-0.00136743
0.0668005
-0.000765371
0.0713828
-0.000280853
0.0763125
1.60616e-05
0.08165
0.000171744
0.0873409
0.000307877
0.0933937
0.000452014
0.0999067
0.000571405
0.106901
0.000661227
0.114349
0.000742998
0.122273
0.000826178
0.130737
0.00090564
0.139812
0.000964931
0.149549
0.000989577
0.159982
0.000978365
0.171142
0.000939595
0.183065
0.000884805
0.195799
0.000826541
0.20939
0.000760693
0.223936
0.000680584
0.239516
0.000585649
0.256182
0.000474337
0.274004
0.000345872
0.293069
0.000187664
0.313474
0.335288
0.00445035
0.0475557
0.00438388
0.0509355
0.00417437
0.054575
0.00386976
0.0585662
0.00346521
0.0628476
0.00301536
0.0672503
0.00262712
0.0717711
0.00239631
0.0765433
0.00231624
0.0817301
0.00222114
0.087436
0.00205632
0.0935585
0.00192874
0.100034
0.00187533
0.106954
0.00183643
0.114388
0.00177584
0.122333
0.00169857
0.130814
0.00162656
0.139884
0.00156948
0.149606
0.00151675
0.160035
0.00145183
0.171207
0.00136673
0.18315
0.00126284
0.195903
0.00114388
0.209509
0.00101437
0.224066
0.000879007
0.239651
0.000738258
0.256323
0.000587334
0.274155
0.000420508
0.293236
0.000219339
0.313675
0.335508
-0.00613254
0.0482088
-0.00645307
0.0512561
-0.00620455
0.0543264
-0.00537879
0.0577405
-0.00422251
0.0616913
-0.00308465
0.0661125
-0.00221841
0.0709048
-0.00168486
0.0760098
-0.00130978
0.081355
-0.000883485
0.0870097
-0.000469914
0.0931449
-0.000164919
0.0997293
0.000102728
0.106687
0.00039343
0.114098
0.000661363
0.122065
0.000854954
0.13062
0.000968433
0.13977
0.00102635
0.149548
0.00105563
0.160006
0.00106622
0.171196
0.00105576
0.183161
0.00101806
0.195941
0.000951308
0.209575
0.000859307
0.224158
0.000751878
0.239758
0.000633958
0.256441
0.000505997
0.274283
0.00036669
0.293375
0.000191626
0.31385
0.335699
0.00192731
0.0479214
0.00210832
0.0510751
0.00215432
0.0542804
0.00206983
0.057825
0.00194345
0.0618177
0.00186736
0.0661886
0.0018991
0.0708731
0.00197961
0.0759292
0.00196101
0.0813736
0.00182818
0.0871425
0.00171894
0.0932542
0.00166405
0.0997842
0.00160626
0.106744
0.00155108
0.114153
0.00151729
0.122099
0.00149036
0.130647
0.00145231
0.139808
0.00140309
0.149597
0.00134511
0.160064
0.00128251
0.171259
0.00121628
0.183227
0.0011447
0.196012
0.00105581
0.209664
0.000949848
0.224264
0.000829546
0.239879
0.000698349
0.256572
0.000555357
0.274426
0.000396997
0.293534
0.000202253
0.314044
0.335902
-0.00138243
0.0479454
-0.00149792
0.0511905
-0.00164063
0.0544232
-0.00158119
0.0577655
-0.00128548
0.061522
-0.000919618
0.0658227
-0.000643344
0.0705968
-0.000447489
0.0757334
-0.000288616
0.0812147
-0.000176987
0.0870309
-4.29053e-05
0.0931201
0.000227288
0.099514
0.000560352
0.106411
0.000802211
0.113911
0.000923366
0.121978
0.000983218
0.130587
0.00103008
0.139762
0.00106937
0.149558
0.001088
0.160045
0.00108051
0.171266
0.00104812
0.183259
0.000994237
0.196066
0.000918861
0.20974
0.000828879
0.224354
0.000729093
0.239978
0.000619436
0.256681
0.000499291
0.274546
0.000359004
0.293674
0.000183522
0.31422
0.336085
0.000666907
0.0479752
0.000585954
0.0512715
0.000441511
0.0545676
0.000181548
0.0580255
-7.87941e-05
0.0617823
-0.000111731
0.0658556
0.000136831
0.0703482
0.000516418
0.0753538
0.000885574
0.0808456
0.00118565
0.0867308
0.00138423
0.0929215
0.00145811
0.0994401
0.00148988
0.10638
0.00154266
0.113858
0.00159192
0.121929
0.0016189
0.13056
0.00161817
0.139762
0.0015891
0.149587
0.00154004
0.160094
0.00147355
0.171333
0.00138568
0.183347
0.00127348
0.196178
0.00113882
0.209874
0.000993997
0.224499
0.000847814
0.240125
0.000704582
0.256825
0.000562458
0.274689
0.000394711
0.293842
0.000198775
0.314416
0.336284
0.00117699
0.0475412
0.00179452
0.050654
0.00243958
0.0539225
0.00277499
0.0576901
0.00269632
0.061861
0.0023596
0.0661923
0.00201509
0.0706928
0.00183517
0.0755337
0.00183655
0.0808442
0.00195669
0.0866107
0.00208166
0.0927965
0.00207491
0.0994469
0.00190176
0.106553
0.00166571
0.114094
0.00149053
0.122104
0.00139546
0.130656
0.00135231
0.139806
0.00133233
0.149607
0.00131322
0.160113
0.00128329
0.171362
0.00123864
0.183392
0.00116914
0.196248
0.00107018
0.209973
0.000947468
0.224621
0.000811987
0.24026
0.000672431
0.256964
0.000537106
0.274824
0.000373584
0.294005
0.000190131
0.314599
0.336474
0.00280634
0.0473195
0.00270257
0.0507577
0.00226575
0.0543594
0.00171123
0.0582446
0.00122457
0.0623477
0.000867461
0.0665495
0.00064774
0.0709125
0.000560564
0.0756209
0.00067735
0.0807274
0.00100822
0.0862798
0.00143473
0.09237
0.00185516
0.0990264
0.0021552
0.106253
0.00225986
0.11399
0.00221471
0.122149
0.00211103
0.130759
0.00199259
0.139924
0.00186588
0.149734
0.00173871
0.160241
0.00161417
0.171487
0.00148916
0.183517
0.00136336
0.196374
0.00122904
0.210107
0.00108077
0.22477
0.000921171
0.24042
0.000756589
0.257129
0.000598788
0.274982
0.000409903
0.294194
0.000207631
0.314802
0.336682
0.00164289
0.0468097
0.00224634
0.0501543
0.0027624
0.0538433
0.00319654
0.0578105
0.00352928
0.0620149
0.0036719
0.0664068
0.00354299
0.0710414
0.00318343
0.0759805
0.00271719
0.0811936
0.00226104
0.086736
0.00189877
0.0927323
0.00167997
0.0992452
0.00162909
0.106304
0.00172856
0.11389
0.00185961
0.122018
0.00192821
0.130691
0.00190908
0.139943
0.00182303
0.14982
0.00170138
0.160362
0.00156544
0.171623
0.00142613
0.183656
0.00128928
0.19651
0.00115485
0.210242
0.00101693
0.224908
0.000871386
0.240565
0.000719006
0.257281
0.000567925
0.275133
0.000396295
0.294366
0.000201367
0.314997
0.336883
0.00264501
0.046971
0.00239738
0.0504019
0.00228313
0.0539576
0.00223189
0.0578617
0.0022366
0.0620102
0.00243472
0.0662087
0.00285106
0.070625
0.00328997
0.0755415
0.00360115
0.0808825
0.00371866
0.0866185
0.00365734
0.0927936
0.00343907
0.0994635
0.00314303
0.1066
0.00285869
0.114174
0.00264686
0.12223
0.0024955
0.130842
0.00235918
0.140079
0.00221025
0.149969
0.00203773
0.160535
0.00184858
0.171812
0.00165614
0.183849
0.00146542
0.196701
0.00128091
0.210426
0.00110398
0.225085
0.000930954
0.240738
0.000759839
0.257452
0.000590894
0.275302
0.000416749
0.29454
0.000209018
0.315204
0.337092
4.84641e-05
0.0467974
0.000709601
0.0497408
0.00165673
0.0530104
0.00262305
0.0568954
0.003202
0.0614313
0.00324582
0.0661649
0.00300711
0.0708638
0.00283853
0.0757101
0.00281276
0.0809082
0.00287921
0.086552
0.00292623
0.0927466
0.00289256
0.0994972
0.00280506
0.106687
0.00267724
0.114302
0.00252684
0.12238
0.00236869
0.131
0.00221919
0.140229
0.00207509
0.150113
0.0019235
0.160686
0.00175948
0.171976
0.00158347
0.184025
0.00140263
0.196882
0.00122347
0.210606
0.00104855
0.225259
0.000878847
0.240908
0.000712492
0.257619
0.000549745
0.275464
0.000393136
0.294696
0.000197192
0.3154
0.337289
0.00344485
0.0466016
0.00317287
0.0500128
0.00298611
0.0531972
0.00315666
0.0567248
0.00355356
0.0610344
0.00387379
0.0658447
0.00389779
0.0708397
0.00373979
0.0758681
0.00350323
0.0811448
0.00321705
0.0868382
0.00297119
0.0929924
0.00282616
0.0996422
0.00274126
0.106772
0.00268997
0.114354
0.0026259
0.122444
0.00251273
0.131113
0.00235895
0.140383
0.00218783
0.150284
0.00201573
0.160858
0.00183998
0.172152
0.00165645
0.184208
0.00146686
0.197072
0.00127429
0.210798
0.00108457
0.225449
0.000900655
0.241092
0.000722002
0.257797
0.000549314
0.275637
0.000393178
0.294853
0.000195662
0.315598
0.337485
-9.65911e-05
0.0468209
0.000423002
0.0494932
0.00116785
0.0524523
0.0018908
0.0560019
0.00256022
0.0603649
0.00300118
0.0654037
0.00321214
0.0706288
0.00329164
0.0757886
0.00332149
0.0811149
0.00328662
0.0868731
0.00317213
0.0931069
0.00305225
0.0997621
0.00296218
0.106862
0.00285573
0.11446
0.00270343
0.122597
0.00252033
0.131296
0.00231521
0.140588
0.00210212
0.150497
0.0018977
0.161063
0.00170738
0.172342
0.00152907
0.184387
0.00135502
0.197246
0.00118181
0.210971
0.00100953
0.225621
0.000839021
0.241262
0.000671038
0.257965
0.00050539
0.275803
0.000364625
0.294993
0.000182293
0.31578
0.337667
0.00433751
0.0461526
0.00432489
0.0495058
0.00412268
0.0526546
0.00406897
0.0560556
0.00419676
0.0602372
0.00432697
0.0652735
0.00423557
0.0707202
0.00394403
0.0760802
0.0036444
0.0814146
0.00341544
0.087102
0.00321053
0.0933118
0.00300688
0.0999657
0.0028476
0.107021
0.00275032
0.114557
0.00266604
0.122681
0.00254518
0.131417
0.0023806
0.140752
0.00218339
0.150694
0.00196911
0.161277
0.0017528
0.172558
0.0015464
0.184593
0.00135177
0.19744
0.00116779
0.211155
0.000991231
0.225798
0.000820766
0.241433
0.000655647
0.25813
0.000487371
0.275971
0.000350333
0.29513
0.000175132
0.315955
0.337842
0.000604621
0.0466991
0.000663826
0.0494466
0.0010719
0.0522465
0.00148427
0.0556432
0.00188232
0.0598391
0.00236377
0.0647921
0.00286303
0.0702209
0.00312872
0.0758145
0.00310199
0.0814413
0.00296317
0.0872408
0.0028668
0.0934082
0.00281954
0.100013
0.00274783
0.107093
0.00261855
0.114687
0.00245956
0.12284
0.00230088
0.131576
0.00214045
0.140913
0.00197422
0.150861
0.00179789
0.161453
0.00161504
0.172741
0.00143056
0.184777
0.00125003
0.197621
0.00107728
0.211328
0.000912229
0.225963
0.000754146
0.241591
0.000599876
0.258285
0.000443042
0.276128
0.0003173
0.295256
0.000160947
0.316112
0.338003
0.00448385
0.0458643
0.00472995
0.0492005
0.00447999
0.0524964
0.00420034
0.0559229
0.0040436
0.0599959
0.00395098
0.0648847
0.00393912
0.0702328
0.00397047
0.0757831
0.0039555
0.0814562
0.00382752
0.0873688
0.00361306
0.0936227
0.00338085
0.100245
0.00317111
0.107303
0.00296577
0.114892
0.00273791
0.123068
0.0024902
0.131824
0.00224674
0.141156
0.00201883
0.151088
0.00180399
0.161668
0.00159946
0.172946
0.00140378
0.184973
0.00121778
0.197807
0.00104191
0.211504
0.000876059
0.226129
0.000719606
0.241747
0.000568826
0.258435
0.000417244
0.276279
0.000289386
0.295384
0.000151942
0.316249
0.338155
0.00218037
0.0462207
0.00201745
0.0493634
0.00203294
0.0524809
0.00203801
0.0559178
0.00213817
0.0598957
0.00244211
0.0645807
0.00272887
0.069946
0.00285381
0.0756582
0.00284948
0.0814606
0.00279998
0.0874183
0.00275353
0.0936691
0.00268241
0.100316
0.0025676
0.107418
0.00242404
0.115036
0.00227427
0.123217
0.0021191
0.131979
0.0019548
0.141321
0.00178518
0.151258
0.0016148
0.161839
0.00144633
0.173114
0.0012787
0.185141
0.00111443
0.197971
0.000955469
0.211663
0.000803765
0.226281
0.000658989
0.241892
0.000519106
0.258575
0.000379483
0.276419
0.000257541
0.295506
0.000138024
0.316369
0.338293
0.0046029
0.0455874
0.00495972
0.0490066
0.00480722
0.0526334
0.00430501
0.05642
0.00380103
0.0603997
0.00354751
0.0648343
0.00361312
0.0698804
0.00378551
0.0754858
0.00382136
0.0814247
0.00370643
0.0875332
0.0035241
0.0938515
0.00333009
0.10051
0.003123
0.107625
0.00287397
0.115285
0.00259268
0.123499
0.00231076
0.132261
0.00205021
0.141581
0.00181295
0.151495
0.00159759
0.162054
0.00140268
0.173309
0.00122477
0.185319
0.00105982
0.198136
0.000904628
0.211818
0.000758262
0.226427
0.000618963
0.242031
0.000486242
0.258708
0.00035821
0.276547
0.000233419
0.295631
0.000125798
0.316476
0.338419
0.00317755
0.0457571
0.0031789
0.0490052
0.00331685
0.0524955
0.00336155
0.0563753
0.00320626
0.060555
0.00298693
0.0650536
0.00284561
0.0700217
0.0028076
0.0755238
0.00281867
0.0814137
0.00280903
0.0875429
0.00273728
0.0939232
0.00260771
0.10064
0.00244461
0.107788
0.0022807
0.115448
0.00212412
0.123655
0.00196044
0.132424
0.00179046
0.141751
0.00161599
0.15167
0.00144289
0.162227
0.00127492
0.173477
0.00111538
0.185478
0.000965509
0.198286
0.000824963
0.211959
0.000692471
0.226559
0.000565925
0.242158
0.000444223
0.25883
0.000326304
0.276665
0.000206966
0.29575
0.000112528
0.316571
0.338532
0.00495564
0.0453395
0.00501763
0.0489432
0.00475469
0.0527584
0.00432819
0.0568018
0.00387165
0.0610115
0.00358179
0.0653434
0.003513
0.0700905
0.00351554
0.0755213
0.00345921
0.08147
0.00334232
0.0876598
0.00320137
0.0940642
0.00304242
0.100799
0.00283831
0.107992
0.00258063
0.115706
0.00230071
0.123935
0.00204118
0.132684
0.00180921
0.141983
0.00159798
0.151881
0.00140392
0.162421
0.00122487
0.173656
0.00106105
0.185642
0.000911066
0.198436
0.000773302
0.212096
0.000645855
0.226687
0.000526303
0.242278
0.000412227
0.258944
0.000301403
0.276776
0.000185231
0.295866
0.000100359
0.316656
0.338632
0.00388662
0.0454235
0.00407726
0.0487526
0.00430433
0.0525314
0.00434376
0.0567624
0.0040974
0.0612579
0.00365526
0.0657856
0.00325575
0.07049
0.00304335
0.0757337
0.00295647
0.0815569
0.00286288
0.0877534
0.00271857
0.0942085
0.00254006
0.100977
0.0023478
0.108184
0.00216205
0.115892
0.00197753
0.12412
0.00179002
0.132871
0.00160908
0.142164
0.00143749
0.152053
0.00127364
0.162585
0.0011173
0.173813
0.000970425
0.185789
0.000834033
0.198572
0.000707891
0.212223
0.000591288
0.226804
0.000482201
0.242387
0.000377517
0.259049
0.000274599
0.276879
0.000164059
0.295977
8.87602e-05
0.316731
0.338721
0.00540916
0.0452365
0.00513147
0.0490303
0.00473612
0.0529267
0.00445121
0.0570473
0.00420403
0.061505
0.00393901
0.0660506
0.00366497
0.0707641
0.00342716
0.0759715
0.00324375
0.0817403
0.00308863
0.0879085
0.00293455
0.0943626
0.00275159
0.10116
0.0025272
0.108409
0.00226986
0.116149
0.00200931
0.12438
0.00177622
0.133105
0.00156899
0.142371
0.00138263
0.152239
0.00121359
0.162754
0.00105792
0.173968
0.000914652
0.185932
0.000782882
0.198704
0.000661301
0.212344
0.000549678
0.226915
0.000446471
0.24249
0.000348884
0.259146
0.000252192
0.276975
0.000145968
0.296083
7.78002e-05
0.316799
0.338799
0.00491769
0.0451491
0.00507688
0.0488711
0.00509397
0.0529096
0.00489546
0.0572458
0.00455191
0.0618486
0.00411481
0.0664877
0.00367249
0.0712064
0.00332793
0.076316
0.00307421
0.081994
0.00285594
0.0881268
0.00264524
0.0945733
0.00243425
0.101371
0.00222637
0.108616
0.00202365
0.116352
0.00182086
0.124583
0.00161948
0.133306
0.00143045
0.14256
0.00126008
0.152409
0.00110539
0.162909
0.00096415
0.174109
0.00083521
0.186061
0.000716819
0.198822
0.000607279
0.212454
0.000505716
0.227017
0.000411059
0.242584
0.000321345
0.259236
0.000230884
0.277066
0.000130264
0.296184
6.84497e-05
0.316861
0.338867
0.00584226
0.00531563
0.00496943
0.00472587
0.00449333
0.00419371
0.00383438
0.00348937
0.00319829
0.00295683
0.002731
0.00249192
0.00223751
0.00198178
0.00174706
0.0015432
0.00136001
0.00119321
0.00104166
0.000904531
0.000780424
0.000667997
0.000565249
0.000468204
0.000379472
0.000296494
0.000211921
0.00011663
5.95658e-05
)
;

boundaryField
{
    outlet
    {
        type            calculated;
        value           nonuniform 0();
    }
    upperWall
    {
        type            symmetryPlane;
        value           nonuniform 0();
    }
    lowerWall
    {
        type            symmetryPlane;
        value           uniform 0;
    }
    inlet
    {
        type            calculated;
        value           nonuniform List<scalar> 
40
(
-0.053033
-0.053033
-0.053033
-0.053033
-0.053033
-0.053033
-0.053033
-0.053033
-0.053033
-0.053033
-0.0478286
-0.051148
-0.0546978
-0.058494
-0.0625537
-0.0668951
-0.0715378
-0.0765027
-0.0818122
-0.0874902
-0.0935622
-0.100056
-0.107
-0.114426
-0.122367
-0.13086
-0.139942
-0.149655
-0.160041
-0.171148
-0.183026
-0.195729
-0.209313
-0.22384
-0.239375
-0.255988
-0.273755
-0.292754
-0.313072
-0.3348
)
;
    }
    cylinder
    {
        type            calculated;
        value           nonuniform 0();
    }
    frontAndBack
    {
        type            empty;
        value           nonuniform 0();
    }
    procBoundary0to1
    {
        type            processor;
        value           nonuniform List<scalar> 
45
(
0.0169265
0.0428721
0.0435432
0.0430561
0.0136083
0.0417764
0.0421084
0.0417961
0.0076646
0.0411763
0.0367759
0.0419274
0.00518918
0.0392358
0.00461603
0.0452944
0.0493977
0.0532558
0.0574894
0.0620811
0.0667873
0.0715657
0.0766611
0.0822851
0.0883682
0.0947991
0.10161
0.108871
0.116608
0.124818
0.13351
0.142743
0.152576
0.16306
0.174247
0.186185
0.198935
0.212556
0.227114
0.242673
0.259319
0.277151
0.296279
0.316918
0.338927
)
;
    }
    procBoundary0to4
    {
        type            processor;
        value           nonuniform List<scalar> 
33
(
0.000773529
0.000831812
0.000898487
0.000368691
0.00191324
-0.000137836
-0.00125431
0.000133501
-0.00049399
-0.000428184
0.0013629
0.000503894
0.000318654
0.00112705
0.000441444
0.000289239
0.000372549
0.000284669
0.000236415
0.000194112
0.000272481
0.000288867
0.000356777
0.000404055
0.000480815
0.00055136
0.000620598
0.00069122
0.000748017
0.000807934
0.000851098
0.000898921
0.000935872
)
;
    }
}


// ************************************************************************* //
