/*--------------------------------*- C++ -*----------------------------------*\
| =========                 |                                                 |
| \\      /  F ield         | OpenFOAM: The Open Source CFD Toolbox           |
|  \\    /   O peration     | Version:                                        |
|   \\  /    A nd           | Website:  www.openfoam.com                      |
|    \\/     M anipulation  |                                                 |
\*---------------------------------------------------------------------------*/
FoamFile
{
    version     2.0;
    format      ascii;
    class       volVectorField;
    location    "110.9";
    object      U;
}
// * * * * * * * * * * * * * * * * * * * * * * * * * * * * * * * * * * * * * //

dimensions      [0 1 -1 0 0 0 0];


internalField   nonuniform List<vector> 
1150
(
(0.860227 0.0333168 -4.61651e-21)
(0.848881 0.0356509 1.06801e-20)
(0.836535 0.0386143 -5.96251e-21)
(0.865482 0.0543148 -3.13481e-21)
(0.855017 0.0580648 2.67799e-21)
(0.843781 0.0627851 -2.95353e-20)
(0.873237 0.0736967 -5.35041e-21)
(0.864358 0.0788104 4.0446e-20)
(0.854515 0.0850023 -5.02479e-20)
(0.883304 0.0936342 1.61705e-21)
(0.876411 0.100205 1.2106e-20)
(0.896202 0.111148 6.07466e-21)
(0.89177 0.118221 9.99017e-20)
(0.909978 0.129314 -2.74369e-20)
(1.00003 -0.00273121 -1.92217e-22)
(1.00565 0.0044881 -5.54105e-23)
(1.00091 0.00959841 3.59313e-23)
(1.00114 0.00349689 -1.49387e-22)
(1.00065 -0.000484812 4.02317e-23)
(1.00032 0.00566459 1.73484e-22)
(0.999117 -0.00297679 -1.58885e-22)
(0.999359 0.000374067 1.05653e-23)
(0.997066 0.00667081 -9.30052e-23)
(0.995738 0.00346998 1.45768e-22)
(0.993543 0.00541662 -9.98907e-23)
(0.991407 0.0112408 3.59629e-23)
(0.988363 0.00769724 -3.40607e-22)
(0.986968 0.00926812 2.76497e-22)
(0.983901 0.00897315 -2.19946e-22)
(0.980574 0.0102149 4.79738e-22)
(0.977139 0.00875057 3.03862e-23)
(0.973286 0.00952664 -9.93153e-22)
(0.968697 0.00947091 1.0573e-21)
(0.963593 0.0106291 -3.12497e-22)
(0.958226 0.0110148 7.47122e-22)
(0.952093 0.0125644 -1.88608e-21)
(0.945059 0.0136333 2.49267e-22)
(0.937352 0.0158503 1.18339e-21)
(0.928898 0.0174394 3.25717e-22)
(0.919576 0.0201733 -3.28894e-21)
(0.909268 0.022142 2.67677e-21)
(0.898147 0.0252568 -1.50795e-22)
(0.885921 0.0275303 5.44092e-22)
(0.872953 0.0310616 2.73287e-21)
(1.00024 -0.00415985 8.24551e-22)
(1.00704 0.00655129 -1.2943e-22)
(0.999158 0.00820534 -5.10467e-22)
(0.99926 0.00502257 2.15439e-22)
(1.00168 -0.00204545 -3.81701e-22)
(0.999986 0.00739075 6.24016e-22)
(0.999878 -0.0044891 -2.45245e-22)
(1.00126 0.00244831 -4.88573e-22)
(0.997552 0.00571074 4.05914e-22)
(0.995643 0.00538582 -7.31567e-22)
(0.99388 0.00562109 3.42506e-22)
(0.991144 0.0131247 -2.42216e-22)
(0.986816 0.00757003 3.87574e-22)
(0.986594 0.0115544 -2.31136e-22)
(0.983607 0.0095542 2.05559e-21)
(0.980105 0.0126169 -3.17679e-21)
(0.977304 0.0100119 2.83566e-21)
(0.97355 0.0128718 2.23457e-21)
(0.969947 0.0116991 -2.82369e-21)
(0.964502 0.0149249 2.89118e-21)
(0.960039 0.014724 -4.5913e-21)
(0.953779 0.0184984 -1.58416e-21)
(0.947554 0.0193748 -1.19373e-21)
(0.939835 0.0240703 -2.01103e-21)
(0.931848 0.0258513 5.38182e-21)
(0.92276 0.0313425 1.0474e-21)
(0.91272 0.0339313 -2.90152e-21)
(0.902056 0.0402844 6.65696e-21)
(0.88997 0.0435374 3.74353e-22)
(0.877569 0.0506931 -7.71854e-21)
(1.00067 -0.00575934 -1.37232e-21)
(1.00813 0.00887302 -2.46329e-22)
(0.997214 0.00707695 -1.7003e-22)
(0.997393 0.00613006 -1.01499e-21)
(1.0029 -0.00363406 1.70698e-22)
(0.999594 0.00903295 -1.43044e-21)
(1.00091 -0.00640032 1.20555e-21)
(1.00298 0.00502614 1.39623e-21)
(0.997938 0.00451856 -1.03319e-21)
(0.995472 0.0071901 -1.53815e-21)
(0.994041 0.00629924 1.37341e-21)
(0.990521 0.0145806 -1.68203e-21)
(0.985275 0.00742676 3.02908e-21)
(0.986278 0.0139179 -5.41168e-22)
(0.98326 0.0095079 -1.04422e-21)
(0.979701 0.0147865 1.92357e-21)
(0.977765 0.0105895 -6.68935e-21)
(0.973942 0.0157901 9.28351e-21)
(0.971381 0.0132124 -1.37686e-21)
(0.965714 0.0185162 -1.83134e-23)
(0.962205 0.0175434 -2.68977e-21)
(0.955768 0.0236106 1.57793e-22)
(0.950429 0.0241185 -5.84232e-21)
(0.942756 0.0312549 1.17549e-20)
(0.935454 0.0330237 1.4337e-21)
(0.926566 0.0413212 -8.73498e-21)
(0.917196 0.0443254 3.41568e-21)
(0.906893 0.0538245 1.1194e-23)
(0.895598 0.0580508 -7.08553e-21)
(0.884018 0.0687957 1.48091e-20)
(1.00138 -0.00732512 9.08167e-22)
(1.00885 0.0112373 6.18816e-22)
(0.995014 0.00631588 2.97289e-22)
(0.995548 0.00671236 2.56624e-21)
(1.00445 -0.00512169 3.38204e-22)
(0.999127 0.010194 -7.76511e-22)
(1.00229 -0.00817351 2.07303e-23)
(1.00451 0.00763324 -7.43792e-22)
(0.998018 0.0035433 1.44017e-21)
(0.995235 0.00913069 -8.19353e-22)
(0.993931 0.00736845 -1.63972e-21)
(0.989384 0.015845 1.04493e-21)
(0.984057 0.00714037 1.31016e-21)
(0.985875 0.0162831 -2.95823e-21)
(0.982967 0.00923229 6.37237e-21)
(0.979551 0.0166313 -8.66217e-21)
(0.978511 0.0112999 4.36769e-21)
(0.974566 0.0184636 -6.38811e-21)
(0.973013 0.0147159 3.3173e-21)
(0.967199 0.0222788 7.15151e-21)
(0.96478 0.0205423 -1.00557e-20)
(0.95807 0.0290287 1.28966e-20)
(0.953782 0.0291244 -1.42749e-20)
(0.946033 0.0388448 5.81223e-21)
(0.939753 0.0407137 7.42286e-21)
(0.930942 0.0517616 9.58926e-21)
(0.922544 0.0553667 -3.24895e-20)
(0.912795 0.0679174 6.54227e-21)
(0.902472 0.0732464 -1.58678e-21)
(0.892272 0.0876899 -4.86033e-21)
(1.00237 -0.00906976 3.8719e-22)
(1.00914 0.0139678 -3.72189e-22)
(0.992563 0.00572154 5.72325e-22)
(0.993861 0.00680155 -9.48618e-22)
(1.00631 -0.00662274 8.55093e-22)
(0.998686 0.0113047 -5.77717e-22)
(1.004 -0.0103184 6.42635e-23)
(1.0057 0.0110436 -2.60813e-21)
(0.99791 0.00233857 2.13014e-21)
(0.994835 0.0115529 1.63462e-21)
(0.993386 0.00854791 -2.82057e-21)
(0.987654 0.0168021 -7.11574e-22)
(0.983223 0.00710919 3.47804e-21)
(0.985723 0.0181702 -2.26992e-21)
(0.9827 0.00862046 8.3467e-22)
(0.979791 0.018424 -1.02567e-21)
(0.979706 0.0110773 8.79409e-22)
(0.975515 0.0209806 -3.26195e-22)
(0.975128 0.0154455 -8.31348e-22)
(0.968987 0.0254697 1.2779e-20)
(0.967919 0.022829 -1.11494e-20)
(0.960774 0.0336921 -1.1306e-20)
(0.957651 0.0334804 -2.33153e-21)
(0.949755 0.0455791 3.14153e-20)
(0.944607 0.0475936 1.79076e-20)
(0.936083 0.0613768 -1.77261e-20)
(0.928841 0.065312 1.19915e-20)
(0.919877 0.0810508 -2.3575e-20)
(0.911113 0.0868025 1.29738e-20)
(0.902343 0.104946 -8.9717e-20)
(1.00364 -0.010609 -2.02421e-21)
(1.00898 0.0165959 7.90509e-22)
(0.989896 0.00557967 -1.37147e-21)
(0.992384 0.0060556 1.26189e-21)
(1.00872 -0.00781903 -1.63505e-21)
(0.998182 0.0116452 7.98963e-22)
(1.00602 -0.0116939 5.37466e-22)
(1.0066 0.0140773 9.15611e-22)
(0.99719 0.0015954 2.47032e-23)
(0.994492 0.0139647 -3.28536e-21)
(0.992195 0.0101594 8.52116e-22)
(0.985571 0.0170328 1.03981e-21)
(0.983129 0.00705805 6.20305e-21)
(0.985307 0.0199547 -6.07622e-21)
(0.98311 0.00784921 2.80397e-21)
(0.980411 0.0201875 4.1054e-21)
(0.980987 0.0114283 -4.08911e-21)
(0.976804 0.0232756 -9.3772e-21)
(0.977514 0.0168063 -4.3602e-21)
(0.971226 0.0291092 1.63759e-20)
(0.970985 0.0257746 6.64907e-21)
(0.963792 0.0392305 -3.70868e-21)
(0.96182 0.0384504 5.73028e-21)
(0.953787 0.0533105 4.96381e-21)
(0.949932 0.0549418 -2.10722e-20)
(0.941445 0.0716793 -2.67009e-20)
(0.936055 0.0755259 1.30018e-20)
(0.92757 0.0945203 6.28687e-20)
(0.920662 0.101009 -8.9549e-20)
(0.914078 0.122255 9.96653e-20)
(1.00527 -0.0123587 1.01587e-21)
(1.00811 0.0197368 -1.04248e-21)
(0.987141 0.00538754 -1.65995e-21)
(0.991441 0.00489006 1.05891e-21)
(1.01154 -0.00911943 6.83756e-22)
(0.997886 0.0121666 -1.6076e-21)
(1.0083 -0.0135465 1.45911e-21)
(1.0069 0.0183676 1.34866e-21)
(0.996067 -4.44958e-05 -1.65886e-22)
(0.994105 0.0178284 -1.11923e-21)
(0.990685 0.0108417 4.18445e-21)
(0.982861 0.0172801 -2.99624e-21)
(0.983966 0.00706623 5.65534e-21)
(0.985489 0.0205842 -9.41033e-21)
(0.98358 0.00686105 1.1326e-20)
(0.981997 0.021948 -4.79122e-21)
(0.98342 0.0101352 -9.36314e-21)
(0.978069 0.0256515 -5.59082e-21)
(0.980402 0.0163761 -3.78047e-21)
(0.973993 0.0327545 -1.84349e-21)
(0.97496 0.0270027 2.84286e-20)
(0.966952 0.0440359 -3.06175e-20)
(0.966126 0.0420384 4.57341e-22)
(0.958177 0.0601319 2.00028e-20)
(0.955405 0.0613085 -1.75039e-20)
(0.947584 0.080822 1.09151e-20)
(0.943141 0.0847741 4.13933e-20)
(0.937234 0.106388 -7.12626e-20)
(0.931704 0.112711 5.29024e-20)
(0.928159 0.137169 1.62083e-20)
(1.00752 -0.0136913 3.09867e-23)
(1.00619 0.0226125 8.29688e-22)
(0.984261 0.00554839 1.62757e-21)
(0.991235 0.00252072 1.09725e-21)
(1.01496 -0.00973904 -3.60988e-23)
(0.997352 0.0117468 -2.30745e-21)
(1.01117 -0.0138214 -1.29296e-21)
(1.00634 0.02152 3.63418e-21)
(0.99466 -0.000275024 -4.64791e-21)
(0.993099 0.0208944 2.09723e-21)
(0.989009 0.0123952 -6.20921e-22)
(0.980799 0.0160187 9.08106e-21)
(0.985276 0.00766534 -1.85148e-21)
(0.985583 0.0207501 -1.91672e-21)
(0.985077 0.00692162 -6.94518e-21)
(0.982985 0.0229546 -5.89666e-21)
(0.98648 0.0112585 2.11604e-20)
(0.98029 0.0278753 -7.69674e-21)
(0.982996 0.0182612 -7.16481e-21)
(0.976744 0.0361678 -2.12525e-21)
(0.978649 0.0316574 1.80424e-20)
(0.970959 0.0494895 -7.17104e-21)
(0.970253 0.0486754 1.04512e-20)
(0.963137 0.0671441 6.83289e-21)
(0.960837 0.0699355 -5.49674e-20)
(0.954541 0.0897848 9.65832e-21)
(0.951618 0.0942431 -7.75497e-21)
(0.946218 0.11802 7.14869e-22)
(0.945149 0.124239 4.38662e-20)
(1.01021 -0.015244 8.63021e-22)
(1.00348 0.0261177 -4.16062e-22)
(0.980579 0.00529752 -8.88976e-22)
(0.991982 -6.62841e-05 1.23564e-21)
(1.01866 -0.0105901 1.30558e-21)
(0.996307 0.0117804 -2.26538e-22)
(1.01474 -0.0146436 -1.5225e-21)
(1.00359 0.0260757 2.06306e-21)
(0.994691 -0.00199431 -9.6266e-22)
(0.989477 0.0260717 2.29629e-22)
(0.987242 0.011548 9.23498e-22)
(0.979127 0.0156196 -4.98292e-21)
(0.987964 0.00707028 3.15253e-21)
(0.98419 0.0199132 1.46516e-21)
(0.988261 0.0062028 -8.57896e-21)
(0.983337 0.0238868 1.10046e-20)
(0.989075 0.00852328 -1.0258e-20)
(0.982858 0.0312544 2.13197e-20)
(0.986676 0.0158274 -1.46029e-20)
(0.979295 0.0414157 1.04575e-20)
(0.98277 0.0294989 8.81949e-22)
(0.972709 0.0571134 -3.4872e-20)
(0.976142 0.0486146 1.00764e-20)
(0.964185 0.0768175 4.71486e-21)
(0.969049 0.0725628 1.84185e-20)
(0.956233 0.100396 -2.0168e-20)
(0.963291 0.100476 -1.99237e-21)
(0.954118 0.128348 2.5977e-20)
(0.959154 0.13392 1.71733e-20)
(1.01243 -0.0160474 -9.05169e-22)
(1.00236 0.0290818 2.65283e-22)
(0.975989 0.00520585 -1.31702e-21)
(0.994469 -0.00454677 2.40774e-22)
(1.02202 -0.00991955 8.70222e-23)
(0.995488 0.0108205 1.49334e-22)
(1.01716 -0.0132172 -4.96428e-22)
(1.00355 0.028946 6.89415e-22)
(0.990364 -0.000792181 -4.38222e-21)
(0.994136 0.0296866 5.96217e-21)
(0.979305 0.0112004 4.89833e-21)
(0.982438 0.013748 -5.16102e-21)
(0.989677 0.00870175 -9.16307e-21)
(0.988293 0.0187178 1.70627e-20)
(0.98603 0.0087271 -2.07389e-20)
(0.98792 0.0238067 1.50595e-20)
(0.990621 0.0118302 -2.02544e-21)
(0.98404 0.0325555 -1.58318e-20)
(0.990993 0.0210953 1.07376e-20)
(0.983397 0.0450854 1.11816e-20)
(0.985935 0.0390519 1.07848e-20)
(0.978634 0.0612623 -2.75184e-20)
(0.976012 0.0612491 -2.05086e-20)
(0.9753 0.0811591 5.81272e-20)
(0.965949 0.0853164 -3.871e-20)
(0.973729 0.102843 -6.67914e-22)
(0.961664 0.107801 -1.56881e-20)
(0.975262 0.128499 6.22368e-20)
(1.01802 -0.0175995 0)
(0.996211 0.0329571 0)
(0.979116 0.00488469 0)
(0.992379 -0.00884331 0)
(1.02748 -0.00989875 0)
(0.989331 0.0102086 0)
(1.02317 -0.0130955 0)
(0.997095 0.032652 0)
(0.995183 -0.00333651 0)
(0.989456 0.0346176 0)
(0.981777 0.00921036 0)
(0.98393 0.0103925 0)
(0.997255 0.00675888 0)
(0.982975 0.0176656 0)
(0.993484 0.00716541 0)
(0.984852 0.0212209 0)
(0.99739 0.00896231 0)
(0.983393 0.033541 0)
(0.998728 0.0139804 0)
(0.983842 0.0508344 0)
(0.996442 0.0289052 0)
(0.97698 0.0717962 0)
(0.990779 0.0481292 0)
(0.970453 0.0938613 0)
(0.985314 0.0718179 0)
(0.965406 0.112719 0)
(0.989028 0.0974336 0)
(0.969602 0.136026 0)
(1.02209 -0.0181819 0)
(0.986189 0.0354053 0)
(0.990525 0.00572678 0)
(0.987585 -0.0135769 0)
(1.02715 -0.00867251 0)
(0.983929 0.00925337 0)
(1.02312 -0.0121137 0)
(0.9881 0.0343445 0)
(1.00229 -0.00202231 0)
(0.975353 0.0373596 0)
(0.992622 0.0086332 0)
(0.981556 0.00919483 0)
(1.00052 0.0084486 0)
(0.973111 0.0172604 0)
(0.999625 0.0100102 0)
(0.978935 0.0174873 0)
(0.997399 0.0132422 0)
(0.984949 0.0293113 0)
(0.99841 0.0184465 0)
(0.984985 0.0491142 0)
(0.995197 0.0304686 0)
(0.976735 0.0750463 0)
(0.995945 0.0481416 0)
(0.967482 0.0990185 0)
(0.995792 0.0693423 0)
(0.964504 0.116402 0)
(1.00195 0.0946854 0)
(0.977477 0.133444 0)
(1.01919 -0.0183425 0)
(0.980762 0.037135 0)
(1.00339 0.00572075 0)
(0.985912 -0.0166738 0)
(1.01864 -0.00706739 0)
(0.984989 0.00769077 0)
(1.01167 -0.0106957 0)
(0.986777 0.0359174 0)
(1.00012 -0.000145473 0)
(0.970486 0.0384446 0)
(1.00035 0.00731255 0)
(0.977774 0.00673847 0)
(1.00036 0.013046 0)
(0.971672 0.0137718 0)
(0.99587 0.011942 0)
(0.979837 0.0137897 0)
(0.991263 0.0161526 0)
(0.986124 0.0233102 0)
(0.990967 0.0242991 0)
(0.98818 0.0443973 0)
(0.983583 0.0376359 0)
(0.982309 0.0706288 0)
(0.984656 0.0545758 0)
(0.977564 0.0947051 0)
(0.989227 0.0740698 0)
(0.977978 0.110059 0)
(0.99942 0.0944597 0)
(0.991353 0.122509 0)
(1.01044 -0.0176011 0)
(0.983389 0.0365821 0)
(1.01332 0.00643658 0)
(0.987456 -0.0179143 0)
(1.00743 -0.00573458 0)
(0.989778 0.00652705 0)
(0.996608 -0.00844685 0)
(0.991162 0.0350732 0)
(0.995618 0.00299399 0)
(0.977838 0.0368116 0)
(1.0038 0.0087358 0)
(0.975398 0.0040848 0)
(1.00302 0.0172944 0)
(0.980155 0.0106674 0)
(0.990675 0.0155939 0)
(0.985253 0.0102433 0)
(0.985595 0.0195142 0)
(0.985214 0.0194558 0)
(0.984113 0.0273772 0)
(0.989517 0.044129 0)
(0.97759 0.0420269 0)
(0.985662 0.0686717 0)
(0.978569 0.0557168 0)
(0.986179 0.0924218 0)
(0.98647 0.0738864 0)
(0.989748 0.10331 0)
(1 0.0912225 0)
(1.00132 0.110382 0)
(1.002 -0.0164799 0)
(0.988632 0.0343249 0)
(1.02133 0.00738656 0)
(0.988573 -0.0174323 0)
(0.998687 -0.00439782 0)
(0.993397 0.00575999 0)
(0.985516 -0.00651557 0)
(0.99516 0.032817 0)
(0.995978 0.00552049 0)
(0.986389 0.0339371 0)
(1.00781 0.0117076 0)
(0.975045 0.0013258 0)
(1.00687 0.0183651 0)
(0.9909 0.0104512 0)
(0.989433 0.0193923 0)
(0.989352 0.00803979 0)
(0.98203 0.0222641 0)
(0.984057 0.0191509 0)
(0.979559 0.0280045 0)
(0.989145 0.0434409 0)
(0.977868 0.043213 0)
(0.990771 0.0691761 0)
(0.98152 0.0550431 0)
(0.992576 0.0890576 0)
(0.992042 0.0725846 0)
(0.996843 0.0960374 0)
(1.00751 0.0868521 0)
(1.00695 0.0994739 0)
(0.996735 -0.0149518 0)
(0.992433 0.0301372 0)
(1.02881 0.00916785 0)
(0.986929 -0.0150814 0)
(0.993411 -0.00338323 0)
(0.995025 0.00523062 0)
(0.978766 -0.00465864 0)
(0.997619 0.0289225 0)
(0.999242 0.00743314 0)
(0.991539 0.0310391 0)
(1.01395 0.0159845 0)
(0.975237 -0.000505705 0)
(1.00854 0.0164096 0)
(0.997692 0.0121575 0)
(0.991673 0.0227926 0)
(0.991049 0.00980918 0)
(0.981077 0.0236216 0)
(0.983148 0.0209366 0)
(0.977453 0.0270928 0)
(0.989204 0.0425435 0)
(0.979407 0.0410205 0)
(0.996357 0.0690185 0)
(0.988441 0.0535212 0)
(0.999657 0.0834915 0)
(1.00102 0.071603 0)
(1.00457 0.0881326 0)
(1.01644 0.0830711 0)
(1.01367 0.088735 0)
(0.994247 -0.0132426 0)
(0.994859 0.0244292 0)
(1.0336 0.0117008 0)
(0.984563 -0.0111767 0)
(0.990739 -0.00313732 0)
(0.995669 0.00542164 0)
(0.975939 -0.00340794 0)
(0.999345 0.0238141 0)
(1.00193 0.00841016 0)
(0.994422 0.0282828 0)
(1.01949 0.0201922 0)
(0.978917 -0.000306988 0)
(1.00584 0.0129613 0)
(0.999251 0.0144478 0)
(0.995245 0.0250347 0)
(0.991439 0.0152453 0)
(0.983929 0.0236517 0)
(0.983579 0.0230741 0)
(0.977968 0.026137 0)
(0.990688 0.0411534 0)
(0.981236 0.0364442 0)
(0.999114 0.0647613 0)
(0.995841 0.0519573 0)
(1.00557 0.0759237 0)
(1.00956 0.0699699 0)
(1.01202 0.0801461 0)
(1.02431 0.07942 0)
(1.02206 0.0792941 0)
(0.993315 -0.0115162 0)
(0.997268 0.017973 0)
(1.03353 0.0146836 0)
(0.983783 -0.00607396 0)
(0.989627 -0.00364584 0)
(0.996159 0.00624407 0)
(0.97688 -0.00319466 0)
(1.00113 0.0188711 0)
(1.00279 0.00858469 0)
(0.996533 0.0250985 0)
(1.02253 0.0238204 0)
(0.986676 0.00232004 0)
(1.00019 0.0106164 0)
(0.996832 0.0160463 0)
(0.998163 0.0251362 0)
(0.99168 0.021579 0)
(0.989535 0.0237882 0)
(0.986911 0.0258844 0)
(0.980881 0.0244656 0)
(0.993397 0.0397217 0)
(0.98463 0.0325263 0)
(1.00009 0.0577308 0)
(1.00071 0.0497219 0)
(1.00932 0.0669602 0)
(1.01539 0.0660833 0)
(1.01797 0.0720748 0)
(1.03005 0.0745407 0)
(1.03024 0.0715176 0)
(0.993454 -0.010025 0)
(0.999399 0.0116564 0)
(1.02906 0.0176322 0)
(0.985657 -0.000213003 0)
(0.989944 -0.00496507 0)
(0.995828 0.00744173 0)
(0.980911 -0.0039376 0)
(1.0022 0.0146875 0)
(1.00293 0.00856192 0)
(0.998119 0.0208125 0)
(1.02119 0.0266292 0)
(0.996851 0.00713326 0)
(0.996345 0.0100865 0)
(0.992734 0.0171012 0)
(0.999618 0.0233326 0)
(0.991237 0.0261437 0)
(0.995294 0.0240671 0)
(0.992059 0.0289505 0)
(0.987056 0.0229219 0)
(0.996345 0.0383744 0)
(0.990899 0.0298671 0)
(1.00074 0.0498998 0)
(1.00441 0.0461224 0)
(1.01146 0.0575155 0)
(1.01891 0.0605503 0)
(1.02189 0.063035 0)
(1.03258 0.0683582 0)
(1.03595 0.0636158 0)
(0.994631 -0.00885971 0)
(0.999743 0.00638844 0)
(1.02252 0.019858 0)
(0.990077 0.00522398 0)
(0.991838 -0.00585217 0)
(0.994906 0.00837437 0)
(0.985847 -0.00541502 0)
(1.00138 0.0115381 0)
(1.00324 0.00848565 0)
(0.998708 0.0165575 0)
(1.01609 0.0276499 0)
(1.00545 0.0118666 0)
(0.996868 0.0130003 0)
(0.990284 0.0183156 0)
(1.00011 0.0206972 0)
(0.991551 0.0279423 0)
(0.998842 0.0233017 0)
(0.996504 0.0311349 0)
(0.994836 0.0221395 0)
(0.99934 0.0365197 0)
(0.998423 0.0284632 0)
(1.00238 0.0431647 0)
(1.00818 0.0417598 0)
(1.01273 0.0492838 0)
(1.02072 0.0530562 0)
(1.02398 0.0543753 0)
(1.03242 0.059771 0)
(1.03837 0.0558925 0)
(0.996743 -0.00779314 0)
(0.997841 0.0022558 0)
(1.01533 0.0209708 0)
(0.996056 0.00972084 0)
(0.995195 -0.00581516 0)
(0.994816 0.00913335 0)
(0.990435 -0.00676245 0)
(0.998578 0.00900293 0)
(1.00305 0.00862015 0)
(0.99848 0.01267 0)
(1.00892 0.0273384 0)
(1.00969 0.0157457 0)
(1.00019 0.0164379 0)
(0.992015 0.0202273 0)
(1.00119 0.0191118 0)
(0.99359 0.0276129 0)
(1.00125 0.0217448 0)
(0.999048 0.0319154 0)
(1.00146 0.0215342 0)
(1.00187 0.0343791 0)
(1.00506 0.0271258 0)
(1.00495 0.037874 0)
(1.01141 0.0373175 0)
(1.01409 0.0421294 0)
(1.02133 0.0456919 0)
(1.02507 0.0460799 0)
(1.03087 0.051 0)
(1.03797 0.0479922 0)
(0.999035 -0.00670105 0)
(0.995252 -0.00028233 0)
(1.00883 0.0205026 0)
(1.001 0.0121438 0)
(0.998723 -0.00447744 0)
(0.996649 0.00978897 0)
(0.994343 -0.0074056 0)
(0.995545 0.00751502 0)
(1.00235 0.00857502 0)
(0.997628 0.0100905 0)
(1.00239 0.0256574 0)
(1.00961 0.0170124 0)
(1.00392 0.0197955 0)
(0.996313 0.0220638 0)
(1.00277 0.0189604 0)
(0.997966 0.0267145 0)
(1.00345 0.0200125 0)
(1.00137 0.0310069 0)
(1.00567 0.0210469 0)
(1.00422 0.0320579 0)
(1.00959 0.025537 0)
(1.00766 0.0340515 0)
(1.0139 0.0327929 0)
(1.01533 0.0369771 0)
(1.02144 0.0384968 0)
(1.02509 0.0393865 0)
(1.02916 0.0422228 0)
(1.03573 0.0407374 0)
(1.00091 -0.00551009 0)
(0.994129 -0.00176776 0)
(1.0026 0.0190211 0)
(1.00359 0.0131584 0)
(1.00121 -0.00312355 0)
(0.99936 0.0105054 0)
(0.998324 -0.00683741 0)
(0.993848 0.00660236 0)
(1.00145 0.00871404 0)
(0.997689 0.00821916 0)
(0.997791 0.0235649 0)
(1.00727 0.0169573 0)
(1.005 0.0208011 0)
(1.00109 0.0230641 0)
(1.00412 0.0197638 0)
(1.00244 0.0260937 0)
(1.00624 0.0188044 0)
(1.00381 0.0294402 0)
(1.00851 0.0203991 0)
(1.00632 0.0299099 0)
(1.01248 0.0235527 0)
(1.01046 0.0307389 0)
(1.01585 0.0286428 0)
(1.01671 0.0324596 0)
(1.02159 0.0325463 0)
(1.02485 0.033504 0)
(1.0281 0.03493 0)
(1.03335 0.034088 0)
(1.00196 -0.00457118 0)
(0.994054 -0.00159799 0)
(0.998004 0.0171254 0)
(1.0051 0.0121491 0)
(1.00163 -0.00176015 0)
(1.00197 0.0107246 0)
(1.00117 -0.00542783 0)
(0.993359 0.0069558 0)
(1.00139 0.00869336 0)
(0.998113 0.00753997 0)
(0.995894 0.0213391 0)
(1.005 0.0159507 0)
(1.00432 0.0207194 0)
(1.00485 0.0222718 0)
(1.0042 0.0205451 0)
(1.00605 0.0252092 0)
(1.00814 0.0183551 0)
(1.00704 0.0273666 0)
(1.01026 0.0195936 0)
(1.00849 0.0279258 0)
(1.01418 0.0214079 0)
(1.0127 0.0279227 0)
(1.01759 0.0246335 0)
(1.01763 0.0287371 0)
(1.02211 0.0273295 0)
(1.02406 0.028864 0)
(1.02764 0.0287793 0)
(1.03088 0.0286285 0)
(1.00203 -0.00359988 0)
(0.994879 -0.00104035 0)
(0.99579 0.0147733 0)
(1.00589 0.011066 0)
(1.00095 -0.000763127 0)
(1.0032 0.0105588 0)
(1.00257 -0.00330004 0)
(0.993847 0.00715531 0)
(1.00194 0.0088271 0)
(0.999246 0.00724655 0)
(0.996346 0.0190715 0)
(1.00394 0.0152247 0)
(1.00329 0.0195441 0)
(1.00741 0.0207428 0)
(1.00399 0.020245 0)
(1.00813 0.0243921 0)
(1.00904 0.0181352 0)
(1.00978 0.0253811 0)
(1.0117 0.0186084 0)
(1.01029 0.0258198 0)
(1.01513 0.0196113 0)
(1.01431 0.025036 0)
(1.01886 0.0213612 0)
(1.01828 0.024962 0)
(1.02243 0.0231631 0)
(1.02312 0.0245741 0)
(1.02697 0.0240079 0)
(1.02871 0.0238862 0)
(1.00159 -0.00294438 0)
(0.996265 0.000158525 0)
(0.99489 0.0126069 0)
(1.00615 0.00925854 0)
(1.0002 0.000454673 0)
(1.00323 0.00987692 0)
(1.00331 -0.001339 0)
(0.995122 0.0077209 0)
(1.00253 0.00849565 0)
(1.00071 0.00764465 0)
(0.997533 0.0168992 0)
(1.00398 0.0144107 0)
(1.00254 0.0187054 0)
(1.00892 0.018612 0)
(1.00423 0.0194748 0)
(1.00911 0.0227266 0)
(1.00938 0.0179174 0)
(1.01179 0.0233094 0)
(1.01302 0.0174338 0)
(1.01207 0.0235575 0)
(1.01571 0.0178997 0)
(1.01534 0.022493 0)
(1.01943 0.0184613 0)
(1.0187 0.0217674 0)
(1.02221 0.0194782 0)
(1.02218 0.021123 0)
(1.02565 0.0199887 0)
(1.02666 0.0202387 0)
(1.00084 -0.00229529 0)
(0.997449 0.00114017 0)
(0.995584 0.0103642 0)
(1.00583 0.00801885 0)
(0.999397 0.00163131 0)
(1.00329 0.00894006 0)
(1.00311 0.000366257 0)
(0.99686 0.00784058 0)
(1.00295 0.00830153 0)
(1.0018 0.00803595 0)
(0.999118 0.0149378 0)
(1.00425 0.0137771 0)
(1.00256 0.0174501 0)
(1.00968 0.0170203 0)
(1.005 0.017788 0)
(1.00989 0.020808 0)
(1.00933 0.017212 0)
(1.01304 0.0212709 0)
(1.01366 0.0163298 0)
(1.01377 0.0211153 0)
(1.01579 0.0165405 0)
(1.01612 0.0200604 0)
(1.01926 0.0164901 0)
(1.01896 0.0188934 0)
(1.02158 0.0168124 0)
(1.02131 0.0180471 0)
(1.02406 0.0169878 0)
(1.02463 0.0171191 0)
(1.00009 -0.00185025 0)
(0.998677 0.00199941 0)
(0.996624 0.00867883 0)
(1.00482 0.0067775 0)
(0.999135 0.00269474 0)
(1.00345 0.00795869 0)
(1.00289 0.00135072 0)
(0.998474 0.00807828 0)
(1.00287 0.00806507 0)
(1.00304 0.00836821 0)
(1.00038 0.0134399 0)
(1.00488 0.0128294 0)
(1.00312 0.0161882 0)
(1.00977 0.015587 0)
(1.00616 0.0160641 0)
(1.01022 0.0185884 0)
(1.0093 0.0160138 0)
(1.01314 0.0191535 0)
(1.01381 0.0151123 0)
(1.01468 0.0186795 0)
(1.01582 0.0150858 0)
(1.01655 0.0178514 0)
(1.0188 0.014846 0)
(1.01915 0.016623 0)
(1.02093 0.0147136 0)
(1.02093 0.0156699 0)
(1.02271 0.0146361 0)
(1.02332 0.0147588 0)
(0.999652 -0.00141354 0)
(0.999274 0.00241979 0)
(0.997695 0.00727982 0)
(1.00422 0.00605434 0)
(0.998945 0.00335791 0)
(1.00348 0.00696457 0)
(1.00292 0.00228018 0)
(0.999715 0.00804469 0)
(1.00291 0.00772767 0)
(1.00415 0.00844058 0)
(1.00147 0.0120248 0)
(1.00534 0.0118751 0)
(1.00352 0.0147878 0)
(1.0094 0.014394 0)
(1.00698 0.0146225 0)
(1.01044 0.0164702 0)
(1.00968 0.0146368 0)
(1.01303 0.0170041 0)
(1.01385 0.0137481 0)
(1.01521 0.0162242 0)
(1.01596 0.0134134 0)
(1.01686 0.0154906 0)
(1.01833 0.0132053 0)
(1.01904 0.0144839 0)
(1.02014 0.0129653 0)
(1.02041 0.0136361 0)
(1.02136 0.0128213 0)
(1.02199 0.0128943 0)
(0.999413 -0.00107617 0)
(0.999591 0.00268543 0)
(0.998641 0.00617344 0)
(1.00358 0.00539968 0)
(0.999138 0.00393617 0)
(1.00339 0.00596759 0)
(1.00263 0.0026086 0)
(1.00132 0.00797838 0)
(1.00329 0.00728273 0)
(1.00485 0.00862145 0)
(1.00264 0.0110786 0)
(1.00519 0.0109237 0)
(1.00367 0.0135472 0)
(1.00842 0.0128139 0)
(1.00723 0.013124 0)
(1.01062 0.0140686 0)
(1.01024 0.012795 0)
(1.01332 0.0146086 0)
(1.01411 0.0120895 0)
(1.01587 0.0140805 0)
(1.01635 0.0117662 0)
(1.01733 0.013657 0)
(1.01804 0.0118213 0)
(1.01873 0.013085 0)
(1.0192 0.0117874 0)
(1.01947 0.0124612 0)
(1.0198 0.0117112 0)
(1.02026 0.0118463 0)
(0.999324 -0.000688513 0)
(0.999681 0.00260163 0)
(0.999606 0.00518291 0)
(1.00292 0.00503552 0)
(0.999388 0.00418419 0)
(1.00367 0.00533399 0)
(1.00194 0.00256755 0)
(1.00239 0.00717811 0)
(1.00395 0.00710602 0)
(1.00484 0.00866169 0)
(1.00418 0.0106854 0)
(1.00525 0.0104177 0)
(1.00417 0.012231 0)
(1.00785 0.0113084 0)
(1.00701 0.0110934 0)
(1.01063 0.0114602 0)
(1.01008 0.0102938 0)
(1.0133 0.0118293 0)
(1.01362 0.0100944 0)
(1.01572 0.0119037 0)
(1.01608 0.0103908 0)
(1.01715 0.0121443 0)
(1.01765 0.0110504 0)
(1.01812 0.0122631 0)
(1.01849 0.0114703 0)
(1.01851 0.0120671 0)
(1.01881 0.0115489 0)
(1.01889 0.0116122 0)
(0.999351 -0.000346798 0)
(0.999867 0.00227045 0)
(1.00006 0.00449301 0)
(1.0025 0.00491544 0)
(0.999635 0.00382211 0)
(1.00389 0.0049992 0)
(1.00187 0.0026685 0)
(1.00263 0.00574697 0)
(1.00419 0.00691297 0)
(1.00461 0.008344 0)
(1.00513 0.0102468 0)
(1.006 0.0102366 0)
(1.00516 0.010913 0)
(1.00822 0.0102519 0)
(1.00719 0.00918989 0)
(1.01059 0.009216 0)
(1.00974 0.00795252 0)
(1.0125 0.00905513 0)
(1.01241 0.00804292 0)
(1.01425 0.00953484 0)
(1.01467 0.00893379 0)
(1.01567 0.0104172 0)
(1.01634 0.0101424 0)
(1.01673 0.0112286 0)
(1.01732 0.0110347 0)
(1.01735 0.0115888 0)
(1.01788 0.0113762 0)
(1.01796 0.0114461 0)
(0.999438 -8.52722e-05 0)
(1.00017 0.0019839 0)
(0.999881 0.00380212 0)
(1.00244 0.00480211 0)
(1.00023 0.00337066 0)
(1.00349 0.00452823 0)
(1.00237 0.0030064 0)
(1.00264 0.00453762 0)
(1.00377 0.00642339 0)
(1.00462 0.00772541 0)
(1.00518 0.00918361 0)
(1.00686 0.00971579 0)
(1.00625 0.00943463 0)
(1.00884 0.0092738 0)
(1.00793 0.00782345 0)
(1.01045 0.00769607 0)
(1.00972 0.006548 0)
(1.01147 0.00710319 0)
(1.01126 0.00666636 0)
(1.01241 0.00761572 0)
(1.01281 0.00764649 0)
(1.01366 0.0086682 0)
(1.01437 0.00887622 0)
(1.01492 0.00970105 0)
(1.01557 0.00982568 0)
(1.01593 0.0103122 0)
(1.01651 0.0102427 0)
(1.01695 0.0103842 0)
(0.999482 3.68972e-05 0)
(1.00045 0.00182627 0)
(0.999731 0.00323491 0)
(1.00228 0.00435669 0)
(1.00091 0.00307857 0)
(1.00297 0.00399072 0)
(1.00277 0.00315584 0)
(1.00288 0.00392673 0)
(1.00333 0.00565255 0)
(1.00481 0.00676521 0)
(1.00498 0.00777288 0)
(1.00716 0.00853935 0)
(1.00688 0.00800224 0)
(1.00894 0.00814967 0)
(1.00846 0.0069093 0)
(1.01006 0.00680413 0)
(1.00974 0.00589384 0)
(1.01072 0.00608824 0)
(1.01058 0.00583469 0)
(1.01124 0.00632661 0)
(1.01151 0.00646779 0)
(1.01228 0.00706266 0)
(1.01282 0.0072971 0)
(1.01355 0.00782418 0)
(1.01401 0.00795781 0)
(1.01465 0.00831793 0)
(1.01507 0.008269 0)
(1.01578 0.00842672 0)
(0.999503 7.46569e-05 0)
(1.00057 0.00170439 0)
(0.999836 0.00276193 0)
(1.00202 0.00368948 0)
(1.00134 0.00285416 0)
(1.0027 0.00346176 0)
(1.00286 0.00302375 0)
(1.00322 0.00361881 0)
(1.00325 0.00478912 0)
(1.00493 0.00570259 0)
(1.00491 0.0063721 0)
(1.00694 0.00704643 0)
(1.00693 0.00667297 0)
(1.00854 0.00685945 0)
(1.00844 0.00606327 0)
(1.00955 0.00602076 0)
(1.00957 0.00538021 0)
(1.01028 0.00543122 0)
(1.01027 0.00517583 0)
(1.01079 0.00541952 0)
(1.01096 0.00542126 0)
(1.01167 0.00574788 0)
(1.01199 0.00580867 0)
(1.01274 0.00611389 0)
(1.01298 0.00612595 0)
(1.01365 0.00635425 0)
(1.01384 0.0062692 0)
(1.01454 0.00638645 0)
(0.999535 9.23119e-05 0)
(1.00056 0.00150715 0)
(1.00004 0.00234768 0)
(1.0018 0.00303853 0)
(1.00148 0.00253489 0)
(1.00263 0.00295667 0)
(1.00279 0.0027021 0)
(1.00346 0.00322934 0)
(1.00339 0.00397237 0)
(1.00491 0.00467232 0)
(1.00494 0.0051235 0)
(1.00656 0.00562273 0)
(1.0067 0.00543922 0)
(1.008 0.00559187 0)
(1.00809 0.00511275 0)
(1.00904 0.00511275 0)
(1.00919 0.00465944 0)
(1.0099 0.00467767 0)
(1.00997 0.00440897 0)
(1.01053 0.00452877 0)
(1.01065 0.00441448 0)
(1.01131 0.0045814 0)
(1.01153 0.00452064 0)
(1.01219 0.00467885 0)
(1.01231 0.00461782 0)
(1.01287 0.00474178 0)
(1.01293 0.00465085 0)
(1.01347 0.0047177 0)
(0.99958 8.42263e-05 0)
(1.00052 0.00128198 0)
(1.00018 0.00192133 0)
(1.00166 0.00244713 0)
(1.00151 0.00213075 0)
(1.00259 0.00246166 0)
(1.00269 0.00226641 0)
(1.00354 0.00271699 0)
(1.00351 0.00317809 0)
(1.00479 0.00371051 0)
(1.00492 0.00398047 0)
(1.00622 0.00434107 0)
(1.00642 0.00424924 0)
(1.00752 0.00438375 0)
(1.00767 0.00406001 0)
(1.00855 0.00407494 0)
(1.00875 0.00372078 0)
(1.00948 0.00373269 0)
(1.0096 0.00346864 0)
(1.01017 0.00352653 0)
(1.01028 0.00335387 0)
(1.0109 0.00343042 0)
(1.01107 0.00330704 0)
(1.01166 0.00338513 0)
(1.01173 0.00329369 0)
(1.0122 0.00336736 0)
(1.0122 0.00328626 0)
(1.01261 0.00333658 0)
(0.999621 7.47596e-05 0)
(1.00047 0.000995509 0)
(1.00025 0.00147064 0)
(1.00155 0.0018552 0)
(1.00151 0.0016967 0)
(1.00251 0.00194632 0)
(1.00258 0.00181725 0)
(1.00352 0.00215222 0)
(1.00354 0.00245332 0)
(1.00461 0.00284888 0)
(1.00479 0.00299797 0)
(1.00592 0.00323303 0)
(1.00615 0.00319599 0)
(1.0071 0.00330831 0)
(1.00724 0.00310518 0)
(1.00806 0.00310527 0)
(1.00827 0.00284316 0)
(1.009 0.00282613 0)
(1.00913 0.00260444 0)
(1.00969 0.00259855 0)
(1.00979 0.00240737 0)
(1.01037 0.00238025 0)
(1.01053 0.00219806 0)
(1.0111 0.00215721 0)
(1.0112 0.0019976 0)
(1.01164 0.00195983 0)
(1.01163 0.00182175 0)
(1.01198 0.00178575 0)
(0.999651 7.45312e-05 0)
(1.00045 0.000632074 0)
(1.00028 0.000985023 0)
(1.00149 0.00119011 0)
(1.00154 0.00115014 0)
(1.00247 0.00126986 0)
(1.0025 0.00121061 0)
(1.0035 0.00135907 0)
(1.00357 0.00154572 0)
(1.00446 0.00176919 0)
(1.00463 0.00186292 0)
(1.00568 0.00196508 0)
(1.00598 0.00197114 0)
(1.00683 0.00203332 0)
(1.00693 0.00194846 0)
(1.00765 0.00192302 0)
(1.00784 0.001776 0)
(1.00854 0.00173299 0)
(1.00864 0.00160663 0)
(1.0091 0.0015703 0)
(1.00907 0.00144803 0)
(1.00949 0.00138374 0)
(1.00954 0.0012503 0)
(1.00999 0.00117206 0)
(1.01004 0.00105117 0)
(1.0104 0.000980967 0)
(1.01039 0.00087879 0)
(1.01073 0.00081858 0)
(0.999665 3.35986e-05 0)
(1.00045 0.000222129 0)
(1.00029 0.000360079 0)
(1.00142 0.000421769 0)
(1.0015 0.000410431 0)
(1.00236 0.000431843 0)
(1.00235 0.000403484 0)
(1.00338 0.00042798 0)
(1.00352 0.000480475 0)
(1.00433 0.000545777 0)
(1.00448 0.000577615 0)
(1.00549 0.000599617 0)
(1.00585 0.0006035 0)
(1.00666 0.000620562 0)
(1.00673 0.000597856 0)
(1.00737 0.00058222 0)