/*--------------------------------*- C++ -*----------------------------------*\
| =========                 |                                                 |
| \\      /  F ield         | OpenFOAM: The Open Source CFD Toolbox           |
|  \\    /   O peration     | Version:                                        |
|   \\  /    A nd           | Website:  www.openfoam.com                      |
|    \\/     M anipulation  |                                                 |
\*---------------------------------------------------------------------------*/
FoamFile
{
    version     2.0;
    format      ascii;
    class       volVectorField;
    location    "67";
    object      U;
}
// * * * * * * * * * * * * * * * * * * * * * * * * * * * * * * * * * * * * * //

dimensions      [0 1 -1 0 0 0 0];


internalField   nonuniform List<vector> 
1150
(
(0.854364 0.0214351 5.02668e-21)
(0.851957 0.00148583 -1.04159e-20)
(0.853135 -0.0174269 -3.46294e-20)
(0.856225 -0.0389504 -2.04786e-21)
(0.861476 -0.0575773 -6.63258e-21)
(0.870135 -0.078652 3.27027e-20)
(0.842201 0.0240904 -1.16857e-20)
(0.839443 0.00227214 -3.21343e-21)
(0.841096 -0.0184161 -4.65227e-20)
(0.845356 -0.0411338 -1.35898e-20)
(0.852364 -0.0608796 -1.2062e-19)
(0.828841 0.0271036 6.42183e-21)
(0.826308 0.00294355 3.30363e-20)
(0.828307 -0.0198158 5.75123e-20)
(0.999703 0.000125281 2.24738e-22)
(0.999336 0.0012682 -9.67299e-22)
(0.999027 0.00232556 1.61584e-21)
(0.998772 0.00316382 -1.07201e-21)
(0.998507 0.00393396 -4.62788e-22)
(0.998179 0.0043758 2.42111e-21)
(0.997802 0.00485724 -1.21547e-21)
(0.997661 0.00491786 -3.65608e-23)
(0.997562 0.00519426 -1.05097e-21)
(0.996742 0.005051 1.10538e-21)
(1.00392 0.0057601 6.61234e-23)
(1.00319 0.00425639 1.55304e-22)
(1.0023 0.00302713 2.98692e-22)
(1.00129 0.00221831 -7.43044e-22)
(1.00036 0.00171104 4.52851e-22)
(0.999599 0.00185475 -9.58857e-22)
(0.999115 0.0022023 1.26775e-21)
(0.998956 0.00341974 -1.01812e-21)
(0.99951 0.00463832 5.11042e-22)
(1.00158 0.0068581 -3.26814e-22)
(1.00359 0.0077071 -4.17357e-23)
(1.00555 0.00938936 5.97708e-22)
(1.0077 0.0110472 1.99372e-22)
(1.01015 0.0124343 -3.46815e-22)
(1.01283 0.0137531 -6.67563e-22)
(1.01574 0.0144466 1.62457e-21)
(1.01871 0.0150515 1.96203e-21)
(1.02161 0.0146099 -1.91977e-21)
(1.02446 0.0140065 1.05442e-21)
(1.02704 0.0116115 1.57621e-21)
(1.00304 -0.0019114 -1.34017e-22)
(1.00298 -0.00406021 5.54935e-23)
(1.00265 -0.00653341 -5.62209e-23)
(1.00194 -0.00894514 -1.15425e-21)
(1.00068 -0.0117804 1.14054e-21)
(0.998785 -0.0142148 -1.51648e-21)
(0.996306 -0.0172052 -1.25632e-21)
(0.992796 -0.0194243 -1.31906e-21)
(0.98752 -0.0220754 -1.52017e-21)
(0.983174 -0.0236025 -2.6917e-22)
(0.999055 0.00218799 -4.79764e-23)
(0.998132 0.00368743 4.53304e-22)
(0.997196 0.00535766 4.87026e-22)
(0.996236 0.00680776 -1.78809e-21)
(0.995374 0.00850458 -1.0349e-21)
(0.994501 0.00962467 1.99919e-21)
(0.993675 0.011267 -8.36287e-22)
(0.993717 0.0120065 6.27085e-23)
(0.995139 0.0132343 -1.56556e-21)
(0.994605 0.0137695 -1.14671e-22)
(1.00014 0.00155922 1.54644e-22)
(1.00053 -0.000550189 -1.08959e-21)
(1.00075 -0.0029386 1.67615e-21)
(1.00085 -0.00522649 9.18233e-22)
(1.00074 -0.00788627 6.84784e-22)
(1.00069 -0.00998899 -9.23615e-22)
(1.00066 -0.0126984 1.90745e-21)
(0.999904 -0.0141463 2.74015e-21)
(0.99757 -0.0162931 3.06937e-22)
(1.00064 -0.0169317 -1.95758e-22)
(0.998301 -0.00321898 1.86253e-22)
(0.99738 -0.00202357 2.84744e-22)
(0.996413 -0.000809561 -1.41223e-21)
(0.995326 0.000281586 7.73251e-22)
(0.994204 0.00169078 7.28092e-22)
(0.992863 0.00286169 -5.84005e-22)
(0.991661 0.00477666 -1.75425e-21)
(0.99137 0.00598019 -1.81868e-21)
(0.992258 0.00852253 1.82971e-21)
(0.986973 0.00958556 6.14915e-22)
(0.997138 0.00202038 -1.0852e-23)
(0.996154 0.00052689 1.54609e-22)
(0.995252 -0.000587375 4.79763e-22)
(0.994549 -0.00133109 8.79623e-22)
(0.994122 -0.00195766 1.41799e-21)
(0.994198 -0.00209059 -1.14621e-21)
(0.99475 -0.0026444 -1.6074e-21)
(0.995539 -0.00237079 -7.51086e-22)
(0.995789 -0.00307978 -2.51777e-21)
(1.00173 -0.0034722 -8.35866e-22)
(0.995581 0.00522139 1.09229e-22)
(0.996191 0.00589022 -4.79587e-22)
(0.996932 0.0061713 -6.02148e-22)
(0.997789 0.00618155 -1.71107e-21)
(0.99876 0.00588282 -2.52345e-21)
(0.9998 0.00514548 -1.02844e-21)
(1.00105 0.00446598 5.19624e-21)
(1.0023 0.00274936 1.48609e-21)
(1.00297 0.00201308 1.20085e-21)
(1.00066 -0.000616331 -3.31056e-21)
(0.994749 -0.000454019 -1.70289e-22)
(0.994711 -0.00239912 8.59512e-22)
(0.994487 -0.00398445 1.8257e-21)
(0.993994 -0.00530187 9.69012e-22)
(0.993229 -0.00625319 -1.99352e-21)
(0.99205 -0.00678692 2.9639e-21)
(0.99052 -0.00727609 -1.86451e-21)
(0.989038 -0.00707518 1.90755e-21)
(0.986779 -0.00725208 -3.16829e-22)
(0.98637 -0.00653357 1.97406e-21)
(0.991939 0.00665815 1.15601e-22)
(0.991392 0.00716583 -4.01513e-22)
(0.990877 0.00786267 -1.64037e-21)
(0.990646 0.00862958 1.97119e-21)
(0.990487 0.00924674 3.44923e-21)
(0.990684 0.00954523 -1.0741e-21)
(0.990922 0.00976842 -5.15265e-21)
(0.991438 0.00860563 7.53389e-22)
(0.992806 0.00839081 -1.08172e-21)
(0.993234 0.00548799 -5.99134e-21)
(0.990018 0.0068079 -4.14237e-23)
(0.990013 0.00473606 2.84288e-22)
(0.989953 0.00228644 1.96607e-21)
(0.989652 -9.73728e-05 -1.28996e-21)
(0.989356 -0.00277111 8.42134e-22)
(0.988629 -0.00487453 -1.33779e-21)
(0.987939 -0.00724004 3.68365e-21)
(0.986598 -0.00794179 -1.09688e-20)
(0.985029 -0.00853513 6.08614e-21)
(0.986281 -0.00722982 6.38203e-21)
(0.987888 0.00644758 3.9725e-22)
(0.988474 0.00652046 -4.54542e-22)
(0.988996 0.00709216 -3.5598e-21)
(0.989435 0.00756408 -1.54368e-21)
(0.989818 0.00887726 -4.13135e-21)
(0.990101 0.00951476 -7.41224e-21)
(0.99079 0.0117426 -6.8778e-21)
(0.992056 0.0112173 2.13844e-21)
(0.993278 0.0140059 -3.84868e-21)
(0.995962 0.0106371 1.12871e-20)
(0.985615 0.0067184 -3.22485e-22)
(0.985161 0.0045743 2.70859e-22)
(0.984635 0.00243404 6.28629e-22)
(0.984305 0.000372256 3.53406e-21)
(0.983813 -0.00215029 2.70058e-21)
(0.983425 -0.00445577 7.32298e-21)
(0.982854 -0.00821209 1.1416e-20)
(0.982564 -0.011331 2.3381e-21)
(0.982003 -0.0159273 -1.37103e-21)
(0.979797 -0.0188643 -2.15486e-20)
(0.982835 0.00757188 2.5498e-22)
(0.983062 0.0068976 -2.40536e-21)
(0.983332 0.00627294 1.23736e-21)
(0.983573 0.00555004 -8.59777e-22)
(0.984076 0.0054056 -1.00614e-21)
(0.984241 0.0045509 -3.38652e-21)
(0.984535 0.00597347 -1.36972e-20)
(0.984256 0.00485585 8.48364e-21)
(0.985709 0.00889819 1.05434e-20)
(0.985749 0.00592762 9.18776e-21)
(0.979796 0.00692703 -5.55825e-22)
(0.97965 0.00430055 3.70612e-21)
(0.979569 0.00183801 -2.25128e-21)
(0.979265 -0.000745822 3.08446e-21)
(0.979002 -0.00312059 1.20893e-21)
(0.978593 -0.00571846 -4.90011e-21)
(0.978791 -0.00933471 5.81034e-21)
(0.978691 -0.0122514 7.15731e-21)
(0.976741 -0.0178179 -1.34932e-20)
(0.980078 -0.0228028 -9.23087e-22)
(0.976096 0.00676185 -3.38035e-23)
(0.976134 0.00526924 -3.29588e-21)
(0.976266 0.00410039 7.82232e-21)
(0.976403 0.00247174 -5.14286e-21)
(0.976737 0.00166165 -1.04116e-21)
(0.977049 -0.00089281 4.88082e-21)
(0.97777 -0.00048769 1.128e-20)
(0.977007 -0.00458727 -7.47146e-21)
(0.979849 -4.58608e-05 1.31794e-20)
(0.974793 -0.00453542 2.4832e-21)
(0.972013 0.00624626 1.14435e-21)
(0.971768 0.00276898 -2.58778e-21)
(0.97151 -0.000228854 -1.08481e-20)
(0.971193 -0.00364074 6.9535e-21)
(0.971003 -0.00649895 9.67107e-22)
(0.97046 -0.010141 1.12294e-20)
(0.970371 -0.0131944 6.77551e-21)
(0.971671 -0.0162045 -1.08386e-20)
(0.96772 -0.0201336 -2.62819e-20)
(0.975837 -0.0242206 1.98026e-20)
(0.96718 0.00699203 -1.21116e-21)
(0.966803 0.00434821 3.27565e-21)
(0.966584 0.00220661 1.6368e-21)
(0.966384 -0.000519466 -3.91364e-21)
(0.966652 -0.00249839 9.75066e-22)
(0.966997 -0.00568592 5.18576e-21)
(0.967599 -0.00697774 4.53186e-21)
(0.967429 -0.0126707 8.77091e-21)
(0.973617 -0.0118798 4.26048e-20)
(0.964527 -0.0212633 -1.33934e-20)
(0.962331 0.0066357 3.59556e-22)
(0.962135 0.00201737 -3.65153e-21)
(0.961942 -0.00178865 3.92632e-22)
(0.96176 -0.00653007 -8.36466e-21)
(0.961636 -0.0105534 -1.50845e-20)
(0.961661 -0.015815 -1.95657e-20)
(0.962229 -0.0196709 2.24111e-21)
(0.962483 -0.0250127 2.62857e-21)
(0.957991 -0.0275289 -3.93872e-20)
(0.967084 -0.0335331 -1.41633e-20)
(0.956218 0.00770546 -8.4539e-22)
(0.955595 0.00360842 5.26053e-21)
(0.955121 0.000268375 3.1139e-21)
(0.95481 -0.00377925 1.17369e-20)
(0.954886 -0.00717398 1.31546e-20)
(0.954841 -0.0119356 -7.95264e-21)
(0.95533 -0.0139842 -3.43334e-20)
(0.95614 -0.0206848 -2.22362e-20)
(0.960719 -0.019708 -1.15062e-21)
(0.953288 -0.0306684 -1.38136e-20)
(0.949755 0.00771572 2.13256e-21)
(0.949389 0.00165679 1.80175e-21)
(0.949082 -0.00358522 -1.74086e-22)
(0.949001 -0.00997871 -1.50379e-20)
(0.949217 -0.0152089 1.33147e-20)
(0.949654 -0.0223377 4.42562e-21)
(0.950678 -0.0265639 3.70403e-20)
(0.950437 -0.0346031 8.80592e-21)
(0.949884 -0.0372692 4.36083e-20)
(0.95639 -0.0464909 3.52279e-20)
(0.942025 0.00935609 -2.85298e-22)
(0.941264 0.00334825 1.34111e-21)
(0.94043 -0.00147368 6.70547e-21)
(0.940332 -0.00788904 1.66248e-20)
(0.940621 -0.0128558 2.72881e-21)
(0.940615 -0.0195335 -6.87953e-21)
(0.94185 -0.0228031 -4.93846e-22)
(0.943879 -0.0317834 -1.30839e-20)
(0.946547 -0.0303761 -1.25585e-20)
(0.943712 -0.0440357 2.69246e-20)
(0.934442 0.00970679 -1.32499e-21)
(0.93396 0.00169096 2.24836e-21)
(0.933453 -0.0055738 -1.34364e-20)
(0.933735 -0.0143017 -6.76587e-21)
(0.934552 -0.0214339 -3.69495e-20)
(0.935144 -0.0305853 -5.98711e-21)
(0.936363 -0.0356165 -2.42832e-20)
(0.937432 -0.0463374 -8.76218e-21)
(0.940217 -0.0496636 -5.89554e-21)
(0.945396 -0.0617408 -7.64772e-20)
(0.925273 0.0117104 -3.5818e-22)
(0.924332 0.00358811 -6.07644e-21)
(0.923496 -0.0037883 -1.61418e-21)
(0.923632 -0.0130252 -8.60853e-21)
(0.924212 -0.0199034 -2.10626e-20)
(0.925496 -0.0295283 2.53239e-20)
(0.927718 -0.0343425 2.14344e-20)
(0.929513 -0.0453221 6.93358e-20)
(0.934293 -0.0462353 -2.37586e-20)
(0.934042 -0.0621066 5.15947e-20)
(0.915932 0.0123407 3.64252e-21)
(0.915226 0.00186405 -1.17511e-21)
(0.914662 -0.00798852 9.96415e-21)
(0.915232 -0.0201043 -1.10812e-20)
(0.916718 -0.0295104 2.08334e-20)
(0.917864 -0.041634 3.22959e-20)
(0.921141 -0.0491323 -1.32933e-20)
(0.924034 -0.0635145 -1.19747e-20)
(0.927 -0.0664893 2.61831e-20)
(0.936409 -0.0837072 1.24517e-21)
(0.904882 0.0145421 -2.95848e-21)
(0.903851 0.0034725 3.23568e-21)
(0.903182 -0.00687369 -3.86706e-21)
(0.903555 -0.0197088 3.75741e-20)
(0.905124 -0.0293787 -1.41823e-20)
(0.907549 -0.0425248 -1.56238e-20)
(0.911028 -0.0495583 -5.13946e-20)
(0.915301 -0.0637002 1.03687e-20)
(0.922811 -0.0675187 2.79804e-21)
(0.924692 -0.0825576 2.26365e-20)
(0.893745 0.0154463 1.67096e-22)
(0.892566 0.00161256 -7.40569e-21)
(0.892358 -0.0116731 4.63879e-22)
(0.893349 -0.0277818 -8.04454e-21)
(0.895374 -0.0403863 2.77684e-20)
(0.898542 -0.0566882 -7.65057e-20)
(0.903877 -0.0675713 2.4309e-20)
(0.909509 -0.0856187 -3.67312e-22)
(0.915477 -0.0911975 -3.54235e-20)
(0.930644 -0.112655 -8.93756e-20)
(0.881053 0.0177975 -5.94509e-22)
(0.879499 0.00295266 -4.07886e-22)
(0.879319 -0.0110612 8.5469e-21)
(0.880389 -0.0282579 1.30543e-21)
(0.883151 -0.041913 -1.54537e-20)
(0.887172 -0.0589929 1.09483e-19)
(0.893155 -0.069918 2.53325e-21)
(0.902316 -0.0885066 -5.78185e-20)
(0.91178 -0.095114 -2.47983e-20)
(0.867747 0.0190106 -2.97458e-21)
(0.865848 0.000702604 8.56185e-21)
(0.86629 -0.0168976 2.31363e-20)
(0.868057 -0.0374901 5.71444e-21)
(0.871689 -0.0550216 1.07173e-19)
(0.878095 -0.0757932 -1.22979e-19)
(0.885317 -0.0911382 -2.1397e-20)
(1.00078 0.0053988 0)
(1.00953 0.0051767 0)
(1.01726 0.00535987 0)
(1.01966 0.00547683 0)
(1.01863 0.00566991 0)
(1.01587 0.00563239 0)
(1.01085 0.0052994 0)
(1.0053 0.00480974 0)
(1.0022 0.00429586 0)
(1.00156 0.00390303 0)
(1.00162 0.00369186 0)
(1.0015 0.00362485 0)
(1.00117 0.00354421 0)
(1.00081 0.00338387 0)
(1.0005 0.00310484 0)
(1.00024 0.00274338 0)
(1.00004 0.00233286 0)
(0.999894 0.00193721 0)
(0.999804 0.00158449 0)
(0.999758 0.00128251 0)
(0.999752 0.0010396 0)
(0.999774 0.000843395 0)
(0.999814 0.000678723 0)
(0.999865 0.000533523 0)
(0.999918 0.00040477 0)
(0.999971 0.00029269 0)
(1.00002 0.000201059 0)
(1.00006 0.000124404 0)
(1.00009 5.90409e-05 0)
(1.00011 1.52134e-05 0)
(0.998565 0.00907659 0)
(0.991688 0.0119456 0)
(0.986867 0.0137115 0)
(0.986043 0.0137489 0)
(0.986504 0.0121967 0)
(0.987102 0.0100608 0)
(0.989931 0.00832218 0)
(0.994471 0.00697595 0)
(0.997536 0.00591735 0)
(0.998689 0.00499919 0)
(0.999131 0.00413697 0)
(0.999306 0.0031582 0)
(0.999249 0.002157 0)
(0.999181 0.00128158 0)
(0.999239 0.000696649 0)
(0.999421 0.000429276 0)
(0.999631 0.000386266 0)
(0.999815 0.000410844 0)
(0.999953 0.000406635 0)
(1.00004 0.000357857 0)
(1.00008 0.000272187 0)
(1.00008 0.000178724 0)
(1.00005 8.62254e-05 0)
(1.00002 2.67382e-06 0)
(0.99999 -6.74646e-05 0)
(0.999962 -0.000117049 0)
(0.999935 -0.000145367 0)
(0.999911 -0.000140174 0)
(0.999895 -9.74377e-05 0)
(0.999891 -3.44368e-05 0)
(1.03206 0.00943565 0)
(1.03162 0.00652945 0)
(1.01963 0.00363826 0)
(1.00157 0.00207215 0)
(0.989309 0.00185892 0)
(0.986402 0.00207588 0)
(0.986674 0.00204043 0)
(0.986633 0.00182561 0)
(0.988205 0.00179966 0)
(0.99118 0.0020669 0)
(0.993451 0.00234873 0)
(0.994407 0.00250545 0)
(0.994817 0.00260052 0)
(0.995323 0.00256319 0)
(0.996024 0.00235737 0)
(0.996717 0.00203783 0)
(0.997255 0.00167301 0)
(0.997668 0.00134601 0)
(0.998028 0.00110474 0)
(0.998382 0.000910229 0)
(0.998727 0.000735039 0)
(0.999044 0.000545524 0)
(0.999306 0.000329758 0)
(0.999516 0.000113559 0)
(0.999686 -7.213e-05 0)
(0.999821 -0.000203364 0)
(0.999929 -0.000266217 0)
(1.00001 -0.000267796 0)
(1.00008 -0.000212532 0)
(1.00012 -8.49754e-05 0)
(0.975791 -0.0257679 0)
(0.970863 -0.0269792 0)
(0.976935 -0.0262695 0)
(0.990987 -0.0232892 0)
(0.999963 -0.0191653 0)
(1.00046 -0.0146304 0)
(0.999571 -0.0106966 0)
(1.00074 -0.00768171 0)
(1.00115 -0.00607011 0)
(0.999683 -0.00580262 0)
(0.998081 -0.00618494 0)
(0.997586 -0.00631391 0)
(0.998116 -0.00580942 0)
(0.998881 -0.00488485 0)
(0.999238 -0.00396654 0)
(0.999145 -0.00336383 0)
(0.998919 -0.00311919 0)
(0.998756 -0.00308222 0)
(0.998709 -0.00306973 0)
(0.998775 -0.0029817 0)
(0.998945 -0.00280206 0)
(0.999185 -0.00255836 0)
(0.999444 -0.0023021 0)
(0.999684 -0.00207522 0)
(0.999873 -0.00186673 0)
(1 -0.00164389 0)
(1.00008 -0.00138997 0)
(1.00013 -0.00107951 0)
(1.00015 -0.000698384 0)
(1.00017 -0.00024597 0)
(1.00199 0.0158506 0)
(1.01461 0.0160008 0)
(1.02124 0.0145356 0)
(1.0183 0.0109451 0)
(1.01197 0.00772442 0)
(1.00675 0.005257 0)
(1.00215 0.00345472 0)
(0.997412 0.00189478 0)
(0.994167 0.000619106 0)
(0.993163 -8.61522e-05 0)
(0.993694 -0.00050003 0)
(0.995199 -0.000915921 0)
(0.996883 -0.00131318 0)
(0.998044 -0.0016804 0)
(0.998604 -0.00198997 0)
(0.998859 -0.00218658 0)
(0.999084 -0.0023109 0)
(0.999322 -0.00242125 0)
(0.999513 -0.00257528 0)
(0.999627 -0.00274902 0)
(0.999694 -0.00287363 0)
(0.999769 -0.00289978 0)
(0.99989 -0.00283213 0)
(1.00006 -0.00268244 0)
(1.00024 -0.00246102 0)
(1.00041 -0.00217827 0)
(1.00054 -0.0018291 0)
(1.00065 -0.00141798 0)
(1.00072 -0.000931584 0)
(1.00076 -0.00033309 0)
(0.994938 -0.0184377 0)
(0.978721 -0.0192601 0)
(0.969816 -0.0211537 0)
(0.977739 -0.0226946 0)
(0.991252 -0.0238905 0)
(0.998202 -0.0234242 0)
(0.998974 -0.0212359 0)
(0.998147 -0.0182834 0)
(0.997483 -0.0156607 0)
(0.997429 -0.0136547 0)
(0.997923 -0.0118565 0)
(0.998392 -0.0102798 0)
(0.998402 -0.00917528 0)
(0.997959 -0.00864753 0)
(0.997396 -0.00838004 0)
(0.997144 -0.00805478 0)
(0.997301 -0.00754298 0)
(0.997773 -0.00690313 0)
(0.998386 -0.00626726 0)
(0.999003 -0.00571397 0)
(0.999537 -0.00527367 0)
(0.999971 -0.00491428 0)
(1.0003 -0.00458161 0)
(1.00055 -0.00422427 0)
(1.00075 -0.00380174 0)
(1.0009 -0.0032991 0)
(1.001 -0.00272596 0)
(1.00106 -0.0020726 0)
(1.0011 -0.00132034 0)
(1.00112 -0.000459536 0)
(0.988931 0.0131083 0)
(0.996368 0.013835 0)
(0.997256 0.014606 0)
(0.993909 0.0124709 0)
(0.997073 0.00775769 0)
(1.00565 0.00273493 0)
(1.01169 -0.00069621 0)
(1.01154 -0.00251378 0)
(1.00712 -0.00270761 0)
(1.00284 -0.00197781 0)
(1.00117 -0.00137201 0)
(1.00076 -0.00132128 0)
(1.00001 -0.00187402 0)
(0.998967 -0.00288377 0)
(0.998258 -0.00399008 0)
(0.997947 -0.00490779 0)
(0.99783 -0.00556257 0)
(0.99785 -0.0059666 0)
(0.998039 -0.00609014 0)
(0.998437 -0.00595552 0)
(0.99902 -0.00565207 0)
(0.999674 -0.00526076 0)
(1.00029 -0.00483574 0)
(1.00081 -0.00441116 0)
(1.00119 -0.00395219 0)
(1.00146 -0.0034277 0)
(1.00165 -0.0028359 0)
(1.00178 -0.00216753 0)
(1.00186 -0.00139493 0)
(1.00188 -0.000487185 0)
(0.999937 -0.0033304 0)
(0.984736 -0.00253167 0)
(0.966106 -0.00188124 0)
(0.958255 -0.00048484 0)
(0.964594 0.000649939 0)
(0.976177 0.000498208 0)
(0.985063 -0.000803222 0)
(0.991327 -0.00278073 0)
(0.996788 -0.00463259 0)
(1.0003 -0.00549029 0)
(1.00096 -0.00565638 0)
(1.00016 -0.00595976 0)
(0.999469 -0.00642441 0)
(0.999493 -0.0066431 0)
(1.00016 -0.00665434 0)
(1.00089 -0.0066459 0)
(1.00125 -0.00677338 0)
(1.00118 -0.00702921 0)
(1.00092 -0.00725579 0)
(1.00071 -0.0073371 0)
(1.00066 -0.00718752 0)
(1.00083 -0.00679339 0)
(1.00116 -0.00623047 0)
(1.00153 -0.00557025 0)
(1.00184 -0.00486972 0)
(1.00207 -0.00414561 0)
(1.00222 -0.00338741 0)
(1.00231 -0.0025596 0)
(1.00236 -0.00161347 0)
(1.00235 -0.000551965 0)
(1.00312 -0.00227671 0)
(1.00509 -0.00415106 0)
(1.00098 -0.00426609 0)
(0.994885 -0.00190561 0)
(0.992335 0.000957377 0)
(0.99609 0.00167023 0)
(1.00175 0.000564086 0)
(1.00373 -0.000280461 0)
(1.00238 -0.000601531 0)
(1.00043 -0.00147348 0)
(0.998295 -0.00298703 0)
(0.995979 -0.00430442 0)
(0.994702 -0.00506557 0)
(0.994988 -0.00529494 0)
(0.996158 -0.00519801 0)
(0.997538 -0.00502108 0)
(0.998796 -0.00496328 0)
(0.999783 -0.00511 0)
(1.00044 -0.00543311 0)
(1.00084 -0.00576958 0)
(1.00109 -0.00600114 0)
(1.00132 -0.00604667 0)
(1.0016 -0.00583323 0)
(1.00192 -0.00538498 0)
(1.00226 -0.00479372 0)
(1.00255 -0.00411616 0)
(1.00279 -0.00337139 0)
(1.00296 -0.00255877 0)
(1.00307 -0.00161925 0)
(1.00309 -0.000552423 0)
(0.984924 -0.00489453 0)
(0.984523 -0.00402034 0)
(0.987393 0.000419398 0)
(0.990786 0.00640477 0)
(0.989176 0.0123532 0)
(0.983488 0.0154354 0)
(0.981808 0.0146667 0)
(0.987058 0.0110099 0)
(0.992319 0.00715309 0)
(0.994104 0.00372166 0)
(0.994373 0.00026176 0)
(0.994582 -0.00289276 0)
(0.994876 -0.00524324 0)
(0.995288 -0.00685012 0)
(0.995755 -0.00793298 0)
(0.996359 -0.0085702 0)
(0.997287 -0.00878347 0)
(0.998507 -0.00864902 0)
(0.999767 -0.00832793 0)
(1.00087 -0.00800522 0)
(1.00171 -0.00771139 0)
(1.00229 -0.00738157 0)
(1.00267 -0.00693762 0)
(1.00294 -0.0063453 0)
(1.00314 -0.00562452 0)
(1.00329 -0.00481071 0)
(1.0034 -0.00393226 0)
(1.00348 -0.00296564 0)
(1.00352 -0.00184541 0)
(1.00351 -0.000620374 0)
(1.00015 0.00588242 0)
(1.00893 0.00287303 0)
(1.01334 -0.000681233 0)
(1.01017 -0.00463057 0)
(1.00088 -0.00569317 0)
(0.990821 -0.00496284 0)
(0.985494 -0.00441051 0)
(0.985645 -0.00502872 0)
(0.98803 -0.00621664 0)
(0.989491 -0.00670191 0)
(0.990227 -0.00633426 0)
(0.991873 -0.00580417 0)
(0.994438 -0.00570141 0)
(0.99657 -0.0059735 0)
(0.997798 -0.00655098 0)
(0.998359 -0.0073528 0)
(0.998707 -0.00808578 0)
(0.99919 -0.00844493 0)
(0.999933 -0.00845147 0)
(1.00082 -0.00821964 0)
(1.00171 -0.00784738 0)
(1.00248 -0.00740589 0)
(1.00308 -0.00688611 0)
(1.00351 -0.00627308 0)
(1.0038 -0.00556908 0)
(1.00399 -0.00478769 0)
(1.00411 -0.00393436 0)
(1.0042 -0.00298155 0)
(1.00424 -0.00186338 0)
(1.00424 -0.000628238 0)
(0.984048 -0.00493907 0)
(0.981996 -0.0031993 0)
(0.987412 -0.00258345 0)
(0.99982 -0.00373514 0)
(1.0068 -0.004573 0)
(0.999709 -0.00341326 0)
(0.987981 -0.000935415 0)
(0.983074 -0.000203704 0)
(0.985207 -0.00216617 0)
(0.988479 -0.00566226 0)
(0.989959 -0.00884559 0)
(0.990766 -0.0104848 0)
(0.992144 -0.0108023 0)
(0.994234 -0.0105345 0)
(0.996181 -0.0103464 0)
(0.997643 -0.0103854 0)
(0.998731 -0.010602 0)
(0.999631 -0.010816 0)
(1.00046 -0.0108113 0)
(1.00128 -0.0105055 0)
(1.0021 -0.00997961 0)
(1.00285 -0.0092885 0)
(1.00349 -0.00846846 0)
(1.00399 -0.00756414 0)
(1.00433 -0.00660031 0)
(1.00454 -0.00559872 0)
(1.00464 -0.00456453 0)
(1.0047 -0.00343048 0)
(1.0047 -0.00211712 0)
(1.00469 -0.000707992 0)
(1.00324 0.0120121 0)
(1.00145 0.00739468 0)
(0.990727 0.00282162 0)
(0.983491 -0.00340389 0)
(0.985177 -0.0104959 0)
(0.989792 -0.0155944 0)
(0.989705 -0.0164099 0)
(0.985813 -0.0136166 0)
(0.982931 -0.0102003 0)
(0.982572 -0.00827716 0)
(0.984951 -0.00789376 0)
(0.988759 -0.00883189 0)
(0.991874 -0.0102209 0)
(0.993705 -0.0113834 0)
(0.995065 -0.0120372 0)
(0.996653 -0.0122072 0)
(0.998413 -0.0120118 0)
(1.00005 -0.0116538 0)
(1.00137 -0.0112788 0)
(1.00239 -0.0108629 0)
(1.00318 -0.0103071 0)
(1.00383 -0.00960196 0)
(1.00435 -0.00877228 0)
(1.00477 -0.00783318 0)
(1.00508 -0.00681861 0)
(1.00528 -0.00576322 0)
(1.00537 -0.00468364 0)
(1.00541 -0.00351953 0)
(1.00542 -0.00218008 0)
(1.00542 -0.000732411 0)
(0.974647 -0.021004 0)
(0.971818 -0.0207437 0)
(0.976141 -0.0171361 0)
(0.984689 -0.0143409 0)
(0.991288 -0.0136897 0)
(0.99281 -0.0160829 0)
(0.991682 -0.0198984 0)
(0.990948 -0.0222605 0)
(0.991055 -0.0226158 0)
(0.991484 -0.0213342 0)
(0.991591 -0.019131 0)
(0.991639 -0.0169926 0)
(0.992712 -0.0158803 0)
(0.993945 -0.0158323 0)
(0.994964 -0.0161175 0)
(0.996061 -0.0162273 0)
(0.997503 -0.0158926 0)
(0.999201 -0.0151968 0)
(1.0009 -0.0143099 0)
(1.00235 -0.0133612 0)
(1.0035 -0.0123869 0)
(1.00437 -0.0113631 0)
(1.005 -0.010259 0)
(1.00543 -0.0090854 0)
(1.00572 -0.00785574 0)
(1.00587 -0.00658764 0)
(1.00591 -0.00531733 0)
(1.00588 -0.00397337 0)
(1.00587 -0.00244688 0)
(1.00585 -0.000818213 0)
(0.992671 0.0132173 0)
(0.998068 0.0106068 0)
(0.989641 0.00566588 0)
(0.976291 0.000653152 0)
(0.971121 -0.00359255 0)
(0.974511 -0.0064688 0)
(0.979922 -0.00837536 0)
(0.982841 -0.0104091 0)
(0.983226 -0.012983 0)
(0.984056 -0.0156518 0)
(0.986605 -0.0177912 0)
(0.990122 -0.0184559 0)
(0.99277 -0.0182332 0)
(0.994468 -0.0177011 0)
(0.995881 -0.0175065 0)
(0.997245 -0.0173547 0)
(0.9987 -0.0170446 0)
(1.00021 -0.0164248 0)
(1.00169 -0.0154915 0)
(1.00309 -0.0143828 0)
(1.00429 -0.0131978 0)
(1.00523 -0.0119535 0)
(1.00592 -0.0106861 0)
(1.00639 -0.00939926 0)
(1.00666 -0.00808352 0)
(1.00677 -0.00674483 0)
(1.00674 -0.00541618 0)
(1.00664 -0.00405247 0)
(1.00661 -0.00251598 0)
(1.00659 -0.000843863 0)
(0.975988 -0.028722 0)
(0.965098 -0.0322409 0)
(0.96496 -0.0290813 0)
(0.974407 -0.0270948 0)
(0.981067 -0.0272124 0)
(0.983489 -0.0280817 0)
(0.984516 -0.0273449 0)
(0.985898 -0.02484 0)
(0.987983 -0.0226361 0)
(0.989765 -0.02134 0)
(0.990912 -0.0204892 0)
(0.992425 -0.0206988 0)
(0.99409 -0.0213142 0)
(0.995698 -0.0216003 0)
(0.99716 -0.0213664 0)
(0.998695 -0.0208014 0)
(1.0002 -0.0200441 0)
(1.00154 -0.0190791 0)
(1.00275 -0.0179296 0)
(1.00388 -0.0166144 0)
(1.00489 -0.0151589 0)
(1.00578 -0.0136406 0)
(1.00648 -0.0120941 0)
(1.00698 -0.0105387 0)
(1.00728 -0.00898614 0)
(1.00739 -0.00743213 0)
(1.00733 -0.00591627 0)
(1.00715 -0.00441207 0)
(1.00709 -0.00273905 0)
(1.00704 -0.000913885 0)
(0.982821 0.0050711 0)
(0.995658 0.00577582 0)
(0.990952 0.00398161 0)
(0.975748 0.000212333 0)
(0.969437 -0.0032675 0)
(0.974934 -0.0085502 0)
(0.983008 -0.0138392 0)
(0.985753 -0.0175898 0)
(0.984956 -0.0191836 0)
(0.985512 -0.0202344 0)
(0.987507 -0.0213862 0)
(0.988936 -0.0220988 0)
(0.990307 -0.0223024 0)
(0.99253 -0.022522 0)
(0.995361 -0.0223128 0)
(0.998208 -0.0216243 0)
(1.00069 -0.0207108 0)
(1.00262 -0.0196514 0)
(1.00408 -0.0184512 0)
(1.00517 -0.0171009 0)
(1.00606 -0.0156283 0)
(1.00681 -0.0140607 0)
(1.00741 -0.0124344 0)
(1.00786 -0.010801 0)
(1.00814 -0.00916489 0)
(1.00824 -0.00752951 0)
(1.00816 -0.00593789 0)
(1.00793 -0.00442747 0)
(1.00785 -0.00277458 0)
(1.00778 -0.000925778 0)
(0.974677 -0.0297673 0)
(0.960719 -0.0380157 0)
(0.955991 -0.0375319 0)
(0.961802 -0.0345822 0)
(0.964989 -0.0325348 0)
(0.966782 -0.0315688 0)
(0.972881 -0.0324642 0)
(0.980741 -0.0337794 0)
(0.985575 -0.0338476 0)
(0.987806 -0.0328062 0)
(0.990408 -0.0317026 0)
(0.993508 -0.0309586 0)
(0.995411 -0.030528 0)
(0.996424 -0.0295992 0)
(0.997812 -0.0281842 0)
(0.999899 -0.0264189 0)
(1.00212 -0.0244453 0)
(1.00409 -0.0224817 0)
(1.0056 -0.0206311 0)
(1.00667 -0.0188556 0)
(1.00743 -0.0171043 0)
(1.00796 -0.0153228 0)
(1.00837 -0.0135149 0)
(1.00867 -0.0116971 0)
(1.00884 -0.00988069 0)
(1.00888 -0.00806946 0)
(1.00876 -0.00630671 0)
(1.00846 -0.00468252 0)
(1.00833 -0.00293448 0)
(1.00822 -0.000973281 0)
(0.974146 -0.014711 0)
(0.990352 -0.0140865 0)
(0.993015 -0.0145177 0)
(0.983737 -0.0161405 0)
(0.975579 -0.017415 0)
(0.974342 -0.0204135 0)
(0.978877 -0.0243411 0)
(0.983648 -0.027237 0)
(0.986091 -0.0285011 0)
(0.987124 -0.0287681 0)
(0.987817 -0.0280337 0)
(0.989089 -0.027445 0)
(0.991641 -0.0271238 0)
(0.994859 -0.0270706 0)
(0.997805 -0.0267193 0)
(1.0003 -0.0258298 0)
(1.00249 -0.0244662 0)
(1.00448 -0.0227801 0)
(1.00618 -0.0209141 0)
(1.00753 -0.019032 0)
(1.00848 -0.0171802 0)
(1.0091 -0.0153524 0)
(1.00948 -0.0135338 0)
(1.00968 -0.0117139 0)
(1.00977 -0.00988949 0)
(1.00975 -0.00805157 0)
(1.00959 -0.00624057 0)
(1.00926 -0.00462271 0)
(1.00905 -0.00291709 0)
(1.00891 -0.000967372 0)
(0.961876 -0.0324031 0)
(0.954691 -0.0411848 0)
(0.956937 -0.0434333 0)
(0.96239 -0.042515 0)
(0.960672 -0.0401434 0)
(0.957994 -0.0377678 0)
(0.964601 -0.0382185 0)
(0.976612 -0.0403566 0)
(0.985431 -0.0417527 0)
(0.989788 -0.0418974 0)
(0.992274 -0.0413401 0)
(0.994035 -0.0399365 0)
(0.995383 -0.0377586 0)
(0.997143 -0.0350856 0)
(0.99975 -0.0323997 0)
(1.00238 -0.0299377 0)
(1.00451 -0.0275995 0)
(1.00617 -0.0252946 0)
(1.00755 -0.023002 0)
(1.00869 -0.0207297 0)
(1.00955 -0.0185109 0)
(1.01013 -0.0163799 0)
(1.01046 -0.0143268 0)
(1.01058 -0.0123342 0)
(1.01056 -0.0103777 0)
(1.01044 -0.00842209 0)
(1.01022 -0.00648651 0)
(1.00983 -0.00477244 0)
(1.0095 -0.00300154 0)
(1.00932 -0.000992519 0)
(0.966976 -0.0245419 0)
(0.978122 -0.0258829 0)
(0.97921 -0.0284595 0)
(0.978967 -0.0339238 0)
(0.977095 -0.037838 0)
(0.973462 -0.0390819 0)
(0.972727 -0.03839 0)
(0.977622 -0.0373469 0)
(0.98425 -0.0370927 0)
(0.988296 -0.0365659 0)
(0.990516 -0.0356495 0)
(0.992903 -0.0350697 0)
(0.995682 -0.0344723 0)
(0.99863 -0.0332776 0)
(1.00137 -0.0315179 0)
(1.00381 -0.029366 0)
(1.00582 -0.0271417 0)
(1.0074 -0.0249615 0)
(1.00864 -0.0227711 0)
(1.00965 -0.0205652 0)
(1.01045 -0.0183806 0)
(1.01102 -0.0162472 0)
(1.01135 -0.0141802 0)
(1.01147 -0.0121833 0)
(1.01143 -0.0102353 0)
(1.01127 -0.00829004 0)
(1.01103 -0.00634317 0)
(1.01063 -0.00463393 0)
(1.01018 -0.00291865 0)
(1.00996 -0.000969037 0)
(0.954484 -0.0451941 0)
(0.953618 -0.0510137 0)
(0.957639 -0.0508591 0)
(0.961191 -0.0480238 0)
(0.962383 -0.0462839 0)
(0.963388 -0.0465643 0)
(0.968272 -0.0477165 0)
(0.977035 -0.0491485 0)
(0.984895 -0.049696 0)
(0.989982 -0.0487978 0)
(0.993166 -0.0470388 0)
(0.995169 -0.0445625 0)
(0.997196 -0.0414321 0)
(0.999926 -0.0383508 0)
(1.00302 -0.0352946 0)
(1.00572 -0.0323975 0)
(1.00781 -0.029642 0)
(1.00929 -0.026975 0)
(1.01033 -0.0243868 0)
(1.01109 -0.0218779 0)
(1.01163 -0.0194257 0)
(1.012 -0.0170634 0)
(1.0122 -0.0148025 0)
(1.01223 -0.012651 0)
(1.01211 -0.0105833 0)
(1.01189 -0.00854701 0)
(1.01161 -0.00650932 0)
(1.01118 -0.00469792 0)
(1.01059 -0.00293047 0)
(1.01032 -0.000975883 0)
(0.955792 -0.0343981 0)
(0.966104 -0.040682 0)
(0.969107 -0.0466552 0)
(0.972939 -0.0533513 0)
(0.974602 -0.0562808 0)
(0.97231 -0.0543432 0)
(0.973073 -0.0507052 0)
(0.98005 -0.0485479 0)
(0.987952 -0.0474753 0)
(0.992633 -0.0463505 0)
(0.995259 -0.0450196 0)
(0.997765 -0.0433564 0)
(1.00043 -0.0413917 0)
(1.00284 -0.0385804 0)
(1.00511 -0.0353937 0)
(1.00729 -0.0321938 0)
(1.00916 -0.0291882 0)
(1.0106 -0.0264173 0)
(1.01162 -0.0238372 0)
(1.0123 -0.0213742 0)
(1.01272 -0.0190076 0)
(1.01295 -0.016718 0)
(1.01304 -0.0145096 0)
(1.013 -0.0123948 0)
(1.01284 -0.0103581 0)
(1.0126 -0.00835572 0)
(1.01232 -0.00633282 0)
(1.01192 -0.00450915 0)
(1.01121 -0.00279501 0)
(1.01091 -0.000940261 0)
(0.948209 -0.0606945 0)
(0.949266 -0.0612818 0)
(0.952055 -0.0581601 0)
(0.957336 -0.056472 0)
(0.963197 -0.0579548 0)
(0.966282 -0.0596567 0)
(0.96981 -0.0593604 0)
(0.97683 -0.057853 0)
(0.985169 -0.0557957 0)
(0.991762 -0.0534577 0)
(0.995686 -0.0505197 0)
(0.998208 -0.0473102 0)
(1.00103 -0.0438544 0)
(1.00432 -0.040643 0)
(1.00717 -0.037413 0)
(1.0093 -0.0342418 0)
(1.01092 -0.0311626 0)
(1.01214 -0.0281288 0)
(1.01306 -0.025185 0)
(1.01365 -0.0224058 0)
(1.01394 -0.0197775 0)
(1.01401 -0.0172974 0)
(1.01392 -0.0149538 0)
(1.01373 -0.0127329 0)
(1.01346 -0.0106118 0)
(1.01313 -0.00854614 0)
(1.0128 -0.00646182 0)
(1.01239 -0.00452644 0)
(1.01157 -0.00275883 0)
(1.01123 -0.000935155 0)
(0.949252 -0.0535147 0)
(0.961617 -0.0640108 0)
(0.966033 -0.0717272 0)
(0.969251 -0.0739941 0)
(0.972341 -0.072447 0)
(0.974642 -0.0690119 0)
(0.978273 -0.0653745 0)
(0.984483 -0.0617488 0)
(0.991554 -0.0587545 0)
(0.996743 -0.0560905 0)
(0.999843 -0.0532567 0)
(1.00248 -0.0498411 0)
(1.00505 -0.0461671 0)
(1.00719 -0.0419346 0)
(1.00918 -0.0377638 0)
(1.01098 -0.0339864 0)
(1.0124 -0.0305612 0)
(1.01347 -0.0274252 0)
(1.01424 -0.0245282 0)
(1.01472 -0.0217927 0)
(1.01494 -0.0192259 0)
(1.01493 -0.0168129 0)
(1.01476 -0.0145358 0)
(1.01448 -0.0123805 0)
(1.01414 -0.0103211 0)
(1.01376 -0.0083152 0)
(1.01341 -0.00627376 0)
(1.01303 -0.00432095 0)
(1.01215 -0.00259682 0)
(1.01177 -0.000891851 0)
(0.937022 -0.0771545 0)
(0.940518 -0.0745214 0)
(0.947688 -0.0716474 0)
(0.957783 -0.0722973 0)
(0.966685 -0.0729321 0)
(0.971332 -0.0715221 0)
(0.975274 -0.0684902 0)
(0.981695 -0.0649677 0)
(0.98952 -0.061504 0)
(0.995634 -0.0580949 0)
(0.999539 -0.0543676 0)
(1.00268 -0.0506681 0)
(1.00597 -0.0467137 0)
(1.00934 -0.0428955 0)
(1.01177 -0.039157 0)
(1.01326 -0.0355341 0)
(1.01425 -0.0321069 0)
(1.015 -0.0288109 0)
(1.01553 -0.0256255 0)
(1.01586 -0.0226352 0)
(1.01595 -0.0198475 0)
(1.01583 -0.0172622 0)
(1.01554 -0.0148644 0)
(1.01513 -0.0126232 0)
(1.01468 -0.0105023 0)
(1.01421 -0.00845451 0)
(1.01379 -0.00637956 0)
(1.0134 -0.00432319 0)