/*--------------------------------*- C++ -*----------------------------------*\
| =========                 |                                                 |
| \\      /  F ield         | OpenFOAM: The Open Source CFD Toolbox           |
|  \\    /   O peration     | Version:                                        |
|   \\  /    A nd           | Website:  www.openfoam.com                      |
|    \\/     M anipulation  |                                                 |
\*---------------------------------------------------------------------------*/
FoamFile
{
    version     2.0;
    format      ascii;
    class       volScalarField;
    location    "92.5";
    object      p;
}
// * * * * * * * * * * * * * * * * * * * * * * * * * * * * * * * * * * * * * //

dimensions      [0 2 -2 0 0 0 0];


internalField   nonuniform List<scalar> 
1150
(
0.204319
0.209812
0.213213
0.214118
0.212479
0.208143
0.214917
0.220757
0.223746
0.223687
0.220653
0.225963
0.231866
0.234409
0.0641736
0.0645383
0.0648379
0.0650783
0.0652598
0.0653922
0.0654751
0.0655184
0.0655244
0.0655054
0.0594057
0.0598584
0.0603564
0.0608956
0.0614706
0.0620747
0.0627061
0.0633556
0.0640129
0.064668
0.0619311
0.0622293
0.0625021
0.0627604
0.0630106
0.0632685
0.0635256
0.0638013
0.0642301
0.0645497
0.0623282
0.0628692
0.0634138
0.0639508
0.0644858
0.0649992
0.0654939
0.0659525
0.0663929
0.0667861
0.0643074
0.0647832
0.0652096
0.0655861
0.0659026
0.0661694
0.0663876
0.066572
0.0667486
0.0669018
0.0639653
0.0643387
0.0647256
0.0651133
0.0655377
0.065959
0.0664213
0.0668828
0.0673493
0.0678688
0.0658267
0.0666417
0.0674405
0.0682277
0.0689696
0.0696726
0.0702798
0.0707988
0.0711992
0.0714775
0.0665179
0.0671421
0.0677133
0.0682061
0.0686313
0.0689834
0.069301
0.0695898
0.0699691
0.0704485
0.0679289
0.0682954
0.0686869
0.0691392
0.0696499
0.0702584
0.0708995
0.0716899
0.0723885
0.0732798
0.0696218
0.0706455
0.0716437
0.07263
0.0735874
0.0744772
0.0752133
0.0758892
0.0764911
0.0773018
0.0716272
0.0726675
0.0736342
0.0744535
0.0751324
0.0756729
0.0760809
0.076448
0.0767133
0.0776638
0.0733439
0.0739234
0.0746006
0.0752941
0.0760851
0.0769878
0.0779405
0.0790444
0.0800583
0.0814103
0.07609
0.0773017
0.0785348
0.0797554
0.0809439
0.0821097
0.0831106
0.0840248
0.0844585
0.0854691
0.0788797
0.0801726
0.0818014
0.0829191
0.0839544
0.0848779
0.0857104
0.0865948
0.0872495
0.0884712
0.0819103
0.0831058
0.0842851
0.0854949
0.0866412
0.0879646
0.0890844
0.0905391
0.0914945
0.0927584
0.0853247
0.0866173
0.0879758
0.0893694
0.0906059
0.0919404
0.0928791
0.0941273
0.0946691
0.0960853
0.0894431
0.0910444
0.0925809
0.0941084
0.0953754
0.0968579
0.0978143
0.0994601
0.100289
0.102167
0.0937997
0.0954869
0.097253
0.0988787
0.10028
0.101781
0.10283
0.104173
0.104644
0.106111
0.0985221
0.100353
0.102143
0.103653
0.105278
0.106884
0.107812
0.109572
0.110068
0.112333
0.103717
0.10557
0.107667
0.109615
0.111116
0.112814
0.113886
0.115626
0.116088
0.118167
0.109699
0.111854
0.113713
0.116339
0.117677
0.119456
0.120196
0.122078
0.121744
0.124111
0.116184
0.118462
0.120995
0.123146
0.124624
0.126378
0.127018
0.128727
0.128483
0.130536
0.123267
0.125889
0.128326
0.130734
0.132225
0.133983
0.134377
0.136144
0.134981
0.137173
0.130933
0.133624
0.136775
0.138944
0.140385
0.142026
0.142103
0.143401
0.142086
0.143178
0.13944
0.142369
0.145794
0.147947
0.14934
0.150812
0.150537
0.151501
0.149125
0.150001
0.148616
0.151841
0.15542
0.15762
0.158858
0.159978
0.159147
0.159285
0.156144
0.155106
0.158482
0.162011
0.165826
0.168053
0.169103
0.169817
0.168416
0.167449
0.163187
0.160436
0.169038
0.172924
0.176831
0.179044
0.179836
0.179819
0.177581
0.175195
0.169298
0.164015
0.180396
0.184695
0.1887
0.190787
0.191247
0.190343
0.187153
0.182813
0.175594
0.192619
0.197445
0.20132
0.203045
0.202763
0.200441
0.195677
0.0654523
0.0654044
0.0654051
0.0654551
0.065564
0.0657356
0.0659798
0.0662933
0.0666613
0.067054
0.0674428
0.0678131
0.0681636
0.0685174
0.0688757
0.0692619
0.0696538
0.0700386
0.0703916
0.0707101
0.0709897
0.0712261
0.0714024
0.0715104
0.0715506
0.0715507
0.0715161
0.0714441
0.071367
0.0712959
0.065254
0.0659574
0.0665099
0.0670875
0.0676006
0.0680479
0.0684013
0.0686301
0.0688199
0.0690005
0.0692123
0.0694529
0.0697059
0.0699474
0.0701691
0.0703816
0.0706003
0.0708178
0.0710286
0.0712092
0.0713531
0.0714753
0.0715785
0.071651
0.0716697
0.0716379
0.0715675
0.071473
0.0713671
0.0712804
0.0648286
0.0650809
0.0653445
0.0656712
0.0660733
0.0665475
0.0670729
0.0676375
0.0681923
0.068692
0.0691273
0.069532
0.0699361
0.0703319
0.0707045
0.0710147
0.07126
0.0713475
0.0715077
0.0716358
0.0717223
0.0717393
0.071728
0.0717092
0.0716871
0.0716453
0.0715707
0.0714688
0.0713471
0.0712587
0.0671446
0.0675128
0.0678971
0.0682587
0.0685889
0.0688755
0.0691182
0.0693664
0.069667
0.069978
0.0702191
0.0704049
0.0705579
0.0707306
0.0709346
0.0711714
0.0714068
0.071613
0.0717737
0.0718898
0.0719628
0.0719816
0.0719302
0.0718179
0.0716911
0.0715776
0.0714766
0.0713762
0.0712625
0.0711964
0.0670183
0.0671738
0.0674081
0.0677343
0.0681409
0.06859
0.0690787
0.0695859
0.0700985
0.0706023
0.0710797
0.0714888
0.071813
0.0720427
0.0721941
0.0722968
0.0723855
0.0724666
0.0725193
0.0725177
0.0724548
0.0723531
0.0722246
0.0720606
0.0718624
0.0716552
0.0714607
0.0712957
0.0711486
0.0710914
0.0682863
0.0686756
0.0690806
0.0695131
0.069881
0.0701777
0.0704112
0.0706159
0.0708245
0.0710593
0.0713297
0.0716363
0.0719542
0.0722452
0.0724991
0.0727041
0.0728457
0.0729243
0.0729499
0.0729048
0.0727799
0.0725839
0.0723592
0.0721289
0.0719046
0.0716736
0.0714436
0.0712355
0.071046
0.0709835
0.0716127
0.0716733
0.0718453
0.0721031
0.0724444
0.0728245
0.0731718
0.0734378
0.0736032
0.0736646
0.0736485
0.0735832
0.0734998
0.0734376
0.0734049
0.0733684
0.0733063
0.0732206
0.0731159
0.0729902
0.0728298
0.0726207
0.0723521
0.0720653
0.0717924
0.0715332
0.0712978
0.0710881
0.0708986
0.0708413
0.0707343
0.0711193
0.0715311
0.0719732
0.0724063
0.072785
0.0731149
0.0734486
0.0738112
0.0742037
0.0746025
0.0749399
0.0751753
0.0752981
0.0753033
0.0751907
0.0749713
0.0746504
0.0742556
0.0738275
0.0734041
0.0729953
0.072593
0.0722016
0.0718165
0.0714665
0.0711621
0.070911
0.0707119
0.0706521
0.0738059
0.074009
0.0742391
0.0745765
0.0749939
0.0754351
0.0758092
0.0760456
0.0761345
0.07615
0.0761446
0.0761839
0.076249
0.0763122
0.0763198
0.0762381
0.0760406
0.0757354
0.0753195
0.0747802
0.0741527
0.0735071
0.0729168
0.0723836
0.071896
0.0714575
0.0710684
0.0707524
0.0705187
0.0704365
0.0776241
0.0779192
0.0782571
0.0784162
0.0784394
0.0783761
0.0783041
0.0782148
0.0781012
0.0779221
0.0776679
0.0773524
0.0770259
0.0767231
0.0764501
0.0761692
0.0758764
0.0755765
0.0752486
0.0748358
0.074323
0.073708
0.0730505
0.0724191
0.0718572
0.0713614
0.0709342
0.0705825
0.0703205
0.0702089
0.0779694
0.0782208
0.0784022
0.0786829
0.0791099
0.0795038
0.0797752
0.079886
0.0799505
0.0799586
0.0798932
0.0796645
0.0792567
0.0786822
0.0780179
0.0773053
0.0765836
0.0758835
0.0752465
0.0746851
0.0741752
0.0736405
0.0730456
0.0724082
0.0717845
0.0712181
0.070748
0.0703723
0.0700941
0.0699608
0.0820612
0.0825264
0.0828671
0.0831069
0.0831194
0.082987
0.082799
0.0825812
0.082341
0.0821227
0.0819365
0.0817362
0.081409
0.0808808
0.0801549
0.0792585
0.0782469
0.0771747
0.0761171
0.0751372
0.0742725
0.0735331
0.0728784
0.07225
0.0716285
0.0710442
0.0705434
0.0701443
0.0698446
0.0696928
0.0855253
0.0853103
0.0852076
0.0852208
0.08533
0.0854287
0.085366
0.0850836
0.0845962
0.0839557
0.0832362
0.0825532
0.0819339
0.0813675
0.0807518
0.0800143
0.0791242
0.0781063
0.0769956
0.0758461
0.0747242
0.0736995
0.0728084
0.0720419
0.0713659
0.0707748
0.0702747
0.0698828
0.0695722
0.0694111
0.0891697
0.0893941
0.0894738
0.089375
0.0890673
0.0886409
0.0882859
0.0879744
0.0876249
0.0870533
0.0861755
0.0850169
0.0837307
0.0824547
0.0812784
0.080233
0.0792431
0.0782493
0.0772034
0.0761028
0.0749729
0.0738646
0.0728313
0.0719137
0.0711276
0.0704781
0.069957
0.0695769
0.0692661
0.0691085
0.0933431
0.0918537
0.0921693
0.0921532
0.0919519
0.0914131
0.0906052
0.0897329
0.0889188
0.0882362
0.0875538
0.0866666
0.085468
0.0839882
0.0824038
0.0808654
0.0794586
0.0782031
0.0770366
0.0759184
0.0748265
0.0737546
0.0727197
0.0717537
0.0709003
0.0701871
0.0696312
0.069252
0.0689408
0.0687925
0.0962364
0.0962754
0.0962942
0.0959176
0.0954127
0.0949339
0.0943328
0.0933812
0.0920807
0.0905933
0.089085
0.0877206
0.0864174
0.0850479
0.0835275
0.0818638
0.0801875
0.07858
0.0770962
0.075769
0.0745644
0.0734655
0.0724448
0.0714955
0.0706344
0.0698896
0.0693068
0.0689216
0.0686113
0.0684739
0.102534
0.101603
0.100899
0.100178
0.0992315
0.098068
0.0969114
0.0957999
0.0945795
0.0929748
0.0910486
0.0890487
0.087187
0.0855262
0.0839574
0.0823735
0.080726
0.079023
0.077371
0.0758187
0.074414
0.0731743
0.0720818
0.0711198
0.0702693
0.0695332
0.0689547
0.068578
0.068285
0.0681615
0.105389
0.104719
0.10432
0.103613
0.102585
0.101242
0.0996312
0.0979657
0.0962804
0.0945374
0.0926545
0.0905734
0.0883986
0.0862906
0.0843312
0.082536
0.0808229
0.0791426
0.0774824
0.0758618
0.0743519
0.0729819
0.0717813
0.0707486
0.0698687
0.0691303
0.0685597
0.0682017
0.0679541
0.0678506
0.112819
0.111286
0.109963
0.108529
0.106998
0.105179
0.103094
0.100756
0.098291
0.0959301
0.0936667
0.0914145
0.0891045
0.0867538
0.0844837
0.0823856
0.0804869
0.0787567
0.0771247
0.0755647
0.0740853
0.0727072
0.0714705
0.0703885
0.0694746
0.0687208
0.0681453
0.0677999
0.0676202
0.0675369
0.116932
0.115383
0.113955
0.112214
0.110229
0.108063
0.105736
0.103124
0.100305
0.0974703
0.0947185
0.0921047
0.0895869
0.0870984
0.0846553
0.0823304
0.0801978
0.0782868
0.076576
0.075027
0.0735977
0.0722804
0.0710798
0.0700081
0.069088
0.0683224
0.0677335
0.0673891
0.0672931
0.0672237
0.122685
0.120371
0.117977
0.115406
0.112655
0.109889
0.107178
0.104398
0.101535
0.0985605
0.0955602
0.092682
0.0899573
0.087369
0.0848812
0.0824783
0.080199
0.078106
0.0762275
0.0745656
0.0730923
0.071786
0.0706176
0.0695843
0.0686886
0.0679321
0.0673366
0.0669855
0.0669832
0.0669177
0.129197
0.126521
0.123563
0.120322
0.116776
0.113071
0.109239
0.10556
0.102158
0.0988809
0.0957313
0.0926859
0.0897942
0.0871209
0.0846502
0.082319
0.0800941
0.0779858
0.0760276
0.0742633
0.0727034
0.0713444
0.0701617
0.0691436
0.0682705
0.0675345
0.0669453
0.0665873
0.0666909
0.0666226
0.134059
0.130358
0.126677
0.122835
0.119161
0.115391
0.111367
0.107335
0.103333
0.0995289
0.095999
0.092664
0.0895383
0.0866468
0.0840376
0.0816907
0.0795538
0.0775488
0.0756636
0.0739161
0.0723374
0.0709446
0.0697402
0.068717
0.0678547
0.0671382
0.0665598
0.0661927
0.0664094
0.0663344
0.140443
0.135994
0.130976
0.125924
0.120966
0.116176
0.11183
0.107719
0.103632
0.0996913
0.0959428
0.0924223
0.089128
0.0860694
0.0832865
0.0808156
0.0786509
0.0767214
0.0749648
0.0733394
0.071848
0.0705024
0.0693209
0.0683064
0.0674556
0.0667552
0.0661864
0.0658059
0.0661323
0.0660476
0.144935
0.139056
0.13357
0.128036
0.122395
0.117004
0.11207
0.107443
0.103137
0.0991476
0.0953896
0.0918752
0.0885809
0.0854936
0.0826306
0.0800502
0.0777858
0.0758224
0.0741105
0.0725851
0.0712088
0.0699654
0.0688576
0.0678908
0.0670723
0.0663955
0.0658369
0.0654373
0.0658551
0.0657567
0.149498
0.142362
0.135169
0.128414
0.122267
0.116725
0.111525
0.106562
0.102006
0.0978753
0.094115
0.0907083
0.087564
0.0846362
0.0818887
0.0793478
0.0770551
0.0750473
0.0733178
0.0718235
0.0705207
0.0693704
0.06835
0.0674571
0.0666935
0.0660559
0.0655163
0.0650971
0.0655748
0.0654584
0.152679
0.144502
0.136508
0.128974
0.122289
0.116403
0.110937
0.105762
0.100988
0.0966201
0.0927311
0.0892929
0.0862276
0.0834595
0.080899
0.0785292
0.076346
0.0743806
0.0726555
0.0711658
0.069891
0.0687926
0.0678391
0.0670192
0.0663202
0.0657356
0.0652273
0.0647922
0.0652848
0.0651477
0.154935
0.14471
0.135539
0.127705
0.120972
0.11496
0.10943
0.104339
0.0996257
0.095254
0.0913122
0.0878176
0.0847519
0.0820425
0.0796172
0.0774261
0.0754229
0.0736085
0.0719823
0.0705525
0.0693196
0.0682612
0.0673577
0.0665975
0.0659609
0.0654364
0.0649716
0.0645277
0.0649765
0.0648171
)
;

boundaryField
{
    outlet
    {
        type            fixedValue;
        value           nonuniform 0();
    }
    upperWall
    {
        type            symmetryPlane;
    }
    lowerWall
    {
        type            symmetryPlane;
    }
    inlet
    {
        type            zeroGradient;
    }
    cylinder
    {
        type            zeroGradient;
    }
    frontAndBack
    {
        type            empty;
    }
    procBoundary0to1
    {
        type            processor;
        value           nonuniform List<scalar> 
45
(
0.201146
0.214625
0.201146
0.233464
0.214625
0.229254
0.237907
0.243672
0.233464
0.245817
0.166378
0.189013
0.166378
0.178509
0.189013
0.1541
0.143222
0.133919
0.126068
0.119266
0.113091
0.10741
0.102327
0.0977506
0.0935733
0.089785
0.0863538
0.0833026
0.0806087
0.0782431
0.0761632
0.0743183
0.0726765
0.0712051
0.0698994
0.0687553
0.0677642
0.0669183
0.0662126
0.0656359
0.0651722
0.0647574
0.0643105
0.0646399
0.0644569
)
;
    }
    procBoundary0to4
    {
        type            processor;
        value           nonuniform List<scalar> 
33
(
0.196275
0.205783
0.216124
0.0637441
0.0590008
0.0616028
0.0617878
0.0637985
0.0635849
0.0650074
0.0658625
0.0675399
0.0685613
0.0705434
0.0727074
0.0748618
0.0774373
0.0806218
0.0839022
0.0877101
0.0918515
0.0964701
0.101453
0.10713
0.113252
0.119967
0.127285
0.13536
0.144049
0.153432
0.163459
0.174249
0.185711
)
;
    }
}


// ************************************************************************* //
