/*--------------------------------*- C++ -*----------------------------------*\
| =========                 |                                                 |
| \\      /  F ield         | OpenFOAM: The Open Source CFD Toolbox           |
|  \\    /   O peration     | Version:                                        |
|   \\  /    A nd           | Website:  www.openfoam.com                      |
|    \\/     M anipulation  |                                                 |
\*---------------------------------------------------------------------------*/
FoamFile
{
    version     2.0;
    format      ascii;
    class       volVectorField;
    location    "172";
    object      U;
}
// * * * * * * * * * * * * * * * * * * * * * * * * * * * * * * * * * * * * * //

dimensions      [0 1 -1 0 0 0 0];


internalField   nonuniform List<vector> 
1161
(
(1.37925 0.101112 -4.37882e-20)
(1.48038 0.0970692 6.93031e-20)
(1.46599 0.078386 -1.26881e-20)
(1.44748 0.0453024 -5.58922e-21)
(1.44905 0.00606364 1.61654e-20)
(1.44157 -0.0248383 -1.19765e-21)
(1.42152 -0.0508014 -2.83613e-20)
(1.39465 -0.0985797 -1.12237e-20)
(1.36762 -0.0838932 -2.49364e-20)
(1.32369 -0.173228 -3.70111e-20)
(1.41472 0.0722688 -5.37514e-20)
(1.42082 0.0491018 1.36714e-20)
(1.41365 0.0286304 3.50678e-20)
(1.39566 0.00283881 -6.07383e-20)
(1.37437 -0.0273421 6.73176e-21)
(1.35692 -0.041757 2.57594e-20)
(1.328 -0.0687397 6.55833e-20)
(1.30744 -0.0914443 -4.59965e-20)
(1.37365 0.0474384 -3.95306e-20)
(1.35635 0.0249691 1.2218e-20)
(1.34564 0.0128638 5.55069e-20)
(1.32202 -0.0190477 -2.32833e-20)
(1.301 -0.0228992 6.7193e-21)
(1.2824 -0.0438086 -4.24426e-21)
(1.29963 0.0185465 -3.22306e-20)
(1.28056 0.00882231 1.11358e-20)
(1.26141 -0.0240991 4.22584e-21)
(-0.262105 0.0729054 4.28782e-20)
(-0.295824 0.319298 -4.90335e-20)
(-0.309153 0.562402 -9.19296e-22)
(-0.311483 0.77656 1.98137e-20)
(-0.317131 0.968725 -2.76368e-20)
(-0.333206 1.15697 -2.08333e-20)
(-0.334955 1.31687 4.68607e-20)
(-0.311161 1.427 -3.23799e-20)
(-0.268611 1.48002 3.54425e-20)
(-0.187813 1.44604 3.03554e-20)
(-0.0775683 1.29733 -2.63392e-20)
(0.104409 0.99768 -3.38426e-20)
(0.276058 0.744431 2.78428e-20)
(0.428666 0.426408 1.94701e-20)
(0.573273 0.150521 6.77906e-20)
(0.66564 -0.201435 5.36073e-22)
(0.798571 -0.579986 -2.34966e-20)
(-0.37409 0.33702 -2.83766e-20)
(-0.40954 0.552054 7.73391e-21)
(-0.44587 0.758537 -3.82337e-20)
(-0.47637 0.96018 5.23496e-21)
(-0.478383 1.12959 3.14047e-20)
(-0.442122 1.24022 -1.48111e-19)
(-0.392351 1.30251 5.39805e-20)
(-0.292376 1.28768 3.39395e-20)
(-0.136269 1.18155 -1.25225e-19)
(0.0261264 1.01111 2.40901e-20)
(0.246908 0.665623 1.5209e-20)
(0.443895 0.440148 -7.19195e-20)
(0.585429 0.200641 -2.9457e-19)
(0.744888 -0.00782563 1.59954e-20)
(0.87124 -0.354634 5.51077e-20)
(1.03543 -0.700988 7.1216e-20)
(-0.409324 0.351424 1.83084e-19)
(-0.475259 0.553085 -5.32943e-20)
(-0.516299 0.750559 -9.66122e-20)
(-0.521221 0.917594 4.33003e-20)
(-0.479457 1.02031 8.04286e-20)
(-0.416398 1.09381 -1.01949e-19)
(-0.318061 1.13241 1.96769e-20)
(-0.160945 1.08553 1.79395e-19)
(0.0271606 0.947694 -2.08447e-19)
(0.235673 0.78211 -5.0466e-21)
(0.474645 0.447772 9.65124e-20)
(0.64098 0.263828 2.61155e-20)
(0.749667 0.072788 -6.46114e-23)
(0.923503 -0.129915 4.08674e-19)
(1.08935 -0.480229 -3.20658e-19)
(1.24903 -0.751491 1.36227e-19)
(-0.355716 0.427827 3.28068e-20)
(-0.41459 0.580957 -1.0797e-19)
(-0.431864 0.717966 1.03219e-19)
(-0.413201 0.822951 2.60994e-20)
(-0.368829 0.916231 -1.68246e-20)
(-0.295663 0.984571 2.94805e-20)
(-0.120696 0.953533 1.23169e-19)
(0.0500636 0.923674 2.06726e-20)
(0.231964 0.78858 -2.0028e-19)
(0.480253 0.605288 -8.79591e-20)
(0.701647 0.312901 -4.80105e-20)
(0.818146 0.178787 1.14678e-19)
(0.931536 -0.0176749 1.79209e-19)
(1.14687 -0.24784 7.79852e-20)
(1.31969 -0.574873 -2.70885e-19)
(1.42533 -0.750208 2.19221e-19)
(-0.251465 0.473021 3.15913e-20)
(-0.291338 0.601806 -2.24641e-19)
(-0.318887 0.718425 3.16591e-19)
(-0.289868 0.809983 -1.62093e-19)
(-0.217036 0.871768 -1.56857e-19)
(-0.0763878 0.863759 1.33832e-19)
(0.109548 0.762784 -1.17547e-19)
(0.243982 0.747798 2.45555e-20)
(0.45453 0.600996 -1.01305e-19)
(0.70801 0.420133 1.03203e-19)
(0.848541 0.22893 7.55287e-20)
(0.958646 0.131055 2.5254e-19)
(1.14336 -0.115093 -1.63319e-19)
(1.39194 -0.347764 -6.33271e-20)
(1.50833 -0.602887 -2.10591e-19)
(1.53072 -0.67268 4.89612e-19)
(-0.192778 0.635608 -1.92022e-19)
(-0.169341 0.699493 9.34661e-21)
(-0.0959379 0.741166 7.17107e-20)
(-0.0118333 0.744282 4.90302e-20)
(0.11492 0.723548 -1.31504e-19)
(0.263419 0.664301 1.70541e-20)
(0.445936 0.591775 -1.52136e-19)
(0.670411 0.432393 3.36939e-19)
(0.817063 0.325138 -1.3623e-19)
(0.9247 0.195556 -2.11661e-19)
(1.14804 0.0468198 -7.72279e-21)
(1.4094 -0.228102 -1.72061e-19)
(1.59529 -0.39397 2.106e-19)
(1.60231 -0.547314 1.15239e-19)
(1.55225 -0.552289 -1.98315e-19)
(-0.0483195 0.6832 -1.15754e-20)
(-0.0150793 0.693632 1.42701e-19)
(0.0847937 0.701213 2.39192e-19)
(0.249305 0.656186 -4.70151e-20)
(0.444582 0.55225 7.33756e-20)
(0.600541 0.438877 1.02029e-19)
(0.716298 0.361676 -2.54875e-19)
(0.861482 0.271706 -4.0319e-20)
(1.13175 0.107244 4.55515e-19)
(1.44148 -0.0864386 -1.48675e-20)
(1.62694 -0.279221 -3.07695e-19)
(1.6615 -0.348505 2.63848e-19)
(1.58538 -0.434802 -1.31829e-19)
(1.51279 -0.418777 -9.57665e-21)
(0.0932812 0.627334 1.09343e-20)
(0.220968 0.564123 7.47699e-20)
(0.322245 0.486751 -1.34783e-19)
(0.422781 0.435523 -6.64838e-20)
(0.564816 0.365601 -6.51816e-20)
(0.809209 0.27899 2.22093e-20)
(1.14166 0.125872 -1.22032e-19)
(1.47703 -0.0188556 -1.62924e-19)
(1.64586 -0.150011 -9.69146e-22)
(1.65391 -0.225408 3.04699e-19)
(1.58977 -0.25514 -1.27204e-19)
(1.51771 -0.323938 -4.9496e-20)
(1.46417 -0.313667 4.67299e-20)
(0.0186121 0.388851 6.29861e-21)
(0.206477 0.344998 2.75734e-20)
(0.48639 0.282645 1.10827e-20)
(0.841267 0.200763 -1.41365e-20)
(1.21887 0.113281 3.78164e-20)
(1.51506 0.0171927 1.37473e-21)
(1.63442 -0.0386282 -9.93574e-20)
(1.60021 -0.104572 3.94187e-20)
(1.54708 -0.133133 1.35996e-19)
(1.49803 -0.187701 -1.96614e-19)
(1.46003 -0.238267 2.1342e-19)
(1.4196 -0.233634 -1.88479e-19)
(0.579419 0.149429 -1.66006e-20)
(0.976704 0.12312 -3.37564e-20)
(1.32052 0.0973845 9.16951e-20)
(1.52737 0.0641516 -8.31774e-20)
(1.56161 0.0347398 3.06135e-20)
(1.51851 -0.00277492 -6.89523e-20)
(1.48824 -0.0582005 7.70634e-20)
(1.47189 -0.0842546 -8.96663e-20)
(1.43991 -0.149005 1.03968e-19)
(1.41377 -0.156293 4.83284e-20)
(1.37476 -0.180817 1.75958e-20)
(0.860332 -0.914054 2.54928e-20)
(0.854761 -1.09456 -5.84323e-21)
(0.84486 -1.09529 3.66125e-21)
(0.828898 -1.0433 1.8977e-21)
(0.805264 -0.994584 -8.19666e-21)
(0.784601 -0.959044 2.4326e-21)
(0.764342 -0.966104 2.47585e-21)
(0.718456 -1.04391 -3.99168e-21)
(0.649397 -1.04852 4.07906e-21)
(0.544524 -0.924981 -1.52241e-20)
(0.473 -0.595936 -2.75934e-22)
(0.404199 -0.161443 1.73891e-22)
(0.409982 0.317074 9.99146e-21)
(0.422732 0.681223 5.12373e-21)
(0.506615 0.848814 -4.47366e-21)
(0.584161 0.904349 -3.77856e-22)
(0.665854 0.859939 -3.59471e-22)
(0.692295 0.912875 -2.04376e-21)
(0.679907 0.888661 4.10558e-21)
(0.573029 0.912261 -2.31964e-21)
(1.06183 -0.981506 -1.69959e-20)
(1.01465 -1.104 -2.62896e-20)
(0.958662 -1.08217 5.37711e-21)
(0.907377 -1.02366 2.24173e-20)
(0.838541 -0.975129 1.18474e-20)
(0.790185 -0.938608 -5.46246e-21)
(0.740825 -0.920306 -3.59021e-21)
(0.659149 -0.97168 2.04022e-20)
(0.569413 -0.950943 -2.1e-20)
(0.451424 -0.837048 -2.43609e-20)
(0.359687 -0.533492 3.65787e-21)
(0.265764 -0.159403 4.91819e-20)
(0.297654 0.271971 -3.62166e-20)
(0.326365 0.585479 -2.12562e-20)
(0.459015 0.754351 3.5851e-20)
(0.562897 0.833951 -1.21893e-20)
(0.652283 0.818214 -7.29463e-22)
(0.688607 0.912792 1.52954e-20)
(0.738298 0.9219 -2.7033e-20)
(0.640422 0.959996 9.5507e-21)
(1.22404 -0.955583 -1.27242e-19)
(1.14056 -1.02736 2.09993e-20)
(1.06012 -1.00384 1.67945e-20)
(0.988213 -0.949927 -1.95601e-20)
(0.897175 -0.911177 1.15944e-20)
(0.827689 -0.886001 -6.8925e-21)
(0.753927 -0.852065 2.41113e-20)
(0.653201 -0.894309 6.52748e-22)
(0.535538 -0.876108 1.32567e-20)
(0.419642 -0.777006 2.63192e-22)
(0.318265 -0.483841 -4.56853e-20)
(0.212578 -0.174956 4.82133e-21)
(0.246347 0.215564 -1.57516e-20)
(0.287648 0.499428 3.01252e-20)
(0.423269 0.668072 -1.36161e-20)
(0.558677 0.793166 1.73278e-20)
(0.661679 0.789977 1.74481e-20)
(0.719397 0.879491 -1.75531e-20)
(0.810871 0.941927 -2.21245e-20)
(0.740073 0.992552 1.21238e-20)
(1.34188 -0.893466 -1.46163e-19)
(1.22998 -0.928094 6.82301e-20)
(1.13456 -0.915468 6.28288e-20)
(1.04161 -0.880805 -4.42556e-20)
(0.959465 -0.85445 2.64588e-20)
(0.882892 -0.839781 -3.75242e-20)
(0.802098 -0.784611 2.61346e-20)
(0.701235 -0.787681 1.74782e-21)
(0.548204 -0.787666 -2.86094e-20)
(0.43543 -0.722324 9.49781e-21)
(0.310838 -0.461274 1.98658e-20)
(0.242656 -0.191712 -2.66906e-20)
(0.232838 0.129814 1.55101e-20)
(0.316269 0.399398 5.72574e-21)
(0.419589 0.535459 8.05274e-21)
(0.549709 0.684613 -2.95267e-20)
(0.692908 0.716352 5.60062e-21)
(0.746005 0.82415 -5.7873e-21)
(0.854776 0.939747 3.21721e-20)
(0.865497 1.00587 3.88353e-21)
(1.40612 -0.769007 -3.22118e-19)
(1.27856 -0.788371 1.82215e-20)
(1.19365 -0.782493 2.05954e-19)
(1.09814 -0.784936 -1.30902e-19)
(1.01528 -0.768848 -2.98482e-21)
(0.906546 -0.763436 2.7399e-20)
(0.811988 -0.728174 1.59243e-21)
(0.724175 -0.700287 -7.7068e-21)
(0.593629 -0.704169 -3.19479e-20)
(0.479143 -0.666336 1.54512e-20)
(0.340787 -0.463857 1.68612e-20)
(0.306767 -0.225826 -3.63374e-21)
(0.268145 0.0430873 3.05837e-20)
(0.345804 0.308138 1.17789e-20)
(0.43641 0.453271 -3.21124e-20)
(0.532927 0.586144 -1.41658e-20)
(0.701554 0.647935 3.14916e-21)
(0.777435 0.739259 -7.48016e-21)
(0.91009 0.861052 2.97365e-20)
(0.987031 0.975042 -4.15288e-20)
(1.4159 -0.629863 2.01926e-19)
(1.30306 -0.673513 -5.17908e-20)
(1.23972 -0.685271 6.74981e-20)
(1.1447 -0.698114 -2.7913e-20)
(1.05477 -0.682226 -7.3353e-20)
(0.958287 -0.675006 3.87599e-20)
(0.871952 -0.655471 -1.59357e-20)
(0.77814 -0.623185 3.47946e-20)
(0.684125 -0.61315 -4.4649e-20)
(0.534053 -0.602143 1.2737e-20)
(0.422873 -0.459161 -2.02514e-20)
(0.363031 -0.26548 8.63761e-21)
(0.340886 -0.0323519 1.16505e-20)
(0.374947 0.183098 1.17256e-20)
(0.490167 0.336197 1.1942e-21)
(0.549272 0.46004 -8.85104e-21)
(0.683406 0.534692 3.51007e-21)
(0.803532 0.63486 9.67895e-21)
(0.917122 0.776986 5.48297e-21)
(1.0606 0.924663 -9.15636e-20)
(1.40406 -0.499907 -1.21599e-20)
(1.31696 -0.554027 -5.41813e-20)
(1.25629 -0.572522 1.97951e-21)
(1.17722 -0.593764 -5.97133e-20)
(1.08962 -0.594436 6.01084e-20)
(1.00888 -0.597583 2.55217e-20)
(0.924207 -0.593031 -1.5162e-20)
(0.832851 -0.567093 -3.70236e-21)
(0.76889 -0.526006 -1.96485e-21)
(0.625698 -0.525259 -2.32269e-21)
(0.520551 -0.454391 9.62437e-22)
(0.429669 -0.303834 -2.91047e-21)
(0.42047 -0.0945986 -9.2752e-21)
(0.420527 0.0996972 1.02353e-20)
(0.493358 0.261213 -1.87463e-20)
(0.550903 0.391862 5.63555e-21)
(0.675713 0.441691 8.17668e-21)
(0.817937 0.516348 1.93748e-20)
(0.923497 0.631026 -3.31278e-21)
(1.10812 0.799749 -6.40192e-20)
(1.216 0.871428 2.03801e-20)
(1.38289 -0.401017 -1.19968e-19)
(1.31977 -0.457638 5.40522e-20)
(1.26831 -0.488102 5.34229e-20)
(1.1967 -0.515686 -6.68763e-20)
(1.11421 -0.525718 4.67311e-20)
(1.04318 -0.525655 3.21318e-21)
(0.972015 -0.521992 -5.54769e-21)
(0.889583 -0.522903 -3.01616e-20)
(0.828057 -0.476977 6.1414e-21)
(0.738247 -0.440347 -2.61797e-21)
(0.619677 -0.413438 4.34595e-22)
(0.520436 -0.325464 9.91556e-22)
(0.474423 -0.171848 2.92326e-21)
(0.483729 0.0202047 3.47801e-21)
(0.507959 0.165573 -3.03891e-21)
(0.578487 0.284357 5.48081e-21)
(0.642123 0.342737 -5.00283e-21)
(0.761162 0.419767 -3.41174e-22)
(0.908787 0.520226 3.31295e-22)
(1.08814 0.674876 -4.90598e-21)
(1.25183 0.799267 -2.8319e-21)
(1.36363 -0.31984 2.66205e-20)
(1.31938 -0.361894 5.07965e-20)
(1.27787 -0.394155 -1.31387e-21)
(1.21076 -0.421575 1.26486e-20)
(1.14818 -0.445499 8.55842e-21)
(1.08028 -0.466687 -2.26522e-20)
(1.02819 -0.469086 3.4472e-21)
(0.95633 -0.470154 -1.79063e-20)
(0.883563 -0.457434 2.37995e-20)
(0.823267 -0.399971 -8.02303e-21)
(0.722905 -0.365197 1.27932e-22)
(0.630632 -0.304724 5.75589e-22)
(0.533428 -0.212304 2.11477e-21)
(0.541065 -0.0408532 -2.98232e-21)
(0.54247 0.116091 2.85832e-23)
(0.598668 0.234127 5.04783e-22)
(0.637152 0.277038 1.22008e-21)
(0.744721 0.289421 8.13495e-22)
(0.882082 0.353555 -7.22834e-21)
(1.04075 0.510943 8.28252e-21)
(1.26942 0.704735 -3.43503e-20)
(1.33724 -0.25758 2.11047e-21)
(1.30413 -0.29098 4.03379e-21)
(1.27814 -0.326291 3.7331e-20)
(1.2184 -0.36261 -3.91733e-20)
(1.17517 -0.389134 -3.45986e-20)
(1.11121 -0.412469 3.66335e-20)
(1.06298 -0.42971 -2.48328e-20)
(1.00306 -0.42141 9.1075e-21)
(0.928786 -0.428548 6.05907e-21)
(0.86743 -0.381518 -4.44717e-21)
(0.799696 -0.345523 1.27929e-21)
(0.73239 -0.297561 -5.94395e-21)
(0.640446 -0.244693 -2.25265e-21)
(0.60469 -0.129905 6.2804e-21)
(0.575849 0.0386002 5.37674e-21)
(0.591356 0.175572 -4.15919e-21)
(0.611354 0.253388 -2.22746e-22)
(0.673966 0.250621 2.95202e-22)
(0.794264 0.270981 -1.03906e-21)
(0.936183 0.338705 6.6769e-21)
(1.1638 0.538447 1.25242e-20)
(1.30837 -0.178833 0)
(1.28554 -0.215276 0)
(1.27817 -0.244262 0)
(1.22706 -0.266303 0)
(1.19203 -0.294246 0)
(1.13877 -0.310227 0)
(1.08706 -0.341613 0)
(1.02954 -0.327348 0)
(0.965518 -0.342372 0)
(0.911294 -0.32845 0)
(0.852999 -0.289992 0)
(0.813653 -0.243249 0)
(0.740763 -0.201962 0)
(0.70171 -0.141118 0)
(0.666261 0.00834236 0)
(0.633492 0.14978 0)
(0.644147 0.216203 0)
(0.694971 0.189882 0)
(0.807388 0.175454 0)
(0.938922 0.21649 0)
(1.1373 0.400103 0)
(1.30977 0.518961 0)
(1.26614 -0.155112 0)
(1.25054 -0.194589 0)
(1.23609 -0.236368 0)
(1.18955 -0.259327 0)
(1.1552 -0.299673 0)
(1.09283 -0.306608 0)
(1.0433 -0.331138 0)
(0.978191 -0.319895 0)
(0.934426 -0.333581 0)
(0.875685 -0.298108 0)
(0.79833 -0.266542 0)
(0.773804 -0.228005 0)
(0.714863 -0.171132 0)
(0.720098 -0.104307 0)
(0.700585 0.0597622 0)
(0.696402 0.164692 0)
(0.708223 0.210225 0)
(0.750116 0.148635 0)
(0.808533 0.121325 0)
(0.888063 0.135335 0)
(1.06905 0.301981 0)
(1.29486 0.46091 0)
(1.22556 -0.141096 0)
(1.21861 -0.165175 0)
(1.20975 -0.200329 0)
(1.17436 -0.216802 0)
(1.1443 -0.24525 0)
(1.0908 -0.24016 0)
(1.06214 -0.269875 0)
(1.01903 -0.24342 0)
(0.977721 -0.263565 0)
(0.94421 -0.23739 0)
(0.888966 -0.20808 0)
(0.862719 -0.179105 0)
(0.780738 -0.137057 0)
(0.75939 -0.128649 0)
(0.74397 0.0427497 0)
(0.767858 0.156688 0)
(0.799603 0.207374 0)
(0.843879 0.134774 0)
(0.871418 0.0998914 0)
(0.890004 0.0840913 0)
(1.03522 0.201525 0)
(1.29178 0.384682 0)
(1.19723 -0.117182 0)
(1.19172 -0.139161 0)
(1.18133 -0.173962 0)
(1.15584 -0.182739 0)
(1.1207 -0.220584 0)
(1.08343 -0.213771 0)
(1.04208 -0.250636 0)
(1.00313 -0.222674 0)
(0.960648 -0.245121 0)
(0.920452 -0.219056 0)
(0.870261 -0.198088 0)
(0.851988 -0.175706 0)
(0.817486 -0.0992908 0)
(0.793133 -0.107828 0)
(0.772646 0.0532644 0)
(0.806521 0.127912 0)
(0.870443 0.185331 0)
(0.921079 0.10962 0)
(0.951124 0.0939955 0)
(0.946783 0.0668855 0)
(0.988314 0.114047 0)
(1.16414 0.296201 0)
(1.16899 -0.103105 0)
(1.16997 -0.116184 0)
(1.15313 -0.152523 0)
(1.14028 -0.155501 0)
(1.10353 -0.193059 0)
(1.07913 -0.179564 0)
(1.0394 -0.210149 0)
(1.00539 -0.187814 0)
(0.977915 -0.198883 0)
(0.938686 -0.182182 0)
(0.91897 -0.146196 0)
(0.872163 -0.149106 0)
(0.858491 -0.0674567 0)
(0.821339 -0.1 0)
(0.812951 0.0443897 0)
(0.839685 0.0847556 0)
(0.911372 0.140015 0)
(0.9554 0.0845121 0)
(0.969982 0.0758647 0)
(0.988616 0.0707598 0)
(0.929646 0.0766249 0)
(1.03236 0.252096 0)
(1.14716 -0.0912687 0)
(1.14967 -0.0969872 0)
(1.13612 -0.130376 0)
(1.12468 -0.128568 0)
(1.0959 -0.16051 0)
(1.07025 -0.150923 0)
(1.03776 -0.175095 0)
(1.00612 -0.162677 0)
(0.98498 -0.162639 0)
(0.942278 -0.161126 0)
(0.935862 -0.121123 0)
(0.88575 -0.138633 0)
(0.893492 -0.049411 0)
(0.850561 -0.0854652 0)
(0.858908 0.0394469 0)
(0.870973 0.0486864 0)
(0.930338 0.103555 0)
(0.967466 0.0714305 0)
(0.964222 0.054941 0)
(0.992791 0.093987 0)
(0.94311 0.0849442 0)
(0.996316 0.185639 0)
(1.13224 -0.076547 0)
(1.13094 -0.0776349 0)
(1.12288 -0.107349 0)
(1.10798 -0.103728 0)
(1.08972 -0.132204 0)
(1.05971 -0.125809 0)
(1.04148 -0.141459 0)
(1.00376 -0.13975 0)
(0.993942 -0.128426 0)
(0.951916 -0.143586 0)
(0.951788 -0.0909792 0)
(0.911755 -0.122852 0)
(0.912632 -0.0344517 0)
(0.889608 -0.0708421 0)
(0.885779 0.0280762 0)
(0.912597 0.0302903 0)
(0.931165 0.0698741 0)
(0.979114 0.0663541 0)
(0.959938 0.0497553 0)
(0.98305 0.0917155 0)
(0.984137 0.0727521 0)
(1.00515 0.15137 0)
(1.11639 -0.0625232 0)
(1.11155 -0.062631 0)
(1.10898 -0.086296 0)
(1.09204 -0.0850106 0)
(1.08344 -0.105227 0)
(1.05226 -0.103562 0)
(1.04392 -0.112088 0)
(1.00594 -0.115288 0)
(1.00296 -0.10242 0)
(0.96509 -0.118387 0)
(0.963608 -0.0731216 0)
(0.93629 -0.104441 0)
(0.927554 -0.0277674 0)
(0.923483 -0.0611906 0)
(0.908675 0.0205377 0)
(0.942131 0.0152271 0)
(0.938755 0.0497734 0)
(0.980816 0.0561244 0)
(0.967719 0.0422191 0)
(0.989898 0.0822026 0)
(0.999528 0.0716055 0)
(1.01661 0.107612 0)
(1.10002 -0.051203 0)
(1.09137 -0.0496304 0)
(1.09595 -0.0689901 0)
(1.07672 -0.0670296 0)
(1.07693 -0.0830291 0)
(1.04614 -0.0824957 0)
(1.04541 -0.0872214 0)
(1.00982 -0.0936454 0)
(1.01006 -0.0792602 0)
(0.978851 -0.0977705 0)
(0.974896 -0.0578571 0)
(0.958883 -0.0865767 0)
(0.940973 -0.025382 0)
(0.952358 -0.0503366 0)
(0.924489 0.0104743 0)
(0.966657 0.00757101 0)
(0.947119 0.0338818 0)
(0.988518 0.0457923 0)
(0.978264 0.0395564 0)
(0.992906 0.066917 0)
(1.01346 0.0581635 0)
(1.02973 0.0834264 0)
(1.08453 -0.0409059 0)
(1.07378 -0.0391433 0)
(1.08238 -0.0539715 0)
(1.06298 -0.0525244 0)
(1.06921 -0.0648955 0)
(1.04036 -0.0642816 0)
(1.04474 -0.0692084 0)
(1.01274 -0.0727328 0)
(1.0161 -0.0643562 0)
(0.990729 -0.0755623 0)
(0.986521 -0.0489432 0)
(0.977037 -0.0679396 0)
(0.957746 -0.0238232 0)
(0.972059 -0.042558 0)
(0.944126 0.00523358 0)
(0.981947 -0.00142892 0)
(0.959469 0.0273501 0)
(0.997469 0.0311403 0)
(0.983837 0.0369174 0)
(1.00927 0.0516449 0)
(1.01258 0.0495149 0)
(1.03462 0.0615212 0)
(1.07072 -0.0326369 0)
(1.05921 -0.0297742 0)
(1.06952 -0.0430868 0)
(1.05209 -0.0401023 0)
(1.06048 -0.0518217 0)
(1.03572 -0.0496695 0)
(1.04172 -0.0551364 0)
(1.01611 -0.056358 0)
(1.01974 -0.0511998 0)
(1.00069 -0.0588541 0)
(0.997186 -0.0399219 0)
(0.991715 -0.0530389 0)
(0.974009 -0.0221225 0)
(0.988209 -0.034345 0)
(0.961058 -0.000698896 0)
(0.995768 -0.00461557 0)
(0.969683 0.018586 0)
(1.00845 0.0211332 0)
(0.988599 0.032251 0)
(1.01866 0.0366763 0)
(1.01458 0.0417751 0)
(1.03807 0.0431833 0)
(1.05887 -0.0253109 0)
(1.04983 -0.0228079 0)
(1.05879 -0.0341276 0)
(1.04474 -0.030905 0)
(1.05293 -0.0418547 0)
(1.03303 -0.0379471 0)
(1.03987 -0.0452172 0)
(1.01839 -0.0422903 0)
(1.02335 -0.043364 0)
(1.00727 -0.043443 0)
(1.00716 -0.0353557 0)
(1.00077 -0.0393429 0)
(0.989938 -0.0214948 0)
(0.997194 -0.0273172 0)
(0.979627 -0.00335259 0)
(1.00187 -0.00830463 0)
(0.983883 0.0150477 0)
(1.01147 0.00977145 0)
(0.996113 0.0294593 0)
(1.0231 0.0228526 0)
(1.01482 0.0371646 0)
(1.03744 0.0293233 0)
(1.05104 -0.0193191 0)
(1.04408 -0.016766 0)
(1.05128 -0.0269062 0)
(1.04111 -0.023367 0)
(1.0475 -0.0336542 0)
(1.03278 -0.0290918 0)
(1.03731 -0.0370096 0)
(1.02143 -0.032706 0)
(1.02505 -0.036106 0)
(1.01292 -0.0332792 0)
(1.01379 -0.0303863 0)
(1.00779 -0.0299222 0)
(1.00156 -0.0200374 0)
(1.00416 -0.0212721 0)
(0.993016 -0.00572442 0)
(1.00698 -0.00848715 0)
(0.993524 0.0100883 0)
(1.01467 0.00410636 0)
(1.00031 0.0243654 0)
(1.02386 0.0136941 0)
(1.01321 0.0316172 0)
(1.03439 0.0187831 0)
(1.04465 -0.0143619 0)
(1.04149 -0.0118568 0)
(1.04513 -0.0212852 0)
(1.03937 -0.0171625 0)
(1.04255 -0.0276028 0)
(1.03303 -0.0216116 0)
(1.03509 -0.0313979 0)
(1.02386 -0.0239644 0)
(1.02621 -0.0314067 0)
(1.0167 -0.0239767 0)
(1.01857 -0.0272651 0)
(1.01198 -0.0214657 0)
(1.0101 -0.0186685 0)
(1.00778 -0.0161007 0)
(1.00356 -0.00595866 0)
(1.0086 -0.00881624 0)
(1.00281 0.0088638 0)
(1.01361 -0.00141971 0)
(1.00537 0.0222985 0)
(1.02099 0.00496373 0)
(1.01289 0.029369 0)
(1.03039 0.00993463 0)
(1.03956 -0.010416 0)
(1.03956 -0.00814446 0)
(1.04023 -0.0163676 0)
(1.03859 -0.0124595 0)
(1.03887 -0.0216986 0)
(1.03344 -0.0160651 0)
(1.03323 -0.0250334 0)
(1.02553 -0.017991 0)
(1.02657 -0.0254913 0)
(1.0185 -0.0182205 0)
(1.02154 -0.0224562 0)
(1.01354 -0.0164248 0)
(1.01594 -0.0156396 0)
(1.00879 -0.0127426 0)
(1.01104 -0.00530588 0)
(1.00864 -0.00785314 0)
(1.00945 0.00697507 0)
(1.01256 -0.00284995 0)
(1.00898 0.0182616 0)
(1.01936 0.00198413 0)
(1.0115 0.0241723 0)
(1.02873 0.0059261 0)
(1.03584 -0.00722846 0)
(1.03749 -0.00527274 0)
(1.03664 -0.0121024 0)
(1.03684 -0.00864653 0)
(1.03573 -0.0166243 0)
(1.03285 -0.0115151 0)
(1.03142 -0.019715 0)
(1.02572 -0.0132073 0)
(1.02595 -0.020517 0)
(1.01968 -0.0133656 0)
(1.02252 -0.0182356 0)
(1.01521 -0.012175 0)
(1.01828 -0.0128003 0)
(1.01062 -0.00981882 0)
(1.01437 -0.00426971 0)
(1.01007 -0.00669858 0)
(1.01281 0.00588231 0)
(1.01313 -0.00342977 0)
(1.01132 0.0150908 0)
(1.01879 -2.58621e-05 0)
(1.01166 0.0196928 0)
(1.02741 0.00321916 0)
(1.03249 -0.00444268 0)
(1.03491 -0.00304611 0)
(1.03311 -0.00825138 0)
(1.0347 -0.00577835 0)
(1.03276 -0.011807 0)
(1.0314 -0.0081737 0)
(1.02904 -0.0143407 0)
(1.02553 -0.00957815 0)
(1.02511 -0.014912 0)
(1.02047 -0.00980102 0)
(1.02248 -0.0133683 0)
(1.01638 -0.00911863 0)
(1.01931 -0.00947209 0)
(1.01226 -0.00746013 0)
(1.0163 -0.00321753 0)
(1.01164 -0.0051105 0)
(1.01504 0.00420322 0)
(1.01417 -0.00254806 0)
(1.0134 0.0109267 0)
(1.01892 0.000123052 0)
(1.01282 0.0143133 0)
(1.02654 0.00258741 0)
(1.02963 -0.00196211 0)
(1.03202 -0.00110178 0)
(1.03014 -0.00492982 0)
(1.03194 -0.00322172 0)
(1.02984 -0.00769904 0)
(1.02962 -0.00507635 0)
(1.02728 -0.00967929 0)
(1.0251 -0.00620197 0)
(1.02384 -0.0104028 0)
(1.02085 -0.00664481 0)
(1.02187 -0.00955134 0)
(1.0178 -0.00632546 0)
(1.01944 -0.00690252 0)
(1.01445 -0.00530012 0)
(1.01709 -0.0024893 0)
(1.01387 -0.00374348 0)
(1.01627 0.00284556 0)
(1.01586 -0.00193968 0)
(1.01497 0.0077276 0)
(1.01941 -5.97358e-05 0)
(1.01434 0.0103258 0)
(1.02544 0.00165416 0)
(1.02673 3.52449e-05 0)
(1.02888 0.000451378 0)
(1.02734 -0.00213301 0)
(1.02937 -0.00117322 0)
(1.02762 -0.00422598 0)
(1.02781 -0.00267922 0)
(1.02537 -0.00591921 0)
(1.02402 -0.0038029 0)
(1.02271 -0.00672047 0)
(1.02104 -0.00425019 0)
(1.02148 -0.00631681 0)
(1.01882 -0.00416929 0)
(1.01965 -0.00473751 0)
(1.01618 -0.0035675 0)
(1.01779 -0.0019097 0)
(1.01579 -0.00250575 0)
(1.0173 0.00165933 0)
(1.01731 -0.0012661 0)
(1.01615 0.00499449 0)
(1.01988 5.1321e-05 0)
(1.01543 0.00696571 0)
(1.02443 0.00122243 0)
(1.02452 0.00142668 0)
(1.02646 0.00169216 0)
(1.02523 -0.000144046 0)
(1.0269 0.000434627 0)
(1.02533 -0.00183135 0)
(1.02573 -0.000834764 0)
(1.02376 -0.00323069 0)
(1.02318 -0.00172948 0)
(1.02188 -0.00394462 0)
(1.02108 -0.00220135 0)
(1.02099 -0.00392413 0)
(1.01957 -0.00238737 0)
(1.0196 -0.00308558 0)
(1.0176 -0.002214 0)
(1.01821 -0.00131441 0)
(1.01736 -0.00167616 0)
(1.01789 0.00103069 0)
(1.01841 -0.00100616 0)
(1.01696 0.00334549 0)
(1.02006 -0.000152645 0)
(1.01625 0.00485054 0)
(1.02323 0.000740485 0)
(1.02268 0.00252878 0)
(1.02405 0.00261219 0)
(1.02311 0.00126364 0)
(1.0246 0.00158473 0)
(1.0236 -2.58769e-05 0)
(1.02415 0.000615091 0)
(1.02254 -0.00112198 0)
(1.0222 -0.000191444 0)
(1.02102 -0.00186328 0)
(1.02075 -0.000766649 0)
(1.02048 -0.00210568 0)
(1.01984 -0.001135 0)
(1.01944 -0.00179437 0)
(1.01841 -0.00124082 0)
(1.01833 -0.000797297 0)
(1.0183 -0.00106016 0)
(1.0181 0.0006439 0)
(1.01909 -0.000711379 0)
(1.01731 0.00218935 0)
(1.02005 -0.000129764 0)
(1.01666 0.00331918 0)
(1.0222 0.000633997 0)
(1.02074 0.00305943 0)
(1.02193 0.00315021 0)
(1.02143 0.00216782 0)
(1.02278 0.00241792 0)
(1.02205 0.00120084 0)
(1.02257 0.0015907 0)
(1.02123 0.00025212 0)
(1.02119 0.000826102 0)
(1.02018 -0.000423277 0)
(1.02032 0.000233359 0)
(1.01989 -0.000772673 0)
(1.0198 -0.000269436 0)
(1.01911 -0.000771201 0)
(1.01877 -0.000586443 0)
(1.01824 -0.00027952 0)
(1.01873 -0.000659026 0)
(1.01809 0.000555195 0)
(1.01927 -0.000516191 0)
(1.01741 0.00152628 0)
(1.01975 -6.97268e-05 0)
(1.01687 0.00233629 0)
(1.02113 0.000677058 0)
(1.01935 0.00329785 0)
(1.02032 0.0033782 0)
(1.01998 0.00269405 0)
(1.02108 0.00280576 0)
(1.02055 0.00193282 0)
(1.02109 0.00211035 0)
(1.02007 0.00117856 0)
(1.02024 0.00146467 0)
(1.01936 0.000594181 0)
(1.01975 0.000898941 0)
(1.01923 0.000183954 0)
(1.01952 0.00035999 0)
(1.01867 -2.15079e-05 0)
(1.01881 -4.9969e-05 0)
(1.01796 0.000110877 0)
(1.0188 -0.000240955 0)
(1.01787 0.000516699 0)
(1.01916 -0.000224179 0)
(1.01728 0.00106869 0)
(1.0193 0.000120274 0)
(1.01684 0.00165482 0)
(1.02016 0.000779935 0)
(1.01808 0.00331962 0)
(1.01882 0.00333689 0)
(1.01856 0.00285987 0)
(1.01952 0.00287188 0)
(1.01916 0.00228584 0)
(1.01974 0.00230628 0)
(1.01893 0.00169076 0)
(1.01924 0.00174437 0)
(1.01849 0.0011845 0)
(1.01905 0.00122565 0)
(1.0185 0.000773148 0)
(1.01902 0.000715518 0)
(1.01812 0.000478202 0)
(1.01854 0.000315527 0)
(1.01763 0.000427211 0)
(1.0186 0.000113302 0)
(1.01757 0.000563391 0)
(1.01881 8.53584e-05 0)
(1.0171 0.000846074 0)
(1.0188 0.000372946 0)
(1.01674 0.00124844 0)
(1.01931 0.000926708 0)
(1.01693 0.00304328 0)
(1.01757 0.00303089 0)
(1.01738 0.00272 0)
(1.01822 0.00268648 0)
(1.01792 0.00229299 0)
(1.01852 0.00223452 0)
(1.01784 0.00181722 0)
(1.01828 0.00177228 0)
(1.01759 0.00140004 0)
(1.01826 0.00134422 0)
(1.01769 0.00103417 0)
(1.01837 0.000914773 0)
(1.01749 0.000738615 0)
(1.01812 0.000579898 0)
(1.01717 0.000622207 0)
(1.01817 0.0003962 0)
(1.01716 0.000639357 0)
(1.01834 0.000356937 0)
(1.01686 0.000798002 0)
(1.01826 0.00056971 0)
(1.01659 0.00109238 0)
(1.01858 0.0009982 0)
(1.01609 0.00263206 0)
(1.01665 0.00259645 0)
(1.01645 0.00239819 0)
(1.01717 0.00232569 0)
(1.01689 0.00206336 0)
(1.01747 0.0019604 0)
(1.01691 0.00168351 0)
(1.01741 0.00159054 0)
(1.01681 0.00134393 0)
(1.0175 0.00124979 0)
(1.01695 0.00103508 0)
(1.01767 0.000908403 0)
(1.01685 0.000765235 0)
(1.01755 0.000640188 0)
(1.01665 0.000628186 0)
(1.01764 0.000504005 0)
(1.0167 0.000609358 0)
(1.0178 0.000480632 0)
(1.01651 0.000701702 0)
(1.01776 0.000640992 0)
(1.01636 0.000936845 0)
(1.01801 0.000962216 0)
(1.01536 0.00225566 0)
(1.01583 0.00221627 0)
(1.01562 0.00207966 0)
(1.01624 0.00200881 0)
(1.01598 0.00182786 0)
(1.01655 0.00172871 0)
(1.01609 0.00153515 0)
(1.01662 0.0014372 0)
(1.0161 0.00126362 0)
(1.01677 0.0011643 0)
(1.01624 0.0010107 0)
(1.01696 0.000893251 0)
(1.01624 0.000786975 0)
(1.01696 0.00068458 0)
(1.01616 0.000668383 0)
(1.01708 0.000584578 0)
(1.01623 0.000639269 0)
(1.01724 0.000569309 0)
(1.01614 0.000697232 0)
(1.01728 0.000696088 0)
(1.01608 0.000873158 0)
(1.01752 0.000935368 0)
(1.01478 0.00150492 0)
(1.01521 0.00148749 0)
(1.01499 0.00141511 0)
(1.01553 0.00137749 0)
(1.01527 0.00127173 0)
(1.01581 0.00121024 0)
(1.0154 0.00108956 0)
(1.01595 0.00102692 0)
(1.01549 0.000915719 0)
(1.01614 0.000852708 0)
(1.01564 0.000749702 0)
(1.01634 0.0006759 0)
(1.01569 0.000599818 0)
(1.01641 0.00053921 0)
(1.01568 0.000520897 0)
(1.01655 0.000475883 0)
(1.01576 0.000504218 0)
(1.01672 0.000469805 0)
(1.01576 0.000549762 0)
(1.01684 0.000560822 0)
(1.01578 0.000681233 0)
(1.01708 0.000731268 0)
(1.0144 0.000909172 0)
(1.01481 0.000897072 0)
(1.01459 0.000857621 0)
(1.01506 0.000832653 0)
(1.01478 0.00077347 0)
(1.01529 0.000734226 0)
(1.01493 0.000666721 0)
(1.01547 0.000627331 0)
(1.01505 0.000564727 0)
(1.01565 0.000525069 0)
(1.01517 0.000464661 0)
(1.01584 0.000418976 0)
(1.01525 0.000371834 0)
(1.01597 0.00033696 0)
(1.0153 0.000322371 0)
(1.01612 0.00030094 0)
(1.01537 0.000311641 0)
(1.01629 0.000298742 0)
(1.01541 0.000338511 0)
(1.01646 0.000353917 0)
(1.01548 0.000419811 0)
(1.01671 0.000456062 0)
(1.0141 0.000451179 0)
(1.01449 0.000440292 0)
(1.01426 0.000419249 0)
(1.01471 0.000403781 0)
(1.01444 0.000377287 0)
(1.01494 0.000358255 0)
(1.0146 0.000330021 0)
(1.01515 0.000310875 0)
(1.01475 0.000284599 0)
(1.01535 0.000265561 0)
(1.01489 0.000241509 0)
(1.01554 0.000221443 0)
(1.01499 0.000203138 0)
(1.0157 0.00018679 0)
(1.01507 0.00017967 0)
(1.01587 0.000168297 0)
(1.01514 0.000170798 0)
(1.01605 0.00016441 0)
(1.01522 0.00017774 0)
(1.01625 0.000182306 0)
(1.01531 0.000203867 0)
(1.01651 0.000216346 0)
(1.22729 0.0154488 -4.60136e-21)
(1.24115 -0.0095588 -2.01914e-21)
(1.25805 -0.0500138 -1.81692e-20)
(1.2749 -0.0625023 1.63193e-20)
(1.29854 -0.135275 -1.636e-20)
(1.19958 0.00419999 -2.72841e-22)
(1.21358 -0.00240872 -2.29572e-21)
(1.22412 -0.0558575 8.42108e-21)
(1.23465 -0.0605747 6.11992e-21)
(1.25376 -0.119723 1.11756e-20)
(1.17678 -0.00900936 2.52694e-21)
(1.1843 -0.00848162 1.0608e-21)
(1.19309 -0.0596028 -1.9628e-21)
(1.1979 -0.0653102 2.40489e-21)
(1.21541 -0.108957 -2.06166e-21)
(1.15986 -0.0130815 3.23509e-21)
(1.1654 -0.00843647 1.05288e-21)
(1.17453 -0.0524187 9.58399e-22)
(1.17796 -0.0555685 -4.70167e-21)
(1.19327 -0.0925152 5.41979e-23)
(1.1527 -0.0053336 5.59036e-21)
(1.16024 -0.0418342 8.54319e-21)
(1.16183 -0.0455978 -1.78688e-22)
(1.17186 -0.0745346 3.10174e-21)
(1.13659 -0.00896995 -6.98172e-21)
(1.1416 -0.0364731 -1.07402e-20)
(1.13973 -0.0444817 5.30432e-21)
(1.14998 -0.063598 -6.00723e-21)
(1.11676 -0.0114598 -9.47718e-21)
(1.12168 -0.0318048 4.81539e-21)
(1.12128 -0.0395925 -5.22316e-21)
(1.13345 -0.0526221 4.95607e-21)
(1.099 -0.0113289 1.5397e-20)
(1.10611 -0.0240846 -9.201e-21)
(1.10589 -0.0324719 1.15899e-21)
(1.11646 -0.0414498 -3.90159e-21)
(1.08423 -0.00985841 -3.75701e-21)
(1.08937 -0.017863 8.84335e-21)
(1.08902 -0.0279175 -8.41145e-21)
(1.09548 -0.0335752 1.26489e-20)
(1.07087 -0.00837721 -1.63588e-20)
(1.07258 -0.0138195 4.06578e-21)
(1.07399 -0.0235389 2.8431e-21)
(1.07707 -0.0273284 -1.20663e-20)
(1.06187 -0.00580168 1.08373e-20)
(1.05981 -0.00908585 -1.06072e-20)
(1.06417 -0.0182736 1.4596e-20)
(1.06253 -0.0206305 1.24301e-20)
(1.055 -0.00249355 1.35558e-20)
(1.05203 -0.00480192 -2.88391e-21)
(1.05576 -0.0131465 -2.02216e-20)