/*--------------------------------*- C++ -*----------------------------------*\
| =========                 |                                                 |
| \\      /  F ield         | OpenFOAM: The Open Source CFD Toolbox           |
|  \\    /   O peration     | Version:                                        |
|   \\  /    A nd           | Website:  www.openfoam.com                      |
|    \\/     M anipulation  |                                                 |
\*---------------------------------------------------------------------------*/
FoamFile
{
    version     2.0;
    format      ascii;
    class       surfaceScalarField;
    location    "93";
    object      phi;
}
// * * * * * * * * * * * * * * * * * * * * * * * * * * * * * * * * * * * * * //

dimensions      [0 3 -1 0 0 0 0];
oriented        oriented;


internalField   nonuniform List<scalar> 
2238
(
0.0227753
0.0336544
0.0230088
0.0338407
0.0231626
-0.0342064
0.0340526
0.0235631
-0.0344312
0.0340307
0.0240596
-0.0346184
0.0341219
0.0245784
-0.0346939
0.0341751
0.0252358
-0.0348621
0.0342046
0.0261336
-0.035009
0.0341112
0.0263412
-0.0346988
0.0344912
-0.0344599
0.0340713
0.0267298
0.0218383
0.0223623
0.0228557
-0.0351118
0.023445
-0.0352832
0.0241109
-0.0355279
0.0247456
-0.0356436
0.0261575
-0.0361107
-0.0364152
0.0281128
0.0210231
0.0217266
0.0225438
0.0235045
-0.0366043
0.0244024
-0.0370086
-0.0370992
0.0250863
0.0208991
0.0218331
0.0230668
0.00659117
0.00764999
0.0136584
0.00873011
0.00968123
0.0101403
0.00408704
0.0119769
-0.00198503
0.0141766
-0.0074002
0.0175469
-0.0149102
0.0215436
-0.0242468
0.0247797
-0.0321065
0.0265066
-0.0365873
0.0269318
-0.0382315
0.0266785
-0.0387649
0.0264246
-0.0386997
0.0258274
-0.0389795
0.0251255
-0.0383313
0.0247714
-0.0383552
-0.0406042
0.024086
0.0103889
0.0121555
0.0118168
0.00825332
0.013679
0.00222486
0.0154085
-0.00371453
0.0179022
-0.00989391
0.0218126
-0.0188205
0.0255953
-0.0280295
0.0277513
-0.0342626
0.028263
-0.0370989
0.0277197
-0.0376883
0.0267138
-0.0377589
0.0253936
-0.0373796
0.0235901
-0.037176
0.0226077
-0.0373488
0.0220729
-0.0378205
-0.0379866
0.0194554
0.0119332
0.010419
0.014047
0.00613948
0.0159461
0.000325719
0.0177365
-0.00550493
0.0213797
-0.0135371
0.0258964
-0.0233372
0.0289906
-0.0311238
0.0299607
-0.0352326
0.0295483
-0.0366865
0.0287529
-0.0368929
0.0279379
-0.0369439
0.0267958
-0.0362374
0.0252254
-0.0356056
0.0236668
-0.0357903
0.0222344
-0.0363881
-0.034768
0.0190158
0.0120456
0.00841408
0.0144653
0.00371971
0.0161628
-0.00137173
0.0193213
-0.00866344
0.0245025
-0.0187183
0.0287642
-0.0275989
0.0305859
-0.0329455
0.0305937
-0.0352404
0.0299972
-0.03609
0.0294089
-0.0363047
0.0286119
-0.0361469
0.0277736
-0.0353991
0.0270955
-0.0349275
0.0254723
-0.0341671
0.0234547
-0.0343704
-0.0330689
0.0217556
0.0105415
0.0123546
0.00190652
0.0154837
-0.00450079
0.0215976
-0.0147774
0.0273513
-0.0244719
0.0303902
-0.0306378
0.0311419
-0.0336972
0.0308456
-0.0349441
0.0302108
-0.0354552
0.0293393
-0.0354332
0.0282804
-0.035088
0.0273675
-0.0344862
0.0267763
-0.0343363
0.0260852
-0.033476
0.0242174
-0.0325025
-0.0319303
0.0230787
0.0101293
0.0173654
-0.0117368
0.0244668
-0.0218788
0.028478
-0.028483
0.0298215
-0.0319813
0.0297889
-0.0336646
0.0293519
-0.0345071
0.0287215
-0.0348249
0.0278033
-0.034515
0.027056
-0.0343407
0.0265605
-0.0339906
0.0260991
-0.0338749
0.0259299
-0.0333068
0.0257449
-0.0323175
-0.0309311
0.0247457
0.0208419
0.0257247
-0.0267616
0.0278873
-0.0306456
0.0286169
-0.032711
0.0286471
-0.0336948
0.0281839
-0.0340439
0.0273398
-0.0339808
0.0266492
-0.0338243
0.0261749
-0.0338664
0.0258041
-0.0336198
0.0255384
-0.0336092
0.0248763
-0.0326447
0.0253404
-0.0327817
-0.0316517
0.026061
0.0252991
0.02653
-0.0318765
0.0267758
-0.0329568
0.0265557
-0.0334747
0.0262013
-0.0336894
0.0259158
-0.0336953
0.0259835
-0.033892
0.0259725
-0.0338554
0.0259705
-0.0336178
0.0258931
-0.0335317
0.025895
-0.0326465
0.0259606
-0.0328473
-0.0326058
0.0269147
0.0250006
0.0251824
-0.0331387
0.0252015
-0.0334937
0.025185
-0.033673
0.0253845
-0.0338948
0.0255183
-0.0340258
0.0255823
-0.0339194
0.0258177
-0.0338532
0.0258969
-0.033611
0.0266325
-0.0333821
0.0275517
-0.0337666
-0.0325371
0.027483
0.0233859
0.0235467
0.0237144
0.0238723
0.0238771
0.0240797
0.0244016
0.0249952
0.0257243
0.026449
0.0279832
0.0207936
-0.0579985
0.020152
-0.0535672
0.0225136
-0.0368639
0.026305
-0.00716798
0.0310775
0.0218253
0.0359531
0.04396
0.0404017
0.0553305
0.0432937
0.0619118
0.0455016
0.0614843
0.0465884
0.0621293
0.0461792
0.066168
0.0451036
0.0723425
0.0425879
0.0782376
0.0383905
0.0769073
0.0340463
0.0641019
0.0302876
0.0322753
0.0292928
-0.00937339
0.0304851
-0.05051
0.0336905
-0.0744909
-0.0866583
0.0124367
-0.0509799
0.00969925
-0.0508297
0.0112784
-0.038443
0.0165069
-0.0123966
0.0246427
0.0136896
0.0323307
0.036272
0.0389917
0.0486694
0.0442476
0.0566559
0.047839
0.0578929
0.0507789
0.0591894
0.0525085
0.0644384
0.0535121
0.0713389
0.0530628
0.078687
0.050365
0.0796051
0.046738
0.0677288
0.0421587
0.0368546
0.0384888
-0.00570345
0.0360657
-0.0480869
0.036651
-0.0750762
-0.0866562
0.0102119
-0.042176
0.00452496
-0.0451428
0.00439469
-0.0383127
0.0101824
-0.0181843
0.0197132
0.00415879
0.0298651
0.0261201
0.0380423
0.0404922
0.0450411
0.0496571
0.0503316
0.0526024
0.0551074
0.0544136
0.0596223
0.0599235
0.0635376
0.0674236
0.0662203
0.0760043
0.0659877
0.0798377
0.0627659
0.0709507
0.0563798
0.0432408
0.0500821
0.000594252
0.0444436
-0.0424484
0.0411977
-0.0718304
-0.0835627
0.0143067
-0.0347271
0.0060363
-0.0368724
0.00316975
-0.0354461
0.00779448
-0.022809
0.0171039
-0.00515065
0.0279585
0.0152654
0.0372678
0.031183
0.0451401
0.0417848
0.0514696
0.046273
0.0575734
0.0483097
0.0647391
0.0527578
0.071592
0.0605707
0.0771695
0.0704268
0.0799794
0.0770277
0.0785446
0.0723855
0.0720475
0.0497379
0.0626431
0.00999863
0.0534991
-0.0333045
0.0466254
-0.0649567
-0.0777618
0.0189429
-0.0305913
0.0116579
-0.0295874
0.00617547
-0.0299637
0.0080138
-0.0246473
0.0154467
-0.0125835
0.0255702
0.00514192
0.0353177
0.0214355
0.0435799
0.0335226
0.050515
0.0393379
0.0571789
0.0416457
0.0653371
0.0445997
0.0751945
0.0507133
0.0847068
0.0609145
0.0904274
0.0713071
0.0901276
0.0726853
0.0847447
0.0551208
0.0748853
0.0198581
0.0629377
-0.0213568
0.0524107
-0.0544298
-0.0696017
0.0215709
-0.0274165
0.0176322
-0.0256487
0.0118494
-0.024181
0.00976074
-0.0225587
0.0138706
-0.0166934
0.0225689
-0.0035564
0.0323588
0.0116456
0.0410027
0.0248787
0.047815
0.0325256
0.0538336
0.0356271
0.0612195
0.0372138
0.0718862
0.0400466
0.0839227
0.0488779
0.0943146
0.0609153
0.0986903
0.0683095
0.0947966
0.0590145
0.0841184
0.0305362
0.0702063
-0.00744469
0.0571589
-0.0413825
-0.0596683
0.0224584
-0.0238138
0.0203939
-0.0235842
0.0177398
-0.0215269
0.0141815
-0.0190004
0.0140079
-0.0165198
0.0192874
-0.00883593
0.0281461
0.00278696
0.0372676
0.0157571
0.0447617
0.0250314
0.0508489
0.0295399
0.0566182
0.0314445
0.0654317
0.0312331
0.0781527
0.0361569
0.0905981
0.0484699
0.0968566
0.0620511
0.0961085
0.0597626
0.0888225
0.0378223
0.0758658
0.00551201
0.0618068
-0.0273235
0.0503127
-0.0481741
-0.0569095
0.0247128
-0.0216119
0.0220487
-0.0209202
0.0207208
-0.0201989
0.0190979
-0.0173775
0.0170264
-0.0144483
0.0183556
-0.0101652
0.0240367
-0.00289413
0.031925
0.00786887
0.03902
0.0179364
0.0446408
0.0239191
0.0495319
0.0265534
0.0567941
0.023971
0.0681746
0.0247764
0.0815629
0.0350816
0.0925022
0.0511118
0.0951714
0.0570933
0.0885503
0.0444434
0.075602
0.0184603
0.0622105
-0.013932
0.0512534
-0.037217
-0.0474414
0.0251054
-0.0192343
0.0231414
-0.0189562
0.0210774
-0.018135
0.0204454
-0.0167454
0.0199447
-0.0139476
0.0204564
-0.0106768
0.024067
-0.00650472
0.0304424
0.00149341
0.0370498
0.0113291
0.042569
0.0184
0.0461467
0.0229757
0.0497192
0.0203985
0.0571133
0.0173823
0.069496
0.0226988
0.0823808
0.0382271
0.088883
0.0505911
0.0887856
0.0445408
0.0803985
0.0268475
0.0663042
0.000162342
0.0541128
-0.0250257
-0.0375151
0.0258724
-0.0171234
0.0241046
-0.0171884
0.0222217
-0.0162521
0.0210362
-0.0155599
0.0207317
-0.0136431
0.0206028
-0.0105479
0.0221034
-0.00800536
0.0271041
-0.00350731
0.0340038
0.00442941
0.0398831
0.0125207
0.0427512
0.0201075
0.0439103
0.0192394
0.047058
0.0142345
0.0549537
0.0148031
0.0669832
0.0261976
0.0767433
0.040831
0.0791475
0.0421366
0.0725814
0.0334135
0.062169
0.0105748
0.0531821
-0.0160388
-0.0292038
0.046913
-0.0146552
-0.0493812
0.0444284
-0.0147038
0.0420091
-0.0138327
0.0398435
-0.0133943
0.0380632
-0.0118629
0.0361875
-0.00867226
0.0342574
-0.00607521
0.0334377
-0.00268763
0.0340741
0.00379307
0.0352801
0.0113147
0.0365903
0.0187973
0.0385974
0.0172323
0.0410883
0.0117437
0.0446951
0.0111963
0.0512133
0.0196794
0.0566453
0.0353989
0.0606249
0.0381571
0.062663
0.0313754
0.0639019
0.00933585
0.062743
-0.0148799
0.0581172
-0.0245779
-0.032362
0.0501349
-0.0123408
-0.0524493
0.0481027
-0.0126717
0.0460459
-0.0117759
0.0436327
-0.0109811
0.0413226
-0.00955282
0.0396723
-0.00702193
0.0386834
-0.00508633
0.0379953
-0.00199945
0.0380479
0.00374045
0.039879
0.00948349
0.0427303
0.015946
0.0453488
0.0146138
0.0465113
0.0105812
0.0470512
0.0106564
0.0500594
0.0166712
0.0528819
0.0325765
0.0587214
0.0323175
0.0645911
0.0255058
0.0667932
0.00713369
0.0648727
-0.0129594
0.0604098
-0.020115
-0.0266606
0.0542959
-0.0104055
-0.0562312
0.0520903
-0.0104661
0.050165
-0.00985055
0.0482592
-0.00907528
0.046495
-0.00778862
0.0449109
-0.00543787
0.0435746
-0.00374998
0.0430641
-0.00148902
0.0430739
0.00373068
0.0450711
0.0074863
0.0482817
0.0127355
0.051019
0.0118764
0.0519243
0.00967598
0.0503219
0.0122588
0.051139
0.0158541
0.0542907
0.0294247
0.061784
0.0248242
0.0687348
0.018555
0.0706736
0.00519487
0.069179
-0.0114648
0.0661376
-0.0170736
-0.0223233
0.0580321
-0.00845162
-0.059986
0.0560614
-0.00849542
0.0543111
-0.00810021
0.0525844
-0.00734857
0.0510944
-0.00629868
0.0500369
-0.00438034
0.0488785
-0.00259161
0.0483775
-0.000988024
0.0486829
0.00342533
0.0504723
0.00569695
0.053252
0.00995571
0.0552451
0.00988338
0.0562979
0.00862312
0.0548987
0.013658
0.0565434
0.0142094
0.0614643
0.0245037
0.0680525
0.018236
0.0733986
0.013209
0.0744782
0.00411522
0.0716572
-0.0086438
0.0665234
-0.0119398
-0.018609
0.0620573
-0.00675471
-0.0637542
0.0603597
-0.00679783
0.0587686
-0.00650916
0.0573184
-0.00589832
0.0559541
-0.00493439
0.0551368
-0.00356306
0.0542308
-0.00168555
0.0538944
-0.000651679
0.0543818
0.00293799
0.0555017
0.00457705
0.0580856
0.00737178
0.0590156
0.00895338
0.0602084
0.00743027
0.0606577
0.0132088
0.0632518
0.0116153
0.0684285
0.019327
0.0729857
0.0136788
0.0764363
0.00975836
0.0765049
0.00404662
0.0750124
-0.00715129
0.071877
-0.00880432
-0.0180738
0.0665757
-0.00538044
-0.06795
0.0651021
-0.0053242
0.0636559
-0.00506297
0.0623861
-0.00462856
0.0611718
-0.0037201
0.0604839
-0.00287516
0.0598869
-0.00108847
0.059516
-0.000280834
0.0601702
0.00228376
0.0607805
0.00396685
0.0628604
0.0052918
0.0636637
0.00815016
0.0650938
0.00600013
0.0663619
0.0119407
0.0689208
0.00905627
0.0734876
0.0147603
0.0766332
0.0105332
0.0794823
0.00690924
0.0794766
0.00405238
0.0784023
-0.00607704
0.0744604
-0.00486243
-0.0143731
0.071388
-0.00417273
-0.0725957
0.070161
-0.00409724
0.0689619
-0.00386383
0.0678894
-0.00355606
0.0669821
-0.00281282
0.0662574
-0.00215045
0.0659755
-0.000806498
0.0655587
0.000135886
0.0662409
0.00160155
0.0666351
0.00357268
0.068186
0.00374092
0.0691224
0.00721378
0.0703565
0.00476597
0.0721399
0.0101574
0.0742635
0.00693263
0.077898
0.0111258
0.0803188
0.00811246
0.082295
0.00493305
0.0822391
0.00410825
0.0819238
-0.0057617
0.0800624
-0.00300106
-0.0120508
0.0765512
-0.00317968
-0.0775443
0.0755668
-0.00311281
0.0746669
-0.00296392
0.0737719
-0.00266103
0.0731295
-0.00217045
0.0724535
-0.00147441
0.072355
-0.000708027
0.0719869
0.000503923
0.0725738
0.00101475
0.0728823
0.00326409
0.0740104
0.00261287
0.0750822
0.00614195
0.076128
0.00372023
0.0780505
0.00823487
0.0796541
0.00532897
0.082452
0.00832787
0.0843618
0.00620265
0.0861118
0.00318309
0.0864267
0.00379332
0.0852817
-0.00461663
0.0834633
-0.0011827
-0.00967436
0.0822306
-0.00243852
-0.0829718
0.0814061
-0.00228831
0.0807146
-0.00227235
0.0799183
-0.00186478
0.0794596
-0.00171177
0.07888
-0.000894773
0.0788458
-0.000673818
0.0786235
0.000726245
0.0790523
0.000585909
0.0794646
0.00285183
0.0802646
0.00181288
0.0813471
0.00505944
0.0822192
0.00284806
0.083926
0.00652806
0.0852042
0.00405086
0.0874519
0.00608016
0.0888608
0.00479369
0.0899353
0.0021086
0.0903164
0.00341225
0.0895842
-0.00388442
0.088659
-0.000257499
-0.00784456
0.0883578
-0.00181369
-0.0889826
0.0876475
-0.00157802
0.0870694
-0.00169427
0.0864223
-0.0012177
0.0860542
-0.00134365
0.0856008
-0.000441442
0.0855556
-0.000628594
0.08547
0.000811894
0.0857829
0.000272938
0.0862068
0.002428
0.0867809
0.00123878
0.087783
0.0040573
0.0884897
0.0021414
0.0900219
0.00499585
0.0910038
0.00306896
0.0926635
0.00442038
0.0937881
0.00366914
0.0945611
0.00133559
0.0950314
0.002942
0.0942736
-0.00312665
0.0934481
0.000567956
-0.00630193
0.0948576
-0.00129865
-0.0953726
0.0943132
-0.00103368
0.0938439
-0.0012249
0.0933506
-0.000724392
0.0930119
-0.00100497
0.0926932
-0.000122717
0.092593
-0.000528433
0.0925776
0.000827344
0.0927407
0.000109798
0.0931607
0.00200796
0.0935728
0.000826671
0.0944772
0.0031529
0.0950499
0.00156872
0.0963051
0.00374072
0.0970351
0.00233888
0.0983604
0.00309508
0.0991466
0.00288296
0.0997191
0.000763121
0.100113
0.00254785
0.0994463
-0.00245967
0.0990692
0.000945044
-0.00502599
0.101768
-0.000896522
-0.10217
0.101346
-0.00061164
0.100964
-0.000842919
0.100605
-0.000364858
0.100323
-0.000723213
0.100099
0.000101161
0.099965
-0.000394536
0.0999899
0.000802456
0.100053
4.67795e-05
0.10045
0.00161056
0.100697
0.000580163
0.101478
0.0023718
0.101866
0.00118037
0.102915
0.00269163
0.10348
0.00177435
0.104439
0.0021358
0.105119
0.00220298
0.105424
0.000458241
0.105899
0.00207261
0.105347
-0.00190723
0.105137
0.00115513
-0.00392376
0.108999
-0.000571127
-0.109325
0.108734
-0.000345753
0.108448
-0.000557882
0.10822
-0.000135894
0.107951
-0.00045479
0.107825
0.000227435
0.107676
-0.000245938
0.107754
0.000725092
0.107755
4.53813e-05
0.108069
0.00129622
0.108237
0.000412271
0.108816
0.00179301
0.10916
0.000836571
0.109904
0.00194786
0.110402
0.00127578
0.111054
0.00148407
0.111636
0.0016213
0.111828
0.000265309
0.112252
0.00164865
0.11175
-0.00140456
0.111719
0.00118592
-0.00295316
0.116751
-0.000347558
-0.116974
0.116569
-0.000164411
0.11632
-0.000308074
0.116159
2.50292e-05
0.115951
-0.000247014
0.115907
0.000271394
0.115779
-0.000118524
0.115865
0.00063968
0.115836
7.41445e-05
0.116101
0.00103094
0.116203
0.000310182
0.116655
0.00134107
0.116906
0.00058563
0.117442
0.00141241
0.117843
0.000874295
0.118267
0.00106018
0.118764
0.0011244
0.118808
0.000221712
0.1192
0.00125649
0.118752
-0.000956897
0.1188
0.00113809
-0.00214167
0.124894
-0.000161192
-0.12508
0.124762
-3.21875e-05
0.124597
-0.000142723
0.12453
9.13052e-05
0.124403
-0.000120076
0.124386
0.00028862
0.124302
-3.39227e-05
0.124382
0.000558984
0.124367
8.89817e-05
0.124572
0.000826343
0.12465
0.000232513
0.124959
0.00103179
0.125141
0.000403506
0.125501
0.0010523
0.125788
0.000587514
0.126073
0.000775296
0.126408
0.000789104
0.126453
0.000177027
0.126723
0.000986445
0.126415
-0.000649277
0.126482
0.0010718
-0.00151738
0.133579
-6.23238e-05
-0.133678
0.133523
2.38109e-05
0.133445
-6.41496e-05
0.133417
0.000119139
0.13334
-4.28424e-05
0.133355
0.000273161
0.133304
1.76362e-05
0.133395
0.000467295
0.133378
0.000106381
0.133532
0.000672063
0.133557
0.000207939
0.133772
0.00081642
0.13386
0.000315754
0.134095
0.000817291
0.134258
0.000424568
0.134428
0.000605493
0.134654
0.000562766
0.134663
0.000168065
0.1349
0.000749591
0.134674
-0.00042339
0.134826
0.000919732
-0.00104398
0.142926
1.04037e-05
-0.142999
0.142871
7.85274e-05
0.142804
3.66253e-06
0.14278
0.000142825
0.142727
9.99212e-06
0.142764
0.000236605
0.142734
4.78053e-05
0.142815
0.000386062
0.142803
0.000117819
0.142935
0.000540686
0.142945
0.000197452
0.143113
0.000648948
0.143148
0.000280369
0.143314
0.000651069
0.143377
0.000362104
0.143496
0.000486365
0.143598
0.000460148
0.143611
0.000155226
0.143753
0.000607584
0.143604
-0.000274517
0.143766
0.00075807
-0.000704916
0.152848
8.76989e-05
-0.152925
0.152794
0.000131926
0.152725
7.3529e-05
0.15271
0.0001572
0.152652
6.85435e-05
0.152664
0.000224183
0.152617
9.49432e-05
0.15268
0.000322875
0.152662
0.000135662
0.152783
0.000419775
0.152796
0.000184469
0.152953
0.000492528
0.152992
0.000240832
0.153145
0.00049815
0.153206
0.000300983
0.153295
0.000397195
0.153373
0.000382004
0.153341
0.00018752
0.153444
0.000504863
0.153267
-9.79761e-05
0.153408
0.000617543
-0.000411521
0.163458
0.000122209
-0.163493
0.163436
0.000154494
0.163382
0.000127661
0.163348
0.000190447
0.16328
0.000136793
0.163268
0.000236039
0.163213
0.000150275
0.163245
0.000290955
0.163212
0.00016882
0.163288
0.000342968
0.163287
0.000185522
0.163407
0.000372706
0.163445
0.000203549
0.163577
0.000365397
0.163641
0.000236938
0.163734
0.000304599
0.163812
0.000304285
0.163801
0.000197719
0.163884
0.000422336
0.163739
4.7414e-05
0.163834
0.000521632
-0.000163001
0.174673
0.000140166
-0.174691
0.174656
0.000171185
0.174629
0.000154851
0.174621
0.000198616
0.174595
0.000162989
0.174599
0.000231329
0.174571
0.00017876
0.174588
0.000274065
0.174564
0.000192947
0.174604
0.000303008
0.174597
0.000192556
0.174661
0.000307968
0.174676
0.000188718
0.174753
0.000288238
0.174796
0.000194132
0.174856
0.000244341
0.17492
0.000240489
0.174925
0.000193095
0.175005
0.000342527
0.174926
0.00012649
0.175009
0.000437779
-2.70506e-06
0.186569
0.000143186
-0.186572
0.186572
0.000168367
0.186578
0.000148455
0.18659
0.000186791
0.186595
0.000157745
0.186611
0.000215107
0.186616
0.000174529
0.186643
0.000246743
0.186647
0.000188502
0.186686
0.000264583
0.186688
0.000190774
0.186733
0.000262398
0.186734
0.000187984
0.186779
0.000243273
0.186781
0.000192377
0.186813
0.000211673
0.186831
0.000223059
0.186841
0.000182409
0.186888
0.000295688
0.18686
0.000154615
0.186931
0.000366384
8.11248e-05
0.199367
0.000140232
-0.199364
0.19937
0.000164707
0.199376
0.000142479
0.199386
0.000177396
0.199398
0.0001452
0.19942
0.000193487
0.199439
0.000155304
0.199474
0.000212352
0.199496
0.000166456
0.199538
0.000221698
0.199554
0.000174857
0.199594
0.000222292
0.199595
0.000187511
0.199625
0.00021355
0.199615
0.000202479
0.199633
0.000192964
0.199628
0.000228448
0.199634
0.000175889
0.199654
0.00027658
0.199646
0.000162552
0.199698
0.000314278
0.000119549
0.213065
0.000140398
-0.213065
0.213069
0.000160534
0.213073
0.000139111
0.213085
0.000165197
0.213094
0.000136084
0.213117
0.000170458
0.213134
0.000138469
0.213168
0.000178294
0.213187
0.000146812
0.213224
0.000184787
0.213239
0.000160399
0.213273
0.000188083
0.213282
0.000178961
0.213309
0.000185647
0.213311
0.000201094
0.213325
0.000178601
0.213326
0.000227352
0.213329
0.000173017
0.213347
0.000258418
0.213341
0.000168812
0.213383
0.000272355
0.000144739
0.227679
0.000134628
-0.227673
0.227692
0.000147232
0.2277
0.000131321
0.227719
0.000145942
0.22773
0.000125362
0.227754
0.000146229
0.227765
0.000126841
0.227792
0.000151534
0.227805
0.000133891
0.227835
0.000154794
0.227852
0.0001438
0.227883
0.000157272
0.227899
0.000162864
0.227921
0.000163527
0.227934
0.000187692
0.227947
0.000166234
0.227963
0.000210762
0.227967
0.000168899
0.227993
0.000232887
0.22799
0.00017147
0.228027
0.000235279
0.000157848
0.243294
0.000118115
-0.243277
0.243316
0.000124718
0.243331
0.000116697
0.243353
0.000124296
0.243364
0.000113781
0.243386
0.000124323
0.243398
0.000114625
0.243423
0.000126496
0.243439
0.000118259
0.243466
0.000128065
0.243483
0.000126521
0.243506
0.000134139
0.243525
0.0001443
0.243544
0.000144218
0.243567
0.000165063
0.243581
0.000151843
0.243608
0.000184157
0.243617
0.000159615
0.243649
0.00020075
0.243655
0.00016556
0.243689
0.000201021
0.000157163
0.259999
0.000100021
-0.259981
0.260021
0.000103166
0.260037
0.0001003
0.260059
0.000102406
0.260075
9.77799e-05
0.260099
0.000100687
0.260116
9.73661e-05
0.26014
0.000101898
0.260158
0.00010099
0.260181
0.000105034
0.260199
0.000108095
0.260222
0.000111267
0.260245
0.000121169
0.260268
0.000121542
0.260295
0.000137538
0.260316
0.0001316
0.260347
0.000152792
0.260365
0.000141764
0.260399
0.000166623
0.260415
0.000149661
0.260449
0.000167174
0.000144401
0.277851
7.74143e-05
-0.277829
0.277877
7.73757e-05
0.2779
7.6815e-05
0.277927
7.58425e-05
0.277949
7.54194e-05
0.277975
7.54486e-05
0.277995
7.67315e-05
0.278019
7.77019e-05
0.27804
8.00366e-05
0.278065
8.04303e-05
0.278088
8.48769e-05
0.278113
8.60262e-05
0.27814
9.49106e-05
0.278165
9.6251e-05
0.278195
0.000107814
0.27822
0.000106326
0.278253
0.000119336
0.278279
0.000115994
0.278316
0.000129778
0.278342
0.000123431
0.278378
0.00013153
0.000120842
0.296976
5.02198e-05
-0.296949
0.297004
4.96457e-05
0.297029
5.13833e-05
0.297055
5.00173e-05
0.297079
5.1728e-05
0.297104
5.05284e-05
0.297127
5.31066e-05
0.297153
5.22355e-05
0.297177
5.53309e-05
0.297203
5.45513e-05
0.297229
5.88997e-05
0.297256
5.93878e-05
0.297285
6.59331e-05
0.297314
6.73176e-05
0.297347
7.44815e-05
0.297378
7.5137e-05
0.297415
8.22617e-05
0.297448
8.29286e-05
0.297488
8.98152e-05
0.297523
8.91436e-05
0.297562
9.18708e-05
8.78503e-05
0.31749
2.67205e-05
-0.317466
0.317513
2.59744e-05
0.317538
2.71566e-05
0.317562
2.59236e-05
0.317586
2.71779e-05
0.317611
2.60714e-05
0.317636
2.78828e-05
0.317661
2.71045e-05
0.317687
2.92031e-05
0.317713
2.85714e-05
0.317741
3.10112e-05
0.317769
3.11332e-05
0.317801
3.43968e-05
0.317833
3.54285e-05
0.317868
3.87808e-05
0.317904
3.98817e-05
0.317943
4.27724e-05
0.317982
4.41832e-05
0.318025
4.66615e-05
0.318066
4.76609e-05
0.31811
4.80047e-05
4.73079e-05
0.339432
-0.339406
0.339458
0.339486
0.339512
0.339539
0.339565
0.339593
0.33962
0.339649
0.339678
0.339709
0.33974
0.339774
0.33981
0.339848
0.339888
0.339931
0.339975
0.340022
0.340069
0.340117
0.0539957
0.0196229
0.053004
0.0240586
0.05284
0.0252504
0.0512742
0.0296786
0.0286227
0.0562301
0.0194431
0.0554199
0.0248688
0.0548493
0.025821
0.0538981
0.0306297
0.0300715
0.0587706
0.0194966
0.0584119
0.0252276
0.0579101
0.0263227
0.057358
0.0311819
0.0311983
0.0617622
0.0617184
0.0252714
0.0613263
0.0267147
0.060971
0.0315371
0.0321834
0.0649897
0.0253491
0.0646475
0.0270569
0.0644606
0.0317241
0.0328898
0.0686709
0.0254221
0.0683747
0.0273531
0.0683516
0.0317472
0.0332914
0.0729812
0.02536
0.0727593
0.027575
0.0727832
0.0317233
0.0334789
0.0777258
0.025224
0.0775966
0.0277042
0.0776273
0.0316927
0.0335619
0.0827961
0.0250451
0.0828037
0.0276966
0.0829679
0.0315285
0.033558
0.0883159
0.0247268
0.0884643
0.0275481
0.0888495
0.0311433
0.0334249
0.094266
0.0242594
0.0945317
0.0272825
0.0950719
0.0306031
0.0331241
0.100584
0.0237155
0.100992
0.0268744
0.101666
0.0299296
0.0326194
0.107317
0.0231153
0.107875
0.026316
0.108634
0.029171
0.0319285
0.114523
0.0224454
0.115261
0.0255775
0.11612
0.0283122
0.0310746
0.122408
0.0216798
0.123237
0.0247488
0.124117
0.0274322
0.0301107
0.130627
0.0209525
0.131492
0.0238842
0.132526
0.0263978
0.0289586
0.1396
0.020078
0.140677
0.0228066
0.14181
0.0252647
0.0277702
0.149426
0.0190729
0.150506
0.0217267
0.15164
0.0241307
0.0264854
0.159494
0.0180405
0.160679
0.0205415
0.162016
0.0227938
0.0250087
0.170305
0.0168719
0.171654
0.0191927
0.173114
0.0213342
0.0234316
0.181983
0.0156443
0.183363
0.0178133
0.184885
0.0198116
0.0217449
0.194446
0.0143532
0.195917
0.0163423
0.197558
0.0181705
0.019939
0.207778
0.012952
0.20937
0.0147504
0.211133
0.0164074
0.0180069
0.221999
0.0114491
0.223706
0.0130434
0.225596
0.0145171
0.0159302
0.237184
0.00984322
0.239014
0.011213
0.241045
0.0124859
0.0136983
0.253458
0.00812175
0.255419
0.00925269
0.257594
0.0103102
0.0113114
0.270864
0.00628738
0.272953
0.00716363
0.275277
0.00798619
0.00875996
0.289503
0.00432847
0.291735
0.00493127
0.294221
0.00549981
0.00603264
0.309499
0.00223418
0.311886
0.00254492
0.314546
0.00283901
0.00311284
0.330909
0.333454
0.336293
)
;

boundaryField
{
    outlet
    {
        type            calculated;
        value           nonuniform 0();
    }
    upperWall
    {
        type            symmetryPlane;
        value           uniform 0;
    }
    lowerWall
    {
        type            symmetryPlane;
        value           nonuniform 0();
    }
    inlet
    {
        type            calculated;
        value           nonuniform 0();
    }
    cylinder
    {
        type            calculated;
        value           nonuniform 0();
    }
    frontAndBack
    {
        type            empty;
        value           nonuniform 0();
    }
    procBoundary6to2
    {
        type            processor;
        value           nonuniform List<scalar> 
37
(
-0.0170421
-0.0147172
-0.0107613
-0.00549721
0.000148454
0.00520049
0.0115398
0.0202501
0.0288704
0.0348603
0.0378064
0.0390181
0.0389536
0.0395766
0.0390332
0.0387093
0.0412896
0.0612909
0.0542088
0.0345022
0.00337662
-0.0265978
-0.0488356
-0.059779
-0.0648038
-0.0636922
-0.0632161
-0.0657587
-0.071267
-0.0757219
-0.0727099
-0.0597577
-0.0285166
0.0103682
0.0493177
0.0712854
0.0843366
)
;
    }
    procBoundary6to5
    {
        type            processor;
        value           nonuniform List<scalar> 
63
(
-0.0226331
-0.0333691
-0.0337966
-0.0340742
-0.0213812
-0.0346635
-0.0349552
-0.0205204
-0.0356144
-0.0359868
-0.0363452
-0.0199198
-0.0375836
-0.0379427
-0.0383328
-0.0195635
-0.00573678
0.0161877
-0.00888599
-0.0101967
-0.0100406
-0.00807461
0.00594722
-0.00670637
-0.00151643
-0.0127253
-0.0198534
-0.0224938
-0.029567
-0.024333
-0.0325441
-0.0231555
-0.0540551
-0.0560503
-0.0588242
-0.0620323
0.0197667
-0.0650673
-0.0687439
-0.0729192
-0.0775897
-0.0826172
-0.0879976
-0.0937986
-0.10004
-0.106717
-0.113853
-0.121642
-0.1299
-0.138725
-0.148421
-0.158462
-0.169137
-0.180756
-0.193155
-0.206377
-0.220496
-0.235578
-0.251737
-0.26903
-0.287544
-0.307405
-0.328675
)
;
    }
    procBoundary6to7
    {
        type            processor;
        value           nonuniform List<scalar> 
42
(
0.0360123
0.0366489
0.0381042
0.0408245
0.0442506
0.0472256
0.0666164
0.0406057
0.0417853
0.0441865
0.0448708
0.0382618
0.0522174
0.0547083
0.0618003
0.0628091
0.0713418
0.0707597
0.0777401
0.0810869
0.0868292
0.0919055
0.0977932
0.104034
0.110748
0.117989
0.125857
0.134353
0.143427
0.153114
0.163586
0.174849
0.186848
0.199659
0.213358
0.228014
0.24369
0.260461
0.278401
0.297595
0.318151
0.340165
)
;
    }
}


// ************************************************************************* //
