/*--------------------------------*- C++ -*----------------------------------*\
| =========                 |                                                 |
| \\      /  F ield         | OpenFOAM: The Open Source CFD Toolbox           |
|  \\    /   O peration     | Version:                                        |
|   \\  /    A nd           | Website:  www.openfoam.com                      |
|    \\/     M anipulation  |                                                 |
\*---------------------------------------------------------------------------*/
FoamFile
{
    version     2.0;
    format      ascii;
    class       surfaceScalarField;
    location    "164.4";
    object      phi;
}
// * * * * * * * * * * * * * * * * * * * * * * * * * * * * * * * * * * * * * //

dimensions      [0 3 -1 0 0 0 0];
oriented        oriented;


internalField   nonuniform List<scalar> 
2213
(
-0.00052897
-0.00053705
0.00106602
-0.000422243
0.000449294
-0.000556021
0.000183953
0.00254159
-0.00314779
0.00112184
0.00311083
-0.00404872
0.00278205
0.00162409
-0.00328429
0.0046289
-0.00125144
-0.000595411
0.00694035
-0.00570897
0.00339751
0.0102469
-0.0116279
0.00832138
0.0143452
-0.0184192
0.0143208
-0.0238807
0.000244144
-0.000781193
0.000999713
-0.000306276
0.00262257
0.000918738
0.005085
0.000648404
0.00790709
-0.001198
0.0106875
-0.00403186
0.0141948
-0.00921624
0.0188349
-0.016268
0.0232475
-0.0228317
0.0264063
-0.0270395
0.0280726
-0.0286197
-0.0285269
0.000347619
-0.00112881
0.00096052
-0.000919177
0.00248475
-0.000605495
0.00517974
-0.00204658
0.00827259
-0.00429086
0.012518
-0.00827732
0.0180687
-0.0147669
0.0233423
-0.0215416
0.0266343
-0.0261237
0.0275987
-0.0280039
0.0272505
-0.0282716
0.0267694
-0.0280458
0.0271185
-0.0280546
-0.0282679
-3.40113e-05
-0.0010948
8.36918e-06
-0.000961558
0.000910882
-0.00150801
0.00346151
-0.00459721
0.00825578
-0.00908512
0.0150898
-0.0151113
0.0213621
-0.0210392
0.0248848
-0.0250643
0.0256123
-0.0268511
0.0250579
-0.0274495
0.024686
-0.0278998
0.0251553
-0.0285151
0.02615
-0.0290493
0.0273761
-0.0294939
0.0286168
-0.029906
0.0295547
-0.0301435
-0.030618
-0.00054363
-0.000551171
-0.000990072
-0.000515116
0.000818168
-0.00331625
0.00588135
-0.0096604
0.01291
-0.0161138
0.0189872
-0.0211885
0.0221495
-0.0242015
0.0226756
-0.0255904
0.0223062
-0.0264818
0.0223525
-0.0274959
0.0229232
-0.0284704
0.0235081
-0.0291
0.0239485
-0.0294898
0.024419
-0.0299644
0.0250982
-0.0305852
0.0263306
-0.0313759
0.0280159
-0.0323032
0.0297402
-0.0331268
0.0313328
-0.0340303
-0.0350534
-0.000553709
2.53774e-06
-0.000192045
-0.00087678
0.00449009
-0.00799839
0.0109393
-0.0161096
0.0159535
-0.0211281
0.0183135
-0.0235484
0.0187964
-0.0246844
0.0189546
-0.0257487
0.0194709
-0.0269981
0.0200148
-0.0280398
0.0202855
-0.0287411
0.0204708
-0.0292853
0.0209866
-0.0300056
0.0219043
-0.0308821
0.022967
-0.031648
0.0238276
-0.0322365
0.0245114
-0.032987
0.0253385
-0.0339539
0.0262792
-0.034971
-0.0359592
0.027185
-0.000522487
0.000525025
0.00229723
-0.0036965
0.00835348
-0.0140546
0.012393
-0.0201491
0.0143179
-0.023053
0.0151908
-0.0244214
0.0160384
-0.025532
0.0168478
-0.026558
0.0172559
-0.0274062
0.0173863
-0.0281702
0.0175655
-0.0289203
0.018021
-0.0297408
0.0185409
-0.0305255
0.0188761
-0.0312173
0.0191702
-0.0319421
0.0197216
-0.0327878
0.0205524
-0.0338178
0.0214795
-0.034881
0.0223969
-0.0358884
-0.0369444
0.0233822
-9.57739e-05
0.000620799
0.00486679
-0.00865906
0.00906854
-0.0182564
0.0113154
-0.0223959
0.0125693
-0.024307
0.0135456
-0.0253976
0.0141063
-0.0260927
0.0142411
-0.0266928
0.0143038
-0.0274689
0.0144718
-0.0283382
0.0147104
-0.0291589
0.0148659
-0.0298963
0.0150838
-0.0307434
0.0155377
-0.0316711
0.0160539
-0.0324583
0.0165805
-0.0333144
0.0171181
-0.0343554
0.0176184
-0.0353813
0.0180456
-0.0363156
-0.0372495
0.0183507
0.00133177
-0.000710968
0.00649798
-0.0138253
0.0088105
-0.0205689
0.010191
-0.0237765
0.0109405
-0.0250564
0.0111562
-0.0256133
0.0112126
-0.0261491
0.0114096
-0.0268898
0.0116483
-0.0277076
0.0117768
-0.0284666
0.0118352
-0.0292174
0.0120346
-0.0300958
0.012242
-0.0309508
0.0122844
-0.0317135
0.0124134
-0.0325874
0.0126144
-0.0335154
0.0128157
-0.0345567
0.0131157
-0.0356814
0.0134975
-0.0366974
-0.0377065
0.0139546
0.00242843
-0.00313939
0.00614347
-0.0175403
0.00823094
-0.0226564
0.00876014
-0.0243057
0.00873701
-0.0250333
0.00879676
-0.025673
0.00899165
-0.026344
0.00910099
-0.0269991
0.00907518
-0.0276818
0.00899003
-0.0283814
0.00891993
-0.0291473
0.00880141
-0.0299772
0.00874669
-0.0308961
0.00881088
-0.0317777
0.0088099
-0.0325864
0.00888078
-0.0335863
0.00903464
-0.0347106
0.00908367
-0.0357304
0.00909213
-0.0367058
0.0090964
-0.0377108
0.00205687
-0.0164426
0.0028899
-0.0208055
-0.0204567
0.000751563
-0.0171942
0.000339957
-0.0203939
5.07018e-05
-0.0201675
-0.0198702
-0.000479105
-0.0167151
-0.00201444
-0.0188586
-0.00342516
-0.0187568
-0.0187541
-0.00195423
-0.0147608
-0.00437486
-0.016438
-0.0067502
-0.0163814
-0.0166123
-0.00295014
-0.0118107
-0.0064222
-0.0129659
-0.00987313
-0.0129305
-0.0133739
-0.00342665
-0.00838405
-0.00751322
-0.00887934
-0.0117896
-0.00865407
-0.0159919
-0.00917164
-0.00885156
-0.00316452
-0.00521953
-0.00697395
-0.00506991
-0.0113099
-0.0043181
-0.0158616
-0.00461992
-0.0204986
-0.00421462
-0.00497925
-0.00204881
-0.00317072
-0.00476709
-0.00235163
-0.00838876
-0.000696432
-0.0126968
-0.000311868
-0.0169397
2.83133e-05
-0.0207868
-0.00113218
-0.00350228
-0.00099637
-0.00217435
-0.00266473
-0.000683273
-0.00533175
0.00197059
-0.00880074
0.00315712
-0.0118136
0.00304121
-0.0137867
0.000840879
-0.0146942
-0.00259478
-0.00632934
-0.00110833
-0.00234762
-0.00352482
-0.00441642
-0.0046595
-0.00441403
-0.0036113
-0.00161926
0.0500626
0.00830505
-0.0492713
0.0506782
0.0133391
0.0514
0.0176289
0.0519926
0.0227895
0.0268567
0.053051
0.00777545
-0.0525215
0.0538866
0.0125035
0.0543093
0.0172062
0.0551287
0.0219702
0.0265798
0.0563282
0.0074234
-0.0559761
0.0571116
0.0117201
0.0575407
0.0167771
0.0582131
0.0212977
0.0258978
0.0600936
0.00700392
-0.0596741
0.0606467
0.011167
0.0612864
0.0161374
0.0617341
0.02085
0.0248798
0.0641064
0.00644679
-0.0635492
0.0645363
0.0107371
0.065292
0.0153817
0.0656599
0.0204821
0.0665806
0.0239591
0.029768
0.0683297
0.00578401
-0.0676669
0.0686968
0.01037
0.0694397
0.0146388
0.0698732
0.0200486
0.0706303
0.023202
0.028819
0.0727646
0.0051118
-0.0720923
0.0731644
0.0099701
0.0738902
0.0139131
0.0746255
0.0193133
0.0754226
0.022405
0.0276094
0.0775287
0.0045162
-0.0769331
0.0780603
0.00943849
0.0787464
0.013227
0.0796472
0.0184124
0.0802828
0.0217694
0.0266263
0.0826546
0.00402393
-0.0821623
0.0832277
0.00886536
0.0837693
0.0126854
0.0845627
0.017619
0.0850389
0.0212932
0.0256704
0.0880533
0.00365928
-0.0876886
0.0885719
0.00834677
0.0890151
0.0122422
0.0898158
0.0168183
0.0905519
0.0205572
0.0245012
0.0937671
0.00336426
-0.0934721
0.0942523
0.00786162
0.0947653
0.0117292
0.0956101
0.0159734
0.0964272
0.0197402
0.0235691
0.0998428
0.00309709
-0.0995757
0.100299
0.00740579
0.100824
0.0112043
0.101507
0.0152902
0.102218
0.0190285
0.0227595
0.106294
0.0028658
-0.106062
0.106679
0.00701981
0.107163
0.0107209
0.107769
0.0146838
0.108572
0.0182254
0.0218356
0.113177
0.00264993
-0.112961
0.113539
0.00665805
0.114059
0.0102005
0.114694
0.0140492
0.115536
0.0173828
0.0209799
0.120586
0.00242978
-0.120366
0.120959
0.00628514
0.121494
0.00966551
0.122121
0.0134218
0.122911
0.0165931
0.0201202
0.128562
0.00221959
-0.128352
0.128943
0.00590456
0.129465
0.00914381
0.130126
0.0127603
0.130941
0.0157786
0.0191653
0.137141
0.00202439
-0.136946
0.137537
0.00550854
0.138062
0.00861897
0.138778
0.0120439
0.139603
0.0149534
0.0181743
0.146358
0.00184312
-0.146177
0.146759
0.00510816
0.147283
0.00809492
0.148018
0.0113089
0.148853
0.0141184
0.0171367
0.15623
0.00167163
-0.156059
0.156623
0.00471483
0.157154
0.00756479
0.157908
0.0105545
0.15879
0.013236
0.0160469
0.166795
0.00150612
-0.16663
0.167182
0.00432823
0.16773
0.00701708
0.1685
0.00978355
0.169412
0.0123243
0.0149392
0.178079
0.0013451
-0.177918
0.178462
0.00394562
0.179026
0.00645291
0.179807
0.00900304
0.180749
0.0113821
0.013786
0.19013
0.00119178
-0.189977
0.19051
0.00356623
0.191093
0.00586969
0.191907
0.00818935
0.192916
0.0103728
0.012565
0.203022
0.00104133
-0.202871
0.203414
0.00317443
0.204032
0.00525146
0.204889
0.00733231
0.205944
0.0093174
0.0112935
0.216834
0.000892432
-0.216685
0.217235
0.0027741
0.217872
0.00461431
0.218753
0.00645124
0.219855
0.00821497
0.00995727
0.231612
0.000748226
-0.231468
0.232022
0.00236396
0.23269
0.00394665
0.233619
0.00552209
0.234793
0.00704166
0.00853593
0.247445
0.00060099
-0.247298
0.247878
0.00193157
0.248583
0.00324129
0.249564
0.00454144
0.250805
0.00580021
0.00703423
0.264399
0.00045143
-0.264249
0.264848
0.00148236
0.265591
0.00249861
0.266626
0.00350582
0.267944
0.00448261
0.00543834
0.282567
0.000303887
-0.28242
0.283034
0.00101542
0.283818
0.00171523
0.284917
0.00240689
0.28632
0.0030795
0.0037379
0.302058
0.000156405
-0.301911
0.302551
0.00052227
0.303383
0.000883742
0.304548
0.00124147
0.306038
0.00158947
0.00192945
0.322948
-0.322792
0.323471
0.324354
0.325596
0.327185
0.0310892
0.0285432
-0.0269652
-0.0326672
0.0290104
0.0277619
-0.0256832
0.0269289
0.0267645
-0.024683
0.0249518
0.0258669
-0.0238898
0.0230843
0.0250825
-0.023215
0.0212799
0.0243933
-0.022589
0.0195053
0.0237383
-0.0219638
0.0177518
0.0231162
-0.0213626
0.0160044
0.0225296
-0.0207822
0.0142953
0.0219477
-0.0202386
0.0126767
0.0214219
-0.0198033
0.011082
0.0210412
-0.0194465
0.00951801
0.0206507
-0.0190867
0.00801811
0.0202805
-0.0187806
0.00654159
0.0200431
-0.0185666
0.00510064
0.0198957
-0.0184548
0.00368006
0.0198392
-0.0184186
0.0022231
0.0198801
-0.0184231
0.000836614
0.0200167
-0.0186302
0.0159047
-0.0150681
0.0276949
0.0303358
-0.0294875
0.0258882
0.0295686
0.0239752
0.0286774
0.0220886
0.0277535
0.0203028
0.0268683
0.0186183
0.0260779
0.0169905
0.0253661
0.0154292
0.0246776
0.0139278
0.024031
0.0124201
0.0234554
0.0109453
0.0228967
0.00954667
0.0224398
0.00813423
0.0220632
0.00675403
0.0216607
0.00544464
0.0213525
0.00414676
0.0211936
0.00286997
0.021116
0.00165479
0.0210953
0.000580769
0.0210907
0.0164855
0.0241268
0.0319519
-0.0257429
0.022512
0.0311834
0.020855
0.0303344
0.0192054
0.0294031
0.0176076
0.0284662
0.016088
0.0275974
0.0146177
0.0268363
0.0131448
0.0261505
0.0117389
0.0254369
0.010429
0.0247653
0.00912214
0.0242036
0.0078576
0.0237044
0.0066659
0.0232549
0.00546525
0.0228614
0.00429462
0.0225232
0.00321036
0.0222779
0.00218915
0.0221372
0.00109223
0.0221922
0.000105206
0.0220777
0.0165907
0.0202474
0.0335653
-0.0218607
0.0187582
0.0326726
0.0173121
0.0317805
0.0158779
0.0308374
0.0144794
0.0298647
0.0131312
0.0289456
0.0118723
0.0280953
0.0106722
0.0273506
0.00943765
0.0266714
0.00823783
0.0259651
0.00712865
0.0253127
0.00603041
0.0248026
0.00495807
0.0243272
0.00396222
0.0238572
0.00300731
0.0234781
0.0020591
0.0232261
0.00119578
0.0230005
0.000435452
0.0229525
-0.000193007
0.0227062
0.0163977
0.0162637
0.0349133
-0.0176118
0.0150048
0.0339316
0.0137679
0.0330174
0.0125462
0.032059
0.0113678
0.031043
0.0102239
0.0300896
0.00907583
0.0292433
0.00798737
0.0284391
0.00700479
0.027654
0.00601972
0.0269501
0.00502912
0.0263033
0.00412588
0.0257058
0.00327179
0.0251813
0.0024095
0.0247195
0.00158716
0.0243004
0.000862164
0.023951
0.000170487
0.0236922
-0.00036385
0.0234869
-0.000614991
0.0229573
0.0157827
0.0118961
0.0359957
-0.0129785
0.0108708
0.0349569
0.00989625
0.033992
0.00891167
0.0330436
0.00790004
0.0320546
0.00696499
0.0310247
0.00609798
0.0301103
0.00520504
0.029332
0.00431454
0.0285445
0.00354241
0.0277223
0.0028127
0.027033
0.00203798
0.0264806
0.0013234
0.0258959
0.000699813
0.0253431
0.000119417
0.0248808
-0.000480963
0.0245514
-0.00100325
0.0242145
-0.00132394
0.0238076
-0.0010632
0.0226966
0.0147195
0.00759592
0.0368261
-0.00842632
0.00671877
0.035834
0.00588183
0.0348289
0.00517272
0.0337527
0.00451628
0.0327111
0.00376443
0.0317765
0.00301721
0.0308576
0.00235342
0.0299958
0.00171457
0.0291833
0.00103298
0.0284039
0.000419138
0.0276469
-9.3163e-05
0.0269929
-0.000590337
0.0263931
-0.00109951
0.0258523
-0.00159155
0.0253729
-0.00196991
0.0249298
-0.0022432
0.0244878
-0.0023722
0.0239366
-0.00178197
0.0221064
0.0129375
0.00299466
0.0373653
-0.00353383
0.00242464
0.0364041
0.00186328
0.0353903
0.00124711
0.0343689
0.000682573
0.0332756
0.000260393
0.0321987
-0.000208265
0.0313262
-0.000734225
0.0305217
-0.00118684
0.0296359
-0.00156454
0.0287816
-0.00198426
0.0280666
-0.00242709
0.0274357
-0.00281311
0.0267791
-0.00309832
0.0261375
-0.0032847
0.0255592
-0.00347496
0.0251201
-0.00367009
0.0246829
-0.00356823
0.0238347
-0.00239578
0.0209339
0.0105417
-0.00176655
0.0377662
0.00136563
-0.00205028
0.0366878
-0.00234071
0.0356807
-0.00253612
0.0345643
-0.00278047
0.03352
-0.00314985
0.0325681
-0.00343615
0.0316125
-0.00369264
0.0307782
-0.00401059
0.0299539
-0.00432386
0.0290948
-0.00457498
0.0283177
-0.00475658
0.0276173
-0.0048851
0.0269076
-0.00502044
0.0262728
-0.0051981
0.0257369
-0.00527926
0.0252012
-0.00515474
0.0245584
-0.00480096
0.0234809
-0.00357444
0.0197074
0.0069673
-0.00635567
0.00641106
-0.00637371
-0.00642341
-0.0065697
-0.00663603
-0.00665434
-0.0068195
-0.00693731
-0.00696065
-0.00701308
-0.0070768
-0.00714132
-0.0072328
-0.00730403
-0.00724015
-0.00707226
-0.00681953
-0.00599498
-0.00382791
0.0394111
0.00135813
0.0366661
0.00122173
0.0339762
0.00109138
0.0313411
0.000968986
0.0287617
0.000849123
0.026231
0.000733505
0.023745
0.000619613
0.0212983
0.000508328
0.0188805
0.00040296
0.0164914
0.000302873
0.0141206
0.000207694
0.0117448
0.000125189
0.00936793
4.48581e-05
0.00697306
-2.19168e-05
0.00454857
-7.90848e-05
0.0020615
-0.000134879
-0.000124986
0.0390764
0.00413945
0.0363554
0.00394278
0.0336921
0.00375466
0.0310829
0.00357822
0.0285257
0.0034063
0.0260174
0.00324182
0.0235533
0.00308362
0.021129
0.0029327
0.018739
0.00279297
0.0163778
0.00266404
0.0140294
0.00255612
0.011679
0.00247557
0.00930471
0.00241915
0.00689058
0.00239222
0.00447452
0.00233697
0.00203069
0.00230895
0.0019057
0.0385236
0.00689399
0.0358272
0.00663923
0.033192
0.00638982
0.0306153
0.0061549
0.0280915
0.00593008
0.0256143
0.00571903
0.0231774
0.00552051
0.0207747
0.00533539
0.0184011
0.00516662
0.0160535
0.00501166
0.0137371
0.00487249
0.0114563
0.0047564
0.00919687
0.00467856
0.00691302
0.00467606
0.00455106
0.00469894
0.00207935
0.00478066
0.00398505
0.0403909
0.00993634
0.0376726
0.0096123
0.0350157
0.00929613
0.0324218
0.00898367
0.0298968
0.00867987
0.0274349
0.00839201
0.0250277
0.00812619
0.0226614
0.00788684
0.0203255
0.00767135
0.0180074
0.00748473
0.0156937
0.00732531
0.013382
0.00718416
0.0110871
0.0070513
0.00882515
0.00694054
0.0065788
0.00692242
0.00429999
0.00697774
0.00192738
0.00715327
0.00591243
0.0392188
0.0126515
0.0365697
0.0122614
0.0339766
0.0118893
0.0314374
0.0115229
0.0289564
0.0111609
0.0265326
0.0108158
0.0241676
0.0104912
0.0218591
0.0101953
0.0196054
0.00992511
0.0173952
0.00969495
0.0152025
0.00951792
0.012999
0.00938767
0.0107741
0.00927628
0.00856838
0.00914622
0.00639051
0.0091003
0.00425904
0.00910921
0.00202632
0.00938599
0.00793875
0.0403649
0.0158094
0.0377073
0.0153092
0.0351348
0.0148339
0.0326451
0.014379
0.0302097
0.0139582
0.0278163
0.0135543
0.0254701
0.013162
0.0231703
0.012791
0.020913
0.0124526
0.018697
0.0121412
0.0165389
0.011853
0.0144363
0.0116205
0.0123565
0.0114674
0.010254
0.0113788
0.00813367
0.0112666
0.0060162
0.0112178
0.00385276
0.0112727
0.00169819
0.0115406
0.00963694
0.041246
0.0190168
0.0385909
0.0184645
0.0359915
0.0179086
0.0334826
0.0173428
0.031079
0.0167826
0.0287678
0.0162695
0.0265238
0.0157983
0.0243214
0.0153643
0.0221445
0.0149679
0.0199854
0.0146117
0.0178447
0.0142818
0.0157352
0.0139625
0.0136897
0.013666
0.0116919
0.0134653
0.00969771
0.013373
0.00766361
0.0133007
0.00566602
0.0132154
0.00371324
0.0132254
0.00168675
0.013567
0.0113237
0.0388568
0.0216128
-0.0414529
0.0363395
0.0209819
0.0338532
0.0203949
0.0314385
0.0197574
0.0291058
0.0191153
0.0268722
0.0185031
0.02472
0.0179505
0.0226292
0.0174551
0.0205954
0.0170017
0.0185988
0.0166084
0.0166199
0.0162607
0.0146399
0.0159425
0.0126967
0.0156092
0.0108184
0.0153435
0.00898585
0.0152056
0.00712449
0.015162
0.00519645
0.0151434
0.00328237
0.0151395
0.00142623
0.0154232
0.0127499
0.0363013
0.0242132
-0.0389016
0.0338291
0.023454
0.0315672
0.0226569
0.0293973
0.0219273
0.0272457
0.0212668
0.0251166
0.0206323
0.0230377
0.0200294
0.0210228
0.0194699
0.019082
0.0189426
0.0172024
0.018488
0.0153561
0.018107
0.0135222
0.0177764
0.0116873
0.0174441
0.0098846
0.0171462
0.00814128
0.0169489
0.00644895
0.0168544
0.00476171
0.0168306
0.00302228
0.0168789
0.00127568
0.0171698
0.0140256
0.0330365
-0.0357885
0.0308074
0.0287813
0.0268188
0.0248706
0.0229139
0.0209796
0.0190869
0.0172472
0.0154966
0.0138003
0.0121303
0.0104876
0.00885326
0.0072355
0.00563509
0.00404712
0.00250291
0.00104248
0.00484258
0.00577382
0.0366934
0.00505504
0.00667869
0.0452017
0.00496297
0.00547212
0.0464082
0.0490795
0.00498104
0.00481776
0.0497339
0.0528958
0.00479563
0.00438966
0.0533239
0.0568356
0.00449555
0.00410068
0.0571245
0.0609897
0.00413532
0.00387559
0.0612148
0.0654067
0.00378589
0.00365534
0.065627
0.0702266
0.00350381
0.00343462
0.0704473
0.0755884
0.00329083
0.003226
0.075797
0.0814663
0.00310124
0.00302647
0.0816659
0.0877481
0.002885
0.00280378
0.0879708
0.0943574
0.00263134
0.00253959
0.0946215
0.101297
0.00235155
0.00224669
0.101589
0.108616
0.00207887
0.00194983
0.108912
0.116344
0.00183109
0.00168414
0.116609
0.124499
0.00161804
0.00147054
0.124713
0.13314
0.00144091
0.00130528
0.133305
0.142327
0.00128763
0.00117412
0.142458
0.152145
0.00115098
0.0010582
0.152261
0.162651
0.00102506
0.000947745
0.162762
0.173895
0.000904215
0.000839248
0.174004
0.185899
0.000789143
0.000732045
0.186006
0.198715
0.00067993
0.000630092
0.198817
0.212403
0.000577023
0.000534998
0.212498
0.227012
0.000479244
0.000444779
0.227102
0.2426
0.000386128
0.000358344
0.242686
0.259252
0.000298984
0.000277786
0.259333
0.277085
0.000211684
0.000195738
0.277167
0.296219
0.000109907
0.000101244
0.296314
0.31687
5.90205e-05
5.32977e-05
0.316917
0.338816
0.338869
0.0465001
-0.0327591
0.0466584
-0.0296458
0.0468294
-0.0259138
0.0470564
-0.0220878
0.0471537
-0.0177091
0.0473994
-0.0132243
0.0477028
-0.00872974
0.0480781
-0.00390909
0.0487727
0.000671067
0.00591243
0.0500011
-0.0330264
0.0500378
-0.0296825
0.0499277
-0.0258037
0.0501669
-0.022327
0.0502519
-0.0177941
0.050663
-0.0136353
0.0507998
-0.00886658
0.0513635
-0.00447275
0.0517623
0.000272211
0.0051533
0.0533745
-0.0330769
0.0533881
-0.0296961
0.0531897
-0.0256054
0.0533919
-0.0225292
0.0535248
-0.017927
0.054067
-0.0141774
0.0542018
-0.0090014
0.0548454
-0.00511639
0.0551478
-3.02108e-05
0.00432501
0.0571607
-0.0331131
0.0571832
-0.0297187
0.0570975
-0.0255197
0.0572383
-0.0226699
0.0573635
-0.0180522
0.0578611
-0.014675
0.0581016
-0.00924193
0.0587065
-0.00572131
0.0589206
-0.00024425
0.00357143
0.0612509
-0.0331491
0.0611983
-0.0296661
0.0612036
-0.025525
0.0612416
-0.0227079
0.0614221
-0.0182328
0.06176
-0.0150128
0.0621327
-0.00961461
0.0626122
-0.00620079
0.0630076
-0.000639636
0.00302975
0.0656582
-0.0331804
0.0655703
-0.0295782
0.065641
-0.0255957
0.0656144
-0.0226813
0.0658246
-0.018443
0.0660199
-0.0152081
0.0664537
-0.0100484
0.0667914
-0.00653847
0.067286
-0.00113428
0.00264892
0.0704315
-0.0331645
0.0703277
-0.0294744
0.0704103
-0.0256783
0.0703349
-0.0226058
0.0705173
-0.0186255
0.0706179
-0.0153087
0.0710277
-0.0104582
0.0712498
-0.0067606
0.0718164
-0.0017008
0.00237294
0.075669
-0.0330365
0.0755633
-0.0293687
0.0756091
-0.0257242
0.0754976
-0.0224943
0.0756267
-0.0187546
0.0756478
-0.0153298
0.0759945
-0.0108049
0.076138
-0.00690407
0.0766539
-0.00221675
0.00209376
0.0814077
-0.0327784
0.0812687
-0.0292297
0.081246
-0.0257015
0.0811053
-0.0223537
0.0811474
-0.0187966
0.0810944
-0.0152768
0.081348
-0.0110585
0.0814412
-0.00699722
0.0818603
-0.00263588
0.00179179
0.0875929
-0.0324005
0.0873806
-0.0290173
0.0872644
-0.0255853
0.0870813
-0.0221706
0.0870251
-0.0187405
0.0868986
-0.0151503
0.0870343
-0.0111942
0.0870907
-0.00705361
0.0873884
-0.00293366
0.0014916
0.0941351
-0.031914
0.093826
-0.0287083
0.0935898
-0.025349
0.0933607
-0.0219415
0.0932004
-0.0185801
0.0930109
-0.0149608
0.093018
-0.0112013
0.0930274
-0.00706301
0.0932173
-0.0031236
0.00123685
0.100999
-0.0313237
0.100575
-0.0282843
0.10021
-0.0249835
0.0999096
-0.0216415
0.0996433
-0.0183138
0.0994006
-0.0147181
0.0992868
-0.0110875
0.0992521
-0.00702831
0.0993568
-0.00322833
0.00101801
0.108202
-0.0306132
0.107649
-0.0277318
0.107153
-0.0244869
0.106763
-0.0212513
0.106399
-0.01795
0.106111
-0.0144307
0.105907
-0.0108828
0.105833
-0.00695491
0.105876
-0.00327085
0.000831499
0.115765
-0.0297691
0.115077
-0.0270433
0.114455
-0.0238644
0.113968
-0.0207648
0.113512
-0.0174935
0.113179
-0.0140978
0.112908
-0.0106119
0.112803
-0.00684993
0.112801
-0.00326929
0.000671712
0.123741
-0.0287972
0.12291
-0.026212
0.12218
-0.0231349
0.121593
-0.020178
0.121069
-0.016969
0.120683
-0.0137116
0.120374
-0.0103032
0.120241
-0.00671717
0.120217
-0.00324541
0.00052312
0.132222
-0.0277142
0.131261
-0.0252511
0.130443
-0.0223165
0.129764
-0.0194997
0.129188
-0.0163928
0.128748
-0.0132718
0.128411
-0.00996609
0.12825
-0.00655619
0.12821
-0.00320542
0.000381446
0.141282
-0.0265382
0.140211
-0.0241799
0.13931
-0.021415
0.138545
-0.0187352
0.137918
-0.0157659
0.137428
-0.0127812
0.137062
-0.00960048
0.13687
-0.00636406
0.136811
-0.00314698
0.000247214
0.150997
-0.0252742
0.149833
-0.0230167
0.148845
-0.0204266
0.147996
-0.0178859
0.147309
-0.0150792
0.146764
-0.0122366
0.146366
-0.00920196
0.146139
-0.00613675
0.146057
-0.00306489
0.000126579
0.161403
-0.0239154
0.160153
-0.0217665
0.159073
-0.0193464
0.158133
-0.0169462
0.157372
-0.0143186
0.156765
-0.0116293
0.156328
-0.00876481
0.156063
-0.00587191
0.155958
-0.00295958
2.55853e-05
0.172538
-0.0224504
0.171196
-0.020424
0.170022
-0.0181721
0.168989
-0.0159135
0.168145
-0.0134746
0.16747
-0.0109542
0.166985
-0.00828023
0.166682
-0.00556857
0.166554
-0.00283164
-5.00869e-05
0.184423
-0.0208673
0.182977
-0.0189783
0.181705
-0.0169002
0.180581
-0.0147889
0.17965
-0.012544
0.178903
-0.0102072
0.178361
-0.00773855
0.178016
-0.00522338
0.177863
-0.00267859
-0.000105364
0.197107
-0.0191574
0.195548
-0.0174194
0.194172
-0.0155233
0.192957
-0.0135741
0.191936
-0.0115234
0.191114
-0.0093852
0.190511
-0.0071358
0.190119
-0.00483148
0.189939
-0.00249846
-0.000143032
0.210653
-0.0173129
0.208973
-0.0157395
0.207485
-0.0140349
0.206177
-0.012266
0.205065
-0.0104118
0.204166
-0.00848626
0.203498
-0.00646792
0.203058
-0.00439126
0.202849
-0.00228925
-0.000165546
0.225118
-0.0153285
0.223311
-0.0139331
0.221707
-0.0124303
0.220301
-0.01086
0.219105
-0.00921656
0.21813
-0.00751077
0.217398
-0.00573574
0.216912
-0.00390515
0.216675
-0.00205211
-0.000176316
0.240556
-0.0131983
0.238618
-0.0119953
0.236893
-0.010705
0.235385
-0.00935175
0.234105
-0.00793634
0.23306
-0.00646617
0.232268
-0.00494355
0.231738
-0.00337492
0.23147
-0.00178473
-0.000174233
0.25705
-0.0109156
0.254975
-0.00992031
0.253126
-0.00885551
0.25151
-0.00773647
0.25014
-0.00656633
0.249025
-0.00535106
0.248177
-0.00409518
0.247605
-0.00280303
0.247311
-0.00149132
-0.000160912
0.274716
-0.00846457
0.272492
-0.00769628
0.27051
-0.00687394
0.268781
-0.00600691
0.267314
-0.00509947
0.26612
-0.00415693
0.265209
-0.00318441
0.264591
-0.00218502
0.26427
-0.00117019
-0.000140216
0.293712
-0.00586338
0.291338
-0.00532143
0.289212
-0.00474857
0.287352
-0.00414669
0.285771
-0.00351794
0.28448
-0.00286629
0.283491
-0.00219549
0.282814
-0.00150806
0.282454
-0.000810624
-0.00010557
0.314071
-0.00301684
0.311496
-0.00274672
0.309205
-0.00245741
0.307208
-0.00214976
0.305515
-0.00182525
0.304136
-0.00148717
0.303079
-0.00113848
0.302353
-0.000781609
0.301962
-0.000419844
-5.4245e-05
0.335852
0.333106
0.330648
0.328499
0.326673
0.325186
0.324048
0.323266
0.322846
)
;

boundaryField
{
    outlet
    {
        type            calculated;
        value           nonuniform 0();
    }
    upperWall
    {
        type            symmetryPlane;
        value           uniform 0;
    }
    lowerWall
    {
        type            symmetryPlane;
        value           nonuniform 0();
    }
    inlet
    {
        type            calculated;
        value           nonuniform 0();
    }
    cylinder
    {
        type            calculated;
        value           uniform 0;
    }
    frontAndBack
    {
        type            empty;
        value           nonuniform 0();
    }
    procBoundary5to1
    {
        type            processor;
        value           nonuniform List<scalar> 
20
(
0.0143857
0.0199725
0.0200232
0.00144095
0.00152324
0.00159859
0.00166603
0.00173033
0.00179716
0.00186638
0.00193838
0.00201481
0.0020863
0.00216307
0.00225065
0.00233197
0.0024168
0.00250357
0.00262194
0.00218649
)
;
    }
    procBoundary5to4
    {
        type            processor;
        value           nonuniform List<scalar> 
45
(
-0.0422102
-0.0418577
-0.0412781
-0.00715779
-0.0431694
-0.0419341
-0.0130742
-0.0431002
-0.0163707
-0.0438921
-0.00398972
-0.0423058
-0.0398328
-0.00439086
-0.0373576
-0.0451096
-0.0490976
-0.0527104
-0.0565355
-0.0606295
-0.0650573
-0.0699446
-0.0753754
-0.0812767
-0.0875319
-0.0941037
-0.101017
-0.108343
-0.116096
-0.124286
-0.132963
-0.142174
-0.152008
-0.162525
-0.173774
-0.185784
-0.198606
-0.2123
-0.226914
-0.242507
-0.259165
-0.276998
-0.296117
-0.316819
-0.338757
)
;
    }
    procBoundary5to6
    {
        type            processor;
        value           nonuniform List<scalar> 
63
(
0.0188139
0.019412
0.0269534
0.0279273
0.0286723
0.0277056
0.0271087
0.0282777
0.0286654
0.0292055
0.0296961
0.0304766
0.0314024
0.0324377
0.0337739
0.0326122
0.00332342
0.0202935
-0.000372573
-0.00454121
-0.00889207
-0.0131115
0.0128047
-0.0199451
0.00913044
-0.0246498
0.00626237
-0.0235469
0.0060307
-0.0143955
0.0109623
0.00173927
0.0523209
0.0554056
0.0588951
0.062752
-0.0303095
0.0671221
0.0715792
0.0766322
0.0812659
0.0859948
0.091721
0.0973594
0.103028
0.109496
0.116392
0.123771
0.131896
0.140594
0.149891
0.15988
0.17052
0.181902
0.194137
0.207216
0.221191
0.236214
0.252307
0.26954
0.28802
0.307847
0.329115
)
;
    }
}


// ************************************************************************* //
