/*--------------------------------*- C++ -*----------------------------------*\
| =========                 |                                                 |
| \\      /  F ield         | OpenFOAM: The Open Source CFD Toolbox           |
|  \\    /   O peration     | Version:                                        |
|   \\  /    A nd           | Website:  www.openfoam.com                      |
|    \\/     M anipulation  |                                                 |
\*---------------------------------------------------------------------------*/
FoamFile
{
    version     2.0;
    format      ascii;
    class       volScalarField;
    location    "0.3";
    object      p;
}
// * * * * * * * * * * * * * * * * * * * * * * * * * * * * * * * * * * * * * //

dimensions      [0 2 -2 0 0 0 0];


internalField   nonuniform List<scalar> 
400
(
0.127328
0.120584
0.11387
0.10718
0.100524
0.0939023
0.0873096
0.0807423
0.0741981
0.0676753
0.0611716
0.0546853
0.0482143
0.041757
0.035311
0.0288766
0.0224494
0.0160339
0.00961607
0.00321895
0.127318
0.120572
0.11386
0.107172
0.100516
0.0938952
0.087303
0.0807363
0.0741927
0.0676703
0.0611671
0.0546813
0.0482107
0.0417539
0.0353083
0.0288743
0.0224474
0.0160322
0.00961461
0.00321741
0.127297
0.120551
0.113842
0.107155
0.100501
0.0938812
0.0872903
0.0807246
0.0741821
0.0676608
0.0611586
0.0546737
0.048204
0.0417479
0.0353032
0.0288699
0.0224437
0.0160288
0.00961194
0.00321443
0.127267
0.120522
0.113815
0.107132
0.10048
0.0938613
0.087272
0.0807081
0.0741671
0.0676473
0.0611466
0.054663
0.0481944
0.0417395
0.035296
0.0288636
0.0224385
0.0160242
0.00960908
0.00321103
0.127231
0.120487
0.113782
0.107102
0.100452
0.0938366
0.0872495
0.0806876
0.0741487
0.0676308
0.0611318
0.0546498
0.0481828
0.0417293
0.0352872
0.028856
0.0224323
0.0160188
0.00960586
0.00320712
0.12719
0.120448
0.113745
0.107068
0.100422
0.0938087
0.087224
0.0806645
0.0741279
0.0676121
0.0611151
0.0546351
0.0481698
0.041718
0.0352774
0.0288476
0.0224255
0.0160128
0.00960238
0.00320297
0.127147
0.120406
0.113705
0.107031
0.100389
0.093779
0.087197
0.0806401
0.074106
0.0675925
0.0610977
0.0546197
0.0481563
0.0417061
0.0352673
0.0288389
0.0224184
0.0160067
0.00959885
0.00319888
0.127103
0.120364
0.113664
0.106995
0.100357
0.0937494
0.0871702
0.0806159
0.0740843
0.0675732
0.0610806
0.0546045
0.048143
0.0416946
0.0352574
0.0288304
0.0224116
0.0160008
0.00959548
0.00319512
0.127061
0.120324
0.113626
0.10696
0.100326
0.0937214
0.0871448
0.0805931
0.0740639
0.0675552
0.0610646
0.0545905
0.0481308
0.041684
0.0352483
0.0288227
0.0224054
0.0159956
0.00959247
0.00319191
0.127022
0.120287
0.113591
0.106929
0.100298
0.0936962
0.0871222
0.0805729
0.074046
0.0675393
0.0610507
0.0545782
0.0481202
0.0416748
0.0352406
0.0288162
0.0224002
0.0159914
0.00958998
0.0031894
0.126988
0.120255
0.113562
0.106903
0.100274
0.093675
0.0871032
0.0805561
0.0740311
0.0675262
0.0610393
0.0545683
0.0481116
0.0416675
0.0352345
0.0288111
0.0223963
0.0159882
0.00958812
0.00318766
0.126959
0.120229
0.113538
0.106881
0.100255
0.0936581
0.0870883
0.080543
0.0740197
0.0675163
0.0610307
0.0545609
0.0481053
0.0416622
0.0352301
0.0288075
0.0223936
0.0159861
0.00958692
0.00318668
0.126937
0.120209
0.11352
0.106865
0.100241
0.0936456
0.0870774
0.0805335
0.0740116
0.0675093
0.0610248
0.054556
0.0481012
0.0416588
0.0352274
0.0288055
0.0223921
0.015985
0.00958635
0.00318638
0.126919
0.120194
0.113506
0.106853
0.10023
0.0936369
0.08707
0.0805273
0.0740063
0.067505
0.0610213
0.0545531
0.0480989
0.041657
0.0352261
0.0288046
0.0223915
0.0159848
0.00958631
0.00318665
0.126905
0.120182
0.113496
0.106844
0.100223
0.0936309
0.0870651
0.0805233
0.0740032
0.0675026
0.0610194
0.0545517
0.0480979
0.0416565
0.0352258
0.0288046
0.0223917
0.0159852
0.00958663
0.00318732
0.126893
0.120172
0.113488
0.106837
0.100217
0.0936263
0.0870615
0.0805205
0.0740011
0.067501
0.0610183
0.0545511
0.0480976
0.0416564
0.035226
0.0288049
0.0223921
0.0159858
0.00958709
0.0031882
0.12688
0.120162
0.113479
0.10683
0.100211
0.0936215
0.0870576
0.0805175
0.0739988
0.0674993
0.0610171
0.0545502
0.0480971
0.0416562
0.0352259
0.028805
0.0223923
0.0159862
0.00958741
0.0031891
0.126864
0.120148
0.113467
0.10682
0.100203
0.0936142
0.0870516
0.0805125
0.0739947
0.067496
0.0610144
0.0545482
0.0480955
0.041655
0.035225
0.0288043
0.0223918
0.015986
0.00958721
0.00318976
0.126839
0.120126
0.113448
0.106802
0.100188
0.0936011
0.0870403
0.0805028
0.0739864
0.0674889
0.0610085
0.0545432
0.0480914
0.0416515
0.0352221
0.028802
0.0223899
0.0159846
0.00958588
0.00318971
0.126804
0.120094
0.113419
0.106777
0.100166
0.0935819
0.0870234
0.080488
0.0739735
0.0674778
0.0609989
0.054535
0.0480844
0.0416455
0.0352171
0.0287978
0.0223864
0.0159817
0.0095833
0.00318854
)
;

boundaryField
{
    fixedWalls
    {
        type            zeroGradient;
    }
    inlet
    {
        type            zeroGradient;
    }
    outlet
    {
        type            fixedValue;
        value           uniform 0;
    }
    frontAndBack
    {
        type            empty;
    }
    procBoundary7to3
    {
        type            processor;
        value           nonuniform List<scalar> 
20
(
0.127328
0.120584
0.11387
0.10718
0.100524
0.0939022
0.0873096
0.0807423
0.0741981
0.0676753
0.0611716
0.0546853
0.0482143
0.041757
0.035311
0.0288766
0.0224494
0.016034
0.00961649
0.00321926
)
;
    }
    procBoundary7to6
    {
        type            processor;
        value           nonuniform List<scalar> 
20
(
0.134132
0.134122
0.134102
0.134071
0.134033
0.133988
0.133939
0.13389
0.133843
0.133799
0.133761
0.133729
0.133703
0.133683
0.133666
0.133652
0.133637
0.133618
0.13359
0.133552
)
;
    }
}


// ************************************************************************* //
