/*--------------------------------*- C++ -*----------------------------------*\
| =========                 |                                                 |
| \\      /  F ield         | OpenFOAM: The Open Source CFD Toolbox           |
|  \\    /   O peration     | Version:                                        |
|   \\  /    A nd           | Website:  www.openfoam.com                      |
|    \\/     M anipulation  |                                                 |
\*---------------------------------------------------------------------------*/
FoamFile
{
    version     2.0;
    format      ascii;
    class       surfaceScalarField;
    location    "0.3";
    object      phi;
}
// * * * * * * * * * * * * * * * * * * * * * * * * * * * * * * * * * * * * * //

dimensions      [0 3 -1 0 0 0 0];
oriented        oriented;


internalField   nonuniform List<scalar> 
760
(
3.59196e-05
-3.00774e-08
3.5947e-05
-2.7001e-08
3.5972e-05
-2.44922e-08
3.59947e-05
-2.22767e-08
3.60151e-05
-2.00936e-08
3.60335e-05
-1.80145e-08
3.60499e-05
-1.60664e-08
3.60645e-05
-1.42551e-08
3.60774e-05
-1.25804e-08
3.60888e-05
-1.1041e-08
3.60987e-05
-9.63257e-09
3.61074e-05
-8.35169e-09
3.61149e-05
-7.19923e-09
3.61214e-05
-6.15868e-09
3.61269e-05
-5.24163e-09
3.61317e-05
-4.41336e-09
3.61357e-05
-3.72906e-09
3.61391e-05
-3.05762e-09
3.61421e-05
-2.61502e-09
-1.93149e-09
3.57986e-05
-5.88439e-08
3.58249e-05
-5.32142e-08
3.58487e-05
-4.83e-08
3.58701e-05
-4.37442e-08
3.58894e-05
-3.94155e-08
3.59068e-05
-3.5344e-08
3.59223e-05
-3.15419e-08
3.5936e-05
-2.80104e-08
3.59482e-05
-2.47487e-08
3.59589e-05
-2.1752e-08
3.59683e-05
-1.90139e-08
3.59764e-05
-1.65246e-08
3.59835e-05
-1.42844e-08
3.59896e-05
-1.22632e-08
3.59949e-05
-1.04843e-08
3.59993e-05
-8.86942e-09
3.60031e-05
-7.54099e-09
3.60063e-05
-6.21154e-09
3.60091e-05
-5.37171e-09
-4.05658e-09
3.55529e-05
-8.46236e-08
3.55765e-05
-7.68239e-08
3.55978e-05
-6.95967e-08
3.56169e-05
-6.28699e-08
3.56341e-05
-5.65856e-08
3.56495e-05
-5.07157e-08
3.56632e-05
-4.52495e-08
3.56753e-05
-4.01804e-08
3.56861e-05
-3.55034e-08
3.56956e-05
-3.12092e-08
3.57038e-05
-2.72885e-08
3.5711e-05
-2.37256e-08
3.57173e-05
-2.05199e-08
3.57226e-05
-1.76298e-08
3.57272e-05
-1.50881e-08
3.57311e-05
-1.27785e-08
3.57345e-05
-1.08841e-08
3.57373e-05
-8.98211e-09
3.57397e-05
-7.83039e-09
-5.96898e-09
3.5175e-05
-1.06171e-07
3.51947e-05
-9.65301e-08
3.52125e-05
-8.73199e-08
3.52283e-05
-7.87333e-08
3.52425e-05
-7.07769e-08
3.52552e-05
-6.3379e-08
3.52664e-05
-5.65083e-08
3.52764e-05
-5.01504e-08
3.52852e-05
-4.42936e-08
3.52929e-05
-3.89213e-08
3.52996e-05
-3.40212e-08
3.53055e-05
-2.95726e-08
3.53105e-05
-2.55717e-08
3.53149e-05
-2.19679e-08
3.53186e-05
-1.8801e-08
3.53217e-05
-1.59255e-08
3.53244e-05
-1.35686e-08
3.53266e-05
-1.12066e-08
3.53286e-05
-9.78705e-09
-7.49789e-09
3.46546e-05
-1.22524e-07
3.46695e-05
-1.11437e-07
3.46828e-05
-1.00684e-07
3.46948e-05
-9.06489e-08
3.47054e-05
-8.13838e-08
3.47148e-05
-7.27946e-08
3.47231e-05
-6.4838e-08
3.47305e-05
-5.74918e-08
3.47369e-05
-5.07367e-08
3.47425e-05
-4.45501e-08
3.47474e-05
-3.89151e-08
3.47517e-05
-3.38048e-08
3.47553e-05
-2.92123e-08
3.47584e-05
-2.50818e-08
3.47611e-05
-2.14542e-08
3.47633e-05
-1.81667e-08
3.47652e-05
-1.54695e-08
3.47668e-05
-1.27823e-08
3.47682e-05
-1.11569e-08
-8.5751e-09
3.3979e-05
-1.33133e-07
3.39886e-05
-1.21041e-07
3.39972e-05
-1.09248e-07
3.40048e-05
-9.82332e-08
3.40115e-05
-8.80764e-08
3.40173e-05
-7.86794e-08
3.40225e-05
-6.99939e-08
3.4027e-05
-6.19928e-08
3.40309e-05
-5.46503e-08
3.40343e-05
-4.79376e-08
3.40372e-05
-4.18331e-08
3.40397e-05
-3.63056e-08
3.40418e-05
-3.13435e-08
3.40437e-05
-2.68886e-08
3.40452e-05
-2.29774e-08
3.40465e-05
-1.94443e-08
3.40475e-05
-1.65384e-08
3.40484e-05
-1.36698e-08
3.40492e-05
-1.19093e-08
-9.17469e-09
3.31343e-05
-1.37869e-07
3.31385e-05
-1.2524e-07
3.31422e-05
-1.12927e-07
3.31454e-05
-1.01423e-07
3.31481e-05
-9.08151e-08
3.31505e-05
-8.10139e-08
3.31524e-05
-7.19714e-08
3.31541e-05
-6.3659e-08
3.31555e-05
-5.60477e-08
3.31567e-05
-4.91034e-08
3.31576e-05
-4.27989e-08
3.31584e-05
-3.71004e-08
3.31591e-05
-3.19916e-08
3.31596e-05
-2.74146e-08
3.316e-05
-2.33976e-08
3.31604e-05
-1.9784e-08
3.31606e-05
-1.68003e-08
3.31608e-05
-1.38902e-08
3.3161e-05
-1.20678e-08
-9.31425e-09
3.21058e-05
-1.36991e-07
3.21049e-05
-1.24302e-07
3.21039e-05
-1.11977e-07
3.2103e-05
-1.0046e-07
3.2102e-05
-8.98322e-08
3.2101e-05
-8.00202e-08
3.21e-05
-7.09839e-08
3.2099e-05
-6.26944e-08
3.20981e-05
-5.51201e-08
3.20972e-05
-4.82243e-08
3.20964e-05
-4.19758e-08
3.20956e-05
-3.63386e-08
3.20949e-05
-3.12923e-08
3.20943e-05
-2.67818e-08
3.20937e-05
-2.28246e-08
3.20932e-05
-1.92816e-08
3.20928e-05
-1.6342e-08
3.20924e-05
-1.35158e-08
3.2092e-05
-1.17015e-08
-9.04744e-09
3.08791e-05
-1.31097e-07
3.08736e-05
-1.18805e-07
3.08685e-05
-1.06937e-07
3.08639e-05
-9.58407e-08
3.08596e-05
-8.55848e-08
3.08558e-05
-7.61224e-08
3.08522e-05
-6.74237e-08
3.0849e-05
-5.94602e-08
3.0846e-05
-5.21984e-08
3.08434e-05
-4.56011e-08
3.08411e-05
-3.96352e-08
3.0839e-05
-3.42642e-08
3.08372e-05
-2.94635e-08
3.08356e-05
-2.51825e-08
3.08342e-05
-2.14283e-08
3.0833e-05
-1.80846e-08
3.08319e-05
-1.52947e-08
3.08311e-05
-1.26552e-08
3.08303e-05
-1.09114e-08
-8.45261e-09
2.94406e-05
-1.21041e-07
2.94314e-05
-1.09558e-07
2.9423e-05
-9.85483e-08
2.94154e-05
-8.82389e-08
2.94085e-05
-7.86904e-08
2.94022e-05
-6.9886e-08
2.93966e-05
-6.18057e-08
2.93916e-05
-5.44231e-08
2.93871e-05
-4.77046e-08
2.93831e-05
-4.16138e-08
2.93796e-05
-3.61169e-08
2.93765e-05
-3.11782e-08
2.93738e-05
-2.67712e-08
2.93715e-05
-2.28503e-08
2.93695e-05
-1.94133e-08
2.93678e-05
-1.63684e-08
2.93663e-05
-1.38126e-08
2.93651e-05
-1.14361e-08
2.9364e-05
-9.81443e-09
-7.62036e-09
2.77787e-05
-1.07839e-07
2.77666e-05
-9.75107e-08
2.77558e-05
-8.767e-08
2.7746e-05
-7.84308e-08
2.77371e-05
-6.98528e-08
2.77292e-05
-6.19481e-08
2.77221e-05
-5.47052e-08
2.77158e-05
-4.81001e-08
2.77102e-05
-4.21016e-08
2.77052e-05
-3.6675e-08
2.77009e-05
-3.17865e-08
2.76971e-05
-2.74025e-08
2.76938e-05
-2.34971e-08
2.7691e-05
-2.00301e-08
2.76886e-05
-1.69923e-08
2.76865e-05
-1.43145e-08
2.76848e-05
-1.20535e-08
2.76833e-05
-9.98852e-09
2.76821e-05
-8.52823e-09
-6.64208e-09
2.58836e-05
-9.25731e-08
2.58698e-05
-8.36521e-08
2.58573e-05
-7.51912e-08
2.58461e-05
-6.72147e-08
2.5836e-05
-5.97907e-08
2.5827e-05
-5.29539e-08
2.5819e-05
-4.66999e-08
2.58119e-05
-4.10072e-08
2.58057e-05
-3.58472e-08
2.58002e-05
-3.11883e-08
2.57954e-05
-2.69983e-08
2.57912e-05
-2.32464e-08
2.57877e-05
-1.99094e-08
2.57846e-05
-1.69533e-08
2.5782e-05
-1.43638e-08
2.57797e-05
-1.20914e-08
2.57778e-05
-1.01618e-08
2.57763e-05
-8.43119e-09
2.57749e-05
-7.15938e-09
-5.60063e-09
2.37483e-05
-7.62969e-08
2.37335e-05
-6.89328e-08
2.37203e-05
-6.19581e-08
2.37084e-05
-5.53468e-08
2.36978e-05
-4.91804e-08
2.36884e-05
-4.35063e-08
2.368e-05
-3.83249e-08
2.36726e-05
-3.3617e-08
2.36661e-05
-2.93564e-08
2.36605e-05
-2.55157e-08
2.36555e-05
-2.20667e-08
2.36513e-05
-1.89821e-08
2.36476e-05
-1.6242e-08
2.36445e-05
-1.3819e-08
2.36418e-05
-1.16968e-08
2.36395e-05
-9.84146e-09
2.36376e-05
-8.25799e-09
2.36361e-05
-6.86279e-09
2.36347e-05
-5.79521e-09
-4.56383e-09
2.1368e-05
-5.99698e-08
2.13533e-05
-5.4202e-08
2.134e-05
-4.87237e-08
2.13282e-05
-4.3498e-08
2.13176e-05
-3.86178e-08
2.13083e-05
-3.41321e-08
2.13e-05
-3.00425e-08
2.12927e-05
-2.63327e-08
2.12863e-05
-2.29792e-08
2.12808e-05
-1.99597e-08
2.12759e-05
-1.72511e-08
2.12718e-05
-1.48311e-08
2.12682e-05
-1.26829e-08
2.12652e-05
-1.07856e-08
2.12626e-05
-9.12398e-09
2.12605e-05
-7.67546e-09
2.12586e-05
-6.43391e-09
2.12571e-05
-5.35823e-09
2.12558e-05
-4.50073e-09
-3.58174e-09
1.8741e-05
-4.44158e-08
1.8727e-05
-4.01802e-08
1.87144e-05
-3.61268e-08
1.87031e-05
-3.22366e-08
1.86931e-05
-2.86032e-08
1.86843e-05
-2.5268e-08
1.86765e-05
-2.22314e-08
1.86696e-05
-1.94802e-08
1.86636e-05
-1.6995e-08
1.86584e-05
-1.47584e-08
1.86539e-05
-1.27536e-08
1.865e-05
-1.09631e-08
1.86467e-05
-9.37398e-09
1.86439e-05
-7.97129e-09
1.86415e-05
-6.74254e-09
1.86395e-05
-5.67363e-09
1.86379e-05
-4.75426e-09
1.86365e-05
-3.97042e-09
1.86353e-05
-3.31993e-09
-2.68719e-09
1.58681e-05
-3.032e-08
1.58553e-05
-2.74646e-08
1.58439e-05
-2.47004e-08
1.58337e-05
-2.2035e-08
1.58247e-05
-1.95485e-08
1.58167e-05
-1.72691e-08
1.58096e-05
-1.51954e-08
1.58035e-05
-1.33177e-08
1.57981e-05
-1.16219e-08
1.57934e-05
-1.00954e-08
1.57894e-05
-8.72723e-09
1.57859e-05
-7.50517e-09
1.5783e-05
-6.41987e-09
1.57805e-05
-5.46171e-09
1.57784e-05
-4.62197e-09
1.57766e-05
-3.89258e-09
1.57751e-05
-3.26326e-09
1.57739e-05
-2.73519e-09
1.57728e-05
-2.27992e-09
-1.89863e-09
1.27523e-05
-1.82603e-08
1.27414e-05
-1.65673e-08
1.27316e-05
-1.49049e-08
1.27229e-05
-1.32985e-08
1.27151e-05
-1.18029e-08
1.27083e-05
-1.04332e-08
1.27023e-05
-9.18697e-09
1.2697e-05
-8.05841e-09
1.26924e-05
-7.0386e-09
1.26885e-05
-6.11976e-09
1.2685e-05
-5.29565e-09
1.26821e-05
-4.5588e-09
1.26796e-05
-3.90356e-09
1.26774e-05
-3.32461e-09
1.26756e-05
-2.81672e-09
1.26741e-05
-2.37587e-09
1.26728e-05
-1.99428e-09
1.26718e-05
-1.67991e-09
1.26709e-05
-1.39834e-09
-1.22453e-09
9.39909e-06
-8.77243e-09
9.3905e-06
-7.97458e-09
9.38278e-06
-7.17867e-09
9.37589e-06
-6.41008e-09
9.36978e-06
-5.6961e-09
9.36439e-06
-5.0423e-09
9.35965e-06
-4.44665e-09
9.3555e-06
-3.90654e-09
9.35188e-06
-3.41785e-09
9.34873e-06
-2.97667e-09
9.34602e-06
-2.5803e-09
9.34368e-06
-2.22523e-09
9.34169e-06
-1.90885e-09
9.33999e-06
-1.62885e-09
9.33856e-06
-1.3828e-09
9.33735e-06
-1.16921e-09
9.33634e-06
-9.83404e-10
9.3355e-06
-8.34125e-10
9.33479e-06
-6.93407e-10
-6.69436e-10
5.8155e-06
-2.44002e-09
5.80975e-06
-2.22464e-09
5.80458e-06
-2.00571e-09
5.79997e-06
-1.7945e-09
5.79587e-06
-1.59867e-09
5.79224e-06
-1.41896e-09
5.78905e-06
-1.25475e-09
5.78625e-06
-1.10535e-09
5.7838e-06
-9.69777e-10
5.78167e-06
-8.46974e-10
5.77983e-06
-7.36304e-10
5.77824e-06
-6.36848e-10
5.77688e-06
-5.47988e-10
5.77572e-06
-4.69146e-10
5.77474e-06
-3.99636e-10
5.77391e-06
-3.39179e-10
5.77321e-06
-2.85986e-10
5.77262e-06
-2.4503e-10
5.77213e-06
-2.01766e-10
-2.395e-10
2.00971e-06
2.00748e-06
2.00548e-06
2.00368e-06
2.00208e-06
2.00066e-06
1.99941e-06
1.9983e-06
1.99733e-06
1.99649e-06
1.99575e-06
1.99511e-06
1.99457e-06
1.9941e-06
1.9937e-06
1.99336e-06
1.99307e-06
1.99283e-06
1.99262e-06
)
;

boundaryField
{
    fixedWalls
    {
        type            calculated;
        value           uniform 0;
    }
    inlet
    {
        type            calculated;
        value           nonuniform 0();
    }
    outlet
    {
        type            calculated;
        value           nonuniform List<scalar> 
20
(
3.61443e-05
3.60112e-05
3.57416e-05
3.53301e-05
3.47692e-05
3.40498e-05
3.31611e-05
3.20918e-05
3.08297e-05
2.93631e-05
2.76811e-05
2.57739e-05
2.36337e-05
2.12549e-05
1.86344e-05
1.5772e-05
1.26702e-05
9.33424e-06
5.7717e-06
1.99239e-06
)
;
    }
    frontAndBack
    {
        type            empty;
        value           nonuniform 0();
    }
    procBoundary7to3
    {
        type            processor;
        value           nonuniform List<scalar> 
20
(
-3.44745e-10
-4.57012e-10
-4.86168e-10
-4.12551e-10
-3.68926e-10
-3.47549e-10
-3.35856e-10
-3.25951e-10
-3.19539e-10
-3.15811e-10
-3.17022e-10
-3.19444e-10
-3.23325e-10
-3.24949e-10
-3.26677e-10
-3.23283e-10
-3.24296e-10
-3.16013e-10
-3.3608e-10
-3.16645e-10
)
;
    }
    procBoundary7to6
    {
        type            processor;
        value           nonuniform List<scalar> 
20
(
-3.58891e-05
-3.57699e-05
-3.55271e-05
-3.51535e-05
-3.46382e-05
-3.39684e-05
-3.31296e-05
-3.21067e-05
-3.08849e-05
-2.94507e-05
-2.77919e-05
-2.58989e-05
-2.37645e-05
-2.13843e-05
-1.87566e-05
-1.58822e-05
-1.27644e-05
-9.40858e-06
-5.82184e-06
-2.01215e-06
)
;
    }
}


// ************************************************************************* //
