/*--------------------------------*- C++ -*----------------------------------*\
| =========                 |                                                 |
| \\      /  F ield         | OpenFOAM: The Open Source CFD Toolbox           |
|  \\    /   O peration     | Version:                                        |
|   \\  /    A nd           | Website:  www.openfoam.com                      |
|    \\/     M anipulation  |                                                 |
\*---------------------------------------------------------------------------*/
FoamFile
{
    version     2.0;
    format      ascii;
    class       volVectorField;
    location    "0.3";
    object      U;
}
// * * * * * * * * * * * * * * * * * * * * * * * * * * * * * * * * * * * * * //

dimensions      [0 1 -1 0 0 0 0];


internalField   nonuniform List<vector> 
400
(
(1.43621 -0.000301678 0)
(1.43736 -0.000268847 0)
(1.4384 -0.000242902 0)
(1.43936 -0.000221711 0)
(1.44022 -0.000200184 0)
(1.44099 -0.000179348 0)
(1.44169 -0.000159699 0)
(1.44231 -0.000141424 0)
(1.44285 -0.000124489 0)
(1.44334 -0.000108915 0)
(1.44376 -9.46117e-05 0)
(1.44413 -8.15827e-05 0)
(1.44446 -6.9869e-05 0)
(1.44474 -5.93126e-05 0)
(1.44497 -4.99789e-05 0)
(1.44518 -4.16029e-05 0)
(1.44535 -3.46538e-05 0)
(1.44551 -2.79491e-05 0)
(1.44561 -2.32443e-05 0)
(1.44576 -1.63928e-05 0)
(1.4314 -0.000901369 0)
(1.4325 -0.000812358 0)
(1.43349 -0.000737453 0)
(1.4344 -0.00066937 0)
(1.43521 -0.000603648 0)
(1.43594 -0.000541393 0)
(1.4366 -0.000483129 0)
(1.43718 -0.000428971 0)
(1.4377 -0.000378919 0)
(1.43816 -0.000332919 0)
(1.43856 -0.000290864 0)
(1.43891 -0.000252628 0)
(1.43921 -0.000218229 0)
(1.43947 -0.000187176 0)
(1.4397 -0.000159807 0)
(1.43989 -0.000135 0)
(1.44005 -0.00011458 0)
(1.4402 -9.43076e-05 0)
(1.4403 -8.12613e-05 0)
(1.44044 -6.07845e-05 0)
(1.42162 -0.00145352 0)
(1.42262 -0.00131737 0)
(1.42351 -0.0011947 0)
(1.42431 -0.00108068 0)
(1.42504 -0.000973379 0)
(1.42569 -0.00087277 0)
(1.42627 -0.000778917 0)
(1.42679 -0.000691793 0)
(1.42724 -0.000611354 0)
(1.42765 -0.00053746 0)
(1.428 -0.000469957 0)
(1.42831 -0.000408601 0)
(1.42858 -0.000353384 0)
(1.42881 -0.000303565 0)
(1.429 -0.00025973 0)
(1.42918 -0.000219922 0)
(1.42931 -0.000187224 0)
(1.42945 -0.000154388 0)
(1.42953 -0.000134131 0)
(1.42966 -0.00010188 0)
(1.40659 -0.00193244 0)
(1.40742 -0.00175614 0)
(1.40816 -0.00158981 0)
(1.40883 -0.00143483 0)
(1.40943 -0.00129074 0)
(1.40997 -0.00115648 0)
(1.41045 -0.00103161 0)
(1.41087 -0.000915922 0)
(1.41124 -0.000809241 0)
(1.41157 -0.00071132 0)
(1.41186 -0.000621956 0)
(1.41211 -0.000540773 0)
(1.41233 -0.000467724 0)
(1.41252 -0.000401887 0)
(1.41267 -0.000344021 0)
(1.41281 -0.000291434 0)
(1.41292 -0.000248317 0)
(1.41303 -0.000205034 0)
(1.4131 -0.000178981 0)
(1.4132 -0.000136843 0)
(1.38587 -0.0023153 0)
(1.3865 -0.00210591 0)
(1.38706 -0.00190393 0)
(1.38756 -0.00171542 0)
(1.38802 -0.00154113 0)
(1.38842 -0.00137938 0)
(1.38877 -0.00122938 0)
(1.38908 -0.0010907 0)
(1.38936 -0.000963041 0)
(1.3896 -0.000846015 0)
(1.38981 -0.000739349 0)
(1.38999 -0.000642541 0)
(1.39014 -0.000555492 0)
(1.39028 -0.000477136 0)
(1.39039 -0.000408304 0)
(1.39049 -0.000345832 0)
(1.39057 -0.000294615 0)
(1.39065 -0.000243401 0)
(1.39069 -0.000212557 0)
(1.39077 -0.000163167 0)
(1.35896 -0.00258665 0)
(1.35937 -0.00235256 0)
(1.35973 -0.00212457 0)
(1.36005 -0.00191155 0)
(1.36033 -0.00171507 0)
(1.36058 -0.00153318 0)
(1.3608 -0.00136487 0)
(1.361 -0.00120964 0)
(1.36116 -0.00106704 0)
(1.36131 -0.000936539 0)
(1.36143 -0.000817745 0)
(1.36154 -0.000710091 0)
(1.36163 -0.000613394 0)
(1.36171 -0.000526487 0)
(1.36178 -0.000450166 0)
(1.36184 -0.000381095 0)
(1.36188 -0.000324373 0)
(1.36192 -0.000268083 0)
(1.36195 -0.000233806 0)
(1.36199 -0.00017995 0)
(1.32528 -0.00273973 0)
(1.32547 -0.00249013 0)
(1.32562 -0.00224649 0)
(1.32576 -0.00201877 0)
(1.32587 -0.00180887 0)
(1.32598 -0.00161483 0)
(1.32606 -0.00143564 0)
(1.32613 -0.00127074 0)
(1.32619 -0.00111959 0)
(1.32625 -0.000981537 0)
(1.32629 -0.000856079 0)
(1.32632 -0.00074257 0)
(1.32635 -0.000640741 0)
(1.32637 -0.000549408 0)
(1.32639 -0.00046923 0)
(1.32641 -0.00039694 0)
(1.32642 -0.000337377 0)
(1.32643 -0.000278903 0)
(1.32644 -0.000242666 0)
(1.32645 -0.000187142 0)
(1.28425 -0.00277605 0)
(1.28422 -0.00252049 0)
(1.28418 -0.00227165 0)
(1.28414 -0.00203908 0)
(1.2841 -0.00182458 0)
(1.28406 -0.00162649 0)
(1.28402 -0.00144391 0)
(1.28398 -0.00127626 0)
(1.28394 -0.00112289 0)
(1.28391 -0.000983116 0)
(1.28387 -0.000856339 0)
(1.28384 -0.00074185 0)
(1.28381 -0.00063928 0)
(1.28378 -0.000547494 0)
(1.28376 -0.000466951 0)
(1.28374 -0.000394659 0)
(1.28372 -0.000334827 0)
(1.2837 -0.000276872 0)
(1.28369 -0.000240138 0)
(1.28367 -0.000185513 0)
(1.23528 -0.0027045 0)
(1.23505 -0.00245247 0)
(1.23484 -0.00220834 0)
(1.23464 -0.00198014 0)
(1.23447 -0.00176941 0)
(1.2343 -0.00157495 0)
(1.23416 -0.00139603 0)
(1.23402 -0.00123207 0)
(1.2339 -0.00108239 0)
(1.23379 -0.000946273 0)
(1.23369 -0.000823069 0)
(1.2336 -0.000712036 0)
(1.23352 -0.000612706 0)
(1.23345 -0.00052403 0)
(1.23339 -0.000446254 0)
(1.23334 -0.0003768 0)
(1.2333 -0.000319009 0)
(1.23326 -0.000263888 0)
(1.23323 -0.000227999 0)
(1.23319 -0.000176444 0)
(1.17782 -0.00254006 0)
(1.17743 -0.00230039 0)
(1.17708 -0.00206979 0)
(1.17676 -0.00185406 0)
(1.17647 -0.00165449 0)
(1.17621 -0.00147042 0)
(1.17597 -0.00130135 0)
(1.17576 -0.00114672 0)
(1.17557 -0.00100588 0)
(1.1754 -0.000878062 0)
(1.17525 -0.000762602 0)
(1.17512 -0.000658766 0)
(1.175 -0.000566031 0)
(1.1749 -0.000483436 0)
(1.17482 -0.000411027 0)
(1.17474 -0.000346711 0)
(1.17468 -0.000292881 0)
(1.17462 -0.0002424 0)
(1.17458 -0.000208508 0)
(1.17453 -0.000161689 0)
(1.1114 -0.00230196 0)
(1.1109 -0.00208232 0)
(1.11044 -0.00187247 0)
(1.11002 -0.00167578 0)
(1.10965 -0.0014934 0)
(1.10932 -0.00132527 0)
(1.10902 -0.0011711 0)
(1.10875 -0.00103037 0)
(1.10851 -0.000902463 0)
(1.1083 -0.000786636 0)
(1.10812 -0.000682199 0)
(1.10796 -0.000588463 0)
(1.10781 -0.000504899 0)
(1.10769 -0.000430645 0)
(1.10759 -0.000365569 0)
(1.1075 -0.000308073 0)
(1.10742 -0.000259659 0)
(1.10736 -0.000215065 0)
(1.10731 -0.000184086 0)
(1.10725 -0.000143123 0)
(1.03564 -0.00201167 0)
(1.03505 -0.00181813 0)
(1.03453 -0.0016343 0)
(1.03406 -0.00146143 0)
(1.03363 -0.00130071 0)
(1.03325 -0.00115264 0)
(1.03291 -0.00101708 0)
(1.03261 -0.000893599 0)
(1.03234 -0.000781577 0)
(1.03211 -0.000680344 0)
(1.03191 -0.000589232 0)
(1.03173 -0.000507597 0)
(1.03157 -0.000434948 0)
(1.03144 -0.000370531 0)
(1.03133 -0.000314093 0)
(1.03123 -0.000264472 0)
(1.03115 -0.000222442 0)
(1.03108 -0.000184434 0)
(1.03103 -0.000157028 0)
(1.03096 -0.000122533 0)
(0.95024 -0.00169095 0)
(0.949621 -0.00152761 0)
(0.949063 -0.00137296 0)
(0.948562 -0.00122683 0)
(0.948114 -0.00109063 0)
(0.947713 -0.000965238 0)
(0.947358 -0.00085065 0)
(0.947043 -0.000746457 0)
(0.946767 -0.000652099 0)
(0.946524 -0.000566985 0)
(0.946313 -0.000490509 0)
(0.946129 -0.000422087 0)
(0.945972 -0.000361281 0)
(0.945836 -0.000307469 0)
(0.945721 -0.000260334 0)
(0.945623 -0.000219066 0)
(0.945541 -0.000183926 0)
(0.945469 -0.000152719 0)
(0.945418 -0.000129298 0)
(0.945352 -0.000101445 0)
(0.85503 -0.00136025 0)
(0.854411 -0.001229 0)
(0.853853 -0.00110466 0)
(0.853352 -0.000986426 0)
(0.852904 -0.000876031 0)
(0.852507 -0.0007745 0)
(0.852155 -0.000681877 0)
(0.851844 -0.000597799 0)
(0.851572 -0.000521766 0)
(0.851334 -0.00045328 0)
(0.851127 -0.000391829 0)
(0.850949 -0.000336912 0)
(0.850795 -0.000288149 0)
(0.850664 -0.000245062 0)
(0.850552 -0.000207329 0)
(0.850458 -0.000174404 0)
(0.850379 -0.00014624 0)
(0.850311 -0.000121661 0)
(0.850261 -0.000102429 0)
(0.8502 -8.10415e-05 0)
(0.749936 -0.00103758 0)
(0.749346 -0.000938116 0)
(0.748815 -0.000843373 0)
(0.748338 -0.000752673 0)
(0.747914 -0.000667932 0)
(0.747537 -0.0005901 0)
(0.747205 -0.000519201 0)
(0.746912 -0.000454937 0)
(0.746656 -0.000396881 0)
(0.746433 -0.000344637 0)
(0.74624 -0.000297799 0)
(0.746074 -0.000255967 0)
(0.745931 -0.000218839 0)
(0.745809 -0.000186064 0)
(0.745706 -0.000157366 0)
(0.745618 -0.000132386 0)
(0.745546 -0.000110931 0)
(0.745483 -9.25139e-05 0)
(0.745437 -7.74968e-05 0)
(0.745381 -6.21501e-05 0)
(0.63499 -0.000737936 0)
(0.634455 -0.000667987 0)
(0.633973 -0.00060068 0)
(0.633541 -0.000535862 0)
(0.633157 -0.000475344 0)
(0.632817 -0.000419841 0)
(0.632517 -0.000369344 0)
(0.632254 -0.000323618 0)
(0.632024 -0.000282326 0)
(0.631824 -0.000245175 0)
(0.631651 -0.000211879 0)
(0.631502 -0.000182142 0)
(0.631374 -0.000155746 0)
(0.631265 -0.000132453 0)
(0.631173 -0.000112049 0)
(0.631096 -9.43183e-05 0)
(0.631031 -7.90406e-05 0)
(0.630976 -6.6131e-05 0)
(0.630934 -5.51738e-05 0)
(0.630886 -4.52546e-05 0)
(0.510321 -0.000473321 0)
(0.509863 -0.000429133 0)
(0.50945 -0.000386001 0)
(0.50908 -0.000344318 0)
(0.508751 -0.000305475 0)
(0.50846 -0.0002699 0)
(0.508204 -0.000237544 0)
(0.507979 -0.000208256 0)
(0.507783 -0.000181803 0)
(0.507613 -0.000157981 0)
(0.507465 -0.000136624 0)
(0.507338 -0.00011754 0)
(0.507229 -0.000100585 0)
(0.507137 -8.56159e-05 0)
(0.507058 -7.24921e-05 0)
(0.506992 -6.10986e-05 0)
(0.506937 -5.1249e-05 0)
(0.50689 -4.30653e-05 0)
(0.506854 -3.58453e-05 0)
(0.506814 -3.05778e-05 0)
(0.376145 -0.000254418 0)
(0.375784 -0.000231107 0)
(0.375457 -0.00020796 0)
(0.375165 -0.000185585 0)
(0.374906 -0.000164796 0)
(0.374677 -0.000145771 0)
(0.374475 -0.000128454 0)
(0.374298 -0.000112765 0)
(0.374143 -9.85795e-05 0)
(0.374008 -8.57842e-05 0)
(0.373891 -7.42977e-05 0)
(0.373791 -6.40194e-05 0)
(0.373704 -5.48716e-05 0)
(0.373631 -4.67834e-05 0)
(0.373569 -3.96824e-05 0)
(0.373516 -3.35166e-05 0)
(0.373472 -2.81639e-05 0)
(0.373435 -2.38122e-05 0)
(0.373406 -1.98058e-05 0)
(0.373374 -1.81862e-05 0)
(0.232741 -9.62619e-05 0)
(0.2325 -8.7691e-05 0)
(0.232281 -7.90013e-05 0)
(0.232086 -7.0614e-05 0)
(0.231912 -6.28454e-05 0)
(0.231758 -5.57259e-05 0)
(0.231622 -4.92302e-05 0)
(0.231503 -4.3328e-05 0)
(0.231398 -3.79756e-05 0)
(0.231307 -3.31335e-05 0)
(0.231228 -2.87752e-05 0)
(0.231159 -2.48634e-05 0)
(0.2311 -2.13724e-05 0)
(0.23105 -1.82767e-05 0)
(0.231008 -1.55489e-05 0)
(0.230972 -1.31782e-05 0)
(0.230941 -1.11053e-05 0)
(0.230916 -9.48035e-06 0)
(0.230895 -7.87211e-06 0)
(0.230872 -8.38073e-06 0)
(0.0804352 -1.73908e-05 0)
(0.0803418 -1.58987e-05 0)
(0.0802572 -1.43478e-05 0)
(0.0801813 -1.287e-05 0)
(0.0801136 -1.15101e-05 0)
(0.0800534 -1.02607e-05 0)
(0.0800001 -9.10865e-06 0)
(0.079953 -8.05792e-06 0)
(0.0799116 -7.10118e-06 0)
(0.0798754 -6.22679e-06 0)
(0.0798439 -5.43774e-06 0)
(0.0798165 -4.72685e-06 0)
(0.0797929 -4.08765e-06 0)
(0.0797726 -3.51715e-06 0)
(0.0797553 -3.01079e-06 0)
(0.0797406 -2.5668e-06 0)
(0.0797282 -2.17439e-06 0)
(0.0797176 -1.88773e-06 0)
(0.079709 -1.57695e-06 0)
(0.0796985 -2.12217e-06 0)
)
;

boundaryField
{
    fixedWalls
    {
        type            noSlip;
    }
    inlet
    {
        type            fixedValue;
        value           nonuniform 0();
    }
    outlet
    {
        type            zeroGradient;
    }
    frontAndBack
    {
        type            empty;
    }
    procBoundary7to3
    {
        type            processor;
        value           nonuniform List<vector> 
20
(
(1.4362 0.000315996 0)
(1.43736 0.000287725 0)
(1.43839 0.000262022 0)
(1.43935 0.000238184 0)
(1.44021 0.000214956 0)
(1.44099 0.00019329 0)
(1.44168 0.000173135 0)
(1.4423 0.000154472 0)
(1.44285 0.000137287 0)
(1.44333 0.000121574 0)
(1.44375 0.000107315 0)
(1.44412 9.4388e-05 0)
(1.44445 8.28017e-05 0)
(1.44473 7.23023e-05 0)
(1.44496 6.30422e-05 0)
(1.44517 5.45129e-05 0)
(1.44534 4.76139e-05 0)
(1.4455 4.04626e-05 0)
(1.4456 3.63114e-05 0)
(1.44575 2.87793e-05 0)
)
;
    }
    procBoundary7to6
    {
        type            processor;
        value           nonuniform List<vector> 
20
(
(1.43492 -0.000331742 0)
(1.43019 -0.000989204 0)
(1.42054 -0.00159258 0)
(1.40569 -0.00211328 0)
(1.38518 -0.00252984 0)
(1.35851 -0.00282646 0)
(1.32508 -0.00299577 0)
(1.28428 -0.00303883 0)
(1.23552 -0.00296473 0)
(1.17823 -0.00278903 0)
(1.11195 -0.00253195 0)
(1.03628 -0.00221636 0)
(0.950923 -0.00186569 0)
(0.855717 -0.0015023 0)
(0.75059 -0.00114627 0)
(0.635583 -0.000814738 0)
(0.510828 -0.000521727 0)
(0.376542 -0.000279637 0)
(0.233006 -0.000105305 0)
(0.0805368 -1.88382e-05 0)
)
;
    }
}


// ************************************************************************* //
