/*--------------------------------*- C++ -*----------------------------------*\
| =========                 |                                                 |
| \\      /  F ield         | OpenFOAM: The Open Source CFD Toolbox           |
|  \\    /   O peration     | Version:                                        |
|   \\  /    A nd           | Website:  www.openfoam.com                      |
|    \\/     M anipulation  |                                                 |
\*---------------------------------------------------------------------------*/
FoamFile
{
    version     2.0;
    format      ascii;
    class       volVectorField;
    location    "140.5";
    object      U;
}
// * * * * * * * * * * * * * * * * * * * * * * * * * * * * * * * * * * * * * //

dimensions      [0 1 -1 0 0 0 0];


internalField   nonuniform List<vector> 
1136
(
(0.644204 -0.916133 -1.53663e-22)
(0.641069 -0.826765 7.49117e-22)
(0.589131 -0.898894 -1.62505e-21)
(0.506077 -0.75425 -2.96161e-22)
(0.347306 -0.461074 3.10716e-21)
(0.398105 -0.103849 -1.68537e-21)
(0.491018 0.44491 5.10249e-22)
(0.49734 0.520763 -1.92664e-21)
(0.649367 0.764723 1.1779e-21)
(0.57349 0.806081 4.15449e-22)
(0.466476 0.609834 -1.8011e-21)
(0.466507 0.537593 2.38611e-21)
(0.704451 -0.0775418 -1.25175e-21)
(0.595504 -0.288243 1.25424e-21)
(0.77065 -0.508223 -8.94749e-22)
(0.67446 -0.851041 -3.32265e-24)
(0.69001 -0.470146 -2.14617e-22)
(0.660601 -0.350447 2.70258e-22)
(0.84833 0.111671 4.79972e-22)
(0.846356 0.662104 -3.80956e-22)
(0.849121 0.541577 -1.74712e-22)
(0.805028 0.626439 -6.25606e-23)
(0.961588 0.0943494 -3.75643e-22)
(1.00346 -0.605314 3.47056e-23)
(1.00705 -0.504145 -2.24979e-23)
(0.945656 -0.560417 -1.67725e-23)
(1.03032 -0.0375636 -2.62378e-22)
(1.09317 0.838584 4.99669e-22)
(1.03773 0.370114 5.05783e-23)
(0.996029 -0.141587 -9.4237e-24)
(0.712668 -0.926361 5.02518e-21)
(0.666822 -0.804145 -1.18843e-20)
(0.617109 -0.835452 3.77141e-21)
(0.467084 -0.683709 -2.56631e-21)
(0.314482 -0.431738 3.27574e-22)
(0.343591 -0.141547 9.34714e-21)
(0.421977 0.412427 -1.06095e-20)
(0.488023 0.483687 3.94524e-22)
(0.617587 0.758256 5.73049e-21)
(0.577325 0.814818 -1.61708e-21)
(0.459046 0.607944 3.08358e-22)
(0.468989 0.481809 -4.57535e-22)
(0.737967 -0.124948 -2.38191e-21)
(0.635457 -0.334344 -5.18862e-21)
(0.830752 -0.509627 4.6576e-21)
(0.727939 -0.836856 6.45055e-23)
(0.703841 -0.486183 3.55738e-24)
(0.687278 -0.386199 1.21099e-21)
(0.822754 0.086409 -3.35885e-21)
(0.812867 0.662175 1.32914e-21)
(0.82249 0.549163 3.50949e-22)
(0.782993 0.617225 1.12197e-22)
(0.969663 0.0752087 -3.08174e-22)
(1.0233 -0.608823 -1.3269e-22)
(1.02253 -0.504928 1.46409e-21)
(0.970865 -0.562447 -6.55795e-22)
(1.03187 -0.0487594 6.98078e-22)
(1.0726 0.836015 -5.22191e-23)
(1.01968 0.370264 1.00331e-22)
(0.996511 -0.138484 1.28923e-23)
(0.79973 -0.926396 -1.11069e-20)
(0.696909 -0.798801 9.23115e-21)
(0.651552 -0.794302 -2.16068e-21)
(0.45383 -0.626061 1.19866e-21)
(0.338603 -0.402736 1.04501e-20)
(0.311357 -0.180313 1.04153e-21)
(0.403323 0.357923 -2.01873e-20)
(0.509618 0.422648 1.46171e-21)
(0.59079 0.746396 -1.0437e-21)
(0.622054 0.873564 5.53127e-21)
(0.524963 0.674472 8.38571e-21)
(0.495787 0.472319 -2.26498e-21)
(0.793236 -0.125182 -2.10291e-21)
(0.695172 -0.352468 -8.86086e-21)
(0.861361 -0.509677 3.23591e-21)
(0.764663 -0.827007 9.88718e-21)
(0.709597 -0.473567 -7.743e-21)
(0.707503 -0.385997 1.16906e-21)
(0.795385 0.079852 3.3542e-22)
(0.790856 0.655651 3.3346e-21)
(0.811195 0.539081 -3.15167e-21)
(0.773075 0.593298 1.39618e-21)
(0.979097 0.0535551 1.5448e-21)
(1.04153 -0.610275 1.9783e-21)
(1.03087 -0.509382 -1.78813e-21)
(0.989581 -0.564417 -4.54125e-22)
(1.03402 -0.0508755 -8.14403e-23)
(1.04782 0.838961 -1.73701e-21)
(1.00298 0.372955 -2.80922e-24)
(0.996563 -0.132521 -1.89202e-23)
(0.899363 -0.894265 1.01446e-20)
(0.749336 -0.772426 1.81627e-20)
(0.722839 -0.735345 -3.37012e-21)
(0.472584 -0.582998 -5.75083e-21)
(0.408591 -0.380675 2.1513e-21)
(0.318509 -0.233583 -1.22711e-21)
(0.428672 0.302203 1.07399e-20)
(0.528581 0.385656 -4.27419e-21)
(0.582705 0.707154 -9.12992e-22)
(0.654685 0.888068 -1.17903e-20)
(0.580843 0.688557 -9.1736e-21)
(0.528647 0.426623 4.07793e-20)
(0.845692 -0.162267 -2.83876e-20)
(0.784534 -0.39103 3.2706e-21)
(0.919901 -0.502142 -1.14252e-21)
(0.826739 -0.808105 -1.47253e-21)
(0.735421 -0.503464 6.47528e-21)
(0.750065 -0.419158 -1.45514e-21)
(0.778666 0.0509321 -2.73995e-21)
(0.768395 0.645232 3.10038e-21)
(0.791159 0.548846 -4.43446e-21)
(0.75956 0.581606 6.50772e-21)
(0.988039 0.035521 -7.55481e-21)
(1.06692 -0.606631 3.07465e-22)
(1.04584 -0.510925 1.95112e-21)
(1.00946 -0.565672 -3.81062e-22)
(1.03748 -0.0548556 2.29022e-21)
(1.01542 0.838174 1.2708e-21)
(0.983367 0.368275 -2.86281e-22)
(0.994403 -0.130775 -6.13381e-24)
(0.989097 -0.827306 -1.88553e-20)
(0.807968 -0.752436 8.44759e-21)
(0.776197 -0.675269 -1.66286e-21)
(0.504621 -0.538743 -1.26803e-20)
(0.479407 -0.351488 5.23741e-21)
(0.345997 -0.268346 6.92589e-21)
(0.43751 0.225275 -2.11824e-21)
(0.590162 0.333985 -3.77376e-21)
(0.592872 0.660955 -7.56248e-21)
(0.694627 0.918234 2.43313e-20)
(0.70981 0.749285 -2.22121e-20)
(0.633093 0.444911 -1.47234e-21)
(0.919752 -0.163827 -8.6677e-21)
(0.877998 -0.407671 2.15986e-20)
(0.951296 -0.482162 -1.19082e-20)
(0.874849 -0.77698 -2.39442e-21)
(0.749325 -0.486983 3.85224e-21)
(0.781753 -0.412436 3.46914e-21)
(0.751747 0.051484 1.02473e-22)
(0.750836 0.642177 1.05746e-22)
(0.788949 0.539183 3.37556e-21)
(0.760707 0.55211 -4.71843e-21)
(0.999575 0.010209 4.18376e-21)
(1.08712 -0.609164 3.95748e-21)
(1.05384 -0.513823 -3.14834e-21)
(1.01722 -0.567388 -3.96427e-22)
(1.03652 -0.0478499 -3.70429e-21)
(0.979599 0.842042 -2.78538e-21)
(0.96704 0.36532 -3.92062e-23)
(0.99217 -0.126376 -3.08222e-25)
(1.06551 -0.747289 -1.07567e-19)
(0.902313 -0.706388 2.54209e-20)
(0.819677 -0.61523 2.70249e-20)
(0.598493 -0.499599 -2.37951e-20)
(0.528917 -0.331281 1.29593e-20)
(0.433829 -0.289068 2.41496e-24)
(0.46836 0.118692 7.42549e-22)
(0.669476 0.295139 -3.79209e-21)
(0.598725 0.595697 -5.19133e-21)
(0.729053 0.877276 8.36518e-21)
(0.779345 0.773885 1.27891e-20)
(0.725861 0.453392 1.95817e-20)
(1.00338 -0.176053 -2.90447e-20)
(1.00329 -0.437777 -1.09789e-20)
(1.01455 -0.466482 7.13815e-21)
(0.945009 -0.75203 -2.08762e-21)
(0.788972 -0.51763 -4.97479e-21)
(0.824659 -0.434922 7.67837e-21)
(0.745695 0.0156894 1.25051e-21)
(0.736769 0.622556 -8.18098e-21)
(0.775855 0.550713 -1.91161e-21)
(0.761434 0.541708 3.29049e-21)
(1.01317 -0.00695391 -1.88104e-21)
(1.11297 -0.599741 3.22338e-21)
(1.07108 -0.512918 -5.46736e-21)
(1.0229 -0.567212 4.55315e-21)
(1.03389 -0.0464658 -1.02965e-21)
(0.936775 0.842669 4.08341e-21)
(0.949944 0.356067 -2.44673e-22)
(0.988498 -0.125937 2.70631e-23)
(0.991341 -0.648113 -1.27225e-20)
(0.858834 -0.566725 1.26477e-20)
(0.735446 -0.459041 -6.45084e-21)
(0.566028 -0.313362 -3.02773e-21)
(0.540008 -0.295867 -4.11969e-21)
(0.461205 0.0159591 3.82592e-21)
(0.709168 0.235405 4.27862e-21)
(0.683889 0.542896 -3.25861e-21)
(0.760119 0.86914 -1.30748e-20)
(0.893374 0.787693 1.77829e-20)
(0.895751 0.466901 -1.02798e-20)
(1.10451 -0.161611 -2.98737e-21)
(1.10597 -0.438639 -5.45722e-21)
(1.05496 -0.427651 4.05692e-22)
(0.996428 -0.700584 1.07683e-20)
(0.815758 -0.497395 -1.06695e-21)
(0.864231 -0.425353 5.9648e-21)
(0.72767 0.0195834 -7.26574e-21)
(0.728247 0.622024 8.18608e-21)
(0.784725 0.535768 -4.95435e-21)
(0.785451 0.507487 3.00164e-21)
(1.03489 -0.0326899 -3.85875e-21)
(1.13102 -0.600508 1.28195e-22)
(1.08248 -0.510937 2.74137e-21)
(1.01813 -0.565861 -2.50119e-21)
(1.02023 -0.0304377 -1.90109e-21)
(0.892135 0.847163 1.86121e-21)
(0.938131 0.346842 -1.46722e-23)
(0.985148 -0.12301 -4.52776e-23)
(1.06647 -0.582835 3.61249e-21)
(0.906036 -0.528588 8.01153e-22)
(0.832234 -0.420456 -4.66053e-21)
(0.616233 -0.277018 1.19949e-21)
(0.593641 -0.277552 -4.0911e-21)
(0.492672 -0.068762 -1.50963e-22)
(0.747182 0.14613 -3.56469e-21)
(0.754553 0.463766 -1.48831e-22)
(0.777149 0.776557 -6.56369e-21)
(0.953283 0.791413 1.83239e-20)
(0.958106 0.541343 1.21157e-20)
(1.17256 -0.105774 -1.21785e-20)
(1.21572 -0.436698 6.69157e-21)
(1.12514 -0.401167 -1.58293e-20)
(1.0532 -0.667128 -7.77642e-21)
(0.858756 -0.521174 5.5053e-21)
(0.904719 -0.435158 2.4644e-21)
(0.731787 -0.0153009 9.94166e-22)
(0.720368 0.592788 -2.74246e-21)
(0.771539 0.545963 -7.12357e-21)
(0.801049 0.503455 5.91902e-21)
(1.05986 -0.0417437 1.38885e-21)
(1.14974 -0.583846 -5.65882e-23)
(1.09775 -0.503396 1.78061e-22)
(1.01316 -0.562 3.34349e-21)
(1.00364 -0.0240081 -3.77335e-21)
(0.843831 0.845502 -1.06097e-21)
(0.926571 0.33196 -2.00015e-22)
(0.980469 -0.12329 3.62621e-23)
(1.13861 -0.502131 -3.20026e-20)
(0.983068 -0.494888 1.03037e-20)
(0.914693 -0.397182 2.78119e-21)
(0.721495 -0.239024 -1.50806e-22)
(0.637096 -0.26365 -2.10669e-22)
(0.55832 -0.148493 -2.75628e-21)
(0.719504 0.0511674 8.82738e-22)
(0.817036 0.400756 3.80553e-21)
(0.854027 0.739794 -5.88364e-21)
(1.02923 0.753189 1.64368e-20)
(1.1204 0.496892 8.91846e-21)
(1.27578 -0.105287 -2.45898e-20)
(1.29679 -0.433208 7.26488e-21)
(1.17482 -0.358901 1.1857e-20)
(1.07194 -0.600195 -1.07802e-20)
(0.891757 -0.50514 -1.48893e-21)
(0.940543 -0.437505 1.35521e-21)
(0.748966 -0.00911425 3.27881e-21)
(0.710935 0.590457 -6.38244e-21)
(0.786288 0.516948 3.83411e-21)
(0.84333 0.463823 1.74917e-21)
(1.09401 -0.0638269 1.05727e-21)
(1.1609 -0.581419 -6.3116e-21)
(1.10048 -0.494796 2.49668e-21)
(0.996977 -0.555367 1.45041e-21)
(0.974244 -0.00348169 -2.04692e-21)
(0.791938 0.849801 2.01502e-21)
(0.920638 0.315399 -2.07489e-22)
(0.975677 -0.121659 -3.89599e-24)
(1.17881 -0.405527 2.41632e-20)
(1.02827 -0.447476 -1.23606e-20)
(0.956058 -0.388533 4.56803e-21)
(0.814063 -0.195902 1.18637e-21)
(0.659837 -0.198029 8.71931e-22)
(0.598248 -0.189556 -1.58875e-21)
(0.695856 -0.0632866 2.83233e-22)
(0.846386 0.263524 1.12204e-21)
(0.856311 0.629613 1.08578e-20)
(1.05908 0.737705 -2.57698e-20)
(1.15254 0.61337 3.2607e-20)
(1.28121 0.0278826 -5.35257e-20)
(1.35643 -0.374125 6.18085e-21)
(1.24126 -0.320038 3.96104e-21)
(1.10436 -0.549035 1.56956e-20)
(0.930827 -0.504279 3.67263e-21)
(0.96537 -0.438645 2.66619e-21)
(0.766651 -0.0465028 -7.71701e-22)
(0.706156 0.550431 -2.84102e-21)
(0.776319 0.524507 8.8658e-22)
(0.857351 0.459771 -2.17008e-21)
(1.12327 -0.056177 8.85042e-21)
(1.17064 -0.552155 -8.85794e-21)
(1.10275 -0.483522 6.39356e-21)
(0.98356 -0.550192 2.06476e-21)
(0.938668 0.00469764 -4.90861e-21)
(0.741105 0.842297 -8.02064e-23)
(0.915329 0.297498 5.64056e-22)
(0.970156 -0.121838 -1.71112e-24)
(1.02989 -0.356798 0)
(0.967496 -0.354807 0)
(0.882587 -0.178172 0)
(0.719038 -0.145091 0)
(0.6362 -0.202924 0)
(0.698798 -0.121584 0)
(0.849985 0.187143 0)
(0.899615 0.548711 0)
(1.14123 0.643208 0)
(1.23012 0.534611 0)
(1.3793 -0.0165968 0)
(1.40712 -0.360402 0)
(1.29275 -0.237689 0)
(1.12595 -0.460733 0)
(0.961052 -0.477562 0)
(0.976869 -0.413262 0)
(0.784533 -0.0245411 0)
(0.70613 0.548142 0)
(0.780125 0.490254 0)
(0.902981 0.421586 0)
(1.16651 -0.0886106 0)
(1.1785 -0.543174 0)
(1.09296 -0.478514 0)
(0.960992 -0.534605 0)
(0.898127 0.0326945 0)
(0.694314 0.842361 0)
(0.920194 0.273941 0)
(0.965977 -0.121645 0)
(1.00633 -0.325371 0)
(0.93646 -0.32099 0)
(0.883974 -0.10975 0)
(0.762891 -0.079487 0)
(0.658878 -0.198567 0)
(0.671673 -0.123053 0)
(0.849051 0.145508 0)
(0.922229 0.469626 0)
(1.17866 0.552063 0)
(1.3265 0.506387 0)
(1.45489 -0.0109543 0)
(1.41948 -0.351425 0)
(1.27761 -0.217881 0)
(1.12854 -0.451706 0)
(0.969801 -0.462691 0)
(0.984255 -0.385255 0)
(0.811266 0.00458868 0)
(0.698332 0.544661 0)
(0.80007 0.457723 0)
(0.962366 0.375503 0)
(1.19458 -0.112051 0)
(1.1807 -0.52905 0)
(1.07977 -0.454057 0)
(0.930042 -0.517017 0)
(0.853505 0.0687436 0)
(0.648174 0.843659 0)
(0.925561 0.24566 0)
(0.960494 -0.122627 0)
(1.08408 -0.234042 0)
(0.96874 -0.309029 0)
(0.95121 -0.11105 0)
(0.888101 -0.020885 0)
(0.747628 -0.185207 0)
(0.697707 -0.165019 0)
(0.865492 0.0820926 0)
(0.92072 0.404517 0)
(1.19137 0.496467 0)
(1.41676 0.478033 0)
(1.50494 -0.0143133 0)
(1.41966 -0.33249 0)
(1.31276 -0.149902 0)
(1.1603 -0.367481 0)
(1.00851 -0.439486 0)
(1.00529 -0.365654 0)
(0.848452 0.0368486 0)
(0.696946 0.546712 0)
(0.832208 0.427568 0)
(1.02281 0.327074 0)
(1.22279 -0.13192 0)
(1.17772 -0.511516 0)
(1.06035 -0.442461 0)
(0.888038 -0.495122 0)
(0.80398 0.103702 0)
(0.60338 0.831656 0)
(0.936499 0.213119 0)
(0.955918 -0.122444 0)
(1.05347 -0.192571 0)
(0.923268 -0.266883 0)
(0.903893 -0.09557 0)
(0.954584 0.0367884 0)
(0.867577 -0.139829 0)
(0.774335 -0.162201 0)
(0.878196 0.0356686 0)
(0.932426 0.346803 0)
(1.16851 0.413511 0)
(1.44243 0.427946 0)
(1.52693 -0.0106488 0)
(1.37399 -0.287686 0)
(1.25268 -0.114817 0)
(1.12038 -0.373193 0)
(0.99021 -0.428917 0)
(0.998724 -0.337511 0)
(0.852021 0.0727841 0)
(0.696869 0.552306 0)
(0.872602 0.38349 0)
(1.07052 0.281279 0)
(1.24132 -0.15171 0)
(1.17032 -0.485151 0)
(1.02781 -0.404628 0)
(0.833421 -0.460135 0)
(0.749454 0.149887 0)
(0.568856 0.811959 0)
(0.954448 0.174567 0)
(0.951927 -0.122393 0)
(1.15158 -0.130745 0)
(1.03254 -0.209951 0)
(0.92153 -0.131728 0)
(1.01855 0.0273295 0)
(0.976232 -0.102896 0)
(0.854356 -0.147144 0)
(0.869083 0.0154601 0)
(0.882956 0.299819 0)
(1.08038 0.300221 0)
(1.43508 0.3412 0)
(1.4617 0.00848113 0)
(1.30328 -0.260598 0)
(1.2789 -0.0699098 0)
(1.17359 -0.286663 0)
(1.02234 -0.389091 0)
(1.00905 -0.313653 0)
(0.857948 0.118814 0)
(0.712235 0.560484 0)
(0.916254 0.333703 0)
(1.11416 0.225869 0)
(1.259 -0.163615 0)
(1.15865 -0.453299 0)
(0.992819 -0.374827 0)
(0.786173 -0.429781 0)
(0.683251 0.181858 0)
(0.545391 0.774181 0)
(0.980765 0.134186 0)
(0.950596 -0.119837 0)
(1.04723 -0.136245 0)
(0.977133 -0.151164 0)
(0.893216 -0.116207 0)
(0.986646 0.02106 0)
(0.99037 -0.0744326 0)
(0.88978 -0.10466 0)
(0.859342 0.0165105 0)
(0.872739 0.234045 0)
(1.03566 0.172615 0)
(1.35291 0.261497 0)
(1.39877 0.0205011 0)
(1.24364 -0.195578 0)
(1.21313 -0.0447405 0)
(1.12055 -0.29437 0)
(0.982854 -0.376054 0)
(0.954972 -0.285815 0)
(0.82093 0.153961 0)
(0.734762 0.539303 0)
(0.972578 0.27507 0)
(1.14444 0.184565 0)
(1.26773 -0.168291 0)
(1.13976 -0.410818 0)
(0.948199 -0.321395 0)
(0.730481 -0.380379 0)
(0.604137 0.22342 0)
(0.540922 0.729734 0)
(1.014 0.0906598 0)
(0.950938 -0.115847 0)
(1.07088 -0.0755511 0)
(1.0458 -0.101414 0)
(0.948944 -0.121748 0)
(0.982931 -0.00802719 0)
(1.01266 -0.056967 0)
(0.914459 -0.0799044 0)
(0.888141 0.00631391 0)
(0.945587 0.1969 0)
(1.0347 0.0982461 0)
(1.24565 0.193165 0)
(1.30013 0.0362515 0)
(1.14584 -0.177986 0)
(1.17521 -0.0355826 0)
(1.15239 -0.216714 0)
(0.979723 -0.306906 0)
(0.892758 -0.248355 0)
(0.790974 0.180123 0)
(0.782736 0.512249 0)
(1.03548 0.216988 0)
(1.1635 0.134986 0)
(1.27533 -0.166215 0)
(1.11045 -0.359473 0)
(0.917921 -0.271953 0)
(0.70422 -0.33565 0)
(0.518153 0.251134 0)
(0.560132 0.659571 0)
(1.05421 0.0471015 0)
(0.954222 -0.107678 0)
(1.0419 -0.0843068 0)
(1.03845 -0.0823513 0)
(0.96951 -0.0874229 0)
(0.979762 -0.0176381 0)
(1.00357 -0.0417242 0)
(0.943247 -0.0395567 0)
(0.921302 -0.00411677 0)
(0.973149 0.15185 0)
(1.04742 0.0571243 0)
(1.13275 0.149226 0)
(1.23232 0.0352953 0)
(1.13107 -0.119749 0)
(1.13175 -0.0325422 0)
(1.10756 -0.229521 0)
(0.901675 -0.25952 0)
(0.800898 -0.202657 0)
(0.71565 0.195102 0)
(0.82026 0.447488 0)
(1.08944 0.163617 0)
(1.15839 0.111945 0)
(1.27622 -0.167828 0)
(1.07589 -0.308491 0)
(0.880769 -0.204853 0)
(0.686456 -0.272338 0)
(0.459254 0.280242 0)
(0.629059 0.573744 0)
(1.09794 0.00383069 0)
(0.956905 -0.0948836 0)
(1.03498 -0.0449561 0)
(1.04197 -0.0541598 0)
(0.98717 -0.0668364 0)
(0.984651 -0.0251133 0)
(0.999928 -0.0345362 0)
(0.961898 -0.0271404 0)
(0.952055 -0.0148921 0)
(0.980453 0.123398 0)
(1.0515 0.0345027 0)
(1.05784 0.111058 0)
(1.20031 0.0197879 0)
(1.08569 -0.111224 0)
(1.08458 -0.0245898 0)
(1.14662 -0.15896 0)
(0.946255 -0.177029 0)
(0.818537 -0.163035 0)
(0.712736 0.175955 0)
(0.915233 0.368013 0)
(1.14 0.110095 0)
(1.14106 0.0760464 0)
(1.24559 -0.151671 0)
(1.01542 -0.250433 0)
(0.889979 -0.150919 0)
(0.713949 -0.216499 0)
(0.432088 0.280614 0)
(0.733081 0.463042 0)
(1.13704 -0.0273465 0)
(0.955966 -0.0792353 0)
(1.02569 -0.03219 0)
(1.04742 -0.0506085 0)
(0.990657 -0.0442768 0)
(1.00433 -0.0268984 0)
(0.994917 -0.033375 0)
(0.982133 -0.00832382 0)
(0.975215 -0.0157439 0)
(0.976847 0.0850341 0)
(1.06138 0.0264889 0)
(1.03707 0.0812893 0)
(1.16166 0.000805398 0)
(1.0598 -0.0623196 0)
(1.07885 -0.0381135 0)
(1.06945 -0.170327 0)
(0.893903 -0.12387 0)
(0.854944 -0.107271 0)
(0.747987 0.136847 0)
(0.98265 0.255726 0)
(1.15903 0.0873287 0)
(1.13315 0.0806696 0)
(1.26396 -0.125637 0)
(0.961378 -0.18312 0)
(0.860196 -0.094491 0)
(0.735242 -0.136508 0)
(0.435939 0.279399 0)
(0.858792 0.344324 0)
(1.15113 -0.0443145 0)
(0.948849 -0.0419535 0)
(1.01859 -0.0189744 0)
(1.05012 -0.0361365 0)
(0.994314 -0.0285028 0)
(1.01867 -0.0263085 0)
(0.997124 -0.021259 0)
(0.989426 -0.0121666 0)
(0.999114 -0.0121597 0)
(0.980413 0.0618564 0)
(1.06636 0.00896558 0)
(1.0196 0.0624914 0)
(1.13893 -0.00967628 0)
(1.04187 -0.0531199 0)
(1.06198 -0.0237879 0)
(1.07268 -0.102848 0)
(0.896055 -0.0778439 0)
(0.913914 -0.0856237 0)
(0.811889 0.117886 0)
(1.01544 0.18059 0)
(1.12466 0.0510633 0)
(1.04397 0.0538076 0)
(1.21875 -0.113208 0)
(0.986156 -0.123127 0)
(0.91727 -0.0508732 0)
(0.859471 -0.0793032 0)
(0.553771 0.247267 0)
(0.939228 0.227912 0)
(1.10883 -0.0644879 0)
(0.931668 -0.0267334 0)
(1.01986 -0.00819801 0)
(1.04379 -0.0336065 0)
(1.00234 -0.0134703 0)
(1.0247 -0.0285434 0)
(1.00048 -0.0139288 0)
(1.00672 -0.0117508 0)
(1.00093 -0.00743765 0)
(0.998755 0.0364574 0)
(1.05529 0.00296104 0)
(1.01776 0.0467837 0)
(1.11351 -0.0215023 0)
(1.02176 -0.0189677 0)
(1.05019 -0.0360833 0)
(1.03918 -0.0870177 0)
(0.929847 -0.0450298 0)
(0.939008 -0.062646 0)
(0.856376 0.0944695 0)
(1.02754 0.110293 0)
(1.08552 0.0657648 0)
(1.05342 0.0557532 0)
(1.14895 -0.103235 0)
(0.908526 -0.0742299 0)
(0.903621 -0.0323971 0)
(0.892712 -0.0216868 0)
(0.714296 0.23548 0)
(1.04705 0.157522 0)
(1.09343 -0.0352843 0)
(0.908076 0.019379 0)
(1.01968 -0.00465352 0)
(1.04009 -0.0267412 0)
(1.00637 -0.00729885 0)
(1.02985 -0.0271416 0)
(1.00508 -0.00552246 0)
(1.01283 -0.0159736 0)
(1.01144 -0.0042787 0)
(1.00418 0.022444 0)
(1.04962 -0.00611735 0)
(1.01428 0.0368099 0)
(1.085 -0.0234517 0)
(1.01647 -0.0107895 0)
(1.04232 -0.0262769 0)
(1.0263 -0.0525292 0)
(0.943216 -0.0268526 0)
(0.96775 -0.0461418 0)
(0.898411 0.0827201 0)
(1.01951 0.0688316 0)
(1.06143 0.0394066 0)
(1.03173 0.0429093 0)
(1.13422 -0.071007 0)
(0.941547 -0.0255463 0)
(0.934722 -0.0205175 0)
(0.943893 -0.00997888 0)
(0.833282 0.196984 0)
(1.07075 0.107347 0)
(1.10249 -0.0244831 0)
(0.968054 0.0383297 0)
(1.02375 0.000383985 0)
(1.0332 -0.0254906 0)
(1.01349 0.00074747 0)
(1.02837 -0.0291513 0)
(1.00888 0.0011066 0)
(1.02123 -0.01865 0)
(1.00936 -0.000929389 0)
(1.01661 0.0106641 0)
(1.03379 -0.00931368 0)
(1.01791 0.0297184 0)
(1.06008 -0.0275126 0)
(1.01339 0.00799822 0)
(1.03205 -0.0307642 0)
(1.01286 -0.0329282 0)
(0.971 -0.0126519 0)
(0.972723 -0.0377187 0)
(0.934323 0.0720409 0)
(1.02474 0.0287876 0)
(1.03209 0.0460441 0)
(1.036 0.0367871 0)
(1.07603 -0.0657706 0)
(0.953035 0.00734076 0)
(0.960946 -0.0204695 0)
(0.94538 0.0109458 0)
(0.911792 0.178175 0)
(1.07628 0.0625165 0)
(1.04085 -0.0079605 0)
(0.976133 0.0660927 0)
(1.0282 0.00204861 0)
(1.02822 -0.0206878 0)
(1.01789 0.0020547 0)
(1.02861 -0.0253075 0)
(1.00983 0.0021615 0)
(1.02704 -0.0171023 0)
(1.0061 -0.00205911 0)
(1.02618 0.00654121 0)
(1.01975 -0.0116624 0)
(1.02393 0.023483 0)
(1.03817 -0.0232869 0)
(1.01311 0.00905442 0)
(1.03121 -0.0219863 0)
(1.00076 -0.0184776 0)
(0.994577 -0.0040629 0)
(0.979142 -0.0283254 0)
(0.962269 0.0596002 0)
(1.029 0.0152758 0)
(1.00729 0.0310565 0)
(1.04618 0.0332922 0)
(1.04145 -0.045355 0)
(0.972233 0.0245215 0)
(0.991305 -0.00365323 0)
(0.945406 0.0135005 0)
(0.956625 0.142636 0)
(1.07985 0.0549199 0)
(1.01524 0.0104774 0)
(0.996403 0.0721319 0)
(1.02903 0.00307867 0)
(1.02636 -0.0170366 0)
(1.02037 0.00318725 0)
(1.02816 -0.0216908 0)
(1.01107 0.00236657 0)
(1.02946 -0.0153381 0)
(1.00493 -0.00165003 0)
(1.02977 0.00242721 0)
(1.01218 -0.0102513 0)
(1.02554 0.0175891 0)
(1.02633 -0.0198147 0)
(1.01341 0.0126465 0)
(1.02758 -0.0187095 0)
(0.99879 -0.00889048 0)
(1.00769 0.000744178 0)
(0.9877 -0.0210925 0)
(0.978666 0.0472961 0)
(1.0321 0.00411117 0)
(0.996521 0.0283674 0)
(1.04617 0.0285816 0)
(1.02164 -0.0323871 0)
(0.984063 0.0320888 0)
(1.00533 0.000742252 0)
(0.96068 0.0199099 0)
(0.982956 0.117588 0)
(1.07204 0.0417273 0)
(1.00571 0.0201087 0)
(1.01498 0.0735855 0)
(1.02878 0.0027556 0)
(1.02489 -0.0120711 0)
(1.02124 0.00197459 0)
(1.0273 -0.0159848 0)
(1.01229 0.000806506 0)
(1.02935 -0.0116707 0)
(1.00506 -0.00251244 0)
(1.03055 0.000919566 0)
(1.00831 -0.00830344 0)
(1.02657 0.0123115 0)
(1.01851 -0.0138815 0)
(1.01427 0.0101147 0)
(1.02523 -0.0121936 0)
(0.999467 -0.00366375 0)
(1.01418 0.00336641 0)
(0.995889 -0.0138957 0)
(0.989636 0.035422 0)
(1.0316 0.00355639 0)
(0.992134 0.021027 0)
(1.04288 0.0254565 0)
(1.01069 -0.018236 0)
(0.994321 0.0315755 0)
(1.01317 0.0120558 0)
(0.975218 0.0239363 0)
(0.99666 0.0914586 0)
(1.06552 0.0409829 0)
(1.00556 0.0316913 0)
(1.02664 0.0716917 0)
(1.0267 0.00240117 0)
(1.02415 -0.00841306 0)
(1.02101 0.00156975 0)
(1.02621 -0.0117547 0)
(1.01355 0.00036015 0)
(1.02789 -0.00922574 0)
(1.00714 -0.00201776 0)
(1.02889 -0.000405683 0)
(1.0084 -0.00610976 0)
(1.02522 0.0085821 0)
(1.0156 -0.0101194 0)
(1.01517 0.00933348 0)
(1.02201 -0.0083179 0)
(1.00379 -7.95559e-05 0)
(1.01515 0.00510874 0)
(1.00375 -0.00878443 0)
(0.996356 0.0269387 0)
(1.02911 0.00284486 0)
(0.994537 0.0173781 0)
(1.03653 0.0225084 0)
(1.00794 -0.0075987 0)
(1.00243 0.0308098 0)
(1.01449 0.0161817 0)
(0.990943 0.0248839 0)
(1.00549 0.0737802 0)
(1.05701 0.0385237 0)
(1.00991 0.034999 0)
(1.03465 0.0654966 0)
(1.02452 0.0019568 0)
(1.02325 -0.00511376 0)
(1.02019 0.000989163 0)
(1.0251 -0.00796569 0)
(1.01444 -0.000119203 0)
(1.02651 -0.00670868 0)
(1.00923 -0.00172235 0)
(1.02706 -0.000882278 0)
(1.00981 -0.00422094 0)
(1.02366 0.00582244 0)
(1.01469 -0.00628126 0)
(1.01538 0.00748812 0)
(1.01987 -0.00419128 0)
(1.00746 0.00173145 0)
(1.01475 0.0058417 0)
(1.00964 -0.00422568 0)
(1.00114 0.0198642 0)
(1.02682 0.00456375 0)
(0.998477 0.0144453 0)
(1.03076 0.0199638 0)
(1.00822 0.00111444 0)
(1.00798 0.0273177 0)
(1.01585 0.0200346 0)
(1.00373 0.0267737 0)
(1.01037 0.0586596 0)
(1.04992 0.036945 0)
(1.01649 0.037991 0)
(1.04012 0.0598574 0)
(1.02257 0.00189144 0)
(1.02234 -0.00309991 0)
(1.0194 0.000908078 0)
(1.02388 -0.00554971 0)
(1.01522 -0.00012032 0)
(1.02483 -0.00501156 0)
(1.0113 -0.0013004 0)
(1.02502 -0.000800089 0)
(1.01159 -0.00281281 0)
(1.02203 0.00458187 0)
(1.01469 -0.00373864 0)
(1.01591 0.00670896 0)
(1.01812 -0.00145304 0)
(1.01102 0.00281408 0)
(1.0141 0.00621555 0)
(1.01354 -0.0013496 0)
(1.00504 0.015368 0)
(1.02427 0.00549522 0)
(1.00309 0.0126921 0)
(1.02655 0.0183056 0)
(1.00989 0.00637038 0)
(1.01313 0.0252228 0)
(1.01669 0.021648 0)
(1.01261 0.0261767 0)
(1.01507 0.0479543 0)
(1.04494 0.0356899 0)
(1.02212 0.0376819 0)
(1.0437 0.0530558 0)
(1.02119 0.00182581 0)
(1.02177 -0.00141039 0)
(1.01874 0.000722435 0)
(1.02294 -0.00337506 0)
(1.0155 -0.000327139 0)
(1.02329 -0.00333678 0)
(1.01251 -0.00105279 0)
(1.02295 -0.000560852 0)
(1.01293 -0.00153727 0)
(1.02045 0.00346397 0)
(1.01526 -0.00136487 0)
(1.01639 0.00567929 0)
(1.01764 0.000758123 0)
(1.01401 0.00374151 0)
(1.01401 0.00593617 0)
(1.01634 0.00140551 0)
(1.00764 0.0118952 0)
(1.02244 0.00637671 0)
(1.00696 0.0117865 0)
(1.02373 0.0163403 0)
(1.01285 0.0100523 0)
(1.01709 0.0231019 0)
(1.01767 0.0213266 0)
(1.0196 0.0257824 0)
(1.01912 0.0402717 0)
(1.04135 0.0332419 0)
(1.02691 0.035764 0)
(1.04621 0.0466445 0)
(1.02008 0.00179071 0)
(1.02135 -0.000122305 0)
(1.01833 0.000737164 0)
(1.02209 -0.00149002 0)
(1.01594 -0.000215395 0)
(1.02181 -0.00175049 0)
(1.01361 -0.000662255 0)
(1.02108 -0.000222157 0)
(1.01388 -0.000578852 0)
(1.01923 0.00248657 0)
(1.01547 0.000110011 0)
(1.01708 0.00469151 0)
(1.01723 0.0020239 0)
(1.01641 0.00447376 0)
(1.01458 0.00576047 0)
(1.01807 0.0035691 0)
(1.01034 0.0099593 0)
(1.02124 0.00679216 0)
(1.01008 0.0109402 0)
(1.02251 0.0144595 0)
(1.01517 0.0114414 0)
(1.02036 0.0211736 0)
(1.01955 0.0207524 0)
(1.02423 0.0244268 0)
(1.02239 0.0340655 0)
(1.03968 0.0304853 0)
(1.03075 0.0328172 0)
(1.04773 0.0403673 0)
(1.0188 0.00155318 0)
(1.02074 0.000853184 0)
(1.01783 0.000774163 0)
(1.02113 8.61588e-06 0)
(1.01646 0.000166891 0)
(1.0205 -0.00047379 0)
(1.01493 6.62589e-05 0)
(1.01971 2.48211e-05 0)
(1.01493 0.000373521 0)
(1.01859 0.00162565 0)
(1.01546 0.00100813 0)
(1.01781 0.00383332 0)
(1.01644 0.00243535 0)
(1.01801 0.00508538 0)
(1.01506 0.00537486 0)
(1.01905 0.00518912 0)
(1.01316 0.00901064 0)
(1.02074 0.00677226 0)
(1.01313 0.010504 0)
(1.02241 0.0125313 0)
(1.01681 0.0114542 0)
(1.02296 0.0195145 0)
(1.02128 0.0193668 0)
(1.02721 0.0223738 0)
(1.02548 0.0294206 0)
(1.03932 0.0274621 0)
(1.03363 0.0291734 0)
(1.04851 0.0345273 0)
(1.01768 0.00139573 0)
(1.01978 0.0012806 0)
(1.01731 0.000864407 0)
(1.02001 0.000792377 0)
(1.01678 0.000502991 0)
(1.01951 0.000349308 0)
(1.01592 0.000572128 0)
(1.0191 0.000407739 0)
(1.01572 0.000934509 0)
(1.01861 0.00132966 0)
(1.01545 0.00152889 0)
(1.01838 0.00324029 0)
(1.01591 0.00270539 0)
(1.01864 0.00500979 0)
(1.01564 0.00506903 0)
(1.01942 0.0057863 0)
(1.01549 0.00808273 0)
(1.0211 0.00676575 0)
(1.01562 0.0097179 0)
(1.02319 0.0110007 0)
(1.0183 0.0110542 0)
(1.02456 0.0172196 0)
(1.02297 0.017549 0)
(1.02935 0.0201347 0)
(1.02785 0.0250921 0)
(1.03959 0.0240817 0)
(1.03588 0.0254397 0)
(1.04885 0.0291934 0)
(1.01693 0.00135934 0)
(1.01884 0.0013498 0)
(1.01688 0.00100395 0)
(1.01901 0.00101156 0)
(1.01681 0.000768011 0)
(1.01877 0.000695516 0)
(1.01636 0.000861131 0)
(1.01875 0.000756823 0)
(1.01613 0.00119814 0)
(1.01876 0.00147892 0)
(1.0156 0.00179198 0)
(1.0188 0.00303245 0)
(1.01588 0.00287825 0)
(1.01901 0.00460299 0)
(1.0163 0.0048024 0)
(1.0197 0.00552219 0)
(1.01714 0.00713681 0)
(1.02161 0.00648519 0)
(1.01753 0.00864351 0)
(1.02411 0.00984173 0)
(1.01978 0.0102601 0)
(1.02594 0.0147693 0)
(1.02455 0.0155485 0)
(1.03085 0.0175062 0)
(1.02967 0.020928 0)
(1.04 0.0206494 0)
(1.03751 0.0217215 0)
(1.04893 0.0242839 0)
(1.01647 0.00124453 0)
(1.01815 0.00123413 0)
(1.01653 0.000978437 0)
(1.01836 0.000976559 0)
(1.01659 0.000791091 0)
(1.01831 0.00076876 0)
(1.01636 0.000887632 0)
(1.01848 0.00089578 0)
(1.01627 0.0012461 0)
(1.01869 0.00152136 0)
(1.01593 0.00187751 0)
(1.01893 0.00275923 0)
(1.01629 0.00284832 0)
(1.01936 0.00402561 0)
(1.01693 0.00428515 0)
(1.02023 0.00491166 0)
(1.01811 0.00598192 0)
(1.02216 0.00584125 0)
(1.019 0.00740255 0)
(1.02472 0.00846314 0)
(1.02134 0.00912758 0)
(1.02715 0.0122716 0)
(1.0258 0.0131306 0)
(1.03213 0.0146772 0)
(1.03113 0.0169938 0)
(1.04024 0.0170398 0)
(1.03862 0.0179133 0)
(1.04887 0.0196685 0)
(1.01613 0.00116167 0)
(1.01762 0.00110102 0)
(1.01624 0.000949311 0)
(1.01788 0.00090317 0)
(1.01633 0.000776834 0)
(1.01799 0.000783411 0)
(1.01622 0.000839416 0)
(1.01824 0.000952721 0)
(1.01626 0.00116601 0)
(1.01857 0.00147469 0)
(1.01622 0.0017789 0)
(1.01897 0.00240561 0)
(1.01675 0.0026311 0)
(1.01964 0.00334666 0)
(1.01755 0.00367164 0)
(1.02073 0.00411838 0)
(1.01881 0.00481587 0)
(1.02268 0.00496922 0)
(1.02007 0.00600181 0)
(1.02522 0.00693343 0)
(1.02263 0.00763129 0)
(1.02809 0.00971865 0)
(1.02689 0.0105609 0)
(1.03311 0.0117268 0)
(1.0322 0.0132093 0)
(1.04043 0.0133945 0)
(1.03936 0.0140866 0)
(1.0487 0.0152636 0)
(1.0158 0.000907983 0)
(1.01719 0.000849289 0)
(1.01594 0.00077052 0)
(1.01749 0.000711923 0)
(1.01607 0.000651652 0)
(1.0177 0.000647889 0)
(1.01608 0.000700807 0)
(1.018 0.000810716 0)
(1.01622 0.000953779 0)
(1.01841 0.00121958 0)
(1.01641 0.0014396 0)
(1.01897 0.00189255 0)
(1.01705 0.00209299 0)
(1.01985 0.00254805 0)
(1.01799 0.00282696 0)
(1.02112 0.00312234 0)
(1.01933 0.00359222 0)
(1.02307 0.00378311 0)
(1.02087 0.00447022 0)
(1.02559 0.00518858 0)
(1.02356 0.00574241 0)
(1.02878 0.00711391 0)
(1.02768 0.00778083 0)
(1.03376 0.00857434 0)
(1.03298 0.00951698 0)
(1.04057 0.00970953 0)
(1.03979 0.0101896 0)
(1.04847 0.0109504 0)
(1.01553 0.000566324 0)
(1.01687 0.000529791 0)
(1.0157 0.000487851 0)
(1.01719 0.000450952 0)
(1.01585 0.000418686 0)
(1.01747 0.000419985 0)
(1.01595 0.000453008 0)
(1.01781 0.000529201 0)
(1.01616 0.000617118 0)
(1.01828 0.000786017 0)
(1.01651 0.000930157 0)
(1.01892 0.00119702 0)
(1.01723 0.00133923 0)
(1.01995 0.00159745 0)
(1.01826 0.00177823 0)
(1.02134 0.00196051 0)
(1.01965 0.00222467 0)
(1.02334 0.00237542 0)
(1.02138 0.00277391 0)
(1.02584 0.00321496 0)
(1.02417 0.00357877 0)
(1.0292 0.00436055 0)
(1.0282 0.00478126 0)
(1.03415 0.00525784 0)
(1.03345 0.00578235 0)
(1.04063 0.00591159 0)
(1.04003 0.00619589 0)
(1.04825 0.00662735 0)
(1.01535 0.000250786 0)
(1.01666 0.000232687 0)
(1.01554 0.000218784 0)
(1.01699 0.000201519 0)
(1.01571 0.000190139 0)
(1.01732 0.000188738 0)
(1.01586 0.000196728 0)
(1.01769 0.000226258 0)
(1.01611 0.000252873 0)
(1.01819 0.000315763 0)
(1.01654 0.000364131 0)
(1.01889 0.000452584 0)
(1.01731 0.000504375 0)
(1.01998 0.00058468 0)
(1.01839 0.000650861 0)
(1.02144 0.000706273 0)
(1.01981 0.000792642 0)
(1.02347 0.000849339 0)
(1.02164 0.000976267 0)
(1.02597 0.00112945 0)
(1.02446 0.00125458 0)
(1.0294 0.00150772 0)
(1.02846 0.00165529 0)
(1.03431 0.00180986 0)
(1.03367 0.00197568 0)
(1.04065 0.00202108 0)
(1.04012 0.00211544 0)
(1.04809 0.00225462 0)
)
;

boundaryField
{
    outlet
    {
        type            zeroGradient;
    }
    upperWall
    {
        type            symmetryPlane;
    }
    lowerWall
    {
        type            symmetryPlane;
    }
    inlet
    {
        type            fixedValue;
        value           nonuniform 0();
    }
    cylinder
    {
        type            fixedValue;
        value           nonuniform 0();
    }
    frontAndBack