/*--------------------------------*- C++ -*----------------------------------*\
| =========                 |                                                 |
| \\      /  F ield         | OpenFOAM: The Open Source CFD Toolbox           |
|  \\    /   O peration     | Version:                                        |
|   \\  /    A nd           | Website:  www.openfoam.com                      |
|    \\/     M anipulation  |                                                 |
\*---------------------------------------------------------------------------*/
FoamFile
{
    version     2.0;
    format      ascii;
    class       surfaceScalarField;
    location    "38";
    object      phi;
}
// * * * * * * * * * * * * * * * * * * * * * * * * * * * * * * * * * * * * * //

dimensions      [0 3 -1 0 0 0 0];
oriented        oriented;


internalField   nonuniform List<scalar> 
2202
(
-0.0381211
0.000164795
-0.0298708
-0.00322198
-0.0192669
-0.00729133
-0.00846883
-0.00970771
0.00167186
-0.0104488
0.0112796
-0.0114705
0.0187237
-0.00990087
0.0246353
-0.00875887
0.0291899
-0.00737611
0.0325454
-0.00594159
0.0350529
-0.00475048
0.0370242
-0.00381367
0.0385437
-0.00293042
0.0397486
-0.00219271
0.0407691
-0.00159809
0.041682
-0.00110968
0.0424729
-0.000657026
0.0431298
-0.000266156
0.0436169
9.1093e-05
0.0440551
0.000277111
0.0445975
0.000249175
0.0451734
0.000218123
0.0456516
0.00024342
0.0459468
0.000336292
0.0461062
0.000330747
0.0462994
0.000170147
0.0465347
-3.40311e-05
0.0468078
-0.00017943
0.0471068
-0.000310693
-0.000261903
-0.0256841
-0.00525362
-0.0178155
-0.0110906
-0.00815032
-0.0169565
0.00249609
-0.0203541
0.012521
-0.0204737
0.0207024
-0.0196518
0.0276179
-0.0168164
0.0328703
-0.0140113
0.0368545
-0.0113603
0.0398407
-0.00892776
0.0420195
-0.00692937
0.0436422
-0.00543633
0.0447984
-0.00408665
0.0456105
-0.00300474
0.0462311
-0.00221873
0.0467576
-0.00163617
0.0471998
-0.00109919
0.0475708
-0.000637209
0.047826
-0.000164098
0.0480126
9.04976e-05
0.0482791
-1.73109e-05
0.0486631
-0.00016592
0.0490486
-0.000141991
0.0493021
8.27699e-05
0.0493823
0.00025049
0.0494316
0.000120867
0.0495046
-0.000107006
0.0496088
-0.00028364
0.049747
-0.000448867
-0.000306676
-0.0112139
-0.0100683
-0.00416874
-0.0181358
0.00413043
-0.0252557
0.0128344
-0.0290581
0.0211714
-0.0288108
0.0280427
-0.0265232
0.0337852
-0.0225589
0.0382623
-0.0184883
0.0417401
-0.0148382
0.0443821
-0.0115698
0.0463448
-0.00889201
0.0478657
-0.00695726
0.0490265
-0.00524747
0.0498473
-0.00382553
0.0504475
-0.00281893
0.0509486
-0.00213725
0.0513524
-0.00150302
0.0516718
-0.000956586
0.0519419
-0.000434178
0.0520851
-5.27376e-05
0.0521114
-4.35728e-05
0.0522123
-0.000266808
0.0524419
-0.000371676
0.0526774
-0.000152641
0.052739
0.000188878
0.0526353
0.000224512
0.0525116
1.67482e-05
0.0524183
-0.000190392
0.0523998
-0.000430315
-0.000265975
0.00175524
-0.0148901
0.00771571
-0.0240962
0.0145729
-0.0321129
0.0216446
-0.0361298
0.0281623
-0.0353284
0.0334761
-0.031837
0.0378196
-0.0269023
0.0413204
-0.0219892
0.0440557
-0.0175734
0.0461927
-0.0137068
0.0478463
-0.0105456
0.0491772
-0.00828815
0.0502577
-0.00632795
0.0510668
-0.0046347
0.0516823
-0.00343436
0.0522136
-0.00266856
0.0526626
-0.00195201
0.0530273
-0.00132134
0.0533913
-0.000798166
0.0536236
-0.000285061
0.0535917
-1.16659e-05
0.0535605
-0.000235631
0.053731
-0.000542088
0.0540264
-0.000448126
0.0541631
5.2213e-05
0.0540045
0.000383085
0.0537751
0.000246144
0.0535733
1.149e-05
0.0535041
-0.000361113
-0.000248415
0.0118545
-0.0197078
0.0174347
-0.0296764
0.0232077
-0.037886
0.0284805
-0.0414025
0.0330726
-0.0399205
0.0367875
-0.0355519
0.0398441
-0.0299589
0.0424074
-0.0245525
0.0444923
-0.0196583
0.046203
-0.0154175
0.0476128
-0.0119554
0.0488058
-0.0094812
0.0497992
-0.00732126
0.0505697
-0.0054053
0.0511991
-0.00406367
0.0517507
-0.00322022
0.0522161
-0.00241738
0.0526286
-0.00173388
0.0530695
-0.00123905
0.0533506
-0.000566091
0.0533163
2.26129e-05
0.0532986
-0.000217934
0.0535224
-0.000765929
0.0538927
-0.000818437
0.0540876
-0.000142601
0.0539367
0.000533978
0.0537055
0.000477292
0.0535089
0.000208147
0.0534871
-0.000339363
-0.000308862
0.0205596
0.0254774
-0.0345942
0.0297576
-0.0421662
0.0331577
-0.0448026
0.0359422
-0.042705
0.0382393
-0.037849
0.0402183
-0.0319379
0.0419978
-0.026332
0.043589
-0.0212495
0.0450155
-0.016844
0.0462898
-0.0132297
0.0474273
-0.0106187
0.048402
-0.00829604
0.0491883
-0.00619159
0.0498724
-0.00474771
0.0504726
-0.00382048
0.050967
-0.00291173
0.051447
-0.00221393
0.0519497
-0.00174173
0.0522595
-0.000875845
0.0523125
-3.0449e-05
0.0524415
-0.000346885
0.0527899
-0.00111433
0.0532029
-0.00123144
0.053399
-0.000338743
0.053299
0.000633948
0.0531707
0.000605643
0.0530901
0.000288737
0.0531956
-0.000444865
-0.000471024
0.0315737
-0.0383676
0.0341261
-0.0447186
0.0358057
-0.0464822
0.0371057
-0.044005
0.0382959
-0.0390392
0.0394808
-0.0331228
0.040712
-0.0275632
0.0420291
-0.0225666
0.0433288
-0.0181436
0.0445583
-0.0144592
0.0456954
-0.0117559
0.0467133
-0.00931389
0.0475758
-0.00705407
0.0483516
-0.00552348
0.0490394
-0.00450832
0.0496047
-0.00347707
0.0501551
-0.00276427
0.0506944
-0.00228102
0.0510363
-0.00121777
0.0512149
-0.000209026
0.0515431
-0.000675102
0.0520375
-0.00160873
0.0524783
-0.00167227
0.0526546
-0.000515018
0.052627
0.000661562
0.0526407
0.000591962
0.0527272
0.000202214
0.0530021
-0.000719824
-0.000752992
0.0356996
-0.0405955
0.0365256
-0.0455446
0.0367717
-0.0467283
0.0369722
-0.0442055
0.0373633
-0.0394304
0.0380331
-0.0337925
0.038926
-0.0284561
0.0401086
-0.0237493
0.0414281
-0.0194631
0.0427113
-0.0157424
0.0438939
-0.0129385
0.0449764
-0.0103964
0.0459308
-0.00800843
0.0468051
-0.00639782
0.0476037
-0.00530689
0.048285
-0.00415836
0.0489158
-0.00339512
0.0494819
-0.00284711
0.0498778
-0.00161369
0.0502067
-0.000537837
0.0507107
-0.00117914
0.0513324
-0.00223045
0.0518206
-0.00216043
0.0520177
-0.000712146
0.0520728
0.000606462
0.0522156
0.000449181
0.0524575
-3.97313e-05
0.0528928
-0.0011551
-0.00116396
0.037437
-0.0413095
0.0369867
-0.0450943
0.0362551
-0.0459967
0.0357497
-0.0437
0.0356567
-0.0393375
0.0360759
-0.0342116
0.0369252
-0.0293055
0.038099
-0.024923
0.0395257
-0.0208898
0.0409729
-0.0171896
0.0422815
-0.0142471
0.0434701
-0.011585
0.0445236
-0.00906196
0.0454789
-0.00735309
0.0463712
-0.0061992
0.0471608
-0.00494796
0.0478565
-0.00409086
0.0484534
-0.00344401
0.0489256
-0.00208589
0.0493655
-0.00097769
0.049959
-0.00177269
0.0506459
-0.00291734
0.0511992
-0.00271367
0.0514903
-0.00100325
0.0516634
0.000433304
0.0519151
0.000197552
0.0522684
-0.000393053
0.0528166
-0.00170329
-0.00169224
0.0385579
0.0371485
-0.043685
0.0352992
-0.0441474
0.0341799
-0.0425807
0.0337276
-0.0388852
0.0340006
-0.0344846
0.0349003
-0.0302052
0.0362127
-0.0262354
0.0377405
-0.0224176
0.0392711
-0.0187203
0.0406612
-0.0156372
0.0419442
-0.012868
0.0431046
-0.0102224
0.0441442
-0.00839261
0.0451286
-0.0071836
0.0460292
-0.00584859
0.0467967
-0.00485841
0.0474535
-0.00410083
0.0480452
-0.0026775
0.0485959
-0.00152846
0.0492058
-0.00238254
0.0498877
-0.00359926
0.0505177
-0.00334365
0.0509628
-0.00144842
0.0512937
0.000102415
0.0516614
-0.00017012
0.0520994
-0.000831
0.052715
-0.00231898
-0.00232295
0.0545582
-0.0416326
0.0519199
-0.0415091
0.0490343
-0.0396951
0.0466628
-0.0365137
0.04507
-0.0328918
0.0442633
-0.0293984
0.0440121
-0.0259843
0.0440766
-0.0224821
0.0443186
-0.0189623
0.0445904
-0.015909
0.0448921
-0.0131697
0.045242
-0.0105723
0.0456252
-0.00877587
0.0460353
-0.00759367
0.0464282
-0.00624151
0.0467119
-0.00514214
0.0468847
-0.00427362
0.0470513
-0.00284405
0.0472434
-0.00172054
0.0474427
-0.0025819
0.0476292
-0.00378577
0.0477685
-0.00348293
0.0478295
-0.0015094
0.0478307
0.000101153
0.0478216
-0.000160962
0.0478216
-0.000830981
0.0479172
-0.00241465
-0.00244002
0.0578905
-0.0380324
0.0541539
-0.0377725
0.0509241
-0.0364653
0.0489553
-0.0345449
0.0480608
-0.0319974
0.0478149
-0.0291525
0.0478306
-0.0259999
0.0479209
-0.0225725
0.0480486
-0.0190899
0.0481722
-0.0160326
0.0483495
-0.013347
0.0486229
-0.0108457
0.0489559
-0.00910881
0.0493309
-0.00796868
0.0497094
-0.00661998
0.0499715
-0.00540433
0.0501212
-0.00442328
0.0503005
-0.00302335
0.0505128
-0.00193284
0.0506651
-0.00273419
0.050761
-0.00388166
0.0508602
-0.00358215
0.0509545
-0.00160363
0.0510273
2.8307e-05
0.0510727
-0.000206337
0.0510989
-0.00085724
0.051167
-0.00248275
-0.00253099
0.0601729
-0.0347255
0.0575658
-0.0351653
0.0558743
-0.0347738
0.0549385
-0.0336092
0.0543273
-0.0313861
0.053717
-0.0285422
0.0530388
-0.0253217
0.0523946
-0.0219283
0.0519285
-0.0186238
0.0516476
-0.0157516
0.0515826
-0.013282
0.0517464
-0.0110095
0.0520389
-0.00940132
0.0523962
-0.00832595
0.0527855
-0.00700931
0.0530711
-0.00568989
0.0532386
-0.00459081
0.0534652
-0.00324998
0.0537724
-0.00224003
0.0539686
-0.00293037
0.054014
-0.00392711
0.0540265
-0.00359462
0.0541352
-0.00171234
0.0543199
-0.000156357
0.0544823
-0.000368725
0.0545989
-0.000973879
0.0546769
-0.00256074
-0.00260876
0.0658142
-0.0323606
0.0637656
-0.0331168
0.0618711
-0.0328793
0.0599228
-0.0316608
0.0581802
-0.0296435
0.0565986
-0.0269607
0.0553119
-0.024035
0.0544476
-0.021064
0.054034
-0.0182103
0.0539552
-0.0156728
0.0541232
-0.01345
0.054526
-0.0114122
0.0550463
-0.00992164
0.0555646
-0.00884424
0.0560595
-0.00750423
0.0564406
-0.00607104
0.0566748
-0.00482493
0.056961
-0.0035362
0.0573917
-0.0026708
0.0577161
-0.00325469
0.057779
-0.00399008
0.0577187
-0.00353427
0.0577701
-0.00176372
0.0579952
-0.000381517
0.0582652
-0.000638711
0.0584882
-0.00119689
0.0585927
-0.00266525
-0.00266453
0.0705727
-0.0299035
0.0680421
-0.0305861
0.0655652
-0.0304024
0.0633713
-0.0294669
0.0617001
-0.0279723
0.0605264
-0.025787
0.0597309
-0.0232396
0.0593086
-0.0206417
0.0592295
-0.0181312
0.0593359
-0.0157792
0.05955
-0.0136641
0.05991
-0.0117722
0.0603315
-0.0103432
0.0607162
-0.00922896
0.0610874
-0.00787534
0.0614049
-0.00638859
0.0616135
-0.00503355
0.0618559
-0.0037786
0.0622002
-0.00301507
0.062403
-0.00345746
0.0623575
-0.00394457
0.0622292
-0.00340596
0.0622862
-0.0018208
0.0625287
-0.000623989
0.062767
-0.000877038
0.0629238
-0.00135369
0.062934
-0.00267541
-0.00266923
0.0754961
-0.0273541
0.0729823
-0.0280723
0.0707103
-0.0281304
0.068886
-0.0276426
0.0674197
-0.026506
0.066255
-0.0246223
0.065352
-0.0223366
0.0647093
-0.0199989
0.0643338
-0.0177557
0.064174
-0.0156193
0.0641827
-0.0136729
0.0643432
-0.0119327
0.0645844
-0.0105844
0.0648313
-0.00947584
0.0651103
-0.00815436
0.0654117
-0.00668998
0.0656852
-0.00530697
0.0659896
-0.00408305
0.0663097
-0.00333516
0.0664448
-0.00359251
0.0663888
-0.00388863
0.0663481
-0.00336524
0.0665113
-0.00198406
0.0668119
-0.000924554
0.0670598
-0.0011249
0.0672035
-0.00149742
0.0671905
-0.00266245
-0.00266093
0.0805244
-0.0248344
0.0781369
-0.0256848
0.0760203
-0.0260139
0.0741729
-0.0257952
0.0724974
-0.0248305
0.0710754
-0.0232003
0.0700038
-0.021265
0.0692716
-0.0192667
0.0688599
-0.017344
0.0687054
-0.0154649
0.0687352
-0.0137026
0.0689102
-0.0121077
0.0691533
-0.0108275
0.0693866
-0.00970917
0.069638
-0.00840576
0.0699215
-0.00697347
0.0702201
-0.00560553
0.0705644
-0.00442735
0.0709325
-0.00370331
0.0711247
-0.00378463
0.0711201
-0.00388408
0.0710957
-0.0033408
0.0712723
-0.00216068
0.0715963
-0.00124857
0.071871
-0.00139961
0.0720354
-0.00166181
0.0720272
-0.00265421
-0.00265521
0.0859197
-0.0225034
0.0837256
-0.0234906
0.0816932
-0.0239815
0.0797804
-0.0238824
0.0780867
-0.0231368
0.0766927
-0.0218063
0.0757071
-0.0202793
0.0750663
-0.0186259
0.0747013
-0.016979
0.0745413
-0.0153049
0.074523
-0.0136843
0.0746063
-0.0121911
0.0747177
-0.0109389
0.0748123
-0.00980381
0.0749337
-0.00852712
0.0751253
-0.00716511
0.0753847
-0.00586492
0.0757113
-0.00475394
0.0760334
-0.00402543
0.0761744
-0.00392562
0.0761511
-0.00386078
0.0761477
-0.00333746
0.0763374
-0.00235035
0.0766441
-0.00155527
0.0768814
-0.00163694
0.0770081
-0.00178845
0.0769684
-0.00261454
-0.00263175
0.0918395
-0.020383
0.0897478
-0.0213989
0.0877364
-0.0219701
0.0858395
-0.0219855
0.0841716
-0.0214689
0.0828601
-0.0204948
0.0818878
-0.019307
0.0811913
-0.0179294
0.0807113
-0.016499
0.0804088
-0.0150024
0.0802464
-0.0135218
0.0801832
-0.0121279
0.0801668
-0.0109225
0.080167
-0.00980402
0.0802235
-0.00858355
0.0803715
-0.00731318
0.0806088
-0.00610222
0.0809124
-0.00505751
0.0812183
-0.0043313
0.081381
-0.00408831
0.0814131
-0.00389291
0.0814544
-0.00337881
0.081649
-0.00254488
0.0819477
-0.00185397
0.0821879
-0.00187712
0.0823403
-0.00194088
0.0823336
-0.00260789
-0.00262466
0.0982106
-0.0183859
0.0961892
-0.0193775
0.0942173
-0.0199982
0.0923626
-0.0201308
0.0907466
-0.019853
0.0894236
-0.0191718
0.0883528
-0.0182362
0.0875344
-0.017111
0.0869125
-0.0158771
0.0864847
-0.0145746
0.0862278
-0.0132649
0.0860875
-0.0119876
0.086005
-0.01084
0.0859571
-0.00975613
0.0859786
-0.008605
0.0860969
-0.00743156
0.08631
-0.00631532
0.0865844
-0.00533188
0.0868646
-0.00461154
0.0870312
-0.00425482
0.0871008
-0.00396259
0.0871724
-0.00345037
0.0873648
-0.00273728
0.0876353
-0.00212448
0.0878621
-0.00210395
0.0880082
-0.00208693
0.0880154
-0.00261508
-0.00263611
0.104898
-0.0164699
0.102953
-0.0174324
0.101046
-0.0180912
0.0992575
-0.0183424
0.0976592
-0.0182547
0.0962915
-0.0178041
0.0951578
-0.0171025
0.0942483
-0.0162015
0.0935591
-0.0151879
0.0930651
-0.0140806
0.0927416
-0.0129414
0.0925405
-0.0117865
0.0924035
-0.0107031
0.0923116
-0.00966424
0.0922952
-0.00858859
0.0923695
-0.00750588
0.0925324
-0.0064782
0.0927658
-0.00556524
0.0930175
-0.00486325
0.0931786
-0.00441597
0.0932525
-0.00403647
0.0933326
-0.00353046
0.0935103
-0.00291496
0.0937615
-0.00237572
0.0939677
-0.00231011
0.0941169
-0.00223614
0.0941369
-0.0026351
-0.00264083
0.111894
-0.0146481
0.11005
-0.0155875
0.108235
-0.0162762
0.106513
-0.0166212
0.104942
-0.0166833
0.103564
-0.0164264
0.102403
-0.0159411
0.101447
-0.0152452
0.100695
-0.0144367
0.100125
-0.0135106
0.0997074
-0.0125234
0.0994174
-0.0114965
0.0992135
-0.0104992
0.0990717
-0.00952239
0.0990159
-0.00853279
0.0990537
-0.00754366
0.0991837
-0.00660826
0.0993642
-0.0057457
0.0995619
-0.00506097
0.0997055
-0.00455954
0.0998081
-0.00413907
0.0999109
-0.00363324
0.100082
-0.00308655
0.100299
-0.00259246
0.100488
-0.00249865
0.100624
-0.00237215
0.100657
-0.00266813
-0.00267652
0.119286
-0.0129467
0.117554
-0.0138553
0.115835
-0.0145569
0.114188
-0.014975
0.112665
-0.0151596
0.111304
-0.015066
0.11013
-0.014767
0.109138
-0.0142531
0.108327
-0.0136253
0.107678
-0.0128619
0.107179
-0.0120241
0.106818
-0.0111355
0.106554
-0.0102357
0.106379
-0.00934743
0.106289
-0.00844288
0.106283
-0.00753693
0.106358
-0.00668403
0.106491
-0.00587879
0.106654
-0.00522396
0.106783
-0.00468823
0.106873
-0.00422886
0.10697
-0.00373021
0.10712
-0.00323715
0.107317
-0.0027889
0.107481
-0.00266241
0.107611
-0.0025027
0.107648
-0.00270498
-0.00268963
0.127129
-0.0113738
0.125512
-0.0122387
0.123898
-0.0129425
0.122335
-0.0134119
0.120868
-0.0136931
0.119531
-0.0137284
0.11835
-0.0135862
0.117332
-0.0132351
0.11647
-0.0127633
0.115759
-0.0121515
0.115196
-0.0114611
0.114763
-0.0107019
0.114443
-0.0099155
0.114215
-0.00912009
0.114074
-0.00830146
0.114017
-0.00747983
0.11404
-0.0067075
0.114117
-0.00595569
0.114221
-0.00532785
0.114311
-0.00477843
0.114397
-0.0043146
0.114492
-0.00382479
0.114627
-0.00337281
0.114788
-0.00295002
0.114932
-0.00280571
0.115043
-0.0026145
0.115085
-0.00274618
-0.00273522
0.135447
-0.00993259
0.133954
-0.0107452
0.132449
-0.0114373
0.130974
-0.0119375
0.129567
-0.0122864
0.128264
-0.0124245
0.127086
-0.0124088
0.126048
-0.0121971
0.12515
-0.0118656
0.124392
-0.0113935
0.123768
-0.0108362
0.123272
-0.0102068
0.122891
-0.0095342
0.122604
-0.00883301
0.122413
-0.00811074
0.122303
-0.00736957
0.122261
-0.00666505
0.122274
-0.00596926
0.122336
-0.00539014
0.122404
-0.00484648
0.122467
-0.00437738
0.122541
-0.00389895
0.122652
-0.00348311
0.122789
-0.00308757
0.122908
-0.00292453
0.123011
-0.00271731
0.123055
-0.00279038
-0.00275497
0.144265
-0.00862234
0.142896
-0.00937641
0.141504
-0.0100454
0.140121
-0.0105548
0.138785
-0.0109498
0.137522
-0.0111617
0.136359
-0.0112458
0.135314
-0.0111524
0.134391
-0.0109428
0.133594
-0.0105967
0.132923
-0.0101649
0.13237
-0.00965382
0.131929
-0.00909333
0.131586
-0.00849
0.131334
-0.00785844
0.131159
-0.00719449
0.131064
-0.00657047
0.13103
-0.00593458
0.131038
-0.0053983
0.131058
-0.0048663
0.131092
-0.00441212
0.131147
-0.00395417
0.13123
-0.00356565
0.131332
-0.00318982
0.131426
-0.0030182
0.131505
-0.00279688
0.131541
-0.00282555
-0.00279099
0.153613
-0.00743853
0.152369
-0.00813173
0.151089
-0.00876562
0.149804
-0.00926952
0.148542
-0.00968803
0.147331
-0.00995084
0.146195
-0.0101101
0.145154
-0.0101115
0.144219
-0.0100071
0.143395
-0.00977334
0.142684
-0.0094534
0.142083
-0.00905312
0.141586
-0.00859593
0.141181
-0.00808478
0.140871
-0.00754866
0.140645
-0.00696834
0.140492
-0.00641772
0.140395
-0.00583731
0.140346
-0.00534997
0.140326
-0.00484596
0.140328
-0.00441406
0.14035
-0.0039764
0.140397
-0.00361259
0.140464
-0.00325668
0.14053
-0.00308381
0.140589
-0.00285667
0.14062
-0.00285661
-0.00281027
0.163534
-0.00637608
0.162407
-0.00700534
0.161238
-0.00759664
0.160051
-0.00808264
0.15887
-0.0085071
0.15772
-0.00880069
0.156622
-0.00901228
0.155599
-0.0090884
0.154662
-0.0090696
0.153822
-0.00893302
0.153081
-0.00871254
0.152437
-0.00840956
0.151889
-0.00804781
0.151435
-0.0076303
0.151069
-0.00718267
0.150781
-0.00668052
0.150568
-0.00620535
0.150419
-0.00568742
0.150317
-0.00524804
0.150247
-0.00477593
0.150204
-0.00437128
0.15019
-0.00396241
0.150202
-0.00362474
0.150234
-0.00328919
0.150268
-0.00311715
0.150303
-0.00289155
0.150315
-0.00286866
-0.00281447
0.174067
-0.00542737
0.173053
-0.00599161
0.171993
-0.00653603
0.170904
-0.00699378
0.169807
-0.00740997
0.168724
-0.00771796
0.167675
-0.00796328
0.166679
-0.00809248
0.165751
-0.0081418
0.164904
-0.00808577
0.164141
-0.00794933
0.163466
-0.00773497
0.162879
-0.00746088
0.162374
-0.00712494
0.161952
-0.00676107
0.161612
-0.00633966
0.161345
-0.00593917
0.161136
-0.00547792
0.160976
-0.00508795
0.160856
-0.00465579
0.16077
-0.00428575
0.160715
-0.00390695
0.160686
-0.00359634
0.160678
-0.00328086
0.160676
-0.00311524
0.16068
-0.00289511
0.160671
-0.00285965
-0.00279948
0.185263
-0.00458548
0.184356
-0.00508461
0.183399
-0.00557851
0.182406
-0.00600079
0.181394
-0.00639851
0.180384
-0.00670727
0.179389
-0.00696876
0.178431
-0.00713458
0.177523
-0.00723319
0.176678
-0.00724108
0.175904
-0.00717594
0.175207
-0.00703701
0.174584
-0.00683846
0.174038
-0.00657926
0.173572
-0.00629514
0.173177
-0.00594398
0.172852
-0.00561386
0.172585
-0.00521186
0.172373
-0.00487553
0.172203
-0.00448561
0.172068
-0.00415085
0.171967
-0.00380578
0.171894
-0.00352393
0.171845
-0.00323118
0.171806
-0.00307609
0.171774
-0.00286322
0.171735
-0.00282061
-0.00275895
0.197177
-0.00384256
0.196369
-0.00427664
0.195509
-0.00471827
0.19461
-0.00510144
0.193683
-0.0054717
0.192746
-0.00577046
0.191812
-0.00603456
0.190899
-0.00622145
0.190018
-0.00635255
0.189186
-0.00640933
0.18841
-0.0063993
0.187696
-0.00632348
0.187051
-0.00619277
0.186471
-0.00599956
0.185961
-0.005785
0.185515
-0.00549828
0.185138
-0.0052368
0.184818
-0.00489201
0.18455
-0.00460763
0.184327
-0.00426293
0.184142
-0.00396565
0.183994
-0.00365731
0.183874
-0.00340396
0.183779
-0.00313607
0.183697
-0.00299432
0.183626
-0.00279261
0.183555
-0.00274925
-0.00268701
0.20987
-0.00318946
0.209154
-0.00356051
0.208385
-0.00394924
0.207574
-0.00429063
0.20673
-0.00462718
0.205867
-0.00490781
0.204996
-0.00516295
0.204132
-0.00535826
0.203287
-0.00550737
0.202475
-0.00559705
0.201705
-0.00562903
0.200985
-0.00560345
0.20032
-0.00552814
0.199712
-0.00539114
0.199166
-0.00523924
0.198678
-0.00501041
0.19825
-0.00480904
0.197877
-0.00451897
0.197555
-0.00428565
0.197281
-0.00398894
0.197045
-0.00372964
0.196847
-0.00345883
0.196677
-0.00323469
0.196535
-0.00299322
0.196408
-0.00286802
0.196295
-0.00267967
0.196184
-0.00263775
-0.00257824
0.223411
-0.0026165
0.222779
-0.00292887
0.222094
-0.0032637
0.221365
-0.00356224
0.2206
-0.0038614
0.219809
-0.00411692
0.219001
-0.0043552
0.21819
-0.00454699
0.217385
-0.00470247
0.216599
-0.00481133
0.215842
-0.00487189
0.215121
-0.0048825
0.214445
-0.00485184
0.213816
-0.00476243
0.213239
-0.00466207
0.212713
-0.00448455
0.212239
-0.00433491
0.211818
-0.00409776
0.211443
-0.00391156
0.211117
-0.00366206
0.210828
-0.00344114
0.210577
-0.00320816
0.210357
-0.00301391
0.210164
-0.0028003
0.209989
-0.00269303
0.20983
-0.0025214
0.209677
-0.00248447
-0.00242814
0.237877
-0.00211408
0.23732
-0.00237263
0.236711
-0.00265371
0.236057
-0.00290911
0.235365
-0.00316864
0.234642
-0.00339407
0.233895
-0.00360888
0.233136
-0.00378795
0.232374
-0.0039404
0.231619
-0.00405567
0.23088
-0.00413276
0.230165
-0.0041675
0.229482
-0.00416941
0.228838
-0.00411785
0.228234
-0.00405846
0.227676
-0.00392674
0.227161
-0.00381972
0.226694
-0.00363112
0.22627
-0.00348703
0.225891
-0.00328285
0.22555
-0.00310058
0.225246
-0.00290439
0.224974
-0.00274166
0.224731
-0.00255708
0.224505
-0.00246696
0.224298
-0.00231457
0.224096
-0.00228305
-0.00223228
0.253355
-0.00167257
0.252864
-0.00188136
0.252321
-0.00211134
0.251735
-0.00232259
0.251108
-0.00254175
0.250447
-0.00273325
0.249758
-0.00292002
0.249049
-0.0030793
0.248329
-0.00321997
0.247606
-0.00333218
0.246887
-0.00341439
0.246182
-0.00346263
0.245497
-0.00348458
0.244842
-0.00346229
0.244217
-0.0034333
0.24363
-0.0033402
0.243078
-0.00326761
0.242569
-0.00312201
0.242098
-0.00301565
0.241667
-0.00285269
0.241275
-0.00270812
0.240918
-0.0025474
0.240592
-0.0024156
0.240296
-0.00226084
0.240016
-0.00218723
0.239759
-0.00205747
0.239508
-0.00203227
-0.00198719
0.269945
-0.0012819
0.269508
-0.00144454
0.269024
-0.00162665
0.268494
-0.00179327
0.267924
-0.00197151
0.267318
-0.00212681
0.26668
-0.00228193
0.266016
-0.0024157
0.265334
-0.00253812
0.264641
-0.00263886
0.263943
-0.00271679
0.26325
-0.00276904
0.262565
-0.00280022
0.261901
-0.00279839
0.261257
-0.00278909
0.260645
-0.00272797
0.260059
-0.0026815
0.25951
-0.00257364
0.258994
-0.00249936
0.258515
-0.00237327
0.258071
-0.00226493
0.257661
-0.00213682
0.257282
-0.00203623
0.256933
-0.00191232
0.256599
-0.00185295
0.256289
-0.00174821
0.255986
-0.00172875
-0.00169058
0.287761
-0.000931529
0.287367
-0.00105125
0.286928
-0.00118762
0.286446
-0.00131082
0.285921
-0.00144707
0.285359
-0.00156476
0.284763
-0.00168536
0.284137
-0.00178956
0.283487
-0.00188802
0.282818
-0.00197065
0.282138
-0.00203644
0.281454
-0.00208475
0.28077
-0.00211606
0.280097
-0.00212578
0.279435
-0.00212735
0.278798
-0.0020906
0.27818
-0.00206339
0.277594
-0.00198761
0.277034
-0.00193988
0.276508
-0.00184729
0.276014
-0.00177093
0.275553
-0.00167514
0.27512
-0.00160366
0.274717
-0.00150935
0.274329
-0.00146521
0.273968
-0.0013869
0.273611
-0.00137136
-0.00134114
0.306933
-0.000610303
0.306571
-0.000689287
0.306164
-0.000780948
0.305716
-0.000862701
0.305224
-0.00095505
0.304694
-0.00103473
0.304127
-0.00111782
0.303527
-0.00118979
0.302898
-0.00125915
0.302246
-0.0013184
0.301575
-0.00136607
0.300894
-0.0014034
0.300206
-0.00142825
0.299521
-0.00144111
0.29884
-0.0014464
0.298177
-0.00142699
0.297526
-0.00141283
0.296903
-0.00136461
0.296301
-0.00133749
0.295729
-0.00127576
0.295187
-0.00122838
0.294675
-0.00116353
0.294189
-0.00111776
0.293735
-0.00105536
0.293295
-0.00102486
0.29288
-0.000971787
0.292471
-0.000962065
-0.000941091
0.327615
-0.000305175
0.32727
-0.000344557
0.326881
-0.000391712
0.32645
-0.000431827
0.325975
-0.000480427
0.32546
-0.000519811
0.324906
-0.000563756
0.324317
-0.000600487
0.323694
-0.00063639
0.323045
-0.000668844
0.322371
-0.000692701
0.321682
-0.000714578
0.320982
-0.000727793
0.320277
-0.000736363
0.319572
-0.000741397
0.318878
-0.000732303
0.318192
-0.000727353
0.317531
-0.000703561
0.316884
-0.000690859
0.316269
-0.000660502
0.315678
-0.00063709
0.315119
-0.000604239
0.314584
-0.000582719
0.314078
-0.000550196
0.313588
-0.000534892
0.313125
-0.000508643
0.312666
-0.000503125
-0.000492083
0.349989
0.349645
0.349253
0.348821
0.348341
0.347821
0.347257
0.346657
0.34602
0.345351
0.344659
0.343944
0.343216
0.34248
0.341738
0.341006
0.340279
0.339575
0.338884
0.338224
0.337587
0.336983
0.3364
0.33585
0.335315
0.334806
0.334303
)
;

boundaryField
{
    outlet
    {
        type            calculated;
        value           nonuniform List<scalar> 
40
(
0.0472846
0.0497918
0.0523591
0.0534865
0.0535476
0.0533578
0.0532841
0.0533038
0.0533449
0.0533457
0.0480343
0.051258
0.0547547
0.0586485
0.0629387
0.0671822
0.0720214
0.076945
0.0823265
0.0880268
0.0941416
0.100692
0.107661
0.11513
0.123075
0.131577
0.14064
0.150319
0.160656
0.171694
0.183483
0.196075
0.209527
0.223901
0.239263
0.255689
0.273261
0.292071
0.312217
0.333811
)
;
    }
    upperWall
    {
        type            symmetryPlane;
        value           uniform 0;
    }
    lowerWall
    {
        type            symmetryPlane;
        value           nonuniform 0();
    }
    inlet
    {
        type            calculated;
        value           nonuniform 0();
    }
    cylinder
    {
        type            calculated;
        value           nonuniform 0();
    }
    frontAndBack
    {
        type            empty;
        value           nonuniform 0();
    }
    procBoundary7to3
    {
        type            processor;
        value           nonuniform List<scalar> 
30
(
-0.00551466
-0.00502828
-0.00331254
-0.00109039
0.000308116
0.00186276
0.00245677
0.00284723
0.00282158
0.00258602
0.00224304
0.00184237
0.00141086
0.000987811
0.000577649
0.000196714
-0.000133811
-0.000390784
-0.000578176
-0.000715342
-0.000791575
-0.000794035
-0.000721564
-0.000631475
-0.000490133
-0.000363398
-0.000201222
-9.37288e-05
1.17254e-05
8.41151e-05
)
;
    }
    procBoundary7to6
    {
        type            processor;
        value           nonuniform List<scalar> 
42
(
0.0434709
0.0311026
0.0160286
0.00306654
-0.00703682
-0.0157045
-0.0245629
-0.0278002
-0.0334718
-0.036723
-0.039052
-0.0408153
-0.0566106
-0.0614906
-0.0634799
-0.068179
-0.0730299
-0.0780455
-0.0830441
-0.0882507
-0.0939599
-0.100208
-0.106814
-0.113716
-0.120987
-0.128702
-0.136888
-0.145575
-0.154797
-0.164596
-0.175016
-0.186105
-0.19792
-0.210523
-0.223984
-0.238379
-0.253796
-0.270336
-0.288111
-0.307254
-0.32792
-0.350294
)
;
    }
}


// ************************************************************************* //
