/*--------------------------------*- C++ -*----------------------------------*\
| =========                 |                                                 |
| \\      /  F ield         | OpenFOAM: The Open Source CFD Toolbox           |
|  \\    /   O peration     | Version:                                        |
|   \\  /    A nd           | Website:  www.openfoam.com                      |
|    \\/     M anipulation  |                                                 |
\*---------------------------------------------------------------------------*/
FoamFile
{
    version     2.0;
    format      ascii;
    class       volVectorField;
    location    "51.2";
    object      U;
}
// * * * * * * * * * * * * * * * * * * * * * * * * * * * * * * * * * * * * * //

dimensions      [0 1 -1 0 0 0 0];


internalField   nonuniform List<vector> 
1147
(
(-0.0799318 -0.0521795 2.22318e-20)
(-0.100585 -0.0659136 1.13348e-19)
(-0.113898 -0.0760428 4.13353e-19)
(-0.108011 -0.0926169 -5.74506e-19)
(-0.170556 -0.0528061 2.0856e-19)
(-0.219573 0.0142296 9.30358e-20)
(-0.195395 0.0789614 -6.8172e-20)
(-0.0599538 0.0564828 3.99436e-19)
(0.200301 -0.0748513 -7.27029e-20)
(0.580313 -0.135911 -6.4747e-20)
(-0.129255 -0.0763764 1.33787e-19)
(-0.141482 -0.0848246 6.04931e-19)
(-0.147768 -0.0794861 -2.27187e-19)
(-0.164896 -0.0390226 -3.34218e-20)
(-0.0401012 0.0569002 3.19964e-19)
(0.476869 0.0226979 -5.49252e-19)
(0.862251 -0.0552474 1.97802e-19)
(1.06534 -0.122144 -1.89279e-19)
(1.22657 -0.185178 8.25398e-20)
(1.38115 -0.209223 4.83299e-21)
(-0.125951 -0.0695474 -5.07247e-20)
(-0.107279 -0.0334574 -4.48447e-19)
(0.024915 0.0208862 9.1354e-20)
(0.507584 0.0196171 -5.92796e-20)
(0.913049 -0.00128681 -1.29718e-19)
(1.15864 -0.0245829 1.94226e-19)
(1.36321 -0.0807165 -1.30643e-19)
(1.45306 -0.148647 -1.16107e-19)
(1.52789 -0.211361 6.2141e-21)
(1.54188 -0.249421 -1.23052e-20)
(-0.010887 -0.00393136 4.99534e-20)
(0.310206 0.0527317 1.86011e-19)
(0.770615 0.060154 -5.99802e-20)
(1.11104 0.0435389 -5.4235e-21)
(1.33354 0.0188578 8.8485e-20)
(1.45643 -0.0234617 1.78274e-19)
(1.52932 -0.0749708 2.90252e-19)
(1.54954 -0.127178 -1.02753e-19)
(1.56565 -0.179984 -1.1749e-19)
(1.54391 -0.224263 -2.20836e-20)
(0.435181 0.0864889 5.20077e-19)
(0.890469 0.114526 -1.36481e-19)
(1.22672 0.0971375 6.40709e-20)
(1.39366 0.0721853 2.24216e-20)
(1.49898 0.0362921 3.7201e-19)
(1.53696 -0.0115124 -4.33795e-20)
(1.55208 -0.0593135 -1.34871e-19)
(1.54628 -0.107612 2.71199e-19)
(1.53684 -0.156988 3.88829e-21)
(1.51537 -0.204912 4.95472e-20)
(0.918164 0.159253 -3.09531e-19)
(1.26795 0.153179 -1.4654e-19)
(1.42194 0.12634 1.30987e-19)
(1.49234 0.0927244 -1.24167e-19)
(1.53645 0.0482787 -5.77785e-20)
(1.52946 -0.000431149 3.71374e-19)
(1.5323 -0.0461953 -2.15413e-20)
(1.51511 -0.0950921 -4.17737e-20)
(1.50076 -0.141204 -2.89179e-20)
(1.4817 -0.189591 2.1001e-20)
(1.2612 0.20412 1.2829e-20)
(1.4342 0.177918 1.76567e-19)
(1.4722 0.146666 -1.62411e-19)
(1.51508 0.105379 2.54281e-19)
(1.51585 0.0557565 -6.66137e-19)
(1.50129 0.010695 -2.53576e-19)
(1.50397 -0.0374378 -4.96602e-20)
(1.47774 -0.0828885 3.22898e-20)
(1.47033 -0.128407 7.50444e-21)
(1.4453 -0.174396 -9.91969e-21)
(1.43443 0.228448 -6.50262e-20)
(1.46159 0.196506 4.95582e-19)
(1.47676 0.159673 -1.49882e-19)
(1.50193 0.111287 -2.52481e-20)
(1.47293 0.0645724 2.92936e-19)
(1.47622 0.018707 1.4642e-19)
(1.46646 -0.028108 -1.51826e-19)
(1.44295 -0.0715563 7.10953e-20)
(1.44065 -0.117184 -5.9466e-20)
(1.40726 -0.159491 1.86047e-20)
(1.46459 0.246178 4.71717e-19)
(1.4424 0.21046 4.11509e-19)
(1.47286 0.166633 -3.2887e-19)
(1.46004 0.11702 2.44413e-21)
(1.43583 0.0728181 1.89013e-19)
(1.45264 0.0256952 -7.86155e-20)
(1.42279 -0.0182379 5.88869e-20)
(1.42066 -0.0623255 2.48676e-20)
(1.40656 -0.105985 -8.91828e-20)
(1.3787 -0.146773 5.68152e-21)
(1.42342 0.260587 -3.85023e-19)
(1.4325 0.221764 -6.87045e-19)
(1.44794 0.170338 8.21689e-19)
(1.41089 0.124234 -1.64682e-19)
(1.41654 0.0778724 -2.04665e-19)
(1.41841 0.0324689 -4.40995e-20)
(1.39008 -0.0103327 1.44096e-19)
(1.40052 -0.0552479 -1.38355e-19)
(1.37078 -0.094455 -1.11805e-20)
(1.35914 -0.137145 -5.15475e-21)
(1.42255 0.229174 3.88433e-19)
(1.40471 0.175157 -3.52974e-19)
(1.37777 0.128613 1.15676e-19)
(1.39766 0.0819512 1.30231e-19)
(1.38019 0.0384766 -2.48873e-20)
(1.36531 -0.0044957 5.24344e-20)
(1.373 -0.0460949 3.79951e-20)
(1.33778 -0.0847291 5.52416e-20)
(1.33709 -0.125456 2.30692e-20)
(1.40097 0.234104 1.08048e-20)
(1.35627 0.178577 1.78805e-19)
(1.35324 0.132918 3.07173e-20)
(1.37254 0.0849399 -2.31908e-19)
(1.33737 0.0450426 -2.06455e-20)
(1.34442 0.00181566 -1.40155e-19)
(1.33988 -0.0382769 -1.31087e-20)
(1.30783 -0.0736725 -2.3794e-20)
(1.31627 -0.11599 -1.40278e-20)
(1.30793 0.183666 -2.09279e-19)
(1.33789 0.135369 9.28238e-20)
(1.33045 0.0892334 -2.73783e-19)
(1.30623 0.0516738 -7.5022e-20)
(1.32747 0.00371474 3.49478e-20)
(1.30489 -0.0279367 -3.48675e-20)
(1.29341 -0.0696057 4.29517e-20)
(1.29305 -0.105058 1.02173e-21)
(1.27908 0.186169 3.48244e-19)
(1.31237 0.135806 3.74969e-20)
(1.29309 0.0954713 1.61595e-19)
(1.2884 0.0505138 1.56065e-19)
(1.30494 0.00916889 7.67649e-20)
(1.27923 -0.0235196 1.27096e-20)
(1.278 -0.0646287 -4.12767e-20)
(1.26843 -0.0951633 8.20005e-21)
(1.28648 0.136707 -8.18421e-20)
(1.26089 0.0963555 -8.02695e-20)
(1.26671 0.0522283 -1.18813e-19)
(1.28077 0.011524 3.24919e-21)
(1.24884 -0.0164091 -4.01771e-21)
(1.25829 -0.0598042 9.66955e-21)
(1.24134 -0.0850637 7.20557e-21)
(1.25339 0.134534 1.07942e-19)
(1.22346 0.0987534 1.54064e-19)
(1.2492 0.050782 -4.22611e-20)
(1.2463 0.0169765 -9.89823e-21)
(1.22625 -0.0119262 9.42802e-20)
(1.23927 -0.056204 -4.40137e-20)
(1.21746 -0.0749129 4.88885e-21)
(1.21245 0.135179 7.33066e-20)
(1.19925 0.0978954 -2.50564e-20)
(1.2235 0.050025 3.82333e-20)
(1.22562 0.0196123 5.84937e-20)
(1.20855 -0.0109884 2.49325e-20)
(1.22545 -0.0526415 2.87241e-20)
(1.20185 -0.0699581 4.53752e-21)
(1.17409 0.0905156 -1.27877e-19)
(1.2108 0.0480068 -6.17915e-22)
(1.20297 0.0190517 -1.16299e-19)
(1.19334 -0.0101961 1.5549e-20)
(1.21049 -0.0495982 -2.93602e-20)
(1.18296 -0.0639709 -7.78667e-21)
(1.16337 0.0865578 -7.60919e-21)
(1.19096 0.0483015 1.1472e-19)
(1.17659 0.0238103 -1.98122e-20)
(1.17871 -0.0106999 -2.98008e-21)
(1.18612 -0.0432773 -5.72013e-21)
(1.16427 -0.0604077 -4.66675e-21)
(1.14104 0.0822916 8.99912e-20)
(1.16096 0.0443132 -2.3649e-19)
(1.15399 0.0208938 5.24333e-21)
(1.15512 -0.0158876 -1.98007e-20)
(1.16425 -0.0442476 1.55623e-20)
(1.14537 -0.0629508 -1.1267e-21)
(-0.00367764 -0.436624 -2.42426e-20)
(-0.0260934 -0.444896 -5.83427e-20)
(-0.0425177 -0.423764 -3.91911e-21)
(-0.0504993 -0.373979 -1.29839e-20)
(-0.0492295 -0.297707 2.04043e-19)
(-0.0415054 -0.205312 -4.9486e-20)
(-0.0340525 -0.119686 3.74963e-20)
(-0.0332541 -0.0626198 3.91263e-19)
(-0.040848 -0.0383772 3.46199e-19)
(-0.0567629 -0.0388038 -6.70559e-19)
(-0.055809 -0.504826 3.19624e-20)
(-0.066474 -0.540625 -5.83786e-20)
(-0.0714188 -0.548441 -1.41338e-19)
(-0.07076 -0.526372 5.56651e-20)
(-0.0665478 -0.474159 -3.41612e-19)
(-0.0624279 -0.393833 -1.32935e-19)
(-0.0628584 -0.296233 -9.77956e-20)
(-0.0707105 -0.201201 5.80334e-20)
(-0.0850444 -0.128375 -1.66366e-19)
(-0.105599 -0.0872349 2.24371e-19)
(-0.0982211 -0.495479 2.13343e-20)
(-0.0830412 -0.535976 3.73788e-20)
(-0.0637533 -0.549563 1.79317e-19)
(-0.0430536 -0.53807 -1.27419e-19)
(-0.0260666 -0.500436 4.40869e-19)
(-0.0184466 -0.435838 9.38363e-20)
(-0.023643 -0.34862 3.22368e-19)
(-0.0411648 -0.251262 1.25948e-20)
(-0.0673356 -0.162212 7.39676e-20)
(-0.102519 -0.0986075 -3.58447e-20)
(-0.0978888 -0.520656 -1.6228e-20)
(-0.0521324 -0.530344 -1.0875e-19)
(-0.00715976 -0.517504 4.5515e-20)
(0.0287794 -0.48005 -1.01682e-19)
(0.0485154 -0.418148 -3.92995e-19)
(0.0463917 -0.335099 1.14388e-19)
(0.0231773 -0.238373 -2.41661e-19)
(-0.0133496 -0.142655 -7.75477e-19)
(-0.0614281 -0.068817 -2.33188e-19)
(0.127144 -0.368882 5.93808e-19)
(0.132077 -0.284781 1.84332e-19)
(0.110245 -0.187511 -3.88597e-19)
(0.0600104 -0.0909191 3.6451e-19)
(0.103193 0.00384616 3.78364e-19)
(0.233764 -0.211818 -1.09731e-19)
(0.205948 -0.115103 -1.20111e-19)
(0.212523 -0.0110459 -4.49466e-19)
(0.473235 0.0999306 -8.93404e-20)
(0.338916 -0.0280766 7.94364e-20)
(0.493519 0.0914044 6.05672e-20)
(0.893313 0.18586 -2.56408e-20)
(0.845597 0.194266 2.24709e-19)
(1.22821 0.248289 1.49534e-19)
(1.4299 0.28469 -8.19157e-19)
(1.13061 -0.05123 -5.46284e-22)
(1.11357 -0.0544443 4.35209e-21)
(1.11694 -0.0471026 -4.93761e-21)
(1.12627 -0.0589025 1.82449e-21)
(1.12224 -0.0601893 1.67216e-21)
(1.10083 -0.057727 -2.59971e-22)
(1.07848 -0.0503755 -1.55383e-21)
(1.06655 -0.0450979 4.40743e-22)
(1.06056 -0.0427845 9.10518e-22)
(1.05372 -0.0420861 -1.41295e-21)
(1.04716 -0.041597 5.19647e-22)
(1.04283 -0.0411431 -9.2746e-23)
(1.04022 -0.0405326 6.41512e-22)
(1.03838 -0.039671 -6.26349e-22)
(1.03696 -0.0385965 3.06333e-22)
(1.03587 -0.0372817 -1.69073e-22)
(1.03513 -0.0356848 6.0957e-23)
(1.03458 -0.0338255 1.50985e-23)
(1.03409 -0.0317312 -1.24864e-24)
(1.03359 -0.0294385 5.82318e-24)
(1.03299 -0.0269819 -2.49766e-24)
(1.0323 -0.0243957 3.80312e-24)
(1.03151 -0.0217019 -8.52288e-27)
(1.03065 -0.0189312 -1.01449e-23)
(1.02976 -0.016101 -6.53854e-24)
(1.0289 -0.0132181 1.67506e-23)
(1.0281 -0.0102988 2.98072e-25)
(1.02741 -0.0073721 -1.95059e-24)
(1.02688 -0.00442059 2.09038e-23)
(1.0266 -0.0014595 -4.93665e-23)
(1.14616 -0.0344247 -2.98758e-20)
(1.12156 -0.0349231 9.03778e-21)
(1.10683 -0.0195455 2.39785e-21)
(1.08379 -0.0155448 8.49918e-22)
(1.06288 -0.00997359 -3.02891e-22)
(1.05555 -0.016123 -6.16482e-22)
(1.05185 -0.0230877 -2.58178e-21)
(1.04562 -0.0284585 4.07389e-21)
(1.04048 -0.0324812 1.27036e-21)
(1.03712 -0.0359427 -4.05363e-21)
(1.0352 -0.0388746 1.57272e-22)
(1.03386 -0.0409624 -1.30298e-22)
(1.03304 -0.0418501 4.58449e-22)
(1.03284 -0.0417465 -5.72365e-22)
(1.03284 -0.0408631 -2.71796e-22)
(1.03301 -0.039457 6.43745e-22)
(1.03326 -0.0376543 5.51424e-23)
(1.03339 -0.0355091 -3.02185e-22)
(1.03342 -0.0331192 3.17297e-22)
(1.03327 -0.0305509 -2.9934e-23)
(1.03293 -0.0278515 -7.5741e-23)
(1.03242 -0.0250635 -7.01543e-24)
(1.03174 -0.022209 6.78065e-24)
(1.03094 -0.0193156 2.66003e-23)
(1.03009 -0.0163928 -2.3966e-24)
(1.02925 -0.0134396 -2.21953e-23)
(1.02847 -0.0104619 2.36302e-23)
(1.0278 -0.00748428 4.28851e-24)
(1.0273 -0.00448715 -5.08468e-23)
(1.02702 -0.00148058 3.86197e-23)
(1.13663 -0.0160057 3.25839e-20)
(1.11878 -0.0263293 -2.10196e-22)
(1.12292 -0.0268041 -1.72522e-20)
(1.12734 -0.0383332 1.92862e-21)
(1.10819 -0.0366264 -8.14018e-21)
(1.0784 -0.0337895 8.55418e-21)
(1.05949 -0.0320212 1.69776e-20)
(1.05382 -0.0342764 -1.07091e-20)
(1.05083 -0.0370862 1.37265e-21)
(1.04497 -0.0388496 4.44451e-21)
(1.03946 -0.0396426 -4.51704e-21)
(1.0365 -0.0400458 1.05079e-21)
(1.03532 -0.040206 8.26622e-22)
(1.03462 -0.0398057 -1.89587e-21)
(1.0339 -0.0389679 3.15632e-22)
(1.03364 -0.0378735 1.90059e-22)
(1.03358 -0.0363478 8.97082e-22)
(1.03351 -0.0344531 -3.32816e-22)
(1.03348 -0.0322942 -8.48847e-23)
(1.03333 -0.0299044 -7.12837e-23)
(1.03304 -0.0273554 -6.53467e-23)
(1.03258 -0.0246866 2.01767e-23)
(1.03196 -0.0219255 2.04542e-23)
(1.03123 -0.0191081 -8.12971e-23)
(1.03044 -0.0162463 1.12308e-22)
(1.02965 -0.0133424 -1.40814e-22)
(1.02892 -0.0104029 -2.21511e-23)
(1.0283 -0.00745305 -5.15261e-23)
(1.02785 -0.00447396 -1.4558e-23)
(1.0276 -0.0014771 7.71466e-23)
(1.13022 0.0242076 6.02291e-20)
(1.09736 0.0177084 -3.59909e-20)
(1.07842 0.0201499 -1.53665e-21)
(1.07458 0.008357 6.51332e-21)
(1.0735 0.000583084 -1.19416e-20)
(1.06471 -0.00777324 1.18831e-20)
(1.04788 -0.0121123 7.73465e-22)
(1.0338 -0.0165837 -1.17444e-20)
(1.0292 -0.0228667 1.17234e-20)
(1.02855 -0.0294753 2.53995e-22)
(1.02819 -0.03477 -4.08267e-21)
(1.02784 -0.0385504 5.3035e-21)
(1.02839 -0.0406793 -2.10962e-21)
(1.02923 -0.0412767 -1.86834e-21)
(1.02997 -0.0409297 1.41242e-21)
(1.03115 -0.0399844 -1.87954e-21)
(1.03197 -0.0383311 6.43971e-23)
(1.03256 -0.0362263 1.77965e-22)
(1.03303 -0.0338175 7.95018e-22)
(1.03319 -0.0311617 -4.38084e-22)
(1.03314 -0.028369 7.0749e-23)
(1.03284 -0.0254828 3.54507e-25)
(1.03232 -0.0225429 -6.49886e-23)
(1.03165 -0.0195843 9.63693e-23)
(1.03089 -0.0166119 6.79393e-23)
(1.0301 -0.0136225 -9.37021e-23)
(1.02936 -0.0106129 7.25503e-24)
(1.02874 -0.00760217 9.849e-23)
(1.02829 -0.00456448 6.58039e-23)
(1.02803 -0.00150677 -2.63827e-23)
(1.13618 0.0366653 6.6033e-20)
(1.10761 0.023054 8.3287e-20)
(1.09651 0.0155072 -3.80356e-20)
(1.09173 -0.000393521 -9.70097e-21)
(1.07717 -0.00877774 -1.51606e-20)
(1.06137 -0.0173795 1.77049e-20)
(1.05251 -0.0250199 -1.55754e-20)
(1.04722 -0.0308015 2.6227e-22)
(1.0413 -0.03372 9.24495e-21)
(1.03546 -0.0357368 -5.10606e-21)
(1.032 -0.0376585 3.92447e-21)
(1.03109 -0.0393918 -5.46925e-22)
(1.03197 -0.0406197 -3.02833e-22)
(1.03205 -0.0406105 -7.81483e-22)
(1.03227 -0.0401423 4.26057e-22)
(1.03301 -0.0392543 5.84807e-22)
(1.03316 -0.0375844 4.56936e-22)
(1.03348 -0.035607 -8.47313e-23)
(1.03376 -0.0333177 -2.65133e-22)
(1.03378 -0.0307555 -1.31106e-22)
(1.03368 -0.0280575 1.51227e-22)
(1.03335 -0.0252423 2.01406e-23)
(1.03283 -0.0223613 3.51563e-23)
(1.03217 -0.019452 -7.38105e-23)
(1.03142 -0.0165192 -9.34092e-23)
(1.03065 -0.0135638 1.1777e-22)
(1.02992 -0.0105822 -1.02945e-22)
(1.02931 -0.0075923 -6.0235e-23)
(1.02887 -0.00456554 2.53944e-23)
(1.02862 -0.00150908 -1.63618e-22)
(1.02231 -0.0327862 -1.34781e-20)
(1.02306 -0.0376926 4.31734e-21)
(1.02511 -0.0405087 -8.17754e-21)
(1.02624 -0.0414263 4.45145e-21)
(1.02854 -0.0418438 2.20202e-22)
(1.03055 -0.0411337 1.3077e-21)
(1.03152 -0.0393982 -1.25883e-21)
(1.03271 -0.0373603 6.43811e-22)
(1.03344 -0.034851 -1.29255e-22)
(1.03381 -0.0320608 1.02165e-22)
(1.03395 -0.029141 -1.27194e-22)
(1.03376 -0.0261099 9.09915e-24)
(1.03333 -0.0230499 8.3413e-23)
(1.03272 -0.0199907 1.3815e-22)
(1.03197 -0.0169355 -2.32244e-22)
(1.03118 -0.0138835 1.4086e-23)
(1.03043 -0.010822 4.92531e-23)
(1.02979 -0.00776312 2.26185e-22)
(1.02932 -0.0046704 -4.82999e-23)
(1.02906 -0.0015446 -5.01818e-23)
(1.03235 -0.190981 2.01734e-20)
(1.0362 -0.176446 3.8577e-22)
(1.05709 -0.172939 2.81618e-20)
(1.06189 -0.156083 4.95372e-20)
(1.08609 -0.153556 -4.38898e-20)
(1.0911 -0.139994 1.85224e-20)
(1.11827 -0.132611 3.73055e-20)
(1.12101 -0.119875 1.44093e-20)
(1.13692 -0.101666 -1.89282e-20)
(1.14842 -0.0913547 1.05775e-21)
(1.02139 -0.195204 -2.11143e-20)
(1.03728 -0.197192 -4.32686e-20)
(1.05673 -0.195009 1.17699e-20)
(1.06784 -0.178832 -4.43961e-20)
(1.09464 -0.173189 -1.14084e-20)
(1.09884 -0.155852 6.96386e-20)
(1.13151 -0.147153 -1.33549e-20)
(1.13238 -0.128674 -4.86515e-21)
(1.15383 -0.108405 -4.86828e-21)
(1.16521 -0.0934307 -3.80176e-22)
(1.00832 -0.198621 -2.09067e-20)
(1.0351 -0.20799 3.2286e-20)
(1.05567 -0.207863 2.49266e-20)
(1.07543 -0.195104 -1.45858e-20)
(1.10418 -0.187237 -4.78556e-20)
(1.11245 -0.167314 -1.32966e-20)
(1.14696 -0.158329 -4.88498e-20)
(1.14812 -0.134827 -2.44014e-20)
(1.17373 -0.116418 -1.4689e-20)
(1.18297 -0.0980304 2.84393e-21)
(1.0014 -0.209797 -1.15622e-20)
(1.0356 -0.218425 1.57445e-20)
(1.05301 -0.216269 -9.60593e-20)
(1.08193 -0.207696 9.15481e-21)
(1.10825 -0.197343 -1.19877e-20)
(1.12478 -0.177446 6.58872e-21)
(1.15689 -0.167983 5.46462e-20)
(1.16135 -0.142079 -1.37562e-21)
(1.18982 -0.125383 6.12879e-20)
(1.19495 -0.103603 5.54846e-21)
(1.00418 -0.22921 -5.13917e-21)
(1.03888 -0.233872 3.04968e-20)
(1.05773 -0.228132 7.34821e-20)
(1.08682 -0.221037 5.02919e-20)
(1.11347 -0.208789 2.63586e-20)
(1.13076 -0.188477 3.68654e-20)
(1.16503 -0.177921 -1.02135e-20)
(1.16799 -0.150365 1.69593e-20)
(1.20212 -0.133785 -3.05628e-21)
(1.20361 -0.109467 -8.12193e-21)
(1.00384 -0.250246 -1.47654e-20)
(1.04632 -0.254888 -6.64113e-21)
(1.06651 -0.244967 -2.07406e-20)
(1.10056 -0.239662 -8.17392e-20)
(1.12315 -0.22465 2.42669e-20)
(1.14483 -0.204428 -2.47132e-20)
(1.17646 -0.191924 -8.66165e-21)
(1.18084 -0.161087 -2.5176e-20)
(1.21944 -0.146508 -3.97179e-21)
(1.21649 -0.114933 1.07253e-20)
(0.997438 -0.269786 1.02559e-20)
(1.04532 -0.276797 -5.8633e-20)
(1.07146 -0.263172 3.7164e-20)
(1.11297 -0.261793 1.07297e-19)
(1.13428 -0.241585 5.21368e-20)
(1.16488 -0.225756 8.67352e-20)
(1.19066 -0.206372 6.45951e-22)
(1.20388 -0.177928 2.29247e-21)
(1.23849 -0.158171 -9.46618e-21)
(1.23872 -0.125441 9.69886e-21)
(0.996745 -0.292944 4.02226e-20)
(1.0409 -0.298743 -1.21678e-20)
(1.07168 -0.282916 -3.50357e-20)
(1.11672 -0.281552 -1.16254e-20)
(1.14116 -0.260079 -9.55445e-20)
(1.17711 -0.243183 -4.20098e-20)
(1.2036 -0.222671 5.01016e-20)
(1.22063 -0.191201 -5.98888e-20)
(1.25706 -0.171204 4.91452e-20)
(1.25526 -0.133483 -1.1435e-20)
(1.00451 -0.319192 -4.35854e-20)
(1.04674 -0.326402 3.41879e-20)
(1.07711 -0.306672 -3.83066e-20)
(1.12518 -0.304955 -5.20731e-21)
(1.14708 -0.278711 -7.8997e-20)
(1.19201 -0.264197 2.00851e-20)
(1.21141 -0.236199 -8.56278e-20)
(1.24105 -0.208241 7.0171e-21)
(1.2694 -0.181871 -1.31902e-20)
(1.27524 -0.143896 -1.4317e-20)
(1.00883 -0.349505 3.87281e-20)
(1.05318 -0.353416 2.13276e-20)
(1.09148 -0.33709 -3.83234e-20)
(1.13857 -0.330255 -3.84443e-20)
(1.16433 -0.303473 1.67625e-19)
(1.21187 -0.28672 2.81677e-20)
(1.22877 -0.254962 2.16848e-20)
(1.26805 -0.227465 -1.12693e-20)
(1.28614 -0.19506 3.29745e-20)
(1.30742 -0.159458 1.30668e-20)
(1.00585 -0.381465 -1.01534e-19)
(1.05259 -0.381978 -6.78444e-20)
(1.10192 -0.368194 1.38446e-19)
(1.1493 -0.357874 -8.30874e-20)
(1.18356 -0.330421 4.08867e-20)
(1.23072 -0.311119 -8.90283e-20)
(1.25177 -0.276229 -1.59541e-20)
(1.2942 -0.247946 -5.90191e-21)
(1.3086 -0.210724 6.93982e-21)
(1.33964 -0.174775 -1.37707e-21)
(1.00666 -0.418701 6.64409e-20)
(1.0522 -0.413023 4.64948e-20)
(1.11194 -0.402191 -8.35061e-20)
(1.15679 -0.385759 1.41919e-20)
(1.20273 -0.359559 1.90582e-20)
(1.24592 -0.334718 -1.47436e-20)
(1.27559 -0.298861 1.36365e-20)
(1.31701 -0.267349 2.59785e-20)
(1.33181 -0.226269 -1.38483e-20)
(1.37015 -0.190096 -3.37322e-20)
(1.0095 -0.460762 4.44431e-22)
(1.05876 -0.451485 -2.58505e-20)
(1.12445 -0.440827 2.68357e-21)
(1.16893 -0.418613 2.62874e-20)
(1.22427 -0.392721 7.56759e-20)
(1.26265 -0.36072 4.42156e-20)
(1.30404 -0.324942 5.61618e-20)
(1.33747 -0.286985 -2.88797e-20)
(1.36329 -0.245051 -4.80818e-20)
(1.39569 -0.204436 3.77959e-20)
(1.01086 -0.504691 3.98271e-21)
(1.07101 -0.495734 2.8511e-20)
(1.1385 -0.482128 -4.16739e-20)
(1.19074 -0.457403 -1.78908e-20)
(1.24787 -0.42812 -2.40135e-19)
(1.29008 -0.391815 -9.5119e-20)
(1.33481 -0.352696 -1.73257e-19)
(1.36687 -0.309911 6.37415e-20)
(1.39932 -0.265677 1.82644e-20)
(1.42462 -0.220217 -2.53251e-20)
(1.00804 -0.553106 -2.15653e-20)
(1.08141 -0.545725 -1.01181e-20)
(1.14983 -0.5271 3.01206e-20)
(1.21452 -0.500925 -1.39986e-19)
(1.26999 -0.466109 -2.08736e-20)
(1.32226 -0.42707 1.03893e-19)
(1.36399 -0.381941 1.5445e-19)
(1.4024 -0.336367 -1.47834e-19)
(1.43301 -0.286807 6.49516e-20)
(1.45907 -0.238993 -1.00516e-21)
(1.0099 -0.608383 -6.54579e-20)
(1.09606 -0.601304 1.37707e-19)
(1.1656 -0.576078 1.0666e-20)
(1.24341 -0.547672 -1.5318e-20)
(1.29684 -0.504415 3.39951e-19)
(1.36014 -0.463222 -1.94259e-19)
(1.39658 -0.410293 -1.32178e-20)
(1.44425 -0.362455 8.6369e-20)
(1.46731 -0.306581 1.04526e-19)
(1.50045 -0.258095 1.0895e-20)
(1.01318 -0.677148 8.48402e-20)
(1.10837 -0.668753 -1.15293e-19)
(1.18706 -0.638213 -1.40494e-19)
(1.27101 -0.605653 2.02214e-19)
(1.33215 -0.551537 -1.00918e-19)
(1.39843 -0.50325 1.72052e-19)
(1.43883 -0.43937 3.12498e-19)
(1.48685 -0.387974 -8.14413e-20)
(1.50657 -0.325666 -1.05662e-19)
(1.53989 -0.279321 -2.93581e-20)
(1.02186 -0.751191 -3.08835e-19)
(1.11977 -0.741379 -8.99992e-20)
(1.21416 -0.711079 -4.96811e-21)
(1.29505 -0.676091 5.853e-20)
(1.37373 -0.620428 -1.27414e-19)
(1.43051 -0.563437 1.62617e-19)
(1.48614 -0.490333 -2.09263e-19)
(1.51542 -0.426719 4.10333e-20)
(1.54194 -0.356491 -2.82399e-20)
(1.54784 -0.305384 -1.08655e-20)
(1.04779 -0.830334 2.17364e-19)
(1.15807 -0.803001 9.24103e-20)
(1.26909 -0.757659 2.09569e-20)
(1.35188 -0.699568 -6.8951e-20)
(1.43785 -0.630445 1.41177e-19)
(1.4809 -0.555252 -1.82603e-19)
(1.52916 -0.474453 -2.25274e-19)
(1.51806 -0.395699 -6.92984e-21)
(1.51582 -0.319733 9.0781e-21)
(1.44057 -0.260746 7.04389e-20)
(0.784797 -0.801326 1.3369e-19)
(0.879264 -0.77218 -4.94183e-19)
(0.956659 -0.726594 -4.09287e-20)
(1.01786 -0.660047 5.11231e-19)
(1.05635 -0.586629 -5.01983e-19)
(1.0663 -0.499892 1.90134e-19)
(1.05108 -0.418951 -1.27757e-19)
(0.994766 -0.329161 3.91302e-20)
(0.909856 -0.25532 7.89844e-20)
(0.758402 -0.177529 4.97457e-20)
(0.918728 -0.146865 -5.08567e-20)
(0.937935 -0.158511 -3.36664e-20)
(0.958817 -0.173385 1.44729e-20)
(0.983407 -0.160236 1.42079e-21)
(0.900152 -0.141943 -3.06233e-20)
(0.919523 -0.154455 -8.64304e-21)
(0.943831 -0.162327 9.23864e-21)
(0.96903 -0.184963 1.71189e-20)
(0.984853 -0.167004 4.06732e-21)
(0.858544 -0.113963 -3.90865e-20)
(0.876124 -0.131764 1.39778e-20)
(0.895407 -0.151356 2.63739e-20)
(0.917554 -0.167491 7.44376e-20)
(0.939787 -0.170461 -1.09248e-20)
(0.972721 -0.198661 -2.56417e-20)
(0.986968 -0.186613 -3.10603e-21)
(0.811403 -0.0482304 -3.87926e-21)
(0.819956 -0.0748391 3.56488e-20)
(0.832334 -0.0982576 3.42181e-21)
(0.847669 -0.123484 -3.92157e-21)
(0.866269 -0.142799 7.23792e-21)
(0.887459 -0.162826 -3.3259e-20)
(0.910722 -0.183405 -7.2465e-20)
(0.932388 -0.184328 5.26194e-20)
(0.961769 -0.210359 1.4677e-20)
(0.993424 -0.212047 5.44932e-21)
(0.794934 -0.0520935 -3.22776e-21)
(0.803836 -0.0813379 8.49732e-21)
(0.817015 -0.106718 -4.57655e-22)
(0.833068 -0.134251 -9.79439e-21)
(0.853117 -0.155751 4.85246e-20)
(0.87524 -0.175854 1.58486e-20)
(0.901482 -0.200897 3.92191e-21)
(0.924978 -0.203789 7.43604e-21)
(0.945234 -0.221763 7.5274e-21)
(0.991006 -0.235447 -7.50257e-22)
(0.776451 -0.0561165 6.34854e-21)
(0.785558 -0.0881888 2.5203e-20)
(0.799466 -0.116028 4.40181e-21)
(0.816661 -0.145966 1.49611e-20)
(0.837484 -0.170279 -7.36948e-20)
(0.860766 -0.190421 5.10706e-20)
(0.887519 -0.217655 -1.36834e-20)
(0.922042 -0.226976 -1.879e-20)
(0.93074 -0.236192 1.79596e-22)
(0.981327 -0.255082 -7.42886e-22)
(0.755265 -0.0602667 -5.76783e-21)
(0.764716 -0.0955686 2.52485e-20)
(0.779417 -0.125972 -4.70259e-21)
(0.797694 -0.158467 -1.65629e-20)
(0.820598 -0.186189 -4.41188e-21)
(0.846253 -0.207492 -4.83002e-20)
(0.869012 -0.234027 6.2499e-20)
(0.917593 -0.251848 -2.22737e-20)
(0.927094 -0.25525 -1.91867e-21)
(0.969448 -0.274807 -1.3065e-21)
(0.7319 -0.0647172 -4.28846e-22)
(0.742027 -0.103483 -2.66268e-20)
(0.757731 -0.136932 -9.00842e-20)
(0.777384 -0.171864 7.45232e-21)
(0.801164 -0.202603 -3.43751e-20)
(0.833047 -0.227002 1.76678e-20)
(0.850142 -0.251092 -4.21655e-20)
(0.905902 -0.275835 3.40658e-20)
(0.931006 -0.280594 -6.11184e-21)
(0.967248 -0.296818 -2.30678e-22)
(0.705435 -0.0696384 9.67259e-21)
(0.716284 -0.11211 1.47521e-20)
(0.733464 -0.148956 6.86896e-20)
(0.755375 -0.186989 5.16344e-21)
(0.779546 -0.220527 -1.7401e-20)
(0.819323 -0.249045 4.30171e-21)
(0.83366 -0.271062 -3.87465e-20)
(0.884009 -0.2982 1.4856e-20)
(0.927731 -0.307094 -8.87841e-21)
(0.967819 -0.323924 -9.4534e-21)
(0.676488 -0.0750809 -1.56283e-20)
(0.688349 -0.121792 -3.31611e-20)
(0.706599 -0.16212 -1.85968e-20)
(0.731366 -0.203479 4.39403e-20)
(0.754798 -0.239557 3.89296e-20)
(0.803804 -0.273676 2.11661e-20)
(0.827525 -0.296876 -2.9004e-20)
(0.861314 -0.321825 -3.37667e-21)
(0.915922 -0.334572 -5.24317e-21)
(0.95871 -0.349976 1.45212e-20)
(0.643693 -0.0810803 1.64774e-20)
(0.656489 -0.132393 6.7102e-21)
(0.676661 -0.177325 2.55507e-20)
(0.705628 -0.222731 -6.99129e-20)
(0.726473 -0.260383 1.92842e-20)
(0.776641 -0.298104 -1.95228e-20)
(0.822277 -0.328127 -6.17942e-20)
(0.849456 -0.351182 -4.01234e-21)
(0.905165 -0.366724 -2.08914e-20)
(0.947164 -0.37871 2.2254e-20)
(0.607617 -0.0876948 -3.26071e-20)
(0.62144 -0.144215 5.42801e-20)
(0.642171 -0.193352 3.4841e-20)
(0.677886 -0.244817 -2.77724e-20)
(0.702897 -0.286607 2.76054e-20)
(0.741958 -0.322738 3.27552e-20)
(0.805968 -0.360158 6.49894e-20)
(0.840554 -0.384428 4.33599e-20)
(0.900709 -0.404856 6.43734e-21)
(0.941775 -0.412494 -1.84127e-20)
(0.566518 -0.0948802 2.1189e-20)
(0.582064 -0.157804 1.83108e-20)
(0.603001 -0.211875 -3.67384e-20)
(0.641476 -0.267054 1.83904e-20)
(0.679199 -0.318466 -1.03517e-19)
(0.711436 -0.354262 -1.07137e-20)
(0.777046 -0.393884 -1.43129e-20)
(0.825896 -0.420975 2.36986e-20)
(0.89145 -0.44562 -2.57819e-21)
(0.94082 -0.453086 5.41099e-20)
(0.520521 -0.102694 -3.79116e-21)
(0.538267 -0.17239 -4.35326e-20)
(0.561459 -0.234246 -1.7648e-20)
(0.599999 -0.291732 8.0574e-20)
(0.647589 -0.350178 1.85711e-19)
(0.687839 -0.393971 -2.68658e-20)
(0.747368 -0.431829 -4.87378e-20)
(0.807592 -0.462802 -8.69669e-21)
(0.876184 -0.487734 7.72489e-21)
(0.938993 -0.498077 9.75013e-21)
(0.467643 -0.11203 -1.38839e-20)
(0.487488 -0.188562 5.87199e-20)
(0.512367 -0.258479 -2.43498e-20)
(0.554999 -0.3239 -3.22343e-20)
(0.605436 -0.383034 -1.96602e-19)
(0.659718 -0.439869 1.01299e-19)
(0.717939 -0.477405 4.74738e-20)
(0.788256 -0.513318 -2.02351e-20)
(0.858205 -0.536258 7.4304e-22)
(0.933113 -0.550406 -3.57606e-20)
(0.407866 -0.121764 9.98656e-21)
(0.432221 -0.208425 2.41357e-20)
(0.458163 -0.283692 4.64617e-21)
(0.50372 -0.360503 -6.33397e-20)
(0.559946 -0.421053 1.12417e-19)
(0.62544 -0.487211 -1.49129e-19)
(0.690991 -0.529657 1.96338e-20)
(0.768836 -0.570482 9.41724e-21)
(0.846418 -0.592471 2.18315e-20)
(0.93062 -0.609756 1.1815e-19)
(0.336725 -0.133205 1.37462e-20)
(0.365137 -0.231008 7.01341e-21)
(0.397265 -0.316031 5.27709e-20)
(0.443014 -0.402067 -7.02876e-20)
(0.504181 -0.46994 1.27496e-19)
(0.576228 -0.540491 3.23608e-20)
(0.656285 -0.591094 2.49802e-20)
(0.740226 -0.636238 -9.42585e-21)
(0.83046 -0.661307 -1.20234e-20)
(0.923971 -0.679658 -4.67285e-20)
(0.257592 -0.145328 -1.17854e-20)
(0.28923 -0.254001 -3.80339e-20)
(0.331249 -0.352204 -1.28026e-19)
(0.380898 -0.445278 1.07668e-19)
(0.451844 -0.527474 -1.41502e-19)
(0.527954 -0.597522 -3.07573e-20)
(0.61974 -0.658338 -2.55417e-20)
(0.71485 -0.703705 -8.26875e-21)
(0.816223 -0.734485 3.61641e-20)
(0.919073 -0.752245 7.77954e-20)
(0.159731 -0.161696 1.67312e-20)
(0.188162 -0.285391 -5.22467e-21)
(0.239807 -0.400079 1.50217e-20)
(0.297061 -0.507383 4.39178e-20)
(0.374715 -0.604352 1.12702e-19)
(0.471861 -0.685027 -8.61286e-21)
(0.569703 -0.751916 1.19477e-20)
(0.689281 -0.799609 -2.10247e-20)
(0.80455 -0.82974 6.26579e-20)
(0.92633 -0.839722 -1.97717e-20)
(0.0535093 -0.151067 6.33756e-21)
(0.0728348 -0.262629 -3.27623e-20)
(0.113536 -0.369599 3.53943e-20)
(0.161917 -0.475497 1.27453e-20)
(0.224444 -0.567387 -7.46282e-21)
(0.307921 -0.65041 -4.48395e-20)
(0.388274 -0.716421 1.56457e-20)
(0.491289 -0.766053 4.36475e-20)
(0.584577 -0.797687 -8.96415e-20)
(0.690163 -0.808409 1.32853e-19)
(0.963862 -0.128885 -3.52543e-21)
(0.930936 -0.156192 9.9535e-21)
(0.947145 -0.167347 -3.5524e-20)
(0.97452 -0.16125 -8.86408e-21)
(1.00158 -0.134136 0)
(1.00756 -0.130794 0)
(0.991502 -0.11573 0)
(0.994591 -0.100969 0)
(1.01757 -0.0938065 0)
(1.02918 -0.0891321 0)
(1.02631 -0.0838934 0)
(1.02121 -0.0780698 0)
(1.02134 -0.0720804 0)
(1.02452 -0.0666218 0)
(1.02689 -0.0615924 0)
(1.02716 -0.0570383 0)
(1.02625 -0.0531517 0)
(1.02544 -0.0497278 0)
(1.02515 -0.0464993 0)
(1.02522 -0.0433874 0)
(1.02541 -0.0403869 0)
(1.02558 -0.0374582 0)
(1.02566 -0.0345673 0)
(1.0256 -0.031679 0)
(1.02541 -0.0287761 0)
(1.02509 -0.0258596 0)
(1.02464 -0.0229151 0)
(1.02407 -0.0199508 0)
(1.0234 -0.0169691 0)
(1.02268 -0.013935 0)
(1.022 -0.010824 0)
(1.0214 -0.00764546 0)
(1.02076 -0.00450993 0)
(1.02006 -0.00149563 0)
(0.986572 -0.172969 0)
(1.00553 -0.151817 0)
(1.02281 -0.142389 0)
(1.02572 -0.133881 0)
(1.02828 -0.12226 0)
(1.03499 -0.111457 0)
(1.03375 -0.101379 0)
(1.02749 -0.092131 0)
(1.02606 -0.0836746 0)
(1.02925 -0.0760744 0)
(1.03198 -0.069203 0)
(1.03217 -0.0631437 0)
(1.0307 -0.0580184 0)
(1.02914 -0.0536432 0)
(1.02817 -0.0496973 0)
(1.0277 -0.0460118 0)
(1.02747 -0.0425142 0)
(1.02732 -0.0391747 0)
(1.02717 -0.0359617 0)
(1.02694 -0.0328199 0)
(1.02659 -0.0297145 0)
(1.02614 -0.0266311 0)
(1.02556 -0.0235451 0)
(1.02488 -0.020457 0)
(1.0241 -0.0173689 0)
(1.02327 -0.0142484 0)
(1.02251 -0.0110635 0)
(1.02186 -0.00780333 0)
(1.02128 -0.00456563 0)
(1.02067 -0.00149578 0)
(1.0332 -0.170437 -1.09309e-20)
(1.02511 -0.145279 9.31802e-21)
(1.01119 -0.125522 -1.19822e-20)
(1.01967 -0.111926 1.99901e-20)
(1.04108 -0.10433 -1.50497e-20)
(1.05013 -0.0974276 -5.62815e-21)
(1.04587 -0.089887 8.41173e-21)
(1.03921 -0.082062 5.13209e-21)
(1.03772 -0.0745325 -1.42035e-20)
(1.03954 -0.0679889 1.23546e-20)
(1.04048 -0.0624225 -1.10056e-20)
(1.03916 -0.0577059 9.17834e-21)
(1.03666 -0.0537743 -5.3934e-21)
(1.03442 -0.0503354 -1.99888e-22)
(1.03289 -0.0471027 3.0077e-21)
(1.03187 -0.0439557 2.53579e-21)
(1.03108 -0.0408884 -1.56175e-21)
(1.0304 -0.0378965 7.17144e-22)
(1.02976 -0.0349541 -7.28393e-22)
(1.0291 -0.0320236 7.54056e-22)
(1.02839 -0.029084 -5.76054e-22)
(1.0276 -0.0261294 5.96563e-23)
(1.02676 -0.023145 -1.04168e-22)
(1.02585 -0.0201372 -1.28427e-23)
(1.02489 -0.017114 5.65732e-23)
(1.02392 -0.0140535 1.65945e-24)
(1.02304 -0.0109265 -9.64201e-23)
(1.02234 -0.00771314 4.42399e-23)
(1.02183 -0.00449578 -4.98457e-24)
(1.02136 -0.00146122 8.12081e-23)
(1.03333 -0.142116 1.36119e-20)
(1.03549 -0.128225 1.1666e-20)
(1.05376 -0.12761 -2.51436e-20)
(1.06868 -0.124131 3.44135e-20)
(1.06774 -0.11518 -3.15526e-21)
(1.05954 -0.104177 -1.22751e-20)
(1.05022 -0.093761 9.34051e-21)
(1.04516 -0.0847628 -2.03933e-21)
(1.04669 -0.0771037 1.03238e-20)
(1.04949 -0.0706325 -4.34973e-21)
(1.0494 -0.0648887 -1.36698e-20)
(1.04678 -0.0598671 1.81673e-20)
(1.04355 -0.0555017 -9.61073e-21)
(1.04085 -0.0515958 -1.51667e-21)
(1.03871 -0.0479808 6.75773e-21)
(1.03695 -0.0445629 -7.32927e-21)
(1.03542 -0.0412887 3.18906e-21)
(1.03408 -0.0381443 9.94603e-22)
(1.03287 -0.0350929 -3.34295e-21)
(1.0317 -0.0320859 -1.7911e-22)
(1.03055 -0.0290966 1.53934e-21)
(1.02939 -0.0261105 -1.16058e-22)
(1.02821 -0.0231089 -1.27136e-22)
(1.02702 -0.020093 9.70509e-24)
(1.02583 -0.0170664 1.25853e-22)