/*--------------------------------*- C++ -*----------------------------------*\
| =========                 |                                                 |
| \\      /  F ield         | OpenFOAM: The Open Source CFD Toolbox           |
|  \\    /   O peration     | Version:                                        |
|   \\  /    A nd           | Website:  www.openfoam.com                      |
|    \\/     M anipulation  |                                                 |
\*---------------------------------------------------------------------------*/
FoamFile
{
    version     2.0;
    format      ascii;
    class       surfaceScalarField;
    location    "147";
    object      phi;
}
// * * * * * * * * * * * * * * * * * * * * * * * * * * * * * * * * * * * * * //

dimensions      [0 3 -1 0 0 0 0];
oriented        oriented;


internalField   nonuniform List<scalar> 
2238
(
0.0217043
0.0201242
0.026242
0.0218892
0.0301309
-0.0263773
0.0224885
0.0332747
-0.0256493
0.0225055
0.0364479
-0.0250995
0.0219263
0.0388914
-0.0246168
0.0221733
0.0417573
-0.024536
0.02167
0.0438629
-0.0250185
0.0229129
0.0459543
-0.0254031
0.0233117
-0.0275728
0.023881
0.0496462
0.0304298
0.0314512
0.0327143
-0.0263626
0.0346971
-0.0265996
0.0374761
-0.027315
0.0409052
-0.0284475
0.0450943
-0.0295923
-0.0307645
0.048286
0.0320317
0.0347685
0.0373057
0.0392153
-0.0303572
0.0405818
-0.0309587
-0.0321039
0.0419211
0.0334222
0.0353911
0.0376293
0.00422365
0.00469853
-0.01668
0.00520411
-0.01334
0.00608835
-0.00919542
0.00764549
-0.00436631
0.00963974
0.000218511
0.012237
0.00519191
0.0157919
0.0125289
0.0197377
0.0215966
0.0229529
0.0296498
0.0253239
0.0344474
0.0267485
0.0371947
0.0278306
0.0376697
0.0287503
0.038491
0.0293157
0.0386505
0.0303176
0.0378575
0.0388016
0.031926
0.000622608
-0.0167331
0.000842145
-0.0135595
0.00154776
-0.00990103
0.00293978
-0.00575834
0.00488243
-0.00172413
0.00731215
0.00276219
0.0106396
0.00920137
0.0151661
0.0170701
0.0194919
0.0253241
0.0233209
0.0306184
0.0264854
0.0340303
0.0288661
0.035289
0.0317301
0.035627
0.0346901
0.0356905
0.0376715
0.0348762
0.0347481
0.0417249
-0.00368286
-0.0161586
-0.00379772
-0.0134447
-0.00333159
-0.0103672
-0.00226457
-0.00682536
-0.000610319
-0.00337838
0.00150828
0.000643588
0.00454752
0.00616213
0.0089002
0.0127175
0.0141381
0.0200862
0.0193353
0.0254212
0.0246272
0.0287384
0.0287757
0.0311405
0.0326524
0.0317503
0.0372439
0.031099
0.0412679
0.0308521
0.0299551
0.0460608
-0.00810632
-0.0148271
-0.00876556
-0.0127854
-0.00869181
-0.0104409
-0.00803436
-0.00748281
-0.00673354
-0.0046792
-0.00488687
-0.00120309
-0.00195194
0.00322721
0.00218499
0.00858052
0.00765205
0.0146191
0.014087
0.0189863
0.0206535
0.0221718
0.0264993
0.0252947
0.0316297
0.02662
0.0377921
0.0249366
0.04214
0.0265043
0.0259112
0.0461839
-0.0127137
-0.0142836
-0.0112156
-0.0150095
-0.009715
-0.0149149
-0.00757745
-0.0140031
-0.00559093
-0.0123311
-0.00287516
-0.00942604
0.000322192
-0.00494354
0.00409802
0.000667538
0.00900806
0.00758586
0.0120679
0.0150471
0.0147105
0.0233466
0.0169952
0.0300286
0.0199379
0.0369417
0.0180236
0.0409629
0.022483
0.0209838
0.0458903
-0.0195276
-0.0214
-0.00784267
-0.0222556
-0.00672178
-0.0220195
-0.00582709
-0.0204933
-0.0044013
-0.0175796
-0.0025915
-0.0130396
-0.000441981
-0.00614135
0.00210977
-0.000499587
0.00642618
0.00805782
0.00615314
0.0165988
0.00845423
0.0228987
0.0136381
0.0306502
0.0102721
0.0368051
0.016328
0.0117098
0.0460791
-0.0251069
-0.0266534
-0.00517527
-0.0269574
-0.0055231
-0.0257287
-0.00563002
-0.022969
-0.00535121
-0.0184761
-0.00493487
-0.0118205
-0.00454578
-0.00653823
0.00114387
0.00159302
-0.00197811
0.00869812
0.00134913
0.0176487
0.00468752
0.0272406
0.000680239
0.0377831
0.00578549
-0.00132875
0.0508216
-0.0251572
-0.0249958
-0.00568448
-0.0230908
-0.00753507
-0.0196442
-0.00879774
-0.0150649
-0.00951418
-0.00997204
-0.00963865
-0.0015347
-0.00729347
0.00535085
-0.00886365
0.0135343
-0.00683431
0.0251593
-0.00693745
0.0343287
-0.00848917
0.0477745
-0.00766038
-0.0138002
0.060246
-0.0161409
-0.0122586
-0.0114174
-0.00695915
-0.0140972
-0.00087498
-0.0155984
0.00529413
-0.0158078
0.0141795
-0.0161788
0.0209207
-0.0156049
0.0301083
-0.0160219
0.0394157
-0.0162449
0.0477595
-0.016833
0.0590247
-0.0189255
-0.0215217
0.0667461
0.00268125
0.00870823
0.014999
0.0216798
0.0280064
0.0343278
0.0404792
0.0459043
0.0519843
0.0563704
0.0587297
0.0317796
0.0604875
0.0326273
0.0596644
0.034811
0.0462402
0.0366212
0.019329
0.0386057
-0.0125124
0.0411233
-0.0410421
0.0439641
-0.0585487
0.044936
-0.0651383
0.0452346
-0.0654932
0.0448277
-0.063599
0.0429445
-0.0629031
0.0399965
-0.0660043
0.0356439
-0.0711133
0.0301475
-0.0693799
0.0255741
-0.0642239
0.0212446
-0.0394767
0.0211745
-0.00682333
0.0233233
0.0318721
0.0283424
0.0595489
0.0735869
0.0447912
0.0574212
0.0472394
0.0572163
0.0489846
0.0444951
0.0490483
0.0192652
0.0488271
-0.0122911
0.0486235
-0.0408386
0.0483881
-0.0583133
0.0468121
-0.0635624
0.0447174
-0.0633984
0.0426369
-0.0615185
0.0400904
-0.0603565
0.0362369
-0.0621508
0.0310505
-0.0659268
0.0249035
-0.063233
0.019509
-0.0588293
0.0157536
-0.0357212
0.017245
-0.00831476
0.0219235
0.0271936
0.028078
0.0533944
0.0656959
0.0517706
0.0517114
0.0571632
0.0518237
0.060187
0.0414713
0.0601453
0.0193069
0.0585088
-0.0106546
0.055975
-0.0383047
0.0527273
-0.0550656
0.0491237
-0.0599588
0.0454647
-0.0597394
0.0422086
-0.0582624
0.0387034
-0.0568514
0.0335992
-0.0570466
0.0276282
-0.0599559
0.0217246
-0.0573293
0.0163676
-0.0534724
0.0134549
-0.0328085
0.0155764
-0.0104363
0.0226334
0.0201366
0.0294156
0.0466122
0.0566035
0.0528778
0.0450175
0.0606055
0.044096
0.065457
0.0366198
0.0668305
0.0179334
0.0657554
-0.00957946
0.0622485
-0.0347978
0.0570292
-0.0498464
0.0518581
-0.0547876
0.0467041
-0.0545854
0.0422342
-0.0537925
0.0380521
-0.0526693
0.0328411
-0.0518356
0.0266487
-0.0537634
0.0211313
-0.0518119
0.0162813
-0.0486224
0.0148594
-0.0313867
0.0167237
-0.0123006
0.0240407
0.0128196
0.0312965
0.0393564
0.0479543
0.0529609
0.037947
0.0611665
0.0358903
0.0676434
0.0301429
0.0709859
0.0145908
0.0707419
-0.00933543
0.0667148
-0.0307708
0.0600548
-0.0431864
0.053223
-0.0479558
0.0472005
-0.0485629
0.0424911
-0.0490831
0.0386754
-0.0488536
0.03421
-0.0473701
0.0278063
-0.0473598
0.022249
-0.0462546
0.0176732
-0.0440467
0.0168177
-0.0305311
0.0185698
-0.0140527
0.0251364
0.00625302
0.0339066
0.0305861
0.0404516
0.0547545
0.0292716
0.0629144
0.0277305
0.0700698
0.0229875
0.0745656
0.010095
0.0745052
-0.00927507
0.0696438
-0.0259094
0.0620518
-0.0355943
0.0543931
-0.0402971
0.0477299
-0.0418997
0.0416728
-0.043026
0.0369961
-0.0441769
0.0332669
-0.0436408
0.0282556
-0.0423485
0.0234276
-0.0414266
0.0197046
-0.0403236
0.0194575
-0.030284
0.0215372
-0.0161324
0.0263635
0.00142669
0.0343688
0.0225809
0.0330491
0.0595843
0.0205089
0.067002
0.0203128
0.0737414
0.0162481
0.0780308
0.00580563
0.0769804
-0.00822463
0.0709847
-0.0199137
0.0628024
-0.027412
0.0547589
-0.0322535
0.0482717
-0.0354126
0.0425209
-0.0372753
0.0374526
-0.0391086
0.0337502
-0.0399385
0.0298041
-0.0384024
0.0253265
-0.0369491
0.0218778
-0.0368749
0.02137
-0.0297763
0.0231986
-0.017961
0.0272683
-0.00264301
0.0340244
0.0158248
0.0416817
0.0253918
0.0346925
0.0665978
0.0141571
0.0726087
0.0143019
0.0779838
0.010873
0.0801163
0.00367308
0.0767252
-0.00483349
0.0695103
-0.0126989
0.0612901
-0.0191918
0.0535485
-0.024512
0.0472311
-0.0290951
0.0422465
-0.0322907
0.0370529
-0.033915
0.0330382
-0.0359238
0.0301278
-0.035492
0.0265213
-0.0333426
0.0232037
-0.0335573
0.0224842
-0.0290568
0.0239367
-0.0194135
0.027974
-0.0066803
0.0329062
0.0108926
0.0388372
0.0194609
0.0255207
0.0708528
0.0100504
0.075005
0.0101497
0.0773913
0.00848671
0.0762767
0.00478762
0.0716364
-0.000193123
0.0652359
-0.00629841
0.0585306
-0.0124865
0.052301
-0.0182823
0.0459973
-0.0227914
0.040894
-0.0271873
0.0360245
-0.0290455
0.031742
-0.0316413
0.029143
-0.0328931
0.0269181
-0.0311177
0.0240708
-0.0307099
0.0236397
-0.0286257
0.0250566
-0.0208305
0.0285734
-0.010197
0.0325601
0.00690581
0.0363456
0.0156755
0.0188428
0.0612217
0.00755844
0.0638054
0.00756594
0.0651866
0.00710556
0.0648626
0.00511165
0.0629282
0.00174126
0.0596105
-0.00298072
0.0548726
-0.00774866
0.05
-0.0134097
0.0446516
-0.0174431
0.0399884
-0.0225241
0.0358453
-0.0249023
0.0319136
-0.0277096
0.0287817
-0.0297612
0.0266209
-0.0289568
0.0241562
-0.0282452
0.023565
-0.0280345
0.0248414
-0.0221069
0.027302
-0.0126576
0.0313982
0.00280958
0.0341097
0.012964
0.0160849
0.0576304
0.00513574
-0.0552077
0.0596729
0.00552339
0.0619096
0.00486891
0.0639088
0.00311248
0.0649038
0.000746201
0.0653023
-0.00337915
0.0642005
-0.00664693
0.0627661
-0.0119753
0.0603038
-0.0149807
0.0578696
-0.02009
0.054683
-0.0217156
0.0517724
-0.0247991
0.0481594
-0.0261482
0.044495
-0.0252924
0.0406104
-0.0243607
0.0380787
-0.0255028
0.0356035
-0.0196317
0.0322168
-0.00927083
0.0315377
0.00348862
0.030801
0.0137007
0.0325478
0.0143381
0.00611701
0.0619265
0.0039187
-0.0607095
0.0634415
0.0040084
0.0648975
0.00341296
0.0662559
0.00175405
0.0669075
9.46397e-05
0.0670151
-0.00348682
0.0660111
-0.00564292
0.0646003
-0.0105645
0.0619688
-0.0123492
0.0591898
-0.017311
0.055783
-0.0183088
0.0523726
-0.0213886
0.0492191
-0.0229947
0.0463447
-0.022418
0.0426152
-0.0206312
0.0399419
-0.0228295
0.03842
-0.0181099
0.0358732
-0.00672398
0.035384
0.00397785
0.0343309
0.0147538
0.0354622
0.0132068
0.000670018
0.0657483
0.00331396
-0.0651436
0.0667213
0.00303537
0.0676299
0.00250437
0.0687084
0.000675621
0.0691046
-0.000301595
0.0692278
-0.00360999
0.0684533
-0.00486843
0.0674409
-0.00955213
0.0654442
-0.0103525
0.0634419
-0.0153087
0.0611374
-0.0160043
0.0586218
-0.018873
0.055866
-0.0202389
0.0539307
-0.0204827
0.0509912
-0.0176917
0.0468765
-0.0187149
0.0443089
-0.0155423
0.0420498
-0.00446488
0.0421705
0.00385717
0.0420412
0.014883
0.0415581
0.0136899
-0.000608624
0.0694568
0.00276299
-0.0689058
0.0703395
0.00215266
0.0709998
0.00184407
0.071683
-7.55116e-06
0.0718808
-0.000499364
0.0720666
-0.00379586
0.0713152
-0.00411696
0.0701548
-0.00839173
0.0684029
-0.00860063
0.0660734
-0.0129793
0.063413
-0.0133439
0.0606449
-0.0161049
0.0568664
-0.0164605
0.0535551
-0.0171713
0.0514482
-0.0155848
0.0488027
-0.0160695
0.0476415
-0.014381
0.0461501
-0.00297357
0.0479163
0.002091
0.0507369
0.0120625
0.0513875
0.0130393
0.00157436
0.0736354
0.00231312
-0.0731855
0.0743388
0.00144926
0.0747174
0.00146543
0.0752371
-0.000527196
0.0752612
-0.00052346
0.0751214
-0.00365614
0.074484
-0.00347955
0.0734481
-0.00735582
0.0720852
-0.00723767
0.0703241
-0.0112182
0.0681385
-0.0111583
0.065742
-0.0137085
0.0636236
-0.014342
0.0609681
-0.0145158
0.058986
-0.0136026
0.0551206
-0.0122041
0.0530139
-0.0122743
0.0523823
-0.00234191
0.053434
0.00103925
0.057156
0.0083405
0.0603823
0.00981295
0.00442146
0.0779762
0.0020977
-0.0777608
0.0784483
0.000977152
0.0787144
0.00119935
0.0790508
-0.000863587
0.0790377
-0.000510378
0.078847
-0.00346543
0.0783388
-0.00297136
0.0774409
-0.0064579
0.0762101
-0.00600686
0.0742472
-0.00925531
0.072349
-0.00926014
0.0697738
-0.0111333
0.0673312
-0.0118995
0.0644125
-0.011597
0.0629727
-0.0121628
0.0603984
-0.00962985
0.0586507
-0.0105266
0.058586
-0.00227719
0.0593416
0.000283627
0.0623452
0.00533694
0.0661346
0.00602357
0.00589312
0.0823633
0.00177161
-0.0820372
0.0827484
0.000592002
0.0830309
0.000916833
0.083185
-0.00101769
0.0832046
-0.000529949
0.0829128
-0.00317366
0.0824548
-0.00251331
0.0814444
-0.00544753
0.0803573
-0.00491971
0.0786365
-0.00753461
0.0769467
-0.00757032
0.0747474
-0.00893399
0.0727062
-0.00985817
0.0703797
-0.00927059
0.0685161
-0.0102992
0.066548
-0.00766167
0.0647122
-0.00869083
0.0648195
-0.00238448
0.0659044
-0.000801294
0.0677186
0.00352272
0.0705178
0.00322438
0.0063189
0.0870485
0.00132632
-0.0866032
0.0873089
0.00033162
0.0875632
0.000662524
0.0875381
-0.000992657
0.087545
-0.000536807
0.0870991
-0.00272772
0.0866925
-0.00210671
0.0857626
-0.00451771
0.0848162
-0.00397326
0.0833467
-0.00606516
0.0818363
-0.00605987
0.0800132
-0.00711088
0.0780262
-0.0078712
0.0760779
-0.00732232
0.0741945
-0.00841576
0.072758
-0.00622515
0.0711626
-0.00709551
0.0713176
-0.00253943
0.072152
-0.00163573
0.073153
0.00252175
0.0753056
0.00107174
0.00592271
0.0919624
0.00109667
-0.0917328
0.0920174
0.000276659
0.0921805
0.000499457
0.0920429
-0.000855062
0.0920078
-0.000501699
0.0915382
-0.00225813
0.0911794
-0.00174789
0.090319
-0.00365736
0.0895168
-0.003171
0.0883055
-0.00485392
0.0869669
-0.00472123
0.0855186
-0.00566263
0.0837259
-0.00607852
0.0822875
-0.00588393
0.0804652
-0.00659344
0.0793282
-0.0050881
0.0779534
-0.00572074
0.0778769
-0.00246289
0.078438
-0.00219686
0.0793767
0.00158303
0.0804975
-4.90534e-05
0.0051767
0.0969388
0.000946801
-0.0967889
0.0968925
0.000322917
0.097015
0.000377006
0.0967999
-0.000640031
0.0967339
-0.000435686
0.096252
-0.00177616
0.095909
-0.00140493
0.0951642
-0.00291254
0.0944818
-0.0024886
0.093499
-0.00387113
0.0924034
-0.0036257
0.0912913
-0.00455049
0.0898334
-0.00462062
0.0887326
-0.00478318
0.0871577
-0.00501853
0.0863124
-0.00424274
0.0850251
-0.00443349
0.0849783
-0.00241606
0.0850801
-0.00229866
0.0858184
0.000844747
0.0865172
-0.000747843
0.00404973
0.102229
0.000789028
-0.102071
0.102165
0.000386658
0.102215
0.000327664
0.10194
-0.000365299
0.101832
-0.000328054
0.101353
-0.00129688
0.101065
-0.00111724
0.100393
-0.00224061
0.0998591
-0.00195432
0.0990578
-0.00306976
0.0982253
-0.00279325
0.0973844
-0.00370956
0.0962421
-0.00347828
0.0954698
-0.0040109
0.0941624
-0.00371115
0.0936191
-0.00369938
0.0924615
-0.0032759
0.0924475
-0.00240214
0.0921747
-0.00202583
0.0929033
0.000116124
0.0931329
-0.000977424
0.00301999
0.108023
0.000725843
-0.10796
0.107889
0.000520319
0.107886
0.000331243
0.107608
-8.80379e-05
0.107495
-0.000214294
0.107053
-0.000855447
0.10679
-0.000853721
0.10622
-0.00167053
0.105788
-0.00152268
0.105159
-0.00244094
0.104516
-0.00214984
0.103885
-0.00307829
0.103026
-0.00261969
0.102458
-0.00344318
0.101484
-0.00273715
0.10108
-0.00329491
0.100208
-0.00240435
0.100151
-0.00234493
0.0997904
-0.00166524
0.100287
-0.000380563
0.100287
-0.000977342
0.00199479
0.11431
0.000706216
-0.11429
0.114195
0.000635032
0.114167
0.000358843
0.113937
0.000142119
0.113817
-9.38481e-05
0.113446
-0.000485099
0.113222
-0.000629418
0.112749
-0.00119741
0.112397
-0.00117077
0.11187
-0.00191438
0.111372
-0.00165117
0.110859
-0.0025651
0.110214
-0.00197486
0.109782
-0.00301126
0.109062
-0.0020171
0.108778
-0.00301101
0.108113
-0.0017394
0.108078
-0.00230968
0.107677
-0.00126459
0.10806
-0.000763478
0.107935
-0.000852737
0.00130562
0.121251
0.000659922
-0.121204
0.12119
0.00069537
0.121163
0.000385875
0.120987
0.000318145
0.120877
1.67354e-05
0.120593
-0.000201259
0.120375
-0.000411613
0.12
-0.000822379
0.11968
-0.000850348
0.119258
-0.00149283
0.118832
-0.00122563
0.118404
-0.00213708
0.117898
-0.00146848
0.117509
-0.00262216
0.116988
-0.00149586
0.116691
-0.00271469
0.11625
-0.00129847
0.116131
-0.00219043
0.115866
-0.000999285
0.116029
-0.000926914
0.115933
-0.000756222
0.000827815
0.128877
0.000634103
-0.128851
0.128862
0.000710498
0.128828
0.000419475
0.128737
0.00040953
0.128627
0.000126116
0.128442
-1.561e-05
0.128255
-0.000225452
0.127975
-0.000541688
0.127702
-0.00057728
0.127333
-0.00112412
0.126991
-0.000884027
0.126557
-0.00170235
0.126179
-0.00109074
0.125723
-0.0021664
0.125375
-0.00114763
0.124968
-0.00230791
0.124711
-0.00104117
0.124452
-0.00193137
0.124314
-0.000861639
0.124323
-0.000936163
0.124283
-0.00071613
0.000536785
0.137114
0.000610349
-0.13709
0.137143
0.000681458
0.137127
0.000434649
0.137098
0.00043926
0.137023
0.000201321
0.136905
0.00010209
0.136751
-7.1773e-05
0.136532
-0.000322198
0.136306
-0.000351736
0.135982
-0.000799721
0.135699
-0.000601242
0.135289
-0.00129235
0.134992
-0.000793491
0.134523
-0.00169816
0.134256
-0.000879845
0.133799
-0.00185096
0.133607
-0.000849474
0.133274
-0.00159851
0.133172
-0.000759661
0.133087
-0.000850942
0.133033
-0.000662514
0.000295276
0.145982
0.000564128
-0.145935
0.146047
0.000616236
0.146047
0.000434419
0.146048
0.000438278
0.145989
0.000260341
0.145912
0.000179484
0.145795
4.53129e-05
0.145619
-0.000146406
0.145442
-0.0001744
0.145166
-0.000524096
0.144954
-0.000389449
0.144575
-0.000912794
0.14434
-0.000559257
0.143879
-0.00123686
0.143665
-0.000665917
0.143199
-0.00138516
0.143039
-0.000688904
0.142677
-0.00123655
0.142573
-0.000655866
0.142442
-0.00071969
0.142375
-0.000595823
0.000112737
0.155481
0.000516634
-0.155433
0.155544
0.000552937
0.155557
0.000421616
0.155571
0.000424007
0.15554
0.000291389
0.155484
0.00023553
0.155399
0.000130374
0.155266
-1.3742e-05
0.155141
-4.88558e-05
0.154915
-0.000298641
0.154738
-0.000212822
0.154412
-0.000586529
0.154214
-0.000361227
0.153826
-0.000848769
0.153633
-0.000472455
0.153234
-0.000986497
0.153067
-0.000521472
0.15275
-0.000920001
0.15262
-0.000526178
0.152496
-0.000595338
0.152393
-0.000492956
-2.62087e-05
0.165648
0.00046718
-0.165599
0.165705
0.000496127
0.165723
0.000404156
0.165739
0.000407297
0.165723
0.000308069
0.165693
0.000265562
0.165639
0.000183705
0.165538
8.75178e-05
0.165436
5.3542e-05
0.16525
-0.000113134
0.165113
-7.54287e-05
0.164862
-0.000336173
0.164704
-0.000202465
0.164396
-0.000540669
0.164227
-0.000303625
0.163907
-0.000666701
0.163751
-0.00036574
0.163491
-0.000659516
0.163361
-0.000396877
0.163238
-0.000472261
0.163136
-0.000391133
-0.000100529
0.176511
0.000425038
-0.176469
0.176563
0.000444262
0.176593
0.000374296
0.176623
0.000376917
0.176625
0.000306622
0.176604
0.000286822
0.176564
0.000223302
0.17649
0.000161829
0.176418
0.000124974
0.176294
1.09292e-05
0.176193
2.55537e-05
0.17601
-0.000152593
0.17588
-7.31828e-05
0.175652
-0.000312025
0.175511
-0.000162883
0.175272
-0.000427469
0.175135
-0.0002287
0.174929
-0.000453939
0.174809
-0.000276977
0.174695
-0.000357834
0.174602
-0.00029836
-0.000121181
0.188204
0.000374083
-0.188153
0.188259
0.000389257
0.188287
0.0003469
0.188307
0.000356997
0.188306
0.000307055
0.188299
0.000294316
0.18828
0.000242063
0.188239
0.000202823
0.188194
0.000169747
0.188106
9.86943e-05
0.188035
9.70227e-05
0.187903
-2.05228e-05
0.187812
1.78552e-05
0.187647
-0.00014749
0.187544
-5.92372e-05
0.187364
-0.00024819
0.187258
-0.000122269
0.187097
-0.00029313
0.186998
-0.000178002
0.186894
-0.000253539
0.18681
-0.000214851
-0.000106098
0.200755
0.000341414
-0.200723
0.200789
0.000355778
0.200809
0.000326526
0.200834
0.000332396
0.200848
0.000292746
0.200855
0.000287581
0.200849
0.000248026
0.200823
0.000228526
0.200797
0.000196296
0.200742
0.000153588
0.2007
0.000138779
0.200616
6.31939e-05
0.200559
7.5236e-05
0.200448
-3.63517e-05
0.200377
1.13375e-05
0.200252
-0.000123245
0.200174
-4.42724e-05
0.200055
-0.00017436
0.199974
-9.65551e-05
0.199887
-0.000166692
0.199808
-0.000136113
-7.33154e-05
0.214192
0.000306282
-0.214157
0.214234
0.000313545
0.214267
0.000293503
0.2143
0.000299964
0.214318
0.000274917
0.214329
0.000275848
0.214333
0.000244483
0.214327
0.000234241
0.21432
0.000203788
0.214293
0.000180164
0.214272
0.000159984
0.214221
0.00011429
0.214187
0.000109236
0.214115
3.56538e-05
0.214071
5.56273e-05
0.213983
-3.61432e-05
0.213931
8.64781e-06
0.213843
-8.69322e-05
0.213784
-3.7078e-05
0.213713
-9.57273e-05
0.213647
-7.02733e-05
-3.74055e-05
0.228636
0.000262631
-0.228592
0.228679
0.000270482
0.22871
0.000261967
0.228742
0.000268682
0.228764
0.000252722
0.228787
0.000252788
0.228802
0.00022962
0.228813
0.000223109
0.228816
0.00020047
0.22881
0.000186091
0.228803
0.00016762
0.228779
0.000137825
0.228761
0.00012713
0.228719
7.81462e-05
0.228692
8.29689e-05
0.228635
2.0474e-05
0.228602
4.16888e-05
0.228539
-2.41253e-05
0.228499
2.51045e-06
0.228443
-3.87604e-05
0.228397
-2.44353e-05
-2.86267e-06
0.244113
0.000224262
-0.244074
0.244153
0.000230556
0.244188
0.000226266
0.244227
0.000230364
0.244259
0.000220748
0.244291
0.000220765
0.244314
0.000206635
0.244334
0.000202316
0.244348
0.000186993
0.244357
0.000177098
0.244362
0.000162877
0.244357
0.000142604
0.244353
0.000130849
0.244334
9.77521e-05
0.244322
9.43659e-05
0.244289
5.38002e-05
0.24427
6.07343e-05
0.244228
1.75861e-05
0.244203
2.755e-05
0.244164
2.98494e-07
0.244133
6.82695e-06
2.16295e-05
0.260703
0.00018109
-0.260659
0.260748
0.000185043
0.260791
0.000183925
0.260834
0.000187071
0.260871
0.000183393
0.260908
0.000183755
0.260939
0.000176231
0.260968
0.000172515
0.260992
0.000163069
0.261014
0.000155842
0.26103
0.000145981
0.261041
0.000132406
0.261049
0.000122097
0.261046
0.000101057
0.261046
9.40092e-05
0.261031
6.93289e-05
0.261025
6.6823e-05
0.261001
4.13016e-05
0.260988
4.02766e-05
0.260963
2.51938e-05
0.260945
2.53694e-05
3.60098e-05
0.278492
0.000135986
-0.278447
0.278538
0.00013959
0.278581
0.000140547
0.278625
0.000143155
0.278666
0.0001421
0.278708
0.000142068
0.278746
0.000138109
0.278783
0.000135245
0.278816
0.000130091
0.278847
0.000125169
0.278874
0.000119396
0.278896
0.000110437
0.278915
0.000102925
0.278927
8.90751e-05
0.278939
8.21033e-05
0.278941
6.69724e-05
0.278946
6.21312e-05
0.278939
4.74717e-05
0.278937
4.28877e-05
0.278927
3.48523e-05
0.27892
3.25909e-05
4.06839e-05
0.297558
8.97975e-05
-0.297511
0.297605
9.26089e-05
0.297651
9.4077e-05
0.297698
9.62519e-05
0.297744
9.63377e-05
0.297789
9.67092e-05
0.297832
9.49801e-05
0.297874
9.3595e-05
0.297913
9.09696e-05
0.29795
8.81254e-05
0.297985
8.46159e-05
0.298016
7.91037e-05
0.298045
7.4135e-05
0.298068
6.59322e-05
0.298089
6.10753e-05
0.298104
5.23158e-05
0.298118
4.82823e-05
0.298125
3.96538e-05
0.298133
3.56223e-05
0.298137
3.10539e-05
0.29814
2.94038e-05
3.44691e-05
0.318039
4.64264e-05
-0.317996
0.318084
4.76721e-05
0.31813
4.83997e-05
0.318177
4.94581e-05
0.318223
4.97831e-05
0.31827
5.01141e-05
0.318315
4.95652e-05
0.31836
4.89197e-05
0.318403
4.78003e-05
0.318445
4.64717e-05
0.318484
4.49368e-05
0.318521
4.24438e-05
0.318555
4.00256e-05
0.318585
3.61745e-05
0.318613
3.35079e-05
0.318635
2.94757e-05
0.318657
2.71288e-05
0.318673
2.33187e-05
0.318688
2.09351e-05
0.3187
1.89604e-05
0.318711
1.78687e-05
2.03751e-05
0.339979
-0.339932
0.340026
0.340075
0.340124
0.340174
0.340224
0.340274
0.340322
0.34037
0.340417
0.340462
0.340504
0.340544
0.34058
0.340614
0.340643
0.34067
0.340694
0.340715
0.340734
0.340752
0.054019
0.0324997
0.0541797
0.0374685
0.0547503
0.0413505
0.056078
0.0469583
0.0505165
0.0570438
0.0317669
0.0579813
0.036531
0.0582611
0.0410707
0.0602149
0.0450045
0.0500219
0.0605492
0.0311253
0.0619022
0.0351779
0.0624722
0.0405007
0.0640373
0.0434394
0.0489157
0.064277
0.065491
0.0339639
0.0661809
0.0398108
0.0673198
0.0423005
0.0473297
0.0690085
0.032943
0.0703347
0.0384846
0.0714687
0.0411665
0.0456128
0.0736588
0.0317696
0.075251
0.0368924
0.0762605
0.040157
0.0441125
0.0782637
0.03089
0.0795228
0.0356333
0.0805299
0.0391499
0.0426052
0.0824181
0.0302834
0.083743
0.0343085
0.0850655
0.0378274
0.0410675
0.0875549
0.029234
0.0890096
0.0328537
0.0903338
0.0365032
0.0396685
0.0931351
0.0281524
0.0942468
0.0317421
0.0954469
0.0353031
0.0383265
0.0983664
0.0272585
0.0994017
0.0307068
0.100716
0.0339889
0.0369711
0.104205
0.0262067
0.105389
0.0295228
0.106694
0.0326834
0.0357057
0.110757
0.0251216
0.111818
0.0284617
0.113038
0.0314639
0.0344534
0.117607
0.0241166
0.118647
0.0274219
0.119904
0.030207
0.0331529
0.125078
0.0230522
0.12623
0.0262696
0.127511
0.0289261
0.0318133
0.133187
0.0219588
0.134381
0.025076
0.13568
0.0276271
0.0304034
0.141808
0.0208657
0.143072
0.0238118
0.144432
0.0262674
0.0288996
0.151112
0.019709
0.152444
0.0224798
0.153863
0.0248479
0.0273299
0.1611
0.0185169
0.162469
0.0211113
0.163951
0.0233654
0.0256823
0.17176
0.0172837
0.173192
0.0196798
0.174747
0.0218101
0.0239601
0.183209
0.0159724
0.184709
0.0181801
0.186344
0.0201755
0.0221504
0.195522
0.014589
0.197097
0.0166058
0.198822
0.0184499
0.02025
0.208669
0.0131406
0.210321
0.0149546
0.212145
0.0166253
0.0182382
0.222743
0.0115963
0.224503
0.0131942
0.226453
0.0146757
0.0160985
0.237866
0.00995036
0.239735
0.0113256
0.241804
0.0126061
0.0138286
0.254051
0.00820668
0.256034
0.00934212
0.258238
0.0104017
0.0114076
0.271399
0.00634747
0.273514
0.00722666
0.275867
0.00804893
0.00882729
0.290002
0.00436585
0.292256
0.00497279
0.294763
0.00554154
0.00607881
0.309963
0.00225382
0.312369
0.00256643
0.315052
0.0028593
0.00313455
0.331372
0.333938
0.336798
)
;

boundaryField
{
    outlet
    {
        type            calculated;
        value           nonuniform 0();
    }
    upperWall
    {
        type            symmetryPlane;
        value           uniform 0;
    }
    lowerWall
    {
        type            symmetryPlane;
        value           nonuniform 0();
    }
    inlet
    {
        type            calculated;
        value           nonuniform 0();
    }
    cylinder
    {
        type            calculated;
        value           nonuniform 0();
    }
    frontAndBack
    {
        type            empty;
        value           nonuniform 0();
    }
    procBoundary6to2
    {
        type            processor;
        value           nonuniform List<scalar> 
37
(
0.0180967
0.0162052
0.0128344
0.00831119
0.00280917
-0.00221275
-0.00778913
-0.0160838
-0.0255424
-0.032865
-0.0368184
-0.0386193
-0.0387518
-0.0394107
-0.039216
-0.0388593
-0.04041
-0.0603411
-0.0605121
-0.048424
-0.0211392
0.010528
0.0385245
0.0557079
0.0641664
0.0651947
0.0640058
0.0647863
0.0689522
0.0754659
0.0748764
0.0687973
0.0438062
0.00689342
-0.0340208
-0.0645679
-0.0793061
)
;
    }
    procBoundary6to5
    {
        type            processor;
        value           nonuniform List<scalar> 
63
(
-0.0164362
-0.0168126
-0.0253923
-0.0264268
-0.0295676
-0.0272396
-0.0266707
-0.029842
-0.0285523
-0.0293364
-0.0298522
-0.0320378
-0.0317415
-0.0329277
-0.034342
-0.0334717
-0.00362471
-0.0186956
-0.000569594
0.00310844
0.0067748
0.0104718
-0.0125852
0.0168194
-0.00850737
0.0222705
-0.0050063
0.0236845
-0.00370255
0.0182222
-0.00776581
0.002714
-0.053047
-0.0563109
-0.0599076
-0.0636798
0.0305282
-0.0679875
-0.0724853
-0.0773842
-0.0818115
-0.0865054
-0.0920535
-0.0974725
-0.103153
-0.109672
-0.116602
-0.124014
-0.132094
-0.140715
-0.149955
-0.159908
-0.170527
-0.181898
-0.194139
-0.207221
-0.221198
-0.23622
-0.252307
-0.269539
-0.28802
-0.307851
-0.329118
)
;
    }
    procBoundary6to7
    {
        type            processor;
        value           nonuniform List<scalar> 
42
(
0.0340615
0.035969
0.0385079
0.0399458
0.0414093
0.0417713
-0.0444008
0.05139
0.0480089
0.0430235
0.0368676
-0.0129446
0.0393754
0.0409092
0.0428368
0.0492045
0.0575352
0.0646629
0.070092
0.0757018
0.0812435
0.0876441
0.0941627
0.101312
0.108625
0.116411
0.124574
0.133275
0.142558
0.152532
0.163211
0.174623
0.186795
0.199776
0.213611
0.228362
0.244108
0.260931
0.278915
0.298146
0.318725
0.340772
)
;
    }
}


// ************************************************************************* //
