/*--------------------------------*- C++ -*----------------------------------*\
| =========                 |                                                 |
| \\      /  F ield         | OpenFOAM: The Open Source CFD Toolbox           |
|  \\    /   O peration     | Version:                                        |
|   \\  /    A nd           | Website:  www.openfoam.com                      |
|    \\/     M anipulation  |                                                 |
\*---------------------------------------------------------------------------*/
FoamFile
{
    version     2.0;
    format      ascii;
    class       volScalarField;
    location    "2";
    object      p;
}
// * * * * * * * * * * * * * * * * * * * * * * * * * * * * * * * * * * * * * //

dimensions      [0 2 -2 0 0 0 0];


internalField   nonuniform List<scalar> 
400
(
0.726494
0.72356
0.716928
0.706928
0.694504
0.680398
0.665178
0.649325
0.633223
0.617153
0.601311
0.585826
0.570777
0.556205
0.542125
0.528533
0.515411
0.502736
0.490478
0.478607
0.727451
0.724444
0.717657
0.707461
0.694846
0.680578
0.665226
0.649273
0.633101
0.616985
0.601115
0.585616
0.570563
0.555995
0.541923
0.528341
0.515231
0.502568
0.490323
0.478465
0.729388
0.72623
0.719122
0.708524
0.695524
0.680927
0.665311
0.64916
0.632849
0.616641
0.600718
0.585192
0.570133
0.555572
0.541516
0.527956
0.514871
0.502233
0.490014
0.47818
0.732354
0.728954
0.721339
0.710113
0.696524
0.681427
0.665414
0.648967
0.63245
0.616109
0.600108
0.584546
0.56948
0.554932
0.540902
0.527376
0.514329
0.501731
0.489551
0.477755
0.736427
0.732674
0.724327
0.712221
0.69782
0.682047
0.665504
0.648666
0.63188
0.615369
0.59927
0.583665
0.568595
0.554068
0.540077
0.526599
0.513605
0.501063
0.488937
0.477193
0.741721
0.73747
0.728111
0.714831
0.699378
0.682745
0.665536
0.648217
0.631106
0.614391
0.598182
0.582534
0.567466
0.552975
0.539038
0.525625
0.512703
0.500232
0.488176
0.476499
0.748396
0.743447
0.732719
0.717916
0.701147
0.683461
0.665452
0.647567
0.630083
0.613144
0.59682
0.581135
0.566085
0.551646
0.537784
0.524458
0.511626
0.499247
0.487279
0.475685
0.756672
0.750742
0.738174
0.721432
0.703055
0.684115
0.665176
0.646652
0.628762
0.611589
0.595157
0.579453
0.564443
0.550083
0.536321
0.523106
0.510389
0.498122
0.48626
0.474766
0.766857
0.759526
0.744485
0.725306
0.705002
0.684603
0.664615
0.645396
0.627084
0.609688
0.593171
0.577478
0.562543
0.548294
0.534664
0.52159
0.509012
0.49688
0.485144
0.473765
0.77938
0.770008
0.751636
0.729426
0.706853
0.684791
0.663655
0.643713
0.624993
0.607406
0.59085
0.575217
0.560401
0.546306
0.532845
0.519942
0.507531
0.495555
0.483963
0.472714
0.794852
0.782433
0.759556
0.733621
0.708424
0.684515
0.662166
0.641518
0.622442
0.604733
0.588206
0.572697
0.558059
0.544166
0.530913
0.518213
0.505993
0.494192
0.482758
0.47165
0.814163
0.79707
0.768086
0.737639
0.709477
0.683579
0.660019
0.638744
0.619417
0.60169
0.585289
0.569983
0.555586
0.541944
0.528936
0.516466
0.504456
0.492842
0.481575
0.470612
0.838637
0.814179
0.776909
0.741119
0.709714
0.681776
0.657111
0.635374
0.61596
0.598357
0.582194
0.567178
0.553082
0.539733
0.526998
0.514774
0.502982
0.491559
0.480458
0.469639
0.870307
0.833949
0.78548
0.743563
0.708795
0.678929
0.65341
0.631476
0.612192
0.594876
0.579065
0.564413
0.550665
0.537633
0.52518
0.513203
0.501625
0.490387
0.479443
0.468757
0.91222
0.85635
0.792924
0.744358
0.706401
0.674967
0.649018
0.627233
0.608315
0.591437
0.576067
0.561824
0.548441
0.535727
0.523547
0.511804
0.500423
0.489351
0.478548
0.467981
0.968503
0.880793
0.797982
0.742919
0.702414
0.670052
0.644216
0.622929
0.604573
0.588233
0.573343
0.559515
0.546482
0.534063
0.52213
0.510592
0.499383
0.488455
0.477772
0.467305
1.0447
0.905891
0.799086
0.738939
0.697083
0.664607
0.639393
0.61885
0.60116
0.585385
0.570963
0.557518
0.5448
0.532638
0.520916
0.509553
0.498488
0.48768
0.477097
0.466714
1.15278
0.930426
0.794523
0.732018
0.690504
0.658828
0.634653
0.615009
0.598032
0.58282
0.568841
0.555748
0.543309
0.531373
0.519836
0.508622
0.497681
0.486976
0.476477
0.466166
1.31939
0.953907
0.781883
0.719975
0.681218
0.65181
0.62932
0.610859
0.594739
0.580161
0.566661
0.553935
0.541785
0.530078
0.518724
0.50766
0.496842
0.486237
0.475823
0.465581
1.53899
0.969756
0.760561
0.701762
0.668652
0.643293
0.623213
0.606252
0.591151
0.577298
0.56433
0.552007
0.540167
0.528704
0.517544
0.506637
0.495946
0.485446
0.475118
0.46495
)
;

boundaryField
{
    fixedWalls
    {
        type            zeroGradient;
    }
    inlet
    {
        type            zeroGradient;
    }
    outlet
    {
        type            fixedValue;
        value           nonuniform 0();
    }
    frontAndBack
    {
        type            empty;
    }
    procBoundary4to0
    {
        type            processor;
        value           nonuniform List<scalar> 
20
(
0.726494
0.72356
0.716928
0.706928
0.694504
0.680398
0.665178
0.649325
0.633223
0.617153
0.601311
0.585826
0.570777
0.556205
0.542125
0.528533
0.515411
0.502736
0.490478
0.478607
)
;
    }
    procBoundary4to5
    {
        type            processor;
        value           nonuniform List<scalar> 
20
(
0.467094
0.466963
0.466702
0.466312
0.465799
0.465168
0.46443
0.463602
0.462706
0.461772
0.460831
0.45992
0.45907
0.458302
0.457626
0.457035
0.456513
0.456026
0.455501
0.45493
)
;
    }
}


// ************************************************************************* //
