/*--------------------------------*- C++ -*----------------------------------*\
| =========                 |                                                 |
| \\      /  F ield         | OpenFOAM: The Open Source CFD Toolbox           |
|  \\    /   O peration     | Version:                                        |
|   \\  /    A nd           | Website:  www.openfoam.com                      |
|    \\/     M anipulation  |                                                 |
\*---------------------------------------------------------------------------*/
FoamFile
{
    version     2.0;
    format      ascii;
    class       volScalarField;
    location    "83";
    object      p;
}
// * * * * * * * * * * * * * * * * * * * * * * * * * * * * * * * * * * * * * //

dimensions      [0 2 -2 0 0 0 0];


internalField   nonuniform List<scalar> 
1139
(
-0.342197
-0.322722
-0.302007
-0.269831
-0.279028
-0.247847
-0.253104
-0.225421
-0.201324
-0.227481
-0.201328
-0.180171
-0.202092
-0.176856
-0.159553
-0.178056
-0.152851
-0.138842
-0.125755
-0.150422
-0.130009
-0.118267
-0.10766
-0.120244
-0.109238
-0.097254
-0.0911748
-0.730653
-0.797494
-0.78153
-0.752468
-0.707368
-0.652604
-0.87072
-0.842723
-0.796884
-0.729696
-0.648149
-0.544328
-0.94487
-0.905959
-0.844644
-0.760048
-0.646515
-0.517381
-0.4151
-1.01821
-0.969337
-0.893388
-0.792339
-0.656292
-0.515816
-0.392749
-0.362416
-1.08498
-1.02928
-0.943711
-0.826419
-0.681866
-0.527069
-0.420253
-0.397372
-0.396795
-1.14415
-1.08945
-0.994579
-0.862185
-0.71338
-0.56231
-0.481045
-0.436931
-0.413468
-0.388794
-1.18916
-1.13692
-1.03536
-0.898889
-0.748803
-0.622201
-0.535203
-0.472521
-0.421929
-0.377709
-1.21274
-1.16039
-1.05757
-0.926327
-0.789736
-0.672889
-0.572313
-0.488578
-0.417603
-0.363814
-1.22328
-1.16779
-1.07078
-0.947598
-0.818702
-0.693379
-0.577929
-0.479706
-0.403017
-0.344581
-1.22873
-1.17243
-1.07436
-0.949367
-0.811247
-0.6737
-0.551553
-0.453909
-0.37937
-0.320928
-1.21516
-1.15539
-1.04807
-0.909715
-0.761997
-0.623918
-0.507135
-0.418208
-0.349413
-0.295059
-1.14598
-1.08203
-0.967243
-0.82522
-0.682813
-0.558625
-0.457663
-0.379306
-0.316033
-0.267631
-1.01772
-0.955189
-0.845983
-0.71842
-0.596262
-0.493058
-0.409053
-0.340869
-0.283484
-0.237925
-0.863242
-0.809055
-0.717852
-0.613319
-0.514901
-0.43035
-0.361474
-0.30258
-0.252143
-0.208757
-0.719336
-0.676737
-0.604225
-0.521166
-0.442035
-0.372275
-0.316064
-0.267413
-0.224878
-0.18086
-0.603757
-0.573206
-0.512729
-0.444478
-0.37699
-0.318066
-0.271149
-0.230457
-0.194086
-0.154425
-0.502098
-0.480212
-0.427749
-0.367679
-0.309904
-0.259205
-0.218981
-0.187612
-0.160192
-0.138014
-0.42914
-0.409957
-0.368176
-0.31278
-0.261854
-0.21866
-0.183262
-0.159917
-0.141519
-0.130941
-0.399207
-0.370877
-0.332304
-0.281241
-0.230883
-0.191384
-0.157895
-0.138139
-0.12342
-0.117311
-0.407532
-0.361527
-0.310822
-0.257568
-0.202877
-0.162217
-0.129948
-0.110583
-0.0989049
-0.09561
-0.45346
-0.382609
-0.309004
-0.245343
-0.183648
-0.136575
-0.104415
-0.0843739
-0.0741518
-0.0722292
-0.547049
-0.440417
-0.336387
-0.249224
-0.174116
-0.116758
-0.0804157
-0.0593956
-0.0502619
-0.0501094
-0.689343
-0.537452
-0.391876
-0.270896
-0.176423
-0.107027
-0.0619329
-0.03722
-0.0265419
-0.0284107
-0.832547
-0.64448
-0.461558
-0.308259
-0.190061
-0.105697
-0.0498788
-0.0179163
-0.00477527
-0.00771516
-0.898353
-0.697191
-0.502343
-0.333597
-0.202483
-0.108983
-0.0437381
-0.00276398
0.0163161
0.0142293
-0.839648
-0.657355
-0.482398
-0.328249
-0.204323
-0.117534
-0.0467913
0.00168768
0.0298275
0.0320968
-0.693431
-0.554264
-0.421124
-0.297442
-0.189943
-0.106471
-0.0430421
-0.000450614
0.0351709
0.0472308
-0.533818
-0.444328
-0.351422
-0.259142
-0.173247
-0.101582
-0.045793
-0.00454359
0.0304543
0.0520477
-0.415933
-0.364765
-0.303722
-0.233405
-0.160201
-0.0985222
-0.0482759
-0.0104349
0.020493
0.0441241
-0.346618
-0.319808
-0.278748
-0.220826
-0.156465
-0.0982709
-0.0515183
-0.0177485
0.00782641
0.0284686
-0.318359
-0.309797
-0.281404
-0.230787
-0.167601
-0.105274
-0.0559153
-0.0188948
0.0033762
0.0186504
-0.326944
-0.333589
-0.318491
-0.271992
-0.203809
-0.133691
-0.0726339
-0.0261488
-0.000800428
0.0158852
-0.380458
-0.409901
-0.412396
-0.365324
-0.289783
-0.200691
-0.120728
-0.0571865
-0.0175704
0.00506298
-0.494068
-0.554327
-0.575149
-0.539004
-0.450776
-0.332097
-0.222188
-0.12623
-0.0592339
-0.0213508
-0.652693
-0.737082
-0.776436
-0.752212
-0.654974
-0.519855
-0.371797
-0.235357
-0.129874
-0.0654773
-0.769364
-0.874007
-0.928861
-0.914808
-0.835544
-0.699591
-0.528418
-0.365567
-0.231028
-0.133816
-0.605276
-0.447187
-0.302586
-0.173317
-0.106393
-0.0779003
-0.0589381
-0.0418695
-0.025703
-0.0130445
-0.0030621
0.00581911
0.0132019
0.0190509
0.0240157
0.0283371
0.0317285
0.0346559
0.037153
0.039247
0.0407227
0.0422522
0.0436493
0.0441328
0.0450299
0.0457201
0.0460536
0.0463944
0.0466445
0.0467442
0.0468366
0.0468481
0.0467661
0.0467904
-0.110524
-0.086737
-0.0667242
-0.0484934
-0.0322
-0.0193442
-0.0084142
0.00102508
0.00876359
0.0151269
0.0205051
0.025147
0.0288219
0.032132
0.0348328
0.0371726
0.038839
0.0407581
0.0421151
0.0429092
0.0440802
0.0448069
0.0453418
0.0458467
0.0462014
0.0464108
0.0465932
0.0466578
0.0466118
0.0466552
-0.0991792
-0.0796408
-0.0622909
-0.0455129
-0.0309592
-0.0190815
-0.00874776
0.000157597
0.00747863
0.0135114
0.0187637
0.0232441
0.026926
0.0302568
0.0330037
0.0353718
0.0372862
0.0393389
0.0406241
0.0418266
0.0430661
0.0438755
0.0446075
0.0452425
0.0457072
0.0460382
0.0463103
0.0464416
0.0464469
0.0465106
-0.0772765
-0.0588603
-0.0458687
-0.0322834
-0.021456
-0.0118843
-0.00334085
0.00400535
0.0099277
0.0148928
0.0194292
0.0232102
0.0265527
0.0295563
0.0321567
0.0343477
0.036457
0.0383141
0.0396528
0.0410933
0.042275
0.043185
0.0440373
0.0447415
0.0452867
0.045707
0.0460393
0.0462284
0.0462797
0.0463591
-0.0531884
-0.0356382
-0.0252224
-0.0149038
-0.00696766
0.000136184
0.00627708
0.0113346
0.0153791
0.0190099
0.0223752
0.0251363
0.0278283
0.0302522
0.0324408
0.0344164
0.0364309
0.037957
0.0394057
0.0408243
0.0419028
0.0428681
0.0437348
0.0444446
0.0450183
0.0454716
0.0458201
0.0460396
0.0461155
0.0462015
-0.0299756
-0.0144742
-0.00626575
0.0013896
0.00764994
0.0126462
0.0166732
0.0197558
0.0221798
0.0244829
0.0264856
0.0283245
0.0302188
0.0319947
0.0336439
0.0354104
0.0370168
0.0383089
0.0397351
0.0409679
0.0419606
0.0428933
0.0436928
0.0443554
0.0449021
0.0453331
0.0456593
0.0458794
0.045956
0.0460397
-0.00992942
0.00402233
0.0105829
0.0174906
0.0216125
0.0241796
0.026217
0.0276148
0.0288565
0.0299055
0.0307964
0.0318327
0.0329398
0.034063
0.0352778
0.0367167
0.0378662
0.0390305
0.0402767
0.0412857
0.0422019
0.0430432
0.0437501
0.04435
0.0448493
0.0452334
0.0455234
0.0457283
0.0457941
0.0458717
0.00647736
0.0175423
0.0227267
0.0294948
0.032218
0.0338579
0.0345225
0.0345808
0.0345325
0.0344932
0.0345444
0.0348286
0.0352703
0.0358349
0.0367273
0.0377258
0.0385664
0.0396242
0.0406424
0.0415092
0.0423544
0.0431058
0.0437443
0.0442915
0.0447561
0.0451017
0.045368
0.0455621
0.0456233
0.0456975
0.0236342
0.0312864
0.0347566
0.0390574
0.0398868
0.0406577
0.0405019
0.0396985
0.0387287
0.037888
0.0372053
0.0368248
0.0367862
0.037008
0.0375938
0.0382357
0.0389435
0.0398327
0.0406681
0.0414646
0.042252
0.0429526
0.0435679
0.0441007
0.0445642
0.0449019
0.0451704
0.0453674
0.0454387
0.0455154
0.0409134
0.0453628
0.0477754
0.0490159
0.0477252
0.047043
0.0453795
0.0435578
0.0418608
0.0403364
0.0390477
0.0381947
0.0377275
0.037648
0.0379221
0.0383441
0.0389902
0.0397379
0.040486
0.0412593
0.0420168
0.0426989
0.0433097
0.0438494
0.0443166
0.0446655
0.0449512
0.0451576
0.0452472
0.0453291
0.055644
0.0565794
0.0594512
0.0582341
0.0558356
0.0534816
0.0503381
0.0473729
0.0447365
0.0424873
0.0407261
0.0395414
0.0387378
0.0384097
0.0384211
0.0386974
0.0392022
0.0397996
0.0404651
0.0411876
0.0418875
0.0425399
0.0431312
0.0436699
0.0441167
0.0444662
0.0447549
0.0449578
0.0450574
0.04514
0.0643633
0.0646821
0.0673899
0.0648609
0.062392
0.0585728
0.0545318
0.0505952
0.0473066
0.0445823
0.0424891
0.0409668
0.0398942
0.0393435
0.039143
0.0393115
0.0396451
0.0401323
0.040729
0.0413765
0.0420021
0.0425896
0.0431259
0.0436206
0.0440111
0.0443368
0.0446004
0.0447835
0.0448765
0.0449521
0.06617
0.0650004
0.0677954
0.0660102
0.0635633
0.0599146
0.0557964
0.0518802
0.0485037
0.0457937
0.0437457
0.0422075
0.0410629
0.0403666
0.0400419
0.0400525
0.0402382
0.0406133
0.0411144
0.0416541
0.042194
0.0427086
0.0431921
0.0436213
0.043956
0.0442439
0.0444637
0.0446213
0.0446966
0.0447617
0.0500791
0.0553618
0.0589893
0.0596531
0.0585171
0.0558171
0.0527534
0.0498272
0.0472969
0.0451943
0.0435512
0.0421833
0.0412315
0.0406422
0.0403755
0.0403575
0.0405104
0.0408601
0.0412986
0.0417716
0.0422594
0.0427266
0.0431693
0.0435394
0.043851
0.0441122
0.0443026
0.0444475
0.04451
0.0445677
0.0317283
0.0367508
0.0405432
0.0445885
0.0472165
0.0475865
0.0464778
0.0454301
0.0445039
0.043578
0.0425629
0.0416236
0.040958
0.0404916
0.0403119
0.0403089
0.0404739
0.0408065
0.0411796
0.041634
0.0420952
0.0425603
0.0429878
0.0433422
0.0436626
0.043912
0.044097
0.0442446
0.0443074
0.044365
0.0221514
0.022834
0.0253727
0.0304668
0.0354516
0.0383064
0.0396244
0.0405399
0.0407736
0.0407651
0.0404964
0.0403217
0.0400916
0.0399578
0.0399554
0.0400431
0.0402684
0.0405985
0.0409692
0.0414143
0.0418655
0.0423254
0.0427293
0.0430926
0.0434211
0.0436742
0.0438717
0.0440269
0.0440974
0.0441573
0.0152845
0.0168137
0.0189782
0.0224299
0.0271351
0.0309977
0.0342789
0.0367061
0.0381751
0.0388212
0.0391875
0.0393845
0.0394562
0.0395903
0.0397521
0.0399344
0.0402108
0.0405379
0.0409111
0.0413412
0.0417632
0.0422118
0.0425902
0.0429413
0.0432411
0.0434785
0.043668
0.0438158
0.0438862
0.0439438
0.00189453
0.0103907
0.0115329
0.0139461
0.0198237
0.0249351
0.0294041
0.0327582
0.0351476
0.036803
0.0381014
0.0388667
0.0393346
0.0396865
0.0399218
0.0401583
0.0404539
0.0407833
0.0411442
0.0415209
0.0418895
0.0422617
0.0425964
0.0428945
0.0431476
0.043352
0.0435102
0.0436303
0.0436836
0.0437297
-0.0229398
-0.00774722
-0.00770558
0.000786619
0.0125765
0.0208536
0.0269113
0.0305225
0.0330636
0.035022
0.0368151
0.037944
0.0389367
0.0395294
0.0399701
0.0403527
0.0407152
0.0410634
0.0414196
0.0417703
0.0420958
0.0424023
0.0426851
0.0429094
0.0431005
0.0432486
0.0433618
0.043447
0.0434781
0.0435109
-0.0705608
-0.051001
-0.0372501
-0.0149319
0.00244384
0.0139879
0.0214573
0.0270381
0.0309637
0.0342446
0.0363866
0.0378514
0.038918
0.0395261
0.0400557
0.0404863
0.040874
0.0412313
0.0415832
0.041894
0.0421644
0.042414
0.0426404
0.0428266
0.0429893
0.0431036
0.0431903
0.0432492
0.0432645
0.0432867
-0.112761
-0.0777174
-0.0416574
-0.0143521
0.00141587
0.0121169
0.0183838
0.0239154
0.0279765
0.031937
0.0344027
0.0367189
0.037959
0.0389559
0.0396828
0.0402166
0.0406707
0.0411144
0.0415016
0.0418232
0.0420872
0.042315
0.0425051
0.0426644
0.0427972
0.0428911
0.0429655
0.0430173
0.0430318
0.0430512
-0.13176
-0.0804376
-0.0662007
-0.0449968
-0.0282196
-0.0164906
-0.00608946
0.00403277
0.0126375
0.0191788
0.0245892
0.0294409
-0.0730314
-0.0503327
-0.0319198
-0.0195089
-0.00832465
0.00270093
0.0113588
0.0177477
0.023481
0.028602
0.0324792
0.0355937
0.0383646
0.040534
0.0422092
0.0436215
0.0448137
0.0456128
0.0460773
0.0468696
0.0470811
0.0471804
0.0474854
0.047546
0.0475717
0.0475954
0.0475408
0.0474629
0.0473669
0.0473385
-0.0743134
-0.0498432
-0.0330351
-0.022356
-0.0104807
0.00148933
0.00997378
0.0163969
0.0225758
0.0277149
0.0314973
0.0347582
0.0376702
0.0398203
0.0415889
0.0430782
0.0443507
0.0450862
0.0457566
0.0466025
0.0466834
0.0469684
0.0472733
0.0473046
0.0473708
0.0473968
0.0473569
0.0473054
0.0472138
0.0471983
-0.0844865
-0.054709
-0.0375467
-0.0260573
-0.0126445
-0.0005248
0.0076323
0.0145174
0.0210656
0.0261154
0.0299944
0.0335284
0.0365133
0.0387034
0.0406668
0.0422834
0.0435922
0.0443866
0.0454222
0.0461026
0.0462486
0.0467603
0.0470097
0.0470729
0.0471871
0.0472075
0.04719
0.0471566
0.0470631
0.0470601
-0.0891082
-0.0609665
-0.0450516
-0.0319119
-0.0170914
-0.00490914
0.00356612
0.0112155
0.0180549
0.0231798
0.0274589
0.0313583
0.0344588
0.0369648
0.0392187
0.041044
0.0423972
0.0434861
0.0447855
0.0452515
0.045733
0.0463843
0.0466156
0.0467943
0.0469661
0.0470023
0.0470267
0.0470089
0.0469143
0.0469237
)
;

boundaryField
{
    outlet
    {
        type            fixedValue;
        value           nonuniform 0();
    }
    upperWall
    {
        type            symmetryPlane;
    }
    lowerWall
    {
        type            symmetryPlane;
    }
    inlet
    {
        type            zeroGradient;
    }
    cylinder
    {
        type            zeroGradient;
    }
    frontAndBack
    {
        type            empty;
    }
    procBoundary2to1
    {
        type            processor;
        value           nonuniform List<scalar> 
63
(
-0.36329
-0.36329
-0.314257
-0.291365
-0.291365
-0.245714
-0.223222
-0.223222
-0.18494
-0.164157
-0.14424
-0.14424
-0.116746
-0.100304
-0.0846001
-0.0846001
-0.676833
-0.727423
-0.727423
-0.709381
-0.68544
-0.664
-0.592801
-0.592801
-0.469407
-0.469407
-0.368845
-0.368845
-0.384868
-0.384868
-0.399226
-0.399226
-0.0620575
-0.0440705
-0.027014
-0.0141769
-0.00362375
0.00590914
0.0141044
0.0206059
0.0257804
0.0303024
0.0333253
0.0333253
0.0363715
0.0389909
0.0411424
0.0428012
0.0441752
0.0452799
0.0460978
0.0465034
0.0471055
0.0474414
0.0474752
0.0477172
0.047814
0.0478062
0.047805
0.0477338
0.0476259
0.0475205
0.0474808
)
;
    }
    procBoundary2to3
    {
        type            processor;
        value           nonuniform List<scalar> 
43
(
-0.749833
-0.852453
-0.913797
-0.920971
-0.866463
-0.767523
-0.767523
-0.546625
-0.436089
-0.326243
-0.191506
-0.191506
-0.0389028
-0.0175819
-0.00158151
0.00869622
0.0176359
0.0236444
0.0283786
0.031553
0.034024
0.0359729
0.037278
0.0384264
0.0392926
0.0399468
0.0405417
0.0410274
0.0414194
0.0417226
0.0419643
0.0421682
0.042339
0.0424877
0.0426088
0.0426913
0.0427462
0.0427849
0.042791
0.0428045
-0.132942
-0.0389028
-0.0807549
)
;
    }
    procBoundary2to6
    {
        type            processor;
        value           nonuniform List<scalar> 
37
(
-0.734401
-0.806457
-0.884119
-0.962946
-1.0373
-1.10363
-1.1574
-1.19619
-1.21972
-1.23145
-1.23556
-1.21252
-1.13578
-1.00501
-0.849212
-0.70301
-0.587625
-0.489896
-0.423868
-0.408167
-0.433682
-0.499747
-0.624937
-0.806294
-0.982534
-1.0626
-0.98961
-0.812835
-0.613784
-0.456743
-0.360823
-0.314228
-0.304945
-0.33705
-0.416254
-0.538483
-0.631209
)
;
    }
}


// ************************************************************************* //
