/*--------------------------------*- C++ -*----------------------------------*\
| =========                 |                                                 |
| \\      /  F ield         | OpenFOAM: The Open Source CFD Toolbox           |
|  \\    /   O peration     | Version:                                        |
|   \\  /    A nd           | Website:  www.openfoam.com                      |
|    \\/     M anipulation  |                                                 |
\*---------------------------------------------------------------------------*/
FoamFile
{
    version     2.0;
    format      ascii;
    class       surfaceScalarField;
    location    "0.4";
    object      phi;
}
// * * * * * * * * * * * * * * * * * * * * * * * * * * * * * * * * * * * * * //

dimensions      [0 3 -1 0 0 0 0];
oriented        oriented;


internalField   nonuniform List<scalar> 
760
(
3.61516e-05
-4.76881e-08
3.61973e-05
-4.5493e-08
3.6241e-05
-4.33913e-08
3.62826e-05
-4.13365e-08
3.63222e-05
-3.93216e-08
3.63599e-05
-3.73572e-08
3.63957e-05
-3.54465e-08
3.64297e-05
-3.35825e-08
3.64619e-05
-3.17714e-08
3.64923e-05
-3.00013e-08
3.65211e-05
-2.82951e-08
3.65482e-05
-2.66101e-08
3.65737e-05
-2.50259e-08
3.65977e-05
-2.34093e-08
3.66202e-05
-2.19907e-08
3.66412e-05
-2.03923e-08
3.66611e-05
-1.92496e-08
3.66793e-05
-1.7556e-08
3.66968e-05
-1.68662e-08
-1.4908e-08
3.60235e-05
-9.33823e-08
3.60671e-05
-8.91146e-08
3.61088e-05
-8.50158e-08
3.61484e-05
-8.10166e-08
3.61862e-05
-7.71079e-08
3.62222e-05
-7.32942e-08
3.62563e-05
-6.95825e-08
3.62887e-05
-6.59627e-08
3.63194e-05
-6.24478e-08
3.63484e-05
-5.90126e-08
3.63758e-05
-5.57035e-08
3.64016e-05
-5.24375e-08
3.6426e-05
-4.93657e-08
3.64488e-05
-4.6233e-08
3.64703e-05
-4.34849e-08
3.64903e-05
-4.03845e-08
3.65092e-05
-3.81713e-08
3.65265e-05
-3.48727e-08
3.65432e-05
-3.35744e-08
-2.97576e-08
3.57635e-05
-1.34819e-07
3.58031e-05
-1.28668e-07
3.58408e-05
-1.22726e-07
3.58767e-05
-1.16949e-07
3.59109e-05
-1.11317e-07
3.59434e-05
-1.05821e-07
3.59743e-05
-1.00471e-07
3.60036e-05
-9.5255e-08
3.60314e-05
-9.01906e-08
3.60576e-05
-8.52422e-08
3.60824e-05
-8.0475e-08
3.61057e-05
-7.57747e-08
3.61277e-05
-7.13487e-08
3.61483e-05
-6.6844e-08
3.61677e-05
-6.28827e-08
3.61857e-05
-5.84303e-08
3.62028e-05
-5.52356e-08
3.62184e-05
-5.05026e-08
3.62335e-05
-4.86538e-08
-4.31644e-08
3.53644e-05
-1.70189e-07
3.53982e-05
-1.6241e-07
3.54303e-05
-1.54875e-07
3.54609e-05
-1.47566e-07
3.54901e-05
-1.40448e-07
3.55178e-05
-1.33507e-07
3.5544e-05
-1.26749e-07
3.55689e-05
-1.20162e-07
3.55925e-05
-1.13767e-07
3.56148e-05
-1.07521e-07
3.56358e-05
-1.01502e-07
3.56556e-05
-9.55739e-08
3.56743e-05
-8.99834e-08
3.56917e-05
-8.43112e-08
3.57081e-05
-7.93016e-08
3.57234e-05
-7.37092e-08
3.57378e-05
-6.96566e-08
3.57511e-05
-6.37253e-08
3.57638e-05
-6.1374e-08
-5.44814e-08
3.48162e-05
-1.98054e-07
3.48428e-05
-1.88975e-07
3.48681e-05
-1.80169e-07
3.48921e-05
-1.71634e-07
3.4915e-05
-1.63329e-07
3.49367e-05
-1.55233e-07
3.49573e-05
-1.47353e-07
3.49769e-05
-1.39673e-07
3.49953e-05
-1.32218e-07
3.50127e-05
-1.24941e-07
3.50291e-05
-1.17925e-07
3.50446e-05
-1.11024e-07
3.50591e-05
-1.04505e-07
3.50727e-05
-9.7916e-08
3.50855e-05
-9.2063e-08
3.50974e-05
-8.55908e-08
3.51085e-05
-8.0833e-08
3.51188e-05
-7.39943e-08
3.51286e-05
-7.12073e-08
-6.32407e-08
3.41068e-05
-2.17451e-07
3.41253e-05
-2.07448e-07
3.41428e-05
-1.97738e-07
3.41595e-05
-1.88329e-07
3.41754e-05
-1.79178e-07
3.41904e-05
-1.70262e-07
3.42046e-05
-1.61583e-07
3.42181e-05
-1.53128e-07
3.42308e-05
-1.44921e-07
3.42428e-05
-1.36914e-07
3.4254e-05
-1.2919e-07
3.42646e-05
-1.21607e-07
3.42745e-05
-1.14426e-07
3.42838e-05
-1.07202e-07
3.42925e-05
-1.00741e-07
3.43006e-05
-9.36795e-08
3.43082e-05
-8.83923e-08
3.43151e-05
-8.09719e-08
3.43218e-05
-7.78294e-08
-6.91563e-08
3.3223e-05
-2.27929e-07
3.32329e-05
-2.17404e-07
3.32424e-05
-2.07185e-07
3.32513e-05
-1.97279e-07
3.32598e-05
-1.87648e-07
3.32678e-05
-1.78265e-07
3.32754e-05
-1.69135e-07
3.32825e-05
-1.60244e-07
3.32892e-05
-1.51611e-07
3.32955e-05
-1.43196e-07
3.33013e-05
-1.35072e-07
3.33068e-05
-1.27112e-07
3.3312e-05
-1.19556e-07
3.33168e-05
-1.11994e-07
3.33212e-05
-1.05176e-07
3.33253e-05
-9.78276e-08
3.33292e-05
-9.22039e-08
3.33327e-05
-8.45392e-08
3.3336e-05
-8.11324e-08
-7.21371e-08
3.21514e-05
-2.29554e-07
3.21529e-05
-2.18915e-07
3.21543e-05
-2.08583e-07
3.21556e-05
-1.98562e-07
3.21567e-05
-1.88818e-07
3.21578e-05
-1.79329e-07
3.21588e-05
-1.70098e-07
3.21596e-05
-1.6111e-07
3.21604e-05
-1.52383e-07
3.21611e-05
-1.4388e-07
3.21617e-05
-1.35669e-07
3.21622e-05
-1.27637e-07
3.21626e-05
-1.19994e-07
3.2163e-05
-1.12387e-07
3.21633e-05
-1.0547e-07
3.21636e-05
-9.81296e-08
3.21638e-05
-9.23708e-08
3.2164e-05
-8.47886e-08
3.21641e-05
-8.1217e-08
-7.22793e-08
3.08792e-05
-2.2288e-07
3.08728e-05
-2.12517e-07
3.08667e-05
-2.02449e-07
3.08608e-05
-1.92677e-07
3.08552e-05
-1.83174e-07
3.08498e-05
-1.73923e-07
3.08446e-05
-1.64922e-07
3.08397e-05
-1.56162e-07
3.08349e-05
-1.47655e-07
3.08304e-05
-1.39374e-07
3.08261e-05
-1.3137e-07
3.0822e-05
-1.23557e-07
3.08181e-05
-1.16102e-07
3.08145e-05
-1.08725e-07
3.0811e-05
-1.01958e-07
3.08077e-05
-9.48954e-08
3.08046e-05
-8.92023e-08
3.08018e-05
-8.1999e-08
3.07989e-05
-7.83678e-08
-6.98436e-08
2.93954e-05
-2.0888e-07
2.9382e-05
-1.99145e-07
2.93693e-05
-1.89681e-07
2.93571e-05
-1.80485e-07
2.93454e-05
-1.71542e-07
2.93343e-05
-1.62838e-07
2.93238e-05
-1.54369e-07
2.93138e-05
-1.46128e-07
2.93042e-05
-1.38126e-07
2.92952e-05
-1.3034e-07
2.92866e-05
-1.22811e-07
2.92786e-05
-1.15474e-07
2.92709e-05
-1.08457e-07
2.92637e-05
-1.01553e-07
2.92569e-05
-9.51635e-08
2.92507e-05
-8.86099e-08
2.92446e-05
-8.31737e-08
2.92392e-05
-7.65978e-08
2.92339e-05
-7.30149e-08
-6.52195e-08
2.76906e-05
-1.88866e-07
2.76715e-05
-1.80054e-07
2.76533e-05
-1.71477e-07
2.7636e-05
-1.63132e-07
2.76195e-05
-1.55017e-07
2.76037e-05
-1.47118e-07
2.75888e-05
-1.39435e-07
2.75746e-05
-1.31959e-07
2.75612e-05
-1.24699e-07
2.75485e-05
-1.1764e-07
2.75365e-05
-1.1081e-07
2.75252e-05
-1.04164e-07
2.75145e-05
-9.77946e-08
2.75045e-05
-9.15611e-08
2.74951e-05
-8.57445e-08
2.74864e-05
-7.98825e-08
2.74781e-05
-7.48751e-08
2.74706e-05
-6.9115e-08
2.74633e-05
-6.56881e-08
-5.88836e-08
2.57582e-05
-1.64381e-07
2.57348e-05
-1.56713e-07
2.57126e-05
-1.49238e-07
2.56914e-05
-1.41954e-07
2.56713e-05
-1.34871e-07
2.56521e-05
-1.27978e-07
2.5634e-05
-1.21273e-07
2.56168e-05
-1.1475e-07
2.56005e-05
-1.08415e-07
2.55851e-05
-1.02258e-07
2.55706e-05
-9.62978e-08
2.55569e-05
-9.0506e-08
2.55441e-05
-8.4945e-08
2.5532e-05
-7.95292e-08
2.55207e-05
-7.44375e-08
2.55103e-05
-6.93947e-08
2.55003e-05
-6.49593e-08
2.54914e-05
-6.01358e-08
2.54826e-05
-5.69694e-08
-5.13552e-08
2.35937e-05
-1.37094e-07
2.35677e-05
-1.30713e-07
2.3543e-05
-1.24474e-07
2.35194e-05
-1.1839e-07
2.3497e-05
-1.12472e-07
2.34757e-05
-1.06715e-07
2.34556e-05
-1.01115e-07
2.34365e-05
-9.56669e-08
2.34184e-05
-9.03761e-08
2.34014e-05
-8.52343e-08
2.33854e-05
-8.02556e-08
2.33703e-05
-7.5423e-08
2.33561e-05
-7.07757e-08
2.33429e-05
-6.62689e-08
2.33304e-05
-6.20042e-08
2.33189e-05
-5.78514e-08
2.3308e-05
-5.40942e-08
2.32982e-05
-5.02584e-08
2.32886e-05
-4.74496e-08
-4.31554e-08
2.11953e-05
-1.08706e-07
2.11683e-05
-1.03666e-07
2.11425e-05
-9.87216e-08
2.1118e-05
-9.3895e-08
2.10948e-05
-8.92028e-08
2.10727e-05
-8.46383e-08
2.10518e-05
-8.01982e-08
2.1032e-05
-7.58791e-08
2.10133e-05
-7.16838e-08
2.09957e-05
-6.76073e-08
2.09791e-05
-6.36587e-08
2.09635e-05
-5.98291e-08
2.09488e-05
-5.61418e-08
2.09351e-05
-5.25786e-08
2.09223e-05
-4.91888e-08
2.09104e-05
-4.59413e-08
2.08993e-05
-4.2924e-08
2.08891e-05
-4.00597e-08
2.08793e-05
-3.76928e-08
-3.47719e-08
1.85631e-05
-8.08692e-08
1.85366e-05
-7.714e-08
1.85114e-05
-7.34679e-08
1.84873e-05
-6.98829e-08
1.84645e-05
-6.63998e-08
1.84429e-05
-6.30119e-08
1.84224e-05
-5.97158e-08
1.84031e-05
-5.65093e-08
1.83848e-05
-5.33944e-08
1.83675e-05
-5.03677e-08
1.83513e-05
-4.74348e-08
1.83361e-05
-4.45915e-08
1.83218e-05
-4.18512e-08
1.83084e-05
-3.92113e-08
1.82959e-05
-3.6689e-08
1.82843e-05
-3.43102e-08
1.82734e-05
-3.2045e-08
1.82634e-05
-3.00754e-08
1.82539e-05
-2.82121e-08
-2.66318e-08
1.56989e-05
-5.51325e-08
1.56744e-05
-5.26078e-08
1.56511e-05
-5.01119e-08
1.56289e-05
-4.76779e-08
1.56078e-05
-4.5315e-08
1.55878e-05
-4.30166e-08
1.55688e-05
-4.07803e-08
1.55509e-05
-3.86044e-08
1.5534e-05
-3.649e-08
1.55181e-05
-3.44349e-08
1.55031e-05
-3.24427e-08
1.5489e-05
-3.05119e-08
1.54758e-05
-2.86494e-08
1.54635e-05
-2.68601e-08
1.54519e-05
-2.51439e-08
1.54412e-05
-2.35506e-08
1.54311e-05
-2.19981e-08
1.54218e-05
-2.07957e-08
1.54131e-05
-1.94611e-08
-1.90857e-08
1.26057e-05
-3.29193e-08
1.25845e-05
-3.14244e-08
1.25644e-05
-2.99416e-08
1.25452e-05
-2.84992e-08
1.2527e-05
-2.71006e-08
1.25097e-05
-2.57399e-08
1.24933e-05
-2.44151e-08
1.24778e-05
-2.31257e-08
1.24632e-05
-2.18725e-08
1.24494e-05
-2.0654e-08
1.24365e-05
-1.94719e-08
1.24243e-05
-1.83264e-08
1.24129e-05
-1.72206e-08
1.24022e-05
-1.61606e-08
1.23922e-05
-1.51401e-08
1.23828e-05
-1.42096e-08
1.23741e-05
-1.32792e-08
1.2366e-05
-1.26743e-08
1.23584e-05
-1.18396e-08
-1.2409e-08
9.28703e-06
-1.55309e-08
9.27044e-06
-1.48329e-08
9.25463e-06
-1.41388e-08
9.2396e-06
-1.34671e-08
9.22532e-06
-1.28161e-08
9.21176e-06
-1.21823e-08
9.19891e-06
-1.15651e-08
9.18675e-06
-1.09641e-08
9.17525e-06
-1.03795e-08
9.16441e-06
-9.81079e-09
9.1542e-06
-9.25865e-09
9.1446e-06
-8.72348e-09
9.13558e-06
-8.20631e-09
9.12713e-06
-7.71205e-09
9.11923e-06
-7.23336e-09
9.11182e-06
-6.80767e-09
9.10491e-06
-6.36396e-09
9.09839e-06
-6.15867e-09
9.09228e-06
-5.72645e-09
-6.81175e-09
5.74657e-06
-4.17299e-09
5.73573e-06
-3.98818e-09
5.72539e-06
-3.80457e-09
5.71555e-06
-3.62817e-09
5.7062e-06
-3.45735e-09
5.6973e-06
-3.29081e-09
5.68887e-06
-3.12843e-09
5.68087e-06
-2.97015e-09
5.67331e-06
-2.8161e-09
5.66617e-06
-2.66612e-09
5.65943e-06
-2.52025e-09
5.65308e-06
-2.37878e-09
5.64712e-06
-2.24195e-09
5.64152e-06
-2.11174e-09
5.63627e-06
-1.98374e-09
5.63134e-06
-1.87575e-09
5.62672e-06
-1.75101e-09
5.6223e-06
-1.73432e-09
5.61815e-06
-1.58061e-09
-2.44653e-09
1.98759e-06
1.98361e-06
1.9798e-06
1.97617e-06
1.97272e-06
1.96943e-06
1.9663e-06
1.96333e-06
1.96051e-06
1.95784e-06
1.95532e-06
1.95295e-06
1.9507e-06
1.94859e-06
1.94661e-06
1.94473e-06
1.94298e-06
1.94125e-06
1.93967e-06
)
;

boundaryField
{
    fixedWalls
    {
        type            calculated;
        value           uniform 0;
    }
    inlet
    {
        type            calculated;
        value           nonuniform 0();
    }
    outlet
    {
        type            calculated;
        value           nonuniform List<scalar> 
20
(
3.67124e-05
3.65581e-05
3.62469e-05
3.57751e-05
3.51374e-05
3.43277e-05
3.3339e-05
3.21643e-05
3.07965e-05
2.92293e-05
2.7457e-05
2.54751e-05
2.32804e-05
2.08709e-05
1.82458e-05
1.54055e-05
1.23517e-05
9.08668e-06
5.61379e-06
1.93722e-06
)
;
    }
    frontAndBack
    {
        type            empty;
        value           nonuniform 0();
    }
    procBoundary7to3
    {
        type            processor;
        value           nonuniform List<scalar> 
20
(
-2.06659e-10
-2.27963e-10
-2.49652e-10
-2.77389e-10
-3.0792e-10
-3.33597e-10
-3.59742e-10
-3.85062e-10
-4.11507e-10
-4.39155e-10
-4.66519e-10
-4.93359e-10
-5.21742e-10
-5.4812e-10
-5.76209e-10
-5.95658e-10
-6.2204e-10
-6.31261e-10
-6.64761e-10
-6.56348e-10
)
;
    }
    procBoundary7to6
    {
        type            processor;
        value           nonuniform List<scalar> 
20
(
-3.61037e-05
-3.59778e-05
-3.57221e-05
-3.53291e-05
-3.47883e-05
-3.40874e-05
-3.32125e-05
-3.21497e-05
-3.08859e-05
-2.94094e-05
-2.77106e-05
-2.57827e-05
-2.3621e-05
-2.12237e-05
-1.8591e-05
-1.57247e-05
-1.26279e-05
-9.30442e-06
-5.75793e-06
-1.99177e-06
)
;
    }
}


// ************************************************************************* //
