/*--------------------------------*- C++ -*----------------------------------*\
| =========                 |                                                 |
| \\      /  F ield         | OpenFOAM: The Open Source CFD Toolbox           |
|  \\    /   O peration     | Version:                                        |
|   \\  /    A nd           | Website:  www.openfoam.com                      |
|    \\/     M anipulation  |                                                 |
\*---------------------------------------------------------------------------*/
FoamFile
{
    version     2.0;
    format      ascii;
    class       volVectorField;
    location    "0.4";
    object      U;
}
// * * * * * * * * * * * * * * * * * * * * * * * * * * * * * * * * * * * * * //

dimensions      [0 1 -1 0 0 0 0];


internalField   nonuniform List<vector> 
400
(
(1.44513 -0.000480472 0)
(1.447 -0.000458088 0)
(1.44879 -0.000436607 0)
(1.45049 -0.000415578 0)
(1.45212 -0.000394874 0)
(1.45366 -0.000374741 0)
(1.45513 -0.000355151 0)
(1.45653 -0.000336052 0)
(1.45785 -0.000317464 0)
(1.4591 -0.000299282 0)
(1.46028 -0.000281757 0)
(1.4614 -0.000264439 0)
(1.46245 -0.000248131 0)
(1.46345 -0.000231508 0)
(1.46436 -0.000216881 0)
(1.46527 -0.000200506 0)
(1.46601 -0.000188689 0)
(1.4669 -0.000171484 0)
(1.46739 -0.00016416 0)
(1.46844 -0.000144313 0)
(1.44005 -0.00142737 0)
(1.44183 -0.00136194 0)
(1.44354 -0.00129933 0)
(1.44516 -0.00123816 0)
(1.44671 -0.00117827 0)
(1.44819 -0.00111983 0)
(1.44959 -0.00106298 0)
(1.45092 -0.00100751 0)
(1.45218 -0.000953652 0)
(1.45337 -0.000901007 0)
(1.4545 -0.000850286 0)
(1.45557 -0.000800208 0)
(1.45656 -0.000753127 0)
(1.45752 -0.000705076 0)
(1.45838 -0.000662945 0)
(1.45925 -0.000615376 0)
(1.45996 -0.000581451 0)
(1.46081 -0.000530923 0)
(1.46127 -0.000510765 0)
(1.46227 -0.000452283 0)
(1.42973 -0.0023086 0)
(1.43135 -0.00220329 0)
(1.43289 -0.00210182 0)
(1.43437 -0.00200302 0)
(1.43577 -0.00190656 0)
(1.4371 -0.00181245 0)
(1.43837 -0.00172082 0)
(1.43958 -0.00163147 0)
(1.44071 -0.00154472 0)
(1.4418 -0.00145995 0)
(1.44281 -0.00137828 0)
(1.44378 -0.00129771 0)
(1.44468 -0.0012219 0)
(1.44554 -0.00114464 0)
(1.44632 -0.00107681 0)
(1.44711 -0.00100036 0)
(1.44774 -0.000945706 0)
(1.44851 -0.000864392 0)
(1.44893 -0.000832533 0)
(1.44983 -0.000738387 0)
(1.41389 -0.00308503 0)
(1.41527 -0.00294423 0)
(1.41658 -0.00280799 0)
(1.41784 -0.00267572 0)
(1.41903 -0.00254684 0)
(1.42017 -0.00242112 0)
(1.42125 -0.00229873 0)
(1.42227 -0.00217941 0)
(1.42324 -0.00206356 0)
(1.42416 -0.00195038 0)
(1.42502 -0.00184133 0)
(1.42584 -0.00173386 0)
(1.42661 -0.00163261 0)
(1.42734 -0.00152967 0)
(1.428 -0.001439 0)
(1.42866 -0.00133736 0)
(1.4292 -0.00126413 0)
(1.42985 -0.00115618 0)
(1.4302 -0.00111372 0)
(1.43097 -0.000988486 0)
(1.39211 -0.00372351 0)
(1.39319 -0.00355315 0)
(1.39423 -0.00338798 0)
(1.39522 -0.00322784 0)
(1.39615 -0.00307198 0)
(1.39705 -0.00292001 0)
(1.39789 -0.00277207 0)
(1.39869 -0.00262788 0)
(1.39945 -0.00248789 0)
(1.40017 -0.00235121 0)
(1.40085 -0.00221946 0)
(1.40149 -0.00208978 0)
(1.40208 -0.00196739 0)
(1.40265 -0.00184342 0)
(1.40316 -0.00173365 0)
(1.40368 -0.0016116 0)
(1.4041 -0.0015226 0)
(1.4046 -0.00139337 0)
(1.40487 -0.00134144 0)
(1.40547 -0.00119121 0)
(1.36389 -0.00419973 0)
(1.36465 -0.00400694 0)
(1.36537 -0.00381983 0)
(1.36606 -0.0036385 0)
(1.36671 -0.00346215 0)
(1.36732 -0.00329026 0)
(1.36791 -0.00312296 0)
(1.36846 -0.00295994 0)
(1.36899 -0.00280168 0)
(1.36948 -0.00264726 0)
(1.36994 -0.00249832 0)
(1.37038 -0.00235196 0)
(1.37079 -0.00221353 0)
(1.37118 -0.00207393 0)
(1.37153 -0.00194952 0)
(1.37188 -0.00181268 0)
(1.37216 -0.00171124 0)
(1.3725 -0.001567 0)
(1.37269 -0.0015071 0)
(1.37309 -0.00133891 0)
(1.32872 -0.00449942 0)
(1.32912 -0.00429208 0)
(1.32951 -0.00409076 0)
(1.32988 -0.00389566 0)
(1.33023 -0.00370597 0)
(1.33056 -0.00352115 0)
(1.33087 -0.00334129 0)
(1.33116 -0.00316609 0)
(1.33144 -0.002996 0)
(1.3317 -0.00283014 0)
(1.33194 -0.00267009 0)
(1.33217 -0.00251309 0)
(1.33238 -0.00236423 0)
(1.33258 -0.00221487 0)
(1.33276 -0.00208075 0)
(1.33294 -0.00193515 0)
(1.33308 -0.00182498 0)
(1.33326 -0.00167248 0)
(1.33335 -0.00160634 0)
(1.33355 -0.00142783 0)
(1.28602 -0.00461878 0)
(1.28609 -0.00440511 0)
(1.28614 -0.00419761 0)
(1.2862 -0.00399644 0)
(1.28625 -0.00380084 0)
(1.28629 -0.00361033 0)
(1.28633 -0.00342497 0)
(1.28637 -0.00324448 0)
(1.2864 -0.00306923 0)
(1.28643 -0.00289845 0)
(1.28646 -0.00273355 0)
(1.28648 -0.00257211 0)
(1.2865 -0.00241866 0)
(1.28652 -0.00226553 0)
(1.28653 -0.00212687 0)
(1.28654 -0.00197855 0)
(1.28655 -0.00186366 0)
(1.28656 -0.00170964 0)
(1.28656 -0.0016392 0)
(1.28657 -0.00145811 0)
(1.2353 -0.00456426 0)
(1.23504 -0.00435235 0)
(1.23479 -0.00414652 0)
(1.23455 -0.00394682 0)
(1.23432 -0.00375265 0)
(1.2341 -0.00356358 0)
(1.23389 -0.00337964 0)
(1.23368 -0.00320059 0)
(1.23349 -0.00302673 0)
(1.23331 -0.0028574 0)
(1.23313 -0.00269381 0)
(1.23296 -0.00253397 0)
(1.2328 -0.00238164 0)
(1.23265 -0.00223049 0)
(1.23251 -0.00209242 0)
(1.23237 -0.00194711 0)
(1.23225 -0.00183157 0)
(1.23212 -0.00168235 0)
(1.23203 -0.00160969 0)
(1.23187 -0.00143346 0)
(1.17609 -0.00435154 0)
(1.17554 -0.00414891 0)
(1.17502 -0.00395201 0)
(1.17452 -0.0037608 0)
(1.17404 -0.00357485 0)
(1.17359 -0.00339384 0)
(1.17316 -0.00321775 0)
(1.17275 -0.00304637 0)
(1.17235 -0.00287995 0)
(1.17198 -0.00271799 0)
(1.17163 -0.00256142 0)
(1.1713 -0.00240871 0)
(1.17098 -0.00226282 0)
(1.17069 -0.00211889 0)
(1.17041 -0.00198624 0)
(1.17015 -0.00184902 0)
(1.16991 -0.00173679 0)
(1.16966 -0.0015979 0)
(1.16949 -0.00152517 0)
(1.16919 -0.00136059 0)
(1.10802 -0.00400397 0)
(1.10723 -0.00381718 0)
(1.10649 -0.00363551 0)
(1.10578 -0.00345888 0)
(1.1051 -0.0032871 0)
(1.10446 -0.00311991 0)
(1.10384 -0.00295726 0)
(1.10326 -0.00279899 0)
(1.10271 -0.00264531 0)
(1.10219 -0.00249582 0)
(1.10169 -0.00235124 0)
(1.10123 -0.00221045 0)
(1.10079 -0.00207564 0)
(1.10037 -0.00194338 0)
(1.09999 -0.00182044 0)
(1.09962 -0.0016955 0)
(1.09929 -0.00159026 0)
(1.09895 -0.00146612 0)
(1.09872 -0.00139549 0)
(1.09831 -0.00124838 0)
(1.03081 -0.00355065 0)
(1.02985 -0.00338492 0)
(1.02894 -0.00322351 0)
(1.02807 -0.00306637 0)
(1.02724 -0.00291352 0)
(1.02646 -0.00276478 0)
(1.02571 -0.00262009 0)
(1.02501 -0.00247931 0)
(1.02434 -0.00234262 0)
(1.0237 -0.00220972 0)
(1.02311 -0.00208111 0)
(1.02254 -0.00195606 0)
(1.02201 -0.00183608 0)
(1.02151 -0.00171899 0)
(1.02105 -0.00160926 0)
(1.02061 -0.00149971 0)
(1.02022 -0.00140466 0)
(1.0198 -0.00129839 0)
(1.01952 -0.00123199 0)
(1.01904 -0.00110702 0)
(0.944281 -0.00302421 0)
(0.943217 -0.00288323 0)
(0.942202 -0.00274561 0)
(0.941235 -0.00261145 0)
(0.940316 -0.00248096 0)
(0.939443 -0.00235399 0)
(0.938615 -0.00223049 0)
(0.937831 -0.00211034 0)
(0.937089 -0.00199367 0)
(0.936388 -0.00188027 0)
(0.935727 -0.00177049 0)
(0.935104 -0.00166388 0)
(0.93452 -0.00156142 0)
(0.933971 -0.00146188 0)
(0.93346 -0.00136794 0)
(0.932974 -0.00127577 0)
(0.932541 -0.00119344 0)
(0.932093 -0.00110675 0)
(0.931781 -0.00104662 0)
(0.931258 -0.000947103 0)
(0.848367 -0.00245886 0)
(0.847259 -0.00234458 0)
(0.846203 -0.0022327 0)
(0.845199 -0.00212349 0)
(0.844244 -0.00201729 0)
(0.843337 -0.00191398 0)
(0.842478 -0.00181349 0)
(0.841664 -0.00171574 0)
(0.840895 -0.0016208 0)
(0.840169 -0.00152855 0)
(0.839485 -0.0014392 0)
(0.838841 -0.00135252 0)
(0.838237 -0.0012691 0)
(0.83767 -0.00118837 0)
(0.837142 -0.00111174 0)
(0.836643 -0.00103779 0)
(0.836194 -0.000969881 0)
(0.835737 -0.000903101 0)
(0.83541 -0.000851059 0)
(0.834879 -0.000778881 0)
(0.743069 -0.00188852 0)
(0.741982 -0.00180118 0)
(0.740947 -0.00171534 0)
(0.739962 -0.0016315 0)
(0.739026 -0.00155002 0)
(0.738138 -0.00147077 0)
(0.737296 -0.00139367 0)
(0.736499 -0.00131868 0)
(0.735746 -0.00124583 0)
(0.735036 -0.00117504 0)
(0.734367 -0.00110647 0)
(0.733738 -0.00103998 0)
(0.733148 -0.000975925 0)
(0.732595 -0.000914141 0)
(0.732079 -0.000855207 0)
(0.731593 -0.000799245 0)
(0.731153 -0.000746512 0)
(0.730711 -0.000698667 0)
(0.730384 -0.00065621 0)
(0.729876 -0.000611621 0)
(0.628461 -0.00134533 0)
(0.627456 -0.00128352 0)
(0.626498 -0.00122251 0)
(0.625587 -0.00116296 0)
(0.624722 -0.00110512 0)
(0.6239 -0.00104887 0)
(0.623122 -0.000994148 0)
(0.622385 -0.000940905 0)
(0.62169 -0.000889175 0)
(0.621033 -0.000838906 0)
(0.620415 -0.000790184 0)
(0.619834 -0.000742964 0)
(0.619289 -0.000697431 0)
(0.618777 -0.000653635 0)
(0.618301 -0.0006117 0)
(0.617852 -0.0005725 0)
(0.617444 -0.000534673 0)
(0.617039 -0.00050366 0)
(0.616729 -0.000471718 0)
(0.616265 -0.000453154 0)
(0.504663 -0.000858398 0)
(0.503795 -0.000819278 0)
(0.502968 -0.000780505 0)
(0.502181 -0.000742736 0)
(0.501434 -0.000706095 0)
(0.500724 -0.000670455 0)
(0.500051 -0.000635769 0)
(0.499415 -0.000602014 0)
(0.498813 -0.000569207 0)
(0.498245 -0.000537319 0)
(0.497711 -0.000506394 0)
(0.497208 -0.000476425 0)
(0.496736 -0.000447504 0)
(0.496293 -0.000419759 0)
(0.49588 -0.0003931 0)
(0.495492 -0.00036859 0)
(0.495136 -0.00034437 0)
(0.494786 -0.000327173 0)
(0.49451 -0.000305765 0)
(0.494109 -0.000309458 0)
(0.371821 -0.00045481 0)
(0.371142 -0.000434282 0)
(0.370494 -0.000413873 0)
(0.369877 -0.000394076 0)
(0.369291 -0.000374895 0)
(0.368734 -0.000356228 0)
(0.368207 -0.000338049 0)
(0.367706 -0.000320351 0)
(0.367234 -0.000303142 0)
(0.366787 -0.000286406 0)
(0.366366 -0.000270162 0)
(0.36597 -0.000254422 0)
(0.365598 -0.000239219 0)
(0.365249 -0.000224674 0)
(0.364922 -0.000210632 0)
(0.364615 -0.000197999 0)
(0.364332 -0.000185115 0)
(0.364056 -0.000177997 0)
(0.36383 -0.000165953 0)
(0.363507 -0.0001849 0)
(0.230085 -0.000166789 0)
(0.229641 -0.000159375 0)
(0.229217 -0.000151992 0)
(0.228814 -0.000144885 0)
(0.22843 -0.000138004 0)
(0.228066 -0.000131299 0)
(0.227719 -0.000124762 0)
(0.227391 -0.000118393 0)
(0.22708 -0.000112196 0)
(0.226786 -0.000106164 0)
(0.226508 -0.000100302 0)
(0.226246 -9.46181e-05 0)
(0.226 -8.91233e-05 0)
(0.225769 -8.38855e-05 0)
(0.225553 -7.87804e-05 0)
(0.225349 -7.43672e-05 0)
(0.22516 -6.95557e-05 0)
(0.224975 -6.8239e-05 0)
(0.224819 -6.32325e-05 0)
(0.224592 -8.54366e-05 0)
(0.0795855 -2.81767e-05 0)
(0.0794222 -2.6947e-05 0)
(0.0792664 -2.57344e-05 0)
(0.0791179 -2.4589e-05 0)
(0.0789762 -2.34816e-05 0)
(0.0788413 -2.23964e-05 0)
(0.0787129 -2.1338e-05 0)
(0.078591 -2.03051e-05 0)
(0.0784753 -1.92966e-05 0)
(0.0783657 -1.83143e-05 0)
(0.078262 -1.73574e-05 0)
(0.0781641 -1.64286e-05 0)
(0.0780717 -1.55297e-05 0)
(0.0779847 -1.46792e-05 0)
(0.0779029 -1.38297e-05 0)
(0.0778256 -1.31627e-05 0)
(0.0777537 -1.23076e-05 0)
(0.0776831 -1.25464e-05 0)
(0.0776214 -1.15242e-05 0)
(0.0775208 -2.15818e-05 0)
)
;

boundaryField
{
    fixedWalls
    {
        type            noSlip;
    }
    inlet
    {
        type            fixedValue;
        value           nonuniform 0();
    }
    outlet
    {
        type            zeroGradient;
    }
    frontAndBack
    {
        type            empty;
    }
    procBoundary7to3
    {
        type            processor;
        value           nonuniform List<vector> 
20
(
(1.44513 0.000488762 0)
(1.447 0.000467129 0)
(1.44878 0.000446548 0)
(1.45049 0.0004267 0)
(1.45211 0.00040717 0)
(1.45366 0.000388083 0)
(1.45513 0.000369526 0)
(1.45652 0.000351438 0)
(1.45784 0.000333924 0)
(1.4591 0.000316833 0)
(1.46028 0.000300405 0)
(1.4614 0.00028418 0)
(1.46244 0.000269005 0)
(1.46344 0.000253417 0)
(1.46435 0.000239901 0)
(1.46526 0.000224301 0)
(1.466 0.000213553 0)
(1.46689 0.000196739 0)
(1.46738 0.000190778 0)
(1.46843 0.000170619 0)
)
;
    }
    procBoundary7to6
    {
        type            processor;
        value           nonuniform List<vector> 
20
(
(1.44317 -0.000503482 0)
(1.43818 -0.00149491 0)
(1.42804 -0.00241725 0)
(1.41244 -0.00322968 0)
(1.39096 -0.00389808 0)
(1.3631 -0.00439707 0)
(1.32829 -0.00471162 0)
(1.28596 -0.0048376 0)
(1.23557 -0.00478153 0)
(1.17666 -0.0045596 0)
(1.10884 -0.00419611 0)
(1.03181 -0.0037214 0)
(0.945399 -0.00316966 0)
(0.84953 -0.00257679 0)
(0.744209 -0.00197851 0)
(0.629514 -0.00140876 0)
(0.505572 -0.000898243 0)
(0.372532 -0.000475462 0)
(0.230549 -0.000174089 0)
(0.0797559 -2.93227e-05 0)
)
;
    }
}


// ************************************************************************* //
