/*--------------------------------*- C++ -*----------------------------------*\
| =========                 |                                                 |
| \\      /  F ield         | OpenFOAM: The Open Source CFD Toolbox           |
|  \\    /   O peration     | Version:                                        |
|   \\  /    A nd           | Website:  www.openfoam.com                      |
|    \\/     M anipulation  |                                                 |
\*---------------------------------------------------------------------------*/
FoamFile
{
    version     2.0;
    format      ascii;
    class       volScalarField;
    location    "0.8";
    object      p;
}
// * * * * * * * * * * * * * * * * * * * * * * * * * * * * * * * * * * * * * //

dimensions      [0 2 -2 0 0 0 0];


internalField   nonuniform List<scalar> 
400
(
0.278212
0.270294
0.262442
0.254655
0.24693
0.239264
0.231657
0.224106
0.216609
0.209163
0.201769
0.194423
0.187124
0.17987
0.172661
0.165493
0.158367
0.15128
0.144231
0.13722
0.278371
0.270446
0.262587
0.254794
0.247063
0.239392
0.231779
0.224223
0.216721
0.209271
0.201872
0.194522
0.187219
0.179962
0.172748
0.165578
0.158448
0.151358
0.144307
0.137292
0.278508
0.270576
0.262712
0.254912
0.247176
0.2395
0.231883
0.224322
0.216816
0.209362
0.20196
0.194606
0.1873
0.180039
0.172823
0.165649
0.158517
0.151424
0.14437
0.137353
0.278621
0.270683
0.262814
0.25501
0.247269
0.239589
0.231967
0.224403
0.216893
0.209436
0.20203
0.194674
0.187365
0.180101
0.172882
0.165706
0.158572
0.151477
0.144421
0.137402
0.278725
0.270782
0.262908
0.255099
0.247354
0.23967
0.232045
0.224476
0.216963
0.209503
0.202094
0.194735
0.187423
0.180157
0.172936
0.165758
0.158621
0.151524
0.144466
0.137445
0.278829
0.27088
0.263
0.255187
0.247437
0.239748
0.23212
0.224548
0.217031
0.209568
0.202156
0.194794
0.187479
0.180211
0.172987
0.165807
0.158668
0.151569
0.144509
0.137486
0.278935
0.27098
0.263095
0.255276
0.247521
0.239828
0.232195
0.224619
0.217099
0.209632
0.202217
0.194852
0.187535
0.180264
0.173038
0.165855
0.158714
0.151613
0.144551
0.137526
0.279047
0.271086
0.263194
0.255369
0.247609
0.239911
0.232273
0.224694
0.21717
0.209699
0.202281
0.194912
0.187592
0.180319
0.17309
0.165905
0.158761
0.151658
0.144594
0.137568
0.279169
0.271199
0.2633
0.255469
0.247703
0.24
0.232357
0.224773
0.217244
0.20977
0.202348
0.194976
0.187653
0.180376
0.173145
0.165957
0.158811
0.151706
0.144639
0.137611
0.279299
0.271321
0.263415
0.255576
0.247804
0.240095
0.232447
0.224858
0.217325
0.209846
0.20242
0.195044
0.187718
0.180438
0.173203
0.166013
0.158864
0.151756
0.144688
0.137657
0.279439
0.271452
0.263537
0.255691
0.247912
0.240197
0.232543
0.224948
0.21741
0.209927
0.202497
0.195117
0.187787
0.180503
0.173266
0.166072
0.158921
0.15181
0.144739
0.137706
0.279585
0.271589
0.263665
0.255812
0.248025
0.240303
0.232643
0.225043
0.2175
0.210012
0.202577
0.195194
0.187859
0.180572
0.173331
0.166134
0.15898
0.151867
0.144793
0.137757
0.279734
0.271728
0.263796
0.255934
0.248141
0.240412
0.232746
0.22514
0.217592
0.210099
0.20266
0.195272
0.187934
0.180643
0.173399
0.166198
0.159041
0.151925
0.144848
0.13781
0.27988
0.271865
0.263925
0.256056
0.248255
0.24052
0.232848
0.225237
0.217683
0.210186
0.202742
0.19535
0.188008
0.180714
0.173466
0.166262
0.159102
0.151983
0.144904
0.137863
0.280019
0.271996
0.264048
0.256171
0.248364
0.240623
0.232946
0.225329
0.21777
0.210268
0.20282
0.195425
0.188079
0.180781
0.17353
0.166324
0.15916
0.152039
0.144957
0.137914
0.280144
0.272114
0.264159
0.256277
0.248464
0.240717
0.233034
0.225413
0.21785
0.210344
0.202892
0.195493
0.188144
0.180843
0.173589
0.16638
0.159214
0.15209
0.145006
0.137961
0.280252
0.272215
0.264254
0.256367
0.248549
0.240798
0.233111
0.225485
0.217919
0.210409
0.202954
0.195552
0.1882
0.180897
0.17364
0.166429
0.15926
0.152134
0.145048
0.138001
0.280337
0.272295
0.26433
0.256438
0.248616
0.240862
0.233171
0.225543
0.217974
0.210461
0.203004
0.195599
0.188245
0.180939
0.173681
0.166467
0.159297
0.15217
0.145082
0.138034
0.280395
0.27235
0.264382
0.256487
0.248663
0.240906
0.233213
0.225583
0.218012
0.210497
0.203038
0.195632
0.188276
0.180969
0.173709
0.166494
0.159323
0.152194
0.145106
0.138056
0.280425
0.272379
0.264409
0.256513
0.248687
0.240929
0.233235
0.225603
0.218031
0.210516
0.203056
0.195648
0.188292
0.180984
0.173724
0.166508
0.159337
0.152207
0.145118
0.138068
)
;

boundaryField
{
    fixedWalls
    {
        type            zeroGradient;
    }
    inlet
    {
        type            zeroGradient;
    }
    outlet
    {
        type            fixedValue;
        value           nonuniform 0();
    }
    frontAndBack
    {
        type            empty;
    }
    procBoundary2to1
    {
        type            processor;
        value           nonuniform List<scalar> 
20
(
0.2862
0.286367
0.28651
0.286628
0.286739
0.286849
0.286962
0.287082
0.287212
0.287352
0.287501
0.287657
0.287816
0.287973
0.288121
0.288254
0.288369
0.288459
0.288521
0.288553
)
;
    }
    procBoundary2to3
    {
        type            processor;
        value           nonuniform List<scalar> 
20
(
0.130244
0.130313
0.130372
0.130419
0.13046
0.1305
0.130538
0.130578
0.130619
0.130663
0.13071
0.130759
0.130809
0.13086
0.130908
0.130953
0.130992
0.131023
0.131044
0.131055
)
;
    }
    procBoundary2to6
    {
        type            processor;
        value           nonuniform List<scalar> 
20
(
0.280425
0.272379
0.264409
0.256513
0.248687
0.240929
0.233235
0.225603
0.218031
0.210516
0.203056
0.195648
0.188292
0.180984
0.173724
0.166508
0.159337
0.152207
0.145118
0.138068
)
;
    }
}


// ************************************************************************* //
