/*--------------------------------*- C++ -*----------------------------------*\
| =========                 |                                                 |
| \\      /  F ield         | OpenFOAM: The Open Source CFD Toolbox           |
|  \\    /   O peration     | Version:                                        |
|   \\  /    A nd           | Website:  www.openfoam.com                      |
|    \\/     M anipulation  |                                                 |
\*---------------------------------------------------------------------------*/
FoamFile
{
    version     2.0;
    format      ascii;
    class       volVectorField;
    location    "0.8";
    object      U;
}
// * * * * * * * * * * * * * * * * * * * * * * * * * * * * * * * * * * * * * //

dimensions      [0 1 -1 0 0 0 0];


internalField   nonuniform List<vector> 
400
(
(0.0848247 6.42657e-05 0)
(0.0844435 6.15134e-05 0)
(0.0840788 5.89157e-05 0)
(0.0837298 5.6459e-05 0)
(0.0833955 5.41332e-05 0)
(0.0830751 5.19276e-05 0)
(0.0827679 4.98335e-05 0)
(0.0824732 4.78436e-05 0)
(0.0821904 4.59497e-05 0)
(0.081919 4.41459e-05 0)
(0.0816583 4.24263e-05 0)
(0.0814078 4.07848e-05 0)
(0.0811672 3.92175e-05 0)
(0.0809359 3.77194e-05 0)
(0.0807135 3.62862e-05 0)
(0.0804996 3.49145e-05 0)
(0.0802939 3.36009e-05 0)
(0.0800959 3.23424e-05 0)
(0.0799055 3.11359e-05 0)
(0.0797222 2.99782e-05 0)
(0.244526 0.000391237 0)
(0.243468 0.000374094 0)
(0.242456 0.000357945 0)
(0.241488 0.000342705 0)
(0.240562 0.000328301 0)
(0.239675 0.000314667 0)
(0.238825 0.000301744 0)
(0.23801 0.000289479 0)
(0.237228 0.000277826 0)
(0.236478 0.000266741 0)
(0.235758 0.000256187 0)
(0.235067 0.000246126 0)
(0.234403 0.000236529 0)
(0.233765 0.000227366 0)
(0.233151 0.000218611 0)
(0.232562 0.00021024 0)
(0.231995 0.000202231 0)
(0.23145 0.000194564 0)
(0.230926 0.00018722 0)
(0.230422 0.000180181 0)
(0.39411 0.0010827 0)
(0.392468 0.00103466 0)
(0.3909 0.000989461 0)
(0.3894 0.000946848 0)
(0.387965 0.000906613 0)
(0.386592 0.000868562 0)
(0.385276 0.000832525 0)
(0.384016 0.000798354 0)
(0.382807 0.00076591 0)
(0.381648 0.000735071 0)
(0.380536 0.000705728 0)
(0.379468 0.000677778 0)
(0.378443 0.000651131 0)
(0.377458 0.000625706 0)
(0.376512 0.000601428 0)
(0.375603 0.000578227 0)
(0.37473 0.000556041 0)
(0.373889 0.000534812 0)
(0.373082 0.000514488 0)
(0.372305 0.00049502 0)
(0.5333 0.00206288 0)
(0.531183 0.00197057 0)
(0.529161 0.00188377 0)
(0.527228 0.001802 0)
(0.52538 0.00172484 0)
(0.523612 0.0016519 0)
(0.521919 0.00158287 0)
(0.520296 0.00151745 0)
(0.518742 0.00145536 0)
(0.517251 0.00139637 0)
(0.515821 0.00134027 0)
(0.51445 0.00128686 0)
(0.513133 0.00123596 0)
(0.511868 0.00118742 0)
(0.510654 0.00114108 0)
(0.509487 0.00109681 0)
(0.508366 0.0010545 0)
(0.507288 0.00101403 0)
(0.506252 0.000975297 0)
(0.505256 0.000938208 0)
(0.661755 0.00325529 0)
(0.659288 0.00310873 0)
(0.656932 0.00297097 0)
(0.654682 0.00284123 0)
(0.652529 0.00271885 0)
(0.650471 0.00260323 0)
(0.6485 0.00249383 0)
(0.646612 0.00239018 0)
(0.644804 0.00229186 0)
(0.64307 0.00219847 0)
(0.641407 0.00210968 0)
(0.639812 0.00202517 0)
(0.638282 0.00194467 0)
(0.636813 0.00186791 0)
(0.635402 0.00179466 0)
(0.634047 0.00172471 0)
(0.632745 0.00165787 0)
(0.631494 0.00159395 0)
(0.630292 0.00153279 0)
(0.629136 0.00147424 0)
(0.779121 0.00459087 0)
(0.776448 0.0043834 0)
(0.773896 0.00418839 0)
(0.771457 0.00400478 0)
(0.769125 0.0038316 0)
(0.766895 0.00366801 0)
(0.76476 0.00351324 0)
(0.762715 0.00336663 0)
(0.760756 0.00322757 0)
(0.758879 0.00309552 0)
(0.757078 0.00296999 0)
(0.755351 0.00285054 0)
(0.753695 0.00273677 0)
(0.752104 0.00262831 0)
(0.750578 0.00252483 0)
(0.749112 0.00242603 0)
(0.747703 0.00233163 0)
(0.74635 0.00224138 0)
(0.74505 0.00215504 0)
(0.743801 0.00207241 0)
(0.885085 0.00599245 0)
(0.882367 0.00572134 0)
(0.87977 0.00546647 0)
(0.877289 0.00522644 0)
(0.874915 0.00500002 0)
(0.872644 0.0047861 0)
(0.87047 0.00458371 0)
(0.868388 0.00439198 0)
(0.866393 0.00421011 0)
(0.86448 0.00403741 0)
(0.862647 0.00387323 0)
(0.860888 0.00371701 0)
(0.8592 0.00356821 0)
(0.857581 0.00342637 0)
(0.856026 0.00329106 0)
(0.854533 0.00316187 0)
(0.853099 0.00303845 0)
(0.851722 0.00292046 0)
(0.850399 0.00280761 0)
(0.849127 0.00269961 0)
(0.979438 0.00737395 0)
(0.976846 0.00704097 0)
(0.974369 0.00672775 0)
(0.971998 0.00643261 0)
(0.96973 0.00615408 0)
(0.967559 0.00589083 0)
(0.965479 0.00564167 0)
(0.963486 0.00540556 0)
(0.961576 0.00518154 0)
(0.959745 0.00496876 0)
(0.957988 0.00476645 0)
(0.956303 0.0045739 0)
(0.954687 0.00439049 0)
(0.953135 0.00421564 0)
(0.951645 0.00404882 0)
(0.950214 0.00388954 0)
(0.94884 0.00373737 0)
(0.947521 0.0035919 0)
(0.946252 0.00345276 0)
(0.945034 0.00331961 0)
(1.06213 0.00864529 0)
(1.05984 0.00825686 0)
(1.05765 0.00789113 0)
(1.05554 0.00754622 0)
(1.05353 0.00722046 0)
(1.0516 0.00691234 0)
(1.04975 0.00662055 0)
(1.04798 0.00634387 0)
(1.04627 0.00608123 0)
(1.04464 0.00583165 0)
(1.04308 0.00559427 0)
(1.04157 0.00536826 0)
(1.04013 0.00515292 0)
(1.03874 0.00494757 0)
(1.03741 0.00475161 0)
(1.03614 0.00456448 0)
(1.03491 0.00438567 0)
(1.03373 0.00421471 0)
(1.0326 0.00405117 0)
(1.03151 0.00389467 0)
(1.13333 0.00971812 0)
(1.1315 0.00928507 0)
(1.12975 0.00887678 0)
(1.12806 0.00849125 0)
(1.12644 0.00812671 0)
(1.12489 0.00778158 0)
(1.1234 0.00745444 0)
(1.12197 0.00714398 0)
(1.1206 0.00684906 0)
(1.11928 0.00656863 0)
(1.11801 0.00630173 0)
(1.11679 0.0060475 0)
(1.11562 0.00580514 0)
(1.1145 0.00557393 0)
(1.11342 0.00535322 0)
(1.11238 0.00514238 0)
(1.11138 0.00494087 0)
(1.11043 0.00474816 0)
(1.10951 0.00456378 0)
(1.10862 0.00438729 0)
(1.19342 0.0105119 0)
(1.1922 0.0100487 0)
(1.19102 0.00961129 0)
(1.18989 0.00919759 0)
(1.18879 0.00880586 0)
(1.18774 0.00843451 0)
(1.18673 0.00808208 0)
(1.18575 0.00774729 0)
(1.18481 0.00742894 0)
(1.1839 0.00712597 0)
(1.18303 0.00683739 0)
(1.18219 0.00656231 0)
(1.18139 0.00629992 0)
(1.18061 0.00604946 0)
(1.17987 0.00581024 0)
(1.17915 0.00558163 0)
(1.17846 0.00536304 0)
(1.1778 0.00515393 0)
(1.17716 0.0049538 0)
(1.17655 0.00476219 0)
(1.24304 0.01096 0)
(1.24254 0.0104838 0)
(1.24205 0.0100331 0)
(1.24157 0.00960609 0)
(1.2411 0.00920106 0)
(1.24064 0.00881652 0)
(1.2402 0.00845106 0)
(1.23977 0.00810344 0)
(1.23935 0.00777252 0)
(1.23894 0.00745725 0)
(1.23855 0.00715667 0)
(1.23816 0.0068699 0)
(1.2378 0.00659615 0)
(1.23744 0.00633467 0)
(1.2371 0.00608477 0)
(1.23677 0.00584582 0)
(1.23645 0.00561723 0)
(1.23614 0.00539846 0)
(1.23585 0.005189 0)
(1.23556 0.00498839 0)
(1.28305 0.0110149 0)
(1.28335 0.0105439 0)
(1.28361 0.0100971 0)
(1.28386 0.009673 0)
(1.28408 0.00926993 0)
(1.28428 0.00888658 0)
(1.28447 0.00852168 0)
(1.28465 0.0081741 0)
(1.28481 0.00784277 0)
(1.28496 0.00752674 0)
(1.2851 0.00722511 0)
(1.28523 0.00693706 0)
(1.28535 0.00666185 0)
(1.28547 0.00639876 0)
(1.28558 0.00614714 0)
(1.28568 0.00590639 0)
(1.28578 0.00567595 0)
(1.28588 0.00545529 0)
(1.28596 0.00524394 0)
(1.28605 0.00504142 0)
(1.31449 0.0106515 0)
(1.3156 0.0102039 0)
(1.31665 0.00977835 0)
(1.31765 0.00937342 0)
(1.31859 0.00898784 0)
(1.31949 0.00862043 0)
(1.32034 0.00827013 0)
(1.32115 0.00793593 0)
(1.32193 0.00761692 0)
(1.32266 0.00731224 0)
(1.32337 0.00702112 0)
(1.32404 0.00674281 0)
(1.32468 0.00647665 0)
(1.32529 0.006222 0)
(1.32588 0.00597826 0)
(1.32645 0.00574489 0)
(1.32699 0.00552137 0)
(1.3275 0.00530722 0)
(1.328 0.005102 0)
(1.32848 0.00490527 0)
(1.33849 0.00986897 0)
(1.3404 0.00946159 0)
(1.34222 0.00907333 0)
(1.34396 0.00870307 0)
(1.34561 0.00834978 0)
(1.34719 0.00801252 0)
(1.3487 0.0076904 0)
(1.35014 0.00738261 0)
(1.35152 0.0070884 0)
(1.35284 0.00680704 0)
(1.35411 0.00653789 0)
(1.35532 0.00628031 0)
(1.35648 0.00603372 0)
(1.35759 0.0057976 0)
(1.35865 0.00557142 0)
(1.35968 0.00535471 0)
(1.36066 0.00514701 0)
(1.3616 0.00494791 0)
(1.36251 0.004757 0)
(1.36338 0.00457392 0)
(1.35623 0.00868967 0)
(1.35888 0.00833711 0)
(1.36141 0.00800031 0)
(1.36383 0.00767844 0)
(1.36615 0.00737072 0)
(1.36836 0.00707644 0)
(1.37049 0.00679491 0)
(1.37252 0.0065255 0)
(1.37446 0.00626762 0)
(1.37633 0.00602071 0)
(1.37812 0.00578424 0)
(1.37984 0.00555771 0)
(1.38148 0.00534066 0)
(1.38307 0.00513263 0)
(1.38458 0.00493321 0)
(1.38604 0.00474201 0)
(1.38744 0.00455866 0)
(1.38879 0.00438278 0)
(1.39008 0.00421407 0)
(1.39132 0.0040522 0)
(1.36885 0.00715707 0)
(1.37213 0.00687117 0)
(1.37528 0.00659748 0)
(1.37829 0.00633543 0)
(1.38118 0.00608446 0)
(1.38395 0.00584405 0)
(1.3866 0.00561374 0)
(1.38915 0.00539304 0)
(1.3916 0.00518153 0)
(1.39394 0.0049788 0)
(1.3962 0.00478444 0)
(1.39836 0.00459809 0)
(1.40043 0.00441937 0)
(1.40243 0.00424796 0)
(1.40434 0.00408354 0)
(1.40618 0.0039258 0)
(1.40795 0.00377444 0)
(1.40965 0.00362919 0)
(1.41129 0.00348978 0)
(1.41286 0.00335599 0)
(1.37734 0.00533207 0)
(1.38112 0.00512178 0)
(1.38476 0.00492013 0)
(1.38824 0.00472675 0)
(1.39159 0.00454128 0)
(1.3948 0.00436339 0)
(1.39789 0.00419275 0)
(1.40085 0.00402907 0)
(1.40369 0.00387204 0)
(1.40642 0.00372139 0)
(1.40905 0.00357686 0)
(1.41157 0.00343816 0)
(1.41399 0.00330507 0)
(1.41632 0.00317733 0)
(1.41855 0.00305474 0)
(1.4207 0.00293706 0)
(1.42277 0.0028241 0)
(1.42476 0.00271564 0)
(1.42667 0.00261151 0)
(1.4285 0.00251156 0)
(1.38252 0.003289 0)
(1.38665 0.00316047 0)
(1.39062 0.00303706 0)
(1.39444 0.00291858 0)
(1.3981 0.00280484 0)
(1.40162 0.00269564 0)
(1.405 0.00259081 0)
(1.40825 0.00249017 0)
(1.41137 0.00239355 0)
(1.41438 0.0023008 0)
(1.41726 0.00221176 0)
(1.42003 0.00212628 0)
(1.4227 0.00204421 0)
(1.42526 0.0019654 0)
(1.42772 0.00188973 0)
(1.43009 0.00181709 0)
(1.43236 0.00174733 0)
(1.43455 0.00168033 0)
(1.43666 0.00161598 0)
(1.43868 0.00155419 0)
(1.38496 0.00111148 0)
(1.38927 0.00106827 0)
(1.39341 0.00102674 0)
(1.3974 0.000986842 0)
(1.40122 0.000948517 0)
(1.4049 0.000911706 0)
(1.40844 0.000876353 0)
(1.41183 0.000842407 0)
(1.4151 0.000809813 0)
(1.41824 0.000778503 0)
(1.42126 0.000748421 0)
(1.42416 0.000719541 0)
(1.42695 0.000691821 0)
(1.42963 0.000665197 0)
(1.43221 0.000639616 0)
(1.43469 0.000615045 0)
(1.43707 0.000591457 0)
(1.43936 0.000568821 0)
(1.44157 0.000547089 0)
(1.44369 0.000526143 0)
)
;

boundaryField
{
    fixedWalls
    {
        type            noSlip;
    }
    inlet
    {
        type            fixedValue;
        value           nonuniform 0();
    }
    outlet
    {
        type            zeroGradient;
    }
    frontAndBack
    {
        type            empty;
    }
    procBoundary2to1
    {
        type            processor;
        value           nonuniform List<vector> 
20
(
(0.0852234 6.71865e-05 0)
(0.245634 0.000409469 0)
(0.39583 0.00113384 0)
(0.535519 0.00216122 0)
(0.664341 0.00341151 0)
(0.781922 0.00481204 0)
(0.887932 0.00628138 0)
(0.98215 0.00772858 0)
(1.06453 0.00905853 0)
(1.13523 0.0101782 0)
(1.19468 0.011003 0)
(1.24355 0.0114639 0)
(1.28273 0.011512 0)
(1.31331 0.0111227 0)
(1.33648 0.0102967 0)
(1.35346 0.00905888 0)
(1.36542 0.00745579 0)
(1.37339 0.00555137 0)
(1.37821 0.00342286 0)
(1.38047 0.00115646 0)
)
;
    }
    procBoundary2to3
    {
        type            processor;
        value           nonuniform List<vector> 
20
(
(0.0795458 2.88678e-05 0)
(0.229936 0.000173434 0)
(0.371557 0.000476365 0)
(0.504298 0.000902679 0)
(0.628025 0.00141817 0)
(0.7426 0.00199329 0)
(0.847904 0.00259621 0)
(0.943863 0.00319213 0)
(1.03046 0.00374482 0)
(1.10777 0.00421829 0)
(1.17596 0.00457866 0)
(1.23529 0.00479618 0)
(1.28613 0.00484732 0)
(1.32894 0.00471665 0)
(1.36421 0.0043983 0)
(1.39251 0.00389687 0)
(1.41437 0.00322755 0)
(1.43027 0.00241558 0)
(1.44063 0.00149488 0)
(1.44573 0.000506086 0)
)
;
    }
    procBoundary2to6
    {
        type            processor;
        value           nonuniform List<vector> 
20
(
(1.38496 -0.00111144 0)
(1.38927 -0.00106819 0)
(1.39341 -0.00102665 0)
(1.3974 -0.000986754 0)
(1.40122 -0.000948429 0)
(1.4049 -0.000911618 0)
(1.40844 -0.000876262 0)
(1.41183 -0.0008423 0)
(1.4151 -0.000809677 0)
(1.41824 -0.000778356 0)
(1.42126 -0.000748292 0)
(1.42416 -0.000719416 0)
(1.42695 -0.000691672 0)
(1.42963 -0.000665028 0)
(1.43221 -0.000639452 0)
(1.43469 -0.000614896 0)
(1.43707 -0.000591303 0)
(1.43936 -0.000568622 0)
(1.44157 -0.000546822 0)
(1.44369 -0.000525956 0)
)
;
    }
}


// ************************************************************************* //
