/*--------------------------------*- C++ -*----------------------------------*\
| =========                 |                                                 |
| \\      /  F ield         | OpenFOAM: The Open Source CFD Toolbox           |
|  \\    /   O peration     | Version:                                        |
|   \\  /    A nd           | Website:  www.openfoam.com                      |
|    \\/     M anipulation  |                                                 |
\*---------------------------------------------------------------------------*/
FoamFile
{
    version     2.0;
    format      ascii;
    class       volVectorField;
    location    "194.8";
    object      U;
}
// * * * * * * * * * * * * * * * * * * * * * * * * * * * * * * * * * * * * * //

dimensions      [0 1 -1 0 0 0 0];


internalField   nonuniform List<vector> 
1150
(
(0.855786 -0.0222192 -4.66493e-21)
(0.843813 -0.0242989 1.08212e-20)
(0.83072 -0.0267688 -6.0264e-21)
(0.8544 -0.0029396 -3.17961e-21)
(0.842444 -0.00333757 2.71732e-21)
(0.829226 -0.00349215 -3.01831e-20)
(0.85515 0.0145978 -5.37847e-21)
(0.844195 0.0156837 4.13631e-20)
(0.83187 0.0176273 -5.13171e-20)
(0.859293 0.0360078 1.52406e-21)
(0.850104 0.0383695 1.22222e-20)
(0.865354 0.0529408 5.6643e-21)
(0.858011 0.0563494 1.02148e-19)
(0.875275 0.0731044 -2.76366e-20)
(0.999809 0.000237333 -2.00139e-22)
(1.00434 -0.00274543 -5.80055e-23)
(1.00278 -0.0103451 3.72959e-23)
(1.00259 -0.00225403 -1.55838e-22)
(0.999656 -0.00167223 4.22673e-23)
(1.00038 -0.00260359 1.80566e-22)
(0.998099 0.00162941 -1.65588e-22)
(0.997422 -0.000121736 1.02263e-23)
(0.996539 -0.00726736 -9.63792e-23)
(0.995593 -0.00188733 1.5097e-22)
(0.993072 -0.00782686 -1.02875e-22)
(0.991603 -0.00968435 3.73769e-23)
(0.989995 -0.00827502 -3.52028e-22)
(0.987254 -0.00813684 2.86213e-22)
(0.983981 -0.00901769 -2.27348e-22)
(0.980678 -0.00799749 4.95307e-22)
(0.976749 -0.00776428 3.12959e-23)
(0.972468 -0.00687128 -1.02188e-21)
(0.967158 -0.00791817 1.0859e-21)
(0.962378 -0.00742931 -3.2138e-22)
(0.956224 -0.00870793 7.62396e-22)
(0.95011 -0.00860745 -1.9259e-21)
(0.942338 -0.010475 2.55644e-22)
(0.934875 -0.0108949 1.20363e-21)
(0.925925 -0.0129888 3.29606e-22)
(0.916583 -0.0136873 -3.33239e-21)
(0.905939 -0.0158156 2.71115e-21)
(0.894681 -0.0166745 -1.52806e-22)
(0.88227 -0.0188386 5.49376e-22)
(0.868875 -0.0200781 2.76169e-21)
(0.999616 -0.000935224 8.5914e-22)
(1.00308 -0.00110101 -1.35871e-22)
(1.0046 -0.0121503 -5.30941e-22)
(1.00353 -0.000184157 2.2527e-22)
(0.998836 -0.00307465 -3.99986e-22)
(1.00044 -0.000599066 6.47787e-22)
(0.997028 0.000583007 -2.51668e-22)
(0.99581 0.00131064 -5.11821e-22)
(0.996423 -0.00810006 4.23344e-22)
(0.995615 -9.95987e-05 -7.57863e-22)
(0.992904 -0.00849481 3.53953e-22)
(0.991899 -0.00768238 -2.50037e-22)
(0.991388 -0.00829 4.01123e-22)
(0.987368 -0.00593541 -2.38831e-22)
(0.984385 -0.00807894 2.1228e-21)
(0.980919 -0.00506588 -3.27155e-21)
(0.976502 -0.00609759 2.90774e-21)
(0.971959 -0.0032394 2.29332e-21)
(0.96599 -0.00513711 -2.89857e-21)
(0.961509 -0.00269779 2.94361e-21)
(0.954741 -0.00442399 -4.6755e-21)
(0.948932 -0.00232703 -1.60908e-21)
(0.940573 -0.0041961 -1.20675e-21)
(0.93343 -0.00249608 -2.02555e-21)
(0.924246 -0.00428261 5.44725e-21)
(0.915213 -0.00264551 1.05694e-21)
(0.904432 -0.00435486 -2.92137e-21)
(0.893389 -0.00273695 6.70114e-21)
(0.880748 -0.00411402 3.79523e-22)
(0.867148 -0.00210819 -7.77961e-21)
(0.999437 -0.00199195 -1.43115e-21)
(1.00175 0.000302112 -2.59775e-22)
(1.00665 -0.0141268 -1.7594e-22)
(1.00414 0.00227463 -1.05644e-21)
(0.998014 -0.00451147 1.80285e-22)
(1.00032 0.00157438 -1.48252e-21)
(0.995823 -0.000229678 1.24377e-21)
(0.994252 0.0023264 1.46913e-21)
(0.996459 -0.00879315 -1.08199e-21)
(0.995606 0.0014433 -1.60009e-21)
(0.992931 -0.00975168 1.43866e-21)
(0.992234 -0.00528003 -1.71664e-21)
(0.992777 -0.0086273 3.11222e-21)
(0.987428 -0.00388591 -5.46075e-22)
(0.984775 -0.00695932 -1.08476e-21)
(0.980907 -0.00219972 1.96408e-21)
(0.976263 -0.00451539 -6.83338e-21)
(0.971264 2.55096e-05 9.48978e-21)
(0.964882 -0.002828 -1.42524e-21)
(0.96074 0.00116339 -3.70913e-23)
(0.953334 -0.00132884 -2.72919e-21)
(0.948002 0.00255902 1.57752e-22)
(0.939145 0.000110566 -5.90589e-21)
(0.932406 0.00394462 1.18721e-20)
(0.92289 0.00203969 1.44266e-21)
(0.914175 0.00613981 -8.81709e-21)
(0.903147 0.00470774 3.44243e-21)
(0.892226 0.00940556 9.90004e-24)
(0.880161 0.00861462 -7.14461e-21)
(0.867082 0.0143326 1.49524e-20)
(0.999279 -0.00279701 9.47602e-22)
(1.00038 0.00127008 6.5002e-22)
(1.00901 -0.0159756 3.09388e-22)
(1.00437 0.00477291 2.67903e-21)
(0.997115 -0.00566883 3.59474e-22)
(0.999981 0.0037198 -8.06911e-22)
(0.994475 -0.00090309 2.2632e-23)
(0.992749 0.00296811 -7.71213e-22)
(0.996833 -0.0094162 1.49853e-21)
(0.995464 0.00257219 -8.38044e-22)
(0.993315 -0.0110147 -1.72079e-21)
(0.992736 -0.00311282 1.13139e-21)
(0.993977 -0.00889624 1.34246e-21)
(0.987493 -0.00167124 -3.06929e-21)
(0.985202 -0.00560169 6.5714e-21)
(0.98044 0.000890678 -8.86765e-21)
(0.975743 -0.0025665 4.44957e-21)
(0.970231 0.00383613 -6.52131e-21)
(0.963455 -4.21604e-06 3.39899e-21)
(0.959602 0.00593699 7.25312e-21)
(0.951934 0.00275145 -1.01696e-20)
(0.946755 0.00871876 1.30378e-20)
(0.937941 0.00608674 -1.44249e-20)
(0.931782 0.0123431 5.87425e-21)
(0.922099 0.0105814 7.47346e-21)
(0.914119 0.0175787 9.64416e-21)
(0.90351 0.0169206 -3.26804e-20)
(0.893157 0.0249405 6.57312e-21)
(0.881636 0.0254364 -1.61573e-21)
(0.869246 0.0346717 -4.96067e-21)
(0.999126 -0.00350532 4.05516e-22)
(0.999059 0.00195153 -3.93305e-22)
(1.01159 -0.0179287 5.911e-22)
(1.00415 0.00779741 -9.94622e-22)
(0.996159 -0.00697218 9.03366e-22)
(0.999368 0.00620498 -6.00943e-22)
(0.993019 -0.00160518 9.2135e-23)
(0.991461 0.00327532 -2.75928e-21)
(0.997553 -0.00988167 2.19259e-21)
(0.995321 0.00345753 1.72302e-21)
(0.993887 -0.0126903 -2.99005e-21)
(0.993326 -0.000180606 -7.23335e-22)
(0.995302 -0.0098065 3.55457e-21)
(0.987358 0.000943867 -2.32402e-21)
(0.985489 -0.00441501 8.67065e-22)
(0.9796 0.00365535 -1.03403e-21)
(0.975135 -0.00104996 8.92351e-22)
(0.968946 0.00707619 -3.3325e-22)
(0.962472 0.00208162 -8.29805e-22)
(0.958811 0.00994731 1.29031e-20)
(0.951066 0.00561701 -1.12413e-20)
(0.946516 0.013361 -1.13648e-20)
(0.937493 0.0102799 -2.31788e-21)
(0.932162 0.0186312 3.15103e-20)
(0.922802 0.0166177 1.7936e-20)
(0.91528 0.0260654 -1.77496e-20)
(0.905207 0.0255821 1.20708e-20)
(0.895513 0.0365994 -2.36452e-20)
(0.88458 0.0376587 1.31292e-20)
(0.873395 0.0508771 -9.08764e-20)
(0.999029 -0.00385078 -2.12111e-21)
(0.997795 0.00195637 8.34093e-22)
(1.01438 -0.0194127 -1.42419e-21)
(1.00347 0.0105634 1.32512e-21)
(0.995008 -0.00770851 -1.73992e-21)
(0.998639 0.00833826 8.2063e-22)
(0.991477 -0.00209387 5.10289e-22)
(0.990429 0.00299479 9.91557e-22)
(0.998921 -0.0101859 6.57573e-23)
(0.994901 0.00371434 -3.46407e-21)
(0.994978 -0.0137725 9.28103e-22)
(0.993994 0.00196405 1.17302e-21)
(0.996161 -0.0100807 6.3398e-21)
(0.987213 0.00384169 -6.26989e-21)
(0.985179 -0.00228357 2.89386e-21)
(0.9782 0.00671546 4.16168e-21)
(0.974125 0.00198504 -4.15882e-21)
(0.967199 0.0112657 -9.52316e-21)
(0.960923 0.00495669 -4.38277e-21)
(0.957831 0.0150815 1.6564e-20)
(0.94988 0.00981982 6.6921e-21)
(0.945781 0.019988 -3.73851e-21)
(0.937743 0.0163585 5.76118e-21)
(0.932014 0.0270849 4.9936e-21)
(0.923577 0.0252002 -2.12021e-20)
(0.916858 0.0374145 -2.69143e-20)
(0.907396 0.0373099 1.30753e-20)
(0.899183 0.0517358 6.35334e-20)
(0.889725 0.0536783 -9.06645e-20)
(0.880261 0.0705112 1.01256e-19)
(0.998968 -0.00420991 1.06451e-21)
(0.99684 0.00179788 -1.10087e-21)
(1.0172 -0.0210079 -1.71332e-21)
(1.00217 0.0140198 1.09288e-21)
(0.99381 -0.00883999 7.26338e-22)
(0.997639 0.0109621 -1.65996e-21)
(0.990177 -0.00308194 1.52249e-21)
(0.989791 0.00270405 1.39156e-21)
(1.00073 -0.0105634 -2.29279e-22)
(0.994902 0.00398635 -1.12386e-21)
(0.996262 -0.0154084 4.409e-21)
(0.99434 0.00502893 -3.15482e-21)
(0.997293 -0.0120049 5.85125e-21)
(0.987148 0.00845062 -9.70691e-21)
(0.984232 -0.00218353 1.15902e-20)
(0.976776 0.0107528 -4.93616e-21)
(0.973189 0.00281617 -9.48149e-21)
(0.965409 0.0142873 -5.68105e-21)
(0.960255 0.00562654 -3.75337e-21)
(0.956986 0.017948 -1.79944e-21)
(0.950374 0.0116292 2.8531e-20)
(0.946166 0.0227913 -3.06793e-20)
(0.938947 0.0189497 4.74711e-22)
(0.93462 0.0315336 2.00196e-20)
(0.925844 0.0283744 -1.75378e-20)
(0.920582 0.0437783 1.09221e-20)
(0.912318 0.0429436 4.16717e-20)
(0.904751 0.0609967 -7.19638e-20)
(0.897278 0.0632441 5.36075e-20)
(0.889332 0.0842423 1.66975e-20)
(0.998977 -0.0041267 3.24155e-23)
(0.996219 0.00073261 8.81966e-22)
(1.02032 -0.0216575 1.67836e-21)
(0.999689 0.0168652 1.13777e-21)
(0.992905 -0.00910657 -5.18623e-23)
(0.996149 0.0125374 -2.38344e-21)
(0.989302 -0.00355607 -1.40115e-21)
(0.989776 0.00140537 3.83365e-21)
(1.00293 -0.0104276 -4.76588e-21)
(0.994445 0.00338288 2.09565e-21)
(0.998624 -0.0147197 -6.44063e-22)
(0.994315 0.00651975 9.27748e-21)
(0.997691 -0.0113523 -1.80359e-21)
(0.986692 0.0136091 -1.98961e-21)
(0.982403 0.000711426 -7.1338e-21)
(0.97506 0.0137551 -5.94476e-21)
(0.970816 0.00750171 2.14498e-20)
(0.963443 0.0163791 -7.78399e-21)
(0.960444 0.0108603 -7.26173e-21)
(0.955476 0.0229002 -2.13898e-21)
(0.95007 0.0162611 1.81917e-20)
(0.946246 0.0304565 -7.23e-21)
(0.939645 0.0247177 1.05373e-20)
(0.936028 0.0417355 6.93535e-21)
(0.929248 0.0375037 -5.55552e-20)
(0.923774 0.0561308 9.71811e-21)
(0.918039 0.0555602 -7.92172e-21)
(0.911632 0.0766244 6.37871e-22)
(0.906964 0.0789212 4.47148e-20)
(0.998715 -0.00422307 9.10301e-22)
(0.996116 -0.000353604 -4.4257e-22)
(1.0239 -0.0223237 -9.17972e-22)
(0.995651 0.0205158 1.31153e-21)
(0.99243 -0.0099068 1.36898e-21)
(0.993866 0.0147887 -2.7541e-22)
(0.988576 -0.00515736 -1.5775e-21)
(0.990334 0.000547317 2.1611e-21)
(1.00513 -0.0109453 -1.03195e-21)
(0.993346 0.00289966 2.71492e-22)
(1.00116 -0.0158013 9.02989e-22)
(0.99422 0.0092821 -5.1321e-21)
(0.998708 -0.0137745 3.23216e-21)
(0.983162 0.0202032 1.4971e-21)
(0.98259 -0.00198847 -8.80177e-21)
(0.969646 0.0195292 1.12023e-20)
(0.97287 0.00613124 -1.03794e-20)
(0.958385 0.0184946 2.15757e-20)
(0.963246 0.00958846 -1.47921e-20)
(0.95474 0.0250255 1.05362e-20)
(0.951418 0.0147623 8.38772e-22)
(0.946799 0.0312129 -3.50247e-20)
(0.943653 0.0252466 1.0124e-20)
(0.936939 0.0419958 4.72317e-21)
(0.93531 0.0385623 1.85473e-20)
(0.92876 0.0591271 -2.03352e-20)
(0.926041 0.0574128 -2.05296e-21)
(0.920856 0.0830439 2.64945e-20)
(0.918465 0.0845211 1.75725e-20)
(0.998291 -0.00379305 -9.56381e-22)
(0.996452 -0.00264731 2.82554e-22)
(1.02717 -0.021208 -1.36062e-21)
(0.992885 0.0230478 2.33734e-22)
(0.989911 -0.00981156 9.3973e-23)
(0.996399 0.0156851 1.6646e-22)
(0.985003 -0.00581134 -5.24754e-22)
(0.994293 -0.00134599 7.13376e-22)
(1.00606 -0.0095018 -4.52475e-21)
(0.993644 0.00175751 6.21313e-21)
(1.00153 -0.0128798 5.02124e-21)
(0.994333 0.00988491 -5.37669e-21)
(1.0006 -0.0095501 -9.41423e-21)
(0.982676 0.0266027 1.75454e-20)
(0.974924 0.000905874 -2.12925e-20)
(0.97564 0.0246889 1.53821e-20)
(0.962749 0.0100493 -2.0352e-21)
(0.966154 0.0202702 -1.6081e-20)
(0.958771 0.0175171 1.09129e-20)
(0.957368 0.0284619 1.13338e-20)
(0.950914 0.0231153 1.08855e-20)
(0.950864 0.0384112 -2.78278e-20)
(0.94191 0.0337721 -2.07796e-20)
(0.944988 0.0534834 5.89487e-20)
(0.933756 0.047564 -3.93256e-20)
(0.939302 0.0732183 -7.13633e-22)
(0.930453 0.0681105 -1.59965e-20)
(0.935092 0.0971092 6.33526e-20)
(1.00251 -0.00371325 0)
(0.992534 -0.00494452 0)
(1.03157 -0.0205603 0)
(0.985544 0.0264634 0)
(0.994841 -0.0113735 0)
(0.992988 0.0168907 0)
(0.989181 -0.0080608 0)
(0.992937 -0.00358365 0)
(1.00989 -0.00964481 0)
(0.987513 0.000743314 0)
(1.007 -0.0134922 0)
(0.990595 0.0096208 0)
(1.00637 -0.0111054 0)
(0.97365 0.0332252 0)
(0.981666 -0.00605251 0)
(0.969948 0.0307589 0)
(0.969772 0.00247244 0)
(0.965858 0.0197352 0)
(0.967143 0.0146712 0)
(0.956012 0.0264276 0)
(0.959194 0.0166488 0)
(0.950622 0.0374185 0)
(0.954928 0.0280714 0)
(0.9405 0.0490467 0)
(0.953307 0.0436554 0)
(0.937004 0.0679461 0)
(0.95089 0.06319 0)
(0.93984 0.0933445 0)
(1.00953 -0.0030888 0)
(0.98754 -0.00779882 0)
(1.02878 -0.0187685 0)
(0.978717 0.0284816 0)
(1.00352 -0.0111045 0)
(0.983549 0.0168294 0)
(0.998866 -0.00773381 0)
(0.986046 -0.0055799 0)
(1.00924 -0.0077945 0)
(0.97995 -0.000239303 0)
(1.00824 -0.0118847 0)
(0.987277 0.00835442 0)
(1.00089 -0.00538928 0)
(0.964482 0.0355306 0)
(0.990855 -0.00400966 0)
(0.958704 0.0365204 0)
(0.983563 0.000742666 0)
(0.957276 0.0281 0)
(0.973644 0.0145364 0)
(0.954643 0.0314657 0)
(0.96377 0.0236328 0)
(0.947946 0.0361079 0)
(0.961152 0.0393095 0)
(0.939568 0.0454455 0)
(0.961147 0.054071 0)
(0.940114 0.0621378 0)
(0.961403 0.0729123 0)
(0.948905 0.0822764 0)
(1.01431 -0.00279661 0)
(0.985736 -0.0095951 0)
(1.01543 -0.0167728 0)
(0.981051 0.0291002 0)
(1.00749 -0.0104236 0)
(0.979951 0.0165799 0)
(1.00629 -0.00746229 0)
(0.980346 -0.00720874 0)
(1.00352 -0.00493268 0)
(0.978475 -0.00314528 0)
(0.999078 -0.0110483 0)
(0.98566 0.00848926 0)
(0.987654 0.000673891 0)
(0.96818 0.0337213 0)
(0.98493 -0.00124273 0)
(0.962256 0.0355961 0)
(0.984747 0.00106526 0)
(0.955901 0.0290846 0)
(0.975691 0.0161748 0)
(0.95404 0.0301793 0)
(0.965276 0.0299437 0)
(0.948971 0.0313186 0)
(0.960262 0.0454745 0)
(0.945755 0.0413326 0)
(0.958324 0.0560636 0)
(0.949353 0.0575846 0)
(0.962212 0.0734862 0)
(0.95897 0.0736359 0)
(1.01485 -0.0024968 0)
(0.987386 -0.00985132 0)
(0.998122 -0.0153384 0)
(0.990384 0.0274946 0)
(1.00794 -0.00829452 0)
(0.984439 0.0148662 0)
(1.01029 -0.00571789 0)
(0.979688 -0.00781618 0)
(0.998243 -0.0024762 0)
(0.982298 -0.00513044 0)
(0.985196 -0.00842853 0)
(0.984444 0.00730821 0)
(0.981188 0.00579319 0)
(0.978094 0.0314197 0)
(0.977273 0.00169063 0)
(0.972776 0.0332463 0)
(0.981974 0.00547994 0)
(0.962185 0.0276332 0)
(0.980134 0.022602 0)
(0.956865 0.0265877 0)
(0.97082 0.0368979 0)
(0.956611 0.0301199 0)
(0.962595 0.0478952 0)
(0.955151 0.0424246 0)
(0.960623 0.0551573 0)
(0.956989 0.054592 0)
(0.964716 0.0707442 0)
(0.965696 0.0672218 0)
(1.01368 -0.00232217 0)
(0.990382 -0.00872172 0)
(0.984843 -0.0146203 0)
(0.997252 0.0241702 0)
(1.00989 -0.00594273 0)
(0.989672 0.0127438 0)
(1.01332 -0.00301379 0)
(0.982448 -0.00764579 0)
(0.994682 -0.000503992 0)
(0.986675 -0.00512644 0)
(0.974886 -0.00541622 0)
(0.982623 0.00397315 0)
(0.982038 0.00856987 0)
(0.986204 0.0305919 0)
(0.977958 0.00398633 0)
(0.978602 0.031808 0)
(0.983906 0.00927798 0)
(0.967588 0.0249142 0)
(0.987501 0.0281707 0)
(0.964922 0.0253221 0)
(0.977468 0.0403076 0)
(0.967014 0.0317514 0)
(0.970199 0.0477935 0)
(0.964928 0.0453324 0)
(0.967998 0.0544874 0)
(0.964331 0.0531408 0)
(0.968946 0.0664614 0)
(0.970847 0.0636101 0)
(1.01288 -0.00224245 0)
(0.992882 -0.00660294 0)
(0.978138 -0.0139752 0)
(0.998533 0.0188811 0)
(1.01283 -0.003266 0)
(0.991674 0.0104899 0)
(1.01562 -0.000101491 0)
(0.985335 -0.00638903 0)
(0.992125 0.00105233 0)
(0.989661 -0.00333567 0)
(0.971253 -0.00230258 0)
(0.979957 0.000232325 0)
(0.983458 0.00791529 0)
(0.990274 0.0310659 0)
(0.983435 0.00623807 0)
(0.980978 0.0301254 0)
(0.988403 0.014 0)
(0.970352 0.0211777 0)
(0.992645 0.0310326 0)
(0.973743 0.0259614 0)
(0.983357 0.0412333 0)
(0.976365 0.0356742 0)
(0.978777 0.0464969 0)
(0.972891 0.0486467 0)
(0.975998 0.0540682 0)
(0.972162 0.0540506 0)
(0.974646 0.0629603 0)
(0.975528 0.0617893 0)
(1.01188 -0.0023159 0)
(0.993891 -0.00401329 0)
(0.978269 -0.0130306 0)
(0.99761 0.0126436 0)
(1.01299 -0.000929495 0)
(0.992594 0.00846539 0)
(1.01488 0.00228983 0)
(0.987713 -0.00378376 0)
(0.990671 0.001709 0)
(0.990579 -0.000466 0)
(0.974767 0.000365891 0)
(0.977909 -0.00208658 0)
(0.983216 0.00417613 0)
(0.991204 0.0310411 0)
(0.988589 0.00926356 0)
(0.983336 0.0274307 0)
(0.991344 0.0191973 0)
(0.97469 0.0180986 0)
(0.992148 0.0307806 0)
(0.981211 0.027322 0)
(0.986369 0.0403894 0)
(0.983092 0.0402871 0)
(0.984722 0.0450115 0)
(0.979749 0.0513693 0)
(0.982991 0.053614 0)
(0.979212 0.0563177 0)
(0.982142 0.060231 0)
(0.980116 0.0612061 0)
(1.00985 -0.00227011 0)
(0.993715 -0.00169313 0)
(0.983109 -0.0121854 0)
(0.997966 0.00729726 0)
(1.00985 0.000757216 0)
(0.993842 0.00723929 0)
(1.01102 0.00408579 0)
(0.989398 -0.000535671 0)
(0.990061 0.00178357 0)
(0.990697 0.00249596 0)
(0.982656 0.00175211 0)
(0.978542 -0.00142299 0)
(0.982472 -0.000270154 0)
(0.991241 0.028809 0)
(0.991734 0.0130068 0)
(0.986892 0.0241857 0)
(0.992826 0.0234492 0)
(0.980444 0.0179909 0)
(0.989007 0.0297103 0)
(0.985441 0.0282057 0)
(0.98638 0.038211 0)
(0.98659 0.0433976 0)
(0.988539 0.0443243 0)
(0.985396 0.0529408 0)
(0.988678 0.0530329 0)
(0.985038 0.057512 0)
(0.989954 0.058439 0)
(0.985862 0.0606795 0)
(1.00709 -0.00195294 0)
(0.993018 -5.20219e-05 0)
(0.990365 -0.0122096 0)
(0.999454 0.00390663 0)
(1.00511 0.00187967 0)
(0.99523 0.00678792 0)
(1.00539 0.00547857 0)
(0.990728 0.0023686 0)
(0.990487 0.00150474 0)
(0.989977 0.00454273 0)
(0.991637 0.0022001 0)
(0.981735 0.00154702 0)
(0.983789 -0.00376152 0)
(0.990947 0.0242446 0)
(0.993006 0.0167418 0)
(0.990887 0.0217108 0)
(0.993018 0.0265004 0)
(0.986389 0.0200021 0)
(0.986277 0.0288805 0)
(0.988073 0.0296767 0)
(0.985163 0.0353694 0)
(0.987936 0.0442537 0)
(0.990059 0.0435879 0)
(0.988574 0.0523552 0)
(0.993391 0.0519561 0)
(0.989543 0.0569587 0)
(0.997198 0.0570469 0)
(0.992011 0.0593679 0)
(1.004 -0.00127184 0)
(0.993252 0.00056681 0)
(0.997931 -0.0132337 0)
(0.999819 0.0028307 0)
(1.00061 0.0027098 0)
(0.996057 0.0066459 0)
(0.999369 0.0071333 0)
(0.99287 0.00390903 0)
(0.991522 0.0014147 0)
(0.989677 0.0055146 0)
(0.999058 0.00100394 0)
(0.98583 0.00552543 0)
(0.987458 -0.00420244 0)
(0.990234 0.0187215 0)
(0.993198 0.0187706 0)
(0.993189 0.0211123 0)
(0.992412 0.0273925 0)
(0.991295 0.0232636 0)
(0.985068 0.0294591 0)
(0.990079 0.0312192 0)
(0.984832 0.034155 0)
(0.988539 0.0425133 0)
(0.99037 0.0425314 0)
(0.990864 0.049712 0)
(0.99638 0.0500285 0)
(0.99381 0.0544844 0)
(1.00197 0.0544796 0)
(0.998163 0.05675 0)
(1.00088 -0.00039763 0)
(0.994527 3.45291e-05 0)
(1.00488 -0.0141901 0)
(0.998687 0.00358414 0)
(0.996376 0.00334344 0)
(0.996531 0.00678222 0)
(0.993636 0.00858692 0)
(0.99574 0.00416062 0)
(0.993396 0.00135179 0)
(0.990156 0.00563458 0)
(1.00452 -0.000286924 0)
(0.989071 0.0087052 0)
(0.992018 -0.0024481 0)
(0.990161 0.0147367 0)
(0.992345 0.0191386 0)
(0.993496 0.0218048 0)
(0.990612 0.0276015 0)
(0.994358 0.0261836 0)
(0.984904 0.0300981 0)
(0.992057 0.0326923 0)
(0.985557 0.0337108 0)
(0.990345 0.0400323 0)
(0.991136 0.0408761 0)
(0.993267 0.0458369 0)
(0.998371 0.047045 0)
(0.99761 0.0501689 0)
(1.00511 0.0508425 0)
(1.0034 0.0525556 0)
(0.998677 0.000666424 0)
(0.996797 -0.00176412 0)
(1.00818 -0.0147394 0)
(0.996889 0.00614522 0)
(0.994222 0.00370282 0)
(0.995929 0.00696641 0)
(0.99052 0.00972916 0)
(0.998567 0.00279599 0)
(0.995019 0.00155522 0)
(0.991904 0.00510324 0)
(1.00645 -0.00158819 0)
(0.992127 0.010628 0)
(0.995139 0.00123474 0)
(0.990277 0.0138225 0)
(0.99207 0.0178749 0)
(0.992275 0.0236108 0)
(0.989148 0.0270504 0)
(0.995172 0.0280874 0)
(0.986664 0.0306939 0)
(0.993562 0.0328181 0)
(0.988247 0.0342009 0)
(0.992854 0.0370071 0)
(0.993296 0.038967 0)
(0.996384 0.0410756 0)
(1.0004 0.0432095 0)
(1.00164 0.0447814 0)
(1.00724 0.0460748 0)
(1.00801 0.0471915 0)
(0.997544 0.00147439 0)
(0.999066 -0.00384504 0)
(1.00837 -0.0142462 0)
(0.995181 0.00878172 0)
(0.993847 0.00397529 0)
(0.995491 0.00713658 0)
(0.989703 0.00996662 0)
(1.00075 0.00123005 0)
(0.996159 0.00146744 0)
(0.993903 0.00447064 0)
(1.0062 -0.00156854 0)
(0.99387 0.0110929 0)
(0.996706 0.00498467 0)
(0.991002 0.0152439 0)
(0.992731 0.0168278 0)
(0.99162 0.0247855 0)
(0.988603 0.0265243 0)
(0.994875 0.0288803 0)
(0.98937 0.030347 0)
(0.995499 0.0320091 0)
(0.99161 0.0337055 0)
(0.996148 0.0342992 0)
(0.996242 0.0365027 0)
(1.00039 0.036598 0)
(1.00288 0.0389963 0)
(1.00571 0.0392975 0)
(1.00914 0.0409553 0)
(1.01152 0.0413831 0)
(0.997571 0.00222971 0)
(1.00119 -0.00631021 0)
(1.00508 -0.0131096 0)
(0.994077 0.0116932 0)
(0.995374 0.0040592 0)
(0.995453 0.0072514 0)
(0.991518 0.0097677 0)
(1.00226 -0.000767755 0)
(0.996407 0.00158062 0)
(0.995692 0.00350882 0)
(1.00361 -0.00061337 0)
(0.99517 0.0110163 0)
(0.996486 0.00773326 0)
(0.991729 0.0181091 0)
(0.994346 0.0162238 0)
(0.992323 0.0256116 0)
(0.990365 0.0256869 0)
(0.994818 0.028938 0)
(0.993054 0.0294497 0)
(0.997877 0.030158 0)
(0.995877 0.0322971 0)
(0.99966 0.031343 0)
(0.999644 0.0339144 0)
(1.00425 0.0322091 0)
(1.00567 0.0349015 0)
(1.00937 0.0337954 0)
(1.0109 0.0360208 0)
(1.01412 0.0354689 0)
(0.998313 0.00233024 0)
(1.00327 -0.00741993 0)
(0.999697 -0.011123 0)
(0.993264 0.0126286 0)
(0.998047 0.00402082 0)
(0.995938 0.00720516 0)
(0.995108 0.00895822 0)
(1.00353 -0.00124821 0)
(0.996129 0.00172055 0)
(0.997246 0.00314641 0)
(0.999795 0.00121775 0)
(0.995966 0.0106534 0)
(0.995295 0.00921448 0)
(0.992289 0.019921 0)
(0.996228 0.0164971 0)
(0.994246 0.0252082 0)
(0.994122 0.0246174 0)
(0.995929 0.0280978 0)
(0.99745 0.0279974 0)
(1.00086 0.0281456 0)
(1.00082 0.0299165 0)
(1.00348 0.0286787 0)
(1.0033 0.0309881 0)
(1.00772 0.0288708 0)
(1.0084 0.0311012 0)
(1.01256 0.0295213 0)
(1.01254 0.0315919 0)
(1.01604 0.0306947 0)
(0.999039 0.00204236 0)
(1.00429 -0.00756768 0)
(0.995549 -0.00866793 0)
(0.99346 0.0121776 0)
(0.999904 0.00358514 0)
(0.996909 0.00698589 0)
(0.998152 0.00787703 0)
(1.0041 -0.000854246 0)
(0.996191 0.00234359 0)
(0.998233 0.00308314 0)
(0.99696 0.00332141 0)
(0.996707 0.0104765 0)
(0.994748 0.00976269 0)
(0.993201 0.0202901 0)
(0.997566 0.0166384 0)
(0.996794 0.0240902 0)
(0.998031 0.0228829 0)
(0.998345 0.026587 0)
(1.00112 0.0260946 0)
(1.00388 0.0261175 0)
(1.005 0.0272763 0)
(1.00697 0.026023 0)
(1.00661 0.0281414 0)
(1.01021 0.0260707 0)
(1.01067 0.0280242 0)
(1.01462 0.0261646 0)
(1.01409 0.0280481 0)
(1.01722 0.026907 0)
(0.999585 0.001387 0)
(1.00417 -0.00654177 0)
(0.99328 -0.00616978 0)
(0.994792 0.0102382 0)
(1.0008 0.00304616 0)
(0.997881 0.00652942 0)
(1.0001 0.0067315 0)
(1.00375 0.000549554 0)
(0.996541 0.00315523 0)
(0.998936 0.00370253 0)
(0.995564 0.00512449 0)
(0.997642 0.0104031 0)
(0.995234 0.00993351 0)
(0.994994 0.0189288 0)
(0.998554 0.0163842 0)
(0.999295 0.022186 0)
(1.00127 0.0208854 0)
(1.00105 0.024311 0)
(1.00386 0.0238805 0)
(1.00606 0.0241692 0)
(1.00788 0.024637 0)
(1.00942 0.0238473 0)
(1.00917 0.0253111 0)
(1.01172 0.02401 0)
(1.01206 0.0253672 0)
(1.01548 0.0239203 0)
(1.01504 0.025197 0)
(1.01769 0.0242662 0)
(0.999796 0.000800467 0)
(1.00326 -0.00520021 0)
(0.993186 -0.00425601 0)
(0.996643 0.00809512 0)
(1.00077 0.00257985 0)
(0.998732 0.00602001 0)
(1.0007 0.00595282 0)
(1.00289 0.00198647 0)
(0.997209 0.00404234 0)
(0.999461 0.00453071 0)
(0.995838 0.00618226 0)
(0.998774 0.0103281 0)
(0.996636 0.00992433 0)
(0.99739 0.0169469 0)
(0.999663 0.0155589 0)
(1.00137 0.0200808 0)
(1.00331 0.0188916 0)
(1.0035 0.0218198 0)
(1.00557 0.0215919 0)
(1.00737 0.0221864 0)
(1.00928 0.022312 0)
(1.01071 0.0218776 0)
(1.01069 0.0227875 0)
(1.01245 0.0220879 0)
(1.01271 0.0230026 0)
(1.01548 0.022051 0)
(1.01537 0.0227934 0)
(1.01764 0.0221273 0)
(0.999803 0.000327072 0)
(1.00233 -0.00374373 0)
(0.994135 -0.00287599 0)
(0.998128 0.00595215 0)
(1.00049 0.00233231 0)
(0.999371 0.00553553 0)
(1.00068 0.00545536 0)
(1.00218 0.00338035 0)
(0.997982 0.00473979 0)
(1.00002 0.00535553 0)
(0.996963 0.00673049 0)
(0.99991 0.00995065 0)
(0.998309 0.00981423 0)
(0.999688 0.014849 0)
(1.0009 0.0143772 0)
(1.00291 0.0178637 0)
(1.00459 0.0170921 0)
(1.00525 0.0194282 0)
(1.00666 0.0193268 0)
(1.00814 0.0202054 0)
(1.00978 0.0201688 0)
(1.01125 0.0200939 0)
(1.01146 0.0205221 0)
(1.01284 0.0202693 0)
(1.01301 0.0207977 0)
(1.0152 0.0202998 0)
(1.01532 0.0206408 0)
(1.01731 0.0202152 0)
(0.999705 7.28456e-05 0)
(1.00157 -0.00257838 0)
(0.99554 -0.00202284 0)
(0.999155 0.00437635 0)
(1.00012 0.00227048 0)
(0.999818 0.00512042 0)
(1.00045 0.00518958 0)
(1.00174 0.00431339 0)
(0.998806 0.00512846 0)
(1.00063 0.00583981 0)
(0.998435 0.00686341 0)
(1.00099 0.00934955 0)
(0.999918 0.0094599 0)
(1.0015 0.0130667 0)
(1.00214 0.0130398 0)
(1.00407 0.0158514 0)
(1.00532 0.0154184 0)
(1.00637 0.0172757 0)
(1.00733 0.0172512 0)
(1.00866 0.0181871 0)
(1.00986 0.0181637 0)
(1.01138 0.0182794 0)
(1.01172 0.0184453 0)
(1.013 0.0183777 0)
(1.01313 0.0186532 0)
(1.0149 0.0184058 0)
(1.01512 0.0185354 0)
(1.01687 0.0182437 0)
(0.999609 -7.28397e-05 0)
(1.00113 -0.00165019 0)
(0.996778 -0.00141812 0)
(0.999675 0.00322269 0)
(0.999898 0.00224901 0)
(1.00015 0.00476746 0)
(1.00036 0.00496213 0)
(1.00163 0.00484508 0)
(0.99956 0.00526716 0)
(1.00129 0.00601944 0)
(0.999751 0.00671765 0)
(1.00187 0.00863863 0)
(1.00125 0.0088766 0)
(1.00277 0.0115336 0)
(1.00324 0.0117259 0)
(1.00488 0.0139565 0)
(1.00584 0.0138254 0)
(1.00708 0.015303 0)
(1.00779 0.0153355 0)
(1.00906 0.0161837 0)
(1.00988 0.0162046 0)
(1.01139 0.0164266 0)
(1.01175 0.0164498 0)
(1.01305 0.0164709 0)
(1.01316 0.0165541 0)
(1.01467 0.0164579 0)
(1.01486 0.0164353 0)
(1.01639 0.0162627 0)
(0.999556 -0.000110294 0)
(1.00084 -0.00101907 0)
(0.997747 -0.00101628 0)
(0.999976 0.00248899 0)
(0.999785 0.0022345 0)
(1.00039 0.00444359 0)
(1.0004 0.00473364 0)
(1.00167 0.00497757 0)
(1.00024 0.0052284 0)
(1.00187 0.00590074 0)
(1.00085 0.00633376 0)
(1.00257 0.00791548 0)
(1.0023 0.00812908 0)
(1.00368 0.0102036 0)
(1.00409 0.0104543 0)
(1.00552 0.0122286 0)
(1.00624 0.0123111 0)
(1.00752 0.0134605 0)
(1.00809 0.0135681 0)
(1.00935 0.0142439 0)
(1.00992 0.0143167 0)
(1.01133 0.0145324 0)
(1.01167 0.0145147 0)
(1.01294 0.014539 0)
(1.01308 0.014513 0)
(1.01438 0.0144627 0)
(1.01455 0.0143513 0)
(1.01584 0.0142417 0)
(0.999543 -0.000112208 0)
(1.00069 -0.00058735 0)
(0.99842 -0.000675519 0)
(1.0001 0.00198829 0)
(0.999796 0.00217194 0)
(1.00058 0.00409486 0)
(1.00054 0.00444351 0)
(1.00186 0.00487795 0)
(1.0008 0.00502764 0)
(1.00233 0.00560688 0)
(1.00172 0.00585149 0)
(1.00308 0.00713598 0)
(1.00306 0.00733034 0)
(1.0043 0.00892191 0)
(1.00471 0.00921611 0)
(1.00598 0.0106019 0)
(1.00654 0.0108046 0)
(1.00782 0.0117148 0)
(1.0083 0.0118594 0)
(1.00954 0.0123961 0)
(1.00995 0.0124625 0)
(1.01124 0.0126697 0)
(1.01153 0.0126157 0)
(1.01273 0.0126524 0)
(1.0129 0.0125439 0)
(1.01402 0.0125176 0)
(1.01416 0.0123411 0)
(1.01523 0.0122707 0)
(0.999567 -8.41824e-05 0)
(1.00057 -0.000311238 0)
(0.998885 -0.000421225 0)
(1.00022 0.00167107 0)
(0.999869 0.00207174 0)
(1.00073 0.00370393 0)
(1.00071 0.00411917 0)
(1.00202 0.00456593 0)
(1.00127 0.00466497 0)
(1.00269 0.00519929 0)
(1.00239 0.00526863 0)
(1.00351 0.00631235 0)
(1.0036 0.00648431 0)
(1.00474 0.00769364 0)
(1.00514 0.00800637 0)
(1.0063 0.00905851 0)
(1.00674 0.00933216 0)
(1.00796 0.010033 0)
(1.00839 0.0101987 0)
(1.00956 0.0106096 0)
(1.00991 0.0106671 0)
(1.01106 0.010847 0)
(1.01133 0.0107727 0)
(1.01241 0.0108133 0)
(1.0126 0.0106574 0)
(1.01357 0.010644 0)
(1.01371 0.0104289 0)
(1.01458 0.0103856 0)
(0.9996 -5.20162e-05 0)
(1.00049 -0.000138774 0)
(0.999213 -0.000210036 0)
(1.00028 0.00143159 0)
(0.99997 0.00192399 0)
(1.00088 0.00329733 0)
(1.00086 0.00370402 0)
(1.00214 0.00411241 0)
(1.00167 0.0041965 0)
(1.00292 0.00465329 0)
(1.00286 0.0046385 0)
(1.00385 0.00544293 0)
(1.00398 0.00560457 0)
(1.00505 0.0065195 0)
(1.00542 0.00679743 0)
(1.0065 0.00759514 0)
(1.00686 0.00786003 0)
(1.00798 0.0084058 0)
(1.00837 0.00855833 0)
(1.00947 0.00887463 0)
(1.00979 0.00891397 0)
(1.0108 0.00905775 0)
(1.01106 0.00897978 0)
(1.01201 0.00901098 0)
(1.01222 0.00885063 0)
(1.01306 0.00883086 0)
(1.0132 0.00861961 0)
(1.01391 0.00857678 0)
(0.999645 -1.29305e-05 0)
(1.00042 -1.37853e-05 0)
(0.999428 -4.86585e-05 0)
(1.00034 0.00123098 0)
(1.0001 0.00174876 0)
(1.00098 0.0028413 0)
(1.00099 0.00322434 0)
(1.00222 0.00358707 0)
(1.00197 0.00362288 0)
(1.00307 0.00400076 0)
(1.00316 0.00396901 0)
(1.00409 0.00455527 0)
(1.00424 0.00471506 0)
(1.00522 0.00538717 0)
(1.00558 0.00562688 0)
(1.00657 0.00621036 0)
(1.00691 0.00643429 0)
(1.00791 0.0068466 0)
(1.00829 0.00696308 0)
(1.00928 0.00719702 0)
(1.0096 0.0072073 0)
(1.0105 0.00731623 0)
(1.01074 0.00723572 0)
(1.01157 0.00726065 0)
(1.01178 0.00711274 0)
(1.0125 0.00709357 0)
(1.01263 0.00690753 0)
(1.01322 0.00686967 0)
(0.999685 -2.50036e-06 0)
(1.00038 7.28787e-05 0)
(0.999578 4.80903e-05 0)
(1.00036 0.00105999 0)
(1.00016 0.00148838 0)
(1.00106 0.00235216 0)
(1.00112 0.002648 0)
(1.00224 0.0029478 0)
(1.00217 0.00292837 0)
(1.00316 0.00324325 0)
(1.00331 0.0031919 0)
(1.00421 0.00362558 0)
(1.00438 0.00373601 0)
(1.00528 0.00424398 0)
(1.00561 0.00441491 0)
(1.00654 0.00484317 0)
(1.00687 0.00499035 0)
(1.00777 0.00529169 0)
(1.00813 0.00534818 0)
(1.00902 0.00550946 0)
(1.00935 0.00547495 0)
(1.01016 0.00554419 0)
(1.01041 0.00544749 0)
(1.01114 0.00546412 0)
(1.01135 0.00532678 0)
(1.01198 0.0053186 0)
(1.01211 0.00516349 0)
(1.0126 0.00515078 0)
(0.999719 3.56806e-05 0)
(1.00032 0.000191903 0)
(0.99966 0.000228876 0)
(1.00035 0.000970082 0)
(1.00019 0.0013062 0)
(1.00106 0.00192025 0)
(1.00114 0.00211197 0)
(1.0022 0.00232672 0)
(1.00227 0.00229101 0)
(1.00318 0.00250789 0)
(1.00336 0.00247098 0)
(1.00423 0.00276142 0)
(1.00441 0.00283952 0)
(1.00525 0.00319412 0)
(1.00555 0.00331124 0)
(1.00641 0.00360298 0)
(1.00671 0.00368823 0)
(1.00753 0.00388545 0)
(1.00785 0.00389498 0)
(1.00866 0.00397674 0)
(1.00898 0.00389857 0)
(1.00972 0.00389083 0)
(1.01 0.00374886 0)
(1.01067 0.0036854 0)
(1.01091 0.00350228 0)
(1.0115 0.00341154 0)
(1.01167 0.00321692 0)
(1.01214 0.00313296 0)
(0.999747 5.55364e-05 0)
(1.0003 0.000152677 0)
(0.99969 0.000240619 0)
(1.00027 0.000662643 0)
(1.00012 0.000911389 0)
(1.00095 0.00124469 0)
(1.00107 0.0013886 0)
(1.00205 0.00149259 0)
(1.00221 0.00148517 0)
(1.00308 0.00158461 0)
(1.00328 0.00158718 0)
(1.00413 0.00173177 0)
(1.00434 0.00179915 0)
(1.00512 0.00198494 0)
(1.0054 0.00207342 0)
(1.00618 0.00222134 0)
(1.00647 0.00228115 0)
(1.0072 0.00237094 0)
(1.00746 0.00237875 0)
(1.00813 0.00239617 0)
(1.00836 0.00234182 0)
(1.00895 0.0022994 0)