/*--------------------------------*- C++ -*----------------------------------*\
| =========                 |                                                 |
| \\      /  F ield         | OpenFOAM: The Open Source CFD Toolbox           |
|  \\    /   O peration     | Version:                                        |
|   \\  /    A nd           | Website:  www.openfoam.com                      |
|    \\/     M anipulation  |                                                 |
\*---------------------------------------------------------------------------*/
FoamFile
{
    version     2.0;
    format      ascii;
    class       surfaceScalarField;
    location    "182.3";
    object      phi;
}
// * * * * * * * * * * * * * * * * * * * * * * * * * * * * * * * * * * * * * //

dimensions      [0 3 -1 0 0 0 0];
oriented        oriented;


internalField   nonuniform List<scalar> 
2213
(
-4.39523e-05
-0.00161586
0.00165981
-2.92046e-05
-0.00257409
0.00255935
0.000248416
-0.00337902
0.0031014
0.00189513
-0.00621412
0.0045674
0.00557212
-0.0113279
0.0076509
0.0103657
-0.0171221
0.0123285
0.0151232
-0.0222711
0.0175136
0.0191112
-0.0262606
0.0222726
0.021769
-0.0287798
0.0261219
-0.029727
-0.000495455
-0.0011204
-0.000975447
-0.0020941
-4.64802e-05
-0.00430799
0.00392061
-0.0101812
0.00960173
-0.017009
0.0149999
-0.0225202
0.0190554
-0.0263266
0.0212776
-0.0284828
0.0216463
-0.0291485
0.020921
-0.0290017
0.0199619
-0.0286632
-0.0285472
-0.000434089
-0.000686314
-0.000514615
-0.00201358
0.00260245
-0.00742505
0.00835086
-0.0159296
0.0136385
-0.0222966
0.0171564
-0.0260381
0.0186596
-0.0278297
0.0185649
-0.0283882
0.0179404
-0.028524
0.0177066
-0.0287679
0.018293
-0.0292496
0.0195433
-0.0297975
0.020958
-0.0301397
-0.0300527
-0.000232872
-0.000453442
0.000937919
-0.00318437
0.00615766
-0.0126448
0.0112595
-0.0210315
0.0144259
-0.025463
0.0157243
-0.0273365
0.0159098
-0.0280152
0.0159839
-0.0284623
0.016539
-0.0290791
0.0175041
-0.0297331
0.0184849
-0.0302304
0.019116
-0.0304285
0.0193697
-0.0303934
0.019884
-0.030567
0.0207738
-0.0308857
0.0217811
-0.0311442
-0.0315234
-0.000405246
-4.81963e-05
0.00313644
-0.00672605
0.008604
-0.0181124
0.011743
-0.0241705
0.0131742
-0.0268942
0.0138651
-0.0280274
0.0145495
-0.0286996
0.015404
-0.0293168
0.0161101
-0.0297852
0.0164567
-0.0300797
0.0164821
-0.0302558
0.0165186
-0.030465
0.0170537
-0.0309285
0.0179147
-0.031428
0.0188911
-0.0318622
0.0201
-0.0323532
0.0214947
-0.0329181
0.02284
-0.0334124
0.0244259
-0.0341879
-0.0348045
0.000124041
-0.000172237
0.00518768
-0.0117897
0.00893771
-0.0218624
0.0109511
-0.0261839
0.0120279
-0.027971
0.0127642
-0.0287637
0.0132627
-0.0291981
0.0133771
-0.0294312
0.0132477
-0.0296558
0.013179
-0.030011
0.0134705
-0.0305472
0.0142092
-0.0312038
0.0150533
-0.0317725
0.0158602
-0.032235
0.0166973
-0.0326993
0.0175665
-0.0332223
0.0184281
-0.0337797
0.0194514
-0.0344357
0.0204602
-0.0351967
-0.0358502
0.0215058
0.00151842
-0.00169065
0.00650376
-0.016775
0.00877308
-0.0241317
0.010016
-0.0274268
0.0106363
-0.0285914
0.0108263
-0.0289537
0.0107937
-0.0291655
0.0108678
-0.0295053
0.0112168
-0.0300048
0.0117971
-0.0305913
0.0123971
-0.0311472
0.0127868
-0.0315935
0.0130325
-0.0320183
0.0133144
-0.0325169
0.0137358
-0.0331207
0.0143235
-0.03381
0.0151665
-0.0346226
0.0162197
-0.0354889
0.0173171
-0.0362941
-0.0370148
0.0184817
0.00254712
-0.00423778
0.00628472
-0.0205126
0.00830329
-0.0261503
0.00889153
-0.028015
0.00893385
-0.0286337
0.00896576
-0.0289856
0.00920793
-0.0294077
0.00954848
-0.0298458
0.00978607
-0.0302424
0.00981069
-0.0306159
0.00971708
-0.0310536
0.0097335
-0.03161
0.00998304
-0.0322678
0.0104217
-0.0329556
0.0109733
-0.0336722
0.0116325
-0.0344693
0.0122289
-0.035219
0.0126237
-0.0358837
0.0130209
-0.0366913
-0.037517
0.013523
0.00363665
-0.00787443
0.00600137
-0.0228773
0.00698381
-0.0271327
0.00719728
-0.0282285
0.00723229
-0.0286687
0.00726776
-0.0290211
0.0072199
-0.0293599
0.00706076
-0.0296867
0.00689889
-0.0300805
0.00689176
-0.0306088
0.00707447
-0.0312363
0.00734485
-0.0318804
0.00755303
-0.032476
0.00770058
-0.0331032
0.00787426
-0.0338459
0.00800583
-0.0346009
0.00823897
-0.0354521
0.00876077
-0.0364055
0.00925225
-0.0371827
-0.0379189
0.0096542
0.00385198
-0.0117264
0.00519798
-0.0242233
0.00549819
-0.0274329
0.00554826
-0.0282786
0.00546116
-0.0285816
0.00527823
-0.0288382
0.00512252
-0.0292041
0.00507689
-0.029641
0.005122
-0.0301256
0.00513775
-0.0306245
0.00504516
-0.0311437
0.00483004
-0.0316652
0.00463985
-0.0322858
0.00455413
-0.0330175
0.00456007
-0.0338518
0.00474108
-0.0347819
0.00489987
-0.0356109
0.00480264
-0.0363083
0.00486374
-0.0372438
0.00517574
-0.0382309
-0.00255722
-0.00622553
-0.00546687
-0.00979829
-0.0129395
-0.00360339
-0.00262214
-0.00736048
-0.0060412
-0.0109461
-0.00935391
-0.0132305
-0.00376579
0.00114365
-0.00810026
-0.00170672
-0.0122147
-0.00523946
-0.00921381
-0.00312321
0.00426686
-0.00670074
0.00187081
-0.0103641
-0.00157613
-0.00545808
-0.00177889
0.00604575
-0.00418852
0.00428045
-0.00657209
0.000807436
-0.00292979
1.4746e-06
0.00604427
-0.000582512
0.00486443
-0.00151289
0.00173781
-0.00255544
-0.00188724
-0.00568143
0.0019378
0.00410647
0.00312063
0.0036816
0.00357312
0.00128532
0.00363199
-0.00194611
0.00349626
-0.00554571
-0.00930631
0.00273739
0.00136908
0.00517386
0.00124514
0.00669332
-0.000234137
0.00755869
-0.00281149
0.0077219
-0.00570891
0.0076633
-0.00924771
-0.0132265
0.00208937
-0.000720288
0.00454425
-0.00120975
0.0064375
-0.00212738
0.00740078
-0.00377477
0.00789386
-0.00620199
0.00848315
-0.00983699
0.00953609
-0.0142794
-0.0187364
0.000939523
0.00228912
0.00326314
0.00405577
0.00550468
0.00799621
0.0112304
0.0147666
0.0500824
0.00463563
-0.0495423
0.0503873
0.00934933
0.0504547
0.0134556
0.0507025
0.0182339
0.0221525
0.0528771
0.00400092
-0.0522424
0.0530504
0.00917608
0.0529248
0.0135812
0.0533939
0.0177648
0.022955
0.0557311
0.0036923
-0.0554225
0.0558644
0.00904277
0.0558808
0.0135648
0.0560524
0.0175932
0.0231361
0.059033
0.00349897
-0.0588396
0.0591291
0.00894667
0.0594706
0.0132232
0.059345
0.0177188
0.0226631
0.0627047
0.00321372
-0.0624194
0.0628115
0.00883986
0.0633493
0.0126854
0.0633062
0.0177619
0.0638699
0.0220995
0.0260321
0.0666843
0.00294603
-0.0664166
0.0669074
0.00861672
0.067312
0.0122808
0.0675876
0.0174863
0.0678863
0.0218008
0.0256817
0.0709822
0.0028165
-0.0708527
0.0713517
0.00824719
0.0715272
0.0121054
0.0720737
0.0169397
0.0723169
0.0215576
0.0250549
0.0757337
0.0028123
-0.0757295
0.0761798
0.00780114
0.0762891
0.011996
0.0769377
0.0162912
0.0774134
0.0210818
0.0243424
0.0809667
0.00283279
-0.0809871
0.0814045
0.00736329
0.0816013
0.0117992
0.0821838
0.0157087
0.0827023
0.0205634
0.023853
0.0865978
0.00281772
-0.0865827
0.0869298
0.00703132
0.0871765
0.0115525
0.0875672
0.015318
0.0881222
0.0200084
0.0233031
0.0925572
0.00274814
-0.0924876
0.0927882
0.00680034
0.0931217
0.0112189
0.0935249
0.0149148
0.0942927
0.0192407
0.0225683
0.0988691
0.00260228
-0.0987233
0.0990839
0.00658554
0.0995428
0.0107601
0.0999916
0.014466
0.100706
0.0185263
0.0220601
0.105512
0.0024118
-0.105322
0.105716
0.00638158
0.106169
0.0103077
0.106528
0.0141062
0.107149
0.017906
0.0214343
0.112459
0.00222774
-0.112275
0.112653
0.00618686
0.11311
0.0098508
0.113562
0.0136548
0.114347
0.0171208
0.0206016
0.119865
0.00205843
-0.119695
0.120118
0.00593351
0.120609
0.0093603
0.121172
0.013091
0.121923
0.0163703
0.0198278
0.127856
0.0019128
-0.12771
0.128146
0.0056435
0.128607
0.00889916
0.129185
0.0125128
0.129908
0.0156469
0.0189559
0.136451
0.00179568
-0.136334
0.136767
0.00532717
0.137221
0.00844597
0.137867
0.0118668
0.138658
0.0148558
0.0179922
0.145726
0.00168223
-0.145612
0.146067
0.00498581
0.146542
0.00797127
0.147227
0.0111812
0.148035
0.0140479
0.0170154
0.155675
0.00156371
-0.155556
0.156025
0.00463592
0.156514
0.00748159
0.157219
0.010476
0.158072
0.0131953
0.0159756
0.166316
0.00143731
-0.16619
0.166672
0.00428056
0.16719
0.00696303
0.167929
0.00973694
0.168827
0.0122976
0.0148942
0.177671
0.00130546
-0.177539
0.178033
0.00391794
0.178579
0.00641691
0.179345
0.00897123
0.180281
0.0113616
0.0137568
0.189794
0.00117036
-0.189659
0.190163
0.00354942
0.190733
0.00584648
0.191535
0.00816941
0.192532
0.0103649
0.012554
0.202743
0.00103318
-0.202606
0.203125
0.00316734
0.203731
0.00524043
0.204578
0.00732219
0.205628
0.00931472
0.0112863
0.216596
0.000890299
-0.216453
0.216994
0.00276961
0.217627
0.00460682
0.218507
0.00644252
0.21961
0.00821184
0.00995291
0.231406
0.00074798
-0.231263
0.231814
0.00236183
0.232477
0.00394323
0.233401
0.00551814
0.234572
0.00704142
0.008535
0.247259
0.000602018
-0.247113
0.24769
0.00193125
0.248393
0.00323972
0.249373
0.0045386
0.250616
0.00579828
0.00703141
0.264232
0.000452389
-0.264082
0.264681
0.00148205
0.265423
0.00249729
0.266458
0.00350357
0.267776
0.00448085
0.00543631
0.282417
0.000304997
-0.28227
0.282883
0.00101619
0.283665
0.00171548
0.284762
0.00240648
0.286164
0.00307905
0.0037368
0.301906
0.000157022
-0.301758
0.3024
0.000522444
0.303231
0.000883521
0.304397
0.00124084
0.305888
0.00158863
0.0019283
0.322801
-0.322644
0.323323
0.324207
0.325448
0.327036
0.0320671
0.0290422
-0.0276544
-0.0334548
0.0301614
0.0283484
-0.0264427
0.028158
0.0275101
-0.0255067
0.0262098
0.0267116
-0.0247634
0.0243538
0.0260064
-0.0241504
0.0225849
0.0253944
-0.0236255
0.0207892
0.0248934
-0.0230977
0.0188828
0.0243991
-0.0224926
0.0170523
0.0237909
-0.0219604
0.0153342
0.0232946
-0.0215765
0.0136328
0.0229357
-0.0212342
0.0120151
0.0226005
-0.0209829
0.0104763
0.0223316
-0.0207927
0.00890494
0.0221488
-0.0205774
0.00728437
0.0220399
-0.0204193
0.00567328
0.0220157
-0.0204046
0.00412848
0.0220514
-0.0205066
0.00263186
0.0221709
-0.0206743
0.00115701
0.0225363
-0.0210614
0.0184084
-0.0172514
0.0289081
0.0308993
-0.0307652
0.0271121
0.0301444
0.0252589
0.0293633
0.0234285
0.028542
0.0216463
0.0277886
0.019947
0.0270937
0.018413
0.0264275
0.0168855
0.0259266
0.0152395
0.0254369
0.0136656
0.0248684
0.0121934
0.0244079
0.0106953
0.0240986
0.00916817
0.0238587
0.00770453
0.0236125
0.00633213
0.0234123
0.00495848
0.0233894
0.00352145
0.0234885
0.00205803
0.0236343
0.000683779
0.0239105
0.0190921
0.0256954
0.0325689
-0.027365
0.0240213
0.0318184
0.0223358
0.0310488
0.020705
0.0301728
0.0192007
0.0292929
0.0176594
0.028635
0.0160978
0.0279891
0.0147005
0.0273238
0.0133349
0.0268025
0.0118823
0.026321
0.010453
0.0258372
0.00914324
0.0254084
0.00789722
0.0251047
0.00661066
0.024899
0.00530188
0.0247211
0.00404485
0.0246464
0.0028524
0.0246809
0.00167826
0.0248084
0.000604167
0.0249846
0.0196963
0.0220365
0.0341116
-0.0235792
0.0206469
0.033208
0.0192398
0.0324559
0.0176863
0.0317263
0.0161979
0.0307813
0.0149514
0.0298815
0.013679
0.0292616
0.0123438
0.028659
0.0111059
0.0280405
0.00994559
0.0274813
0.00880343
0.0269793
0.00761933
0.0265925
0.00643876
0.0262853
0.00530554
0.0260322
0.0042263
0.0258003
0.0031736
0.0256991
0.00213322
0.0257213
0.00103486
0.0259068
5.78136e-05
0.0259617
0.0197541
0.0183463
0.0355672
-0.0198019
0.0170107
0.0345436
0.0158605
0.0336062
0.0147958
0.032791
0.01353
0.032047
0.0122494
0.0311621
0.011179
0.0303319
0.0101279
0.0297101
0.00902653
0.0291419
0.00790172
0.0286061
0.00681199
0.028069
0.00581969
0.0275848
0.00488195
0.027223
0.00394803
0.0269662
0.00301059
0.0267378
0.00210124
0.0266084
0.00128656
0.026536
0.000513639
0.0266797
-0.000146829
0.0266221
0.0196073
0.014598
0.0364977
-0.0155285
0.0135172
0.0356244
0.0123003
0.0348231
0.011214
0.0338772
0.0103244
0.0329366
0.00935758
0.0321289
0.00834962
0.0313399
0.00744062
0.0306191
0.00658987
0.0299927
0.00576247
0.0294335
0.00493857
0.0288929
0.00409828
0.0284251
0.00328101
0.0280403
0.0024937
0.0277535
0.0017355
0.027496
0.00100886
0.0273351
0.000298842
0.027246
-0.000202205
0.0271808
-0.000547644
0.0269676
0.0190597
0.0101669
0.0373622
-0.0110313
0.00953299
0.0362583
0.00887641
0.0354797
0.00802801
0.0347256
0.00718009
0.0337846
0.00646313
0.0328459
0.00575425
0.0320488
0.0050178
0.0313555
0.00429183
0.0307187
0.00359259
0.0301327
0.00290087
0.0295847
0.00223181
0.0290942
0.00158435
0.0286877
0.000974869
0.028363
0.000401913
0.0280689
-0.000158197
0.0278952
-0.000709384
0.0277972
-0.00113498
0.0276064
-0.000963858
0.0267965
0.0180958
0.00626077
0.0379307
-0.00682926
0.00545551
0.0370636
0.00489902
0.0360362
0.00444473
0.0351799
0.00385753
0.0343718
0.00324837
0.033455
0.00270327
0.0325939
0.00220249
0.0318563
0.00170381
0.0312173
0.00117172
0.0306648
0.000663823
0.0300926
0.000186319
0.0295717
-0.000256786
0.0291308
-0.000683882
0.0287901
-0.00111417
0.0284992
-0.00149452
0.0282755
-0.00176129
0.028064
-0.00189906
0.0277441
-0.00149065
0.026388
0.0166052
0.00160476
0.0381624
-0.00183645
0.00149652
0.0371718
0.00110755
0.0364251
0.000783028
0.0355044
0.000581724
0.0345731
0.00029024
0.0337465
-6.40244e-05
0.0329481
-0.000453281
0.0322456
-0.000810349
0.0315744
-0.00107491
0.0309294
-0.00133834
0.030356
-0.00163968
0.029873
-0.00199288
0.029484
-0.00233596
0.0291331
-0.00261209
0.0287753
-0.00284619
0.0285096
-0.00306324
0.028281
-0.00306525
0.0277462
-0.00216297
0.0254858
0.0144422
-0.00261943
0.00255087
-0.00269148
-0.00257462
-0.00268113
-0.00288991
-0.0029952
-0.00306452
-0.00310475
-0.00319557
-0.00340992
-0.00367843
-0.00393106
-0.00408806
-0.00415907
-0.00422191
-0.00429388
-0.00429142
-0.00397819
-0.00271577
0.0395205
0.00223087
0.0367742
0.00214557
0.0340804
0.00206367
0.0314428
0.00198845
0.0288592
0.00191893
0.0263252
0.00185628
0.0238357
0.00179864
0.0213824
0.00174456
0.0189591
0.0016999
0.0165622
0.00165728
0.0141805
0.00162612
0.0118029
0.00160085
0.00942597
0.00157939
0.00701838
0.00156943
0.00457339
0.00156831
0.00207896
0.00158956
0.00145073
0.0392753
0.00501779
0.0365463
0.00487453
0.0338737
0.0047363
0.0312567
0.00460543
0.0286906
0.00448502
0.0261726
0.00437429
0.0236979
0.00427335
0.0212612
0.00418129
0.0188596
0.00410146
0.0164818
0.00403512
0.0141206
0.00398725
0.0117591
0.00396235
0.00938014
0.00395839
0.0069714
0.00397817
0.00452583
0.00401388
0.0020246
0.00409079
0.00347533
0.038772
0.00777862
0.036071
0.00757549
0.03343
0.00737734
0.0308482
0.00718715
0.0283206
0.0070127
0.0258385
0.00685638
0.0233962
0.00671561
0.0209868
0.00659072
0.01861
0.00647823
0.0162585
0.00638664
0.0139296
0.00631616
0.0116116
0.0062803
0.00929462
0.00627542
0.00695861
0.00631418
0.00460006
0.00637243
0.00213064
0.0065602
0.00560598
0.0407084
0.010764
0.0379967
0.0104903
0.0353439
0.0102282
0.032747
0.0099743
0.0302074
0.00972672
0.0277255
0.00949462
0.0252957
0.00928618
0.0229031
0.00910821
0.0205353
0.00895849
0.0181824
0.00883122
0.0158456
0.00872341
0.0135285
0.00863326
0.0112282
0.00858057
0.00894851
0.00855511
0.00666384
0.00859886
0.00433414
0.00870212
0.00196395
0.0089304
0.00756993
0.0396332
0.0134866
0.0369802
0.0131434
0.0343925
0.0128159
0.0318619
0.0125049
0.0293843
0.0122044
0.0269615
0.0119174
0.0245996
0.011648
0.0222972
0.0114107
0.0200385
0.0112172
0.0178011
0.0110686
0.0155599
0.0109646
0.0133111
0.0108821
0.0110643
0.0108273
0.00880696
0.0108125
0.00658072
0.0108251
0.00435569
0.0109271
0.0020188
0.0112673
0.00958872
0.0408441
0.0165729
0.0381927
0.016138
0.0356142
0.0157219
0.0331152
0.0153149
0.030682
0.014938
0.0282885
0.0145979
0.0259252
0.0142807
0.0235978
0.0139755
0.021321
0.0136874
0.0191052
0.013433
0.0169393
0.0132345
0.0148188
0.0130852
0.0126892
0.0130117
0.0105463
0.0129702
0.00838528
0.0129735
0.00619583
0.0130145
0.0040255
0.0130975
0.00182758
0.0134652
0.0114163
0.0417801
0.0197239
0.0391434
0.0192096
0.0365638
0.0187176
0.0340561
0.0182297
0.0316364
0.0177345
0.029306
0.0172684
0.0270575
0.0168464
0.024849
0.0164893
0.0226529
0.0161716
0.0204594
0.015881
0.0183011
0.0155912
0.0161812
0.0153544
0.0141015
0.0151649
0.0120874
0.0150258
0.0100741
0.0149835
0.00803334
0.0150143
0.00597001
0.0150779
0.00388541
0.0151821
0.00175706
0.0155936
0.0131734
0.0395525
0.0222409
-0.0420696
0.0370704
0.0216918
0.0346295
0.0211584
0.0322744
0.0205848
0.0299683
0.0200407
0.0277283
0.0195084
0.0255594
0.0190153
0.0234466
0.0186021
0.0213662
0.018252
0.0193078
0.0179393
0.0172485
0.0176506
0.0152373
0.0173655
0.0132434
0.0171588
0.011249
0.0170202
0.00931491
0.0169175
0.00740914
0.01692
0.0054745
0.0170125
0.00350661
0.01715
0.00152551
0.0175747
0.0146989
0.0369998
0.0248013
-0.0395601
0.0344785
0.0242131
0.0321819
0.023455
0.0300287
0.022738
0.0279294
0.0221399
0.0258359
0.0216019
0.0237913
0.0210598
0.0218388
0.0205547
0.0199275
0.0201633
0.0180385
0.0198283
0.0161435
0.0195456
0.0142194
0.0192896
0.0123648
0.0190135
0.0105593
0.0188256
0.00871883
0.018758
0.0068735
0.0187654
0.00505633
0.0188297
0.00325885
0.0189475
0.00145211
0.0193814
0.016151
0.0342596
-0.0371127
0.03203
0.0299783
0.0279529
0.0259425
0.0239188
0.021881
0.019943
0.0181458
0.0163977
0.0147091
0.0130158
0.0112365
0.00948473
0.00782343
0.00618418
0.00450722
0.00278042
0.00110039
0.0054619
0.00628168
0.0377091
0.00524313
0.006878
0.0460492
0.00479955
0.00558012
0.047347
0.0497449
0.0047647
0.00481147
0.0505136
0.0535456
0.0044835
0.00423911
0.054118
0.0575444
0.00410184
0.00379061
0.0579929
0.0618549
0.00379731
0.00346572
0.0621798
0.0665147
0.00359257
0.00325968
0.0667207
0.0715156
0.00341313
0.00314373
0.0716315
0.0768153
0.0032125
0.00304736
0.0769116
0.0823822
0.00297521
0.00290634
0.0825232
0.088218
0.00270914
0.00270107
0.0884232
0.0944088
0.00242865
0.00243871
0.0946711
0.101082
0.002152
0.00215181
0.101369
0.108291
0.00189659
0.00186764
0.108575
0.116022
0.00166638
0.00161111
0.116279
0.12427
0.00147045
0.00140059
0.124481
0.133022
0.00131044
0.00123587
0.133187
0.142288
0.0011806
0.00110892
0.142415
0.15212
0.00107003
0.00100355
0.152225
0.162598
0.000969338
0.000908522
0.162693
0.173789
0.000870303
0.000816033
0.173881
0.185754
0.000772153
0.000723561
0.185846
0.198542
0.000674408
0.00063212
0.198633
0.212206
0.000578259
0.000542084
0.212296
0.226801
0.000484397
0.000454127
0.226889
0.242393
0.000393631
0.000368397
0.242478
0.259054
0.00030761
0.000287776
0.259135
0.276901
0.000219633
0.000204476
0.276985
0.296041
0.000115605
0.000107395
0.296138
0.316689
6.23485e-05
5.67955e-05
0.316739
0.338633
0.338689
0.0472136
-0.0333214
0.0475707
-0.0311223
0.0477788
-0.0275732
0.0480198
-0.0238201
0.048187
-0.0199692
0.0481768
-0.0155183
0.0487343
-0.0115888
0.0486865
-0.00678146
0.0494193
-0.00256927
0.0024279
0.0507501
-0.0335579
0.0507985
-0.0311707
0.0507098
-0.0274845
0.0510466
-0.0241569
0.0510271
-0.0199497
0.0512452
-0.0157364
0.0514683
-0.0118118
0.0515651
-0.00687826
0.0521278
-0.00313202
0.00231332
0.0542322
-0.0336721
0.0542295
-0.031168
0.0540971
-0.0273521
0.0543132
-0.024373
0.0542677
-0.0199043
0.0546296
-0.0160983
0.0545729
-0.0117551
0.0549472
-0.00725253
0.0550877
-0.00327252
0.00197852
0.0580672
-0.0337464
0.0580226
-0.0311234
0.057904
-0.0272335
0.0579193
-0.0243883
0.0579006
-0.0198856
0.0581424
-0.01634
0.0581446
-0.0117573
0.0584536
-0.00756159
0.0584951
-0.00331395
0.00163396
0.0621697
-0.0337364
0.0619929
-0.0309465
0.061893
-0.0271337
0.0617382
-0.0242334
0.0617422
-0.0198896
0.0617998
-0.0163976
0.061925
-0.0118826
0.0620533
-0.00768986
0.0622692
-0.00352983
0.00148373
0.0665991
-0.0336148
0.0663442
-0.0306915
0.0662515
-0.027041
0.0659867
-0.0239686
0.066001
-0.0199039
0.0659088
-0.0163054
0.0660871
-0.0120609
0.0660811
-0.00768388
0.0663237
-0.00377238
0.00139083
0.0714081
-0.0333913
0.0711067
-0.0303902
0.0709683
-0.0269026
0.0706631
-0.0236635
0.0706316
-0.0198724
0.0704543
-0.016128
0.0705846
-0.0121912
0.070544
-0.00764332
0.07072
-0.00394838
0.00125816
0.0766102
-0.0330899
0.0762616
-0.0300416
0.0760697
-0.0267107
0.075758
-0.0233517
0.0756456
-0.0197601
0.0754563
-0.0159387
0.0754774
-0.0122122
0.0754802
-0.00764617
0.0755117
-0.0039799
0.00104038
0.0821496
-0.0327162
0.0817592
-0.0296512
0.0815094
-0.0264608
0.0811875
-0.0230299
0.0810096
-0.0195822
0.0808224
-0.0157515
0.080751
-0.0121407
0.0807851
-0.00768028
0.0807352
-0.00393002
0.000788444
0.0879909
-0.0322839
0.0875706
-0.0292309
0.0872715
-0.0261617
0.0869377
-0.0226962
0.0867175
-0.0193619
0.086522
-0.0155561
0.0863934
-0.0120121
0.0864203
-0.00770726
0.0863606
-0.0038703
0.000566314
0.0941777
-0.0317904
0.0937389
-0.0287921
0.0933894
-0.0258122
0.0930344
-0.0223412
0.0927769
-0.0191044
0.0925513
-0.0153306
0.0923934
-0.0118542
0.0923696
-0.00768344
0.0923353
-0.00383598
0.000413985
0.100799
-0.0312204
0.100324
-0.0283169
0.0999019
-0.0253901
0.0995163
-0.0219556
0.0991964
-0.0187845
0.0989321
-0.0150663
0.098734
-0.0116561
0.0986464
-0.0075958
0.0986276
-0.00381722
0.000318361
0.107905
-0.0305502
0.107349
-0.0277607
0.106833
-0.0248743
0.106386
-0.0215088
0.105985
-0.0183839
0.105664
-0.0147446
0.105417
-0.011409
0.105273
-0.00745168
0.105256
-0.00380106
0.000253062
0.11548
-0.0297516
0.114811
-0.0270912
0.114175
-0.024239
0.11365
-0.0209834
0.113159
-0.0178927
0.112774
-0.0143597
0.112471
-0.0111064
0.112278
-0.00725879
0.112239
-0.00376151
0.000217166
0.123552
-0.0288229
0.122741
-0.0262807
0.121984
-0.023482
0.121364
-0.0203634
0.120787
-0.0173152
0.120338
-0.0139105
0.119972
-0.010741
0.119744
-0.0070308
0.119664
-0.00368078
0.000185368
0.132134
-0.0277693
0.131181
-0.0253283
0.130309
-0.0226103
0.129592
-0.0196462
0.128944
-0.0166671
0.128442
-0.0134079
0.128024
-0.0103238
0.127778
-0.00678419
0.127663
-0.00356634
0.000138712
0.141247
-0.0266014
0.140171
-0.024252
0.139198
-0.0216367
0.138389
-0.018838
0.137682
-0.0159597
0.137138
-0.0128643
0.136681
-0.00986612
0.136419
-0.00652272
0.136274
-0.00342117
7.86777e-05
0.150953
-0.0253292
0.149776
-0.0230749
0.148716
-0.0205765
0.147822
-0.0179443
0.147061
-0.0151984
0.146477
-0.0122804
0.145992
-0.0093819
0.145711
-0.00624136
0.145548
-0.00325793
1.44112e-05
0.161317
-0.0239528
0.160049
-0.021807
0.15891
-0.0194382
0.157934
-0.0169678
0.157114
-0.0143783
0.15648
-0.0116461
0.155974
-0.00887657
0.155669
-0.00593579
0.155497
-0.00308641
-4.45483e-05
0.172398
-0.0224691
0.171038
-0.0204471
0.169824
-0.018224
0.168767
-0.015911
0.167882
-0.0134929
0.167186
-0.0109506
0.166654
-0.00834424
0.16632
-0.00560239
0.166144
-0.00291003
-9.05392e-05
0.184247
-0.0208702
0.182786
-0.0189859
0.181488
-0.0169255
0.180351
-0.014774
0.179394
-0.0125362
0.178632
-0.0101886
0.178057
-0.00776896
0.177692
-0.00523713
0.177504
-0.00272278
-0.000125158
0.196912
-0.0191494
0.195342
-0.0174157
0.193949
-0.0155318
0.192729
-0.0135545
0.191696
-0.0115029
0.190865
-0.00935821
0.19024
-0.0071437
0.189836
-0.00483279
0.189633
-0.00252068
-0.000150674
0.210446
-0.0172995
0.20876
-0.0157294
0.207261
-0.014033
0.205953
-0.0122464
0.204839
-0.0103894
0.203939
-0.00845801
0.203259
-0.00646341
0.202812
-0.00438626
0.202589
-0.0022977
-0.000166907
0.224903
-0.0153134
0.223094
-0.0139205
0.221484
-0.0124228
0.22008
-0.0108427
0.218888
-0.00919706
0.217916
-0.00748651
0.217179
-0.00572559
0.21669
-0.00389762
0.216445
-0.00205298
-0.000174849
0.240349
-0.0131841
0.238411
-0.0119825
0.236683
-0.010695
0.235177
-0.00933652
0.2339
-0.00791984
0.23286
-0.00644718
0.232067
-0.00493224
0.231536
-0.00336697
0.231266
-0.00178257
-0.000172234
0.256854
-0.0109031
0.25478
-0.00990875
0.25293
-0.00884547
0.251318
-0.00772398
0.249951
-0.00655324
0.248841
-0.00533691
0.247994
-0.0040851
0.247422
-0.00279554
0.247127
-0.00148755
-0.000158053
0.274535
-0.00845334
0.272312
-0.00768556
0.270331
-0.00686433
0.268603
-0.00599652
0.267139
-0.00508932
0.265949
-0.00414662
0.26504
-0.00317642
0.264424
-0.00217883
0.264103
-0.0011666
-0.00013752
0.29354
-0.00585588
0.291169
-0.00531391
0.289046
-0.0047417
0.287189
-0.00413966
0.285611
-0.00351138
0.284324
-0.00285971
0.283338
-0.00219006
0.282663
-0.0015035
0.282304
-0.000807624
-0.000103544
0.313896
-0.00301215
0.311324
-0.00274216
0.309035
-0.00245331
0.307042
-0.00214585
0.305352
-0.00182181
0.303976
-0.0014839
0.302922
-0.00113574
0.302198
-0.000779248
0.301808
-0.000418215
-5.30405e-05
0.335677
0.332935
0.330482
0.328336
0.326514
0.32503
0.323894
0.323115
0.322697
)
;

boundaryField
{
    outlet
    {
        type            calculated;
        value           nonuniform 0();
    }
    upperWall
    {
        type            symmetryPlane;
        value           uniform 0;
    }
    lowerWall
    {
        type            symmetryPlane;
        value           nonuniform 0();
    }
    inlet
    {
        type            calculated;
        value           nonuniform 0();
    }
    cylinder
    {
        type            calculated;
        value           uniform 0;
    }
    frontAndBack
    {
        type            empty;
        value           nonuniform 0();
    }
    procBoundary5to1
    {
        type            processor;
        value           nonuniform List<scalar> 
20
(
0.00878275
0.0127079
0.0154699
0.000569501
0.000600715
0.00063009
0.000649127
0.00066468
0.000677744
0.000690848
0.000708764
0.000723428
0.000739542
0.000755658
0.000776686
0.000797573
0.000838165
0.000876679
0.000904866
0.000628232
)
;
    }
    procBoundary5to4
    {
        type            processor;
        value           nonuniform List<scalar> 
45
(
-0.0423208
-0.0420622
-0.0415328
-0.00798676
-0.0434856
-0.0423559
-0.0138591
-0.0435579
-0.0170768
-0.0444271
-0.00469998
-0.0428315
-0.0403799
-0.00488858
-0.0380636
-0.0456056
-0.0497101
-0.0532644
-0.0571628
-0.0615504
-0.0663099
-0.0713362
-0.0766146
-0.0821449
-0.0879519
-0.0941283
-0.100806
-0.108036
-0.115792
-0.124074
-0.132862
-0.142158
-0.152009
-0.162497
-0.17369
-0.185656
-0.198444
-0.21211
-0.226707
-0.242302
-0.258968
-0.276813
-0.295937
-0.316635
-0.33857
)
;
    }
    procBoundary5to6
    {
        type            processor;
        value           nonuniform List<scalar> 
63
(
0.0228132
0.0286829
0.0296223
0.0288764
0.0196326
0.028725
0.029026
0.0219847
0.0299959
0.030137
0.0301657
0.0231388
0.0320671
0.032602
0.0331975
0.0260329
-0.0079973
0.0165466
-0.0142621
-0.0162314
-0.0141198
-0.00910037
0.00686535
-0.00373935
0.00951245
0.00329011
0.0130354
0.0078544
0.0171444
0.0111281
0.0228207
0.0180678
0.0500558
0.0525915
0.0558712
0.059818
-0.0260824
0.0639202
0.0682367
0.0729437
0.0781258
0.0831918
0.088672
0.0950275
0.101214
0.107775
0.11518
0.122697
0.13078
0.139621
0.149012
0.159112
0.169908
0.181419
0.193734
0.206896
0.220943
0.23599
0.25212
0.269371
0.287863
0.307696
0.328965
)
;
    }
}


// ************************************************************************* //
