/*--------------------------------*- C++ -*----------------------------------*\
| =========                 |                                                 |
| \\      /  F ield         | OpenFOAM: The Open Source CFD Toolbox           |
|  \\    /   O peration     | Version:                                        |
|   \\  /    A nd           | Website:  www.openfoam.com                      |
|    \\/     M anipulation  |                                                 |
\*---------------------------------------------------------------------------*/
FoamFile
{
    version     2.0;
    format      ascii;
    class       volVectorField;
    location    "132.4";
    object      U;
}
// * * * * * * * * * * * * * * * * * * * * * * * * * * * * * * * * * * * * * //

dimensions      [0 1 -1 0 0 0 0];


internalField   nonuniform List<vector> 
1136
(
(0.599012 -0.620223 -2.84547e-22)
(0.541284 -0.796117 8.07451e-22)
(0.666317 -0.866383 -2.04907e-21)
(0.611585 -0.878465 -1.0671e-22)
(0.565329 -0.760008 2.07386e-21)
(0.420526 -0.805995 -1.0244e-21)
(0.455047 -0.359524 7.09045e-22)
(0.324042 0.0139289 -2.26906e-21)
(0.565927 0.36089 1.50552e-21)
(0.569566 0.677489 3.9374e-22)
(0.604487 0.594448 -1.63859e-21)
(0.549962 0.855874 1.99864e-21)
(0.615276 0.583858 -1.09513e-21)
(0.540114 0.128391 1.28677e-21)
(0.697792 -0.0510871 -9.67939e-22)
(0.792849 -0.596953 -6.43981e-24)
(0.708979 -0.615013 -1.98332e-22)
(0.701493 -0.615918 3.24196e-22)
(0.762019 -0.521558 4.51991e-22)
(0.8576 0.216351 -3.55981e-22)
(0.877463 0.399749 -2.03088e-22)
(0.878928 0.655875 -6.62122e-23)
(0.898783 0.712215 -3.39488e-22)
(0.974953 -0.0994277 2.44541e-23)
(1.01217 -0.376203 -2.7859e-23)
(1.02751 -0.583001 -1.07575e-23)
(1.0145 -0.648484 -2.45608e-22)
(1.05887 0.3699 4.99963e-22)
(1.06942 0.664597 8.94179e-23)
(1.00201 0.124759 -4.54837e-24)
(0.742807 -0.642362 1.01738e-20)
(0.659139 -0.840244 -2.26047e-20)
(0.726679 -0.882747 4.97874e-21)
(0.630657 -0.839285 -2.72249e-21)
(0.587181 -0.699016 3.21419e-22)
(0.424351 -0.771908 7.50041e-21)
(0.390097 -0.333863 -9.10791e-21)
(0.296958 -0.0204414 1.11595e-22)
(0.519189 0.315302 6.2574e-21)
(0.566084 0.654673 -2.11307e-21)
(0.582431 0.583163 2.42748e-23)
(0.487382 0.845684 -2.66086e-22)
(0.629452 0.564022 -1.84997e-21)
(0.559253 0.0805605 -5.67443e-21)
(0.722546 -0.104424 5.13908e-21)
(0.855206 -0.588404 4.30012e-23)
(0.73916 -0.603256 5.61767e-24)
(0.749787 -0.622038 1.04022e-21)
(0.772684 -0.543825 -3.14334e-21)
(0.836505 0.191654 1.18275e-21)
(0.857493 0.389994 3.91462e-22)
(0.836949 0.660271 1.17976e-22)
(0.877989 0.704369 -2.65685e-22)
(0.98852 -0.109617 -1.82987e-22)
(1.02669 -0.386479 1.56823e-21)
(1.04889 -0.589145 -7.0214e-22)
(1.03936 -0.646272 6.61104e-22)
(1.05632 0.364375 -4.09872e-23)
(1.05004 0.662116 1.52757e-22)
(0.998078 0.126298 -8.85598e-24)
(0.901908 -0.601243 -2.29256e-20)
(0.807151 -0.838772 1.97515e-20)
(0.795605 -0.877232 -2.64824e-21)
(0.678274 -0.840238 2.65962e-21)
(0.624982 -0.673304 8.23942e-21)
(0.462764 -0.724621 1.3174e-21)
(0.361159 -0.317858 -1.78931e-20)
(0.33196 -0.0685985 7.26651e-22)
(0.505195 0.242514 1.87908e-22)
(0.574736 0.641882 5.37452e-21)
(0.600313 0.617682 5.87976e-21)
(0.499303 0.855602 -1.44372e-21)
(0.660792 0.593009 -1.98943e-21)
(0.618048 0.0861444 -1.05594e-20)
(0.756827 -0.126931 3.2001e-21)
(0.897774 -0.592674 1.28966e-20)
(0.757478 -0.607954 -1.01248e-20)
(0.789745 -0.622718 1.72106e-21)
(0.779855 -0.548735 3.80134e-22)
(0.810785 0.194049 3.34383e-21)
(0.843828 0.383866 -3.33127e-21)
(0.808702 0.646973 1.51741e-21)
(0.86377 0.68094 1.29025e-21)
(1.00403 -0.117097 1.76335e-21)
(1.04365 -0.393533 -1.94929e-21)
(1.06257 -0.595734 -4.59356e-22)
(1.05899 -0.641085 -4.54832e-24)
(1.052 0.366216 -1.83233e-21)
(1.02899 0.663516 1.86842e-22)
(0.993141 0.130695 -4.31724e-23)
(1.06887 -0.558649 1.60532e-20)
(0.980846 -0.80947 4.01696e-20)
(0.87369 -0.839202 -8.12568e-21)
(0.777178 -0.800176 -7.59643e-21)
(0.670937 -0.623929 2.52278e-21)
(0.532347 -0.678513 -9.6737e-22)
(0.38371 -0.327123 9.54818e-21)
(0.400387 -0.103334 -3.79517e-21)
(0.489763 0.180886 -1.22378e-21)
(0.596982 0.616229 -7.62493e-21)
(0.62578 0.616116 -5.04798e-21)
(0.469536 0.843514 2.7455e-20)
(0.662701 0.584426 -1.99326e-20)
(0.684703 0.0500722 3.88024e-21)
(0.80505 -0.169634 -1.48452e-21)
(0.968694 -0.571588 -2.30046e-21)
(0.80678 -0.602221 9.02829e-21)
(0.847031 -0.633949 -2.11919e-21)
(0.797719 -0.569225 -2.60513e-21)
(0.799112 0.163397 2.98334e-21)
(0.828014 0.374488 -4.6384e-21)
(0.771506 0.650614 6.40062e-21)
(0.844165 0.666165 -6.43254e-21)
(1.01612 -0.126497 6.80137e-23)
(1.06582 -0.399517 2.05489e-21)
(1.07873 -0.601717 -2.89452e-22)
(1.07864 -0.634997 2.17938e-21)
(1.04709 0.365581 1.67703e-21)
(1.00287 0.660082 -5.33994e-22)
(0.984708 0.1304 1.64648e-23)
(1.22478 -0.456715 -3.6561e-20)
(1.14785 -0.725683 1.97695e-20)
(0.950245 -0.787536 -7.07629e-21)
(0.884139 -0.775745 -2.21532e-20)
(0.715824 -0.589835 6.29825e-21)
(0.627523 -0.613402 5.89606e-21)
(0.393202 -0.326556 -1.39375e-21)
(0.475836 -0.132256 -3.82455e-21)
(0.505954 0.086001 -5.42442e-21)
(0.639709 0.588141 1.28148e-20)
(0.672903 0.662028 -1.13611e-20)
(0.530416 0.836679 -1.80834e-21)
(0.70864 0.595708 -1.04451e-20)
(0.783263 0.0480539 2.20236e-20)
(0.862923 -0.18797 -1.52939e-20)
(1.01506 -0.563307 -4.71414e-21)
(0.8438 -0.594042 6.14288e-21)
(0.889837 -0.620276 5.17902e-21)
(0.809192 -0.562044 1.99668e-22)
(0.777061 0.171592 -5.35856e-23)
(0.819515 0.373014 3.40927e-21)
(0.755214 0.633611 -4.17169e-21)
(0.836832 0.635113 3.61258e-21)
(1.02832 -0.139292 3.76482e-21)
(1.0869 -0.406062 -3.05771e-21)
(1.08801 -0.60914 -3.75151e-22)
(1.08949 -0.624791 -3.40648e-21)
(1.03553 0.375813 -3.54587e-21)
(0.974258 0.660592 1.59343e-22)
(0.975709 0.132401 4.29115e-25)
(1.377 -0.359267 -2.19066e-19)
(1.28788 -0.629335 5.654e-20)
(1.05871 -0.711206 6.58485e-20)
(0.996136 -0.725089 -5.0006e-20)
(0.785273 -0.551585 1.80342e-20)
(0.722898 -0.546945 -2.10211e-22)
(0.423421 -0.344349 1.07556e-21)
(0.57669 -0.172089 -3.90103e-21)
(0.545119 0.0156458 -2.4406e-21)
(0.645254 0.527194 3.89926e-21)
(0.749202 0.638193 5.95865e-21)
(0.570519 0.83916 1.48292e-20)
(0.712971 0.622564 -1.81597e-20)
(0.88021 0.0311522 -1.24446e-20)
(0.945631 -0.21998 9.00921e-21)
(1.08255 -0.530539 -2.84866e-21)
(0.899897 -0.588854 -7.41845e-21)
(0.944175 -0.628192 1.01249e-20)
(0.837362 -0.576766 5.23052e-22)
(0.77195 0.134623 -7.70493e-21)
(0.808034 0.36553 -1.99355e-21)
(0.723063 0.638912 2.93113e-21)
(0.821785 0.617283 -1.54351e-21)
(1.03895 -0.146707 3.02669e-21)
(1.10986 -0.408323 -5.18272e-21)
(1.09969 -0.611494 4.13811e-21)
(1.09809 -0.615771 -1.21223e-21)
(1.02223 0.379369 5.02637e-21)
(0.941614 0.655982 -8.50061e-22)
(0.964511 0.129677 1.36752e-22)
(1.38253 -0.473223 -2.86943e-20)
(1.17061 -0.608956 3.41351e-20)
(1.04922 -0.665928 -2.06961e-20)
(0.863626 -0.512575 -7.95962e-21)
(0.780246 -0.465642 -4.56391e-21)
(0.476955 -0.339002 4.49692e-21)
(0.601507 -0.206752 2.83147e-21)
(0.592335 -0.0509825 -3.70854e-21)
(0.657325 0.449626 -4.38735e-21)
(0.827288 0.662696 6.38873e-21)
(0.669437 0.851903 -4.49219e-21)
(0.820176 0.609063 -3.49684e-21)
(0.993212 0.0135335 -8.75315e-21)
(1.02716 -0.233165 -7.73206e-22)
(1.12467 -0.504435 1.55164e-20)
(0.936899 -0.565684 -1.49762e-21)
(0.976981 -0.605662 6.95428e-21)
(0.853722 -0.556437 -8.4193e-21)
(0.755262 0.144342 7.6353e-21)
(0.803883 0.365254 -4.57373e-21)
(0.717919 0.621257 2.3412e-21)
(0.826736 0.581334 -3.04768e-21)
(1.05414 -0.163671 1.21725e-22)
(1.12547 -0.412283 2.52157e-21)
(1.101 -0.6164 -2.14515e-21)
(1.09392 -0.600469 -1.82742e-21)
(0.99783 0.396645 2.28781e-21)
(0.906891 0.653714 8.51727e-23)
(0.953508 0.128546 -1.94726e-22)
(1.4524 -0.383699 1.13891e-20)
(1.27415 -0.51186 6.359e-21)
(1.09083 -0.599746 -1.50686e-20)
(0.953035 -0.479572 -2.32578e-21)
(0.827398 -0.390913 -5.30955e-21)
(0.584257 -0.318975 -3.59863e-22)
(0.602117 -0.251247 -3.54891e-21)
(0.688711 -0.115616 2.66954e-21)
(0.672908 0.341875 -1.42396e-21)
(0.856386 0.592868 5.53124e-21)
(0.772085 0.838689 1.00097e-20)
(0.846851 0.689455 -4.40884e-21)
(1.05851 0.0429235 1.1836e-20)
(1.12546 -0.236175 -2.02166e-20)
(1.18676 -0.460217 -1.22331e-20)
(0.998342 -0.554928 8.50494e-21)
(1.01254 -0.613857 3.31421e-21)
(0.890556 -0.565989 4.67332e-22)
(0.755048 0.104953 -2.67282e-21)
(0.799569 0.357341 -6.4032e-21)
(0.700461 0.622256 5.30836e-21)
(0.826237 0.563743 9.69997e-22)
(1.0705 -0.1682 -2.1719e-22)
(1.14158 -0.408494 3.93789e-22)
(1.10202 -0.613175 2.84486e-21)
(1.08548 -0.587683 -3.65362e-21)
(0.968901 0.405375 -1.61173e-21)
(0.869117 0.647429 -6.51855e-22)
(0.941344 0.123303 1.97558e-22)
(1.51156 -0.221455 -6.65831e-20)
(1.34483 -0.369811 2.49279e-20)
(1.1227 -0.515455 1.38042e-20)
(1.01954 -0.457567 -9.53051e-21)
(0.887252 -0.335303 -2.36083e-21)
(0.706494 -0.286058 -3.38109e-21)
(0.596176 -0.280504 1.73787e-21)
(0.727914 -0.178638 -1.38922e-21)
(0.670553 0.265299 -1.01513e-21)
(0.910574 0.557276 4.85065e-21)
(0.864633 0.832166 9.55767e-21)
(0.970536 0.657711 -1.60886e-20)
(1.16007 0.00531138 7.88143e-21)
(1.20767 -0.256785 1.75247e-20)
(1.22905 -0.431262 -1.57634e-20)
(1.03731 -0.514713 -2.35465e-21)
(1.03291 -0.587547 2.20465e-21)
(0.917914 -0.554659 3.96713e-21)
(0.75494 0.106702 -6.53152e-21)
(0.795292 0.355126 3.47192e-21)
(0.699796 0.611824 1.31982e-21)
(0.852252 0.524462 1.0388e-21)
(1.09383 -0.182133 -5.52034e-21)
(1.15259 -0.409178 2.10468e-21)
(1.09276 -0.613103 1.25649e-21)
(1.06227 -0.568751 -1.79337e-21)
(0.930413 0.424851 2.58339e-21)
(0.834908 0.640146 -1.93898e-22)
(0.930365 0.118473 3.71459e-24)
(1.4077 -0.0908336 4.16449e-20)
(1.32565 -0.236446 -2.93976e-20)
(1.13051 -0.410579 1.44852e-20)
(1.03338 -0.436161 4.24002e-21)
(0.92648 -0.289052 -1.80479e-21)
(0.769147 -0.222282 -2.1566e-21)
(0.619322 -0.267592 9.77907e-22)
(0.737135 -0.255379 -2.10324e-21)
(0.700373 0.138158 3.56348e-22)
(0.896455 0.433749 -3.59428e-21)
(0.920404 0.781401 1.44771e-20)
(1.01264 0.754004 -4.55515e-20)
(1.17819 0.113822 -1.9854e-21)
(1.27424 -0.212091 1.12789e-21)
(1.28998 -0.379492 2.23865e-20)
(1.09424 -0.4877 5.85947e-21)
(1.05726 -0.565513 4.18234e-21)
(0.948046 -0.548026 -1.51217e-21)
(0.752471 0.0708885 -2.81184e-21)
(0.789224 0.337675 8.45874e-22)
(0.706169 0.59773 -1.60538e-21)
(0.865936 0.510917 7.23935e-21)
(1.11392 -0.171513 -7.76311e-21)
(1.16645 -0.398434 5.74657e-21)
(1.07924 -0.605194 1.5868e-21)
(1.0367 -0.554976 -4.17075e-21)
(0.886608 0.439071 -4.01941e-22)
(0.79956 0.6296 1.04593e-21)
(0.91865 0.111299 -1.88122e-23)
(1.33898 -0.136513 0)
(1.18189 -0.286225 0)
(1.05455 -0.382446 0)
(0.989316 -0.259859 0)
(0.861335 -0.17632 0)
(0.672477 -0.241184 0)
(0.721666 -0.272842 0)
(0.725916 0.0748768 0)
(0.896629 0.361654 0)
(1.00086 0.709717 0)
(1.07746 0.686268 0)
(1.29291 0.0463937 0)
(1.34712 -0.216821 0)
(1.32221 -0.320711 0)
(1.12006 -0.411907 0)
(1.06664 -0.52444 0)
(0.981064 -0.501434 0)
(0.766376 0.0758036 0)
(0.786297 0.342197 0)
(0.709433 0.586239 0)
(0.910504 0.46628 0)
(1.14397 -0.199991 0)
(1.17668 -0.393429 0)
(1.05301 -0.606406 0)
(1.00245 -0.529696 0)
(0.835292 0.459121 0)
(0.768581 0.61946 0)
(0.910267 0.102837 0)
(1.28922 -0.135132 0)
(1.17681 -0.276829 0)
(1.03535 -0.365512 0)
(0.968569 -0.195532 0)
(0.897733 -0.120274 0)
(0.708623 -0.195584 0)
(0.733526 -0.263803 0)
(0.707679 0.0504741 0)
(0.91923 0.294038 0)
(1.05746 0.632943 0)
(1.16288 0.641904 0)
(1.38696 0.0320698 0)
(1.38312 -0.210912 0)
(1.3248 -0.308453 0)
(1.12925 -0.414202 0)
(1.06692 -0.521609 0)
(1.00594 -0.477116 0)
(0.776026 0.10265 0)
(0.777868 0.340131 0)
(0.709731 0.569614 0)
(0.95825 0.414196 0)
(1.16466 -0.21467 0)
(1.17867 -0.383962 0)
(1.02363 -0.593322 0)
(0.967808 -0.502114 0)
(0.783251 0.490084 0)
(0.744269 0.606045 0)
(0.902576 0.0921774 0)
(1.26927 -0.0971224 0)
(1.21975 -0.160336 0)
(1.0557 -0.317385 0)
(1.01014 -0.189241 0)
(1.00163 -0.0810597 0)
(0.827023 -0.161168 0)
(0.808538 -0.271865 0)
(0.719668 0.012779 0)
(0.917432 0.230265 0)
(1.08997 0.57358 0)
(1.26481 0.628543 0)
(1.44419 -0.00254566 0)
(1.42481 -0.219409 0)
(1.34771 -0.247053 0)
(1.15087 -0.34534 0)
(1.06998 -0.488657 0)
(1.02413 -0.438707 0)
(0.795183 0.130124 0)
(0.766518 0.351254 0)
(0.729922 0.542012 0)
(1.01179 0.36021 0)
(1.1899 -0.227799 0)
(1.17676 -0.375168 0)
(0.990496 -0.580374 0)
(0.924974 -0.469148 0)
(0.723668 0.517378 0)
(0.723452 0.58305 0)
(0.897156 0.0799811 0)
(1.20423 -0.102994 0)
(1.17913 -0.153205 0)
(1.02024 -0.284964 0)
(0.949414 -0.157791 0)
(0.996976 -0.0511749 0)
(0.914056 -0.107494 0)
(0.875124 -0.236703 0)
(0.769704 -0.002606 0)
(0.924433 0.153696 0)
(1.09953 0.519325 0)
(1.34762 0.584147 0)
(1.49528 -0.0179297 0)
(1.42014 -0.175124 0)
(1.30793 -0.225126 0)
(1.12564 -0.342393 0)
(1.05024 -0.481031 0)
(1.0121 -0.403915 0)
(0.785456 0.167019 0)
(0.753194 0.357997 0)
(0.77059 0.511311 0)
(1.06045 0.305213 0)
(1.20917 -0.241762 0)
(1.16573 -0.348762 0)
(0.959748 -0.553175 0)
(0.874961 -0.426296 0)
(0.658369 0.54843 0)
(0.710245 0.552332 0)
(0.895209 0.0655534 0)
(1.16169 -0.0882067 0)
(1.21723 -0.0809551 0)
(1.10758 -0.214914 0)
(0.994436 -0.157677 0)
(1.03741 -0.0612808 0)
(0.995325 -0.0844538 0)
(0.927803 -0.213063 0)
(0.840373 -0.00188728 0)
(0.851996 0.107671 0)
(1.04629 0.419858 0)
(1.39842 0.512189 0)
(1.45876 -0.0153259 0)
(1.37533 -0.17021 0)
(1.31185 -0.171476 0)
(1.17181 -0.263943 0)
(1.05582 -0.441109 0)
(1.01022 -0.370067 0)
(0.789608 0.209817 0)
(0.748886 0.364321 0)
(0.819507 0.463044 0)
(1.10686 0.245832 0)
(1.22407 -0.242254 0)
(1.14981 -0.326439 0)
(0.934216 -0.526343 0)
(0.815966 -0.387474 0)
(0.582335 0.565267 0)
(0.711378 0.510428 0)
(0.898943 0.0504035 0)
(1.15935 -0.0777887 0)
(1.13283 -0.0937136 0)
(1.02575 -0.186676 0)
(0.939803 -0.125646 0)
(0.985703 -0.0559731 0)
(0.979214 -0.0610137 0)
(0.925363 -0.17045 0)
(0.857247 0.0308843 0)
(0.786491 0.0625328 0)
(0.971185 0.28541 0)
(1.35523 0.40198 0)
(1.40666 -0.0180495 0)
(1.32912 -0.101663 0)
(1.24142 -0.146393 0)
(1.11188 -0.262471 0)
(0.983513 -0.427026 0)
(0.933771 -0.33029 0)
(0.747462 0.253731 0)
(0.746931 0.348435 0)
(0.867635 0.409606 0)
(1.14558 0.193759 0)
(1.22931 -0.24151 0)
(1.12461 -0.286859 0)
(0.910697 -0.478659 0)
(0.742941 -0.328376 0)
(0.509751 0.582935 0)
(0.733573 0.459982 0)
(0.908611 0.0341472 0)
(1.13616 -0.0609821 0)
(1.13222 -0.0313182 0)
(1.10436 -0.110301 0)
(0.997133 -0.112317 0)
(1.01047 -0.0706174 0)
(1.00959 -0.0469128 0)
(0.934092 -0.156484 0)
(0.896716 0.0479175 0)
(0.848636 0.0554005 0)
(0.947369 0.160834 0)
(1.29041 0.310211 0)
(1.30908 -0.00147137 0)
(1.21338 -0.0935566 0)
(1.20469 -0.120965 0)
(1.13551 -0.181219 0)
(0.9839 -0.354995 0)
(0.885523 -0.294462 0)
(0.732119 0.282374 0)
(0.783405 0.327739 0)
(0.920306 0.34098 0)
(1.18514 0.139274 0)
(1.22428 -0.229337 0)
(1.09406 -0.248108 0)
(0.90671 -0.434832 0)
(0.669646 -0.272914 0)
(0.433357 0.585841 0)
(0.775841 0.395591 0)
(0.925003 0.0180952 0)
(1.10693 -0.0418889 0)
(1.08898 -0.0552935 0)
(1.06533 -0.105757 0)
(0.99892 -0.0837996 0)
(0.997741 -0.0674367 0)
(0.999809 -0.0225311 0)
(0.952874 -0.119697 0)
(0.909433 0.0560229 0)
(0.936108 0.0460331 0)
(0.965829 0.0941878 0)
(1.17975 0.22672 0)
(1.23051 0.00512387 0)
(1.16756 -0.0329204 0)
(1.17936 -0.113401 0)
(1.07712 -0.179627 0)
(0.944931 -0.317695 0)
(0.791094 -0.239174 0)
(0.671153 0.296002 0)
(0.830461 0.281301 0)
(0.956506 0.285311 0)
(1.21035 0.0980498 0)
(1.20299 -0.219327 0)
(1.05464 -0.201373 0)
(0.89383 -0.370495 0)
(0.60197 -0.191026 0)
(0.370556 0.577506 0)
(0.841444 0.317923 0)
(0.946649 0.00294401 0)
(1.09685 -0.0285498 0)
(1.08296 -0.0242379 0)
(1.06361 -0.0581279 0)
(1.01094 -0.0583446 0)
(1.00226 -0.0644845 0)
(0.992366 -0.0132629 0)
(0.978365 -0.103766 0)
(0.915627 0.0463648 0)
(1.00007 0.037728 0)
(0.958474 0.0595238 0)
(1.10636 0.174004 0)
(1.1805 -0.00199167 0)
(1.09078 -0.0364374 0)
(1.14438 -0.103264 0)
(1.09029 -0.112193 0)
(1.01083 -0.235433 0)
(0.791778 -0.187746 0)
(0.67494 0.28563 0)
(0.919961 0.228327 0)
(0.999022 0.213833 0)
(1.22755 0.0563502 0)
(1.1563 -0.192086 0)
(1.01779 -0.156622 0)
(0.91652 -0.312172 0)
(0.556964 -0.120156 0)
(0.358961 0.537171 0)
(0.927063 0.230536 0)
(0.970121 -0.01167 0)
(1.06651 -0.0109793 0)
(1.07155 -0.0249761 0)
(1.04598 -0.0515192 0)
(1.0209 -0.0401814 0)
(1.01001 -0.0604136 0)
(0.988022 -0.0104285 0)
(1.00354 -0.0721111 0)
(0.925133 0.0327274 0)
(1.01964 0.0235562 0)
(0.968071 0.055054 0)
(1.08546 0.10823 0)
(1.12382 -0.00330493 0)
(1.08363 0.00220986 0)
(1.13385 -0.10614 0)
(0.995205 -0.120136 0)
(0.965734 -0.188249 0)
(0.783094 -0.120255 0)
(0.725319 0.229148 0)
(1.00385 0.158423 0)
(1.02275 0.174757 0)
(1.2529 0.0435617 0)
(1.16266 -0.145938 0)
(0.975462 -0.106088 0)
(0.928817 -0.228803 0)
(0.498198 -0.0241122 0)
(0.452522 0.470392 0)
(1.00934 0.151699 0)
(0.986981 -0.00867324 0)
(1.04924 -0.0032964 0)
(1.06573 -0.0177685 0)
(1.03831 -0.02742 0)
(1.02269 -0.0296515 0)
(1.0216 -0.0427964 0)
(0.983913 -0.00700315 0)
(1.01716 -0.0595853 0)
(0.938121 0.0273593 0)
(1.03288 0.0105491 0)
(0.976807 0.040379 0)
(1.07246 0.0757624 0)
(1.1036 -0.00847913 0)
(1.04861 -0.0137376 0)
(1.12946 -0.0755349 0)
(0.995925 -0.0561326 0)
(0.991221 -0.137671 0)
(0.831964 -0.0772477 0)
(0.806955 0.178815 0)
(1.06312 0.105228 0)
(0.998558 0.129412 0)
(1.17442 0.00542214 0)
(1.11523 -0.122118 0)
(0.974048 -0.0651598 0)
(1.02597 -0.163506 0)
(0.578834 0.0341772 0)
(0.610956 0.368286 0)
(1.0426 0.0748476 0)
(0.976166 -0.0176387 0)
(1.03966 0.00948473 0)
(1.0561 -0.0158209 0)
(1.02993 -0.0153155 0)
(1.02902 -0.0227467 0)
(1.01732 -0.031587 0)
(0.999138 -0.0093757 0)
(1.01695 -0.0409542 0)
(0.959668 0.0199037 0)
(1.03558 -0.00428191 0)
(0.98226 0.0414053 0)
(1.06911 0.0331881 0)
(1.07396 -0.00235413 0)
(1.04561 0.00163266 0)
(1.0858 -0.0749743 0)
(0.988604 -0.0468028 0)
(0.999284 -0.104883 0)
(0.861739 -0.0328039 0)
(0.880375 0.114271 0)
(1.04985 0.075215 0)
(1.00339 0.128554 0)
(1.16311 -9.74168e-05 0)
(1.03968 -0.0804838 0)
(0.915122 -0.0479459 0)
(0.981624 -0.106173 0)
(0.666999 0.10391 0)
(0.800276 0.291638 0)
(1.10145 0.0495839 0)
(0.977682 0.00800575 0)
(1.03147 0.0127704 0)
(1.04949 -0.0133742 0)
(1.02572 -0.00429934 0)
(1.02898 -0.0203357 0)
(1.02202 -0.0190755 0)
(1.0035 -0.00792605 0)
(1.02174 -0.0321647 0)
(0.976807 0.0169049 0)
(1.03426 -0.0128005 0)
(0.99244 0.031254 0)
(1.05625 0.0162388 0)
(1.05263 -0.00342429 0)
(1.03382 -0.00373267 0)
(1.07262 -0.0523902 0)
(0.983159 -0.0191054 0)
(1.00133 -0.0773833 0)
(0.905357 -0.0079756 0)
(0.916527 0.0846553 0)
(1.04306 0.0479704 0)
(0.986408 0.0954854 0)
(1.12666 -0.0102695 0)
(1.05223 -0.0387422 0)
(0.941766 -0.0171069 0)
(1.00258 -0.077252 0)
(0.790399 0.110114 0)
(0.917529 0.221459 0)
(1.11914 0.0277472 0)
(1.02648 0.0175373 0)
(1.02925 0.0185342 0)
(1.04162 -0.0136387 0)
(1.02337 0.00472029 0)
(1.03164 -0.0184653 0)
(1.01729 -0.0102678 0)
(1.0162 -0.00825388 0)
(1.0166 -0.0238879 0)
(0.996202 0.0147023 0)
(1.02798 -0.0205253 0)
(1.0002 0.0303805 0)
(1.04473 -0.00496839 0)
(1.03634 0.00375694 0)
(1.03072 -0.00160133 0)
(1.0426 -0.044581 0)
(0.993328 -0.00411016 0)
(1.0018 -0.0635451 0)
(0.928238 0.0164813 0)
(0.958033 0.0471134 0)
(1.02003 0.0331979 0)
(1.00162 0.0920319 0)
(1.08539 -0.0245198 0)
(1.01601 -0.0122242 0)
(0.966349 -0.00583084 0)
(0.983596 -0.0557336 0)
(0.862967 0.129875 0)
(0.997328 0.165448 0)
(1.07989 0.0144832 0)
(1.01409 0.0357175 0)
(1.02697 0.0177542 0)
(1.03728 -0.0102025 0)
(1.02017 0.00728184 0)
(1.03437 -0.0141985 0)
(1.01364 -0.00626775 0)
(1.02595 -0.00523687 0)
(1.01092 -0.0198638 0)
(1.01223 0.0124145 0)
(1.02056 -0.0203814 0)
(1.00855 0.0219553 0)
(1.0369 -0.00762306 0)
(1.01992 0.00181724 0)
(1.03356 -0.00137497 0)
(1.02294 -0.031808 0)
(1.00162 0.00553892 0)
(1.00457 -0.0459297 0)
(0.946305 0.0214331 0)
(0.994568 0.0367654 0)
(0.998259 0.0197645 0)
(1.01482 0.0727094 0)
(1.06357 -0.0185061 0)
(1.00137 0.00324208 0)
(0.998724 0.0147938 0)
(0.980119 -0.0346219 0)
(0.905439 0.110511 0)
(1.03982 0.129906 0)
(1.05894 0.0238286 0)
(1.01867 0.0462871 0)
(1.02479 0.0162955 0)
(1.0334 -0.00805428 0)
(1.01875 0.00826642 0)
(1.03484 -0.0107581 0)
(1.01225 -0.00317697 0)
(1.03053 -0.00432639 0)
(1.00936 -0.0148896 0)
(1.02033 0.00928497 0)
(1.01722 -0.0185201 0)
(1.01291 0.0173411 0)
(1.0304 -0.0113154 0)
(1.01381 0.00373535 0)
(1.03092 -0.000904095 0)
(1.01312 -0.0229105 0)
(1.00604 0.00983515 0)
(1.00958 -0.0336573 0)
(0.959924 0.0243353 0)
(1.01385 0.0232544 0)
(0.992104 0.014216 0)
(1.0211 0.0610511 0)
(1.04693 -0.0152783 0)
(0.996218 0.0131686 0)
(1.01043 0.0183281 0)
(0.988096 -0.0191627 0)
(0.939883 0.0984427 0)
(1.05345 0.101377 0)
(1.04259 0.0246194 0)
(1.02665 0.0510448 0)
(1.02306 0.0125793 0)
(1.03029 -0.00455514 0)
(1.01782 0.00667897 0)
(1.03343 -0.00670301 0)
(1.01213 -0.00218651 0)
(1.03199 -0.00254276 0)
(1.00878 -0.0110374 0)
(1.02464 0.00615603 0)
(1.01455 -0.0139742 0)
(1.01635 0.0110956 0)
(1.02555 -0.00863902 0)
(1.01044 0.00257453 0)
(1.02833 -0.000223318 0)
(1.00907 -0.0147774 0)
(1.0083 0.010486 0)
(1.01318 -0.0211577 0)
(0.972085 0.0202929 0)
(1.02319 0.01947 0)
(0.990472 0.0109556 0)
(1.02325 0.0470059 0)
(1.03423 -0.00630587 0)
(0.997485 0.0161372 0)
(1.01683 0.0248991 0)
(0.996786 -0.00227425 0)
(0.962021 0.0801618 0)
(1.05628 0.0808445 0)
(1.03524 0.0327593 0)
(1.03289 0.0551384 0)
(1.02143 0.00970782 0)
(1.02748 -0.00266161 0)
(1.01741 0.00552439 0)
(1.03088 -0.00440265 0)
(1.01316 -0.000902027 0)
(1.03042 -0.00194357 0)
(1.0102 -0.00756862 0)
(1.02519 0.00406526 0)
(1.01415 -0.0104365 0)
(1.01778 0.00798538 0)
(1.0217 -0.00735384 0)
(1.01125 0.00289728 0)
(1.02397 0.000506063 0)
(1.01 -0.00918185 0)
(1.00884 0.0107716 0)
(1.01588 -0.0127044 0)
(0.983102 0.0176667 0)
(1.02449 0.0155076 0)
(0.994392 0.009401 0)
(1.0226 0.0372459 0)
(1.02594 -9.13214e-05 0)
(1.00333 0.0193645 0)
(1.01685 0.0266078 0)
(1.00562 0.00676631 0)
(0.980813 0.0664848 0)
(1.05307 0.0667873 0)
(1.03137 0.0345237 0)
(1.03783 0.0532524 0)
(1.02 0.00699776 0)
(1.02539 -0.000972309 0)
(1.01702 0.00422748 0)
(1.02845 -0.00241621 0)
(1.01389 -0.00023715 0)
(1.02841 -0.00113289 0)
(1.01156 -0.00484162 0)
(1.02427 0.00259477 0)
(1.01429 -0.00699877 0)
(1.0181 0.00515949 0)
(1.01952 -0.00473701 0)
(1.01223 0.00239145 0)
(1.02087 0.00156231 0)
(1.012 -0.00466401 0)
(1.00917 0.00975334 0)
(1.01766 -0.00544991 0)
(0.991812 0.0141746 0)
(1.02391 0.0137589 0)
(0.999089 0.00941382 0)
(1.02135 0.028805 0)
(1.02118 0.00615722 0)
(1.00795 0.0195532 0)
(1.01683 0.026558 0)
(1.01398 0.0154061 0)
(0.994034 0.0551245 0)
(1.04793 0.0550988 0)
(1.03123 0.0363088 0)
(1.04174 0.051329 0)
(1.01889 0.00516085 0)
(1.02355 -0.00025099 0)
(1.01669 0.00335751 0)
(1.0259 -0.00127571 0)
(1.01467 0.000362352 0)
(1.02587 -0.000377502 0)
(1.01295 -0.0029435 0)
(1.02276 0.00218051 0)
(1.01478 -0.0046687 0)
(1.01818 0.00394946 0)
(1.01775 -0.00298892 0)
(1.01387 0.00223003 0)
(1.01818 0.00252881 0)
(1.01412 -0.00185904 0)
(1.01019 0.00921358 0)
(1.01816 -0.000805236 0)
(0.999461 0.0119518 0)
(1.02252 0.0125909 0)
(1.00329 0.00911998 0)
(1.02102 0.0231996 0)
(1.01813 0.00969409 0)
(1.01256 0.0196194 0)
(1.01809 0.0262612 0)
(1.01903 0.019666 0)
(1.00373 0.0456872 0)
(1.0447 0.0470658 0)
(1.03237 0.036052 0)
(1.04435 0.0473211 0)
(1.01808 0.00378197 0)
(1.02216 0.000523034 0)
(1.01626 0.00258504 0)
(1.02359 -0.00023877 0)
(1.01492 0.000624014 0)
(1.02335 0.000226044 0)
(1.01387 -0.00154975 0)
(1.02113 0.00184895 0)
(1.0153 -0.00264546 0)
(1.01813 0.00293715 0)
(1.01693 -0.00117282 0)
(1.01523 0.00199589 0)
(1.01674 0.00329985 0)
(1.01574 0.00029543 0)
(1.01133 0.00819215 0)
(1.01859 0.00282215 0)
(1.00496 0.0098961 0)
(1.02176 0.0120655 0)
(1.00696 0.00941877 0)
(1.02084 0.0185404 0)
(1.01741 0.0125603 0)
(1.01604 0.018895 0)
(1.01941 0.0241814 0)
(1.02333 0.0229188 0)
(1.01116 0.0387531 0)
(1.04224 0.0395516 0)
(1.03414 0.0344468 0)
(1.04631 0.0430811 0)
(1.01767 0.0031788 0)
(1.02102 0.00131501 0)
(1.01625 0.00232012 0)
(1.02168 0.000727554 0)
(1.01532 0.00081757 0)
(1.02131 0.000806734 0)
(1.01451 -0.00079902 0)
(1.01986 0.00164403 0)
(1.01555 -0.00137203 0)
(1.01813 0.00220314 0)
(1.01641 0.00027167 0)
(1.01633 0.00175446 0)
(1.01606 0.0040849 0)
(1.01687 0.00166245 0)
(1.01246 0.00731457 0)
(1.01897 0.00531025 0)
(1.00887 0.00805424 0)
(1.02148 0.0119199 0)
(1.01036 0.00952913 0)
(1.02097 0.0148958 0)
(1.0179 0.0143774 0)
(1.01892 0.017216 0)
(1.02059 0.0217713 0)
(1.02684 0.0250463 0)
(1.01721 0.03277 0)
(1.04046 0.0325403 0)
(1.03558 0.0321244 0)
(1.04765 0.0386637 0)
(1.01714 0.00281304 0)
(1.01997 0.00197813 0)
(1.01635 0.00229455 0)
(1.02032 0.00150278 0)
(1.01593 0.00116561 0)
(1.01993 0.0011737 0)
(1.01534 -6.56531e-05 0)
(1.01895 0.00133493 0)
(1.01588 -0.000341289 0)
(1.01804 0.00159997 0)
(1.01601 0.00122036 0)
(1.01719 0.00182583 0)
(1.01543 0.00423875 0)
(1.01806 0.00294992 0)
(1.01319 0.00639061 0)
(1.01944 0.00667326 0)
(1.01205 0.00710457 0)
(1.02083 0.0110126 0)
(1.01397 0.00980228 0)
(1.02125 0.0122708 0)
(1.01853 0.0145944 0)
(1.02236 0.0160496 0)
(1.02102 0.0191792 0)
(1.02889 0.0247017 0)
(1.02321 0.0282986 0)
(1.03951 0.0270495 0)
(1.03603 0.028954 0)
(1.04835 0.0340166 0)
(1.01653 0.00244173 0)
(1.01888 0.00217698 0)
(1.01629 0.00213485 0)
(1.01929 0.00185858 0)
(1.01632 0.00131874 0)
(1.01914 0.00140686 0)
(1.01592 0.000478238 0)
(1.01854 0.00122217 0)
(1.01609 0.000448132 0)
(1.01807 0.00133366 0)
(1.01576 0.00179734 0)
(1.01776 0.00199485 0)
(1.01519 0.00407483 0)
(1.01879 0.00371507 0)
(1.01405 0.00559583 0)
(1.01977 0.00697098 0)
(1.0145 0.00657457 0)
(1.02063 0.00972256 0)
(1.01671 0.00960274 0)
(1.02195 0.0105247 0)
(1.01941 0.0136674 0)
(1.02507 0.0148254 0)
(1.02178 0.0167876 0)
(1.03029 0.0224405 0)
(1.02777 0.0244646 0)
(1.03923 0.0229561 0)
(1.03641 0.0253052 0)
(1.04862 0.0291468 0)
(1.01606 0.00209246 0)
(1.01797 0.00200648 0)
(1.0161 0.00192675 0)
(1.01841 0.00180931 0)
(1.01635 0.00139171 0)
(1.0185 0.00145041 0)
(1.0161 0.000862027 0)
(1.01829 0.00128318 0)
(1.01609 0.000931206 0)
(1.01821 0.00144852 0)
(1.01567 0.00198794 0)
(1.01821 0.00227261 0)
(1.01539 0.00375491 0)
(1.01913 0.00392429 0)
(1.01519 0.00513174 0)
(1.01991 0.00641481 0)
(1.01637 0.00628929 0)
(1.02097 0.0083753 0)
(1.01833 0.00873111 0)
(1.02308 0.00949569 0)
(1.02038 0.0119512 0)
(1.02673 0.0132795 0)
(1.02339 0.0149217 0)
(1.03129 0.0190609 0)
(1.03031 0.0206288 0)
(1.03957 0.0198347 0)
(1.03725 0.0216036 0)
(1.04866 0.024281 0)
(1.01572 0.00169234 0)
(1.01738 0.00169476 0)
(1.01584 0.0015966 0)
(1.0178 0.00156642 0)
(1.01612 0.00127828 0)
(1.01801 0.00130843 0)
(1.01601 0.000998267 0)
(1.01803 0.00122548 0)
(1.01604 0.00114113 0)
(1.01821 0.00147098 0)
(1.01581 0.00194058 0)
(1.01843 0.00231958 0)
(1.01584 0.00329309 0)
(1.01933 0.00373021 0)
(1.0162 0.00454389 0)
(1.02022 0.00553017 0)
(1.0176 0.00572888 0)
(1.02163 0.00697558 0)
(1.01943 0.00753409 0)
(1.02405 0.00832465 0)
(1.02158 0.00996853 0)
(1.02771 0.0114057 0)
(1.02504 0.0128119 0)
(1.03225 0.0154622 0)
(1.03163 0.0168764 0)
(1.03996 0.0167345 0)
(1.03827 0.0178143 0)
(1.04861 0.0195977 0)
(1.01545 0.00141885 0)
(1.01694 0.00142477 0)
(1.01559 0.00134526 0)
(1.01735 0.00134319 0)
(1.01585 0.00113402 0)
(1.01764 0.00117515 0)
(1.01585 0.000981718 0)
(1.01783 0.00116098 0)
(1.01597 0.00114882 0)
(1.01814 0.00140881 0)
(1.016 0.00177602 0)
(1.01851 0.00213343 0)
(1.01633 0.00283229 0)
(1.01945 0.00324066 0)
(1.01701 0.00386896 0)
(1.02059 0.00455503 0)
(1.01842 0.00485727 0)
(1.02234 0.00566059 0)
(1.02025 0.0061371 0)
(1.02479 0.00690098 0)
(1.02273 0.00799158 0)
(1.02833 0.00921089 0)
(1.02641 0.0104132 0)
(1.03312 0.012072 0)
(1.03241 0.0131941 0)
(1.04024 0.0133874 0)
(1.03913 0.0140233 0)
(1.0485 0.0151658 0)
(1.01518 0.00105272 0)
(1.01659 0.00105479 0)
(1.01535 0.00101805 0)
(1.01698 0.00100894 0)
(1.0156 0.000893339 0)
(1.01733 0.000914205 0)
(1.01571 0.000815654 0)
(1.01762 0.000947586 0)
(1.01591 0.00095607 0)
(1.01803 0.00117077 0)
(1.01614 0.00140929 0)
(1.01855 0.00172597 0)
(1.01666 0.00218646 0)
(1.01955 0.00250958 0)
(1.01755 0.0029808 0)
(1.02089 0.00340636 0)
(1.019 0.00372229 0)
(1.02284 0.00421064 0)
(1.0209 0.0045672 0)
(1.02533 0.00520613 0)
(1.02359 0.00587398 0)
(1.02882 0.00680608 0)
(1.02737 0.00772457 0)
(1.03371 0.00871355 0)
(1.03297 0.00953604 0)
(1.04043 0.00981125 0)
(1.03968 0.0101589 0)
(1.04832 0.0108624 0)
(1.01495 0.000639237 0)
(1.01632 0.000645162 0)
(1.01515 0.000624554 0)
(1.01671 0.000623117 0)
(1.01541 0.000560907 0)
(1.0171 0.000573336 0)
(1.0156 0.000528669 0)
(1.01744 0.000606065 0)
(1.01586 0.000624562 0)
(1.01791 0.000756209 0)
(1.01623 0.000901451 0)
(1.01854 0.00110793 0)
(1.01685 0.00137548 0)
(1.01961 0.00158769 0)
(1.01787 0.00187306 0)
(1.0211 0.00212011 0)
(1.01936 0.00233898 0)
(1.02315 0.00260745 0)
(1.02137 0.00283698 0)
(1.02565 0.00324117 0)
(1.02417 0.00361363 0)
(1.02915 0.00419858 0)
(1.02796 0.00475927 0)
(1.03406 0.00530211 0)
(1.03336 0.00581051 0)
(1.04052 0.0060116 0)
(1.03998 0.00618283 0)
(1.04813 0.00656911 0)
(1.01479 0.000275304 0)
(1.01613 0.00027279 0)
(1.01501 0.000264443 0)
(1.01653 0.000261269 0)
(1.01527 0.000238457 0)
(1.01694 0.000242583 0)
(1.01552 0.000224386 0)
(1.01733 0.000251612 0)
(1.01581 0.00025599 0)
(1.01782 0.000302142 0)
(1.01625 0.000352662 0)
(1.01852 0.000422949 0)
(1.01694 0.000514801 0)
(1.01962 0.000583567 0)
(1.01801 0.000682957 0)
(1.02119 0.000761385 0)
(1.01953 0.00083617 0)
(1.0233 0.000924634 0)
(1.0216 0.000998488 0)
(1.02581 0.00113828 0)
(1.02444 0.00125955 0)
(1.02931 0.00145517 0)
(1.02824 0.00164791 0)
(1.03421 0.00182059 0)
(1.03354 0.00198895 0)
(1.04055 0.00205986 0)
(1.04009 0.00211134 0)
(1.048 0.00223412 0)
)
;

boundaryField
{
    outlet
    {
        type            zeroGradient;
    }
    upperWall
    {
        type            symmetryPlane;
    }
    lowerWall
    {
        type            symmetryPlane;
    }
    inlet
    {
        type            fixedValue;
        value           nonuniform 0();
    }
    cylinder
    {
        type            fixedValue;
        value           nonuniform 0();
    }
    frontAndBack
    {
        type            empty;
    }
    procBoundary7to3