/*--------------------------------*- C++ -*----------------------------------*\
| =========                 |                                                 |
| \\      /  F ield         | OpenFOAM: The Open Source CFD Toolbox           |
|  \\    /   O peration     | Version:                                        |
|   \\  /    A nd           | Website:  www.openfoam.com                      |
|    \\/     M anipulation  |                                                 |
\*---------------------------------------------------------------------------*/
FoamFile
{
    version     2.0;
    format      ascii;
    class       volScalarField;
    location    "1.3";
    object      p;
}
// * * * * * * * * * * * * * * * * * * * * * * * * * * * * * * * * * * * * * //

dimensions      [0 2 -2 0 0 0 0];


internalField   nonuniform List<scalar> 
1147
(
-0.872771
-0.828645
-0.769744
-0.742065
-0.777562
-0.771787
-0.693576
-0.622205
-0.641023
-0.699042
-0.838535
-0.797272
-0.735191
-0.671001
-0.696197
-0.741035
-0.720699
-0.662785
-0.644825
-0.661911
-0.834195
-0.770647
-0.749056
-0.740183
-0.712687
-0.699101
-0.680554
-0.649207
-0.62652
-0.619129
-0.875806
-0.80392
-0.753282
-0.722045
-0.687306
-0.65256
-0.625115
-0.601502
-0.582112
-0.567252
-0.850945
-0.778307
-0.715461
-0.670002
-0.633781
-0.600225
-0.572326
-0.550366
-0.531504
-0.513702
-0.759481
-0.701463
-0.649055
-0.606806
-0.573811
-0.545929
-0.521892
-0.501418
-0.482191
-0.462299
-0.647846
-0.60975
-0.573284
-0.541488
-0.515442
-0.493247
-0.473718
-0.455314
-0.436144
-0.415095
-0.5437
-0.522546
-0.500556
-0.479895
-0.461098
-0.444206
-0.428438
-0.412225
-0.394064
-0.372852
-0.455668
-0.447179
-0.436238
-0.42393
-0.411625
-0.399331
-0.386383
-0.372331
-0.355532
-0.335221
-0.383763
-0.383858
-0.379986
-0.374192
-0.366917
-0.358259
-0.348078
-0.335612
-0.320271
-0.301383
-0.329984
-0.331456
-0.330089
-0.326418
-0.321052
-0.313042
-0.302198
-0.288124
-0.270526
-0.284695
-0.289261
-0.290998
-0.290331
-0.287065
-0.281148
-0.271779
-0.258694
-0.242689
-0.252793
-0.256746
-0.257992
-0.256599
-0.252155
-0.244031
-0.232304
-0.217612
-0.22147
-0.226744
-0.229474
-0.229289
-0.226094
-0.219438
-0.208842
-0.195422
-0.200401
-0.204184
-0.205267
-0.20311
-0.197708
-0.188358
-0.175382
-0.177765
-0.182325
-0.184114
-0.182919
-0.178382
-0.169867
-0.157884
-0.158103
-0.162772
-0.165327
-0.164537
-0.160966
-0.1536
-0.14328
-0.14537
-0.148502
-0.148672
-0.145011
-0.139422
-0.13058
-0.130194
-0.133276
-0.133064
-0.130396
-0.125083
-0.116939
-0.115439
-0.118533
-0.118707
-0.116
-0.111853
-0.104174
-0.197898
-0.250407
-0.347607
-0.476013
-0.619646
-0.758364
-0.865707
-0.92488
-0.937256
-0.912591
-0.218586
-0.267604
-0.358671
-0.479718
-0.613476
-0.738552
-0.838601
-0.8999
-0.910351
-0.881585
-0.235042
-0.282711
-0.371807
-0.492094
-0.629587
-0.764187
-0.872863
-0.933888
-0.942744
-0.905075
-0.277961
-0.36647
-0.488548
-0.632248
-0.776558
-0.893692
-0.959796
-0.969284
-0.9362
-0.743866
-0.860213
-0.930606
-0.945113
-0.912745
-0.752349
-0.819396
-0.83611
-0.810363
-0.674978
-0.695361
-0.681091
-0.561633
-0.559824
-0.459237
-0.0941999
-0.082304
-0.0700208
-0.0613937
-0.0521433
-0.0425995
-0.0397716
-0.0296427
-0.0265758
-0.0204472
-0.0159774
-0.0117597
-0.00804796
-0.0047765
-0.00190212
0.00061075
0.0028045
0.00471193
0.00636188
0.00777967
0.00898609
0.00999828
0.0108299
0.0114911
0.0119884
0.0123299
0.0125055
0.0125267
0.0124609
0.0121719
-0.0977775
-0.0836541
-0.0712985
-0.0616256
-0.0528375
-0.044696
-0.0392183
-0.0308629
-0.0265903
-0.0209276
-0.0165421
-0.0123877
-0.00875496
-0.00551488
-0.00265656
-0.000143435
0.002066
0.00399877
0.00568136
0.00713669
0.00838331
0.00943646
0.0103085
0.0110092
0.0115453
0.0119258
0.0121424
0.0121976
0.0121603
0.0118914
-0.100584
-0.0860473
-0.0730626
-0.062672
-0.0547185
-0.046721
-0.0401653
-0.0325896
-0.0279756
-0.0224502
-0.0180786
-0.0140579
-0.0105131
-0.0073103
-0.00448396
-0.00197967
0.000240981
0.00219936
0.00392318
0.00543585
0.00675685
0.00790341
0.00889036
0.00972961
0.0104288
0.0109945
0.0114121
0.0116582
0.0117772
0.0116043
-0.103445
-0.0860871
-0.0734763
-0.0642011
-0.0572528
-0.0495268
-0.0424039
-0.0357718
-0.0309624
-0.0254614
-0.0210291
-0.0170778
-0.0134863
-0.0102317
-0.00736367
-0.00479242
-0.00249321
-0.000447276
0.00137705
0.00300394
0.00445522
0.00575087
0.00690925
0.00794607
0.00887176
0.00969321
0.0103942
0.0109288
0.0113121
0.0113059
-0.102291
-0.0866332
-0.0752708
-0.067229
-0.0594358
-0.05059
-0.0432966
-0.0376009
-0.0325275
-0.0272302
-0.0230114
-0.0191725
-0.0155329
-0.01229
-0.00941708
-0.00680029
-0.00445
-0.00234487
-0.000452545
0.00124826
0.00277938
0.0041616
0.00541553
0.00656092
0.00761345
0.00858666
0.00947641
0.0102285
0.0108489
0.0110069
-0.0241649
-0.0201453
-0.0163793
-0.0131843
-0.0103011
-0.00766551
-0.00532017
-0.00322204
-0.00134075
0.000344164
0.00185655
0.00321944
0.00445784
0.00559743
0.00666309
0.00768051
0.00866776
0.00957006
0.0103998
0.0107199
0.0387438
0.0219166
0.00938287
-0.00401958
-0.0219774
-0.0419841
-0.0585015
-0.0711776
-0.0840646
-0.0954539
0.04285
0.0241017
0.0101918
-0.00531558
-0.0254154
-0.0465734
-0.0643144
-0.0793619
-0.0930325
-0.105293
0.0471411
0.0262589
0.00813932
-0.0119156
-0.0336767
-0.0543839
-0.073181
-0.0898915
-0.10547
-0.11906
0.0501614
0.026585
0.00280822
-0.0213027
-0.0433014
-0.0631554
-0.0830233
-0.101973
-0.118625
-0.13215
0.0515727
0.0253769
-0.00228878
-0.0293764
-0.0524413
-0.0730709
-0.0939072
-0.113883
-0.130819
-0.144775
0.0522789
0.0242969
-0.00578306
-0.0362841
-0.0626396
-0.0846172
-0.105689
-0.12619
-0.144479
-0.160675
0.0515005
0.021278
-0.0109007
-0.0449175
-0.0746668
-0.0981475
-0.119459
-0.14117
-0.161791
-0.179722
0.0478961
0.0145249
-0.0192816
-0.05529
-0.0878967
-0.113802
-0.136583
-0.159599
-0.181802
-0.200997
0.0424997
0.00551338
-0.0295205
-0.0667232
-0.102433
-0.132171
-0.157115
-0.180806
-0.203609
-0.224201
0.0375501
-0.00394339
-0.0415622
-0.0805976
-0.119618
-0.153299
-0.180452
-0.204578
-0.228009
-0.250272
0.0324425
-0.0148467
-0.0571393
-0.0988294
-0.140424
-0.177256
-0.206931
-0.232077
-0.256159
-0.279482
0.0244952
-0.0290514
-0.0771595
-0.122
-0.165475
-0.204889
-0.237527
-0.264445
-0.288774
-0.312427
0.0118379
-0.0474738
-0.101548
-0.150219
-0.195824
-0.237573
-0.273137
-0.302145
-0.326705
-0.349952
-0.00607119
-0.0706688
-0.130738
-0.184298
-0.232881
-0.276797
-0.314465
-0.344884
-0.370306
-0.393012
-0.030082
-0.100339
-0.166615
-0.225901
-0.278234
-0.324349
-0.363426
-0.394781
-0.420086
-0.441838
-0.0617103
-0.138861
-0.211811
-0.277183
-0.333479
-0.381739
-0.421912
-0.452837
-0.476793
-0.496003
-0.103348
-0.188917
-0.26964
-0.342027
-0.402751
-0.451585
-0.490815
-0.521181
-0.541785
-0.555251
-0.157138
-0.252383
-0.341611
-0.422333
-0.492038
-0.546639
-0.583764
-0.607629
-0.61892
-0.620132
-0.226377
-0.330509
-0.426099
-0.511546
-0.585121
-0.64461
-0.686734
-0.70663
-0.705358
-0.687548
-0.342507
-0.465876
-0.577509
-0.672925
-0.747895
-0.799801
-0.827067
-0.828787
-0.805261
-0.759374
0.135888
0.117482
0.0970848
0.071409
0.154252
0.135821
0.114876
0.0914704
0.0676887
0.190178
0.176301
0.158531
0.13973
0.11752
0.0918356
0.07004
0.225232
0.220579
0.212346
0.199551
0.185506
0.165886
0.145836
0.123699
0.0963723
0.0734459
0.239672
0.234383
0.225331
0.210781
0.196245
0.175354
0.152619
0.131169
0.102481
0.0765456
0.255408
0.249846
0.240428
0.22436
0.209142
0.187204
0.161356
0.139589
0.110092
0.0805611
0.272779
0.267092
0.257871
0.240468
0.224357
0.201888
0.172425
0.148592
0.1184
0.084499
0.292159
0.285948
0.27696
0.25815
0.240288
0.217382
0.183526
0.155866
0.124283
0.0858965
0.313204
0.305821
0.296504
0.275973
0.254922
0.231106
0.192784
0.160145
0.126677
0.0850934
0.335299
0.326391
0.316097
0.293623
0.268496
0.243324
0.201499
0.163375
0.127341
0.0840165
0.358404
0.348112
0.336398
0.312077
0.283003
0.255987
0.211467
0.167574
0.127781
0.0827984
0.382943
0.371645
0.35812
0.332052
0.299183
0.269452
0.222657
0.172754
0.127245
0.0791217
0.409018
0.397004
0.381269
0.353181
0.315968
0.282238
0.233318
0.17727
0.124137
0.0708481
0.436224
0.423611
0.405399
0.374708
0.332405
0.293174
0.241707
0.179674
0.118024
0.0577329
0.464029
0.450749
0.429898
0.396035
0.348264
0.301989
0.246641
0.179032
0.108687
0.0398519
0.491935
0.477734
0.453941
0.416515
0.363293
0.308623
0.247205
0.173871
0.0948502
0.0162681
0.519048
0.503508
0.476208
0.434729
0.376119
0.312104
0.242034
0.16163
0.0737606
-0.0153959
0.543988
0.526646
0.495115
0.448827
0.384591
0.310614
0.229614
0.139848
0.0423577
-0.0579356
0.564037
0.544374
0.5079
0.455421
0.384439
0.299559
0.205594
0.103739
-0.00477487
-0.1163
0.57668
0.554494
0.513464
0.454218
0.374274
0.275553
0.164641
0.0446573
-0.0820254
-0.212874
0.0898213
0.120558
0.104254
0.0826617
0.0712527
0.0581981
0.0489694
0.0425759
0.0351426
0.031169
0.0258633
0.0224417
0.0192417
0.0167999
0.0148899
0.013436
0.0123604
0.0116029
0.0111081
0.0108294
0.010726
0.0107636
0.0109139
0.0111537
0.0114644
0.011833
0.0122539
0.0127269
0.0132509
0.0138175
0.0144107
0.0149658
0.015316
0.0154721
0.059175
0.0488064
0.0416287
0.0346263
0.0267553
0.0228788
0.0177733
0.015318
0.0128568
0.0111809
0.00994542
0.00908717
0.00854447
0.00825456
0.00816917
0.00824299
0.00843953
0.00872974
0.00909096
0.0095058
0.00996101
0.0104497
0.0109736
0.0115407
0.0121602
0.0128341
0.0135626
0.0142958
0.0148278
0.015114
0.0375973
0.0337292
0.0285987
0.0253659
0.018718
0.015399
0.0103536
0.00828152
0.00627304
0.00522716
0.00458807
0.00430134
0.00427066
0.00445113
0.0047875
0.00523365
0.00575373
0.0063222
0.00692136
0.00753875
0.0081655
0.00879959
0.00944837
0.0101275
0.0108558
0.0116481
0.012527
0.0134744
0.0142538
0.0147406
0.0198412
0.0147562
0.0105657
0.00916508
0.00508597
0.00415843
0.000488336
-0.000265611
-0.00138643
-0.00154039
-0.00136188
-0.00094874
-0.000347886
0.000399627
0.00124514
0.00213601
0.003035
0.00391997
0.00478034
0.00561198
0.00641266
0.00718652
0.00794711
0.00871446
0.00951752
0.0103892
0.0113813
0.0125313
0.0136001
0.0143556
0.00693898
-0.000758304
-0.00256068
-0.00403185
-0.00728305
-0.00707015
-0.00873677
-0.00774878
-0.00739311
-0.00621372
-0.00505638
-0.00386652
-0.00264209
-0.00137314
-8.19932e-05
0.00117326
0.00235427
0.00344178
0.00443322
0.00533526
0.00615748
0.00691326
0.00762081
0.0083006
0.00898822
0.00973833
0.0106321
0.0117821
0.0130126
0.0139969
-0.00602574
-0.0129713
-0.0130713
-0.0146506
-0.0159912
-0.0147968
-0.0154068
-0.0134484
-0.012051
-0.00970734
-0.00773741
-0.00577469
-0.00394109
-0.0021944
-0.000548637
0.00096653
0.00233144
0.00354054
0.00460258
0.00553378
0.00635191
0.00707569
0.00772526
0.00831898
0.00888758
0.00949088
0.0102228
0.0112642
0.0125442
0.0136686
-0.0218297
-0.0241198
-0.0217842
-0.0236703
-0.0233291
-0.0207096
-0.0205631
-0.0177782
-0.0155706
-0.012421
-0.00975308
-0.00716952
-0.00488002
-0.00277773
-0.000876836
0.000827629
0.00233568
0.00365578
0.00480462
0.00580324
0.00667257
0.00743238
0.00810153
0.0086959
0.00923733
0.00977296
0.0103795
0.0112494
0.0123968
0.0134144
-0.0410527
-0.0395163
-0.0335944
-0.0337209
-0.0304153
-0.026471
-0.0252739
-0.0215197
-0.0183807
-0.0147049
-0.0113312
-0.00818547
-0.00542909
-0.00294885
-0.000742378
0.00121656
0.00294082
0.00444803
0.00575894
0.0068966
0.00788329
0.00873896
0.00948059
0.0101206
0.0106703
0.0111514
0.0115917
0.012118
0.0127721
0.0132772
-0.0561082
-0.0531203
-0.0458449
-0.0448677
-0.0383988
-0.0327755
-0.0301172
-0.0250151
-0.0211864
-0.0172052
-0.0133437
-0.00983568
-0.00667782
-0.00384479
-0.0013163
0.000938304
0.00293969
0.0047099
0.00627077
0.00764482
0.00885336
0.0099145
0.0108413
0.0116387
0.0123019
0.0128177
0.0131469
0.0133118
0.0133361
0.0131876
-0.0668632
-0.0632171
-0.0534702
-0.052565
-0.0454814
-0.0379761
-0.0353115
-0.0279642
-0.0241861
-0.0197703
-0.0156195
-0.0118915
-0.00848886
-0.0054455
-0.00272304
-0.000290337
0.00188312
0.00382514
0.00556113
0.00711532
0.00850944
0.00976121
0.0108817
0.0118704
0.0127102
0.0133621
0.0137391
0.0137877
0.0135099
0.0130241
-0.0774012
-0.0709411
-0.0586699
-0.0560184
-0.0490702
-0.0396159
-0.0390069
-0.0291393
-0.0262771
-0.0210395
-0.0167011
-0.0127982
-0.00926353
-0.00612969
-0.00334613
-0.000878195
0.00131291
0.0032607
0.00499524
0.00654412
0.00793179
0.00917828
0.0102973
0.011292
0.0121492
0.0128351
0.0132682
0.013389
0.0131997
0.0127601
-0.0861273
-0.0774162
-0.0644384
-0.0588197
-0.0510878
-0.0393882
-0.0400258
-0.0284424
-0.0265635
-0.0204615
-0.016126
-0.012073
-0.00845274
-0.0052652
-0.00245672
8.30245e-06
0.00217116
0.00406642
0.00572454
0.00717286
0.00843491
0.00953035
0.0104742
0.0112748
0.0119318
0.0124362
0.0127484
0.0128517
0.01278
0.01246
)
;

boundaryField
{
    outlet
    {
        type            fixedValue;
        value           nonuniform 0();
    }
    upperWall
    {
        type            symmetryPlane;
    }
    lowerWall
    {
        type            symmetryPlane;
    }
    inlet
    {
        type            zeroGradient;
    }
    cylinder
    {
        type            zeroGradient;
    }
    frontAndBack
    {
        type            empty;
    }
    procBoundary1to0
    {
        type            processor;
        value           nonuniform List<scalar> 
45
(
0.152456
0.152456
0.137158
0.182566
0.169504
0.169504
0.212308
0.208478
0.201233
0.201233
0.0912574
0.118618
0.105819
0.105819
0.137158
0.0771514
0.0664173
0.0575939
0.0519776
0.0446572
0.0390102
0.0331488
0.0289851
0.0251794
0.0223041
0.019934
0.0180636
0.0165967
0.0154766
0.0146482
0.0140637
0.0136813
0.0134643
0.0133817
0.0134072
0.0135191
0.0137009
0.0139424
0.0142378
0.0145795
0.0149537
0.0153373
0.015665
0.0158189
0.0158559
)
;
    }
    procBoundary1to2
    {
        type            processor;
        value           nonuniform List<scalar> 
63
(
-0.324677
-0.378174
-0.324677
-0.27559
-0.246017
-0.246017
-0.213272
-0.194626
-0.194626
-0.170847
-0.151106
-0.140321
-0.140321
-0.124924
-0.110329
-0.100637
-0.231069
-0.231069
-0.246416
-0.332695
-0.453075
-0.597366
-0.597366
-0.642591
-0.642591
-0.614286
-0.614286
-0.537122
-0.537122
-0.449831
-0.449831
-0.378174
-0.100637
-0.084514
-0.0742204
-0.0694715
-0.0602062
-0.0506148
-0.0446389
-0.0393752
-0.0333338
-0.0281323
-0.0281323
-0.0245039
-0.0203326
-0.0167562
-0.0137613
-0.0109236
-0.00834925
-0.00606405
-0.00400531
-0.00215613
-0.000497285
0.00099489
0.00234332
0.00357341
0.00471285
0.00579182
0.00684438
0.00791019
0.00893656
0.00995398
0.0104441
)
;
    }
    procBoundary1to5
    {
        type            processor;
        value           nonuniform List<scalar> 
20
(
-0.197898
-0.218586
-0.235042
0.225232
0.239672
0.255408
0.272779
0.292159
0.313204
0.335299
0.358404
0.382943
0.409018
0.436224
0.464029
0.491935
0.519048
0.543988
0.564037
0.57668
)
;
    }
}


// ************************************************************************* //
