/*--------------------------------*- C++ -*----------------------------------*\
| =========                 |                                                 |
| \\      /  F ield         | OpenFOAM: The Open Source CFD Toolbox           |
|  \\    /   O peration     | Version:                                        |
|   \\  /    A nd           | Website:  www.openfoam.com                      |
|    \\/     M anipulation  |                                                 |
\*---------------------------------------------------------------------------*/
FoamFile
{
    version     2.0;
    format      ascii;
    class       volScalarField;
    location    "123.4";
    object      p;
}
// * * * * * * * * * * * * * * * * * * * * * * * * * * * * * * * * * * * * * //

dimensions      [0 2 -2 0 0 0 0];


internalField   nonuniform List<scalar> 
1139
(
-0.492896
-0.338437
-0.214332
-0.23728
-0.122381
-0.164502
-0.0600666
-0.109168
-0.143239
-0.0156949
-0.0675754
-0.104108
0.0137014
-0.034882
-0.0740629
0.0330689
-0.0109365
-0.0504963
-0.0718395
0.0455515
0.00298774
-0.0298715
-0.0526892
0.0496216
0.0160411
-0.0118593
-0.035209
-1.11315
-1.16357
-1.14009
-1.07484
-0.974868
-0.8537
-1.21779
-1.19447
-1.12854
-1.02885
-0.907853
-0.79154
-1.26814
-1.24148
-1.17198
-1.06809
-0.941937
-0.820296
-0.753418
-1.30951
-1.27544
-1.19875
-1.08644
-0.950936
-0.818092
-0.742425
-0.751206
-1.33243
-1.29287
-1.2102
-1.08669
-0.935585
-0.782129
-0.686221
-0.680838
-0.745669
-1.34295
-1.29936
-1.20762
-1.06605
-0.891006
-0.711277
-0.589028
-0.557623
-0.607616
-0.669328
-1.33965
-1.28991
-1.18471
-1.01786
-0.817233
-0.611577
-0.46249
-0.401445
-0.42912
-0.488118
-1.298
-1.24382
-1.12531
-0.942785
-0.71922
-0.490643
-0.319246
-0.232329
-0.243147
-0.308738
-1.19438
-1.14322
-1.02125
-0.833158
-0.596697
-0.363974
-0.179972
-0.075362
-0.0794212
-0.162675
-1.04904
-0.999872
-0.878531
-0.685399
-0.458568
-0.23936
-0.0615539
0.0405145
0.0345367
-0.0582033
-0.906127
-0.863128
-0.746079
-0.560092
-0.339514
-0.13029
0.0296969
0.112377
0.104827
0.01421
-0.78838
-0.746029
-0.634887
-0.463501
-0.25504
-0.0718026
0.0946023
0.191149
0.158995
0.0588285
-0.702191
-0.663421
-0.562061
-0.392776
-0.194847
-0.0221666
0.128425
0.217694
0.187871
0.085357
-0.643919
-0.610862
-0.514698
-0.345853
-0.157191
0.0113211
0.146521
0.213132
0.182751
0.0973259
-0.614025
-0.587603
-0.490523
-0.326497
-0.153606
-0.00122502
0.138226
0.207768
0.176031
0.102817
-0.607635
-0.58791
-0.491078
-0.330982
-0.165153
-0.0102648
0.12555
0.178356
0.150971
0.0928078
-0.623779
-0.610904
-0.507234
-0.339523
-0.174082
-0.0254594
0.0968086
0.138667
0.118031
0.0846897
-0.69455
-0.691625
-0.579065
-0.403293
-0.240477
-0.101168
0.0222115
0.0894247
0.0986139
0.088487
-0.83276
-0.834113
-0.708596
-0.517279
-0.341497
-0.193586
-0.0631533
0.0321135
0.0809169
0.0879031
-1.00124
-1.00449
-0.872059
-0.662443
-0.466939
-0.305434
-0.167411
-0.0516382
0.0334635
0.0703367
-1.10719
-1.11652
-1.00097
-0.803639
-0.604735
-0.430928
-0.279186
-0.14274
-0.0273303
0.0406723
-1.07818
-1.10838
-1.02681
-0.865609
-0.688322
-0.516256
-0.355979
-0.206452
-0.0804759
0.0114177
-0.924384
-0.965164
-0.92133
-0.806141
-0.66394
-0.512485
-0.365763
-0.226923
-0.110089
-0.0223904
-0.723009
-0.756479
-0.730867
-0.657364
-0.554654
-0.439896
-0.326449
-0.216641
-0.125962
-0.0453665
-0.54453
-0.565233
-0.547549
-0.500534
-0.430072
-0.352258
-0.272605
-0.194074
-0.127962
-0.0610718
-0.420882
-0.428368
-0.414391
-0.381475
-0.331063
-0.275656
-0.219568
-0.165226
-0.117838
-0.0658052
-0.350456
-0.342564
-0.325656
-0.297842
-0.259127
-0.215761
-0.174379
-0.13495
-0.100915
-0.0631808
-0.320239
-0.297669
-0.269742
-0.240447
-0.207362
-0.170368
-0.135448
-0.106055
-0.0807538
-0.0532521
-0.322176
-0.285391
-0.243455
-0.204971
-0.16909
-0.1355
-0.10475
-0.0810448
-0.0616956
-0.0400638
-0.364439
-0.30576
-0.244434
-0.190673
-0.148532
-0.112327
-0.0808141
-0.0580645
-0.0422236
-0.025486
-0.4597
-0.368238
-0.280814
-0.204359
-0.144236
-0.0990406
-0.0664614
-0.0432097
-0.0283151
-0.0135904
-0.593847
-0.459169
-0.332712
-0.228404
-0.151486
-0.0947502
-0.0537582
-0.0261169
-0.0123054
-0.00293338
-0.715186
-0.55823
-0.410197
-0.282892
-0.180449
-0.105574
-0.0558679
-0.0216313
-0.000394833
0.012462
-0.743473
-0.578717
-0.421403
-0.290836
-0.191136
-0.117463
-0.0628889
-0.0231284
0.000347188
0.0157119
-0.646945
-0.516027
-0.395618
-0.287367
-0.191099
-0.113777
-0.062234
-0.0269853
-3.79851e-05
0.0158577
-0.507018
-0.417352
-0.329512
-0.24809
-0.177182
-0.118795
-0.0745633
-0.0412916
-0.0174369
0.00051754
-0.0583221
-0.0305263
-0.0122882
-0.00207172
0.0642768
0.0448437
0.0345138
0.0308626
0.0277174
0.0278227
0.0296963
0.0307055
0.0338818
0.0371066
0.0380183
0.0398331
0.0423368
0.0434057
0.044323
0.0455712
0.0464143
0.0470903
0.0477591
0.0483103
0.0486723
0.0490227
0.0493655
0.0494613
0.0495847
0.0496657
0.0496619
0.0496251
0.0495111
0.0495289
0.0765872
0.0585293
0.0446998
0.0360658
0.0307888
0.0290406
0.0291128
0.0304642
0.0331796
0.0351699
0.0367851
0.0392672
0.0412218
0.0424221
0.0437619
0.0449848
0.0458306
0.046654
0.04736
0.0479444
0.0483457
0.0487883
0.0491083
0.0492477
0.049426
0.0494985
0.0495169
0.0494993
0.0493709
0.0493964
0.0762812
0.0599796
0.047009
0.0384586
0.0327968
0.0296871
0.0294841
0.0308348
0.0323414
0.034047
0.0363727
0.0386599
0.0402881
0.0417799
0.0432575
0.0443995
0.0453183
0.0462264
0.0469408
0.0475328
0.0479902
0.0484822
0.0487808
0.0489972
0.049215
0.049293
0.049349
0.0493522
0.0492189
0.0492517
0.0653056
0.0524469
0.0436265
0.0379548
0.0331287
0.0302852
0.0307364
0.0314501
0.0322883
0.0341244
0.0363997
0.0382269
0.0397845
0.0413951
0.042744
0.0438266
0.0447995
0.0457028
0.046426
0.0470152
0.0475482
0.0480457
0.0483569
0.0486617
0.0489104
0.0490247
0.0491322
0.0491654
0.0490506
0.0490926
0.0467921
0.0418
0.0391249
0.0363302
0.0330908
0.0320557
0.0324583
0.0327008
0.0336459
0.0352335
0.0369013
0.038347
0.0397973
0.0411723
0.0423041
0.0433176
0.0442893
0.0451223
0.0458377
0.0464384
0.047041
0.0475119
0.0478777
0.0482564
0.0485333
0.0487082
0.0488693
0.0489415
0.048867
0.0489199
0.0281057
0.0321387
0.0359496
0.0349879
0.0343895
0.0348135
0.0349186
0.0351672
0.0361862
0.0372135
0.0382297
0.0392961
0.0404559
0.0414084
0.0423086
0.0431687
0.0440208
0.0447248
0.045392
0.0460179
0.0466201
0.0470499
0.047474
0.0478782
0.0481728
0.0484003
0.0485976
0.0487058
0.0486763
0.0487379
0.00590592
0.0210596
0.0308581
0.0336024
0.036116
0.0375435
0.0377424
0.0386208
0.0393692
0.039785
0.040347
0.0410009
0.0416658
0.0422044
0.0428642
0.0435247
0.0441538
0.0447259
0.0453016
0.0459096
0.0464138
0.0468175
0.0472599
0.0476308
0.0479226
0.0481626
0.0483626
0.0484878
0.0484863
0.0485503
-0.0120023
0.00950445
0.0239076
0.0304449
0.0364683
0.0389324
0.0402746
0.0417894
0.0421864
0.0424504
0.0427763
0.0431117
0.043289
0.0435771
0.0439578
0.04434
0.0447294
0.0451568
0.0456054
0.0461079
0.0464719
0.0468556
0.047243
0.0475431
0.0478057
0.0480125
0.0481828
0.0483001
0.0483006
0.0483598
-0.0260962
-0.000520334
0.0158601
0.0259352
0.0352497
0.0389935
0.0421635
0.0439964
0.04459
0.0448758
0.0450338
0.0449708
0.04485
0.0449359
0.0450457
0.0451872
0.045454
0.0457107
0.0460344
0.0463745
0.0466465
0.0469958
0.0472904
0.0475273
0.0477488
0.0479038
0.0480326
0.0481275
0.0481144
0.0481647
-0.0329066
-0.00713063
0.0088011
0.0224823
0.0320473
0.0372351
0.0419129
0.044476
0.0456116
0.0462249
0.0464007
0.0462557
0.0460652
0.0459599
0.0458277
0.0458196
0.0459599
0.0460487
0.0463073
0.0465006
0.0467368
0.0470243
0.0472405
0.0474486
0.0476383
0.0477601
0.0478644
0.0479417
0.0479198
0.0479634
-0.0328416
-0.00840024
0.00641303
0.0218851
0.0306825
0.0365491
0.041985
0.0445891
0.0459765
0.0467171
0.0468854
0.0466899
0.0464597
0.0462316
0.0460319
0.0459848
0.0459838
0.0460133
0.046213
0.0463484
0.0465809
0.046819
0.0470208
0.0472323
0.0474164
0.0475399
0.0476469
0.047724
0.0477105
0.047753
-0.0266731
-0.00640549
0.00792648
0.0225861
0.0295759
0.0369248
0.0422042
0.044638
0.0461793
0.046996
0.0470823
0.0468532
0.0465234
0.0461937
0.0459093
0.0457851
0.0456873
0.0457407
0.0458754
0.0460182
0.0462425
0.0464655
0.0466881
0.0469143
0.0471163
0.0472628
0.0473907
0.0474816
0.0474889
0.0475346
-0.0155235
0.000945082
0.0150482
0.0284462
0.0326156
0.0402601
0.0435723
0.0453959
0.046849
0.0473468
0.0472251
0.0468558
0.046457
0.0460532
0.0457254
0.0455234
0.045402
0.0454282
0.0455172
0.0456806
0.045904
0.0461394
0.0463846
0.0466172
0.0468309
0.0469932
0.0471354
0.0472371
0.0472613
0.0473092
-0.00469902
0.00945594
0.0215
0.0333588
0.0370794
0.0448919
0.0461923
0.0478171
0.0487704
0.0486756
0.0481781
0.0475311
0.046888
0.0462712
0.0458119
0.0455259
0.0453763
0.0453532
0.0454136
0.0455612
0.0457527
0.0459767
0.0462104
0.0464297
0.0466299
0.0467825
0.0469152
0.0470116
0.0470354
0.0470803
0.00565193
0.0181657
0.0274043
0.0378534
0.0414145
0.0478273
0.0484707
0.0501454
0.0503203
0.0498297
0.0491175
0.0483485
0.0475397
0.0467932
0.046241
0.0458475
0.0455948
0.0454773
0.0454913
0.0455925
0.0457474
0.0459397
0.0461374
0.0463257
0.0464896
0.046616
0.0467201
0.0467988
0.0468092
0.0468467
0.0128697
0.0249767
0.0329882
0.0406859
0.0449198
0.0497444
0.0504025
0.0519024
0.0515748
0.0507189
0.049718
0.0486346
0.0476505
0.046834
0.0462611
0.0458484
0.0455806
0.0454583
0.0454498
0.0455105
0.0456357
0.0458053
0.0459857
0.0461565
0.046307
0.046421
0.0465056
0.0465734
0.0465741
0.0466063
0.0247599
0.0364801
0.0449337
0.0475862
0.0525213
0.0528081
0.0523028
0.0523245
0.051308
0.0504451
0.0493656
0.0483226
0.0473267
0.0465213
0.0459015
0.0454497
0.0451716
0.0450622
0.0450711
0.0451492
0.0453046
0.0454879
0.045678
0.0458567
0.0460237
0.0461491
0.0462399
0.0463147
0.0463214
0.0463542
0.0290059
0.0398077
0.0489085
0.0496811
0.0562672
0.0555534
0.0549781
0.0532358
0.051181
0.0494512
0.0480869
0.0470105
0.0461554
0.0454866
0.0449818
0.0446567
0.0444871
0.0444512
0.0445008
0.0446338
0.0448349
0.0450552
0.04528
0.0454898
0.0456892
0.045835
0.0459452
0.0460345
0.0460552
0.046091
0.0311956
0.038849
0.0480462
0.0479774
0.0525281
0.0516134
0.0520899
0.0510662
0.0498226
0.0485415
0.0473604
0.0463122
0.045503
0.0448473
0.0443995
0.044117
0.0439744
0.0439887
0.044106
0.0443003
0.044529
0.0447615
0.0449909
0.045211
0.0454061
0.0455541
0.0456688
0.0457592
0.0457848
0.0458193
0.0180311
0.027733
0.0365207
0.0404873
0.0446589
0.0457963
0.0464742
0.0460462
0.0456743
0.0454373
0.0451257
0.0447955
0.044416
0.0440339
0.0438333
0.0436888
0.0436767
0.0437669
0.0439256
0.044135
0.0443751
0.0446134
0.0448454
0.0450513
0.0452176
0.0453444
0.0454336
0.0455041
0.0455167
0.0455426
0.0062821
0.0117133
0.0147544
0.0196619
0.0284913
0.0351437
0.0385975
0.0406295
0.0415399
0.04241
0.0427814
0.0430309
0.0430481
0.0431195
0.0431138
0.0431709
0.0433334
0.0435443
0.0437855
0.044042
0.0442908
0.0445195
0.0447322
0.0449077
0.0450464
0.0451468
0.0452041
0.0452501
0.045244
0.0452596
0.00360621
0.00460614
-0.0317232
-0.0136383
-0.00280595
0.00443962
0.0127752
0.0196341
0.0231285
0.0286736
0.0350435
0.036799
-0.0147104
0.000978614
0.00586138
0.00992729
0.0172421
0.0215113
0.0241795
0.0312183
0.035912
0.0358246
0.0390905
0.0426954
0.0432469
0.0446508
0.0464257
0.04717
0.0479735
0.0487619
0.0492523
0.0496456
0.049997
0.0501962
0.050328
0.0504988
0.0504723
0.0504222
0.0503747
0.0502348
0.0500862
0.0500572
0.00485214
0.0112781
0.00933086
0.0130613
0.0209059
0.0232812
0.0268692
0.0338571
0.0350285
0.035707
0.040645
0.0425064
0.0426751
0.0448679
0.0462061
0.0467507
0.0477278
0.0484527
0.0489229
0.0493451
0.0497185
0.0498848
0.050083
0.0502568
0.050227
0.05023
0.0501996
0.0500785
0.0499466
0.0499257
0.0276918
0.0239
0.0158187
0.018867
0.0241333
0.0247374
0.0298252
0.0341308
0.0336447
0.0373158
0.0414377
0.0413915
0.0426884
0.0450159
0.045663
0.0463818
0.0474338
0.0480411
0.048544
0.0490094
0.0493795
0.0495527
0.0498314
0.0499744
0.0499718
0.0500248
0.0500054
0.049914
0.0498
0.0497932
0.0483963
0.0336305
0.0233885
0.0253589
0.0261222
0.026472
0.0307375
0.0321334
0.0336865
0.0383977
0.0400776
0.0403835
0.042907
0.0444737
0.0449584
0.0460428
0.0469912
0.0475596
0.0481507
0.0486615
0.0490178
0.049263
0.0495966
0.0496985
0.0497537
0.0498336
0.0498199
0.0497588
0.0496522
0.0496598
)
;

boundaryField
{
    outlet
    {
        type            fixedValue;
        value           nonuniform 0();
    }
    upperWall
    {
        type            symmetryPlane;
    }
    lowerWall
    {
        type            symmetryPlane;
    }
    inlet
    {
        type            zeroGradient;
    }
    cylinder
    {
        type            zeroGradient;
    }
    frontAndBack
    {
        type            empty;
    }
    procBoundary2to1
    {
        type            processor;
        value           nonuniform List<scalar> 
63
(
-0.659373
-0.659373
-0.455396
-0.334289
-0.334289
-0.249928
-0.191391
-0.191391
-0.162311
-0.127514
-0.0970507
-0.0970507
-0.0895445
-0.0687029
-0.0504453
-0.0504453
-1.0786
-1.08565
-1.08565
-1.01842
-0.915817
-0.793883
-0.738775
-0.738775
-0.724629
-0.724629
-0.763404
-0.763404
-0.818965
-0.818965
-0.81416
-0.81416
-0.0421554
-0.0217497
-0.00660516
0.00334257
0.0113022
0.0181941
0.0226329
0.0269726
0.0329723
0.0367787
0.0383499
0.0383499
0.0419979
0.0437351
0.0446937
0.0463651
0.0474273
0.0481404
0.0489019
0.049439
0.0498343
0.0501726
0.0504176
0.0505249
0.0506684
0.0506629
0.0505783
0.0505142
0.0503726
0.0502174
0.0501888
)
;
    }
    procBoundary2to3
    {
        type            processor;
        value           nonuniform List<scalar> 
43
(
-0.393945
-0.345523
-0.288274
-0.221227
-0.153685
-0.0983868
-0.0983868
-0.0722327
-0.0368696
-0.0147031
-0.00219761
-0.00219761
0.00262936
0.0053503
0.0152237
0.0240509
0.0303934
0.0348296
0.0375156
0.0393468
0.0404292
0.0409934
0.0413778
0.0416691
0.0419579
0.0423205
0.0426766
0.0430152
0.0433585
0.0436918
0.044002
0.0442669
0.0445008
0.044672
0.0448107
0.0448977
0.0449389
0.0449716
0.0449563
0.0449654
0.00505866
0.00262936
0.00340686
)
;
    }
    procBoundary2to6
    {
        type            processor;
        value           nonuniform List<scalar> 
37
(
-1.0994
-1.14235
-1.19252
-1.24624
-1.29318
-1.32044
-1.33171
-1.33037
-1.28702
-1.17764
-1.03094
-0.888321
-0.770437
-0.681234
-0.623099
-0.587868
-0.571594
-0.573979
-0.623193
-0.733599
-0.879514
-0.971472
-0.945441
-0.810538
-0.640985
-0.494576
-0.397308
-0.345291
-0.328355
-0.346874
-0.410222
-0.535332
-0.709302
-0.856288
-0.891369
-0.768649
-0.589696
)
;
    }
}


// ************************************************************************* //
