/*--------------------------------*- C++ -*----------------------------------*\
| =========                 |                                                 |
| \\      /  F ield         | OpenFOAM: The Open Source CFD Toolbox           |
|  \\    /   O peration     | Version:                                        |
|   \\  /    A nd           | Website:  www.openfoam.com                      |
|    \\/     M anipulation  |                                                 |
\*---------------------------------------------------------------------------*/
FoamFile
{
    version     2.0;
    format      ascii;
    class       volScalarField;
    location    "68";
    object      p;
}
// * * * * * * * * * * * * * * * * * * * * * * * * * * * * * * * * * * * * * //

dimensions      [0 2 -2 0 0 0 0];


internalField   nonuniform List<scalar> 
1136
(
-0.785043
-0.745836
-0.588373
-0.415596
-0.293724
-0.240208
-0.242339
-0.286892
-0.313998
-0.279659
-0.236773
-0.21099
-0.203129
-0.223136
-0.240129
-0.22744
-0.21188
-0.169515
-0.0840233
-0.0398565
-0.0298142
-0.045144
-0.0736133
-0.0755155
-0.0372367
-0.0181292
0.00572801
0.0112436
-0.0953866
-0.0896891
-0.870325
-0.826243
-0.648532
-0.449032
-0.298239
-0.221154
-0.197197
-0.220476
-0.236176
-0.213621
-0.193165
-0.189995
-0.206057
-0.249104
-0.279603
-0.254083
-0.227743
-0.17754
-0.0805681
-0.0245378
-0.0146659
-0.037898
-0.0826494
-0.09986
-0.0620311
-0.0277734
0.00592086
0.0273513
-0.0742379
-0.0735837
-0.906627
-0.867009
-0.681069
-0.463942
-0.293216
-0.198031
-0.159148
-0.165903
-0.171402
-0.155143
-0.151287
-0.166738
-0.206513
-0.275079
-0.321149
-0.280632
-0.24053
-0.183601
-0.0801797
-0.0135216
-0.00232375
-0.0321177
-0.0928188
-0.12566
-0.0860057
-0.038181
0.00575324
0.0418459
-0.0517433
-0.0542085
-0.877116
-0.855689
-0.680432
-0.458898
-0.280392
-0.171819
-0.122805
-0.120329
-0.120011
-0.103679
-0.108747
-0.141203
-0.204315
-0.298275
-0.362439
-0.307457
-0.250066
-0.187284
-0.0826638
-0.00695391
0.00644324
-0.0283286
-0.102277
-0.148855
-0.1069
-0.0482197
0.00543776
0.0532144
-0.0294031
-0.0326817
-0.785883
-0.787954
-0.639177
-0.433288
-0.261013
-0.14711
-0.0926348
-0.0837945
-0.0795802
-0.0583398
-0.0685095
-0.112023
-0.196005
-0.319617
-0.399828
-0.331201
-0.254211
-0.187276
-0.0859499
-0.00370743
0.0125388
-0.0247513
-0.109074
-0.167212
-0.123242
-0.0568351
0.00471855
0.0605465
-0.00914072
-0.0102908
-0.651127
-0.676974
-0.572923
-0.395506
-0.238265
-0.124052
-0.0671987
-0.0561069
-0.0510208
-0.0255435
-0.0310592
-0.0803102
-0.183765
-0.32905
-0.425147
-0.351482
-0.25599
-0.184859
-0.0897566
-0.00359444
0.0165135
-0.0218117
-0.11193
-0.178899
-0.134082
-0.0633059
0.00345728
0.0627074
0.00705928
0.00811514
-0.564787
-0.47194
-0.332734
-0.205927
-0.103699
-0.0470083
-0.0346401
-0.0306142
-0.00202623
-0.00169712
-0.0495332
-0.158214
-0.327086
-0.437637
-0.365798
-0.252899
-0.17812
-0.0919026
-0.00542566
0.0176801
-0.0187237
-0.110386
-0.184208
-0.140745
-0.0676415
0.00170865
0.0604864
0.0177463
0.0211259
-0.409657
-0.374921
-0.278909
-0.177589
-0.0884901
-0.0318032
-0.0175491
-0.0169385
0.0107176
0.0193081
-0.0209487
-0.127436
-0.308844
-0.428628
-0.366504
-0.246612
-0.170401
-0.094254
-0.00884303
0.0188512
-0.0155093
-0.105691
-0.183676
-0.143107
-0.0700966
-0.000489506
0.0557483
0.0229812
0.0279928
-0.272318
-0.277567
-0.213837
-0.140508
-0.0759386
-0.0229378
-0.0060898
-0.00778765
0.0151464
0.0322796
0.00177352
-0.0904163
-0.272415
-0.407172
-0.363723
-0.24065
-0.160626
-0.0935142
-0.0154396
0.0171876
-0.011301
-0.0983612
-0.178617
-0.143649
-0.0714169
-0.00263406
0.0502867
0.0241074
0.0294512
-0.14945
-0.160488
-0.146168
-0.10577
-0.0614999
-0.0157499
0.00256973
0.00201926
0.0171105
0.0340983
0.019446
-0.0522935
-0.230352
-0.367798
-0.334246
-0.228793
-0.150208
-0.0828485
-0.0182196
0.0146047
-0.00744398
-0.0900144
-0.168939
-0.139604
-0.0697306
-0.00339265
0.0455318
0.0227312
0.027565
-0.106823
-0.107165
-0.0729886
-0.0357888
-0.00333181
0.009513
0.0107616
0.022988
0.0400489
0.0377858
-0.0131824
-0.17926
-0.324648
-0.306809
-0.204854
-0.130262
-0.0690481
-0.0158961
0.0140987
-0.00236412
-0.0789179
-0.157101
-0.132474
-0.0653425
-0.0027167
0.0416172
0.0204568
0.0246451
-0.0577873
-0.0604177
-0.0443467
-0.0162317
0.00695573
0.0136602
0.0155929
0.0308787
0.0501934
0.0509803
0.017506
-0.136072
-0.286115
-0.274239
-0.179908
-0.110793
-0.0578583
-0.0146753
0.00628119
-0.00117968
-0.0685079
-0.14494
-0.123756
-0.0603973
-0.00216256
0.037753
0.0180508
0.0214423
-0.0208489
-0.0360413
-0.0258464
-0.000889567
0.0149753
0.0182462
0.0204632
0.0381683
0.0595442
0.062695
0.0350942
-0.105358
-0.237999
-0.230153
-0.152668
-0.091695
-0.0450702
-0.0163647
-0.00349252
-0.00366604
-0.0599019
-0.130445
-0.112642
-0.0544329
-0.0016801
0.0337685
0.0157889
0.0180027
-0.000896025
-0.0115639
-0.00444674
0.0147136
0.0235372
0.0243034
0.0273685
0.0448502
0.0629349
0.0665415
0.0447732
-0.0672585
-0.175971
-0.178266
-0.123318
-0.0716713
-0.0301936
-0.0183525
-0.0156456
-0.00816332
-0.0503113
-0.112869
-0.0989465
-0.0467911
-0.000909658
0.0298888
0.0137421
0.0144315
0.0153458
0.00678832
0.00511979
0.0221052
0.030027
0.0306046
0.0348607
0.0517336
0.0639394
0.0656546
0.0554794
-0.0181939
-0.106031
-0.120989
-0.0949045
-0.0538506
-0.0144023
-0.0185295
-0.0246183
-0.0107716
-0.03647
-0.0920985
-0.0828842
-0.0377518
0.000776118
0.0260952
0.0119733
0.0110598
0.0255773
0.0202417
0.0238685
0.0337707
0.037052
0.0351857
0.0401628
0.0558091
0.0658973
0.0695178
0.0700054
0.0252629
-0.0467614
-0.0699427
-0.0659668
-0.0349243
0.00130397
-0.0152755
-0.0266372
-0.00732757
-0.0186287
-0.0690295
-0.0652265
-0.0285064
0.00281527
0.0232137
0.0106369
0.00806736
0.0346842
0.0319088
0.027447
0.0340575
0.0416865
0.0427811
0.0456997
0.0592205
0.0709547
0.0771505
0.0803928
0.0492537
-0.00559657
-0.0290428
-0.0405883
-0.0206291
0.014101
-0.00294787
-0.0170433
0.00331127
0.000446085
-0.0456529
-0.0468339
-0.0183194
0.00489767
0.0203187
0.00969559
0.00574709
0.0397477
0.0375275
0.0379964
0.0425801
0.0465077
0.0455555
0.0485259
0.0603663
0.0722252
0.0777137
0.0796251
0.0575327
0.0181987
-0.00378613
-0.0191894
-0.00475865
0.025719
0.0184148
0.00759282
0.0205858
0.0184268
-0.0231105
-0.0289613
-0.00862828
0.00760284
0.0182295
0.00923228
0.00402776
0.0441438
0.0434829
0.0412741
0.0428054
0.0475294
0.0487244
0.0519334
0.0614255
0.0711709
0.0753571
0.075485
0.0588296
0.0312517
0.0145412
4.88684e-05
0.006437
0.0320995
0.0391218
0.0371979
0.0400235
0.0325355
-0.0039186
-0.0127232
-0.000395591
0.0095402
0.0163226
0.0093499
0.00326421
0.0466586
0.0459816
0.0457485
0.0474398
0.0502613
0.0513593
0.053649
0.0606079
0.0683155
0.0715099
0.0703665
0.0583546
0.038973
0.0241127
0.0131724
0.0205581
0.0411626
0.0538576
0.0505205
0.0500561
0.0395686
0.00974458
6.72552e-05
0.00704764
0.0117351
0.0151333
0.00888256
0.00245986
0.0488081
0.0488689
0.0484225
0.0487628
0.0506307
0.0521646
0.054429
0.0597347
0.0653806
0.067553
0.0658757
0.0570444
0.0428597
0.0331072
0.0252561
0.0265973
0.0433143
0.0606019
0.0602105
0.0537116
0.0422092
0.0196307
0.00965438
0.0122595
0.0125456
0.0134334
0.00899252
0.00238868
0.050363
0.0501514
0.0500454
0.0503741
0.0516417
0.0531969
0.0550095
0.0585303
0.0623148
0.0638255
0.0619854
0.0556291
0.0454347
0.0378942
0.0323841
0.0345805
0.0471291
0.0609719
0.0617487
0.0537493
0.0430587
0.0251417
0.0167818
0.0167149
0.0140735
0.0125375
0.00878419
0.00250926
0.0513425
0.0513851
0.0514874
0.0515505
0.0521991
0.0533661
0.0547496
0.0571992
0.0595468
0.0604379
0.0586831
0.0542477
0.0464905
0.0417997
0.0381596
0.0386059
0.0469806
0.0585812
0.0603265
0.0516947
0.0424579
0.0290459
0.0211306
0.0199958
0.0156849
0.0128018
0.0088798
0.00282289
0.0520564
0.0521062
0.0521721
0.0521452
0.0523774
0.0533122
0.0543406
0.0559162
0.0571432
0.0575388
0.0560299
0.0530713
0.0470343
0.0437474
0.0412864
0.041828
0.0471855
0.0556187
0.0577276
0.0499524
0.0417007
0.0303623
0.0246527
0.0226785
0.0168032
0.0122713
0.00856579
0.00296637
0.0525729
0.0525813
0.0526666
0.0525232
0.0524843
0.053098
0.053689
0.054642
0.0551769
0.0553184
0.0537536
0.0519184
0.047128
0.0451487
0.0431676
0.0434532
0.046347
0.0520662
0.0546623
0.0470785
0.0409084
0.0315799
0.0263951
0.0231846
0.0167167
0.0118868
0.00681486
0.00262933
0.0528623
0.0528002
0.0526719
0.0525931
0.0523806
0.052689
0.0529799
0.0534898
0.0534636
0.0534305
0.051863
0.0508547
0.0469872
0.0454725
0.0436693
0.0439186
0.0449543
0.0484845
0.0512623
0.0452978
0.03979
0.0317463
0.0276063
0.0243943
0.0166315
0.0112541
0.00779672
0.00323609
0.0530141
0.0529244
0.0527669
0.0525585
0.052214
0.0522562
0.0522722
0.0524485
0.0520398
0.0519678
0.0503405
0.0498134
0.0465626
0.0455475
0.043555
0.0435622
0.0431397
0.0448308
0.0477833
0.0421801
0.0386099
0.0319122
0.0286576
0.0239843
0.0154682
0.0110343
0.00648277
0.00276104
0.053046
0.0529096
0.0527277
0.0524267
0.0519626
0.0518062
0.051596
0.0515839
0.0508336
0.0506888
0.0490927
0.0488137
0.0460165
0.0451887
0.0428883
0.04258
0.0409454
0.0409566
0.0439171
0.038947
0.0373048
0.0311745
0.0293109
0.024365
0.014458
0.00991369
0.00576906
0.00240462
0.0529764
0.0528082
0.0525766
0.0521753
0.051662
0.0513521
0.0509864
0.0507717
0.0497446
0.0494894
0.0479163
0.0477478
0.0451479
0.0443628
0.0417287
0.0409989
0.0388557
0.0375644
0.0393909
0.0349237
0.0356753
0.0299756
0.0284912
0.0232822
0.014956
0.0102826
0.0061142
0.00244111
0.0528854
0.0526483
0.0523437
0.0518837
0.0512922
0.0509063
0.0503869
0.0500812
0.0488499
0.0484388
0.0469155
0.0465547
0.0440905
0.0432001
0.0405815
0.039821
0.0374477
0.0341906
0.0337674
0.0285588
0.0331073
0.0250979
0.0209814
0.0189993
0.0138605
0.0120988
0.00773098
0.00271075
0.0527704
0.0524675
0.0521392
0.0515829
0.050912
0.0504453
0.0498552
0.0494072
0.0482169
0.047591
0.0460865
0.045461
0.0431039
0.0424075
0.039973
0.0389597
0.0360943
0.0310944
0.0285396
0.0230673
0.0278774
0.0165969
0.00953398
0.0113256
0.00999451
0.0112951
0.00726444
0.00204827
0.0526011
0.0522404
0.0518272
0.0512495
0.0505215
0.0499957
0.0493189
0.0487707
0.0476468
0.0468037
0.045404
0.0445379
0.0426321
0.0417421
0.0396572
0.037913
0.0354272
0.0300854
0.0290244
0.023955
0.0254871
0.0128364
0.00853348
0.0112718
0.00941932
0.0108739
0.00741462
0.00148277
0.0524096
0.0519965
0.0515209
0.0508976
0.0501499
0.049523
0.0488212
0.0481456
0.0470674
0.0461262
0.0448694
0.043931
0.0423294
0.0411312
0.0394483
0.0374353
0.0362098
0.0327991
0.0336119
0.0287201
0.0248372
0.0175258
0.0169026
0.0179788
0.0117311
0.0119942
0.00827008
0.00164298
0.0522164
0.0517498
0.0512156
0.0505639
0.0497902
0.0490942
0.0483551
0.0475959
0.0465746
0.0455998
0.0444742
0.0435037
0.0420715
0.0407995
0.0394213
0.0378418
0.0373352
0.0353341
0.0349892
0.0299169
0.0261831
0.0233296
0.0224962
0.0215864
0.0134887
0.0121178
0.0093441
0.00227763
0.0520307
0.0515081
0.0509371
0.0502494
0.0494661
0.0487205
0.0479616
0.0471607
0.0461749
0.045207
0.0441524
0.0431479
0.0418649
0.0405984
0.0394447
0.0381174
0.0374226
0.0354897
0.0338341
0.0295424
0.0272753
0.0259557
0.023679
0.0216242
0.014114
0.0116141
0.00946482
0.00275078
0.0518548
0.0512921
0.0506812
0.0499696
0.0491885
0.0484167
0.0476341
0.0468041
0.0458501
0.0448764
0.0438517
0.0428159
0.0416174
0.0403625
0.0392194
0.0378808
0.0367202
0.0346739
0.0326495
0.0296749
0.027565
0.0260696
0.0226258
0.0204786
0.014515
0.0109206
0.00911676
0.0030083
0.0517013
0.0510985
0.050457
0.0497374
0.0489566
0.0481639
0.0473608
0.0465126
0.045568
0.0445819
0.0435593
0.0424893
0.0413125
0.040034
0.0387905
0.0373538
0.0358772
0.0339002
0.0318517
0.0295253
0.0271713
0.0252216
0.0216688
0.0193147
0.0147548
0.010577
0.00834164
0.00298431
0.0515747
0.0509435
0.0502784
0.0495507
0.0487705
0.0479678
0.0471436
0.0462711
0.0453267
0.0443288
0.0432893
0.042183
0.0409877
0.0396761
0.0383252
0.0368235
0.0351976
0.0333026
0.0312195
0.0290294
0.0265845
0.0243594
0.0210708
0.0183992
0.0147017
0.0103836
0.00746332
0.00279246
0.0514723
0.0508215
0.0501396
0.04941
0.0486353
0.0478238
0.0469792
0.0460888
0.0451416
0.0441315
0.0430677
0.0419309
0.0407092
0.0393738
0.0379536
0.0364147
0.0347284
0.0328725
0.0307838
0.0286425
0.0261464
0.0237553
0.0206956
0.0177592
0.0144344
0.0103124
0.00686471
0.00257562
0.0514216
0.0507592
0.0500675
0.0493371
0.0485632
0.0477449
0.0468885
0.0459884
0.0450365
0.0440179
0.0429389
0.0417854
0.0405482
0.039201
0.0377473
0.03619
0.0344817
0.0326355
0.0305459
0.0283996
0.025912
0.0234355
0.0204852
0.0174362
0.0142261
0.0102928
0.00657824
0.00242709
)
;

boundaryField
{
    outlet
    {
        type            fixedValue;
        value           uniform 0;
    }
    upperWall
    {
        type            symmetryPlane;
    }
    lowerWall
    {
        type            symmetryPlane;
    }
    inlet
    {
        type            zeroGradient;
    }
    cylinder
    {
        type            zeroGradient;
    }
    frontAndBack
    {
        type            empty;
    }
    procBoundary7to3
    {
        type            processor;
        value           nonuniform List<scalar> 
30
(
-0.660254
-0.632283
-0.505503
-0.36963
-0.284674
-0.259884
-0.288186
-0.356623
-0.39925
-0.349387
-0.280944
-0.232456
-0.200206
-0.197093
-0.203062
-0.20003
-0.192817
-0.159491
-0.0908143
-0.0601975
-0.0498855
-0.0545405
-0.0671647
-0.0552624
-0.013116
-0.0103812
0.00551787
-0.00492503
-0.114165
-0.102071
)
;
    }
    procBoundary7to6
    {
        type            processor;
        value           nonuniform List<scalar> 
42
(
-0.675566
-0.748605
-0.773256
-0.738474
-0.633373
-0.497865
-0.493362
-0.493362
-0.338443
-0.210667
-0.116042
-0.0945158
-0.0945158
-0.0586429
-0.0229234
0.00164408
0.0177425
0.0296754
0.0365782
0.0418731
0.0452024
0.0479627
0.0496736
0.0511549
0.0519908
0.0526205
0.0530315
0.0532638
0.0533913
0.0534337
0.053412
0.0533208
0.0532152
0.0530868
0.0529291
0.0527649
0.0526071
0.0524509
0.052312
0.0521988
0.0521026
0.0520571
)
;
    }
}


// ************************************************************************* //
