/*--------------------------------*- C++ -*----------------------------------*\
| =========                 |                                                 |
| \\      /  F ield         | OpenFOAM: The Open Source CFD Toolbox           |
|  \\    /   O peration     | Version:                                        |
|   \\  /    A nd           | Website:  www.openfoam.com                      |
|    \\/     M anipulation  |                                                 |
\*---------------------------------------------------------------------------*/
FoamFile
{
    version     2.0;
    format      ascii;
    class       surfaceScalarField;
    location    "68";
    object      phi;
}
// * * * * * * * * * * * * * * * * * * * * * * * * * * * * * * * * * * * * * //

dimensions      [0 3 -1 0 0 0 0];
oriented        oriented;


internalField   nonuniform List<scalar> 
2202
(
0.0293586
0.0211228
0.0302803
-0.0292672
0.0321559
-0.0700329
0.0343312
-0.0912082
0.0337881
-0.0941193
0.0297344
-0.0939897
0.0237051
-0.0896944
0.0196004
-0.0666004
0.0229053
-0.0284088
0.0288639
0.0219785
0.031818
0.0582901
0.0316684
0.0941605
0.0300084
0.111098
0.0292214
0.101979
0.032839
0.0448688
0.0374066
-0.0112109
0.0371889
-0.0580575
0.035121
-0.1166
0.0356157
-0.1193
0.0380769
-0.0627378
0.0387026
0.0252348
0.034665
0.0764159
0.027284
0.110463
0.0296683
0.0762859
0.0392821
-0.010677
0.0457867
-0.062667
0.0441996
-0.0963536
0.0306627
-0.178613
0.0249369
-0.140643
0.0134514
0.0385943
0.0234513
0.0372241
-0.0278969
0.0360516
-0.0688605
0.0357472
-0.0909038
0.034423
-0.092795
0.0295757
-0.0891424
0.0231141
-0.0832328
0.0194771
-0.0629635
0.023095
-0.0320267
0.0295207
0.0155529
0.0328601
0.0549507
0.0323189
0.0947017
0.0306267
0.11279
0.0298458
0.10276
0.0330668
0.0416477
0.0388098
-0.0169538
0.0392399
-0.0584876
0.0362904
-0.11365
0.0370248
-0.120034
0.0402558
-0.0659689
0.0398926
0.025598
0.0342578
0.0820506
0.0278619
0.116859
0.0307274
0.0734204
0.0387491
-0.0186987
0.045505
-0.069423
0.0441639
-0.0950125
0.0286888
-0.163138
0.0217605
-0.133715
0.0107696
0.0489094
0.0282386
0.0448269
-0.0238144
0.0408264
-0.06486
0.0374972
-0.0875745
0.0349535
-0.0902514
0.0299224
-0.0841112
0.0237624
-0.0770729
0.020697
-0.0598981
0.0244402
-0.0357698
0.0310171
0.00897598
0.0346476
0.0513201
0.0356287
0.0937206
0.0344136
0.114005
0.0322802
0.104893
0.0341624
0.0397655
0.0397672
-0.0225585
0.0402301
-0.0589505
0.0365671
-0.109987
0.0375864
-0.121053
0.0416345
-0.070017
0.0412002
0.0260323
0.0351485
0.0881023
0.0299063
0.122102
0.0332254
0.0701014
0.0391
-0.0245733
0.0450545
-0.0753774
0.0439999
-0.0939579
0.0268797
-0.146018
0.0188806
-0.125716
0.0065297
0.0606631
0.0347692
0.0541223
-0.0172736
0.0470988
-0.0578365
0.040863
-0.0813388
0.0370821
-0.0864705
0.0314993
-0.0785285
0.0252055
-0.0707791
0.0222751
-0.0569677
0.0252445
-0.0387392
0.0318016
0.00241883
0.0368503
0.0462714
0.0384291
0.0921418
0.0362343
0.1162
0.0339952
0.107132
0.0360324
0.0377283
0.0421005
-0.0286266
0.0428616
-0.0597116
0.0382279
-0.105354
0.0387818
-0.121607
0.0430979
-0.0743331
0.0427611
0.0263692
0.0367801
0.0940833
0.0328266
0.126055
0.036416
0.0665121
0.0401038
-0.0282612
0.0448865
-0.0801602
0.0442919
-0.0933633
0.0259543
-0.127681
0.0168438
-0.116605
0.000797192
0.0723457
0.0419689
0.0633772
-0.00830508
0.0536647
-0.048124
0.0443975
-0.0720716
0.0391341
-0.081207
0.0337526
-0.0731471
0.0270578
-0.0640842
0.0235385
-0.0534484
0.0259355
-0.0411361
0.033326
-0.00497168
0.0397255
0.0398719
0.0428805
0.0889868
0.0417123
0.117369
0.0387511
0.110094
0.0389761
0.0375033
0.0438969
-0.0335474
0.0443825
-0.0601973
0.0391886
-0.10016
0.0393086
-0.121727
0.0435744
-0.0785989
0.0439464
0.0259972
0.0392177
0.098812
0.0365788
0.128694
0.0400824
0.0630084
0.0418879
-0.0300666
0.0449995
-0.0832718
0.0445422
-0.092906
0.0259867
-0.109125
0.0162359
-0.106854
-0.00620099
0.0814134
0.0713078
0.00180048
0.0600835
-0.0368997
0.0489953
-0.0609834
0.0417522
-0.0739639
0.0363199
-0.0677147
0.0295753
-0.0573396
0.0255004
-0.0493735
0.0272227
-0.0428584
0.034287
-0.012036
0.0416184
0.0325405
0.0465244
0.0840807
0.0457231
0.11817
0.042417
0.1134
0.0423154
0.0376048
0.0466772
-0.0379091
0.0470192
-0.0605393
0.0407836
-0.0939241
0.0399203
-0.120864
0.0439949
-0.0826735
0.0452654
0.0247267
0.0419123
0.102165
0.0401632
0.130443
0.0433117
0.0598599
0.0439834
-0.0307383
0.0454589
-0.0847473
0.045129
-0.0925761
0.0277639
-0.09176
0.0177546
-0.0968452
-0.0136324
0.0773256
0.012867
0.0652099
-0.0247841
0.0523633
-0.0481367
0.043377
-0.0649776
0.0384264
-0.0627641
0.0316066
-0.0505198
0.0261922
-0.0439591
0.0268164
-0.0434826
0.0345993
-0.0198189
0.0443895
0.0227503
0.0507422
0.0777281
0.0518911
0.117021
0.0492646
0.116026
0.0465814
0.0402881
0.0488175
-0.0401452
0.0484224
-0.0601442
0.0413966
-0.0868983
0.0398176
-0.119285
0.0439117
-0.0867676
0.046289
0.0223494
0.0449109
0.103543
0.0438673
0.131487
0.0460446
0.0576826
0.0460622
-0.0307559
0.0460678
-0.0847529
0.0456577
-0.092166
0.0309117
-0.077014
0.0214757
-0.0874091
-0.0204089
0.0785427
0.0234311
0.0676746
-0.0139159
0.0549398
-0.035402
0.0442953
-0.0543331
0.0397534
-0.0582222
0.0338848
-0.0446513
0.0272828
-0.0373571
0.0269002
-0.0431
0.0351506
-0.0280694
0.0451051
0.0127959
0.0527361
0.0700971
0.056298
0.113459
0.0543217
0.118002
0.0501165
0.0444933
0.0512634
-0.0412921
0.0503668
-0.0592476
0.042515
-0.0790465
0.0396274
-0.116397
0.0434142
-0.0905544
0.046897
0.0188665
0.0475939
0.102846
0.0468593
0.132221
0.0478813
0.0566606
0.047671
-0.0305456
0.0467245
-0.0838064
0.0461187
-0.0915601
0.0347901
-0.0656855
0.0267161
-0.0793351
-0.0259732
0.083287
0.030932
0.0716614
-0.00229024
0.0573397
-0.0210803
0.0442191
-0.0412125
0.0395036
-0.0535066
0.0359225
-0.0410702
0.0285786
-0.0300132
0.0250806
-0.039602
0.0326819
-0.0356707
0.0451769
0.000300874
0.0551943
0.0600797
0.060228
0.108425
0.0593895
0.118841
0.0541452
0.0497376
0.0527201
-0.0398671
0.051097
-0.0576245
0.043184
-0.0711335
0.0392596
-0.112473
0.0431241
-0.0944188
0.0474931
0.0144975
0.0498929
0.100446
0.04963
0.132484
0.0495285
0.0567621
0.049083
-0.0301001
0.0476111
-0.0823345
0.04663
-0.090579
0.0382506
-0.0573061
0.0322586
-0.0733432
-0.0307684
0.0760252
0.0663977
0.00733722
0.0554692
-0.0101518
0.0435436
-0.0292868
0.0382706
-0.0482337
0.0368372
-0.0396368
0.0306302
-0.0238062
0.0246107
-0.0335825
0.0293894
-0.0404494
0.042279
-0.0125887
0.054204
0.0481548
0.0624092
0.10022
0.0626909
0.118559
0.0572437
0.0551848
0.0547483
-0.0373717
0.0525144
-0.0553906
0.0446157
-0.0632349
0.0392552
-0.107112
0.0421504
-0.0973141
0.0472919
0.00935606
0.0514723
0.0962659
0.051829
0.132128
0.0509235
0.0576675
0.0501728
-0.0293494
0.0483454
-0.0805071
0.0470913
-0.089325
0.0404778
-0.0506925
0.0366761
-0.0695415
-0.0357482
0.0665081
0.00938187
0.0636666
-0.00731035
0.0575778
-0.0231979
0.0521009
-0.0427568
0.0485403
-0.0360762
0.0418713
-0.0171372
0.0346074
-0.0263186
0.0335056
-0.0393476
0.0379628
-0.0170459
0.042718
0.0433995
0.0477064
0.0952318
0.0519483
0.114317
0.0574731
0.04966
0.0609767
-0.0408753
0.0587831
-0.053197
0.0522488
-0.0567005
0.0473396
-0.102203
0.0450075
-0.094982
0.0432804
0.0110831
0.0440452
0.0955012
0.0461322
0.130041
0.0493407
0.054459
0.0501188
-0.0301274
0.0480471
-0.0784355
0.0458602
-0.0871381
0.0393244
-0.0441567
0.0360607
-0.0662778
-0.039855
0.0677371
0.0112512
0.0655202
-0.00509337
0.0600944
-0.0177722
0.0540443
-0.0367067
0.0508319
-0.0328638
0.0461697
-0.012475
0.0398103
-0.0199592
0.0366663
-0.0362037
0.0400285
-0.0204081
0.046835
0.0365931
0.0537503
0.0883165
0.0601262
0.107941
0.065898
0.0438882
0.0672957
-0.0422731
0.0640497
-0.049951
0.0568286
-0.0494793
0.0511805
-0.0965551
0.0490599
-0.0928614
0.0472047
0.0129383
0.0482263
0.0944795
0.0512256
0.127041
0.0547896
0.0508949
0.0549588
-0.0302966
0.0521454
-0.0756221
0.0497546
-0.0847474
0.0431694
-0.0375714
0.040085
-0.0631935
-0.0439769
0.068501
0.0114517
0.0686418
-0.00523417
0.0652641
-0.0143946
0.0589302
-0.0303728
0.0566013
-0.0305349
0.054537
-0.0104106
0.0488899
-0.0143121
0.0430037
-0.0303174
0.0435783
-0.0209827
0.050757
0.0294145
0.0597069
0.0793665
0.0687069
0.0989414
0.0747297
0.0378654
0.0737044
-0.0412478
0.0697259
-0.0459724
0.0623447
-0.0420982
0.0553826
-0.089593
0.0535571
-0.0910359
0.0516219
0.0148735
0.052512
0.0935894
0.0566707
0.122883
0.0607115
0.0468541
0.0603613
-0.0299464
0.056872
-0.0721328
0.0542412
-0.0821165
0.047874
-0.0312042
0.0445507
-0.0598702
-0.0473626
0.0718573
0.00956
0.0711141
-0.00449097
0.0682863
-0.0115669
0.0614493
-0.0235358
0.0579208
-0.0270064
0.0579034
-0.0103932
0.0548202
-0.0112289
0.0493752
-0.0248725
0.048997
-0.0206045
0.0557327
0.0226788
0.0658628
0.0692364
0.0780035
0.0868007
0.0835373
0.0323316
0.0791363
-0.0368468
0.0733662
-0.0402024
0.0661746
-0.0349066
0.0586276
-0.082046
0.0567174
-0.0891257
0.0553033
0.0162876
0.0567307
0.092162
0.0625233
0.11709
0.0671593
0.0422181
0.0658827
-0.0286697
0.0615976
-0.0678477
0.058398
-0.078917
0.0524
-0.0252062
0.0492541
-0.0567243
-0.0498911
0.0752853
0.00786338
0.0743194
-0.0035251
0.0737528
-0.0110003
0.0688269
-0.0186099
0.0642889
-0.0224684
0.0640426
-0.0101469
0.0616411
-0.00882736
0.0562553
-0.0194867
0.0540031
-0.0183523
0.0586876
0.0179943
0.070895
0.0570289
0.0861864
0.0715094
0.089869
0.028649
0.0829422
-0.02992
0.0780283
-0.0352885
0.0721705
-0.0290487
0.0630854
-0.072961
0.0598808
-0.085921
0.0585375
0.0176309
0.0609048
0.0897946
0.0688461
0.109149
0.0741161
0.0369481
0.0720462
-0.0265998
0.0669104
-0.0627119
0.0632197
-0.0752262
0.0578662
-0.0198528
0.0547525
-0.0536106
-0.0514048
0.0797223
0.00572097
0.0781971
-0.00199991
0.0746907
-0.00749382
0.0686769
-0.0125961
0.0644244
-0.0182159
0.0649437
-0.0106662
0.0643619
-0.0082456
0.0600144
-0.0151392
0.0560425
-0.0143804
0.0584376
0.0155992
0.0723985
0.043068
0.090301
0.0536069
0.0941894
0.0247606
0.0856073
-0.0213379
0.0789829
-0.0286641
0.0740324
-0.0240982
0.0649524
-0.063881
0.0605735
-0.0815421
0.0598434
0.018361
0.0644458
0.0851923
0.0750251
0.0985696
0.0807774
0.0311958
0.0780739
-0.0238963
0.0720491
-0.0566871
0.0671277
-0.0703048
0.0621437
-0.0148688
0.0598259
-0.0512928
-0.0523295
0.0822866
0.00436816
0.0812265
-0.000939836
0.0803188
-0.00658613
0.0776993
-0.00997661
0.072997
-0.0135136
0.0716559
-0.00932505
0.0705492
-0.00713894
0.0660244
-0.0106144
0.061385
-0.00974098
0.0624833
0.0145009
0.0755855
0.0299658
0.0915644
0.037628
0.0942973
0.0220277
0.087091
-0.0141316
0.0826574
-0.0242304
0.0801502
-0.021591
0.0702207
-0.0539515
0.061519
-0.0728404
0.059768
0.020112
0.0678691
0.0770912
0.0815842
0.0848544
0.0876121
0.0251679
0.0842356
-0.0205198
0.0777381
-0.0501896
0.072926
-0.0654927
0.0684603
-0.0104031
0.0657011
-0.0485336
-0.0521721
0.0861491
0.00334919
0.0846143
0.000594914
0.0829293
-0.00490117
0.0805526
-0.00759985
0.0770465
-0.0100075
0.075904
-0.00818251
0.0750027
-0.00623768
0.071527
-0.00713869
0.0684611
-0.00667505
0.0702797
0.0126823
0.0798383
0.0204071
0.0908652
0.0266012
0.0945538
0.018339
0.0908469
-0.0104247
0.0856643
-0.0190478
0.0824872
-0.0184139
0.0724991
-0.0439634
0.0601462
-0.0604875
0.057672
0.0225861
0.0709717
0.0637915
0.0878337
0.0679924
0.0936732
0.0193285
0.0897296
-0.0165762
0.0823197
-0.0427797
0.0769168
-0.0600899
0.0731144
-0.0066007
0.0704579
-0.0458771
-0.0513301
0.0898394
0.00221379
0.0894412
0.000993109
0.0884664
-0.00392645
0.086283
-0.00541639
0.0832557
-0.00698028
0.0818563
-0.0067831
0.080527
-0.00490841
0.0779026
-0.00451424
0.0762622
-0.00503471
0.0779331
0.0110114
0.0842189
0.0141213
0.0921453
0.0186747
0.0956462
0.0148382
0.0926672
-0.0074458
0.0893349
-0.0157155
0.0892303
-0.0183093
0.0810689
-0.0358019
0.0662044
-0.045623
0.0625484
0.0262421
0.0778196
0.0485202
0.0942267
0.0515854
0.0987368
0.0148183
0.0944468
-0.0122862
0.0879534
-0.0362862
0.0835636
-0.0557001
0.0798625
-0.00289957
0.0760324
-0.042047
-0.0492334
0.0945771
0.0013358
0.0939688
0.0016014
0.0930333
-0.00299098
0.0914329
-0.00381596
0.0892799
-0.00482731
0.0879746
-0.00547776
0.0867882
-0.00372203
0.0848769
-0.00260297
0.0837478
-0.00390555
0.0851731
0.0095861
0.0896244
0.00966997
0.0955314
0.0127678
0.0990169
0.0113527
0.0977386
-0.00616741
0.0938815
-0.0118584
0.0902793
-0.0147071
0.0815164
-0.027039
0.0711735
-0.0352801
0.072144
0.0252715
0.0865341
0.0341301
0.0996669
0.0384527
0.103214
0.0112711
0.09949
-0.00856211
0.0931524
-0.0299486
0.0886712
-0.0512189
0.0850953
0.000676287
0.0813174
-0.0382691
-0.0462545
0.0994258
0.000727818
0.0994593
0.00156792
0.0985623
-0.00209399
0.0973509
-0.00260453
0.0957814
-0.0032578
0.0942991
-0.00399549
0.0935348
-0.0029577
0.0918911
-0.000959259
0.0911484
-0.00316286
0.0929673
0.00776722
0.0959791
0.00665812
0.100059
0.00868781
0.103076
0.00833585
0.102041
-0.00513233
0.0995528
-0.00937043
0.0976381
-0.0127924
0.0894817
-0.0188825
0.0813345
-0.0271329
0.0838372
0.0227689
0.0952146
0.0227527
0.104424
0.0292435
0.106695
0.00900029
0.103214
-0.00508183
0.0988175
-0.0255518
0.0963616
-0.048763
0.093465
0.00357282
0.0893467
-0.0341507
-0.0422518
0.105212
0.000278709
0.105205
0.00157496
0.104442
-0.00133112
0.103645
-0.00180704
0.102349
-0.0019621
0.101186
-0.00283267
0.100701
-0.00247277
0.0993761
0.000365845
0.0991387
-0.00292543
0.100522
0.00638393
0.102566
0.00461443
0.106105
0.00514887
0.108155
0.00628495
0.107221
-0.00419763
0.105177
-0.0073263
0.102656
-0.0102715
0.0962759
-0.0125026
0.0916405
-0.0224975
0.0932655
0.0211438
0.101468
0.0145505
0.109545
0.0211664
0.11298
0.00556485
0.109751
-0.0018522
0.103693
-0.019494
0.0999693
-0.0450394
0.0981999
0.00534224
0.0961808
-0.0321316
-0.0380706
0.111512
-0.000112166
0.111518
0.00156962
0.110975
-0.000788294
0.110451
-0.00128319
0.109423
-0.000934348
0.108602
-0.00201123
0.108156
-0.00202653
0.107149
0.00137225
0.107238
-0.00301427
0.108228
0.00539437
0.109877
0.00296516
0.112312
0.00271374
0.113576
0.00502089
0.113382
-0.00400341
0.11161
-0.00555467
0.109557
-0.00821816
0.104089
-0.00703439
0.101135
-0.0195437
0.102634
0.0196452
0.10922
0.00796381
0.113905
0.0164819
0.116659
0.002811
0.116605
-0.00179859
0.112067
-0.0149564
0.108366
-0.0413377
0.106351
0.00735706
0.103437
-0.0292174
-0.0337918
0.118332
-0.000231378
0.118547
0.00135475
0.11808
-0.000321423
0.117673
-0.000875707
0.117186
-0.000447512
0.116173
-0.000998191
0.116106
-0.00195929
0.115461
0.00201683
0.115269
-0.00282219
0.116461
0.00420211
0.117384
0.00204209
0.11903
0.00106798
0.120425
0.00362577
0.119848
-0.00342641
0.117983
-0.00368886
0.117232
-0.00746809
0.112299
-0.00210082
0.110431
-0.0176757
0.111545
0.0185315
0.117285
0.00222317
0.120776
0.0129911
0.122898
0.000689119
0.122208
-0.00110819
0.116949
-0.00969778
0.11526
-0.0396485
0.113131
0.00948583
0.107934
-0.0240206
-0.0282944
0.12594
-0.000324435
0.126159
0.00113569
0.125793
4.45931e-05
0.12556
-0.000643197
0.12522
-0.000107799
0.124459
-0.000237015
0.124527
-0.00202689
0.123926
0.00261749
0.123973
-0.00286887
0.124859
0.00331647
0.125407
0.00149326
0.126774
-0.000298678
0.127492
0.00290813
0.126988
-0.00292237
0.125911
-0.00261179
0.125319
-0.0068767
0.120577
0.00264106
0.12081
-0.0179083
0.121345
0.0179967
0.124862
-0.00129423
0.127798
0.0100553
0.129765
-0.0012786
0.130051
-0.0013937
0.124695
-0.00434146
0.123248
-0.0382014
0.122058
0.0106752
0.117896
-0.0198587
-0.0226667
0.134176
-0.000270048
0.134454
0.000857859
0.134201
0.000298007
0.133969
-0.000411183
0.133907
-4.62949e-05
0.133219
0.000451065
0.13336
-0.0021678
0.133001
0.00297691
0.133012
-0.00288012
0.133654
0.00267414
0.134166
0.00098159
0.134812
-0.000944837
0.135559
0.00216166
0.135214
-0.00257741
0.13383
-0.00122864
0.134056
-0.00710193
0.130373
0.00632408
0.130653
-0.0181881
0.130474
0.0181748
0.134664
-0.00548424
0.135517
0.00920233
0.136321
-0.00208238
0.138434
-0.00350677
0.13258
0.00151286
0.131039
-0.0366607
0.130618
0.0110965
0.12632
-0.0155605
-0.0166463
0.143242
-0.000268539
0.14322
0.000879923
0.14348
3.87341e-05
0.142882
0.000186201
0.143187
-0.000351199
0.142669
0.000969309
0.14254
-0.00203874
0.14277
0.00274679
0.142352
-0.00246197
0.143041
0.00198496
0.143417
0.000605471
0.143611
-0.00113823
0.144396
0.00137583
0.143681
-0.0018619
0.143204
-0.000752043
0.143108
-0.00700599
0.139892
0.00954047
0.141727
-0.0200237
0.139614
0.020288
0.143317
-0.00918702
0.144743
0.00777663
0.143463
-0.000802686
0.146438
-0.00648164
0.141254
0.00669685
0.139976
-0.0353832
0.139254
0.0118193
0.13488
-0.0111873
-0.010879
0.153089
-0.000542791
0.152755
0.0012148
0.153218
-0.000424644
0.152767
0.000636975
0.152747
-0.000331035
0.152939
0.000777131
0.15225
-0.00134912
0.152792
0.00220412
0.152714
-0.00238368
0.152423
0.00227595
0.153647
-0.0006182
0.153191
-0.000682683
0.153269
0.00129839
0.154144
-0.00273767
0.152176
0.00121581
0.152862
-0.00769148
0.150792
0.0116101
0.152098
-0.0213291
0.1492
0.0231856
0.153118
-0.0131052
0.155491
0.0054044
0.149885
0.00480315
0.155508
-0.0121047
0.152535
0.00966928
0.148118
-0.0309655
0.14636
0.0135766
0.143525
-0.00835199
-0.00662392
0.163446
-0.000757172
0.163387
0.0012742
0.163334
-0.000372356
0.163611
0.000360621
0.162955
0.00032455
0.163656
7.61322e-05
0.162936
-0.000629114
0.163143
0.00199682
0.163674
-0.00291393
0.162782
0.00316731
0.163927
-0.00176257
0.164059
-0.000815389
0.162676
0.00268202
0.164888
-0.00495038
0.162641
0.00346373
0.162386
-0.00743674
0.162917
0.0110785
0.163171
-0.0215826
0.159082
0.0272748
0.165605
-0.0196286
0.165713
0.00529694
0.156829
0.013687
0.168803
-0.0240792
0.162697
0.0157752
0.154273
-0.022541
0.157486
0.0103636
0.15531
-0.00617667
-0.000934095
0.174439
-0.000581085
0.174803
0.000910434
0.174428
2.39657e-06
0.174817
-2.79085e-05
0.174437
0.000704397
0.174689
-0.000175927
0.174476
-0.000416361
0.174628
0.00184493
0.174467
-0.00275285
0.174944
0.00269009
0.174259
-0.00107754
0.175527
-0.00208289
0.174106
0.00410278
0.174965
-0.00580922
0.174979
0.00344887
0.173067
-0.00552413
0.174549
0.00959649
0.175421
-0.0224543
0.170454
0.0322416
0.176854
-0.0260283
0.178036
0.00411432
0.165772
0.0259513
0.180365
-0.0386719
0.173944
0.0221962
0.160542
-0.00913907
0.169734
0.00117076
0.168486
-0.00492787
0.00688512
0.186402
-0.000257372
0.186782
0.00053064
0.186571
0.000213202
0.186641
-9.69377e-05
0.186728
0.000616857
0.186643
-9.04622e-05
0.186489
-0.000262379
0.187124
0.00120927
0.185969
-0.00159767
0.187539
0.00111977
0.186126
0.000335876
0.18705
-0.00300654
0.186988
0.0041646
0.186388
-0.00520974
0.186842
0.00299527
0.186607
-0.00528965
0.185904
0.0103002
0.187054
-0.0236051
0.187011
0.0322847
0.186136
-0.0251529
0.191521
-0.00127027
0.182249
0.0352232
0.188812
-0.0452357
0.188678
0.022331
0.174866
0.00467297
0.182267
-0.00623079
0.182956
-0.00561713
0.0138411
0.19933
-3.87461e-05
0.199552
0.000308685
0.199512
0.000253425
0.199459
-4.45116e-05
0.199606
0.000470579
0.199601
-8.54525e-05
0.199286
5.28536e-05
0.200117
0.000377718
0.19888
-0.000360238
0.200248
-0.000248101
0.199382
0.00120146
0.199508
-0.00313282
0.200078
0.00359452
0.199557
-0.00468798
0.199092
0.00345947
0.200154
-0.00635125
0.200053
0.0104009
0.197198
-0.0207497
0.204901
0.0245812
0.196965
-0.0172165
0.201771
-0.00607649
0.203184
0.0338099
0.198126
-0.0401768
0.201596
0.0188605
0.196122
0.010147
0.197057
-0.00716545
0.196604
-0.00516486
0.0174889
0.213147
6.89408e-05
0.213262
0.000193473
0.213279
0.000236539
0.213239
-4.06195e-06
0.213335
0.000374626
0.213373
-0.000123815
0.213147
0.000279467
0.213682
-0.000157459
0.212999
0.000322975
0.213649
-0.000898717
0.213443
0.00140731
0.213126
-0.00281541
0.21376
0.00295994
0.21332
-0.0042471
0.213086
0.0036935
0.213175
-0.00644096
0.215141
0.00843546
0.208899
-0.0145083
0.218632
0.0148488
0.20985
-0.00843443
0.211295
-0.0075213
0.220198
0.0249063
0.208172
-0.0281511
0.212418
0.0146154
0.214671
0.00789321
0.210445
-0.00293904
0.207797
-0.00251696
0.0176265
0.227884
0.000115435
0.227956
0.00012067
0.227969
0.000224051
0.227976
-1.13788e-05
0.228015
0.000335745
0.228064
-0.000172937
0.22796
0.000383444
0.228199
-0.000395878
0.227958
0.00056328
0.228107
-0.00104724
0.228245
0.00126972
0.227753
-0.002324
0.228391
0.00232163
0.227724
-0.00357986
0.228159
0.00325834
0.227083
-0.00536437
0.229531
0.00598719
0.223898
-0.00887487
0.230692
0.00805402
0.225605
-0.00334667
0.224169
-0.00608567
0.233337
0.0157381
0.221969
-0.0167832
0.225646
0.0109382
0.229305
0.00423448
0.224643
0.00172325
0.221194
0.000932473
0.0161533
0.24362
0.000126928
0.243666
7.49466e-05
0.243686
0.000203891
0.243697
-2.2457e-05
0.243739
0.000293783
0.243749
-0.000182573
0.243751
0.000381379
0.243792
-0.000437082
0.243791
0.000564751
0.243695
-0.000951471
0.243942
0.0010222
0.24343
-0.00181174
0.244023
0.00172843
0.24321
-0.002766
0.243962
0.0025063
0.242502
-0.00390485
0.244544
0.00394573
0.240772
-0.00510291
0.244621
0.00420408
0.242489
-0.00121396
0.240172
-0.00376893
0.246405
0.00950529
0.239011
-0.00938891
0.241536
0.00841253
0.243526
0.00224479
0.241064
0.00418493
0.238642
0.00335486
0.0144776
0.260432
0.000121667
0.260463
4.38641e-05
0.260489
0.000178331
0.260498
-3.14929e-05
0.260543
0.000248526
0.260528
-0.000167635
0.26058
0.000329333
0.260532
-0.000388959
0.260621
0.000476016
0.260439
-0.000769546
0.260693
0.000767912
0.260222
-0.0013408
0.260725
0.00122608
0.259947
-0.00198847
0.26068
0.00177342
0.259405
-0.00263001
0.260846
0.00250454
0.258645
-0.0029014
0.260601
0.00224819
0.259731
-0.000344558
0.257955
-0.00199315
0.261721
0.00573943
0.257201
-0.00486849
0.259401
0.00621247
0.259985
0.00166052
0.259297
0.00487315
0.258308
0.00434351
0.0125429
0.278405
0.000102271
0.278423
2.53387e-05
0.278459
0.000142906
0.278458
-3.03606e-05
0.278512
0.000193938
0.27848
-0.0001352
0.278554
0.000255487
0.278468
-0.000302945
0.278585
0.000358906
0.278382
-0.0005672
0.27861
0.000539947
0.278202
-0.000932737
0.278604
0.000824678
0.27795
-0.00133442
0.278553
0.00116969
0.277588
-0.00166503
0.278563
0.00152986
0.277275
-0.00161337
0.278272
0.00125076
0.277938
-1.0493e-05
0.276812
-0.000866828
0.279161
0.00339004
0.276456
-0.00216311
0.278391
0.00427749
0.278505
0.00154633
0.278916
0.00446187
0.279099
0.00416087
0.0101239
0.297622
7.39153e-05
0.297634
1.34933e-05
0.297677
0.000100277
0.29767
-2.38269e-05
0.297731
0.000132963
0.29769
-9.36e-05
0.297772
0.00017297
0.297673
-0.000204054
0.297795
0.000236998
0.297596
-0.000368487
0.297795
0.000341171
0.297446
-0.000583293
0.297766
0.000504275
0.297241
-0.000809393
0.29771
0.000700879
0.297013
-0.000968161
0.297664
0.000878846
0.296904
-0.000853671
0.297446
0.000708946
0.297368
6.78567e-05
0.296752
-0.000250613
0.298272
0.00187008
0.296828
-0.000719455
0.298444
0.00266091
0.298701
0.00129028
0.299759
0.00340337
0.300737
0.00318306
0.00717264
0.318194
3.93516e-05
0.318201
6.16679e-06
0.318249
5.20771e-05
0.318238
-1.29459e-05
0.318303
6.81811e-05
0.318258
-4.84842e-05
0.318343
8.78866e-05
0.318242
-0.000103015
0.31836
0.00011892
0.318174
-0.000181936
0.318348
0.000166561
0.318046
-0.000281339
0.31831
0.00024044
0.317884
-0.000383216
0.318256
0.000329069
0.317733
-0.000445699
0.318206
0.000406323
0.317722
-0.00036993
0.318095
0.000336299
0.318115
4.77197e-05
0.317879
-1.51995e-05
0.318919
0.000830684
0.318334
-0.000134945
0.319706
0.00128954
0.320246
0.000749684
0.321774
0.00187522
0.323231
0.00172662
0.00376253
0.340223
0.34023
0.340282
0.340269
0.340337
0.340288
0.340376
0.340273
0.340392
0.34021
0.340377
0.340095
0.340336
0.339953
0.340282
0.339836
0.340242
0.339872
0.340209
0.340257
0.340241
0.341072
0.340937
0.342227
0.342976
0.344851
0.346578
)
;

boundaryField
{
    outlet
    {
        type            calculated;
        value           nonuniform List<scalar> 
40
(
0.0263065
0.0244423
0.0231205
0.0225763
0.0232341
0.025186
0.0282522
0.0322805
0.0370538
0.0416559
0.0401676
0.0442068
0.0479364
0.0517826
0.0562662
0.0607506
0.0655436
0.0696159
0.0739358
0.0783384
0.085344
0.0919996
0.0991578
0.102437
0.112269
0.120299
0.129113
0.13927
0.149621
0.160666
0.176001
0.192957
0.207659
0.222667
0.240317
0.260243
0.281518
0.303688
0.326641
0.350341
)
;
    }
    upperWall
    {
        type            symmetryPlane;
        value           uniform 0;
    }
    lowerWall
    {
        type            symmetryPlane;
        value           nonuniform 0();
    }
    inlet
    {
        type            calculated;
        value           nonuniform 0();
    }
    cylinder
    {
        type            calculated;
        value           nonuniform 0();
    }
    frontAndBack
    {
        type            empty;
        value           nonuniform 0();
    }
    procBoundary7to3
    {
        type            processor;
        value           nonuniform List<scalar> 
30
(
-0.0199537
0.0283455
0.0681574
0.0890328
0.0946624
0.0980433
0.0957238
0.0707051
0.0251039
-0.0279371
-0.0612443
-0.0940108
-0.109438
-0.101192
-0.0484864
0.00664327
0.0582752
0.118668
0.118805
0.0602766
-0.0258605
-0.0723783
-0.103082
-0.0786702
0.00106324
0.0561625
0.0979407
0.19215
0.146369
-0.014821
)
;
    }
    procBoundary7to6
    {
        type            processor;
        value           nonuniform List<scalar> 
42
(
-0.0305278
-0.0409228
-0.0536968
-0.0671937
-0.0795453
-0.0877275
0.048283
-0.0883922
-0.0891068
-0.0907879
-0.0826144
0.0375212
-0.0685528
-0.0696065
-0.0687015
-0.0699655
-0.0735886
-0.0775799
-0.0809338
-0.0851301
-0.088704
-0.0936991
-0.0988179
-0.104763
-0.111122
-0.118213
-0.125847
-0.134231
-0.143244
-0.152815
-0.163232
-0.174615
-0.186726
-0.199549
-0.213255
-0.22793
-0.243632
-0.260427
-0.278385
-0.297594
-0.318159
-0.340184
)
;
    }
}


// ************************************************************************* //
