/*--------------------------------*- C++ -*----------------------------------*\
| =========                 |                                                 |
| \\      /  F ield         | OpenFOAM: The Open Source CFD Toolbox           |
|  \\    /   O peration     | Version:                                        |
|   \\  /    A nd           | Website:  www.openfoam.com                      |
|    \\/     M anipulation  |                                                 |
\*---------------------------------------------------------------------------*/
FoamFile
{
    version     2.0;
    format      ascii;
    class       volVectorField;
    location    "176.2";
    object      U;
}
// * * * * * * * * * * * * * * * * * * * * * * * * * * * * * * * * * * * * * //

dimensions      [0 1 -1 0 0 0 0];


internalField   nonuniform List<vector> 
1136
(
(0.542478 0.627566 3.10168e-22)
(0.486647 0.166474 1.93743e-21)
(0.504675 -0.277117 -3.4956e-21)
(0.57356 -0.690625 -6.90904e-23)
(0.55569 -0.740122 2.53861e-21)
(0.657729 -0.85293 -1.26889e-21)
(0.554944 -0.787171 4.64233e-22)
(0.410741 -0.637902 -1.77734e-21)
(0.410405 -0.553866 1.29641e-21)
(0.505658 0.0705998 4.93223e-22)
(0.488004 0.273704 -1.84455e-21)
(0.668902 0.560085 2.00022e-21)
(0.623286 0.790484 -9.48317e-22)
(0.552412 0.549877 1.05505e-21)
(0.553495 0.592779 -8.17521e-22)
(0.757911 0.0797201 -2.38459e-23)
(0.752783 -0.33369 -2.59508e-22)
(0.788166 -0.449998 4.63536e-22)
(0.823845 -0.863165 4.68021e-22)
(0.80053 -0.477935 -3.12672e-22)
(0.853705 -0.0447077 -1.94967e-22)
(0.919963 0.226098 -9.04091e-23)
(1.0007 0.839699 -4.14527e-22)
(0.941982 0.547695 3.76867e-24)
(0.975025 0.063375 -3.38258e-23)
(1.01487 -0.213271 -1.51929e-23)
(1.11303 -0.837887 -2.21518e-22)
(1.02119 -0.40571 4.36148e-22)
(1.07469 0.499069 9.32252e-23)
(0.999998 0.317681 -2.43579e-23)
(0.642096 0.671345 1.63921e-20)
(0.664152 0.181182 -2.80321e-20)
(0.639468 -0.289991 9.66467e-21)
(0.714906 -0.711216 -5.50225e-21)
(0.627933 -0.770749 8.06521e-22)
(0.734118 -0.834528 6.86956e-21)
(0.573941 -0.755509 -7.84567e-21)
(0.456125 -0.609374 -1.46996e-22)
(0.409279 -0.565583 6.11243e-21)
(0.454399 0.0608286 -2.10192e-21)
(0.489535 0.219992 -2.30132e-22)
(0.63262 0.527013 -5.65007e-22)
(0.607619 0.805276 -1.44406e-21)
(0.545416 0.553329 -4.50306e-21)
(0.536054 0.541388 4.14811e-21)
(0.786207 0.0370774 5.84868e-23)
(0.783714 -0.349784 7.73787e-23)
(0.834378 -0.452409 1.13675e-21)
(0.873241 -0.847273 -3.38247e-21)
(0.806595 -0.485784 1.16695e-21)
(0.856916 -0.0701664 3.31424e-22)
(0.894662 0.209262 1.20477e-22)
(0.956575 0.844917 -2.82953e-22)
(0.924675 0.547742 -1.36242e-22)
(0.98132 0.0569765 1.44972e-21)
(1.031 -0.23328 -6.9334e-22)
(1.13783 -0.835854 6.23138e-22)
(1.04281 -0.401712 -3.07525e-23)
(1.06507 0.498589 1.70402e-22)
(0.994166 0.317817 5.35697e-23)
(0.783606 0.701301 -2.6114e-20)
(0.854779 0.21732 2.28168e-20)
(0.798282 -0.268648 -6.77574e-21)
(0.864252 -0.695703 6.36845e-21)
(0.725175 -0.80626 1.43256e-20)
(0.809372 -0.832076 -1.93167e-21)
(0.607064 -0.710333 -1.77489e-20)
(0.525132 -0.572326 4.01075e-22)
(0.439837 -0.584898 -2.05959e-22)
(0.452278 0.0163417 5.5332e-21)
(0.520052 0.183718 5.2436e-21)
(0.592275 0.527283 -1.24883e-21)
(0.642146 0.821346 -1.41214e-21)
(0.592212 0.581252 -8.35501e-21)
(0.54785 0.52218 1.68049e-21)
(0.821885 0.0245473 1.31769e-20)
(0.817004 -0.364159 -1.17508e-20)
(0.869276 -0.473546 2.32156e-21)
(0.91173 -0.852466 7.98501e-22)
(0.807448 -0.486447 3.03779e-21)
(0.854052 -0.0723769 -3.15464e-21)
(0.874156 0.196239 1.64459e-21)
(0.924927 0.83356 1.70652e-21)
(0.914876 0.538869 1.56514e-21)
(0.992343 0.0516066 -1.65088e-21)
(1.04907 -0.249869 -4.34388e-22)
(1.15339 -0.835636 7.44526e-23)
(1.05929 -0.391252 -1.62783e-21)
(1.05187 0.503725 3.18135e-22)
(0.986157 0.32083 -3.41406e-23)
(0.91206 0.757026 -1.25551e-21)
(1.02498 0.267573 5.58448e-20)
(0.988273 -0.241907 -1.29962e-20)
(1.01837 -0.660007 -1.90724e-20)
(0.851442 -0.790802 7.39525e-21)
(0.900777 -0.791759 -2.47906e-22)
(0.660082 -0.674117 1.08151e-20)
(0.588579 -0.534133 -4.26073e-21)
(0.483347 -0.577815 -1.3685e-21)
(0.453027 -0.0050413 -6.60125e-21)
(0.563513 0.147757 -2.94888e-21)
(0.590693 0.461905 1.68275e-20)
(0.651417 0.828428 -1.15131e-20)
(0.604162 0.614088 2.76012e-21)
(0.556058 0.48131 -1.38811e-21)
(0.861481 -0.00823359 -3.08505e-21)
(0.871759 -0.371327 1.11898e-20)
(0.915542 -0.474794 -2.83558e-21)
(0.959106 -0.831605 -3.14899e-21)
(0.820489 -0.497472 2.73462e-21)
(0.861661 -0.0995462 -4.88765e-21)
(0.850082 0.184003 7.30851e-21)
(0.879632 0.83079 -7.42028e-21)
(0.895049 0.532704 3.34068e-22)
(0.999898 0.0450256 1.65823e-21)
(1.06826 -0.268651 -2.84982e-22)
(1.16493 -0.832935 1.84454e-21)
(1.07466 -0.38118 1.64053e-21)
(1.0378 0.504825 -6.15852e-22)
(0.975062 0.319808 -1.23082e-22)
(1.06435 0.789081 -2.39636e-20)
(1.17704 0.327873 4.01414e-20)
(1.17209 -0.172611 -6.27905e-22)
(1.16889 -0.577927 -5.87578e-20)
(0.995561 -0.773557 1.78067e-20)
(0.969344 -0.758508 9.18378e-21)
(0.733718 -0.6266 -5.7086e-21)
(0.641853 -0.493478 -5.25517e-21)
(0.555687 -0.58241 -6.16605e-21)
(0.486437 -0.0685389 9.83476e-21)
(0.636678 0.114061 -7.81187e-21)
(0.576387 0.45275 -5.68237e-22)
(0.672955 0.846229 -6.42168e-21)
(0.677982 0.630397 1.37492e-20)
(0.607934 0.456888 -1.37767e-20)
(0.907413 -0.0249384 -7.69663e-21)
(0.922811 -0.385099 6.31349e-21)
(0.944767 -0.486816 7.15618e-21)
(0.996842 -0.824131 6.33778e-22)
(0.825077 -0.488381 2.80846e-22)
(0.859256 -0.0950923 3.19986e-21)
(0.831928 0.178121 -5.19983e-21)
(0.846125 0.81728 4.26785e-21)
(0.882805 0.515802 2.78184e-21)
(1.00996 0.0351438 -2.35964e-21)
(1.08501 -0.28577 -4.89067e-22)
(1.16592 -0.830616 -2.63932e-21)
(1.07969 -0.363406 -3.31854e-21)
(1.01912 0.513068 3.35596e-22)
(0.961251 0.321504 2.16959e-22)
(1.19769 0.810826 -1.88782e-19)
(1.29198 0.399658 4.37897e-20)
(1.32979 -0.105468 1.48434e-19)
(1.3073 -0.49605 -1.37211e-19)
(1.14342 -0.698294 5.72109e-20)
(1.02151 -0.694539 -3.62028e-21)
(0.848659 -0.580057 -5.12854e-22)
(0.685148 -0.461971 -6.22721e-21)
(0.64438 -0.565306 -2.61361e-21)
(0.518398 -0.124481 3.81211e-21)
(0.688299 0.0904857 2.6549e-21)
(0.591547 0.378205 5.52227e-21)
(0.699498 0.812208 -7.01571e-21)
(0.698384 0.685371 -8.30694e-21)
(0.650468 0.442794 7.12166e-21)
(0.961408 -0.0387156 -2.98369e-21)
(0.998808 -0.381297 -1.0307e-20)
(0.992956 -0.484057 1.42194e-20)
(1.04337 -0.798826 -5.84397e-22)
(0.843854 -0.500426 -8.33271e-21)
(0.867369 -0.120365 -1.92536e-21)
(0.817144 0.166696 3.71359e-21)
(0.806481 0.805793 -1.51935e-21)
(0.862724 0.505411 2.6236e-21)
(1.01665 0.027452 -4.19786e-21)
(1.09986 -0.30068 3.7249e-21)
(1.16245 -0.824633 -9.71484e-22)
(1.08195 -0.350712 4.55124e-21)
(0.997081 0.516881 -1.32247e-21)
(0.944171 0.31955 -1.08439e-22)
(1.39579 0.463731 -3.3048e-20)
(1.45596 0.00501269 8.59895e-20)
(1.42776 -0.366751 -4.60043e-20)
(1.26211 -0.603196 -2.62038e-20)
(1.06666 -0.641804 -1.45798e-20)
(0.96191 -0.524402 1.08314e-20)
(0.707428 -0.407408 4.69679e-21)
(0.713984 -0.536979 -7.06716e-21)
(0.503204 -0.181531 -3.50385e-21)
(0.743632 0.051216 3.27712e-21)
(0.655037 0.35833 -1.61903e-21)
(0.708009 0.825191 -1.82043e-21)
(0.772679 0.681833 -7.73866e-21)
(0.749326 0.400553 -5.11483e-21)
(1.02059 -0.059779 1.70304e-20)
(1.06419 -0.387225 -1.69665e-21)
(1.02546 -0.480309 1.00997e-20)
(1.08064 -0.782027 -1.19724e-20)
(0.850889 -0.480482 8.05052e-21)
(0.866778 -0.115294 -4.70131e-21)
(0.798283 0.171796 2.80458e-21)
(0.77756 0.795966 -3.61142e-21)
(0.854091 0.483676 1.60719e-22)
(1.02782 0.0140313 2.19677e-21)
(1.11089 -0.315591 -2.20297e-21)
(1.15123 -0.820048 -1.59569e-21)
(1.07013 -0.328538 1.94383e-21)
(0.969128 0.525761 1.84899e-22)
(0.925116 0.319293 3.05856e-22)
(1.43487 0.493777 2.35086e-20)
(1.50547 0.0751808 2.96053e-20)
(1.51773 -0.274391 -2.93939e-20)
(1.35753 -0.487344 -3.46832e-21)
(1.11448 -0.573533 -2.19239e-20)
(1.04094 -0.480091 -7.44512e-22)
(0.776763 -0.360768 -7.66347e-21)
(0.768001 -0.500759 5.91805e-21)
(0.536011 -0.244459 5.6795e-22)
(0.775787 -0.0106922 2.39994e-21)
(0.715585 0.282369 2.61122e-21)
(0.735877 0.759214 5.76311e-22)
(0.793461 0.744418 1.16449e-20)
(0.802512 0.428523 -1.38252e-20)
(1.07617 -0.0455038 -1.5931e-20)
(1.13987 -0.364565 1.08871e-20)
(1.07098 -0.464992 4.82634e-21)
(1.11956 -0.758512 3.19596e-22)
(0.8768 -0.494546 -3.46221e-21)
(0.873447 -0.136237 -7.34949e-21)
(0.794438 0.156486 6.12679e-21)
(0.745342 0.776638 1.2298e-21)
(0.84114 0.470554 -1.43464e-22)
(1.0408 0.00578254 2.42508e-22)
(1.1209 -0.32241 2.44637e-21)
(1.1381 -0.809249 -2.26164e-21)
(1.05475 -0.311826 -1.5279e-21)
(0.937903 0.530734 -1.10566e-21)
(0.903355 0.316298 -1.86319e-22)
(1.47143 0.551574 -7.07937e-20)
(1.60724 0.160736 3.91519e-20)
(1.61491 -0.15554 4.64255e-20)
(1.41444 -0.346165 -2.20244e-20)
(1.15727 -0.491005 -9.15198e-21)
(1.07938 -0.438754 -1.63389e-20)
(0.84827 -0.302415 4.38254e-21)
(0.783825 -0.444486 -2.05283e-21)
(0.552266 -0.283393 -3.77568e-21)
(0.741588 -0.0725178 1.09964e-21)
(0.807558 0.248463 1.95085e-21)
(0.772739 0.761512 -3.9537e-21)
(0.848898 0.718045 3.8595e-21)
(0.908765 0.359458 1.8986e-20)
(1.14477 -0.0872616 -1.63902e-20)
(1.19487 -0.36732 -3.3366e-21)
(1.09021 -0.44928 3.18189e-21)
(1.13713 -0.724871 5.45195e-21)
(0.896557 -0.471543 -8.30409e-21)
(0.879795 -0.133103 4.06389e-21)
(0.786239 0.168476 1.5324e-21)
(0.721991 0.772715 2.46845e-22)
(0.845153 0.440152 -4.49731e-21)
(1.06426 -0.0111132 1.57192e-21)
(1.12562 -0.332091 4.71272e-22)
(1.11977 -0.801129 -1.48127e-21)
(1.02678 -0.288049 2.24558e-21)
(0.896836 0.539534 -4.3804e-23)
(0.880114 0.3134 -2.88594e-23)
(1.39859 0.563521 4.39072e-20)
(1.51114 0.243445 -4.78785e-20)
(1.50759 -0.0075446 2.96465e-20)
(1.38629 -0.196401 2.0805e-20)
(1.18042 -0.399257 -1.69067e-21)
(1.1219 -0.406877 -1.57156e-20)
(0.9303 -0.249229 1.49406e-21)
(0.833768 -0.375606 -4.1913e-21)
(0.63864 -0.308969 -5.85778e-22)
(0.721335 -0.169684 -2.10524e-21)
(0.8676 0.115952 2.05264e-21)
(0.807943 0.685217 -1.45326e-20)
(0.889714 0.776768 -1.27857e-20)
(0.929931 0.445981 -1.06361e-20)
(1.1836 -0.0367886 2.18535e-20)
(1.2587 -0.319338 7.68386e-21)
(1.12337 -0.419631 6.1601e-21)
(1.15615 -0.688556 -2.25579e-21)
(0.939902 -0.468517 -3.7489e-21)
(0.88558 -0.151068 1.11958e-21)
(0.77807 0.148163 -1.87817e-21)
(0.70024 0.749079 6.64038e-21)
(0.837265 0.435949 -6.42548e-21)
(1.08892 -0.0112962 4.78748e-21)
(1.13031 -0.331598 4.80593e-22)
(1.10348 -0.788815 -2.57434e-21)
(0.995162 -0.267057 -7.33471e-22)
(0.853416 0.54397 1.27559e-21)
(0.85657 0.308407 1.90538e-22)
(1.49185 0.23099 0)
(1.48493 0.038037 0)
(1.43405 -0.0877101 0)
(1.21215 -0.280057 0)
(1.17577 -0.354922 0)
(1.02495 -0.198971 0)
(0.9212 -0.28979 0)
(0.722022 -0.287693 0)
(0.703357 -0.191496 0)
(0.86583 0.0625232 0)
(0.877387 0.633574 0)
(0.931526 0.733891 0)
(1.02974 0.366212 0)
(1.27395 -0.087665 0)
(1.30529 -0.297592 0)
(1.14532 -0.36312 0)
(1.15111 -0.649645 0)
(0.976127 -0.445425 0)
(0.890986 -0.135862 0)
(0.775813 0.170339 0)
(0.683188 0.742445 0)
(0.86215 0.386139 0)
(1.12139 -0.0324832 0)
(1.13387 -0.337263 0)
(1.08306 -0.78037 0)
(0.957467 -0.241563 0)
(0.808119 0.551745 0)
(0.83461 0.30249 0)
(1.44544 0.229282 0)
(1.41051 0.0587856 0)
(1.38351 -0.0838271 0)
(1.16662 -0.277545 0)
(1.12631 -0.337256 0)
(0.968307 -0.150485 0)
(0.962001 -0.248672 0)
(0.777454 -0.243946 0)
(0.683617 -0.187452 0)
(0.874429 0.0114379 0)
(0.928739 0.605491 0)
(0.992987 0.688861 0)
(1.15348 0.325026 0)
(1.33825 -0.0980481 0)
(1.33699 -0.287763 0)
(1.16869 -0.365613 0)
(1.15049 -0.649025 0)
(0.976276 -0.415208 0)
(0.887523 -0.110246 0)
(0.771773 0.193532 0)
(0.672616 0.7358 0)
(0.89267 0.342582 0)
(1.14163 -0.0541408 0)
(1.13553 -0.34226 0)
(1.06153 -0.762186 0)
(0.920063 -0.203481 0)
(0.761383 0.564303 0)
(0.813509 0.295099 0)
(1.33582 0.216001 0)
(1.30561 0.0665671 0)
(1.33911 -0.015866 0)
(1.18102 -0.172168 0)
(1.13315 -0.291379 0)
(1.03014 -0.125283 0)
(1.03959 -0.206643 0)
(0.88352 -0.213553 0)
(0.718094 -0.187271 0)
(0.888699 -0.0435966 0)
(0.963169 0.560234 0)
(1.06847 0.686579 0)
(1.25068 0.280376 0)
(1.39451 -0.135896 0)
(1.3657 -0.259854 0)
(1.18527 -0.309805 0)
(1.13513 -0.594802 0)
(0.983275 -0.380017 0)
(0.890931 -0.0841257 0)
(0.756115 0.218746 0)
(0.674153 0.711836 0)
(0.934107 0.29355 0)
(1.16228 -0.0730086 0)
(1.14076 -0.344528 0)
(1.03407 -0.739605 0)
(0.873515 -0.166209 0)
(0.708922 0.571633 0)
(0.793812 0.283364 0)
(1.21946 0.211931 0)
(1.22587 0.0871427 0)
(1.28156 -0.023061 0)
(1.17691 -0.167359 0)
(1.0818 -0.269075 0)
(0.999749 -0.0987467 0)
(1.0092 -0.180414 0)
(0.931915 -0.154991 0)
(0.777225 -0.170426 0)
(0.91411 -0.111244 0)
(0.982594 0.541772 0)
(1.12219 0.640685 0)
(1.34507 0.221647 0)
(1.42587 -0.131081 0)
(1.35412 -0.236256 0)
(1.18191 -0.298001 0)
(1.10904 -0.598116 0)
(0.964465 -0.350862 0)
(0.86786 -0.0514948 0)
(0.719869 0.24752 0)
(0.684467 0.688482 0)
(0.9828 0.237172 0)
(1.1735 -0.090376 0)
(1.14255 -0.335034 0)
(1.00502 -0.709284 0)
(0.822852 -0.118193 0)
(0.657567 0.575858 0)
(0.778604 0.268439 0)
(1.16605 0.184841 0)
(1.17062 0.0560398 0)
(1.23394 -0.0188271 0)
(1.19987 -0.0976402 0)
(1.10787 -0.224698 0)
(1.0697 -0.0825643 0)
(1.02578 -0.162346 0)
(1.00241 -0.139383 0)
(0.867262 -0.141376 0)
(0.842175 -0.152288 0)
(0.965099 0.5022 0)
(1.18949 0.593877 0)
(1.39831 0.190907 0)
(1.41001 -0.146668 0)
(1.35242 -0.201675 0)
(1.20249 -0.229915 0)
(1.07537 -0.536101 0)
(0.95077 -0.312275 0)
(0.852898 -0.0171891 0)
(0.699045 0.270149 0)
(0.718824 0.643158 0)
(1.03682 0.183734 0)
(1.18043 -0.103723 0)
(1.14408 -0.326225 0)
(0.971211 -0.668919 0)
(0.758041 -0.0718749 0)
(0.6034 0.571279 0)
(0.769814 0.248932 0)
(1.13596 0.141259 0)
(1.17244 0.066188 0)
(1.21599 -0.0251659 0)
(1.14795 -0.0938016 0)
(1.03498 -0.197275 0)
(1.00941 -0.0592964 0)
(0.970239 -0.149947 0)
(0.968335 -0.109419 0)
(0.896001 -0.077644 0)
(0.727974 -0.169045 0)
(0.905966 0.438207 0)
(1.19029 0.481527 0)
(1.40212 0.146435 0)
(1.39205 -0.105591 0)
(1.29041 -0.1621 0)
(1.14876 -0.218234 0)
(1.02797 -0.521833 0)
(0.881466 -0.264869 0)
(0.789222 0.0195694 0)
(0.672417 0.286037 0)
(0.761372 0.590751 0)
(1.08722 0.128526 0)
(1.17572 -0.111418 0)
(1.1405 -0.304979 0)
(0.938293 -0.614843 0)
(0.687276 -0.0114947 0)
(0.555411 0.562295 0)
(0.771271 0.225356 0)
(1.13051 0.106355 0)
(1.13348 0.0236123 0)
(1.16071 -0.0258683 0)
(1.16304 -0.024599 0)
(1.08789 -0.148466 0)
(1.05946 -0.0398219 0)
(1.03327 -0.127053 0)
(0.969917 -0.117759 0)
(0.962034 -0.0226266 0)
(0.755534 -0.151299 0)
(0.857695 0.30266 0)
(1.18681 0.361813 0)
(1.34957 0.131726 0)
(1.29757 -0.105793 0)
(1.22948 -0.141515 0)
(1.1726 -0.143184 0)
(1.05345 -0.44237 0)
(0.872197 -0.221498 0)
(0.769075 0.0510727 0)
(0.67843 0.279901 0)
(0.823425 0.511975 0)
(1.13599 0.0803905 0)
(1.16258 -0.11063 0)
(1.13217 -0.284922 0)
(0.908339 -0.55815 0)
(0.610602 0.0439237 0)
(0.526714 0.541354 0)
(0.786092 0.196252 0)
(1.11288 0.0738086 0)
(1.12372 0.0481455 0)
(1.12331 -0.0273768 0)
(1.10922 -0.0401668 0)
(1.05987 -0.141185 0)
(1.02025 -0.0332103 0)
(1.03319 -0.101598 0)
(0.946979 -0.0952128 0)
(0.963155 0.0165094 0)
(0.850553 -0.107301 0)
(0.880316 0.200852 0)
(1.14453 0.241463 0)
(1.25245 0.111742 0)
(1.26069 -0.0543083 0)
(1.18079 -0.106493 0)
(1.12912 -0.153085 0)
(1.01436 -0.405272 0)
(0.777533 -0.157383 0)
(0.728903 0.0746256 0)
(0.684326 0.263701 0)
(0.887185 0.43782 0)
(1.16779 0.0399738 0)
(1.13882 -0.106278 0)
(1.11537 -0.257347 0)
(0.874613 -0.476064 0)
(0.522247 0.113959 0)
(0.528003 0.507923 0)
(0.816051 0.164467 0)
(1.08455 0.0546682 0)
(1.09435 0.0243749 0)
(1.10717 -0.0272943 0)
(1.09205 -0.00179639 0)
(1.07285 -0.0961029 0)
(1.00215 -0.0162171 0)
(1.05225 -0.0781893 0)
(0.937888 -0.0856842 0)
(0.969743 0.0210537 0)
(0.930913 -0.0797507 0)
(0.891577 0.137974 0)
(1.10184 0.176417 0)
(1.17252 0.103577 0)
(1.18665 -0.0613559 0)
(1.10957 -0.102989 0)
(1.12037 -0.0986057 0)
(1.06198 -0.321299 0)
(0.760412 -0.0948094 0)
(0.756554 0.0924702 0)
(0.726739 0.228322 0)
(0.961189 0.342835 0)
(1.19293 0.00367538 0)
(1.09945 -0.0914788 0)
(1.11647 -0.22582 0)
(0.854769 -0.398043 0)
(0.423911 0.165945 0)
(0.577893 0.447053 0)
(0.861364 0.124714 0)
(1.06905 0.0353511 0)
(1.07866 0.0319111 0)
(1.08286 -0.0220942 0)
(1.05668 -0.00657228 0)
(1.07047 -0.0796551 0)
(0.991496 -0.0204799 0)
(1.05471 -0.0631982 0)
(0.949269 -0.0566541 0)
(0.983051 0.00839186 0)
(0.955887 -0.0447722 0)
(0.925978 0.108614 0)
(1.07377 0.0981929 0)
(1.09257 0.0850528 0)
(1.18291 -0.0223582 0)
(1.09229 -0.0767423 0)
(1.04936 -0.117557 0)
(0.979442 -0.268769 0)
(0.709534 -0.0385256 0)
(0.810428 0.082505 0)
(0.788865 0.18288 0)
(1.0238 0.264168 0)
(1.23892 -0.0017657 0)
(1.08676 -0.0622719 0)
(1.12214 -0.17885 0)
(0.819543 -0.273556 0)
(0.3479 0.225957 0)
(0.688989 0.368066 0)
(0.916321 0.0972009 0)
(1.05446 0.0305851 0)
(1.05672 0.0195542 0)
(1.07297 -0.0167471 0)
(1.03734 0.00305438 0)
(1.06757 -0.0576819 0)
(0.988794 -0.00665707 0)
(1.05193 -0.0488985 0)
(0.957827 -0.041073 0)
(0.993054 0.00511642 0)
(0.978559 -0.0264704 0)
(0.945489 0.0713634 0)
(1.07773 0.0708198 0)
(1.04936 0.0663515 0)
(1.1409 -0.0474605 0)
(1.06912 -0.0517485 0)
(1.05722 -0.063527 0)
(1.02095 -0.190745 0)
(0.747014 -0.00824939 0)
(0.905873 0.059564 0)
(0.882382 0.14323 0)
(1.03635 0.181615 0)
(1.18338 -0.0312978 0)
(1.01025 -0.0459223 0)
(1.11783 -0.145761 0)
(0.889687 -0.183 0)
(0.41731 0.234867 0)
(0.802325 0.261556 0)
(0.946437 0.0582207 0)
(1.04154 0.025184 0)
(1.05079 0.0172529 0)
(1.05267 -0.00758071 0)
(1.03318 0.00159152 0)
(1.05291 -0.0407411 0)
(0.994193 -0.00602435 0)
(1.04721 -0.0445851 0)
(0.969 -0.0172924 0)
(1.00889 -0.0119225 0)
(0.985159 -0.00589459 0)
(0.97704 0.0527746 0)
(1.05927 0.0283027 0)
(1.04377 0.0574547 0)
(1.11406 -0.0283194 0)
(1.03629 -0.0354446 0)
(1.04087 -0.0760634 0)
(0.991512 -0.133915 0)
(0.811555 0.00937757 0)
(0.952436 0.0252309 0)
(0.913568 0.125653 0)
(1.06385 0.138271 0)
(1.15515 -0.00439973 0)
(0.974152 -0.0190829 0)
(1.03107 -0.12423 0)
(0.838937 -0.0743353 0)
(0.560037 0.250235 0)
(0.936965 0.191904 0)
(0.989711 0.0520222 0)
(1.03295 0.0246877 0)
(1.03986 0.0108448 0)
(1.04407 -0.0018919 0)
(1.02615 0.00268801 0)
(1.04621 -0.0307972 0)
(1.0014 -0.000299112 0)
(1.04083 -0.0374193 0)
(0.982757 -0.00695993 0)
(1.01634 -0.014099 0)
(0.994335 -0.000585724 0)
(0.995422 0.0326464 0)
(1.05422 0.01593 0)
(1.02362 0.0425801 0)
(1.0903 -0.0339676 0)
(1.03171 -0.015822 0)
(1.02767 -0.0504157 0)
(0.995135 -0.0883746 0)
(0.863876 0.0181614 0)
(0.982759 0.0134388 0)
(0.935429 0.101578 0)
(1.03708 0.087982 0)
(1.12877 -0.00623217 0)
(0.991761 0.0153574 0)
(1.04679 -0.0859297 0)
(0.895336 -0.0300032 0)
(0.736696 0.223653 0)
(1.02322 0.132979 0)
(1.04629 0.0405233 0)
(1.02502 0.0240356 0)
(1.03699 0.0060313 0)
(1.0312 0.00344015 0)
(1.02998 0.00228637 0)
(1.03373 -0.0221838 0)
(1.01161 0.00336113 0)
(1.03266 -0.0356554 0)
(0.994997 0.00554891 0)
(1.02052 -0.0224873 0)
(1.00013 0.00759922 0)
(1.00874 0.0188722 0)
(1.03746 0.00146756 0)
(1.02604 0.0378277 0)
(1.06246 -0.0308683 0)
(1.01845 0.00183327 0)
(1.02832 -0.0502583 0)
(0.983429 -0.0516992 0)
(0.917484 0.0212805 0)
(0.984966 -0.00991473 0)
(0.955713 0.095743 0)
(1.0393 0.0569397 0)
(1.07108 -0.000268027 0)
(0.993907 0.0312935 0)
(1.02708 -0.0734758 0)
(0.899073 0.0187952 0)
(0.871446 0.203486 0)
(1.05524 0.0898386 0)
(1.04601 0.0383485 0)
(1.01876 0.0207434 0)
(1.03609 0.00421807 0)
(1.02182 0.00400779 0)
(1.0339 0.00335188 0)
(1.02362 -0.0177874 0)
(1.02181 0.00528161 0)
(1.02474 -0.0293693 0)
(1.00512 0.00672153 0)
(1.02287 -0.0190533 0)
(1.00104 0.00568514 0)
(1.02151 0.0116941 0)
(1.02212 -0.00181839 0)
(1.02551 0.0290437 0)
(1.04446 -0.0267641 0)
(1.01124 0.00825016 0)
(1.033 -0.0343498 0)
(0.973476 -0.0330573 0)
(0.965953 0.0248029 0)
(0.9862 -0.0107912 0)
(0.968047 0.0761696 0)
(1.04297 0.0404622 0)
(1.03582 0.0017791 0)
(1.00681 0.0457558 0)
(1.03117 -0.039069 0)
(0.90858 0.0257066 0)
(0.954315 0.162647 0)
(1.06678 0.073829 0)
(1.04867 0.0438694 0)
(1.01607 0.0171929 0)
(1.03483 0.00241678 0)
(1.01694 0.00433062 0)
(1.03503 0.00270468 0)
(1.01887 -0.0128093 0)
(1.02611 0.00528879 0)
(1.02089 -0.0238226 0)
(1.01119 0.00788179 0)
(1.02283 -0.0177343 0)
(1.00437 0.0063996 0)
(1.02419 0.00587388 0)
(1.01491 -0.00355361 0)
(1.02441 0.0229102 0)
(1.03395 -0.0215969 0)
(1.00571 0.0129286 0)
(1.03563 -0.0269667 0)
(0.974163 -0.016984 0)
(0.992056 0.022685 0)
(0.990357 -0.0132529 0)
(0.980372 0.0629488 0)
(1.03983 0.0283742 0)
(1.01852 0.00689643 0)
(1.00856 0.0466677 0)
(1.03215 -0.0231618 0)
(0.932288 0.0361645 0)
(0.99854 0.131467 0)
(1.06072 0.0603221 0)
(1.04903 0.0454302 0)
(1.01546 0.0126166 0)
(1.03311 0.00218183 0)
(1.01504 0.00339522 0)
(1.03449 0.0026534 0)
(1.01593 -0.00896334 0)
(1.02831 0.00418422 0)
(1.01784 -0.0168148 0)
(1.01542 0.00558913 0)
(1.02142 -0.0126913 0)
(1.00686 0.00429612 0)
(1.02499 0.00318839 0)
(1.01139 -0.00235748 0)
(1.02242 0.0164471 0)
(1.02764 -0.0153636 0)
(1.00401 0.0119952 0)
(1.03506 -0.0164203 0)
(0.978516 -0.00915892 0)
(1.00771 0.0200531 0)
(0.994194 -0.00729865 0)
(0.990101 0.0477632 0)
(1.03357 0.0240991 0)
(1.01018 0.0103459 0)
(1.01052 0.0444737 0)
(1.03327 -0.0025587 0)
(0.953801 0.0398672 0)
(1.01906 0.100856 0)
(1.05301 0.0544448 0)
(1.04875 0.0498561 0)
(1.01601 0.00941495 0)
(1.03061 0.00152595 0)
(1.01498 0.0031383 0)
(1.03189 0.00197211 0)
(1.01544 -0.00557293 0)
(1.02765 0.00337498 0)
(1.01667 -0.0117578 0)
(1.01763 0.00476964 0)
(1.01981 -0.00974156 0)
(1.01038 0.00396394 0)
(1.02264 0.00120715 0)
(1.01203 -0.00165798 0)
(1.01976 0.0122249 0)
(1.02456 -0.0108961 0)
(1.00464 0.0115565 0)
(1.03199 -0.00979438 0)
(0.98702 -0.00277469 0)
(1.01395 0.017819 0)
(0.998407 -0.00336197 0)
(0.99869 0.0374443 0)
(1.02619 0.0203165 0)
(1.01064 0.0139428 0)
(1.01133 0.0413734 0)
(1.03156 0.00782582 0)
(0.974896 0.0392051 0)
(1.02996 0.0801824 0)
(1.04538 0.0491295 0)
(1.04813 0.0492859 0)
(1.01638 0.00676335 0)
(1.02811 0.0013113 0)
(1.01513 0.00280006 0)
(1.02917 0.0017177 0)
(1.01535 -0.00293535 0)
(1.02615 0.00264094 0)
(1.0163 -0.00732015 0)
(1.01858 0.00363355 0)
(1.01886 -0.00641207 0)
(1.01281 0.00303556 0)
(1.0209 0.000615487 0)
(1.01346 -0.000744447 0)
(1.01757 0.00887587 0)
(1.02293 -0.0065072 0)
(1.00597 0.00977423 0)
(1.02858 -0.00388067 0)
(0.994503 0.00100802 0)
(1.01673 0.0153617 0)
(1.0028 0.00172494 0)
(1.00508 0.0290078 0)
(1.02144 0.0191351 0)
(1.0128 0.016266 0)
(1.01203 0.0359108 0)
(1.03122 0.0162507 0)
(0.991924 0.0389735 0)
(1.03407 0.0640486 0)
(1.04041 0.044708 0)
(1.04821 0.0481764 0)
(1.0167 0.00505853 0)
(1.02562 0.00111447 0)
(1.0156 0.00258462 0)
(1.0263 0.00169881 0)
(1.01575 -0.00132396 0)
(1.02434 0.00260273 0)
(1.01634 -0.00455497 0)
(1.01898 0.00332081 0)
(1.01802 -0.0042515 0)
(1.01507 0.00261934 0)
(1.01908 0.000628767 0)
(1.01525 -0.000366905 0)
(1.01614 0.00702289 0)
(1.02166 -0.00357531 0)
(1.00814 0.00857486 0)
(1.02518 7.871e-05 0)
(1.0011 0.0035604 0)
(1.01798 0.0141007 0)
(1.00627 0.00476476 0)
(1.0105 0.023498 0)
(1.01847 0.0178662 0)
(1.01571 0.0170074 0)
(1.01432 0.0321765 0)
(1.03054 0.0205956 0)
(1.00397 0.0358778 0)
(1.03636 0.052673 0)
(1.03805 0.0411709 0)
(1.0485 0.0451532 0)
(1.01679 0.00371614 0)
(1.02358 0.00120054 0)
(1.01595 0.00227148 0)
(1.02393 0.00182968 0)
(1.01623 -0.000181028 0)
(1.0226 0.0025177 0)
(1.01661 -0.00237834 0)
(1.01895 0.00285992 0)
(1.01759 -0.00228149 0)
(1.01657 0.00216014 0)
(1.01784 0.000914223 0)
(1.01673 0.000256959 0)
(1.01527 0.00550107 0)
(1.02098 -0.000907634 0)
(1.01012 0.00733027 0)
(1.02278 0.00290895 0)
(1.00623 0.00536482 0)
(1.01853 0.0126161 0)
(1.00958 0.00723419 0)
(1.01448 0.0195113 0)
(1.01749 0.0167122 0)
(1.01895 0.0177467 0)
(1.01636 0.0282064 0)
(1.03017 0.0221776 0)
(1.01313 0.0331951 0)
(1.03764 0.0444112 0)
(1.03714 0.0373615 0)
(1.04892 0.0412038 0)
(1.01684 0.00275118 0)
(1.02184 0.00136523 0)
(1.01623 0.00192493 0)
(1.02203 0.00206011 0)
(1.01654 0.000436774 0)
(1.02131 0.00257774 0)
(1.01673 -0.000920698 0)
(1.01897 0.00260179 0)
(1.01718 -0.000796946 0)
(1.01765 0.0018226 0)
(1.01703 0.00136197 0)
(1.01765 0.000650487 0)
(1.01513 0.00462835 0)
(1.02028 0.000905471 0)
(1.01204 0.00640402 0)
(1.0213 0.00478347 0)
(1.00993 0.00624726 0)
(1.01939 0.0116688 0)
(1.01224 0.00856947 0)
(1.01752 0.0165313 0)
(1.01789 0.0157769 0)
(1.0213 0.017171 0)
(1.01856 0.0246064 0)
(1.0307 0.02261 0)
(1.01945 0.0299946 0)
(1.03827 0.0373913 0)
(1.03727 0.0336006 0)
(1.04933 0.0368748 0)
(1.0168 0.00208626 0)
(1.02043 0.00143245 0)
(1.01639 0.00172311 0)
(1.02052 0.00205688 0)
(1.01674 0.000952447 0)
(1.02024 0.002436 0)
(1.01678 0.000177776 0)
(1.01893 0.00235927 0)
(1.0169 0.000264908 0)
(1.0184 0.0017602 0)
(1.01655 0.00161012 0)
(1.01834 0.00123511 0)
(1.01525 0.00395142 0)
(1.01985 0.00214813 0)
(1.01369 0.00584238 0)
(1.02043 0.00559655 0)
(1.01284 0.00687604 0)
(1.02016 0.0106687 0)
(1.01452 0.00908948 0)
(1.01999 0.0144656 0)
(1.01868 0.0144653 0)
(1.02344 0.0161788 0)
(1.02086 0.0217302 0)
(1.03117 0.0214888 0)
(1.02397 0.0265908 0)
(1.03897 0.0318092 0)
(1.03777 0.0298727 0)
(1.04954 0.0323756 0)
(1.01667 0.00165487 0)
(1.01938 0.00149251 0)
(1.01635 0.0015525 0)
(1.01947 0.00199244 0)
(1.01666 0.00122617 0)
(1.01948 0.00220969 0)
(1.0167 0.000858422 0)
(1.01882 0.00208201 0)
(1.01677 0.000980634 0)
(1.01875 0.00168798 0)
(1.0165 0.00183307 0)
(1.01869 0.00165402 0)
(1.01565 0.00349505 0)
(1.01969 0.0029224 0)
(1.01492 0.00527293 0)
(1.02025 0.00586159 0)
(1.01487 0.00692188 0)
(1.02094 0.00956434 0)
(1.01654 0.00910034 0)
(1.02177 0.0125705 0)
(1.01994 0.0130997 0)
(1.02526 0.0148595 0)
(1.0227 0.0187555 0)
(1.03185 0.0195188 0)
(1.02732 0.0233204 0)
(1.0395 0.02692 0)
(1.03838 0.0259811 0)
(1.0496 0.0278628 0)
(1.0165 0.00146629 0)
(1.01858 0.00146756 0)
(1.01628 0.00149602 0)
(1.01871 0.00185491 0)
(1.0165 0.0013687 0)
(1.01893 0.00200081 0)
(1.01654 0.0011776 0)
(1.01871 0.00191151 0)
(1.01662 0.00129956 0)
(1.01889 0.0017072 0)
(1.01655 0.00192217 0)
(1.01889 0.00191845 0)
(1.01616 0.00325734 0)
(1.01964 0.00320018 0)
(1.01601 0.00486924 0)
(1.02037 0.00566333 0)
(1.01639 0.0065598 0)
(1.02173 0.0085282 0)
(1.01812 0.00848733 0)
(1.02322 0.0108953 0)
(1.02128 0.0116349 0)
(1.02663 0.0130807 0)
(1.02446 0.0160392 0)
(1.03263 0.0171843 0)
(1.02956 0.0199056 0)
(1.03997 0.0224935 0)
(1.03909 0.0221369 0)
(1.04955 0.0234745 0)
(1.01627 0.00126894 0)
(1.01802 0.00133275 0)
(1.01616 0.00136901 0)
(1.01818 0.00160189 0)
(1.01637 0.001355 0)
(1.0185 0.00168634 0)
(1.01645 0.00125073 0)
(1.01852 0.00164547 0)
(1.01657 0.00134442 0)
(1.01886 0.00161819 0)
(1.01665 0.00180071 0)
(1.01903 0.00198478 0)
(1.01658 0.00288996 0)
(1.01978 0.00314128 0)
(1.01687 0.00432996 0)
(1.02068 0.00507292 0)
(1.01763 0.00590504 0)
(1.02237 0.00726144 0)
(1.01947 0.00747279 0)
(1.02433 0.00919127 0)
(1.02245 0.00985794 0)
(1.0278 0.0111105 0)
(1.02592 0.0133339 0)
(1.03328 0.0144198 0)
(1.0312 0.0164459 0)
(1.04039 0.0183483 0)
(1.03969 0.0182234 0)
(1.0494 0.019152 0)
(1.016 0.00113505 0)
(1.01756 0.00121677 0)
(1.01598 0.00123505 0)
(1.01781 0.00140424 0)
(1.01621 0.00125496 0)
(1.01818 0.00144271 0)
(1.01636 0.00119533 0)
(1.01836 0.00141156 0)
(1.01656 0.00128203 0)
(1.01875 0.00144911 0)
(1.01678 0.00163454 0)
(1.01909 0.00183793 0)
(1.01695 0.00249434 0)
(1.01992 0.00283137 0)
(1.01751 0.00365974 0)
(1.02106 0.00432193 0)
(1.01855 0.00497022 0)
(1.02292 0.0059281 0)
(1.02055 0.00621223 0)
(1.02514 0.00738124 0)
(1.02349 0.00798183 0)
(1.02868 0.00895657 0)
(1.02704 0.0105577 0)
(1.03389 0.0115256 0)
(1.03238 0.0129893 0)
(1.04067 0.0143156 0)
(1.04017 0.0143016 0)
(1.04919 0.0149378 0)
(1.01571 0.000874461 0)
(1.01716 0.000932183 0)
(1.0158 0.000965408 0)
(1.01747 0.00106985 0)
(1.01604 0.000995424 0)
(1.01788 0.00110365 0)
(1.01627 0.0009614 0)
(1.01819 0.00110163 0)
(1.01652 0.0010326 0)
(1.01863 0.00116473 0)
(1.01684 0.00129873 0)
(1.01912 0.00148541 0)
(1.01721 0.00194656 0)
(1.02003 0.00222834 0)
(1.01797 0.00281585 0)
(1.02135 0.00329864 0)
(1.01922 0.00378095 0)
(1.02333 0.00443607 0)
(1.02134 0.00466408 0)
(1.02574 0.00546223 0)
(1.02424 0.00591347 0)
(1.02928 0.00659737 0)
(1.02788 0.00771957 0)
(1.0343 0.00844613 0)
(1.03315 0.00942716 0)
(1.04087 0.0103278 0)
(1.04048 0.0103514 0)
(1.04895 0.0107566 0)
(1.01541 0.000539631 0)
(1.01682 0.000578798 0)
(1.01558 0.000603712 0)
(1.01717 0.000661308 0)
(1.01585 0.000631822 0)
(1.0176 0.000683624 0)
(1.01614 0.000618357 0)
(1.01799 0.00069033 0)
(1.01644 0.000664529 0)
(1.01847 0.000745352 0)
(1.01683 0.000827681 0)
(1.01907 0.000960254 0)
(1.01732 0.0012264 0)
(1.02005 0.0014226 0)
(1.01821 0.00176935 0)
(1.0215 0.00206916 0)
(1.01961 0.00237339 0)
(1.02353 0.00275055 0)
(1.02183 0.00290961 0)
(1.02607 0.00337221 0)
(1.0247 0.00364811 0)
(1.02965 0.00406671 0)
(1.02838 0.00472447 0)
(1.03453 0.00517293 0)
(1.03361 0.00575348 0)
(1.04091 0.00627802 0)
(1.0406 0.00629768 0)
(1.04868 0.00652397 0)
(1.01526 0.00024342 0)
(1.01664 0.000256186 0)
(1.01547 0.0002606 0)
(1.01702 0.00027898 0)
(1.01574 0.000264689 0)
(1.01746 0.000280681 0)
(1.01607 0.000256744 0)
(1.01789 0.000277208 0)
(1.01641 0.000269425 0)
(1.0184 0.000292215 0)
(1.01684 0.00032327 0)
(1.01906 0.000367325 0)
(1.01739 0.00046128 0)
(1.02008 0.000530061 0)
(1.01835 0.000645573 0)
(1.0216 0.000750734 0)
(1.01982 0.00084865 0)
(1.02366 0.000974328 0)
(1.02209 0.00102686 0)
(1.02625 0.00117447 0)
(1.02496 0.00127112 0)
(1.02983 0.00140785 0)
(1.02865 0.0016275 0)
(1.03465 0.00178345 0)
(1.03383 0.0019741 0)
(1.04093 0.0021435 0)
(1.04066 0.00214899 0)
(1.04853 0.00222077 0)
)
;

boundaryField
{
    outlet
    {
        type            zeroGradient;
    }
    upperWall
    {
        type            symmetryPlane;
    }
    lowerWall
    {
        type            symmetryPlane;
    }
    inlet
    {
        type            fixedValue;
        value           nonuniform 0();
    }
    cylinder
    {
        type            fixedValue;
        value           nonuniform 0();
    }
    frontAndBack
    {
        type            empty;
    }
    procBoundary7to3
    {
        type            processor;