/*--------------------------------*- C++ -*----------------------------------*\
| =========                 |                                                 |
| \\      /  F ield         | OpenFOAM: The Open Source CFD Toolbox           |
|  \\    /   O peration     | Version:                                        |
|   \\  /    A nd           | Website:  www.openfoam.com                      |
|    \\/     M anipulation  |                                                 |
\*---------------------------------------------------------------------------*/
FoamFile
{
    version     2.0;
    format      ascii;
    class       surfaceScalarField;
    location    "47.8";
    object      phi;
}
// * * * * * * * * * * * * * * * * * * * * * * * * * * * * * * * * * * * * * //

dimensions      [0 3 -1 0 0 0 0];
oriented        oriented;


internalField   nonuniform List<scalar> 
2227
(
0.0448816
0.00210526
-0.0478472
0.0420202
0.00200728
0.00192927
0.0446174
0.0050455
-0.0475577
0.0417756
0.00484916
0.00469636
0.0441218
0.00797672
-0.047053
0.0412902
0.00768074
0.0431827
0.0108738
-0.0460799
0.0104768
0.0420042
0.0136703
-0.0448006
-0.0429732
0.053951
-0.000980492
0.0538231
-0.000132721
0.0546301
-0.00149012
0.0545034
-0.000810961
0.0551294
-0.00179197
0.0550118
-0.00127132
0.0554845
-0.00192167
0.0553651
-0.00144313
0.0556986
-0.00189849
0.055555
-0.00143896
0.055762
-0.00178704
0.0555855
-0.00136154
0.055675
-0.00163641
0.0554594
-0.00126602
0.0554397
-0.00147707
0.0551719
-0.00116352
0.0550487
-0.00132064
0.0547151
-0.00105568
0.0544823
-0.00116792
0.0540693
-0.000941319
0.0537252
-0.00101463
0.053226
-0.000820648
0.0527691
-0.000856605
0.0521687
-0.000678153
0.0516
-0.000697334
0.0509023
-0.000538607
0.0502355
-0.0005433
0.0494583
-0.000397824
0.0487058
-0.000390237
-0.000249402
0.0539238
-0.00187127
0.0537797
1.13583e-05
0.0545632
-0.00227359
0.05442
-0.000667798
0.0550283
-0.00240022
0.0548974
-0.00114052
0.0553516
-0.00237581
0.0552231
-0.00131462
0.0555343
-0.00220968
0.0553862
-0.0012909
0.0555695
-0.00197033
0.0553905
-0.00118258
0.0554629
-0.0017088
0.0552415
-0.00104461
0.0552131
-0.00144866
0.0549341
-0.000884524
0.0548059
-0.00119246
0.0544619
-0.000711648
0.0542285
-0.000934567
0.0538063
-0.000519078
0.0534661
-0.000674459
0.0529533
-0.000307816
0.0525136
-0.00041688
0.0519116
-7.61565e-05
0.0513623
-0.000148045
0.0506655
0.000158199
0.0499915
0.000130698
0.0492039
0.000389811
0.0484299
0.00038372
0.00062282
0.0538634
-0.00270164
0.0536818
0.000192925
0.0544087
-0.00300053
0.054232
-0.000491046
0.0547954
-0.0029636
0.0546349
-0.000980054
0.0550478
-0.00278867
0.0548941
-0.0011609
0.055164
-0.00247959
0.054995
-0.00112193
0.0551428
-0.00211813
0.0549462
-0.000985946
0.0549906
-0.00175322
0.0547519
-0.000805893
0.0547038
-0.00140054
0.0544098
-0.00059057
0.0542645
-0.00104712
0.0539061
-0.000353237
0.0536726
-0.000701074
0.0532336
-8.01564e-05
0.0529102
-0.000351032
0.0524033
0.000199119
0.0519411
4.5277e-05
0.0513748
0.00049017
0.0508198
0.000406925
0.0501528
0.000825266
0.049508
0.000775427
0.0487266
0.00117121
0.047958
0.00115235
0.00152785
0.0537704
-0.00343902
0.0535287
0.000434618
0.0541695
-0.0036414
0.053938
-0.000259452
0.054435
-0.00346061
0.054222
-0.00076705
0.0545792
-0.00314597
0.0543742
-0.000955856
0.0545973
-0.00270268
0.0543815
-0.000906099
0.0544927
-0.00222938
0.0542574
-0.000750588
0.0542756
-0.00177143
0.0540068
-0.000537143
0.053931
-0.0013247
0.053613
-0.000272636
0.053456
-0.000890137
0.0530665
3.63415e-05
0.0528137
-0.000448349
0.0523909
0.000342729
0.0520071
3.27349e-05
0.0515194
0.000686784
0.0510875
0.000477235
0.0504959
0.0010817
0.0499494
0.000953446
0.0492559
0.00151877
0.0485865
0.00144487
0.0477816
0.0019761
0.0469977
0.00193624
0.00244567
0.0536482
-0.00405427
0.0533225
0.000760367
0.053848
-0.00416692
0.0535447
4.38321e-05
0.0539488
-0.00386471
0.0536679
-0.000486072
0.0539447
-0.00342278
0.0536755
-0.00068668
0.0538288
-0.00285596
0.053555
-0.000632366
0.0536112
-0.00228552
0.053321
-0.000460412
0.0532975
-0.00174793
0.0529721
-0.000211678
0.0528814
-0.001234
0.0525034
0.000105286
0.0523275
-0.000714184
0.0519444
0.000419427
0.0516457
-0.000149662
0.051206
0.000782482
0.0508508
0.0003879
0.0503348
0.00120277
0.0498741
0.000937965
0.0492634
0.00169241
0.0487068
0.00151003
0.0480056
0.00221997
0.0473426
0.0021078
0.0465331
0.00278568
0.0457452
0.00272415
0.00339019
0.0534932
-0.0045145
0.0530644
0.0011892
0.0534421
-0.00454462
0.0530535
0.000432381
0.0533391
-0.0041503
0.0529717
-0.000118629
0.0531501
-0.00360117
0.0527981
-0.000334658
0.0528722
-0.00293007
0.0525259
-0.000286052
0.0525196
-0.00227922
0.0521667
-0.000107531
0.0520904
-0.0016717
0.0517273
0.000151425
0.0515495
-0.00105615
0.0511827
0.000472062
0.0509113
-0.000442746
0.0504831
0.000847628
0.0501528
0.000180613
0.0496635
0.0012718
0.0492641
0.000787273
0.0486853
0.00178156
0.0481967
0.00142661
0.0475445
0.00234458
0.0469599
0.00209462
0.0462204
0.00295947
0.0455343
0.00279395
0.0446998
0.00362011
0.043909
0.00351497
0.00432599
0.0533071
-0.0047886
0.052751
0.00174526
0.0529542
-0.00474781
0.0524585
0.000928167
0.0526015
-0.00429339
0.0521296
0.000353298
0.0521892
-0.00366073
0.051737
0.000117549
0.0517124
-0.0029055
0.051277
0.00014932
0.0511808
-0.00218298
0.0507596
0.000313678
0.0505948
-0.00150688
0.05018
0.000566177
0.0499511
-0.000827288
0.0495221
0.000901111
0.0492004
-0.000121
0.0487399
0.00130808
0.0483871
0.000533448
0.0478478
0.00181103
0.0474193
0.00121582
0.046817
0.00238384
0.0463119
0.00193169
0.0456433
0.00301324
0.0450539
0.00268396
0.0443077
0.00370575
0.0436225
0.00347911
0.0427785
0.0044641
0.0419765
0.00431699
0.0531011
-0.00485671
0.0523892
0.00245715
0.0523976
-0.0047562
0.051774
0.00155178
0.0517578
-0.00427723
0.0511611
0.000950055
0.0510871
-0.00358675
0.0505297
0.00067491
0.0503882
-0.00276401
0.0498714
0.000666181
0.049665
-0.00197662
0.0491839
0.000794838
0.0489147
-0.00123769
0.0484331
0.00104772
0.0480836
-0.000477769
0.0475802
0.00140453
0.0472161
0.000243062
0.0466651
0.00185905
0.04623
0.000968597
0.0456093
0.00243177
0.0451075
0.00171752
0.0444318
0.00305964
0.0438599
0.00250359
0.0431208
0.00375227
0.0424776
0.00332722
0.0416704
0.00451289
0.0409606
0.00418899
0.0400838
0.00534087
0.00509605
0.0528775
-0.00470117
0.0519874
0.00334723
0.0517857
-0.00455456
0.0510186
0.00231892
0.0508211
-0.0040797
0.0500876
0.00168356
0.0498615
-0.0033607
0.0491773
0.00135909
0.0489055
-0.00249219
0.0482655
0.00130615
0.0479447
-0.00165574
0.0473573
0.00138219
0.0469845
-0.000864917
0.0464648
0.00156745
0.0460031
-1.60792e-05
0.0455055
0.00190219
0.045011
0.000737489
0.0444432
0.00242691
0.0439181
0.00149371
0.0432917
0.00305814
0.0427373
0.00227188
0.0420415
0.00375545
0.0414464
0.00309871
0.0406775
0.0045212
0.0400344
0.00397026
0.0391892
0.00535813
0.038488
0.00489011
0.037552
0.00627687
0.0526232
-0.00429136
0.0515562
0.00441418
0.0511057
-0.00410407
0.0502041
0.00322059
0.0497848
-0.00366038
0.048929
0.00253935
0.0485202
-0.00295196
0.0477101
0.00216921
0.0472972
-0.00207928
0.0465232
0.00208014
0.0460998
-0.00123232
0.0453751
0.0021069
0.0449241
-0.000413913
0.0442071
0.00228445
0.0437632
0.000427793
0.0430407
0.00262468
0.0425053
0.00127296
0.0417778
0.00315435
0.0411842
0.00208736
0.0404254
0.00381691
0.0397817
0.00291558
0.0389735
0.0045637
0.0382777
0.00379446
0.0374323
0.00536662
0.0366842
0.00471836
0.0358328
0.00620955
0.0350722
0.00565066
0.00707211
0.0480861
-0.00454891
0.0478042
0.00469616
0.0479273
-0.0042272
0.0477057
0.00344213
0.0477892
-0.00374382
0.0475175
0.00281106
0.0475838
-0.00301831
0.0472661
0.00248692
0.04731
-0.0021232
0.0469331
0.00245709
0.0469693
-0.00126852
0.0465297
0.00254652
0.0465702
-0.00045444
0.0460936
0.00276105
0.0460966
0.000424772
0.0456288
0.00309247
0.0455368
0.00136501
0.0451416
0.0035495
0.0449182
0.00231081
0.0446142
0.00412087
0.0442958
0.003234
0.0440645
0.00479505
0.0437121
0.00414677
0.0435397
0.00553909
0.0432253
0.0050327
0.0431108
0.00632406
0.0429022
0.00585927
0.00712807
0.0513979
-0.00479876
0.0510259
0.00506813
0.051167
-0.00436827
0.0508679
0.00374121
0.0509757
-0.00385167
0.0506409
0.00314588
0.0507316
-0.00310895
0.0503615
0.00285696
0.0503927
-0.00215439
0.0500059
0.00284395
0.0499664
-0.00122911
0.0495874
0.00292556
0.0495091
-0.000376161
0.0491236
0.00314659
0.0490067
0.000541681
0.0486185
0.00348063
0.0484426
0.00154098
0.0480854
0.00390669
0.0478244
0.00257178
0.0475216
0.00442366
0.0471998
0.00355581
0.0469587
0.00503618
0.0466684
0.00443707
0.0464788
0.00572863
0.046318
0.0051935
0.046188
0.00645413
0.0462345
0.00581268
0.00695568
0.0550567
-0.00515761
0.0546367
0.00548808
0.0548583
-0.00458986
0.0545424
0.0040571
0.0546833
-0.00399251
0.0544104
0.00341874
0.0544798
-0.00317833
0.0541679
0.00316887
0.0541289
-0.00211543
0.0538515
0.00312142
0.0536249
-0.00100261
0.0534506
0.00309993
0.053077
-2.58136e-06
0.0529874
0.00323623
0.0525355
0.00099349
0.0524382
0.00357794
0.0519783
0.00200088
0.0517986
0.00408647
0.0513801
0.00299025
0.051117
0.00468679
0.050779
0.00389373
0.0504694
0.00534584
0.0502298
0.00467661
0.0499601
0.00599839
0.0498306
0.00532296
0.0497602
0.00652459
0.0497736
0.0057992
0.00677327
0.0589354
-0.00559898
0.0587399
0.0056836
0.0589185
-0.00476854
0.0588513
0.00412435
0.0588043
-0.00394552
0.0588985
0.00332457
0.0586728
-0.00295267
0.0587636
0.00307803
0.0584171
-0.00176884
0.058479
0.00305946
0.057939
-0.000462549
0.0580621
0.00297678
0.0574031
0.000656449
0.0575998
0.00303957
0.0569144
0.00167885
0.0570875
0.0034048
0.0564112
0.00267723
0.056498
0.00399968
0.0558594
0.00362882
0.0558693
0.00467688
0.0552705
0.00449257
0.0552723
0.00534403
0.0547047
0.00524416
0.0548119
0.0058912
0.054288
0.00584687
0.0546189
0.00619369
0.0541729
0.0062452
0.00629957
0.0629252
-0.00597048
0.0628717
0.00573707
0.0629747
-0.00487155
0.0629755
0.00412354
0.0628604
-0.00383044
0.063048
0.00313697
0.0626867
-0.0025913
0.0629354
0.00282927
0.0624465
-0.0012799
0.0625982
0.00290775
0.0619723
0.000163288
0.0620911
0.00285805
0.0614482
0.00129932
0.0615948
0.00289293
0.0610005
0.00227323
0.0611457
0.00325956
0.0605768
0.0032461
0.0606818
0.00389474
0.0601215
0.00418904
0.0601781
0.00462028
0.0596533
0.00501738
0.0597325
0.00526482
0.059269
0.00570763
0.0594341
0.0057261
0.0590802
0.0062008
0.0593011
0.00597277
0.0590696
0.0064767
0.00603779
0.0671573
-0.00623274
0.0668486
0.00604575
0.0670169
-0.00503984
0.0667093
0.00443119
0.0668405
-0.00396163
0.0666029
0.00337453
0.0666025
-0.00259091
0.0664102
0.00302159
0.0663307
-0.0012004
0.0659758
0.00326263
0.0658747
0.000264377
0.0654396
0.00329318
0.0654417
0.00129726
0.0649633
0.0033713
0.0650958
0.00214077
0.0645906
0.00376472
0.064779
0.00305772
0.0642828
0.0043909
0.0644655
0.00400642
0.0640275
0.00505826
0.0641839
0.00486098
0.0638282
0.00562047
0.0640015
0.00553433
0.0637258
0.00600183
0.0639637
0.00596294
0.0637434
0.00619298
0.0640984
0.00612172
0.00620725
0.0717915
-0.00648646
0.0711453
0.00669191
0.0714672
-0.00536167
0.0708796
0.00501871
0.0712289
-0.00431089
0.0706331
0.00397035
0.0708873
-0.00284511
0.0703036
0.00360529
0.070508
-0.00140482
0.0697547
0.00401595
0.0700554
-3.6358e-05
0.0692931
0.00405546
0.0696776
0.000912804
0.068901
0.00414787
0.0693449
0.0016969
0.0685184
0.00459118
0.0689824
0.00259371
0.0681713
0.00520206
0.0686386
0.00353907
0.0679255
0.00577137
0.0684015
0.00438495
0.0678202
0.00620185
0.0683216
0.00503293
0.0678653
0.00645809
0.0683988
0.0054295
0.0680629
0.00652884
0.068628
0.00555664
0.00640736
0.0767828
-0.00676654
0.0760541
0.00742054
0.0764827
-0.00579019
0.075845
0.00565641
0.0762462
-0.00471215
0.0755194
0.00469722
0.0758947
-0.00322046
0.0751161
0.00438384
0.0753464
-0.0016351
0.0745652
0.0047972
0.0749758
-0.000446968
0.0741928
0.00483848
0.0746641
0.000441467
0.0738711
0.00494084
0.0742477
0.00132036
0.0734349
0.00540393
0.0737266
0.00230204
0.0729779
0.00595075
0.0732366
0.00328037
0.0726476
0.00636035
0.0729167
0.00411589
0.0725249
0.00659361
0.0728403
0.0047176
0.0726262
0.0066721
0.0729771
0.00507868
0.0729201
0.00658578
0.0732529
0.00522382
0.00635438
0.0820285
-0.00698287
0.0814752
0.0079739
0.0818521
-0.00616713
0.0813463
0.00616222
0.0816287
-0.0049946
0.0810158
0.00531017
0.0813155
-0.00352013
0.0806315
0.0050678
0.0806528
-0.00165642
0.0802161
0.0052339
0.0804378
-0.000668623
0.0799628
0.0053134
0.080148
0.000256323
0.0796078
0.00548102
0.0795675
0.00136071
0.0791076
0.00586375
0.0789313
0.00247833
0.0786224
0.00625966
0.0784644
0.00343844
0.078305
0.00651969
0.078235
0.00418593
0.0782121
0.00661648
0.078225
0.00470475
0.0783155
0.00658159
0.0783914
0.00500275
0.0785603
0.00641695
0.0786827
0.00510136
0.00613763
0.0874738
-0.0069665
0.0874686
0.00797913
0.0873677
-0.00606626
0.0872819
0.00624807
0.0870913
-0.00480407
0.0869764
0.00542513
0.0867629
-0.0033067
0.0865836
0.00524712
0.0861909
-0.00126369
0.0863217
0.00510307
0.0860886
-0.000435487
0.0861111
0.00529086
0.0857926
0.00057481
0.0856447
0.00562899
0.0851968
0.00180862
0.0850785
0.00598204
0.0846294
0.00292739
0.0846366
0.00625242
0.0842885
0.0037866
0.0844037
0.00640444
0.0841869
0.00440274
0.0843573
0.00644613
0.0842587
0.00480333
0.084475
0.0063653
0.084469
0.00500871
0.0847191
0.00616685
0.0847822
0.00503829
0.00587529
0.0932719
-0.00667616
0.0937025
0.00754857
0.0931991
-0.00556294
0.0935488
0.00589842
0.0929445
-0.00419979
0.093207
0.00516268
0.0925538
-0.00265357
0.0927091
0.00509185
0.0922884
-0.000843001
0.0925866
0.00480489
0.0921111
3.99558e-05
0.092313
0.00508906
0.09175
0.00113775
0.0917734
0.00560556
0.0912181
0.00236399
0.0912325
0.00596764
0.0907831
0.00337675
0.0908935
0.00614208
0.0905747
0.00410533
0.0907615
0.00621767
0.0905807
0.00458354
0.0908159
0.00621088
0.0907446
0.00487469
0.0910071
0.00610274
0.0910222
0.00499367
0.0912951
0.00589395
0.0913708
0.00496261
0.0056078
0.0995692
-0.00618959
0.100233
0.00688463
0.0995554
-0.00488525
0.100084
0.00536986
0.0993284
-0.00344419
0.0997115
0.00477958
0.0989005
-0.00184265
0.0992063
0.00478609
0.0988306
-0.000467281
0.0991186
0.00451687
0.0985306
0.000627949
0.0987467
0.00487299
0.0981201
0.00176435
0.0982527
0.00547299
0.0977391
0.00287757
0.0978462
0.00586053
0.0974849
0.00373804
0.0976174
0.00600959
0.0973951
0.00432759
0.0975855
0.00602731
0.0974778
0.00469127
0.0977192
0.00596941
0.0977056
0.00488829
0.0979725
0.00583586
0.0980315
0.00493464
0.0983021
0.00562338
0.0984078
0.00485692
0.00534603
0.106377
-0.00556673
0.107173
0.00608823
0.106383
-0.00409454
0.10699
0.00476227
0.106195
-0.00264849
0.106615
0.00435935
0.105841
-0.00106912
0.106209
0.00441804
0.105781
-3.91533e-05
0.106003
0.00429466
0.10545
0.00118135
0.105601
0.00472156
0.105058
0.0023076
0.105227
0.00530426
0.10482
0.00328477
0.104988
0.00569223
0.104729
0.00399678
0.104891
0.00584784
0.10476
0.00445855
0.104949
0.00583857
0.104908
0.00473255
0.105129
0.0057483
0.105166
0.00485066
0.105413
0.00558955
0.105508
0.00483904
0.105765
0.00536676
0.105897
0.00472452
0.00509151
0.113721
-0.00486202
0.114578
0.00523152
0.113735
-0.00325179
0.114339
0.00415829
0.113587
-0.00189649
0.113995
0.00395198
0.113364
-0.000438802
0.113715
0.00406688
0.113222
0.000454679
0.11337
0.00414663
0.112916
0.00163455
0.113023
0.00461487
0.11261
0.00272076
0.112769
0.00514473
0.112476
0.00357832
0.112665
0.00550337
0.112502
0.00415998
0.112702
0.00564731
0.112638
0.00452226
0.112835
0.00564215
0.11285
0.00471688
0.113062
0.00553635
0.11314
0.00477269
0.113371
0.00535851
0.113494
0.00471671
0.113737
0.00512401
0.113889
0.00457198
0.00484257
0.121632
-0.00412637
0.122483
0.00437998
0.121667
-0.00243533
0.122208
0.00361734
0.121547
-0.0012358
0.12191
0.00358867
0.121422
4.92957e-05
0.121708
0.00378159
0.121226
0.000936604
0.121328
0.00404424
0.120955
0.00200785
0.121051
0.00451878
0.120756
0.00301597
0.1209
0.00500083
0.120715
0.00376303
0.120911
0.0053071
0.120827
0.00424432
0.121039
0.00543519
0.121034
0.00452763
0.12125
0.00542606
0.12131
0.00465656
0.121535
0.00531142
0.121647
0.00466109
0.121883
0.00512203
0.12203
0.00456944
0.122274
0.0048798
0.122447
0.00439978
0.00459389
0.13014
-0.00340623
0.130926
0.00359393
0.130211
-0.00172024
0.130656
0.00317196
0.1301
-0.000679543
0.130407
0.00328184
0.130011
0.000445415
0.13023
0.00356199
0.129819
0.00134787
0.129912
0.00395088
0.129599
0.00232093
0.129696
0.00442245
0.129499
0.00321301
0.129649
0.00485055
0.129555
0.00385715
0.129751
0.00511049
0.129733
0.00426301
0.129951
0.00521695
0.129998
0.00448085
0.130232
0.00519229
0.130333
0.00455475
0.13058
0.00506517
0.130726
0.00451458
0.130983
0.00486539
0.131162
0.00439041
0.131422
0.00461993
0.131616
0.00420542
0.0043394
0.139277
-0.00274144
0.139954
0.00291761
0.1394
-0.00116685
0.139734
0.00283832
0.139268
-0.000213385
0.139515
0.00303434
0.139181
0.000780148
0.139356
0.00338692
0.139028
0.00167528
0.139131
0.00384833
0.138888
0.00256361
0.138999
0.00431109
0.138877
0.00333582
0.139048
0.00467959
0.13902
0.00388453
0.139223
0.00490736
0.139264
0.00422235
0.139495
0.00498637
0.139591
0.00438393
0.139842
0.00494143
0.139986
0.00441085
0.140251
0.00480058
0.140432
0.00433353
0.140706
0.00459151
0.140915
0.00418092
0.141194
0.00434092
0.141419
0.0039805
0.00406844
0.14907
-0.0021569
0.149623
0.00236425
0.149222
-0.000765713
0.149477
0.00258382
0.149085
0.000178676
0.149278
0.00284131
0.148994
0.00106421
0.149142
0.00323878
0.148894
0.00192279
0.149016
0.00372659
0.148851
0.00272909
0.14899
0.00417149
0.148934
0.00339163
0.14912
0.00449367
0.149151
0.00385398
0.149373
0.00468545
0.149467
0.00412785
0.149717
0.00473683
0.149862
0.00423907
0.150132
0.00467129
0.150317
0.00422577
0.1506
0.00451785
0.150815
0.00411854
0.151104
0.00430214
0.15134
0.00394453
0.151633
0.00404796
0.151885
0.00372851
0.00377574
0.159544
-0.00166016
0.159979
0.00192926
0.159664
-0.000450261
0.159906
0.00234199
0.159588
0.000495851
0.159749
0.00268033
0.159511
0.0013023
0.15965
0.00309961
0.159474
0.00209955
0.159618
0.00358234
0.159524
0.00282296
0.159699
0.00399621
0.159701
0.00338948
0.159911
0.00428416
0.159993
0.00377183
0.16024
0.00443897
0.160383
0.00398426
0.160657
0.00446327
0.160846
0.00404943
0.161139
0.00437869
0.161363
0.00400161
0.161666
0.00421467
0.161914
0.00387057
0.162222
0.0039945
0.162485
0.00368107
0.162794
0.0037398
0.163066
0.00345598
0.00347005
0.170736
-0.00124817
0.171073
0.00159249
0.170816
-0.000192853
0.171054
0.00210357
0.170819
0.000730644
0.170971
0.00252859
0.170779
0.00149411
0.170921
0.00295823
0.170809
0.00221077
0.170975
0.00341685
0.170952
0.00284581
0.171157
0.00379143
0.171217
0.00332898
0.171457
0.0040448
0.171589
0.00363978
0.171863
0.00416413
0.172053
0.00379483
0.172353
0.00416282
0.172584
0.00381881
0.1729
0.00406234
0.17316
0.00374211
0.173484
0.00389015
0.173762
0.0035927
0.174088
0.0036683
0.174376
0.00339319
0.1747
0.00341658
0.174991
0.00316452
0.00315304
0.182692
-0.000913754
0.182956
0.00132862
0.182745
1.78882e-05
0.182969
0.00187947
0.182806
0.000894006
0.182968
0.00236664
0.18284
0.00162214
0.182989
0.00280875
0.182943
0.00225715
0.183136
0.00322378
0.183177
0.00280502
0.183409
0.00355909
0.183528
0.00321039
0.183799
0.0037738
0.183981
0.00345719
0.184285
0.00386028
0.184518
0.00356203
0.184845
0.00383612
0.185112
0.00355093
0.185452
0.00372279
0.185743
0.00345112
0.186088
0.00354566
0.186391
0.00328919
0.186733
0.00332626
0.18704
0.00308603
0.187375
0.00308208
0.18768
0.00285961
0.00282883
0.195464
-0.000648505
0.195673
0.00111929
0.195506
0.000184965
0.195711
0.00167467
0.19561
0.000994678
0.195786
0.00219054
0.19573
0.001678
0.195905
0.00263393
0.195923
0.00223931
0.196141
0.00300527
0.196243
0.00270364
0.196506
0.00329618
0.19668
0.00303609
0.196982
0.00347182
0.197214
0.00322568
0.197545
0.00352848
0.19782
0.00328783
0.198171
0.00348477
0.198473
0.00324834
0.198834
0.00336245
0.199152
0.00313253
0.199513
0.00318494
0.199837
0.00296497
0.200191
0.00297255
0.200513
0.00276456
0.200854
0.00274084
0.201167
0.00254677
0.00250313
0.209107
-0.000442686
0.209278
0.000948785
0.209155
0.000307318
0.209342
0.00148826
0.209296
0.00104008
0.209487
0.00199995
0.209502
0.00166278
0.209713
0.00242349
0.209796
0.00215647
0.210044
0.00275685
0.210203
0.00254465
0.210497
0.00300172
0.210724
0.00280955
0.211057
0.0031392
0.211334
0.00294834
0.211693
0.00316967
0.212005
0.00297548
0.212379
0.00311106
0.212712
0.0029153
0.21309
0.00298474
0.213431
0.00279092
0.213804
0.00281183
0.214145
0.00262432
0.214506
0.00261112
0.214838
0.0024329
0.215182
0.00239665
0.215499
0.00222975
0.0021793
0.223684
-0.000286919
0.223831
0.000802476
0.223752
0.000386248
0.223928
0.00131156
0.223936
0.00103267
0.224145
0.00179113
0.224225
0.00158278
0.224469
0.00217887
0.224616
0.00200996
0.224898
0.00247418
0.225113
0.00232977
0.22544
0.0026751
0.225715
0.00253467
0.226077
0.00277724
0.226395
0.00262981
0.226779
0.00278573
0.227125
0.00262962
0.227519
0.00271746
0.227878
0.00255622
0.22827
0.00259237
0.228631
0.00243043
0.229013
0.00242937
0.229366
0.00227148
0.229732
0.00224513
0.23007
0.00209455
0.230415
0.00205176
0.230734
0.00191048
0.00185808
0.239261
-0.000173036
0.239394
0.000670143
0.239359
0.000420936
0.239536
0.00113458
0.239594
0.000974574
0.239824
0.00156143
0.239964
0.00144223
0.24024
0.00190309
0.240446
0.00180372
0.240765
0.00215581
0.241033
0.00206133
0.241392
0.00231617
0.241712
0.00221484
0.242102
0.00238746
0.242457
0.00227424
0.242864
0.00237878
0.243239
0.00225445
0.24365
0.00230634
0.244031
0.00217544
0.244435
0.0021882
0.24481
0.00205538
0.245199
0.00204048
0.245561
0.00191012
0.245929
0.00187692
0.246271
0.00175221
0.246615
0.00170773
0.246935
0.00159068
0.00154024
0.255909
-9.39426e-05
0.256036
0.000543699
0.256045
0.00041143
0.256232
0.000947795
0.256338
0.000868143
0.256593
0.00130657
0.256787
0.00124891
0.257095
0.00159468
0.257357
0.00154183
0.257711
0.00180162
0.25803
0.00174268
0.258421
0.00192525
0.258782
0.00185358
0.259198
0.00197157
0.259586
0.00188574
0.260014
0.00195139
0.260414
0.00185413
0.26084
0.00188027
0.261239
0.00177643
0.261653
0.00177404
0.262041
0.00166816
0.262435
0.00164628
0.262803
0.00154227
0.263171
0.00150801
0.263515
0.00140848
0.263856
0.0013668
0.264174
0.00127311
0.00122768
0.273704
-4.30531e-05
0.273831
0.000416867
0.273882
0.000360036
0.274085
0.000744497
0.27424
0.00071336
0.27452
0.0010264
0.274764
0.00100537
0.275108
0.00125101
0.275422
0.00122724
0.275814
0.00140996
0.27618
0.00137604
0.276604
0.00150154
0.277004
0.00145367
0.277445
0.00153074
0.277862
0.00146876
0.278307
0.00150663
0.278727
0.00143354
0.279165
0.00144219
0.279579
0.00136273
0.280002
0.00135132
0.2804
0.00127024
0.2808
0.0012462
0.281175
0.0011671
0.281547
0.00113595
0.281894
0.00106127
0.282234
0.00102696
0.282549
0.000958044
0.000921516
0.292725
-1.43809e-05
0.292857
0.000285228
0.292947
0.000270384
0.293172
0.000519491
0.293371
0.000514481
0.293681
0.00071578
0.293973
0.000713206
0.294354
0.000870027
0.29472
0.000861932
0.295152
0.000977386
0.295569
0.000959685
0.296033
0.00103751
0.296477
0.00100941
0.296951
0.0010565
0.297401
0.00101898
0.297866
0.00104148
0.298304
0.000995731
0.298749
0.000997424
0.299168
0.000943104
0.299591
0.000928508
0.299991
0.000870638
0.30039
0.000847075
0.300767
0.000789908
0.301141
0.000762355
0.301493
0.000708959
0.301839
0.000681196
0.302163
0.000633387
0.00060765
0.31306
-2.26778e-06
0.3132
0.000145494
0.313321
0.000149119
0.313569
0.000271853
0.31381
0.000272749
0.314153
0.000373377
0.314489
0.00037652
0.314909
0.000450219
0.315322
0.000449034
0.315794
0.000505403
0.316255
0.000499022
0.316755
0.000537411
0.317239
0.000524709
0.317749
0.000546992
0.318239
0.000528889
0.318742
0.000538549
0.319221
0.000516488
0.319701
0.000517572
0.320152
0.000492171
0.320595
0.000485117
0.321009
0.000457055
0.321413
0.000443091
0.321792
0.000410846
0.322161
0.000393119
0.322507
0.000362929
0.322844
0.000344689
0.32316
0.000317201
0.00030055
0.334798
0.334943
0.335092
0.335364
0.335637
0.33601
0.336387
0.336837
0.337286
0.337792
0.338291
0.338828
0.339353
0.3399
0.340429
0.340967
0.341484
0.342001
0.342493
0.342978
0.343436
0.343879
0.344289
0.344683
0.345046
0.34539
0.345707
)
;

boundaryField
{
    outlet
    {
        type            calculated;
        value           nonuniform 0();
    }
    upperWall
    {
        type            symmetryPlane;
        value           uniform 0;
    }
    lowerWall
    {
        type            symmetryPlane;
        value           nonuniform 0();
    }
    inlet
    {
        type            calculated;
        value           nonuniform List<scalar> 
40
(
-0.053033
-0.053033
-0.053033
-0.053033
-0.053033
-0.053033
-0.053033
-0.053033
-0.053033
-0.053033
-0.0478286
-0.051148
-0.0546978
-0.058494
-0.0625537
-0.0668951
-0.0715378
-0.0765027
-0.0818122
-0.0874902
-0.0935622
-0.100056
-0.107
-0.114426
-0.122367
-0.13086
-0.139942
-0.149655
-0.160041
-0.171148
-0.183026
-0.195729
-0.209313
-0.22384
-0.239375
-0.255988
-0.273755
-0.292754
-0.313072
-0.3348
)
;
    }
    cylinder
    {
        type            calculated;
        value           nonuniform 0();
    }
    frontAndBack
    {
        type            empty;
        value           nonuniform 0();
    }
    procBoundary4to0
    {
        type            processor;
        value           nonuniform List<scalar> 
33
(
0.000860355
0.00085418
0.000848532
6.24687e-05
0.00026065
0.000683089
0.000937726
0.00116597
0.00138884
0.00144897
0.00156256
0.00156502
0.00158253
0.00158006
0.00153804
0.0015469
0.00148164
0.00149672
0.00143134
0.00144389
0.00138922
0.00140071
0.00135433
0.00135875
0.00131988
0.0013135
0.00127852
0.00126604
0.00123627
0.00121012
0.00117505
0.00114271
0.00110797
)
;
    }
    procBoundary4to5
    {
        type            processor;
        value           nonuniform List<scalar> 
45
(
0.0392424
0.0390085
0.0385415
0.00744503
0.0403867
0.0392698
0.0132111
0.0402369
0.0164066
0.0409994
0.00530311
0.0393047
0.0367555
0.00589259
0.034277
0.0428462
0.0464069
0.049956
0.0546466
0.0593314
0.063929
0.0684279
0.0733059
0.0788995
0.0850445
0.0916382
0.0986696
0.106152
0.114138
0.122695
0.13187
0.14169
0.152178
0.163372
0.175308
0.188004
0.201492
0.215823
0.231056
0.247253
0.264486
0.282855
0.302477
0.323467
0.346008
)
;
    }
}


// ************************************************************************* //
