/*--------------------------------*- C++ -*----------------------------------*\
| =========                 |                                                 |
| \\      /  F ield         | OpenFOAM: The Open Source CFD Toolbox           |
|  \\    /   O peration     | Version:                                        |
|   \\  /    A nd           | Website:  www.openfoam.com                      |
|    \\/     M anipulation  |                                                 |
\*---------------------------------------------------------------------------*/
FoamFile
{
    version     2.0;
    format      ascii;
    class       volVectorField;
    location    "137";
    object      U;
}
// * * * * * * * * * * * * * * * * * * * * * * * * * * * * * * * * * * * * * //

dimensions      [0 1 -1 0 0 0 0];


internalField   nonuniform List<vector> 
1161
(
(1.54771 -0.140072 -1.1172e-19)
(1.52054 -0.158245 1.85124e-19)
(1.49056 -0.177968 -3.02229e-20)
(1.46431 -0.201284 -3.02063e-21)
(1.42961 -0.217987 2.99839e-20)
(1.3916 -0.234548 1.46557e-21)
(1.35324 -0.242294 -4.3073e-20)
(1.31621 -0.259218 -2.04703e-20)
(1.29088 -0.237336 -3.44531e-20)
(1.22848 -0.28808 -5.39189e-20)
(1.46697 -0.138292 -1.22713e-19)
(1.43554 -0.148204 2.72353e-20)
(1.40324 -0.16547 6.19855e-20)
(1.37153 -0.176233 -1.16545e-19)
(1.3362 -0.192909 1.06946e-20)
(1.30451 -0.197354 4.26489e-20)
(1.26673 -0.212238 1.15922e-19)
(1.23851 -0.220116 -8.45326e-20)
(1.382 -0.120142 -8.45378e-20)
(1.35472 -0.132749 2.64129e-20)
(1.32926 -0.137146 1.17688e-19)
(1.29508 -0.149826 -4.65211e-20)
(1.26971 -0.142494 1.57134e-20)
(1.23234 -0.156933 -5.96172e-21)
(1.28146 -0.104158 -8.10631e-20)
(1.25574 -0.110991 3.1613e-20)
(1.23119 -0.12751 1.92141e-20)
(-0.236138 0.96233 2.90811e-20)
(-0.264518 1.05067 -3.33079e-20)
(-0.24173 1.08507 8.93962e-22)
(-0.220436 1.0904 1.64504e-20)
(-0.151108 1.04341 -2.4561e-20)
(-0.0661269 0.943616 -1.8069e-20)
(0.0382416 0.799901 4.7573e-20)
(0.150645 0.612657 -3.75634e-20)
(0.277011 0.399056 4.37133e-20)
(0.38907 0.17157 4.13521e-20)
(0.510638 0.0227866 -3.53227e-20)
(0.598058 -0.203905 -4.43652e-20)
(0.721735 -0.496399 3.44878e-20)
(0.812566 -0.846166 2.23756e-20)
(0.871109 -1.06017 5.97524e-20)
(0.865204 -1.17835 -1.84796e-21)
(0.863511 -1.17056 -1.49627e-20)
(-0.10581 1.05619 -2.63553e-20)
(-0.0962959 1.07905 6.71441e-21)
(-0.0277567 1.03707 -2.78195e-20)
(0.0540552 0.949039 4.19827e-21)
(0.151045 0.824335 4.27738e-20)
(0.261415 0.685955 -1.70379e-19)
(0.375665 0.496102 7.18765e-20)
(0.50727 0.258949 4.84084e-20)
(0.600079 0.038656 -1.73655e-19)
(0.684121 -0.0837583 3.40905e-20)
(0.788451 -0.313739 1.89583e-20)
(0.954679 -0.620644 -9.37769e-20)
(1.04799 -0.933535 -3.00355e-19)
(1.08194 -1.08593 2.80741e-20)
(1.03505 -1.1488 4.23912e-20)
(1.00225 -1.11232 4.64315e-20)
(-0.00305692 1.05652 1.72311e-19)
(0.0556472 1.03827 -5.74779e-20)
(0.124588 0.966391 -1.02771e-19)
(0.189961 0.880197 4.56926e-20)
(0.323325 0.727232 9.37429e-20)
(0.417896 0.61172 -1.40467e-19)
(0.551246 0.411935 3.09839e-20)
(0.696986 0.169843 2.56681e-19)
(0.761318 -0.00894367 -2.95641e-19)
(0.836795 -0.143747 1.71216e-21)
(0.993838 -0.4169 1.28825e-19)
(1.18124 -0.70929 3.42134e-20)
(1.241 -0.945363 9.11584e-21)
(1.23589 -1.02447 3.23367e-19)
(1.15801 -1.04632 -2.41398e-19)
(1.1017 -0.994093 8.68976e-20)
(0.106475 1.02499 4.391e-20)
(0.139833 0.983849 -1.38081e-19)
(0.191665 0.93742 1.17197e-19)
(0.330373 0.792146 4.12176e-20)
(0.438427 0.633192 -2.2878e-20)
(0.52367 0.516192 3.6045e-20)
(0.7014 0.298793 1.80466e-19)
(0.799936 0.108152 2.65378e-20)
(0.844577 -0.0250154 -2.79196e-19)
(1.00489 -0.225855 -1.06112e-19)
(1.22484 -0.529619 -4.43603e-20)
(1.37701 -0.762442 1.27552e-19)
(1.3781 -0.912364 1.6245e-19)
(1.33111 -0.92632 5.43827e-20)
(1.229 -0.936933 -1.86253e-19)
(1.17152 -0.885843 1.46536e-19)
(0.167125 1.04861 4.44373e-20)
(0.228463 0.98438 -2.97121e-19)
(0.313419 0.869824 4.16003e-19)
(0.386912 0.733169 -2.13488e-19)
(0.483303 0.602784 -2.20277e-19)
(0.650638 0.408495 1.91955e-19)
(0.750532 0.231919 -1.73557e-19)
(0.793178 0.107959 3.63791e-20)
(0.968615 -0.087088 -1.37554e-19)
(1.24987 -0.359962 1.44503e-19)
(1.44799 -0.61243 1.07623e-19)
(1.50319 -0.739257 2.60154e-19)
(1.4345 -0.806361 -1.44232e-19)
(1.36491 -0.783381 -4.88025e-20)
(1.26684 -0.804175 -1.47387e-19)
(1.20777 -0.751664 3.414e-19)
(0.198946 0.931192 -2.56228e-19)
(0.25153 0.853583 1.4228e-20)
(0.399831 0.694453 9.53546e-20)
(0.539898 0.488859 7.01934e-20)
(0.584967 0.343531 -1.87748e-19)
(0.660046 0.219033 1.91244e-20)
(0.907692 0.0100797 -2.34965e-19)
(1.2565 -0.249953 4.83108e-19)
(1.50106 -0.472465 -1.85633e-19)
(1.56906 -0.599931 -2.38058e-19)
(1.52369 -0.64721 -9.78653e-21)
(1.43727 -0.682201 -1.42577e-19)
(1.37614 -0.666915 1.70024e-19)
(1.28554 -0.699642 8.77446e-20)
(1.2291 -0.652029 -1.4702e-19)
(0.224669 0.666595 -1.36101e-20)
(0.263784 0.532587 1.83273e-19)
(0.301839 0.425341 3.52693e-19)
(0.489428 0.268818 -4.05144e-20)
(0.853963 0.0478372 1.21807e-19)
(1.25992 -0.189338 1.68438e-19)
(1.53172 -0.358404 -3.82079e-19)
(1.59738 -0.462189 -2.51207e-20)
(1.56066 -0.508252 5.10404e-19)
(1.49336 -0.542611 -3.35309e-20)
(1.43132 -0.566726 -2.77794e-19)
(1.37519 -0.557136 2.28945e-19)
(1.29628 -0.582226 -1.07788e-19)
(1.24971 -0.538472 -4.18887e-21)
(0.0123986 0.400107 3.17462e-20)
(0.366031 0.230353 1.80547e-19)
(0.840495 0.026054 -2.83585e-19)
(1.27685 -0.153302 -1.70414e-19)
(1.53186 -0.268189 -1.28898e-19)
(1.59297 -0.33766 2.80411e-20)
(1.56735 -0.388674 -1.73634e-19)
(1.52721 -0.422693 -1.71722e-19)
(1.47 -0.454123 1.31401e-20)
(1.41768 -0.468058 3.10276e-19)
(1.35783 -0.469059 -1.32306e-19)
(1.29984 -0.501145 -4.80057e-20)
(1.26605 -0.468251 4.62913e-20)
(0.862066 -0.00416656 4.73517e-20)
(1.28989 -0.118659 7.76708e-20)
(1.50977 -0.19199 2.30003e-20)
(1.56665 -0.241687 -2.23915e-20)
(1.56372 -0.290144 8.25015e-20)
(1.53733 -0.321704 1.25778e-20)
(1.49346 -0.348176 -1.18999e-19)
(1.43751 -0.371053 4.89088e-20)
(1.39531 -0.377137 1.58099e-19)
(1.34604 -0.396199 -2.30119e-19)
(1.30417 -0.404763 2.31557e-19)
(1.26581 -0.373811 -1.97466e-19)
(1.48982 -0.130872 -6.38121e-20)
(1.55077 -0.172328 -8.82483e-20)
(1.55895 -0.210866 2.4963e-19)
(1.53443 -0.231895 -1.73644e-19)
(1.49249 -0.256263 5.70242e-20)
(1.45317 -0.27455 -1.07384e-19)
(1.41606 -0.297338 1.08785e-19)
(1.37882 -0.303215 -1.14845e-19)
(1.32352 -0.332597 1.33111e-19)
(1.28907 -0.323445 6.65811e-20)
(1.24583 -0.330511 2.31155e-20)
(0.820422 -1.11091 1.61795e-20)
(0.756055 -1.06671 -3.56895e-21)
(0.726482 -1.03599 3.22367e-21)
(0.699122 -1.00071 2.93914e-21)
(0.661584 -1.05242 -8.80252e-21)
(0.595164 -1.10596 3.45076e-21)
(0.508613 -1.03774 4.89823e-21)
(0.453249 -0.761828 -7.45006e-21)
(0.439138 -0.286189 6.77266e-21)
(0.426451 0.218789 -1.97047e-20)
(0.470002 0.643044 3.54567e-21)
(0.506323 0.851004 2.36468e-21)
(0.613602 0.939823 6.39971e-21)
(0.669553 0.904388 2.94502e-21)
(0.72772 0.902815 -2.58339e-21)
(0.733875 0.925034 -3.04058e-22)
(0.684886 0.938092 -4.51837e-22)
(0.617802 0.954179 -3.28014e-21)
(0.570033 0.751933 6.84159e-21)
(0.47075 0.430174 -3.86122e-21)
(0.92402 -1.06099 -1.08251e-20)
(0.841871 -1.02256 -1.80938e-20)
(0.785866 -0.989499 1.55883e-21)
(0.729297 -0.948129 1.75199e-20)
(0.671953 -0.97053 1.37039e-20)
(0.568479 -1.00267 -4.4956e-21)
(0.46029 -0.953156 -4.49866e-21)
(0.360941 -0.723914 3.65912e-20)
(0.306296 -0.294473 -3.77518e-20)
(0.299237 0.162376 -2.94421e-20)
(0.356531 0.560515 1.06215e-20)
(0.420406 0.753154 3.73156e-20)
(0.56031 0.861971 -2.42451e-20)
(0.643374 0.84964 -1.4256e-20)
(0.708723 0.878736 2.46773e-20)
(0.761113 0.929992 -1.06587e-20)
(0.745731 0.95284 -2.61347e-21)
(0.693795 1.00129 2.43654e-20)
(0.695497 0.833449 -4.90783e-20)
(0.636997 0.457995 1.93658e-20)
(0.993567 -0.970793 -8.12258e-20)
(0.91071 -0.95413 1.29943e-20)
(0.833691 -0.940574 1.2056e-20)
(0.756431 -0.900438 -1.61402e-20)
(0.67492 -0.889255 9.82326e-21)
(0.552827 -0.916399 -8.91933e-21)
(0.445204 -0.874042 3.45054e-20)
(0.330081 -0.684864 3.38073e-21)
(0.259676 -0.303552 1.8291e-20)
(0.236146 0.087033 -8.23093e-21)
(0.305025 0.474016 -5.06953e-20)
(0.381077 0.64961 6.70392e-21)
(0.513121 0.784016 -1.03133e-20)
(0.640778 0.812558 2.11598e-20)
(0.709902 0.8448 -1.13725e-20)
(0.795048 0.927246 1.76475e-20)
(0.826575 1.00106 2.9583e-20)
(0.788539 1.0488 -2.38959e-20)
(0.853917 0.866218 -4.25638e-20)
(0.846172 0.485858 2.45658e-20)
(1.05503 -0.889192 -9.69514e-20)
(0.96231 -0.858887 4.54353e-20)
(0.869511 -0.848251 4.66259e-20)
(0.783389 -0.833707 -3.2458e-20)
(0.707417 -0.802927 2.55267e-20)
(0.600832 -0.81711 -3.54802e-20)
(0.463068 -0.80446 3.37508e-20)
(0.344227 -0.670279 6.7133e-21)
(0.263663 -0.326339 -4.28864e-20)
(0.230786 0.00881386 1.31831e-20)
(0.285153 0.371272 1.88694e-20)
(0.389959 0.544046 -2.56453e-20)
(0.496064 0.660063 1.22861e-20)
(0.640515 0.720005 5.03294e-21)
(0.717847 0.763785 9.9556e-21)
(0.80609 0.8664 -3.03744e-20)
(0.912955 0.965156 6.21364e-21)
(0.924536 1.03226 -1.22406e-20)
(0.991091 0.931496 6.60359e-20)
(1.02559 0.569338 -2.93544e-21)
(1.08843 -0.778896 -2.25154e-19)
(1.00064 -0.769654 1.12766e-20)
(0.938386 -0.754546 1.51327e-19)
(0.841673 -0.75882 -9.78669e-20)
(0.752083 -0.739485 -4.04283e-21)
(0.662747 -0.714187 2.36682e-20)
(0.514687 -0.707565 2.49423e-21)
(0.397194 -0.641073 -9.08976e-21)
(0.291277 -0.372364 -4.48426e-20)
(0.27936 -0.0748981 2.34181e-20)
(0.283455 0.237845 2.17094e-20)
(0.404806 0.432678 -3.30515e-21)
(0.48838 0.562332 2.62133e-20)
(0.618178 0.643509 1.08463e-20)
(0.744807 0.696099 -2.74554e-20)
(0.830964 0.770105 -1.69305e-20)
(0.974258 0.887313 1.66316e-21)
(1.03318 0.999688 -1.83031e-20)
(1.12581 0.933277 6.47446e-20)
(1.2145 0.601375 -8.00275e-20)
(1.12457 -0.685597 1.5367e-19)
(1.03321 -0.702807 -3.99494e-20)
(0.979452 -0.683067 5.07991e-20)
(0.890665 -0.671877 -2.08853e-20)
(0.802784 -0.661986 -5.60023e-20)
(0.709724 -0.623277 3.05768e-20)
(0.592951 -0.60287 -1.32117e-20)
(0.464228 -0.588874 3.67544e-20)
(0.346799 -0.410785 -4.98411e-20)
(0.327108 -0.152064 1.57676e-20)
(0.321334 0.122028 -2.25836e-20)
(0.412224 0.298803 1.12816e-20)
(0.510058 0.427832 1.09937e-20)
(0.600812 0.504886 1.08769e-20)
(0.729659 0.577698 2.41589e-21)
(0.8367 0.658317 -7.75474e-21)
(0.985385 0.783336 8.29245e-21)
(1.11708 0.91002 2.60082e-20)
(1.22527 0.907398 1.30562e-20)
(1.32158 0.682574 -1.7866e-19)
(1.1647 -0.580958 -1.02931e-20)
(1.08611 -0.608095 -4.5604e-20)
(1.01736 -0.605367 1.53043e-21)
(0.936833 -0.594117 -4.47757e-20)
(0.855702 -0.593038 4.49877e-20)
(0.762488 -0.561276 1.82374e-20)
(0.682849 -0.511049 -1.08003e-20)
(0.556594 -0.512768 -2.19806e-21)
(0.440845 -0.429817 -4.25734e-22)
(0.365285 -0.242538 -1.42174e-21)
(0.382289 0.0250393 1.15471e-21)
(0.425363 0.205997 -3.54799e-21)
(0.513202 0.357392 -9.71536e-21)
(0.570699 0.439776 1.05993e-20)
(0.698597 0.478635 -1.90145e-20)
(0.838652 0.528615 3.30682e-21)
(0.974597 0.629607 1.00043e-20)
(1.16151 0.778379 4.94438e-20)
(1.2762 0.855941 -8.41124e-21)
(1.42176 0.68926 -1.34395e-19)
(1.48919 0.288358 5.68979e-20)
(1.18571 -0.518448 -1.12789e-19)
(1.12465 -0.528914 5.08445e-20)
(1.05383 -0.53582 4.46216e-20)
(0.981605 -0.527619 -5.43896e-20)
(0.909242 -0.517681 3.46456e-20)
(0.823423 -0.512724 3.08861e-22)
(0.751904 -0.456452 -5.37439e-21)
(0.662317 -0.429224 -1.63996e-20)
(0.553039 -0.386173 2.9698e-21)
(0.436759 -0.293269 -1.49422e-21)
(0.432626 -0.0907114 -1.11202e-21)
(0.450172 0.08881 -4.71177e-22)
(0.527883 0.237034 4.31137e-21)
(0.597342 0.335755 4.68457e-21)
(0.655942 0.368895 -4.53099e-21)
(0.766046 0.418111 6.49143e-21)
(0.918983 0.498781 -5.20247e-21)
(1.13419 0.636971 -2.80059e-22)
(1.27734 0.755319 9.92374e-22)
(1.44654 0.679173 -1.14107e-20)
(1.50873 0.368491 -1.29822e-21)
(1.19439 -0.438855 2.91606e-20)
(1.14268 -0.445788 5.2563e-20)
(1.0869 -0.453488 -1.39196e-21)
(1.01709 -0.470978 1.04623e-20)
(0.95929 -0.461359 5.52842e-21)
(0.888509 -0.461478 -1.70799e-20)
(0.815766 -0.426539 1.96976e-21)
(0.756515 -0.388207 -5.25554e-21)
(0.677461 -0.337519 2.60579e-21)
(0.560899 -0.28755 1.68418e-21)
(0.497949 -0.156856 -4.55318e-24)
(0.487801 0.0251736 7.17445e-22)
(0.522259 0.172158 7.93299e-22)
(0.598225 0.30459 -5.75391e-22)
(0.630932 0.327768 -1.62326e-21)
(0.743442 0.296475 9.16598e-22)
(0.873474 0.319133 3.07272e-21)
(1.04699 0.456092 6.32276e-21)
(1.2376 0.639777 -2.98506e-20)
(1.42596 0.65588 2.85221e-20)
(1.57221 0.448587 -5.83685e-20)
(1.19879 -0.383937 2.2793e-21)
(1.15558 -0.396094 3.68918e-21)
(1.12056 -0.399364 3.71736e-20)
(1.06246 -0.417895 -4.09698e-20)
(1.01289 -0.423749 -3.06559e-20)
(0.959165 -0.424075 3.01009e-20)
(0.894271 -0.412632 -1.69215e-20)
(0.830148 -0.380614 6.29234e-21)
(0.767169 -0.322722 -2.77482e-23)
(0.67616 -0.28149 4.68707e-21)
(0.602117 -0.226741 -2.7944e-21)
(0.567267 -0.0790991 -1.18255e-20)
(0.548071 0.0612051 2.44267e-21)
(0.586327 0.22739 7.04808e-21)
(0.607169 0.304125 2.53621e-21)
(0.677104 0.276559 -1.85467e-21)
(0.791198 0.257977 1.44148e-21)
(0.952853 0.295378 -1.04103e-21)
(1.13038 0.451546 -1.01844e-20)
(1.30101 0.572266 2.79497e-20)
(1.46157 0.481621 1.14488e-20)
(1.20013 -0.287828 0)
(1.16747 -0.311673 0)
(1.14054 -0.323609 0)
(1.09883 -0.330076 0)
(1.05365 -0.33954 0)
(0.990419 -0.331707 0)
(0.942838 -0.316703 0)
(0.876715 -0.30868 0)
(0.847447 -0.264314 0)
(0.788824 -0.204192 0)
(0.717959 -0.182045 0)
(0.682961 -0.0930288 0)
(0.653365 0.0207579 0)
(0.662061 0.179971 0)
(0.655587 0.269273 0)
(0.711396 0.201214 0)
(0.815206 0.151072 0)
(0.928612 0.191521 0)
(1.07029 0.341032 0)
(1.25111 0.454413 0)
(1.4307 0.426625 0)
(1.45369 0.20487 0)
(1.16811 -0.260556 0)
(1.14518 -0.279444 0)
(1.12249 -0.305034 0)
(1.0612 -0.317009 0)
(1.01878 -0.31269 0)
(0.941855 -0.316889 0)
(0.909421 -0.310024 0)
(0.841622 -0.285572 0)
(0.803826 -0.255243 0)
(0.751287 -0.188332 0)
(0.726387 -0.15762 0)
(0.706663 -0.056993 0)
(0.68917 0.0532443 0)
(0.727041 0.193214 0)
(0.730831 0.263028 0)
(0.795628 0.170488 0)
(0.835073 0.123322 0)
(0.902188 0.112969 0)
(1.02166 0.241945 0)
(1.23593 0.359977 0)
(1.39846 0.409635 0)
(1.37406 0.220138 0)
(1.1472 -0.221466 0)
(1.12703 -0.241122 0)
(1.11371 -0.252547 0)
(1.06026 -0.261382 0)
(1.03062 -0.266917 0)
(0.974003 -0.259736 0)
(0.945143 -0.250971 0)
(0.888186 -0.219683 0)
(0.873166 -0.199802 0)
(0.814531 -0.134498 0)
(0.781944 -0.134078 0)
(0.748262 -0.0577069 0)
(0.725555 0.0284755 0)
(0.780346 0.164437 0)
(0.813159 0.252816 0)
(0.887802 0.148301 0)
(0.914975 0.109484 0)
(0.930076 0.0734838 0)
(0.998138 0.184388 0)
(1.14179 0.299256 0)
(1.25905 0.379559 0)
(1.26467 0.225811 0)
(1.12766 -0.18802 0)
(1.1073 -0.20333 0)
(1.09458 -0.222198 0)
(1.05312 -0.230224 0)
(1.02269 -0.233806 0)
(0.972786 -0.225521 0)
(0.943028 -0.222786 0)
(0.889556 -0.193872 0)
(0.870177 -0.193454 0)
(0.834621 -0.119003 0)
(0.814292 -0.120739 0)
(0.795045 -0.030206 0)
(0.76747 0.0274998 0)
(0.81078 0.124269 0)
(0.871229 0.212065 0)
(0.945064 0.105781 0)
(0.969902 0.110405 0)
(0.951326 0.0615183 0)
(0.955024 0.166176 0)
(0.995018 0.233539 0)
(1.10312 0.318618 0)
(1.22135 0.215997 0)
(1.10574 -0.162456 0)
(1.08994 -0.175551 0)
(1.07929 -0.190961 0)
(1.0463 -0.195192 0)
(1.01793 -0.201642 0)
(0.982222 -0.187915 0)
(0.946498 -0.194624 0)
(0.920527 -0.153436 0)
(0.887079 -0.161331 0)
(0.870784 -0.0887923 0)
(0.844303 -0.0975708 0)
(0.82383 -0.0256091 0)
(0.823115 0.0290108 0)
(0.833373 0.0756885 0)
(0.916486 0.167775 0)
(0.948106 0.0693994 0)
(0.978626 0.108816 0)
(0.951655 0.0663029 0)
(0.947687 0.157347 0)
(0.964429 0.200834 0)
(1.05639 0.243273 0)
(1.21308 0.176104 0)
(1.08969 -0.13816 0)
(1.07763 -0.144876 0)
(1.06632 -0.162103 0)
(1.04232 -0.159472 0)
(1.01269 -0.173656 0)
(0.987563 -0.153878 0)
(0.952673 -0.166837 0)
(0.935522 -0.12516 0)
(0.902483 -0.136569 0)
(0.894638 -0.0788755 0)
(0.87437 -0.0764165 0)
(0.854811 -0.0258636 0)
(0.869581 0.0300859 0)
(0.857308 0.0422399 0)
(0.941478 0.13203 0)
(0.940322 0.0485229 0)
(0.979318 0.111474 0)
(0.954133 0.0701261 0)
(0.968161 0.15585 0)
(1.00614 0.173596 0)
(1.06403 0.157828 0)
(1.18075 0.142181 0)
(1.07774 -0.113591 0)
(1.06748 -0.117002 0)
(1.05628 -0.134723 0)
(1.03689 -0.13003 0)
(1.01143 -0.147114 0)
(0.98889 -0.126142 0)
(0.962433 -0.142651 0)
(0.943642 -0.104016 0)
(0.925403 -0.113904 0)
(0.909422 -0.0693685 0)
(0.90722 -0.0550573 0)
(0.880623 -0.0324342 0)
(0.9049 0.0345157 0)
(0.88816 0.0151725 0)
(0.947985 0.108057 0)
(0.951895 0.0368551 0)
(0.967917 0.105014 0)
(0.977951 0.0724469 0)
(0.974706 0.122234 0)
(1.04562 0.14468 0)
(1.07189 0.124388 0)
(1.14332 0.107318 0)
(1.06774 -0.0925169 0)
(1.05882 -0.0920451 0)
(1.05048 -0.110684 0)
(1.03304 -0.103617 0)
(1.01447 -0.121405 0)
(0.991925 -0.1029 0)
(0.975001 -0.116557 0)
(0.951945 -0.0885449 0)
(0.94615 -0.0916131 0)
(0.922776 -0.0626804 0)
(0.933595 -0.0430362 0)
(0.905057 -0.0316047 0)
(0.930418 0.0269884 0)
(0.917889 0.00430734 0)
(0.952616 0.0860264 0)
(0.967065 0.0273955 0)
(0.966559 0.0940066 0)
(0.999218 0.0629529 0)
(0.987532 0.103307 0)
(1.04818 0.113525 0)
(1.06791 0.0829003 0)
(1.12537 0.0821332 0)
(1.06064 -0.0729229 0)
(1.05158 -0.0712627 0)
(1.04865 -0.0878042 0)
(1.03041 -0.0808717 0)
(1.02189 -0.0971323 0)
(0.995623 -0.0818789 0)
(0.989676 -0.0946601 0)
(0.960785 -0.0732023 0)
(0.965573 -0.0749956 0)
(0.93721 -0.0557727 0)
(0.95339 -0.0349531 0)
(0.927228 -0.0325477 0)
(0.948322 0.0205956 0)
(0.943355 -0.00302921 0)
(0.958316 0.0661598 0)
(0.985974 0.0229984 0)
(0.968566 0.0780006 0)
(1.01737 0.055865 0)
(0.993415 0.0800062 0)
(1.05566 0.0871247 0)
(1.06315 0.0677304 0)
(1.09378 0.0594865 0)
(1.05483 -0.0561234 0)
(1.04558 -0.0537663 0)
(1.04755 -0.0678872 0)
(1.02968 -0.0618762 0)
(1.02825 -0.0758478 0)
(1.00107 -0.0648439 0)
(1.00276 -0.0751162 0)
(0.972181 -0.0596261 0)
(0.982924 -0.0614983 0)
(0.952647 -0.0469126 0)
(0.971197 -0.0326096 0)
(0.946727 -0.0276249 0)
(0.964011 0.0088965 0)
(0.96228 -0.00377749 0)
(0.96806 0.0471658 0)
(0.996623 0.0181655 0)
(0.978621 0.0641212 0)
(1.02579 0.0423977 0)
(1.00276 0.068609 0)
(1.0545 0.0607174 0)
(1.04908 0.05281 0)
(1.08809 0.0421886 0)
(1.04887 -0.042507 0)
(1.04012 -0.040387 0)
(1.04558 -0.0522444 0)
(1.02882 -0.0466267 0)
(1.03226 -0.0594019 0)
(1.0074 -0.0491901 0)
(1.01328 -0.0598145 0)
(0.984842 -0.0459782 0)
(0.996707 -0.0506643 0)
(0.970035 -0.0376946 0)
(0.985614 -0.0294513 0)
(0.965178 -0.0243523 0)
(0.977298 0.00159658 0)
(0.976508 -0.00612424 0)
(0.978383 0.0317757 0)
(1.00414 0.0138249 0)
(0.986935 0.0484964 0)
(1.03015 0.0337184 0)
(1.00502 0.0529175 0)
(1.05483 0.0446028 0)
(1.03803 0.044519 0)
(1.07389 0.0301095 0)
(1.04153 -0.0326889 0)
(1.03645 -0.0309915 0)
(1.04099 -0.0403253 0)
(1.02967 -0.035583 0)
(1.0333 -0.0459856 0)
(1.01416 -0.037476 0)
(1.01947 -0.0471421 0)
(0.996249 -0.0351758 0)
(1.00723 -0.0415319 0)
(0.984401 -0.0286666 0)
(0.998241 -0.0277327 0)
(0.979364 -0.018121 0)
(0.990354 -0.0060678 0)
(0.985929 -0.004129 0)
(0.989864 0.0178667 0)
(1.0051 0.010775 0)
(0.996687 0.0353789 0)
(1.02589 0.0238934 0)
(1.01082 0.0444341 0)
(1.04523 0.029338 0)
(1.03052 0.0402311 0)
(1.06088 0.0185617 0)
(1.03648 -0.0251448 0)
(1.03307 -0.0239895 0)
(1.03758 -0.0313574 0)
(1.02905 -0.0273479 0)
(1.03267 -0.0362261 0)
(1.01804 -0.0287908 0)
(1.02248 -0.0378511 0)
(1.00504 -0.0268938 0)
(1.01321 -0.0340019 0)
(0.996543 -0.0219693 0)
(1.00631 -0.0243557 0)
(0.991953 -0.0141174 0)
(0.999396 -0.00891248 0)
(0.994328 -0.00350672 0)
(0.998022 0.00900128 0)
(1.00649 0.00816939 0)
(1.00264 0.0243736 0)
(1.02199 0.0181645 0)
(1.01108 0.034089 0)
(1.03757 0.0210437 0)
(1.02382 0.0346871 0)
(1.05016 0.0133577 0)
(1.03169 -0.0193681 0)
(1.03141 -0.0188495 0)
(1.03269 -0.024735 0)
(1.0294 -0.021374 0)
(1.02982 -0.0290346 0)
(1.02149 -0.0221093 0)
(1.02237 -0.0307258 0)
(1.01182 -0.019897 0)
(1.01577 -0.0285641 0)
(1.00509 -0.015327 0)
(1.01112 -0.0222483 0)
(1.00059 -0.00869687 0)
(1.00603 -0.0114106 0)
(1.00014 -0.000588891 0)
(1.00488 0.00252119 0)
(1.00677 0.00727367 0)
(1.00807 0.0167464 0)
(1.01661 0.0125818 0)
(1.01367 0.0282221 0)
(1.02826 0.0127857 0)
(1.02158 0.0325725 0)
(1.0392 0.00597545 0)
(1.02839 -0.0145991 0)
(1.03111 -0.0142355 0)
(1.02962 -0.0191291 0)
(1.02999 -0.0162419 0)
(1.02719 -0.0227722 0)
(1.02421 -0.0167004 0)
(1.0215 -0.0244293 0)
(1.01615 -0.015152 0)
(1.01618 -0.023282 0)
(1.01056 -0.0115635 0)
(1.01351 -0.0186642 0)
(1.00603 -0.00638713 0)
(1.01047 -0.0105232 0)
(1.00348 -0.000271992 0)
(1.01042 0.000329393 0)
(1.00627 0.00541449 0)
(1.01318 0.0121236 0)
(1.01236 0.0090098 0)
(1.01641 0.0224041 0)
(1.02149 0.00878323 0)
(1.02041 0.0271469 0)
(1.03259 0.00411111 0)
(1.02646 -0.0106274 0)
(1.03027 -0.0104304 0)
(1.02737 -0.0144265 0)
(1.02995 -0.012139 0)
(1.02591 -0.0175434 0)
(1.0253 -0.0126737 0)
(1.0207 -0.0193749 0)
(1.01847 -0.0115262 0)
(1.01686 -0.0186854 0)
(1.01403 -0.00847927 0)
(1.01512 -0.0154147 0)
(1.00973 -0.00433745 0)
(1.0129 -0.00933625 0)
(1.00662 0.000349724 0)
(1.0131 -0.000758184 0)
(1.00783 0.00436102 0)
(1.01527 0.00902439 0)
(1.01169 0.00641686 0)
(1.01711 0.0179205 0)
(1.01858 0.00567025 0)
(1.01926 0.022552 0)
(1.0284 0.00226529 0)
(1.02483 -0.00720625 0)
(1.02913 -0.00704886 0)
(1.02586 -0.0102005 0)
(1.02912 -0.00858886 0)
(1.02422 -0.0128453 0)
(1.02525 -0.0092906 0)
(1.0203 -0.0142314 0)
(1.02016 -0.00845756 0)
(1.01716 -0.0137674 0)
(1.01622 -0.00643707 0)
(1.01582 -0.0114454 0)
(1.01245 -0.00352139 0)
(1.01426 -0.00692324 0)
(1.00933 -4.47137e-05 0)
(1.01473 -0.000458297 0)
(1.00967 0.00300554 0)
(1.01664 0.0068618 0)
(1.01221 0.00475972 0)
(1.01775 0.0134696 0)
(1.01744 0.00459289 0)
(1.01892 0.016919 0)
(1.02578 0.00259215 0)
(1.02345 -0.00417092 0)
(1.02709 -0.00425092 0)
(1.02404 -0.0066058 0)
(1.02727 -0.00561897 0)
(1.02331 -0.00866341 0)
(1.02492 -0.00620263 0)
(1.02016 -0.00984383 0)
(1.02053 -0.00590803 0)
(1.01738 -0.00984915 0)
(1.01759 -0.00460833 0)
(1.01651 -0.00830089 0)
(1.01467 -0.002539 0)
(1.0152 -0.00510735 0)
(1.01208 -6.11868e-06 0)
(1.01546 -0.000420903 0)
(1.01227 0.00227456 0)
(1.01704 0.00501602 0)
(1.01402 0.00364926 0)
(1.01771 0.00994373 0)
(1.01774 0.00370459 0)
(1.01845 0.0126278 0)
(1.02407 0.00240691 0)
(1.02138 -0.00197542 0)
(1.02478 -0.00212349 0)
(1.02265 -0.00370771 0)
(1.02575 -0.00319979 0)
(1.02231 -0.00532048 0)
(1.0237 -0.00399324 0)
(1.01964 -0.00648036 0)
(1.02048 -0.00405907 0)
(1.0178 -0.00657929 0)
(1.01855 -0.00325693 0)
(1.01727 -0.00560142 0)
(1.01637 -0.00190337 0)
(1.01621 -0.00344724 0)
(1.01425 -0.000102748 0)
(1.0164 -0.000175011 0)
(1.01443 0.00170747 0)
(1.01754 0.00362494 0)
(1.01552 0.00293539 0)
(1.01771 0.00709439 0)
(1.01804 0.00331752 0)
(1.01794 0.00904003 0)
(1.02274 0.00265958 0)
(1.02047 -0.000271944 0)
(1.02319 -0.000488928 0)
(1.0214 -0.00166216 0)
(1.02377 -0.00154126 0)
(1.02112 -0.00311327 0)
(1.0225 -0.00233576 0)
(1.01939 -0.00406905 0)
(1.02027 -0.0025005 0)
(1.01804 -0.0042982 0)
(1.01895 -0.00208486 0)
(1.01771 -0.00376683 0)
(1.01744 -0.00120005 0)
(1.01682 -0.00232287 0)
(1.01589 0.000106077 0)
(1.0169 3.36383e-05 0)
(1.01606 0.00148708 0)
(1.01765 0.0027941 0)
(1.01675 0.00249217 0)
(1.01755 0.00539262 0)
(1.01831 0.00290592 0)
(1.01759 0.00690477 0)
(1.0216 0.00252341 0)
(1.01939 0.00106765 0)
(1.02142 0.000728622 0)
(1.02024 -0.000170849 0)
(1.02228 -0.000230512 0)
(1.02043 -0.0013401 0)
(1.02146 -0.000979178 0)
(1.01897 -0.00223195 0)
(1.01962 -0.00135447 0)
(1.01788 -0.00260708 0)
(1.01871 -0.00125424 0)
(1.01765 -0.0023734 0)
(1.01759 -0.000751758 0)
(1.01684 -0.00143046 0)
(1.01643 0.000163468 0)
(1.01683 0.000237665 0)
(1.0167 0.00122275 0)
(1.01743 0.00225323 0)
(1.01734 0.00211642 0)
(1.01733 0.00417489 0)
(1.01853 0.00263215 0)
(1.01747 0.00531623 0)
(1.02107 0.00255493 0)
(1.01854 0.00182731 0)
(1.02024 0.00163428 0)
(1.01956 0.000967279 0)
(1.02111 0.000897587 0)
(1.01972 2.14935e-05 0)
(1.02044 0.000177733 0)
(1.01855 -0.000774444 0)
(1.01905 -0.000263359 0)
(1.01767 -0.00117452 0)
(1.01838 -0.000385089 0)
(1.01739 -0.00116525 0)
(1.01749 -0.000249071 0)
(1.01659 -0.000634531 0)
(1.01656 0.000215347 0)
(1.01645 0.000443401 0)
(1.01682 0.000855831 0)
(1.01692 0.0018166 0)
(1.0174 0.00150612 0)
(1.01687 0.00314775 0)
(1.01841 0.00207306 0)
(1.01718 0.00396905 0)
(1.02049 0.00237312 0)
(1.01777 0.00231944 0)
(1.019 0.00220575 0)
(1.01861 0.00173527 0)
(1.01976 0.00164058 0)
(1.01887 0.00103981 0)
(1.0194 0.00106824 0)
(1.01807 0.000447723 0)
(1.01844 0.000657764 0)
(1.01743 8.48326e-05 0)
(1.01804 0.000413582 0)
(1.01721 -5.52829e-05 0)
(1.01745 0.000295335 0)
(1.01648 0.000112534 0)
(1.01673 0.000391699 0)
(1.01622 0.000642376 0)
(1.01702 0.000669843 0)
(1.01647 0.00137149 0)
(1.01745 0.00104212 0)
(1.01629 0.00212539 0)
(1.01818 0.00156405 0)
(1.01657 0.00266061 0)
(1.0197 0.00208356 0)
(1.01668 0.00245645 0)
(1.01759 0.00238621 0)
(1.01741 0.0020551 0)
(1.01835 0.001977 0)
(1.0178 0.00157192 0)
(1.01827 0.00153301 0)
(1.01733 0.0011333 0)
(1.01774 0.00116964 0)
(1.01699 0.000831581 0)
(1.01765 0.000889828 0)
(1.01692 0.000640973 0)
(1.01735 0.000664968 0)
(1.01638 0.000625283 0)
(1.01695 0.000598131 0)
(1.01619 0.00084015 0)
(1.01722 0.000671758 0)
(1.01625 0.00114924 0)
(1.01746 0.000867963 0)
(1.01596 0.00152311 0)
(1.01782 0.00129423 0)
(1.01605 0.00184143 0)
(1.01873 0.00182734 0)
(1.01571 0.00230718 0)
(1.01644 0.00225828 0)
(1.01634 0.00203668 0)
(1.01712 0.00195834 0)
(1.01673 0.0016777 0)
(1.0172 0.00160322 0)
(1.01649 0.00133462 0)
(1.01697 0.00130344 0)
(1.01634 0.00108628 0)
(1.01709 0.00105761 0)
(1.01642 0.000899224 0)
(1.01706 0.000848831 0)
(1.01611 0.000830305 0)
(1.01688 0.000765186 0)
(1.01596 0.000909086 0)
(1.01712 0.000781831 0)
(1.01601 0.00105647 0)
(1.01728 0.000911737 0)
(1.01574 0.00127709 0)
(1.01738 0.00122513 0)
(1.01576 0.00151583 0)
(1.01787 0.00163369 0)
(1.01507 0.00202218 0)
(1.01566 0.00196976 0)
(1.01553 0.00180952 0)
(1.01618 0.00171829 0)
(1.01584 0.00151771 0)
(1.01633 0.00142067 0)
(1.01575 0.00123814 0)
(1.01627 0.00116953 0)
(1.01573 0.00103145 0)
(1.01646 0.000966843 0)
(1.01584 0.000865867 0)
(1.01653 0.000794342 0)
(1.01566 0.000781779 0)
(1.01647 0.000729897 0)
(1.01559 0.000823313 0)
(1.01671 0.000771268 0)
(1.01567 0.000926661 0)
(1.01685 0.000890977 0)
(1.0155 0.00109028 0)
(1.01693 0.00114424 0)
(1.01555 0.00129611 0)
(1.01727 0.00143705 0)
(1.01449 0.00177076 0)
(1.01498 0.00172456 0)
(1.0148 0.00160221 0)
(1.01539 0.00152632 0)
(1.01508 0.00137451 0)
(1.01558 0.00128989 0)
(1.01509 0.00114918 0)
(1.01563 0.00108273 0)
(1.01513 0.000973826 0)
(1.01583 0.000912254 0)
(1.01525 0.000831493 0)
(1.01594 0.000773201 0)
(1.01518 0.000759431 0)
(1.01598 0.000729681 0)
(1.01519 0.00079301 0)
(1.01619 0.000771251 0)
(1.01528 0.000875948 0)
(1.01634 0.000871538 0)
(1.01522 0.00101293 0)
(1.01647 0.00106669 0)
(1.01532 0.00117978 0)
(1.01678 0.00127258 0)
(1.01405 0.00116171 0)
(1.01448 0.00114003 0)
(1.01427 0.0010742 0)
(1.01478 0.00103148 0)
(1.01447 0.000941288 0)
(1.01495 0.000888643 0)
(1.01452 0.000801141 0)
(1.01506 0.000760741 0)
(1.01461 0.000690763 0)
(1.01526 0.000655818 0)
(1.01473 0.000599897 0)
(1.01541 0.000571103 0)
(1.01473 0.000555283 0)
(1.01549 0.00055192 0)
(1.01477 0.000585146 0)
(1.01569 0.000592504 0)
(1.01487 0.000654371 0)
(1.01587 0.000672761 0)
(1.0149 0.000766036 0)
(1.01604 0.000814469 0)
(1.01504 0.000903013 0)
(1.01636 0.0009562 0)
(1.01379 0.000700778 0)
(1.01419 0.000685622 0)
(1.01395 0.000646595 0)
(1.01439 0.000618716 0)
(1.01408 0.000566263 0)
(1.01456 0.000533341 0)
(1.01417 0.000483538 0)
(1.01469 0.000458319 0)
(1.01426 0.000418362 0)
(1.01486 0.000395868 0)
(1.01435 0.00036244 0)
(1.015 0.00034425 0)
(1.0144 0.000333871 0)
(1.01512 0.000333894 0)
(1.01446 0.000352521 0)
(1.0153 0.000361798 0)
(1.01456 0.000395886 0)
(1.0155 0.00041293 0)
(1.01464 0.000466013 0)
(1.01572 0.000500563 0)
(1.01479 0.000553339 0)
(1.01604 0.000585813 0)
(1.01352 0.000377801 0)
(1.01389 0.000366098 0)
(1.01364 0.000345767 0)
(1.01407 0.000330439 0)
(1.01377 0.000306524 0)
(1.01424 0.000290401 0)
(1.01388 0.000267485 0)
(1.0144 0.000253996 0)
(1.01399 0.000234741 0)
(1.01457 0.000223185 0)
(1.01409 0.000207745 0)
(1.01473 0.0001988 0)
(1.01416 0.000192158 0)
(1.01488 0.00018923 0)
(1.01424 0.000193116 0)
(1.01506 0.000193651 0)
(1.01435 0.000204721 0)
(1.01526 0.000208483 0)
(1.01446 0.000226764 0)
(1.01551 0.0002353 0)
(1.01462 0.000253134 0)
(1.01583 0.000260051 0)
(1.20409 -0.0731631 -3.39012e-20)
(1.21298 -0.10607 -1.82094e-21)
(1.20018 -0.158297 -5.14921e-20)
(1.21543 -0.182123 2.97589e-20)
(1.20053 -0.258821 -2.67547e-20)
(1.16669 -0.0758816 9.45363e-21)
(1.18038 -0.0896768 -2.496e-20)
(1.16605 -0.153275 2.43577e-20)
(1.17197 -0.165132 1.40004e-20)
(1.16855 -0.230577 1.9561e-20)
(1.14464 -0.0759882 -3.51035e-21)
(1.1562 -0.0779491 6.01328e-21)
(1.1438 -0.139762 6.97515e-21)
(1.14478 -0.144441 -1.32724e-20)
(1.14567 -0.199384 -1.21848e-20)
(1.13256 -0.0665532 -7.51963e-23)
(1.13752 -0.0637826 8.99683e-22)
(1.13171 -0.117773 -3.39486e-21)
(1.12722 -0.120852 1.55897e-20)
(1.12633 -0.167424 1.58408e-20)
(1.12095 -0.0558267 4.50607e-22)
(1.11695 -0.0988053 -2.36143e-21)
(1.10969 -0.105324 -2.42978e-21)
(1.10524 -0.143135 -7.29285e-21)
(1.1056 -0.0485339 9.41052e-22)
(1.10062 -0.0835678 1.14377e-21)
(1.09568 -0.0894114 -6.38737e-22)
(1.08882 -0.12168 1.87323e-21)
(1.0942 -0.038967 -2.60913e-21)
(1.08654 -0.0673162 7.73498e-22)
(1.08615 -0.0717252 -7.26656e-22)
(1.07851 -0.0983408 -2.45632e-22)
(1.08364 -0.0306333 5.03502e-21)
(1.07526 -0.051833 -3.25732e-21)
(1.0762 -0.0572496 1.32961e-22)
(1.0694 -0.0768698 -1.04057e-21)
(1.0721 -0.0241193 -1.20791e-21)
(1.06357 -0.0396884 3.40649e-21)
(1.06599 -0.0452625 -3.76814e-21)
(1.06005 -0.0594517 4.83519e-21)
(1.05992 -0.0197431 -8.06535e-21)
(1.05307 -0.0297605 2.10751e-21)
(1.05673 -0.0354344 9.24114e-22)
(1.05209 -0.0446725 -5.01998e-21)
(1.05051 -0.0154077 5.3735e-21)
(1.04391 -0.0223651 -5.49516e-21)
(1.04888 -0.0271544 7.52293e-21)
(1.04435 -0.0334348 6.28012e-21)
(1.0424 -0.0117403 7.68425e-21)
(1.03803 -0.0170899 -1.81484e-21)
(1.04063 -0.021281 -1.12067e-20)
(1.03836 -0.0255801 -5.78705e-21)
(1.03695 -0.00853113 -1.27671e-20)