/*--------------------------------*- C++ -*----------------------------------*\
| =========                 |                                                 |
| \\      /  F ield         | OpenFOAM: The Open Source CFD Toolbox           |
|  \\    /   O peration     | Version:                                        |
|   \\  /    A nd           | Website:  www.openfoam.com                      |
|    \\/     M anipulation  |                                                 |
\*---------------------------------------------------------------------------*/
FoamFile
{
    version     2.0;
    format      ascii;
    class       surfaceScalarField;
    location    "145";
    object      phi;
}
// * * * * * * * * * * * * * * * * * * * * * * * * * * * * * * * * * * * * * //

dimensions      [0 3 -1 0 0 0 0];
oriented        oriented;


internalField   nonuniform List<scalar> 
2257
(
0.0843496
0.0346623
0.0786451
0.0367023
0.0703864
0.0409187
0.059431
0.0443822
0.0478171
0.0461149
0.0456069
0.0835456
0.0376016
0.079816
0.0404319
0.0759454
0.0447892
0.0703341
0.0499935
0.0617776
0.0546715
0.0503524
0.0570321
0.0382828
0.0563604
0.0262496
0.0532684
0.0166249
0.0474301
0.0392192
0.0978705
0.0372299
0.0960328
0.0422696
0.0923414
0.0484807
0.0874345
0.0549004
0.0812063
0.0608997
0.0727504
0.0654879
0.0610902
0.0680206
0.0473495
0.0670091
0.0307116
0.0640681
0.0546258
0.015305
0.101248
0.0322624
0.104437
0.0390809
0.105199
0.0477179
0.103732
0.0563679
0.0992456
0.0653861
0.0937968
0.0709368
0.0861505
0.0756669
0.0774351
0.0757245
0.0650316
0.0764716
0.0695903
0.0500672
0.0827734
0.0270602
0.0872262
0.0346281
0.0909568
0.0439873
0.0930682
0.0542565
0.0930666
0.0653877
0.0923167
0.0716867
0.0888911
0.0790924
0.0851596
0.079456
0.0798718
0.0817595
0.077896
0.0715661
0.0496185
0.0278113
0.0499567
0.0342899
0.0520597
0.0418844
0.0557639
0.0505523
0.0602232
0.0609283
0.0637124
0.0681975
0.0661659
0.0766389
0.0682962
0.0773256
0.0681448
0.0819109
0.0799669
0.0660739
-0.0244985
0.0278301
-0.0226821
0.0324735
-0.0188914
0.0380937
-0.0129051
0.044566
-0.00398489
0.0520081
0.00501889
0.0591937
0.0146731
0.0669848
0.0221392
0.0698595
0.0293758
0.0746742
0.0738705
0.0354723
-0.0618808
0.0338525
-0.0658589
0.0364515
-0.0671587
0.0393935
-0.0661691
0.0435764
-0.0617234
0.0475623
-0.0543316
0.051802
-0.0434397
0.0560929
-0.0323514
0.0587711
-0.0195315
0.0618543
0.0628539
-0.0085149
-0.092194
0.0348908
-0.0915613
0.0358188
-0.08895
0.0367823
-0.0850526
0.0396791
-0.0804098
0.0429195
-0.0750313
0.0464235
-0.0679825
0.0490441
-0.0593943
0.050183
-0.0482168
0.0506767
0.050851
-0.0362139
-0.105528
0.0326008
-0.10284
0.0331304
-0.0993074
0.0332501
-0.094221
0.0345927
-0.0879445
0.0366429
-0.0810987
0.0395777
-0.0749092
0.0428546
-0.0698819
0.0451557
-0.0651679
0.0459626
0.0461209
-0.0604377
-0.0860396
0.0291696
-0.0829494
0.0300402
-0.0802388
0.0305395
-0.0766174
0.0309713
-0.0716788
0.0317043
-0.0647934
0.0326923
-0.056753
0.0348142
-0.0486529
0.0370556
-0.0422281
0.0395379
0.0418936
-0.0380007
-0.108988
0.0300366
-0.108855
0.0299064
-0.107446
0.0291308
-0.104741
0.0282664
-0.100824
0.0277868
-0.0949009
0.0267697
-0.086522
0.0264353
-0.0753885
0.0259221
-0.0625239
0.0266733
0.029305
-0.0499354
-0.0254469
0.0321646
-0.0282923
0.0327519
-0.0318095
0.0326479
-0.0369127
0.0333696
-0.0433757
0.0342498
-0.0504137
0.0338077
-0.0579384
0.0339601
-0.0643052
0.0322889
-0.0688846
0.0312526
0.0302042
-0.0697837
0.0212078
0.0370959
0.0173939
0.0365658
0.0140234
0.0360184
0.0109581
0.036435
0.00807707
0.0371308
0.00358332
0.0383015
-0.00254643
0.0400898
-0.0111609
0.0409034
-0.0224375
0.0425292
0.0414512
-0.0336846
0.0583334
0.039823
0.0561044
0.0387948
0.0528533
0.0392695
0.0500017
0.0392866
0.0474922
0.0396403
0.044785
0.0410087
0.0424337
0.0424412
0.0390214
0.0443156
0.0346705
0.04688
0.0479642
0.0281576
0.140706
0.0386893
0.140984
0.0385174
0.140255
0.0399983
0.138841
0.0407007
0.135967
0.0425141
0.13299
0.0439853
0.129719
0.0457128
0.126739
0.0472949
0.124326
0.0492928
0.0504917
0.121799
0.100983
0.0383523
0.101212
0.0382887
0.102069
0.0391414
0.102854
0.0399152
0.10346
0.0419078
0.103796
0.0436501
0.103392
0.0461163
0.102785
0.0479018
0.101927
0.050151
0.0513369
0.101082
0.0850032
0.0423119
0.0803554
0.0429365
0.0755615
0.0439353
0.0706192
0.0448575
0.0663225
0.0462045
0.0621656
0.0478071
0.0585481
0.0497338
0.0548211
0.0516288
0.0516451
0.053327
0.0545501
0.0484319
0.0135761
0.0471176
0.00840215
0.0481105
0.00362943
0.048708
-0.00102325
0.0495102
-0.00463395
0.0498152
-0.0073421
0.0505152
-0.00852616
0.0509179
-0.00923284
0.0523355
-0.00910793
0.0532021
0.0543435
-0.00890129
-0.110092
0.0477883
-0.110668
0.0486869
-0.110823
0.0488625
-0.110896
0.0495836
-0.110542
0.0494617
-0.109874
0.049847
-0.108379
0.0494226
-0.105676
0.0496325
-0.10174
0.0492662
0.0496847
-0.0970812
-0.109902
0.0481066
-0.110173
0.0489572
-0.110459
0.0491487
-0.11071
0.0498347
-0.111127
0.0498792
-0.11157
0.0502896
-0.112025
0.0498778
-0.111938
0.0495453
-0.110985
0.0483137
0.0472457
-0.108546
-0.151983
0.0491028
-0.15234
0.0493141
-0.152239
0.049047
-0.151526
0.0491225
-0.150403
0.0487563
-0.148832
0.0487184
-0.147029
0.0480747
-0.144842
0.0473582
-0.142531
0.0460027
0.0447742
-0.14006
-0.0780127
0.0522182
-0.0804145
0.0517159
-0.0823513
0.0509838
-0.0834329
0.050204
-0.0838137
0.0491371
-0.0832172
0.0481219
-0.0818538
0.0467114
-0.080045
0.0455494
-0.0781637
0.0441215
0.0426569
-0.0760465
0.105512
0.0532606
0.10421
0.0530182
0.102389
0.0528045
0.100406
0.0521867
0.0981268
0.0514166
0.096087
0.0501617
0.094049
0.0487494
0.092477
0.0471214
0.0910673
0.0455312
0.0435774
0.0901468
0.116037
0.0538456
0.115785
0.0532707
0.11567
0.0529193
0.115647
0.0522098
0.115431
0.0516321
0.115056
0.0505372
0.114174
0.0496316
0.113068
0.0482269
0.111454
0.0471458
0.0456463
0.109385
0.154524
0.0537803
0.154711
0.0530839
0.154923
0.0527066
0.154823
0.0523096
0.154256
0.0521996
0.152899
0.0518943
0.150802
0.051728
0.147795
0.051234
0.143903
0.0510379
0.0505572
0.138992
0.0650073
0.0566538
0.0610562
0.0570349
0.0564039
0.057359
0.0511778
0.0575356
0.0457014
0.0576761
0.039879
0.0577167
0.0339312
0.0576758
0.027662
0.0575033
0.0213609
0.0573389
0.0570523
0.0148659
-0.196686
0.0567635
-0.196859
0.057208
-0.19688
0.0573809
-0.196858
0.0575128
-0.196552
0.0573704
-0.196059
0.0572242
-0.19519
0.0568067
-0.194085
0.0563983
-0.192462
0.0557155
0.0549222
-0.190332
-0.137874
0.0551162
-0.135758
0.0550918
-0.133104
0.0547268
-0.129978
0.0543869
-0.126378
0.0537703
-0.122286
0.0531325
-0.117644
0.0521645
-0.112442
0.051197
-0.106645
0.0499181
0.0485793
-0.100302
0.019201
0.0214052
0.0236559
0.0260396
0.0285293
0.0311441
0.0338512
0.0366748
0.0395149
0.042386
0.00531299
0.0407269
0.00774113
0.0489736
0.00912656
0.0583963
0.00882975
0.0654325
0.00780948
0.070665
0.0062555
0.0760395
0.00496705
0.0812803
0.00355609
0.0874975
0.00253527
0.093915
0.00156547
0.101038
0.0010037
0.108359
0.000626753
0.116197
0.00039392
0.124468
0.000185481
0.133265
1.81456e-05
0.142607
-0.000103185
0.152597
-0.000158158
0.163287
-0.000155855
0.174715
-0.000120745
0.186896
-7.46568e-05
0.199869
-3.42768e-05
0.213694
-5.32725e-07
0.228441
2.24519e-05
0.244184
3.61663e-05
0.261004
4.07011e-05
0.278985
3.4608e-05
0.298212
2.04382e-05
0.318786
0.340837
0.00547162
0.0446829
-0.00378194
0.0462204
-0.00980974
0.0467547
-0.0108774
0.0500413
-0.0084419
0.0559608
-0.0058871
0.0628777
-0.00373515
0.0685131
-0.00188024
0.0741846
-0.00099494
0.080395
-0.00057568
0.0870783
-0.000704699
0.094044
-0.000830243
0.101163
-0.00107771
0.108606
-0.00121843
0.116338
-0.00120926
0.124459
-0.00107688
0.133133
-0.000901773
0.142432
-0.000727989
0.152423
-0.00057519
0.163135
-0.00044602
0.174586
-0.000330822
0.18678
-0.00023011
0.199769
-0.000140998
0.213605
-7.09274e-05
0.228371
-1.88718e-05
0.244132
1.46037e-05
0.260971
2.96485e-05
0.27897
2.95404e-05
0.298213
1.86012e-05
0.318797
0.340855
0.0425912
0.0521588
0.0341074
0.0547042
0.0257379
0.0551242
0.0185462
0.057233
0.0126439
0.061863
0.00972827
0.0657934
0.00806817
0.0701732
0.00701762
0.0752352
0.00567156
0.081741
0.00473671
0.0880131
0.00385488
0.0949259
0.00311863
0.101899
0.00259281
0.109132
0.00219485
0.116736
0.00173927
0.124915
0.0012672
0.133605
0.0008157
0.142883
0.000460107
0.152779
0.000219909
0.163375
9.6407e-05
0.174709
4.22836e-05
0.186835
2.96666e-05
0.199781
2.97314e-05
0.213605
3.89702e-05
0.228362
4.90243e-05
0.244122
5.44563e-05
0.260965
5.40177e-05
0.27897
4.39896e-05
0.298223
2.52157e-05
0.318816
0.340881
0.0641693
0.0595557
0.0547009
0.0641726
0.0433271
0.066498
0.0311174
0.0694427
0.02129
0.0716904
0.0161877
0.0708957
0.0132131
0.0731477
0.0102928
0.0781555
0.0076645
0.0843694
0.00506071
0.0906169
0.00292905
0.0970575
0.00130213
0.103526
9.99569e-05
0.110334
-0.000632476
0.117468
-0.000861702
0.125144
-0.000840159
0.133584
-0.000694736
0.142738
-0.000570441
0.152655
-0.000457279
0.163262
-0.000362819
0.174615
-0.000266089
0.186738
-0.0001755
0.199691
-9.32754e-05
0.213523
-2.89447e-05
0.228297
1.53674e-05
0.244078
4.21538e-05
0.260938
5.04801e-05
0.278962
4.36245e-05
0.298229
2.58734e-05
0.318834
0.340907
0.0584471
0.0671824
0.0499163
0.0727033
0.0398635
0.0765509
0.0297477
0.0795585
0.0221013
0.0793368
0.0160291
0.0769679
0.011336
0.0778409
0.00740432
0.0820871
0.00539527
0.0863784
0.00392208
0.0920901
0.00333611
0.0976435
0.0030219
0.103841
0.00288799
0.110468
0.00268616
0.11767
0.00220714
0.125623
0.00169385
0.134097
0.00115263
0.143279
0.000742715
0.153064
0.000444179
0.16356
0.000271521
0.174787
0.00017238
0.186837
0.000124428
0.199739
0.000100544
0.213547
9.33553e-05
0.228304
9.44081e-05
0.244077
9.17399e-05
0.260941
8.31935e-05
0.278971
6.47235e-05
0.298248
3.59818e-05
0.318863
0.340943
0.0312537
0.071401
0.0274222
0.0765348
0.0244426
0.0795305
0.0233212
0.0806799
0.023811
0.0788469
0.0217639
0.079015
0.0183871
0.0812177
0.01433
0.0861442
0.0102387
0.0904697
0.00704586
0.095283
0.004357
0.100332
0.00224039
0.105957
0.000842132
0.111867
-5.41517e-05
0.118566
-0.00031353
0.125883
-0.000371883
0.134155
-0.000294074
0.143201
-0.000247298
0.153018
-0.000196673
0.16351
-0.000151203
0.174742
-8.9077e-05
0.186775
-2.67546e-05
0.199676
3.06609e-05
0.213489
7.32438e-05
0.228262
9.65186e-05
0.244054
0.000104615
0.260933
9.69845e-05
0.278978
7.48778e-05
0.29827
4.17438e-05
0.318896
0.340984
-0.00848788
0.071374
-0.00622944
0.0742764
-0.0043899
0.077691
-0.00249708
0.0787871
-0.00226297
0.0786128
-0.00359305
0.0803451
-0.00478367
0.0824083
-0.00434902
0.0857096
-0.00427377
0.0903945
-0.00302823
0.0940374
-0.00195075
0.0992549
-0.000601032
0.104607
0.000251008
0.111015
0.000758041
0.118059
0.00080179
0.125839
0.000701653
0.134255
0.000524125
0.143379
0.000392142
0.15315
0.000281453
0.16362
0.000213612
0.17481
0.000167374
0.186821
0.00014631
0.199697
0.000140114
0.213495
0.000141852
0.22826
0.000146391
0.244049
0.000141748
0.260938
0.000124741
0.278995
9.50023e-05
0.2983
5.20668e-05
0.318939
0.341036
-0.0270604
0.0622204
-0.0172133
0.0644293
-0.00900351
0.0694813
-0.00191534
0.0716989
0.00142227
0.0752752
0.00281407
0.0789533
0.00185145
0.083371
0.0014905
0.0860705
0.00136194
0.090523
0.000914049
0.0944853
0.000580782
0.0995882
0.00021477
0.104973
1.99404e-05
0.111209
2.32211e-05
0.118056
0.000114364
0.125748
0.000158622
0.134211
0.000182795
0.143354
0.000159002
0.153173
0.000150506
0.163629
0.000148048
0.174812
0.000162874
0.186806
0.000179776
0.199681
0.000191901
0.213483
0.000198715
0.228253
0.000193379
0.244054
0.000178429
0.260953
0.000152158
0.279022
0.000112268
0.29834
6.08679e-05
0.31899
0.341097
-0.0546549
0.0564375
-0.0483167
0.0580912
-0.0427183
0.0638828
-0.0352863
0.0642669
-0.0288416
0.0688305
-0.0213866
0.0714983
-0.0173958
0.0793802
-0.0134454
0.0821201
-0.0109697
0.0880473
-0.00860832
0.0921239
-0.0066163
0.0975961
-0.00505254
0.10341
-0.0037896
0.109946
-0.00291353
0.11718
-0.00218225
0.125016
-0.00155366
0.133582
-0.00102519
0.142826
-0.000615068
0.152763
-0.000331892
0.163346
-0.000151757
0.174632
-3.41091e-05
0.186689
4.86376e-05
0.199598
0.000113453
0.213419
0.000156188
0.22821
0.00017985
0.244031
0.00018185
0.260951
0.000161207
0.279042
0.000122197
0.298379
6.69272e-05
0.319045
0.341164
-0.0330304
0.0514672
-0.0288311
0.0538919
-0.026066
0.0611178
-0.023734
0.0619349
-0.0237075
0.068804
-0.0222201
0.0700109
-0.0196417
0.0768018
-0.0156137
0.078092
-0.0109277
0.0833613
-0.00762879
0.0888251
-0.00462385
0.0945912
-0.00235003
0.101136
-0.000804451
0.108401
0.000280279
0.116095
0.000688562
0.124608
0.000771744
0.133499
0.000667008
0.142931
0.000574208
0.152856
0.000495846
0.163424
0.000445853
0.174682
0.000400245
0.186734
0.000363263
0.199635
0.000329217
0.213453
0.000303047
0.228237
0.000276652
0.244057
0.000244224
0.260983
0.000203083
0.279083
0.000148055
0.298434
7.9475e-05
0.319114
0.341244
-0.0400981
0.0416299
-0.0322856
0.0460794
-0.0235364
0.0523686
-0.0169141
0.0553126
-0.0123658
0.0642557
-0.0106999
0.068345
-0.0110516
0.0771536
-0.0104975
0.077538
-0.00971044
0.0825742
-0.00878115
0.0878958
-0.00812072
0.0939308
-0.00748803
0.100503
-0.00678079
0.107694
-0.00594454
0.115259
-0.00475046
0.123414
-0.00355442
0.132303
-0.00244641
0.141823
-0.00160098
0.152011
-0.00097552
0.162798
-0.000552169
0.174259
-0.00025525
0.186437
-5.07404e-05
0.19943
9.26396e-05
0.213309
0.000179456
0.22815
0.000220504
0.244016
0.000226962
0.260977
0.000201826
0.279108
0.000152128
0.298483
8.33335e-05
0.319183
0.341327
-0.0664958
0.0383419
-0.0634584
0.043042
-0.0588708
0.047781
-0.0551547
0.0515964
-0.0477757
0.0568767
-0.0391952
0.0597645
-0.029144
0.0671024
-0.0210493
0.0694432
-0.014898
0.0764229
-0.00969567
0.0826934
-0.00517174
0.0894068
-0.00223156
0.097563
5.76312e-05
0.105404
0.00117098
0.114145
0.00142126
0.123164
0.00125475
0.13247
0.000978914
0.142098
0.000779858
0.15221
0.000646523
0.162932
0.000554709
0.174351
0.000475478
0.186517
0.0004148
0.199491
0.000372847
0.213351
0.000344678
0.228178
0.000322584
0.244038
0.000290185
0.261009
0.000243608
0.279155
0.000179194
0.298548
9.6565e-05
0.319265
0.341424
-0.0363143
0.0409717
-0.0387259
0.0454536
-0.0413143
0.0503693
-0.0445787
0.0548609
-0.04516
0.057458
-0.0426277
0.0572322
-0.03296
0.0574347
-0.0232843
0.0597675
-0.0146314
0.06777
-0.00960815
0.0776702
-0.00728269
0.0870814
-0.00548338
0.0957637
-0.00487276
0.104794
-0.00416384
0.113436
-0.00339605
0.122396
-0.00263216
0.131706
-0.00193153
0.141398
-0.00134277
0.151621
-0.000849266
0.162438
-0.000456337
0.173958
-0.000152695
0.186213
6.14451e-05
0.199277
0.000200092
0.213213
0.000277821
0.2281
0.000304267
0.244012
0.000295621
0.261018
0.000256979
0.279194
0.00019075
0.298614
0.000103613
0.319353
0.341527
0.0286247
0.0405045
0.0289699
0.0451085
0.0287702
0.050569
0.0285762
0.0550549
0.0264718
0.0595624
0.0220132
0.0616909
0.0163525
0.0630953
0.0096086
0.0665114
0.00442265
0.072956
0.0023182
0.0797746
0.00178307
0.0876165
0.00184265
0.0957042
0.00191721
0.104719
0.00179635
0.113557
0.00136495
0.122827
0.00102152
0.132049
0.000674629
0.141745
0.000477049
0.151819
0.000349851
0.162565
0.000299792
0.174008
0.000284727
0.186228
0.000300822
0.199261
0.000332047
0.213181
0.000357522
0.228075
0.000367414
0.244002
0.000348607
0.261036
0.000298783
0.279243
0.000221824
0.298691
0.000119847
0.319454
0.341647
0.123406
0.0388976
0.124289
0.044225
0.124889
0.0499695
0.12426
0.0556841
0.12051
0.0633121
0.110829
0.0713719
0.0938298
0.0800945
0.0731601
0.0871812
0.0532775
0.0928385
0.0380549
0.0949973
0.026715
0.0989564
0.0175035
0.104916
0.0113074
0.110915
0.00675332
0.118111
0.00410264
0.125478
0.00233419
0.133818
0.001428
0.142651
0.000893371
0.152353
0.000661652
0.162797
0.000578908
0.17409
0.000574921
0.186232
0.000587739
0.199248
0.000583769
0.213185
0.000566622
0.228092
0.000529399
0.244039
0.000470236
0.261096
0.000389084
0.279325
0.00028174
0.298798
0.000150139
0.319586
0.341797
0.0954885
0.044491
0.0884924
0.051221
0.0801946
0.0582673
0.0700325
0.0658462
0.0589371
0.0744075
0.0465803
0.0837286
0.0355353
0.0911395
0.025739
0.0969776
0.0190455
0.099532
0.012194
0.101849
0.00749275
0.103658
0.00396824
0.10844
0.00136006
0.113524
-8.91219e-05
0.119561
-0.000886459
0.126275
-0.00102796
0.133959
-0.000957516
0.14258
-0.000731795
0.152128
-0.000472354
0.162538
-0.000203141
0.173821
5.24204e-05
0.185976
0.000266576
0.199034
0.000430823
0.213021
0.000525398
0.227997
0.000552545
0.244012
0.000524319
0.261124
0.000445096
0.279404
0.000326417
0.298917
0.000175048
0.319737
0.341972
0.0391832
0.0537398
0.0296764
0.0607278
0.0199092
0.0680344
0.0108612
0.0748942
0.00334355
0.0819252
-0.000607594
0.0876798
-0.000698296
0.0912302
0.00111406
0.0951652
0.00477284
0.0958732
0.00560064
0.101021
0.00639196
0.102866
0.00684546
0.107987
0.0066765
0.113692
0.00652242
0.119715
0.00574004
0.127058
0.00478728
0.134912
0.00378308
0.143585
0.00292955
0.152981
0.00225369
0.163214
0.00179687
0.174278
0.00148854
0.186285
0.001293
0.199229
0.00114838
0.213166
0.00102835
0.228117
0.00091463
0.244126
0.000784287
0.261254
0.000629903
0.279558
0.000447662
0.299099
0.000235442
0.31995
0.342208
-0.0127836
0.0576221
-0.0156387
0.063583
-0.0177725
0.0701683
-0.0190954
0.0762171
-0.0188312
0.0816609
-0.0168248
0.0856734
-0.014998
0.0894034
-0.0125836
0.0927508
-0.0112691
0.0945586
-0.00910249
0.0988544
-0.0105038
0.104268
-0.0096061
0.107089
-0.00933469
0.113421
-0.00843771
0.118818
-0.00678057
0.125401
-0.00500241
0.133134
-0.00321225
0.141794
-0.00179429
0.151563
-0.000717596
0.162137
2.01886e-05
0.17354
0.000529628
0.185775
0.000849774
0.198909
0.00101715
0.212998
0.00107129
0.228063
0.00102859
0.244168
0.000915986
0.261367
0.000748946
0.279725
0.000534225
0.299314
0.00028215
0.320202
0.34249
-0.0946562
0.055197
-0.0909878
0.0599146
-0.0856933
0.0648737
-0.0791959
0.0697198
-0.0716387
0.0741037
-0.0642141
0.0782487
-0.0569294
0.0821188
-0.0478511
0.0836725
-0.0413993
0.0881069
-0.0302452
0.0877002
-0.0224175
0.0964401
-0.0148509
0.0995223
-0.00812536
0.106696
-0.00337942
0.114072
-0.000678085
0.122699
0.000841848
0.131614
0.00145367
0.141183
0.00173122
0.151286
0.00182553
0.162043
0.00185893
0.173507
0.00185443
0.18578
0.001812
0.198952
0.00174032
0.21307
0.00162197
0.228182
0.00145876
0.244331
0.00125121
0.261574
0.000995788
0.279981
0.00069943
0.29961
0.000365839
0.320535
0.342856
-0.106059
0.0527099
-0.10224
0.056096
-0.0965782
0.0592114
-0.0889598
0.0621013
-0.0799354
0.0650794
-0.069416
0.0677292
-0.0584718
0.0711746
-0.045503
0.0707036
-0.0346034
0.0772073
-0.0246414
0.0777382
-0.0167731
0.0885718
-0.0117819
0.0945311
-0.00805742
0.102971
-0.00507853
0.111093
-0.00258394
0.120205
-0.000728421
0.129758
0.000643664
0.139811
0.00154588
0.150383
0.00208917
0.161499
0.00235258
0.173243
0.00241902
0.185713
0.00237082
0.199
0.00223956
0.213201
0.00205025
0.228371
0.0018157
0.244566
0.00153289
0.261857
0.00120907
0.280305
0.000843555
0.299976
0.000439401
0.32094
0.343295
-0.1352
0.0478505
-0.129584
0.0504794
-0.123392
0.0530194
-0.116096
0.0548053
-0.107745
0.0567283
-0.0970773
0.0570619
-0.0847608
0.0588582
-0.0712298
0.0571726
-0.0558275
0.0618051
-0.0423813
0.064292
-0.0299537
0.0761441
-0.020727
0.0853044
-0.0143342
0.0965783
-0.00976228
0.106521
-0.0063004
0.116743
-0.00362314
0.127081
-0.00154842
0.137736
4.10649e-05
0.148794
0.00118968
0.160351
0.00193185
0.172501
0.00235247
0.185293
0.00251428
0.198838
0.00249521
0.21322
0.00235242
0.228514
0.00210717
0.244811
0.00178931
0.262175
0.00141134
0.280682
0.000982512
0.300405
0.000511298
0.321411
0.343806
-0.0676705
0.0394745
-0.0584879
0.0412968
-0.0485718
0.0431033
-0.0374982
0.0437318
-0.0254209
0.044651
-0.0125219
0.0441629
0.000541003
0.0457952
0.0106473
0.0470663
0.0192059
0.0532464
0.0228082
0.0606897
0.0246291
0.0743233
0.0227709
0.0871626
0.0214524
0.0978968
0.0192237
0.10875
0.0163377
0.119629
0.01323
0.130189
0.0104649
0.140501
0.00833754
0.150921
0.00677333
0.161915
0.00567757
0.173597
0.00486038
0.18611
0.00421
0.199488
0.00367683
0.213753
0.00318569
0.229005
0.00271218
0.245285
0.00223028
0.262657
0.00172277
0.28119
0.00118568
0.300942
0.000612357
0.321984
0.344419
0.0937437
0.0358775
0.0979607
0.0370798
0.10257
0.0384939
0.106737
0.0395649
0.109976
0.041412
0.110301
0.0438377
0.107037
0.049059
0.0976813
0.0564225
0.0842163
0.0667115
0.0653264
0.0795796
0.0468066
0.0928431
0.0303179
0.103651
0.0178325
0.110382
0.0100785
0.116504
0.00637246
0.123335
0.00472792
0.131833
0.00434259
0.140886
0.00427351
0.15099
0.00434217
0.161846
0.0043676
0.173572
0.00428329
0.186194
0.00409994
0.199672
0.00380033
0.214053
0.00341321
0.229392
0.00296282
0.245735
0.00245441
0.263165
0.00190279
0.281742
0.00131017
0.301534
0.000676304
0.322618
0.345095
0.107049
0.0382136
0.103481
0.0406476
0.0983057
0.0436691
0.0908179
0.0470526
0.0810193
0.0512106
0.0686764
0.0561807
0.0551161
0.0626192
0.0415803
0.0699583
0.0305219
0.0777699
0.0215792
0.0885222
0.0187149
0.0957074
0.0170782
0.105288
0.0155327
0.111928
0.0140047
0.118032
0.0117855
0.125554
0.0102908
0.133328
0.00892672
0.14225
0.00790973
0.152007
0.00709362
0.162662
0.00637912
0.174286
0.00577717
0.186796
0.00522034
0.200229
0.00466204
0.214611
0.00409423
0.22996
0.00349264
0.246337
0.00286051
0.263797
0.0021985
0.282404
0.00150333
0.30223
0.000773155
0.323348
0.345868
0.131533
0.0456727
0.122355
0.0498255
0.111356
0.054668
0.0986046
0.0598044
0.0844826
0.0653325
0.0696258
0.0710375
0.0549662
0.0772788
0.041279
0.0836455
0.0288466
0.0902023
0.019155
0.0982138
0.0151596
0.0997027
0.0153206
0.105127
0.0147359
0.112512
0.0149363
0.117831
0.0145267
0.125964
0.0136162
0.134239
0.0123686
0.143498
0.011057
0.153319
0.00974337
0.163976
0.0085964
0.175433
0.00760837
0.187784
0.00670278
0.201134
0.00585443
0.21546
0.00502971
0.230785
0.00421352
0.247153
0.00340488
0.264606
0.00258925
0.283219
0.00175933
0.303059
0.000901013
0.324206
0.346769
0.00593232
0.0546063
-0.0030877
0.0588455
-0.0117444
0.0633247
-0.0197571
0.0678172
-0.0268763
0.0724517
-0.0327541
0.0769154
-0.0369947
0.0815193
-0.0395233
0.0861741
-0.0403678
0.0910468
-0.0375849
0.0954309
-0.035962
0.0980798
-0.0276536
0.0968187
-0.0222328
0.107092
-0.0161503
0.111749
-0.00968182
0.119495
-0.00410862
0.128665
0.000442958
0.138946
0.00364199
0.15012
0.00559277
0.162025
0.00654922
0.174477
0.00678187
0.187552
0.00655604
0.20136
0.00605008
0.215966
0.00536401
0.231471
0.00457969
0.247937
0.00373519
0.265451
0.00285301
0.284101
0.00194148
0.303971
0.000994172
0.325154
0.347763
-0.187218
0.0514926
-0.182882
0.0545099
-0.176976
0.0574187
-0.16932
0.0601606
-0.159519
0.0626509
-0.147243
0.0646389
-0.131727
0.066004
-0.112447
0.0668934
-0.0884597
0.0670598
-0.0598094
0.0667807
-0.0341389
0.0724093
-0.01234
0.0750198
0.0039531
0.0907984
0.0127983
0.102904
0.0165038
0.11579
0.016979
0.12819
0.0161564
0.139769
0.0148602
0.151416
0.0135304
0.163355
0.0121886
0.175818
0.0107932
0.188947
0.0094146
0.202739
0.00808305
0.217297
0.00682432
0.232729
0.00563691
0.249125
0.0044967
0.266591
0.00338714
0.285211
0.00228334
0.305075
0.0011636
0.326273
0.348927
-0.0919874
0.0431777
-0.0823515
0.044874
-0.0712239
0.0462911
-0.0585556
0.0474923
-0.0443086
0.0484038
-0.0286385
0.0489688
-0.0117905
0.049156
0.00564665
0.0494563
0.0230622
0.0496442
0.0381714
0.0516715
0.0505572
0.0600235
0.0534826
0.0720945
0.0534222
0.0908588
0.0484663
0.107859
0.0416464
0.12261
0.0348412
0.134995
0.028649
0.145961
0.0234235
0.156642
0.0191933
0.167585
0.0158186
0.179193
0.0131602
0.191605
0.0110204
0.204878
0.00922798
0.21909
0.00767773
0.23428
0.00628077
0.250522
0.00498241
0.267889
0.0037394
0.286454
0.00251571
0.306298
0.00128103
0.327508
0.350208
0.0456431
0.0492011
0.0529757
0.056906
0.0607881
0.0642771
0.0668205
0.0676593
0.0657419
0.0596943
0.0519943
0.0433492
0.0361593
0.0309171
0.027136
0.0242116
0.0216027
0.0191471
0.0168281
0.0146774
0.012727
0.0109635
0.00936396
0.00789052
0.00650725
0.00518637
0.00390229
0.00262832
0.00133942
)
;

boundaryField
{
    outlet
    {
        type            calculated;
        value           nonuniform List<scalar> 
40
(
0.0530679
0.0528876
0.0524761
0.0520031
0.0512806
0.0505176
0.0494574
0.0483735
0.0470779
0.0457082
0.0399206
0.0413161
0.0425165
0.043562
0.0445217
0.0454798
0.0466126
0.0486175
0.0515616
0.057719
0.0677235
0.0807396
0.0980487
0.113102
0.126391
0.13792
0.14857
0.159097
0.169904
0.181344
0.193556
0.206642
0.220689
0.235753
0.251905
0.26921
0.287738
0.307572
0.328797
0.351547
)
;
    }
    upperWall
    {
        type            symmetryPlane;
        value           nonuniform 0();
    }
    lowerWall
    {
        type            symmetryPlane;
        value           uniform 0;
    }
    inlet
    {
        type            calculated;
        value           nonuniform 0();
    }
    cylinder
    {
        type            calculated;
        value           nonuniform 0();
    }
    frontAndBack
    {
        type            empty;
        value           nonuniform 0();
    }
    procBoundary3to2
    {
        type            processor;
        value           nonuniform List<scalar> 
43
(
-0.0304198
-0.0309978
-0.03266
-0.0334268
-0.034501
-0.0349546
0.0371648
-0.0442908
-0.0412352
-0.0378055
-0.0341203
0.011526
-0.041308
-0.0514018
-0.0597817
-0.0651357
-0.0696447
-0.0744856
-0.0799918
-0.0860866
-0.0928942
-0.100068
-0.107797
-0.11582
-0.124236
-0.133057
-0.142439
-0.152476
-0.163232
-0.174717
-0.186931
-0.199916
-0.213735
-0.228475
-0.244207
-0.261018
-0.27899
-0.298206
-0.318772
-0.340816
-0.0348495
-0.00473188
-0.0369668
)
;
    }
    procBoundary3to7
    {
        type            processor;
        value           nonuniform List<scalar> 
30
(
-0.0885921
-0.0864848
-0.0974988
-0.0962806
-0.0775712
-0.0503695
0.0244796
0.0558584
0.0911557
0.107818
0.0894708
0.108121
0.0233188
-0.0261391
-0.0610605
-0.139573
-0.100646
-0.0889628
-0.0183819
0.109421
0.109584
0.150987
0.0748973
-0.106554
-0.116622
-0.154458
-0.0678808
0.196576
0.139521
-0.0171528
)
;
    }
}


// ************************************************************************* //
