/*--------------------------------*- C++ -*----------------------------------*\
| =========                 |                                                 |
| \\      /  F ield         | OpenFOAM: The Open Source CFD Toolbox           |
|  \\    /   O peration     | Version:                                        |
|   \\  /    A nd           | Website:  www.openfoam.com                      |
|    \\/     M anipulation  |                                                 |
\*---------------------------------------------------------------------------*/
FoamFile
{
    version     2.0;
    format      ascii;
    class       surfaceScalarField;
    location    "89.7";
    object      phi;
}
// * * * * * * * * * * * * * * * * * * * * * * * * * * * * * * * * * * * * * //

dimensions      [0 3 -1 0 0 0 0];
oriented        oriented;


internalField   nonuniform List<scalar> 
2227
(
0.00277342
0.0481268
-0.0511616
0.00578411
0.0478661
-0.0508768
0.00876895
0.04732
-0.0503048
0.0117112
0.0464316
-0.0493738
0.0145725
0.0452741
-0.0481355
-0.0464655
0.0026794
0.0451909
0.00559413
0.0449514
0.00849101
0.0444231
0.0113472
0.00260809
0.00545776
-0.000263139
0.0538672
-0.00102704
0.0537969
-0.00167947
0.0536854
-0.00217975
0.0535333
-0.00248912
0.0533424
-0.00257389
0.0531178
-0.00240514
0.0528642
-0.00195465
0.0525825
-0.00118972
0.0522681
0.0519461
-0.000102821
0.000204988
0.0537046
0.00036516
0.0536367
0.000527912
0.0535227
0.000694692
0.0533665
0.000861808
0.0531753
0.00102763
0.0529519
0.0011825
0.0527094
0.00130802
0.052457
0.00137593
0.0522002
0.0519035
0.00141851
-0.00288661
0.0546297
-0.00388473
0.0546348
-0.00492036
0.0545583
-0.00596026
0.0544064
-0.0069591
0.0541741
-0.00787619
0.053869
-0.00864873
0.0534819
-0.00921135
0.0530196
-0.00948389
0.0524727
0.0518925
-0.00947286
-0.00107769
0.0545032
-0.000906903
0.0544641
-0.000667341
0.0543187
-0.00032472
0.0540638
0.000147382
0.053702
0.00079191
0.0532245
0.0016349
0.0526389
0.00272314
0.0519314
0.00409201
0.0511038
0.0501904
0.00579411
-0.000792044
0.0551969
-0.00143458
0.0551066
-0.00199562
0.0548798
-0.0024476
0.0545157
-0.00275568
0.0540101
-0.00289697
0.0533658
-0.00283281
0.0525748
-0.00255671
0.0516553
-0.00204774
0.0505949
0.0494673
-0.00132469
-0.00092226
0.0551098
-0.000820638
0.055005
-0.000682297
0.0547414
-0.000480739
0.0543142
-0.000195807
0.0537251
0.000197073
0.0529729
0.000699787
0.052072
0.0013423
0.0510128
0.00212616
0.049811
0.0485764
0.00301713
-0.000423165
0.0556301
-0.000832093
0.0554139
-0.00110785
0.0550172
-0.00123726
0.0544436
-0.00120553
0.0536934
-0.0010164
0.0527838
-0.000664164
0.0517198
-0.000181623
0.0505302
0.000436773
0.0491926
0.0478004
0.00121275
0.000655725
0.0555695
0.000686874
0.0553828
0.000691733
0.0550123
0.000677051
0.0544583
0.000634685
0.0537358
0.00057533
0.0528431
0.000482953
0.0518122
0.000360759
0.0506524
0.000177294
0.0493761
0.0480175
-3.98012e-05
-0.00132075
0.0560302
-0.00176938
0.0558314
-0.00217238
0.0554153
-0.00251037
0.0547963
-0.00275171
0.0539771
-0.00290137
0.0529928
-0.00291188
0.0518227
-0.00277821
0.0505187
-0.00245083
0.0490487
0.0474845
-0.00191781
-0.000129367
0.0559514
-1.49433e-05
0.055717
0.000121738
0.0552787
0.0002825
0.0546355
0.00043654
0.0538231
0.000595612
0.0528337
0.000688491
0.0517298
0.000742797
0.0504644
0.000746038
0.0490454
0.0474998
0.000730742
-0.000527396
0.0563031
-0.00095335
0.0561429
-0.00143181
0.0557571
-0.00195474
0.0551584
-0.00246876
0.0543371
-0.00296209
0.0533271
-0.0033205
0.0520882
-0.00352072
0.0506647
-0.00340658
0.0489313
0.0470158
-0.00292257
-0.000939361
0.0562197
-0.000847788
0.0560513
-0.000722581
0.0556319
-0.000527532
0.0549634
-0.000243719
0.0540533
0.00018408
0.0528993
0.000742504
0.0515298
0.00145273
0.0499544
0.00216181
0.0482222
0.0462333
0.00294423
-0.000942836
0.0564302
-0.00113956
0.0562481
-0.00131977
0.0558121
-0.00150508
0.0551487
-0.0016923
0.0542405
-0.00193976
0.0531467
-0.0021911
0.0517811
-0.00246695
0.0502303
-0.00262888
0.0483842
0.046392
-0.00278757
-0.000604367
0.0563736
-0.000573737
0.0562174
-0.000557212
0.0557956
-0.000513314
0.0551048
-0.000426513
0.0541537
-0.000182641
0.0529028
0.000185618
0.0514129
0.0008587
0.0495572
0.00180186
0.047441
0.0450661
0.00312781
-0.000827666
0.056485
-0.000927668
0.0563174
-0.000989592
0.0558575
-0.00100731
0.0551225
-0.000921945
0.0540684
-0.000781615
0.0527625
-0.000492494
0.0511238
-0.000199379
0.0492641
0.000116509
0.0471251
0.0447503
0.000432316
-0.000551931
0.0563453
-0.000395128
0.0561606
-0.00020873
0.0556711
2.17201e-05
0.0548921
0.00026274
0.0538273
0.000569486
0.0524558
0.000872857
0.0508204
0.00133123
0.0488057
0.0019762
0.0464801
0.0438654
0.00286112
-0.00060321
0.0563604
-0.000600255
0.0561577
-0.000580599
0.0556515
-0.000522515
0.054834
-0.000397367
0.0537022
-0.000193211
0.0522516
0.000216925
0.0504103
0.000691117
0.0483315
0.00131902
0.0458522
0.0431607
0.0020237
-0.000280699
0.056173
-8.03552e-05
0.0559573
0.000155682
0.0554154
0.000426554
0.0545631
0.000766641
0.0533621
0.00118484
0.0518334
0.00159699
0.0499981
0.00212884
0.0477997
0.00256521
0.0454159
0.0427279
0.00299803
-0.000354405
0.0560789
-0.000242061
0.055845
-0.000101736
0.0552751
7.62291e-05
0.0543851
0.000271558
0.0531668
0.000515987
0.051589
0.00079747
0.0497166
0.00107717
0.04752
0.00149836
0.0449947
0.0423187
0.00190755
-0.000127241
0.0558249
0.000147272
0.0555705
0.000440643
0.0549817
0.00075345
0.0540723
0.0010986
0.0528216
0.00148121
0.0512064
0.00190724
0.0492906
0.00238339
0.0470438
0.00274999
0.0446281
0.0418246
0.0032441
-0.000172591
0.0556376
3.69045e-05
0.055361
0.000245959
0.0547727
0.000472346
0.0538459
0.000716906
0.0525771
0.000971774
0.0509515
0.0012329
0.0490295
0.00154719
0.0467295
0.00191555
0.0442597
0.0414521
0.00228801
2.83296e-05
0.0553016
0.000365367
0.055024
0.000717839
0.0544202
0.00107876
0.053485
0.00145074
0.0522051
0.00187019
0.0505321
0.00229578
0.0486039
0.00273428
0.046291
0.00314365
0.0438504
0.041023
0.00357272
-7.95396e-06
0.0550107
0.000287949
0.054728
0.00057768
0.0541305
0.00087282
0.0531899
0.00116118
0.0519167
0.00145135
0.0502419
0.00174242
0.0483128
0.00205865
0.0459748
0.00237983
0.0435292
0.0405894
0.00281346
0.000142165
0.0545832
0.000571701
0.0542985
0.000992203
0.05371
0.00141766
0.0527644
0.00185092
0.0514835
0.00230178
0.049791
0.00274583
0.0478687
0.00323635
0.0454843
0.00372973
0.0430358
0.0401076
0.00421155
0.000117451
0.0541767
0.000516459
0.0538995
0.000906055
0.0533204
0.0012833
0.0523872
0.00165492
0.0511118
0.00203035
0.0494156
0.0023825
0.0475166
0.00272861
0.0451382
0.00308264
0.0426818
0.0397368
0.00345343
0.000237007
0.0536516
0.000764657
0.0533719
0.00128038
0.0528047
0.00179696
0.0518706
0.00230514
0.0506037
0.00282764
0.0488931
0.0033458
0.0469984
0.00387655
0.0446074
0.0043922
0.0421661
0.0392014
0.00492759
0.00022585
0.0531345
0.000734689
0.052863
0.00122729
0.0523121
0.00171725
0.0513806
0.00219301
0.0501279
0.00266244
0.0484237
0.00310946
0.0465514
0.00354101
0.0441759
0.00396025
0.0417469
0.03887
0.00429162
0.000327477
0.0525096
0.000958744
0.0522317
0.0015807
0.0516901
0.00220734
0.050754
0.00282652
0.0495087
0.00344904
0.0478012
0.00406621
0.0459342
0.00467532
0.0435668
0.00527384
0.0411484
0.00577403
0.000319226
0.0518877
0.00094109
0.0516099
0.00156548
0.0510657
0.00218426
0.0501352
0.00279164
0.0489013
0.00337957
0.0472132
0.00394718
0.0453666
0.00449691
0.00041181
0.00114488
0.00190581
0.0026672
0.00343308
0.0041808
0.00024804
0.0474777
0.000573883
0.0508222
0.000729909
0.0545418
0.000693667
0.0585303
0.000550836
0.0626965
0.000388962
0.0670569
0.000255491
0.0716712
0.000136397
0.0766218
-1.97208e-05
0.0819683
-0.000223782
0.0876942
-0.000409435
0.0937479
-0.000547617
0.100194
-0.000702978
0.107155
-0.000914421
0.114637
-0.00113014
0.122583
-0.00126583
0.130996
-0.00124113
0.139917
-0.00106874
0.149482
-0.000823912
0.159796
-0.000559709
0.170884
-0.000330008
0.182797
-0.000162647
0.195562
-6.02882e-05
0.209211
-6.88439e-06
0.223787
1.75202e-05
0.239351
2.66513e-05
0.255979
2.88689e-05
0.273753
2.83319e-05
0.292755
2.03358e-05
0.31308
0.33482
0.000654983
0.0482412
-0.000173609
0.0516508
-0.00078931
0.0551575
-0.00104671
0.0587877
-0.00101246
0.0626622
-0.000795922
0.0668404
-0.000416323
0.0712916
0.000193998
0.0760115
0.00105336
0.0811089
0.00205092
0.0866967
0.00299761
0.0928012
0.0037819
0.0994096
0.00445767
0.106479
0.0050741
0.114021
0.00552189
0.122135
0.0056173
0.1309
0.00523087
0.140304
0.00442222
0.150291
0.00341301
0.160805
0.00244249
0.171855
0.00165578
0.183583
0.00110309
0.196114
0.000757328
0.209556
0.000552962
0.223991
0.000421972
0.239482
0.000327112
0.256074
0.000248367
0.273831
0.000169116
0.292834
8.688e-05
0.313162
0.334907
-0.00990489
0.0486733
-0.00992651
0.0516724
-0.00940923
0.0546402
-0.00849569
0.0578741
-0.007436
0.0616026
-0.00647248
0.0658769
-0.00583318
0.0706523
-0.00564659
0.0758249
-0.00584388
0.0813062
-0.00612952
0.0869823
-0.00632521
0.0929969
-0.00629019
0.0993746
-0.0059471
0.106136
-0.00537046
0.113444
-0.00467573
0.121441
-0.00387806
0.130103
-0.00303418
0.13946
-0.00224102
0.149498
-0.00155
0.160114
-0.00103458
0.171339
-0.000664698
0.183214
-0.00041859
0.195868
-0.000255192
0.209393
-0.000145597
0.223881
-6.10405e-05
0.239397
2.5701e-06
0.256011
4.47112e-05
0.273789
6.42948e-05
0.292814
4.90544e-05
0.313177
0.334956
0.00673942
0.047728
0.00748126
0.0509306
0.00782964
0.0542918
0.0077366
0.0579672
0.00731896
0.0620202
0.00672598
0.0664699
0.00604613
0.0713322
0.00529065
0.0765803
0.00446282
0.0821341
0.0034757
0.0879694
0.00237722
0.0940954
0.00124897
0.100503
0.000139034
0.107246
-0.00092313
0.114507
-0.00187001
0.122388
-0.00258701
0.13082
-0.00283058
0.139704
-0.00250479
0.149172
-0.00187393
0.159483
-0.0012116
0.170677
-0.000678873
0.182681
-0.000291143
0.19548
-3.25932e-05
0.209135
0.000112321
0.223736
0.000171565
0.239338
0.000182863
0.255999
0.000171984
0.2738
0.000144603
0.292842
8.25029e-05
0.31324
0.335039
-0.00117915
0.0475824
-0.00104566
0.0507971
-0.00102709
0.0542733
-0.001164
0.0581041
-0.0014007
0.0622569
-0.00154019
0.0666093
-0.00139547
0.0711875
-0.000948778
0.0761337
-0.000354202
0.0815395
0.000321365
0.0872939
0.0010261
0.0933906
0.00161665
0.0999123
0.00194532
0.106918
0.00209444
0.114357
0.00221361
0.122268
0.0022321
0.130801
0.00199092
0.139945
0.00156005
0.149603
0.00115788
0.159886
0.000887234
0.170947
0.00070806
0.18286
0.00057824
0.19561
0.000488749
0.209224
0.000435131
0.22379
0.000395825
0.239377
0.000353641
0.256041
0.000297563
0.273856
0.000233974
0.292905
0.000127504
0.313346
0.335166
0.00314402
0.0474555
0.00315547
0.0507856
0.0030425
0.0543862
0.00272944
0.0584171
0.00223592
0.0627504
0.00167635
0.0671689
0.00122531
0.0716385
0.00099295
0.076366
0.000910822
0.0816216
0.000820803
0.0873839
0.000724834
0.0934866
0.000693113
0.099944
0.000699776
0.106911
0.000629368
0.114428
0.000555029
0.122343
0.000648222
0.130708
0.00082831
0.139765
0.000873458
0.149558
0.000785267
0.159974
0.000670305
0.171062
0.000612776
0.182918
0.000596898
0.195626
0.000587503
0.209233
0.000555858
0.223822
0.000510575
0.239422
0.000455008
0.256097
0.000386734
0.273924
0.000301058
0.292991
0.00015826
0.313489
0.335325
0.00159935
0.0470689
0.00194396
0.050441
0.00211908
0.0542111
0.00220388
0.0583323
0.00228559
0.0626687
0.00232966
0.0671249
0.00220967
0.0717585
0.0018907
0.076685
0.00158706
0.0819253
0.00144028
0.0875307
0.00135131
0.0935756
0.00128891
0.100006
0.00131802
0.106882
0.00138768
0.114358
0.00130331
0.122427
0.00105688
0.130954
0.000883844
0.139938
0.000911933
0.149529
0.00103531
0.15985
0.00112444
0.170973
0.00113101
0.182911
0.00108445
0.195673
0.00100615
0.209312
0.000908371
0.223919
0.000795478
0.239535
0.000665887
0.256227
0.000528322
0.274062
0.000388317
0.293131
0.000199427
0.313678
0.335524
-0.000725777
0.0477549
-0.00146257
0.0511778
-0.00198666
0.0547352
-0.0021897
0.0585354
-0.00216248
0.0626415
-0.00201941
0.0669818
-0.00180303
0.0715421
-0.00153401
0.076416
-0.00129995
0.0816912
-0.00119617
0.0874269
-0.00125903
0.0936384
-0.00150192
0.100249
-0.00173955
0.107119
-0.00164694
0.114266
-0.00115604
0.121936
-0.000459332
0.130258
0.000179694
0.139299
0.000652052
0.149057
0.000944918
0.159558
0.00109897
0.170819
0.00114299
0.182867
0.00110523
0.19571
0.00101698
0.2094
0.000913212
0.224023
0.000800086
0.239649
0.000681944
0.256345
0.000553437
0.27419
0.000406656
0.293278
0.000205275
0.313879
0.335729
-0.00177863
0.0476157
-0.00134144
0.0507406
-0.000613329
0.0540071
0.000321037
0.057601
0.00138879
0.0615737
0.00246507
0.0659055
0.0034123
0.0705949
0.00423191
0.0755964
0.00494803
0.0809751
0.00550681
0.0868681
0.0058531
0.0932921
0.00591693
0.100185
0.00565189
0.107385
0.00505216
0.114865
0.00431622
0.122672
0.00362127
0.130953
0.00304921
0.139871
0.00261634
0.14949
0.00226792
0.159906
0.00197582
0.171111
0.00172683
0.183116
0.00150674
0.195931
0.00129929
0.209607
0.00110709
0.224215
0.000926243
0.239829
0.000755946
0.256515
0.000592394
0.274354
0.000424845
0.293445
0.000213832
0.31409
0.335943
0.000373574
0.0479729
-4.12483e-05
0.0511554
-0.000495481
0.0544613
-0.00102995
0.0581355
-0.00160151
0.0621453
-0.00211747
0.0664215
-0.00243246
0.0709099
-0.00242307
0.075587
-0.0020199
0.0805719
-0.00120712
0.0860553
-0.000127675
0.0922127
0.00101617
0.0990416
0.00197006
0.106431
0.00255503
0.11428
0.00273167
0.122495
0.00253136
0.131153
0.00214619
0.140256
0.00175737
0.149879
0.00149428
0.160169
0.00134605
0.17126
0.00126514
0.183197
0.00119327
0.196002
0.0011034
0.209697
0.000987377
0.224331
0.000854695
0.239962
0.000713218
0.256656
0.000570153
0.274497
0.000406696
0.293609
0.000202906
0.314294
0.336146
-0.00275792
0.0478083
-0.00239481
0.0507923
-0.001931
0.0539975
-0.00129328
0.0574978
-0.000531232
0.0613832
0.00012893
0.0657613
0.000425723
0.0706131
0.000212525
0.0758002
-0.0003052
0.0810896
-0.000766556
0.0865167
-0.000915868
0.092362
-0.000640348
0.0987661
-3.28761e-05
0.105823
0.000724078
0.113523
0.00142897
0.121791
0.00195487
0.130627
0.00221781
0.139993
0.00221609
0.149881
0.00203972
0.160345
0.00179597
0.171503
0.00155303
0.18344
0.00134218
0.196213
0.00116488
0.209875
0.00100593
0.22449
0.000854494
0.240113
0.000702048
0.256809
0.000552928
0.274646
0.000392283
0.293769
0.000196785
0.314489
0.336343
0.00309157
0.0476609
0.00271434
0.0511696
0.00218828
0.0545236
0.00187844
0.0578076
0.00190644
0.0613553
0.00224277
0.065425
0.0027234
0.0701325
0.00308756
0.075436
0.00307673
0.0811005
0.00268625
0.0869072
0.00221398
0.0928343
0.00191559
0.0990645
0.00182311
0.105916
0.00185585
0.113491
0.00187052
0.121776
0.00181912
0.130678
0.00171822
0.140094
0.00161286
0.149986
0.0015174
0.160441
0.00142713
0.171594
0.0013281
0.183539
0.00121237
0.196329
0.00107718
0.21001
0.000936629
0.224631
0.000796819
0.240253
0.000658762
0.256947
0.000522783
0.274782
0.000373763
0.293918
0.000186593
0.314677
0.336529
-0.00315775
0.0480311
-0.00288516
0.050897
-0.00220124
0.0538397
-0.00153546
0.0571418
-0.00108505
0.0609048
-0.000768809
0.0651087
-0.000381917
0.0697456
0.000208966
0.0748451
0.000857085
0.0804523
0.00130084
0.0864634
0.00142962
0.0927055
0.00126106
0.0992331
0.000977369
0.106199
0.000749734
0.113718
0.000721281
0.121804
0.000891072
0.130509
0.00113305
0.139852
0.00130186
0.149817
0.00135741
0.160385
0.00132654
0.171624
0.00124974
0.183616
0.00114923
0.19643
0.00103455
0.210124
0.00090736
0.224758
0.000769627
0.240391
0.000627993
0.257089
0.000489485
0.274921
0.00035104
0.294057
0.000175741
0.314852
0.336705
0.00394494
0.047214
0.00443088
0.050411
0.00459859
0.0536719
0.00439264
0.0573478
0.0038805
0.061417
0.00324579
0.0657434
0.00268731
0.070304
0.00228073
0.0752517
0.00208868
0.0806444
0.00209557
0.0864565
0.00215423
0.0926468
0.00215437
0.0992329
0.00205032
0.106303
0.00188738
0.113881
0.00171279
0.121979
0.00160036
0.130621
0.00155978
0.139892
0.00155004
0.149827
0.00151261
0.160423
0.00143504
0.171702
0.00132283
0.183728
0.00119259
0.19656
0.00105267
0.210264
0.000911794
0.224899
0.000770709
0.240532
0.000629943
0.257229
0.000489655
0.275061
0.000350911
0.294196
0.000173637
0.315029
0.336879
0.000323154
0.0473231
0.000445499
0.0502887
0.00078791
0.0533295
0.00125071
0.056885
0.00162972
0.061038
0.00188367
0.0654895
0.0020424
0.0701453
0.00214021
0.0751539
0.00218378
0.0806008
0.00215435
0.086486
0.00204205
0.0927591
0.00183074
0.0994443
0.00158294
0.106551
0.0013784
0.114086
0.00125071
0.122107
0.0012088
0.130663
0.00122651
0.139875
0.00125317
0.1498
0.00125436
0.160422
0.00121728
0.171739
0.0011519
0.183793
0.00106503
0.196647
0.000962165
0.210367
0.000845733
0.225015
0.000718703
0.240659
0.000585914
0.257362
0.000452786
0.275194
0.00032829
0.29432
0.000163618
0.315194
0.337042
0.0035903
0.0465939
0.00411616
0.0497628
0.00422159
0.0532241
0.0039637
0.0571429
0.00359479
0.0614069
0.00326149
0.0658228
0.00301775
0.0703891
0.00291961
0.075252
0.00295258
0.0805679
0.00305245
0.0863861
0.00311435
0.0926972
0.00305369
0.0995049
0.00288183
0.106723
0.00263271
0.114335
0.00238192
0.122357
0.00217768
0.130867
0.00202643
0.140026
0.00189651
0.14993
0.0017542
0.160564
0.00159073
0.171903
0.00141594
0.183968
0.0012402
0.196822
0.00107195
0.210535
0.000913028
0.225174
0.000761585
0.240811
0.000613061
0.257511
0.000467284
0.27534
0.000334786
0.294453
0.00016479
0.315364
0.337207
0.00214469
0.046473
0.00226743
0.0496401
0.00250399
0.0529876
0.00277633
0.0568705
0.00289376
0.0612894
0.0027598
0.0659567
0.00244982
0.070699
0.00206477
0.0756371
0.0017088
0.0809238
0.00148361
0.0866113
0.00142673
0.0927541
0.0015237
0.0994079
0.00167116
0.106576
0.00177537
0.114231
0.00175677
0.122376
0.00163669
0.130987
0.00149066
0.140172
0.00138247
0.150038
0.00130441
0.160642
0.00123312
0.171974
0.00115323
0.184048
0.00105771
0.196918
0.000947822
0.210645
0.00082559
0.225297
0.000696765
0.240939
0.000564432
0.257643
0.000427943
0.275476
0.000309341
0.294571
0.000153779
0.315519
0.337361
0.00337648
0.0460945
0.0034476
0.049569
0.00323353
0.0532016
0.00304399
0.0570601
0.00311793
0.0612155
0.00341311
0.0656616
0.00373053
0.0703816
0.00397184
0.0753958
0.00407201
0.0808237
0.00398495
0.0866983
0.00376075
0.0929783
0.00350513
0.0996636
0.00330349
0.106777
0.00313416
0.1144
0.00295883
0.122551
0.00272669
0.131219
0.00244932
0.140449
0.00215659
0.150331
0.00188167
0.160917
0.0016395
0.172216
0.00142483
0.184263
0.00123351
0.197109
0.00105983
0.210819
0.000898473
0.225458
0.000745453
0.241092
0.000595634
0.257793
0.000444403
0.275628
0.000313626
0.294702
0.000154409
0.315679
0.337515
0.00192156
0.0460805
0.00231813
0.0491724
0.00282999
0.0526898
0.00308812
0.0568019
0.00301836
0.0612853
0.00272252
0.0659574
0.00235987
0.0707442
0.00204194
0.0757137
0.00183918
0.0810264
0.00173764
0.0867999
0.00170672
0.0930092
0.00174137
0.0996289
0.00181383
0.106705
0.00188329
0.11433
0.00188533
0.122549
0.00179077
0.131314
0.001643
0.140597
0.00149983
0.150474
0.00137807
0.161039
0.00126672
0.172327
0.00115641
0.184373
0.00104252
0.197223
0.000921597
0.21094
0.000796086
0.225584
0.000668493
0.24122
0.000538408
0.257923
0.000403126
0.275763
0.000281335
0.294824
0.000142626
0.315817
0.337658
0.00333859
0.045986
0.00304978
0.0494612
0.00281499
0.0529246
0.0028842
0.0567327
0.00317006
0.0609994
0.00351174
0.0656157
0.00379222
0.0704638
0.00394902
0.0755569
0.00396131
0.0810141
0.00384316
0.086918
0.00362955
0.0932228
0.00339274
0.0998657
0.00318534
0.106912
0.00302605
0.11449
0.0028754
0.1227
0.00267553
0.131514
0.00241611
0.140857
0.00212414
0.150766
0.00184442
0.161318
0.00159684
0.172575
0.00138092
0.184589
0.00118924
0.197415
0.00101622
0.211113
0.000856532
0.225743
0.00070582
0.241371
0.000559934
0.258069
0.000412532
0.27591
0.000278429
0.294958
0.000142556
0.315953
0.337801
0.00252088
0.0457531
0.00299466
0.0489874
0.00331105
0.0526082
0.0033972
0.0566466
0.00327816
0.0611185
0.00301569
0.0658782
0.00270427
0.0707752
0.00247005
0.0757911
0.00235166
0.0811325
0.00229588
0.0869738
0.00224007
0.0932787
0.00214552
0.0999603
0.00202524
0.107032
0.00190705
0.114608
0.00179982
0.122807
0.00168768
0.131626
0.00156777
0.140977
0.00145277
0.150881
0.00134621
0.161425
0.00123779
0.172683
0.00112523
0.184701
0.00100625
0.197534
0.000881916
0.211237
0.000754958
0.22587
0.000628504
0.241497
0.00050269
0.258195
0.000375674
0.276037
0.000248493
0.295085
0.000130334
0.316071
0.337931
0.00353986
0.045786
0.003274
0.0492533
0.00315493
0.0527272
0.00321164
0.0565899
0.00336347
0.0609666
0.00349819
0.0657435
0.00351864
0.0707547
0.00342054
0.0758892
0.00327633
0.0812767
0.0031462
0.0871039
0.00302889
0.093396
0.00290762
0.100082
0.00277307
0.107167
0.00263756
0.114743
0.00249511
0.12295
0.00232481
0.131796
0.00211427
0.141187
0.0018814
0.151114
0.00165349
0.161653
0.0014478
0.172889
0.00126324
0.184886
0.00109422
0.197703
0.000938037
0.211394
0.00079024
0.226018
0.000648899
0.241639
0.000512356
0.258331
0.000377916
0.276172
0.000240573
0.295222
0.000125859
0.316186
0.338057
0.00301256
0.0455869
0.00338583
0.04888
0.00362733
0.0524857
0.00368906
0.0565281
0.00364073
0.0610149
0.00351421
0.06587
0.00333532
0.0709336
0.00312144
0.0761031
0.00288699
0.0815112
0.0026766
0.0873143
0.00247816
0.0935944
0.00226208
0.100298
0.00203537
0.107394
0.00182472
0.114954
0.00166699
0.123107
0.0015538
0.13191
0.00145858
0.141282
0.00136357
0.151209
0.00126586
0.161751
0.00116059
0.172994
0.00104887
0.184998
0.000932564
0.197819
0.000813088
0.211513
0.000692996
0.226138
0.000574613
0.241757
0.000457737
0.258448
0.000339028
0.27629
0.000212024
0.295349
0.000112974
0.316285
0.33817
0.00407615
0.0457223
0.00369557
0.0492606
0.00339404
0.0527873
0.00323114
0.056691
0.0031448
0.0611013
0.00310356
0.0659112
0.00306074
0.0709764
0.00294165
0.0762222
0.00278461
0.0816682
0.00264503
0.0874539
0.00253702
0.0937024
0.00244262
0.100392
0.00232137
0.107515
0.00218242
0.115093
0.00204295
0.123247
0.00190851
0.132044
0.0017627
0.141428
0.00160357
0.151368
0.00143682
0.161917
0.00127528
0.173156
0.00112158
0.185151
0.000975722
0.197965
0.000837424
0.211651
0.000705411
0.22627
0.000578253
0.241884
0.00045579
0.258571
0.0003332
0.276413
0.000200941
0.295482
0.000106693
0.316379
0.338276
0.00362932
0.0455464
0.00399176
0.0488982
0.00416413
0.0526149
0.00407367
0.0567815
0.00386391
0.061311
0.0036704
0.0661048
0.00348965
0.0711572
0.00326413
0.0764477
0.00299285
0.0819395
0.00271282
0.0877339
0.00245574
0.0939595
0.00221091
0.100637
0.00196506
0.107761
0.00173235
0.115326
0.00155191
0.123427
0.00143301
0.132163
0.0013478
0.141513
0.00126456
0.151451
0.00117259
0.162009
0.00106999
0.173258
0.000960009
0.185261
0.000847
0.198078
0.000733031
0.211765
0.000621028
0.226382
0.000511989
0.241993
0.000406437
0.258676
0.000297435
0.276522
0.000175368
0.295604
9.45204e-05
0.31646
0.338371
0.00477831
0.0456957
0.0042552
0.0494213
0.00379992
0.0530702
0.00351542
0.057066
0.00328313
0.0615433
0.00306851
0.0663194
0.00290133
0.0713244
0.00274753
0.0766015
0.0025671
0.0821199
0.00237437
0.0879267
0.00221921
0.0941147
0.00209841
0.100758
0.00197203
0.107887
0.00182861
0.115469
0.00168457
0.123571
0.00156275
0.132285
0.00145504
0.141621
0.0013475
0.151559
0.00122941
0.162127
0.00110575
0.173382
0.000980365
0.185387
0.000856082
0.198202
0.00073528
0.211886
0.000618498
0.226499
0.000505153
0.242106
0.000397286
0.258784
0.000287205
0.276632
0.000163594
0.295727
8.76618e-05
0.316536
0.338459
0.00430347
0.0456838
0.00443293
0.0492918
0.00435496
0.0531481
0.00412457
0.0572964
0.00386303
0.0618049
0.00362711
0.0665553
0.00340541
0.0715461
0.00317927
0.0768276
0.00292035
0.0823789
0.00263088
0.0882161
0.00235314
0.0943924
0.00210181
0.101009
0.00187337
0.108116
0.00165966
0.115683
0.0014789
0.123752
0.00134681
0.132417
0.00124978
0.141718
0.00115992
0.151649
0.001066
0.162221
0.000965265
0.173483
0.000860201
0.185492
0.000754216
0.198308
0.000649477
0.211991
0.000547323
0.226601
0.00044864
0.242205
0.000354296
0.258878
0.000256152
0.27673
0.000142426
0.295841
7.70191e-05
0.316602
0.338536
0.00548829
0.00465326
0.00408852
0.00368503
0.00333359
0.00302688
0.00280041
0.00263043
0.00244827
0.00224621
0.00205474
0.00188757
0.00173812
0.00158669
0.00144114
0.0013221
0.00122742
0.00114121
0.00104863
0.000948562
0.000844609
0.000740211
0.000636789
0.000534034
0.000435014
0.000339978
0.000244279
0.000132265
7.07579e-05
)
;

boundaryField
{
    outlet
    {
        type            calculated;
        value           nonuniform 0();
    }
    upperWall
    {
        type            symmetryPlane;
        value           nonuniform 0();
    }
    lowerWall
    {
        type            symmetryPlane;
        value           uniform 0;
    }
    inlet
    {
        type            calculated;
        value           nonuniform List<scalar> 
40
(
-0.053033
-0.053033
-0.053033
-0.053033
-0.053033
-0.053033
-0.053033
-0.053033
-0.053033
-0.053033
-0.0478286
-0.051148
-0.0546978
-0.058494
-0.0625537
-0.0668951
-0.0715378
-0.0765027
-0.0818122
-0.0874902
-0.0935622
-0.100056
-0.107
-0.114426
-0.122367
-0.13086
-0.139942
-0.149655
-0.160041
-0.171148
-0.183026
-0.195729
-0.209313
-0.22384
-0.239375
-0.255988
-0.273755
-0.292754
-0.313072
-0.3348
)
;
    }
    cylinder
    {
        type            calculated;
        value           nonuniform 0();
    }
    frontAndBack
    {
        type            empty;
        value           nonuniform 0();
    }
    procBoundary0to1
    {
        type            processor;
        value           nonuniform List<scalar> 
45
(
0.0173416
0.0436965
0.0445983
0.0435754
0.0141454
0.0424759
0.0423299
0.0421017
0.00828267
0.0415982
0.0383698
0.043017
0.0050717
0.0405736
0.00494913
0.0459696
0.0501269
0.0537129
0.0576999
0.0621563
0.066862
0.0717726
0.0769976
0.082561
0.0884182
0.0945839
0.101176
0.108265
0.115834
0.123898
0.132536
0.141813
0.151735
0.162314
0.173583
0.185596
0.198413
0.212094
0.226704
0.242304
0.258973
0.276826
0.295953
0.316663
0.338606
)
;
    }
    procBoundary0to4
    {
        type            processor;
        value           nonuniform List<scalar> 
33
(
0.000261351
0.000256495
0.000252959
-0.00057109
-4.23773e-05
0.00196152
0.00120421
9.83342e-05
0.00100939
-9.71681e-05
-0.000595153
0.000860051
0.000208178
0.000175704
0.00102275
0.000732379
0.000660949
0.000716304
0.000691647
0.00058804
0.000468163
0.000448469
0.000381223
0.000359948
0.000307615
0.000298864
0.000285371
0.000289014
0.000288084
0.000291272
0.00029744
0.000302598
0.000314329
)
;
    }
}


// ************************************************************************* //
