/*--------------------------------*- C++ -*----------------------------------*\
| =========                 |                                                 |
| \\      /  F ield         | OpenFOAM: The Open Source CFD Toolbox           |
|  \\    /   O peration     | Version:                                        |
|   \\  /    A nd           | Website:  www.openfoam.com                      |
|    \\/     M anipulation  |                                                 |
\*---------------------------------------------------------------------------*/
FoamFile
{
    version     2.0;
    format      ascii;
    class       volVectorField;
    location    "71.9";
    object      U;
}
// * * * * * * * * * * * * * * * * * * * * * * * * * * * * * * * * * * * * * //

dimensions      [0 1 -1 0 0 0 0];


internalField   nonuniform List<vector> 
1136
(
(0.560514 -0.65885 -3.0713e-22)
(0.561665 -0.816505 7.57213e-22)
(0.63384 -0.858144 -1.93275e-21)
(0.611951 -0.842186 -1.14414e-22)
(0.520599 -0.827045 2.03816e-21)
(0.426876 -0.693138 -1.00072e-21)
(0.35713 -0.347559 7.0622e-22)
(0.447116 0.105926 -2.18927e-21)
(0.508106 0.460336 1.42054e-21)
(0.600684 0.656964 3.64809e-22)
(0.562007 0.785434 -1.50012e-21)
(0.535439 0.707199 1.85075e-21)
(0.44797 0.493352 -1.0628e-21)
(0.602735 0.0630649 1.22149e-21)
(0.622876 -0.260375 -8.72854e-22)
(0.681324 -0.555865 -3.91496e-24)
(0.629353 -0.676257 -1.62763e-22)
(0.558926 -0.560439 2.7694e-22)
(0.698035 -0.24059 3.64167e-22)
(0.665013 0.217598 -2.57303e-22)
(0.751965 0.655595 -1.56493e-22)
(0.682063 0.671155 -5.46105e-23)
(0.670675 0.344799 -4.06766e-22)
(0.773743 -0.204964 4.06998e-23)
(0.655738 -0.611145 -1.10684e-23)
(0.840795 -0.448766 7.81186e-24)
(0.7037 -0.321009 -8.97168e-23)
(0.549597 0.17032 2.92761e-22)
(0.72068 0.535219 5.62755e-23)
(0.772662 0.171491 -5.52346e-24)
(0.711718 -0.694506 9.31446e-21)
(0.669415 -0.855519 -2.12891e-20)
(0.695371 -0.871335 4.65965e-21)
(0.641519 -0.795951 -2.56553e-21)
(0.540993 -0.766188 3.03848e-22)
(0.414207 -0.653822 7.35099e-21)
(0.317302 -0.348325 -8.95123e-21)
(0.399164 0.0684707 2.02763e-22)
(0.467535 0.424374 5.83309e-21)
(0.591507 0.634028 -1.92644e-21)
(0.534711 0.790557 3.63607e-23)
(0.530825 0.703848 -1.79325e-22)
(0.442468 0.458048 -1.82825e-21)
(0.623463 -0.000888629 -5.40094e-21)
(0.648062 -0.297475 4.80781e-21)
(0.738819 -0.539574 5.14211e-23)
(0.669052 -0.646407 2.37476e-24)
(0.592121 -0.567258 6.67426e-22)
(0.706728 -0.263609 -2.18364e-21)
(0.660588 0.20952 7.86871e-22)
(0.736688 0.651647 2.76983e-22)
(0.690912 0.691008 1.05482e-22)
(0.708677 0.351017 -3.55099e-22)
(0.814494 -0.194929 -1.18142e-22)
(0.685883 -0.615993 1.41022e-21)
(0.860411 -0.453178 -4.66389e-22)
(0.720243 -0.284303 2.23996e-22)
(0.547529 0.177204 -9.87711e-23)
(0.720412 0.510897 7.1908e-23)
(0.770328 0.164571 4.3648e-24)
(0.886158 -0.666436 -2.17376e-20)
(0.797811 -0.850947 1.86403e-20)
(0.772648 -0.876561 -2.44471e-21)
(0.686775 -0.788696 2.42177e-21)
(0.583732 -0.72788 7.68736e-21)
(0.431582 -0.609366 1.5306e-21)
(0.324972 -0.350819 -1.7579e-20)
(0.395157 0.0131827 1.14677e-21)
(0.473612 0.368687 3.1331e-23)
(0.586838 0.626497 5.05526e-21)
(0.54938 0.820261 5.85855e-21)
(0.582676 0.748646 -1.46601e-21)
(0.478903 0.490386 -2.0719e-21)
(0.674959 0.00147157 -1.03943e-20)
(0.693539 -0.312711 3.92272e-21)
(0.772192 -0.554194 1.06767e-20)
(0.701389 -0.647297 -8.06151e-21)
(0.623878 -0.571611 1.48239e-21)
(0.713894 -0.272359 2.70108e-22)
(0.656261 0.211203 2.23651e-21)
(0.730958 0.644045 -2.4773e-21)
(0.717067 0.682351 1.24582e-21)
(0.750768 0.335335 1.79754e-21)
(0.849743 -0.195296 2.28301e-21)
(0.721192 -0.627453 -2.02744e-21)
(0.877565 -0.47015 -2.32772e-22)
(0.741554 -0.261375 1.18382e-22)
(0.560821 0.178081 -6.2297e-22)
(0.718561 0.485323 7.60668e-23)
(0.76248 0.157701 -2.00385e-23)
(1.06773 -0.632537 1.64996e-20)
(0.945815 -0.818216 3.77423e-20)
(0.865701 -0.846953 -7.5647e-21)
(0.760626 -0.742755 -6.9987e-21)
(0.647034 -0.672294 2.3797e-21)
(0.47422 -0.573911 -1.01596e-21)
(0.376848 -0.366997 9.2326e-21)
(0.421915 -0.0368938 -3.77873e-21)
(0.477625 0.329118 -1.06129e-21)
(0.597682 0.592875 -7.5893e-21)
(0.566005 0.813908 -5.92233e-21)
(0.589723 0.770349 2.95882e-20)
(0.50943 0.472574 -2.1453e-20)
(0.730489 -0.0490113 4.13435e-21)
(0.76852 -0.336018 -1.34371e-21)
(0.834051 -0.529197 -1.75536e-21)
(0.755729 -0.624273 7.04103e-21)
(0.675685 -0.586129 -1.69345e-21)
(0.730691 -0.301408 -1.42564e-21)
(0.666076 0.194584 1.8109e-21)
(0.725915 0.626681 -3.73758e-21)
(0.733852 0.691966 6.26686e-21)
(0.790665 0.345308 -8.64188e-21)
(0.890296 -0.176747 4.27897e-22)
(0.768815 -0.623499 2.42728e-21)
(0.892144 -0.473901 1.70977e-22)
(0.761167 -0.225039 4.54375e-22)
(0.574977 0.188871 5.11937e-22)
(0.707318 0.466078 -2.03855e-22)
(0.747873 0.151524 -5.00112e-24)
(1.23119 -0.534101 -3.57954e-20)
(1.09535 -0.739889 1.82022e-20)
(0.951368 -0.801986 -6.86726e-21)
(0.832432 -0.717396 -2.01265e-20)
(0.719206 -0.62019 5.692e-21)
(0.533537 -0.523568 5.93032e-21)
(0.424142 -0.368871 -1.76931e-21)
(0.44576 -0.0919362 -3.66153e-21)
(0.513921 0.259318 -4.93882e-21)
(0.638171 0.568272 1.32598e-20)
(0.586244 0.842169 -1.20831e-20)
(0.673596 0.797283 -1.85887e-21)
(0.602969 0.499406 -1.09859e-20)
(0.80484 -0.0470133 2.32416e-20)
(0.846918 -0.351701 -1.43177e-20)
(0.880167 -0.528777 -2.99812e-21)
(0.789683 -0.609793 5.35604e-21)
(0.72409 -0.575486 3.91262e-21)
(0.735014 -0.300373 1.4997e-22)
(0.666872 0.197126 -3.20119e-22)
(0.725932 0.611685 2.10329e-21)
(0.764888 0.676285 -4.91106e-21)
(0.832669 0.329192 4.59714e-21)
(0.921765 -0.17452 4.57793e-21)
(0.814046 -0.626667 -3.93494e-21)
(0.901193 -0.487122 -6.70961e-22)
(0.784081 -0.201315 -4.99194e-22)
(0.588961 0.195313 -7.23217e-22)
(0.685167 0.447424 6.10403e-23)
(0.727271 0.144421 1.46839e-23)
(1.38033 -0.433472 -2.14491e-19)
(1.2351 -0.645693 5.50315e-20)
(1.05712 -0.727358 6.01924e-20)
(0.925218 -0.670463 -4.51226e-20)
(0.7984 -0.566501 1.614e-20)
(0.62061 -0.477389 8.58368e-23)
(0.496038 -0.376635 7.9893e-22)
(0.510073 -0.154671 -3.39789e-21)
(0.570516 0.191719 -2.29086e-21)
(0.658488 0.517816 3.74522e-21)
(0.635854 0.795786 7.52699e-21)
(0.701824 0.828179 1.63068e-20)
(0.665239 0.522427 -2.0517e-20)
(0.879694 -0.069028 -1.30221e-20)
(0.949747 -0.367214 9.07246e-21)
(0.957373 -0.496023 -2.45142e-21)
(0.841986 -0.59221 -5.35859e-21)
(0.787685 -0.589741 6.48205e-21)
(0.754743 -0.328118 -1.84946e-23)
(0.68171 0.171144 -3.71531e-21)
(0.730981 0.582853 -1.26528e-21)
(0.779642 0.674665 3.14062e-21)
(0.863754 0.343069 -2.0739e-21)
(0.953286 -0.150552 3.63152e-21)
(0.864915 -0.611311 -5.24184e-21)
(0.907855 -0.489176 2.28814e-21)
(0.804732 -0.1706 -9.27867e-23)
(0.590986 0.213403 7.49676e-22)
(0.642982 0.4364 -2.53894e-22)
(0.706182 0.137375 5.06395e-24)
(1.34509 -0.49979 -2.77909e-20)
(1.14892 -0.628035 3.10605e-20)
(1.00226 -0.622182 -1.8947e-20)
(0.874073 -0.515792 -7.15996e-21)
(0.704947 -0.424486 -4.14994e-21)
(0.557295 -0.362789 3.96897e-21)
(0.545589 -0.204348 1.3598e-21)
(0.591521 0.11609 -2.08737e-21)
(0.722924 0.469274 -4.84324e-21)
(0.69275 0.806039 7.89727e-21)
(0.782 0.83582 -5.79981e-21)
(0.818966 0.520679 -3.72178e-21)
(0.974039 -0.0687692 -8.98353e-21)
(1.03431 -0.379527 9.04356e-22)
(1.01103 -0.47414 1.38089e-20)
(0.87778 -0.556798 -1.29277e-21)
(0.828446 -0.566431 3.38342e-21)
(0.772482 -0.319634 -4.11819e-21)
(0.681659 0.169515 3.75933e-21)
(0.741037 0.561385 -2.3641e-21)
(0.808923 0.654051 2.95654e-21)
(0.894844 0.327052 -3.91661e-21)
(0.978347 -0.151398 1.27002e-22)
(0.908618 -0.608745 1.59048e-21)
(0.909746 -0.49495 -2.34854e-21)
(0.821448 -0.145258 -4.31631e-22)
(0.585545 0.231173 1.4662e-22)
(0.590579 0.42462 3.63712e-23)
(0.694035 0.126529 8.80499e-23)
(1.42617 -0.406251 1.04091e-20)
(1.23633 -0.534043 5.21392e-21)
(1.06926 -0.569155 -1.40067e-20)
(0.946009 -0.469842 -2.23999e-21)
(0.782174 -0.366806 -4.45909e-21)
(0.6107 -0.333524 -3.19823e-22)
(0.591288 -0.250141 -1.50107e-21)
(0.650833 0.0207011 9.20321e-22)
(0.767908 0.387915 -2.42531e-21)
(0.73148 0.728334 7.35484e-21)
(0.848941 0.837107 1.07915e-20)
(0.870548 0.611399 -5.85674e-21)
(1.04132 -0.0201168 1.20411e-20)
(1.13371 -0.373431 -2.10474e-20)
(1.09095 -0.436308 -9.96314e-21)
(0.935419 -0.535985 7.01532e-21)
(0.869235 -0.577778 1.7645e-21)
(0.813134 -0.339341 -2.13291e-22)
(0.693311 0.137874 -9.02743e-22)
(0.755248 0.524997 -4.76486e-21)
(0.815852 0.646087 3.90403e-21)
(0.909487 0.345077 1.43981e-21)
(1.00364 -0.124381 -3.15294e-23)
(0.948007 -0.585871 1.2106e-21)
(0.914077 -0.496469 1.71424e-21)
(0.833469 -0.118065 4.65454e-23)
(0.572675 0.261204 -1.25143e-22)
(0.547002 0.41691 -1.79218e-22)
(0.698121 0.11363 -1.23875e-22)
(1.49152 -0.248445 -6.29588e-20)
(1.30487 -0.400725 2.37478e-20)
(1.11426 -0.502961 1.21385e-20)
(1.00524 -0.438719 -8.94677e-21)
(0.87206 -0.317949 -2.04971e-21)
(0.677549 -0.299676 -2.67817e-21)
(0.622596 -0.287043 2.35361e-22)
(0.652901 -0.0620774 -4.57359e-22)
(0.792459 0.322408 -4.40903e-22)
(0.814406 0.701648 6.89467e-21)
(0.914831 0.812461 9.67172e-21)
(1.02346 0.565531 -1.82627e-20)
(1.15193 -0.0342228 8.45538e-21)
(1.21039 -0.385733 1.64683e-20)
(1.1413 -0.405026 -1.51055e-20)
(0.966131 -0.483908 -1.72056e-21)
(0.883785 -0.561633 1.63878e-21)
(0.856422 -0.338526 1.16292e-21)
(0.709441 0.133386 -2.19952e-21)
(0.77294 0.501711 1.35729e-21)
(0.834254 0.625886 1.61956e-21)
(0.938657 0.327552 1.59939e-21)
(1.03311 -0.129359 -7.1267e-21)
(0.976589 -0.575082 2.06096e-21)
(0.919119 -0.495791 -8.17415e-22)
(0.836263 -0.0921953 -3.59174e-22)
(0.569203 0.288995 9.61872e-23)
(0.541559 0.405253 3.1594e-23)
(0.717287 0.0977206 -7.38285e-23)
(1.39957 -0.119357 4.04023e-20)
(1.29579 -0.270977 -2.82712e-20)
(1.12055 -0.41793 1.35252e-20)
(1.02063 -0.41537 3.30215e-21)
(0.924915 -0.273503 -2.10218e-21)
(0.730675 -0.229807 -1.52111e-21)
(0.639204 -0.283317 -5.41456e-22)
(0.657852 -0.16468 -7.13904e-22)
(0.811194 0.18826 1.9533e-21)
(0.832491 0.595023 -6.39913e-21)
(0.955033 0.782323 1.79526e-20)
(1.0714 0.677243 -4.94263e-20)
(1.17272 0.0904174 -1.93416e-21)
(1.27996 -0.330674 4.50138e-21)
(1.21696 -0.362043 2.22801e-20)
(1.01349 -0.440926 5.08999e-21)
(0.9048 -0.551216 2.45524e-21)
(0.900693 -0.358781 -9.73219e-22)
(0.729501 0.0994286 -8.06194e-22)
(0.784311 0.459818 2.8472e-23)
(0.844622 0.614042 -2.13006e-21)
(0.948495 0.350298 9.48962e-21)
(1.06297 -0.0963797 -9.98279e-21)
(1.00206 -0.533566 5.30805e-21)
(0.933489 -0.487946 -1.28862e-21)
(0.835822 -0.0685832 -1.67989e-22)
(0.580925 0.319463 -1.12491e-22)
(0.570028 0.394583 1.02243e-22)
(0.744992 0.0830176 1.67898e-22)
(1.32134 -0.164242 0)
(1.16458 -0.305786 0)
(1.03382 -0.358898 0)
(0.989275 -0.242627 0)
(0.822384 -0.176261 0)
(0.680435 -0.255549 0)
(0.668512 -0.208543 0)
(0.809306 0.115272 0)
(0.867307 0.523587 0)
(1.02834 0.704314 0)
(1.14558 0.600469 0)
(1.27663 0.0425974 0)
(1.33996 -0.322736 0)
(1.25702 -0.289826 0)
(1.03542 -0.3569 0)
(0.918935 -0.509492 0)
(0.930318 -0.340283 0)
(0.764036 0.103158 0)
(0.804161 0.439123 0)
(0.842136 0.58887 0)
(0.984576 0.320699 0)
(1.10666 -0.101229 0)
(1.02169 -0.516405 0)
(0.944786 -0.469671 0)
(0.83884 -0.0438615 0)
(0.611054 0.338222 0)
(0.618477 0.380638 0)
(0.776823 0.0700333 0)
(1.28292 -0.16301 0)
(1.16606 -0.299873 0)
(1.00106 -0.3306 0)
(0.984401 -0.19171 0)
(0.853678 -0.106345 0)
(0.723223 -0.215986 0)
(0.660577 -0.210623 0)
(0.802604 0.0858463 0)
(0.895902 0.457939 0)
(1.08018 0.616495 0)
(1.24083 0.568042 0)
(1.35996 0.0439515 0)
(1.371 -0.323228 0)
(1.26386 -0.269356 0)
(1.04976 -0.341467 0)
(0.934335 -0.51208 0)
(0.963867 -0.327864 0)
(0.796542 0.117952 0)
(0.817152 0.418595 0)
(0.831935 0.556313 0)
(1.02349 0.294234 0)
(1.14 -0.098354 0)
(1.03677 -0.497493 0)
(0.956598 -0.456547 0)
(0.841548 -0.0135944 0)
(0.643382 0.358419 0)
(0.669879 0.367861 0)
(0.811959 0.0578314 0)
(1.27475 -0.109664 0)
(1.20438 -0.190562 0)
(1.0288 -0.283966 0)
(1.03715 -0.187543 0)
(0.968584 -0.0585736 0)
(0.840549 -0.178054 0)
(0.720227 -0.235707 0)
(0.813382 0.0406809 0)
(0.895026 0.402877 0)
(1.09547 0.56443 0)
(1.32825 0.545466 0)
(1.43407 0.0291169 0)
(1.38099 -0.313499 0)
(1.29109 -0.204773 0)
(1.10511 -0.260222 0)
(0.965753 -0.481382 0)
(1.00356 -0.317753 0)
(0.833354 0.142723 0)
(0.826409 0.415803 0)
(0.838874 0.532693 0)
(1.06711 0.26509 0)
(1.17675 -0.102866 0)
(1.05236 -0.474202 0)
(0.962039 -0.439171 0)
(0.853527 0.00944001 0)
(0.67938 0.372269 0)
(0.729143 0.353974 0)
(0.854122 0.0477281 0)
(1.21056 -0.111471 0)
(1.16234 -0.183034 0)
(1.00265 -0.243505 0)
(0.962331 -0.16958 0)
(0.979164 -0.0179145 0)
(0.933724 -0.118115 0)
(0.787212 -0.21781 0)
(0.841935 0.0117447 0)
(0.922998 0.347815 0)
(1.09619 0.492363 0)
(1.3829 0.497468 0)
(1.48533 0.0288704 0)
(1.37334 -0.278878 0)
(1.25483 -0.172978 0)
(1.1028 -0.254572 0)
(0.963433 -0.483844 0)
(1.02131 -0.303767 0)
(0.840171 0.171987 0)
(0.827774 0.412745 0)
(0.854522 0.502475 0)
(1.10698 0.229704 0)
(1.2078 -0.0962319 0)
(1.067 -0.449709 0)
(0.960535 -0.422163 0)
(0.86398 0.0379065 0)
(0.711648 0.389275 0)
(0.795038 0.339489 0)
(0.901152 0.0373397 0)
(1.17629 -0.0821727 0)
(1.19347 -0.117888 0)
(1.10546 -0.17741 0)
(0.998007 -0.169713 0)
(1.02334 -0.0299156 0)
(1.02339 -0.0814746 0)
(0.857609 -0.19246 0)
(0.856782 -0.0118517 0)
(0.918535 0.310597 0)
(1.03928 0.400227 0)
(1.42154 0.421055 0)
(1.46739 0.04265 0)
(1.31965 -0.259315 0)
(1.27601 -0.130083 0)
(1.1775 -0.168144 0)
(0.988149 -0.442511 0)
(1.0409 -0.294128 0)
(0.869542 0.205499 0)
(0.839019 0.415506 0)
(0.875339 0.460189 0)
(1.13742 0.186655 0)
(1.2351 -0.0952734 0)
(1.08017 -0.413722 0)
(0.951482 -0.401839 0)
(0.881236 0.059538 0)
(0.754257 0.395419 0)
(0.870678 0.321219 0)
(0.952647 0.0299913 0)
(1.16534 -0.0667094 0)
(1.10507 -0.133517 0)
(1.02338 -0.1476 0)
(0.941226 -0.13741 0)
(0.965519 -0.0290352 0)
(1.00317 -0.0516964 0)
(0.878493 -0.140991 0)
(0.824641 -0.00412624 0)
(0.875131 0.262503 0)
(0.965117 0.270181 0)
(1.37502 0.326746 0)
(1.43305 0.0527882 0)
(1.27411 -0.198564 0)
(1.19875 -0.0990584 0)
(1.14866 -0.164769 0)
(0.956984 -0.441401 0)
(1.01433 -0.281541 0)
(0.86299 0.244524 0)
(0.837309 0.403764 0)
(0.900293 0.409529 0)
(1.15682 0.145585 0)
(1.25404 -0.0860679 0)
(1.0927 -0.375035 0)
(0.933653 -0.380735 0)
(0.886187 0.0794874 0)
(0.799892 0.397935 0)
(0.946134 0.301899 0)
(1.00166 0.0229465 0)
(1.13878 -0.0427671 0)
(1.11979 -0.0679537 0)
(1.08231 -0.0848748 0)
(0.999974 -0.113968 0)
(0.978343 -0.0497487 0)
(1.01874 -0.0432891 0)
(0.916939 -0.102395 0)
(0.831792 -0.00829269 0)
(0.912032 0.221168 0)
(0.95991 0.173383 0)
(1.28885 0.235468 0)
(1.34004 0.0706646 0)
(1.1969 -0.167244 0)
(1.14054 -0.0947459 0)
(1.20001 -0.0994334 0)
(0.969783 -0.368422 0)
(0.968816 -0.274724 0)
(0.86831 0.266627 0)
(0.858383 0.40134 0)
(0.954209 0.352628 0)
(1.1741 0.094999 0)
(1.26315 -0.0800614 0)
(1.10559 -0.321639 0)
(0.908695 -0.352801 0)
(0.88986 0.0879696 0)
(0.850422 0.38617 0)
(1.01341 0.279818 0)
(1.04824 0.0198317 0)
(1.10298 -0.0252245 0)
(1.08061 -0.0857909 0)
(1.0509 -0.0827088 0)
(1.00411 -0.0825257 0)
(0.980061 -0.0438628 0)
(1.00339 -0.0275643 0)
(0.943109 -0.0530557 0)
(0.868936 -0.0031844 0)
(0.956539 0.183608 0)
(0.993546 0.111574 0)
(1.18273 0.174614 0)
(1.24371 0.0686973 0)
(1.19453 -0.106195 0)
(1.09837 -0.078743 0)
(1.1565 -0.114988 0)
(0.948394 -0.334182 0)
(0.860808 -0.248971 0)
(0.81681 0.290897 0)
(0.880793 0.377203 0)
(1.03078 0.302395 0)
(1.18512 0.064496 0)
(1.26196 -0.0743288 0)
(1.12301 -0.269562 0)
(0.876016 -0.323537 0)
(0.872662 0.0926503 0)
(0.881163 0.369239 0)
(1.07106 0.25718 0)
(1.08565 0.0168477 0)
(1.08888 -0.0147539 0)
(1.07921 -0.0502174 0)
(1.04313 -0.0459461 0)
(1.0149 -0.0559751 0)
(0.989467 -0.0388603 0)
(0.994262 -0.0228798 0)
(0.966419 -0.0272462 0)
(0.905301 -0.0106285 0)
(0.981694 0.148315 0)
(1.01294 0.0783962 0)
(1.10778 0.131244 0)
(1.18013 0.0537186 0)
(1.15579 -0.0914653 0)
(1.04237 -0.0737178 0)
(1.16262 -0.0740716 0)
(1.02517 -0.23901 0)
(0.812484 -0.216818 0)
(0.761494 0.287922 0)
(0.94744 0.338145 0)
(1.1124 0.249075 0)
(1.18957 0.0310296 0)
(1.22767 -0.0698695 0)
(1.13573 -0.20124 0)
(0.847821 -0.279605 0)
(0.861715 0.0808281 0)
(0.928468 0.335975 0)
(1.11064 0.23314 0)
(1.10795 0.0173449 0)
(1.06588 -0.00207703 0)
(1.06126 -0.0439083 0)
(1.0347 -0.0392105 0)
(1.01785 -0.0430906 0)
(0.998689 -0.0303001 0)
(0.996272 -0.0198917 0)
(0.983202 -0.00369336 0)
(0.937457 -0.00647411 0)
(0.993291 0.112627 0)
(1.01093 0.054044 0)
(1.08967 0.101673 0)
(1.1249 0.0307749 0)
(1.1288 -0.0472332 0)
(1.04646 -0.0596291 0)
(1.09283 -0.108734 0)
(0.961868 -0.187674 0)
(0.801797 -0.1527 0)
(0.741485 0.236747 0)
(0.990641 0.237939 0)
(1.1388 0.207208 0)
(1.2001 0.0307153 0)
(1.19233 -0.0560303 0)
(1.13761 -0.143429 0)
(0.848339 -0.230616 0)
(0.825602 0.0687442 0)
(0.930493 0.295458 0)
(1.11713 0.209063 0)
(1.11587 0.0189291 0)
(1.05341 0.00105533 0)
(1.05339 -0.0301195 0)
(1.02951 -0.0234008 0)
(1.02092 -0.0289311 0)
(1.00485 -0.0186956 0)
(0.997608 -0.0155649 0)
(0.993538 0.00842516 0)
(0.961054 -0.0101662 0)
(1.00503 0.0917643 0)
(1.01331 0.0335412 0)
(1.07147 0.0760733 0)
(1.09061 0.0251613 0)
(1.10649 -0.0464993 0)
(1.03672 -0.044853 0)
(1.08283 -0.0636703 0)
(0.970539 -0.1208 0)
(0.857846 -0.117126 0)
(0.785422 0.191494 0)
(1.0297 0.168569 0)
(1.12263 0.165463 0)
(1.14005 0.0159561 0)
(1.1218 -0.0604575 0)
(1.14267 -0.093493 0)
(0.92484 -0.174007 0)
(0.840069 0.0482887 0)
(0.937436 0.244091 0)
(1.11587 0.178823 0)
(1.1203 0.0162556 0)
(1.04523 0.00534483 0)
(1.04239 -0.0202711 0)
(1.02754 -0.0135172 0)
(1.02185 -0.0222101 0)
(1.00582 -0.00805071 0)
(1.00549 -0.016088 0)
(0.998692 0.0172536 0)
(0.980982 -0.00769846 0)
(1.01259 0.0711445 0)
(1.01205 0.0187097 0)
(1.06337 0.0625411 0)
(1.06589 0.00774594 0)
(1.08792 -0.0235095 0)
(1.02539 -0.0324315 0)
(1.05747 -0.0715504 0)
(0.972139 -0.0794173 0)
(0.907605 -0.070952 0)
(0.841534 0.150305 0)
(1.02979 0.101193 0)
(1.09736 0.156398 0)
(1.14184 0.0308473 0)
(1.092 -0.0537716 0)
(1.07093 -0.0651516 0)
(0.917931 -0.125341 0)
(0.855659 0.0473729 0)
(0.940151 0.200362 0)
(1.1258 0.154223 0)
(1.13295 0.0189835 0)
(1.03819 0.00790976 0)
(1.0347 -0.014209 0)
(1.02641 -0.0066833 0)
(1.02012 -0.014129 0)
(1.01166 -0.00162554 0)
(1.00745 -0.0133654 0)
(1.0058 0.024293 0)
(0.991411 -0.0150648 0)
(1.02101 0.0645775 0)
(1.0104 0.00356902 0)
(1.05863 0.0475084 0)
(1.04424 0.00921957 0)
(1.07461 -0.0266294 0)
(1.01891 -0.0177075 0)
(1.05166 -0.0464238 0)
(0.96875 -0.0479 0)
(0.94025 -0.0510145 0)
(0.900857 0.131428 0)
(1.02326 0.0608083 0)
(1.06402 0.120986 0)
(1.11634 0.0229353 0)
(1.07735 -0.0409104 0)
(1.07584 -0.0253427 0)
(0.956066 -0.0857258 0)
(0.908853 0.0374683 0)
(0.972481 0.154474 0)
(1.11002 0.119698 0)
(1.11602 0.0128522 0)
(1.03242 0.0102779 0)
(1.03054 -0.0108621 0)
(1.02267 0.00224516 0)
(1.0216 -0.0124587 0)
(1.01389 0.00758435 0)
(1.00894 -0.0142801 0)
(1.01511 0.0273549 0)
(0.995694 -0.0152539 0)
(1.02857 0.0534662 0)
(1.00943 -0.0052047 0)
(1.05227 0.0412335 0)
(1.03177 -0.000601765 0)
(1.06576 -0.0132356 0)
(1.0071 -0.00811449 0)
(1.04709 -0.0430405 0)
(0.974881 -0.019114 0)
(0.966171 -0.0350729 0)
(0.939562 0.105759 0)
(1.02075 0.0314559 0)
(1.05624 0.107303 0)
(1.09432 0.0236078 0)
(1.0506 -0.0361382 0)
(1.06844 -0.0059366 0)
(0.967199 -0.0577791 0)
(0.948823 0.0299267 0)
(0.998047 0.122467 0)
(1.10328 0.102834 0)
(1.1049 0.0154028 0)
(1.02929 0.0114489 0)
(1.02633 -0.00718262 0)
(1.02079 0.00638745 0)
(1.02254 -0.0101087 0)
(1.01438 0.0140613 0)
(1.01418 -0.0175279 0)
(1.01768 0.0351406 0)
(1.00182 -0.0247858 0)
(1.03314 0.0528392 0)
(1.00646 -0.0141214 0)
(1.05082 0.032786 0)
(1.0209 0.00303627 0)
(1.05454 -0.0147596 0)
(1.00794 0.000850542 0)
(1.04098 -0.0303359 0)
(0.978718 -0.00153202 0)
(0.991269 -0.0331534 0)
(0.962535 0.0988994 0)
(1.02388 0.00748018 0)
(1.04053 0.0848982 0)
(1.08436 0.027674 0)
(1.03645 -0.0354453 0)
(1.0613 0.012002 0)
(0.991684 -0.0274 0)
(0.974842 0.0186556 0)
(1.00927 0.0928845 0)
(1.09183 0.0848638 0)
(1.09749 0.0132734 0)
(1.02623 0.0134586 0)
(1.02424 -0.0067895 0)
(1.01981 0.0119044 0)
(1.02234 -0.0113836 0)
(1.01699 0.0207351 0)
(1.0153 -0.0209581 0)
(1.02159 0.0386592 0)
(1.00636 -0.0280778 0)
(1.03384 0.048957 0)
(1.00716 -0.0180873 0)
(1.04756 0.0285682 0)
(1.01109 0.0013622 0)
(1.05479 -0.0101633 0)
(0.999158 0.00870501 0)
(1.04047 -0.0270976 0)
(0.989561 0.0142971 0)
(0.997711 -0.0295078 0)
(0.988876 0.0849474 0)
(1.02137 -0.00426366 0)
(1.03117 0.072245 0)
(1.07716 0.0240922 0)
(1.02519 -0.024198 0)
(1.05353 0.0193976 0)
(1.00541 -0.0138309 0)
(0.996565 0.0158971 0)
(1.01682 0.0715868 0)
(1.08037 0.0696544 0)
(1.08669 0.0128581 0)
(1.02419 0.01373 0)
(1.02413 -0.00557402 0)
(1.01723 0.0151375 0)
(1.02572 -0.0125622 0)
(1.01413 0.0267971 0)
(1.02155 -0.0266601 0)
(1.01907 0.0462461 0)
(1.01175 -0.0373279 0)
(1.03363 0.0530273 0)
(1.00405 -0.0259708 0)
(1.04933 0.0281442 0)
(1.00161 0.0016992 0)
(1.05149 -0.0105568 0)
(1.00054 0.0175295 0)
(1.03218 -0.0280447 0)
(1.00086 0.0303519 0)
(1.00323 -0.0362024 0)
(1.00038 0.0805902 0)
(1.02507 -0.012414 0)
(1.02315 0.054265 0)
(1.06715 0.0285751 0)
(1.0195 -0.0225683 0)
(1.0498 0.0185213 0)
(1.0127 0.00543409 0)
(1.01147 0.00981315 0)
(1.02323 0.0508041 0)
(1.06993 0.0577834 0)
(1.07679 0.0118395 0)
(1.02306 0.0133076 0)
(1.02036 -0.00532086 0)
(1.02291 0.0177424 0)
(1.01727 -0.0146481 0)
(1.0251 0.0317119 0)
(1.01269 -0.0316647 0)
(1.02793 0.0515943 0)
(1.00797 -0.0441116 0)
(1.03623 0.0562518 0)
(1.00202 -0.0303824 0)
(1.04916 0.0264277 0)
(0.996048 0.00657465 0)
(1.05009 -0.0171447 0)
(1.00335 0.032616 0)
(1.02107 -0.0344293 0)
(1.02079 0.0410442 0)
(0.996625 -0.0325808 0)
(1.0103 0.0688924 0)
(1.03345 -0.0133131 0)
(1.0068 0.0473254 0)
(1.06044 0.0228701 0)
(1.02615 -0.0143232 0)
(1.03291 0.0231073 0)
(1.01668 0.0104576 0)
(1.02878 0.00740586 0)
(1.02108 0.0396679 0)
(1.0569 0.0467051 0)
(1.06652 0.0105623 0)
(1.02892 0.0196089 0)
(1.0113 -0.0132425 0)
(1.03196 0.0266853 0)
(1.00859 -0.0221145 0)
(1.03226 0.037993 0)
(1.01053 -0.0357893 0)
(1.0282 0.0543081 0)
(1.01356 -0.0477287 0)
(1.0323 0.0592864 0)
(1.00485 -0.0359508 0)
(1.05183 0.0281041 0)
(0.987022 0.00983513 0)
(1.05996 -0.0268112 0)
(0.998434 0.0528026 0)
(1.01741 -0.0511095 0)
(1.0441 0.055088 0)
(0.973714 -0.031264 0)
(1.04012 0.0521669 0)
(1.02704 -0.006282 0)
(0.992275 0.0394268 0)
(1.07558 0.0143104 0)
(1.01214 -0.00355456 0)
(1.02465 0.0232788 0)
(1.03464 0.0101852 0)
(1.02935 0.00770889 0)
(1.01823 0.0335029 0)
(1.05404 0.0367191 0)
(1.06001 0.00866067 0)
(1.0358 0.0240385 0)
(1.00654 -0.0166028 0)
(1.03264 0.0283256 0)
(1.01218 -0.020826 0)
(1.02574 0.0350898 0)
(1.0206 -0.0320101 0)
(1.0192 0.0523655 0)
(1.02324 -0.0507929 0)
(1.02615 0.0664601 0)
(1.01039 -0.0484453 0)
(1.04733 0.0372354 0)
(0.993534 0.00920989 0)
(1.05074 -0.0407163 0)
(1.01311 0.0835569 0)
(1.00106 -0.0865619 0)
(1.06416 0.0808734 0)
(0.96254 -0.0336497 0)
(1.05002 0.0236781 0)
(1.03351 0.0236276 0)
(0.973791 0.0134328 0)
(1.0905 0.007077 0)
(0.999066 0.0201535 0)
(1.01861 0.00645743 0)
(1.05012 0.00959089 0)
(1.02343 0.0171553 0)
(1.01559 0.0237698 0)
(1.05287 0.0250786 0)
(1.05352 0.00886398 0)
(1.03476 0.0228014 0)
(1.00924 -0.0145514 0)
(1.02882 0.0254244 0)
(1.01627 -0.0184157 0)
(1.02355 0.033571 0)
(1.02126 -0.0336148 0)
(1.02116 0.0556856 0)
(1.02306 -0.0585685 0)
(1.02226 0.0732289 0)
(1.02572 -0.0546379 0)
(1.02025 0.0358893 0)
(1.03461 0.0208212 0)
(1.00758 -0.0627144 0)
(1.0508 0.113119 0)
(0.987799 -0.110029 0)
(1.05877 0.0914168 0)
(0.997728 -0.0171237 0)
(1.02338 -0.0119363 0)
(1.05666 0.0576708 0)
(0.976674 -0.00739317 0)
(1.08002 -0.00418014 0)
(1.0115 0.0468042 0)
(1.02022 -0.0132766 0)
(1.05233 0.00624914 0)
(1.02871 0.0294066 0)
(1.02284 0.0133049 0)
(1.05203 0.0137103 0)
(1.05187 0.00915831 0)
(1.0291 0.0206488 0)
(1.01409 -0.0135315 0)
(1.02507 0.0246987 0)
(1.01873 -0.0197282 0)
(1.02224 0.034782 0)
(1.0235 -0.035436 0)
(1.01633 0.0541121 0)
(1.0353 -0.0539772 0)
(1.00061 0.062937 0)
(1.05972 -0.0400489 0)
(0.976574 0.0197663 0)
(1.08084 0.0358832 0)
(0.969813 -0.0721653 0)
(1.06971 0.117259 0)
(1.0016 -0.101907 0)
(1.02872 0.0818715 0)
(1.04397 0.000594126 0)
(1.00211 -0.0293433 0)
(1.05752 0.0678448 0)
(1.01102 -0.00848107 0)
(1.05059 -0.0160261 0)
(1.03102 0.0626127 0)
(1.03514 -0.020321 0)
(1.04355 0.00178963 0)
(1.03909 0.0376604 0)
(1.03872 0.00881301 0)
(1.05273 0.00588597 0)
(1.05361 0.00931034 0)
(1.02192 0.0184258 0)
(1.02061 -0.0122468 0)
(1.01819 0.0225978 0)
(1.02573 -0.0178164 0)
(1.01349 0.0300765 0)
(1.03406 -0.0278645 0)
(1.00196 0.0403995 0)
(1.052 -0.0353567 0)
(0.979102 0.0394706 0)
(1.0798 -0.0182337 0)
(0.954183 0.00320034 0)
(1.09443 0.0376277 0)
(0.961706 -0.0603886 0)
(1.06424 0.0915152 0)
(1.01681 -0.0749005 0)
(1.00548 0.0619528 0)
(1.06188 0.00161099 0)
(0.996693 -0.0211623 0)
(1.04322 0.0509668 0)
(1.03763 -0.00385114 0)
(1.02287 -0.015491 0)
(1.03964 0.0552301 0)
(1.04324 -0.0189788 0)
(1.03019 0.00320189 0)
(1.04086 0.0330765 0)
(1.0453 0.00552059 0)
(1.04747 0.00293526 0)
(1.04795 0.00850403 0)
(1.01652 0.0155281 0)
(1.02546 -0.00992095 0)
(1.01227 0.0188927 0)
(1.03139 -0.0137913 0)
(1.00621 0.0231597 0)
(1.04044 -0.0186499 0)
(0.994748 0.0266997 0)
(1.05541 -0.0193249 0)
(0.977643 0.0213263 0)
(1.0736 -0.0044023 0)
(0.964478 -0.00418285 0)
(1.07711 0.0305753 0)
(0.978932 -0.0410008 0)
(1.04633 0.0595518 0)
(1.02564 -0.0456724 0)
(1.00057 0.0401552 0)
(1.057 0.000448736 0)
(1.00199 -0.00647909 0)
(1.03204 0.0271019 0)
(1.04357 0.00484715 0)
(1.01177 -0.0106066 0)
(1.04069 0.0369764 0)
(1.04019 -0.00937621 0)
(1.02387 0.004608 0)
(1.03928 0.0215106 0)
(1.04245 0.00668365 0)
(1.04091 0.00338357 0)
(1.04119 0.00744618 0)
(1.01484 0.012134 0)
(1.02618 -0.00684956 0)
(1.01111 0.0143355 0)
(1.03141 -0.00903017 0)
(1.00598 0.016337 0)
(1.03861 -0.0108489 0)
(0.997893 0.0167775 0)
(1.04833 -0.0091654 0)
(0.988492 0.0114841 0)
(1.05762 0.00124722 0)
(0.984183 -0.00418333 0)
(1.05555 0.021266 0)
(0.997015 -0.0242533 0)
(1.03408 0.0372936 0)
(1.02596 -0.0268169 0)
(1.00844 0.0284847 0)
(1.04267 -0.00286413 0)
(1.01305 0.00420792 0)
(1.02584 0.0131287 0)
(1.03933 0.00701378 0)
(1.01495 -0.00345912 0)
(1.0371 0.022539 0)
(1.03402 -0.00351449 0)
(1.02672 0.00709375 0)
(1.03599 0.0124163 0)
(1.03738 0.00710822 0)
(1.03805 0.00414307 0)
(1.03783 0.00669063 0)
(1.01503 0.00905822 0)
(1.02494 -0.00428847 0)
(1.01238 0.0104018 0)
(1.02889 -0.0054118 0)
(1.00893 0.0112458 0)
(1.03389 -0.00589833 0)
(1.00412 0.0106845 0)
(1.03971 -0.00396802 0)
(0.999551 0.00668362 0)
(1.04434 0.00268778 0)
(0.998514 -0.00258316 0)
(1.04218 0.0141246 0)
(1.00659 -0.0134843 0)
(1.0305 0.023501 0)
(1.02249 -0.0152443 0)
(1.01776 0.0202878 0)
(1.03184 -0.00326124 0)
(1.02098 0.00783484 0)
(1.02384 0.00640596 0)
(1.03571 0.00696897 0)
(1.01847 0.000255652 0)
(1.03599 0.0137943 0)
(1.02997 -0.000417733 0)
(1.0296 0.00783873 0)
(1.03478 0.0066857 0)
(1.03471 0.0071415 0)
(1.03654 0.00420511 0)
(1.03695 0.00589558 0)
(1.01562 0.00651113 0)
(1.02343 -0.00237531 0)
(1.01394 0.00727165 0)
(1.0263 -0.00288786 0)
(1.01185 0.00755083 0)
(1.02974 -0.00287015 0)
(1.00913 0.00681133 0)
(1.03341 -0.00134841 0)
(1.00685 0.00412388 0)
(1.03613 0.00267841 0)
(1.00667 -0.00111756 0)
(1.03521 0.00913485 0)
(1.01121 -0.00684616 0)
(1.02982 0.0145603 0)
(1.0197 -0.00796155 0)
(1.02407 0.0136272 0)
(1.02525 -0.00203059 0)
(1.02618 0.00730951 0)
(1.0225 0.00366783 0)
(1.03415 0.00568382 0)
(1.02081 0.00156936 0)
(1.03525 0.00908878 0)
(1.02826 0.000219442 0)
(1.03145 0.00744994 0)
(1.03392 0.00353663 0)
(1.03384 0.00612644 0)
(1.03564 0.00376414 0)
(1.03698 0.00503433 0)
(1.01609 0.00435374 0)
(1.02223 -0.0011897 0)
(1.01509 0.00477001 0)
(1.02438 -0.00140285 0)
(1.01386 0.00483103 0)
(1.02686 -0.00127469 0)
(1.01233 0.00425389 0)
(1.0294 -0.000277077 0)
(1.01114 0.00264098 0)
(1.03139 0.00202463 0)
(1.01112 -0.00014479 0)
(1.03154 0.00552757 0)
(1.01354 -0.00298707 0)
(1.02967 0.00848544 0)
(1.01806 -0.0035717 0)
(1.02762 0.00833785 0)
(1.02155 -0.000716664 0)
(1.02922 0.00538102 0)
(1.02148 0.00224358 0)
(1.03353 0.00434092 0)
(1.02212 0.00142972 0)
(1.03438 0.00614478 0)
(1.02788 0.000232369 0)
(1.03211 0.00598862 0)
(1.03305 0.00182967 0)
(1.03394 0.00470862 0)
(1.03468 0.00298505 0)
(1.03701 0.00392653 0)
(1.01638 0.00250203 0)
(1.02143 -0.000510609 0)
(1.01579 0.00270625 0)
(1.02315 -0.000589885 0)
(1.01505 0.00270394 0)
(1.02512 -0.000489693 0)
(1.01415 0.00236768 0)
(1.02713 4.34339e-05 0)
(1.01345 0.00155501 0)
(1.02886 0.0011843 0)
(1.01343 0.000253941 0)
(1.02968 0.00287313 0)
(1.01473 -0.00100337 0)
(1.02955 0.00431542 0)
(1.0173 -0.00127124 0)
(1.02934 0.00440947 0)
(1.01974 -4.83346e-05 0)
(1.03072 0.00322842 0)
(1.02098 0.0012349 0)
(1.03309 0.00281752 0)
(1.02299 0.000804996 0)
(1.03356 0.0037844 0)
(1.0278 3.33033e-05 0)
(1.03249 0.00386786 0)
(1.0321 0.000926696 0)
(1.03427 0.00289617 0)
(1.03401 0.00193489 0)
(1.03707 0.00256127 0)
(1.01651 0.000857195 0)
(1.02102 -0.000102427 0)
(1.01612 0.000913308 0)
(1.02254 -0.000129948 0)
(1.01559 0.000902615 0)
(1.02428 -0.000101254 0)
(1.01496 0.000790148 0)
(1.02607 6.23576e-05 0)
(1.01445 0.000546518 0)
(1.02772 0.000406193 0)
(1.01442 0.000176871 0)
(1.02886 0.000909501 0)
(1.01525 -0.000175937 0)
(1.02947 0.00133038 0)
(1.01703 -0.000263 0)
(1.03 0.00138155 0)
(1.01904 5.86783e-05 0)
(1.03125 0.00108844 0)
(1.02084 0.000406277 0)
(1.03278 0.00101236 0)
(1.02343 0.000246831 0)
(1.03309 0.00130903 0)
(1.02777 -3.99358e-06 0)
(1.0327 0.0013484 0)
(1.03149 0.000288231 0)
(1.03457 0.00098989 0)
(1.03364 0.000691043 0)
(1.03708 0.000901773 0)
)
;

boundaryField
{
    outlet
    {
        type            zeroGradient;
    }
    upperWall
    {
        type            symmetryPlane;
    }
    lowerWall
    {
        type            symmetryPlane;
    }
    inlet
    {
        type            fixedValue;
        value           nonuniform 0();
    }
    cylinder
    {
        type            fixedValue;
        value           nonuniform 0();
    }
    frontAndBack
    {
        type            empty;
    }
    procBoundary7to3
    {
        type            processor;