/*--------------------------------*- C++ -*----------------------------------*\
| =========                 |                                                 |
| \\      /  F ield         | OpenFOAM: The Open Source CFD Toolbox           |
|  \\    /   O peration     | Version:                                        |
|   \\  /    A nd           | Website:  www.openfoam.com                      |
|    \\/     M anipulation  |                                                 |
\*---------------------------------------------------------------------------*/
FoamFile
{
    version     2.0;
    format      ascii;
    class       volVectorField;
    location    "86";
    object      U;
}
// * * * * * * * * * * * * * * * * * * * * * * * * * * * * * * * * * * * * * //

dimensions      [0 1 -1 0 0 0 0];


internalField   nonuniform List<vector> 
1150
(
(0.855797 -0.0154571 -5.18832e-21)
(0.843583 -0.0174148 1.20952e-20)
(0.830616 -0.0195838 -6.59997e-21)
(0.855469 0.00486609 -3.72844e-21)
(0.843223 0.00479329 3.49155e-21)
(0.830391 0.00479025 -3.4489e-20)
(0.857881 0.0244472 -6.24511e-21)
(0.846039 0.0260474 4.92878e-20)
(0.833661 0.0280369 -6.08142e-20)
(0.862818 0.0449158 2.36553e-21)
(0.852277 0.0479984 1.43155e-20)
(0.870296 0.0640878 7.1886e-21)
(0.861056 0.0684298 1.30974e-19)
(0.881284 0.0839308 -3.55451e-20)
(0.999407 -0.00232376 -2.29471e-22)
(1.00567 -0.00474123 -6.73294e-23)
(1.00285 3.96788e-05 4.29514e-23)
(1.00095 0.00489282 -1.80413e-22)
(0.99961 -0.0019855 4.87938e-23)
(1.00021 0.00249222 2.0792e-22)
(0.997673 0.000658952 -1.90707e-22)
(0.998226 -0.00542111 1.17511e-23)
(0.996769 -0.0024078 -1.11412e-22)
(0.995349 -3.76199e-05 1.75338e-22)
(0.993502 -0.00624166 -1.1822e-22)
(0.992408 -0.000763953 4.28493e-23)
(0.989267 -0.000632626 -4.06953e-22)
(0.986099 -0.000732456 3.30644e-22)
(0.983363 -0.0011358 -2.61353e-22)
(0.98015 -2.39138e-05 5.70492e-22)
(0.976174 -0.000723789 3.53421e-23)
(0.971869 -0.00124529 -1.17996e-21)
(0.96734 -0.00252222 1.24909e-21)
(0.962253 -0.00284875 -3.70801e-22)
(0.956181 -0.00434512 8.7381e-22)
(0.949744 -0.00491319 -2.20176e-21)
(0.942474 -0.00668699 2.94841e-22)
(0.934878 -0.0072636 1.36769e-21)
(0.925851 -0.00899206 3.69544e-22)
(0.916595 -0.00954226 -3.76096e-21)
(0.905901 -0.0113041 3.05359e-21)
(0.895042 -0.0117293 -1.72399e-22)
(0.882376 -0.0134711 6.14451e-22)
(0.869274 -0.0138741 3.07113e-21)
(0.998677 -0.00366526 9.88963e-22)
(1.00663 -0.00310868 -1.58537e-22)
(1.00438 -0.00124256 -6.13903e-22)
(0.999102 0.0068693 2.60502e-22)
(0.99906 -0.00353759 -4.62265e-22)
(0.999954 0.00453397 7.51786e-22)
(0.996339 -0.000898461 -2.9652e-22)
(0.998816 -0.00375517 -5.93239e-22)
(0.99794 -0.00315933 4.90536e-22)
(0.995645 0.00138815 -8.86539e-22)
(0.993919 -0.0066048 4.13683e-22)
(0.993481 0.00142528 -2.92758e-22)
(0.989365 -0.000568696 4.65448e-22)
(0.985139 0.00158906 -2.79283e-22)
(0.983211 -0.000357224 2.48523e-21)
(0.979088 0.00263917 -3.83321e-21)
(0.975342 0.000641417 3.41768e-21)
(0.970481 0.00212026 2.6864e-21)
(0.966397 -3.29893e-05 -3.39956e-21)
(0.961307 0.00151058 3.44093e-21)
(0.955255 -0.000579629 -5.46997e-21)
(0.949124 0.000881546 -1.87478e-21)
(0.941728 -0.00111113 -1.39468e-21)
(0.934557 0.000538109 -2.34132e-21)
(0.925279 -0.00106907 6.32318e-21)
(0.916482 0.00108782 1.22434e-21)
(0.905409 -6.54843e-05 -3.37542e-21)
(0.895082 0.00252148 7.72402e-21)
(0.882018 0.00188547 4.2766e-22)
(0.869193 0.00487675 -8.93716e-21)
(0.998045 -0.00506973 -1.65409e-21)
(1.0076 -0.00165192 -3.04964e-22)
(1.00581 -0.00215822 -2.06458e-22)
(0.996887 0.00895183 -1.23857e-21)
(0.998644 -0.00529099 2.08154e-22)
(0.999469 0.00682643 -1.72791e-21)
(0.995161 -0.00288062 1.46621e-21)
(0.999554 -0.00224224 1.70735e-21)
(0.999107 -0.00367207 -1.25765e-21)
(0.99597 0.00236349 -1.89098e-21)
(0.994428 -0.00664851 1.69811e-21)
(0.994385 0.00389536 -2.03581e-21)
(0.9893 -0.000784365 3.68756e-21)
(0.984046 0.00450253 -6.56497e-22)
(0.982985 0.000311985 -1.28282e-21)
(0.9778 0.00525328 2.34892e-21)
(0.974476 0.00173289 -8.17115e-21)
(0.969137 0.00524749 1.13413e-20)
(0.965553 0.00190063 -1.70159e-21)
(0.960316 0.0053341 -4.7762e-23)
(0.954564 0.00238548 -3.26349e-21)
(0.948536 0.00606152 1.87397e-22)
(0.941388 0.00375289 -7.05805e-21)
(0.934573 0.00769743 1.41703e-20)
(0.92536 0.00610592 1.7127e-21)
(0.917349 0.0109316 -1.05193e-20)
(0.906038 0.0102783 4.08762e-21)
(0.896405 0.0158958 3.03205e-24)
(0.883259 0.0163466 -8.47192e-21)
(0.871368 0.0229059 1.7749e-20)
(0.997549 -0.0063765 1.09892e-21)
(1.00863 -0.000555628 7.58697e-22)
(1.0071 -0.00251813 3.55257e-22)
(0.99416 0.0108981 3.14969e-21)
(0.998425 -0.00685464 4.16715e-22)
(0.998773 0.00884178 -9.48974e-22)
(0.994197 -0.00502101 2.95993e-23)
(1.00061 -0.00100693 -9.0287e-22)
(1.0003 -0.00405804 1.75174e-21)
(0.996256 0.00304941 -1.02075e-21)
(0.99522 -0.00641994 -2.02792e-21)
(0.994856 0.00660428 1.31712e-21)
(0.989062 -0.000683775 1.60464e-21)
(0.982801 0.00746122 -3.68689e-21)
(0.982386 0.00132406 7.89693e-21)
(0.976289 0.00795882 -1.07056e-20)
(0.973607 0.0031379 5.39593e-21)
(0.96767 0.00862091 -7.90808e-21)
(0.964976 0.00421596 4.11055e-21)
(0.959423 0.00962873 8.82176e-21)
(0.954339 0.00605153 -1.24277e-20)
(0.948535 0.011898 1.59335e-20)
(0.941613 0.00946688 -1.76285e-20)
(0.935437 0.0159066 7.17349e-21)
(0.926244 0.014661 9.16505e-21)
(0.918914 0.0220513 1.18235e-20)
(0.907804 0.0221263 -4.00937e-20)
(0.898855 0.0306675 8.07411e-21)
(0.886046 0.0321859 -1.9847e-21)
(0.875399 0.0422128 -6.14587e-21)
(0.99722 -0.00780319 4.76334e-22)
(1.00976 0.000439559 -4.62853e-22)
(1.00809 -0.00242176 6.91939e-22)
(0.990958 0.0129084 -1.1736e-21)
(0.998402 -0.00870432 1.06126e-21)
(0.997864 0.0111455 -7.09613e-22)
(0.993662 -0.00777501 9.20267e-23)
(1.00198 0.000452779 -3.24475e-21)
(1.00145 -0.00449922 2.61782e-21)
(0.996513 0.0036174 2.08458e-21)
(0.996241 -0.0056488 -3.57759e-21)
(0.99499 0.00932262 -8.77918e-22)
(0.988294 -0.000774018 4.34461e-21)
(0.981299 0.0111046 -2.83838e-21)
(0.981657 0.00148816 1.05307e-21)
(0.974586 0.0107863 -1.2813e-21)
(0.973075 0.00372574 1.09254e-21)
(0.966378 0.011537 -4.12372e-22)
(0.964762 0.00573516 -1.04493e-21)
(0.958934 0.0131094 1.60411e-20)
(0.954698 0.00874051 -1.40094e-20)
(0.949011 0.0166563 -1.42425e-20)
(0.942787 0.0136723 -2.96088e-21)
(0.936858 0.0223922 3.96411e-20)
(0.928355 0.0210981 2.27212e-20)
(0.921577 0.031212 -2.23929e-20)
(0.910754 0.0318158 1.53549e-20)
(0.903024 0.043628 -2.9969e-20)
(0.890234 0.0461793 1.67648e-20)
(0.881295 0.0601992 -1.16323e-19)
(0.997145 -0.00905449 -2.48991e-21)
(1.01092 0.00100144 9.81391e-22)
(1.00871 -0.00151259 -1.68287e-21)
(0.987227 0.014396 1.56189e-21)
(0.998683 -0.0101351 -2.04101e-21)
(0.996987 0.0126089 9.60652e-22)
(0.993558 -0.0103199 6.44939e-22)
(1.00393 0.00144277 1.17635e-21)
(1.00244 -0.00456395 5.06101e-23)
(0.996644 0.00387929 -4.20648e-21)
(0.997547 -0.00432155 1.14085e-21)
(0.994115 0.0118701 1.33201e-21)
(0.987344 -7.6977e-07 7.80942e-21)
(0.97949 0.0143836 -7.72135e-21)
(0.980335 0.00237437 3.57099e-21)
(0.972722 0.0135257 5.21623e-21)
(0.972465 0.00533687 -5.17637e-21)
(0.965582 0.0146258 -1.19718e-20)
(0.964966 0.0083661 -5.57449e-21)
(0.958543 0.0170649 2.09313e-20)
(0.955574 0.0124374 8.55326e-21)
(0.949913 0.0223596 -4.73952e-21)
(0.944331 0.0192406 7.44656e-21)
(0.939303 0.0305562 6.5229e-21)
(0.930626 0.0292648 -2.74297e-20)
(0.925329 0.0424682 -3.51692e-20)
(0.915081 0.043453 1.69424e-20)
(0.908231 0.0584413 8.36107e-20)
(0.897429 0.0621003 -1.19941e-19)
(0.889538 0.0792302 1.35247e-19)
(0.997472 -0.0105287 1.25049e-21)
(1.01208 0.00166762 -1.30065e-21)
(1.00866 -0.000257536 -2.04078e-21)
(0.98313 0.015952 1.30659e-21)
(0.999357 -0.0120522 8.55957e-22)
(0.996195 0.0144191 -1.99369e-21)
(0.99426 -0.0138002 1.82412e-21)
(1.00634 0.00334863 1.66035e-21)
(1.00348 -0.00521375 -2.07518e-22)
(0.99639 0.00446313 -1.37634e-21)
(0.998721 -0.00270315 5.33668e-21)
(0.993023 0.0144405 -3.80964e-21)
(0.98578 0.000321865 7.28508e-21)
(0.977132 0.0184658 -1.20813e-20)
(0.979495 0.00106008 1.45044e-20)
(0.971339 0.0168602 -6.1156e-21)
(0.972171 0.00391416 -1.2037e-20)
(0.9653 0.0177636 -7.26009e-21)
(0.966038 0.00831585 -4.93559e-21)
(0.959476 0.020175 -2.49962e-21)
(0.957241 0.0131992 3.71264e-20)
(0.951925 0.0261909 -4.01881e-20)
(0.947105 0.0213832 4.56093e-22)
(0.942545 0.035724 2.64661e-20)
(0.935341 0.0340319 -2.3535e-20)
(0.929587 0.0494042 1.45527e-20)
(0.921236 0.0514481 5.68007e-20)
(0.914901 0.0695046 -9.87864e-20)
(0.904917 0.074034 7.41253e-20)
(0.89988 0.0960565 2.41128e-20)
(0.998394 -0.0117612 3.72009e-23)
(1.01319 0.00192046 1.04229e-21)
(1.00767 0.00207313 2.00107e-21)
(0.978525 0.0163872 1.371e-21)
(1.00088 -0.0133603 -5.48841e-23)
(0.995281 0.0147776 -2.868e-21)
(0.99619 -0.0163149 -1.66937e-21)
(1.0088 0.00440064 4.59966e-21)
(1.00452 -0.00455001 -5.83728e-21)
(0.996189 0.00501163 2.62435e-21)
(0.999396 -5.84589e-05 -7.70887e-22)
(0.990481 0.0162515 1.15755e-20)
(0.984646 0.00297376 -2.24501e-21)
(0.974052 0.0206062 -2.48317e-21)
(0.97841 0.00207846 -9.01215e-21)
(0.970356 0.0198689 -7.71592e-21)
(0.971972 0.00576312 2.77038e-20)
(0.965715 0.0199437 -1.00956e-20)
(0.966433 0.012237 -9.44868e-21)
(0.961621 0.0231824 -2.86713e-21)
(0.959159 0.0192992 2.41971e-20)
(0.954341 0.0315881 -9.55436e-21)
(0.95058 0.0291208 1.4399e-20)
(0.945169 0.0445403 9.78311e-21)
(0.940667 0.0440346 -7.66342e-20)
(0.934915 0.0627404 1.31414e-20)
(0.928573 0.0640362 -1.17796e-20)
(0.924003 0.0866916 1.40523e-22)
(0.916255 0.0903074 6.52066e-20)
(0.999571 -0.0133737 1.08425e-21)
(1.01461 0.00261152 -5.24062e-22)
(1.00557 0.00479361 -1.09846e-21)
(0.973123 0.016945 1.56399e-21)
(1.00356 -0.0152737 1.62789e-21)
(0.993562 0.0154375 -2.82308e-22)
(0.99992 -0.0198808 -1.91935e-21)
(1.01006 0.00691582 2.60847e-21)
(1.00546 -0.00541177 -1.22899e-21)
(0.995548 0.00668214 3.05252e-22)
(0.999706 0.00196376 1.1412e-21)
(0.985628 0.0180655 -6.39591e-21)
(0.983323 0.00369834 4.08893e-21)
(0.971149 0.0233572 1.92581e-21)
(0.97799 -0.00145081 -1.12448e-20)
(0.969379 0.0238016 1.44732e-20)
(0.974367 0.000845771 -1.35604e-20)
(0.96436 0.0247169 2.84148e-20)
(0.97129 0.00744555 -1.94311e-20)
(0.958867 0.0264369 1.42398e-20)
(0.967412 0.0163481 1.34851e-21)
(0.953435 0.03423 -4.79467e-20)
(0.958328 0.0276436 1.37777e-20)
(0.948496 0.0476916 6.492e-21)
(0.946599 0.044216 2.65824e-20)
(0.941506 0.0666912 -2.93755e-20)
(0.936458 0.0682285 -3.23216e-21)
(0.932304 0.0934747 4.05109e-20)
(0.92749 0.0998348 2.89773e-20)
(1.00041 -0.0145877 -1.14021e-21)
(1.01716 0.0029354 3.35895e-22)
(1.00289 0.00897513 -1.6467e-21)
(0.968565 0.0153389 2.91031e-22)
(1.00628 -0.0163463 1.15471e-22)
(0.994982 0.0146955 1.97084e-22)
(1.00025 -0.021922 -6.38934e-22)
(1.01683 0.00862957 8.76288e-22)
(1.00125 -0.00386224 -5.63467e-21)
(0.997737 0.0085771 7.75087e-21)
(0.99847 0.00685805 6.32321e-21)
(0.984745 0.0197291 -6.68734e-21)
(0.978525 0.00902518 -1.20538e-20)
(0.969469 0.0233503 2.25283e-20)
(0.980374 0.000944802 -2.74772e-20)
(0.970082 0.0263805 2.0052e-20)
(0.97395 0.00363722 -2.68415e-21)
(0.971334 0.0277347 -2.15067e-20)
(0.966498 0.0137426 1.4514e-20)
(0.970633 0.0292496 1.55294e-20)
(0.959413 0.0272082 1.53271e-20)
(0.965715 0.0405051 -3.89758e-20)
(0.954737 0.040741 -3.01292e-20)
(0.958208 0.0587136 8.57354e-20)
(0.95011 0.0599581 -5.81999e-20)
(0.950633 0.0821794 -1.56137e-21)
(0.944976 0.0854821 -2.64364e-20)
(0.946406 0.113556 1.04074e-19)
(1.00564 -0.0166409 0)
(1.01422 0.00366434 0)
(1.00342 0.0131612 0)
(0.962931 0.0140677 0)
(1.01412 -0.018962 0)
(0.99 0.0143304 0)
(1.00705 -0.025928 0)
(1.01464 0.0110151 0)
(1.00332 -0.00437651 0)
(0.995846 0.00891207 0)
(1.00172 0.00891759 0)
(0.977462 0.0204416 0)
(0.983368 0.00913892 0)
(0.966959 0.0199743 0)
(0.988808 -0.00309908 0)
(0.96736 0.028583 0)
(0.983526 -0.00566041 0)
(0.966749 0.0337996 0)
(0.977535 0.000787264 0)
(0.967405 0.0334704 0)
(0.972862 0.0172916 0)
(0.962643 0.0389066 0)
(0.969809 0.0319581 0)
(0.959597 0.0563207 0)
(0.964343 0.0491053 0)
(0.958777 0.080021 0)
(0.962775 0.0773348 0)
(0.954222 0.106147 0)
(1.0129 -0.0178611 0)
(1.00404 0.00365186 0)
(1.00312 0.0181321 0)
(0.965089 0.0117568 0)
(1.01835 -0.0199689 0)
(0.982239 0.0135451 0)
(1.01525 -0.0271476 0)
(0.999867 0.0117261 0)
(1.009 -0.00303328 0)
(0.9884 0.00997912 0)
(1.00014 0.0128412 0)
(0.967579 0.0215238 0)
(0.989901 0.0125707 0)
(0.970004 0.0175513 0)
(0.989234 0.00179253 0)
(0.966976 0.0275252 0)
(0.988005 -0.00274584 0)
(0.959616 0.0386176 0)
(0.98759 -0.00137546 0)
(0.954107 0.0432259 0)
(0.986535 0.0137713 0)
(0.955639 0.0471085 0)
(0.979596 0.0316882 0)
(0.959647 0.0595186 0)
(0.972989 0.0538844 0)
(0.962671 0.0767483 0)
(0.97376 0.0849231 0)
(0.963175 0.0982224 0)
(1.01615 -0.018901 0)
(0.992459 0.00452191 0)
(0.99944 0.0215933 0)
(0.979944 0.00882539 0)
(1.01305 -0.0192655 0)
(0.982608 0.0120765 0)
(1.01421 -0.0278855 0)
(0.986121 0.012888 0)
(1.01008 -0.00221201 0)
(0.978614 0.0107374 0)
(0.992251 0.0186673 0)
(0.967598 0.0193068 0)
(0.990349 0.013954 0)
(0.976248 0.0148182 0)
(0.984512 0.0058426 0)
(0.973342 0.023494 0)
(0.979392 0.00206044 0)
(0.966227 0.0344916 0)
(0.981065 0.000822109 0)
(0.956514 0.0409656 0)
(0.9842 0.0137112 0)
(0.956434 0.046693 0)
(0.979806 0.0330809 0)
(0.961151 0.0578027 0)
(0.974667 0.0584089 0)
(0.963398 0.0719843 0)
(0.976605 0.0874165 0)
(0.967917 0.0940916 0)
(1.01328 -0.0187963 0)
(0.985317 0.00526488 0)
(0.99628 0.0225957 0)
(0.999196 0.00638585 0)
(1.00386 -0.0167797 0)
(0.989252 0.00931893 0)
(1.00649 -0.0255095 0)
(0.979791 0.0124139 0)
(1.00654 -0.000299607 0)
(0.97263 0.0119396 0)
(0.987355 0.0227135 0)
(0.977815 0.014859 0)
(0.989417 0.0168329 0)
(0.981497 0.0117804 0)
(0.983315 0.0105684 0)
(0.981419 0.022091 0)
(0.973623 0.00586561 0)
(0.97714 0.0327198 0)
(0.974901 0.00523587 0)
(0.967101 0.0389458 0)
(0.978718 0.0166146 0)
(0.96101 0.0432663 0)
(0.978828 0.0377004 0)
(0.962099 0.0540519 0)
(0.976155 0.0624792 0)
(0.964487 0.069381 0)
(0.976667 0.0859665 0)
(0.97113 0.0912438 0)
(1.00848 -0.0178968 0)
(0.982343 0.00564324 0)
(0.99667 0.0214068 0)
(1.01201 0.00442602 0)
(0.999941 -0.0130907 0)
(0.993219 0.00692386 0)
(1.00041 -0.0218893 0)
(0.976534 0.0109642 0)
(1.00276 0.00175728 0)
(0.973364 0.0125956 0)
(0.988748 0.0236052 0)
(0.988186 0.0107072 0)
(0.991555 0.0205364 0)
(0.9859 0.00917537 0)
(0.984703 0.0135468 0)
(0.988446 0.0228307 0)
(0.975282 0.00781672 0)
(0.984322 0.0325091 0)
(0.97545 0.00781191 0)
(0.973732 0.0382122 0)
(0.980887 0.0208895 0)
(0.963686 0.0411304 0)
(0.978937 0.0409538 0)
(0.963497 0.0518227 0)
(0.977944 0.0635341 0)
(0.967771 0.0692884 0)
(0.978451 0.0816673 0)
(0.974867 0.0888656 0)
(1.00536 -0.0161411 0)
(0.980732 0.00510447 0)
(0.999382 0.0189884 0)
(1.01554 0.00272714 0)
(1.00235 -0.00813785 0)
(0.993216 0.00471259 0)
(0.99865 -0.0172703 0)
(0.973852 0.00923738 0)
(1.00026 0.00277767 0)
(0.977549 0.0127867 0)
(0.993049 0.0226259 0)
(0.992669 0.00799926 0)
(0.994919 0.0234024 0)
(0.990127 0.00933232 0)
(0.986422 0.0138796 0)
(0.993258 0.0251202 0)
(0.979443 0.00867076 0)
(0.988872 0.0328571 0)
(0.978648 0.0112791 0)
(0.976431 0.0369208 0)
(0.985213 0.0263132 0)
(0.967614 0.039868 0)
(0.981063 0.043288 0)
(0.967556 0.0516933 0)
(0.980622 0.0615702 0)
(0.973239 0.0693576 0)
(0.982488 0.0763928 0)
(0.980394 0.0861956 0)
(1.00424 -0.0139131 0)
(0.980462 0.00392486 0)
(1.00125 0.0163321 0)
(1.01257 0.000790936 0)
(1.00603 -0.0032146 0)
(0.994011 0.0033968 0)
(0.998852 -0.0124134 0)
(0.973971 0.00829177 0)
(0.998054 0.0017236 0)
(0.980988 0.013086 0)
(0.996739 0.021001 0)
(0.992013 0.00698787 0)
(0.996619 0.0236578 0)
(0.993767 0.0122693 0)
(0.988133 0.0124534 0)
(0.996105 0.0270338 0)
(0.983134 0.0104527 0)
(0.99125 0.0330365 0)
(0.982794 0.015853 0)
(0.977956 0.0344464 0)
(0.987023 0.0305934 0)
(0.974556 0.0395949 0)
(0.983573 0.044502 0)
(0.97462 0.0523819 0)
(0.98394 0.0578215 0)
(0.980741 0.0685805 0)
(0.988258 0.0706299 0)
(0.987788 0.0824855 0)
(1.0036 -0.0115753 0)
(0.982987 0.00264018 0)
(1.00145 0.0139921 0)
(1.00699 -0.00116736 0)
(1.00658 0.00052645 0)
(0.996576 0.00302614 0)
(0.999118 -0.00793308 0)
(0.977685 0.00830652 0)
(0.996666 -9.44309e-05 0)
(0.98297 0.0136449 0)
(0.997974 0.0188587 0)
(0.990408 0.00771411 0)
(0.996404 0.0214034 0)
(0.996317 0.0162044 0)
(0.989124 0.0110522 0)
(0.997595 0.0280734 0)
(0.985416 0.0133453 0)
(0.991807 0.032037 0)
(0.987159 0.0207405 0)
(0.98088 0.0329861 0)
(0.987242 0.0330426 0)
(0.981088 0.0397585 0)
(0.985574 0.0437655 0)
(0.982282 0.0524027 0)
(0.987939 0.0542882 0)
(0.988657 0.0661621 0)
(0.994818 0.065262 0)
(0.995281 0.0774267 0)
(1.00228 -0.00957877 0)
(0.987459 0.00149775 0)
(1.00161 0.0123141 0)
(1.00251 -0.00233422 0)
(1.00371 0.00234024 0)
(0.998168 0.00334704 0)
(0.998983 -0.00435271 0)
(0.983009 0.00898789 0)
(0.997125 -0.00166159 0)
(0.984524 0.0142453 0)
(0.997897 0.0169991 0)
(0.990089 0.00929142 0)
(0.99562 0.0175154 0)
(0.997277 0.0196952 0)
(0.990613 0.0108695 0)
(0.997094 0.0277331 0)
(0.988423 0.0167513 0)
(0.991094 0.0308202 0)
(0.990682 0.0250825 0)
(0.985369 0.03237 0)
(0.988027 0.0341672 0)
(0.986821 0.0396818 0)
(0.988299 0.041897 0)
(0.989201 0.0514184 0)
(0.992232 0.0506684 0)
(0.99526 0.0622847 0)
(1.00076 0.0599981 0)
(1.00161 0.0709265 0)
(1.00065 -0.00796565 0)
(0.991146 0.000377847 0)
(1.00245 0.0110143 0)
(1.00081 -0.00234423 0)
(1.00069 0.0032513 0)
(0.997295 0.0036889 0)
(0.998923 -0.00176595 0)
(0.987669 0.00933662 0)
(0.998159 -0.0022175 0)
(0.986596 0.0149825 0)
(0.998232 0.0149804 0)
(0.990459 0.0113842 0)
(0.995733 0.0137425 0)
(0.996613 0.0214398 0)
(0.993288 0.0125369 0)
(0.995976 0.0266331 0)
(0.992182 0.0196256 0)
(0.991223 0.0301476 0)
(0.993063 0.0273019 0)
(0.990392 0.0326432 0)
(0.990478 0.0339907 0)
(0.992439 0.0394694 0)
(0.992231 0.0400134 0)
(0.995055 0.048666 0)
(0.997141 0.04763 0)
(1.00037 0.0570368 0)
(1.00612 0.0553887 0)
(1.0066 0.0636629 0)
(0.999701 -0.00646376 0)
(0.993015 -0.000977122 0)
(1.003 0.00993739 0)
(1.00068 -0.00173967 0)
(0.999401 0.00420233 0)
(0.995976 0.00395498 0)
(0.999467 -0.000316335 0)
(0.990731 0.00954373 0)
(0.998402 -0.00212677 0)
(0.988387 0.015351 0)
(0.999568 0.0135187 0)
(0.990945 0.0135406 0)
(0.996933 0.0108886 0)
(0.995026 0.0216567 0)
(0.996058 0.0143486 0)
(0.995734 0.0259243 0)
(0.995822 0.021651 0)
(0.993435 0.0294978 0)
(0.995001 0.028561 0)
(0.995211 0.0324077 0)
(0.993964 0.0333715 0)
(0.99712 0.0383118 0)
(0.996741 0.0380675 0)
(0.999706 0.0453972 0)
(1.002 0.044508 0)
(1.00435 0.0519447 0)
(1.01036 0.0508951 0)
(1.01049 0.0569355 0)
(0.999631 -0.00503895 0)
(0.994064 -0.00233478 0)
(1.00247 0.00900812 0)
(1.00057 -0.00109556 0)
(0.999297 0.00514568 0)
(0.995999 0.00398377 0)
(1.00036 0.000792419 0)
(0.992242 0.00947272 0)
(0.998053 -0.00107787 0)
(0.990349 0.0150648 0)
(1.00042 0.0116871 0)
(0.991713 0.0157102 0)
(0.998229 0.00976058 0)
(0.994399 0.0206811 0)
(0.998161 0.015508 0)
(0.996286 0.0255496 0)
(0.998802 0.0221477 0)
(0.996784 0.029349 0)
(0.997214 0.028496 0)
(0.999058 0.0321748 0)
(0.997273 0.0325554 0)
(1.00068 0.036373 0)
(1.00072 0.0367335 0)
(1.00313 0.0415182 0)
(1.00597 0.0418878 0)
(1.00737 0.0466279 0)
(1.01353 0.046718 0)
(1.01362 0.0505335 0)
(1.00013 -0.00370496 0)
(0.994913 -0.00359975 0)
(1.00146 0.00847371 0)
(0.999752 -0.000811781 0)
(1.00029 0.00582555 0)
(0.996445 0.00392769 0)
(1.0011 0.00202513 0)
(0.992735 0.00965479 0)
(0.997977 -0.000509304 0)
(0.992424 0.014847 0)
(1.00065 0.0105399 0)
(0.992805 0.0169851 0)
(0.999422 0.00944784 0)
(0.995421 0.019605 0)
(0.999626 0.0153534 0)
(0.997375 0.0251638 0)
(1.00069 0.0222313 0)
(0.999495 0.028937 0)
(0.999659 0.0284075 0)
(1.00128 0.0314326 0)
(1.00042 0.0319201 0)
(1.00299 0.0341388 0)
(1.00405 0.0350182 0)
(1.00595 0.0377304 0)
(1.00904 0.0387481 0)
(1.01031 0.0415922 0)
(1.01571 0.0422313 0)
(1.01657 0.0445267 0)
(1.00082 -0.00250551 0)
(0.995528 -0.00471126 0)
(1.00063 0.00846374 0)
(0.999033 -0.00107268 0)
(1.00162 0.00610787 0)
(0.996061 0.00405257 0)
(1.00198 0.00362636 0)
(0.993294 0.00948386 0)
(0.997798 7.83028e-05 0)
(0.993879 0.0147129 0)
(1.00119 0.0091435 0)
(0.994865 0.0176828 0)
(1.00025 0.00963646 0)
(0.997167 0.0186142 0)
(1.00087 0.0149631 0)
(0.998432 0.0246476 0)
(1.00167 0.0219911 0)
(1.00111 0.0283101 0)
(1.00195 0.0279135 0)
(1.00284 0.0303551 0)
(1.00322 0.0311043 0)
(1.00479 0.0317519 0)
(1.00703 0.0330159 0)
(1.00839 0.0338324 0)
(1.01178 0.0353262 0)
(1.01288 0.0365518 0)
(1.01758 0.0375959 0)
(1.01891 0.0387497 0)
(1.00141 -0.00140818 0)
(0.996072 -0.00576366 0)
(1.00001 0.00876938 0)
(0.999032 -0.00186575 0)
(1.00269 0.00683763 0)
(0.99529 0.00385747 0)
(1.00236 0.00490583 0)
(0.993976 0.0100412 0)
(0.997878 0.000121083 0)
(0.995745 0.0143251 0)
(1.00221 0.00785593 0)
(0.996574 0.0177527 0)
(1.00115 0.00988975 0)
(0.99806 0.0183012 0)
(1.00158 0.0141835 0)
(0.999214 0.0239503 0)
(1.00252 0.021769 0)
(1.00243 0.0272398 0)
(1.00455 0.0274253 0)
(1.00472 0.0286013 0)
(1.00625 0.0299508 0)
(1.00674 0.0290544 0)
(1.00964 0.0306116 0)
(1.01066 0.0298714 0)
(1.01383 0.0315368 0)
(1.01495 0.0316425 0)
(1.01853 0.0328501 0)
(1.02032 0.0333563 0)
(1.00205 -0.000434061 0)
(0.996748 -0.00670249 0)
(0.999824 0.00924995 0)
(0.998975 -0.00307506 0)
(1.00332 0.00768498 0)
(0.994552 0.00412079 0)
(1.00256 0.00588479 0)
(0.99461 0.0103417 0)
(0.998588 -0.000431358 0)
(0.997464 0.0137186 0)
(1.0029 0.00704824 0)
(0.998428 0.0177231 0)
(1.00133 0.0105189 0)
(0.999024 0.0184982 0)
(1.00168 0.0133561 0)
(0.999844 0.022403 0)
(1.00342 0.0207767 0)
(1.0034 0.0253516 0)
(1.00723 0.0262213 0)
(1.00694 0.0266754 0)
(1.0095 0.0283356 0)
(1.00922 0.026918 0)
(1.01208 0.0282943 0)
(1.01286 0.0268562 0)
(1.01532 0.0280739 0)
(1.01636 0.0275494 0)
(1.01865 0.0284802 0)
(1.02046 0.0285414 0)
(1.00265 0.000280825 0)
(0.997378 -0.00761581 0)
(0.999491 0.0101863 0)
(0.999725 -0.00459653 0)
(1.0024 0.00924711 0)
(0.993611 0.00378588 0)
(1.00389 0.00645466 0)
(0.99622 0.011104 0)
(0.999122 -0.00159116 0)
(0.998332 0.0133043 0)
(1.00197 0.00613494 0)
(0.999892 0.0178661 0)
(1.00189 0.0108133 0)
(1.00068 0.0188288 0)
(1.0033 0.0132148 0)
(1.00085 0.0201961 0)
(1.00444 0.0194085 0)
(1.00376 0.0224936 0)
(1.00834 0.0242048 0)
(1.00816 0.0241318 0)
(1.01125 0.0261786 0)
(1.01113 0.0248448 0)
(1.01377 0.0261785 0)
(1.01469 0.0247137 0)
(1.01679 0.0254481 0)
(1.01776 0.0246952 0)
(1.01931 0.025101 0)
(1.02067 0.0249507 0)
(1.00336 0.00087679 0)
(0.997211 -0.0082921 0)
(1.00039 0.0108032 0)
(0.998185 -0.00573153 0)
(1.00329 0.011247 0)
(0.993193 0.00281079 0)
(1.00332 0.00541503 0)
(0.998368 0.0127303 0)
(1.00027 -0.0021285 0)
(0.999697 0.0136987 0)
(0.999924 0.00505939 0)
(1.00082 0.016805 0)
(1.00205 0.0104627 0)
(1.00201 0.01814 0)
(1.00585 0.0136005 0)
(1.0026 0.018912 0)
(1.00642 0.0183061 0)
(1.00447 0.0205026 0)
(1.00872 0.0216446 0)
(1.00849 0.0215135 0)
(1.01131 0.0230642 0)
(1.01177 0.0220326 0)
(1.01391 0.0233282 0)
(1.01546 0.022087 0)
(1.0172 0.0228751 0)
(1.01872 0.0220278 0)
(1.01979 0.0224584 0)
(1.02122 0.0221094 0)
(1.00495 0.00144044 0)
(0.995962 -0.00952391 0)
(1.00132 0.012798 0)
(0.995906 -0.00771162 0)
(1.00411 0.0125912 0)
(0.994662 0.00345147 0)
(1.00244 0.00362138 0)
(0.997816 0.0132452 0)
(1.0015 -0.00323306 0)
(1.0025 0.0157504 0)
(0.998255 0.00451333 0)
(1.00326 0.0152909 0)
(1.00089 0.00968997 0)
(1.00304 0.0156698 0)
(1.00682 0.0134317 0)
(1.00386 0.0175118 0)
(1.00877 0.0174715 0)
(1.00521 0.0193992 0)
(1.01052 0.0197112 0)
(1.00861 0.019716 0)
(1.0122 0.0201415 0)
(1.0117 0.0194129 0)
(1.01391 0.0200107 0)
(1.01515 0.01916 0)
(1.01657 0.0196511 0)
(1.01855 0.0190481 0)
(1.01902 0.0193903 0)
(1.0211 0.0191625 0)
(1.0067 0.00206356 0)
(0.99414 -0.0101808 0)
(1.00086 0.0142655 0)
(0.997164 -0.00907216 0)
(1.00134 0.0125842 0)
(0.997314 0.00376533 0)
(1.00272 0.00336823 0)
(0.998246 0.0139707 0)
(0.99984 -0.00702018 0)
(1.0053 0.0188172 0)
(0.997739 0.00339737 0)
(1.00588 0.0142923 0)
(1.00135 0.0101792 0)
(1.00332 0.0120468 0)
(1.00751 0.0139042 0)
(1.00343 0.0144483 0)
(1.01058 0.0167504 0)
(1.00522 0.0175813 0)
(1.01241 0.0178426 0)
(1.00886 0.018443 0)
(1.01351 0.0173696 0)
(1.01207 0.017957 0)
(1.01428 0.0167115 0)
(1.01514 0.0172992 0)
(1.01587 0.0162774 0)
(1.01813 0.0167981 0)
(1.01774 0.0161195 0)
(1.02044 0.016574 0)
(1.0071 0.00280615 0)
(0.9933 -0.0104165 0)
(1.00005 0.0144487 0)
(0.999911 -0.00933908 0)
(0.997812 0.0126857 0)
(1.00096 0.00289343 0)
(0.99981 0.00231005 0)
(1.0035 0.0167079 0)
(0.996851 -0.010745 0)
(1.00573 0.0201119 0)
(0.99983 0.00276348 0)
(1.00495 0.0120946 0)
(1.00477 0.0119714 0)
(1.00255 0.0083989 0)
(1.00891 0.0149427 0)
(1.00323 0.0113114 0)
(1.01099 0.0156235 0)
(1.00582 0.0155019 0)
(1.01237 0.0152799 0)
(1.00975 0.0172593 0)
(1.01347 0.0143143 0)
(1.01292 0.0170289 0)
(1.01418 0.0136153 0)
(1.01542 0.0161219 0)
(1.01538 0.0133509 0)
(1.0177 0.0151656 0)
(1.0169 0.0133661 0)
(1.01948 0.0144313 0)
(1.00545 0.00369188 0)
(0.995206 -0.010136 0)
(0.997889 0.0132456 0)
(1.00381 -0.00842891 0)
(0.99345 0.0115223 0)
(1.00722 0.00350108 0)
(0.993919 -0.000254462 0)
(1.00865 0.0183548 0)
(0.996995 -0.0107678 0)
(1.00344 0.0183309 0)
(1.00391 0.00316094 0)
(1.00224 0.00952077 0)
(1.0076 0.0127575 0)
(1.00273 0.00645913 0)
(1.00892 0.0146976 0)
(1.00499 0.00972888 0)
(1.00973 0.0136867 0)
(1.00782 0.0139225 0)
(1.01098 0.0124493 0)
(1.01097 0.0158564 0)
(1.01258 0.011477 0)
(1.01338 0.0157197 0)
(1.01386 0.0110898 0)
(1.01515 0.0147094 0)
(1.01522 0.0111367 0)
(1.01677 0.0135192 0)
(1.01664 0.0113345 0)
(1.01811 0.0124848 0)
(1.00227 0.00403564 0)
(0.999488 -0.00898133 0)
(0.994765 0.010592 0)
(1.00787 -0.00552705 0)
(0.989766 0.00835844 0)
(1.01186 0.00518133 0)
(0.991102 -0.00172972 0)
(1.00962 0.0165212 0)
(0.999274 -0.00743753 0)
(1.00143 0.0147539 0)
(1.00655 0.0035815 0)
(1.00101 0.00805207 0)
(1.00819 0.0112867 0)
(1.0039 0.00639639 0)
(1.00789 0.0127265 0)
(1.00712 0.00916452 0)
(1.00829 0.0115569 0)
(1.00964 0.012316 0)
(1.00974 0.0103256 0)
(1.01171 0.0137703 0)
(1.01176 0.00956817 0)
(1.01325 0.0136152 0)
(1.01349 0.00935312 0)
(1.01441 0.0127243 0)
(1.01499 0.00946573 0)
(1.01558 0.0116462 0)
(1.01634 0.00964273 0)
(1.01666 0.0106572 0)
(0.999683 0.00367655 0)
(1.00291 -0.00705426 0)
(0.993065 0.0077042 0)
(1.00913 -0.00267719 0)
(0.990065 0.00550644 0)
(1.01135 0.0059415 0)
(0.993198 -0.00144516 0)
(1.00737 0.0127676 0)
(1.00162 -0.00346829 0)
(1.00103 0.0109304 0)
(1.00695 0.00385472 0)
(1.00158 0.00720677 0)
(1.00754 0.00892833 0)
(1.00499 0.00686931 0)
(1.00715 0.0100732 0)
(1.00815 0.00881218 0)
(1.00771 0.00948584 0)
(1.01029 0.0106475 0)
(1.00927 0.00878405 0)
(1.01176 0.0113781 0)
(1.01124 0.0083575 0)
(1.01284 0.0111087 0)
(1.01298 0.0082118 0)
(1.01372 0.0103938 0)
(1.01441 0.00823209 0)
(1.01463 0.00957936 0)
(1.01559 0.00825874 0)
(1.01551 0.00882418 0)
(0.99868 0.00291979 0)
(1.0038 -0.00499893 0)
(0.99382 0.00525347 0)
(1.00771 -0.00063268 0)
(0.992865 0.00377021 0)
(1.00844 0.00548876 0)
(0.996616 -0.00034361 0)
(1.00519 0.00927093 0)
(1.0027 -0.000842383 0)
(1.00189 0.0082588 0)
(1.006 0.00350399 0)
(1.003 0.00664596 0)
(1.00657 0.0067721 0)
(1.00577 0.00679003 0)
(1.00684 0.00789618 0)
(1.00826 0.00789851 0)
(1.00777 0.00787994 0)
(1.01002 0.00879199 0)
(1.0093 0.00758271 0)
(1.01128 0.00905019 0)
(1.01097 0.00731388 0)
(1.01228 0.00877312 0)
(1.01244 0.00712821 0)
(1.01312 0.00825921 0)
(1.01364 0.00701062 0)
(1.01392 0.00770291 0)
(1.0146 0.00689706 0)
(1.01466 0.00718258 0)
(0.998627 0.00215123 0)
(1.00332 -0.00328086 0)
(0.995484 0.00354538 0)
(1.0056 0.000419421 0)
(0.995671 0.00279659 0)
(1.00598 0.00457019 0)
(0.998869 0.000543512 0)
(1.00424 0.00664957 0)
(1.00279 0.000521855 0)
(1.003 0.00630914 0)
(1.00502 0.00304736 0)
(1.0041 0.00579295 0)
(1.0059 0.00519087 0)
(1.00614 0.00605099 0)
(1.00671 0.00619727 0)
(1.00808 0.00663159 0)
(1.00784 0.00642208 0)
(1.0096 0.00700727 0)
(1.00924 0.00630606 0)
(1.0108 0.00702404 0)
(1.01063 0.00609937 0)
(1.01176 0.00677292 0)
(1.01185 0.00588873 0)
(1.01259 0.00640637 0)
(1.01285 0.00570453 0)
(1.0133 0.00603178 0)
(1.01364 0.00553475 0)
(1.0139 0.00568535 0)
(0.998845 0.00148915 0)
(1.00256 -0.00199223 0)
(0.996938 0.00234501 0)
(1.00399 0.000875211 0)
(0.997564 0.00214873 0)
(1.0045 0.00358671 0)
(1.00004 0.0010039 0)
(1.00396 0.00474353 0)
(1.00263 0.00112594 0)
(1.00377 0.00472937 0)
(1.00435 0.00262325 0)
(1.00475 0.00468092 0)
(1.00543 0.00403923 0)
(1.0063 0.00493628 0)
(1.00651 0.00481142 0)
(1.00785 0.00523198 0)
(1.00772 0.00502254 0)
(1.00919 0.00534386 0)
(1.00902 0.00491915 0)
(1.01033 0.00523823 0)
(1.01024 0.00469798 0)
(1.01127 0.00500087 0)
(1.01131 0.00446425 0)
(1.01206 0.00472391 0)
(1.01218 0.00426316 0)
(1.01271 0.00446877 0)
(1.01286 0.00410213 0)
(1.0132 0.00425273 0)
(0.999056 0.000962046 0)
(1.00195 -0.00111298 0)
(0.997924 0.00152611 0)
(1.00295 0.000910355 0)
(0.998686 0.0016257 0)
(1.00366 0.00260759 0)
(1.00062 0.00112233 0)
(1.00385 0.00325418 0)
(1.0025 0.00128361 0)
(1.00419 0.00336165 0)
(1.00394 0.00217603 0)
(1.00508 0.00349596 0)
(1.00507 0.0030762 0)
(1.00631 0.00373564 0)
(1.00623 0.0036017 0)
(1.00757 0.00391768 0)
(1.00742 0.0037525 0)
(1.00873 0.0039379 0)
(1.00863 0.00364685 0)
(1.00978 0.00378117 0)
(1.00977 0.00339786 0)
(1.0107 0.00350475 0)
(1.01077 0.00308802 0)
(1.0115 0.00317158 0)
(1.01163 0.00276824 0)
(1.01217 0.00283818 0)
(1.0123 0.00247848 0)
(1.01266 0.0025496 0)
(0.999204 0.000552674 0)
(1.00156 -0.000546708 0)
(0.998504 0.000908936 0)
(1.00237 0.000676617 0)
(0.999301 0.00109058 0)
(1.00323 0.00160857 0)
(1.00093 0.000895662 0)
(1.00382 0.00190158 0)
(1.00244 0.000983795 0)
(1.00439 0.00197656 0)
(1.00372 0.00143095 0)
(1.00523 0.00210784 0)
(1.00486 0.00191827 0)
(1.00628 0.00228966 0)
(1.00605 0.00222358 0)
(1.00737 0.00241366 0)
(1.0072 0.00231751 0)
(1.00835 0.00242175 0)
(1.00825 0.0022444 0)
(1.0092 0.00230463 0)
(1.00916 0.00206039 0)
(1.00988 0.00209637 0)
(1.00989 0.00181674 0)
(1.01044 0.00183565 0)
(1.01051 0.00154915 0)
(1.01095 0.0015622 0)
(1.01109 0.00129557 0)
(1.01147 0.00131969 0)
(0.999282 0.000182739 0)
(1.00137 -0.000161256 0)
(0.998791 0.000315209 0)