/*--------------------------------*- C++ -*----------------------------------*\
| =========                 |                                                 |
| \\      /  F ield         | OpenFOAM: The Open Source CFD Toolbox           |
|  \\    /   O peration     | Version:                                        |
|   \\  /    A nd           | Website:  www.openfoam.com                      |
|    \\/     M anipulation  |                                                 |
\*---------------------------------------------------------------------------*/
FoamFile
{
    version     2.0;
    format      ascii;
    class       volScalarField;
    location    "62";
    object      p;
}
// * * * * * * * * * * * * * * * * * * * * * * * * * * * * * * * * * * * * * //

dimensions      [0 2 -2 0 0 0 0];


internalField   nonuniform List<scalar> 
1139
(
0.0164122
0.00801579
-0.00621435
0.00343749
-0.0158847
0.00218413
-0.0175584
-0.00152395
0.0158312
-0.0215806
0.00105217
0.0210365
-0.0217698
0.00754547
0.0267285
-0.0167614
0.0154238
0.034611
0.0496015
-0.0066381
0.0251685
0.0435368
0.057781
0.00867434
0.0347915
0.0528712
0.0656689
-1.06881
-1.11925
-0.97177
-0.793649
-0.618946
-0.476046
-1.15348
-0.998179
-0.809585
-0.621488
-0.466908
-0.354702
-1.16593
-1.0096
-0.811248
-0.612253
-0.449062
-0.329294
-0.24474
-1.15447
-1.00077
-0.796325
-0.590553
-0.422982
-0.298781
-0.208757
-0.14339
-1.12199
-0.972243
-0.765077
-0.559103
-0.394118
-0.266384
-0.171727
-0.101931
-0.0297283
-1.07052
-0.925339
-0.722373
-0.522708
-0.367717
-0.240916
-0.141996
-0.0681854
0.000210695
0.0246947
-1.00199
-0.862953
-0.673639
-0.491772
-0.339108
-0.221694
-0.125992
-0.0489333
0.00876861
0.0283472
-0.920358
-0.794764
-0.625613
-0.472591
-0.339477
-0.222492
-0.126089
-0.0461494
-0.00155209
0.0151556
-0.830422
-0.731114
-0.591831
-0.461627
-0.345607
-0.238994
-0.146898
-0.0679275
-0.0263593
-0.00766477
-0.750081
-0.676683
-0.578281
-0.479142
-0.369641
-0.265513
-0.173705
-0.102712
-0.0605265
-0.0341128
-0.695304
-0.64342
-0.582153
-0.512722
-0.409872
-0.305888
-0.214983
-0.148439
-0.0947801
-0.0550152
-0.661054
-0.640662
-0.612264
-0.559894
-0.45987
-0.354929
-0.263424
-0.189038
-0.119251
-0.0630167
-0.646057
-0.648817
-0.650988
-0.608463
-0.510926
-0.404382
-0.308449
-0.216262
-0.13235
-0.0613814
-0.667119
-0.668949
-0.677745
-0.639595
-0.546405
-0.441243
-0.333019
-0.223344
-0.128078
-0.0591895
-0.722017
-0.713346
-0.708286
-0.659478
-0.565808
-0.452552
-0.329365
-0.212205
-0.118676
-0.0551768
-0.781923
-0.766151
-0.741151
-0.671312
-0.561174
-0.42906
-0.296043
-0.18494
-0.105102
-0.0449325
-0.822333
-0.802537
-0.7488
-0.64224
-0.50347
-0.355731
-0.228025
-0.136567
-0.0769203
-0.0326707
-0.792815
-0.762545
-0.685145
-0.565767
-0.429882
-0.295747
-0.190792
-0.11734
-0.0705004
-0.0366809
-0.664653
-0.647386
-0.58088
-0.483523
-0.375187
-0.268985
-0.184943
-0.12031
-0.0760696
-0.04072
-0.504589
-0.502267
-0.458266
-0.388099
-0.306549
-0.22776
-0.16182
-0.106868
-0.0672699
-0.0339761
-0.367647
-0.370834
-0.343795
-0.294139
-0.234685
-0.17715
-0.126822
-0.0836713
-0.0511133
-0.0228694
-0.276669
-0.276455
-0.257143
-0.219769
-0.175892
-0.131426
-0.0927098
-0.0597803
-0.0331077
-0.0104586
-0.22834
-0.21777
-0.198593
-0.167988
-0.130869
-0.0934533
-0.0612289
-0.0355352
-0.0141374
0.00329738
-0.214757
-0.190988
-0.161624
-0.13069
-0.0955586
-0.062529
-0.0330569
-0.0108997
0.00589652
0.0190363
-0.229711
-0.191226
-0.148247
-0.107398
-0.0697662
-0.0368472
-0.00828036
0.0122161
0.0263365
0.035958
-0.279684
-0.225176
-0.162854
-0.103315
-0.0569641
-0.0178381
0.013807
0.0339869
0.0463385
0.0537873
-0.379879
-0.302816
-0.212968
-0.126926
-0.0606719
-0.00857139
0.0298579
0.0534942
0.0653728
0.0722931
-0.529462
-0.41904
-0.292769
-0.175015
-0.0815468
-0.0103951
0.0388721
0.0687716
0.0820685
0.0884882
-0.683249
-0.541293
-0.384258
-0.237151
-0.115267
-0.0227979
0.0403533
0.0792778
0.098334
0.103351
-0.760195
-0.601806
-0.434275
-0.278604
-0.147623
-0.0455234
0.0286111
0.0799777
0.109942
0.119589
-0.698529
-0.552868
-0.404537
-0.265485
-0.14499
-0.0530781
0.0142275
0.0698331
0.108422
0.13058
-0.540486
-0.431916
-0.322416
-0.217012
-0.121732
-0.0456463
0.0140996
0.0610838
0.0982278
0.12687
-0.374314
-0.308996
-0.23711
-0.161684
-0.0896617
-0.0279962
0.0201979
0.0561919
0.0832544
0.106546
-0.258876
-0.224821
-0.177882
-0.122049
-0.0641932
-0.0115926
0.0290214
0.0593436
0.0778086
0.0917118
-0.200323
-0.184819
-0.1553
-0.112236
-0.0597932
-0.00792681
0.0342623
0.0654292
0.081866
0.091475
-0.184941
-0.185661
-0.174471
-0.140793
-0.0900425
-0.034395
0.0163958
0.0561987
0.0806171
0.0927134
-0.0471036
0.010882
0.0517201
0.0769141
-0.000785858
0.0311859
0.0567377
0.0723416
0.0872911
0.10188
0.110956
0.118742
0.126521
0.131721
0.135439
0.139016
0.141599
0.143166
0.144498
0.145356
0.145751
0.14593
0.145825
0.145564
0.144863
0.144422
0.143768
0.142928
0.142216
0.141486
0.140782
0.140185
0.139707
0.139436
-0.0180074
0.0108699
0.0367502
0.0569259
0.0746794
0.090263
0.101663
0.111725
0.120138
0.126337
0.13137
0.135531
0.138582
0.140816
0.142588
0.143702
0.144406
0.144798
0.144913
0.144716
0.144196
0.143865
0.14318
0.142436
0.141753
0.141014
0.140311
0.139709
0.139217
0.138942
-0.0211965
0.00410934
0.0279131
0.048341
0.0672667
0.0827765
0.0956858
0.106502
0.115306
0.122269
0.127943
0.132413
0.135859
0.138483
0.140534
0.141883
0.142841
0.143411
0.143724
0.143606
0.143332
0.143046
0.142413
0.141798
0.141151
0.140439
0.139764
0.139173
0.138684
0.138411
-0.0130026
0.0112833
0.0318732
0.0502119
0.0672502
0.0819692
0.0942223
0.104572
0.113253
0.120123
0.125754
0.130253
0.133823
0.13656
0.138682
0.140162
0.141254
0.141949
0.142357
0.142357
0.142299
0.142017
0.141501
0.141006
0.140408
0.139752
0.139128
0.138568
0.138101
0.137841
0.000603855
0.0254224
0.0430132
0.0591199
0.0740016
0.0869338
0.097314
0.106819
0.114414
0.120521
0.125568
0.129704
0.132942
0.135497
0.137457
0.138918
0.14002
0.140751
0.141131
0.14125
0.14129
0.140996
0.140597
0.140167
0.139611
0.139014
0.13844
0.137915
0.137479
0.137234
0.0158667
0.0405591
0.0567309
0.0708262
0.0842609
0.0943214
0.103508
0.111632
0.117785
0.122875
0.127111
0.130631
0.133299
0.135511
0.137173
0.138426
0.139433
0.140036
0.140327
0.140498
0.140489
0.140182
0.139837
0.139399
0.138858
0.13829
0.137742
0.137237
0.136825
0.136591
0.0311801
0.0546292
0.0691632
0.0829058
0.0943277
0.102722
0.110987
0.117186
0.122144
0.126294
0.129712
0.13241
0.134474
0.13622
0.137515
0.138535
0.139353
0.139745
0.139958
0.140079
0.139929
0.139599
0.139229
0.138737
0.138181
0.137604
0.137053
0.136548
0.136146
0.135915
0.0452855
0.0670702
0.0792081
0.0932992
0.102641
0.110582
0.11734
0.122304
0.126422
0.129654
0.132289
0.134278
0.135891
0.137162
0.138084
0.138874
0.139403
0.139609
0.13975
0.139742
0.139465
0.1391
0.138664
0.138115
0.137527
0.136925
0.136356
0.135841
0.135438
0.135206
0.0590276
0.07742
0.0885802
0.102363
0.109888
0.116942
0.122219
0.12655
0.129874
0.132392
0.134346
0.135747
0.136887
0.137754
0.13841
0.13898
0.139252
0.139358
0.139405
0.139245
0.138901
0.138503
0.138007
0.137429
0.136817
0.1362
0.135618
0.135098
0.134695
0.134464
0.0743056
0.0885746
0.0986498
0.11094
0.116585
0.122509
0.126961
0.130356
0.132585
0.134377
0.135726
0.1367
0.137422
0.137954
0.138359
0.138642
0.138742
0.138793
0.138737
0.138487
0.138133
0.137718
0.1372
0.136626
0.136011
0.1354
0.13482
0.134308
0.133912
0.133686
0.0899844
0.102186
0.11035
0.11987
0.123502
0.12829
0.131624
0.133728
0.135177
0.136186
0.136748
0.137132
0.137497
0.137761
0.137945
0.138037
0.138044
0.138008
0.137857
0.137572
0.137225
0.136805
0.136297
0.135739
0.135137
0.134545
0.133975
0.133477
0.13309
0.132871
0.10446
0.115718
0.122427
0.129843
0.13177
0.135064
0.136377
0.137137
0.137743
0.138005
0.137968
0.137887
0.137809
0.137678
0.137568
0.137474
0.137379
0.137248
0.137029
0.136727
0.136372
0.135935
0.135427
0.134866
0.134272
0.133682
0.133112
0.132619
0.132234
0.132017
0.116679
0.12675
0.133184
0.139125
0.140362
0.14262
0.142092
0.141573
0.140935
0.140126
0.139334
0.138743
0.138303
0.137916
0.137582
0.137302
0.137054
0.136776
0.136454
0.136095
0.135686
0.135204
0.134664
0.134068
0.133456
0.132839
0.13225
0.131743
0.131345
0.131124
0.12916
0.13617
0.143293
0.145705
0.146586
0.147549
0.146169
0.144999
0.143624
0.142207
0.14091
0.139825
0.13893
0.138174
0.137599
0.137191
0.136801
0.136414
0.136008
0.135572
0.13508
0.134535
0.133936
0.133292
0.132642
0.131984
0.131368
0.130832
0.130417
0.130186
0.14153
0.143529
0.151663
0.15202
0.152627
0.151384
0.148855
0.146668
0.14451
0.142661
0.141184
0.139993
0.139001
0.138174
0.137501
0.136916
0.136385
0.135881
0.135399
0.134891
0.134337
0.133746
0.1331
0.132425
0.13174
0.131054
0.130419
0.129863
0.129437
0.129197
0.152001
0.129574
0.15411
0.152549
0.15371
0.152203
0.149301
0.146571
0.144203
0.142311
0.140788
0.13927
0.138219
0.137404
0.136718
0.136139
0.135587
0.135052
0.134532
0.133967
0.133378
0.132753
0.132087
0.131402
0.130703
0.130012
0.129377
0.128818
0.128394
0.128152
0.128775
0.132516
0.140724
0.143474
0.145741
0.145702
0.144642
0.143304
0.141961
0.140671
0.139509
0.138402
0.137524
0.13669
0.135915
0.135238
0.134591
0.134024
0.133467
0.132878
0.132274
0.131633
0.13096
0.130269
0.129567
0.128884
0.128253
0.127704
0.127287
0.127049
0.105368
0.11178
0.117804
0.125235
0.1322
0.13583
0.1373
0.138083
0.138277
0.138054
0.137464
0.136868
0.136289
0.135611
0.135017
0.134383
0.133734
0.133123
0.132491
0.131848
0.1312
0.130527
0.12983
0.12912
0.128407
0.127721
0.127085
0.126539
0.126123
0.125887
0.0966595
0.0973032
0.0991635
0.107258
0.117552
0.125573
0.13039
0.133544
0.135118
0.135921
0.13611
0.136034
0.135507
0.134892
0.134269
0.133552
0.132907
0.132273
0.131603
0.130928
0.130232
0.129506
0.128764
0.128011
0.127266
0.126553
0.125894
0.125334
0.124907
0.124665
0.0987571
0.0972997
0.0988318
0.106639
0.11431
0.121082
0.126776
0.130826
0.133051
0.134219
0.134746
0.134777
0.134469
0.134173
0.133588
0.132941
0.132269
0.131522
0.130775
0.130031
0.12927
0.12849
0.127694
0.126892
0.126105
0.125352
0.124661
0.124076
0.12363
0.12338
0.0947169
0.101116
0.106614
0.11024
0.116335
0.121412
0.12629
0.129081
0.131374
0.132674
0.133385
0.133383
0.133258
0.13286
0.132323
0.131836
0.131218
0.130541
0.129811
0.129035
0.128222
0.127385
0.126534
0.125686
0.124856
0.124066
0.123348
0.122741
0.12228
0.122023
0.0753859
0.0963429
0.0835838
0.0933111
0.106282
0.118987
0.12631
0.129268
0.134967
0.141521
0.144398
0.145927
0.0717629
0.082476
0.0998828
0.114827
0.120394
0.124036
0.132545
0.139177
0.14088
0.143426
0.146964
0.148419
0.149219
0.150295
0.150684
0.15064
0.150528
0.150126
0.149546
0.148839
0.148148
0.147132
0.146301
0.145474
0.144522
0.143681
0.142911
0.142226
0.141699
0.141409
0.0612807
0.0749272
0.0954088
0.10957
0.113205
0.119841
0.130615
0.135635
0.137302
0.141773
0.145174
0.146171
0.147566
0.148823
0.14915
0.149331
0.149334
0.149008
0.148497
0.147916
0.147249
0.14627
0.145591
0.144758
0.143854
0.143076
0.142342
0.141694
0.141197
0.140918
0.0444715
0.0661813
0.0899298
0.101149
0.105567
0.117068
0.127279
0.130354
0.134354
0.140006
0.142496
0.143976
0.146068
0.147201
0.147644
0.148091
0.148157
0.147942
0.147515
0.147073
0.146358
0.145511
0.144925
0.144057
0.143223
0.14249
0.141781
0.141167
0.140692
0.140423
0.025481
0.0535243
0.0775448
0.0881966
0.098372
0.11229
0.120415
0.12486
0.131543
0.136708
0.139131
0.141778
0.144136
0.145268
0.146114
0.146777
0.146947
0.146909
0.14662
0.146286
0.14553
0.1449
0.14431
0.143429
0.14267
0.141952
0.141253
0.140658
0.140191
0.139925
)
;

boundaryField
{
    outlet
    {
        type            fixedValue;
        value           nonuniform 0();
    }
    upperWall
    {
        type            symmetryPlane;
    }
    lowerWall
    {
        type            symmetryPlane;
    }
    inlet
    {
        type            zeroGradient;
    }
    cylinder
    {
        type            zeroGradient;
    }
    frontAndBack
    {
        type            empty;
    }
    procBoundary2to1
    {
        type            processor;
        value           nonuniform List<scalar> 
63
(
0.0131635
0.0131635
-0.00324481
0.000329841
0.000329841
0.00501272
0.00944355
0.00944355
0.026754
0.0340721
0.042193
0.042193
0.0617508
0.0697087
0.0765168
0.0765168
-1.01714
-0.930998
-0.930998
-0.770099
-0.610909
-0.480278
-0.372119
-0.372119
-0.284482
-0.284482
-0.189018
-0.189018
-0.0798583
-0.0798583
0.00170883
0.00170883
0.0934314
0.101392
0.112307
0.123176
0.130903
0.134602
0.138389
0.143577
0.147151
0.148628
0.148667
0.148667
0.150475
0.151063
0.151732
0.152115
0.151973
0.151703
0.151229
0.150573
0.149763
0.14898
0.147977
0.147001
0.146138
0.145163
0.144264
0.143458
0.142743
0.142193
0.141896
)
;
    }
    procBoundary2to3
    {
        type            processor;
        value           nonuniform List<scalar> 
43
(
-0.215123
-0.239922
-0.249377
-0.22426
-0.175257
-0.112477
-0.112477
-0.163915
-0.0842449
-0.0114984
0.0400099
0.0400099
0.104077
0.107782
0.115128
0.122903
0.127987
0.130035
0.130983
0.131407
0.131895
0.132109
0.132224
0.131884
0.131475
0.130866
0.130147
0.129405
0.128638
0.127841
0.126997
0.126127
0.12524
0.124353
0.123488
0.122671
0.121934
0.121314
0.120847
0.120587
0.0354113
0.104077
0.0705683
)
;
    }
    procBoundary2to6
    {
        type            processor;
        value           nonuniform List<scalar> 
37
(
-1.1563
-1.2119
-1.23851
-1.24105
-1.21996
-1.18034
-1.12468
-1.05186
-0.963912
-0.846949
-0.747015
-0.680116
-0.631904
-0.616292
-0.642034
-0.696824
-0.761693
-0.816449
-0.760515
-0.62058
-0.459312
-0.336293
-0.26291
-0.227906
-0.22317
-0.246912
-0.308203
-0.430252
-0.610967
-0.793876
-0.883366
-0.81158
-0.630161
-0.43067
-0.283405
-0.201887
-0.170166
)
;
    }
}


// ************************************************************************* //
