/*--------------------------------*- C++ -*----------------------------------*\
| =========                 |                                                 |
| \\      /  F ield         | OpenFOAM: The Open Source CFD Toolbox           |
|  \\    /   O peration     | Version:                                        |
|   \\  /    A nd           | Website:  www.openfoam.com                      |
|    \\/     M anipulation  |                                                 |
\*---------------------------------------------------------------------------*/
FoamFile
{
    version     2.0;
    format      ascii;
    class       surfaceScalarField;
    location    "0.3";
    object      phi;
}
// * * * * * * * * * * * * * * * * * * * * * * * * * * * * * * * * * * * * * //

dimensions      [0 3 -1 0 0 0 0];
oriented        oriented;


internalField   nonuniform List<scalar> 
760
(
2.11752e-06
9.46922e-09
2.10853e-06
8.99634e-09
2.09999e-06
8.53986e-09
2.09189e-06
8.09879e-09
2.08422e-06
7.6732e-09
2.07695e-06
7.26173e-09
2.07009e-06
6.86297e-09
2.06361e-06
6.47601e-09
2.05751e-06
6.10052e-09
2.05178e-06
5.73573e-09
2.0464e-06
5.38144e-09
2.04136e-06
5.03764e-09
2.03665e-06
4.70398e-09
2.03227e-06
4.38101e-09
2.0282e-06
4.06848e-09
2.02444e-06
3.76768e-09
2.02096e-06
3.47629e-09
2.01776e-06
3.19968e-09
2.01484e-06
2.92515e-09
2.66277e-09
6.10625e-06
3.5548e-08
6.08152e-06
3.37198e-08
6.0581e-06
3.19599e-08
6.03594e-06
3.02611e-08
6.01499e-06
2.86225e-08
5.99521e-06
2.70398e-08
5.97657e-06
2.55085e-08
5.95902e-06
2.40253e-08
5.94253e-06
2.25879e-08
5.92707e-06
2.11945e-08
5.91261e-06
1.9844e-08
5.89911e-06
1.85364e-08
5.88654e-06
1.72708e-08
5.87488e-06
1.60486e-08
5.86408e-06
1.48693e-08
5.85411e-06
1.37362e-08
5.84494e-06
1.26444e-08
5.83653e-06
1.16058e-08
5.82886e-06
1.05938e-08
9.62228e-09
9.84339e-06
7.58423e-08
9.80524e-06
7.18729e-08
9.76914e-06
6.80591e-08
9.73502e-06
6.43818e-08
9.70281e-06
6.08361e-08
9.67243e-06
5.74136e-08
9.64384e-06
5.41057e-08
9.61696e-06
5.09049e-08
9.59174e-06
4.78063e-08
9.56813e-06
4.4806e-08
9.54607e-06
4.19021e-08
9.52551e-06
3.90937e-08
9.5064e-06
3.638e-08
9.48869e-06
3.37628e-08
9.47231e-06
3.12417e-08
9.45723e-06
2.88224e-08
9.44337e-06
2.64979e-08
9.43069e-06
2.42856e-08
9.41914e-06
2.21526e-08
2.00952e-08
1.33213e-05
1.27717e-07
1.32722e-05
1.20956e-07
1.32258e-05
1.1447e-07
1.3182e-05
1.08222e-07
1.31406e-05
1.02201e-07
1.31016e-05
9.63924e-08
1.30649e-05
9.07816e-08
1.30305e-05
8.53565e-08
1.29982e-05
8.01086e-08
1.2968e-05
7.50315e-08
1.29398e-05
7.01215e-08
1.29135e-05
6.53768e-08
1.28891e-05
6.07965e-08
1.28664e-05
5.63828e-08
1.28455e-05
5.21361e-08
1.28263e-05
4.80635e-08
1.28086e-05
4.41573e-08
1.27925e-05
4.04384e-08
1.27778e-05
3.68804e-08
3.34414e-08
1.6531e-05
1.88167e-07
1.64738e-05
1.78139e-07
1.64198e-05
1.68531e-07
1.63687e-05
1.59285e-07
1.63205e-05
1.50378e-07
1.62751e-05
1.41788e-07
1.62324e-05
1.33495e-07
1.61923e-05
1.2548e-07
1.61547e-05
1.1773e-07
1.61195e-05
1.10237e-07
1.60866e-05
1.02993e-07
1.6056e-05
9.59968e-08
1.60275e-05
8.92466e-08
1.60012e-05
8.27448e-08
1.59768e-05
7.64924e-08
1.59544e-05
7.0498e-08
1.59338e-05
6.47552e-08
1.59149e-05
5.92833e-08
1.58977e-05
5.40781e-08
4.90514e-08
1.94636e-05
2.53744e-07
1.94015e-05
2.40193e-07
1.93428e-05
2.27217e-07
1.92874e-05
2.14739e-07
1.9235e-05
2.02723e-07
1.91857e-05
1.91137e-07
1.91392e-05
1.79953e-07
1.90956e-05
1.69147e-07
1.90546e-05
1.58701e-07
1.90162e-05
1.48602e-07
1.89804e-05
1.38842e-07
1.8947e-05
1.29416e-07
1.89159e-05
1.20323e-07
1.88871e-05
1.11567e-07
1.88604e-05
1.03147e-07
1.88358e-05
9.50737e-08
1.88132e-05
8.73444e-08
1.87925e-05
7.99713e-08
1.87736e-05
7.29825e-08
6.62552e-08
2.21113e-05
3.20577e-07
2.2048e-05
3.03493e-07
2.19881e-05
2.87134e-07
2.19314e-05
2.71409e-07
2.18779e-05
2.56269e-07
2.18274e-05
2.41672e-07
2.17797e-05
2.2758e-07
2.17349e-05
2.13964e-07
2.16928e-05
2.00801e-07
2.16533e-05
1.88075e-07
2.16164e-05
1.75775e-07
2.15819e-05
1.63894e-07
2.15498e-05
1.52432e-07
2.152e-05
1.4139e-07
2.14924e-05
1.30772e-07
2.14669e-05
1.20587e-07
2.14434e-05
1.10837e-07
2.14218e-05
1.01525e-07
2.14021e-05
9.2711e-08
8.42644e-08
2.44694e-05
3.84488e-07
2.44088e-05
3.64124e-07
2.43513e-05
3.44609e-07
2.42969e-05
3.25853e-07
2.42453e-05
3.07794e-07
2.41966e-05
2.90378e-07
2.41506e-05
2.7356e-07
2.41073e-05
2.57306e-07
2.40665e-05
2.41589e-07
2.40282e-05
2.26387e-07
2.39923e-05
2.1169e-07
2.39587e-05
1.97488e-07
2.39273e-05
1.83782e-07
2.38982e-05
1.70571e-07
2.38711e-05
1.57863e-07
2.3846e-05
1.45663e-07
2.38228e-05
1.33983e-07
2.38016e-05
1.22816e-07
2.3782e-05
1.12238e-07
1.02148e-07
2.6537e-05
4.412e-07
2.6483e-05
4.18059e-07
2.64318e-05
3.95857e-07
2.63831e-05
3.7451e-07
2.6337e-05
3.53948e-07
2.62932e-05
3.34109e-07
2.62519e-05
3.14943e-07
2.62128e-05
2.96409e-07
2.61759e-05
2.78478e-07
2.61411e-05
2.61126e-07
2.61085e-05
2.4434e-07
2.60779e-05
2.28109e-07
2.60492e-05
2.12436e-07
2.60225e-05
1.97318e-07
2.59976e-05
1.82766e-07
2.59744e-05
1.68784e-07
2.5953e-05
1.55389e-07
2.59333e-05
1.42572e-07
2.59151e-05
1.30407e-07
1.18843e-07
2.83183e-05
4.86613e-07
2.82749e-05
4.61421e-07
2.82336e-05
4.37211e-07
2.81942e-05
4.13912e-07
2.81567e-05
3.91455e-07
2.8121e-05
3.69772e-07
2.80871e-05
3.48809e-07
2.8055e-05
3.28522e-07
2.80246e-05
3.0888e-07
2.79959e-05
2.89857e-07
2.79688e-05
2.71442e-07
2.79433e-05
2.53622e-07
2.79193e-05
2.36401e-07
2.78969e-05
2.19773e-07
2.78759e-05
2.03757e-07
2.78563e-05
1.88351e-07
2.78381e-05
1.73579e-07
2.78213e-05
1.59436e-07
2.78057e-05
1.45973e-07
1.33201e-07
2.98234e-05
5.17114e-07
2.97941e-05
4.90759e-07
2.97659e-05
4.65383e-07
2.97389e-05
4.40931e-07
2.9713e-05
4.17338e-07
2.96882e-05
3.94535e-07
2.96646e-05
3.72467e-07
2.9642e-05
3.51091e-07
2.96205e-05
3.30376e-07
2.96001e-05
3.10295e-07
2.95807e-05
2.90837e-07
2.95623e-05
2.7199e-07
2.9545e-05
2.5376e-07
2.95286e-05
2.3614e-07
2.95132e-05
2.19152e-07
2.94988e-05
2.02794e-07
2.94852e-05
1.87087e-07
2.94726e-05
1.72048e-07
2.94609e-05
1.57683e-07
1.44063e-07
3.10682e-05
5.29861e-07
3.10556e-05
5.03331e-07
3.10433e-05
4.7773e-07
3.10312e-05
4.53023e-07
3.10194e-05
4.29153e-07
3.10079e-05
4.06052e-07
3.09967e-05
3.8367e-07
3.09858e-05
3.61964e-07
3.09753e-05
3.40907e-07
3.09651e-05
3.20473e-07
3.09553e-05
3.00653e-07
3.09458e-05
2.81434e-07
3.09368e-05
2.62826e-07
3.09281e-05
2.4482e-07
3.09198e-05
2.27443e-07
3.09119e-05
2.10689e-07
3.09044e-05
1.94581e-07
3.08973e-05
1.79155e-07
3.08906e-05
1.64371e-07
1.50349e-07
3.20739e-05
5.23012e-07
3.20799e-05
4.97315e-07
3.20852e-05
4.72465e-07
3.20898e-05
4.48438e-07
3.20938e-05
4.2519e-07
3.20972e-05
4.02657e-07
3.21e-05
3.80796e-07
3.21024e-05
3.59569e-07
3.21044e-05
3.38951e-07
3.21059e-05
3.18921e-07
3.21071e-05
2.99471e-07
3.2108e-05
2.80588e-07
3.21085e-05
2.62289e-07
3.21088e-05
2.44557e-07
3.21088e-05
2.27431e-07
3.21086e-05
2.10897e-07
3.21082e-05
1.94981e-07
3.21076e-05
1.79732e-07
3.21069e-05
1.65075e-07
1.51164e-07
3.2866e-05
4.95858e-07
3.28914e-05
4.71958e-07
3.2915e-05
4.48799e-07
3.29371e-05
4.26365e-07
3.29577e-05
4.04619e-07
3.29768e-05
3.8351e-07
3.29946e-05
3.62999e-07
3.30111e-05
3.43057e-07
3.30264e-05
3.23664e-07
3.30405e-05
3.04799e-07
3.30536e-05
2.86462e-07
3.30655e-05
2.68638e-07
3.30764e-05
2.5135e-07
3.30864e-05
2.34572e-07
3.30955e-05
2.18359e-07
3.31037e-05
2.02679e-07
3.31111e-05
1.87575e-07
3.31178e-05
1.7309e-07
3.31237e-05
1.59135e-07
1.45894e-07
3.34726e-05
4.48853e-07
3.35169e-05
4.27614e-07
3.35587e-05
4.06999e-07
3.35981e-05
3.86993e-07
3.36352e-05
3.67564e-07
3.367e-05
3.48672e-07
3.37027e-05
3.3029e-07
3.37334e-05
3.12393e-07
3.37621e-05
2.94967e-07
3.37889e-05
2.77996e-07
3.38138e-05
2.61483e-07
3.38371e-05
2.45413e-07
3.38586e-05
2.29813e-07
3.38785e-05
2.14651e-07
3.38969e-05
1.99995e-07
3.39138e-05
1.85791e-07
3.39292e-05
1.72114e-07
3.39434e-05
1.58965e-07
3.39562e-05
1.4629e-07
1.34288e-07
3.39226e-05
3.83552e-07
3.39845e-05
3.65701e-07
3.40431e-05
3.48358e-07
3.40986e-05
3.31499e-07
3.41511e-05
3.15095e-07
3.42006e-05
2.99118e-07
3.42474e-05
2.83551e-07
3.42914e-05
2.68375e-07
3.43328e-05
2.53581e-07
3.43716e-05
2.39159e-07
3.4408e-05
2.25113e-07
3.4442e-05
2.11427e-07
3.44736e-05
1.98135e-07
3.45031e-05
1.85197e-07
3.45304e-05
1.72692e-07
3.45556e-05
1.6054e-07
3.45789e-05
1.48861e-07
3.46003e-05
1.37576e-07
3.46199e-05
1.26724e-07
1.16507e-07
3.42437e-05
3.02469e-07
3.43208e-05
2.88581e-07
3.4394e-05
2.7509e-07
3.44636e-05
2.61957e-07
3.45295e-05
2.49155e-07
3.4592e-05
2.36666e-07
3.46511e-05
2.24483e-07
3.47068e-05
2.12593e-07
3.47594e-05
2.00991e-07
3.48089e-05
1.8967e-07
3.48554e-05
1.78636e-07
3.48989e-05
1.67876e-07
3.49397e-05
1.5742e-07
3.49776e-05
1.47229e-07
3.50129e-05
1.37383e-07
3.50457e-05
1.27787e-07
3.5076e-05
1.18597e-07
3.51039e-05
1.09641e-07
3.51295e-05
1.01085e-07
9.31302e-08
3.44606e-05
2.08895e-07
3.45498e-05
1.99391e-07
3.46347e-05
1.90178e-07
3.47155e-05
1.81199e-07
3.47922e-05
1.72429e-07
3.4865e-05
1.63865e-07
3.4934e-05
1.55501e-07
3.49992e-05
1.47331e-07
3.50609e-05
1.39354e-07
3.5119e-05
1.31566e-07
3.51736e-05
1.2397e-07
3.5225e-05
1.16559e-07
3.5273e-05
1.09356e-07
3.53179e-05
1.02327e-07
3.53598e-05
9.55398e-08
3.53986e-05
8.8906e-08
3.54347e-05
8.25851e-08
3.54679e-05
7.63506e-08
3.54986e-05
7.04393e-08
6.51157e-08
3.45934e-05
1.06685e-07
3.4691e-05
1.01864e-07
3.47839e-05
9.7188e-08
3.48725e-05
9.26366e-08
3.49568e-05
8.8184e-08
3.50368e-05
8.38343e-08
3.51127e-05
7.95835e-08
3.51846e-05
7.5429e-08
3.52526e-05
7.13716e-08
3.53167e-05
6.74096e-08
3.53772e-05
6.35445e-08
3.5434e-05
5.97736e-08
3.54872e-05
5.61077e-08
3.5537e-05
5.25306e-08
3.55835e-05
4.90745e-08
3.56267e-05
4.5695e-08
3.56668e-05
4.24856e-08
3.57038e-05
3.92891e-08
3.5738e-05
3.62626e-08
3.3585e-08
3.46562e-05
3.4758e-05
3.48551e-05
3.49477e-05
3.50358e-05
3.51195e-05
3.5199e-05
3.52744e-05
3.53456e-05
3.54129e-05
3.54763e-05
3.55359e-05
3.55918e-05
3.56442e-05
3.5693e-05
3.57385e-05
3.57807e-05
3.58197e-05
3.58557e-05
)
;

boundaryField
{
    fixedWalls
    {
        type            calculated;
        value           uniform 0;
    }
    inlet
    {
        type            calculated;
        value           nonuniform 0();
    }
    outlet
    {
        type            calculated;
        value           nonuniform 0();
    }
    frontAndBack
    {
        type            empty;
        value           nonuniform 0();
    }
    procBoundary2to1
    {
        type            processor;
        value           nonuniform List<scalar> 
20
(
-2.12699e-06
-6.13232e-06
-9.88369e-06
-1.33732e-05
-1.65915e-05
-1.95291e-05
-2.21782e-05
-2.45333e-05
-2.65937e-05
-2.83637e-05
-2.98539e-05
-3.1081e-05
-3.20671e-05
-3.28389e-05
-3.34256e-05
-3.38573e-05
-3.41626e-05
-3.4367e-05
-3.44912e-05
-3.45496e-05
)
;
    }
    procBoundary2to3
    {
        type            processor;
        value           nonuniform List<scalar> 
20
(
2.01217e-06
5.8219e-06
9.40866e-06
1.27644e-05
1.58821e-05
1.87564e-05
2.13841e-05
2.37641e-05
2.58984e-05
2.77913e-05
2.94501e-05
3.08843e-05
3.21061e-05
3.3129e-05
3.39678e-05
3.46376e-05
3.51529e-05
3.55266e-05
3.57695e-05
3.5889e-05
)
;
    }
    procBoundary2to6
    {
        type            processor;
        value           nonuniform List<scalar> 
20
(
4.7165e-11
6.39843e-11
7.44041e-11
7.53994e-11
8.03133e-11
8.74582e-11
9.34753e-11
1.04357e-10
1.17385e-10
1.29993e-10
1.4356e-10
1.61438e-10
1.76945e-10
1.9754e-10
2.11994e-10
2.3916e-10
2.53894e-10
2.71191e-10
3.16117e-10
3.10039e-10
)
;
    }
}


// ************************************************************************* //
