/*--------------------------------*- C++ -*----------------------------------*\
| =========                 |                                                 |
| \\      /  F ield         | OpenFOAM: The Open Source CFD Toolbox           |
|  \\    /   O peration     | Version:                                        |
|   \\  /    A nd           | Website:  www.openfoam.com                      |
|    \\/     M anipulation  |                                                 |
\*---------------------------------------------------------------------------*/
FoamFile
{
    version     2.0;
    format      ascii;
    class       volVectorField;
    location    "0.3";
    object      U;
}
// * * * * * * * * * * * * * * * * * * * * * * * * * * * * * * * * * * * * * //

dimensions      [0 1 -1 0 0 0 0];


internalField   nonuniform List<vector> 
400
(
(0.0848857 6.30452e-05 0)
(0.0845165 6.00441e-05 0)
(0.084166 5.71334e-05 0)
(0.0838333 5.43162e-05 0)
(0.083518 5.16018e-05 0)
(0.0832195 4.89692e-05 0)
(0.0829371 4.64135e-05 0)
(0.0826704 4.39266e-05 0)
(0.082419 4.15065e-05 0)
(0.0821824 3.9145e-05 0)
(0.0819602 3.68463e-05 0)
(0.0817519 3.46081e-05 0)
(0.0815572 3.24244e-05 0)
(0.0813756 3.03025e-05 0)
(0.0812067 2.82397e-05 0)
(0.0810501 2.6247e-05 0)
(0.0809053 2.42993e-05 0)
(0.0807719 2.24506e-05 0)
(0.0806496 2.05738e-05 0)
(0.0805378 1.88217e-05 0)
(0.244758 0.000379165 0)
(0.243742 0.000360059 0)
(0.24278 0.000341624 0)
(0.241869 0.000323814 0)
(0.241007 0.000306626 0)
(0.240193 0.000290013 0)
(0.239425 0.00027392 0)
(0.238701 0.000258314 0)
(0.238021 0.000243173 0)
(0.237382 0.000228474 0)
(0.236784 0.000214207 0)
(0.236225 0.000200371 0)
(0.235704 0.000186958 0)
(0.23522 0.000173982 0)
(0.234771 0.000161438 0)
(0.234356 0.000149368 0)
(0.233973 0.000137701 0)
(0.233622 0.000126609 0)
(0.233301 0.000115688 0)
(0.233009 0.000105233 0)
(0.39452 0.00104327 0)
(0.392952 0.000989213 0)
(0.391468 0.000937196 0)
(0.390064 0.000887003 0)
(0.388738 0.000838595 0)
(0.387487 0.000791849 0)
(0.386308 0.00074664 0)
(0.385199 0.000702867 0)
(0.384158 0.000660465 0)
(0.383182 0.000619379 0)
(0.382269 0.000579587 0)
(0.381417 0.000541077 0)
(0.380624 0.000503832 0)
(0.379888 0.000467883 0)
(0.379207 0.000433227 0)
(0.378578 0.000399947 0)
(0.378 0.000367919 0)
(0.37747 0.000337442 0)
(0.376986 0.000307889 0)
(0.376545 0.000279458 0)
(0.533861 0.00198201 0)
(0.531843 0.00187768 0)
(0.529935 0.00177751 0)
(0.528131 0.00168095 0)
(0.526427 0.00158786 0)
(0.524821 0.00149803 0)
(0.523309 0.00141123 0)
(0.521887 0.00132727 0)
(0.520553 0.00124602 0)
(0.519303 0.00116738 0)
(0.518135 0.0010913 0)
(0.517046 0.00101775 0)
(0.516032 0.000946717 0)
(0.515092 0.000878237 0)
(0.514223 0.000812317 0)
(0.513421 0.000749084 0)
(0.512684 0.000688379 0)
(0.512008 0.000630598 0)
(0.511392 0.000575096 0)
(0.51083 0.000521479 0)
(0.662416 0.00312284 0)
(0.660065 0.00295685 0)
(0.657842 0.00279773 0)
(0.65574 0.00264452 0)
(0.653757 0.00249688 0)
(0.651886 0.00235447 0)
(0.650125 0.00221695 0)
(0.648469 0.00208402 0)
(0.646915 0.00195546 0)
(0.64546 0.00183112 0)
(0.644099 0.00171091 0)
(0.64283 0.00159477 0)
(0.641649 0.00148271 0)
(0.640554 0.00137475 0)
(0.63954 0.0012709 0)
(0.638605 0.00117135 0)
(0.637746 0.00107592 0)
(0.636957 0.000985039 0)
(0.636239 0.000898349 0)
(0.635582 0.000814544 0)
(0.779818 0.00440157 0)
(0.777267 0.0041665 0)
(0.774854 0.00394138 0)
(0.772573 0.00372482 0)
(0.770418 0.00351623 0)
(0.768385 0.00331509 0)
(0.76647 0.00312092 0)
(0.764668 0.00293329 0)
(0.762977 0.00275192 0)
(0.761391 0.00257656 0)
(0.759907 0.00240708 0)
(0.758523 0.0022434 0)
(0.757234 0.00208551 0)
(0.756037 0.00193346 0)
(0.754928 0.00178727 0)
(0.753904 0.00164711 0)
(0.752962 0.00151289 0)
(0.752097 0.00138494 0)
(0.751308 0.00126349 0)
(0.750585 0.00114633 0)
(0.885754 0.0057462 0)
(0.883153 0.00543926 0)
(0.88069 0.0051454 0)
(0.878359 0.00486291 0)
(0.876156 0.0045909 0)
(0.874075 0.00432865 0)
(0.872113 0.0040755 0)
(0.870265 0.00383092 0)
(0.868528 0.0035945 0)
(0.866897 0.00336595 0)
(0.86537 0.00314507 0)
(0.863943 0.00293175 0)
(0.862612 0.002726 0)
(0.861374 0.00252782 0)
(0.860226 0.00233729 0)
(0.859164 0.00215456 0)
(0.858185 0.00197967 0)
(0.857284 0.00181274 0)
(0.856461 0.00165468 0)
(0.855707 0.00150285 0)
(0.980021 0.00707554 0)
(0.977532 0.00669914 0)
(0.975171 0.00633863 0)
(0.972933 0.00599218 0)
(0.970815 0.00565862 0)
(0.968812 0.005337 0)
(0.966919 0.00502651 0)
(0.965133 0.00472648 0)
(0.963451 0.00443642 0)
(0.96187 0.00415595 0)
(0.960386 0.00388484 0)
(0.958997 0.00362295 0)
(0.957699 0.00337027 0)
(0.956489 0.0031268 0)
(0.955364 0.00289266 0)
(0.954321 0.00266798 0)
(0.953359 0.00245294 0)
(0.952469 0.00224744 0)
(0.951655 0.00205293 0)
(0.950908 0.00186697 0)
(1.06259 0.0083036 0)
(1.06037 0.00786539 0)
(1.05827 0.00744529 0)
(1.05627 0.00704151 0)
(1.05438 0.00665267 0)
(1.05258 0.00627764 0)
(1.05088 0.00591545 0)
(1.04927 0.00556532 0)
(1.04775 0.00522668 0)
(1.04632 0.0048991 0)
(1.04497 0.00458232 0)
(1.04371 0.00427615 0)
(1.04252 0.00398059 0)
(1.04141 0.00369562 0)
(1.04038 0.00342144 0)
(1.03942 0.00315812 0)
(1.03853 0.00290599 0)
(1.03771 0.00266481 0)
(1.03695 0.00243619 0)
(1.03626 0.00221855 0)
(1.13362 0.009345 0)
(1.13184 0.00885751 0)
(1.13015 0.00838948 0)
(1.12854 0.00793932 0)
(1.127 0.00750563 0)
(1.12554 0.00708708 0)
(1.12415 0.0066826 0)
(1.12283 0.00629135 0)
(1.12158 0.00591269 0)
(1.12039 0.00554616 0)
(1.11928 0.00519148 0)
(1.11823 0.00484842 0)
(1.11724 0.00451702 0)
(1.11631 0.00419723 0)
(1.11544 0.00388933 0)
(1.11463 0.00359334 0)
(1.11388 0.00330968 0)
(1.11317 0.00303817 0)
(1.11253 0.00278013 0)
(1.11193 0.00253517 0)
(1.19354 0.010121 0)
(1.19234 0.00960071 0)
(1.19119 0.00910025 0)
(1.19008 0.00861837 0)
(1.18903 0.00815372 0)
(1.18801 0.00770489 0)
(1.18705 0.00727077 0)
(1.18612 0.00685049 0)
(1.18524 0.0064434 0)
(1.1844 0.006049 0)
(1.18361 0.00566703 0)
(1.18285 0.00529725 0)
(1.18214 0.00493973 0)
(1.18146 0.00459439 0)
(1.18083 0.0042616 0)
(1.18023 0.00394132 0)
(1.17967 0.00363403 0)
(1.17915 0.00333981 0)
(1.17866 0.00305927 0)
(1.17821 0.00279328 0)
(1.24298 0.0105657 0)
(1.24248 0.0100318 0)
(1.24198 0.00951704 0)
(1.24149 0.00902072 0)
(1.24101 0.00854157 0)
(1.24054 0.00807821 0)
(1.24009 0.00762952 0)
(1.23965 0.00719468 0)
(1.23922 0.00677307 0)
(1.2388 0.00636418 0)
(1.2384 0.00596778 0)
(1.23802 0.00558362 0)
(1.23765 0.00521187 0)
(1.23729 0.00485236 0)
(1.23695 0.00450558 0)
(1.23663 0.00417145 0)
(1.23632 0.00385041 0)
(1.23603 0.003543 0)
(1.23575 0.00324889 0)
(1.2355 0.00296999 0)
(1.28283 0.0106314 0)
(1.28309 0.010104 0)
(1.28331 0.0095946 0)
(1.28351 0.0091025 0)
(1.28368 0.00862673 0)
(1.28382 0.00816599 0)
(1.28395 0.00771928 0)
(1.28405 0.00728581 0)
(1.28414 0.00686504 0)
(1.28421 0.00645651 0)
(1.28426 0.00606003 0)
(1.2843 0.00567534 0)
(1.28433 0.00530272 0)
(1.28435 0.00494189 0)
(1.28435 0.00459353 0)
(1.28435 0.00425743 0)
(1.28434 0.00393408 0)
(1.28432 0.00362437 0)
(1.28429 0.0033271 0)
(1.28426 0.00304502 0)
(1.31412 0.010292 0)
(1.31517 0.00979135 0)
(1.31614 0.00930666 0)
(1.31706 0.00883757 0)
(1.31791 0.00838326 0)
(1.3187 0.00794262 0)
(1.31944 0.00751478 0)
(1.32013 0.00709907 0)
(1.32076 0.00669505 0)
(1.32135 0.00630228 0)
(1.32189 0.00592069 0)
(1.32239 0.00555 0)
(1.32285 0.00519059 0)
(1.32327 0.00484205 0)
(1.32365 0.0045053 0)
(1.32399 0.00417994 0)
(1.32431 0.00386659 0)
(1.32458 0.00356624 0)
(1.32484 0.00327719 0)
(1.32506 0.00300278 0)
(1.33799 0.0095452 0)
(1.33982 0.00908975 0)
(1.34154 0.00864796 0)
(1.34316 0.0082196 0)
(1.34469 0.00780394 0)
(1.34612 0.0074001 0)
(1.34747 0.00700743 0)
(1.34874 0.00662538 0)
(1.34993 0.00625358 0)
(1.35104 0.00589169 0)
(1.35207 0.00553971 0)
(1.35304 0.00519738 0)
(1.35393 0.00486517 0)
(1.35476 0.00454254 0)
(1.35552 0.00423067 0)
(1.35623 0.00392876 0)
(1.35687 0.00363793 0)
(1.35746 0.00335871 0)
(1.35801 0.00308958 0)
(1.35849 0.00283428 0)
(1.35563 0.0084116 0)
(1.35817 0.00801739 0)
(1.36058 0.00763448 0)
(1.36287 0.00726253 0)
(1.36502 0.00690091 0)
(1.36706 0.00654898 0)
(1.36899 0.00620629 0)
(1.3708 0.00587239 0)
(1.37251 0.00554706 0)
(1.37411 0.00523005 0)
(1.37562 0.00492142 0)
(1.37702 0.00462087 0)
(1.37833 0.004329 0)
(1.37956 0.00404512 0)
(1.38069 0.00377069 0)
(1.38174 0.00350437 0)
(1.38271 0.00324807 0)
(1.3836 0.00300117 0)
(1.38443 0.00276333 0)
(1.38516 0.0025385 0)
(1.36817 0.00693278 0)
(1.37133 0.00661286 0)
(1.37433 0.00630197 0)
(1.37719 0.0059995 0)
(1.3799 0.00570487 0)
(1.38247 0.00541766 0)
(1.38489 0.0051376 0)
(1.38719 0.00486438 0)
(1.38936 0.00459789 0)
(1.3914 0.00433797 0)
(1.39332 0.00408469 0)
(1.39512 0.00383777 0)
(1.3968 0.00359786 0)
(1.39837 0.00336419 0)
(1.39984 0.00313834 0)
(1.4012 0.00291853 0)
(1.40246 0.00270761 0)
(1.40362 0.00250303 0)
(1.4047 0.00230682 0)
(1.40566 0.0021229 0)
(1.3766 0.00516782 0)
(1.38025 0.00493209 0)
(1.38373 0.0047033 0)
(1.38704 0.00448041 0)
(1.39019 0.00426287 0)
(1.39318 0.00405052 0)
(1.39602 0.00384321 0)
(1.3987 0.00364073 0)
(1.40124 0.00344309 0)
(1.40363 0.00325016 0)
(1.40589 0.00306203 0)
(1.40801 0.00287849 0)
(1.40999 0.00270011 0)
(1.41185 0.00252612 0)
(1.41358 0.00235806 0)
(1.4152 0.00219398 0)
(1.41669 0.00203726 0)
(1.41808 0.0018836 0)
(1.41936 0.00173739 0)
(1.42052 0.0016035 0)
(1.38174 0.00318929 0)
(1.38573 0.00304489 0)
(1.38954 0.00290497 0)
(1.39317 0.00276866 0)
(1.39663 0.00263537 0)
(1.39991 0.00250512 0)
(1.40303 0.00237787 0)
(1.40599 0.00225352 0)
(1.40878 0.00213206 0)
(1.41142 0.00201341 0)
(1.41392 0.00189767 0)
(1.41626 0.00178474 0)
(1.41846 0.00167495 0)
(1.42052 0.00156777 0)
(1.42244 0.0014643 0)
(1.42424 0.00136303 0)
(1.42589 0.00126676 0)
(1.42745 0.00117131 0)
(1.42887 0.0010808 0)
(1.43017 0.00100046 0)
(1.38417 0.00107862 0)
(1.38833 0.00103023 0)
(1.39231 0.000983208 0)
(1.3961 0.000937394 0)
(1.39971 0.000892563 0)
(1.40315 0.00084877 0)
(1.40641 0.000805943 0)
(1.40951 0.000764117 0)
(1.41244 0.000723298 0)
(1.41521 0.000683455 0)
(1.41782 0.000644568 0)
(1.42028 0.000606646 0)
(1.42259 0.000569779 0)
(1.42476 0.00053384 0)
(1.42678 0.000499057 0)
(1.42867 0.000465161 0)
(1.43041 0.000432911 0)
(1.43205 0.000400703 0)
(1.43354 0.000370492 0)
(1.43491 0.000343641 0)
)
;

boundaryField
{
    fixedWalls
    {
        type            noSlip;
    }
    inlet
    {
        type            fixedValue;
        value           nonuniform 0();
    }
    outlet
    {
        type            zeroGradient;
    }
    frontAndBack
    {
        type            empty;
    }
    procBoundary2to1
    {
        type            processor;
        value           nonuniform List<vector> 
20
(
(0.0852741 6.61683e-05 0)
(0.245829 0.000399173 0)
(0.396176 0.00109997 0)
(0.535993 0.00209154 0)
(0.664901 0.00329716 0)
(0.782514 0.00464838 0)
(0.888499 0.00606824 0)
(0.982645 0.00747005 0)
(1.06491 0.00876226 0)
(1.13548 0.00985443 0)
(1.19478 0.0106638 0)
(1.2435 0.0111216 0)
(1.28254 0.0111791 0)
(1.31299 0.0108108 0)
(1.33606 0.010016 0)
(1.35295 0.00881816 0)
(1.36484 0.00726202 0)
(1.37276 0.00540992 0)
(1.37756 0.00333705 0)
(1.3798 0.0011282 0)
)
;
    }
    procBoundary2to3
    {
        type            processor;
        value           nonuniform List<vector> 
20
(
(0.0804362 1.7378e-05 0)
(0.232744 9.61451e-05 0)
(0.376148 0.000254074 0)
(0.510323 0.000472661 0)
(0.634989 0.000736956 0)
(0.74993 0.0010364 0)
(0.855019 0.00135907 0)
(0.950223 0.0016901 0)
(1.03562 0.00201152 0)
(1.11138 0.00230288 0)
(1.17779 0.00254236 0)
(1.23525 0.00270839 0)
(1.28423 0.00278165 0)
(1.32526 0.00274708 0)
(1.35893 0.00259565 0)
(1.38585 0.00232583 0)
(1.40656 0.0019444 0)
(1.4216 0.00146686 0)
(1.43139 0.000916099 0)
(1.4362 0.000315996 0)
)
;
    }
    procBoundary2to6
    {
        type            processor;
        value           nonuniform List<vector> 
20
(
(1.38417 -0.00107668 0)
(1.38833 -0.00102757 0)
(1.39231 -0.000980236 0)
(1.3961 -0.000934385 0)
(1.39971 -0.000889364 0)
(1.40315 -0.000845262 0)
(1.40641 -0.000802163 0)
(1.40951 -0.000759954 0)
(1.41244 -0.00071864 0)
(1.41521 -0.000678223 0)
(1.41782 -0.00063878 0)
(1.42028 -0.00060019 0)
(1.42259 -0.00056268 0)
(1.42476 -0.000525923 0)
(1.42678 -0.000490576 0)
(1.42867 -0.000455593 0)
(1.43041 -0.000422762 0)
(1.43205 -0.000389888 0)
(1.43354 -0.000358006 0)
(1.43492 -0.000331742 0)
)
;
    }
}


// ************************************************************************* //
