/*--------------------------------*- C++ -*----------------------------------*\
| =========                 |                                                 |
| \\      /  F ield         | OpenFOAM: The Open Source CFD Toolbox           |
|  \\    /   O peration     | Version:                                        |
|   \\  /    A nd           | Website:  www.openfoam.com                      |
|    \\/     M anipulation  |                                                 |
\*---------------------------------------------------------------------------*/
FoamFile
{
    version     2.0;
    format      ascii;
    class       volScalarField;
    location    "167";
    object      p;
}
// * * * * * * * * * * * * * * * * * * * * * * * * * * * * * * * * * * * * * //

dimensions      [0 2 -2 0 0 0 0];


internalField   nonuniform List<scalar> 
1161
(
-0.397989
-0.369595
-0.340604
-0.311032
-0.281759
-0.253538
-0.225267
-0.19726
-0.166768
-0.135837
-0.312936
-0.285148
-0.256438
-0.228522
-0.201591
-0.176607
-0.151943
-0.12889
-0.237815
-0.212704
-0.188193
-0.164391
-0.141696
-0.119535
-0.154473
-0.134028
-0.115172
-0.838604
-0.899652
-0.965832
-1.03328
-1.09874
-1.16111
-1.21635
-1.25124
-1.26946
-1.28326
-1.27485
-1.20758
-1.07801
-0.919523
-0.770381
-0.650037
-0.56203
-0.882829
-0.934368
-0.989926
-1.04395
-1.10124
-1.15328
-1.18517
-1.19758
-1.20878
-1.19722
-1.12833
-1.00155
-0.853876
-0.718485
-0.6128
-0.532907
-0.839091
-0.873486
-0.911536
-0.953288
-0.998534
-1.0381
-1.06416
-1.08341
-1.09494
-1.07552
-1.00124
-0.881432
-0.753274
-0.638838
-0.547069
-0.475738
-0.770536
-0.78236
-0.799811
-0.823178
-0.853277
-0.889169
-0.919015
-0.946905
-0.959743
-0.928776
-0.852103
-0.748988
-0.644689
-0.553843
-0.477433
-0.414016
-0.69717
-0.669352
-0.657562
-0.670653
-0.695081
-0.727623
-0.775957
-0.815144
-0.820503
-0.780524
-0.709045
-0.626651
-0.547051
-0.476087
-0.412008
-0.355911
-0.567781
-0.539997
-0.532002
-0.555325
-0.614745
-0.66928
-0.699458
-0.691794
-0.649547
-0.589564
-0.524891
-0.464042
-0.40671
-0.354341
-0.305227
-0.461446
-0.467641
-0.510063
-0.553462
-0.589703
-0.601446
-0.582045
-0.54226
-0.494659
-0.444516
-0.397168
-0.350584
-0.307333
-0.264655
-0.468482
-0.491788
-0.516465
-0.528571
-0.52119
-0.496562
-0.461803
-0.421512
-0.380686
-0.340171
-0.301693
-0.266371
-0.230782
-0.491968
-0.487011
-0.476072
-0.458071
-0.432313
-0.399691
-0.363268
-0.328122
-0.293927
-0.26141
-0.231469
-0.199068
-0.456742
-0.432816
-0.407351
-0.380223
-0.350783
-0.319687
-0.286192
-0.253603
-0.222621
-0.194271
-0.166566
-0.489633
-0.443274
-0.439192
-0.473674
-0.558879
-0.696284
-0.843578
-0.925879
-0.879803
-0.73987
-0.575015
-0.444583
-0.367113
-0.328512
-0.328403
-0.36664
-0.463197
-0.622294
-0.770189
-0.814399
-0.461785
-0.410528
-0.392986
-0.405225
-0.455521
-0.543108
-0.654433
-0.718756
-0.690196
-0.591964
-0.477747
-0.387034
-0.335625
-0.315191
-0.329632
-0.387037
-0.510098
-0.696766
-0.86962
-0.918501
-0.410195
-0.366085
-0.342167
-0.334019
-0.352327
-0.398953
-0.470036
-0.514391
-0.508281
-0.448207
-0.378146
-0.319634
-0.289822
-0.283324
-0.305578
-0.381343
-0.516196
-0.720135
-0.915729
-0.987494
-0.349547
-0.308308
-0.285493
-0.270436
-0.268361
-0.2844
-0.317071
-0.344682
-0.348067
-0.316952
-0.278121
-0.245122
-0.226761
-0.230284
-0.254675
-0.329474
-0.467722
-0.676936
-0.885049
-0.962775
-0.296334
-0.254465
-0.229025
-0.207492
-0.195181
-0.192639
-0.201824
-0.216067
-0.220794
-0.205942
-0.184747
-0.170139
-0.158452
-0.166294
-0.186815
-0.251206
-0.381875
-0.566787
-0.779282
-0.876242
-0.25191
-0.21392
-0.187801
-0.160284
-0.139135
-0.124146
-0.120706
-0.120437
-0.124768
-0.118447
-0.108628
-0.106095
-0.100389
-0.104963
-0.1202
-0.16786
-0.271469
-0.429714
-0.624476
-0.731367
-0.215504
-0.181376
-0.15583
-0.128575
-0.103357
-0.0810115
-0.0665852
-0.0569422
-0.0551354
-0.053734
-0.0501415
-0.0535047
-0.0534745
-0.0572025
-0.0652493
-0.0955789
-0.175372
-0.297242
-0.447291
-0.557171
-0.552715
-0.189734
-0.161863
-0.137352
-0.109204
-0.0822911
-0.0578526
-0.0369936
-0.0202529
-0.00640362
-0.00697296
-0.00510625
-0.0137683
-0.0192863
-0.0230497
-0.0248191
-0.0420342
-0.0947749
-0.178888
-0.292821
-0.398434
-0.446174
-0.165525
-0.146472
-0.126091
-0.100185
-0.0738299
-0.0487499
-0.0246331
-0.00366424
0.018205
0.0257728
0.0300851
0.0198288
0.00838774
-0.00014399
-0.00311214
-0.011651
-0.04519
-0.0966232
-0.176152
-0.259668
-0.2979
-0.147942
-0.138863
-0.122502
-0.0989605
-0.0741169
-0.0511081
-0.0278979
-0.00687437
0.015613
0.0321694
0.0453862
0.044474
0.0308482
0.0169088
0.0113286
0.00655647
-0.0178436
-0.050121
-0.101863
-0.150315
-0.165931
-0.116668
-0.118737
-0.105639
-0.0824699
-0.056601
-0.0322905
-0.012101
0.00502551
0.0236349
0.0411522
0.0547103
0.0635038
0.0520795
0.0331654
0.0184125
0.0116229
-0.00242506
-0.0203226
-0.052542
-0.0922453
-0.117814
-0.141593
-0.0903735
-0.0969695
-0.0870469
-0.0652423
-0.0412194
-0.0181876
0.000405485
0.0140956
0.0290266
0.0432406
0.0541263
0.0589429
0.0541658
0.0388744
0.0204127
0.0113702
0.00157097
-0.00989361
-0.0386291
-0.0688957
-0.0771161
-0.0791514
-0.0724806
-0.0781401
-0.0713476
-0.0531444
-0.0314688
-0.011324
0.00578178
0.0179672
0.0311947
0.0446958
0.0551716
0.0611219
0.0561497
0.042583
0.02346
0.0135666
0.00495319
-0.0084116
-0.0311577
-0.0434679
-0.0392748
-0.048501
-0.0558418
-0.060546
-0.055476
-0.0409416
-0.0228741
-0.00517085
0.0116384
0.0232008
0.0333834
0.0442333
0.0526615
0.058434
0.0548278
0.0447451
0.0284455
0.0183246
0.00959632
-0.000513684
-0.012458
-0.0167269
-0.0170057
-0.0270863
-0.0400342
-0.0451525
-0.0423665
-0.0312678
-0.0157966
-0.000160802
0.0143547
0.024773
0.0327477
0.0417041
0.0493627
0.0548927
0.0521636
0.0448549
0.0322563
0.0235066
0.0156868
0.00963529
0.00365495
-0.00119592
-0.00141593
-0.00792751
-0.0277215
-0.0327486
-0.031226
-0.0226065
-0.00970346
0.00358116
0.0157474
0.0255336
0.0323263
0.0396145
0.045774
0.0503453
0.0488403
0.0431136
0.0337533
0.0265315
0.0204307
0.0164956
0.0137763
0.00996215
0.00926545
0.00338381
-0.0176071
-0.0220481
-0.0214295
-0.0147645
-0.00436213
0.00667503
0.016722
0.0253493
0.0312696
0.0368506
0.041917
0.0456507
0.0450635
0.0408769
0.033852
0.0288286
0.0247029
0.0218157
0.020949
0.0170656
0.0161471
0.0140918
-0.00865625
-0.0127992
-0.0128644
-0.00804527
1.90002e-05
0.00904066
0.017449
0.0247493
0.029921
0.0342361
0.0383447
0.0412904
0.0415825
0.0387401
0.0340473
0.0304961
0.0277775
0.0256433
0.0253486
0.022763
0.0208095
0.0195096
-0.00122716
-0.00513817
-0.00579869
-0.00261357
0.00361642
0.0110868
0.018241
0.0241559
0.0285794
0.0320343
0.0352716
0.0377773
0.0384684
0.0369536
0.0340356
0.0314126
0.029853
0.0281678
0.0278524
0.0259988
0.0241804
0.0243827
0.00476919
0.00116953
8.58734e-05
0.00214372
0.00703235
0.0130392
0.018896
0.0237158
0.0274005
0.030144
0.0326971
0.0349248
0.0359437
0.035432
0.0337713
0.0318526
0.0308557
0.0297347
0.0293497
0.0286371
0.0267474
0.0265709
0.00990256
0.00662859
0.00536376
0.00658057
0.0101211
0.0147323
0.0195395
0.0235465
0.0264535
0.0286331
0.030735
0.0328695
0.0340401
0.0340688
0.033164
0.0318279
0.0313592
0.0307495
0.0303771
0.0298705
0.0284545
0.0287439
0.0144578
0.0113806
0.00979868
0.01024
0.0127945
0.0165016
0.02046
0.0236828
0.0259267
0.027649
0.029387
0.031209
0.0325215
0.0328117
0.0324588
0.0317054
0.0314084
0.0312
0.0309005
0.0310014
0.0299808
0.029974
0.0181113
0.0153002
0.0137
0.01371
0.0154974
0.018364
0.021481
0.0240373
0.025779
0.0271018
0.0285309
0.0301678
0.031427
0.0318878
0.0318217
0.0314139
0.0312656
0.0314746
0.0314491
0.0316348
0.0309322
0.0310712
0.0214405
0.0189236
0.0172328
0.0168715
0.0180622
0.0201697
0.0225541
0.0245857
0.0260026
0.0269989
0.0281433
0.029502
0.0306877
0.0312547
0.0313045
0.0311955
0.0311974
0.031665
0.0317532
0.0320424
0.0316409
0.0315185
0.0242455
0.0219344
0.020341
0.0197749
0.0203856
0.0219255
0.0239134
0.0256029
0.0266212
0.0272777
0.0281364
0.0292809
0.0303547
0.0309634
0.0310674
0.031098
0.0312127
0.0317447
0.0320543
0.0323873
0.0322682
0.0322127
0.026804
0.0246722
0.0229501
0.0221552
0.02261
0.0239595
0.0254986
0.0266601
0.0273151
0.0277584
0.028448
0.029438
0.0303781
0.0309297
0.0310452
0.0311245
0.0313277
0.0318888
0.0323456
0.0327105
0.0327309
0.0327705
0.0285761
0.0266757
0.0252599
0.024673
0.0249127
0.0257224
0.0267726
0.0276724
0.0282028
0.0285117
0.0290231
0.0298191
0.0306168
0.0311009
0.0312388
0.0313223
0.0315591
0.0321001
0.032635
0.0329862
0.033087
0.0332211
0.0305459
0.0290518
0.027694
0.0267987
0.0266633
0.0272625
0.028194
0.0289247
0.0292515
0.0293812
0.0297423
0.0303658
0.0310433
0.0314697
0.0315911
0.031629
0.0318588
0.0323819
0.0328976
0.0332591
0.0333731
0.0335681
0.0322432
0.030646
0.02924
0.0284557
0.0284397
0.0289553
0.0296263
0.0300907
0.0302479
0.0302761
0.0305316
0.0310415
0.0316126
0.0319447
0.0319937
0.0320165
0.0322338
0.0327129
0.0331742
0.033525
0.033628
0.0338265
0.033042
0.0318442
0.0308441
0.0302241
0.0300951
0.0303748
0.0308404
0.0311702
0.0312506
0.0312237
0.0313844
0.0317815
0.0322207
0.0324665
0.0324857
0.0324954
0.0326583
0.0330686
0.0334703
0.0337807
0.0338544
0.0340297
0.0343211
0.0333289
0.0323404
0.0316449
0.0314357
0.0316397
0.0319989
0.0322189
0.032212
0.0321285
0.032215
0.0325182
0.0328499
0.0330322
0.0330114
0.0329877
0.0330962
0.0334336
0.0337788
0.0340156
0.0340719
0.0342
0.0352199
0.0342941
0.0334192
0.0328347
0.0326533
0.0327893
0.0330311
0.033155
0.0330921
0.0329746
0.0330017
0.0332146
0.0334594
0.0335892
0.0335413
0.0334793
0.033542
0.0338065
0.034086
0.0342538
0.0342842
0.0343637
0.0358259
0.0351142
0.0344206
0.0339264
0.0337295
0.0337833
0.0339242
0.0339783
0.0338784
0.033741
0.0337236
0.0338725
0.0340565
0.0341301
0.0340443
0.033945
0.0339758
0.0341672
0.0343769
0.0344752
0.0344777
0.0345118
0.0364117
0.035859
0.0352831
0.0348456
0.0346401
0.0346387
0.034707
0.0347046
0.0345837
0.0344414
0.0343988
0.034481
0.03458
0.0345904
0.034491
0.0343877
0.0343842
0.0344974
0.0346332
0.0346832
0.0346551
0.034652
0.0368554
0.0364149
0.0359516
0.0355914
0.0354024
0.0353636
0.0353766
0.0353368
0.0352044
0.0350471
0.0349627
0.0349776
0.0350228
0.0350103
0.0349106
0.0347889
0.0347428
0.0347931
0.0348697
0.0348754
0.0348153
0.0347805
0.0371274
0.0368081
0.0364666
0.036186
0.0360139
0.0359397
0.0358984
0.0358199
0.0356795
0.0355263
0.0354288
0.0354047
0.0354024
0.0353538
0.0352399
0.0351114
0.0350404
0.0350384
0.0350536
0.035019
0.0349394
0.0348744
0.0373825
0.0371557
0.0368995
0.0366702
0.0365044
0.0364009
0.036321
0.03622
0.0360819
0.0359348
0.0358213
0.0357534
0.035701
0.0356226
0.0355054
0.0353794
0.0352878
0.0352409
0.035205
0.0351391
0.0350389
0.0349486
0.0375032
0.0373398
0.0371579
0.0369885
0.0368513
0.0367443
0.0366451
0.0365287
0.0363884
0.0362432
0.0361201
0.0360266
0.0359447
0.0358476
0.0357264
0.0355982
0.0354894
0.035407
0.0353311
0.0352381
0.0351236
0.035014
0.0374729
0.0373471
0.0372159
0.0370883
0.0369695
0.0368589
0.0367494
0.0366336
0.036509
0.0363827
0.0362639
0.0361555
0.0360504
0.0359399
0.0358206
0.0356994
0.0355849
0.0354802
0.0353775
0.0352687
0.0351493
0.0350286
0.0375669
0.0374648
0.0373553
0.0372418
0.0371265
0.0370102
0.0368917
0.0367694
0.0366435
0.0365169
0.0363931
0.0362737
0.0361562
0.0360375
0.0359155
0.0357924
0.0356701
0.0355511
0.0354326
0.0353126
0.0351862
0.0350564
-0.0896784
-0.0951508
-0.0948649
-0.100992
-0.103734
-0.0671685
-0.0711672
-0.0689407
-0.0713155
-0.076604
-0.0501555
-0.0522601
-0.052753
-0.0550309
-0.0614535
-0.0375021
-0.0390916
-0.0411934
-0.0426505
-0.0478543
-0.0266269
-0.0280164
-0.0286008
-0.0325932
-0.0148781
-0.0156748
-0.0166305
-0.0205647
-0.00578002
-0.00680008
-0.00819548
-0.0117266
0.00128609
0.000446106
-0.000711216
-0.00360418
0.00765312
0.00717198
0.00610436
0.00338471
0.0131362
0.0125679
0.0113266
0.00869325
0.017393
0.0167064
0.0155135
0.0132147
0.0209988
0.0204331
0.0194348
0.0173956
0.0242747
0.0237693
0.0227829
0.0208015
0.0268994
0.0263527
0.0254154
0.0237193
0.0290601
0.0285808
0.0277698
0.026318
0.0308821
0.0304698
0.0298168
0.0286053
0.0325348
0.0322036
0.0315294
0.0302954
0.033675
0.0332441
0.0326278
0.0317649
0.0345306
0.0343511
0.034102
0.0334526
0.0356772
0.0354876
0.0350166
0.0341618
0.0361384
0.035849
0.0355067
0.0350353
0.0365798
0.0364535
0.0362915
0.0359105
0.0371264
0.0369703
0.0367519
0.0363819
0.0374075
0.0372311
0.0370564
0.0368082
0.0376483
0.0375083
0.0373716
0.0371734
0.0378427
0.0376937
0.0375464
0.0373699
0.0379354
0.0378005
0.0376794
0.037551
0.0379752
0.0378588
0.0377496
0.0376361
0.0379553
0.0378327
0.0377127
0.0375935
0.0379783
0.0378708
0.0377672
0.0376661
)
;

boundaryField
{
    outlet
    {
        type            fixedValue;
        value           nonuniform 0();
    }
    upperWall
    {
        type            symmetryPlane;
    }
    lowerWall
    {
        type            symmetryPlane;
    }
    inlet
    {
        type            zeroGradient;
    }
    cylinder
    {
        type            zeroGradient;
    }
    frontAndBack
    {
        type            empty;
    }
    procBoundary6to2
    {
        type            processor;
        value           nonuniform List<scalar> 
37
(
-0.819411
-0.891134
-0.969243
-1.04603
-1.1199
-1.186
-1.23988
-1.27577
-1.297
-1.30764
-1.2899
-1.21564
-1.08097
-0.918195
-0.764713
-0.641394
-0.556468
-0.489189
-0.452145
-0.464251
-0.519557
-0.632629
-0.808551
-0.987249
-1.08579
-1.03132
-0.862454
-0.659907
-0.490608
-0.385161
-0.328878
-0.312178
-0.330821
-0.400235
-0.517167
-0.633774
-0.671719
)
;
    }
    procBoundary6to5
    {
        type            processor;
        value           nonuniform List<scalar> 
63
(
-0.428611
-0.428611
-0.370207
-0.341005
-0.341005
-0.290002
-0.263057
-0.263057
-0.221611
-0.197909
-0.175784
-0.175784
-0.146726
-0.128199
-0.110703
-0.110703
-0.789036
-0.83472
-0.83472
-0.807267
-0.769543
-0.731187
-0.624522
-0.624522
-0.506471
-0.506471
-0.46281
-0.46281
-0.494277
-0.494277
-0.482508
-0.482508
-0.0882428
-0.0677348
-0.0496002
-0.0358063
-0.0258291
-0.0258291
-0.0147102
-0.00542168
0.00188785
0.00810637
0.013559
0.0179195
0.021492
0.0246425
0.0272773
0.0294213
0.031235
0.0327995
0.0340132
0.0347919
0.0357955
0.0363956
0.0367696
0.0372913
0.0376109
0.0378189
0.0380022
0.0380843
0.0381006
0.0380798
0.0380896
)
;
    }
    procBoundary6to7
    {
        type            processor;
        value           nonuniform List<scalar> 
42
(
-0.72553
-0.817119
-0.867235
-0.863979
-0.806998
-0.69959
-0.69959
-0.459656
-0.374218
-0.273148
-0.154319
-0.154319
-0.113615
-0.0751466
-0.0534289
-0.0300437
-0.0141426
-7.30108e-05
0.0103768
0.0172748
0.0232225
0.0262609
0.0291827
0.0304715
0.0317319
0.0323969
0.0329848
0.033475
0.0338339
0.0340801
0.0342856
0.0344363
0.0345603
0.0346581
0.0347366
0.0348009
0.0348529
0.0348822
0.0349057
0.034927
0.034914
0.0349245
)
;
    }
}


// ************************************************************************* //
