/*--------------------------------*- C++ -*----------------------------------*\
| =========                 |                                                 |
| \\      /  F ield         | OpenFOAM: The Open Source CFD Toolbox           |
|  \\    /   O peration     | Version:                                        |
|   \\  /    A nd           | Website:  www.openfoam.com                      |
|    \\/     M anipulation  |                                                 |
\*---------------------------------------------------------------------------*/
FoamFile
{
    version     2.0;
    format      ascii;
    class       surfaceScalarField;
    location    "44";
    object      phi;
}
// * * * * * * * * * * * * * * * * * * * * * * * * * * * * * * * * * * * * * //

dimensions      [0 3 -1 0 0 0 0];
oriented        oriented;


internalField   nonuniform List<scalar> 
2257
(
0.0424242
-0.0412128
0.0363189
-0.0385006
0.0291902
-0.0281235
0.0221025
-0.0151397
0.0157994
-0.00295019
0.00655422
0.0415226
-0.0355732
0.0331229
-0.0301009
0.0245533
-0.0195539
0.0167061
-0.00729256
0.0102333
0.00352258
0.00497992
0.0118076
0.000239579
0.0183758
-0.0041868
0.024273
-0.00839518
0.0287737
0.0327305
0.0343358
-0.0268222
0.0241279
-0.0198931
0.0146195
-0.0100454
0.0066176
0.000709299
0.000438828
0.00970136
-0.00487242
0.0171189
-0.00959919
0.0231026
-0.0135841
0.0282579
-0.0173173
0.0325069
0.0357983
-0.0203851
0.0225234
-0.0159472
0.0108834
-0.00825309
0.00014999
0.000688033
-0.00795204
0.00881133
-0.0146125
0.0163619
-0.0202335
0.0227399
-0.0249613
0.0278304
-0.0286296
0.0319262
-0.0311089
0.0349862
0.0378766
-0.0331872
0.00246083
-0.00408508
-0.00889188
0.00309961
-0.0185285
0.0103247
-0.026768
0.0170508
-0.0335521
0.023146
-0.0388342
0.028022
-0.0428733
0.0318694
-0.0455275
0.0345805
-0.0467636
0.0362222
0.038064
-0.0469509
-0.0142829
0.00775827
-0.025025
0.0138418
-0.0344369
0.0197365
-0.0422222
0.0248361
-0.0482168
0.0291405
-0.0524724
0.0322776
-0.0551481
0.0345452
-0.0562886
0.0357209
-0.0560602
0.0359938
0.0364203
-0.0544165
-0.0253816
0.0183887
-0.0349457
0.0234059
-0.0428371
0.0276279
-0.0489757
0.0309748
-0.053379
0.0335438
-0.056109
0.0350076
-0.0574121
0.0358482
-0.0574686
0.0357774
-0.05659
0.0351152
0.0345343
-0.054704
-0.0306728
0.0263922
-0.0376595
0.0303926
-0.0434268
0.0333952
-0.0476276
0.0351756
-0.0505078
0.036424
-0.0520967
0.0365966
-0.0527627
0.0365142
-0.0526832
0.0356979
-0.0522009
0.0346329
0.0336289
-0.0512955
-0.0306367
0.0323938
-0.0354461
0.035202
-0.0394062
0.0373553
-0.0421035
0.037873
-0.0439574
0.0382778
-0.0450379
0.0376771
-0.0456815
0.0371578
-0.0461249
0.0361413
-0.0464803
0.0349883
0.0338715
-0.0467229
-0.0279046
0.0368057
-0.0310862
0.0383836
-0.0338677
0.0401368
-0.0358698
0.0398751
-0.037257
0.039665
-0.03836
0.0387802
-0.0392087
0.0380065
-0.0401435
0.0370761
-0.0410939
0.0359387
0.0348225
-0.042045
-0.023631
0.0399542
-0.0260045
0.0407572
-0.0279156
0.0420479
-0.029657
0.0416165
-0.0308806
0.0408886
-0.0321419
0.0400415
-0.0333087
0.0391732
-0.0345817
0.0383491
-0.0358722
0.0372293
0.0360872
-0.0371369
-0.0188196
0.0416403
-0.0209042
0.0428419
-0.0222395
0.0433831
-0.0237601
0.043137
-0.0249603
0.0420888
-0.0262063
0.0412875
-0.0274869
0.0404539
-0.0289147
0.039777
-0.0303679
0.0386824
0.0374502
-0.0317308
-0.0142875
0.0417975
-0.0160787
0.044633
-0.0173581
0.0446625
-0.0187466
0.0445256
-0.0200694
0.0434116
-0.0213327
0.0425507
-0.0226075
0.0417287
-0.0239423
0.0411118
-0.0253578
0.0400979
0.0387604
-0.026668
-0.0105009
0.040886
-0.0115186
0.0456507
-0.0128863
0.0460302
-0.0142224
0.0458618
-0.0156101
0.0447993
-0.0168653
0.0438059
-0.0180835
0.0429469
-0.0193029
0.0423312
-0.0206395
0.0414345
0.0400769
-0.0219561
-0.00748846
0.0398098
-0.00738156
0.0455438
-0.00855559
0.0472042
-0.00986979
0.047176
-0.0112991
0.0462286
-0.012606
0.0451127
-0.013825
0.044166
-0.0149892
0.0434954
-0.0162615
0.0427067
0.0414171
-0.0176016
-0.00496874
0.0393556
-0.00404443
0.0446195
-0.0046906
0.0478504
-0.00589976
0.0483851
-0.00731904
0.0476479
-0.0086862
0.0464799
-0.00993285
0.0454126
-0.0110491
0.0446116
-0.0122096
0.0438672
0.0426916
-0.0134841
-0.00253767
0.0397568
-0.00148838
0.0435702
-0.00152363
0.0478856
-0.00248371
0.0493452
-0.00384186
0.049006
-0.00523591
0.047874
-0.00652332
0.0467
-0.00764568
0.045734
-0.00873968
0.0449612
0.0439166
-0.00996474
-9.10882e-05
0.0407166
0.000586259
0.0428928
0.000945452
0.0475264
0.000383804
0.0499068
-0.000717779
0.0501076
-0.00197774
0.0491339
-0.00316936
0.0478917
-0.00423088
0.0467955
-0.00524658
0.0459769
0.0450479
-0.00637785
0.00204139
0.041886
0.00222268
0.0427115
0.00261095
0.0471381
0.00229791
0.0502199
0.00141211
0.0509934
0.000273117
0.0502729
-0.000889753
0.0490545
-0.00197929
0.047885
-0.00298748
0.0469851
0.0461128
-0.00405242
0.00388029
0.0429118
0.0036814
0.0429104
0.00386453
0.046955
0.00360683
0.0504776
0.00283942
0.0517608
0.00180059
0.0513117
0.000713345
0.0501418
-0.000308723
0.0489071
-0.00126204
0.0479384
0.0471173
-0.00226649
0.00508367
0.0437091
0.00461945
0.0433746
0.00452888
0.0470456
0.00430666
0.0506998
0.0037821
0.0522854
0.00305472
0.0520391
0.00224506
0.0509514
0.00140661
0.0497455
0.000549172
0.0487959
0.0480574
-0.000390923
0.00589198
0.0441781
0.00527851
0.0439881
0.00483662
0.0474875
0.00445274
0.0510837
0.00397664
0.0527615
0.00336961
0.0526461
0.0026421
0.051679
0.00180251
0.0505851
0.000899324
0.049699
0.0490236
-6.68806e-05
0.00605996
0.044353
0.00542
0.0446281
0.00472812
0.0481794
0.00413176
0.0516801
0.00357035
0.0533229
0.00296833
0.0532482
0.00229747
0.0523498
0.00156207
0.0513205
0.000785277
0.0504758
0.0498242
-1.54036e-05
0.0058814
0.0444857
0.00511677
0.0453927
0.00426072
0.0490354
0.00357347
0.0523673
0.00302985
0.0538665
0.00253825
0.0537398
0.00204552
0.0528426
0.00152979
0.0518363
0.000960473
0.0510451
0.0504621
0.000322651
0.00499435
0.0447148
0.00414469
0.0462424
0.00333216
0.0498479
0.00284574
0.0528537
0.00261402
0.0540982
0.00246872
0.0538851
0.00229397
0.0530173
0.00203037
0.0520999
0.00164029
0.0514352
0.0509787
0.00112365
0.00398173
0.045144
0.00299923
0.0472249
0.00218789
0.0506593
0.0018571
0.0531845
0.00185713
0.0540982
0.00190196
0.0538402
0.00179506
0.0531242
0.00147097
0.052424
0.000969937
0.0519363
0.0515733
0.000375297
0.00272021
0.0455684
0.00182612
0.048119
0.00103272
0.0514527
0.000598108
0.0536191
0.000403127
0.0542932
0.000220594
0.0540228
-9.46561e-05
0.0534394
-0.000590251
0.0529196
-0.00122165
0.0525676
0.052277
-0.00192531
0.00169649
0.0458965
0.00110625
0.0487092
0.000624997
0.0519339
0.000369764
0.0538744
0.000258666
0.0544043
0.000187682
0.0540937
8.72097e-05
0.0535399
-9.53014e-05
0.0531021
-0.000416689
0.052889
0.0527741
-0.000913818
0.000516036
0.0463279
1.76509e-05
0.0492076
-0.000208559
0.0521601
-0.000119876
0.0537857
0.000126905
0.0541575
0.000364897
0.0538557
0.000492347
0.0534125
0.00045903
0.0531354
0.00024464
0.0531034
0.053177
-0.000158213
-0.000556455
-0.000769393
-0.000778947
-0.000617715
-0.000414567
-0.000297399
-0.000339381
-0.000556516
-0.000925568
-0.00141752
-0.022278
0.0715451
-0.0220007
0.079514
-0.0204969
0.0840631
-0.0187365
0.0881194
-0.0171029
0.092736
-0.0155526
0.0977821
-0.0140108
0.10286
-0.0125376
0.108018
-0.0112005
0.11365
-0.00999477
0.119947
-0.00889239
0.126806
-0.00787051
0.134099
-0.00692276
0.141833
-0.00604703
0.150077
-0.00524816
0.158902
-0.00452529
0.168351
-0.00387503
0.178463
-0.00329318
0.18928
-0.0027747
0.200855
-0.0023146
0.213247
-0.00190752
0.226524
-0.00154758
0.240763
-0.00122867
0.25605
-0.000944407
0.272487
-0.000687902
0.29019
-0.000451384
0.309297
-0.000226048
0.32997
0.352411
-0.0249757
0.0504306
-0.028914
0.0628942
-0.0299107
0.0725418
-0.0281221
0.0777254
-0.0255188
0.0814598
-0.0232313
0.0858319
-0.021164
0.0906687
-0.019121
0.0957391
-0.0171287
0.100867
-0.0152959
0.106185
-0.0136531
0.112008
-0.0121678
0.118461
-0.0107987
0.125436
-0.00953084
0.132831
-0.00836029
0.140662
-0.00729066
0.149008
-0.00632159
0.157933
-0.00544827
0.167478
-0.00466518
0.17768
-0.00396562
0.188581
-0.00334312
0.200233
-0.00279082
0.212695
-0.0023019
0.226035
-0.00186932
0.24033
-0.00148577
0.255667
-0.00114346
0.272145
-0.000833961
0.289881
-0.000547923
0.309011
-0.000274599
0.329696
0.352136
-0.0373174
0.0545608
-0.0393678
0.0649446
-0.0371074
0.0702814
-0.0333508
0.0739687
-0.0302771
0.0783861
-0.0276156
0.0831704
-0.0249959
0.0880489
-0.0224756
0.0932188
-0.020127
0.0985188
-0.0179851
0.104043
-0.0160574
0.11008
-0.014304
0.116708
-0.0126796
0.123812
-0.011173
0.131325
-0.00979031
0.13928
-0.00853557
0.147753
-0.00740128
0.156799
-0.00638009
0.166457
-0.00546427
0.176764
-0.00464681
0.187763
-0.00391955
0.199506
-0.00327456
0.21205
-0.00270333
0.225464
-0.0021973
0.239824
-0.00174779
0.255217
-0.00134583
0.271743
-0.000981853
0.289517
-0.000645127
0.308674
-0.00032345
0.329375
0.351813
-0.0483882
0.0559981
-0.0463155
0.0628719
-0.0413703
0.0653362
-0.0377433
0.0703417
-0.0346231
0.0752659
-0.0313581
0.0799054
-0.0282896
0.0849805
-0.0254962
0.0904254
-0.0228567
0.0958793
-0.020437
0.101623
-0.0182756
0.107918
-0.0163007
0.114733
-0.0144553
0.121967
-0.0127404
0.12961
-0.0111746
0.137714
-0.00975478
0.146333
-0.00847103
0.155515
-0.00731382
0.165299
-0.00627466
0.175725
-0.00534431
0.186833
-0.00451444
0.198676
-0.00377648
0.211312
-0.0031218
0.224809
-0.0025411
0.239243
-0.00202449
0.254701
-0.00156151
0.27128
-0.0011411
0.289096
-0.000750876
0.308284
-0.000376586
0.329
0.351436
-0.052712
0.0542936
-0.0479157
0.0580756
-0.043686
0.0611064
-0.0410137
0.0676695
-0.0373502
0.0716024
-0.0338372
0.0763924
-0.0308091
0.0819524
-0.0278653
0.0874816
-0.0250273
0.0930412
-0.0224691
0.099065
-0.0201787
0.105628
-0.0180369
0.112591
-0.0160148
0.119945
-0.0141424
0.127737
-0.0124318
0.136003
-0.0108779
0.144779
-0.00947005
0.154107
-0.0081979
0.164027
-0.00705104
0.174578
-0.00602092
0.185803
-0.00509869
0.197754
-0.00427504
0.210488
-0.00354062
0.224075
-0.00288624
0.238589
-0.00230208
0.254116
-0.00177731
0.270755
-0.0012997
0.288619
-0.000855609
0.30784
-0.000429127
0.328574
0.351007
-0.0513803
0.0509699
-0.0471126
0.0538079
-0.0449538
0.0589476
-0.0420487
0.0647644
-0.0380874
0.0676412
-0.0351444
0.0734494
-0.0323025
0.0791105
-0.029308
0.0844871
-0.0264759
0.0902091
-0.0239708
0.0965599
-0.0216381
0.103295
-0.0193974
0.110351
-0.0172832
0.11783
-0.0153225
0.125777
-0.0135222
0.134203
-0.0118777
0.143135
-0.0103793
0.152609
-0.00901699
0.162665
-0.00778255
0.173343
-0.00666794
0.184688
-0.00566484
0.196751
-0.00476436
0.209588
-0.00395794
0.223269
-0.00323567
0.237867
-0.00258705
0.253468
-0.0020012
0.270169
-0.00146577
0.288083
-0.000966289
0.30734
-0.000484901
0.328092
0.350522
-0.048365
0.0480394
-0.0458736
0.0513166
-0.0442456
0.0573196
-0.0406871
0.0612058
-0.0375761
0.0645302
-0.0353889
0.0712622
-0.032604
0.0763256
-0.0297596
0.0816427
-0.0272034
0.0876529
-0.0248436
0.0942001
-0.0225156
0.100967
-0.0202814
0.108116
-0.0181762
0.115725
-0.01621
0.12381
-0.0143857
0.132379
-0.0127013
0.14145
-0.0111522
0.15106
-0.00973201
0.161245
-0.00843501
0.172046
-0.00725553
0.183509
-0.00618675
0.195682
-0.00522203
0.208623
-0.0043528
0.222399
-0.00356955
0.237083
-0.00286221
0.25276
-0.00221941
0.269526
-0.00162844
0.287492
-0.00107452
0.306786
-0.000539109
0.327557
0.349983
-0.0449052
0.0462218
-0.0435368
0.0499482
-0.0415417
0.0553245
-0.0382598
0.0579239
-0.0363541
0.0626244
-0.0344605
0.0693687
-0.0317846
0.0736497
-0.0293711
0.0792292
-0.0271685
0.0854503
-0.0249442
0.0919758
-0.0227532
0.0987763
-0.0206635
0.106027
-0.0186771
0.113739
-0.0167901
0.121924
-0.0150066
0.130595
-0.0133355
0.139779
-0.0117772
0.149501
-0.0103329
0.159801
-0.00900096
0.170714
-0.00777867
0.182286
-0.00666232
0.194565
-0.00564671
0.207608
-0.00472473
0.221477
-0.00388857
0.236247
-0.00312853
0.252
-0.00243373
0.268831
-0.00179099
0.286849
-0.00118476
0.30618
-0.000596194
0.326968
0.349387
-0.0409275
0.0451043
-0.0398307
0.0488513
-0.0377136
0.0532075
-0.0354526
0.0556629
-0.0344483
0.06162
-0.0325557
0.0674761
-0.0302116
0.0713056
-0.0282768
0.0772944
-0.0263624
0.0835358
-0.0243715
0.0899849
-0.0224291
0.096834
-0.0205752
0.104173
-0.0187792
0.111943
-0.0170307
0.120175
-0.0153456
0.12891
-0.0137344
0.138168
-0.0122097
0.147977
-0.0107778
0.158369
-0.00944239
0.169379
-0.00820451
0.181049
-0.00706305
0.193424
-0.00601452
0.206559
-0.00505454
0.220517
-0.00417627
0.235369
-0.00337169
0.251196
-0.00263044
0.26809
-0.00194026
0.286159
-0.00128591
0.305526
-0.000647887
0.32633
0.348739
-0.0363598
0.0443271
-0.0353398
0.0478313
-0.0336021
0.0514697
-0.0323346
0.0543955
-0.0316313
0.0609168
-0.0298755
0.0657202
-0.0280971
0.0695272
-0.0266365
0.0758338
-0.0250165
0.0819158
-0.0233274
0.0882958
-0.0217179
0.0952245
-0.0201338
0.102589
-0.0185429
0.110352
-0.0169646
0.118597
-0.0154132
0.127359
-0.0139052
0.13666
-0.0124548
0.146526
-0.011073
0.156987
-0.00976645
0.168072
-0.0085398
0.179822
-0.00739447
0.192279
-0.00633125
0.205496
-0.00534755
0.219534
-0.00443905
0.234461
-0.00359901
0.250356
-0.0028185
0.26731
-0.00208589
0.285427
-0.00138594
0.304826
-0.000699513
0.325644
0.348039
-0.0312183
0.0438146
-0.0304571
0.0470701
-0.0293643
0.0503769
-0.0288248
0.0538559
-0.0282631
0.0603551
-0.0267865
0.0642436
-0.0256203
0.068361
-0.0245963
0.0748098
-0.023327
0.0806465
-0.0220032
0.0869721
-0.020698
0.0939192
-0.019344
0.101235
-0.0179585
0.108966
-0.0165656
0.117204
-0.0151773
0.12597
-0.0138064
0.135289
-0.0124683
0.145188
-0.0111718
0.15569
-0.00992701
0.166828
-0.00874042
0.178635
-0.00761759
0.191156
-0.00656139
0.20444
-0.00557209
0.218544
-0.00464804
0.233536
-0.00378455
0.249492
-0.00297469
0.2665
-0.00220795
0.28466
-0.00147044
0.304088
-0.000742902
0.324916
0.347297
-0.0263955
0.0435422
-0.0259608
0.0466354
-0.025427
0.0498431
-0.025283
0.0537119
-0.0248282
0.0599003
-0.023801
0.0632164
-0.0231434
0.0677033
-0.0224391
0.0741055
-0.0214889
0.0796963
-0.0204994
0.0859826
-0.0194569
0.0928767
-0.0183149
0.100093
-0.0171366
0.107788
-0.0159395
0.116007
-0.0147285
0.124759
-0.0135161
0.134077
-0.0123111
0.143983
-0.0111246
0.154504
-0.0099664
0.165669
-0.00884372
0.177513
-0.00776442
0.190076
-0.00673342
0.203409
-0.0057545
0.217565
-0.00482776
0.23261
-0.00395119
0.248616
-0.00311939
0.265668
-0.00232382
0.283864
-0.00155178
0.303316
-0.000785385
0.32415
0.346511
-0.0219284
0.0435145
-0.0218112
0.0465183
-0.0216598
0.0496917
-0.021696
0.0537481
-0.0213697
0.0595741
-0.020803
0.0626497
-0.0204842
0.0673846
-0.0200247
0.073646
-0.0193686
0.0790402
-0.0186712
0.0852852
-0.017875
0.0920805
-0.0169778
0.0991954
-0.0160339
0.106844
-0.0150502
0.115023
-0.014034
0.123743
-0.0129939
0.133037
-0.0119396
0.142929
-0.0108824
0.153447
-0.00982944
0.164617
-0.008792
0.176475
-0.00777726
0.189062
-0.00679286
0.202424
-0.00584279
0.216615
-0.00493052
0.231697
-0.00405598
0.247741
-0.00321635
0.264828
-0.00240489
0.283053
-0.00161052
0.302522
-0.000816907
0.323356
0.345694
-0.0178095
0.0437223
-0.017967
0.0466758
-0.0180743
0.049799
-0.0182001
0.0538739
-0.0180241
0.0593981
-0.0178168
0.0624424
-0.0177148
0.0672826
-0.0174581
0.0733893
-0.0170862
0.0786682
-0.0166683
0.0848673
-0.016126
0.0915383
-0.015488
0.0985574
-0.0147885
0.106145
-0.0140263
0.114261
-0.0132115
0.122928
-0.0123519
0.132177
-0.0114581
0.142035
-0.0105373
0.152526
-0.00960201
0.163681
-0.00866105
0.175534
-0.00772459
0.188125
-0.00679949
0.201499
-0.00589179
0.215708
-0.00500575
0.230811
-0.00414276
0.246878
-0.0033023
0.263988
-0.00247965
0.28223
-0.00166592
0.301708
-0.000846511
0.322537
0.344848
-0.0138289
0.0440672
-0.0141542
0.0470011
-0.0144116
0.0500564
-0.0145948
0.054057
-0.0145759
0.0593792
-0.0146576
0.0625241
-0.0147241
0.0673491
-0.0146631
0.0733284
-0.0145538
0.0785588
-0.0144004
0.0847139
-0.0141275
0.0912654
-0.013759
0.0981889
-0.0133132
0.105699
-0.012786
0.113734
-0.0121848
0.122327
-0.0115177
0.13151
-0.0107933
0.141311
-0.0100222
0.151755
-0.00921517
0.162874
-0.00838404
0.174703
-0.0075388
0.18728
-0.00668679
0.200647
-0.00583642
0.214857
-0.00499172
0.229967
-0.00415661
0.246043
-0.00333145
0.263163
-0.00251321
0.281412
-0.0016947
0.300889
-0.000863522
0.321706
0.343984
-0.0104248
0.0445272
-0.0109022
0.0474785
-0.0113048
0.050459
-0.0115564
0.0543086
-0.0116616
0.0594845
-0.0119533
0.0628158
-0.0121646
0.0675604
-0.0122537
0.0734175
-0.0123257
0.0786308
-0.0123449
0.084733
-0.0122673
0.0911879
-0.0121143
0.0980359
-0.0118744
0.105459
-0.0115442
0.113403
-0.0111297
0.121913
-0.0106392
0.13102
-0.0100766
0.140748
-0.00945182
0.15113
-0.00877463
0.162197
-0.00805771
0.173986
-0.00730802
0.18653
-0.00653721
0.199876
-0.00575058
0.214071
-0.00495437
0.229171
-0.00415283
0.245242
-0.00334715
0.262357
-0.00253673
0.280602
-0.00171656
0.300069
-0.00087634
0.320866
0.343108
-0.00690929
0.0450586
-0.00751291
0.0480821
-0.00809288
0.051039
-0.00851099
0.0547267
-0.00880012
0.0597736
-0.00929693
0.0633126
-0.00968663
0.0679501
-0.00995262
0.0736835
-0.0101981
0.0788763
-0.0103639
0.0848989
-0.0104453
0.0912693
-0.0104567
0.0980473
-0.0103852
0.105387
-0.0102248
0.113243
-0.00998049
0.121668
-0.00965
0.130689
-0.0092423
0.14034
-0.00876064
0.150648
-0.00821652
0.161653
-0.00761559
0.173385
-0.00696861
0.185883
-0.00628442
0.199192
-0.00556958
0.213356
-0.00483273
0.228434
-0.00407683
0.244486
-0.00330517
0.261585
-0.00251732
0.279814
-0.00170967
0.299262
-0.000874986
0.320031
0.342233
-0.00459849
0.0456047
-0.00521979
0.0487034
-0.00585581
0.051675
-0.00637377
0.0552447
-0.00675816
0.060158
-0.00731681
0.0638713
-0.00777885
0.0684121
-0.00812364
0.0740283
-0.00846006
0.0792127
-0.00871039
0.0851492
-0.00888472
0.0914436
-0.00899992
0.0981625
-0.00904019
0.105428
-0.009002
0.113205
-0.00888183
0.121548
-0.00868388
0.130491
-0.00840773
0.140064
-0.00805825
0.150299
-0.00763902
0.161234
-0.00715133
0.172898
-0.00660685
0.185339
-0.00600932
0.198595
-0.00536981
0.212716
-0.00469333
0.227757
-0.0039852
0.243777
-0.00324933
0.26085
-0.00248623
0.279051
-0.00169495
0.29847
-0.000869677
0.319206
0.341363
-0.00280568
0.0461439
-0.00343338
0.0493311
-0.00408905
0.0523307
-0.00462847
0.0557841
-0.0050396
0.0605692
-0.00560367
0.0644353
-0.00608727
0.0688957
-0.00647572
0.0744167
-0.00686331
0.0796003
-0.00717699
0.0854629
-0.00742832
0.091695
-0.0076186
0.0983528
-0.00774598
0.105555
-0.0078021
0.113261
-0.00778556
0.121532
-0.00769857
0.130404
-0.00753588
0.139901
-0.00730313
0.150066
-0.00699305
0.160924
-0.00661408
0.172519
-0.00616674
0.184892
-0.00565844
0.198086
-0.00509713
0.212155
-0.00448725
0.227147
-0.00383621
0.243126
-0.00314645
0.26016
-0.00242032
0.278325
-0.00165671
0.297707
-0.000852104
0.318401
0.340511
-0.000950507
0.0467035
-0.00158701
0.0499676
-0.00228515
0.0530288
-0.0029081
0.056407
-0.00340531
0.0610664
-0.0039871
0.0650171
-0.00451167
0.0694203
-0.00493716
0.0748422
-0.00536682
0.08003
-0.00573715
0.0858332
-0.00605876
0.0920166
-0.00632484
0.0986189
-0.00653419
0.105764
-0.00667982
0.113407
-0.0067636
0.121615
-0.0067777
0.130418
-0.00672078
0.139844
-0.00658661
0.149932
-0.00637611
0.160713
-0.00609358
0.172236
-0.00573662
0.184535
-0.0053141
0.197664
-0.00482716
0.211668
-0.00428338
0.226604
-0.00368727
0.24253
-0.00304264
0.259515
-0.00235231
0.277634
-0.00161665
0.296971
-0.000834075
0.317618
0.339677
-0.000609565
0.0472462
-0.00116925
0.0505273
-0.00172882
0.0535884
-0.00226446
0.0569427
-0.00268043
0.0614823
-0.00315903
0.0654957
-0.00359615
0.0698574
-0.00396516
0.0752112
-0.00434858
0.0804134
-0.00469163
0.0861763
-0.005005
0.09233
-0.00528154
0.0988954
-0.0055182
0.106001
-0.00570276
0.113591
-0.00584268
0.121755
-0.00591731
0.130493
-0.00592913
0.139856
-0.00586805
0.149871
-0.0057383
0.160583
-0.00553328
0.172031
-0.00525813
0.184259
-0.00491278
0.197318
-0.00449886
0.211254
-0.00402182
0.226126
-0.00348428
0.241993
-0.00289125
0.258922
-0.00224546
0.276988
-0.0015486
0.296274
-0.000800546
0.31687
0.338876
-0.00038254
0.0476133
-0.000719102
0.0508639
-0.00104572
0.053915
-0.00134353
0.0572405
-0.00160226
0.0617411
-0.00199006
0.0658835
-0.00239701
0.0702643
-0.00278247
0.0755967
-0.00319746
0.0808284
-0.00358586
0.0865647
-0.00394042
0.0926845
-0.00427771
0.0992327
-0.00456834
0.106292
-0.00482222
0.113845
-0.00501904
0.121952
-0.00516198
0.130636
-0.0052386
0.139933
-0.00524642
0.149879
-0.00518426
0.160521
-0.00504803
0.171895
-0.00484185
0.184053
-0.00456157
0.197038
-0.00421164
0.210904
-0.00379258
0.225707
-0.0033078
0.241508
-0.00276074
0.258375
-0.0021543
0.276382
-0.00149095
0.295611
-0.000772701
0.316152
0.338104
9.96086e-05
0.0478364
-9.69863e-05
0.0510605
-0.000312358
0.0541304
-0.000498826
0.057427
-0.000715624
0.0619579
-0.00107063
0.0662385
-0.00149486
0.0706886
-0.00192912
0.0760309
-0.00237364
0.0812729
-0.00278478
0.0869758
-0.00316535
0.0930651
-0.00351174
0.0995791
-0.00382451
0.106604
-0.00409217
0.114113
-0.00431031
0.12217
-0.00448033
0.130806
-0.00458975
0.140042
-0.00464159
0.14993
-0.00462461
0.160504
-0.00454227
0.171812
-0.00438983
0.183901
-0.0041673
0.196816
-0.0038754
0.210612
-0.0035127
0.225345
-0.0030823
0.241078
-0.00258584
0.257879
-0.00202622
0.275822
-0.00140724
0.294992
-0.000730932
0.315476
0.337373
0.000979929
0.0479801
0.000826429
0.051214
0.000619797
0.054337
0.000321186
0.0577256
-1.24556e-05
0.0622915
-0.000386215
0.0666123
-0.000874854
0.0711772
-0.00135303
0.0765091
-0.0018095
0.0817294
-0.00223827
0.0874046
-0.00262905
0.0934559
-0.00298369
0.0999337
-0.0033017
0.106922
-0.0035773
0.114388
-0.00381225
0.122405
-0.00399379
0.130987
-0.00412428
0.140173
-0.00419848
0.150005
-0.00421399
0.16052
-0.00416875
0.171767
-0.00405517
0.183787
-0.00387526
0.196636
-0.00362527
0.210362
-0.00330644
0.225026
-0.00291878
0.24069
-0.00246245
0.257422
-0.00193975
0.2753
-0.00135224
0.294404
-0.000703972
0.314828
0.336669
0.000216118
0.0481393
9.75065e-05
0.0513326
-0.000108115
0.0545426
-0.000483289
0.0581007
-0.000809809
0.062618
-0.00108797
0.0668904
-0.00141829
0.0715075
-0.00171202
0.0768028
-0.00198725
0.0820046
-0.0022561
0.0876734
-0.00252267
0.0937224
-0.00277325
0.100184
-0.00301429
0.107163
-0.00322828
0.114602
-0.00342425
0.122601
-0.00358196
0.131145
-0.00370423
0.140295
-0.00378278
0.150083
-0.00381438
0.160551
-0.00379031
0.171743
-0.00370695
0.183704
-0.00356108
0.19649
-0.00334832
0.21015
-0.00306933
0.224747
-0.00272126
0.240342
-0.00230495
0.257006
-0.00182172
0.274816
-0.00127334
0.293856
-0.000664232
0.314219
0.336005
-0.00210369
0.0483176
-0.00222407
0.051453
-0.00231371
0.0546323
-0.00247119
0.0582582
-0.00255684
0.0627037
-0.00260639
0.06694
-0.00266541
0.0715666
-0.00267907
0.0768165
-0.00270027
0.0820258
-0.00275129
0.0877245
-0.00281919
0.0937903
-0.00292845
0.100294
-0.00303956
0.107275
-0.00316813
0.114731
-0.00328649
0.12272
-0.00339925
0.131258
-0.00348899
0.140385
-0.00354989
0.150144
-0.00357546
0.160577
-0.00355581
0.171724
-0.00348575
0.183634
-0.00335768
0.196362
-0.00316799
0.20996
-0.00291353
0.224492
-0.00259117
0.24002
-0.00220162
0.256616
-0.00174419
0.274359
-0.00122199
0.293334
-0.000637979
0.313634
0.335367
-0.00101798
0.0484218
-0.00115302
0.051588
-0.00130962
0.0547889
-0.00147421
0.0584228
-0.00164249
0.062872
-0.00185163
0.0671491
-0.00203969
0.0717546
-0.00217119
0.076948
-0.00229773
0.0821523
-0.0024075
0.0878342
-0.00253172
0.0939145
-0.00265867
0.100421
-0.00279733
0.107413
-0.00292679
0.11486
-0.00305364
0.122846
-0.00316188
0.131366
-0.00324921
0.140472
-0.00331373
0.150209
-0.00334081
0.160604
-0.00332684
0.17171
-0.00326552
0.183573
-0.00315081
0.196247
-0.00297913
0.209788
-0.00274531
0.224259
-0.00244764
0.239722
-0.00208439
0.256253
-0.00165503
0.27393
-0.0011615
0.29284
-0.000607731
0.313081
0.334759
-0.000175578
0.0484392
-0.000265676
0.0516781
-0.000472296
0.0549955
-0.000790233
0.0587407
-0.00110661
0.0631884
-0.00141525
0.0674578
-0.00171565
0.072055
-0.001938
0.0771704
-0.00213496
0.0823493
-0.00230847
0.0880078
-0.00247361
0.0940797
-0.00262828
0.100575
-0.00277681
0.107562
-0.00290829
0.114992
-0.00303212
0.12297
-0.003129
0.131463
-0.00321111
0.140554
-0.00326343
0.150261
-0.0032836
0.160624
-0.0032663
0.171692
-0.00320602
0.183512
-0.00309599
0.196137
-0.00293141
0.209624
-0.00270558
0.224033
-0.0024167
0.239433
-0.00206107
0.255898
-0.00163905
0.273508
-0.00115153
0.292353
-0.000603237
0.312532
0.334156
-0.0014352
-0.001466
-0.00157403
-0.00175481
-0.00191319
-0.00204704
-0.00220828
-0.00231954
-0.0024352
-0.00255929
-0.00266715
-0.00279996
-0.00289617
-0.00301766
-0.00309619
-0.00318191
-0.00323719
-0.00326587
-0.00326659
-0.0032336
-0.00316062
-0.00304183
-0.00287143
-0.00264467
-0.00235783
-0.00200844
-0.00159576
-0.00112044
-0.000586246
)
;

boundaryField
{
    outlet
    {
        type            calculated;
        value           nonuniform List<scalar> 
40
(
0.0466161
0.0494205
0.0521697
0.0536245
0.0539544
0.0537386
0.0534545
0.0533525
0.0534725
0.0536689
0.0484568
0.0517089
0.0551035
0.0589215
0.0633467
0.0675916
0.0722163
0.0772816
0.082465
0.0881318
0.0941875
0.100708
0.107658
0.115113
0.123049
0.131549
0.14061
0.15029
0.160625
0.171659
0.183439
0.196018
0.209453
0.223806
0.239146
0.255548
0.273095
0.291877
0.311998
0.333569
)
;
    }
    upperWall
    {
        type            symmetryPlane;
        value           nonuniform 0();
    }
    lowerWall
    {
        type            symmetryPlane;
        value           uniform 0;
    }
    inlet
    {
        type            calculated;
        value           nonuniform 0();
    }
    cylinder
    {
        type            calculated;
        value           nonuniform 0();
    }
    frontAndBack
    {
        type            empty;
        value           nonuniform 0();
    }
    procBoundary3to2
    {
        type            processor;
        value           nonuniform List<scalar> 
43
(
0.044346
0.0446059
0.0352523
0.0222274
0.00925326
-0.000726189
0.00997138
-0.0136355
-0.0198466
-0.0245653
-0.0294495
-0.0116761
-0.0695657
-0.0797913
-0.085567
-0.0898798
-0.0943696
-0.0993324
-0.104401
-0.109491
-0.114987
-0.121152
-0.127908
-0.135121
-0.142781
-0.150953
-0.159701
-0.169074
-0.179113
-0.189862
-0.201374
-0.213707
-0.226931
-0.241123
-0.256369
-0.272771
-0.290447
-0.309533
-0.330195
-0.352637
-0.04584
0.0202986
-0.0589559
)
;
    }
    procBoundary3to7
    {
        type            processor;
        value           nonuniform List<scalar> 
30
(
-0.0455575
-0.0471622
-0.0430868
-0.0333984
-0.014323
0.0024395
0.0147511
0.0226693
0.0246351
0.0234927
0.0204825
0.0171334
0.0141304
0.0114124
0.00856473
0.00542292
0.00213642
-0.000868669
-0.00321082
-0.00490608
-0.00588093
-0.00636095
-0.00623489
-0.00601408
-0.00522346
-0.00441096
-0.00314457
-0.00202468
-0.000947343
0.000268244
)
;
    }
}


// ************************************************************************* //
