/*--------------------------------*- C++ -*----------------------------------*\
| =========                 |                                                 |
| \\      /  F ield         | OpenFOAM: The Open Source CFD Toolbox           |
|  \\    /   O peration     | Version:                                        |
|   \\  /    A nd           | Website:  www.openfoam.com                      |
|    \\/     M anipulation  |                                                 |
\*---------------------------------------------------------------------------*/
FoamFile
{
    version     2.0;
    format      ascii;
    class       volVectorField;
    location    "167";
    object      U;
}
// * * * * * * * * * * * * * * * * * * * * * * * * * * * * * * * * * * * * * //

dimensions      [0 1 -1 0 0 0 0];


internalField   nonuniform List<vector> 
1139
(
(1.29363 0.274096 1.58031e-19)
(1.26717 0.290146 -2.78032e-19)
(1.17031 0.275202 3.69035e-20)
(1.1468 0.22058 1.62523e-19)
(1.07386 0.25831 -1.33903e-20)
(1.08903 0.20657 -2.73887e-20)
(1.01894 0.236819 -2.49892e-20)
(1.06204 0.16256 -4.26811e-20)
(1.1091 0.11266 -7.84158e-20)
(0.987571 0.175314 -2.7117e-20)
(1.02242 0.139907 1.05339e-19)
(1.10627 0.0847448 1.26148e-19)
(0.920026 0.1372 1.56435e-20)
(1.02861 0.0989606 -7.15701e-21)
(1.0832 0.0732483 -1.17474e-19)
(0.926306 0.0692671 1.56385e-20)
(1.04083 0.0812393 -2.28883e-20)
(1.04063 0.0391342 4.24541e-20)
(1.06879 0.0320485 9.81298e-20)
(0.932592 0.0764355 9.16382e-21)
(1.01162 0.0400401 -4.96292e-20)
(1.02992 0.0304454 -1.02092e-20)
(1.06151 0.0191028 -3.86628e-20)
(0.909328 -0.0114505 6.69581e-22)
(1.02544 0.00678189 2.48079e-20)
(1.02766 0.00791463 2.6353e-21)
(1.03273 0.00100793 -2.22279e-20)
(-0.134619 1.07158 -3.36768e-20)
(-0.155102 1.1008 3.87998e-20)
(-0.305359 1.07225 3.07743e-20)
(-0.450931 1.02762 -2.07486e-19)
(-0.538717 0.933257 -6.32229e-20)
(-0.508847 0.787638 -6.77594e-20)
(-0.129308 1.08224 -1.11144e-21)
(-0.311593 1.10353 -7.65888e-21)
(-0.484247 1.10171 7.20096e-20)
(-0.585079 1.05534 1.96476e-19)
(-0.56041 0.949343 4.70395e-19)
(-0.374216 0.767281 4.83596e-19)
(-0.0920373 1.02076 -1.91186e-20)
(-0.28716 1.08439 1.44368e-19)
(-0.49223 1.13387 1.2669e-19)
(-0.617213 1.13627 -1.45734e-19)
(-0.592257 1.07175 -6.16648e-19)
(-0.38808 0.923758 1.71184e-20)
(-0.0551405 0.654523 -4.02076e-19)
(-0.0326587 0.923722 2.89646e-20)
(-0.244947 1.02418 -1.05752e-19)
(-0.470692 1.11039 -5.80047e-20)
(-0.61916 1.16306 -5.85453e-20)
(-0.606178 1.14931 7.11722e-19)
(-0.382035 1.0389 -1.87161e-19)
(-0.00900493 0.786487 -1.12374e-19)
(0.354588 0.487886 -1.03305e-19)
(0.0337714 0.785638 1.97835e-20)
(-0.184711 0.916152 -4.94297e-20)
(-0.43473 1.03537 -1.11454e-19)
(-0.614304 1.13735 3.11792e-20)
(-0.613051 1.17556 -2.903e-20)
(-0.38127 1.11241 -8.7783e-20)
(0.0277862 0.897499 -7.76256e-19)
(0.439738 0.601507 -4.11214e-19)
(0.694202 0.410318 -9.92702e-20)
(0.113581 0.612175 -5.37416e-20)
(-0.106897 0.77214 1.67559e-21)
(-0.379182 0.915835 1.64182e-19)
(-0.584339 1.05577 1.01792e-19)
(-0.593516 1.14357 -4.00727e-19)
(-0.362495 1.12757 2.81764e-19)
(0.0657706 0.969524 1.76993e-19)
(0.516965 0.70829 6.90492e-19)
(0.813002 0.480442 3.37409e-19)
(1.04015 0.351919 1.09384e-19)
(0.202254 0.409225 4.17421e-20)
(-0.0274022 0.588435 9.84715e-20)
(-0.323939 0.748114 -3.25972e-20)
(-0.547228 0.917106 -1.89794e-19)
(-0.566514 1.06085 1.88033e-19)
(-0.335959 1.09075 -8.79919e-21)
(0.115421 0.981799 -8.90381e-20)
(0.601107 0.78023 2.88285e-19)
(0.92021 0.533885 -4.58449e-19)
(1.15184 0.388513 1.12959e-19)
(0.286066 0.211461 -4.84655e-20)
(0.0456518 0.370784 -5.30257e-20)
(-0.2553 0.541179 -2.6964e-19)
(-0.484829 0.736888 -1.91861e-20)
(-0.518484 0.940182 -3.33861e-20)
(-0.305498 1.0192 1.87406e-19)
(0.140055 0.939715 -1.04537e-19)
(0.65314 0.788021 1.28234e-19)
(0.970531 0.548358 9.6849e-21)
(1.17645 0.402965 -3.49858e-19)
(0.361454 -0.0116709 -4.51393e-20)
(0.109692 0.115831 1.89456e-19)
(-0.181058 0.272421 3.07591e-19)
(-0.404623 0.525634 2.3731e-19)
(-0.445987 0.78327 6.11332e-20)
(-0.243602 0.934321 -2.59978e-19)
(0.160619 0.871538 2.02259e-19)
(0.662718 0.737612 -4.39624e-21)
(0.979429 0.548761 -8.77419e-20)
(1.15915 0.398476 1.84387e-19)
(0.440734 -0.286597 3.82646e-20)
(0.170391 -0.176694 -3.93325e-20)
(-0.132719 0.012802 -1.62436e-20)
(-0.305465 0.277929 6.14268e-20)
(-0.344312 0.586052 -9.22199e-20)
(-0.140769 0.842104 8.73128e-20)
(0.218927 0.818883 -3.90413e-20)
(0.668246 0.646749 3.10431e-20)
(0.98189 0.512236 -2.57861e-20)
(1.06695 0.341366 -4.87727e-20)
(0.508718 -0.626687 4.37991e-20)
(0.224341 -0.519471 -2.04158e-20)
(-0.0479905 -0.332385 -1.2761e-19)
(-0.231608 -0.0427846 -1.20059e-22)
(-0.235672 0.341513 -5.8077e-20)
(-0.0230855 0.705473 4.47185e-20)
(0.272856 0.73711 1.49097e-20)
(0.613349 0.502173 -4.01092e-20)
(0.928869 0.455055 -3.89221e-22)
(0.962364 0.266469 5.3091e-20)
(0.582729 -0.933448 -3.1904e-20)
(0.295945 -0.798795 8.70919e-20)
(0.0386221 -0.58372 -3.32904e-20)
(-0.0821513 -0.283515 -6.81658e-20)
(-0.067801 0.0465439 -5.73978e-20)
(0.0512268 0.433368 1.15989e-20)
(0.217759 0.499423 2.49405e-20)
(0.564761 0.407681 -3.7504e-20)
(0.841114 0.298253 -8.60062e-21)
(0.925594 0.215455 -1.1856e-20)
(0.627139 -1.15583 -1.87606e-20)
(0.371789 -1.03446 2.43336e-19)
(0.123855 -0.812678 -1.58084e-20)
(-0.0150572 -0.527836 -7.6961e-20)
(-0.0341057 -0.276182 3.71623e-20)
(0.0196861 -0.0281572 -2.03299e-20)
(0.00488317 0.0734872 -8.07865e-20)
(0.374274 0.203698 1.18913e-19)
(0.874482 0.197232 2.74323e-20)
(0.901329 0.167197 -3.49609e-21)
(0.661714 -1.22472 -4.93347e-20)
(0.462018 -1.1502 -2.60698e-20)
(0.258566 -0.970004 -2.127e-19)
(0.135983 -0.657527 -6.48434e-21)
(0.125567 -0.32966 2.18782e-20)
(0.13591 -0.00897668 2.79342e-20)
(0.377194 0.187582 8.63886e-20)
(0.68972 0.140201 -4.88301e-20)
(0.857163 0.124861 -4.87084e-20)
(0.843552 0.0831908 -1.01845e-21)
(0.655657 -1.22828 2.02424e-21)
(0.494813 -1.15393 -2.96539e-20)
(0.336539 -1.02993 1.60524e-19)
(0.247333 -0.780126 6.40727e-20)
(0.201789 -0.492382 -5.63959e-21)
(0.223643 -0.203982 2.5451e-20)
(0.25685 -0.012113 -3.55869e-20)
(0.523187 0.00972249 -1.81092e-20)
(0.856938 0.0103309 8.64489e-20)
(0.885353 0.0434808 -2.92953e-21)
(0.694375 -1.19046 1.31975e-20)
(0.561832 -1.13533 -6.96322e-21)
(0.441327 -1.02886 1.03272e-20)
(0.385019 -0.841849 -5.0108e-20)
(0.342263 -0.624589 -1.07888e-20)
(0.359327 -0.298965 -3.47852e-20)
(0.442288 -0.0457363 8.01298e-21)
(0.684841 -0.021737 3.26448e-20)
(0.88227 -0.0376516 -9.81334e-20)
(0.865516 0.00738322 3.69878e-21)
(0.698238 -1.13682 -1.46033e-20)
(0.610906 -1.11666 9.0247e-21)
(0.516543 -1.02156 -9.58743e-21)
(0.440463 -0.858664 4.46185e-20)
(0.402972 -0.732853 1.7882e-20)
(0.428896 -0.508092 4.293e-20)
(0.430166 -0.253541 -5.9948e-21)
(0.650226 -0.116605 -8.24283e-20)
(0.909774 -0.119391 7.79647e-21)
(0.898146 -0.0561565 2.67087e-21)
(0.70136 -1.06853 3.298e-21)
(0.667321 -1.06503 1.9599e-20)
(0.625632 -0.985932 -8.66719e-21)
(0.550813 -0.830404 -2.12215e-20)
(0.522983 -0.701268 1.53691e-20)
(0.579505 -0.566337 -1.20552e-20)
(0.522301 -0.408615 -2.54929e-20)
(0.585766 -0.264552 3.93901e-20)
(0.871765 -0.218433 3.53929e-20)
(0.917598 -0.12097 5.09348e-21)
(0.717743 -1.06895 6.75041e-21)
(0.720747 -1.08776 2.60953e-21)
(0.735448 -1.02397 -1.31369e-20)
(0.688602 -0.876905 -4.6849e-20)
(0.654707 -0.691375 -8.2547e-20)
(0.688382 -0.560092 -1.79785e-20)
(0.588427 -0.470449 -8.64648e-21)
(0.547642 -0.372891 3.00924e-20)
(0.801965 -0.317999 -9.88428e-22)
(0.926273 -0.202373 3.58665e-20)
(0.70478 -1.13921 -1.52525e-20)
(0.746718 -1.1919 -2.31702e-20)
(0.805541 -1.1527 -6.62029e-20)
(0.797971 -1.02914 3.06459e-20)
(0.764245 -0.812988 7.48706e-20)
(0.763124 -0.631769 -8.32204e-21)
(0.653074 -0.520741 1.65604e-20)
(0.586138 -0.406909 -3.2941e-20)
(0.803366 -0.352339 1.09931e-20)
(0.973874 -0.254987 -3.44554e-20)
(0.6427 -1.20938 1.25842e-20)
(0.742852 -1.2724 -2.62608e-20)
(0.855443 -1.25445 7.18953e-20)
(0.896443 -1.17524 -5.60124e-20)
(0.878104 -0.980818 1.71562e-20)
(0.852241 -0.770962 4.89642e-20)
(0.742364 -0.604136 -9.71177e-21)
(0.663618 -0.437685 8.40897e-21)
(0.84542 -0.36761 4.75835e-21)
(1.01566 -0.293517 -3.65624e-20)
(0.617645 -1.07171 -5.40641e-21)
(0.768043 -1.13963 7.23189e-21)
(0.914086 -1.15946 2.2308e-20)
(1.00555 -1.13232 7.44627e-20)
(1.03294 -1.01651 -4.33961e-20)
(1.00813 -0.858219 -4.85768e-20)
(0.895296 -0.70518 -3.05283e-20)
(0.758648 -0.533022 -1.31176e-20)
(0.846308 -0.436725 -1.65062e-20)
(1.00758 -0.34821 4.01586e-20)
(0.605351 -0.703276 -7.01834e-21)
(0.814221 -0.746256 9.64019e-21)
(0.989147 -0.812464 -8.5637e-20)
(1.10382 -0.859709 -9.60792e-20)
(1.15368 -0.85448 -1.00746e-20)
(1.12777 -0.805661 3.00454e-20)
(1.00896 -0.74873 4.45703e-21)
(0.845315 -0.637205 -1.6926e-20)
(0.892144 -0.529107 1.96949e-22)
(1.05245 -0.401836 -2.6378e-20)
(0.613095 -0.1579 1.07712e-20)
(0.84348 -0.176638 -6.21628e-20)
(1.03461 -0.28032 -2.55716e-21)
(1.17627 -0.387902 -1.77175e-20)
(1.25308 -0.476203 2.86511e-20)
(1.22094 -0.544253 -1.45898e-19)
(1.11772 -0.575388 -6.64649e-21)
(1.02613 -0.517916 5.08031e-20)
(1.12165 -0.431743 2.68147e-20)
(1.22509 -0.343766 1.08032e-20)
(0.632993 0.406807 -7.53705e-21)
(0.851626 0.41188 6.55786e-20)
(1.05611 0.318368 -2.87473e-20)
(1.21941 0.207363 1.18838e-19)
(1.31639 0.0549267 1.43369e-19)
(1.33948 -0.0672387 2.04057e-19)
(1.33104 -0.153284 -6.15673e-21)
(1.32145 -0.161751 -1.28329e-20)
(1.41338 -0.14418 -6.58958e-20)
(1.39971 -0.181878 -2.88581e-21)
(0.643795 0.796572 1.89975e-20)
(0.838939 0.835898 3.73075e-20)
(1.04528 0.792524 2.62945e-20)
(1.2264 0.709138 -3.19123e-20)
(1.354 0.557461 -8.28278e-20)
(1.43999 0.42795 -6.73781e-20)
(1.47906 0.291204 8.61372e-21)
(1.50696 0.206194 3.7434e-20)
(1.55649 0.137336 4.02616e-20)
(1.47391 -0.0138438 1.34057e-20)
(0.677243 0.984327 -4.01733e-21)
(0.838978 1.0255 -1.57957e-20)
(1.00027 1.00841 8.13892e-20)
(1.15318 0.938267 4.60141e-20)
(1.28926 0.836009 -6.22917e-20)
(1.40038 0.720187 7.75705e-20)
(1.46367 0.572938 -2.66576e-21)
(1.51822 0.450309 1.28553e-20)
(1.52771 0.325471 -6.05441e-22)
(1.46048 0.146164 -7.44664e-21)
(0.69743 0.979426 -2.10795e-21)
(0.807793 1.01978 -3.92094e-20)
(0.929231 1.01963 -1.12848e-20)
(1.06266 0.968457 -3.02228e-20)
(1.19656 0.891669 6.64673e-21)
(1.28645 0.785566 -1.33953e-19)
(1.34541 0.665258 9.39648e-20)
(1.3986 0.548585 -2.03861e-20)
(1.4106 0.425697 6.93101e-21)
(1.40148 0.281233 -2.4879e-20)
(0.750545 0.943724 -5.19276e-21)
(0.817464 0.961931 1.94469e-21)
(0.895221 0.957125 9.90075e-21)
(0.971904 0.920823 2.35352e-20)
(1.05585 0.859826 -4.31763e-20)
(1.1358 0.77032 5.6235e-20)
(1.21648 0.680712 -3.83536e-20)
(1.26035 0.572336 -4.00611e-20)
(1.30176 0.470389 2.81425e-20)
(1.32245 0.355123 1.67066e-21)
(0.74215 0.883345 -2.63591e-21)
(0.766694 0.869709 3.41866e-20)
(0.817139 0.848355 -2.26658e-20)
(0.887278 0.828698 -4.26709e-20)
(0.954854 0.785585 -6.02768e-21)
(1.0257 0.715376 2.89272e-20)
(1.08312 0.65956 -3.02779e-20)
(1.10951 0.573136 -1.61844e-20)
(1.18082 0.510162 -5.30558e-20)
(1.20947 0.413208 1.69093e-20)
(0.726505 0.90075 2.31408e-21)
(0.732986 0.8726 -2.22884e-20)
(0.768187 0.810969 9.94086e-21)
(0.821543 0.771632 -5.97278e-21)
(0.841969 0.71539 3.60416e-20)
(0.906742 0.658375 -7.77458e-21)
(0.974475 0.608712 3.21221e-20)
(1.01668 0.547189 1.80239e-20)
(1.09182 0.500484 2.48535e-20)
(1.1223 0.426381 1.20674e-20)
(0.659213 0.888584 3.02943e-22)
(0.637886 0.844209 9.33457e-21)
(0.634809 0.768524 -1.3572e-20)
(0.691411 0.736789 2.43146e-20)
(0.743441 0.673665 -4.28149e-21)
(0.828479 0.630718 -2.20762e-20)
(0.87358 0.564609 -1.33437e-20)
(0.901079 0.516149 -8.50822e-21)
(0.963241 0.474662 -6.59107e-21)
(1.01251 0.410698 -9.42127e-21)
(0.537721 0.86365 4.79817e-22)
(0.533394 0.800422 1.98624e-21)
(0.552951 0.720818 -1.75683e-20)
(0.603936 0.676448 -4.57176e-21)
(0.630906 0.603457 1.37649e-20)
(0.684511 0.573236 -2.04816e-21)
(0.741452 0.513674 -9.81595e-21)
(0.818651 0.477807 8.78977e-21)
(0.883696 0.444508 -1.51896e-21)
(0.921598 0.403316 -1.46101e-21)
(0.447769 0.744965 3.51968e-21)
(0.410048 0.692908 -1.90756e-20)
(0.405849 0.623219 1.62861e-20)
(0.440218 0.592578 4.68723e-21)
(0.507424 0.536757 4.08514e-21)
(0.612938 0.512292 -3.97967e-21)
(0.668509 0.464017 -1.0233e-20)
(0.726696 0.444667 5.52911e-22)
(0.787578 0.421737 3.21281e-21)
(0.839757 0.398411 1.64564e-21)
(0.383779 0.377621 -6.95064e-21)
(0.299451 0.351777 3.44163e-20)
(0.292128 0.314832 2.0853e-20)
(0.34464 0.301462 -2.31651e-20)
(0.391465 0.282635 -1.77818e-20)
(0.448365 0.300416 -1.51992e-22)
(0.516879 0.287509 4.26873e-21)
(0.625013 0.29436 1.52542e-23)
(0.714838 0.298903 -1.15748e-21)
(0.760578 0.301359 -1.94427e-21)
(0.337942 -0.0154005 3.67474e-21)
(0.262391 0.0286174 -1.40266e-20)
(0.243469 0.0666083 -1.19598e-20)
(0.263551 0.111359 3.15431e-21)
(0.347126 0.123599 1.84285e-20)
(0.447381 0.134067 2.89241e-20)
(0.496891 0.133425 1.5659e-20)
(0.551963 0.155003 7.64879e-22)
(0.605469 0.160327 4.3786e-22)
(0.654554 0.179739 4.10309e-21)
(0.419757 -0.0652317 -6.61663e-21)
(0.513547 -0.0262234 4.67742e-23)
(0.587023 -0.0178345 4.58275e-22)
(0.652083 0.014323 -5.72573e-22)
(0.923574 -0.0431396 0)
(0.989116 -0.0554125 0)
(1.02755 -0.060627 0)
(1.04521 -0.0662061 0)
(1.05771 -0.0677453 0)
(1.0678 -0.0679544 0)
(1.06903 -0.0653403 0)
(1.06826 -0.058077 0)
(1.06899 -0.0513239 0)
(1.06687 -0.0453397 0)
(1.06392 -0.0394843 0)
(1.06131 -0.0344025 0)
(1.05421 -0.0296223 0)
(1.04858 -0.0257228 0)
(1.04505 -0.0234499 0)
(1.04064 -0.0208585 0)
(1.03709 -0.0183606 0)
(1.0342 -0.0160185 0)
(1.03138 -0.0137948 0)
(1.02873 -0.0118013 0)
(1.02625 -0.0101329 0)
(1.02406 -0.00876444 0)
(1.022 -0.00751694 0)
(1.02034 -0.00641836 0)
(1.01895 -0.00537644 0)
(1.01769 -0.00431126 0)
(1.01673 -0.00343801 0)
(1.01596 -0.00231119 0)
(1.01539 -0.0013635 0)
(1.01505 -0.000598089 0)
(0.926849 -0.088587 0)
(0.987778 -0.0812817 0)
(1.02417 -0.0715832 0)
(1.04299 -0.0622844 0)
(1.05548 -0.0551 0)
(1.06619 -0.0496752 0)
(1.0755 -0.0446726 0)
(1.08039 -0.0387933 0)
(1.08253 -0.0347461 0)
(1.08025 -0.0314134 0)
(1.07687 -0.0294214 0)
(1.06908 -0.0271305 0)
(1.05962 -0.0248608 0)
(1.05185 -0.0235513 0)
(1.04517 -0.0218762 0)
(1.0401 -0.0196929 0)
(1.03663 -0.0173644 0)
(1.03407 -0.0152328 0)
(1.03148 -0.0131695 0)
(1.02913 -0.0113948 0)
(1.02679 -0.00985309 0)
(1.02464 -0.00850963 0)
(1.02262 -0.00730613 0)
(1.021 -0.00624554 0)
(1.01953 -0.0052397 0)
(1.01824 -0.00422187 0)
(1.01723 -0.00338669 0)
(1.01641 -0.00229009 0)
(1.01583 -0.00135381 0)
(1.01547 -0.000591813 0)
(0.947645 -0.152125 0)
(0.990982 -0.134846 0)
(1.0328 -0.121482 0)
(1.05729 -0.106657 0)
(1.07094 -0.0910215 0)
(1.08013 -0.0794711 0)
(1.08119 -0.067704 0)
(1.08055 -0.0568483 0)
(1.07708 -0.0467167 0)
(1.07499 -0.0407531 0)
(1.07106 -0.0351885 0)
(1.0653 -0.0302333 0)
(1.05855 -0.0263056 0)
(1.05309 -0.0237307 0)
(1.04822 -0.0213803 0)
(1.0437 -0.0189815 0)
(1.04019 -0.0168017 0)
(1.03657 -0.0145807 0)
(1.03328 -0.0125234 0)
(1.03022 -0.0108208 0)
(1.02741 -0.00937261 0)
(1.02487 -0.00817664 0)
(1.02266 -0.00708444 0)
(1.0209 -0.00612425 0)
(1.01933 -0.00515026 0)
(1.01805 -0.00416087 0)
(1.01703 -0.00335326 0)
(1.0162 -0.00227557 0)
(1.01565 -0.00134754 0)
(1.01529 -0.000586713 0)
(1.0006 -0.184668 0)
(1.02665 -0.149172 0)
(1.05539 -0.124231 0)
(1.07115 -0.0996415 0)
(1.08036 -0.0774416 0)
(1.08731 -0.0608808 0)
(1.09564 -0.0495516 0)
(1.09678 -0.0372575 0)
(1.09605 -0.0303104 0)
(1.09209 -0.025296 0)
(1.08529 -0.0225947 0)
(1.07486 -0.0202196 0)
(1.06528 -0.0196353 0)
(1.05587 -0.0186825 0)
(1.04785 -0.0173034 0)
(1.04279 -0.0157456 0)
(1.03902 -0.0141244 0)
(1.03587 -0.0125021 0)
(1.03305 -0.0110751 0)
(1.03037 -0.0098225 0)
(1.02779 -0.00867869 0)
(1.02538 -0.00763257 0)
(1.02333 -0.00669395 0)
(1.02155 -0.00582211 0)
(1.01996 -0.00493706 0)
(1.01868 -0.00403465 0)
(1.01759 -0.00327298 0)
(1.01672 -0.00224151 0)
(1.01615 -0.00133385 0)
(1.01578 -0.000577123 0)
(1.04838 -0.230196 0)
(1.06741 -0.192168 0)
(1.0934 -0.165422 0)
(1.10124 -0.132434 0)
(1.10441 -0.104177 0)
(1.10636 -0.0839164 0)
(1.10007 -0.0637074 0)
(1.0944 -0.0487157 0)
(1.08753 -0.0370346 0)
(1.08167 -0.0310776 0)
(1.07385 -0.0255865 0)
(1.06787 -0.0232516 0)
(1.06084 -0.0211558 0)
(1.05475 -0.0197328 0)
(1.05011 -0.0180577 0)
(1.04589 -0.0164282 0)
(1.04215 -0.0144742 0)
(1.03824 -0.0125645 0)
(1.03476 -0.0108926 0)
(1.03141 -0.00955188 0)
(1.02835 -0.00839097 0)
(1.02563 -0.00745227 0)
(1.02338 -0.00656767 0)
(1.02144 -0.00573435 0)
(1.0198 -0.00487092 0)
(1.0185 -0.00397869 0)
(1.0174 -0.00323242 0)
(1.01653 -0.00222537 0)
(1.01595 -0.00132669 0)
(1.01558 -0.00057035 0)
(1.09617 -0.263101 0)
(1.12398 -0.207641 0)
(1.13402 -0.160949 0)
(1.13396 -0.1171 0)
(1.12962 -0.0863544 0)
(1.12605 -0.0637102 0)
(1.1244 -0.0467306 0)
(1.11745 -0.0317243 0)
(1.11085 -0.0232476 0)
(1.10075 -0.0160225 0)
(1.09118 -0.0134537 0)
(1.07938 -0.0118427 0)
(1.06867 -0.0120994 0)
(1.05843 -0.0114673 0)
(1.05065 -0.011138 0)
(1.04543 -0.0104101 0)
(1.04133 -0.00970697 0)
(1.03797 -0.00897124 0)
(1.03486 -0.0084272 0)
(1.0319 -0.00780645 0)
(1.02905 -0.00717881 0)
(1.02652 -0.0065506 0)
(1.02434 -0.00592596 0)
(1.02235 -0.00526482 0)
(1.02068 -0.00456069 0)
(1.01929 -0.00378916 0)
(1.0181 -0.00310926 0)
(1.01717 -0.0021657 0)
(1.01653 -0.00129886 0)
(1.01613 -0.000555677 0)
(1.1828 -0.281486 0)
(1.19821 -0.224399 0)
(1.18501 -0.163774 0)
(1.16832 -0.121814 0)
(1.15549 -0.0903006 0)
(1.14065 -0.0652534 0)
(1.12435 -0.0435526 0)
(1.1124 -0.0301558 0)
(1.09848 -0.0200686 0)
(1.08684 -0.0158638 0)
(1.07601 -0.0131036 0)
(1.06842 -0.0137449 0)
(1.06061 -0.0135402 0)
(1.05514 -0.0141797 0)
(1.051 -0.0136526 0)
(1.04698 -0.0128196 0)
(1.04327 -0.0113319 0)
(1.03948 -0.00998678 0)
(1.03585 -0.0088218 0)
(1.03237 -0.00792948 0)
(1.02915 -0.00715659 0)
(1.02648 -0.00655968 0)
(1.02411 -0.00588149 0)
(1.02208 -0.00520637 0)
(1.02042 -0.00450006 0)
(1.01902 -0.00371109 0)
(1.01786 -0.00304672 0)
(1.01693 -0.00213139 0)
(1.01628 -0.00127878 0)
(1.01589 -0.000545246 0)
(1.30861 -0.231271 0)
(1.28811 -0.178542 0)
(1.24212 -0.129909 0)
(1.20684 -0.08623 0)
(1.18279 -0.0620376 0)
(1.16447 -0.0413527 0)
(1.1506 -0.0278842 0)
(1.13409 -0.016169 0)
(1.11853 -0.00855029 0)
(1.10443 -0.00302657 0)
(1.09213 -0.0018862 0)
(1.07895 -0.00104641 0)
(1.06834 -0.00244953 0)
(1.05885 -0.00263278 0)
(1.0516 -0.00350396 0)
(1.04666 -0.00379023 0)
(1.04263 -0.00440275 0)
(1.0392 -0.004805 0)
(1.03584 -0.00524407 0)
(1.03264 -0.00536048 0)
(1.02975 -0.00539138 0)
(1.02723 -0.00526074 0)
(1.02491 -0.00495595 0)
(1.02292 -0.00457558 0)
(1.02123 -0.00408076 0)
(1.01978 -0.00344827 0)
(1.01857 -0.00287744 0)
(1.0176 -0.00203628 0)
(1.01691 -0.00123031 0)
(1.01651 -0.000524752 0)
(1.40264 -0.119859 0)
(1.34211 -0.100392 0)
(1.28174 -0.069143 0)
(1.23877 -0.053613 0)
(1.19956 -0.0317317 0)
(1.16949 -0.016964 0)
(1.14604 -0.00451253 0)
(1.12568 0.00245861 0)
(1.10657 0.00585497 0)
(1.0894 0.0044543 0)
(1.07466 0.00289642 0)
(1.06517 -0.00143704 0)
(1.05719 -0.00416089 0)
(1.05243 -0.00726267 0)
(1.04857 -0.00799644 0)
(1.04517 -0.00828733 0)
(1.04195 -0.00753169 0)
(1.03836 -0.00689954 0)
(1.0349 -0.00630957 0)
(1.03159 -0.00600542 0)
(1.02871 -0.00574545 0)
(1.02617 -0.00548268 0)
(1.02391 -0.00503216 0)
(1.02209 -0.00457539 0)
(1.02053 -0.00402968 0)
(1.01921 -0.00336072 0)
(1.01812 -0.00279997 0)
(1.01722 -0.00198673 0)
(1.01657 -0.0012 0)
(1.01619 -0.000511162 0)
(1.44362 0.00535441 0)
(1.36983 -0.00573099 0)
(1.29832 0.00869013 0)
(1.25296 0.00753218 0)
(1.21739 0.0084376 0)
(1.18703 0.00999805 0)
(1.16391 0.0102091 0)
(1.13839 0.0132045 0)
(1.11753 0.013538 0)
(1.10058 0.0142172 0)
(1.0865 0.0128135 0)
(1.07368 0.0115816 0)
(1.06454 0.0086925 0)
(1.05612 0.0075361 0)
(1.05026 0.00520867 0)
(1.04609 0.00341678 0)
(1.04231 0.00133399 0)
(1.03874 -0.000285637 0)
(1.03542 -0.00181008 0)
(1.03221 -0.00276707 0)
(1.02949 -0.00349077 0)
(1.02693 -0.00382626 0)
(1.02477 -0.00391126 0)
(1.02292 -0.00384211 0)
(1.02128 -0.00354386 0)
(1.01995 -0.00306614 0)
(1.01883 -0.00260962 0)
(1.01792 -0.001874 0)
(1.01726 -0.0011421 0)
(1.01688 -0.000487091 0)
(1.42727 0.117208 0)
(1.35814 0.0849593 0)
(1.3045 0.0713929 0)
(1.25315 0.05721 0)
(1.20443 0.0585788 0)
(1.18 0.052655 0)
(1.15236 0.0484062 0)
(1.12989 0.0437326 0)
(1.10882 0.0359948 0)
(1.08741 0.0280939 0)
(1.07075 0.0205162 0)
(1.06003 0.0122192 0)
(1.05225 0.00642923 0)
(1.04783 0.001072 0)
(1.04458 -0.00131769 0)
(1.04182 -0.00289667 0)
(1.0389 -0.00303069 0)
(1.03599 -0.00336597 0)
(1.03295 -0.00355368 0)
(1.03011 -0.00391536 0)
(1.0276 -0.00417405 0)
(1.02535 -0.00425271 0)
(1.02348 -0.00411816 0)
(1.02186 -0.00387103 0)
(1.02045 -0.00349722 0)
(1.01928 -0.00297704 0)
(1.01828 -0.00252019 0)
(1.01745 -0.0018164 0)
(1.01685 -0.00110673 0)
(1.01649 -0.000470475 0)
(1.37405 0.214244 0)
(1.30464 0.18783 0)
(1.2687 0.147956 0)
(1.23579 0.112295 0)
(1.20784 0.100903 0)
(1.18215 0.0702124 0)
(1.15101 0.0610952 0)
(1.12708 0.0493805 0)
(1.10501 0.0400536 0)
(1.08949 0.033623 0)
(1.07623 0.0285723 0)
(1.06604 0.0244124 0)
(1.05889 0.0202331 0)
(1.05273 0.0177177 0)
(1.04896 0.0137289 0)
(1.04564 0.0105222 0)
(1.04229 0.00689571 0)
(1.03889 0.00397957 0)
(1.03542 0.00151516 0)
(1.03229 -0.00021989 0)
(1.02956 -0.00155983 0)
(1.02711 -0.00238487 0)
(1.02503 -0.00286407 0)
(1.02318 -0.00306251 0)
(1.02158 -0.00297187 0)
(1.02028 -0.00265398 0)
(1.01918 -0.00230882 0)
(1.01829 -0.00168661 0)
(1.01763 -0.00103779 0)
(1.01725 -0.000442292 0)
(1.31665 0.263434 0)
(1.25748 0.242697 0)
(1.22744 0.182432 0)
(1.18572 0.171592 0)
(1.16597 0.141945 0)
(1.14544 0.119398 0)
(1.13168 0.103352 0)
(1.11468 0.0814125 0)
(1.09787 0.0645992 0)
(1.07779 0.0507712 0)
(1.06357 0.0371062 0)
(1.05321 0.0258749 0)
(1.04686 0.0174171 0)
(1.04308 0.0101831 0)
(1.04018 0.00621747 0)
(1.03794 0.0033694 0)
(1.03582 0.00197411 0)
(1.03353 0.00054221 0)
(1.03107 -0.000511284 0)
(1.02889 -0.00161722 0)
(1.02685 -0.0023903 0)
(1.02505 -0.00285825 0)
(1.02345 -0.0030361 0)
(1.02198 -0.00300987 0)
(1.02069 -0.00284989 0)
(1.01956 -0.00250077 0)
(1.01858 -0.00216726 0)
(1.01776 -0.00159421 0)
(1.01714 -0.000981184 0)
(1.01678 -0.000418436 0)
(1.21278 0.322534 0)
(1.17088 0.2987 0)
(1.19137 0.203068 0)
(1.15384 0.209883 0)
(1.15303 0.141615 0)
(1.12918 0.125286 0)
(1.1041 0.100527 0)
(1.09184 0.0777734 0)
(1.07617 0.0628135 0)
(1.06762 0.0496993 0)
(1.0589 0.0412918 0)
(1.05402 0.0345407 0)
(1.04998 0.0293832 0)
(1.04729 0.0256258 0)
(1.04615 0.0204558 0)
(1.04424 0.0160581 0)
(1.04177 0.0112803 0)
(1.03852 0.00751268 0)
(1.03532 0.00434332 0)
(1.03228 0.00203376 0)
(1.02969 0.000242878 0)
(1.02735 -0.000986026 0)
(1.02531 -0.00177361 0)
(1.02352 -0.00221167 0)
(1.02195 -0.00231743 0)
(1.02066 -0.00215244 0)
(1.01956 -0.00193176 0)
(1.01867 -0.0014404 0)
(1.018 -0.000894966 0)
(1.01762 -0.000385567 0)
(1.13566 0.360611 0)
(1.08281 0.33779 0)
(1.12172 0.260648 0)
(1.07599 0.254791 0)
(1.08955 0.189936 0)
(1.08052 0.170852 0)
(1.08753 0.132225 0)
(1.0772 0.105571 0)
(1.06751 0.0846804 0)
(1.05666 0.0664322 0)
(1.04946 0.0494853 0)
(1.04222 0.0372413 0)
(1.03909 0.0272687 0)
(1.03617 0.0190506 0)
(1.03362 0.0138983 0)
(1.03202 0.0098981 0)
(1.03065 0.00719551 0)
(1.02936 0.00461652 0)
(1.02788 0.00259918 0)
(1.02654 0.000822886 0)
(1.02525 -0.000447977 0)
(1.02404 -0.00126774 0)
(1.02286 -0.00176862 0)
(1.0217 -0.00199512 0)
(1.02061 -0.00206474 0)
(1.01963 -0.00191154 0)
(1.01873 -0.00172588 0)
(1.01797 -0.00130633 0)
(1.01737 -0.000814499 0)
(1.01704 -0.000353901 0)
(1.05725 0.338426 0)
(1.01283 0.307195 0)
(1.07029 0.24575 0)
(1.00816 0.226344 0)
(1.05968 0.160549 0)
(1.02478 0.160246 0)
(1.03429 0.113984 0)
(1.0329 0.0942857 0)
(1.03499 0.0734102 0)
(1.03558 0.0556897 0)
(1.03327 0.0458499 0)
(1.03543 0.0377432 0)
(1.03533 0.032376 0)
(1.03732 0.0281774 0)
(1.03932 0.0229455 0)
(1.03945 0.0183136 0)
(1.03832 0.0133042 0)
(1.03592 0.0093547 0)
(1.03334 0.00606663 0)
(1.03076 0.00357292 0)
(1.02856 0.00160467 0)
(1.02656 0.000166126 0)
(1.02478 -0.000804909 0)
(1.02322 -0.00140071 0)
(1.02184 -0.00165527 0)
(1.0207 -0.00161973 0)
(1.01972 -0.0015177 0)
(1.01891 -0.00116322 0)
(1.0183 -0.000730781 0)
(1.01796 -0.000322312 0)
(0.971726 0.337901 0)
(0.961254 0.314669 0)
(1.02875 0.258586 0)
(0.946095 0.248592 0)
(1.04413 0.178285 0)
(1.00604 0.175743 0)
(1.02769 0.125779 0)
(1.02258 0.113039 0)
(1.02563 0.0880578 0)
(1.02796 0.0720018 0)
(1.03149 0.0560101 0)
(1.02963 0.0442377 0)
(1.0309 0.0340976 0)
(1.0286 0.0259591 0)
(1.02603 0.0203786 0)
(1.02484 0.0156013 0)
(1.02423 0.0117632 0)
(1.02407 0.00819721 0)
(1.02373 0.0053566 0)
(1.02348 0.00306355 0)
(1.02309 0.00140566 0)
(1.02258 0.000302055 0)
(1.02194 -0.00049157 0)
(1.02114 -0.00096638 0)
(1.02032 -0.00126388 0)
(1.01951 -0.00130587 0)
(1.01875 -0.00126902 0)
(1.01808 -0.0010043 0)
(1.01755 -0.000638526 0)
(1.01725 -0.000286166 0)
(0.88456 0.342759 0)
(0.862809 0.296626 0)
(0.936501 0.2518 0)
(0.872369 0.218895 0)
(0.952047 0.175219 0)
(0.939063 0.153974 0)
(0.971944 0.113425 0)
(0.986108 0.0890155 0)
(0.997749 0.065568 0)
(1.00363 0.048495 0)
(1.00661 0.0381003 0)
(1.01542 0.031028 0)
(1.01942 0.0266688 0)
(1.02631 0.0234688 0)
(1.03148 0.0194398 0)
(1.03381 0.0158329 0)
(1.03418 0.0118785 0)
(1.03288 0.00875392 0)
(1.03116 0.00610561 0)
(1.02929 0.00393277 0)
(1.02754 0.00219188 0)
(1.02592 0.000822201 0)
(1.02441 -0.000122461 0)
(1.02308 -0.000741322 0)
(1.02186 -0.00107171 0)
(1.02081 -0.00112245 0)
(1.01993 -0.00112029 0)
(1.01917 -0.000891218 0)
(1.01858 -0.000568179 0)
(1.01825 -0.000259395 0)
(0.814765 0.282113 0)
(0.825982 0.233006 0)
(0.891622 0.221775 0)
(0.864507 0.172619 0)
(0.924892 0.151615 0)
(0.925867 0.129591 0)
(0.938973 0.110699 0)
(0.956295 0.101797 0)
(0.980725 0.0839678 0)
(1.00053 0.0700317 0)
(1.01777 0.0572313 0)
(1.02195 0.045596 0)
(1.02705 0.0366946 0)
(1.02473 0.0294221 0)
(1.02181 0.0242204 0)
(1.02041 0.0193081 0)
(1.01992 0.0148989 0)
(1.02048 0.01078 0)
(1.02105 0.00738483 0)
(1.02161 0.00485392 0)
(1.02187 0.00301309 0)
(1.02185 0.00172953 0)
(1.02156 0.000704164 0)
(1.02099 1.20595e-05 0)
(1.02028 -0.000478401 0)
(1.01957 -0.000707134 0)
(1.01887 -0.000814127 0)
(1.01823 -0.00069551 0)
(1.01771 -0.000457807 0)
(1.01743 -0.000217388 0)
(0.725909 0.191214 0)
(0.74481 0.128818 0)
(0.791488 0.132801 0)
(0.781104 0.101374 0)
(0.853133 0.0965825 0)
(0.896745 0.0516863 0)
(0.929383 0.0357582 0)
(0.952609 0.0271395 0)
(0.959548 0.0191175 0)
(0.969526 0.0192667 0)
(0.978031 0.0147595 0)
(0.993433 0.0149197 0)
(1.00315 0.0133291 0)
(1.01485 0.0122305 0)
(1.02303 0.0102606 0)
(1.02702 0.00885701 0)
(1.02891 0.00715098 0)
(1.02889 0.00572088 0)
(1.02828 0.00443167 0)
(1.02722 0.00312444 0)
(1.02608 0.0020023 0)
(1.02496 0.000979254 0)
(1.0238 0.000269401 0)
(1.02274 -0.000224576 0)
(1.02175 -0.000555849 0)
(1.02086 -0.00066275 0)
(1.02007 -0.000737473 0)
(1.01937 -0.000623008 0)
(1.01881 -0.000406226 0)
(1.01851 -0.000197664 0)
(0.715415 0.0278328 0)
(0.745151 -0.0148233 0)
(0.825877 -0.0147974 0)
(0.837405 -0.0155427 0)
(0.832861 0.0354509 0)
(0.851792 0.0457368 0)
(0.897361 0.0673579 0)
(0.937909 0.056515 0)
(0.9721 0.056736 0)
(0.997828 0.0457997 0)
(1.01453 0.0424688 0)
(1.0212 0.0349527 0)
(1.02512 0.0308449 0)
(1.02304 0.0270449 0)
(1.01923 0.0237545 0)
(1.01774 0.0198322 0)
(1.01692 0.0155536 0)
(1.01769 0.0116631 0)
(1.01871 0.00826126 0)
(1.01975 0.00588927 0)
(1.02047 0.00405778 0)
(1.02076 0.00273663 0)
(1.02072 0.0016071 0)
(1.02037 0.000761232 0)
(1.01987 0.000135736 0)
(1.01932 -0.000220605 0)
(1.01875 -0.000434556 0)
(1.01824 -0.000432754 0)
(1.01779 -0.00030185 0)
(1.01755 -0.000158444 0)
(0.628548 -0.0997689 0)
(0.645728 -0.125621 0)
(1.07338 -0.0104124 4.95341e-20)
(1.02349 -0.0239634 -1.46047e-20)
(1.01148 -0.0363669 7.58253e-21)
(1.02925 -0.049086 2.84912e-21)
(1.04419 -0.0519914 -3.01343e-21)
(1.04723 -0.0512403 1.30722e-21)
(1.04681 -0.0469872 -6.26062e-21)
(1.04774 -0.0426462 2.53988e-21)
(1.04591 -0.0350548 -1.44751e-21)
(1.04477 -0.0312258 7.32615e-22)
(1.0572 -0.00154148 2.29667e-21)
(1.07799 -0.0179739 5.57665e-21)
(1.07821 -0.0362843 1.44881e-20)
(1.06184 -0.0452459 -4.34714e-22)
(1.05097 -0.0450308 3.10441e-21)
(1.05179 -0.0474 -6.0708e-21)
(1.05778 -0.0542462 -3.1046e-21)
(1.05963 -0.0539416 3.65092e-21)
(1.0538 -0.0479082 -9.22219e-22)
(1.05229 -0.0432449 -9.37201e-23)
(1.0509 -0.0395144 1.90163e-22)
(1.04418 -0.0327262 3.40167e-23)
(1.04073 -0.0288844 2.1295e-21)
(1.0384 -0.0258894 -1.69434e-21)
(1.03445 -0.0225107 -2.63465e-21)
(1.03217 -0.0198728 3.07353e-21)
(1.03034 -0.0177744 -3.8981e-21)
(1.02813 -0.0155622 2.58228e-21)
(1.02637 -0.0136555 9.53106e-22)
(1.02462 -0.0119115 -8.33829e-22)
(1.0229 -0.0102962 2.38323e-22)
(1.02131 -0.00890966 6.29857e-22)
(1.01998 -0.00768688 -9.23887e-23)
(1.01866 -0.0065154 -1.25781e-21)
(1.01759 -0.00540328 8.74034e-22)
(1.0167 -0.00434518 -3.02077e-22)
(1.01588 -0.00341259 2.24504e-22)
(1.01527 -0.00224181 -4.14841e-22)
(1.0148 -0.00133557 -4.35726e-22)
(1.01451 -0.000599013 -1.18589e-21)
(0.98695 0.0134705 3.30687e-20)
(0.988208 -0.00880339 -1.45258e-20)
(1.02322 -0.0329599 -8.06441e-21)
(1.04386 -0.0429361 4.14863e-21)
(1.04363 -0.0407978 6.75431e-21)
(1.04211 -0.0401463 -6.68301e-21)
(1.04946 -0.0415204 1.80742e-21)
(1.05306 -0.0392411 -1.19407e-21)
(1.05229 -0.0339534 7.49628e-22)
(1.05631 -0.034073 -3.1942e-22)
(1.05426 -0.0315945 1.05154e-21)
(1.04772 -0.0284747 8.55328e-22)
(1.04576 -0.0279075 -8.48233e-22)
(1.04089 -0.0270082 -3.94823e-22)
(1.03536 -0.0246844 -1.37642e-21)
(1.03281 -0.0229415 1.0386e-21)
(1.03032 -0.0202471 8.02321e-22)
(1.02836 -0.0174643 2.57808e-21)
(1.02697 -0.0150174 -6.52673e-21)
(1.02542 -0.0128879 2.50399e-21)
(1.02372 -0.0109768 1.10798e-22)
(1.02216 -0.0093819 1.72627e-22)
(1.02076 -0.00798733 -6.78027e-24)
(1.01935 -0.00667713 -5.12468e-22)
(1.01826 -0.00551787 1.08976e-21)
(1.01727 -0.00441294 -1.60725e-23)
(1.01639 -0.00346203 2.47843e-22)
(1.01574 -0.00229246 -4.74197e-22)
(1.01522 -0.00135886 6.72996e-22)
(1.01492 -0.000602961 2.07326e-22)
(1.0302 0.0147063 -8.77076e-21)
(1.03385 -0.0101487 -3.38514e-21)