/*--------------------------------*- C++ -*----------------------------------*\
| =========                 |                                                 |
| \\      /  F ield         | OpenFOAM: The Open Source CFD Toolbox           |
|  \\    /   O peration     | Version:                                        |
|   \\  /    A nd           | Website:  www.openfoam.com                      |
|    \\/     M anipulation  |                                                 |
\*---------------------------------------------------------------------------*/
FoamFile
{
    version     2.0;
    format      ascii;
    class       surfaceScalarField;
    location    "0.9";
    object      phi;
}
// * * * * * * * * * * * * * * * * * * * * * * * * * * * * * * * * * * * * * //

dimensions      [0 3 -1 0 0 0 0];
oriented        oriented;


internalField   nonuniform List<scalar> 
760
(
2.11585e-06
9.74875e-09
2.10652e-06
9.32256e-09
2.0976e-06
8.92101e-09
2.08906e-06
8.54201e-09
2.08088e-06
8.18373e-09
2.07303e-06
7.84455e-09
2.06551e-06
7.52302e-09
2.05829e-06
7.21783e-09
2.05136e-06
6.9278e-09
2.04471e-06
6.65189e-09
2.03832e-06
6.38913e-09
2.03218e-06
6.13866e-09
2.02628e-06
5.89969e-09
2.02061e-06
5.67151e-09
2.01516e-06
5.45347e-09
2.00991e-06
5.24497e-09
2.00487e-06
5.04546e-09
2.00002e-06
4.85444e-09
1.99534e-06
4.67146e-09
4.49612e-09
6.09991e-06
3.68263e-08
6.07404e-06
3.51971e-08
6.04929e-06
3.36636e-08
6.02562e-06
3.22176e-08
6.00295e-06
3.08521e-08
5.98123e-06
2.95604e-08
5.96042e-06
2.83369e-08
5.94046e-06
2.71765e-08
5.92132e-06
2.60746e-08
5.90294e-06
2.5027e-08
5.8853e-06
2.403e-08
5.86836e-06
2.30803e-08
5.85208e-06
2.21748e-08
5.83644e-06
2.13106e-08
5.82141e-06
2.04853e-08
5.80696e-06
1.96965e-08
5.79306e-06
1.89421e-08
5.7797e-06
1.82202e-08
5.76684e-06
1.7529e-08
1.68669e-08
9.83222e-06
7.8842e-08
9.79209e-06
7.53239e-08
9.75374e-06
7.20149e-08
9.71706e-06
6.88968e-08
9.68196e-06
6.59539e-08
9.64835e-06
6.31719e-08
9.61615e-06
6.05383e-08
9.58528e-06
5.80418e-08
9.55568e-06
5.56723e-08
9.52729e-06
5.34209e-08
9.50004e-06
5.12792e-08
9.47388e-06
4.92399e-08
9.44876e-06
4.72963e-08
9.42463e-06
4.54424e-08
9.40144e-06
4.36725e-08
9.37916e-06
4.19816e-08
9.35773e-06
4.03651e-08
9.33714e-06
3.88187e-08
9.31733e-06
3.73386e-08
3.59212e-08
1.3306e-05
1.33039e-07
1.32543e-05
1.27063e-07
1.32049e-05
1.21444e-07
1.31576e-05
1.16153e-07
1.31124e-05
1.11161e-07
1.30691e-05
1.06444e-07
1.30277e-05
1.0198e-07
1.2988e-05
9.775e-08
1.29499e-05
9.3737e-08
1.29134e-05
8.99252e-08
1.28784e-05
8.63005e-08
1.28448e-05
8.28504e-08
1.28125e-05
7.95633e-08
1.27815e-05
7.64287e-08
1.27518e-05
7.34372e-08
1.27232e-05
7.05802e-08
1.26957e-05
6.78496e-08
1.26693e-05
6.52383e-08
1.26439e-05
6.27396e-08
6.03474e-08
1.6513e-05
1.962e-07
1.64527e-05
1.87346e-07
1.63952e-05
1.79025e-07
1.63401e-05
1.71189e-07
1.62875e-05
1.63798e-07
1.62371e-05
1.56815e-07
1.61889e-05
1.5021e-07
1.61427e-05
1.43952e-07
1.60984e-05
1.38015e-07
1.6056e-05
1.32378e-07
1.60152e-05
1.27019e-07
1.59762e-05
1.21919e-07
1.59387e-05
1.17061e-07
1.59027e-05
1.12429e-07
1.58681e-05
1.0801e-07
1.58349e-05
1.0379e-07
1.5803e-05
9.97584e-08
1.57723e-05
9.59034e-08
1.57428e-05
9.22155e-08
8.86854e-08
1.94446e-05
2.64625e-07
1.93793e-05
2.52659e-07
1.93169e-05
2.4141e-07
1.92573e-05
2.30817e-07
1.92002e-05
2.20825e-07
1.91457e-05
2.11386e-07
1.90934e-05
2.02456e-07
1.90434e-05
1.93995e-07
1.89954e-05
1.85971e-07
1.89495e-05
1.78351e-07
1.89054e-05
1.71107e-07
1.88631e-05
1.64214e-07
1.88225e-05
1.57649e-07
1.87835e-05
1.5139e-07
1.87461e-05
1.4542e-07
1.87102e-05
1.39719e-07
1.86757e-05
1.34273e-07
1.86425e-05
1.29066e-07
1.86106e-05
1.24086e-07
1.1932e-07
2.20931e-05
3.34191e-07
2.20267e-05
3.19087e-07
2.19632e-05
3.04884e-07
2.19025e-05
2.91504e-07
2.18445e-05
2.78879e-07
2.17889e-05
2.66949e-07
2.17357e-05
2.55659e-07
2.16848e-05
2.44962e-07
2.16359e-05
2.34814e-07
2.15891e-05
2.25176e-07
2.15442e-05
2.16013e-07
2.15011e-05
2.07293e-07
2.14598e-05
1.98987e-07
2.14201e-05
1.91069e-07
2.1382e-05
1.83515e-07
2.13454e-05
1.76303e-07
2.13103e-05
1.69413e-07
2.12765e-05
1.62826e-07
2.12441e-05
1.56526e-07
1.50497e-07
2.44535e-05
4.00491e-07
2.43902e-05
3.82457e-07
2.43296e-05
3.65483e-07
2.42716e-05
3.49482e-07
2.42161e-05
3.34375e-07
2.4163e-05
3.20091e-07
2.41121e-05
3.06567e-07
2.40633e-05
2.93747e-07
2.40165e-05
2.8158e-07
2.39717e-05
2.70021e-07
2.39286e-05
2.59028e-07
2.38874e-05
2.48565e-07
2.38478e-05
2.38595e-07
2.38097e-05
2.2909e-07
2.37732e-05
2.2002e-07
2.37382e-05
2.1136e-07
2.37045e-05
2.03085e-07
2.36722e-05
1.95175e-07
2.36411e-05
1.87608e-07
1.80366e-07
2.65247e-05
4.59074e-07
2.64686e-05
4.38539e-07
2.64149e-05
4.1919e-07
2.63634e-05
4.0093e-07
2.63141e-05
3.83674e-07
2.62669e-05
3.67344e-07
2.62216e-05
3.51871e-07
2.61781e-05
3.37193e-07
2.61364e-05
3.23255e-07
2.60965e-05
3.10005e-07
2.60581e-05
2.97398e-07
2.60213e-05
2.85393e-07
2.59859e-05
2.73951e-07
2.5952e-05
2.63037e-07
2.59194e-05
2.5262e-07
2.58881e-05
2.42672e-07
2.5858e-05
2.33164e-07
2.58291e-05
2.24072e-07
2.58013e-05
2.15375e-07
2.0705e-07
2.83103e-05
5.05719e-07
2.82656e-05
4.83316e-07
2.82226e-05
4.62175e-07
2.81813e-05
4.42197e-07
2.81417e-05
4.23293e-07
2.81037e-05
4.05382e-07
2.80671e-05
3.88395e-07
2.80321e-05
3.72265e-07
2.79984e-05
3.56934e-07
2.7966e-05
3.4235e-07
2.7935e-05
3.28465e-07
2.79051e-05
3.15233e-07
2.78765e-05
3.02615e-07
2.78489e-05
2.90574e-07
2.78225e-05
2.79076e-07
2.77971e-05
2.68091e-07
2.77726e-05
2.57589e-07
2.77492e-05
2.47544e-07
2.77266e-05
2.37933e-07
2.28731e-07
2.98202e-05
5.36749e-07
2.97903e-05
5.13268e-07
2.97614e-05
4.91068e-07
2.97335e-05
4.70053e-07
2.97067e-05
4.50137e-07
2.96808e-05
4.31242e-07
2.96559e-05
4.13297e-07
2.96319e-05
3.96239e-07
2.96089e-05
3.80009e-07
2.95867e-05
3.64555e-07
2.95653e-05
3.49827e-07
2.95447e-05
3.35783e-07
2.9525e-05
3.2238e-07
2.9506e-05
3.09583e-07
2.94877e-05
2.97356e-07
2.94701e-05
2.85668e-07
2.94532e-05
2.7449e-07
2.9437e-05
2.63794e-07
2.94213e-05
2.53555e-07
2.4375e-07
3.10698e-05
5.49311e-07
3.10574e-05
5.25634e-07
3.10453e-05
5.03202e-07
3.10334e-05
4.81926e-07
3.10218e-05
4.61728e-07
3.10105e-05
4.42533e-07
3.09996e-05
4.24277e-07
3.09889e-05
4.06899e-07
3.09786e-05
3.90345e-07
3.09686e-05
3.74565e-07
3.09589e-05
3.59511e-07
3.09495e-05
3.45143e-07
3.09405e-05
3.3142e-07
3.09317e-05
3.18307e-07
3.09233e-05
3.05771e-07
3.09152e-05
2.9378e-07
3.09074e-05
2.82306e-07
3.08999e-05
2.71321e-07
3.08926e-05
2.60802e-07
2.50725e-07
3.208e-05
5.41591e-07
3.2087e-05
5.1863e-07
3.20934e-05
4.96826e-07
3.20992e-05
4.76103e-07
3.21046e-05
4.5639e-07
3.21095e-05
4.37624e-07
3.2114e-05
4.19747e-07
3.21182e-05
4.02705e-07
3.21221e-05
3.86449e-07
3.21257e-05
3.70933e-07
3.21291e-05
3.56117e-07
3.21323e-05
3.4196e-07
3.21353e-05
3.28427e-07
3.21381e-05
3.15485e-07
3.21408e-05
3.03103e-07
3.21433e-05
2.91251e-07
3.21457e-05
2.79904e-07
3.2148e-05
2.69035e-07
3.21502e-05
2.58622e-07
2.48642e-07
3.28761e-05
5.12942e-07
3.29032e-05
4.91572e-07
3.29288e-05
4.71229e-07
3.2953e-05
4.51852e-07
3.29761e-05
4.33384e-07
3.29979e-05
4.1577e-07
3.30187e-05
3.98962e-07
3.30385e-05
3.82915e-07
3.30573e-05
3.67587e-07
3.30753e-05
3.52938e-07
3.30925e-05
3.38933e-07
3.31089e-05
3.25538e-07
3.31247e-05
3.12721e-07
3.31397e-05
3.00454e-07
3.31541e-05
2.88707e-07
3.31679e-05
2.77457e-07
3.31811e-05
2.66678e-07
3.31938e-05
2.56348e-07
3.3206e-05
2.46446e-07
2.36952e-07
3.34862e-05
4.639e-07
3.35328e-05
4.44905e-07
3.35773e-05
4.26781e-07
3.36197e-05
4.0948e-07
3.36601e-05
3.92958e-07
3.36987e-05
3.77171e-07
3.37356e-05
3.62083e-07
3.37708e-05
3.47655e-07
3.38045e-05
3.33855e-07
3.38368e-05
3.2065e-07
3.38678e-05
3.08011e-07
3.38974e-05
2.95911e-07
3.39258e-05
2.84322e-07
3.3953e-05
2.7322e-07
3.39791e-05
2.62581e-07
3.40042e-05
2.52384e-07
3.40283e-05
2.4261e-07
3.40514e-05
2.33237e-07
3.40736e-05
2.24248e-07
2.15625e-07
3.39389e-05
3.96111e-07
3.40037e-05
3.80152e-07
3.40656e-05
3.64892e-07
3.41248e-05
3.50295e-07
3.41814e-05
3.3633e-07
3.42356e-05
3.22965e-07
3.42875e-05
3.10171e-07
3.43372e-05
2.9792e-07
3.43849e-05
2.86188e-07
3.44306e-05
2.74948e-07
3.44744e-05
2.64179e-07
3.45165e-05
2.53858e-07
3.45569e-05
2.43966e-07
3.45956e-05
2.34482e-07
3.46328e-05
2.25387e-07
3.46685e-05
2.16664e-07
3.47028e-05
2.08297e-07
3.47358e-05
2.00272e-07
3.47675e-05
1.9257e-07
1.85179e-07
3.42622e-05
3.12182e-07
3.43426e-05
2.99779e-07
3.44196e-05
2.87897e-07
3.44934e-05
2.76513e-07
3.45641e-05
2.65603e-07
3.46319e-05
2.55147e-07
3.4697e-05
2.45125e-07
3.47594e-05
2.35517e-07
3.48192e-05
2.26306e-07
3.48767e-05
2.17472e-07
3.49319e-05
2.09001e-07
3.49849e-05
2.00875e-07
3.50358e-05
1.93082e-07
3.50846e-05
1.85605e-07
3.51316e-05
1.78431e-07
3.51767e-05
1.71545e-07
3.52201e-05
1.64938e-07
3.52618e-05
1.58597e-07
3.53018e-05
1.52511e-07
1.46667e-07
3.44807e-05
2.15494e-07
3.45735e-05
2.07025e-07
3.46625e-05
1.98899e-07
3.47479e-05
1.91104e-07
3.48299e-05
1.83624e-07
3.49086e-05
1.76448e-07
3.49841e-05
1.69562e-07
3.50567e-05
1.62955e-07
3.51264e-05
1.56615e-07
3.51933e-05
1.50531e-07
3.52576e-05
1.44693e-07
3.53194e-05
1.39088e-07
3.53788e-05
1.3371e-07
3.54358e-05
1.28548e-07
3.54907e-05
1.23593e-07
3.55434e-05
1.18835e-07
3.55941e-05
1.14266e-07
3.56428e-05
1.09881e-07
3.56896e-05
1.05672e-07
1.01628e-07
3.46146e-05
1.09995e-07
3.47159e-05
1.05701e-07
3.48132e-05
1.01578e-07
3.49067e-05
9.76194e-08
3.49965e-05
9.38181e-08
3.50828e-05
9.01684e-08
3.51657e-05
8.66644e-08
3.52453e-05
8.33001e-08
3.53219e-05
8.00701e-08
3.53954e-05
7.69691e-08
3.54661e-05
7.39919e-08
3.55341e-05
7.11334e-08
3.55994e-05
6.83885e-08
3.56622e-05
6.5753e-08
3.57226e-05
6.32229e-08
3.57806e-05
6.07933e-08
3.58364e-05
5.84596e-08
3.58901e-05
5.62183e-08
3.59417e-05
5.40663e-08
5.19996e-08
3.46778e-05
3.47835e-05
3.48851e-05
3.49827e-05
3.50765e-05
3.51667e-05
3.52534e-05
3.53367e-05
3.54167e-05
3.54937e-05
3.55677e-05
3.56388e-05
3.57072e-05
3.5773e-05
3.58362e-05
3.5897e-05
3.59554e-05
3.60116e-05
3.60657e-05
)
;

boundaryField
{
    fixedWalls
    {
        type            calculated;
        value           uniform 0;
    }
    inlet
    {
        type            calculated;
        value           nonuniform 0();
    }
    outlet
    {
        type            calculated;
        value           nonuniform 0();
    }
    frontAndBack
    {
        type            empty;
        value           nonuniform 0();
    }
    procBoundary2to1
    {
        type            processor;
        value           nonuniform List<scalar> 
20
(
-2.1256e-06
-6.12699e-06
-9.87424e-06
-1.33602e-05
-1.65762e-05
-1.9513e-05
-2.21627e-05
-2.45198e-05
-2.65832e-05
-2.8357e-05
-2.98512e-05
-3.10824e-05
-3.20723e-05
-3.28475e-05
-3.34371e-05
-3.38712e-05
-3.41783e-05
-3.4384e-05
-3.45091e-05
-3.45678e-05
)
;
    }
    procBoundary2to3
    {
        type            processor;
        value           nonuniform List<scalar> 
20
(
1.99085e-06
5.75447e-06
9.29827e-06
1.26194e-05
1.57145e-05
1.858e-05
2.12129e-05
2.36112e-05
2.57746e-05
2.77049e-05
2.94063e-05
3.08857e-05
3.21523e-05
3.32177e-05
3.40949e-05
3.47979e-05
3.53403e-05
3.57347e-05
3.59913e-05
3.61177e-05
)
;
    }
    procBoundary2to6
    {
        type            processor;
        value           nonuniform List<scalar> 
20
(
6.24662e-13
2.4825e-13
1.62874e-13
7.91429e-13
1.3393e-12
1.42301e-12
1.2744e-12
8.74128e-13
3.59384e-13
8.40879e-13
2.75e-12
4.18922e-12
2.87768e-12
-3.17485e-13
-3.14696e-15
4.47463e-12
6.02936e-12
1.91017e-12
-7.25573e-13
3.32512e-12
)
;
    }
}


// ************************************************************************* //
