/*--------------------------------*- C++ -*----------------------------------*\
| =========                 |                                                 |
| \\      /  F ield         | OpenFOAM: The Open Source CFD Toolbox           |
|  \\    /   O peration     | Version:                                        |
|   \\  /    A nd           | Website:  www.openfoam.com                      |
|    \\/     M anipulation  |                                                 |
\*---------------------------------------------------------------------------*/
FoamFile
{
    version     2.0;
    format      ascii;
    class       volVectorField;
    location    "0.9";
    object      U;
}
// * * * * * * * * * * * * * * * * * * * * * * * * * * * * * * * * * * * * * //

dimensions      [0 1 -1 0 0 0 0];


internalField   nonuniform List<vector> 
400
(
(0.0848247 6.42651e-05 0)
(0.0844435 6.15129e-05 0)
(0.0840788 5.89148e-05 0)
(0.0837298 5.64583e-05 0)
(0.0833955 5.41323e-05 0)
(0.0830751 5.19268e-05 0)
(0.0827679 4.9833e-05 0)
(0.0824732 4.78428e-05 0)
(0.0821904 4.59492e-05 0)
(0.081919 4.41454e-05 0)
(0.0816583 4.24257e-05 0)
(0.0814078 4.07846e-05 0)
(0.0811672 3.92172e-05 0)
(0.0809359 3.7719e-05 0)
(0.0807135 3.62861e-05 0)
(0.0804996 3.49145e-05 0)
(0.0802939 3.3601e-05 0)
(0.0800959 3.23424e-05 0)
(0.0799055 3.11358e-05 0)
(0.0797222 2.99788e-05 0)
(0.244526 0.000391234 0)
(0.243468 0.000374091 0)
(0.242456 0.000357941 0)
(0.241488 0.000342702 0)
(0.240562 0.000328298 0)
(0.239675 0.000314664 0)
(0.238825 0.000301741 0)
(0.23801 0.000289477 0)
(0.237228 0.000277823 0)
(0.236478 0.000266739 0)
(0.235758 0.000256184 0)
(0.235067 0.000246124 0)
(0.234403 0.000236527 0)
(0.233765 0.000227364 0)
(0.233151 0.00021861 0)
(0.232562 0.000210239 0)
(0.231995 0.000202231 0)
(0.23145 0.000194564 0)
(0.230926 0.00018722 0)
(0.230422 0.000180183 0)
(0.39411 0.00108269 0)
(0.392468 0.00103466 0)
(0.3909 0.000989454 0)
(0.3894 0.000946841 0)
(0.387965 0.000906605 0)
(0.386592 0.000868554 0)
(0.385276 0.000832519 0)
(0.384016 0.000798347 0)
(0.382807 0.000765904 0)
(0.381648 0.000735065 0)
(0.380536 0.000705721 0)
(0.379468 0.000677772 0)
(0.378443 0.000651126 0)
(0.377458 0.000625702 0)
(0.376512 0.000601425 0)
(0.375603 0.000578225 0)
(0.37473 0.000556039 0)
(0.373889 0.000534812 0)
(0.373082 0.000514489 0)
(0.372305 0.000495023 0)
(0.5333 0.00206287 0)
(0.531183 0.00197056 0)
(0.529161 0.00188376 0)
(0.527228 0.00180199 0)
(0.52538 0.00172482 0)
(0.523612 0.00165189 0)
(0.521918 0.00158286 0)
(0.520296 0.00151744 0)
(0.518742 0.00145535 0)
(0.517251 0.00139636 0)
(0.515821 0.00134026 0)
(0.51445 0.00128685 0)
(0.513133 0.00123595 0)
(0.511868 0.00118741 0)
(0.510654 0.00114107 0)
(0.509487 0.00109681 0)
(0.508366 0.0010545 0)
(0.507288 0.00101403 0)
(0.506252 0.000975297 0)
(0.505256 0.000938211 0)
(0.661755 0.00325528 0)
(0.659288 0.00310872 0)
(0.656932 0.00297095 0)
(0.654681 0.00284122 0)
(0.652529 0.00271884 0)
(0.65047 0.00260322 0)
(0.6485 0.00249382 0)
(0.646612 0.00239017 0)
(0.644803 0.00229184 0)
(0.64307 0.00219846 0)
(0.641407 0.00210967 0)
(0.639812 0.00202516 0)
(0.638282 0.00194466 0)
(0.636813 0.0018679 0)
(0.635402 0.00179465 0)
(0.634047 0.0017247 0)
(0.632745 0.00165786 0)
(0.631494 0.00159394 0)
(0.630292 0.00153279 0)
(0.629136 0.00147425 0)
(0.779121 0.00459085 0)
(0.776448 0.00438338 0)
(0.773896 0.00418838 0)
(0.771457 0.00400476 0)
(0.769125 0.00383158 0)
(0.766895 0.00366799 0)
(0.76476 0.00351322 0)
(0.762715 0.00336661 0)
(0.760756 0.00322755 0)
(0.758878 0.0030955 0)
(0.757078 0.00296997 0)
(0.755351 0.00285052 0)
(0.753695 0.00273675 0)
(0.752104 0.00262829 0)
(0.750578 0.00252481 0)
(0.749112 0.00242601 0)
(0.747703 0.00233162 0)
(0.74635 0.00224137 0)
(0.74505 0.00215504 0)
(0.743801 0.00207241 0)
(0.885084 0.00599243 0)
(0.882366 0.00572132 0)
(0.87977 0.00546645 0)
(0.877289 0.00522642 0)
(0.874915 0.005 0)
(0.872644 0.00478608 0)
(0.87047 0.00458369 0)
(0.868388 0.00439195 0)
(0.866393 0.00421009 0)
(0.86448 0.00403738 0)
(0.862647 0.00387321 0)
(0.860888 0.00371698 0)
(0.8592 0.00356819 0)
(0.857581 0.00342635 0)
(0.856026 0.00329104 0)
(0.854533 0.00316185 0)
(0.853099 0.00303844 0)
(0.851722 0.00292045 0)
(0.850399 0.00280761 0)
(0.849127 0.00269961 0)
(0.979438 0.00737392 0)
(0.976846 0.00704094 0)
(0.974368 0.00672772 0)
(0.971998 0.00643259 0)
(0.96973 0.00615406 0)
(0.967559 0.0058908 0)
(0.965479 0.00564165 0)
(0.963486 0.00540553 0)
(0.961576 0.00518151 0)
(0.959745 0.00496873 0)
(0.957988 0.00476642 0)
(0.956303 0.00457388 0)
(0.954687 0.00439047 0)
(0.953135 0.00421562 0)
(0.951645 0.0040488 0)
(0.950214 0.00388952 0)
(0.94884 0.00373736 0)
(0.947521 0.00359189 0)
(0.946252 0.00345276 0)
(0.945034 0.00331961 0)
(1.06213 0.00864526 0)
(1.05984 0.00825683 0)
(1.05765 0.00789111 0)
(1.05554 0.00754619 0)
(1.05353 0.00722043 0)
(1.0516 0.00691231 0)
(1.04975 0.00662052 0)
(1.04798 0.00634384 0)
(1.04627 0.0060812 0)
(1.04464 0.00583163 0)
(1.04308 0.00559424 0)
(1.04157 0.00536824 0)
(1.04013 0.00515289 0)
(1.03874 0.00494754 0)
(1.03741 0.00475158 0)
(1.03614 0.00456445 0)
(1.03491 0.00438564 0)
(1.03373 0.00421469 0)
(1.0326 0.00405116 0)
(1.03151 0.00389466 0)
(1.13333 0.00971809 0)
(1.1315 0.00928504 0)
(1.12975 0.00887675 0)
(1.12806 0.00849122 0)
(1.12644 0.00812668 0)
(1.12489 0.00778155 0)
(1.1234 0.0074544 0)
(1.12197 0.00714395 0)
(1.1206 0.00684903 0)
(1.11928 0.0065686 0)
(1.11801 0.0063017 0)
(1.11679 0.00604747 0)
(1.11562 0.00580511 0)
(1.1145 0.0055739 0)
(1.11342 0.00535319 0)
(1.11238 0.00514236 0)
(1.11138 0.00494084 0)
(1.11043 0.00474814 0)
(1.10951 0.00456377 0)
(1.10862 0.00438728 0)
(1.19342 0.0105119 0)
(1.1922 0.0100487 0)
(1.19102 0.00961126 0)
(1.18989 0.00919756 0)
(1.18879 0.00880583 0)
(1.18774 0.00843447 0)
(1.18673 0.00808205 0)
(1.18575 0.00774725 0)
(1.18481 0.00742891 0)
(1.1839 0.00712593 0)
(1.18303 0.00683736 0)
(1.18219 0.00656228 0)
(1.18139 0.00629988 0)
(1.18061 0.00604942 0)
(1.17987 0.00581021 0)
(1.17915 0.0055816 0)
(1.17846 0.00536302 0)
(1.1778 0.00515391 0)
(1.17716 0.00495379 0)
(1.17655 0.00476218 0)
(1.24304 0.01096 0)
(1.24254 0.0104838 0)
(1.24205 0.0100331 0)
(1.24157 0.00960605 0)
(1.2411 0.00920103 0)
(1.24064 0.00881648 0)
(1.2402 0.00845102 0)
(1.23977 0.00810341 0)
(1.23935 0.00777248 0)
(1.23894 0.00745721 0)
(1.23855 0.00715663 0)
(1.23816 0.00686987 0)
(1.2378 0.00659612 0)
(1.23744 0.00633464 0)
(1.2371 0.00608474 0)
(1.23677 0.00584579 0)
(1.23645 0.0056172 0)
(1.23614 0.00539843 0)
(1.23585 0.00518898 0)
(1.23556 0.00498837 0)
(1.28305 0.0110149 0)
(1.28335 0.0105439 0)
(1.28361 0.0100971 0)
(1.28386 0.00967296 0)
(1.28408 0.00926989 0)
(1.28428 0.00888654 0)
(1.28447 0.00852164 0)
(1.28465 0.00817406 0)
(1.28481 0.00784273 0)
(1.28496 0.0075267 0)
(1.2851 0.00722507 0)
(1.28523 0.00693703 0)
(1.28535 0.00666181 0)
(1.28547 0.00639872 0)
(1.28558 0.0061471 0)
(1.28568 0.00590636 0)
(1.28578 0.00567592 0)
(1.28588 0.00545527 0)
(1.28596 0.00524391 0)
(1.28605 0.00504139 0)
(1.31449 0.0106515 0)
(1.3156 0.0102039 0)
(1.31665 0.00977831 0)
(1.31765 0.00937338 0)
(1.31859 0.0089878 0)
(1.31949 0.00862039 0)
(1.32034 0.00827009 0)
(1.32115 0.00793589 0)
(1.32193 0.00761688 0)
(1.32266 0.0073122 0)
(1.32337 0.00702108 0)
(1.32404 0.00674278 0)
(1.32468 0.00647662 0)
(1.32529 0.00622196 0)
(1.32588 0.00597822 0)
(1.32645 0.00574485 0)
(1.32699 0.00552134 0)
(1.3275 0.0053072 0)
(1.328 0.00510197 0)
(1.32848 0.00490524 0)
(1.33849 0.00986894 0)
(1.3404 0.00946156 0)
(1.34222 0.00907329 0)
(1.34396 0.00870302 0)
(1.34561 0.00834973 0)
(1.34719 0.00801247 0)
(1.3487 0.00769036 0)
(1.35014 0.00738257 0)
(1.35152 0.00708836 0)
(1.35284 0.006807 0)
(1.35411 0.00653784 0)
(1.35532 0.00628027 0)
(1.35648 0.00603369 0)
(1.35759 0.00579757 0)
(1.35865 0.00557138 0)
(1.35968 0.00535467 0)
(1.36066 0.00514698 0)
(1.3616 0.00494788 0)
(1.36251 0.00475698 0)
(1.36338 0.00457388 0)
(1.35623 0.00868964 0)
(1.35888 0.00833708 0)
(1.36141 0.00800027 0)
(1.36383 0.00767839 0)
(1.36615 0.00737067 0)
(1.36836 0.00707639 0)
(1.37048 0.00679486 0)
(1.37252 0.00652546 0)
(1.37446 0.00626758 0)
(1.37633 0.00602067 0)
(1.37812 0.0057842 0)
(1.37984 0.00555767 0)
(1.38148 0.00534062 0)
(1.38307 0.0051326 0)
(1.38458 0.00493318 0)
(1.38604 0.00474197 0)
(1.38744 0.00455861 0)
(1.38879 0.00438276 0)
(1.39008 0.00421405 0)
(1.39132 0.00405216 0)
(1.36885 0.00715703 0)
(1.37213 0.00687113 0)
(1.37528 0.00659744 0)
(1.37829 0.00633538 0)
(1.38118 0.0060844 0)
(1.38395 0.005844 0)
(1.3866 0.00561369 0)
(1.38915 0.005393 0)
(1.3916 0.0051815 0)
(1.39394 0.00497876 0)
(1.3962 0.0047844 0)
(1.39836 0.00459803 0)
(1.40043 0.00441933 0)
(1.40243 0.00424794 0)
(1.40434 0.00408351 0)
(1.40618 0.00392575 0)
(1.40795 0.00377439 0)
(1.40965 0.00362916 0)
(1.41129 0.00348978 0)
(1.41286 0.00335596 0)
(1.37734 0.00533203 0)
(1.38112 0.00512174 0)
(1.38476 0.00492009 0)
(1.38824 0.0047267 0)
(1.39159 0.00454123 0)
(1.3948 0.00436333 0)
(1.39788 0.0041927 0)
(1.40085 0.00402902 0)
(1.40369 0.003872 0)
(1.40642 0.00372136 0)
(1.40905 0.00357681 0)
(1.41157 0.00343811 0)
(1.41399 0.00330501 0)
(1.41632 0.0031773 0)
(1.41855 0.00305471 0)
(1.4207 0.00293702 0)
(1.42277 0.00282404 0)
(1.42476 0.00271561 0)
(1.42667 0.00261152 0)
(1.4285 0.00251153 0)
(1.38252 0.00328896 0)
(1.38665 0.00316043 0)
(1.39062 0.00303702 0)
(1.39444 0.00291854 0)
(1.3981 0.00280479 0)
(1.40162 0.00269559 0)
(1.405 0.00259076 0)
(1.40825 0.00249012 0)
(1.41137 0.00239351 0)
(1.41438 0.00230076 0)
(1.41726 0.00221172 0)
(1.42003 0.00212623 0)
(1.4227 0.00204415 0)
(1.42526 0.00196536 0)
(1.42772 0.00188971 0)
(1.43009 0.00181706 0)
(1.43236 0.00174728 0)
(1.43455 0.00168028 0)
(1.43666 0.00161596 0)
(1.43868 0.00155417 0)
(1.38496 0.00111146 0)
(1.38927 0.00106823 0)
(1.39341 0.00102669 0)
(1.3974 0.0009868 0)
(1.40122 0.000948483 0)
(1.4049 0.000911675 0)
(1.40844 0.000876322 0)
(1.41183 0.000842367 0)
(1.4151 0.000809755 0)
(1.41824 0.000778444 0)
(1.42126 0.000748393 0)
(1.42416 0.000719536 0)
(1.42695 0.000691794 0)
(1.42963 0.000665129 0)
(1.43221 0.000639552 0)
(1.43469 0.000615036 0)
(1.43707 0.000591469 0)
(1.43936 0.000568771 0)
(1.44157 0.00054698 0)
(1.44369 0.000526111 0)
)
;

boundaryField
{
    fixedWalls
    {
        type            noSlip;
    }
    inlet
    {
        type            fixedValue;
        value           nonuniform 0();
    }
    outlet
    {
        type            zeroGradient;
    }
    frontAndBack
    {
        type            empty;
    }
    procBoundary2to1
    {
        type            processor;
        value           nonuniform List<vector> 
20
(
(0.0852234 6.71852e-05 0)
(0.245634 0.000409465 0)
(0.39583 0.00113384 0)
(0.535518 0.00216121 0)
(0.664341 0.0034115 0)
(0.781922 0.00481202 0)
(0.887932 0.00628136 0)
(0.98215 0.00772856 0)
(1.06453 0.00905851 0)
(1.13523 0.0101781 0)
(1.19468 0.011003 0)
(1.24355 0.0114639 0)
(1.28273 0.011512 0)
(1.31331 0.0111227 0)
(1.33648 0.0102966 0)
(1.35346 0.00905885 0)
(1.36542 0.00745575 0)
(1.37339 0.00555134 0)
(1.37821 0.00342284 0)
(1.38047 0.00115646 0)
)
;
    }
    procBoundary2to3
    {
        type            processor;
        value           nonuniform List<vector> 
20
(
(0.0795458 2.88684e-05 0)
(0.229936 0.000173436 0)
(0.371557 0.000476369 0)
(0.504298 0.000902683 0)
(0.628025 0.00141818 0)
(0.7426 0.0019933 0)
(0.847904 0.00259621 0)
(0.943863 0.00319213 0)
(1.03046 0.00374482 0)
(1.10777 0.00421829 0)
(1.17596 0.00457865 0)
(1.23529 0.00479617 0)
(1.28613 0.00484731 0)
(1.32894 0.00471663 0)
(1.36421 0.00439828 0)
(1.39251 0.00389684 0)
(1.41437 0.00322751 0)
(1.43027 0.00241553 0)
(1.44063 0.00149482 0)
(1.44573 0.000506066 0)
)
;
    }
    procBoundary2to6
    {
        type            processor;
        value           nonuniform List<vector> 
20
(
(1.38496 -0.00111144 0)
(1.38927 -0.00106821 0)
(1.39341 -0.00102668 0)
(1.3974 -0.000986775 0)
(1.40122 -0.000948442 0)
(1.4049 -0.000911627 0)
(1.40844 -0.000876272 0)
(1.41183 -0.00084232 0)
(1.4151 -0.000809718 0)
(1.41824 -0.000778403 0)
(1.42126 -0.000748313 0)
(1.42416 -0.000719411 0)
(1.42695 -0.000691682 0)
(1.42963 -0.000665084 0)
(1.43221 -0.00063952 0)
(1.43469 -0.000614915 0)
(1.43707 -0.00059129 0)
(1.43936 -0.000568665 0)
(1.44157 -0.00054694 0)
(1.44369 -0.000526008 0)
)
;
    }
}


// ************************************************************************* //
