/*--------------------------------*- C++ -*----------------------------------*\
| =========                 |                                                 |
| \\      /  F ield         | OpenFOAM: The Open Source CFD Toolbox           |
|  \\    /   O peration     | Version:                                        |
|   \\  /    A nd           | Website:  www.openfoam.com                      |
|    \\/     M anipulation  |                                                 |
\*---------------------------------------------------------------------------*/
FoamFile
{
    version     2.0;
    format      ascii;
    class       surfaceScalarField;
    location    "151";
    object      phi;
}
// * * * * * * * * * * * * * * * * * * * * * * * * * * * * * * * * * * * * * //

dimensions      [0 3 -1 0 0 0 0];
oriented        oriented;


internalField   nonuniform List<scalar> 
2202
(
0.0384934
0.0927323
0.0340081
0.0907996
0.0313627
0.0918397
0.0272222
0.0565369
0.0277155
0.00392871
0.0310606
-0.0499543
0.0341221
-0.092505
0.0355523
-0.085029
0.0313059
-0.112453
0.0262501
-0.0936305
0.0260609
-0.0593318
0.0328958
-0.0322431
0.0356261
0.0583188
0.0372356
0.06819
0.0366742
0.115867
0.0378854
0.133708
0.0401647
0.0427778
0.0455131
0.0129527
0.0469741
-0.0885775
0.0461234
-0.151411
0.0468872
-0.102422
0.0506018
-0.0965726
0.0535711
0.0585092
0.0537092
0.169627
0.0527974
0.109417
0.0548578
0.0950382
0.0585431
-0.0878035
0.0568349
-0.234936
0.0548494
-0.0286052
0.0754109
0.0440662
0.0919307
0.0406493
0.0942164
0.039007
0.0934821
0.0356507
0.0598931
0.0339853
0.00559411
0.0344869
-0.0504558
0.0357261
-0.0937442
0.0364647
-0.0857676
0.030814
-0.106802
0.0261851
-0.0890017
0.0258366
-0.0589833
0.0330296
-0.0394361
0.0358443
0.0555041
0.0359314
0.0681029
0.036145
0.115653
0.038481
0.131372
0.0407256
0.0405331
0.0465808
0.00709745
0.0478899
-0.0898865
0.0465843
-0.150105
0.0472093
-0.103047
0.0502006
-0.0995639
0.0530458
0.055664
0.0535456
0.169128
0.0524736
0.110489
0.054948
0.0925638
0.0593035
-0.092159
0.0573222
-0.232954
0.0546852
-0.0259681
0.0771258
0.0516511
0.0881011
0.0497158
0.0961518
0.0483344
0.0948634
0.0448324
0.0633951
0.0415255
0.00890094
0.0390311
-0.0479613
0.0379024
-0.0926156
0.0372876
-0.0851529
0.0306774
-0.100192
0.027058
-0.0853824
0.0264765
-0.0584018
0.0325263
-0.0454858
0.036201
0.0518294
0.0365113
0.0677926
0.0379562
0.114208
0.040329
0.128999
0.041831
0.0390311
0.047432
0.00149648
0.0481669
-0.0906215
0.0464235
-0.148362
0.0470392
-0.103663
0.0494555
-0.10198
0.052334
0.0527856
0.0533327
0.168129
0.05243
0.111391
0.0552193
0.0897745
0.0597335
-0.0966732
0.0573935
-0.230614
0.0542555
-0.0228301
0.0788108
0.0583207
0.0812923
0.0593535
0.095119
0.0587777
0.0954393
0.054922
0.0672508
0.0499216
0.0139014
0.0449211
-0.0429608
0.041351
-0.0890455
0.0393234
-0.0831252
0.0312684
-0.0921365
0.0277435
-0.0818574
0.0269833
-0.0576417
0.0327115
-0.051214
0.0379403
0.0466007
0.0370768
0.0686561
0.0384237
0.112861
0.0414914
0.125932
0.0431403
0.0373822
0.0485957
-0.00395887
0.0490982
-0.091124
0.04691
-0.146174
0.0471393
-0.103892
0.0487304
-0.103571
0.0512009
0.0503151
0.0524833
0.166846
0.0520756
0.111799
0.0554286
0.0864215
0.0599439
-0.101188
0.0573818
-0.228052
0.053751
-0.0191992
0.0804992
0.0634691
0.0726748
0.0679852
0.0906029
0.0687634
0.0946611
0.0655332
0.0704809
0.0594601
0.0199745
0.0515038
-0.0350045
0.0446614
-0.0822031
0.0413914
-0.0798552
0.0321013
-0.0828465
0.028531
-0.0782871
0.0281873
-0.057298
0.0333195
-0.0563462
0.0402961
0.039624
0.0394523
0.0694999
0.0408194
0.111494
0.0436573
0.123094
0.0448879
0.0361515
0.0494626
-0.00853358
0.0492226
-0.0908839
0.0467257
-0.143677
0.046752
-0.103918
0.0477029
-0.104522
0.0499239
0.0480941
0.0516472
0.165123
0.051852
0.111594
0.0556296
0.0826439
0.059781
-0.10534
0.0569297
-0.225201
0.0529585
-0.0152281
0.0821084
0.0665323
0.0740034
0.0831318
0.075959
0.0927054
0.073363
0.073077
0.0672225
0.026115
0.0580136
-0.0257956
0.0484382
-0.0726277
0.0435511
-0.0749681
0.0335929
-0.0728883
0.0284703
-0.0731646
0.0280425
-0.0568702
0.0326387
-0.0609424
0.042069
0.0301937
0.0419493
0.0696195
0.0423359
0.111108
0.0448866
0.120543
0.0469954
0.0340427
0.0508048
-0.012343
0.0497831
-0.0898622
0.0470861
-0.14098
0.0466721
-0.103504
0.0468157
-0.104666
0.0484193
0.0464905
0.0502783
0.163264
0.0512723
0.1106
0.0556356
0.0782806
0.0594926
-0.109197
0.0563712
-0.22208
0.0520904
-0.0109473
0.083674
0.077601
0.0724582
0.08238
0.0879264
0.0809244
0.0745325
0.0747294
0.03231
0.0639999
-0.015066
0.0517969
-0.0604247
0.0456545
-0.0688258
0.0362586
-0.0634923
0.0291915
-0.0660974
0.0280992
-0.0557779
0.0330279
-0.0658711
0.044143
0.0190786
0.0449339
0.0688286
0.0450352
0.111006
0.0470782
0.1185
0.0491089
0.032012
0.0513763
-0.0146103
0.0493709
-0.0878568
0.0467832
-0.138392
0.0461919
-0.102913
0.0456747
-0.104149
0.0469549
0.0452103
0.0491707
0.161048
0.0508481
0.108923
0.0555532
0.0735755
0.0589428
-0.112586
0.0553979
-0.218535
0.0508457
-0.00639504
0.0850894
0.0766404
0.0599414
0.0830444
0.0815224
0.08164
0.0759369
0.0767861
0.0371639
0.0673193
-0.00559923
0.0545431
-0.0476485
0.0472658
-0.0615484
0.039645
-0.0558715
0.0315072
-0.0579596
0.0278677
-0.0521384
0.0317795
-0.0697829
0.0441007
0.0067574
0.0480282
0.0649012
0.0480204
0.111014
0.0488024
0.117718
0.0513082
0.0295062
0.0525186
-0.0158207
0.0497416
-0.0850798
0.0469076
-0.135558
0.0461128
-0.102118
0.0448918
-0.102928
0.0454931
0.0446091
0.0475966
0.158945
0.0501226
0.106397
0.0553062
0.0683919
0.0583053
-0.115585
0.0543716
-0.214601
0.0495765
-0.00159998
0.0864058
0.0740876
0.0438043
0.0843754
0.0712346
0.0852491
0.0750632
0.0820175
0.0403955
0.0709161
0.00550226
0.0564845
-0.033217
0.0478409
-0.0529048
0.0418999
-0.0499305
0.0339437
-0.0500034
0.0272623
-0.0454571
0.0297456
-0.0722662
0.0446344
-0.00813138
0.0511028
0.0584328
0.0507689
0.111348
0.0516483
0.116839
0.0531647
0.0279898
0.0529115
-0.0155675
0.0493784
-0.0815468
0.0463729
-0.132553
0.045548
-0.101293
0.0438187
-0.101198
0.0442364
0.0441914
0.0465079
0.156673
0.0498712
0.103034
0.0551103
0.0631527
0.0574786
-0.117954
0.053032
-0.210154
0.0479992
0.00343282
0.0875224
0.0638559
0.0773205
0.05777
0.0813555
0.0710283
0.0794906
0.0422603
0.0698298
0.0151631
0.0565891
-0.0199763
0.0478168
-0.0441325
0.0434658
-0.0455795
0.0379299
-0.0444675
0.0292076
-0.0367348
0.0275677
-0.0706262
0.0423971
-0.0229608
0.0521927
0.0486371
0.0535657
0.109975
0.0534752
0.116929
0.0551063
0.0263587
0.0542723
-0.0147335
0.0497547
-0.0770292
0.0458655
-0.128663
0.0446803
-0.100108
0.0425546
-0.0990727
0.0430063
0.0437398
0.0452652
0.154414
0.0494874
0.0988115
0.0549188
0.0577213
0.0566136
-0.119649
0.0516132
-0.205154
0.0462826
0.00876338
0.0884212
0.0575951
0.0498169
0.0650662
0.0635571
0.0719162
0.0354104
0.0715806
0.0154986
0.0669469
-0.0153426
0.0597872
-0.0369728
0.0535527
-0.039345
0.0493995
-0.0403143
0.0403416
-0.0276769
0.0347557
-0.0650403
0.0402351
-0.0284402
0.0424475
0.0464247
0.0411532
0.111269
0.0459935
0.112089
0.0555347
0.0168175
0.0583764
-0.0175751
0.0562447
-0.0748975
0.0520362
-0.124455
0.0488757
-0.0969475
0.0414017
-0.0915987
0.0351336
0.0500078
0.0373278
0.15222
0.0446927
0.0914465
0.05245
0.049964
0.0548466
-0.122045
0.0472816
-0.197589
0.0402701
0.0157749
0.0891728
0.0600903
0.0401221
0.0689645
0.054683
0.075683
0.0286918
0.0750446
0.016137
0.0692494
-0.00954735
0.0606908
-0.0284142
0.0544637
-0.0331178
0.0519637
-0.0378144
0.0443956
-0.0201088
0.0394508
-0.0600956
0.0444933
-0.0334826
0.0467833
0.0441347
0.0462868
0.111766
0.0529056
0.10547
0.0623814
0.00734163
0.0644573
-0.019651
0.0608792
-0.0713194
0.0556303
-0.119206
0.0516688
-0.0929861
0.0439093
-0.0838391
0.0362675
0.0576496
0.0395148
0.148973
0.0487271
0.0822342
0.0569718
0.0417193
0.058302
-0.123375
0.0492685
-0.188555
0.0414053
0.0236382
0.0897993
0.0625242
0.0284295
0.0726177
0.0445895
0.0785628
0.0227467
0.0771109
0.0175889
0.0723972
-0.00483369
0.0661949
-0.0222119
0.0607377
-0.0276606
0.0593058
-0.0363824
0.051799
-0.012602
0.0450193
-0.0533158
0.0493664
-0.0378298
0.051658
0.0418431
0.0527212
0.110703
0.0608293
0.097362
0.0699814
-0.00181048
0.0707885
-0.0204581
0.0656457
-0.0661766
0.0591842
-0.112744
0.0544466
-0.0882485
0.0464478
-0.0758402
0.0378205
0.0662769
0.042279
0.144514
0.0532581
0.071255
0.0618292
0.0331483
0.0617796
-0.123326
0.0509572
-0.177733
0.0421537
0.0324416
0.090104
0.0656004
0.0175322
0.0747338
0.0354561
0.0782404
0.0192401
0.0769829
0.0188464
0.0738816
-0.00173241
0.0688641
-0.0171944
0.062004
-0.0208005
0.0604628
-0.0348412
0.0554825
-0.00762168
0.0495111
-0.0473444
0.0541328
-0.0424515
0.0562662
0.0397097
0.0596228
0.107346
0.0699464
0.0870384
0.077165
-0.00902909
0.076591
-0.0198841
0.070539
-0.0601246
0.0622356
-0.104441
0.0559101
-0.081923
0.047598
-0.0675281
0.0390389
0.074836
0.0456818
0.137871
0.0580852
0.0588515
0.0667161
0.0245174
0.0651767
-0.121786
0.0523606
-0.164917
0.0426969
0.0421053
0.0899245
0.0661925
0.0102196
0.0730065
0.0286421
0.0757325
0.016514
0.076564
0.0180149
0.0755582
-0.000726621
0.0739871
-0.0156233
0.0676988
-0.0145122
0.0664543
-0.0335967
0.0639353
-0.00510268
0.054949
-0.0383581
0.0561138
-0.0436163
0.0606698
0.0351537
0.0683672
0.0996487
0.0793723
0.0760333
0.0841537
-0.0138105
0.082231
-0.0179614
0.0750976
-0.0529912
0.065379
-0.0947224
0.0577498
-0.0742938
0.0490183
-0.0587966
0.0412196
0.0826347
0.0504803
0.128611
0.0635217
0.0458101
0.0718112
0.016228
0.0684599
-0.118435
0.0532942
-0.149751
0.043002
0.0523976
0.0889386
0.0666938
0.00718688
0.0715415
0.0237944
0.0759012
0.0121543
0.0797191
0.014197
0.078946
4.64951e-05
0.0763256
-0.0130029
0.0694588
-0.00764539
0.0669984
-0.0311363
0.0673101
-0.00541437
0.0582815
-0.0293295
0.0548363
-0.040171
0.0621949
0.027795
0.0756945
0.0861492
0.0883354
0.0633924
0.089832
-0.0153071
0.0852684
-0.0133978
0.078885
-0.0466079
0.0681089
-0.0839462
0.0579124
-0.0640973
0.0485024
-0.0493865
0.043623
0.0875141
0.0565097
0.115724
0.0692622
0.0330576
0.0767096
0.00878058
0.0715189
-0.113244
0.0537796
-0.132012
0.0431102
0.0630669
0.0866589
0.0708939
0.00523394
0.07533
0.0193582
0.0788569
0.0086274
0.0822701
0.0107838
0.0824797
-0.000163066
0.0820681
-0.0125913
0.0789746
-0.00455184
0.0747031
-0.0268649
0.0754214
-0.00613263
0.0667641
-0.0206722
0.0562625
-0.0296694
0.0634468
0.0206107
0.0825504
0.0670456
0.0943693
0.0515736
0.0921546
-0.0130924
0.0883822
-0.00962544
0.0841773
-0.0424029
0.0728598
-0.0726287
0.0611385
-0.0523761
0.0502831
-0.0385311
0.0485105
0.0892868
0.0644567
0.0997778
0.0755573
0.021957
0.0816876
0.00265033
0.074149
-0.105706
0.0534106
-0.111274
0.0432733
0.0732042
0.0824184
0.0761563
0.003966
0.0807727
0.0147418
0.0837164
0.00568373
0.0864037
0.00809649
0.0861159
0.000124792
0.0838084
-0.0102839
0.0818688
-0.00261223
0.0771748
-0.0221709
0.0768131
-0.00577095
0.0712216
-0.0150807
0.0611139
-0.0195617
0.0682423
0.0134823
0.0870322
0.0482557
0.0979668
0.040639
0.0953932
-0.0105188
0.0913737
-0.00560598
0.0860071
-0.0370363
0.0723574
-0.058979
0.0600776
-0.0400963
0.050537
-0.0289906
0.0545968
0.0852269
0.0731279
0.0812466
0.0819007
0.0131843
0.0865355
-0.00198447
0.0763886
-0.095559
0.0522536
-0.0871386
0.0440285
0.0814293
0.0755114
0.082662
0.00272882
0.0860764
0.0113274
0.0881098
0.00365035
0.0904278
0.00577847
0.0909172
-0.000364601
0.0885338
-0.0079005
0.0878157
-0.0018941
0.0824575
-0.0168127
0.0811746
-0.00448803
0.0780563
-0.0119625
0.0696739
-0.0111793
0.0749641
0.0081921
0.0904715
0.0327483
0.0994861
0.0316244
0.0954916
-0.00652429
0.0929107
-0.00302509
0.090639
-0.0347647
0.078361
-0.046701
0.0654349
-0.0271701
0.0554236
-0.0189793
0.0639037
0.0767468
0.082759
0.0623913
0.0882507
0.0076926
0.0919447
-0.00567844
0.0788258
-0.0824401
0.0504645
-0.0587773
0.0459143
0.0859794
0.0654563
0.0887771
0.00201863
0.0918986
0.00820585
0.0933997
0.00214923
0.0946146
0.00456355
0.0948665
-0.000616476
0.0924456
-0.0054796
0.0924725
-0.00192102
0.0880041
-0.0123443
0.0870518
-0.00353575
0.0844162
-0.00932688
0.0786964
-0.00545956
0.08245
0.0044385
0.0921931
0.0230052
0.101354
0.0224631
0.100265
-0.00543483
0.0975913
-0.000351532
0.0904551
-0.0276285
0.0772864
-0.0335323
0.06908
-0.0189638
0.0617834
-0.0116826
0.0750117
0.0635185
0.0943073
0.0430956
0.0969928
0.00500716
0.098533
-0.0072187
0.0805203
-0.0644273
0.0496908
-0.0279477
0.0521016
0.0835686
0.0527244
0.0955708
0.00138521
0.0976284
0.00614832
0.0986928
0.00108476
0.0994215
0.00383487
0.0999597
-0.0011547
0.0976606
-0.00318042
0.0979279
-0.00218837
0.0939757
-0.00839205
0.0932636
-0.00282367
0.0913181
-0.00738138
0.087362
-0.00150346
0.0907706
0.00102991
0.0968215
0.0169543
0.104008
0.015277
0.102641
-0.00406796
0.102407
-0.000117489
0.0988576
-0.0240794
0.086687
-0.0213616
0.080957
-0.0132337
0.075055
-0.00578069
0.087468
0.0511055
0.101552
0.029012
0.0989977
0.00756112
0.100881
-0.00910242
0.0866196
-0.0501655
0.0584946
0.000177287
0.0637989
0.0782643
0.0409954
0.102211
0.00110607
0.103939
0.00442062
0.104491
0.00053302
0.10498
0.00334538
0.105248
-0.00142271
0.103224
-0.00115637
0.103689
-0.00265335
0.100694
-0.0053971
0.100143
-0.0022719
0.0989727
-0.00621159
0.096445
0.00102432
0.098333
-0.000858089
0.103202
0.0120856
0.109193
0.00928577
0.107183
-0.00205819
0.106468
0.0005973
0.101837
-0.019448
0.0929642
-0.0124888
0.0902154
-0.0104849
0.0861847
-0.00175004
0.0986535
0.0386368
0.109395
0.0182709
0.105275
0.0116805
0.101535
-0.00536214
0.0860787
-0.0347094
0.0680966
0.0181594
0.0798992
0.0664617
0.0318503
0.109385
0.00085856
0.110454
0.00335097
0.110915
7.26023e-05
0.111088
0.00317227
0.111349
-0.00168365
0.109944
0.000247844
0.110109
-0.00281834
0.107994
-0.0032814
0.107637
-0.00191499
0.106546
-0.00512053
0.105382
0.00218823
0.10698
-0.00245626
0.109701
0.00936482
0.11416
0.00482635
0.113104
-0.00100189
0.11256
0.00114089
0.108663
-0.0155508
0.101407
-0.005233
0.10009
-0.00916739
0.097075
0.00126469
0.106007
0.0297052
0.114723
0.00955474
0.112445
0.0139585
0.110272
-0.00318926
0.098807
-0.0232445
0.0866683
0.0302981
0.0982803
0.0548498
0.0251599
0.116884
0.000669018
0.117639
0.00259667
0.117899
-0.000187677
0.118142
0.00292867
0.118216
-0.00175669
0.117316
0.00114736
0.11722
-0.00272212
0.115834
-0.00189609
0.115426
-0.00150624
0.114667
-0.00436197
0.114284
0.0025713
0.114983
-0.00315508
0.117293
0.00705437
0.120258
0.00186193
0.119104
0.000152228
0.118697
0.00154722
0.115328
-0.0121812
0.110316
-0.000221056
0.108905
-0.00775673
0.107447
0.00272241
0.114316
0.0228361
0.119375
0.00449671
0.118336
0.0149974
0.115119
2.76325e-05
0.106401
-0.0145272
0.103009
0.0336907
0.113384
0.0444743
0.0214323
0.124927
0.000456395
0.125488
0.00203569
0.125596
-0.000295613
0.126007
0.00251754
0.125756
-0.00150542
0.125566
0.0013366
0.125054
-0.00220948
0.124322
-0.00116412
0.123911
-0.00109566
0.123044
-0.00349525
0.123414
0.00220168
0.123388
-0.00312849
0.125229
0.00521333
0.126684
0.000406836
0.126409
0.000426829
0.126059
0.00189708
0.122912
-0.00903425
0.120386
0.00230521
0.118292
-0.00566248
0.117805
0.00320897
0.123107
0.0175344
0.1254
0.00220309
0.126448
0.0139499
0.123067
0.00340848
0.116061
-0.00752075
0.117748
0.0320032
0.126227
0.0359955
0.0194327
0.133494
0.000302884
0.134009
0.00152061
0.133986
-0.00027229
0.134507
0.00199582
0.134174
-0.0011725
0.134277
0.00123425
0.133739
-0.00167188
0.133239
-0.000664384
0.132935
-0.000790865
0.132077
-0.00263733
0.132609
0.00166965
0.132173
-0.00269269
0.133649
0.00373731
0.134402
-0.000345761
0.134165
0.000663134
0.134165
0.00189758
0.13147
-0.00633902
0.130329
0.00344607
0.128252
-0.00358602
0.12818
0.0032811
0.132365
0.0133501
0.132936
0.00163128
0.134166
0.0127204
0.132044
0.0055305
0.126585
-0.00206202
0.130627
0.0279615
0.137163
0.0294597
0.0181928
0.142713
0.000173936
0.143162
0.00107186
0.143097
-0.000206913
0.143641
0.00145161
0.143271
-0.000803146
0.143533
0.000972505
0.143003
-0.00114222
0.142707
-0.000368342
0.142455
-0.000538567
0.141649
-0.00183156
0.142164
0.00115454
0.141578
-0.00210588
0.142702
0.00261252
0.142854
-0.000497231
0.142894
0.000622671
0.142945
0.00184682
0.140687
-0.00408106
0.140565
0.00356806
0.138651
-0.0016718
0.138749
0.00318327
0.141786
0.0103127
0.141441
0.00197627
0.14311
0.0110519
0.141718
0.00692217
0.137637
0.0020189
0.142089
0.0235094
0.147354
0.0241947
0.017126
0.152604
9.55518e-05
0.152981
0.000695033
0.152917
-0.000143538
0.153358
0.00101145
0.153087
-0.00053272
0.153307
0.00075306
0.152926
-0.000761575
0.152686
-0.00012819
0.152493
-0.000345553
0.15186
-0.00119864
0.152193
0.000821402
0.151633
-0.00154606
0.152406
0.00183988
0.152355
-0.000446104
0.152381
0.000595928
0.152516
0.00171232
0.150795
-0.00235973
0.150994
0.00336893
0.149532
-0.000210099
0.149592
0.00312301
0.151771
0.00813387
0.151209
0.00253886
0.152653
0.00960767
0.15205
0.00752499
0.14931
0.0047584
0.153318
0.0195022
0.157502
0.0200103
0.0159623
0.16322
3.89502e-05
0.163485
0.000430619
0.163443
-0.000102035
0.163766
0.000688049
0.163569
-0.000335657
0.163741
0.000581338
0.163447
-0.000467736
0.163297
2.15979e-05
0.163123
-0.000171569
0.162654
-0.000729497
0.162852
0.000623757
0.162366
-0.00106009
0.1629
0.0013061
0.162705
-0.000251475
0.162748
0.000553343
0.162879
0.00158094
0.16159
-0.00107035
0.161925
0.0030338
0.160875
0.000839511
0.160914
0.0030847
0.162458
0.00658971
0.161875
0.00312183
0.16316
0.00832269
0.163131
0.00755333
0.16152
0.00637005
0.164719
0.0163032
0.168073
0.0166564
0.0146402
0.174572
3.16993e-06
0.174732
0.000270569
0.17471
-7.97244e-05
0.174912
0.000486097
0.174783
-0.000206802
0.174899
0.000465488
0.174689
-0.000257706
0.174594
0.000116528
0.174443
-2.03107e-05
0.174121
-0.000407649
0.174224
0.000520246
0.173823
-0.000658844
0.174172
0.000957625
0.173948
-2.7859e-05
0.173959
0.000542201
0.174073
0.00146654
0.173179
-0.000176309
0.17348
0.00273368
0.172808
0.00151107
0.172828
0.00306448
0.173909
0.00550936
0.173524
0.0035066
0.174648
0.00719883
0.174915
0.00728555
0.174179
0.00710654
0.176712
0.0137699
0.179402
0.0139668
0.0132027
0.186696
-1.68622e-05
0.186778
0.000188182
0.186756
-5.68492e-05
0.18688
0.000361237
0.186779
-0.000105147
0.186866
0.000378244
0.186701
-9.24284e-05
0.186658
0.000159678
0.186536
0.000101178
0.186315
-0.000186198
0.186379
0.000455502
0.186051
-0.000330541
0.186284
0.000724873
0.186059
0.000197131
0.186046
0.000555245
0.186142
0.0013699
0.185532
0.000434468
0.185805
0.00246006
0.185424
0.00189194
0.185477
0.00301192
0.186285
0.00470142
0.186091
0.00370008
0.186997
0.00629369
0.187481
0.00680112
0.18742
0.00716719
0.189497
0.011693
0.191615
0.0118495
0.0117421
0.199632
-1.71658e-05
0.199666
0.000154054
0.199638
-2.88654e-05
0.199709
0.000290407
0.199628
-2.37277e-05
0.199689
0.000316743
0.199568
2.88235e-05
0.199552
0.000175792
0.199466
0.000186773
0.199319
-3.89544e-05
0.199362
0.000412493
0.199114
-8.23208e-05
0.199253
0.000585004
0.199071
0.000379654
0.199033
0.000593451
0.199107
0.00129614
0.198722
0.000818748
0.198973
0.00220901
0.198817
0.00204866
0.198955
0.00287357
0.199577
0.00407976
0.199554
0.0037227
0.200305
0.00554221
0.200896
0.00621018
0.201299
0.00676494
0.20309
0.00990177
0.204795
0.0101444
0.0103288
0.213436
-1.1183e-06
0.213453
0.00013673
0.213415
9.56659e-06
0.213463
0.000241975
0.213392
4.70843e-05
0.213439
0.000269533
0.213354
0.000114542
0.213345
0.000184581
0.213298
0.000234066
0.213191
6.76762e-05
0.21323
0.000372972
0.213052
9.6454e-05
0.213135
0.000501816
0.213019
0.000495942
0.212971
0.000640945
0.213054
0.0012134
0.212838
0.0010343
0.213061
0.00198625
0.213069
0.00204051
0.213273
0.0026695
0.213787
0.00356593
0.213952
0.00355793
0.214614
0.00488024
0.215243
0.0055809
0.215898
0.00611028
0.217501
0.00829855
0.218965
0.00868036
0.00897861
0.228175
2.09206e-05
0.228186
0.000126568
0.22815
4.52424e-05
0.228185
0.000207299
0.228134
9.758e-05
0.228167
0.000236399
0.228117
0.000164969
0.228109
0.000192402
0.22809
0.000253128
0.228017
0.000140736
0.228049
0.000340875
0.227939
0.0002066
0.227987
0.000453894
0.227937
0.000545706
0.227915
0.000662633
0.228013
0.00111573
0.227931
0.00111585
0.228145
0.00177236
0.228254
0.00193184
0.228505
0.00241804
0.228983
0.00308829
0.229285
0.0032561
0.229931
0.00423394
0.230621
0.00489149
0.231372
0.00535897
0.232777
0.006893
0.23412
0.00733793
0.0076608
0.243919
4.25274e-05
0.243931
0.000114705
0.243905
7.20012e-05
0.243933
0.00017866
0.243906
0.000124809
0.24393
0.000212108
0.243913
0.000182011
0.243907
0.000199042
0.243912
0.000247339
0.243867
0.000186495
0.243896
0.00031168
0.243845
0.000257597
0.243877
0.000421631
0.243889
0.000533771
0.243904
0.000647868
0.244024
0.00099592
0.244057
0.00108285
0.244271
0.00155807
0.244457
0.00174575
0.244751
0.00212449
0.24521
0.00262866
0.245617
0.00284955
0.246283
0.00356764
0.247029
0.00414512
0.247816
0.00457229
0.249056
0.00565318
0.250334
0.00606024
0.00636267
0.260751
5.49319e-05
0.260765
0.000100953
0.260752
8.44781e-05
0.26078
0.00015113
0.260773
0.00013175
0.260799
0.000186118
0.260803
0.000177164
0.26081
0.000192425
0.260832
0.000225443
0.260817
0.000201238
0.260853
0.000276211
0.260845
0.000265582
0.260887
0.000379138
0.260939
0.00048148
0.260995
0.000592033
0.261142
0.000848918
0.261257
0.000968628
0.261495
0.00131928
0.261748
0.0014926
0.262082
0.00179057
0.262551
0.00215971
0.263032
0.00236917
0.263705
0.00289409
0.264486
0.00336452
0.265318
0.00373996
0.266463
0.0045081
0.267687
0.00483663
0.00508885
0.278746
5.57644e-05
0.278762
8.51065e-05
0.278766
8.07423e-05
0.278794
0.000123095
0.278807
0.000118654
0.278839
0.000154028
0.278863
0.000153712
0.278888
0.000167385
0.278923
0.0001903
0.278941
0.000183598
0.278986
0.000231013
0.279014
0.00023684
0.279077
0.000316907
0.279159
0.000399499
0.279259
0.000492079
0.27943
0.000677892
0.279607
0.000791285
0.279883
0.00104331
0.28019
0.00118589
0.280573
0.00140745
0.281064
0.00166841
0.281593
0.00184028
0.282278
0.0022096
0.28308
0.00256227
0.283954
0.00286585
0.28506
0.00340237
0.286252
0.00364442
0.00383585
0.297987
4.56074e-05
0.298009
6.28584e-05
0.298026
6.34962e-05
0.29806
8.91902e-05
0.298089
9.01028e-05
0.29813
0.000112699
0.29817
0.000114079
0.298211
0.000125608
0.298262
0.000139494
0.298305
0.000140557
0.298367
0.000169398
0.298425
0.000178159
0.29851
0.000232125
0.298621
0.000289013
0.298756
0.000356795
0.298955
0.000479103
0.299183
0.000563417
0.299496
0.000730389
0.299851
0.000830282
0.30028
0.000978673
0.3008
0.00114871
0.301372
0.00126801
0.302076
0.00150564
0.302896
0.00174232
0.303808
0.00195386
0.304912
0.00229772
0.306098
0.00245881
0.00258654
0.31857
2.60879e-05
0.318599
3.42527e-05
0.318627
3.56256e-05
0.318668
4.76998e-05
0.318709
4.95524e-05
0.318761
6.03713e-05
0.318813
6.20827e-05
0.31887
6.82569e-05
0.318934
7.53607e-05
0.318997
7.7508e-05
0.319076
9.12093e-05
0.319156
9.73498e-05
0.319264
0.000124419
0.319399
0.00015415
0.319566
0.000190021
0.319794
0.00025135
0.32006
0.000297294
0.320409
0.000381288
0.320806
0.000433354
0.321276
0.000508774
0.321831
0.000593206
0.322444
0.000654934
0.323177
0.000773123
0.324026
0.000892576
0.324978
0.00100183
0.326104
0.00117258
0.327308
0.00125398
0.00131887
0.340616
0.340651
0.340686
0.340734
0.340784
0.340844
0.340906
0.340974
0.34105
0.341127
0.341218
0.341316
0.34144
0.341594
0.341784
0.342036
0.342333
0.342714
0.343148
0.343656
0.34425
0.344904
0.345678
0.34657
0.347572
0.348745
0.349999
)
;

boundaryField
{
    outlet
    {
        type            calculated;
        value           nonuniform List<scalar> 
40
(
0.0531924
0.0529703
0.0525705
0.0520625
0.0513494
0.0505248
0.0494303
0.0482601
0.0468825
0.0453839
0.0395184
0.0407788
0.041849
0.0428764
0.0439879
0.0453899
0.0475138
0.0509355
0.0559694
0.0648336
0.0755278
0.0890444
0.104971
0.117112
0.128226
0.138403
0.148421
0.158666
0.169395
0.180839
0.193075
0.206208
0.220315
0.235438
0.251632
0.268961
0.287505
0.307347
0.328576
0.351317
)
;
    }
    upperWall
    {
        type            symmetryPlane;
        value           uniform 0;
    }
    lowerWall
    {
        type            symmetryPlane;
        value           nonuniform 0();
    }
    inlet
    {
        type            calculated;
        value           nonuniform 0();
    }
    cylinder
    {
        type            calculated;
        value           nonuniform 0();
    }
    frontAndBack
    {
        type            empty;
        value           nonuniform 0();
    }
    procBoundary7to3
    {
        type            processor;
        value           nonuniform List<scalar> 
30
(
-0.0916382
-0.0863143
-0.0891943
-0.0523963
-0.00442197
0.0466091
0.0894435
0.0835988
0.116699
0.0986863
0.0595209
0.0254083
-0.0610491
-0.0697996
-0.115305
-0.134919
-0.0450571
-0.0183011
0.0871164
0.152262
0.101658
0.0928579
-0.0614785
-0.169765
-0.108505
-0.0970986
0.0841182
0.236644
0.0305907
-0.073754
)
;
    }
    procBoundary7to6
    {
        type            processor;
        value           nonuniform List<scalar> 
42
(
-0.0395875
-0.0432645
-0.0478216
-0.0515119
-0.0548516
-0.0564111
0.0625536
-0.0669274
-0.0641235
-0.0579505
-0.0476645
0.0276129
-0.049642
-0.0503955
-0.0508316
-0.0547031
-0.0588798
-0.0636611
-0.0689409
-0.0748883
-0.0814248
-0.0880669
-0.0949374
-0.101932
-0.109137
-0.116695
-0.124714
-0.13334
-0.142584
-0.152526
-0.163163
-0.174536
-0.186676
-0.199632
-0.213452
-0.228197
-0.243941
-0.260763
-0.278747
-0.297976
-0.318551
-0.34059
)
;
    }
}


// ************************************************************************* //
