/*--------------------------------*- C++ -*----------------------------------*\
| =========                 |                                                 |
| \\      /  F ield         | OpenFOAM: The Open Source CFD Toolbox           |
|  \\    /   O peration     | Version:                                        |
|   \\  /    A nd           | Website:  www.openfoam.com                      |
|    \\/     M anipulation  |                                                 |
\*---------------------------------------------------------------------------*/
FoamFile
{
    version     2.0;
    format      ascii;
    class       volScalarField;
    location    "0.4";
    object      p;
}
// * * * * * * * * * * * * * * * * * * * * * * * * * * * * * * * * * * * * * //

dimensions      [0 2 -2 0 0 0 0];


internalField   nonuniform List<scalar> 
400
(
0.276676
0.268759
0.260909
0.253124
0.245402
0.23774
0.230136
0.22259
0.215098
0.20766
0.200273
0.192937
0.185648
0.178408
0.171212
0.164062
0.156955
0.14989
0.142866
0.135882
0.276835
0.268911
0.261054
0.253263
0.245534
0.237867
0.230258
0.222706
0.21521
0.207767
0.200376
0.193035
0.185742
0.178497
0.171299
0.164144
0.157034
0.149965
0.142938
0.135951
0.276971
0.269041
0.261178
0.253381
0.245647
0.237975
0.230361
0.222805
0.215304
0.207857
0.200462
0.193117
0.185822
0.178573
0.171371
0.164213
0.1571
0.150028
0.142998
0.136008
0.277083
0.269147
0.26128
0.253478
0.245739
0.238062
0.230445
0.222885
0.215381
0.20793
0.200531
0.193184
0.185885
0.178633
0.171428
0.164268
0.157152
0.150077
0.143045
0.136052
0.277188
0.269246
0.261373
0.253567
0.245824
0.238143
0.230521
0.222958
0.21545
0.207996
0.200594
0.193243
0.185941
0.178687
0.17148
0.164317
0.157198
0.150121
0.143086
0.136092
0.277291
0.269344
0.261466
0.253654
0.245907
0.238221
0.230596
0.223028
0.215517
0.208059
0.200655
0.193301
0.185996
0.178739
0.171529
0.164363
0.157242
0.150163
0.143126
0.136129
0.277397
0.269444
0.26156
0.253743
0.24599
0.2383
0.230671
0.223099
0.215584
0.208123
0.200715
0.193358
0.18605
0.178791
0.171577
0.16441
0.157286
0.150204
0.143165
0.136166
0.27751
0.269549
0.261659
0.253836
0.246078
0.238383
0.230749
0.223173
0.215654
0.208189
0.200778
0.193417
0.186107
0.178844
0.171628
0.164458
0.157331
0.150247
0.143206
0.136205
0.277631
0.269662
0.261765
0.253936
0.246172
0.238472
0.230832
0.223252
0.215728
0.20826
0.200845
0.193481
0.186167
0.178901
0.171682
0.164509
0.15738
0.150294
0.14325
0.136247
0.277761
0.269785
0.26188
0.254043
0.246273
0.238567
0.230922
0.223337
0.215809
0.208336
0.200917
0.193549
0.186232
0.178963
0.171741
0.164565
0.157433
0.150344
0.143298
0.136292
0.277901
0.269915
0.262002
0.254158
0.246382
0.238669
0.231018
0.223428
0.215895
0.208417
0.200994
0.193622
0.186301
0.179029
0.171804
0.164625
0.15749
0.150399
0.143349
0.136341
0.278047
0.270052
0.262131
0.254279
0.246495
0.238776
0.23112
0.223523
0.215985
0.208503
0.201075
0.193699
0.186375
0.179099
0.17187
0.164688
0.15755
0.150456
0.143405
0.136393
0.278196
0.270192
0.262262
0.254402
0.246611
0.238885
0.231223
0.223621
0.216078
0.208591
0.201159
0.193779
0.18645
0.179171
0.171939
0.164754
0.157613
0.150516
0.143462
0.136448
0.278343
0.27033
0.262391
0.254524
0.246726
0.238994
0.231326
0.223718
0.21617
0.208678
0.201242
0.193858
0.186525
0.179242
0.172007
0.164819
0.157676
0.150576
0.143519
0.136502
0.278482
0.27046
0.262514
0.25464
0.246835
0.239097
0.231423
0.223811
0.216258
0.208762
0.201321
0.193934
0.186598
0.179311
0.172073
0.164882
0.157736
0.150634
0.143575
0.136555
0.278608
0.270579
0.262626
0.254745
0.246935
0.239192
0.231513
0.223896
0.216338
0.208839
0.201394
0.194003
0.186664
0.179375
0.172134
0.16494
0.157791
0.150687
0.143626
0.136603
0.278716
0.27068
0.262721
0.254836
0.247021
0.239273
0.23159
0.223969
0.216408
0.208905
0.201457
0.194063
0.186721
0.179429
0.172186
0.16499
0.157839
0.150734
0.14367
0.136645
0.2788
0.27076
0.262797
0.254907
0.247088
0.239337
0.231651
0.224027
0.216463
0.208957
0.201507
0.194111
0.186767
0.179473
0.172228
0.16503
0.157877
0.15077
0.143705
0.136679
0.278859
0.270816
0.262849
0.254957
0.247135
0.239382
0.231693
0.224067
0.216501
0.208994
0.201542
0.194144
0.186798
0.179503
0.172257
0.165058
0.157904
0.150796
0.14373
0.136702
0.278889
0.270844
0.262876
0.254982
0.247159
0.239404
0.231715
0.224088
0.216521
0.209012
0.20156
0.194161
0.186815
0.179519
0.172272
0.165072
0.157918
0.150809
0.143742
0.136714
)
;

boundaryField
{
    fixedWalls
    {
        type            zeroGradient;
    }
    inlet
    {
        type            zeroGradient;
    }
    outlet
    {
        type            fixedValue;
        value           nonuniform 0();
    }
    frontAndBack
    {
        type            empty;
    }
    procBoundary2to1
    {
        type            processor;
        value           nonuniform List<scalar> 
20
(
0.284662
0.284829
0.284972
0.28509
0.2852
0.28531
0.285423
0.285543
0.285673
0.285813
0.285962
0.286119
0.286278
0.286434
0.286583
0.286717
0.286831
0.286921
0.286983
0.287015
)
;
    }
    procBoundary2to3
    {
        type            processor;
        value           nonuniform List<scalar> 
20
(
0.128937
0.129002
0.129057
0.129099
0.129136
0.129171
0.129206
0.129242
0.129282
0.129325
0.129372
0.129423
0.129475
0.129527
0.129578
0.129625
0.129666
0.129699
0.129721
0.129733
)
;
    }
    procBoundary2to6
    {
        type            processor;
        value           nonuniform List<scalar> 
20
(
0.278889
0.270844
0.262876
0.254982
0.247159
0.239404
0.231715
0.224088
0.216521
0.209012
0.20156
0.194161
0.186815
0.179519
0.172272
0.165072
0.157918
0.150809
0.143742
0.136714
)
;
    }
}


// ************************************************************************* //
