/*--------------------------------*- C++ -*----------------------------------*\
| =========                 |                                                 |
| \\      /  F ield         | OpenFOAM: The Open Source CFD Toolbox           |
|  \\    /   O peration     | Version:                                        |
|   \\  /    A nd           | Website:  www.openfoam.com                      |
|    \\/     M anipulation  |                                                 |
\*---------------------------------------------------------------------------*/
FoamFile
{
    version     2.0;
    format      ascii;
    class       surfaceScalarField;
    location    "0.4";
    object      phi;
}
// * * * * * * * * * * * * * * * * * * * * * * * * * * * * * * * * * * * * * //

dimensions      [0 3 -1 0 0 0 0];
oriented        oriented;


internalField   nonuniform List<scalar> 
760
(
2.11588e-06
9.74447e-09
2.10656e-06
9.31742e-09
2.09764e-06
8.91453e-09
2.08911e-06
8.53401e-09
2.08094e-06
8.17403e-09
2.0731e-06
7.83276e-09
2.06559e-06
7.50866e-09
2.05839e-06
7.2004e-09
2.05149e-06
6.90663e-09
2.04486e-06
6.62601e-09
2.0385e-06
6.35774e-09
2.0324e-06
6.10089e-09
2.02655e-06
5.85431e-09
2.02093e-06
5.61744e-09
2.01554e-06
5.3889e-09
2.01037e-06
5.16888e-09
2.00542e-06
4.9548e-09
2.00067e-06
4.74975e-09
1.99612e-06
4.54563e-09
4.35154e-09
6.10004e-06
3.68014e-08
6.07419e-06
3.51674e-08
6.04948e-06
3.36274e-08
6.02584e-06
3.21736e-08
6.00321e-06
3.07991e-08
5.98155e-06
2.94967e-08
5.9608e-06
2.82603e-08
5.94091e-06
2.70844e-08
5.92186e-06
2.59641e-08
5.90359e-06
2.48947e-08
5.88607e-06
2.38722e-08
5.86928e-06
2.2893e-08
5.85318e-06
2.19531e-08
5.83775e-06
2.10494e-08
5.82296e-06
2.01779e-08
5.80879e-06
1.93381e-08
5.79522e-06
1.85232e-08
5.78223e-06
1.77391e-08
5.76981e-06
1.69665e-08
1.6224e-08
9.83246e-06
7.87772e-08
9.79239e-06
7.52469e-08
9.75409e-06
7.19218e-08
9.71748e-06
6.87844e-08
9.68246e-06
6.5819e-08
9.64895e-06
6.30103e-08
9.61686e-06
6.03449e-08
9.58614e-06
5.78106e-08
9.5567e-06
5.53968e-08
9.5285e-06
5.30933e-08
9.50148e-06
5.08911e-08
9.4756e-06
4.87819e-08
9.45079e-06
4.67575e-08
9.42703e-06
4.48111e-08
9.40427e-06
4.2935e-08
9.38248e-06
4.11265e-08
9.36163e-06
3.93737e-08
9.34169e-06
3.76843e-08
9.32263e-06
3.60283e-08
3.44267e-08
1.33064e-05
1.32916e-07
1.32547e-05
1.26917e-07
1.32054e-05
1.21269e-07
1.31582e-05
1.15942e-07
1.31131e-05
1.10908e-07
1.307e-05
1.06142e-07
1.30287e-05
1.01619e-07
1.29892e-05
9.73208e-08
1.29514e-05
9.32275e-08
1.29151e-05
8.93221e-08
1.28804e-05
8.55889e-08
1.28472e-05
8.20136e-08
1.28154e-05
7.85827e-08
1.27849e-05
7.52844e-08
1.27557e-05
7.21064e-08
1.27278e-05
6.90428e-08
1.27011e-05
6.60763e-08
1.26756e-05
6.32144e-08
1.26512e-05
6.0419e-08
5.77053e-08
1.65135e-05
1.96005e-07
1.64533e-05
1.87115e-07
1.63958e-05
1.78748e-07
1.63409e-05
1.70857e-07
1.62884e-05
1.63401e-07
1.62382e-05
1.56342e-07
1.61901e-05
1.49646e-07
1.61442e-05
1.43281e-07
1.61002e-05
1.37222e-07
1.60581e-05
1.31441e-07
1.60177e-05
1.25917e-07
1.59791e-05
1.20626e-07
1.59422e-05
1.1555e-07
1.59068e-05
1.10671e-07
1.58729e-05
1.05972e-07
1.58405e-05
1.01441e-07
1.58095e-05
9.7058e-08
1.57799e-05
9.28267e-08
1.57516e-05
8.87057e-08
8.46972e-08
1.94451e-05
2.64352e-07
1.93798e-05
2.52334e-07
1.93176e-05
2.41021e-07
1.92581e-05
2.30352e-07
1.92012e-05
2.2027e-07
1.91468e-05
2.10725e-07
1.90948e-05
2.0167e-07
1.9045e-05
1.93064e-07
1.89974e-05
1.84869e-07
1.89518e-05
1.77053e-07
1.89081e-05
1.69582e-07
1.88663e-05
1.62428e-07
1.88263e-05
1.55566e-07
1.8788e-05
1.48972e-07
1.87513e-05
1.42622e-07
1.87163e-05
1.36501e-07
1.86827e-05
1.30581e-07
1.86507e-05
1.24864e-07
1.86201e-05
1.1931e-07
1.13904e-07
2.20936e-05
3.3384e-07
2.20272e-05
3.18669e-07
2.19639e-05
3.04385e-07
2.19033e-05
2.90907e-07
2.18454e-05
2.78167e-07
2.17901e-05
2.66102e-07
2.17371e-05
2.54653e-07
2.16864e-05
2.43771e-07
2.16378e-05
2.33408e-07
2.15914e-05
2.2352e-07
2.15469e-05
2.14071e-07
2.15043e-05
2.05022e-07
2.14635e-05
1.96343e-07
2.14245e-05
1.88002e-07
2.13871e-05
1.79973e-07
2.13514e-05
1.72232e-07
2.13172e-05
1.64751e-07
2.12846e-05
1.57523e-07
2.12534e-05
1.50511e-07
1.43692e-07
2.44539e-05
4.00071e-07
2.43907e-05
3.81955e-07
2.43302e-05
3.64884e-07
2.42723e-05
3.48766e-07
2.42169e-05
3.33521e-07
2.4164e-05
3.19075e-07
2.41133e-05
3.05362e-07
2.40647e-05
2.92322e-07
2.40182e-05
2.79899e-07
2.39737e-05
2.68043e-07
2.39311e-05
2.5671e-07
2.38902e-05
2.45857e-07
2.38511e-05
2.35446e-07
2.38137e-05
2.2544e-07
2.37779e-05
2.15809e-07
2.37436e-05
2.06523e-07
2.37108e-05
1.97554e-07
2.36794e-05
1.88883e-07
2.36494e-05
1.80482e-07
1.72321e-07
2.6525e-05
4.58598e-07
2.6469e-05
4.37969e-07
2.64153e-05
4.18509e-07
2.6364e-05
4.00117e-07
2.63148e-05
3.82705e-07
2.62677e-05
3.66192e-07
2.62225e-05
3.50505e-07
2.61793e-05
3.35578e-07
2.61378e-05
3.2135e-07
2.60981e-05
3.07765e-07
2.60601e-05
2.94775e-07
2.60236e-05
2.8233e-07
2.59886e-05
2.70391e-07
2.59552e-05
2.58913e-07
2.59231e-05
2.47867e-07
2.58924e-05
2.37213e-07
2.5863e-05
2.26927e-07
2.58349e-05
2.16978e-07
2.58081e-05
2.07346e-07
1.98001e-07
2.83106e-05
5.05205e-07
2.82658e-05
4.827e-07
2.82229e-05
4.61438e-07
2.81817e-05
4.41316e-07
2.81422e-05
4.22243e-07
2.81042e-05
4.04135e-07
2.80678e-05
3.86916e-07
2.80329e-05
3.70516e-07
2.79993e-05
3.54873e-07
2.79672e-05
3.39927e-07
2.79363e-05
3.25628e-07
2.79067e-05
3.11922e-07
2.78784e-05
2.98769e-07
2.78512e-05
2.86119e-07
2.78251e-05
2.73945e-07
2.78001e-05
2.62198e-07
2.77762e-05
2.5086e-07
2.77533e-05
2.39889e-07
2.77313e-05
2.2927e-07
2.1898e-07
2.98203e-05
5.36217e-07
2.97904e-05
5.12628e-07
2.97615e-05
4.90302e-07
2.97337e-05
4.69138e-07
2.97069e-05
4.49047e-07
2.96811e-05
4.29946e-07
2.96562e-05
4.11761e-07
2.96323e-05
3.94422e-07
2.96093e-05
3.77868e-07
2.95872e-05
3.62038e-07
2.9566e-05
3.46882e-07
2.95455e-05
3.32345e-07
2.95259e-05
3.18389e-07
2.95071e-05
3.0496e-07
2.9489e-05
2.92033e-07
2.94716e-05
2.79555e-07
2.9455e-05
2.67509e-07
2.9439e-05
2.55852e-07
2.94237e-05
2.44568e-07
2.33644e-07
3.10698e-05
5.4878e-07
3.10574e-05
5.24996e-07
3.10453e-05
5.02437e-07
3.10334e-05
4.81012e-07
3.10218e-05
4.60638e-07
3.10105e-05
4.41238e-07
3.09995e-05
4.22741e-07
3.09889e-05
4.05083e-07
3.09785e-05
3.88205e-07
3.09685e-05
3.72049e-07
3.09588e-05
3.56568e-07
3.09495e-05
3.41707e-07
3.09404e-05
3.27432e-07
3.09317e-05
3.13688e-07
3.09233e-05
3.00452e-07
3.09152e-05
2.87669e-07
3.09073e-05
2.75329e-07
3.08998e-05
2.63383e-07
3.08926e-05
2.51817e-07
2.40626e-07
3.20799e-05
5.41082e-07
3.20869e-05
5.18018e-07
3.20932e-05
4.96092e-07
3.2099e-05
4.75224e-07
3.21043e-05
4.55342e-07
3.21092e-05
4.36378e-07
3.21136e-05
4.18269e-07
3.21177e-05
4.00956e-07
3.21216e-05
3.84388e-07
3.21251e-05
3.68512e-07
3.21284e-05
3.53284e-07
3.21314e-05
3.38652e-07
3.21343e-05
3.24587e-07
3.21369e-05
3.11036e-07
3.21394e-05
2.97981e-07
3.21417e-05
2.85366e-07
3.21439e-05
2.73185e-07
3.21459e-05
2.61387e-07
3.21477e-05
2.49964e-07
2.38912e-07
3.28759e-05
5.12473e-07
3.29029e-05
4.91007e-07
3.29285e-05
4.70551e-07
3.29526e-05
4.51041e-07
3.29756e-05
4.32416e-07
3.29973e-05
4.14618e-07
3.3018e-05
3.97596e-07
3.30377e-05
3.81298e-07
3.30564e-05
3.65681e-07
3.30742e-05
3.50697e-07
3.30911e-05
3.36312e-07
3.31073e-05
3.22477e-07
3.31227e-05
3.09167e-07
3.31374e-05
2.96334e-07
3.31515e-05
2.83965e-07
3.31648e-05
2.72006e-07
3.31776e-05
2.60455e-07
3.31897e-05
2.49262e-07
3.32012e-05
2.38422e-07
2.27933e-07
3.34858e-05
4.63487e-07
3.35324e-05
4.44407e-07
3.35768e-05
4.26183e-07
3.36191e-05
4.08765e-07
3.36594e-05
3.92104e-07
3.36979e-05
3.76154e-07
3.37346e-05
3.60875e-07
3.37696e-05
3.46226e-07
3.38032e-05
3.32171e-07
3.38352e-05
3.18669e-07
3.38658e-05
3.05692e-07
3.38951e-05
2.93202e-07
3.39231e-05
2.81177e-07
3.39498e-05
2.69573e-07
3.39754e-05
2.58383e-07
3.39999e-05
2.47557e-07
3.40232e-05
2.37097e-07
3.40455e-05
2.26957e-07
3.40668e-05
2.17137e-07
2.07628e-07
3.39385e-05
3.95767e-07
3.40032e-05
3.79738e-07
3.4065e-05
3.64394e-07
3.41241e-05
3.49699e-07
3.41805e-05
3.35618e-07
3.42346e-05
3.22117e-07
3.42863e-05
3.09163e-07
3.43358e-05
2.96727e-07
3.43832e-05
2.8478e-07
3.44286e-05
2.73292e-07
3.4472e-05
2.62241e-07
3.45136e-05
2.51593e-07
3.45535e-05
2.41335e-07
3.45916e-05
2.31431e-07
3.46281e-05
2.21874e-07
3.4663e-05
2.12622e-07
3.46965e-05
2.03682e-07
3.47284e-05
1.9501e-07
3.47589e-05
1.86614e-07
1.78475e-07
3.42618e-05
3.11918e-07
3.4342e-05
2.99462e-07
3.44189e-05
2.87516e-07
3.44926e-05
2.76055e-07
3.45631e-05
2.65057e-07
3.46307e-05
2.54495e-07
3.46955e-05
2.4435e-07
3.47577e-05
2.34599e-07
3.48172e-05
2.25222e-07
3.48743e-05
2.16196e-07
3.49291e-05
2.07506e-07
3.49815e-05
1.99129e-07
3.50318e-05
1.91052e-07
3.508e-05
1.83249e-07
3.51262e-05
1.75718e-07
3.51704e-05
1.68424e-07
3.52127e-05
1.61373e-07
3.52531e-05
1.54529e-07
3.52918e-05
1.47912e-07
1.41483e-07
3.44802e-05
2.15319e-07
3.45729e-05
2.06814e-07
3.46617e-05
1.98646e-07
3.4747e-05
1.908e-07
3.48288e-05
1.8326e-07
3.49073e-05
1.76013e-07
3.49826e-05
1.69045e-07
3.50548e-05
1.62341e-07
3.51242e-05
1.5589e-07
3.51907e-05
1.49676e-07
3.52545e-05
1.43691e-07
3.53157e-05
1.37918e-07
3.53744e-05
1.32349e-07
3.54307e-05
1.26966e-07
3.54846e-05
1.2177e-07
3.55363e-05
1.16736e-07
3.55858e-05
1.1187e-07
3.56332e-05
1.07142e-07
3.56786e-05
1.02583e-07
9.81459e-08
3.4614e-05
1.09915e-07
3.47152e-05
1.05604e-07
3.48124e-05
1.01461e-07
3.49057e-05
9.74783e-08
3.49953e-05
9.3649e-08
3.50814e-05
8.9965e-08
3.5164e-05
8.64207e-08
3.52433e-05
8.30107e-08
3.53195e-05
7.97273e-08
3.53926e-05
7.65632e-08
3.54628e-05
7.35162e-08
3.55301e-05
7.05758e-08
3.55947e-05
6.77392e-08
3.56567e-05
6.49979e-08
3.57161e-05
6.23509e-08
3.57731e-05
5.97879e-08
3.58276e-05
5.73097e-08
3.58799e-05
5.48999e-08
3.59299e-05
5.25847e-08
5.03323e-08
3.46773e-05
3.47829e-05
3.48843e-05
3.49817e-05
3.50754e-05
3.51653e-05
3.52517e-05
3.53346e-05
3.54143e-05
3.54908e-05
3.55643e-05
3.56348e-05
3.57024e-05
3.57673e-05
3.58296e-05
3.58892e-05
3.59464e-05
3.60011e-05
3.60535e-05
)
;

boundaryField
{
    fixedWalls
    {
        type            calculated;
        value           uniform 0;
    }
    inlet
    {
        type            calculated;
        value           nonuniform 0();
    }
    outlet
    {
        type            calculated;
        value           nonuniform 0();
    }
    frontAndBack
    {
        type            empty;
        value           nonuniform 0();
    }
    procBoundary2to1
    {
        type            processor;
        value           nonuniform List<scalar> 
20
(
-2.12562e-06
-6.1271e-06
-9.87444e-06
-1.33605e-05
-1.65765e-05
-1.95134e-05
-2.21631e-05
-2.45202e-05
-2.65835e-05
-2.83572e-05
-2.98513e-05
-3.10823e-05
-3.20722e-05
-3.28473e-05
-3.34368e-05
-3.38708e-05
-3.41779e-05
-3.43836e-05
-3.45086e-05
-3.45674e-05
)
;
    }
    procBoundary2to3
    {
        type            processor;
        value           nonuniform List<scalar> 
20
(
1.99177e-06
5.75794e-06
9.30442e-06
1.26279e-05
1.57246e-05
1.85909e-05
2.12236e-05
2.36208e-05
2.57824e-05
2.77103e-05
2.94091e-05
3.08856e-05
3.21494e-05
3.32122e-05
3.40871e-05
3.47881e-05
3.53288e-05
3.57219e-05
3.59777e-05
3.61037e-05
)
;
    }
    procBoundary2to6
    {
        type            processor;
        value           nonuniform List<scalar> 
20
(
1.82243e-11
2.09146e-11
2.41666e-11
2.80044e-11
3.21522e-11
3.59626e-11
3.97792e-11
4.47196e-11
5.18626e-11
6.02011e-11
6.77239e-11
7.60778e-11
8.70822e-11
9.83584e-11
1.09892e-10
1.25039e-10
1.39291e-10
1.55109e-10
1.77171e-10
1.90222e-10
)
;
    }
}


// ************************************************************************* //
