/*--------------------------------*- C++ -*----------------------------------*\
| =========                 |                                                 |
| \\      /  F ield         | OpenFOAM: The Open Source CFD Toolbox           |
|  \\    /   O peration     | Version:                                        |
|   \\  /    A nd           | Website:  www.openfoam.com                      |
|    \\/     M anipulation  |                                                 |
\*---------------------------------------------------------------------------*/
FoamFile
{
    version     2.0;
    format      ascii;
    class       volVectorField;
    location    "0.4";
    object      U;
}
// * * * * * * * * * * * * * * * * * * * * * * * * * * * * * * * * * * * * * //

dimensions      [0 1 -1 0 0 0 0];


internalField   nonuniform List<vector> 
400
(
(0.0848258 6.42611e-05 0)
(0.0844448 6.15067e-05 0)
(0.0840804 5.89039e-05 0)
(0.0837316 5.64431e-05 0)
(0.0833976 5.4113e-05 0)
(0.0830776 5.19019e-05 0)
(0.082771 4.98004e-05 0)
(0.0824769 4.78007e-05 0)
(0.0821949 4.5894e-05 0)
(0.0819244 4.40707e-05 0)
(0.0816648 4.23274e-05 0)
(0.0814157 4.06593e-05 0)
(0.0811767 3.90581e-05 0)
(0.0809474 3.7521e-05 0)
(0.0807273 3.60369e-05 0)
(0.0805162 3.46095e-05 0)
(0.0803139 3.32151e-05 0)
(0.0801198 3.18878e-05 0)
(0.079934 3.05516e-05 0)
(0.0797561 2.93106e-05 0)
(0.244531 0.000391034 0)
(0.243473 0.000373851 0)
(0.242463 0.000357642 0)
(0.241496 0.000342334 0)
(0.240571 0.000327853 0)
(0.239686 0.000314125 0)
(0.238838 0.000301089 0)
(0.238026 0.000288686 0)
(0.237248 0.000276867 0)
(0.236501 0.00026558 0)
(0.235786 0.000254787 0)
(0.2351 0.000244452 0)
(0.234443 0.000234529 0)
(0.233812 0.000224991 0)
(0.233208 0.000215791 0)
(0.232629 0.000206928 0)
(0.232075 0.000198314 0)
(0.231544 0.000190046 0)
(0.231036 0.000181853 0)
(0.23055 0.000174027 0)
(0.394119 0.00108189 0)
(0.392479 0.0010337 0)
(0.390912 0.000988292 0)
(0.389415 0.000945434 0)
(0.387984 0.000904913 0)
(0.386614 0.000866523 0)
(0.385302 0.000830082 0)
(0.384047 0.000795424 0)
(0.382844 0.000762408 0)
(0.381692 0.000730893 0)
(0.380588 0.000700759 0)
(0.379531 0.000671899 0)
(0.378517 0.000644194 0)
(0.377546 0.000617554 0)
(0.376616 0.000591868 0)
(0.375726 0.000567109 0)
(0.374873 0.000543096 0)
(0.374058 0.000519969 0)
(0.373278 0.000497237 0)
(0.372532 0.000475328 0)
(0.533313 0.00206106 0)
(0.531198 0.00196842 0)
(0.529179 0.00188118 0)
(0.52725 0.00179888 0)
(0.525406 0.0017211 0)
(0.523643 0.00164743 0)
(0.521956 0.00157753 0)
(0.520341 0.00151107 0)
(0.518795 0.00144778 0)
(0.517315 0.00138738 0)
(0.515897 0.00132965 0)
(0.514539 0.00127434 0)
(0.513238 0.00122127 0)
(0.511993 0.00117024 0)
(0.5108 0.00112106 0)
(0.509659 0.00107364 0)
(0.508567 0.00102771 0)
(0.507522 0.000983412 0)
(0.506525 0.000940062 0)
(0.505571 0.00089805 0)
(0.661771 0.00325214 0)
(0.659307 0.003105 0)
(0.656955 0.00296649 0)
(0.654708 0.00283586 0)
(0.652561 0.00271243 0)
(0.650509 0.00259556 0)
(0.648545 0.00248469 0)
(0.646667 0.00237931 0)
(0.644868 0.00227897 0)
(0.643147 0.00218324 0)
(0.641499 0.00209174 0)
(0.639921 0.00200411 0)
(0.63841 0.00192002 0)
(0.636963 0.00183919 0)
(0.635579 0.00176132 0)
(0.634254 0.00168625 0)
(0.632987 0.00161358 0)
(0.631775 0.00154346 0)
(0.630619 0.00147505 0)
(0.629512 0.00140856 0)
(0.779137 0.00458618 0)
(0.776468 0.00437783 0)
(0.77392 0.00418173 0)
(0.771486 0.00399681 0)
(0.76916 0.00382208 0)
(0.766936 0.00365665 0)
(0.764809 0.00349974 0)
(0.762774 0.00335061 0)
(0.760827 0.00320863 0)
(0.758963 0.00307318 0)
(0.757178 0.00294373 0)
(0.755469 0.00281977 0)
(0.753834 0.00270085 0)
(0.752268 0.00258656 0)
(0.75077 0.0024765 0)
(0.749336 0.00237039 0)
(0.747965 0.00226774 0)
(0.746654 0.00216863 0)
(0.745402 0.00207223 0)
(0.744205 0.0019784 0)
(0.885101 0.00598617 0)
(0.882386 0.00571386 0)
(0.879794 0.00545753 0)
(0.877317 0.00521576 0)
(0.87495 0.00498728 0)
(0.872685 0.00477093 0)
(0.870519 0.0045657 0)
(0.868447 0.00437064 0)
(0.866463 0.00418491 0)
(0.864564 0.00400772 0)
(0.862745 0.00383839 0)
(0.861004 0.00367625 0)
(0.859338 0.00352072 0)
(0.857742 0.00337127 0)
(0.856215 0.00322738 0)
(0.854754 0.00308865 0)
(0.853357 0.00295455 0)
(0.85202 0.002825 0)
(0.850745 0.00269925 0)
(0.849524 0.00257689 0)
(0.979453 0.00736616 0)
(0.976864 0.00703168 0)
(0.97439 0.00671665 0)
(0.972024 0.00641937 0)
(0.969761 0.00613829 0)
(0.967596 0.00587204 0)
(0.965523 0.00561939 0)
(0.963539 0.00537919 0)
(0.961639 0.00515042 0)
(0.95982 0.00493214 0)
(0.958077 0.00472352 0)
(0.956408 0.00452374 0)
(0.95481 0.00433213 0)
(0.95328 0.00414798 0)
(0.951815 0.00397073 0)
(0.950413 0.00379983 0)
(0.949072 0.00363473 0)
(0.947788 0.00347515 0)
(0.946564 0.00332047 0)
(0.945391 0.00317011 0)
(1.06214 0.00863622 0)
(1.05985 0.00824603 0)
(1.05766 0.00787819 0)
(1.05556 0.00753078 0)
(1.05356 0.00720205 0)
(1.05163 0.00689046 0)
(1.04979 0.0065946 0)
(1.04802 0.00631318 0)
(1.04633 0.00604503 0)
(1.0447 0.00578909 0)
(1.04315 0.00554441 0)
(1.04166 0.00531005 0)
(1.04023 0.00508525 0)
(1.03886 0.00486916 0)
(1.03755 0.0046612 0)
(1.0363 0.00446065 0)
(1.0351 0.004267 0)
(1.03395 0.00407974 0)
(1.03285 0.00389839 0)
(1.0318 0.00372234 0)
(1.13334 0.0097081 0)
(1.13151 0.00927307 0)
(1.12976 0.00886243 0)
(1.12808 0.00847413 0)
(1.12646 0.00810632 0)
(1.12491 0.00775734 0)
(1.12343 0.0074257 0)
(1.122 0.00711 0)
(1.12063 0.00680901 0)
(1.11932 0.00652154 0)
(1.11806 0.00624661 0)
(1.11685 0.00598317 0)
(1.11569 0.0057304 0)
(1.11458 0.00548736 0)
(1.11351 0.00525346 0)
(1.11249 0.00502785 0)
(1.11152 0.00481005 0)
(1.11058 0.00459936 0)
(1.10968 0.0043954 0)
(1.10882 0.00419766 0)
(1.19342 0.0105013 0)
(1.1922 0.010036 0)
(1.19103 0.00959608 0)
(1.18989 0.00917943 0)
(1.1888 0.00878424 0)
(1.18775 0.00840881 0)
(1.18674 0.00805162 0)
(1.18576 0.00771126 0)
(1.18482 0.0073865 0)
(1.18392 0.00707609 0)
(1.18306 0.00677902 0)
(1.18222 0.00649419 0)
(1.18142 0.00622081 0)
(1.18065 0.00595783 0)
(1.17991 0.00570472 0)
(1.17921 0.00546046 0)
(1.17853 0.00522469 0)
(1.17787 0.00499655 0)
(1.17725 0.00477572 0)
(1.17665 0.00456185 0)
(1.24304 0.0109493 0)
(1.24254 0.0104709 0)
(1.24205 0.0100176 0)
(1.24157 0.00958759 0)
(1.2411 0.00917904 0)
(1.24064 0.00879034 0)
(1.2402 0.00842003 0)
(1.23977 0.00806674 0)
(1.23935 0.00772928 0)
(1.23894 0.00740644 0)
(1.23854 0.00709723 0)
(1.23816 0.00680053 0)
(1.2378 0.00651561 0)
(1.23744 0.00624138 0)
(1.2371 0.00597737 0)
(1.23677 0.00572246 0)
(1.23645 0.0054764 0)
(1.23614 0.00523822 0)
(1.23585 0.00500767 0)
(1.23556 0.00478453 0)
(1.28305 0.0110044 0)
(1.28334 0.0105312 0)
(1.28361 0.010082 0)
(1.28385 0.00965487 0)
(1.28407 0.00924834 0)
(1.28427 0.00886091 0)
(1.28446 0.00849125 0)
(1.28463 0.0081381 0)
(1.28479 0.00780036 0)
(1.28494 0.0074769 0)
(1.28507 0.00716681 0)
(1.2852 0.00686901 0)
(1.28532 0.00658285 0)
(1.28543 0.00630724 0)
(1.28553 0.00604178 0)
(1.28562 0.00578536 0)
(1.28571 0.00553778 0)
(1.2858 0.00529804 0)
(1.28587 0.00506594 0)
(1.28594 0.00484137 0)
(1.31448 0.0106416 0)
(1.31559 0.010192 0)
(1.31664 0.00976407 0)
(1.31764 0.00935634 0)
(1.31858 0.00896748 0)
(1.31947 0.00859621 0)
(1.32032 0.00824141 0)
(1.32112 0.00790195 0)
(1.32189 0.00757689 0)
(1.32262 0.00726519 0)
(1.32331 0.00696608 0)
(1.32398 0.00667855 0)
(1.32461 0.00640206 0)
(1.32521 0.00613556 0)
(1.32578 0.00587875 0)
(1.32633 0.00563054 0)
(1.32685 0.00539082 0)
(1.32735 0.0051586 0)
(1.32782 0.00493373 0)
(1.32827 0.00471615 0)
(1.33848 0.00986004 0)
(1.34039 0.00945085 0)
(1.34221 0.00906043 0)
(1.34394 0.00868763 0)
(1.34559 0.00833137 0)
(1.34716 0.0079906 0)
(1.34867 0.00766441 0)
(1.3501 0.00735187 0)
(1.35147 0.00705216 0)
(1.35278 0.00676443 0)
(1.35403 0.00648804 0)
(1.35523 0.00622209 0)
(1.35638 0.00596615 0)
(1.35747 0.00571927 0)
(1.35852 0.00548124 0)
(1.35952 0.00525104 0)
(1.36047 0.00502865 0)
(1.36139 0.00481311 0)
(1.36226 0.00460437 0)
(1.36309 0.0044023 0)
(1.35622 0.00868201 0)
(1.35886 0.00832789 0)
(1.36139 0.00798923 0)
(1.36381 0.00766517 0)
(1.36612 0.00735489 0)
(1.36833 0.00705758 0)
(1.37044 0.00677254 0)
(1.37246 0.00649903 0)
(1.3744 0.00623642 0)
(1.37625 0.005984 0)
(1.37803 0.00574129 0)
(1.37973 0.00550753 0)
(1.38136 0.0052824 0)
(1.38292 0.00506508 0)
(1.38441 0.00485544 0)
(1.38584 0.00465256 0)
(1.3872 0.00445651 0)
(1.38851 0.0042664 0)
(1.38976 0.00408231 0)
(1.39095 0.00390394 0)
(1.36883 0.00715091 0)
(1.37211 0.00686377 0)
(1.37525 0.00658859 0)
(1.37826 0.00632476 0)
(1.38114 0.00607172 0)
(1.38391 0.00582888 0)
(1.38655 0.00559572 0)
(1.38909 0.00537171 0)
(1.39152 0.00515638 0)
(1.39386 0.0049492 0)
(1.39609 0.0047498 0)
(1.39823 0.0045576 0)
(1.40029 0.00437236 0)
(1.40226 0.00419344 0)
(1.40414 0.00402075 0)
(1.40595 0.00385354 0)
(1.40768 0.00369193 0)
(1.40934 0.00353511 0)
(1.41092 0.00338336 0)
(1.41243 0.00323608 0)
(1.37732 0.0053276 0)
(1.3811 0.00511642 0)
(1.38473 0.0049137 0)
(1.38821 0.00471903 0)
(1.39155 0.00453206 0)
(1.39475 0.00435239 0)
(1.39783 0.00417968 0)
(1.40078 0.00401358 0)
(1.40361 0.00385377 0)
(1.40632 0.00369987 0)
(1.40893 0.00355166 0)
(1.41143 0.00340871 0)
(1.41383 0.00327084 0)
(1.41613 0.00313762 0)
(1.41833 0.00300899 0)
(1.42044 0.00288439 0)
(1.42246 0.00276396 0)
(1.4244 0.00264699 0)
(1.42625 0.00253403 0)
(1.42803 0.00242413 0)
(1.3825 0.0032864 0)
(1.38663 0.00315732 0)
(1.39059 0.00303328 0)
(1.3944 0.00291405 0)
(1.39806 0.00279942 0)
(1.40157 0.00268916 0)
(1.40494 0.00258308 0)
(1.40818 0.00248102 0)
(1.41129 0.00238275 0)
(1.41427 0.00228804 0)
(1.41714 0.00219682 0)
(1.41989 0.00210881 0)
(1.42252 0.00202388 0)
(1.42506 0.0019418 0)
(1.42748 0.00186254 0)
(1.42981 0.00178575 0)
(1.43204 0.00171152 0)
(1.43418 0.00163936 0)
(1.43622 0.0015699 0)
(1.43817 0.00150233 0)
(1.38494 0.00111083 0)
(1.38925 0.00106746 0)
(1.39338 0.00102575 0)
(1.39736 0.000985654 0)
(1.40118 0.000947092 0)
(1.40485 0.000909974 0)
(1.40837 0.000874248 0)
(1.41176 0.000839885 0)
(1.41501 0.000806822 0)
(1.41813 0.00077496 0)
(1.42113 0.000744259 0)
(1.42401 0.000714641 0)
(1.42677 0.000686098 0)
(1.42942 0.000658512 0)
(1.43196 0.000631878 0)
(1.4344 0.000606129 0)
(1.43673 0.000581226 0)
(1.43898 0.000557015 0)
(1.44111 0.000533817 0)
(1.44317 0.000511163 0)
)
;

boundaryField
{
    fixedWalls
    {
        type            noSlip;
    }
    inlet
    {
        type            fixedValue;
        value           nonuniform 0();
    }
    outlet
    {
        type            zeroGradient;
    }
    frontAndBack
    {
        type            empty;
    }
    procBoundary2to1
    {
        type            processor;
        value           nonuniform List<vector> 
20
(
(0.0852243 6.71785e-05 0)
(0.245638 0.000409285 0)
(0.395837 0.00113314 0)
(0.535529 0.00215968 0)
(0.664354 0.00340885 0)
(0.781936 0.0048081 0)
(0.887945 0.00627612 0)
(0.982162 0.00772208 0)
(1.06454 0.00905097 0)
(1.13524 0.0101698 0)
(1.19468 0.0109942 0)
(1.24355 0.0114549 0)
(1.28273 0.0115032 0)
(1.3133 0.0111145 0)
(1.33647 0.0102892 0)
(1.35345 0.00905252 0)
(1.3654 0.00745069 0)
(1.37337 0.0055477 0)
(1.37819 0.00342074 0)
(1.38045 0.00115596 0)
)
;
    }
    procBoundary2to3
    {
        type            processor;
        value           nonuniform List<vector> 
20
(
(0.0795857 2.81751e-05 0)
(0.230086 0.000166754 0)
(0.371821 0.000454701 0)
(0.504662 0.000858206 0)
(0.628459 0.0013451 0)
(0.743065 0.00188833 0)
(0.848361 0.00245884 0)
(0.944273 0.00302452 0)
(1.03079 0.00355145 0)
(1.108 0.00400543 0)
(1.17608 0.00435376 0)
(1.23529 0.00456736 0)
(1.28601 0.00462281 0)
(1.3287 0.00450439 0)
(1.36388 0.00420561 0)
(1.39209 0.0037302 0)
(1.41388 0.00309237 0)
(1.42972 0.00231633 0)
(1.44004 0.00143543 0)
(1.44513 0.000488762 0)
)
;
    }
    procBoundary2to6
    {
        type            processor;
        value           nonuniform List<vector> 
20
(
(1.38494 -0.0011101 0)
(1.38925 -0.00106663 0)
(1.39338 -0.00102479 0)
(1.39736 -0.000984548 0)
(1.40118 -0.000945829 0)
(1.40485 -0.000908555 0)
(1.40837 -0.000872661 0)
(1.41176 -0.000838086 0)
(1.41501 -0.000804741 0)
(1.41813 -0.00077256 0)
(1.42113 -0.000741554 0)
(1.42401 -0.000711593 0)
(1.42677 -0.00068262 0)
(1.42942 -0.000654584 0)
(1.43196 -0.000627476 0)
(1.4344 -0.00060113 0)
(1.43674 -0.000575656 0)
(1.43898 -0.000550816 0)
(1.44112 -0.000526708 0)
(1.44317 -0.000503482 0)
)
;
    }
}


// ************************************************************************* //
