/*--------------------------------*- C++ -*----------------------------------*\
| =========                 |                                                 |
| \\      /  F ield         | OpenFOAM: The Open Source CFD Toolbox           |
|  \\    /   O peration     | Version:                                        |
|   \\  /    A nd           | Website:  www.openfoam.com                      |
|    \\/     M anipulation  |                                                 |
\*---------------------------------------------------------------------------*/
FoamFile
{
    version     2.0;
    format      ascii;
    class       surfaceScalarField;
    location    "146.7";
    object      phi;
}
// * * * * * * * * * * * * * * * * * * * * * * * * * * * * * * * * * * * * * //

dimensions      [0 3 -1 0 0 0 0];
oriented        oriented;


internalField   nonuniform List<scalar> 
2213
(
-0.00307396
-0.00250471
0.00557867
-0.00587398
-0.000861165
0.00366119
-0.00790234
0.00285933
-0.00083098
-0.0094207
0.00565802
-0.00413965
-0.01012
0.00627947
-0.00558012
-0.00905533
0.00387377
-0.00493849
-0.00515328
-0.00215603
-0.00174601
0.000741945
-0.00800015
0.00210492
0.00819363
-0.0135527
0.00610101
-0.0180073
-0.00194999
-0.00055472
-0.00371394
0.000902778
-0.00457362
0.00371902
-0.00426862
0.00535301
-0.00324304
0.00525389
0.000183124
0.000447607
0.00591925
-0.00789216
0.0129136
-0.0149945
0.0200091
-0.0206481
0.026096
-0.0240943
0.0306117
-0.0256385
-0.0260991
-0.000637765
8.30451e-05
-0.00120642
0.00147143
-0.000465804
0.00297841
0.00101273
0.00387447
0.00364196
0.00262466
0.00926812
-0.00517855
0.0158011
-0.0144251
0.0220255
-0.021219
0.0264268
-0.0250493
0.028842
-0.0265095
0.0299436
-0.0267402
0.0305836
-0.026739
0.0316731
-0.0270852
-0.0280005
0.000100137
-1.7092e-05
0.000406673
0.0011649
0.00148171
0.00190337
0.00331475
0.00204144
0.00866339
-0.00272399
0.0159317
-0.0124468
0.0218411
-0.0203345
0.0253156
-0.0246935
0.0266272
-0.0263609
0.0270056
-0.0268879
0.0276277
-0.0273623
0.028961
-0.0280722
0.0306617
-0.028786
0.0320014
-0.0293403
0.0329411
-0.0300274
0.0337467
-0.0308002
-0.0318518
2.05719e-05
-3.7664e-05
0.000120045
0.00106542
0.00073382
0.00128959
0.00528153
-0.00250627
0.0136854
-0.0111279
0.0200961
-0.0188575
0.023258
-0.0234965
0.024181
-0.0256165
0.024458
-0.0266379
0.0250386
-0.0274685
0.0258693
-0.028193
0.0265073
-0.0287102
0.0269649
-0.0292435
0.027759
-0.0301344
0.0288788
-0.0311473
0.0301928
-0.0321142
0.0314946
-0.0331537
0.0325284
-0.0342326
0.033526
-0.035425
-0.0366467
-0.000357432
0.000319768
-0.000949318
0.00165731
0.00219113
-0.00185085
0.0102563
-0.0105715
0.0170573
-0.0179289
0.0204056
-0.0222058
0.021383
-0.0244738
0.021689
-0.0259225
0.0220514
-0.0270003
0.0223741
-0.0277912
0.0226815
-0.0285005
0.0232224
-0.0292511
0.02413
-0.0301511
0.0250653
-0.0310696
0.0258333
-0.0319153
0.0264967
-0.0327775
0.0271052
-0.0337622
0.0278785
-0.0350059
0.0287278
-0.0362742
-0.037382
0.0294631
-0.000551862
0.00087163
0.000460434
0.000645013
0.00707398
-0.0084644
0.0133154
-0.0168129
0.0167121
-0.0213256
0.0181022
-0.0235959
0.018731
-0.0251026
0.0190725
-0.026264
0.0192759
-0.0272037
0.0195899
-0.0281053
0.0200214
-0.0289319
0.0204705
-0.0297003
0.0208574
-0.030538
0.0212403
-0.0314525
0.0216802
-0.0323552
0.0222446
-0.0333419
0.023008
-0.0345255
0.0236814
-0.0356794
0.0241952
-0.036788
-0.0378996
0.0247128
-0.00110617
0.0019778
0.00330014
-0.0037613
0.00969494
-0.0148592
0.0131361
-0.0202541
0.0147733
-0.0229628
0.0156764
-0.0244989
0.0161214
-0.0255476
0.0163147
-0.0264573
0.0164925
-0.0273814
0.0166348
-0.0282476
0.0167863
-0.0290834
0.0170173
-0.0299313
0.017366
-0.0308867
0.0177707
-0.0318572
0.0181536
-0.0327381
0.0185525
-0.0337409
0.0188475
-0.0348205
0.0191285
-0.0359604
0.0195106
-0.0371701
-0.0382436
0.0198546
0.000424064
0.00155374
0.00633974
-0.00967698
0.0095815
-0.0181009
0.011619
-0.0222916
0.0127115
-0.0240553
0.0131711
-0.0249586
0.0133725
-0.0257489
0.0134999
-0.0265848
0.0136008
-0.0274823
0.0137149
-0.0283616
0.0138073
-0.0291758
0.0139365
-0.0300605
0.0140725
-0.0310227
0.0141324
-0.031917
0.0142263
-0.0328321
0.0143694
-0.0338839
0.0146163
-0.0350674
0.014798
-0.036142
0.0148537
-0.0372257
-0.038433
0.0150431
0.0015858
-3.2057e-05
0.00667833
-0.0147695
0.00940227
-0.0208249
0.0103176
-0.0232069
0.0105648
-0.0243026
0.0106839
-0.0250777
0.0107724
-0.0258374
0.0108143
-0.0266267
0.010783
-0.027451
0.010687
-0.0282656
0.0106232
-0.0291121
0.010572
-0.0300094
0.0105103
-0.030961
0.0104622
-0.031869
0.0104039
-0.0327738
0.0103959
-0.033876
0.0103544
-0.0350259
0.0102916
-0.0360793
0.010247
-0.0371811
0.0101743
-0.0383603
0.00146071
-0.0139624
0.00226151
-0.0181916
-0.0162562
0.000829825
-0.0147923
0.000842206
-0.018204
0.000495775
-0.0159098
-0.014092
0.000298198
-0.0150905
-0.00044909
-0.0174567
-0.00145718
-0.0149017
-0.0133559
-0.000262799
-0.0148277
-0.00151108
-0.0162084
-0.0032173
-0.0131955
-0.0118518
-0.000953897
-0.0138738
-0.00268277
-0.0144795
-0.00494619
-0.0109321
-0.0094583
-0.00131264
-0.0125611
-0.00348146
-0.0123107
-0.00617529
-0.00823823
-0.00917862
-0.00645497
-0.00597806
-0.00139406
-0.0111671
-0.00351266
-0.0101921
-0.00616971
-0.00558119
-0.00949713
-0.00312754
-0.0127555
-0.00271972
-0.00164474
-0.00172126
-0.0094458
-0.00391261
-0.00800076
-0.00644829
-0.00304551
-0.00944148
-0.000134349
-0.0124536
0.000292401
-0.0144271
0.00032877
0.000628191
-0.00163563
-0.00781017
-0.0035847
-0.0060517
-0.00516306
-0.00146715
-0.00716829
0.00187088
-0.00962753
0.00275165
-0.01222
0.00292125
-0.0139605
0.0023687
0.00107268
-0.0022315
-0.004622
-0.00692013
-0.00918891
-0.0120174
-0.0140346
-0.0134119
-0.0102343
0.0511796
0.00925026
-0.0502556
0.0519836
0.0142391
0.0528928
0.0189454
0.0538594
0.0237462
0.0285565
0.0543337
0.00859087
-0.0536743
0.0554049
0.0131679
0.0561223
0.0182279
0.0573247
0.0225438
0.0277105
0.0576649
0.00809014
-0.0571642
0.0588089
0.0120239
0.0594827
0.0175542
0.0606864
0.0213401
0.0266696
0.0614712
0.00756405
-0.0609451
0.0624378
0.0110573
0.0631777
0.0168142
0.0641624
0.0203555
0.0256166
0.065452
0.00694117
-0.0648291
0.0661996
0.0103096
0.0669794
0.0160345
0.0677249
0.0196099
0.0687266
0.0246149
0.0292295
0.0696721
0.00626974
-0.0690007
0.0702119
0.00976981
0.0710677
0.0151787
0.0717017
0.018976
0.0728747
0.0234418
0.0281293
0.0741413
0.00557799
-0.0734496
0.0746174
0.00929368
0.0755418
0.0142543
0.0762148
0.0183029
0.0773426
0.0223141
0.0270503
0.0788696
0.00488679
-0.0781784
0.0793242
0.00883903
0.0801804
0.0133982
0.0808143
0.017669
0.0816363
0.0214921
0.0261676
0.0837924
0.00426921
-0.0831748
0.0842018
0.00842962
0.0848978
0.0127022
0.0854971
0.0170698
0.0862074
0.0207818
0.0251408
0.0889596
0.00378066
-0.0884711
0.089352
0.00803722
0.0899432
0.0121111
0.0906419
0.016371
0.0914326
0.0199911
0.024081
0.0944842
0.00339817
-0.0941017
0.094883
0.00763833
0.0954422
0.0115519
0.0961301
0.015683
0.0968349
0.0192864
0.0232392
0.100425
0.00309403
-0.100121
0.100807
0.00725646
0.101306
0.0110532
0.101904
0.0150849
0.102557
0.0186336
0.0224103
0.106806
0.00285352
-0.106565
0.107171
0.00689094
0.107641
0.0105838
0.108245
0.0144802
0.108965
0.0179137
0.021552
0.113674
0.00263464
-0.113455
0.114051
0.00651341
0.114543
0.0100918
0.115163
0.0138603
0.115895
0.0171815
0.0207496
0.121047
0.0024133
-0.120826
0.121431
0.00612955
0.121938
0.00958472
0.122559
0.0132398
0.123307
0.0164331
0.0198996
0.128964
0.00219449
-0.128746
0.129349
0.00574491
0.129867
0.00906717
0.130526
0.0125803
0.131321
0.0156382
0.0189776
0.137476
0.00198325
-0.137264
0.137863
0.00535758
0.138389
0.00854115
0.139084
0.0118858
0.139888
0.014834
0.0180209
0.146611
0.00178969
-0.146418
0.146992
0.00497727
0.147514
0.00801848
0.148227
0.0111735
0.149051
0.0140102
0.0170033
0.156412
0.00161244
-0.156235
0.156785
0.00460424
0.157313
0.007491
0.158047
0.0104393
0.158917
0.0131402
0.0159313
0.166916
0.00144828
-0.166752
0.167285
0.0042356
0.167826
0.00694966
0.168579
0.00968625
0.169477
0.0122429
0.0148452
0.178157
0.00129368
-0.178002
0.17852
0.00387163
0.179071
0.00639888
0.179831
0.00892663
0.180755
0.0113192
0.0137083
0.190178
0.00115072
-0.190035
0.190541
0.00350825
0.191112
0.00582803
0.191912
0.00812681
0.19291
0.0103204
0.0124963
0.203057
0.00100795
-0.202915
0.203437
0.0031282
0.204044
0.005221
0.204887
0.00728464
0.205926
0.00928139
0.0112443
0.216846
0.000866136
-0.216704
0.217235
0.00273956
0.217863
0.00459231
0.218732
0.00641635
0.219825
0.00818816
0.00991909
0.231604
0.000726174
-0.231464
0.232006
0.00233679
0.232672
0.00392726
0.233593
0.00549476
0.234762
0.0070196
0.00850776
0.247424
0.000583225
-0.247281
0.247849
0.00191139
0.248551
0.00322555
0.249523
0.0045222
0.250759
0.00578393
0.00701481
0.26437
0.000438454
-0.264225
0.264813
0.00146847
0.265551
0.00248687
0.266581
0.00349239
0.267895
0.00447033
0.00542435
0.282533
0.000294695
-0.28239
0.282996
0.0010057
0.283776
0.00170675
0.284871
0.00239797
0.28627
0.00307137
0.00372933
0.302027
0.000152111
-0.301885
0.302515
0.000517945
0.303342
0.000879891
0.304502
0.00123746
0.305988
0.00158575
0.00192541
0.322911
-0.322759
0.323429
0.324309
0.325546
0.327132
0.0307592
0.0288547
-0.0271638
-0.0324501
0.0286554
0.0279933
-0.0258895
0.0265783
0.026979
-0.0249019
0.0245608
0.0260923
-0.0240749
0.0226292
0.0252676
-0.023336
0.0207638
0.024551
-0.0226855
0.0189356
0.0238612
-0.0220331
0.01717
0.0231563
-0.0213906
0.015492
0.0224741
-0.0207961
0.0138681
0.0219146
-0.0202907
0.0122645
0.0214531
-0.0198495
0.0106931
0.0209865
-0.0194152
0.00915924
0.0205152
-0.0189813
0.00764641
0.0201563
-0.0186434
0.00618132
0.0198811
-0.018416
0.00477306
0.0196666
-0.0182583
0.00342755
0.0195372
-0.0181917
0.00210682
0.0195253
-0.0182046
0.000841364
0.0196182
-0.0183527
0.0154562
-0.0146149
0.0270872
0.030584
-0.0288165
0.0253026
0.0297779
0.0234309
0.0288506
0.0215997
0.0279235
0.0198331
0.0270342
0.0181462
0.0262379
0.0164891
0.0255183
0.0148573
0.0247881
0.0132983
0.024033
0.0118402
0.0233728
0.0104223
0.022871
0.00901077
0.022398
0.00766882
0.0218571
0.00638363
0.0214414
0.00510539
0.0211594
0.0038452
0.0209268
0.00259531
0.0207871
0.00138344
0.0207372
0.00034979
0.0206518
0.015806
0.0233479
0.0322288
-0.0249926
0.0217229
0.0314029
0.0200782
0.0304953
0.018475
0.0295268
0.0169371
0.0285721
0.0154462
0.0277288
0.0139935
0.026971
0.012554
0.0262277
0.011142
0.025445
0.00978759
0.0247272
0.00852134
0.0241373
0.00727244
0.0236469
0.0060231
0.0231065
0.00486371
0.0226008
0.00378693
0.0222361
0.00277228
0.0219414
0.00185831
0.0217011
0.000875804
0.0217197
1.5884e-06
0.0215261
0.0158076
0.0194152
0.0338912
-0.0210776
0.0178604
0.0329577
0.0163917
0.031964
0.0149748
0.0309437
0.0136269
0.02992
0.0123442
0.0290114
0.011085
0.0282302
0.00984784
0.0274648
0.00866417
0.0266286
0.00752527
0.0258661
0.00641477
0.0252478
0.00537978
0.0246819
0.00437882
0.0241074
0.00338754
0.0235921
0.00244407
0.0231796
0.0015403
0.0228452
0.000726159
0.0225152
0.000106212
0.0223397
-0.000363914
0.0219962
0.0154437
0.0153362
0.0351969
-0.0166418
0.0140815
0.0342124
0.0128174
0.0332281
0.0115978
0.0321634
0.0104283
0.0310895
0.00931215
0.0301276
0.00823745
0.0293049
0.00715584
0.0285464
0.00608996
0.0276945
0.0051121
0.0268439
0.00419178
0.0261681
0.00328596
0.0255877
0.00242701
0.0249664
0.00164731
0.0243718
0.000927958
0.023899
0.000272526
0.0235006
-0.00034901
0.0231367
-0.00080809
0.0227987
-0.000842518
0.0220306
0.0146012
0.0108871
0.036281
-0.0119712
0.0098645
0.035235
0.00882487
0.0342677
0.00780113
0.0331871
0.00683947
0.0320511
0.00593837
0.0310287
0.00506342
0.0301799
0.00423269
0.0293772
0.0034064
0.0285208
0.00257935
0.027671
0.00181455
0.0269329
0.00113215
0.0262701
0.000482309
0.0256162
-0.000160613
0.0250147
-0.000739473
0.0244778
-0.00126728
0.0240284
-0.00168835
0.0235578
-0.00188325
0.0229936
-0.0014109
0.0215583
0.0131903
0.0066215
0.0371145
-0.00745506
0.0057999
0.0360566
0.00495785
0.0351097
0.00410267
0.0340423
0.00330716
0.0328466
0.00258077
0.0317551
0.00188413
0.0308765
0.00119001
0.0300713
0.000549798
0.029161
-4.11929e-05
0.028262
-0.000632195
0.0275239
-0.00120792
0.0268459
-0.00170715
0.0261155
-0.00213962
0.0254472
-0.00253955
0.0248778
-0.0028655
0.0243544
-0.00310054
0.0237928
-0.00309804
0.0229911
-0.00219155
0.0206518
0.0109987
0.00180788
0.0377778
-0.00247112
0.00122184
0.0366427
0.000728628
0.035603
0.000186498
0.0345844
-0.00040051
0.0334337
-0.000957403
0.032312
-0.00147354
0.0313926
-0.00194429
0.030542
-0.00240966
0.0296264
-0.00287492
0.0287273
-0.00327828
0.0279273
-0.00361868
0.0271863
-0.00394641
0.0264432
-0.00422851
0.0257293
-0.00441715
0.0250664
-0.00455465
0.0244919
-0.00463863
0.0238768
-0.00443351
0.022786
-0.00303011
0.0192484
0.00796863
-0.00280606
0.0383029
0.00228089
-0.00318805
0.0370246
-0.00354042
0.0359553
-0.00385203
0.034896
-0.00414837
0.03373
-0.00447694
0.0326405
-0.00481015
0.0317259
-0.00513801
0.0308699
-0.00542476
0.0299131
-0.00568317
0.0289857
-0.0059536
0.0281977
-0.00618861
0.0274213
-0.00634061
0.0265952
-0.00645437
0.0258431
-0.00653635
0.0251484
-0.00651192
0.0244674
-0.00631735
0.0236823
-0.00583905
0.0223077
-0.00433236
0.0177417
0.00363627
-0.00750038
0.00744298
-0.00765683
-0.00778077
-0.00791061
-0.00805663
-0.00818984
-0.00833293
-0.00842405
-0.0085203
-0.0086467
-0.00871462
-0.00874432
-0.00877585
-0.00877017
-0.00869946
-0.0085346
-0.00805921
-0.00657639
-0.00360421
0.0393759
0.00140589
0.0366281
0.00126805
0.0339394
0.00113691
0.0313082
0.00101042
0.0287315
0.000886678
0.0262043
0.000762995
0.0237214
0.000641433
0.0212738
0.000525407
0.0188592
0.000411314
0.0164654
0.000308098
0.014086
0.000207185
0.0117159
0.000114172
0.00933936
2.36524e-05
0.0069452
-5.60691e-05
0.00453474
-0.000122885
0.00206121
-0.000159902
-0.000191618
0.0390635
0.00419061
0.036337
0.00399455
0.0336639
0.00381002
0.0310465
0.00362779
0.0284827
0.00345055
0.0259701
0.00327553
0.0235068
0.00310475
0.0210858
0.00294639
0.0187021
0.00279503
0.0163441
0.00266615
0.0139972
0.00255404
0.011646
0.00246542
0.00927395
0.00239567
0.00688755
0.00233033
0.00450372
0.00226094
0.00205552
0.0022883
0.0018639
0.0384861
0.00696337
0.0357816
0.00669911
0.0331426
0.00644898
0.0305635
0.00620694
0.0280357
0.00597828
0.0255514
0.00575983
0.0231047
0.00555148
0.0206961
0.00535501
0.018327
0.00516411
0.0160066
0.00498656
0.0137278
0.00483285
0.0114675
0.00472573
0.00918716
0.00467599
0.0068488
0.00466869
0.00448159
0.00462816
0.00204775
0.00472213
0.00391166
0.0403561
0.0100339
0.0376189
0.00970057
0.0349459
0.00937209
0.0323451
0.00904979
0.029819
0.00873304
0.0273636
0.00843365
0.0249646
0.00815889
0.0225975
0.00791858
0.0202423
0.00771016
0.0178828
0.00752366
0.0155309
0.00733838
0.0132145
0.00714932
0.010957
0.00698315
0.00874361
0.00688942
0.00652566
0.00688664
0.00428026
0.00687355
0.00196313
0.00703926
0.00587479
0.0391662
0.0127613
0.0364989
0.0123679
0.0338852
0.0119858
0.0313259
0.0116091
0.0288189
0.01124
0.0263737
0.0108789
0.0240082
0.0105244
0.0217334
0.0101933
0.0195299
0.00991367
0.0173495
0.00970406
0.0151409
0.00954699
0.0129026
0.0093876
0.0106752
0.00921055
0.00847664
0.00908802
0.00628944
0.00907384
0.00406391
0.00909908
0.00181225
0.00929092
0.00768704
0.0403021
0.0159453
0.0376358
0.0154276
0.0350623
0.0149414
0.0325675
0.0144806
0.0301381
0.0140385
0.0277542
0.0136239
0.0253904
0.0132428
0.0230451
0.0128697
0.0207452
0.0124932
0.0185347
0.0121241
0.0164189
0.0118199
0.014346
0.0116199
0.0122488
0.0114847
0.0101367
0.0113226
0.00803577
0.011189
0.00595545
0.0111542
0.00388852
0.011166
0.00175193
0.0114275
0.00943898
0.0411324
0.019203
0.0384446
0.0186331
0.0358088
0.0180635
0.0332643
0.0174858
0.0308168
0.0169281
0.0284716
0.0163836
0.0262373
0.0158582
0.0240764
0.0154036
0.0219225
0.0150236
0.0197445
0.0146713
0.0175783
0.0142903
0.0154919
0.0139063
0.0134972
0.0136147
0.0115342
0.0134477
0.0095581
0.0132987
0.00759825
0.0131488
0.00562461
0.0131278
0.00365539
0.0131352
0.00166249
0.0134204
0.0111015
0.0387454
0.0217967
-0.0413391
0.0362128
0.0211656
0.0337101
0.0205662
0.0313045
0.0198914
0.0289834
0.0192492
0.0267171
0.0186499
0.0245128
0.0180626
0.0224018
0.0175146
0.0203786
0.0170467
0.01839
0.0166599
0.0163853
0.016295
0.0143972
0.0158943
0.0124737
0.0155382
0.0106089
0.0153126
0.008744
0.0151636
0.00688906
0.0150038
0.00506162
0.0149552
0.00317535
0.0150215
0.00132176
0.015274
0.0124232
0.0360535
0.0244022
-0.038659
0.0335535
0.0236656
0.0312486
0.0228712
0.0290575
0.0220824
0.0269269
0.0213798
0.0248312
0.0207456
0.0227524
0.0201414
0.0207204
0.0195466
0.0187671
0.019
0.0168893
0.0185377
0.0150458
0.0181385
0.0132121
0.0177281
0.0114256
0.0173247
0.00968959
0.0170486
0.00797689
0.0168763
0.00624941
0.0167312
0.00457404
0.0166306
0.00296914
0.0166264
0.00132869
0.0169144
0.0137519
0.0325848
-0.0353464
0.030361
0.0283302
0.0263378
0.0243817
0.0224417
0.02055
0.0187061
0.01691
0.0151569
0.0134459
0.0117588
0.0101022
0.00850737
0.00696762
0.00544054
0.00387945
0.00230127
0.000862955
0.00501469
0.00603102
0.0363606
0.00542064
0.0070452
0.0453106
0.00545647
0.00593246
0.0464233
0.0492797
0.00546629
0.00542217
0.04979
0.0530833
0.0051937
0.0050858
0.0534197
0.0569493
0.00486383
0.00477892
0.0572562
0.0611631
0.00451186
0.00448087
0.0614611
0.06571
0.00409828
0.00416742
0.0660235
0.070544
0.00366755
0.00381318
0.0708982
0.0757707
0.00329572
0.00343801
0.0761459
0.0815542
0.00300533
0.00307723
0.0819149
0.0879415
0.00277047
0.00275413
0.0882646
0.0948095
0.00255481
0.00246189
0.0951018
0.101988
0.00232617
0.0021898
0.102261
0.109367
0.00208329
0.00192607
0.109631
0.116963
0.00183807
0.00167625
0.117212
0.124912
0.00161095
0.00145841
0.12513
0.133403
0.00141498
0.00127756
0.133583
0.142525
0.00124447
0.00113067
0.142671
0.152336
0.00109593
0.00100321
0.152464
0.162852
0.000961707
0.000886619
0.162969
0.174098
0.00083777
0.000777205
0.174207
0.18609
0.000723248
0.00067242
0.186194
0.19889
0.000616216
0.000574519
0.198988
0.212547
0.000516989
0.000483387
0.212638
0.227123
0.000425558
0.000397916
0.227208
0.242684
0.000341328
0.000318317
0.242763
0.259322
0.000263991
0.000246043
0.259394
0.277142
0.000185598
0.000171856
0.277216
0.296264
9.32624e-05
8.58836e-05
0.29635
0.316916
5.02256e-05
4.52301e-05
0.316957
0.338855
0.3389
0.0465888
-0.0326156
0.0466164
-0.0288441
0.0468193
-0.0251955
0.0470937
-0.021352
0.0472679
-0.016816
0.0476483
-0.0123517
0.0480838
-0.00789055
0.0487355
-0.00312275
0.0495157
0.00150066
0.00670308
0.0500912
-0.0329168
0.0501176
-0.0288704
0.0500478
-0.0251257
0.0503399
-0.0216442
0.0505963
-0.0170724
0.0511036
-0.012859
0.0514203
-0.00820728
0.0521663
-0.00386873
0.0526898
0.000977101
0.00571862
0.0534662
-0.0329633
0.0535891
-0.0289934
0.0534701
-0.0250067
0.0537802
-0.0219543
0.0540493
-0.0173415
0.0547208
-0.0135305
0.0549737
-0.00846017
0.0557254
-0.00462045
0.0561517
0.000550878
0.00470609
0.0573136
-0.0330208
0.057499
-0.0291788
0.0575189
-0.0250266
0.0577973
-0.0222327
0.0580307
-0.0175749
0.0587015
-0.0142013
0.0589908
-0.00874951
0.0596589
-0.00528853
0.0600326
0.000177172
0.00379362
0.0615352
-0.0330949
0.0616791
-0.0293226
0.0617989
-0.0251464
0.0619934
-0.0224272
0.062251
-0.0178325
0.0627241
-0.0146744
0.0631554
-0.00918085
0.0636614
-0.00579448
0.0641564
-0.000317874
0.00312093
0.0660833
-0.0331548
0.0661582
-0.0293975
0.0663428
-0.0253309
0.0664341
-0.0225186
0.0667342
-0.0181326
0.0670293
-0.0149694
0.0675471
-0.00969868
0.0679449
-0.00619223
0.0684879
-0.000860939
0.00260819
0.0708898
-0.0331464
0.0709039
-0.0294116
0.0711034
-0.0255304
0.071117
-0.0225322
0.0714386
-0.0184541
0.0716042
-0.015135
0.0721094
-0.0102039
0.0724539
-0.00653667
0.0730208
-0.00142786
0.00217941
0.0760518
-0.0330523
0.0760398
-0.0293996
0.0762156
-0.0257062
0.0761968
-0.0225134
0.0764693
-0.0187266
0.0765612
-0.015227
0.07699
-0.0106327
0.0772744
-0.00682104
0.0778078
-0.00196123
0.00180882
0.0817295
-0.0328669
0.0816866
-0.0293567
0.0817868
-0.0258063
0.0817361
-0.0224627
0.0818939
-0.0188844
0.0819179
-0.0152509
0.0822214
-0.0109363
0.0824123
-0.00701192
0.0828757
-0.0024246
0.00150967
0.0879568
-0.0325592
0.0878289
-0.0292288
0.0877903
-0.0257677
0.0876853
-0.0223577
0.0876868
-0.0188859
0.0876239
-0.0151881
0.0877865
-0.0110989
0.087877
-0.00710242
0.0882354
-0.00278298
0.00127394
0.094649
-0.0321064
0.0943754
-0.0289553
0.0941553
-0.0255475
0.0939662
-0.0221686
0.0937955
-0.0187152
0.0936474
-0.0150399
0.0936566
-0.0111081
0.093672
-0.00711776
0.0939051
-0.00301612
0.00107738
0.101649
-0.0314947
0.101195
-0.0285012
0.100792
-0.0251446
0.100492
-0.0218686
0.100186
-0.018409
0.0999609
-0.0148151
0.0998459
-0.0109932
0.0998111
-0.00708293
0.0999428
-0.00314783
0.000899052
0.108866
-0.0307303
0.10825
-0.0278846
0.107696
-0.0245915
0.107289
-0.0214612
0.106888
-0.0180082
0.106606
-0.0145325
0.106402
-0.0107898
0.106337
-0.00701785
0.106394
-0.00320512
0.000728234
0.116319
-0.0298371
0.115568
-0.0271332
0.1149
-0.0239241
0.114395
-0.0209561
0.11393
-0.0175426
0.113605
-0.0142077
0.113349
-0.0105342
0.113267
-0.00693535
0.113282
-0.00321985
0.000555056
0.124135
-0.0288416
0.12327
-0.0262686
0.122525
-0.0231794
0.12193
-0.0203605
0.121425
-0.0170377
0.121052
-0.0138352
0.120772
-0.0102535
0.120661
-0.00682516
0.120659
-0.00321728
0.000387751
0.132501
-0.0277586
0.131536
-0.0253041
0.130725
-0.0223686
0.130041
-0.019676
0.129489
-0.0164859
0.129061
-0.0134077
0.128758
-0.0099503
0.12861
-0.00667656
0.128594
-0.00320171
0.000236265
0.141505
-0.0265918
0.140443
-0.024242
0.13956
-0.0214856
0.138787
-0.0189031
0.138175
-0.0158746
0.137689
-0.0129216
0.137359
-0.00961988
0.137167
-0.00648507
0.137134
-0.0031689
0.000106128
0.151207
-0.0253348
0.150052
-0.0230873
0.149079
-0.0205129
0.148217
-0.0180409
0.147535
-0.0151922
0.146981
-0.0123678
0.14661
-0.00924866
0.146375
-0.00624976
0.146312
-0.00310684
7.07744e-07
0.161612
-0.023978
0.160363
-0.0218386
0.159289
-0.0194382
0.158333
-0.0170857
0.157569
-0.0144281
0.156946
-0.0117451
0.156524
-0.00882588
0.156247
-0.00597354
0.156154
-0.00301347
-8.01151e-05
0.17274
-0.0225106
0.171392
-0.0204913
0.170213
-0.0182594
0.169163
-0.0160348
0.16831
-0.0135757
0.167619
-0.0110539
0.167135
-0.00834236
0.166818
-0.00565642
0.166693
-0.00288782
-0.000139784
0.184608
-0.0209237
0.183154
-0.0190381
0.181872
-0.0169775
0.180728
-0.0148903
0.179786
-0.012634
0.179024
-0.0102916
0.178478
-0.00779621
0.178118
-0.00529687
0.177962
-0.0027313
-0.000179916
0.197274
-0.0192097
0.195708
-0.0174718
0.19432
-0.0155894
0.193086
-0.0136564
0.192053
-0.0116013
0.191217
-0.00945583
0.190607
-0.00718626
0.190201
-0.00489061
0.190012
-0.00254245
-0.000202353
0.21079
-0.0173613
0.209104
-0.0157856
0.207605
-0.014091
0.206281
-0.0123318
0.205157
-0.0104774
0.204246
-0.00854499
0.203571
-0.00651152
0.20312
-0.00443949
0.202904
-0.00232584
-0.000213403
0.225219
-0.0153719
0.223407
-0.0139739
0.221793
-0.0124771
0.220374
-0.0109123
0.219166
-0.00926933
0.21818
-0.00755951
0.217442
-0.00577309
0.216947
-0.00394441
0.216703
-0.00208234
-0.000214307
0.240627
-0.0132354
0.238683
-0.0120303
0.236949
-0.0107432
0.23543
-0.00939291
0.234138
-0.00797747
0.233084
-0.00650507
0.232285
-0.00497473
0.231747
-0.00340624
0.231474
-0.00180962
-0.000203579
0.257104
-0.0109453
0.255022
-0.00994848
0.253164
-0.00888502
0.251538
-0.00776736
0.250158
-0.006597
0.249033
-0.00538043
0.248178
-0.00411995
0.247599
-0.00282721
0.247301
-0.00151154
-0.000183063
0.274758
-0.00848747
0.272528
-0.00771806
0.270539
-0.00689575
0.2688
-0.00602894
0.267324
-0.00512094
0.266121
-0.00417757
0.265204
-0.00320242
0.264579
-0.00220227
0.264252
-0.001185
-0.000155689
0.293742
-0.005879
0.29136
-0.00533623
0.289227
-0.00476299
0.287359
-0.00416091
0.28577
-0.00353167
0.284472
-0.00287959
0.283477
-0.0022075
0.282794
-0.00151954
0.28243
-0.000820707
-0.000115606
0.314103
-0.00302489
0.311521
-0.00275437
0.309223
-0.00246469
0.307219
-0.00215676
0.305519
-0.00183187
0.304133
-0.00149354
0.30307
-0.00114429
0.302337
-0.00078715
0.301941
-0.000424715
-5.90299e-05
0.335875
0.333121
0.330656
0.3285
0.326668
0.325174
0.32403
0.323243
0.322818
)
;

boundaryField
{
    outlet
    {
        type            calculated;
        value           nonuniform 0();
    }
    upperWall
    {
        type            symmetryPlane;
        value           uniform 0;
    }
    lowerWall
    {
        type            symmetryPlane;
        value           nonuniform 0();
    }
    inlet
    {
        type            calculated;
        value           nonuniform 0();
    }
    cylinder
    {
        type            calculated;
        value           uniform 0;
    }
    frontAndBack
    {
        type            empty;
        value           nonuniform 0();
    }
    procBoundary5to1
    {
        type            processor;
        value           nonuniform List<scalar> 
20
(
0.0125017
0.0173908
0.0160441
0.00140104
0.00147967
0.00155187
0.00162071
0.00169009
0.00176418
0.00184146
0.00192214
0.00200331
0.00208575
0.00217219
0.00225596
0.00235284
0.00245023
0.00253335
0.00263343
0.00225283
)
;
    }
    procBoundary5to4
    {
        type            processor;
        value           nonuniform List<scalar> 
45
(
-0.0421828
-0.0418482
-0.0412589
-0.00723722
-0.0431528
-0.0418935
-0.0131936
-0.0430538
-0.0165276
-0.0438078
-0.00412684
-0.042227
-0.0396754
-0.00464508
-0.0371362
-0.0453464
-0.0492895
-0.0528107
-0.0566194
-0.0608111
-0.0652964
-0.0701133
-0.0753989
-0.0812638
-0.0877066
-0.0945939
-0.10176
-0.109124
-0.116717
-0.124685
-0.133207
-0.142354
-0.152188
-0.162718
-0.173974
-0.185975
-0.198783
-0.212448
-0.227031
-0.242599
-0.259244
-0.277064
-0.296172
-0.316873
-0.338805
)
;
    }
    procBoundary5to6
    {
        type            processor;
        value           nonuniform List<scalar> 
63
(
0.016192
0.0100089
0.0211229
0.0229817
0.0337291
0.0259957
0.025928
0.0337456
0.0290877
0.0299947
0.0306696
0.0349289
0.0331988
0.0344274
0.0358425
0.0343302
0.00247363
0.0142907
0.000297004
-0.00219324
-0.0047214
-0.00733971
0.00828771
-0.0114883
0.00403013
-0.0151409
0.000432439
-0.0154877
-0.00103527
-0.0139979
0.000793083
-0.0049264
0.054766
0.0581706
0.0617273
0.0652154
-0.030012
0.0695092
0.0739749
0.0784215
0.0825189
0.0872342
0.0924924
0.0976766
0.103386
0.109824
0.116698
0.124157
0.132243
0.140844
0.150068
0.159989
0.170563
0.181892
0.194122
0.207178
0.22115
0.236173
0.252252
0.269485
0.287965
0.307792
0.329058
)
;
    }
}


// ************************************************************************* //
