/*--------------------------------*- C++ -*----------------------------------*\
| =========                 |                                                 |
| \\      /  F ield         | OpenFOAM: The Open Source CFD Toolbox           |
|  \\    /   O peration     | Version:                                        |
|   \\  /    A nd           | Website:  www.openfoam.com                      |
|    \\/     M anipulation  |                                                 |
\*---------------------------------------------------------------------------*/
FoamFile
{
    version     2.0;
    format      ascii;
    class       volScalarField;
    location    "0.3";
    object      p;
}
// * * * * * * * * * * * * * * * * * * * * * * * * * * * * * * * * * * * * * //

dimensions      [0 2 -2 0 0 0 0];


internalField   nonuniform List<scalar> 
400
(
0.126804
0.120094
0.11342
0.106778
0.100167
0.0935825
0.0870239
0.0804883
0.0739736
0.0674777
0.0609987
0.0545348
0.0480844
0.0416456
0.0352172
0.0287979
0.0223864
0.0159816
0.00958328
0.00318852
0.126838
0.120126
0.113448
0.106803
0.100188
0.0936018
0.0870408
0.0805031
0.0739864
0.0674888
0.0610083
0.0545431
0.0480913
0.0416516
0.0352222
0.0288021
0.0223899
0.0159845
0.00958587
0.0031897
0.126864
0.120148
0.113468
0.10682
0.100204
0.0936149
0.0870521
0.0805128
0.0739948
0.0674959
0.0610143
0.0545481
0.0480955
0.041655
0.0352251
0.0288044
0.0223918
0.015986
0.0095872
0.00318974
0.12688
0.120162
0.11348
0.106831
0.100212
0.0936222
0.0870582
0.0805179
0.0739989
0.0674993
0.061017
0.0545502
0.0480971
0.0416562
0.0352259
0.028805
0.0223923
0.0159861
0.0095874
0.00318907
0.126892
0.120172
0.113489
0.106838
0.100218
0.0936271
0.0870621
0.080521
0.0740013
0.067501
0.0610182
0.054551
0.0480976
0.0416564
0.0352259
0.0288048
0.022392
0.0159857
0.00958708
0.00318817
0.126904
0.120182
0.113497
0.106845
0.100224
0.0936318
0.0870658
0.0805238
0.0740034
0.0675026
0.0610193
0.0545517
0.0480979
0.0416565
0.0352258
0.0288045
0.0223916
0.0159851
0.00958665
0.0031873
0.126918
0.120194
0.113507
0.106854
0.100231
0.0936377
0.0870707
0.0805277
0.0740066
0.067505
0.0610212
0.054553
0.0480989
0.0416571
0.0352262
0.0288046
0.0223915
0.0159847
0.00958639
0.00318666
0.126936
0.120209
0.11352
0.106866
0.100242
0.0936464
0.087078
0.0805339
0.0740118
0.0675094
0.0610247
0.0545559
0.0481012
0.0416589
0.0352275
0.0288055
0.0223921
0.015985
0.00958651
0.00318642
0.126959
0.120229
0.113538
0.106882
0.100256
0.0936588
0.0870889
0.0805433
0.0740199
0.0675163
0.0610306
0.0545609
0.0481053
0.0416623
0.0352302
0.0288077
0.0223937
0.0159861
0.00958717
0.00318674
0.126988
0.120256
0.113562
0.106903
0.100275
0.0936756
0.0871037
0.0805564
0.0740313
0.0675263
0.0610392
0.0545682
0.0481116
0.0416676
0.0352346
0.0288113
0.0223965
0.0159882
0.00958846
0.00318776
0.127023
0.120288
0.113592
0.106929
0.100298
0.0936966
0.0871225
0.0805732
0.0740462
0.0675393
0.0610506
0.0545782
0.0481201
0.0416749
0.0352407
0.0288164
0.0224005
0.0159914
0.00959041
0.00318955
0.127062
0.120325
0.113626
0.10696
0.100326
0.0937216
0.087145
0.0805933
0.0740641
0.0675552
0.0610646
0.0545904
0.0481307
0.041684
0.0352484
0.0288229
0.0224056
0.0159957
0.00959297
0.00319209
0.127104
0.120365
0.113664
0.106995
0.100357
0.0937494
0.0871702
0.080616
0.0740844
0.0675732
0.0610806
0.0546044
0.0481429
0.0416946
0.0352575
0.0288305
0.0224118
0.0160009
0.00959604
0.00319533
0.127148
0.120408
0.113705
0.107031
0.100389
0.0937789
0.087197
0.0806402
0.0741061
0.0675926
0.0610977
0.0546196
0.0481562
0.0417061
0.0352673
0.028839
0.0224186
0.0160067
0.00959944
0.00319911
0.127192
0.120449
0.113745
0.107067
0.100421
0.0938084
0.0872239
0.0806645
0.0741279
0.0676122
0.0611151
0.054635
0.0481698
0.041718
0.0352775
0.0288477
0.0224256
0.0160128
0.00960299
0.00320322
0.127232
0.120489
0.113782
0.107101
0.100452
0.0938364
0.0872494
0.0806876
0.0741487
0.0676308
0.0611318
0.0546498
0.0481828
0.0417294
0.0352873
0.0288561
0.0224325
0.0160188
0.00960651
0.0032074
0.127268
0.120524
0.113815
0.107131
0.100479
0.0938612
0.087272
0.080708
0.0741671
0.0676474
0.0611466
0.054663
0.0481945
0.0417396
0.035296
0.0288637
0.0224386
0.0160243
0.00960981
0.00321137
0.127297
0.120552
0.113841
0.107155
0.100501
0.0938812
0.0872902
0.0807246
0.0741821
0.0676608
0.0611587
0.0546738
0.048204
0.0417479
0.0353032
0.0288699
0.0224438
0.0160289
0.00961277
0.00321488
0.127318
0.120573
0.11386
0.107171
0.100516
0.0938951
0.087303
0.0807362
0.0741927
0.0676704
0.0611672
0.0546814
0.0482108
0.0417539
0.0353083
0.0288743
0.0224475
0.0160322
0.00961512
0.00321763
0.127328
0.120584
0.11387
0.10718
0.100524
0.0939022
0.0873096
0.0807423
0.0741981
0.0676753
0.0611716
0.0546853
0.0482143
0.041757
0.035311
0.0288766
0.0224494
0.016034
0.00961649
0.00321926
)
;

boundaryField
{
    fixedWalls
    {
        type            zeroGradient;
    }
    inlet
    {
        type            zeroGradient;
    }
    outlet
    {
        type            fixedValue;
        value           uniform 0;
    }
    frontAndBack
    {
        type            empty;
    }
    procBoundary3to2
    {
        type            processor;
        value           nonuniform List<scalar> 
20
(
0.133551
0.13359
0.133618
0.133636
0.133651
0.133665
0.133681
0.133702
0.133727
0.133759
0.133797
0.133841
0.133888
0.133937
0.133986
0.134031
0.13407
0.134101
0.134121
0.134132
)
;
    }
    procBoundary3to7
    {
        type            processor;
        value           nonuniform List<scalar> 
20
(
0.127328
0.120584
0.11387
0.10718
0.100524
0.0939023
0.0873096
0.0807423
0.0741981
0.0676753
0.0611716
0.0546853
0.0482143
0.041757
0.035311
0.0288766
0.0224494
0.0160339
0.00961607
0.00321895
)
;
    }
}


// ************************************************************************* //
