/*--------------------------------*- C++ -*----------------------------------*\
| =========                 |                                                 |
| \\      /  F ield         | OpenFOAM: The Open Source CFD Toolbox           |
|  \\    /   O peration     | Version:                                        |
|   \\  /    A nd           | Website:  www.openfoam.com                      |
|    \\/     M anipulation  |                                                 |
\*---------------------------------------------------------------------------*/
FoamFile
{
    version     2.0;
    format      ascii;
    class       surfaceScalarField;
    location    "0.3";
    object      phi;
}
// * * * * * * * * * * * * * * * * * * * * * * * * * * * * * * * * * * * * * //

dimensions      [0 3 -1 0 0 0 0];
oriented        oriented;


internalField   nonuniform List<scalar> 
760
(
2.00974e-06
2.4375e-09
2.00752e-06
2.21965e-09
2.00552e-06
1.99994e-09
2.00373e-06
1.78981e-09
2.00213e-06
1.5966e-09
2.00071e-06
1.41967e-09
1.99945e-06
1.25723e-09
1.99834e-06
1.10851e-09
1.99737e-06
9.73121e-10
1.99652e-06
8.4981e-10
1.99578e-06
7.38695e-10
1.99514e-06
6.3854e-10
1.99459e-06
5.49013e-10
1.99412e-06
4.69979e-10
1.99372e-06
4.00505e-10
1.99338e-06
3.40054e-10
1.9931e-06
2.86834e-10
1.99285e-06
2.46489e-10
1.99265e-06
2.02778e-10
2.40983e-10
5.81558e-06
8.76096e-09
5.80984e-06
7.95516e-09
5.80468e-06
7.1602e-09
5.80008e-06
6.39725e-09
5.79598e-06
5.69162e-09
5.79236e-06
5.04611e-09
5.78916e-06
4.45603e-09
5.78635e-06
3.9179e-09
5.78389e-06
3.42927e-09
5.78176e-06
2.98627e-09
5.77991e-06
2.58811e-09
5.77831e-06
2.23122e-09
5.77695e-06
1.91323e-09
5.77579e-06
1.63267e-09
5.7748e-06
1.38682e-09
5.77397e-06
1.17323e-09
5.77327e-06
9.86974e-10
5.77267e-06
8.39346e-10
5.77218e-06
6.97695e-10
6.74443e-10
9.39919e-06
1.82352e-08
9.39062e-06
1.65265e-08
9.38291e-06
1.48687e-08
9.37603e-06
1.32769e-08
9.36992e-06
1.17979e-08
9.36452e-06
1.04435e-08
9.35977e-06
9.20737e-09
9.35561e-06
8.08195e-09
9.35198e-06
7.0619e-09
9.34882e-06
6.14e-09
9.3461e-06
5.31191e-09
9.34376e-06
4.57146e-09
9.34176e-06
3.91382e-09
9.34006e-06
3.334e-09
9.33862e-06
2.82548e-09
9.33741e-06
2.38515e-09
9.33639e-06
2.00352e-09
9.33554e-06
1.69069e-09
9.33483e-06
1.40813e-09
1.23535e-09
1.27524e-05
3.02795e-08
1.27415e-05
2.73985e-08
1.27317e-05
2.4645e-08
1.2723e-05
2.20064e-08
1.27152e-05
1.95474e-08
1.27084e-05
1.72913e-08
1.27024e-05
1.52317e-08
1.26971e-05
1.33583e-08
1.26925e-05
1.16613e-08
1.26885e-05
1.01299e-08
1.26851e-05
8.75573e-09
1.26821e-05
7.52851e-09
1.26796e-05
6.43843e-09
1.26774e-05
5.47865e-09
1.26756e-05
4.63893e-09
1.26741e-05
3.90999e-09
1.26728e-05
3.27978e-09
1.26718e-05
2.7539e-09
1.26709e-05
2.29719e-09
1.91684e-09
1.5868e-05
4.43621e-08
1.58554e-05
4.00894e-08
1.58439e-05
3.60539e-08
1.58337e-05
3.22046e-08
1.58247e-05
2.86114e-08
1.58167e-05
2.53085e-08
1.58096e-05
2.22902e-08
1.58034e-05
1.95438e-08
1.5798e-05
1.70562e-08
1.57933e-05
1.48122e-08
1.57893e-05
1.27979e-08
1.57858e-05
1.10008e-08
1.57829e-05
9.40641e-09
1.57803e-05
8.00031e-09
1.57782e-05
6.76999e-09
1.57764e-05
5.70184e-09
1.57749e-05
4.78188e-09
1.57737e-05
4.00034e-09
1.57726e-05
3.34664e-09
2.71431e-09
1.87409e-05
5.99108e-08
1.87269e-05
5.40933e-08
1.87143e-05
4.8639e-08
1.8703e-05
4.34683e-08
1.8693e-05
3.86427e-08
1.86841e-05
3.41984e-08
1.86763e-05
3.01304e-08
1.86694e-05
2.64258e-08
1.86634e-05
2.30678e-08
1.86582e-05
2.00384e-08
1.86536e-05
1.73181e-08
1.86497e-05
1.48885e-08
1.86464e-05
1.27328e-08
1.86436e-05
1.0831e-08
1.86412e-05
9.16772e-09
1.86392e-05
7.71958e-09
1.86375e-05
6.47667e-09
1.86361e-05
5.40322e-09
1.86349e-05
4.53996e-09
3.62008e-09
2.13677e-05
7.62459e-08
2.1353e-05
6.88198e-08
2.13398e-05
6.18736e-08
2.13279e-05
5.53279e-08
2.13173e-05
4.92288e-08
2.13079e-05
4.3605e-08
2.12996e-05
3.8449e-08
2.12923e-05
3.37468e-08
2.12859e-05
2.94796e-08
2.12803e-05
2.56249e-08
2.12754e-05
2.21612e-08
2.12713e-05
1.90654e-08
2.12677e-05
1.63162e-08
2.12646e-05
1.38873e-08
2.1262e-05
1.17628e-08
2.12598e-05
9.90708e-09
2.1258e-05
8.32118e-09
2.12565e-05
6.92818e-09
2.12552e-05
5.85185e-09
4.61742e-09
2.37478e-05
9.25477e-08
2.37331e-05
8.35541e-08
2.37199e-05
7.51223e-08
2.3708e-05
6.7218e-08
2.36973e-05
5.9871e-08
2.36878e-05
5.30914e-08
2.36794e-05
4.6866e-08
2.3672e-05
4.11785e-08
2.36655e-05
3.60099e-08
2.36598e-05
3.13344e-08
2.36548e-05
2.7127e-08
2.36505e-05
2.3362e-08
2.36468e-05
2.00147e-08
2.36436e-05
1.70514e-08
2.36409e-05
1.44582e-08
2.36387e-05
1.21848e-08
2.36367e-05
1.0252e-08
2.36351e-05
8.52366e-09
2.36337e-05
7.24024e-09
5.67537e-09
2.58831e-05
1.07858e-07
2.58692e-05
9.74509e-08
2.58567e-05
8.76372e-08
2.58454e-05
7.84707e-08
2.58353e-05
6.99741e-08
2.58263e-05
6.21297e-08
2.58182e-05
5.49168e-08
2.58111e-05
4.8316e-08
2.58048e-05
4.2307e-08
2.57993e-05
3.6863e-08
2.57945e-05
3.19555e-08
2.57903e-05
2.75556e-08
2.57866e-05
2.3639e-08
2.57835e-05
2.01647e-08
2.57809e-05
1.71224e-08
2.57786e-05
1.44426e-08
2.57767e-05
1.21778e-08
2.57751e-05
1.01148e-08
2.57737e-05
8.64115e-09
6.74524e-09
2.77781e-05
1.2112e-07
2.7766e-05
1.09562e-07
2.7755e-05
9.85751e-08
2.77452e-05
8.83324e-08
2.77363e-05
7.8862e-08
2.77283e-05
7.01164e-08
2.77211e-05
6.20647e-08
2.77148e-05
5.46852e-08
2.77091e-05
4.79545e-08
2.77041e-05
4.18458e-08
2.76998e-05
3.63298e-08
2.76959e-05
3.13739e-08
2.76926e-05
2.69555e-08
2.76898e-05
2.30275e-08
2.76873e-05
1.95861e-08
2.76852e-05
1.65383e-08
2.76834e-05
1.3978e-08
2.76819e-05
1.16025e-08
2.76806e-05
9.96747e-09
7.75989e-09
2.94399e-05
1.31251e-07
2.94306e-05
1.18894e-07
2.94221e-05
1.07046e-07
2.94145e-05
9.60058e-08
2.94075e-05
8.58165e-08
2.94012e-05
7.64053e-08
2.93955e-05
6.77301e-08
2.93905e-05
5.97679e-08
2.93859e-05
5.2493e-08
2.93819e-05
4.58774e-08
2.93783e-05
3.98939e-08
2.93752e-05
3.45068e-08
2.93725e-05
2.96956e-08
2.93701e-05
2.54078e-08
2.9368e-05
2.16498e-08
2.93662e-05
1.83026e-08
2.93647e-05
1.55076e-08
2.93635e-05
1.28674e-08
2.93623e-05
1.11119e-08
8.63624e-09
3.08783e-05
1.37228e-07
3.08727e-05
1.24495e-07
3.08676e-05
1.12187e-07
3.08629e-05
1.00714e-07
3.08586e-05
9.01346e-08
3.08546e-05
8.03589e-08
3.0851e-05
7.13373e-08
3.08477e-05
6.30457e-08
3.08448e-05
5.54577e-08
3.08421e-05
4.85446e-08
3.08397e-05
4.22809e-08
3.08376e-05
3.66309e-08
3.08357e-05
3.1576e-08
3.08341e-05
2.70593e-08
3.08326e-05
2.30995e-08
3.08314e-05
1.95529e-08
3.08303e-05
1.66086e-08
3.08294e-05
1.37789e-08
3.08285e-05
1.19551e-08
9.28148e-09
3.21051e-05
1.38192e-07
3.21041e-05
1.25548e-07
3.2103e-05
1.1325e-07
3.21019e-05
1.01778e-07
3.21009e-05
9.11977e-08
3.20998e-05
8.14122e-08
3.20988e-05
7.23715e-08
3.20978e-05
6.40513e-08
3.20968e-05
5.6426e-08
3.20959e-05
4.9467e-08
3.2095e-05
4.31508e-08
3.20942e-05
3.74432e-08
3.20934e-05
3.23288e-08
3.20928e-05
2.77473e-08
3.20921e-05
2.37294e-08
3.20916e-05
2.01122e-08
3.2091e-05
1.71252e-08
3.20906e-05
1.42079e-08
3.20902e-05
1.2378e-08
9.60277e-09
3.31336e-05
1.33542e-07
3.31377e-05
1.21465e-07
3.31413e-05
1.0969e-07
3.31443e-05
9.86963e-08
3.3147e-05
8.85443e-08
3.31493e-05
7.91403e-08
3.31512e-05
7.04414e-08
3.31528e-05
6.2425e-08
3.31542e-05
5.50684e-08
3.31553e-05
4.83443e-08
3.31562e-05
4.22318e-08
3.3157e-05
3.66994e-08
3.31576e-05
3.17356e-08
3.3158e-05
2.72788e-08
3.31584e-05
2.33683e-08
3.31587e-05
1.98317e-08
3.31589e-05
1.69245e-08
3.3159e-05
1.40444e-08
3.31591e-05
1.22774e-08
9.51939e-09
3.39783e-05
1.23013e-07
3.39878e-05
1.11973e-07
3.39963e-05
1.01242e-07
3.40038e-05
9.12208e-08
3.40104e-05
8.19386e-08
3.40162e-05
7.33185e-08
3.40213e-05
6.53337e-08
3.40258e-05
5.79657e-08
3.40296e-05
5.11957e-08
3.4033e-05
4.50002e-08
3.40358e-05
3.93611e-08
3.40383e-05
3.42504e-08
3.40404e-05
2.96602e-08
3.40421e-05
2.55306e-08
3.40436e-05
2.19051e-08
3.40448e-05
1.86135e-08
3.40458e-05
1.59172e-08
3.40466e-05
1.32143e-08
3.40473e-05
1.15824e-08
8.97542e-09
3.46539e-05
1.06734e-07
3.46687e-05
9.71679e-08
3.4682e-05
8.79832e-08
3.46938e-05
7.9404e-08
3.47043e-05
7.14138e-08
3.47137e-05
6.39658e-08
3.4722e-05
5.70542e-08
3.47293e-05
5.06689e-08
3.47356e-05
4.47957e-08
3.47412e-05
3.94168e-08
3.47461e-05
3.45166e-08
3.47503e-05
3.00711e-08
3.47538e-05
2.60751e-08
3.47569e-05
2.24743e-08
3.47595e-05
1.93107e-08
3.47617e-05
1.64305e-08
3.47635e-05
1.4076e-08
3.4765e-05
1.16949e-08
3.47664e-05
1.02684e-08
7.95151e-09
3.51744e-05
8.52548e-08
3.5194e-05
7.75507e-08
3.52116e-05
7.035e-08
3.52274e-05
6.36182e-08
3.52415e-05
5.72896e-08
3.52541e-05
5.13599e-08
3.52654e-05
4.58456e-08
3.52753e-05
4.07459e-08
3.5284e-05
3.60525e-08
3.52917e-05
3.17528e-08
3.52984e-05
2.78338e-08
3.53042e-05
2.42761e-08
3.53092e-05
2.10769e-08
3.53134e-05
1.81904e-08
3.53171e-05
1.56523e-08
3.53202e-05
1.33376e-08
3.53228e-05
1.14465e-08
3.5325e-05
9.52336e-09
3.53269e-05
8.36804e-09
6.47516e-09
3.55523e-05
5.95449e-08
3.55758e-05
5.40246e-08
3.55971e-05
4.91254e-08
3.56162e-05
4.45329e-08
3.56333e-05
4.01526e-08
3.56486e-05
3.6026e-08
3.56623e-05
3.21796e-08
3.56744e-05
2.86198e-08
3.56851e-05
2.53424e-08
3.56945e-05
2.23407e-08
3.57028e-05
1.96048e-08
3.57099e-05
1.71206e-08
3.57161e-05
1.48868e-08
3.57214e-05
1.28692e-08
3.5726e-05
1.10941e-08
3.57299e-05
9.47336e-09
3.57332e-05
8.14882e-09
3.57359e-05
6.79705e-09
3.57383e-05
5.97605e-09
4.62695e-09
3.57983e-05
3.082e-08
3.58243e-05
2.79485e-08
3.58481e-05
2.53939e-08
3.58695e-05
2.30871e-08
3.58888e-05
2.08317e-08
3.59062e-05
1.87103e-08
3.59216e-05
1.67301e-08
3.59353e-05
1.48967e-08
3.59475e-05
1.32084e-08
3.59581e-05
1.16638e-08
3.59675e-05
1.02573e-08
3.59756e-05
8.98104e-09
3.59827e-05
7.83425e-09
3.59888e-05
6.79636e-09
3.5994e-05
5.88318e-09
3.59984e-05
5.04784e-09
3.60022e-05
4.36638e-09
3.60053e-05
3.66592e-09
3.6008e-05
3.2364e-09
2.52464e-09
3.59194e-05
3.59469e-05
3.59718e-05
3.59945e-05
3.6015e-05
3.60333e-05
3.60497e-05
3.60643e-05
3.60772e-05
3.60885e-05
3.60985e-05
3.61071e-05
3.61146e-05
3.61211e-05
3.61267e-05
3.61314e-05
3.61354e-05
3.61388e-05
3.61417e-05
)
;

boundaryField
{
    fixedWalls
    {
        type            calculated;
        value           uniform 0;
    }
    inlet
    {
        type            calculated;
        value           nonuniform 0();
    }
    outlet
    {
        type            calculated;
        value           nonuniform List<scalar> 
20
(
1.99241e-06
5.77175e-06
9.33427e-06
1.26702e-05
1.57718e-05
1.8634e-05
2.12542e-05
2.36327e-05
2.57726e-05
2.76796e-05
2.93614e-05
3.08279e-05
3.20899e-05
3.31592e-05
3.40479e-05
3.47674e-05
3.53284e-05
3.57401e-05
3.60101e-05
3.61439e-05
)
;
    }
    frontAndBack
    {
        type            empty;
        value           nonuniform 0();
    }
    procBoundary3to2
    {
        type            processor;
        value           nonuniform List<scalar> 
20
(
-2.01217e-06
-5.8219e-06
-9.40866e-06
-1.27644e-05
-1.58821e-05
-1.87564e-05
-2.13841e-05
-2.37641e-05
-2.58984e-05
-2.77913e-05
-2.94501e-05
-3.08843e-05
-3.21061e-05
-3.3129e-05
-3.39678e-05
-3.46376e-05
-3.51529e-05
-3.55266e-05
-3.57695e-05
-3.5889e-05
)
;
    }
    procBoundary3to7
    {
        type            processor;
        value           nonuniform List<scalar> 
20
(
3.44745e-10
4.57012e-10
4.86168e-10
4.12551e-10
3.68926e-10
3.47549e-10
3.35856e-10
3.25951e-10
3.19539e-10
3.15811e-10
3.17022e-10
3.19444e-10
3.23325e-10
3.24949e-10
3.26677e-10
3.23283e-10
3.24296e-10
3.16013e-10
3.3608e-10
3.16645e-10
)
;
    }
}


// ************************************************************************* //
