/*--------------------------------*- C++ -*----------------------------------*\
| =========                 |                                                 |
| \\      /  F ield         | OpenFOAM: The Open Source CFD Toolbox           |
|  \\    /   O peration     | Version:                                        |
|   \\  /    A nd           | Website:  www.openfoam.com                      |
|    \\/     M anipulation  |                                                 |
\*---------------------------------------------------------------------------*/
FoamFile
{
    version     2.0;
    format      ascii;
    class       volVectorField;
    location    "1";
    object      U;
}
// * * * * * * * * * * * * * * * * * * * * * * * * * * * * * * * * * * * * * //

dimensions      [0 1 -1 0 0 0 0];


internalField   nonuniform List<vector> 
400
(
(0.0795458 2.88673e-05 0)
(0.079376 2.78014e-05 0)
(0.0792124 2.67785e-05 0)
(0.079055 2.57961e-05 0)
(0.0789034 2.48535e-05 0)
(0.0787573 2.39479e-05 0)
(0.0786166 2.30801e-05 0)
(0.0784811 2.22466e-05 0)
(0.0783504 2.14507e-05 0)
(0.0782245 2.06879e-05 0)
(0.0781031 1.99631e-05 0)
(0.0779859 1.92784e-05 0)
(0.0778728 1.8624e-05 0)
(0.0777634 1.80602e-05 0)
(0.0776579 1.74527e-05 0)
(0.0775545 1.72331e-05 0)
(0.0774558 1.65322e-05 0)
(0.0773526 1.81838e-05 0)
(0.0772619 1.72917e-05 0)
(0.0770874 3.84179e-05 0)
(0.229936 0.000173432 0)
(0.229469 0.000166961 0)
(0.22902 0.000160754 0)
(0.228587 0.000154797 0)
(0.22817 0.000149083 0)
(0.227769 0.000143598 0)
(0.227383 0.000138341 0)
(0.227011 0.000133297 0)
(0.226652 0.000128473 0)
(0.226307 0.000123854 0)
(0.225974 0.000119458 0)
(0.225652 0.000115287 0)
(0.225342 0.000111326 0)
(0.225043 0.000107763 0)
(0.224754 0.000104221 0)
(0.224471 0.000102056 0)
(0.224202 9.87016e-05 0)
(0.223923 0.000102822 0)
(0.223684 9.97145e-05 0)
(0.223286 0.000151889 0)
(0.371557 0.000476363 0)
(0.370838 0.000458478 0)
(0.370146 0.00044133 0)
(0.36948 0.00042488 0)
(0.368839 0.000409104 0)
(0.368222 0.000393966 0)
(0.367628 0.000379458 0)
(0.367056 0.00036554 0)
(0.366505 0.000352227 0)
(0.365974 0.000339477 0)
(0.365462 0.000327333 0)
(0.364969 0.000315786 0)
(0.364494 0.000304845 0)
(0.364034 0.000294804 0)
(0.363591 0.000285142 0)
(0.363158 0.000278059 0)
(0.362748 0.00026966 0)
(0.362321 0.000273398 0)
(0.361972 0.000267609 0)
(0.361406 0.000327878 0)
(0.504298 0.000902676 0)
(0.503377 0.000868624 0)
(0.50249 0.000835983 0)
(0.501637 0.00080468 0)
(0.500816 0.000774665 0)
(0.500026 0.000745872 0)
(0.499266 0.000718276 0)
(0.498534 0.000691808 0)
(0.497829 0.000666486 0)
(0.49715 0.000642229 0)
(0.496496 0.00061912 0)
(0.495865 0.0005971 0)
(0.495258 0.000576263 0)
(0.494671 0.000556903 0)
(0.494106 0.000538543 0)
(0.493554 0.000523796 0)
(0.493034 0.000508259 0)
(0.492489 0.000507199 0)
(0.492062 0.0004974 0)
(0.491363 0.000546629 0)
(0.628025 0.00141817 0)
(0.626956 0.00136445 0)
(0.625928 0.00131296 0)
(0.624939 0.00126359 0)
(0.623988 0.00121627 0)
(0.623073 0.00117087 0)
(0.622192 0.00112737 0)
(0.621344 0.00108565 0)
(0.620528 0.00104574 0)
(0.619742 0.00100748 0)
(0.618985 0.000971042 0)
(0.618256 0.000936246 0)
(0.617553 0.000903359 0)
(0.616874 0.000872486 0)
(0.616223 0.000843511 0)
(0.615584 0.000818687 0)
(0.614989 0.000794476 0)
(0.614357 0.000783983 0)
(0.613882 0.000769149 0)
(0.613083 0.000796056 0)
(0.7426 0.00199329 0)
(0.741445 0.00191749 0)
(0.740334 0.00184486 0)
(0.739266 0.00177524 0)
(0.738239 0.0017085 0)
(0.73725 0.0016445 0)
(0.736299 0.00158317 0)
(0.735384 0.00152434 0)
(0.734503 0.00146807 0)
(0.733655 0.00141411 0)
(0.732839 0.00136273 0)
(0.732052 0.00131355 0)
(0.731295 0.00126715 0)
(0.730564 0.00122315 0)
(0.729863 0.0011823 0)
(0.729175 0.00114534 0)
(0.728539 0.00111165 0)
(0.727856 0.00108766 0)
(0.727361 0.00106785 0)
(0.7265 0.00106662 0)
(0.847904 0.00259621 0)
(0.846729 0.00249716 0)
(0.8456 0.00240227 0)
(0.844513 0.00231131 0)
(0.843468 0.00222413 0)
(0.842463 0.00214053 0)
(0.841497 0.00206043 0)
(0.840567 0.00198359 0)
(0.839672 0.0019101 0)
(0.83881 0.00183958 0)
(0.837981 0.00177247 0)
(0.837182 0.00170806 0)
(0.836414 0.00164746 0)
(0.835671 0.00158936 0)
(0.834962 0.00153614 0)
(0.834263 0.00148554 0)
(0.833624 0.00144236 0)
(0.832926 0.0014018 0)
(0.83244 0.00137787 0)
(0.831562 0.00134627 0)
(0.943863 0.00319213 0)
(0.942737 0.00307002 0)
(0.941655 0.00295304 0)
(0.940615 0.00284092 0)
(0.939614 0.00273347 0)
(0.938652 0.00263041 0)
(0.937727 0.00253169 0)
(0.936837 0.00243696 0)
(0.93598 0.00234639 0)
(0.935156 0.00225941 0)
(0.934363 0.0021767 0)
(0.933599 0.00209708 0)
(0.932865 0.00202244 0)
(0.932155 0.00195006 0)
(0.931478 0.00188476 0)
(0.93081 0.00181972 0)
(0.930204 0.00176778 0)
(0.929534 0.00170886 0)
(0.929082 0.00168199 0)
(0.928239 0.00162045 0)
(1.03046 0.00374481 0)
(1.02946 0.00360128 0)
(1.02849 0.00346377 0)
(1.02756 0.00333195 0)
(1.02667 0.00320564 0)
(1.02581 0.00308449 0)
(1.02498 0.00296844 0)
(1.02419 0.00285705 0)
(1.02342 0.00275059 0)
(1.02269 0.00264824 0)
(1.02198 0.00255103 0)
(1.0213 0.00245713 0)
(1.02064 0.00236951 0)
(1.02001 0.00228348 0)
(1.01941 0.00220722 0)
(1.01881 0.00212785 0)
(1.01828 0.00206847 0)
(1.01768 0.00199088 0)
(1.01728 0.00196223 0)
(1.01653 0.00187318 0)
(1.10777 0.00421828 0)
(1.10695 0.00405638 0)
(1.10617 0.00390126 0)
(1.10541 0.00375256 0)
(1.10469 0.00361005 0)
(1.10399 0.00347334 0)
(1.10332 0.00334241 0)
(1.10267 0.00321668 0)
(1.10205 0.00309656 0)
(1.10146 0.00298095 0)
(1.10088 0.00287131 0)
(1.10033 0.00276499 0)
(1.0998 0.00266631 0)
(1.09929 0.00256818 0)
(1.0988 0.00248282 0)
(1.09831 0.00239024 0)
(1.09788 0.00232518 0)
(1.0974 0.00223013 0)
(1.09708 0.00220074 0)
(1.09647 0.00208814 0)
(1.17596 0.00457865 0)
(1.17539 0.0044028 0)
(1.17485 0.00423429 0)
(1.17432 0.00407271 0)
(1.17382 0.00391786 0)
(1.17334 0.00376928 0)
(1.17287 0.00362698 0)
(1.17243 0.00349029 0)
(1.172 0.00335974 0)
(1.17158 0.00323393 0)
(1.17118 0.00311482 0)
(1.1708 0.00299885 0)
(1.17043 0.00289183 0)
(1.17008 0.00278404 0)
(1.16974 0.00269208 0)
(1.16941 0.00258847 0)
(1.16911 0.00251979 0)
(1.16878 0.00240998 0)
(1.16857 0.00238071 0)
(1.16815 0.00224968 0)
(1.23529 0.00479616 0)
(1.23503 0.00461195 0)
(1.23477 0.00443538 0)
(1.23453 0.00426605 0)
(1.2343 0.00410374 0)
(1.23407 0.00394796 0)
(1.23385 0.00379877 0)
(1.23365 0.00365539 0)
(1.23345 0.00351851 0)
(1.23326 0.00338642 0)
(1.23307 0.00326158 0)
(1.2329 0.00313953 0)
(1.23272 0.0030276 0)
(1.23256 0.00291341 0)
(1.2324 0.00281787 0)
(1.23226 0.00270642 0)
(1.23212 0.00263638 0)
(1.23197 0.00251577 0)
(1.23187 0.00248738 0)
(1.23169 0.0023439 0)
(1.28613 0.0048473 0)
(1.28621 0.00466121 0)
(1.28628 0.0044828 0)
(1.28636 0.00431165 0)
(1.28642 0.00414757 0)
(1.28649 0.00399005 0)
(1.28656 0.00383919 0)
(1.28662 0.00369412 0)
(1.28668 0.0035557 0)
(1.28674 0.00342192 0)
(1.28679 0.00329574 0)
(1.28685 0.00317184 0)
(1.2869 0.00305894 0)
(1.28695 0.00294233 0)
(1.287 0.00284656 0)
(1.28706 0.00273134 0)
(1.28709 0.00266228 0)
(1.28716 0.00253587 0)
(1.28718 0.00250904 0)
(1.28728 0.0023597 0)
(1.32894 0.00471662 0)
(1.32938 0.00453571 0)
(1.3298 0.00436222 0)
(1.33021 0.00419573 0)
(1.3306 0.0040361 0)
(1.33097 0.00388279 0)
(1.33133 0.00373596 0)
(1.33168 0.00359468 0)
(1.33202 0.00345995 0)
(1.33234 0.00332955 0)
(1.33265 0.00320678 0)
(1.33295 0.00308574 0)
(1.33324 0.00297611 0)
(1.33352 0.0028616 0)
(1.33378 0.00276913 0)
(1.33406 0.00265485 0)
(1.33428 0.00258912 0)
(1.33458 0.00246263 0)
(1.33473 0.00243796 0)
(1.33512 0.00228969 0)
(1.36421 0.00439827 0)
(1.36502 0.00422978 0)
(1.36579 0.00406814 0)
(1.36653 0.00391297 0)
(1.36725 0.00376417 0)
(1.36793 0.00362121 0)
(1.3686 0.00348429 0)
(1.36923 0.00335247 0)
(1.36984 0.00322681 0)
(1.37043 0.00310503 0)
(1.371 0.00299058 0)
(1.37155 0.00287731 0)
(1.37207 0.0027753 0)
(1.37259 0.00266765 0)
(1.37306 0.00258204 0)
(1.37356 0.00247378 0)
(1.37396 0.00241363 0)
(1.3745 0.00229312 0)
(1.37477 0.00227116 0)
(1.37545 0.00213094 0)
(1.39251 0.00389683 0)
(1.39366 0.00374775 0)
(1.39476 0.00360469 0)
(1.39583 0.00346731 0)
(1.39685 0.00333553 0)
(1.39783 0.0032089 0)
(1.39877 0.00308761 0)
(1.39968 0.00297077 0)
(1.40055 0.00285944 0)
(1.4014 0.00275141 0)
(1.4022 0.00265005 0)
(1.40299 0.00254939 0)
(1.40373 0.00245918 0)
(1.40447 0.00236317 0)
(1.40514 0.00228778 0)
(1.40586 0.00219063 0)
(1.40643 0.00213817 0)
(1.4072 0.00202964 0)
(1.40758 0.00201091 0)
(1.40854 0.00188542 0)
(1.41437 0.00322751 0)
(1.41582 0.0031042 0)
(1.41722 0.00298583 0)
(1.41856 0.00287213 0)
(1.41985 0.00276305 0)
(1.42109 0.00265819 0)
(1.42229 0.00255776 0)
(1.42344 0.00246097 0)
(1.42455 0.00236877 0)
(1.42561 0.00227921 0)
(1.42663 0.00219529 0)
(1.42763 0.00211172 0)
(1.42857 0.00203713 0)
(1.42951 0.00195718 0)
(1.43035 0.00189506 0)
(1.43126 0.00181379 0)
(1.43198 0.00177088 0)
(1.43295 0.00167989 0)
(1.43343 0.00166483 0)
(1.43464 0.00156016 0)
(1.43027 0.00241552 0)
(1.43197 0.00232334 0)
(1.4336 0.00223484 0)
(1.43517 0.0021498 0)
(1.43668 0.0020682 0)
(1.43814 0.00198974 0)
(1.43954 0.00191461 0)
(1.44088 0.00184216 0)
(1.44218 0.00177316 0)
(1.44343 0.00170608 0)
(1.44462 0.0016433 0)
(1.44579 0.00158064 0)
(1.44688 0.00152489 0)
(1.44798 0.00146481 0)
(1.44897 0.00141851 0)
(1.45004 0.00135723 0)
(1.45088 0.00132541 0)
(1.45201 0.00125672 0)
(1.45257 0.0012457 0)
(1.45398 0.00116699 0)
(1.44063 0.00149481 0)
(1.4425 0.00143781 0)
(1.4443 0.00138309 0)
(1.44603 0.0013305 0)
(1.4477 0.00128002 0)
(1.4493 0.00123147 0)
(1.45084 0.00118499 0)
(1.45233 0.00114016 0)
(1.45375 0.00109746 0)
(1.45513 0.00105593 0)
(1.45645 0.00101709 0)
(1.45773 0.000978265 0)
(1.45894 0.000943795 0)
(1.46015 0.00090652 0)
(1.46124 0.000877951 0)
(1.46242 0.000839849 0)
(1.46335 0.00082027 0)
(1.46458 0.000777521 0)
(1.46521 0.000770807 0)
(1.46676 0.000721954 0)
(1.44573 0.000506032 0)
(1.44769 0.000486734 0)
(1.44958 0.0004682 0)
(1.45139 0.000450417 0)
(1.45314 0.000433361 0)
(1.45482 0.000416931 0)
(1.45643 0.000401172 0)
(1.45799 0.000385993 0)
(1.45948 0.000371564 0)
(1.46093 0.000357506 0)
(1.46231 0.000344354 0)
(1.46365 0.000331211 0)
(1.46492 0.000319551 0)
(1.46619 0.000306895 0)
(1.46733 0.000297234 0)
(1.46856 0.000284338 0)
(1.46954 0.000277749 0)
(1.47084 0.000263212 0)
(1.47149 0.00026094 0)
(1.47312 0.000244397 0)
)
;

boundaryField
{
    fixedWalls
    {
        type            noSlip;
    }
    inlet
    {
        type            fixedValue;
        value           nonuniform 0();
    }
    outlet
    {
        type            zeroGradient;
    }
    frontAndBack
    {
        type            empty;
    }
    procBoundary3to2
    {
        type            processor;
        value           nonuniform List<vector> 
20
(
(0.0797222 2.99775e-05 0)
(0.230422 0.000180179 0)
(0.372305 0.000495018 0)
(0.505256 0.000938206 0)
(0.629136 0.00147424 0)
(0.743801 0.00207241 0)
(0.849127 0.00269961 0)
(0.945034 0.0033196 0)
(1.03151 0.00389465 0)
(1.10862 0.00438728 0)
(1.17655 0.00476217 0)
(1.23556 0.00498836 0)
(1.28605 0.00504139 0)
(1.32848 0.00490523 0)
(1.36338 0.00457388 0)
(1.39132 0.00405215 0)
(1.41286 0.00335594 0)
(1.4285 0.00251152 0)
(1.43868 0.00155417 0)
(1.44369 0.000526096 0)
)
;
    }
    procBoundary3to7
    {
        type            processor;
        value           nonuniform List<vector> 
20
(
(1.44573 -0.000505946 0)
(1.44769 -0.000486664 0)
(1.44958 -0.000468157 0)
(1.45139 -0.000450347 0)
(1.45314 -0.000433237 0)
(1.45482 -0.000416802 0)
(1.45643 -0.000401087 0)
(1.45799 -0.000385913 0)
(1.45948 -0.000371442 0)
(1.46093 -0.000357371 0)
(1.46231 -0.00034423 0)
(1.46365 -0.000331072 0)
(1.46492 -0.000319408 0)
(1.46619 -0.000306788 0)
(1.46733 -0.00029713 0)
(1.46856 -0.000284173 0)
(1.46954 -0.000277551 0)
(1.47084 -0.000263058 0)
(1.47149 -0.000260809 0)
(1.47312 -0.000244229 0)
)
;
    }
}


// ************************************************************************* //
