/*--------------------------------*- C++ -*----------------------------------*\
| =========                 |                                                 |
| \\      /  F ield         | OpenFOAM: The Open Source CFD Toolbox           |
|  \\    /   O peration     | Version:                                        |
|   \\  /    A nd           | Website:  www.openfoam.com                      |
|    \\/     M anipulation  |                                                 |
\*---------------------------------------------------------------------------*/
FoamFile
{
    version     2.0;
    format      ascii;
    class       volScalarField;
    location    "96";
    object      p;
}
// * * * * * * * * * * * * * * * * * * * * * * * * * * * * * * * * * * * * * //

dimensions      [0 2 -2 0 0 0 0];


internalField   nonuniform List<scalar> 
1153
(
-0.987236
-0.983851
-0.978385
-0.966305
-0.951602
-0.933022
-0.900708
-0.847389
-0.77238
-0.680054
-0.986903
-0.986083
-0.981967
-0.967869
-0.943165
-0.906336
-0.857626
-0.796089
-0.722405
-0.639406
-0.553192
-0.469086
-0.991783
-0.994844
-0.990243
-0.970542
-0.928882
-0.873574
-0.810895
-0.74423
-0.6756
-0.604996
-0.532583
-0.461818
-0.395107
-0.334395
-0.997581
-1.00493
-0.990198
-0.956346
-0.901995
-0.838389
-0.772207
-0.707318
-0.644446
-0.581836
-0.519235
-0.457761
-0.39903
-0.3452
-0.297692
-0.255667
-0.218478
-1.00436
-0.99982
-0.98609
-0.937162
-0.87543
-0.810036
-0.744558
-0.681977
-0.622638
-0.565549
-0.509367
-0.454248
-0.401858
-0.352848
-0.308069
-0.268617
-0.233661
-0.202406
-0.174404
-0.149178
-1.02387
-0.993592
-0.970382
-0.916227
-0.850397
-0.783225
-0.71836
-0.656797
-0.598813
-0.544308
-0.492561
-0.443409
-0.396734
-0.353279
-0.313784
-0.277772
-0.245478
-0.216122
-0.189014
-0.163656
-1.03999
-1.01656
-0.955153
-0.885773
-0.817369
-0.751868
-0.689271
-0.630329
-0.575625
-0.525024
-0.47819
-0.43382
-0.391673
-0.352038
-0.315088
-0.28152
-0.250579
-0.222649
-0.197986
-0.17483
-1.01069
-1.00777
-0.931741
-0.852654
-0.782519
-0.719554
-0.661168
-0.60646
-0.555356
-0.507838
-0.463035
-0.421034
-0.381627
-0.344856
-0.310981
-0.279772
-0.251665
-0.22557
-0.20102
-0.178732
-0.969098
-0.955953
-0.892404
-0.818713
-0.750356
-0.688439
-0.631571
-0.578399
-0.528742
-0.482632
-0.440272
-0.401202
-0.365139
-0.33179
-0.300994
-0.27256
-0.246113
-0.222457
-0.200783
-0.179875
-0.946259
-0.915065
-0.858173
-0.786613
-0.718201
-0.655477
-0.598522
-0.546802
-0.499588
-0.45654
-0.416949
-0.380404
-0.346557
-0.315187
-0.286101
-0.259772
-0.235916
-0.213744
-0.193736
-0.175656
-0.618511
-0.634497
-0.676269
-0.63265
-0.66278
-0.713046
-0.777134
-0.69015
-0.736078
-0.800485
-0.869617
-0.820726
-0.862318
-0.930434
-1.00268
-0.944184
-0.994018
-1.06652
-1.13709
-1.04101
-1.08761
-1.15876
-1.22473
-1.26984
-1.07551
-1.10997
-1.16813
-1.21974
-1.25163
-1.25561
-1.05425
-1.07331
-1.11143
-1.14293
-1.1616
-1.16065
-1.13416
-1.014
-1.01795
-1.03229
-1.04915
-1.05554
-1.05154
-1.03122
-0.984832
-0.995162
-0.992676
-0.9929
-0.98949
-0.981986
-0.972606
-0.951733
-0.907463
-0.83377
-0.157146
-0.158191
-0.155609
-0.149205
-0.136982
-0.13746
-0.136188
-0.130814
-0.123367
-0.112615
-0.119242
-0.116162
-0.10955
-0.103276
-0.0958402
-0.102931
-0.0994934
-0.0934431
-0.0884114
-0.0833946
-0.0879625
-0.0849717
-0.0794848
-0.0747711
-0.0702309
-0.0638486
-0.0750395
-0.0722979
-0.0671437
-0.0620463
-0.0571797
-0.0511404
-0.0630643
-0.0603589
-0.0556788
-0.0505889
-0.0461079
-0.0419909
-0.0521346
-0.0496886
-0.0456289
-0.041186
-0.037587
-0.0350698
-0.042325
-0.0402187
-0.0367761
-0.0330955
-0.0298305
-0.0269338
-0.0335471
-0.0317099
-0.0286877
-0.0252011
-0.0217439
-0.0189307
-0.025718
-0.0240748
-0.0214967
-0.0184776
-0.01585
-0.0143875
-0.0189272
-0.0175555
-0.0155651
-0.0132823
-0.0112555
-0.00953696
-0.0130548
-0.0118266
-0.0100824
-0.00790577
-0.00557515
-0.0035635
-0.00777433
-0.00658259
-0.00497209
-0.00308782
-0.00136689
-0.0004288
-0.00308599
-0.00210146
-0.00084837
0.000540953
0.00182815
0.00287373
0.00106959
0.00185593
0.00289911
0.00416927
0.00548881
0.00659815
0.00486228
0.0054987
0.00634512
0.00739292
0.00838996
0.00908483
0.00823448
0.00869479
0.00929249
0.010065
0.010854
0.0115145
0.0112081
0.0115376
0.0119741
0.0125846
0.0132584
0.0138224
0.0138503
0.014078
0.0143711
0.014802
0.0152932
0.015705
0.0161587
0.0162949
0.0164561
0.0167307
0.0170836
0.0174194
0.018135
0.0182107
0.0182826
0.0184488
0.0187027
0.0189666
0.0198097
0.0198537
0.0198663
0.019937
0.0200826
0.0202524
0.0211738
0.0211932
0.0211634
0.0211707
0.0212543
0.0213859
0.0222661
0.0222795
0.0222457
0.0222323
0.0222746
0.0223521
0.0231302
0.0231294
0.0230851
0.0230446
0.023041
0.023071
0.0237967
0.0237714
0.0237208
0.0236761
0.0236626
0.0236809
0.0242593
0.0242155
0.0241645
0.0241223
0.0241008
0.0240997
0.0244713
0.0244369
0.0243984
0.0243633
0.0243384
0.0243265
0.0246018
0.0245822
0.0245597
0.0245376
0.0245181
0.0245045
-0.00118037
-0.000480599
-0.000358699
-0.000835051
-0.0021357
-0.00455379
-0.00813061
-0.012833
-0.0187186
-0.0260114
-0.0349767
-0.0461405
-0.0599983
-0.0771284
-0.0988745
-0.127011
-0.163794
-0.21103
-0.272135
-0.371072
-0.0220252
-0.0218002
-0.0248244
-0.0294992
-0.0346487
-0.0403366
-0.0468839
-0.0545905
-0.0637893
-0.074893
-0.088228
-0.104039
-0.12315
-0.146574
-0.175503
-0.211228
-0.256024
-0.311961
-0.380832
-0.497265
-0.0403404
-0.0423358
-0.0485886
-0.0569363
-0.0658759
-0.0749802
-0.0848942
-0.0960725
-0.10876
-0.123317
-0.140494
-0.160919
-0.185128
-0.213871
-0.248473
-0.290861
-0.34361
-0.408108
-0.484065
-0.612782
-0.0608358
-0.0652942
-0.0738724
-0.0844797
-0.0958982
-0.10785
-0.12072
-0.135236
-0.151749
-0.170272
-0.1912
-0.215256
-0.243495
-0.277113
-0.317365
-0.365743
-0.425197
-0.497214
-0.577602
-0.715092
-0.0828481
-0.0896072
-0.100315
-0.112939
-0.126155
-0.140128
-0.155513
-0.172573
-0.191872
-0.213842
-0.238706
-0.267127
-0.299831
-0.337728
-0.381945
-0.434249
-0.498207
-0.577488
-0.662465
-0.800237
-0.104302
-0.112916
-0.12547
-0.140028
-0.15531
-0.171289
-0.188848
-0.208553
-0.230476
-0.255173
-0.283073
-0.31451
-0.350346
-0.391901
-0.440466
-0.496911
-0.563867
-0.648438
-0.73598
-0.86455
-0.123843
-0.1347
-0.148906
-0.164729
-0.181801
-0.200088
-0.219859
-0.2418
-0.26617
-0.293223
-0.323698
-0.358307
-0.397605
-0.442473
-0.493766
-0.552439
-0.620215
-0.705455
-0.797382
-0.911562
-0.140528
-0.153666
-0.169809
-0.187078
-0.205327
-0.225499
-0.247772
-0.272238
-0.299333
-0.329349
-0.362513
-0.399237
-0.440316
-0.486994
-0.540529
-0.601667
-0.671479
-0.753106
-0.840539
-0.937915
-0.154898
-0.170154
-0.18739
-0.206257
-0.226586
-0.248251
-0.272313
-0.299005
-0.328197
-0.360169
-0.395365
-0.434452
-0.478282
-0.527472
-0.582798
-0.644807
-0.7141
-0.791717
-0.869918
-0.949504
-0.166381
-0.183476
-0.201981
-0.221917
-0.24419
-0.268668
-0.294837
-0.323458
-0.354965
-0.389653
-0.427796
-0.469426
-0.514794
-0.564785
-0.620486
-0.682685
-0.751255
-0.82563
-0.892671
-0.946994
0.213854
0.226785
0.241103
0.256929
0.274318
0.293261
0.313699
0.335527
0.35868
0.383053
0.408499
0.434743
0.461272
0.487125
0.510955
0.529993
0.541819
0.206195
0.218641
0.232347
0.247494
0.264227
0.282562
0.302397
0.323589
0.346019
0.369557
0.394094
0.419375
0.444924
0.469791
0.492579
0.510137
0.520275
0.194176
0.205844
0.218775
0.23307
0.248845
0.266085
0.284688
0.304514
0.325457
0.347379
0.370123
0.393344
0.416493
0.438521
0.458003
0.472379
0.479897
0.169308
0.178345
0.188972
0.200911
0.214113
0.228612
0.244355
0.261186
0.278958
0.297588
0.316994
0.336981
0.357086
0.376587
0.394322
0.408933
0.417505
0.419373
0.151445
0.159133
0.168597
0.179282
0.190986
0.20372
0.217462
0.232026
0.247194
0.262824
0.278842
0.295053
0.310991
0.3258
0.338083
0.346342
0.34761
0.341178
0.127109
0.130559
0.136776
0.144925
0.154149
0.164023
0.174516
0.18571
0.197495
0.20961
0.221766
0.233788
0.245449
0.256239
0.265316
0.271158
0.271912
0.263902
0.245651
0.107416
0.105488
0.107162
0.111913
0.11862
0.126195
0.134072
0.142073
0.150255
0.158619
0.167017
0.175155
0.182678
0.189183
0.194116
0.196542
0.194807
0.186879
0.16862
0.136727
0.0856607
0.0811245
0.0810796
0.0844938
0.0896793
0.095414
0.101097
0.106522
0.111622
0.116403
0.120719
0.12432
0.126843
0.127763
0.126196
0.121167
0.111127
0.0939756
0.0646068
0.0162765
0.0618473
0.0552582
0.0540968
0.0564533
0.0598006
0.0629608
0.065623
0.0678521
0.0695811
0.0706667
0.0708714
0.0698708
0.0671253
0.0620885
0.0539896
0.0414351
0.0223703
-0.00520028
-0.0458143
-0.110251
0.0328752
0.0266485
0.0265169
0.0282596
0.0296614
0.0299914
0.0293121
0.0278975
0.0257417
0.0226513
0.0183007
0.0124047
0.00443842
-0.0066007
-0.0218568
-0.0423455
-0.0699486
-0.107127
-0.158579
-0.241751
0.0917133
0.071516
0.058328
0.0472968
0.0404173
0.0228095
0.0290267
0.0154817
0.0216852
0.00996842
0.015714
0.0053135
0.0109684
0.0017532
0.00742667
-0.000770707
0.00491915
-0.00237671
0.00327035
-0.00319323
0.00236083
-0.0033692
0.00214662
-0.00294495
0.00252031
-0.0020059
0.00334741
-0.000629814
0.00457436
0.00111467
0.00609346
0.0031302
0.00780058
0.0053315
0.00958818
0.00759657
0.0113807
0.00982467
0.0131451
0.0119409
0.0148673
0.0139228
0.016526
0.0157714
0.0180856
0.01748
0.0195266
0.0190474
0.0208439
0.0204736
0.0220338
0.021758
0.0230985
0.0229041
0.0240351
0.0239156
0.0247574
0.0246985
0.0252041
0.0251451
0.0261847
0.0259143
0.0263155
0.0260175
-0.000761803
-0.0249731
-0.04324
-0.0604615
-0.0798209
-0.0994545
-0.116134
-0.130813
-0.142597
-0.151506
-0.00226237
-0.0260084
-0.0463408
-0.0618465
-0.0778283
-0.0939531
-0.107985
-0.120284
-0.12907
-0.135455
-0.00490531
-0.0257793
-0.0458182
-0.0606208
-0.073772
-0.0862714
-0.0977893
-0.107885
-0.114502
-0.119483
-0.00749547
-0.0257337
-0.0445497
-0.0591848
-0.070511
-0.0803471
-0.0890025
-0.0968618
-0.100931
-0.104589
-0.00957811
-0.0255947
-0.0423883
-0.0558957
-0.0656856
-0.0732675
-0.0793594
-0.0851167
-0.0874871
-0.0899029
-0.0110569
-0.0251341
-0.0396539
-0.0516415
-0.0602618
-0.0663454
-0.0705653
-0.074349
-0.0755166
-0.0766421
-0.0117261
-0.0241623
-0.0364579
-0.0466009
-0.0541312
-0.0591082
-0.0619447
-0.0640089
-0.0643445
-0.0644866
-0.0115927
-0.0225671
-0.0328012
-0.0411431
-0.0476367
-0.0518153
-0.0537735
-0.0544833
-0.0541263
-0.0535617
-0.0107599
-0.0202529
-0.0286974
-0.0355047
-0.040963
-0.0445533
-0.0459332
-0.04573
-0.0447462
-0.0436805
-0.00937698
-0.0174126
-0.0242835
-0.0298116
-0.0343392
-0.0374029
-0.0384168
-0.0377193
-0.0362671
-0.0348681
-0.00759538
-0.0142752
-0.01971
-0.024126
-0.0278687
-0.0304544
-0.0312317
-0.0303418
-0.0286661
-0.0270519
-0.00546645
-0.0109592
-0.0151491
-0.0185791
-0.0216481
-0.0238227
-0.0244282
-0.0235255
-0.0218616
-0.0202208
-0.00307324
-0.00758633
-0.010752
-0.0133007
-0.0157487
-0.0175671
-0.0180582
-0.0172352
-0.0157505
-0.0142564
-0.000481485
-0.00420634
-0.00656117
-0.00836297
-0.0102438
-0.0117596
-0.0121922
-0.0114877
-0.0102012
-0.00889466
0.00224517
-0.000854839
-0.00261726
-0.00382949
-0.00520399
-0.00644874
-0.0068558
-0.0062792
-0.00517067
-0.00404654
0.00502475
0.00244835
0.00109292
0.000307483
-0.00064523
-0.00163892
-0.00204386
-0.00161482
-0.000676952
0.00028331
0.0077599
0.00566202
0.00458201
0.0040583
0.0034197
0.00265574
0.00226255
0.0025613
0.00334989
0.00419547
0.0103413
0.00869711
0.00782934
0.00744422
0.00700575
0.00643675
0.00610002
0.0063116
0.00696567
0.00768779
0.0127144
0.0114775
0.0108015
0.0104866
0.0101559
0.00973536
0.00948285
0.00965148
0.0101842
0.010777
0.0148626
0.013959
0.0134549
0.0131904
0.0129161
0.012597
0.0124305
0.012593
0.013037
0.0135166
0.0167955
0.0161433
0.0157764
0.0155567
0.0153155
0.0150618
0.0149569
0.0151249
0.0155082
0.0159053
0.018533
0.0180608
0.0177912
0.0176075
0.017392
0.0171779
0.0171038
0.0172645
0.0175987
0.0179354
0.0200917
0.0197489
0.0195445
0.0193859
0.0191893
0.0189949
0.0189247
0.0190595
0.0193467
0.0196394
0.0214825
0.0212329
0.021069
0.0209234
0.0207399
0.0205558
0.0204732
0.0205643
0.020792
0.0210332
0.0227156
0.0225364
0.0223991
0.0222586
0.0220813
0.0218994
0.0217936
0.0218259
0.0219778
0.0221559
0.0238077
0.0236926
0.0235784
0.0234371
0.0232549
0.0230624
0.0229239
0.0228908
0.0229583
0.0230624
0.024663
0.0246195
0.0245514
0.0244343
0.024262
0.0240619
0.023888
0.0237865
0.0237651
0.0237854
0.025118
0.0250872
0.025039
0.0249564
0.0248312
0.0246758
0.0245216
0.0244018
0.0243301
0.0242919
0.0256205
0.0253472
0.025129
0.0249619
0.0248313
0.0247257
0.0246407
0.0245771
0.0245331
0.0245013
0.025697
0.0253954
0.0251495
0.0249635
0.0248319
0.0247449
0.0246901
0.0246569
0.0246354
0.024619
)
;

boundaryField
{
    outlet
    {
        type            fixedValue;
        value           nonuniform 0();
    }
    upperWall
    {
        type            symmetryPlane;
    }
    lowerWall
    {
        type            symmetryPlane;
    }
    inlet
    {
        type            zeroGradient;
    }
    cylinder
    {
        type            zeroGradient;
    }
    frontAndBack
    {
        type            empty;
    }
    procBoundary5to1
    {
        type            processor;
        value           nonuniform List<scalar> 
20
(
-0.628422
-0.632047
-0.667133
0.217365
0.230323
0.244908
0.26109
0.278759
0.297816
0.318217
0.339945
0.362965
0.387245
0.412601
0.438657
0.464837
0.490074
0.513048
0.531539
0.543245
)
;
    }
    procBoundary5to4
    {
        type            processor;
        value           nonuniform List<scalar> 
45
(
0.202206
0.194952
0.183858
0.183858
0.16221
0.146118
0.146118
0.126521
0.126521
0.109873
0.109873
0.0939965
0.0770645
0.0770645
0.0642014
0.0517678
0.0405826
0.0316875
0.0248405
0.0194019
0.0150446
0.011736
0.00940428
0.00785797
0.00700841
0.00679847
0.00707098
0.00775984
0.00876408
0.00997378
0.0113166
0.0127579
0.0142683
0.0158092
0.0173235
0.0187498
0.0200663
0.021272
0.0223637
0.0233434
0.0242053
0.0248738
0.0253264
0.026423
0.0265797
)
;
    }
    procBoundary5to6
    {
        type            processor;
        value           nonuniform List<scalar> 
63
(
-0.579218
-0.73416
-0.579218
-0.47848
-0.390987
-0.390987
-0.319988
-0.280786
-0.280786
-0.234734
-0.195107
-0.18526
-0.18526
-0.156045
-0.128951
-0.122273
-0.735642
-0.735642
-0.845152
-0.932756
-1.06149
-1.19085
-1.19085
-1.28253
-1.28253
-1.22631
-1.22631
-1.07769
-1.07769
-0.90777
-0.90777
-0.73416
-0.122273
-0.0991677
-0.0864667
-0.0767234
-0.0767234
-0.0568528
-0.045049
-0.0384687
-0.0321557
-0.023139
-0.0166326
-0.0133637
-0.00717684
-0.00221988
-2.81023e-05
0.00402488
0.00733319
0.00948196
0.0120453
0.0141934
0.015979
0.0176677
0.0191586
0.0203858
0.021511
0.0224196
0.0231105
0.0237119
0.0241069
0.0243236
0.0244968
)
;
    }
}


// ************************************************************************* //
