/*--------------------------------*- C++ -*----------------------------------*\
| =========                 |                                                 |
| \\      /  F ield         | OpenFOAM: The Open Source CFD Toolbox           |
|  \\    /   O peration     | Version:                                        |
|   \\  /    A nd           | Website:  www.openfoam.com                      |
|    \\/     M anipulation  |                                                 |
\*---------------------------------------------------------------------------*/
FoamFile
{
    version     2.0;
    format      ascii;
    class       volVectorField;
    location    "139.8";
    object      U;
}
// * * * * * * * * * * * * * * * * * * * * * * * * * * * * * * * * * * * * * //

dimensions      [0 1 -1 0 0 0 0];


internalField   nonuniform List<vector> 
1164
(
(0.61803 -0.898209 -2.79111e-22)
(0.680071 -0.958349 -1.26476e-20)
(0.758189 -0.985417 1.91199e-20)
(0.844361 -1.00058 3.44014e-21)
(0.946429 -0.975176 1.42543e-20)
(1.04064 -0.945914 1.1918e-19)
(0.514567 -0.638488 -1.89353e-21)
(0.648031 -0.698164 2.14094e-20)
(0.808139 -0.738596 -1.6333e-20)
(0.94069 -0.788034 -4.3283e-20)
(1.0611 -0.81342 -3.52929e-20)
(1.16252 -0.827967 -2.12778e-20)
(1.23839 -0.823926 2.2103e-20)
(1.27849 -0.783776 -1.95029e-20)
(1.31668 -0.739839 4.64604e-20)
(1.2211 -0.632916 -2.81123e-20)
(0.471361 -0.277562 3.25193e-21)
(0.603305 -0.285057 -9.76508e-21)
(0.763567 -0.312387 7.95837e-21)
(0.934677 -0.351642 9.44084e-21)
(1.09392 -0.400316 -8.88173e-21)
(1.22764 -0.448369 -1.43813e-19)
(1.3434 -0.506748 -8.83675e-20)
(1.38085 -0.519886 -3.63271e-20)
(1.42848 -0.563925 -3.06223e-20)
(1.36326 -0.590926 4.10171e-20)
(0.564526 0.273899 2.1666e-22)
(0.713263 0.268882 6.03544e-21)
(0.864269 0.235083 -6.27447e-21)
(1.02263 0.195506 2.27863e-20)
(1.16476 0.111577 6.67614e-20)
(1.29369 0.0564786 1.53853e-19)
(1.40693 -0.0494338 3.87341e-20)
(1.45834 -0.0977488 2.23487e-20)
(1.57069 -0.169531 -5.9794e-20)
(1.49297 -0.252923 -2.90994e-20)
(0.481886 0.575415 -3.29023e-21)
(0.606232 0.61473 -9.98179e-22)
(0.761674 0.627206 -1.99556e-20)
(0.945375 0.609474 -9.50971e-21)
(1.13429 0.55371 -2.39296e-20)
(1.29753 0.475567 -7.75889e-20)
(1.4302 0.354347 3.29959e-20)
(1.52357 0.259533 -1.63063e-22)
(1.6177 0.151132 1.99094e-20)
(1.54067 -0.00257979 -2.99682e-20)
(0.656745 0.789954 1.70468e-21)
(0.739787 0.798054 -8.92157e-21)
(0.827267 0.820728 2.98321e-21)
(0.923954 0.786566 3.1448e-22)
(1.00857 0.75983 -1.44816e-20)
(1.10085 0.683836 4.72588e-21)
(1.20234 0.60346 2.30094e-20)
(1.29544 0.491929 3.30844e-20)
(1.36094 0.367611 1.11001e-20)
(1.34408 0.219603 -1.41911e-21)
(0.6094 0.806416 -3.80486e-22)
(0.657463 0.798101 9.70473e-21)
(0.716498 0.788242 2.25778e-20)
(0.814166 0.764891 -1.41534e-20)
(0.925026 0.734393 1.09876e-20)
(1.04328 0.689499 2.26925e-21)
(1.12533 0.639786 -1.72591e-20)
(1.1703 0.578008 1.21227e-21)
(1.20732 0.510385 2.65052e-20)
(1.23363 0.437054 2.39803e-20)
(0.545852 0.675611 1.6128e-21)
(0.596004 0.666406 -1.69476e-22)
(0.642328 0.622253 -1.79466e-21)
(0.689021 0.594267 5.86572e-21)
(0.738474 0.550844 7.71818e-21)
(0.794535 0.510145 8.7459e-21)
(0.85332 0.450861 -4.4713e-21)
(0.940382 0.406252 9.55271e-21)
(1.01011 0.356638 -5.63807e-21)
(1.07794 0.321641 -1.57846e-21)
(0.461001 0.800656 -1.12502e-21)
(0.495082 0.7947 -5.5725e-21)
(0.546182 0.758533 -1.84412e-22)
(0.611343 0.721285 1.47723e-21)
(0.693321 0.681944 6.75827e-21)
(0.765613 0.622388 3.0501e-21)
(0.818921 0.551174 8.41846e-21)
(0.867438 0.473106 -7.40233e-21)
(0.907856 0.391025 2.62416e-21)
(0.984689 0.322275 6.17055e-21)
(0.474546 0.320867 -5.08116e-22)
(0.437749 0.305032 1.78002e-21)
(0.441316 0.321208 -5.1183e-21)
(0.449575 0.317822 6.47964e-21)
(0.482153 0.350683 -1.03226e-20)
(0.503962 0.373381 -4.45792e-21)
(0.502247 0.389969 4.54296e-21)
(0.569099 0.40493 -4.1521e-22)
(0.652453 0.38738 5.49744e-21)
(0.791626 0.350695 2.33107e-22)
(0.417136 -0.0049569 5.63888e-22)
(0.421535 0.0349335 1.0062e-22)
(0.470189 0.0753758 -5.19772e-21)
(0.523385 0.093433 2.87796e-21)
(0.608657 0.131197 8.05775e-21)
(0.665586 0.144643 -2.40635e-21)
(0.696898 0.180178 -3.28253e-21)
(0.703225 0.225448 -3.93514e-21)
(0.64795 0.266852 -1.73721e-21)
(0.655912 0.295758 4.67485e-21)
(0.630071 -0.309372 -8.56288e-22)
(0.602436 -0.252368 4.71041e-21)
(0.566142 -0.231081 1.28036e-21)
(0.563265 -0.163597 -1.53411e-20)
(0.573221 -0.119668 2.33189e-22)
(0.579574 -0.06218 -3.33943e-21)
(0.64226 -0.0106106 1.44582e-21)
(0.707316 0.0534725 -8.1568e-22)
(0.77468 0.106225 5.68618e-23)
(0.823296 0.224265 -1.83817e-21)
(0.635463 -0.690797 1.02215e-21)
(0.619776 -0.67992 -2.45423e-21)
(0.615139 -0.706331 1.30376e-21)
(0.644847 -0.671362 1.01856e-20)
(0.650896 -0.697479 4.88698e-21)
(0.677208 -0.624534 5.05278e-21)
(0.697949 -0.615964 1.13753e-21)
(0.714115 -0.514853 -6.11372e-22)
(0.762691 -0.479493 1.88087e-21)
(0.79324 -0.367409 6.37136e-21)
(0.57197 -0.558933 -1.06637e-21)
(0.554224 -0.570268 4.24477e-21)
(0.598681 -0.589519 7.32214e-21)
(0.615489 -0.621761 -2.29777e-21)
(0.678676 -0.643093 -1.0715e-20)
(0.720679 -0.674421 6.21925e-21)
(0.774502 -0.697733 5.92987e-21)
(0.820701 -0.710235 -8.97083e-21)
(0.846008 -0.720576 -2.22985e-21)
(0.876527 -0.700671 1.08894e-20)
(0.563933 -0.745677 8.09528e-22)
(0.519131 -0.721434 -3.89935e-21)
(0.52101 -0.703302 -1.26474e-21)
(0.503131 -0.690641 1.20181e-21)
(0.546905 -0.661649 1.17237e-20)
(0.559795 -0.681425 -5.61958e-21)
(0.646915 -0.638805 5.61588e-21)
(0.688393 -0.689096 9.57539e-21)
(0.779165 -0.634992 -1.61089e-20)
(0.829479 -0.698315 1.36344e-20)
(0.687814 -0.424448 2.63806e-23)
(0.704745 -0.382685 -6.68605e-23)
(0.73043 -0.368192 -1.28749e-20)
(0.749627 -0.336163 3.21641e-21)
(0.784453 -0.313424 8.49551e-21)
(0.813382 -0.302915 2.61749e-21)
(0.871543 -0.263491 -1.52981e-20)
(0.905244 -0.289513 1.60463e-20)
(0.983048 -0.225886 1.35499e-20)
(0.99737 -0.290018 -1.6671e-20)
(0.73966 0.116013 2.84607e-22)
(0.762367 0.144376 -1.00127e-22)
(0.798374 0.153039 1.20376e-20)
(0.84987 0.169602 -1.13889e-20)
(0.907509 0.183771 -5.22991e-21)
(0.981048 0.188825 1.10544e-20)
(1.05063 0.209855 1.44859e-21)
(1.12008 0.193334 -1.07777e-20)
(1.18777 0.22065 3.64145e-21)
(1.24301 0.170713 -7.46882e-21)
(0.764529 0.254445 -4.8016e-22)
(0.798685 0.274734 -1.32552e-21)
(0.829439 0.300858 -2.36497e-21)
(0.870659 0.31554 2.95638e-21)
(0.906043 0.336459 -7.60268e-21)
(0.962032 0.342025 -1.58358e-20)
(1.00519 0.34938 -1.18298e-20)
(1.06246 0.336546 -5.55006e-21)
(1.10102 0.334334 -3.51836e-21)
(1.15858 0.298687 -7.20025e-21)
(0.874748 0.777516 -5.00362e-22)
(0.928771 0.760784 3.78714e-21)
(0.967596 0.769786 -8.82031e-22)
(1.01819 0.745475 3.70981e-21)
(1.0574 0.74518 -6.89411e-22)
(1.10434 0.715258 3.86917e-22)
(1.13181 0.705913 1.40275e-20)
(1.15633 0.670802 -6.07223e-22)
(1.1613 0.651616 -6.68748e-21)
(1.17546 0.610369 2.65193e-21)
(0.789247 0.693609 3.43317e-22)
(0.808136 0.686307 -1.3473e-21)
(0.82132 0.690318 -3.25671e-21)
(0.846647 0.682402 -3.11489e-21)
(0.866018 0.674885 -6.68042e-22)
(0.897634 0.664571 1.00938e-20)
(0.922289 0.645867 -9.11283e-21)
(0.965274 0.640949 4.25354e-21)
(0.999283 0.61297 9.74499e-21)
(1.04533 0.60089 4.40389e-21)
(0.831999 0.25897 1.86475e-22)
(0.844219 0.276627 -3.23622e-22)
(0.849513 0.277825 3.18012e-21)
(0.865465 0.299393 4.82051e-21)
(0.870115 0.293949 -3.23608e-21)
(0.886139 0.314889 1.78121e-21)
(0.892794 0.305537 5.21521e-21)
(0.909183 0.321184 7.38693e-21)
(0.924955 0.31218 -4.49749e-21)
(0.945848 0.315923 -1.3199e-21)
(0.872536 0.0462176 8.91219e-23)
(0.862339 0.0702299 -1.22354e-22)
(0.852072 0.0835083 -1.60229e-21)
(0.843938 0.102344 -7.39296e-21)
(0.835679 0.106769 5.47702e-21)
(0.834011 0.12142 -3.85325e-21)
(0.824787 0.11642 -3.01696e-21)
(0.831206 0.130279 -6.16219e-21)
(0.833215 0.117344 -1.65253e-21)
(0.833899 0.136802 2.03371e-21)
(1.02233 -0.678039 4.50844e-22)
(0.986579 -0.675075 -9.23903e-22)
(0.954979 -0.665514 -6.51371e-22)
(0.914744 -0.655228 8.06358e-21)
(0.877687 -0.649902 -4.56536e-21)
(0.839909 -0.630985 1.62904e-21)
(0.804465 -0.63316 3.87856e-21)
(0.775284 -0.608848 -1.36119e-21)
(0.747514 -0.615201 -1.94091e-22)
(0.72519 -0.592924 -6.96127e-21)
(0.955758 -0.71259 -5.77586e-24)
(0.929122 -0.715174 1.07006e-22)
(0.90969 -0.708029 -1.66011e-21)
(0.880183 -0.703973 -4.82071e-22)
(0.858441 -0.691007 -1.28609e-21)
(0.828603 -0.680236 -4.05181e-21)
(0.808576 -0.661805 2.51051e-21)
(0.780354 -0.650848 4.28446e-23)
(0.771083 -0.622915 4.50772e-21)
(0.746325 -0.617433 6.43336e-21)
(0.960184 -0.257514 3.21128e-23)
(0.955694 -0.25717 -1.39342e-21)
(0.957211 -0.254607 1.53939e-21)
(0.953273 -0.252292 -1.5661e-21)
(0.953602 -0.243313 2.31684e-21)
(0.949274 -0.236744 4.06907e-21)
(0.951963 -0.22175 -4.6441e-21)
(0.955045 -0.212621 -1.75425e-22)
(0.973484 -0.18896 -1.54879e-21)
(0.989589 -0.185309 -4.42707e-21)
(0.968714 -0.0353484 2.06391e-23)
(0.981167 -0.0157369 6.77684e-22)
(0.999851 0.0012381 4.32338e-22)
(1.01939 0.0205788 3.1609e-22)
(1.03967 0.0393634 4.78103e-22)
(1.05749 0.0568078 -2.32892e-21)
(1.07434 0.0755785 -3.19126e-22)
(1.08988 0.0877834 -1.14554e-21)
(1.10448 0.104703 -3.22014e-22)
(1.11997 0.110428 -3.45247e-22)
(1.12086 0.711107 2.45898e-22)
(1.13888 0.717129 -6.66535e-22)
(1.14805 0.724733 -6.71916e-23)
(1.15542 0.729938 -1.85939e-21)
(1.15608 0.735375 2.54447e-21)
(1.15576 0.735976 8.43447e-22)
(1.15198 0.737435 2.73907e-21)
(1.14783 0.730867 6.44016e-22)
(1.14134 0.728374 -1.10193e-22)
(1.13468 0.718868 2.19113e-21)
(1.03933 0.6867 -4.69214e-22)
(1.067 0.679283 4.60933e-23)
(1.08556 0.668626 1.65055e-21)
(1.10044 0.656203 -4.03292e-23)
(1.10437 0.640035 1.55264e-21)
(1.10468 0.625304 -4.19301e-21)
(1.0926 0.604293 -1.78255e-22)
(1.07829 0.586301 1.30246e-21)
(1.05386 0.561616 -5.13799e-22)
(1.02892 0.538881 -9.10533e-22)
(1.05838 -0.283452 -8.29316e-23)
(1.05548 -0.285105 -1.72884e-22)
(1.04887 -0.293327 -3.25739e-22)
(1.04181 -0.298179 1.56885e-21)
(1.02964 -0.310169 -1.33238e-21)
(1.01559 -0.318064 1.38899e-21)
(0.993003 -0.331981 -2.04831e-21)
(0.969448 -0.341275 1.16764e-21)
(0.936457 -0.355139 -7.31325e-22)
(0.898486 -0.366904 1.09896e-21)
(0.992091 -0.334298 3.2086e-23)
(0.986053 -0.335263 -8.23164e-23)
(0.97754 -0.339322 2.1528e-23)
(0.966558 -0.339575 1.92736e-22)
(0.952741 -0.342659 -3.25806e-22)
(0.935829 -0.342497 2.75561e-22)
(0.9159 -0.343982 -2.88986e-22)
(0.894082 -0.343083 4.85069e-22)
(0.869069 -0.342642 6.51077e-23)
(0.842814 -0.340521 -3.35895e-22)
(1.13705 -0.337059 0)
(1.08334 -0.227686 0)
(0.976723 -0.172625 0)
(0.948397 -0.140591 0)
(0.965985 -0.116356 0)
(0.986651 -0.0984376 0)
(1.00936 -0.0777308 0)
(1.01871 -0.0638401 0)
(1.02396 -0.0451566 0)
(1.02758 -0.0322944 0)
(1.026 -0.0202047 0)
(1.02567 -0.011323 0)
(1.02608 -0.0068981 0)
(1.02565 -0.0041309 0)
(1.02528 -0.00335672 0)
(1.02452 -0.00232646 0)
(1.02378 -0.00165625 0)
(1.02274 -0.00101816 0)
(1.02184 -0.000776162 0)
(1.02098 -0.000770768 0)
(1.02021 -0.000841063 0)
(1.01953 -0.000957561 0)
(1.0189 -0.000989778 0)
(1.01836 -0.000918497 0)
(1.01788 -0.000877752 0)
(1.01744 -0.000682092 0)
(1.01708 -0.0004232 0)
(1.01688 -0.000203936 0)
(1.37787 -0.486556 0)
(1.37208 -0.437681 0)
(1.35994 -0.379541 0)
(1.24288 -0.293683 0)
(1.11461 -0.264765 0)
(1.04659 -0.190144 0)
(1.04857 -0.158441 0)
(1.04747 -0.0958872 0)
(1.05029 -0.0745598 0)
(1.04817 -0.044283 0)
(1.04955 -0.0352359 0)
(1.03819 -0.0253553 0)
(1.03357 -0.0223412 0)
(1.02382 -0.0197311 0)
(1.01608 -0.0158363 0)
(1.01238 -0.0126873 0)
(1.01181 -0.00911848 0)
(1.01313 -0.006787 0)
(1.01424 -0.00478971 0)
(1.01511 -0.00341452 0)
(1.01575 -0.00238532 0)
(1.01634 -0.0017248 0)
(1.01679 -0.00137991 0)
(1.01696 -0.00118071 0)
(1.01695 -0.00112638 0)
(1.01678 -0.00101475 0)
(1.01653 -0.000942403 0)
(1.01625 -0.000741762 0)
(1.01598 -0.000460305 0)
(1.01582 -0.000215488 0)
(1.4736 -0.216897 0)
(1.43319 -0.226608 0)
(1.35882 -0.195378 0)
(1.23879 -0.201431 0)
(1.14741 -0.188681 0)
(1.10902 -0.164108 0)
(1.10732 -0.123877 0)
(1.10428 -0.105635 0)
(1.07701 -0.0807487 0)
(1.06485 -0.0637683 0)
(1.04412 -0.0481344 0)
(1.04107 -0.0351924 0)
(1.03165 -0.0260879 0)
(1.03163 -0.0183818 0)
(1.03235 -0.0146968 0)
(1.03163 -0.0109356 0)
(1.0306 -0.00858822 0)
(1.02888 -0.00633353 0)
(1.0271 -0.00475639 0)
(1.02498 -0.00356847 0)
(1.02315 -0.00277694 0)
(1.02166 -0.00232885 0)
(1.02054 -0.00197028 0)
(1.01974 -0.00175899 0)
(1.01907 -0.00155953 0)
(1.01855 -0.00131346 0)
(1.01811 -0.00115549 0)
(1.0177 -0.000871719 0)
(1.01737 -0.000535154 0)
(1.01718 -0.000240561 0)
(1.55828 -0.0406673 0)
(1.50245 -0.0544148 0)
(1.40503 -0.06461 0)
(1.28369 -0.0889093 0)
(1.19649 -0.0562832 0)
(1.17924 -0.0532709 0)
(1.13438 -0.00263144 0)
(1.1223 -0.0171356 0)
(1.10827 0.00943437 0)
(1.09761 9.1718e-05 0)
(1.08454 0.00604627 0)
(1.06424 -0.000694865 0)
(1.05171 -0.00162788 0)
(1.03553 -0.00381219 0)
(1.02345 -0.00317949 0)
(1.01711 -0.00302793 0)
(1.01449 -0.00239477 0)
(1.01463 -0.00228678 0)
(1.01503 -0.00211093 0)
(1.01564 -0.00183986 0)
(1.01612 -0.00158165 0)
(1.01651 -0.00132045 0)
(1.01684 -0.00127449 0)
(1.01691 -0.00124985 0)
(1.01687 -0.00127715 0)
(1.01675 -0.0012044 0)
(1.01655 -0.00110788 0)
(1.01635 -0.000872445 0)
(1.01614 -0.0005469 0)
(1.01601 -0.000241881 0)
(1.38116 0.0993097 0)
(1.33306 0.0873172 0)
(1.30344 0.00126982 0)
(1.26524 -0.0064894 0)
(1.23858 -0.0271691 0)
(1.219 -0.021287 0)
(1.17877 -0.0386102 0)
(1.1308 -0.0241168 0)
(1.09974 -0.0315437 0)
(1.06033 -0.0220734 0)
(1.04083 -0.0231952 0)
(1.03262 -0.0196544 0)
(1.02561 -0.0187671 0)
(1.02799 -0.0179179 0)
(1.03129 -0.016813 0)
(1.03147 -0.0138163 0)
(1.03127 -0.0108996 0)
(1.0294 -0.00828335 0)
(1.02745 -0.00638604 0)
(1.02512 -0.00519042 0)
(1.02302 -0.00415515 0)
(1.02146 -0.0034721 0)
(1.02034 -0.00283018 0)
(1.01962 -0.00237098 0)
(1.01908 -0.00202474 0)
(1.01865 -0.0016508 0)
(1.0183 -0.00140056 0)
(1.01797 -0.00105398 0)
(1.01769 -0.000645388 0)
(1.01753 -0.000273743 0)
(1.26685 0.339131 0)
(1.2248 0.334787 0)
(1.2137 0.238198 0)
(1.18122 0.232921 0)
(1.16634 0.17196 0)
(1.12522 0.16115 0)
(1.14671 0.102959 0)
(1.11714 0.1088 0)
(1.12646 0.0617397 0)
(1.10635 0.0554847 0)
(1.09228 0.0386062 0)
(1.07212 0.0291904 0)
(1.05715 0.0228061 0)
(1.04215 0.0182946 0)
(1.02994 0.0144656 0)
(1.02389 0.0108135 0)
(1.01973 0.00711643 0)
(1.01831 0.00447531 0)
(1.01781 0.0021242 0)
(1.01777 0.000900175 0)
(1.01789 -2.48493e-05 0)
(1.01778 -0.000486867 0)
(1.01768 -0.000912828 0)
(1.01745 -0.00118777 0)
(1.0172 -0.00133608 0)
(1.01699 -0.00132632 0)
(1.01678 -0.00123235 0)
(1.01658 -0.000974132 0)
(1.0164 -0.000616446 0)
(1.01628 -0.000260991 0)
(1.1263 0.27422 0)
(1.04375 0.239758 0)
(1.08896 0.197978 0)
(1.06667 0.16844 0)
(1.12241 0.131196 0)
(1.06017 0.104252 0)
(1.09144 0.0710782 0)
(1.04161 0.0719045 0)
(1.02494 0.0395023 0)
(1.01273 0.0362216 0)
(1.00829 0.0162361 0)
(1.00489 0.00608189 0)
(1.00886 -0.00223616 0)
(1.0144 -0.0102879 0)
(1.02122 -0.0113966 0)
(1.02416 -0.0113409 0)
(1.02586 -0.0086264 0)
(1.02567 -0.00705621 0)
(1.02465 -0.00551237 0)
(1.02334 -0.00481687 0)
(1.02195 -0.00401881 0)
(1.02096 -0.00341918 0)
(1.02022 -0.00284087 0)
(1.01972 -0.00236027 0)
(1.01934 -0.00205776 0)
(1.01898 -0.00171399 0)
(1.01867 -0.0014602 0)
(1.01837 -0.00111853 0)
(1.01811 -0.000692165 0)
(1.01796 -0.00028438 0)
(1.06036 0.246847 0)
(1.02171 0.221338 0)
(1.0663 0.188827 0)
(1.01149 0.177912 0)
(1.04583 0.148859 0)
(1.00139 0.127318 0)
(1.08792 0.0822897 0)
(1.06619 0.0672356 0)
(1.07395 0.0386075 0)
(1.06566 0.0409913 0)
(1.0574 0.0263892 0)
(1.05167 0.0325898 0)
(1.04366 0.0269487 0)
(1.03651 0.0292166 0)
(1.03129 0.022979 0)
(1.02773 0.0189755 0)
(1.02419 0.012813 0)
(1.02172 0.00896688 0)
(1.0205 0.00525986 0)
(1.01982 0.00302877 0)
(1.01939 0.00127413 0)
(1.01878 0.000192982 0)
(1.01821 -0.000571999 0)
(1.01775 -0.00107091 0)
(1.01737 -0.00130437 0)
(1.01715 -0.00132873 0)
(1.01699 -0.00125176 0)
(1.01684 -0.000996608 0)
(1.0167 -0.000636949 0)
(1.01662 -0.000265147 0)
(0.90305 0.280018 0)
(0.947063 0.237251 0)
(1.04199 0.200184 0)
(1.0191 0.16496 0)
(1.0325 0.163334 0)
(0.961279 0.160557 0)
(0.986785 0.170765 0)
(0.974388 0.149222 0)
(0.985193 0.126392 0)
(0.992167 0.0884275 0)
(0.995019 0.0630421 0)
(0.995037 0.0328791 0)
(0.999721 0.0180278 0)
(1.00437 0.00262442 0)
(1.00821 -0.000430126 0)
(1.01215 -0.00351687 0)
(1.015 -0.00252435 0)
(1.01706 -0.00270187 0)
(1.01804 -0.0022117 0)
(1.01879 -0.00226568 0)
(1.01907 -0.00209742 0)
(1.01929 -0.00197325 0)
(1.01935 -0.00187196 0)
(1.01928 -0.00171535 0)
(1.0192 -0.00167921 0)
(1.01904 -0.00153074 0)
(1.01887 -0.00136608 0)
(1.01869 -0.00108974 0)
(1.01851 -0.000690412 0)
(1.01841 -0.000280101 0)
(0.687867 0.269664 0)
(0.711418 0.227121 0)
(0.799287 0.191001 0)
(0.863098 0.13039 0)
(0.985526 0.0915531 0)
(1.00215 0.0347702 0)
(1.03343 0.0137348 0)
(0.984735 -0.00492857 0)
(0.957997 -0.00204638 0)
(0.968459 0.00300214 0)
(0.975352 0.00451083 0)
(0.995527 0.0136324 0)
(1.00652 0.0132396 0)
(1.01508 0.0176229 0)
(1.0232 0.0136193 0)
(1.02538 0.0121879 0)
(1.02524 0.00832491 0)
(1.02318 0.00633006 0)
(1.02178 0.00387404 0)
(1.02046 0.00220463 0)
(1.01953 0.000759922 0)
(1.01865 -0.000275338 0)
(1.01793 -0.000902356 0)
(1.01752 -0.00132004 0)
(1.01724 -0.00148442 0)
(1.01714 -0.00144112 0)
(1.01711 -0.00134204 0)
(1.01707 -0.00107012 0)
(1.017 -0.000684273 0)
(1.01696 -0.00027873 0)
(0.79341 0.244237 0)
(0.788784 0.276439 0)
(0.816881 0.301985 0)
(0.836883 0.335358 0)
(0.810038 0.329309 0)
(0.780954 0.290119 0)
(0.8756 0.217471 0)
(0.92939 0.146085 0)
(0.979088 0.104622 0)
(0.987086 0.0736548 0)
(1.00231 0.0475087 0)
(1.00216 0.0325528 0)
(1.00692 0.0203181 0)
(1.0078 0.0126669 0)
(1.00477 0.00977458 0)
(1.00711 0.00648074 0)
(1.00867 0.00482618 0)
(1.01189 0.00315811 0)
(1.01403 0.00228562 0)
(1.0163 0.0015085 0)
(1.01787 0.000726447 0)
(1.01886 0.000108029 0)
(1.01937 -0.000546523 0)
(1.01948 -0.00094933 0)
(1.01947 -0.0012662 0)
(1.01939 -0.00137637 0)
(1.01927 -0.00132295 0)
(1.01915 -0.00109771 0)
(1.019 -0.000713395 0)
(1.01893 -0.00028526 0)
(0.826513 -0.300033 0)
(0.872671 -0.27192 0)
(0.905239 -0.221074 0)
(0.940072 -0.182576 0)
(0.905556 -0.141697 0)
(0.809705 -0.115552 0)
(0.750122 -0.0550706 0)
(0.788266 -0.0364951 0)
(0.843893 -0.0243305 0)
(0.889583 -0.0387127 0)
(0.912729 -0.0249999 0)
(0.949993 -0.0310564 0)
(0.971731 -0.0209976 0)
(0.9938 -0.0185395 0)
(1.0118 -0.0130131 0)
(1.01904 -0.00930546 0)
(1.02231 -0.00583292 0)
(1.0215 -0.00378965 0)
(1.02024 -0.00245105 0)
(1.01873 -0.00206727 0)
(1.01763 -0.00185447 0)
(1.01708 -0.00199388 0)
(1.01678 -0.00198435 0)
(1.01682 -0.00199594 0)
(1.01695 -0.00197018 0)
(1.0171 -0.00178545 0)
(1.01726 -0.00160089 0)
(1.01735 -0.00127029 0)
(1.01736 -0.000807814 0)
(1.01737 -0.00031786 0)
(0.924427 -0.671893 0)
(0.948049 -0.644624 0)
(0.988538 -0.638842 0)
(1.0065 -0.632247 0)
(1.02128 -0.600889 0)
(0.994748 -0.529174 0)
(0.969246 -0.392216 0)
(0.982309 -0.258691 0)
(0.984472 -0.173404 0)
(1.00442 -0.102573 0)
(1.02988 -0.0633769 0)
(1.02867 -0.0234198 0)
(1.03728 -0.00663875 0)
(1.02727 0.00970403 0)
(1.01985 0.0121649 0)
(1.01604 0.0131013 0)
(1.01466 0.010073 0)
(1.01558 0.00812684 0)
(1.01688 0.00585618 0)
(1.0181 0.00431907 0)
(1.01909 0.00250414 0)
(1.01948 0.00109681 0)
(1.01967 -0.000169403 0)
(1.01966 -0.00102589 0)
(1.0196 -0.0015129 0)
(1.01963 -0.00170847 0)
(1.01963 -0.00164997 0)
(1.01964 -0.00135604 0)
(1.01961 -0.000884531 0)
(1.01959 -0.000342903 0)
(0.867771 -0.651404 0)
(0.95083 -0.598428 0)
(1.05107 -0.584572 0)
(1.14199 -0.517738 0)
(1.23957 -0.474134 0)
(1.2701 -0.38138 0)
(1.27889 -0.308759 0)
(1.21041 -0.219093 0)
(1.14027 -0.181667 0)
(1.05843 -0.121875 0)
(1.02921 -0.102937 0)
(1.02246 -0.0716185 0)
(1.01242 -0.0550855 0)
(1.0161 -0.0437442 0)
(1.01584 -0.0326536 0)
(1.01549 -0.024593 0)
(1.01493 -0.0171934 0)
(1.01423 -0.0125714 0)
(1.01336 -0.00868508 0)
(1.01297 -0.00647497 0)
(1.01296 -0.00479816 0)
(1.01372 -0.0039811 0)
(1.01461 -0.00348682 0)
(1.01549 -0.00312832 0)
(1.01629 -0.00295289 0)
(1.01687 -0.00263713 0)
(1.01732 -0.00228834 0)
(1.01763 -0.0018007 0)
(1.01778 -0.00113937 0)
(1.01786 -0.000431245 0)
(1.09723 -0.209097 0)
(1.19764 -0.171283 0)
(1.28609 -0.114457 0)
(1.36735 -0.07459 0)
(1.4007 -0.0399975 0)
(1.4174 -0.0287844 0)
(1.35678 -0.0212929 0)
(1.29501 -0.0355506 0)
(1.2181 -0.0305054 0)
(1.17463 -0.0373811 0)
(1.12757 -0.00417746 0)
(1.11061 -0.00626539 0)
(1.07987 0.0109898 0)
(1.06033 0.0172872 0)
(1.04655 0.0183612 0)
(1.03873 0.0174678 0)
(1.03321 0.0132117 0)
(1.02967 0.00987832 0)
(1.02719 0.00587371 0)
(1.0247 0.00305925 0)
(1.02293 0.000578853 0)
(1.02152 -0.00114418 0)
(1.02069 -0.00223629 0)
(1.02036 -0.00292233 0)
(1.02021 -0.00312414 0)
(1.02027 -0.00300336 0)
(1.02039 -0.00268391 0)
(1.02048 -0.00210173 0)
(1.02052 -0.00133721 0)
(1.02054 -0.0005007 0)
(1.31321 0.200387 0)
(1.36086 0.199728 0)
(1.40216 0.217984 0)
(1.41197 0.207489 0)
(1.40022 0.209915 0)
(1.36542 0.165815 0)
(1.27383 0.16483 0)
(1.22939 0.104707 0)
(1.14927 0.111861 0)
(1.146 0.0600497 0)
(1.10919 0.0621773 0)
(1.06993 0.0290012 0)
(1.0586 0.0205841 0)
(1.03316 0.000805156 0)
(1.01573 -0.00226679 0)
(1.00496 -0.00741618 0)
(1.00084 -0.00647246 0)
(1.00152 -0.00667636 0)
(1.00345 -0.00566921 0)
(1.00628 -0.00517269 0)
(1.00893 -0.00475744 0)
(1.01136 -0.00450577 0)
(1.01349 -0.00455153 0)
(1.01503 -0.00441664 0)
(1.01628 -0.00427246 0)
(1.01721 -0.0039128 0)
(1.01788 -0.0033592 0)
(1.01836 -0.00260947 0)
(1.01862 -0.00164826 0)
(1.01876 -0.000604607 0)
(1.204 0.25519 0)
(1.2411 0.254241 0)
(1.27468 0.214105 0)
(1.28108 0.189751 0)
(1.30119 0.143706 0)
(1.23711 0.115524 0)
(1.21288 0.0723466 0)
(1.16071 0.0675227 0)
(1.10757 0.0458579 0)
(1.07116 0.0554821 0)
(1.05386 0.021677 0)
(1.04002 0.0393412 0)
(1.02871 0.0210838 0)
(1.03063 0.0245484 0)
(1.03818 0.0137995 0)
(1.03923 0.010658 0)
(1.03785 0.00442312 0)
(1.03349 0.000576068 0)
(1.02937 -0.00287979 0)
(1.02541 -0.00503936 0)
(1.0226 -0.00612426 0)
(1.02108 -0.00667571 0)
(1.02038 -0.00657069 0)
(1.0204 -0.00628281 0)
(1.02068 -0.00581509 0)
(1.02103 -0.00507331 0)
(1.02142 -0.00425798 0)
(1.02171 -0.00322875 0)
(1.02188 -0.00201551 0)
(1.02197 -0.000730886 0)
(1.18293 0.573655 0)
(1.19125 0.569314 0)
(1.17645 0.514875 0)
(1.163 0.514432 0)
(1.14799 0.438399 0)
(1.12322 0.430763 0)
(1.15449 0.342333 0)
(1.12666 0.336386 0)
(1.15446 0.259125 0)
(1.07184 0.242027 0)
(1.11048 0.164453 0)
(1.05955 0.135221 0)
(1.04609 0.0906594 0)
(1.01938 0.0653937 0)
(0.997837 0.0456671 0)
(0.990923 0.030202 0)
(0.989227 0.0193164 0)
(0.993646 0.0110233 0)
(0.998918 0.00456153 0)
(1.00418 0.000202211 0)
(1.00851 -0.00305132 0)
(1.01147 -0.0047712 0)
(1.01383 -0.00585305 0)
(1.01556 -0.00623875 0)
(1.01692 -0.00609125 0)
(1.01807 -0.00558596 0)
(1.01895 -0.00475974 0)
(1.01959 -0.00364148 0)
(1.02 -0.00229318 0)
(1.0202 -0.000823396 0)
(1.05811 0.570423 0)
(1.05096 0.548379 0)
(1.04809 0.510524 0)
(1.02397 0.494752 0)
(0.99854 0.442055 0)
(0.948614 0.405059 0)
(0.955881 0.344405 0)
(0.868202 0.279444 0)
(0.87121 0.202738 0)
(0.785596 0.136787 0)
(0.816995 0.0795415 0)
(0.848464 0.036946 0)
(0.886035 0.0105179 0)
(0.928068 -0.011561 0)
(0.96627 -0.0211222 0)
(0.987881 -0.0253035 0)
(1.00131 -0.0233514 0)
(1.00792 -0.021552 0)
(1.0116 -0.0181503 0)
(1.01434 -0.0160132 0)
(1.01621 -0.01379 0)
(1.01803 -0.0122421 0)
(1.01949 -0.0109423 0)
(1.02066 -0.00964593 0)
(1.02171 -0.00854302 0)
(1.0225 -0.00726214 0)
(1.02313 -0.0059171 0)
(1.02357 -0.00442716 0)
(1.02381 -0.00274407 0)
(1.02394 -0.000972181 0)
(0.956509 0.302922 0)
(0.950341 0.275397 0)
(0.954781 0.249597 0)
(0.931538 0.219786 0)
(0.913274 0.185349 0)
(0.843234 0.145636 0)
(0.827247 0.104554 0)
(0.764956 0.061603 0)
(0.781858 0.0183247 0)
(0.803324 -0.00864856 0)
(0.878827 -0.00910365 0)
(0.929824 0.00662703 0)
(0.962259 0.00751284 0)
(0.973858 0.0251908 0)
(0.986704 0.018217 0)
(0.995149 0.0170235 0)
(1.00097 0.00809406 0)
(1.00453 0.00278017 0)
(1.00804 -0.00284275 0)
(1.01047 -0.00597526 0)
(1.01273 -0.00817479 0)
(1.01449 -0.00924555 0)
(1.01598 -0.00944435 0)
(1.01751 -0.00925433 0)
(1.01881 -0.00856474 0)
(1.02 -0.00750549 0)
(1.02101 -0.00623682 0)
(1.02175 -0.00468115 0)
(1.02223 -0.00291671 0)
(1.02248 -0.00103112 0)
(0.836553 0.104146 0)
(0.836627 0.0750779 0)
(0.828351 0.0426093 0)
(0.791284 0.00410971 0)
(0.764688 -0.0317907 0)
(0.712721 -0.0682358 0)
(0.698159 -0.0895852 0)
(0.671755 -0.104827 0)
(0.695593 -0.105619 0)
(0.746229 -0.0923066 0)
(0.85481 -0.078633 0)
(0.892683 -0.0739276 0)
(0.927697 -0.0668997 0)
(0.945162 -0.0660481 0)
(0.955334 -0.0551676 0)
(0.969065 -0.0463232 0)
(0.981036 -0.0358955 0)
(0.992427 -0.0282617 0)
(1.00094 -0.0221727 0)
(1.00807 -0.0183769 0)
(1.01329 -0.0161255 0)
(1.01699 -0.014404 0)
(1.01982 -0.0132439 0)
(1.02175 -0.0118955 0)
(1.02328 -0.0105001 0)
(1.02448 -0.0089737 0)
(1.02536 -0.00726801 0)
(1.026 -0.00540222 0)
(1.02637 -0.0033456 0)
(1.02657 -0.0011688 0)
(0.706734 -0.597714 0)
(0.685937 -0.615368 0)
(0.670413 -0.619804 0)
(0.645208 -0.628941 0)
(0.638244 -0.618775 0)
(0.641006 -0.602124 0)
(0.67536 -0.550564 0)
(0.721574 -0.492834 0)
(0.793938 -0.408664 0)
(0.864735 -0.320634 0)
(0.924333 -0.235149 0)
(0.973235 -0.17768 0)
(0.970431 -0.123573 0)
(0.99601 -0.0896698 0)
(1.01561 -0.0678185 0)
(1.02375 -0.0507538 0)
(1.0252 -0.0407065 0)
(1.02217 -0.0324901 0)
(1.01939 -0.0270281 0)
(1.01736 -0.0229215 0)
(1.01663 -0.0195925 0)
(1.01742 -0.01743 0)
(1.01855 -0.0154558 0)
(1.02 -0.01364 0)
(1.02146 -0.0119492 0)
(1.02269 -0.0100377 0)
(1.02376 -0.00807883 0)
(1.02454 -0.00596754 0)
(1.02504 -0.00367382 0)
(1.0253 -0.00127951 0)
(0.741176 -0.581984 0)
(0.751333 -0.542398 0)
(0.778432 -0.498865 0)
(0.820706 -0.445563 0)
(0.879921 -0.385533 0)
(0.945223 -0.320674 0)
(1.0177 -0.251161 0)
(1.07759 -0.188464 0)
(1.13735 -0.123208 0)
(1.20307 -0.0865348 0)
(1.1808 -0.0327211 0)
(1.16554 -0.0360549 0)
(1.1272 -0.0107747 0)
(1.07483 -0.00341244 0)
(1.04227 0.00206432 0)
(1.02756 0.000234791 0)
(1.01967 -0.00314173 0)
(1.01895 -0.00689163 0)
(1.01971 -0.0110549 0)
(1.02055 -0.0132121 0)
(1.02206 -0.015148 0)
(1.02325 -0.0155813 0)
(1.02458 -0.0151241 0)
(1.02601 -0.0141966 0)
(1.02716 -0.0126556 0)
(1.02821 -0.0108129 0)
(1.02904 -0.00875932 0)
(1.02963 -0.006468 0)
(1.02999 -0.00399168 0)
(1.03017 -0.00138441 0)
(1.02571 -0.150676 0)
(1.05168 -0.117715 0)
(1.07834 -0.0828914 0)
(1.09989 -0.0452935 0)
(1.12012 -0.0126154 0)
(1.1319 0.0177757 0)
(1.13824 0.0378159 0)
(1.13207 0.0517074 0)
(1.10839 0.0563178 0)
(1.11263 0.0373111 0)
(1.0345 0.0343727 0)
(1.01572 -0.00184777 0)
(1.01818 -0.0244847 0)
(1.00515 -0.041931 0)
(1.00508 -0.0475773 0)
(1.00251 -0.0481688 0)
(1.00262 -0.0429453 0)
(1.00427 -0.039639 0)
(1.00582 -0.0342032 0)
(1.0094 -0.0306797 0)
(1.01296 -0.0273001 0)
(1.01631 -0.0239477 0)
(1.01961 -0.0212911 0)
(1.02213 -0.0184813 0)
(1.02425 -0.0157997 0)
(1.02594 -0.0131297 0)
(1.02719 -0.0103809 0)
(1.0281 -0.0075774 0)
(1.02866 -0.00463395 0)
(1.02894 -0.00159568 0)
(1.13825 0.121715 0)
(1.15221 0.139788 0)
(1.16925 0.152245 0)
(1.17888 0.157827 0)
(1.18651 0.164937 0)
(1.18385 0.162207 0)
(1.17422 0.15958 0)
(1.15684 0.151726 0)
(1.14863 0.137 0)
(1.14902 0.113004 0)
(1.0977 0.0991786 0)
(1.03026 0.0945262 0)
(1.04375 0.0588408 0)
(1.03351 0.0538843 0)
(1.04389 0.0210513 0)
(1.04402 0.00841839 0)
(1.04339 -0.00898647 0)
(1.03895 -0.0170414 0)
(1.03576 -0.0228127 0)
(1.03336 -0.0256213 0)
(1.03171 -0.0254505 0)
(1.03156 -0.0244988 0)
(1.03175 -0.0225191 0)
(1.03227 -0.0199883 0)
(1.03298 -0.0173684 0)
(1.03358 -0.0144549 0)
(1.03414 -0.011477 0)
(1.03453 -0.008379 0)
(1.03476 -0.00511845 0)
(1.03488 -0.00176189 0)
(1.12407 0.715224 0)
(1.11203 0.70387 0)
(1.09883 0.688853 0)
(1.08398 0.664194 0)
(1.06784 0.630335 0)
(1.05097 0.587968 0)
(1.03187 0.539281 0)
(1.01094 0.474217 0)
(1.00454 0.407461 0)
(0.993342 0.298826 0)
(1.04495 0.222408 0)
(0.947998 0.126748 0)
(0.978337 0.0764237 0)
(0.946928 0.030605 0)
(0.937709 0.0104505 0)
(0.948288 -0.00714354 0)
(0.96255 -0.0188048 0)
(0.979152 -0.0244296 0)
(0.99471 -0.0294215 0)
(1.00603 -0.030027 0)
(1.01474 -0.0295335 0)
(1.02072 -0.0278574 0)
(1.02478 -0.0252651 0)
(1.02784 -0.0224629 0)
(1.02995 -0.0193463 0)
(1.03153 -0.0160479 0)
(1.03266 -0.0127012 0)
(1.0334 -0.00922722 0)
(1.03385 -0.00563131 0)
(1.03406 -0.0019329 0)
(1.00028 0.514221 0)
(0.971097 0.47717 0)
(0.93394 0.440309 0)
(0.892146 0.392188 0)
(0.838365 0.341835 0)
(0.781481 0.27671 0)
(0.717122 0.213967 0)
(0.636964 0.12776 0)
(0.546138 0.0558387 0)
(0.443872 -0.047328 0)
(0.48376 -0.103617 0)
(0.556329 -0.170468 0)
(0.710198 -0.175227 0)
(0.835439 -0.182942 0)
(0.920275 -0.155126 0)
(0.971396 -0.131282 0)
(0.998016 -0.103519 0)
(1.01435 -0.082619 0)
(1.02334 -0.0663285 0)
(1.02934 -0.0540795 0)
(1.03351 -0.0454341 0)
(1.036 -0.0381563 0)
(1.03782 -0.0323299 0)
(1.039 -0.0272451 0)
(1.0398 -0.0226461 0)
(1.04038 -0.0183972 0)
(1.04074 -0.0143171 0)
(1.04095 -0.0103074 0)
(1.04102 -0.006256 0)
(1.04104 -0.00213518 0)
(0.85719 -0.379946 0)
(0.815977 -0.400596 0)
(0.765635 -0.419597 0)
(0.712982 -0.43885 0)
(0.65475 -0.451929 0)
(0.591788 -0.46518 0)
(0.534396 -0.469113 0)
(0.492142 -0.468011 0)
(0.48364 -0.441136 0)
(0.555639 -0.397049 0)
(0.674465 -0.309014 0)
(0.82652 -0.245332 0)
(0.94637 -0.183655 0)
(1.01371 -0.136182 0)
(1.04645 -0.109293 0)
(1.05338 -0.089187 0)
(1.05195 -0.0750989 0)
(1.04744 -0.0641511 0)
(1.04301 -0.0546638 0)
(1.04038 -0.0474418 0)
(1.03892 -0.0411885 0)
(1.03857 -0.035766 0)
(1.03879 -0.0310701 0)
(1.03918 -0.0265943 0)
(1.03968 -0.0224198 0)
(1.04012 -0.0183425 0)
(1.04048 -0.0143457 0)
(1.04072 -0.0103645 0)
(1.04082 -0.00629975 0)
(1.04086 -0.00214991 0)
(0.817344 -0.338035 0)
(0.792158 -0.335238 0)
(0.765716 -0.328515 0)
(0.742503 -0.319191 0)
(0.724441 -0.305174 0)
(0.715473 -0.28731 0)
(0.720911 -0.261902 0)
(0.74474 -0.231959 0)
(0.789946 -0.189066 0)
(0.857346 -0.153769 0)
(0.908174 -0.103509 0)
(0.969734 -0.0846758 0)
(1.03521 -0.0637863 0)
(1.04806 -0.053023 0)
(1.0561 -0.0531963 0)
(1.05809 -0.0513298 0)
(1.05795 -0.0528988 0)