/*--------------------------------*- C++ -*----------------------------------*\
| =========                 |                                                 |
| \\      /  F ield         | OpenFOAM: The Open Source CFD Toolbox           |
|  \\    /   O peration     | Version:                                        |
|   \\  /    A nd           | Website:  www.openfoam.com                      |
|    \\/     M anipulation  |                                                 |
\*---------------------------------------------------------------------------*/
FoamFile
{
    version     2.0;
    format      ascii;
    class       volScalarField;
    location    "123.5";
    object      p;
}
// * * * * * * * * * * * * * * * * * * * * * * * * * * * * * * * * * * * * * //

dimensions      [0 2 -2 0 0 0 0];


internalField   nonuniform List<scalar> 
1164
(
-0.43498
-0.371404
-0.302058
-0.226869
-0.154864
-0.0982062
-0.341579
-0.312235
-0.27235
-0.221707
-0.165448
-0.111078
-0.0644691
-0.0331067
-0.0142056
-0.00308004
-0.318028
-0.311461
-0.289263
-0.247992
-0.195218
-0.138077
-0.0875474
-0.0435271
-0.0138893
-0.00116959
-0.343201
-0.368682
-0.379113
-0.361117
-0.313764
-0.249544
-0.181439
-0.120072
-0.0711333
-0.0336385
-0.4377
-0.488657
-0.51924
-0.513395
-0.474433
-0.407144
-0.325472
-0.242778
-0.160119
-0.0969424
-0.56126
-0.635085
-0.680207
-0.691428
-0.655011
-0.577297
-0.483255
-0.372059
-0.275985
-0.186247
-0.598572
-0.691395
-0.751536
-0.80541
-0.778605
-0.719806
-0.629713
-0.517513
-0.417886
-0.30261
-0.47541
-0.540312
-0.593491
-0.632552
-0.640469
-0.624208
-0.563366
-0.488822
-0.423066
-0.311372
-0.384403
-0.416841
-0.436748
-0.447096
-0.445072
-0.435384
-0.408209
-0.369633
-0.33007
-0.271614
-0.291128
-0.302894
-0.305138
-0.301244
-0.289541
-0.274014
-0.258807
-0.240437
-0.226738
-0.200393
-0.263097
-0.250877
-0.234087
-0.215247
-0.196775
-0.176979
-0.160417
-0.146286
-0.134086
-0.124774
-0.289469
-0.262936
-0.237921
-0.213649
-0.190902
-0.166255
-0.143673
-0.123377
-0.108214
-0.0946836
-0.276792
-0.227522
-0.183077
-0.14393
-0.113346
-0.08965
-0.0760287
-0.069457
-0.0690043
-0.0627374
-0.264663
-0.231677
-0.200431
-0.165351
-0.134183
-0.101706
-0.0727812
-0.0468815
-0.0298578
-0.0239202
-0.270422
-0.242694
-0.211349
-0.177331
-0.140936
-0.106791
-0.0761338
-0.0499671
-0.0301207
-0.0228691
-0.248416
-0.233569
-0.215467
-0.197955
-0.176149
-0.153401
-0.127578
-0.102803
-0.0790273
-0.0566617
-0.196709
-0.198492
-0.200576
-0.202576
-0.202631
-0.200918
-0.195784
-0.187756
-0.176857
-0.163607
-0.202959
-0.210832
-0.217945
-0.223435
-0.228073
-0.230022
-0.229364
-0.224452
-0.216043
-0.203296
-0.233937
-0.245647
-0.255645
-0.263849
-0.270258
-0.273497
-0.272812
-0.266211
-0.254438
-0.237853
-0.245294
-0.255037
-0.262593
-0.267605
-0.271106
-0.271421
-0.268495
-0.259374
-0.2461
-0.224975
-0.196884
-0.200947
-0.203878
-0.204803
-0.204222
-0.202325
-0.198951
-0.192696
-0.182657
-0.167675
-0.169874
-0.170022
-0.169111
-0.166901
-0.163251
-0.158591
-0.154396
-0.149885
-0.141816
-0.130258
-0.175101
-0.176696
-0.177933
-0.178706
-0.178983
-0.178516
-0.177161
-0.175356
-0.172243
-0.165903
-0.190178
-0.18897
-0.187123
-0.184739
-0.1812
-0.177128
-0.171573
-0.164901
-0.157429
-0.147321
-0.155851
-0.15231
-0.148305
-0.143749
-0.138735
-0.13292
-0.126297
-0.118792
-0.110197
-0.101123
-0.124724
-0.121509
-0.118592
-0.115612
-0.112382
-0.108495
-0.10355
-0.0980903
-0.0911793
-0.0834822
-0.138628
-0.12502
-0.112353
-0.100737
-0.0899543
-0.0797133
-0.0700604
-0.0612968
-0.0531307
-0.0458579
-0.131677
-0.124443
-0.117211
-0.10986
-0.101848
-0.0929487
-0.08362
-0.0742862
-0.0652486
-0.0566337
-0.0650475
-0.0707952
-0.075524
-0.0791715
-0.0815976
-0.0825183
-0.0818666
-0.079784
-0.0761595
-0.0714224
-0.00983189
-0.0148251
-0.0196718
-0.0241181
-0.0281373
-0.0315573
-0.0343123
-0.0361989
-0.0373162
-0.0372255
0.00124904
0.00393867
0.0142607
0.0240463
0.0307968
0.035205
0.0376279
0.0390435
0.0396919
0.0399416
0.0400742
0.040191
0.0403316
0.0405585
0.040805
0.0410416
0.0412978
0.0415591
0.0418125
0.0420411
0.0422393
0.0423838
0.0424991
0.042572
0.0426059
0.0426326
0.0426147
0.0426224
0.00836329
0.000572491
-0.000789497
0.000818571
0.0103989
0.0204805
0.0270901
0.0307762
0.0335391
0.0350426
0.0363239
0.0372439
0.0379725
0.0385377
0.039005
0.0395122
0.0399766
0.0404337
0.0408438
0.0411977
0.0414987
0.0417605
0.0419712
0.042136
0.0422631
0.0423362
0.0423718
0.0423936
0.0423743
0.0423784
-0.00311612
0.00719406
0.0142394
0.0232149
0.0305707
0.0306991
0.0305035
0.0309331
0.0321003
0.0328265
0.033862
0.034657
0.0357141
0.0366249
0.037592
0.0384115
0.0391362
0.0397729
0.0403283
0.040801
0.0412045
0.0415131
0.041753
0.0419258
0.0420431
0.0421079
0.0421338
0.0421462
0.0421222
0.0421207
-0.0449839
-0.0105911
0.00611984
0.0239695
0.0375071
0.036245
0.0337346
0.0328907
0.0320569
0.0324067
0.0328479
0.0337723
0.0345042
0.0355173
0.0365235
0.0375706
0.038571
0.039431
0.0401095
0.0406667
0.0410891
0.0414181
0.0416595
0.0418156
0.0419103
0.0419423
0.0419344
0.0419163
0.0418694
0.0418543
-0.111378
-0.0658527
-0.0384757
-0.0087202
0.0073583
0.012317
0.0161575
0.0202082
0.0236561
0.0267275
0.0290167
0.0312543
0.032946
0.0345857
0.0360075
0.0372815
0.0384239
0.0393403
0.0401447
0.040745
0.0412086
0.0415167
0.0417126
0.0418093
0.0418432
0.0418171
0.0417582
0.0416932
0.0416137
0.0415796
-0.220744
-0.165804
-0.11009
-0.0623096
-0.0340162
-0.018618
-0.00615629
0.00455277
0.0132411
0.0196124
0.0244601
0.027941
0.0306277
0.0328622
0.0347677
0.0365527
0.0379864
0.0391503
0.0400215
0.0406683
0.0411438
0.0414577
0.041646
0.0417173
0.0417191
0.0416506
0.0415488
0.0414467
0.0413402
0.0412902
-0.272393
-0.201647
-0.138231
-0.0870905
-0.0512136
-0.0311623
-0.0140946
-0.00215217
0.00756424
0.0147589
0.0208989
0.0255228
0.0293927
0.0321213
0.0344228
0.0362997
0.0377876
0.0390342
0.0399727
0.0406675
0.0411242
0.0414015
0.0415257
0.0415563
0.0415173
0.0414169
0.0412871
0.0411605
0.041038
0.0409769
-0.214832
-0.161509
-0.120628
-0.0805417
-0.0576373
-0.0360123
-0.0191033
-0.00647899
0.00481926
0.0124145
0.0191403
0.0238841
0.027879
0.0310473
0.0340353
0.0361564
0.0378827
0.0391109
0.0400204
0.0406746
0.0411125
0.0413687
0.041473
0.0414517
0.041358
0.0412039
0.041025
0.040861
0.040712
0.0406348
-0.161072
-0.127531
-0.0973356
-0.0691464
-0.0488106
-0.030468
-0.018167
-0.00440535
0.00353962
0.0134477
0.019535
0.025773
0.0295731
0.0329075
0.0353758
0.0373385
0.0388996
0.0400517
0.0408403
0.0413232
0.0415684
0.0416593
0.0416164
0.0414835
0.0412878
0.0410458
0.0407946
0.0405676
0.0403735
0.0402711
-0.105395
-0.0881395
-0.0722844
-0.055564
-0.0421604
-0.0275506
-0.0148499
-0.00208814
0.00775599
0.0165114
0.0223097
0.0278517
0.0318499
0.0351547
0.0375538
0.0392728
0.0404416
0.0412104
0.0417142
0.0419897
0.0421016
0.0420415
0.0418628
0.0415835
0.0412533
0.040903
0.0405562
0.0402536
0.0400082
0.0398768
-0.0785728
-0.0665861
-0.0557176
-0.0438352
-0.0336629
-0.0192259
-0.0055728
0.0070565
0.0171159
0.0249825
0.0298283
0.0339442
0.0364371
0.0385164
0.0401436
0.0414221
0.0422396
0.0426861
0.0427907
0.0427296
0.0425272
0.0422619
0.0419221
0.0415285
0.0411072
0.0406679
0.0402473
0.0398839
0.0395968
0.0394415
-0.0493653
-0.04137
-0.0342875
-0.0270474
-0.0156648
-0.00209885
0.010294
0.0220455
0.028744
0.0355635
0.0400682
0.0432992
0.0445322
0.0450566
0.0450402
0.0447982
0.0445566
0.0442473
0.0439546
0.043568
0.0431179
0.0426029
0.0420501
0.041486
0.0409183
0.0403759
0.0398738
0.0394482
0.0391215
0.0389424
-0.018166
-0.0143365
-0.013391
-0.0165204
-0.0157059
-0.00800368
0.010195
0.0292314
0.0431732
0.0486061
0.0508982
0.0512104
0.0508299
0.0501519
0.049142
0.0481886
0.0471158
0.0461009
0.045164
0.0443623
0.0436105
0.042899
0.0421989
0.0414811
0.0407817
0.0401085
0.039495
0.0389832
0.0385945
0.0383817
-0.00780249
0.000105891
0.00154773
-0.00347841
-0.00916875
-0.00583713
0.0227417
0.0443768
0.0601581
0.0653056
0.0676528
0.0651136
0.0616757
0.0573659
0.0541834
0.0516611
0.0498225
0.048278
0.046957
0.0457203
0.0445661
0.0434932
0.0424761
0.0415335
0.040641
0.0398137
0.0390796
0.0384661
0.0380083
0.0377577
-0.037591
-0.0262122
-0.0243412
-0.0310747
-0.0357229
-0.0271791
0.00174359
0.0426013
0.0736557
0.0838589
0.0820801
0.0761893
0.0696038
0.0631742
0.0580427
0.0541043
0.0511999
0.0491157
0.0475002
0.0461289
0.0449043
0.0437079
0.0425577
0.0414334
0.0403726
0.0394051
0.0385477
0.0378431
0.0373236
0.0370395
-0.143744
-0.127621
-0.116806
-0.103268
-0.0821671
-0.0542129
-0.019856
0.0137613
0.0383763
0.0531232
0.0572377
0.0594124
0.0586151
0.0577213
0.055755
0.0540161
0.0520281
0.0501734
0.048332
0.0466754
0.0451187
0.0437137
0.0423633
0.0410951
0.0399146
0.0388245
0.0378721
0.0370905
0.0365159
0.0362025
-0.188402
-0.174358
-0.157915
-0.137967
-0.114036
-0.0866015
-0.0549614
-0.02375
0.00304001
0.0207838
0.0350179
0.0406421
0.0470075
0.0486819
0.0504615
0.0507447
0.0505855
0.0497313
0.0485715
0.0471008
0.0455388
0.0439162
0.0423343
0.0408387
0.0394398
0.0381878
0.0371022
0.036218
0.0355744
0.0352236
-0.219197
-0.19606
-0.16924
-0.138198
-0.107583
-0.0759772
-0.047053
-0.0218488
0.00040511
0.0149503
0.0280961
0.0362462
0.0427402
0.046094
0.0485208
0.0495061
0.0496179
0.0490908
0.048053
0.0467747
0.0452574
0.0436569
0.0420198
0.0403826
0.0388442
0.0374392
0.0362132
0.0352236
0.0345008
0.0341096
-0.20327
-0.179927
-0.150403
-0.11768
-0.0854962
-0.0536418
-0.0241989
-0.000106718
0.0178541
0.0338266
0.0419271
0.0497387
0.0519881
0.0543832
0.0545992
0.0540336
0.0530243
0.0514009
0.0495858
0.0475496
0.0454902
0.0434707
0.041494
0.0396497
0.0379382
0.0363959
0.0350755
0.0340092
0.0332346
0.0328173
-0.149989
-0.131583
-0.111481
-0.0875407
-0.0617421
-0.0378424
-0.0127944
0.00909263
0.0240202
0.0394303
0.0473289
0.0545851
0.056158
0.0574962
0.0562897
0.0552697
0.053581
0.0517345
0.0497298
0.0475316
0.045285
0.0429847
0.0407868
0.0387071
0.0367956
0.0351174
0.033683
0.0325397
0.0317167
0.0312743
-0.119841
-0.108891
-0.0950248
-0.0791898
-0.0599415
-0.0400363
-0.0186505
0.00573127
0.0273694
0.0471564
0.0599726
0.0653859
0.0660332
0.0646928
0.0616916
0.0588328
0.0557283
0.0528196
0.0500213
0.0473322
0.0446764
0.0421568
0.0397439
0.0374772
0.0354369
0.0336222
0.0320817
0.0308584
0.0299787
0.0295076
-0.155803
-0.144765
-0.132168
-0.116069
-0.0957053
-0.0694096
-0.039641
-0.00644321
0.0276527
0.050627
0.0674416
0.0679808
0.0685787
0.0659871
0.063227
0.0601691
0.0568722
0.0534983
0.0502031
0.0469331
0.0438798
0.0409768
0.0382637
0.0358295
0.0336354
0.0317258
0.0301261
0.0288594
0.0279564
0.0274735
-0.138616
-0.131916
-0.123468
-0.111603
-0.0966523
-0.0780713
-0.0546341
-0.0273098
0.00376916
0.030858
0.0516973
0.0607067
0.0627257
0.0611626
0.0584496
0.0561105
0.0534913
0.0508477
0.0477747
0.0447674
0.041752
0.0387899
0.0360787
0.03356
0.0313093
0.029371
0.0277442
0.0264729
0.0255699
0.0250895
-0.091177
-0.0798225
-0.0662427
-0.0513525
-0.0360454
-0.0213947
-0.00807536
0.0030876
0.013693
0.0242721
0.0363586
0.0465765
0.0543934
0.0565681
0.0571928
0.0553659
0.0529803
0.0496971
0.0463276
0.0429441
0.0395185
0.0363897
0.0334861
0.030855
0.0285771
0.0266105
0.0249901
0.0237299
0.0228394
0.022368
-0.0756797
-0.0656479
-0.0515792
-0.0358131
-0.0195402
-0.00374337
0.0104984
0.0230397
0.0336166
0.0424246
0.0506035
0.0532168
0.0555129
0.0552227
0.0538482
0.0516835
0.0492176
0.046117
0.0429327
0.0394062
0.0360677
0.0329321
0.0299979
0.0274358
0.0251907
0.0232929
0.021748
0.0205521
0.0197166
0.0192743
-0.0389524
-0.0308181
-0.0215551
-0.0112144
0.00222729
0.01542
0.0279563
0.0394428
0.0495022
0.0588436
0.0634376
0.0653553
0.0630378
0.0602925
0.0554966
0.052506
0.0471628
0.0436191
0.0390725
0.0351387
0.0315971
0.0283397
0.0255459
0.0231205
0.0210434
0.0193301
0.0179369
0.0168756
0.0161367
0.0157484
-0.0491252
-0.0407333
-0.0296338
-0.0164393
-0.0018093
0.0145034
0.0322205
0.0504036
0.0695611
0.0899302
0.0988494
0.102903
0.100415
0.0739098
0.0684209
0.0581043
0.0493816
0.0422499
0.0359799
0.031036
0.0267715
0.0232958
0.0204723
0.0181437
0.0162796
0.0147811
0.0136012
0.0127203
0.0121128
0.0117975
-0.0662689
-0.0603108
-0.0530766
-0.0445641
-0.0347766
-0.0236447
-0.0109831
0.00264816
0.0159209
0.0325284
0.0419922
0.0454275
0.049271
0.0456459
0.0436464
0.0399253
0.0356166
0.030824
0.0262305
0.0221903
0.0187023
0.015936
0.0137011
0.0119351
0.0105525
0.00946716
0.00863846
0.00802807
0.00761415
0.0074013
-0.0365881
-0.0356785
-0.0339596
-0.0312285
-0.0275242
-0.022757
-0.0169305
-0.0100365
-0.00270433
0.00421451
0.00890298
0.00907784
0.00937739
0.00907212
0.00982666
0.0102883
0.0102914
0.0096731
0.00874318
0.00763827
0.00657015
0.00563395
0.00483335
0.00419419
0.003684
0.00328653
0.00298351
0.00276235
0.00261296
0.00253696
)
;

boundaryField
{
    outlet
    {
        type            fixedValue;
        value           uniform 0;
    }
    upperWall
    {
        type            symmetryPlane;
    }
    lowerWall
    {
        type            symmetryPlane;
    }
    inlet
    {
        type            zeroGradient;
    }
    cylinder
    {
        type            zeroGradient;
    }
    frontAndBack
    {
        type            empty;
    }
    procBoundary3to2
    {
        type            processor;
        value           nonuniform List<scalar> 
43
(
-0.564693
-0.456742
-0.353282
-0.261135
-0.184118
-0.121974
-0.0587735
-0.0587735
-0.0311944
-0.0127053
-0.00204458
0.00226742
0.0198343
0.0247363
0.0322403
0.037153
0.039436
0.0404937
0.041404
0.0418306
0.0418327
0.0418322
0.0416504
0.0415333
0.0413903
0.0413077
0.0413523
0.041464
0.0416178
0.0418015
0.0419946
0.0421858
0.0423687
0.0425253
0.042649
0.0427415
0.0427979
0.042843
0.0428386
0.0428548
0.00226742
0.00322399
0.00322399
)
;
    }
    procBoundary3to7
    {
        type            processor;
        value           nonuniform List<scalar> 
30
(
-0.492754
-0.361974
-0.311743
-0.308582
-0.37712
-0.473271
-0.495087
-0.403006
-0.339144
-0.275786
-0.274046
-0.316812
-0.329983
-0.297089
-0.294879
-0.262735
-0.194903
-0.194302
-0.219993
-0.233013
-0.191472
-0.168441
-0.172735
-0.190844
-0.158723
-0.128197
-0.153102
-0.13899
-0.0586034
-0.00510035
)
;
    }
}


// ************************************************************************* //
