/*--------------------------------*- C++ -*----------------------------------*\
| =========                 |                                                 |
| \\      /  F ield         | OpenFOAM: The Open Source CFD Toolbox           |
|  \\    /   O peration     | Version:                                        |
|   \\  /    A nd           | Website:  www.openfoam.com                      |
|    \\/     M anipulation  |                                                 |
\*---------------------------------------------------------------------------*/
FoamFile
{
    version     2.0;
    format      ascii;
    class       volVectorField;
    location    "195";
    object      U;
}
// * * * * * * * * * * * * * * * * * * * * * * * * * * * * * * * * * * * * * //

dimensions      [0 1 -1 0 0 0 0];


internalField   nonuniform List<vector> 
1150
(
(0.856697 -0.0160776 -4.60762e-21)
(0.844906 -0.0174991 1.06485e-20)
(0.83185 -0.0190738 -5.98034e-21)
(0.856025 0.00329393 -3.06508e-21)
(0.844611 0.00351239 2.51861e-21)
(0.831672 0.0041085 -2.93675e-20)
(0.857567 0.020765 -5.21311e-21)
(0.847274 0.0222618 3.95772e-20)
(0.835245 0.024816 -4.92254e-20)
(0.862036 0.0420174 1.31378e-21)
(0.853799 0.0447631 1.1807e-20)
(0.869067 0.058414 5.38499e-21)
(0.862803 0.0620752 9.48215e-20)
(0.879421 0.0781071 -2.56709e-20)
(0.999928 0.000495293 -1.94736e-22)
(1.00419 -0.00103447 -5.62656e-23)
(1.00259 -0.0102231 3.62131e-23)
(1.00281 -0.00386612 -1.51469e-22)
(0.999779 -0.00191533 4.10641e-23)
(1.00047 -0.00324871 1.75851e-22)
(0.998335 0.000950319 -1.61322e-22)
(0.997355 0.00156882 1.0083e-23)
(0.996378 -0.00655532 -9.38659e-23)
(0.995666 -0.00138629 1.46998e-22)
(0.993206 -0.00604827 -1.00624e-22)
(0.991443 -0.00920063 3.66733e-23)
(0.989877 -0.00817102 -3.43271e-22)
(0.987445 -0.00788542 2.79119e-22)
(0.984284 -0.00900857 -2.22148e-22)
(0.98103 -0.00807674 4.83881e-22)
(0.977059 -0.00784981 3.11134e-23)
(0.972971 -0.00654769 -9.98938e-22)
(0.967501 -0.00737514 1.0633e-21)
(0.962667 -0.00653069 -3.14139e-22)
(0.956494 -0.00748206 7.47967e-22)
(0.950488 -0.00688051 -1.89109e-21)
(0.942768 -0.00829859 2.49994e-22)
(0.93516 -0.00821804 1.18455e-21)
(0.926331 -0.00976746 3.2608e-22)
(0.916987 -0.0100232 -3.28698e-21)
(0.906467 -0.0115812 2.67551e-21)
(0.8952 -0.0121267 -1.50814e-22)
(0.882934 -0.0138108 5.41944e-22)
(0.869595 -0.0144988 2.72705e-21)
(0.999959 -0.000668577 8.34433e-22)
(1.00263 0.000661318 -1.31375e-22)
(1.004 -0.0121028 -5.15324e-22)
(1.00418 -0.0018358 2.18916e-22)
(0.999163 -0.00330112 -3.88455e-22)
(1.00062 -0.00127176 6.28856e-22)
(0.997616 -1.33982e-06 -2.4337e-22)
(0.995587 0.00304263 -4.96791e-22)
(0.99596 -0.00745429 4.11674e-22)
(0.995541 0.000439694 -7.35519e-22)
(0.992927 -0.00673032 3.43664e-22)
(0.991428 -0.00721223 -2.42441e-22)
(0.991224 -0.00822774 3.90204e-22)
(0.987789 -0.00582122 -2.31728e-22)
(0.984735 -0.00814182 2.0601e-21)
(0.981602 -0.00516209 -3.1764e-21)
(0.977118 -0.00619119 2.82241e-21)
(0.972886 -0.00293253 2.2275e-21)
(0.966618 -0.00457032 -2.81439e-21)
(0.962104 -0.00182924 2.86542e-21)
(0.955305 -0.00319289 -4.54929e-21)
(0.949558 -0.000742585 -1.56577e-21)
(0.941352 -0.00210634 -1.17845e-21)
(0.933991 -6.21034e-05 -1.97516e-21)
(0.924918 -0.00144725 5.30718e-21)
(0.915874 0.000785933 1.03153e-21)
(0.905207 -0.000375814 -2.85561e-21)
(0.893891 0.00191338 6.55573e-21)
(0.881781 0.00108138 3.67244e-22)
(0.868234 0.00360849 -7.59895e-21)
(0.999998 -0.0017046 -1.38742e-21)
(1.00095 0.00217275 -2.50277e-22)
(1.00569 -0.0142571 -1.69316e-22)
(1.00527 0.000535027 -1.0213e-21)
(0.998525 -0.00466937 1.74782e-22)
(1.00061 0.000812559 -1.43701e-21)
(0.99672 -0.00061683 1.2014e-21)
(0.993802 0.00416478 1.42242e-21)
(0.9957 -0.00827188 -1.04789e-21)
(0.995374 0.00216741 -1.54561e-21)
(0.99285 -0.00812012 1.38907e-21)
(0.991481 -0.00493581 -1.66006e-21)
(0.992585 -0.00850003 3.00752e-21)
(0.988115 -0.00405535 -5.26057e-22)
(0.985265 -0.00714839 -1.04673e-21)
(0.981913 -0.00238236 1.89286e-21)
(0.977174 -0.00462743 -6.58561e-21)
(0.972663 0.000330489 9.14457e-21)
(0.965707 -0.00222235 -1.36715e-21)
(0.961654 0.00210454 -3.07243e-23)
(0.954115 -7.05405e-05 -2.63512e-21)
(0.948791 0.00430282 1.54377e-22)
(0.940107 0.00228435 -5.70626e-21)
(0.932978 0.00656336 1.1463e-20)
(0.923879 0.00504983 1.37118e-21)
(0.915004 0.00981323 -8.49959e-21)
(0.904602 0.00878352 3.30758e-21)
(0.89351 0.0141671 8.90878e-24)
(0.88172 0.0139081 -6.86759e-21)
(0.86856 0.0201253 1.43674e-20)
(1.00005 -0.00247075 9.17121e-22)
(0.999165 0.00328241 6.28127e-22)
(1.00776 -0.0163656 3.00785e-22)
(1.00605 0.00283749 2.58535e-21)
(0.997788 -0.00575246 3.4707e-22)
(1.00038 0.00286047 -7.78085e-22)
(0.995632 -0.00100776 2.04688e-23)
(0.99196 0.00490369 -7.46271e-22)
(0.995797 -0.00900357 1.44911e-21)
(0.995091 0.00346127 -8.0226e-22)
(0.993075 -0.00954055 -1.66153e-21)
(0.991802 -0.00288843 1.09328e-21)
(0.993828 -0.00884618 1.2927e-21)
(0.988422 -0.0022317 -2.9417e-21)
(0.985935 -0.00592932 6.30228e-21)
(0.981863 0.000672942 -8.50075e-21)
(0.976941 -0.00272663 4.26291e-21)
(0.972093 0.00423337 -6.24239e-21)
(0.964512 0.000676531 3.25607e-21)
(0.960685 0.00693837 6.94749e-21)
(0.95303 0.00403274 -9.72857e-21)
(0.947763 0.0105909 1.24511e-20)
(0.938983 0.00835124 -1.37451e-20)
(0.932726 0.0152165 5.59634e-21)
(0.923517 0.0139019 7.10662e-21)
(0.915081 0.0213237 9.16584e-21)
(0.905171 0.021152 -3.10556e-20)
(0.894415 0.0295943 6.2462e-21)
(0.88352 0.0304549 -1.52601e-21)
(0.870976 0.0402761 -4.67161e-21)
(1.00009 -0.00311641 3.90056e-22)
(0.99738 0.00414664 -3.78158e-22)
(1.01013 -0.0187037 5.70703e-22)
(1.00645 0.00569275 -9.57913e-22)
(0.996972 -0.00691509 8.68692e-22)
(0.999889 0.00521662 -5.77165e-22)
(0.994341 -0.00128211 8.90555e-23)
(0.990216 0.00533614 -2.65137e-21)
(0.996263 -0.00962339 2.10688e-21)
(0.994866 0.004654 1.64746e-21)
(0.993532 -0.0115926 -2.86564e-21)
(0.992174 -9.94848e-05 -6.92454e-22)
(0.995234 -0.00977956 3.39002e-21)
(0.988678 -5.34337e-05 -2.21591e-21)
(0.986604 -0.00477947 8.25372e-22)
(0.981459 0.0034008 -9.84753e-22)
(0.976667 -0.00117102 8.53256e-22)
(0.971177 0.00759202 -3.14518e-22)
(0.963517 0.00275021 -7.85585e-22)
(0.960076 0.0109868 1.22378e-20)
(0.95218 0.00714208 -1.06513e-20)
(0.947731 0.0152499 -1.07364e-20)
(0.938857 0.0125049 -2.17401e-21)
(0.933009 0.0213586 2.97219e-20)
(0.924335 0.0195865 1.68475e-20)
(0.916437 0.0295069 -1.67266e-20)
(0.907101 0.0292425 1.12829e-20)
(0.897168 0.0409554 -2.21852e-20)
(0.887126 0.0423093 1.22345e-20)
(0.875688 0.0561356 -8.45941e-20)
(1.00015 -0.00336896 -2.04105e-21)
(0.995625 0.00433815 8.01941e-22)
(1.01282 -0.0206655 -1.37039e-21)
(1.00647 0.00834101 1.27429e-21)
(0.995902 -0.00749943 -1.67254e-21)
(0.999233 0.00728779 7.92532e-22)
(0.992913 -0.00127162 4.86776e-22)
(0.98855 0.00518903 9.45782e-22)
(0.997433 -0.0100611 6.38726e-23)
(0.994458 0.0050624 -3.30431e-21)
(0.994441 -0.0130219 8.80271e-22)
(0.992801 0.00198576 1.13886e-21)
(0.996289 -0.0103655 6.02484e-21)
(0.989015 0.00219525 -5.95065e-21)
(0.986748 -0.00262895 2.74221e-21)
(0.980453 0.00631553 3.93117e-21)
(0.975927 0.00172708 -3.9365e-21)
(0.969801 0.0121235 -8.98497e-21)
(0.961854 0.00574518 -4.12358e-21)
(0.959057 0.0162086 1.56047e-20)
(0.951283 0.011358 6.26556e-21)
(0.946632 0.0218329 -3.51582e-21)
(0.939051 0.0184959 5.3614e-21)
(0.933281 0.0297033 4.61716e-21)
(0.925029 0.0279056 -1.97151e-20)
(0.91819 0.0407039 -2.48702e-20)
(0.909635 0.0408171 1.21475e-20)
(0.900841 0.0557813 5.84361e-20)
(0.892741 0.0579958 -8.31316e-20)
(0.882958 0.0753908 9.2351e-20)
(1.00019 -0.00360518 1.02399e-21)
(0.99416 0.00437992 -1.05571e-21)
(1.0157 -0.0228603 -1.64307e-21)
(1.00591 0.0116473 1.04749e-21)
(0.994731 -0.00839513 6.96571e-22)
(0.998242 0.00982025 -1.58807e-21)
(0.991584 -0.00160935 1.45463e-21)
(0.987227 0.00491453 1.33353e-21)
(0.99899 -0.0106329 -2.2497e-22)
(0.994509 0.00557477 -1.07332e-21)
(0.995845 -0.0152419 4.20057e-21)
(0.993143 0.00508796 -3.01031e-21)
(0.997372 -0.0127134 5.50695e-21)
(0.989729 0.00606232 -9.14247e-21)
(0.986476 -0.0024575 1.09139e-20)
(0.979264 0.00993584 -4.65548e-21)
(0.975284 0.00302476 -8.90169e-21)
(0.968031 0.0154329 -5.30754e-21)
(0.96121 0.00686937 -3.49553e-21)
(0.95805 0.018897 -1.63265e-21)
(0.951398 0.0133867 2.65352e-20)
(0.947239 0.0247868 -2.84311e-20)
(0.939766 0.020704 4.98049e-22)
(0.935839 0.034434 1.8468e-20)
(0.927925 0.0311766 -1.60429e-20)
(0.921748 0.0469369 1.00305e-20)
(0.915014 0.0463781 3.77674e-20)
(0.906933 0.0647779 -6.49371e-20)
(0.90073 0.0670848 4.81559e-20)
(0.892708 0.0887471 1.46156e-20)
(1.00023 -0.00335309 3.15094e-23)
(0.992966 0.00346071 8.4461e-22)
(1.01916 -0.0242044 1.60784e-21)
(1.00421 0.0144021 1.08594e-21)
(0.993731 -0.00838885 -4.95205e-23)
(0.996732 0.0114218 -2.27615e-21)
(0.99044 -0.00142671 -1.33296e-21)
(0.986476 0.00366486 3.65209e-21)
(1.00118 -0.0106564 -4.52819e-21)
(0.99399 0.00486032 1.98346e-21)
(0.998174 -0.0150452 -6.15537e-22)
(0.993568 0.00677677 8.75086e-21)
(0.997941 -0.0131118 -1.71871e-21)
(0.990044 0.0105908 -1.87697e-21)
(0.985156 0.00100417 -6.67873e-21)
(0.977876 0.0126349 -5.54288e-21)
(0.973486 0.0082238 1.99764e-20)
(0.965132 0.017851 -7.23573e-21)
(0.961075 0.0114259 -6.73876e-21)
(0.957029 0.0245424 -1.95679e-21)
(0.950686 0.0174929 1.67138e-20)
(0.947207 0.0325212 -6.65922e-21)
(0.940687 0.0262681 9.54388e-21)
(0.936648 0.0436886 6.16958e-21)
(0.931352 0.0399693 -5.00667e-20)
(0.92541 0.0585713 8.86538e-21)
(0.920863 0.0580114 -6.834e-21)
(0.914418 0.0797416 8.28396e-22)
(0.910859 0.0816119 3.90433e-20)
(0.999965 -0.00323692 8.69514e-22)
(0.992139 0.00248336 -4.23269e-22)
(1.02339 -0.0256788 -8.78335e-22)
(1.00104 0.0180292 1.25087e-21)
(0.992928 -0.00884433 1.30796e-21)
(0.994552 0.013734 -2.70355e-22)
(0.989103 -0.00229177 -1.49904e-21)
(0.986318 0.00262572 2.05388e-21)
(1.00365 -0.0113473 -9.81441e-22)
(0.992934 0.00468313 2.59743e-22)
(1.00048 -0.0168318 8.49019e-22)
(0.993583 0.00979098 -4.83298e-21)
(1.00024 -0.01639 3.02637e-21)
(0.986995 0.0169972 1.38623e-21)
(0.986041 -0.00139554 -8.19591e-21)
(0.972299 0.017913 1.04107e-20)
(0.975113 0.00833028 -9.60749e-21)
(0.960423 0.0200656 1.99021e-20)
(0.962158 0.0102752 -1.36577e-20)
(0.956666 0.0266497 9.60506e-21)
(0.952407 0.0170436 6.98543e-22)
(0.946834 0.032846 -3.17539e-20)
(0.945193 0.0272667 9.2086e-21)
(0.937902 0.0448508 4.27334e-21)
(0.936515 0.0404767 1.63972e-20)
(0.930752 0.062254 -1.78965e-20)
(0.928819 0.0598882 -1.71094e-21)
(0.923889 0.0859603 2.25249e-20)
(0.923272 0.0871331 1.42277e-20)
(0.9996 -0.00252643 -9.12851e-22)
(0.991706 0.000154998 2.69682e-22)
(1.02715 -0.0254933 -1.29543e-21)
(0.999437 0.0207278 2.22115e-22)
(0.989673 -0.00834182 8.88453e-23)
(0.997048 0.01481 1.57925e-22)
(0.985526 -0.00222989 -4.96796e-22)
(0.989033 0.000362775 6.74353e-22)
(1.00536 -0.0101457 -4.25074e-21)
(0.993381 0.00333668 5.82627e-21)
(1.0012 -0.0142677 4.70854e-21)
(0.99313 0.0100573 -5.05304e-21)
(1.00185 -0.0138193 -8.76552e-21)
(0.989993 0.0237973 1.62904e-20)
(0.976874 0.00177032 -1.97246e-20)
(0.978766 0.0231172 1.42184e-20)
(0.965096 0.0134013 -1.88381e-21)
(0.965041 0.0212953 -1.47122e-20)
(0.960043 0.0177065 1.0006e-20)
(0.958322 0.0301262 1.02536e-20)
(0.950954 0.0241876 9.72517e-21)
(0.952584 0.0401001 -2.49106e-20)
(0.94239 0.0343727 -1.82329e-20)
(0.946777 0.0553691 5.16838e-20)
(0.936294 0.0485387 -3.41614e-20)
(0.940342 0.0737139 -4.46822e-22)
(0.9349 0.0688067 -1.30333e-20)
(0.937109 0.0963112 5.1812e-20)
(1.00372 -0.0021119 0)
(0.987595 -0.00210402 0)
(1.03199 -0.0259403 0)
(0.992263 0.0243446 0)
(0.993971 -0.00938778 0)
(0.993826 0.0160582 0)
(0.989418 -0.00345471 0)
(0.987491 -0.00220364 0)
(1.01032 -0.0106259 0)
(0.98711 0.00222057 0)
(1.00597 -0.0151418 0)
(0.988878 0.0101404 0)
(1.00933 -0.0177901 0)
(0.981402 0.0314036 0)
(0.982567 -0.00412304 0)
(0.973808 0.0288545 0)
(0.969992 0.008518 0)
(0.964549 0.0190582 0)
(0.968579 0.0149378 0)
(0.95747 0.0295385 0)
(0.960154 0.0180631 0)
(0.950148 0.0385826 0)
(0.958214 0.0303263 0)
(0.941759 0.0513776 0)
(0.954245 0.0448805 0)
(0.940782 0.0709454 0)
(0.952488 0.0638822 0)
(0.94389 0.0958931 0)
(1.01018 -0.00120844 0)
(0.984117 -0.00498084 0)
(1.0295 -0.0250298 0)
(0.983216 0.026555 0)
(1.00292 -0.00872163 0)
(0.984326 0.0159855 0)
(0.998355 -0.00247924 0)
(0.982858 -0.00450863 0)
(1.01014 -0.00899941 0)
(0.979425 0.00129369 0)
(1.00548 -0.013368 0)
(0.986931 0.00800919 0)
(1.0069 -0.0135367 0)
(0.967413 0.0349909 0)
(0.991981 -0.00261727 0)
(0.960973 0.0356728 0)
(0.9819 0.00703558 0)
(0.959803 0.0261011 0)
(0.973056 0.0163115 0)
(0.956379 0.0317193 0)
(0.966773 0.0269315 0)
(0.947391 0.0358882 0)
(0.965211 0.0409226 0)
(0.940896 0.0478176 0)
(0.961927 0.0550761 0)
(0.943785 0.0638251 0)
(0.961548 0.0736737 0)
(0.953563 0.0838665 0)
(1.01423 -0.000744885 0)
(0.985301 -0.00687839 0)
(1.01585 -0.0234946 0)
(0.981824 0.0274021 0)
(1.00775 -0.0079219 0)
(0.979763 0.0158246 0)
(1.00587 -0.00186834 0)
(0.980414 -0.00667091 0)
(1.00368 -0.00605773 0)
(0.978947 -0.000809229 0)
(0.99618 -0.0130719 0)
(0.986874 0.00652414 0)
(0.992942 -0.0074769 0)
(0.967828 0.0346193 0)
(0.986364 -0.000465179 0)
(0.960746 0.0358878 0)
(0.984894 0.00710712 0)
(0.95834 0.0264072 0)
(0.975314 0.019124 0)
(0.956392 0.0285478 0)
(0.96783 0.0340194 0)
(0.950928 0.0313304 0)
(0.962644 0.0463195 0)
(0.948648 0.0446657 0)
(0.959882 0.0573959 0)
(0.95152 0.0580507 0)
(0.962987 0.0747262 0)
(0.962314 0.0742408 0)
(1.0142 -0.00051401 0)
(0.989946 -0.0071917 0)
(0.997814 -0.021816 0)
(0.98768 0.0257518 0)
(1.0089 -0.00590108 0)
(0.983258 0.0142661 0)
(1.01069 -0.000394591 0)
(0.982233 -0.00737791 0)
(0.997271 -0.00341496 0)
(0.984934 -0.00247634 0)
(0.984281 -0.0106183 0)
(0.984484 0.0046567 0)
(0.982601 -0.00235174 0)
(0.977643 0.0330484 0)
(0.978887 0.00273626 0)
(0.969111 0.0332612 0)
(0.984493 0.0110351 0)
(0.961649 0.0241227 0)
(0.980999 0.0261437 0)
(0.959916 0.0249482 0)
(0.970852 0.0393639 0)
(0.960676 0.0315579 0)
(0.964578 0.0478916 0)
(0.958468 0.0454078 0)
(0.963758 0.0581644 0)
(0.960119 0.0544909 0)
(0.966073 0.0720595 0)
(0.969254 0.067249 0)
(1.01259 -0.000607695 0)
(0.994905 -0.00607568 0)
(0.984341 -0.0202869 0)
(0.992024 0.0222573 0)
(1.01092 -0.00388816 0)
(0.988259 0.0121526 0)
(1.01411 0.00167764 0)
(0.986661 -0.00699417 0)
(0.993254 -0.00144648 0)
(0.990974 -0.00270442 0)
(0.976396 -0.00680666 0)
(0.980302 0.00177908 0)
(0.979685 -0.000177906 0)
(0.985581 0.0320028 0)
(0.980369 0.00562694 0)
(0.974915 0.0313265 0)
(0.987375 0.0151794 0)
(0.965417 0.0209408 0)
(0.986971 0.030668 0)
(0.96867 0.0244486 0)
(0.97676 0.0413087 0)
(0.971153 0.0338865 0)
(0.972715 0.0472544 0)
(0.968628 0.0469931 0)
(0.972422 0.0579888 0)
(0.970025 0.0537566 0)
(0.971902 0.067446 0)
(0.975822 0.0637649 0)
(1.01144 -0.000928782 0)
(0.998259 -0.00403046 0)
(0.978145 -0.0183348 0)
(0.991847 0.016783 0)
(1.01354 -0.00185747 0)
(0.990477 0.00991018 0)
(1.01617 0.00374955 0)
(0.99066 -0.00541939 0)
(0.990786 8.8642e-05 0)
(0.994162 -0.00155538 0)
(0.974582 -0.00227951 0)
(0.976843 -0.000561489 0)
(0.978924 -0.00134856 0)
(0.988234 0.0310483 0)
(0.986311 0.00864192 0)
(0.977822 0.0288782 0)
(0.992174 0.0202459 0)
(0.968898 0.0182796 0)
(0.989957 0.0316748 0)
(0.977122 0.0256085 0)
(0.982875 0.0404999 0)
(0.979648 0.0377173 0)
(0.982295 0.0457621 0)
(0.97741 0.0487759 0)
(0.980609 0.0569933 0)
(0.979168 0.0548107 0)
(0.979584 0.0640129 0)
(0.981639 0.0621662 0)
(1.01045 -0.00143624 0)
(0.999003 -0.00161973 0)
(0.978638 -0.0158611 0)
(0.991046 0.0104684 0)
(1.01337 -0.000319747 0)
(0.991664 0.00788418 0)
(1.0152 0.00514832 0)
(0.993092 -0.00251322 0)
(0.989891 0.000910859 0)
(0.99387 0.000497733 0)
(0.978506 0.00170773 0)
(0.976273 -0.000925143 0)
(0.978321 -0.00491078 0)
(0.987464 0.0286945 0)
(0.990827 0.0120684 0)
(0.98109 0.0255352 0)
(0.994392 0.0250703 0)
(0.975263 0.0175377 0)
(0.989257 0.029845 0)
(0.983266 0.0269191 0)
(0.986454 0.0378076 0)
(0.98528 0.0414217 0)
(0.988805 0.0442287 0)
(0.983897 0.0503948 0)
(0.987629 0.0552747 0)
(0.985354 0.0565544 0)
(0.988259 0.061637 0)
(0.98609 0.0613052 0)
(1.00883 -0.00179292 0)
(0.997717 0.000566363 0)
(0.983181 -0.0136312 0)
(0.992874 0.00507327 0)
(1.01019 0.000672987 0)
(0.99316 0.00659383 0)
(1.01143 0.00595101 0)
(0.99392 0.000997506 0)
(0.989874 0.00124641 0)
(0.991988 0.00292623 0)
(0.985532 0.00365613 0)
(0.979441 0.00134652 0)
(0.978577 -0.00787857 0)
(0.986479 0.0241696 0)
(0.992667 0.0154892 0)
(0.985499 0.0221379 0)
(0.994802 0.027872 0)
(0.983028 0.0192132 0)
(0.987876 0.0283839 0)
(0.986857 0.0281093 0)
(0.98721 0.0343847 0)
(0.987244 0.0430016 0)
(0.991878 0.0431008 0)
(0.988286 0.051148 0)
(0.993119 0.0537078 0)
(0.989327 0.0571636 0)
(0.99551 0.0596261 0)
(0.990761 0.0605437 0)
(1.00672 -0.00180111 0)
(0.995466 0.0021772 0)
(0.989718 -0.0126546 0)
(0.996541 0.00152715 0)
(1.00562 0.00131683 0)
(0.994842 0.00605034 0)
(1.00607 0.00654728 0)
(0.993744 0.00418713 0)
(0.990907 0.00135374 0)
(0.989396 0.00472964 0)
(0.992821 0.00379236 0)
(0.984509 0.00517725 0)
(0.981623 -0.00872103 0)
(0.986693 0.0179174 0)
(0.992475 0.0180907 0)
(0.990307 0.0196728 0)
(0.994137 0.0289338 0)
(0.98998 0.0223334 0)
(0.987186 0.0275981 0)
(0.98958 0.0300406 0)
(0.987201 0.031701 0)
(0.987461 0.0424515 0)
(0.992734 0.0420359 0)
(0.989592 0.0500195 0)
(0.996721 0.051701 0)
(0.991694 0.055921 0)
(1.00083 0.0575098 0)
(0.99536 0.0591569 0)
(1.0042 -0.00133348 0)
(0.994018 0.00293808 0)
(0.996924 -0.0132151 0)
(0.999143 0.000150847 0)
(1.00117 0.00198956 0)
(0.996105 0.00575562 0)
(1.00004 0.00773502 0)
(0.994137 0.00606086 0)
(0.992501 0.001552 0)
(0.987795 0.00602405 0)
(0.998775 0.00184579 0)
(0.989148 0.00860507 0)
(0.987067 -0.0063747 0)
(0.987772 0.0122856 0)
(0.991712 0.0185159 0)
(0.993417 0.0190799 0)
(0.99275 0.0281056 0)
(0.994868 0.025164 0)
(0.987392 0.0285407 0)
(0.991674 0.0318095 0)
(0.987902 0.0316272 0)
(0.988013 0.0405202 0)
(0.992324 0.0408328 0)
(0.990377 0.0473737 0)
(0.998157 0.0489151 0)
(0.994184 0.0532116 0)
(1.00356 0.0541264 0)
(0.999607 0.0565039 0)
(1.0015 -0.000509435 0)
(0.993682 0.00261988 0)
(1.00395 -0.0142691 0)
(1.00012 0.000630262 0)
(0.99676 0.00274888 0)
(0.996988 0.00576843 0)
(0.994054 0.00909398 0)
(0.995171 0.00659358 0)
(0.994778 0.00167331 0)
(0.987605 0.00654594 0)
(1.00353 -0.000282307 0)
(0.992179 0.0106877 0)
(0.992612 -0.00272965 0)
(0.990107 0.00908652 0)
(0.990878 0.0176173 0)
(0.994526 0.0196033 0)
(0.990399 0.0270307 0)
(0.997219 0.0273155 0)
(0.987532 0.0294747 0)
(0.993375 0.0332133 0)
(0.988797 0.0325632 0)
(0.989879 0.0384319 0)
(0.992668 0.0395567 0)
(0.992044 0.043929 0)
(0.998988 0.0457049 0)
(0.996702 0.0489285 0)
(1.00508 0.0498413 0)
(1.00301 0.0521451 0)
(0.999363 0.000676121 0)
(0.995048 0.00107383 0)
(1.00777 -0.0155099 0)
(0.999402 0.00296804 0)
(0.994429 0.0035748 0)
(0.99668 0.00584838 0)
(0.99034 0.010562 0)
(0.996897 0.0054098 0)
(0.996445 0.00176569 0)
(0.989405 0.00650959 0)
(1.00542 -0.0022441 0)
(0.994534 0.0110894 0)
(0.996437 0.00141234 0)
(0.991931 0.0096809 0)
(0.991264 0.0157434 0)
(0.993929 0.0211153 0)
(0.988682 0.0261208 0)
(0.996932 0.0280988 0)
(0.988762 0.0304698 0)
(0.994353 0.0330237 0)
(0.990725 0.0340232 0)
(0.992592 0.0362829 0)
(0.994234 0.0382588 0)
(0.995123 0.040076 0)
(1.00013 0.0420118 0)
(1.0002 0.0439289 0)
(1.00623 0.0447949 0)
(1.00654 0.0467431 0)
(0.998087 0.00169772 0)
(0.997089 -0.000909988 0)
(1.00858 -0.0158252 0)
(0.997878 0.00556832 0)
(0.993816 0.00432381 0)
(0.996373 0.00608158 0)
(0.989002 0.0112301 0)
(0.998698 0.00387821 0)
(0.997464 0.00152364 0)
(0.991766 0.00596183 0)
(1.00566 -0.0025957 0)
(0.995705 0.0104587 0)
(0.998046 0.0046606 0)
(0.993315 0.0123068 0)
(0.99268 0.0147906 0)
(0.993639 0.0222256 0)
(0.988282 0.0256079 0)
(0.995704 0.0282842 0)
(0.990423 0.030415 0)
(0.99579 0.0319857 0)
(0.992972 0.0340897 0)
(0.995856 0.0342216 0)
(0.996493 0.0364232 0)
(0.999186 0.036351 0)
(1.00226 0.0382467 0)
(1.00416 0.0388868 0)
(1.00798 0.039811 0)
(1.00962 0.0409697 0)
(0.997765 0.00272126 0)
(0.999741 -0.00335906 0)
(1.00593 -0.01562 0)
(0.995967 0.00856366 0)
(0.995085 0.0049418 0)
(0.996278 0.00629018 0)
(0.990414 0.0115749 0)
(1.00069 0.00180173 0)
(0.997591 0.00140202 0)
(0.994246 0.00489202 0)
(1.00365 -0.00199114 0)
(0.996481 0.00979631 0)
(0.997777 0.00642025 0)
(0.993589 0.0159213 0)
(0.994621 0.0146456 0)
(0.994131 0.0231686 0)
(0.990236 0.0251481 0)
(0.995094 0.0280439 0)
(0.993129 0.0299352 0)
(0.997822 0.0300667 0)
(0.996217 0.0330012 0)
(0.99941 0.0316136 0)
(0.999364 0.0343235 0)
(1.00323 0.0325155 0)
(1.0049 0.0346427 0)
(1.00813 0.033788 0)
(1.00994 0.0351405 0)
(1.01252 0.0351863 0)
(0.998034 0.00299955 0)
(1.00278 -0.00474632 0)
(1.00124 -0.0140147 0)
(0.99376 0.00984108 0)
(0.997433 0.00509716 0)
(0.996552 0.00642722 0)
(0.993697 0.0109491 0)
(1.00298 0.00105162 0)
(0.997295 0.00147875 0)
(0.996658 0.00414552 0)
(1.00041 -0.000277887 0)
(0.996828 0.00937459 0)
(0.996542 0.00724467 0)
(0.99309 0.017987 0)
(0.996313 0.0153299 0)
(0.99529 0.0231411 0)
(0.99401 0.0243313 0)
(0.995868 0.0272815 0)
(0.996774 0.0286831 0)
(1.00061 0.0281519 0)
(1.00044 0.0307221 0)
(1.00344 0.0290556 0)
(1.00278 0.0315789 0)
(1.00708 0.0293738 0)
(1.00768 0.0311658 0)
(1.01182 0.0296928 0)
(1.01201 0.0309895 0)
(1.01512 0.0304793 0)
(0.99846 0.0028106 0)
(1.00459 -0.00534087 0)
(0.997399 -0.0115645 0)
(0.992894 0.00992957 0)
(0.999107 0.00464825 0)
(0.997262 0.00635465 0)
(0.996719 0.00981103 0)
(1.00435 0.000995388 0)
(0.997359 0.00212552 0)
(0.998356 0.00371135 0)
(0.997851 0.0017849 0)
(0.997232 0.00943262 0)
(0.99591 0.00760299 0)
(0.993207 0.0185208 0)
(0.997259 0.0157299 0)
(0.996985 0.0224872 0)
(0.997728 0.0227403 0)
(0.998082 0.0258607 0)
(1.00012 0.026847 0)
(1.00348 0.0261612 0)
(1.00433 0.0281221 0)
(1.00705 0.026343 0)
(1.00618 0.0287119 0)
(1.00991 0.0265179 0)
(1.01009 0.0281903 0)
(1.01429 0.0263783 0)
(1.01388 0.0276036 0)
(1.01694 0.0267251 0)
(0.998922 0.00214249 0)
(1.00496 -0.00487245 0)
(0.994979 -0.00862992 0)
(0.993634 0.0086046 0)
(1.00007 0.0038697 0)
(0.998023 0.00603949 0)
(0.998891 0.00831197 0)
(1.00448 0.00188858 0)
(0.997577 0.0030284 0)
(0.999491 0.00401966 0)
(0.996457 0.0037542 0)
(0.997889 0.00964044 0)
(0.996169 0.00806641 0)
(0.994604 0.0173858 0)
(0.99802 0.015578 0)
(0.99882 0.0210091 0)
(1.00083 0.0207495 0)
(1.00069 0.0236899 0)
(1.00288 0.0244286 0)
(1.00561 0.0242048 0)
(1.00717 0.0253172 0)
(1.00954 0.024056 0)
(1.0089 0.0257178 0)
(1.01172 0.02425 0)
(1.01168 0.025489 0)
(1.0154 0.0240307 0)
(1.01497 0.0248579 0)
(1.01776 0.0240523 0)
(0.99924 0.00147997 0)
(1.00416 -0.00399186 0)
(0.994436 -0.00617814 0)
(0.995434 0.00695356 0)
(1.00027 0.00313599 0)
(0.998768 0.00560834 0)
(0.999863 0.00713124 0)
(1.00371 0.00289278 0)
(0.998022 0.00397126 0)
(1.00012 0.00469973 0)
(0.99653 0.00505582 0)
(0.998844 0.00974881 0)
(0.997259 0.00848651 0)
(0.996932 0.0156858 0)
(0.999123 0.0148094 0)
(1.00068 0.0191955 0)
(1.00282 0.0187289 0)
(1.0031 0.0212516 0)
(1.00483 0.021875 0)
(1.00695 0.0221294 0)
(1.00866 0.0227629 0)
(1.01078 0.0219736 0)
(1.01054 0.0230193 0)
(1.01257 0.0221642 0)
(1.01245 0.0230229 0)
(1.01546 0.0220632 0)
(1.01527 0.0225205 0)
(1.01775 0.0219098 0)
(0.999399 0.000891312 0)
(1.00314 -0.00289378 0)
(0.994965 -0.0042249 0)
(0.997114 0.00516458 0)
(1.00019 0.00260612 0)
(0.999384 0.00518124 0)
(1.00016 0.00622742 0)
(1.0029 0.00395718 0)
(0.998569 0.0047275 0)
(1.00058 0.00544482 0)
(0.997437 0.00591154 0)
(0.999887 0.00949563 0)
(0.998651 0.00877706 0)
(0.999289 0.0138774 0)
(1.00049 0.0136838 0)
(1.00224 0.0171506 0)
(1.00414 0.0168386 0)
(1.0049 0.0189231 0)
(1.00615 0.019356 0)
(1.0078 0.0200328 0)
(1.00926 0.020381 0)
(1.01123 0.0200758 0)
(1.01131 0.0206133 0)
(1.01294 0.0202277 0)
(1.01281 0.0207433 0)
(1.01514 0.0202397 0)
(1.01513 0.0204292 0)
(1.0173 0.0200312 0)
(0.999449 0.000524656 0)
(1.00219 -0.00195155 0)
(0.996046 -0.00292849 0)
(0.998446 0.00379136 0)
(0.999982 0.00233665 0)
(0.999837 0.00479915 0)
(1.00015 0.00565427 0)
(1.00226 0.00468812 0)
(0.999195 0.00515871 0)
(1.00102 0.00589892 0)
(0.998725 0.00630302 0)
(1.00094 0.00899129 0)
(1.00009 0.00869636 0)
(1.0012 0.012325 0)
(1.00184 0.0124048 0)
(1.00355 0.0152265 0)
(1.00495 0.0151069 0)
(1.00606 0.016805 0)
(1.00696 0.0171222 0)
(1.00839 0.0179325 0)
(1.00943 0.0181994 0)
(1.01126 0.0181871 0)
(1.01152 0.0184519 0)
(1.01299 0.0182934 0)
(1.01292 0.0185786 0)
(1.01476 0.0183274 0)
(1.01485 0.0183888 0)
(1.0167 0.0181187 0)
(0.999453 0.000282886 0)
(1.00157 -0.00117787 0)
(0.997108 -0.00198862 0)
(0.999228 0.00277027 0)
(0.999837 0.00216141 0)
(1.00017 0.00446818 0)
(1.00017 0.00520759 0)
(1.00198 0.00508879 0)
(0.999804 0.00532637 0)
(1.00153 0.00607092 0)
(0.999942 0.00635564 0)
(1.00181 0.00836127 0)
(1.00133 0.00830599 0)
(1.00254 0.0109467 0)
(1.00302 0.0111645 0)
(1.00452 0.0133987 0)
(1.00553 0.0134719 0)
(1.00682 0.0148619 0)
(1.00749 0.0151217 0)
(1.00883 0.0158986 0)
(1.00952 0.0161247 0)
(1.0112 0.0162959 0)
(1.0115 0.0164061 0)
(1.01293 0.0163844 0)
(1.01292 0.0164824 0)
(1.01446 0.0163952 0)
(1.01455 0.0163434 0)
(1.01612 0.0162003 0)
(0.999467 0.000170468 0)
(1.00114 -0.000642164 0)
(0.997971 -0.00137198 0)
(0.999727 0.00211366 0)
(0.999771 0.00205922 0)
(1.0004 0.00416127 0)
(1.00027 0.00484839 0)
(1.00189 0.00514076 0)
(1.00038 0.0052967 0)
(1.002 0.00596932 0)
(1.00097 0.00609481 0)
(1.00251 0.00769612 0)
(1.00232 0.00769313 0)
(1.00352 0.00971528 0)
(1.00392 0.00997251 0)
(1.00526 0.0117188 0)
(1.00597 0.0119512 0)
(1.00729 0.0130529 0)
(1.00782 0.0133218 0)
(1.00913 0.013965 0)
(1.0096 0.0141836 0)
(1.0111 0.014399 0)
(1.01139 0.0144518 0)
(1.01274 0.0144771 0)
(1.01282 0.0144627 0)
(1.01412 0.0144393 0)
(1.01423 0.0143094 0)
(1.01552 0.0142405 0)
(0.999491 0.000110965 0)
(1.00089 -0.000287296 0)
(0.998595 -0.000891803 0)
(0.999978 0.00167817 0)
(0.999796 0.00195426 0)
(1.00059 0.00383273 0)
(1.00042 0.00447321 0)
(1.00199 0.00498281 0)
(1.00089 0.00509628 0)
(1.00238 0.00568346 0)
(1.00181 0.0057014 0)
(1.00304 0.00696277 0)
(1.00304 0.00699953 0)
(1.00417 0.00851821 0)
(1.00455 0.0088028 0)
(1.00578 0.0101511 0)
(1.0063 0.0104544 0)
(1.0076 0.0113442 0)
(1.00804 0.0116038 0)
(1.00932 0.0121415 0)
(1.00966 0.0123112 0)
(1.01099 0.0125452 0)
(1.01125 0.0125495 0)
(1.01248 0.0126129 0)
(1.01262 0.0125201 0)
(1.01375 0.0125277 0)
(1.01386 0.0123445 0)
(1.01491 0.0123123 0)
(0.999538 9.44642e-05 0)
(1.0007 -6.65008e-05 0)
(0.999021 -0.000555753 0)
(1.00017 0.00140936 0)
(0.999882 0.00185098 0)
(1.00073 0.00346334 0)
(1.00061 0.0040994 0)
(1.00207 0.00464072 0)
(1.00132 0.00471801 0)
(1.00268 0.00527503 0)
(1.00245 0.00518434 0)
(1.00348 0.0061722 0)
(1.00357 0.00623556 0)
(1.00464 0.00735968 0)
(1.005 0.00765939 0)
(1.00614 0.00866959 0)
(1.00653 0.00900725 0)
(1.00775 0.00970793 0)
(1.00814 0.00995378 0)
(1.00934 0.010388 0)
(1.00963 0.0105161 0)
(1.01081 0.0107398 0)
(1.01105 0.0107108 0)
(1.01214 0.010794 0)
(1.01233 0.0106542 0)
(1.01329 0.0106794 0)
(1.01343 0.0104633 0)
(1.01428 0.0104554 0)
(0.999585 9.04113e-05 0)
(1.00058 5.63451e-05 0)
(0.999327 -0.000296741 0)
(1.00027 0.00121515 0)
(0.999979 0.00171599 0)
(1.00087 0.00308515 0)
(1.00077 0.00366413 0)
(1.00214 0.00416281 0)
(1.00169 0.00423532 0)
(1.00288 0.0047207 0)
(1.00288 0.00459505 0)
(1.00382 0.00533351 0)
(1.00394 0.00541285 0)
(1.00495 0.00625091 0)
(1.00529 0.00651306 0)
(1.00636 0.0072717 0)
(1.00667 0.00757666 0)
(1.00778 0.00812916 0)
(1.00814 0.00834029 0)
(1.00924 0.00868713 0)
(1.00953 0.00877995 0)
(1.01055 0.00896907 0)
(1.0108 0.00892912 0)
(1.01174 0.00900426 0)
(1.01195 0.00886204 0)
(1.01278 0.00887893 0)
(1.01293 0.00867161 0)
(1.01362 0.00865871 0)
(0.999637 9.75032e-05 0)
(1.0005 0.000139944 0)
(0.999523 -0.000102326 0)
(1.00035 0.00105377 0)
(1.00011 0.00156712 0)
(1.00097 0.0026652 0)
(1.00091 0.00317348 0)
(1.00219 0.00362303 0)
(1.00196 0.00365672 0)
(1.00302 0.00405267 0)
(1.00314 0.00394911 0)
(1.00405 0.00447032 0)
(1.0042 0.00456566 0)
(1.00513 0.00517554 0)
(1.00545 0.00539821 0)
(1.00644 0.00595269 0)
(1.00674 0.00619872 0)
(1.00773 0.00662258 0)
(1.00807 0.00678164 0)
(1.00906 0.00704756 0)
(1.00936 0.00709831 0)
(1.01026 0.00724733 0)
(1.0105 0.00719832 0)
(1.01131 0.0072616 0)
(1.01152 0.00713275 0)
(1.01224 0.00714393 0)
(1.01238 0.00696581 0)
(1.01296 0.00695043 0)
(0.999681 8.37914e-05 0)
(1.00044 0.000190012 0)
(0.999663 8.56111e-06 0)
(1.00038 0.0009174 0)
(1.00016 0.00133842 0)
(1.00104 0.00221018 0)
(1.00104 0.00260016 0)
(1.0022 0.00297588 0)
(1.00214 0.00295657 0)
(1.00311 0.00328161 0)
(1.00328 0.00318345 0)
(1.00417 0.00356316 0)
(1.00433 0.00362264 0)
(1.00519 0.0040811 0)
(1.00549 0.00423825 0)
(1.00641 0.00464599 0)
(1.00671 0.00480697 0)
(1.0076 0.00511971 0)
(1.00792 0.00520764 0)
(1.00881 0.00539725 0)
(1.00913 0.00539337 0)
(1.00993 0.00549504 0)
(1.01018 0.00542218 0)
(1.0109 0.00546904 0)
(1.01111 0.00534735 0)
(1.01174 0.00536277 0)
(1.01188 0.00521499 0)
(1.01237 0.00521875 0)
(0.999717 9.40196e-05 0)
(1.00037 0.000273608 0)
(0.999733 0.000205228 0)
(1.00038 0.000868216 0)
(1.00019 0.00119401 0)
(1.00103 0.00181792 0)
(1.00107 0.002075 0)
(1.00214 0.00234464 0)
(1.00223 0.0023129 0)
(1.00313 0.00253401 0)
(1.00331 0.00246689 0)
(1.00418 0.00271913 0)
(1.00436 0.00275875 0)
(1.00517 0.00307876 0)
(1.00544 0.0031852 0)
(1.00628 0.00346452 0)
(1.00656 0.00355826 0)
(1.00736 0.00376424 0)
(1.00766 0.00379615 0)
(1.00846 0.00389943 0)
(1.00877 0.00384461 0)
(1.00951 0.00386032 0)
(1.00978 0.00373657 0)
(1.01045 0.00369435 0)
(1.01069 0.0035238 0)
(1.01128 0.00344947 0)
(1.01146 0.00326108 0)
(1.01193 0.00318789 0)
(0.999747 8.97217e-05 0)
(1.00035 0.000201741 0)
(0.999758 0.000229664 0)
(1.0003 0.000602423 0)
(1.00011 0.0008428 0)
(1.00091 0.00118207 0)
(1.001 0.00136275 0)
(1.00199 0.00150172 0)
(1.00216 0.00149953 0)
(1.00304 0.00160017 0)
(1.00323 0.00158584 0)
(1.00407 0.00170767 0)
(1.00428 0.00175165 0)
(1.00504 0.00191632 0)
(1.00529 0.00199754 0)
(1.00606 0.00213865 0)
(1.00633 0.00220278 0)
(1.00703 0.00229801 0)
(1.00728 0.00231873 0)
(1.00794 0.00234961 0)
(1.00816 0.0023095 0)
(1.00875 0.00228145 0)