/*--------------------------------*- C++ -*----------------------------------*\
| =========                 |                                                 |
| \\      /  F ield         | OpenFOAM: The Open Source CFD Toolbox           |
|  \\    /   O peration     | Version:                                        |
|   \\  /    A nd           | Website:  www.openfoam.com                      |
|    \\/     M anipulation  |                                                 |
\*---------------------------------------------------------------------------*/
FoamFile
{
    version     2.0;
    format      ascii;
    class       surfaceScalarField;
    location    "94.5";
    object      phi;
}
// * * * * * * * * * * * * * * * * * * * * * * * * * * * * * * * * * * * * * //

dimensions      [0 3 -1 0 0 0 0];
oriented        oriented;


internalField   nonuniform List<scalar> 
2201
(
0.00145941
-0.000203392
-0.00125602
0.00164088
-0.000181462
0.00255032
-0.000909438
0.00215509
0.000395227
0.000335549
0.00181954
-0.00251259
0.00284814
-0.00684788
0.00433529
-0.0115422
0.00469428
-0.0149143
0.00337211
0.00263183
-0.0175461
0.000133043
0.000216596
-0.00055303
-0.00229579
0.00224737
-0.00732235
0.00411713
-0.0133059
0.00637879
-0.0185782
0.0070918
-0.0227084
0.00697841
-0.0255002
0.00712703
-0.0269961
0.00619014
-0.028565
0.00494109
0.00378807
-0.0297213
-0.0098923
0.00557814
0.00453076
-0.0161228
0.00847787
-0.0213589
0.00935322
-0.0245812
0.00960111
-0.027325
0.00983562
-0.0295188
0.00917216
-0.0306911
0.00829935
-0.0310871
0.00658611
-0.0313982
0.00525225
0.00388752
-0.0314977
-0.0211638
0.0112306
0.0155113
-0.0248965
0.0122105
-0.0278737
0.0123305
-0.0298812
0.0116086
-0.0309901
0.0109445
-0.0317209
0.0099029
-0.0319473
0.00852581
-0.0320846
0.0067234
-0.032076
0.00524364
0.00373399
-0.0319225
-0.0271692
0.0145086
0.0238913
-0.0293588
0.0144002
-0.0307501
0.0137218
-0.0317027
0.0125612
-0.0321614
0.0114032
-0.0323271
0.0100686
-0.0322667
0.00846542
-0.0323069
0.00676367
-0.0322211
0.00515783
0.00355463
-0.0320418
-0.0300601
0.0161804
0.0283882
-0.0312216
0.0155617
-0.0317826
0.0142828
-0.0322313
0.0130099
-0.0324736
0.0116455
-0.0325028
0.0100978
-0.0324656
0.00842819
-0.0324533
0.00675136
-0.032339
0.00504359
0.00338221
-0.0321666
-0.0313705
0.0170923
0.0304586
-0.0318922
0.0160834
-0.032099
0.0144896
-0.032437
0.0133479
-0.032608
0.0118164
-0.0326406
0.0101304
-0.0326931
0.00848072
-0.0326582
0.00671642
-0.0325344
0.00491985
0.00321507
-0.0323673
-0.031932
0.0176581
0.0313662
-0.0320911
0.0162425
-0.0322168
0.0146153
-0.0325794
0.0137105
-0.0327192
0.0119562
-0.0327777
0.0101889
-0.0329267
0.00862977
-0.0328681
0.00665782
-0.0327567
0.00480848
0.00304989
-0.0325916
-0.0320969
0.0179834
0.0317716
-0.0320985
0.0162441
-0.0323293
0.014846
-0.0326977
0.0140788
-0.032847
0.0121055
-0.0329585
0.0103004
-0.0331734
0.00884476
-0.0331215
0.00660582
-0.0330332
0.00472026
0.00289169
-0.032875
-0.0320344
-0.032064
0.0162737
-0.0324394
0.0152214
-0.0328187
0.0144582
-0.0330352
0.012322
-0.0332098
0.010475
-0.033468
0.00910289
-0.0334528
0.00659069
-0.0333791
0.00464648
0.00276202
-0.0332494
-0.0320049
0.0163667
-0.0325648
0.0157813
-0.0330222
0.0149156
-0.033232
0.0125318
-0.0335762
0.0108192
-0.0338033
0.00933001
-0.0338396
0.00662699
-0.0338229
0.00462976
0.00259027
-0.0336512
-0.0319717
-0.0327516
0.0165612
-0.0331636
0.0153276
-0.0334878
0.0128561
-0.0339518
0.0112832
-0.0341368
0.00951506
-0.0342706
0.00676076
-0.0342603
0.00461946
0.0024126
-0.0340826
-0.0327258
0.0171896
-0.0334055
0.0160072
-0.0337336
0.0131842
-0.0342966
0.0118462
-0.0345578
0.0097763
-0.0346671
0.00687005
-0.0347774
0.00472972
0.00216127
-0.0345261
-0.0328822
-0.0335337
0.0166587
-0.034035
0.0136855
-0.0346466
0.0124578
-0.0350386
0.0101682
-0.0351198
0.00695123
-0.0353757
0.00498564
0.00184095
-0.0350554
-0.0335885
0.0171608
-0.034493
0.01459
-0.0350452
0.0130101
-0.0355622
0.0106852
-0.0357466
0.00713564
-0.0359967
0.00523572
0.00159832
-0.0357541
-0.0339223
0.0180358
-0.0348971
0.0155648
-0.0356102
0.0137231
-0.0360684
0.0111435
-0.0365017
0.00756893
-0.0366031
0.00533714
0.00152949
-0.0365343
-0.0343126
-0.0353274
0.0165797
-0.0362011
0.0145968
-0.0366192
0.0115616
-0.0372093
0.00815899
-0.0372345
0.00536232
0.00158924
-0.0372942
-0.0358058
0.0177517
-0.0367505
0.0155415
-0.037209
0.0120202
-0.0378564
0.00880638
-0.0379592
0.00546506
0.00163864
-0.0380086
-0.0362798
0.0188499
-0.0372936
0.0165553
-0.0378954
0.012622
-0.0384803
0.00939126
-0.038762
0.00574675
0.00164771
-0.0387711
-0.0366431
-0.0378313
0.0177435
-0.0385537
0.0133444
-0.0391474
0.00998492
-0.0395394
0.00613878
0.00182352
-0.0397152
0.0112525
0.000130405
0.0103077
0.00094482
0.00858839
0.00171928
0.00623452
0.00235388
0.00365929
0.00257522
0.00154522
0.00211407
0.00045983
0.00108539
0.000354598
0.000105231
0.000813716
-0.000459117
-0.000442308
0.0117413
-0.000290895
0.0112978
0.00138833
0.0100731
0.00294405
0.00813092
0.00429602
0.00580264
0.00490351
0.00343715
0.00447956
0.00157457
0.00294797
0.000577212
0.00110258
0.000423798
-0.000305704
-0.00057154
0.00820328
0.00770667
0.00188494
0.00671121
0.00393951
0.00526162
0.00574561
0.0035379
0.00662723
0.00167218
0.00634528
7.98436e-05
0.00454031
-0.000742722
0.00192515
-0.00165399
0.000605564
0.00230523
0.00233811
0.00153909
0.000470843
-0.000938652
-0.0022265
0.00763314
-0.00309833
0.00541214
-0.00468558
0.0035124
-0.00911374
0.00503373
0.00870279
-0.00673913
-0.00814591
0.00681891
-0.0125561
0.00792256
-0.0189414
0.0114191
0.0136527
-0.0156793
-0.0213827
0.013626
-0.0259377
0.015974
0.0161032
-0.0276975
-0.0296017
0.0178783
0.0169601
-0.0310696
0.0172567
0.00158401
0.0517285
-0.051489
0.0015516
0.0540335
-0.0540011
0.00162567
0.0568627
-0.0569368
0.00162232
0.0599525
-0.0599491
0.00163589
0.0634228
-0.0634364
0.0017261
0.0673202
-0.0674104
0.00191149
0.0715777
-0.0717631
0.00206977
0.0761959
-0.0763542
0.00212847
0.0811094
-0.0811681
0.00210887
0.0863172
-0.0862976
0.00208645
0.0918803
-0.0918579
0.00207537
0.0979604
-0.0979494
0.00206305
0.104644
-0.104632
0.00203527
0.111873
-0.111845
0.00197361
0.11962
-0.119558
0.00186645
0.127898
-0.127791
0.00174905
0.136621
-0.136504
0.00162532
0.145848
-0.145724
0.00149582
0.155698
-0.155569
0.00136978
0.16624
-0.166114
0.00124437
0.177536
-0.17741
0.00111701
0.189632
-0.189504
0.000986858
0.202575
-0.202445
0.000851297
0.216426
-0.216291
0.000714379
0.231246
-0.231109
0.000576034
0.247101
-0.246963
0.000433958
0.264077
-0.263935
0.000292944
0.282272
-0.282131
0.000151398
0.301776
-0.301635
0.322668
-0.322517
0.00585599
0.0520113
0.0056224
0.0542671
0.0055872
0.0568979
0.00565032
0.0598894
0.00570334
0.0633698
0.00571143
0.0673121
0.00567697
0.0716121
0.00565054
0.0762224
0.00561814
0.0811418
0.00558054
0.0863548
0.00553403
0.0919268
0.00546326
0.0980312
0.00537486
0.104732
0.00530701
0.111941
0.00522184
0.119705
0.00509064
0.12803
0.00491609
0.136796
0.00467926
0.146085
0.0043994
0.155978
0.0040989
0.16654
0.00377726
0.177857
0.00343908
0.18997
0.00308469
0.202929
0.0027094
0.216801
0.00231743
0.231637
0.00189996
0.247518
0.00145965
0.264518
0.00100142
0.28273
0.000515365
0.302262
0.323184
0.0101908
0.0518054
0.0103279
0.0541299
0.0104138
0.0568121
0.010459
0.0598442
0.0105641
0.0632646
0.0107752
0.0671011
0.0109668
0.0714205
0.0109889
0.0762003
0.0108302
0.0813005
0.0105867
0.0865983
0.0103208
0.0921927
0.0100358
0.0983162
0.0097402
0.105028
0.00944813
0.112233
0.00909626
0.120057
0.00870309
0.128423
0.00830332
0.137196
0.0078515
0.146536
0.00737042
0.156459
0.00686823
0.167042
0.00633589
0.17839
0.0057773
0.190529
0.00518351
0.203523
0.00455803
0.217427
0.00390294
0.232293
0.0032098
0.248212
0.00247563
0.265252
0.00170176
0.283504
0.00087705
0.303087
0.324061
0.0134443
0.0517054
0.0136765
0.0538978
0.0139563
0.0565323
0.0140523
0.0597481
0.0139956
0.0633213
0.01393
0.0671667
0.0139307
0.0714198
0.0139606
0.0761704
0.013946
0.0813151
0.0138355
0.0867088
0.0136088
0.0924194
0.0132661
0.0986589
0.0129193
0.105375
0.0126119
0.11254
0.0122353
0.120434
0.0118371
0.128821
0.0113872
0.137646
0.0108244
0.147099
0.0102098
0.157074
0.00954011
0.167712
0.00881753
0.179112
0.00804933
0.191297
0.00723382
0.204339
0.00637568
0.218285
0.00546957
0.233199
0.00450367
0.249177
0.00347792
0.266278
0.0023902
0.284592
0.0012329
0.304244
0.325294
0.0181838
0.0184101
0.0186943
0.0190198
0.019306
0.0195023
0.0195065
0.0193062
0.019001
0.0186522
0.0182174
0.0928542
0.0176852
0.0991911
0.0171791
0.105881
0.0166133
0.113106
0.0159327
0.121114
0.0153107
0.129443
0.0146338
0.138323
0.013862
0.147871
0.0130565
0.157879
0.0121872
0.168581
0.0112662
0.180033
0.010287
0.192276
0.00925156
0.205374
0.00815586
0.219381
0.00699764
0.234357
0.00576452
0.250411
0.00445616
0.267586
0.00306423
0.285984
0.00158114
0.305727
0.326875
0.0212811
0.0207179
0.0202103
0.0195809
0.018895
0.0182874
0.0175073
0.0166425
0.0157233
0.0147007
0.0136065
0.0124412
0.0112014
0.00988668
0.0084877
0.00699446
0.00540891
0.00371971
0.0019194
0.0303584
0.0331878
-0.0289739
-0.0345722
0.0321027
0.0297445
-0.0314888
0.0341781
0.0267951
-0.0288705
0.0354777
0.0236488
-0.0249483
0.0368541
0.0194768
-0.0208532
0.0381855
0.0161682
-0.0174996
0.0387348
0.0122998
-0.012849
0.0393725
0.00808799
-0.00872572
0.0396768
0.00422457
-0.00452892
-0.000137141
9.87495e-05
0.0297034
0.0313114
-0.027827
0.0313455
0.0281024
0.0332874
0.0248531
0.0348209
0.0221152
0.0357636
0.0185341
0.0370286
0.0149031
0.0379235
0.0114049
0.0384042
0.00760724
0.03883
0.00379883
-7.82347e-05
0.0289822
0.0292508
-0.0269216
0.0306728
0.0264117
0.0323003
0.0232256
0.0340248
0.0203908
0.0351611
0.0173979
0.0360736
0.0139906
0.0369866
0.0104918
0.0375473
0.00704657
0.0379276
0.00341852
-0.000159164
0.0282907
0.027184
-0.0262239
0.0301235
0.024579
0.031521
0.0218281
0.0330833
0.0188285
0.0343855
0.0160957
0.0354433
0.0129328
0.0361751
0.00976005
0.0367986
0.00642306
0.0371055
0.00311167
-0.000347936
0.0275613
0.0252905
-0.0256678
0.0294769
0.0226634
0.0309582
0.0203469
0.0323415
0.0174451
0.0335592
0.014878
0.0346295
0.0118624
0.0354377
0.00895186
0.0360307
0.00583008
0.0364212
0.0027212
-0.000461058
0.0270275
0.0235063
-0.0252434
0.0287407
0.0209501
0.0303257
0.0187619
0.0316742
0.0160967
0.0328881
0.0136642
0.0338749
0.0108756
0.0346891
0.00813758
0.0352275
0.0052917
0.035715
0.00223371
-0.000500144
0.0266448
0.0215812
-0.0247197
0.0282166
0.0193783
0.029718
0.0172605
0.031032
0.0147827
0.0322015
0.0124947
0.0331952
0.00988182
0.0339963
0.00733653
0.0345245
0.0047635
0.0350215
0.00173668
-0.000534
0.0261454
0.0196179
-0.024182
0.0278047
0.017719
0.029246
0.0158191
0.0305373
0.0134914
0.0316463
0.0113857
0.0326089
0.00891925
0.0333882
0.00655723
0.0339485
0.00420312
0.0343887
0.00129656
-0.000671403
0.0256178
0.0178063
-0.0238062
0.0273211
0.0160157
0.0287894
0.0143508
0.0300741
0.0122067
0.0311811
0.0102787
0.032124
0.00797632
0.0328779
0.00580341
0.033474
0.00360693
0.0338455
0.000925056
-0.000908503
0.0252269
0.0161345
-0.0235551
0.0268667
0.0143759
0.0283214
0.0128961
0.0296085
0.0109196
0.03071
0.00917719
0.0316642
0.00702215
0.0323988
0.00506877
0.0330251
0.00298063
0.033364
0.000586183
-0.00119564
0.0249897
0.0144594
-0.0233147
0.0265148
0.0128509
0.0279492
0.0114617
0.0291928
0.00967605
0.030278
0.00809194
0.0312216
0.0060786
0.0319345
0.00435582
0.0325909
0.00232428
0.0328945
0.000282513
-0.0015505
0.0248195
0.0127237
-0.0230838
0.0262907
0.0113797
0.0277123
0.0100402
0.0289084
0.00847995
0.0299844
0.00701586
0.0308719
0.00519113
0.0315946
0.00363314
0.0322008
0.00171809
0.0325455
-6.21824e-05
-0.00188005
0.0246375
0.0109915
-0.0229052
0.0261152
0.00990193
0.0275285
0.00862692
0.0287056
0.0073028
0.0297811
0.00594033
0.0306317
0.00434053
0.0313543
0.00291058
0.0319092
0.00116323
0.0322856
-0.000438605
-0.00218603
0.0245008
0.00931428
-0.0228237
0.0259949
0.00840786
0.0273872
0.0072346
0.0285673
0.00612271
0.0296354
0.00487227
0.0304738
0.00350217
0.0311925
0.00219184
0.0317097
0.00064598
0.0320984
-0.000827252
-0.00245493
0.0244623
0.00768589
-0.0228339
0.0259514
0.00691876
0.0273022
0.0058838
0.0284788
0.00494608
0.02952
0.00383108
0.0303583
0.00266392
0.0310656
0.00148454
0.0315469
0.000164618
0.0319428
-0.00122308
-0.00267878
0.0245598
0.0060682
-0.0229421
0.0260683
0.00541029
0.0273671
0.00458494
0.0285292
0.00378405
0.0295189
0.00284138
0.0303514
0.00183138
0.0310557
0.000780253
0.0314918
-0.000271537
0.0318754
-0.00160664
-0.00284513
0.0247168
0.00447272
-0.0231214
0.026277
0.00385015
0.0275704
0.00329152
0.0287201
0.00263436
0.0296483
0.00191318
0.0303582
0.00112143
0.0311255
1.29545e-05
0.0315399
-0.000685887
0.0318361
-0.00190282
-0.00293156
0.0249451
0.00289619
-0.0233685
0.0265122
0.00228301
0.0277971
0.00200666
0.0290071
0.00142433
0.030006
0.000914234
0.0306918
0.000435665
0.0310972
-0.000392482
0.031478
-0.00106666
0.0316154
-0.00204018
-0.00281386
0.0255136
0.00128852
-0.0239059
0.0270057
0.000790939
0.0282212
0.000791124
0.0293707
0.000274788
0.0301914
9.35196e-05
0.030895
-0.000267856
0.0311156
-0.000613101
0.0310418
-0.000992872
0.0305053
-0.00150368
-0.00202983
0.0210031
-0.0197146
0.021794
0.0225851
0.0228599
0.0229534
0.0226856
0.0220725
0.0210796
0.0195759
0.020954
0.0422207
0.0233481
0.0402239
-0.042618
0.0259126
0.0375658
-0.0401303
0.0351378
-0.0381992
0.0178458
0.041263
0.0204961
0.0395704
0.0229611
0.0377588
0.0255083
0.0350187
0.0328191
0.0120997
0.04097
0.0148393
0.0399849
0.0174735
0.0386289
0.0200744
0.0369694
0.0225353
0.0352979
0.0248381
0.0327159
0.0307356
0.00357557
0.0395278
0.0063743
0.0393725
0.00914949
0.0389631
0.011881
0.0382384
0.0145598
0.0373061
0.0171298
0.0360589
0.0196558
0.0344434
0.0220157
0.032938
0.0241563
0.0305753
0.028668
0.00356416
0.0367769
0.00630217
0.0366345
0.00901425
0.036251
0.0116787
0.0355739
0.0142908
0.0346941
0.016791
0.0335586
0.0192347
0.0319997
0.021541
0.0306318
0.0236086
0.0285077
0.0266088
0.00355144
0.0340813
0.00623268
0.0339532
0.00888369
0.0336
0.0114847
0.0329729
0.0140409
0.0321379
0.0164787
0.0311209
0.0188358
0.0296426
0.0210828
0.0283848
0.0231193
0.0264711
0.0244848
0.00353949
0.0314404
0.0061637
0.031329
0.00876147
0.0310023
0.0113033
0.0304311
0.0137978
0.0296434
0.016191
0.0287277
0.0184856
0.027348
0.0207138
0.0261566
0.0226539
0.024531
0.0224189
0.00353459
0.0288533
0.00610569
0.0287579
0.00864822
0.0284597
0.0111397
0.0279396
0.0135881
0.0271951
0.0159323
0.0263835
0.0181439
0.0251364
0.0204003
0.0239003
0.0223282
0.022603
0.0205651
0.00353774
0.0263155
0.00605928
0.0262364
0.00855665
0.0259624
0.0109915
0.0255047
0.0133867
0.0247998
0.0157269
0.0240432
0.0178788
0.0229845
0.0200545
0.0217245
0.0220604
0.0205972
0.0188193
0.00355009
0.0238226
0.00602588
0.0237606
0.00848072
0.0235075
0.0108871
0.0230984
0.0132179
0.0224691
0.0155165
0.0217445
0.0176799
0.0208212
0.0197797
0.0196247
0.0217684
0.0186084
0.0170326
0.00356776
0.0213676
0.00600805
0.0213203
0.00842169
0.0210939
0.0107945
0.0207256
0.0131015
0.020162
0.0153563
0.0194898
0.0174742
0.0187032
0.0195609
0.0175381
0.021517
0.0166524
0.0152349
0.00359364
0.018944
0.00600205
0.0189119
0.00838955
0.0187064
0.0107382
0.0183769
0.0129965
0.0179037
0.0152514
0.0172349
0.0173456
0.016609
0.0193479
0.0155358
0.021332
0.0146683
0.0134831
0.0036259
0.0165469
0.00601215
0.0165256
0.00836492
0.0163536
0.0107165
0.0160253
0.0129547
0.0156655
0.0151376
0.015052
0.0172905
0.0144562
0.019204
0.0136223
0.021183
0.0126893
0.0117609
0.00366672
0.0141653
0.00604725
0.0141451
0.00837188
0.014029
0.0106908
0.0137064
0.0129818
0.0133745
0.0151042
0.0129296
0.0172516
0.0123087
0.0191727
0.0117012
0.0210797
0.0107823
0.010017
0.00371218
0.0117997
0.00609576
0.0117615
0.00842655
0.0116982
0.010702
0.0114309
0.012981
0.0110955
0.0151631
0.0107475
0.0172554
0.0102164
0.0192498
0.00970674
0.0210668
0.00896532
0.00824984
0.00376901
0.00943474
0.00616938
0.00936114
0.00850229
0.00936529
0.0107971
0.00913604
0.0130182
0.00887447
0.0152295
0.0085362
0.017304
0.00814192
0.0193573
0.00765343
0.0211769
0.00714574
0.00648461
0.00382667
0.00706024
0.00626894
0.00691887
0.00862424
0.00700999
0.0109366
0.00682364
0.0131756
0.00663549
0.0153616
0.00635026
0.0174581
0.00604538
0.0194805
0.005631
0.021343
0.00528328
0.00470625
0.0038997
0.00467258
0.00636654
0.00445203
0.00875243
0.0046241
0.0111005
0.00447556
0.0133788
0.00435723
0.0155416
0.00418741
0.0177031
0.00388386
0.0196869
0.0036472
0.0215698
0.00340039
0.00290756
0.00406869
0.00217521
0.00655407
0.00196666
0.00902088
0.00215729
0.0114507
0.00204573
0.0138195
0.00198845
0.0160577
0.0019492
0.0182402
0.00170139
0.0202528
0.00163461
0.0221654
0.00148775
0.00116702
0.00361645
0.00558311
0.00774039
0.00978612
0.0117746
0.0137238
0.0154252
0.0170598
0.0185475
0.0387335
0.00592027
0.00664531
0.00720781
0.00774216
0.00512025
0.0474999
0.00500521
0.0511046
0.00465856
0.0549813
0.00418986
0.0591568
0.00371562
0.0636715
0.00328726
0.0684214
0.0029228
0.0733025
0.00260761
0.0783267
0.00236002
0.0835944
0.00220015
0.0893233
0.00210548
0.0956636
0.00202122
0.102578
0.00190138
0.10988
0.00174296
0.117448
0.0015614
0.125326
0.00137703
0.133624
0.00120506
0.142505
0.00105498
0.152095
0.000925633
0.16247
0.000811218
0.173644
0.000708146
0.185626
0.000613098
0.198435
0.000522918
0.212115
0.000436141
0.226722
0.000352974
0.242315
0.000275497
0.258977
0.00019566
0.276829
0.000101105
0.295961
5.44684e-05
0.316625
0.338562
0.0064286
0.0488135
0.00555423
0.051979
0.00482945
0.0557061
0.00430974
0.0596765
0.00389615
0.064085
0.00352259
0.068795
0.00315635
0.0736688
0.00280158
0.0786815
0.00247869
0.0839173
0.00222648
0.0895756
0.00205966
0.0958304
0.00193685
0.102701
0.00181968
0.109998
0.00167889
0.117589
0.0015177
0.125487
0.00134463
0.133797
0.00117316
0.142676
0.00101914
0.15225
0.000887366
0.162602
0.000774062
0.173757
0.00067236
0.185727
0.00057892
0.198529
0.000491984
0.212202
0.000410515
0.226803
0.000332492
0.242393
0.000260204
0.259049
0.000184078
0.276905
9.48992e-05
0.29605
4.98311e-05
0.316671
0.338612
-0.0344022
0.0486435
-0.0346232
0.0522
-0.0347455
0.0558285
-0.0348805
0.0598115
-0.0349318
0.0641364
-0.0348247
0.0686879
-0.0345319
0.073376
-0.0341054
0.078255
-0.0335962
0.0834081
-0.0330224
0.0890017
-0.0323853
0.0951933
-0.0316528
0.101969
-0.0308002
0.109145
-0.0298324
0.116621
-0.0287722
0.124426
-0.027648
0.132672
-0.0264677
0.141496
-0.0252189
0.151001
-0.0238796
0.161262
-0.0224302
0.172308
-0.0208572
0.184154
-0.0191526
0.196824
-0.0173121
0.210361
-0.0153307
0.224822
-0.0132034
0.240266
-0.0109213
0.256767
-0.00846798
0.274452
-0.00586604
0.293448
-0.00301783
0.313822
0.335594
-0.0318914
0.0490461
-0.0320978
0.0524064
-0.0322547
0.0559853
-0.0323177
0.0598745
-0.0322569
0.0640756
-0.0320255
0.0684565
-0.0316812
0.0730316
-0.0312652
0.077839
-0.0307818
0.0829247
-0.0302437
0.0884636
-0.0296381
0.0945878
-0.0289338
0.101264
-0.0281142
0.108325
-0.0272057
0.115713
-0.0262346
0.123455
-0.0252176
0.131656
-0.0241508
0.140429
-0.0230118
0.149862
-0.0217819
0.160032
-0.0204486
0.170975
-0.0190047
0.18271
-0.0174439
0.195263
-0.015761
0.208678
-0.01395
0.223011
-0.012008
0.238324
-0.00992923
0.254689
-0.00770053
0.272223
-0.00532422
0.291072
-0.00274773
0.311246
0.332847
-0.0294293
0.0496049
-0.0294449
0.0524221
-0.0292874
0.0558278
-0.0292043
0.0597914
-0.0290871
0.0639585
-0.0289064
0.0682757
-0.0286465
0.0727718
-0.0282835
0.077476
-0.0278469
0.0824882
-0.0273473
0.087964
-0.026774
0.0940145
-0.0260997
0.10059
-0.0253293
0.107555
-0.0244842
0.114868
-0.0235811
0.122552
-0.0226371
0.130712
-0.021647
0.139439
-0.0205991
0.148814
-0.0194796
0.158913
-0.0182772
0.169772
-0.0169807
0.181414
-0.0155821
0.193865
-0.0140764
0.207172
-0.0124585
0.221393
-0.0107243
0.23659
-0.00886843
0.252833
-0.00687987
0.270235
-0.00475172
0.288944
-0.00245815
0.308952
0.330389
-0.0247443
0.0494009
-0.0248992
0.0525769
-0.0253127
0.0562413
-0.0254983
0.059977
-0.0254124
0.0638726
-0.0251839
0.0680472
-0.0248881
0.072476
-0.0245704
0.0771582
-0.0242173
0.0821351
-0.0238026
0.0875493
-0.0233037
0.0935155
-0.0227048
0.0999911
-0.0220208
0.106871
-0.0212809
0.114128
-0.0205129
0.121784
-0.0197242
0.129923
-0.0188998
0.138614
-0.0180128
0.147927
-0.0170452
0.157945
-0.0159909
0.168718
-0.0148507
0.180274
-0.0136235
0.192638
-0.0123048
0.205853
-0.0108885
0.219976
-0.00937079
0.235072
-0.00774885
0.251211
-0.00601289
0.268499
-0.00415051
0.287082
-0.00215096
0.306953
0.328238
-0.0216223
0.0501701
-0.0221111
0.0530657
-0.0221478
0.0562779
-0.0219958
0.059825
-0.0218522
0.063729
-0.0216979
0.067893
-0.0214826
0.0722607
-0.0211744
0.07685
-0.0207951
0.0817558
-0.0203579
0.0871122
-0.0198518
0.0930094
-0.0192687
0.099408
-0.018635
0.106237
-0.0179816
0.113474
-0.0173209
0.121124
-0.0166537
0.129256
-0.0159576
0.137918
-0.0152135
0.147183
-0.014407
0.157139
-0.0135298
0.167841
-0.0125756
0.179319
-0.0115405
0.191603
-0.0104247
0.204738
-0.00922854
0.21878
-0.0079466
0.23379
-0.00657474
0.249839
-0.00510393
0.267028
-0.00352111
0.285499
-0.00182607
0.305258
0.326411
-0.0173651
0.0500356
-0.0170068
0.0527075
-0.0170494
0.0563204
-0.0172077
0.0599834
-0.0172485
0.0637698
-0.0171733
0.0678178
-0.0170401
0.0721275
-0.0168958
0.0767056
-0.0167187
0.0815788
-0.0164595
0.0868529
-0.0160974
0.0926474
-0.0156393
0.0989499
-0.015122
0.10572
-0.014574
0.112926
-0.0140241
0.120574
-0.0134786
0.12871
-0.012929
0.137369
-0.0123503
0.146604
-0.0117183
0.156507
-0.0110197
0.167142
-0.0102516
0.178551
-0.00941326
0.190764
-0.00850383
0.203828
-0.00752373
0.2178
-0.00647589
0.232742
-0.00535853
0.248721
-0.00416158
0.265831
-0.00287021
0.284207
-0.00148874
0.303876
0.324923
-0.0131216
0.0503082
-0.0137778
0.0533636
-0.014152
0.0566946
-0.0141114
0.0599428
-0.0139672
0.0636256
-0.0138099
0.0676604
-0.0136141
0.0719317
-0.0133653
0.0764567
-0.013069
0.0812826
-0.0127427
0.0865266
-0.0123698
0.0922745
-0.011947
0.0985271
-0.0114974
0.10527
-0.0110556
0.112485
-0.0106347
0.120153
-0.0102289
0.128304
-0.00981362
0.136953
-0.00937165
0.146162
-0.00889381
0.156029
-0.0083746
0.166623
-0.00780297
0.17798
-0.00717519
0.190136
-0.00649159
0.203145
-0.00575056
0.217059
-0.00495461
0.231946
-0.00410391
0.247871
-0.00318977
0.264917
-0.00219917
0.283217
-0.00113977
0.302817
0.323783
-0.00923018
0.0508127
-0.00927308
0.0534065
-0.0091069
0.0565284
-0.00898675
0.0598226
-0.00891499
0.0635538
-0.00885818
0.0676036
-0.00885541
0.0719289
-0.00888533
0.0764867
-0.00889126
0.0812885
-0.00880697
0.0864423
-0.00861301
0.0920805
-0.00832961
0.0982437
-0.00800407
0.104945
-0.00766204
0.112142
-0.00732521
0.119816
-0.00700393
0.127983
-0.00670087
0.13665
-0.00639664
0.145858
-0.00607395
0.155706
-0.00572214
0.166271
-0.00533683
0.177594
-0.00491334
0.189713
-0.00444903
0.20268
-0.00394414
0.216554
-0.00340025
0.231403
-0.00281928
0.24729
-0.00219512
0.264293
-0.00151448
0.282536
-0.000784321
0.302087
0.322999
-0.00473271
0.0510165
-0.0049064
0.0535802
-0.00512468
0.0567467
-0.00533797
0.0600359
-0.00539047
0.0636064
-0.00533517
0.0675483
-0.00514882
0.0717426
-0.00493374
0.0762716
-0.00473797
0.0810927
-0.00457862
0.086283
-0.00440436
0.0919062
-0.00420366
0.098043
-0.0039965
0.104738
-0.00381006
0.111956
-0.00365455
0.119661
-0.00353344
0.127862
-0.00341654
0.136533
-0.00328383
0.145725
-0.00313397
0.155556
-0.00296553
0.166103
-0.00277658
0.177405
-0.00256783
0.189504
-0.00233869
0.202451
-0.00208757
0.216303
-0.00181155
0.231127
-0.00150991
0.246988
-0.00118215
0.263965
-0.000817725
0.282172
-0.000422641
0.301692
0.322576
-0.000373721
-0.000794592
-0.000984701
-0.000897897
-0.000727919
-0.000590011
-0.000610499
-0.000693125
-0.000768499
-0.000783164
-0.000734804
-0.000641118
-0.000535232
-0.000424108
-0.000322002
-0.000251273
-0.000221943
-0.000220701
-0.000233195
-0.000243806
-0.000248756
-0.000248872
-0.000242562
-0.000229914
-0.000211923
-0.000186369
-0.000157011
-0.000116205
-5.91059e-05
)
;

boundaryField
{
    outlet
    {
        type            calculated;
        value           nonuniform 0();
    }
    upperWall
    {
        type            symmetryPlane;
        value           nonuniform 0();
    }
    lowerWall
    {
        type            symmetryPlane;
        value           uniform 0;
    }
    inlet
    {
        type            calculated;
        value           nonuniform 0();
    }
    cylinder
    {
        type            calculated;
        value           uniform 0;
    }
    frontAndBack
    {
        type            empty;
        value           nonuniform 0();
    }
    procBoundary1to0
    {
        type            processor;
        value           nonuniform List<scalar> 
45
(
-0.0183101
-0.0439602
-0.0448646
-0.0437757
-0.0151486
-0.0427245
-0.0423362
-0.0421712
-0.00929395
-0.0417383
-0.0387099
-0.0432734
-0.00594385
-0.0406928
-0.00598994
-0.0466999
-0.0509896
-0.0546347
-0.0586881
-0.0631972
-0.067993
-0.0729381
-0.0780115
-0.0833469
-0.0891635
-0.0955689
-0.102494
-0.109761
-0.11729
-0.125144
-0.133439
-0.142333
-0.151945
-0.162341
-0.17353
-0.185523
-0.19834
-0.212024
-0.226635
-0.242232
-0.2589
-0.276749
-0.295867
-0.316579
-0.338508
)
;
    }
    procBoundary1to2
    {
        type            processor;
        value           nonuniform List<scalar> 
63
(
0.0181522
0.0318656
0.0319118
0.0316673
0.0166711
0.0320974
0.0319073
0.0181645
0.0330864
0.0330474
0.0332345
0.0191138
0.0346338
0.0351816
0.035425
0.020068
-0.000354021
-0.00300003
0.00254686
0.00473853
0.00681386
0.00803672
0.00627738
0.00809489
0.0120447
0.0104535
0.0236464
0.0176771
0.0309603
0.0179875
0.0314795
0.0175488
0.0512652
0.0536715
0.0562481
0.0594226
0.0630351
0.0669704
0.0714155
0.0763707
0.0816202
0.0870577
-0.0217026
0.0932757
0.0997543
0.106389
0.113735
0.1218
0.130051
0.139103
0.148736
0.158799
0.169604
0.181127
0.193441
0.206614
0.220695
0.235756
0.251904
0.269172
0.287673
0.307528
0.328794
)
;
    }
    procBoundary1to5
    {
        type            processor;
        value           nonuniform List<scalar> 
20
(
-0.0113829
-0.01132
-0.00814015
-0.000767138
-0.000813298
-0.000855757
-0.000898598
-0.000947543
-0.000999944
-0.00105718
-0.00111278
-0.00116996
-0.00122879
-0.00128514
-0.00134664
-0.00140402
-0.00145217
-0.00151205
-0.00157132
-0.00144124
)
;
    }
}


// ************************************************************************* //
