/*--------------------------------*- C++ -*----------------------------------*\
| =========                 |                                                 |
| \\      /  F ield         | OpenFOAM: The Open Source CFD Toolbox           |
|  \\    /   O peration     | Version:                                        |
|   \\  /    A nd           | Website:  www.openfoam.com                      |
|    \\/     M anipulation  |                                                 |
\*---------------------------------------------------------------------------*/
FoamFile
{
    version     2.0;
    format      ascii;
    class       surfaceScalarField;
    location    "69";
    object      phi;
}
// * * * * * * * * * * * * * * * * * * * * * * * * * * * * * * * * * * * * * //

dimensions      [0 3 -1 0 0 0 0];
oriented        oriented;


internalField   nonuniform List<scalar> 
2213
(
-0.00296955
-0.00220641
0.00517596
-0.00553235
-0.000745542
0.00330834
-0.00726078
0.00281362
-0.00108519
-0.00853041
0.00549067
-0.00422104
-0.00896741
0.00599264
-0.00555564
-0.00789529
0.00386428
-0.0049364
-0.00418595
-0.00196732
-0.00174201
0.00152649
-0.00805258
0.00234013
0.00879215
-0.0138903
0.0066246
-0.018566
-0.00169634
-0.000510068
-0.00322834
0.000786456
-0.00381358
0.00339885
-0.00319462
0.00487172
-0.00196725
0.00476527
0.00126203
0.000634999
0.00681255
-0.00751785
0.013654
-0.0148941
0.0205403
-0.0207765
0.0263633
-0.0243891
0.0305619
-0.0259636
-0.0263585
-0.00046763
-4.24378e-05
-0.000845666
0.00116449
0.000126828
0.00242636
0.00188349
0.00311505
0.0044184
0.00223036
0.00984765
-0.00479426
0.0163618
-0.014032
0.0225118
-0.0210441
0.0267855
-0.0250502
0.0289851
-0.0265887
0.0298658
-0.0268442
0.0303611
-0.0268539
0.0313514
-0.0271795
-0.0280598
0.000112271
-0.000154709
0.000409536
0.000867227
0.00138705
0.00144884
0.00321405
0.00128805
0.00853994
-0.00309552
0.0160062
-0.0122606
0.0220353
-0.0200611
0.0255101
-0.0245188
0.0267189
-0.026259
0.0269658
-0.0268356
0.0274629
-0.0273414
0.0286704
-0.0280613
0.0302864
-0.0287955
0.0315739
-0.0293473
0.0324826
-0.0300234
0.0332869
-0.0307898
-0.0318306
-9.07312e-05
-6.39779e-05
-0.000193744
0.00097024
0.000434071
0.000821029
0.00506413
-0.003342
0.0134503
-0.0114817
0.0200195
-0.0188298
0.0232488
-0.0232904
0.0241171
-0.0253871
0.0243121
-0.0264541
0.0248232
-0.0273466
0.0256082
-0.0281264
0.0262225
-0.0286756
0.0266436
-0.0292166
0.0274201
-0.0301238
0.0285378
-0.0311411
0.0298397
-0.0320918
0.0311619
-0.0331529
0.0321909
-0.0342334
0.03318
-0.0354343
-0.036661
-0.000461916
0.000397938
-0.00107527
0.0015836
0.00228817
-0.00254242
0.0101958
-0.0112496
0.016875
-0.0181608
0.0201742
-0.022129
0.0211308
-0.024247
0.0214339
-0.0256903
0.0218188
-0.0268389
0.0221601
-0.0276879
0.0224512
-0.0284175
0.0229583
-0.0291827
0.0238452
-0.0301035
0.0247361
-0.0310147
0.0254563
-0.0318612
0.0261169
-0.0327524
0.0267185
-0.0337544
0.0275017
-0.0350166
0.0283581
-0.0362907
-0.0373984
0.0290955
-0.000562897
0.000960834
0.000654657
0.000366044
0.0072797
-0.00916746
0.0131596
-0.0171295
0.0163628
-0.021364
0.0177173
-0.0234835
0.0184075
-0.0249373
0.0188244
-0.0261072
0.0190478
-0.0270623
0.0193344
-0.0279745
0.0197349
-0.028818
0.0201558
-0.0296036
0.0205117
-0.0304594
0.0208879
-0.0313909
0.0213293
-0.0323026
0.0218768
-0.0332999
0.0226429
-0.0345206
0.0233145
-0.0356882
0.0238045
-0.0367807
-0.0378986
0.0243047
-0.00100298
0.00196382
0.00355046
-0.0041874
0.00957321
-0.0151902
0.0128314
-0.0203877
0.01443
-0.0229626
0.0153691
-0.0244226
0.0158517
-0.0254198
0.0160461
-0.0263017
0.0162181
-0.0272343
0.0163552
-0.0281115
0.016498
-0.0289608
0.0167338
-0.0298394
0.0170751
-0.0308007
0.0174428
-0.0317586
0.0178017
-0.0326616
0.0181999
-0.033698
0.0184686
-0.0347894
0.0187145
-0.035934
0.0190689
-0.0371351
-0.0382203
0.0193906
0.000546781
0.00141704
0.00641828
-0.0100589
0.00947034
-0.0182423
0.0114001
-0.0223174
0.0124518
-0.0240143
0.0128864
-0.0248572
0.0130819
-0.0256153
0.0132302
-0.02645
0.0133412
-0.0273453
0.0134582
-0.0282286
0.013543
-0.0290455
0.0136398
-0.0299362
0.0137489
-0.0309098
0.0137883
-0.031798
0.013855
-0.0327283
0.0139714
-0.0338144
0.0142085
-0.0350265
0.0143885
-0.036114
0.0144172
-0.0371638
-0.0383596
0.0145565
0.00171341
-0.000296373
0.00660102
-0.0149465
0.00924571
-0.020887
0.010097
-0.0231687
0.0102986
-0.0242159
0.0104153
-0.0249739
0.0105206
-0.0257206
0.0105695
-0.0264989
0.0105345
-0.0273102
0.0104147
-0.0281088
0.0103366
-0.0289674
0.0102875
-0.0298871
0.0102055
-0.0308279
0.010137
-0.0317294
0.0100631
-0.0326544
0.0100329
-0.0337843
0.00993955
-0.0349331
0.00983055
-0.036005
0.0097637
-0.0370969
0.00965691
-0.0382528
0.00158346
-0.0141572
0.0023849
-0.0184926
-0.0167276
0.000909215
-0.0150664
0.000887919
-0.0184713
0.000498168
-0.0163379
-0.0147203
0.000321138
-0.0153875
-0.000489451
-0.0176607
-0.00156262
-0.0152647
-0.0139032
-0.000340165
-0.0150474
-0.00168415
-0.0163167
-0.00346653
-0.0134823
-0.0123263
-0.00108095
-0.0139664
-0.00295084
-0.0144468
-0.0053263
-0.0111069
-0.00990085
-0.00142535
-0.0125411
-0.00370638
-0.0121658
-0.00651122
-0.00830203
-0.00951243
-0.00689964
-0.00646009
-0.00156951
-0.0109715
-0.00383415
-0.00990117
-0.00672774
-0.00540845
-0.0102818
-0.00334558
-0.0136248
-0.00311712
-0.00208297
-0.00184421
-0.00912733
-0.00414225
-0.00760313
-0.00679699
-0.00275371
-0.00990208
-0.000240495
-0.0128574
-0.000161838
-0.0149437
3.36102e-06
0.000514285
-0.0016218
-0.00750553
-0.00351595
-0.00570898
-0.00506416
-0.00120551
-0.00720258
0.00189793
-0.0101095
0.00274509
-0.0131707
0.00306459
-0.0151955
0.00253905
0.000915473
-0.00232956
-0.0047302
-0.0070209
-0.009344
-0.0121546
-0.0140264
-0.0132293
-0.00997372
0.0510543
0.00871295
-0.0501103
0.0518804
0.0137304
0.05278
0.018491
0.0537708
0.0233139
0.028202
0.0541392
0.0080766
-0.0535028
0.0552032
0.0126664
0.0559372
0.0177569
0.0571389
0.0221122
0.0272987
0.0573938
0.00763096
-0.0569481
0.058504
0.0115561
0.0592098
0.0170511
0.0603709
0.0209511
0.0261637
0.0612546
0.00717886
-0.0608024
0.0621406
0.0106701
0.0628695
0.0163222
0.0637902
0.0200304
0.025088
0.0654041
0.00664283
-0.0648681
0.0660532
0.010021
0.0667405
0.0156349
0.0674398
0.0193312
0.0682726
0.0242551
0.0287186
0.0697898
0.00604742
-0.0691944
0.0702796
0.00953118
0.0709622
0.0149523
0.0716246
0.0186688
0.0725046
0.0233752
0.0275601
0.074223
0.00542421
-0.0735998
0.0747125
0.00904168
0.0754841
0.0141807
0.0762309
0.017922
0.0771582
0.0224478
0.0265157
0.0787822
0.00479497
-0.078153
0.0792984
0.0085255
0.0800624
0.0134167
0.0807621
0.0172223
0.081523
0.0216869
0.0257166
0.0835217
0.00424156
-0.0829683
0.0840202
0.00802697
0.0846821
0.0127549
0.0853293
0.0165751
0.0860856
0.0209306
0.0247788
0.0885888
0.00381753
-0.0881647
0.0890403
0.00757542
0.0896473
0.0121479
0.0903783
0.0158441
0.0912959
0.020013
0.0237363
0.094191
0.00345943
-0.0938329
0.0946055
0.00716099
0.0951835
0.0115699
0.0958814
0.0151462
0.0966801
0.0192143
0.0228457
0.100258
0.0031248
-0.099923
0.100657
0.00676114
0.10118
0.0110475
0.101768
0.0145585
0.10246
0.0185216
0.0219908
0.106707
0.00282774
-0.10641
0.107089
0.00637961
0.1076
0.0105368
0.108199
0.0139596
0.108949
0.017771
0.0211246
0.113626
0.00257394
-0.113373
0.114001
0.00600503
0.114525
0.010013
0.115133
0.013351
0.115888
0.0170162
0.0203296
0.121064
0.00234935
-0.120839
0.121398
0.0056709
0.121919
0.00949113
0.122483
0.0127879
0.123248
0.016251
0.0195248
0.129048
0.002112
-0.128811
0.129318
0.0054015
0.129859
0.0089498
0.130408
0.0122385
0.131209
0.0154508
0.018669
0.13758
0.00188774
-0.137356
0.137848
0.00513347
0.138366
0.00843196
0.138969
0.0116358
0.139724
0.0146953
0.0177542
0.146688
0.00171853
-0.146519
0.147001
0.00482039
0.147476
0.00795698
0.148133
0.0109795
0.148891
0.0139371
0.016785
0.15647
0.00157845
-0.15633
0.156796
0.00449443
0.157286
0.00746621
0.157959
0.0103072
0.1588
0.0130962
0.0157951
0.166971
0.00143256
-0.166825
0.16729
0.00417498
0.167822
0.00693409
0.168511
0.00961847
0.1694
0.0122068
0.014778
0.178214
0.0012845
-0.178066
0.178538
0.00385109
0.179087
0.00638462
0.179803
0.00890289
0.180719
0.0112904
0.0136817
0.190245
0.0011456
-0.190107
0.190584
0.00351275
0.191151
0.0058174
0.191927
0.00812679
0.192913
0.0103045
0.0124946
0.203148
0.00100764
-0.20301
0.203514
0.0031461
0.204116
0.00521591
0.204944
0.0072986
0.205974
0.00927415
0.0112534
0.216972
0.000870386
-0.216835
0.217356
0.00276247
0.217979
0.00459277
0.218843
0.00643512
0.219929
0.00818831
0.00993459
0.231772
0.00073429
-0.231636
0.232174
0.00236008
0.232833
0.00393353
0.233753
0.0055156
0.234915
0.00702621
0.00852598
0.247633
0.000594114
-0.247493
0.248059
0.00193366
0.248758
0.00323524
0.249732
0.00454173
0.250965
0.00579325
0.00703209
0.264624
0.000449894
-0.26448
0.26507
0.0014869
0.265809
0.00249695
0.266842
0.0035088
0.268155
0.00448026
0.00543943
0.282833
0.000304122
-0.282687
0.283302
0.00101792
0.284086
0.00171337
0.285185
0.0024098
0.286585
0.00308016
0.00374117
0.302376
0.000156871
-0.302229
0.302869
0.000524718
0.303699
0.000883675
0.304865
0.00124314
0.306356
0.0015899
0.00193151
0.323308
-0.323151
0.323833
0.324716
0.325959
0.327549
0.0303581
0.0285078
-0.0269044
-0.0319616
0.0283143
0.0277005
-0.0256568
0.0262681
0.0267235
-0.0246773
0.0242811
0.0258366
-0.0238496
0.0223995
0.0250099
-0.0231283
0.0205842
0.0243219
-0.0225067
0.0187939
0.023665
-0.0218746
0.0170579
0.0229804
-0.0212444
0.0153971
0.0223085
-0.0206477
0.0137825
0.0217472
-0.0201327
0.012192
0.0212922
-0.0197017
0.0106391
0.0208404
-0.0192875
0.00912023
0.0203876
-0.0188688
0.00761409
0.0200341
-0.0185279
0.0061569
0.0197585
-0.0183013
0.00475853
0.0195531
-0.0181547
0.00342186
0.0194291
-0.0180924
0.00210742
0.0194234
-0.018109
0.00084503
0.0195182
-0.0182558
0.0153798
-0.0145347
0.0268169
0.0302103
-0.0285193
0.0250709
0.0294465
0.0232267
0.0285676
0.0214002
0.0276631
0.0196489
0.0267612
0.0180036
0.0259673
0.0163815
0.025287
0.014772
0.0245899
0.0132294
0.0238511
0.0117857
0.0231909
0.0103824
0.0226956
0.00898457
0.0222382
0.00765718
0.021715
0.00637799
0.0213133
0.00510265
0.0210338
0.0038468
0.0208089
0.00259812
0.0206778
0.0013889
0.0206327
0.000356449
0.0205506
0.0157362
0.0231968
0.0318208
-0.0248073
0.0216087
0.0310347
0.0199956
0.0301807
0.0183979
0.0292608
0.0168469
0.0283122
0.0153607
0.0274535
0.0139343
0.0267135
0.0125143
0.0260099
0.0111129
0.0252526
0.00976406
0.0245397
0.00850473
0.0239549
0.00726269
0.0234803
0.00602583
0.0229519
0.00487936
0.0224597
0.00380507
0.0221081
0.00279064
0.0218233
0.00187645
0.021592
0.000895383
0.0216137
1.72659e-05
0.0214287
0.0157535
0.019407
0.0334955
-0.0210817
0.0178599
0.0325818
0.0164004
0.0316402
0.0149861
0.0306751
0.0136301
0.0296682
0.0123379
0.0287456
0.0110833
0.0279681
0.00985834
0.0272348
0.00868303
0.0264279
0.00754965
0.0256731
0.00644519
0.0250594
0.00541051
0.024515
0.00440664
0.0239558
0.00341765
0.0234487
0.00248123
0.0230445
0.00158173
0.0227228
0.000764701
0.022409
0.000128411
0.02225
-0.000349232
0.0219064
0.0154042
0.0154961
0.0348526
-0.0168532
0.0142162
0.0338617
0.0129449
0.0329115
0.0117142
0.0319058
0.0105207
0.0308616
0.00938402
0.0298823
0.00830185
0.0290503
0.00721902
0.0283177
0.00615439
0.0274925
0.00517379
0.0266536
0.00425453
0.0259787
0.00335377
0.0254157
0.00249681
0.0248127
0.00171548
0.02423
0.000988416
0.0237716
0.000326863
0.0233844
-0.000291425
0.0230273
-0.000747938
0.0227065
-0.000808295
0.0219667
0.014596
0.0111719
0.0360019
-0.0123212
0.01008
0.0349536
0.00901657
0.0339749
0.00798874
0.0329337
0.0070158
0.0318346
0.00608961
0.0308085
0.00519368
0.0299462
0.00435004
0.0291613
0.0035154
0.0283272
0.00268494
0.0274841
0.00191548
0.0267481
0.00123111
0.0261001
0.000574525
0.0254693
-6.69754e-05
0.0248716
-0.000642198
0.0243468
-0.00117458
0.0239168
-0.00161035
0.0234631
-0.00182186
0.022918
-0.00136984
0.0215147
0.0132261
0.00704983
0.0368795
-0.00792737
0.00615966
0.0358438
0.00524602
0.0348885
0.0043519
0.0338278
0.00353574
0.0326507
0.00279045
0.0315538
0.00207732
0.0306593
0.00136776
0.0298708
0.000712923
0.028982
0.000113877
0.0280832
-0.000488048
0.02735
-0.00107335
0.0266854
-0.00157248
0.0259684
-0.00201256
0.0253116
-0.00242161
0.0247559
-0.00275156
0.0242467
-0.0029834
0.0236949
-0.00298637
0.022921
-0.0021246
0.020653
0.0111015
0.00229559
0.0375658
-0.00298194
0.00165829
0.0364811
0.00110284
0.035444
0.000505103
0.0344255
-0.000118057
0.0332739
-0.000698368
0.0321341
-0.00124403
0.031205
-0.00173507
0.0303619
-0.00221435
0.0294613
-0.00269284
0.0285616
-0.00309757
0.0277548
-0.00344274
0.0270306
-0.00378499
0.0263107
-0.00407386
0.0256005
-0.00426678
0.0249488
-0.0044125
0.0243924
-0.00451438
0.0237968
-0.00432164
0.0227283
-0.00293416
0.0192655
0.00816734
-0.00232392
0.0381396
0.00175011
-0.00273879
0.036896
-0.00313398
0.0358392
-0.00349119
0.0347827
-0.00382924
0.0336119
-0.00418417
0.0324891
-0.00453212
0.0315529
-0.00488581
0.0307156
-0.00518732
0.0297628
-0.00545516
0.0288295
-0.00574773
0.0280473
-0.0059917
0.0272745
-0.00613912
0.0264581
-0.00625497
0.0257163
-0.00634494
0.0250388
-0.00633519
0.0243827
-0.00614849
0.0236101
-0.00568886
0.0222686
-0.00422549
0.0178021
0.00394185
-0.00700776
0.0068946
-0.00720868
-0.00737453
-0.00752489
-0.0076972
-0.00786252
-0.008039
-0.00815132
-0.00827565
-0.00841352
-0.008475
-0.00851068
-0.00855152
-0.00855579
-0.00849094
-0.00832416
-0.00788275
-0.00650108
-0.00364548
0.0393172
0.00143148
0.0365732
0.00128923
0.0338878
0.00115376
0.0312592
0.00102253
0.0286862
0.000894238
0.0261626
0.000766614
0.0236841
0.000640472
0.0212411
0.000520968
0.0188313
0.000402854
0.0164424
0.000295806
0.0140667
0.000191722
0.0116993
9.47743e-05
0.00932822
-2.47075e-06
0.00693049
-7.48557e-05
0.0045199
-0.000146734
0.00204956
-0.000191317
-0.000218086
0.0389653
0.00420978
0.0362458
0.00400876
0.0335806
0.00381896
0.0309709
0.00363223
0.0284146
0.00345048
0.0259084
0.00327284
0.0234502
0.00309863
0.0210328
0.00293836
0.0186518
0.00278383
0.0162968
0.0026509
0.0139552
0.00253324
0.0116133
0.00243667
0.00924913
0.00236174
0.00687615
0.00229812
0.00450019
0.00222923
0.00205742
0.00225145
0.00183934
0.0383517
0.00697283
0.0356565
0.00670396
0.0330264
0.00644906
0.030457
0.00620166
0.0279404
0.0059671
0.025469
0.00574424
0.0230362
0.00553142
0.0206408
0.00533374
0.0182836
0.00514103
0.0159732
0.00496129
0.0137025
0.00480395
0.0114493
0.0046899
0.00917553
0.00463548
0.0068408
0.00463285
0.00447219
0.00459784
0.00203991
0.00468372
0.00387925
0.0401689
0.0100319
0.0374484
0.00969337
0.0347917
0.0093606
0.0322041
0.00903673
0.029687
0.00871871
0.0272369
0.00841725
0.0248428
0.00813831
0.0224836
0.00789059
0.0201401
0.0076773
0.0177928
0.00748827
0.015452
0.00730214
0.0131417
0.00711423
0.0108875
0.00694412
0.0086851
0.00683786
0.0064872
0.00683076
0.00426409
0.00682095
0.00196128
0.00698653
0.00584053
0.0389324
0.0127441
0.0362828
0.012343
0.0336905
0.0119529
0.0311572
0.01157
0.0286794
0.0111964
0.0262619
0.0108347
0.0239178
0.0104825
0.0216577
0.0101507
0.0194665
0.00986846
0.0172969
0.00965788
0.0151007
0.00949833
0.0128728
0.00934213
0.0106473
0.00916968
0.00844667
0.00903845
0.00626383
0.0090136
0.00404521
0.00903957
0.00180347
0.00922828
0.007644
0.0400125
0.015904
0.037373
0.0153836
0.0348206
0.0148954
0.0323417
0.0144317
0.029923
0.0139887
0.0275516
0.0135678
0.0252053
0.0131811
0.0228805
0.0128072
0.0206016
0.0124297
0.0184139
0.0120562
0.016321
0.0117508
0.0142696
0.0115497
0.0121938
0.0114179
0.0100968
0.0112666
0.00799964
0.0111356
0.00592303
0.0110902
0.00386254
0.0111001
0.00173552
0.0113553
0.00937952
0.0407553
0.0191356
0.0380991
0.0185603
0.0355002
0.0179826
0.0329972
0.0173984
0.0305955
0.0168334
0.0282904
0.0162938
0.0260825
0.0157758
0.023939
0.0153246
0.0217949
0.0149513
0.0196218
0.0146027
0.0174617
0.0142163
0.0153871
0.0138254
0.0134092
0.0135276
0.0114677
0.0133594
0.00951461
0.0132197
0.00756939
0.0130809
0.00560186
0.0130577
0.00364242
0.0130595
0.00165896
0.0133388
0.0110385
0.038333
0.0216728
-0.0408702
0.0358463
0.0210469
0.0333817
0.0204471
0.0310019
0.0197782
0.0287021
0.0191332
0.0264687
0.0185272
0.0243046
0.0179398
0.0222387
0.0173905
0.0202616
0.0169284
0.0183034
0.0165609
0.0163078
0.016212
0.0143211
0.0158121
0.0124005
0.0154483
0.0105448
0.0152151
0.00869471
0.0150698
0.0068586
0.014917
0.00504305
0.0148733
0.00316048
0.0149421
0.00131112
0.0151881
0.0123496
0.0356036
0.0242243
-0.038155
0.033169
0.0234815
0.0309282
0.0226879
0.0287916
0.0219148
0.0266902
0.0212346
0.0246057
0.0206117
0.0225368
0.0200087
0.0205173
0.01941
0.0185939
0.0188519
0.0167616
0.0183932
0.0149562
0.0180173
0.0131431
0.0176252
0.0113656
0.0172258
0.00963874
0.016942
0.00793466
0.0167738
0.00621538
0.0166363
0.00455169
0.016537
0.00295757
0.0165362
0.00132532
0.0168204
0.0136749
0.0321688
-0.0348489
0.0299935
0.0280042
0.0260694
0.0241757
0.0222807
0.0204148
0.0185804
0.0167845
0.0150451
0.0133607
0.0116984
0.0100554
0.0084694
0.00694195
0.00542351
0.00386803
0.00229524
0.000859819
0.00513081
0.00611963
0.0358058
0.00554727
0.0070765
0.0447375
0.00554659
0.00595006
0.0458639
0.0485819
0.00555516
0.00540526
0.0491267
0.0523965
0.00536929
0.00504773
0.052754
0.0565695
0.00519987
0.00477882
0.0568384
0.0613777
0.00501208
0.00458588
0.0615706
0.0665254
0.00466804
0.00436929
0.066742
0.071585
0.00416988
0.00403422
0.0719201
0.0766124
0.00367495
0.00361533
0.0770313
0.0821158
0.00327839
0.00321965
0.0825115
0.0882497
0.00293579
0.0028778
0.0885916
0.0947276
0.00262639
0.00258193
0.0950235
0.101579
0.00237389
0.0023394
0.101822
0.108866
0.00215344
0.00213531
0.10907
0.116572
0.00192845
0.0019432
0.116764
0.124724
0.00171757
0.00173351
0.124934
0.133406
0.00153329
0.00151437
0.133625
0.142674
0.0013535
0.00131926
0.142869
0.152553
0.00117667
0.00115335
0.152719
0.163069
0.00101882
0.00100128
0.163221
0.17428
0.000882525
0.000861274
0.17442
0.186242
0.000762193
0.000735193
0.186368
0.199015
0.00065269
0.000623775
0.199127
0.212663
0.000551075
0.000524282
0.212762
0.227248
0.000456195
0.000433244
0.227339
0.242836
0.000367418
0.000348363
0.242921
0.259506
0.000284701
0.00026986
0.259585
0.277365
0.000204008
0.00019285
0.277442
0.296534
0.000112376
0.00010657
0.29662
0.317153
5.47818e-05
5.00867e-05
0.31721
0.33919
0.33924
0.0460127
-0.0321104
0.0461075
-0.0286141
0.0463517
-0.0250515
0.0467252
-0.0214551
0.0469722
-0.0171002
0.0474161
-0.0127652
0.0478661
-0.00837742
0.048529
-0.00364479
0.0493433
0.00093576
0.00612762
0.0494818
-0.0324655
0.0496188
-0.0287511
0.0496628
-0.0250956
0.0500885
-0.0218807
0.0503872
-0.017399
0.0509632
-0.0133411
0.0512602
-0.00867441
0.0520276
-0.00441223
0.0525112
0.000452184
0.00513597
0.0529877
-0.0326992
0.0532473
-0.0290107
0.0532798
-0.0251281
0.0536825
-0.0222835
0.0539659
-0.0176823
0.0546584
-0.0140336
0.0548586
-0.00887458
0.0556053
-0.00515887
0.05595
0.000107478
0.00413781
0.0571615
-0.0330223
0.057481
-0.0293302
0.0576305
-0.0252775
0.0579265
-0.0225795
0.0581599
-0.0179157
0.0587887
-0.0146625
0.0590306
-0.00911645
0.0596778
-0.00580608
0.0599245
-0.000139208
0.00325984
0.0618649
-0.0333166
0.0620989
-0.0295642
0.0622654
-0.025444
0.0624064
-0.0227205
0.0626398
-0.0181491
0.0630257
-0.0150484
0.0633991
-0.00948981
0.0638535
-0.00626055
0.0642491
-0.000534761
0.00264083
0.0668645
-0.0334391
0.0669696
-0.0296693
0.067082
-0.0255564
0.0670982
-0.0227368
0.0673209
-0.0183718
0.0675201
-0.0152475
0.0679641
-0.0099338
0.0682846
-0.00658109
0.0687563
-0.00100649
0.00220273
0.0718279
-0.0333469
0.0718051
-0.0296465
0.0718565
-0.0256077
0.0718136
-0.0226939
0.0719937
-0.0185519
0.0720948
-0.0153486
0.072486
-0.010325
0.0727401
-0.0068352
0.0732455
-0.00151195
0.00184846
0.0768117
-0.0331272
0.0767221
-0.029557
0.0767618
-0.0256474
0.0766917
-0.0226237
0.0767992
-0.0186594
0.0768445
-0.015394
0.0771395
-0.01062
0.0773562
-0.00705193
0.0778268
-0.00198255
0.00152231
0.0822265
-0.0328422
0.0820737
-0.0294042
0.0820738
-0.0256475
0.0819372
-0.0224871
0.0819632
-0.0186854
0.0819251
-0.0153559
0.0821191
-0.010814
0.0822698
-0.00720268
0.082665
-0.00237768
0.00121897
0.0881967
-0.0324473
0.0879375
-0.029145
0.0878294
-0.0255394
0.0876279
-0.0222856
0.0875751
-0.0186326
0.0874433
-0.015224
0.0875561
-0.0109269
0.0876174
-0.00726395
0.0879183
-0.00267861
0.000972575
0.0945097
-0.0319336
0.0941221
-0.0287573
0.0938901
-0.0253074
0.0936398
-0.0220353
0.0935051
-0.018498
0.0933233
-0.0150422
0.0933687
-0.0109722
0.0933824
-0.00727767
0.0936247
-0.00292093
0.000764353
0.101195
-0.0313067
0.100668
-0.0282306
0.100311
-0.02495
0.0999792
-0.021704
0.0997586
-0.0182774
0.0995382
-0.0148218
0.0995047
-0.0109387
0.0995062
-0.00727924
0.0997007
-0.00311539
0.000542047
0.108328
-0.030565
0.10769
-0.0275924
0.107214
-0.0244741
0.106801
-0.0212911
0.106498
-0.0179745
0.106228
-0.0145519
0.106113
-0.010823
0.106074
-0.00724062
0.106205
-0.0032465
0.000336849
0.115928
-0.029729
0.11519
-0.0268545
0.114612
-0.0238952
0.114117
-0.0207968
0.113732
-0.0175896
0.113413
-0.0142324
0.113216
-0.0106262
0.113136
-0.0071603
0.113192
-0.00330295
0.000156409
0.124003
-0.0287978
0.123174
-0.0260258
0.122496
-0.0232176
0.12192
-0.0202203
0.121465
-0.0171345
0.121089
-0.013857
0.120831
-0.0103677
0.120701
-0.00703084
0.120701
-0.0033028
1.87298e-05
0.132587
-0.0277594
0.131677
-0.0251157
0.130888
-0.0224292
0.130231
-0.0195633
0.129698
-0.016601
0.129258
-0.0134177
0.128959
-0.0100678
0.128759
-0.00683123
0.128748
-0.00329221
-4.38595e-05
0.141729
-0.0266188
0.140721
-0.0241083
0.139832
-0.0215394
0.139076
-0.0188083
0.138462
-0.0159865
0.137953
-0.0129091
0.13762
-0.00973417
0.137357
-0.0065687
0.137333
-0.00326802
-6.65545e-05
0.151474
-0.025374
0.150357
-0.0229915
0.14937
-0.0205523
0.14851
-0.0179485
0.147808
-0.015284
0.147237
-0.0123388
0.146847
-0.00934416
0.146561
-0.00628255
0.146483
-0.00318936
-0.000102994
0.161862
-0.0240145
0.160639
-0.0217687
0.159549
-0.0194622
0.158596
-0.0169957
0.157798
-0.0144864
0.157171
-0.0117113
0.156714
-0.00888713
0.156415
-0.0059833
0.156285
-0.00305968
-0.000147816
0.17294
-0.0225346
0.17161
-0.0204386
0.170418
-0.0182701
0.169375
-0.0159527
0.168489
-0.0136005
0.167795
-0.0110172
0.167282
-0.00837427
0.16695
-0.00565088
0.166798
-0.00290827
-0.000174305
0.184765
-0.0209321
0.183323
-0.0189959
0.182029
-0.0169766
0.180898
-0.0148216
0.17993
-0.0126324
0.179164
-0.0102513
0.178597
-0.00780766
0.178224
-0.00527787
0.178055
-0.00273882
-0.000185396
0.1974
-0.0192055
0.195839
-0.0174354
0.194443
-0.0155805
0.193223
-0.0136011
0.192174
-0.0115836
0.191336
-0.00941284
0.190712
-0.00718415
0.190297
-0.00486295
0.190103
-0.00254424
-0.00018935
0.210907
-0.0173498
0.209224
-0.015753
0.207721
-0.0140771
0.206407
-0.0122873
0.205279
-0.010455
0.204368
-0.00850181
0.203684
-0.00650085
0.20323
-0.00440825
0.203008
-0.00232305
-0.000190596
0.225347
-0.0153579
0.223538
-0.0139442
0.221922
-0.0124611
0.22051
-0.0108752
0.219304
-0.00924847
0.218322
-0.00752027
0.21758
-0.00575876
0.217086
-0.00391374
0.216838
-0.00207519
-0.000188096
0.240785
-0.0132218
0.238845
-0.0120041
0.237111
-0.0107274
0.235597
-0.00936128
0.234307
-0.0079586
0.233258
-0.00647129
0.232459
-0.00495926
0.231922
-0.00337716
0.231646
-0.00179919
-0.000177736
0.257297
-0.0109335
0.255219
-0.00992645
0.253362
-0.00887086
0.251742
-0.00774106
0.250364
-0.00658026
0.249244
-0.00535187
0.248389
-0.00410392
0.247812
-0.00280033
0.247511
-0.00149796
-0.000159552
0.274987
-0.00847866
0.272761
-0.00770031
0.270774
-0.00688316
0.26904
-0.00600722
0.267566
-0.00510613
0.266368
-0.00415426
0.265452
-0.00318753
0.264831
-0.0021795
0.264504
-0.00117108
-0.000135183
0.294
-0.00585814
0.291616
-0.00531665
0.289483
-0.00475051
0.287621
-0.00414451
0.286036
-0.0035212
0.284746
-0.00286446
0.283757
-0.00219812
0.283082
-0.00150503
0.282722
-0.000811337
-0.000100155
0.314381
-0.00302946
0.311817
-0.0027532
0.309529
-0.00246225
0.307533
-0.00214865
0.305837
-0.00182469
0.304456
-0.00148342
0.303395
-0.00113733
0.302668
-0.00077841
0.302276
-0.000419457
-5.23638e-05
0.336211
0.333458
0.330995
0.328847
0.327022
0.325539
0.324401
0.323623
0.323203
)
;

boundaryField
{
    outlet
    {
        type            calculated;
        value           nonuniform 0();
    }
    upperWall
    {
        type            symmetryPlane;
        value           uniform 0;
    }
    lowerWall
    {
        type            symmetryPlane;
        value           nonuniform 0();
    }
    inlet
    {
        type            calculated;
        value           nonuniform 0();
    }
    cylinder
    {
        type            calculated;
        value           uniform 0;
    }
    frontAndBack
    {
        type            empty;
        value           nonuniform 0();
    }
    procBoundary5to1
    {
        type            processor;
        value           nonuniform List<scalar> 
20
(
0.0125737
0.0176912
0.0165026
0.00137076
0.00145476
0.00153165
0.00160608
0.0016788
0.001757
0.00183795
0.00192203
0.00200695
0.00209314
0.00218395
0.0022726
0.00237357
0.00247258
0.00255733
0.00266165
0.00226765
)
;
    }
    procBoundary5to4
    {
        type            processor;
        value           nonuniform List<scalar> 
45
(
-0.0421195
-0.0417436
-0.0411148
-0.00725052
-0.0429503
-0.0416446
-0.0131832
-0.0427333
-0.016492
-0.0433989
-0.00424798
-0.041753
-0.0391438
-0.0048062
-0.0365468
-0.0447368
-0.0485904
-0.0522106
-0.0564001
-0.0611899
-0.0661814
-0.0710869
-0.0761175
-0.0817193
-0.0879071
-0.0944182
-0.101327
-0.108645
-0.116347
-0.124513
-0.133222
-0.142494
-0.152376
-0.162911
-0.174144
-0.186121
-0.198906
-0.212561
-0.227153
-0.242747
-0.259424
-0.277285
-0.296442
-0.317095
-0.339135
)
;
    }
    procBoundary5to6
    {
        type            processor;
        value           nonuniform List<scalar> 
63
(
0.0165757
0.0107824
0.0217651
0.0235702
0.0333501
0.0261892
0.0260623
0.0333489
0.0291146
0.0299856
0.0306359
0.0344816
0.0332044
0.0344453
0.0358616
0.0339794
0.00260994
0.01498
0.000238468
-0.0023797
-0.00504339
-0.00775178
0.00884852
-0.0119009
0.00448217
-0.016024
0.000920545
-0.0163785
-0.000827196
-0.0152838
0.00132239
-0.00467151
0.0546642
0.0580422
0.0615058
0.064866
-0.0296284
0.0691824
0.0736631
0.0782026
0.0823221
0.0870234
0.0923385
0.0975707
0.103315
0.109815
0.116683
0.124053
0.132064
0.140639
0.14986
0.15979
0.170418
0.181816
0.1941
0.207215
0.221247
0.236324
0.252458
0.269747
0.288283
0.308165
0.329481
)
;
    }
}


// ************************************************************************* //
