/*--------------------------------*- C++ -*----------------------------------*\
| =========                 |                                                 |
| \\      /  F ield         | OpenFOAM: The Open Source CFD Toolbox           |
|  \\    /   O peration     | Version:                                        |
|   \\  /    A nd           | Website:  www.openfoam.com                      |
|    \\/     M anipulation  |                                                 |
\*---------------------------------------------------------------------------*/
FoamFile
{
    version     2.0;
    format      ascii;
    class       surfaceScalarField;
    location    "140";
    object      phi;
}
// * * * * * * * * * * * * * * * * * * * * * * * * * * * * * * * * * * * * * //

dimensions      [0 3 -1 0 0 0 0];
oriented        oriented;


internalField   nonuniform List<scalar> 
445
(
3.15677e-06
-9.61045e-09
3.16605e-06
-9.27793e-09
3.17501e-06
-8.95766e-09
3.18365e-06
-8.64915e-09
3.19201e-06
-8.35194e-09
3.20007e-06
-8.06559e-09
3.20786e-06
-7.78966e-09
3.21539e-06
-7.52375e-09
3.22265e-06
-7.26748e-09
3.22967e-06
-7.02046e-09
3.23646e-06
-6.78234e-09
3.24301e-06
-6.55276e-09
3.24934e-06
-6.33141e-09
3.25546e-06
-6.11797e-09
3.26137e-06
-5.91212e-09
3.26708e-06
-5.71359e-09
3.27261e-06
-5.52209e-09
3.27794e-06
-5.33735e-09
3.2831e-06
-5.15911e-09
3.28809e-06
-4.98714e-09
3.29291e-06
-4.8212e-09
3.29757e-06
-4.66105e-09
3.30208e-06
-4.50648e-09
3.30644e-06
-4.35728e-09
3.31065e-06
-4.21326e-09
3.31472e-06
-4.07422e-09
3.31866e-06
-3.93997e-09
3.32247e-06
-3.81035e-09
3.32616e-06
-3.68517e-09
3.32972e-06
-3.56429e-09
3.33317e-06
-3.44753e-09
3.3365e-06
-3.33475e-09
3.33973e-06
-3.22581e-09
3.34285e-06
-3.12056e-09
3.34587e-06
-3.01888e-09
3.34879e-06
-2.92064e-09
3.35162e-06
-2.82571e-09
3.35435e-06
-2.73397e-09
3.357e-06
-2.64531e-09
3.35956e-06
-2.55963e-09
3.36203e-06
-2.47681e-09
3.36443e-06
-2.39676e-09
3.36675e-06
-2.31937e-09
3.36899e-06
-2.24456e-09
3.37117e-06
-2.17224e-09
3.37327e-06
-2.10231e-09
3.3753e-06
-2.0347e-09
3.37727e-06
-1.96932e-09
3.37918e-06
-1.9061e-09
-1.84496e-09
9.3735e-06
-3.56679e-08
9.39863e-06
-3.44133e-08
9.42288e-06
-3.32068e-08
9.44628e-06
-3.20463e-08
9.46885e-06
-3.09298e-08
9.49064e-06
-2.98554e-08
9.51168e-06
-2.88215e-08
9.53198e-06
-2.78262e-08
9.55158e-06
-2.6868e-08
9.5705e-06
-2.59454e-08
9.58878e-06
-2.50568e-08
9.60643e-06
-2.42009e-08
9.62347e-06
-2.33764e-08
9.63994e-06
-2.2582e-08
9.65584e-06
-2.18164e-08
9.67121e-06
-2.10785e-08
9.68605e-06
-2.03672e-08
9.70039e-06
-1.96815e-08
9.71426e-06
-1.90203e-08
9.72765e-06
-1.83827e-08
9.7406e-06
-1.77678e-08
9.75311e-06
-1.71746e-08
9.76521e-06
-1.66024e-08
9.7769e-06
-1.60503e-08
9.7882e-06
-1.55176e-08
9.79913e-06
-1.50035e-08
9.8097e-06
-1.45073e-08
9.81992e-06
-1.40283e-08
9.8298e-06
-1.3566e-08
9.83936e-06
-1.31196e-08
9.8486e-06
-1.26886e-08
9.85753e-06
-1.22724e-08
9.86618e-06
-1.18704e-08
9.87454e-06
-1.14822e-08
9.88263e-06
-1.11072e-08
9.89045e-06
-1.0745e-08
9.89802e-06
-1.0395e-08
9.90535e-06
-1.00569e-08
9.91243e-06
-9.73018e-09
9.91929e-06
-9.41448e-09
9.92592e-06
-9.10939e-09
9.93234e-06
-8.81453e-09
9.93855e-06
-8.52953e-09
9.94456e-06
-8.25405e-09
9.95037e-06
-7.98775e-09
9.956e-06
-7.73031e-09
9.96145e-06
-7.48142e-09
9.96672e-06
-7.24078e-09
9.97182e-06
-7.00811e-09
-6.78313e-09
1.52379e-05
-6.96493e-08
1.52706e-05
-6.71342e-08
1.53021e-05
-6.47213e-08
1.53325e-05
-6.24059e-08
1.53618e-05
-6.01831e-08
1.53899e-05
-5.80488e-08
1.54171e-05
-5.59986e-08
1.54433e-05
-5.40288e-08
1.54686e-05
-5.21357e-08
1.5493e-05
-5.03158e-08
1.55165e-05
-4.85657e-08
1.55392e-05
-4.68825e-08
1.5561e-05
-4.52631e-08
1.55822e-05
-4.37049e-08
1.56026e-05
-4.2205e-08
1.56222e-05
-4.07611e-08
1.56412e-05
-3.93707e-08
1.56596e-05
-3.80317e-08
1.56773e-05
-3.67418e-08
1.56944e-05
-3.5499e-08
1.5711e-05
-3.43014e-08
1.57269e-05
-3.31471e-08
1.57424e-05
-3.20343e-08
1.57573e-05
-3.09615e-08
1.57717e-05
-2.9927e-08
1.57856e-05
-2.89293e-08
1.57991e-05
-2.79669e-08
1.58121e-05
-2.70384e-08
1.58247e-05
-2.61426e-08
1.58368e-05
-2.52781e-08
1.58486e-05
-2.44438e-08
1.58599e-05
-2.36385e-08
1.58709e-05
-2.28611e-08
1.58816e-05
-2.21105e-08
1.58918e-05
-2.13858e-08
1.59018e-05
-2.0686e-08
1.59114e-05
-2.00101e-08
1.59207e-05
-1.93572e-08
1.59297e-05
-1.87266e-08
1.59384e-05
-1.81174e-08
1.59468e-05
-1.75288e-08
1.5955e-05
-1.696e-08
1.59628e-05
-1.64104e-08
1.59705e-05
-1.58793e-08
1.59778e-05
-1.5366e-08
1.5985e-05
-1.48698e-08
1.59919e-05
-1.43903e-08
1.59986e-05
-1.39266e-08
1.6005e-05
-1.34784e-08
-1.30451e-08
2.04099e-05
-9.98784e-08
2.04389e-05
-9.61631e-08
2.04668e-05
-9.2609e-08
2.04936e-05
-8.92075e-08
2.05194e-05
-8.59503e-08
2.05442e-05
-8.283e-08
2.0568e-05
-7.98395e-08
2.0591e-05
-7.69722e-08
2.06131e-05
-7.4222e-08
2.06343e-05
-7.15829e-08
2.06548e-05
-6.90497e-08
2.06745e-05
-6.66172e-08
2.06936e-05
-6.42806e-08
2.07119e-05
-6.20354e-08
2.07296e-05
-5.98774e-08
2.07466e-05
-5.78025e-08
2.0763e-05
-5.5807e-08
2.07789e-05
-5.38874e-08
2.07942e-05
-5.20401e-08
2.0809e-05
-5.02622e-08
2.08232e-05
-4.85505e-08
2.0837e-05
-4.69021e-08
2.08502e-05
-4.53145e-08
2.08631e-05
-4.37851e-08
2.08755e-05
-4.23113e-08
2.08874e-05
-4.08909e-08
2.0899e-05
-3.95217e-08
2.09101e-05
-3.82016e-08
2.09209e-05
-3.69286e-08
2.09313e-05
-3.57009e-08
2.09414e-05
-3.45166e-08
2.09511e-05
-3.33741e-08
2.09606e-05
-3.22716e-08
2.09697e-05
-3.12076e-08
2.09785e-05
-3.01807e-08
2.0987e-05
-2.91894e-08
2.09952e-05
-2.82323e-08
2.10031e-05
-2.73083e-08
2.10108e-05
-2.64159e-08
2.10183e-05
-2.5554e-08
2.10254e-05
-2.47216e-08
2.10324e-05
-2.39175e-08
2.10391e-05
-2.31406e-08
2.10456e-05
-2.239e-08
2.10519e-05
-2.16647e-08
2.1058e-05
-2.09638e-08
2.10639e-05
-2.02864e-08
2.10696e-05
-1.96317e-08
2.10752e-05
-1.89989e-08
-1.83872e-08
2.44295e-05
2.44443e-05
2.44585e-05
2.4472e-05
2.4485e-05
2.44974e-05
2.45093e-05
2.45207e-05
2.45317e-05
2.45422e-05
2.45522e-05
2.45619e-05
2.45712e-05
2.45802e-05
2.45888e-05
2.45971e-05
2.46051e-05
2.46127e-05
2.46201e-05
2.46273e-05
2.46341e-05
2.46407e-05
2.46471e-05
2.46533e-05
2.46592e-05
2.46649e-05
2.46705e-05
2.46758e-05
2.46809e-05
2.46859e-05
2.46907e-05
2.46954e-05
2.46998e-05
2.47042e-05
2.47083e-05
2.47124e-05
2.47163e-05
2.47201e-05
2.47237e-05
2.47272e-05
2.47306e-05
2.47339e-05
2.47371e-05
2.47402e-05
2.47432e-05
2.47461e-05
2.47489e-05
2.47516e-05
2.47542e-05
)
;

boundaryField
{
    inlet
    {
        type            calculated;
        value           nonuniform 0();
    }
    outlet
    {
        type            calculated;
        value           nonuniform 0();
    }
    wall
    {
        type            calculated;
        value           nonuniform 0();
    }
    back
    {
        type            wedge;
        value           nonuniform List<scalar> 
250
(
-5.81598e-20
-1.80944e-19
-3.41108e-18
1.04417e-17
-2.55763e-17
-5.32674e-20
-1.76895e-19
-3.29338e-18
1.00465e-17
-2.46047e-17
-6.04622e-20
-1.84695e-19
-3.18883e-18
9.66955e-18
-2.36782e-17
-6.81514e-20
-1.88587e-19
-3.08834e-18
9.30708e-18
-2.27952e-17
-6.59921e-20
-1.9631e-19
-2.98812e-18
8.96693e-18
-2.19514e-17
-6.4263e-20
-1.98173e-19
-2.89566e-18
8.62736e-18
-2.1148e-17
-7.78836e-20
-2.07119e-19
-2.80324e-18
8.31768e-18
-2.03765e-17
-7.61814e-20
-1.92821e-19
-2.70686e-18
8.02571e-18
-1.96352e-17
-7.74019e-20
-1.96936e-19
-2.61976e-18
7.73444e-18
-1.89279e-17
-8.03065e-20
-1.92889e-19
-2.53507e-18
7.45977e-18
-1.82464e-17
-6.65776e-20
-1.82518e-19
-2.44953e-18
7.19094e-18
-1.75951e-17
-7.31162e-20
-1.79327e-19
-2.36367e-18
6.9291e-18
-1.6973e-17
-6.41266e-20
-1.67172e-19
-2.29021e-18
6.6834e-18
-1.63769e-17
-5.63923e-20
-1.61116e-19
-2.21686e-18
6.44962e-18
-1.57998e-17
-6.21548e-20
-1.58518e-19
-2.1438e-18
6.22191e-18
-1.5248e-17
-5.60692e-20
-1.57201e-19
-2.07508e-18
5.99826e-18
-1.47243e-17
-4.79438e-20
-1.57814e-19
-2.00527e-18
5.7918e-18
-1.42118e-17
-5.31079e-20
-1.54859e-19
-1.94317e-18
5.58485e-18
-1.37217e-17
-6.92948e-20
-1.66154e-19
-1.88376e-18
5.40332e-18
-1.32544e-17
-4.56614e-20
-1.3817e-19
-1.81937e-18
5.21067e-18
-1.27877e-17
-6.31222e-20
-1.55882e-19
-1.75958e-18
5.037e-18
-1.23573e-17
-7.67664e-20
-1.62301e-19
-1.70601e-18
4.85042e-18
-1.19396e-17
-7.86576e-20
-1.68798e-19
-1.65321e-18
4.69125e-18
-1.15375e-17
-4.67018e-20
-1.45809e-19
-1.60437e-18
4.52861e-18
-1.11374e-17
-6.45586e-20
-1.57367e-19
-1.55413e-18
4.37923e-18
-1.07694e-17
-7.81208e-20
-1.58163e-19
-1.51035e-18
4.2148e-18
-1.04135e-17
-7.54333e-20
-1.66449e-19
-1.46294e-18
4.07096e-18
-1.00689e-17
-4.43719e-20
-1.39698e-19
-1.41359e-18
3.93485e-18
-9.72506e-18
-6.4167e-20
-1.5291e-19
-1.36846e-18
3.80527e-18
-9.40213e-18
-8.07446e-20
-1.63984e-19
-1.32994e-18
3.67038e-18
-9.09522e-18
-5.7327e-20
-1.50894e-19
-1.29579e-18
3.53398e-18
-8.79186e-18
-5.27907e-20
-1.4377e-19
-1.24836e-18
3.43106e-18
-8.49937e-18
-5.50759e-20
-1.38963e-19
-1.20499e-18
3.32176e-18
-8.218e-18
-4.93526e-20
-1.26445e-19
-1.17105e-18
3.2034e-18
-7.95362e-18
-5.67792e-20
-1.27181e-19
-1.13793e-18
3.0961e-18
-7.69318e-18
-4.6002e-20
-1.28681e-19
-1.09835e-18
2.99435e-18
-7.44385e-18
-4.02945e-20
-1.15628e-19
-1.06202e-18
2.89082e-18
-7.2059e-18
-4.39333e-20
-1.11737e-19
-1.03327e-18
2.79512e-18
-6.9724e-18
-5.26248e-20
-1.20512e-19
-1.00327e-18
2.69722e-18
-6.74343e-18
-5.23002e-20
-1.10263e-19
-9.63782e-19
2.61142e-18
-6.52368e-18
-3.83488e-20
-9.50602e-20
-9.39303e-19
2.51992e-18
-6.3158e-18
-2.56251e-20
-9.58322e-20
-9.08927e-19
2.44315e-18
-6.11183e-18
-2.94576e-20
-9.156e-20
-8.79653e-19
2.3545e-18
-5.91732e-18
-3.74725e-20
-1.01251e-19
-8.58048e-19
2.28152e-18
-5.7312e-18
-2.1019e-20
-9.40272e-20
-8.33281e-19
2.20602e-18
-5.53405e-18
-3.83094e-20
-1.02146e-19
-8.02961e-19
2.13623e-18
-5.36129e-18
-5.91169e-20
-1.07112e-19
-7.74433e-19
2.05501e-18
-5.19071e-18
-5.86442e-20
-1.14145e-19
-7.6174e-19
1.98528e-18
-5.02957e-18
-2.87878e-20
-7.96093e-20
-7.34737e-19
1.9304e-18
-4.85663e-18
-4.52555e-20
-1.02477e-19
-7.1929e-19
1.85681e-18
-4.71231e-18
)
;
    }
    front
    {
        type            wedge;
        value           nonuniform List<scalar> 
250
(
5.81805e-20
1.80998e-19
-2.79317e-18
1.12863e-17
-2.45984e-17
5.32868e-20
1.76947e-19
-2.68915e-18
1.08812e-17
-2.36644e-17
6.04822e-20
1.84743e-19
-2.58077e-18
1.04919e-17
-2.27716e-17
6.81706e-20
1.88634e-19
-2.47672e-18
1.01202e-17
-2.19163e-17
6.60101e-20
1.96357e-19
-2.38041e-18
9.75668e-18
-2.10987e-17
6.42806e-20
1.98217e-19
-2.28398e-18
9.4216e-18
-2.0313e-17
7.79002e-20
2.07164e-19
-2.19484e-18
9.0842e-18
-1.95638e-17
7.61972e-20
1.92863e-19
-2.11661e-18
8.75528e-18
-1.88493e-17
7.74178e-20
1.96975e-19
-2.0358e-18
8.45059e-18
-1.81619e-17
8.03216e-20
1.92929e-19
-1.95895e-18
8.15303e-18
-1.75071e-17
6.65917e-20
1.82556e-19
-1.88907e-18
7.87225e-18
-1.6877e-17
7.313e-20
1.79363e-19
-1.82535e-18
7.60603e-18
-1.62702e-17
6.41409e-20
1.67206e-19
-1.75481e-18
7.34422e-18
-1.56871e-17
5.64055e-20
1.6115e-19
-1.68954e-18
7.09011e-18
-1.51323e-17
6.21682e-20
1.5855e-19
-1.62911e-18
6.84865e-18
-1.45972e-17
5.60816e-20
1.57235e-19
-1.56926e-18
6.62101e-18
-1.40767e-17
4.7956e-20
1.57847e-19
-1.5152e-18
6.39328e-18
-1.3586e-17
5.31196e-20
1.54888e-19
-1.45797e-18
6.18237e-18
-1.31117e-17
6.9306e-20
1.66183e-19
-1.40239e-18
5.96169e-18
-1.26518e-17
4.56721e-20
1.38197e-19
-1.35594e-18
5.76707e-18
-1.22266e-17
6.31323e-20
1.55908e-19
-1.3089e-18
5.56779e-18
-1.1799e-17
7.67762e-20
1.62327e-19
-1.25947e-18
5.39515e-18
-1.1391e-17
7.86669e-20
1.68824e-19
-1.21294e-18
5.20823e-18
-1.09982e-17
4.67114e-20
1.45833e-19
-1.166e-18
5.03736e-18
-1.06331e-17
6.45678e-20
1.57391e-19
-1.12386e-18
4.86532e-18
-1.02641e-17
7.81297e-20
1.58186e-19
-1.07851e-18
4.71991e-18
-9.91003e-18
7.5442e-20
1.66471e-19
-1.03994e-18
4.56501e-18
-9.57064e-18
4.43801e-20
1.3972e-19
-1.00632e-18
4.41305e-18
-9.25527e-18
6.41746e-20
1.5293e-19
-9.71391e-19
4.26479e-18
-8.94281e-18
8.0752e-20
1.64005e-19
-9.32633e-19
4.13168e-18
-8.63718e-18
5.73344e-20
1.50914e-19
-8.92199e-19
4.00953e-18
-8.3499e-18
5.27978e-20
1.4379e-19
-8.67616e-19
3.86297e-18
-8.07274e-18
5.5083e-20
1.38981e-19
-8.41469e-19
3.73151e-18
-7.80465e-18
4.93596e-20
1.26462e-19
-8.0828e-19
3.61751e-18
-7.53894e-18
5.67859e-20
1.27197e-19
-7.76569e-19
3.5005e-18
-7.2879e-18
4.60082e-20
1.28697e-19
-7.53543e-19
3.38572e-18
-7.04365e-18
4.03008e-20
1.15644e-19
-7.2941e-19
3.28017e-18
-6.80519e-18
4.39394e-20
1.11752e-19
-6.99745e-19
3.17397e-18
-6.5788e-18
5.26303e-20
1.20526e-19
-6.73319e-19
3.07689e-18
-6.36379e-18
5.23058e-20
1.10277e-19
-6.58286e-19
2.97438e-18
-6.15484e-18
3.83543e-20
9.50738e-20
-6.30088e-19
2.88397e-18
-5.94874e-18
2.56304e-20
9.58451e-20
-6.09563e-19
2.78502e-18
-5.75288e-18
2.94627e-20
9.15733e-20
-5.89647e-19
2.70389e-18
-5.56119e-18
3.74772e-20
1.01264e-19
-5.63712e-19
2.61282e-18
-5.37425e-18
2.10236e-20
9.40393e-20
-5.4253e-19
2.5298e-18
-5.21097e-18
3.83141e-20
1.02158e-19
-5.28436e-19
2.44639e-18
-5.03549e-18
5.91213e-20
1.07123e-19
-5.1403e-19
2.37955e-18
-4.86956e-18
5.86484e-20
1.14156e-19
-4.85218e-19
2.30617e-18
-4.70551e-18
2.87919e-20
7.96199e-20
-4.72094e-19
2.22272e-18
-4.56415e-18
4.52596e-20
1.02487e-19
-4.48743e-19
2.16259e-18
-4.40469e-18
)
;
    }
    axis
    {
        type            empty;
        value           nonuniform 0();
    }
    procBoundary1to0
    {
        type            processor;
        value           nonuniform List<scalar> 5(-3.14716e-06 -9.34744e-06 -1.52039e-05 -2.03797e-05 -2.4414e-05);
    }
    procBoundary1to2
    {
        type            processor;
        value           nonuniform List<scalar> 5(3.38102e-06 9.97676e-06 1.60113e-05 2.10805e-05 2.47567e-05);
    }
    procBoundary1to5
    {
        type            processor;
        value           nonuniform List<scalar> 
50
(
-1.15381e-07
-1.10971e-07
-1.06764e-07
-1.02747e-07
-9.89102e-08
-9.52424e-08
-9.17344e-08
-8.83775e-08
-8.51635e-08
-8.20848e-08
-7.91343e-08
-7.63054e-08
-7.35919e-08
-7.09881e-08
-6.84885e-08
-6.6088e-08
-6.37819e-08
-6.15658e-08
-5.94354e-08
-5.73868e-08
-5.54162e-08
-5.35201e-08
-5.16952e-08
-4.99385e-08
-4.82468e-08
-4.66174e-08
-4.50477e-08
-4.35352e-08
-4.20773e-08
-4.0672e-08
-3.9317e-08
-3.80103e-08
-3.67499e-08
-3.55341e-08
-3.4361e-08
-3.32289e-08
-3.21363e-08
-3.10816e-08
-3.00634e-08
-2.90803e-08
-2.81309e-08
-2.72141e-08
-2.63285e-08
-2.5473e-08
-2.46465e-08
-2.38479e-08
-2.30763e-08
-2.23306e-08
-2.16099e-08
-2.09133e-08
)
;
    }
}


// ************************************************************************* //
