/*--------------------------------*- C++ -*----------------------------------*\
| =========                 |                                                 |
| \\      /  F ield         | OpenFOAM: The Open Source CFD Toolbox           |
|  \\    /   O peration     | Version:                                        |
|   \\  /    A nd           | Website:  www.openfoam.com                      |
|    \\/     M anipulation  |                                                 |
\*---------------------------------------------------------------------------*/
FoamFile
{
    version     2.0;
    format      ascii;
    class       volVectorField;
    location    "140";
    object      U;
}
// * * * * * * * * * * * * * * * * * * * * * * * * * * * * * * * * * * * * * //

dimensions      [0 1 -1 0 0 0 0];


internalField   nonuniform List<vector> 
250
(
(1.81187 -0.00172978 1.46886e-15)
(1.8173 -0.00167027 1.7905e-15)
(1.82254 -0.00161294 2.26377e-15)
(1.8276 -0.00155768 2.32801e-15)
(1.83248 -0.00150442 2.01798e-15)
(1.8372 -0.00145308 3.11604e-15)
(1.84176 -0.00140359 3.66962e-15)
(1.84615 -0.00135588 3.33663e-15)
(1.8504 -0.00130988 3.70687e-15)
(1.85451 -0.00126553 3.59909e-15)
(1.85848 -0.00122276 2.53205e-15)
(1.86231 -0.00118152 3.42832e-15)
(1.86601 -0.00114174 1.95316e-15)
(1.86959 -0.00110337 2.49967e-15)
(1.87304 -0.00106635 2.29128e-15)
(1.87638 -0.00103064 1.68345e-15)
(1.87961 -0.000996191 1.67889e-15)
(1.88273 -0.000962948 2.7179e-15)
(1.88575 -0.00093087 3.01441e-15)
(1.88866 -0.000899912 2.32353e-15)
(1.89148 -0.000870032 3.94594e-15)
(1.89421 -0.000841192 3.40352e-15)
(1.89684 -0.000813352 3.7907e-15)
(1.89939 -0.000786475 1.71511e-15)
(1.90185 -0.000760525 4.19234e-15)
(1.90423 -0.00073547 2.87569e-15)
(1.90653 -0.000711276 3.38763e-15)
(1.90876 -0.000687911 1.72123e-15)
(1.91091 -0.000665345 4.21487e-15)
(1.913 -0.000643549 2.66548e-15)
(1.91501 -0.000622496 1.89174e-15)
(1.91696 -0.000602159 2.05615e-15)
(1.91884 -0.000582511 2.78724e-15)
(1.92067 -0.000563528 1.6762e-15)
(1.92243 -0.000545186 2.65315e-15)
(1.92414 -0.000527462 1.41079e-15)
(1.92579 -0.000510335 2.20959e-15)
(1.92739 -0.000493783 1.87537e-15)
(1.92893 -0.000477785 2.63271e-15)
(1.93043 -0.000462323 2.19461e-15)
(1.93188 -0.000447376 8.98432e-16)
(1.93328 -0.000432928 5.77302e-16)
(1.93463 -0.000418961 1.46663e-15)
(1.93594 -0.000405457 1.12158e-15)
(1.93721 -0.000392401 1.23091e-15)
(1.93844 -0.000379777 2.80172e-15)
(1.93963 -0.000367571 2.97234e-15)
(1.94078 -0.000355768 2.29314e-15)
(1.94189 -0.000344354 1.2902e-15)
(1.94297 -0.000333315 3.15675e-15)
(1.79358 -0.00432287 6.86813e-15)
(1.79849 -0.0041728 6.82602e-15)
(1.80322 -0.0040283 7.47226e-15)
(1.80778 -0.00388914 7.58634e-15)
(1.81218 -0.00375512 8.05709e-15)
(1.81643 -0.00362603 7.93666e-15)
(1.82053 -0.00350167 8.53688e-15)
(1.82449 -0.00338185 7.48283e-15)
(1.82831 -0.0032664 8.08766e-15)
(1.832 -0.00315514 7.51932e-15)
(1.83557 -0.0030479 7.08768e-15)
(1.83901 -0.00294454 6.92363e-15)
(1.84233 -0.0028449 6.45309e-15)
(1.84554 -0.00274883 6.36207e-15)
(1.84864 -0.00265619 6.11678e-15)
(1.85163 -0.00256686 6.31898e-15)
(1.85453 -0.0024807 6.28475e-15)
(1.85732 -0.0023976 6.08052e-15)
(1.86002 -0.00231744 6.61225e-15)
(1.86263 -0.0022401 5.39042e-15)
(1.86516 -0.00216547 6.76693e-15)
(1.86759 -0.00209346 6.56162e-15)
(1.86995 -0.00202397 6.8876e-15)
(1.87223 -0.0019569 5.79806e-15)
(1.87443 -0.00189216 6.72374e-15)
(1.87656 -0.00182967 6.46132e-15)
(1.87862 -0.00176933 6.88556e-15)
(1.88061 -0.00171108 5.68028e-15)
(1.88254 -0.00165482 6.71912e-15)
(1.8844 -0.0016005 6.61345e-15)
(1.8862 -0.00154804 5.88259e-15)
(1.88794 -0.00149737 5.89894e-15)
(1.88962 -0.00144843 5.43993e-15)
(1.89125 -0.00140114 4.85707e-15)
(1.89283 -0.00135547 5.15867e-15)
(1.89435 -0.00131133 5.30827e-15)
(1.89583 -0.00126869 4.3937e-15)
(1.89725 -0.00122749 4.56973e-15)
(1.89863 -0.00118767 4.80791e-15)
(1.89997 -0.00114918 4.20856e-15)
(1.90126 -0.00111199 3.64973e-15)
(1.90251 -0.00107603 3.72178e-15)
(1.90372 -0.00104128 3.67379e-15)
(1.90489 -0.00100768 4.1528e-15)
(1.90602 -0.000975205 3.93769e-15)
(1.90712 -0.000943803 4.55156e-15)
(1.90818 -0.000913442 4.45878e-15)
(1.90921 -0.000884084 4.3644e-15)
(1.9102 -0.000855697 3.06062e-15)
(1.91116 -0.000828245 4.54525e-15)
(1.74991 -0.0061554 1.21576e-14)
(1.75374 -0.00593649 1.19784e-14)
(1.75743 -0.00572617 1.20445e-14)
(1.76098 -0.00552406 1.21898e-14)
(1.76441 -0.0053298 1.20448e-14)
(1.76771 -0.00514303 1.21991e-14)
(1.77089 -0.00496342 1.22026e-14)
(1.77396 -0.00479067 1.17115e-14)
(1.77692 -0.00462448 1.173e-14)
(1.77977 -0.00446456 1.16019e-14)
(1.78252 -0.00431064 1.11183e-14)
(1.78517 -0.00416247 1.06894e-14)
(1.78774 -0.00401982 1.08194e-14)
(1.79021 -0.00388244 1.05236e-14)
(1.79259 -0.00375012 1.0365e-14)
(1.7949 -0.00362265 1.01561e-14)
(1.79712 -0.00349984 9.71907e-15)
(1.79926 -0.00338148 9.80782e-15)
(1.80134 -0.00326741 9.7124e-15)
(1.80334 -0.00315745 9.14221e-15)
(1.80527 -0.00305144 8.96925e-15)
(1.80714 -0.00294921 8.95505e-15)
(1.80895 -0.00285062 8.88091e-15)
(1.81069 -0.00275553 8.86911e-15)
(1.81237 -0.0026638 8.68541e-15)
(1.814 -0.0025753 8.69767e-15)
(1.81558 -0.00248991 8.37188e-15)
(1.8171 -0.0024075 8.05396e-15)
(1.81857 -0.00232797 7.88278e-15)
(1.81999 -0.0022512 7.96579e-15)
(1.82136 -0.00217709 8.08343e-15)
(1.82269 -0.00210553 7.49713e-15)
(1.82398 -0.00203644 7.25403e-15)
(1.82522 -0.00196972 7.27853e-15)
(1.82642 -0.00190529 7.16923e-15)
(1.82758 -0.00184306 6.79823e-15)
(1.82871 -0.00178294 6.64479e-15)
(1.82979 -0.00172487 6.71928e-15)
(1.83084 -0.00166876 6.58781e-15)
(1.83186 -0.00161455 6.03625e-15)
(1.83285 -0.00156217 6.33559e-15)
(1.8338 -0.00151154 6.03231e-15)
(1.83472 -0.00146262 5.88079e-15)
(1.83561 -0.00141534 6.03782e-15)
(1.83647 -0.00136963 5.82633e-15)
(1.83731 -0.00132545 5.33956e-15)
(1.83811 -0.00128274 5.19563e-15)
(1.83889 -0.00124145 5.65797e-15)
(1.83965 -0.00120153 5.25891e-15)
(1.84038 -0.00116293 5.51611e-15)
(1.6748 -0.00720126 1.69493e-14)
(1.67723 -0.00693728 1.67573e-14)
(1.67957 -0.00668439 1.64856e-14)
(1.68181 -0.00644202 1.62783e-14)
(1.68397 -0.00620966 1.58545e-14)
(1.68604 -0.0059868 1.59999e-14)
(1.68804 -0.00577297 1.50503e-14)
(1.68996 -0.00556773 1.44768e-14)
(1.69181 -0.00537068 1.42663e-14)
(1.69359 -0.00518142 1.37791e-14)
(1.6953 -0.0049996 1.3729e-14)
(1.69695 -0.00482486 1.36477e-14)
(1.69854 -0.00465688 1.32021e-14)
(1.70007 -0.00449536 1.28073e-14)
(1.70155 -0.00434 1.2644e-14)
(1.70298 -0.00419054 1.25516e-14)
(1.70435 -0.00404671 1.20589e-14)
(1.70568 -0.00390826 1.18472e-14)
(1.70695 -0.00377497 1.09577e-14)
(1.70819 -0.00364661 1.14067e-14)
(1.70938 -0.00352299 1.04963e-14)
(1.71053 -0.00340388 1.10882e-14)
(1.71164 -0.00328912 9.9842e-15)
(1.71271 -0.00317852 1.03462e-14)
(1.71374 -0.0030719 9.62751e-15)
(1.71474 -0.00296912 1.04528e-14)
(1.71571 -0.00287 9.69815e-15)
(1.71664 -0.00277442 9.7704e-15)
(1.71754 -0.00268222 9.17281e-15)
(1.71841 -0.00259327 9.48463e-15)
(1.71925 -0.00250745 9.34919e-15)
(1.72007 -0.00242463 8.30213e-15)
(1.72085 -0.0023447 8.26721e-15)
(1.72161 -0.00226755 8.29922e-15)
(1.72235 -0.00219307 8.03427e-15)
(1.72306 -0.00212116 7.78325e-15)
(1.72374 -0.00205173 7.81259e-15)
(1.72441 -0.00198467 7.53158e-15)
(1.72505 -0.00191991 7.70175e-15)
(1.72567 -0.00185735 7.16128e-15)
(1.72627 -0.00179692 7.30011e-15)
(1.72685 -0.00173854 6.77153e-15)
(1.72741 -0.00168213 6.94976e-15)
(1.72796 -0.00162762 6.499e-15)
(1.72848 -0.00157495 6.6355e-15)
(1.72899 -0.00152404 6.15633e-15)
(1.72948 -0.00147484 6.78564e-15)
(1.72996 -0.00142727 6.21017e-15)
(1.73042 -0.0013813 5.96478e-15)
(1.73087 -0.00133685 6.18583e-15)
(1.55981 -0.00712336 1.97261e-14)
(1.56078 -0.00685405 1.87264e-14)
(1.56171 -0.00659682 1.81551e-14)
(1.56259 -0.00635099 1.75384e-14)
(1.56344 -0.00611593 1.70922e-14)
(1.56424 -0.00589103 1.6799e-14)
(1.56502 -0.00567575 1.62835e-14)
(1.56576 -0.00546958 1.5674e-14)
(1.56648 -0.00527204 1.53784e-14)
(1.56716 -0.00508269 1.47191e-14)
(1.56782 -0.0049011 1.4344e-14)
(1.56845 -0.00472689 1.40967e-14)
(1.56906 -0.00455969 1.38249e-14)
(1.56964 -0.00439916 1.32618e-14)
(1.5702 -0.00424498 1.30613e-14)
(1.57074 -0.00409684 1.30496e-14)
(1.57126 -0.00395447 1.24547e-14)
(1.57176 -0.0038176 1.21299e-14)
(1.57224 -0.00368597 1.18264e-14)
(1.5727 -0.00355934 1.10496e-14)
(1.57315 -0.0034375 1.14208e-14)
(1.57358 -0.00332022 1.07684e-14)
(1.57399 -0.00320732 1.07807e-14)
(1.57439 -0.0030986 9.84338e-15)
(1.57478 -0.00299388 1.04004e-14)
(1.57515 -0.002893 9.9245e-15)
(1.57551 -0.00279578 1.00075e-14)
(1.57586 -0.00270209 9.16022e-15)
(1.57619 -0.00261177 9.30039e-15)
(1.57652 -0.00252468 8.99937e-15)
(1.57683 -0.0024407 8.74722e-15)
(1.57713 -0.0023597 8.45008e-15)
(1.57742 -0.00228156 8.17825e-15)
(1.5777 -0.00220617 8.30034e-15)
(1.57797 -0.00213342 8.02886e-15)
(1.57824 -0.0020632 8.10015e-15)
(1.57849 -0.00199543 8.07764e-15)
(1.57873 -0.00193 7.85078e-15)
(1.57897 -0.00186683 7.49885e-15)
(1.5792 -0.00180583 7.34989e-15)
(1.57942 -0.00174691 7.39511e-15)
(1.57964 -0.00169001 7.22733e-15)
(1.57984 -0.00163505 7.11241e-15)
(1.58004 -0.00158195 7.00567e-15)
(1.58024 -0.00153065 6.30561e-15)
(1.58042 -0.00148108 6.73049e-15)
(1.58061 -0.00143318 6.29077e-15)
(1.58078 -0.00138688 6.56999e-15)
(1.58095 -0.00134214 5.75882e-15)
(1.58111 -0.00129889 6.40008e-15)
)
;

boundaryField
{
    inlet
    {
        type            fixedValue;
        value           nonuniform 0();
    }
    outlet
    {
        type            zeroGradient;
    }
    wall
    {
        type            noSlip;
    }
    back
    {
        type            wedge;
    }
    front
    {
        type            wedge;
    }
    axis
    {
        type            empty;
    }
    procBoundary1to0
    {
        type            processor;
        value           nonuniform List<vector> 5((1.80625 -0.00179152 1.84186e-15) (1.7885 -0.00447875 7.89904e-15) (1.74593 -0.00638333 1.29835e-14) (1.67227 -0.00747694 1.71988e-14) (1.5588 -0.00740549 2.02783e-14));
    }
    procBoundary1to2
    {
        type            processor;
        value           nonuniform List<vector> 5((1.94401 -0.000322639 2.09187e-15) (1.91209 -0.000801698 3.34003e-15) (1.84109 -0.0011256 4.98144e-15) (1.7313 -0.00129388 5.98922e-15) (1.58127 -0.00125708 5.77634e-15));
    }
    procBoundary1to5
    {
        type            processor;
        value           nonuniform List<vector> 
50
(
(1.39704 -0.00607605 1.70513e-14)
(1.39676 -0.00584057 1.64346e-14)
(1.39649 -0.00561621 1.57778e-14)
(1.39623 -0.00540229 1.54879e-14)
(1.39597 -0.00519818 1.52823e-14)
(1.39572 -0.0050033 1.47593e-14)
(1.39547 -0.00481712 1.45556e-14)
(1.39524 -0.00463913 1.41178e-14)
(1.395 -0.00446889 1.35782e-14)
(1.39478 -0.00430595 1.33455e-14)
(1.39456 -0.00414994 1.30426e-14)
(1.39435 -0.00400047 1.28189e-14)
(1.39414 -0.0038572 1.26512e-14)
(1.39394 -0.00371982 1.23578e-14)
(1.39375 -0.00358803 1.21388e-14)
(1.39356 -0.00346154 1.19225e-14)
(1.39338 -0.00334009 1.14271e-14)
(1.3932 -0.00322345 1.12432e-14)
(1.39303 -0.00311137 1.11728e-14)
(1.39286 -0.00300365 1.06976e-14)
(1.3927 -0.00290008 1.05067e-14)
(1.39254 -0.00280046 1.02053e-14)
(1.39239 -0.00270463 9.83075e-15)
(1.39225 -0.0026124 9.6513e-15)
(1.3921 -0.00252362 9.4665e-15)
(1.39197 -0.00243814 9.33096e-15)
(1.39183 -0.00235582 9.02798e-15)
(1.3917 -0.00227651 8.72828e-15)
(1.39158 -0.0022001 8.54378e-15)
(1.39146 -0.00212645 8.51666e-15)
(1.39134 -0.00205546 8.0026e-15)
(1.39123 -0.00198701 7.84471e-15)
(1.39112 -0.00192101 7.73917e-15)
(1.39101 -0.00185734 7.62869e-15)
(1.39091 -0.00179593 7.58579e-15)
(1.39081 -0.00173667 7.56943e-15)
(1.39071 -0.00167949 7.25418e-15)
(1.39062 -0.0016243 7.18388e-15)
(1.39053 -0.00157103 6.95186e-15)
(1.39044 -0.0015196 6.86985e-15)
(1.39036 -0.00146994 6.67953e-15)
(1.39027 -0.00142199 6.69739e-15)
(1.39019 -0.00137567 6.38607e-15)
(1.39012 -0.00133094 6.45659e-15)
(1.39004 -0.00128772 6.24815e-15)
(1.38997 -0.00124597 6.05577e-15)
(1.3899 -0.00120563 6.21205e-15)
(1.38983 -0.00116665 5.90172e-15)
(1.38977 -0.00112898 5.53158e-15)
(1.38971 -0.00109257 5.74705e-15)
)
;
    }
}


// ************************************************************************* //
