/*--------------------------------*- C++ -*----------------------------------*\
| =========                 |                                                 |
| \\      /  F ield         | OpenFOAM: The Open Source CFD Toolbox           |
|  \\    /   O peration     | Version:                                        |
|   \\  /    A nd           | Website:  www.openfoam.com                      |
|    \\/     M anipulation  |                                                 |
\*---------------------------------------------------------------------------*/
FoamFile
{
    version     2.0;
    format      ascii;
    class       surfaceScalarField;
    location    "192";
    object      phi;
}
// * * * * * * * * * * * * * * * * * * * * * * * * * * * * * * * * * * * * * //

dimensions      [0 3 -1 0 0 0 0];
oriented        oriented;


internalField   nonuniform List<scalar> 
2227
(
0.0481218
0.00422029
-0.0511849
0.0451715
0.00417483
0.00417863
0.0480043
0.00727721
-0.0510613
0.0450443
0.00713484
0.00705968
0.0475784
0.010311
-0.0506122
0.0446327
0.0100806
0.0467392
0.013298
-0.0497262
0.0129802
0.0456026
0.0161897
-0.0484944
-0.0468136
0.0538843
-0.000743463
0.0537059
0.00212803
0.0545834
0.00047867
0.0545047
-0.000672548
0.0552027
-0.000737292
0.055124
7.58998e-05
0.0556765
-0.00116967
0.0555784
0.00115403
0.0560193
0.000552277
0.0559204
0.000596942
0.0562505
0.00109941
0.0562136
0.00102535
0.056403
0.000433767
0.0563171
0.000808959
0.0564476
0.000466639
0.056333
0.000626437
0.0563526
0.000418576
0.0561853
0.000693718
0.0561182
0.000644308
0.0558695
0.000905754
0.0556891
0.000920038
0.0553541
0.00117205
0.0550609
0.00123703
0.0546302
0.00146169
0.0542251
0.00153197
0.0536925
0.00172977
0.0531742
0.00179309
0.0525379
0.0019629
0.0519103
0.00200784
0.00214867
0.0538619
-0.00157232
0.0535934
0.00239644
0.0544856
-0.000413485
0.0544695
-0.000656463
0.055127
-0.00139481
0.0550784
0.00012454
0.055573
-0.00166432
0.055405
0.00132209
0.055856
0.000101274
0.0556877
0.000765233
0.0560059
0.000781232
0.056021
0.00101022
0.0561775
0.000277223
0.0561147
0.000871788
0.0562766
0.000304729
0.0561764
0.000726687
0.056207
0.000387988
0.0560517
0.000849037
0.0560008
0.000695116
0.0557529
0.00115365
0.0555807
0.00109231
0.0552471
0.00150566
0.0549664
0.00151766
0.0545401
0.00188798
0.0541479
0.00192422
0.0536221
0.00225561
0.053111
0.00230411
0.0524709
0.00260306
0.0518308
0.00264797
0.00291816
0.0537974
-0.0023367
0.0534242
0.00276965
0.0543073
-0.00129657
0.0543357
-0.000684909
0.0549209
-0.00198003
0.0548847
0.000160785
0.0552844
-0.00206404
0.0550411
0.0015654
0.0554747
-0.000332335
0.0552271
0.00101284
0.0555344
0.000473953
0.055577
0.000967577
0.0556947
0.000159494
0.0556479
0.000918641
0.0558306
0.000121962
0.0557245
0.000832849
0.055765
0.000347462
0.0556084
0.00100567
0.0555584
0.000745073
0.0553074
0.00140468
0.0551293
0.00127041
0.054789
0.00184598
0.0545095
0.00179715
0.0540797
0.00231776
0.0536917
0.0023122
0.0531653
0.00278206
0.0526609
0.0028085
0.0520231
0.00324083
0.0513876
0.00328346
0.00369359
0.0536903
-0.00299398
0.0531978
0.00326209
0.0540545
-0.00215325
0.0541067
-0.00073707
0.0545888
-0.00246212
0.0545378
0.000211721
0.0548132
-0.00233936
0.0544818
0.00189672
0.0548791
-0.000729547
0.0545297
0.00136223
0.0548534
0.000150258
0.0548832
0.000937737
0.0549692
7.34957e-05
0.0549356
0.000952269
0.0551181
-6.05572e-05
0.0549954
0.00095551
0.0550309
0.000311977
0.0548639
0.00117273
0.0547916
0.000817389
0.0545129
0.00168333
0.0543203
0.00146304
0.0539481
0.00221816
0.053652
0.00209326
0.053205
0.00276475
0.0528071
0.00271003
0.0522696
0.00331958
0.0517628
0.00331528
0.051124
0.0038797
0.050494
0.00391343
0.00446143
0.0535396
-0.00350054
0.05292
0.00388164
0.0537298
-0.00296306
0.053786
-0.000793264
0.054128
-0.00280412
0.0540421
0.000297592
0.0541504
-0.00244764
0.0537453
0.00230185
0.0540588
-0.00104305
0.053615
0.00180604
0.0539652
-0.00019997
0.0539603
0.000942584
0.0539787
5.51552e-05
0.0539816
0.000949309
0.054127
-0.000205903
0.0539763
0.0011062
0.0540034
0.000284856
0.0537977
0.00137844
0.0536928
0.000922267
0.0533654
0.00201073
0.0531407
0.00168776
0.0527349
0.00262395
0.0524147
0.00241344
0.0519417
0.00323777
0.0515411
0.00311064
0.0509949
0.00386576
0.0505021
0.0038081
0.0498646
0.00451718
0.0492604
0.00451764
0.00522747
0.0533474
-0.00381498
0.0525941
0.00463498
0.0533419
-0.00371087
0.0533761
-0.000827437
0.0535432
-0.00297125
0.053387
0.00045386
0.0533127
-0.00237334
0.0528133
0.00280121
0.0530417
-0.00127142
0.0524845
0.00236326
0.0529048
-0.000620321
0.0527856
0.00106182
0.0528022
3.85099e-05
0.0527896
0.000961955
0.0528652
-0.000281552
0.0526942
0.00127723
0.0526815
0.000297544
0.0524001
0.00165983
0.0522499
0.00107245
0.0518518
0.0024089
0.0515734
0.00196608
0.0511054
0.00309203
0.0507583
0.00276052
0.050246
0.00375005
0.0498279
0.00352876
0.0492733
0.00442039
0.0487787
0.00430264
0.0481548
0.0051411
0.047558
0.00511442
0.00597188
0.0531105
-0.00389247
0.052233
0.00551247
0.0528967
-0.00437456
0.0528845
-0.000815235
0.0528308
-0.0029176
0.0525844
0.000700325
0.0522789
-0.0020679
0.0517291
0.00335103
0.0518048
-0.0013471
0.0511835
0.00298458
0.0516405
-0.00107732
0.0514249
0.00127741
0.0513555
0.000107871
0.0513963
0.000921177
0.0513219
-0.000207173
0.0511539
0.00144529
0.051069
0.000382367
0.0507184
0.00201047
0.0504691
0.00132179
0.0500022
0.00287576
0.0496686
0.00229967
0.0491467
0.00361393
0.0487645
0.0031427
0.0482358
0.0042788
0.0478178
0.00394677
0.0472571
0.00498103
0.0467857
0.00477403
0.0461932
0.00573363
0.0456555
0.00565216
0.0528239
-0.00368335
0.0518392
0.00649718
0.0524121
-0.0049475
0.052307
-0.000710153
0.0519981
-0.00260863
0.051625
0.0010734
0.0510778
-0.00152073
0.0504554
0.00397346
0.0504049
-0.00129665
0.0497329
0.00365658
0.0502221
-0.00156651
0.0498018
0.00169771
0.0497781
0.00013164
0.0497331
0.000966149
0.049557
-3.10957e-05
0.0493201
0.00168223
0.0491359
0.000566519
0.0487004
0.00244598
0.0483404
0.0016818
0.0477448
0.00347135
0.0473683
0.00267618
0.0467612
0.004221
0.046378
0.00352596
0.0457978
0.00485897
0.0454059
0.00433861
0.0448016
0.00558536
0.0443589
0.0052167
0.0437676
0.00632499
0.00613164
0.052486
-0.00313638
0.0514075
0.0075757
0.0518763
-0.0054163
0.0516482
-0.000481991
0.0510245
-0.00198496
0.0505295
0.00156835
0.0496765
-0.000667743
0.0490357
0.00461431
0.0487685
-0.00102945
0.0481858
0.00423926
0.0485864
-0.00196709
0.0479513
0.00233277
0.0479593
0.00012369
0.0478307
0.00109467
0.0475176
0.000282095
0.0473144
0.00188536
0.0468741
0.00100681
0.046392
0.00292809
0.0458751
0.00219873
0.0452201
0.00412632
0.0447305
0.00316588
0.0441245
0.0048269
0.0436677
0.00398277
0.0431369
0.00538984
0.0427167
0.0047588
0.0421749
0.00612713
0.0417085
0.00568309
0.0410995
0.00693407
0.0521467
-0.00225007
0.0509484
0.00877403
0.0513093
-0.00577724
0.0509355
-0.000108156
0.0499256
-0.000975099
0.04933
0.00216398
0.0482059
0.000456337
0.0474985
0.00532167
0.0470893
-0.000620191
0.0465373
0.00479122
0.0468909
-0.00232067
0.0459946
0.00322907
0.0458896
0.00022872
0.0456843
0.00129996
0.0452954
0.000670952
0.0449277
0.00225312
0.0443903
0.0015442
0.0437427
0.0035757
0.04299
0.00295138
0.0423117
0.00480461
0.0417694
0.00370823
0.0410666
0.00552969
0.0407125
0.00433686
0.0401026
0.00599971
0.0398027
0.00505874
0.0391911
0.00673869
0.0391487
0.00572551
0.00750396
0.0476425
-0.00206401
0.0473805
0.00903603
0.0481258
-0.00652252
0.0483975
-0.000379839
0.0479183
-0.000495894
0.0480631
0.00201921
0.0474802
0.0010392
0.047335
0.00546689
0.0473275
-0.000612701
0.0472784
0.00484028
0.0478273
-0.00286952
0.0472996
0.00375671
0.0475408
-1.24104e-05
0.047582
0.00125873
0.0476771
0.000575823
0.0476029
0.00232738
0.0474328
0.00171423
0.047336
0.00367253
0.0468923
0.00339504
0.0467753
0.00492164
0.0464919
0.00399168
0.046429
0.00559255
0.0464534
0.00431247
0.0463342
0.00611894
0.0465319
0.004861
0.0464576
0.00681301
0.0468887
0.0052944
0.00734586
0.0508897
-0.00180566
0.0508917
0.00903403
0.0512981
-0.00692894
0.0515525
-0.000634273
0.0510606
-3.92476e-06
0.0513154
0.00176435
0.0506458
0.00170884
0.0507163
0.00539632
0.050531
-0.000427374
0.0508372
0.00453407
0.0507763
-0.00280862
0.0504794
0.00405363
0.0507084
-0.000241391
0.0508973
0.00106979
0.050707
0.000766139
0.0509726
0.00206178
0.0503986
0.00228828
0.0505549
0.00351616
0.049973
0.00397702
0.0502064
0.00468815
0.0496623
0.00453583
0.0500474
0.00520744
0.0497331
0.00462674
0.0501497
0.00570242
0.0499604
0.00505029
0.0505193
0.00625411
0.0506142
0.0051995
0.00651247
0.0544934
-0.00160119
0.0547771
0.00875026
0.0545493
-0.00670109
0.0547494
-0.000834416
0.054411
0.000334469
0.0546394
0.00153598
0.0541492
0.00219907
0.0543906
0.00515493
0.0540718
-0.00010865
0.054508
0.00409788
0.0539622
-0.00226279
0.0539874
0.00402846
0.0539433
-0.000197371
0.0542643
0.000748783
0.0538401
0.00119037
0.0542281
0.00167383
0.0535644
0.00295198
0.053759
0.00332155
0.0532994
0.00443661
0.0536566
0.0043309
0.053249
0.0049435
0.053651
0.00480545
0.0534203
0.00485739
0.0538989
0.00522384
0.0538313
0.00511789
0.0543935
0.00569191
0.0545893
0.00500371
0.00588415
0.0584222
-0.00152936
0.0589554
0.00821703
0.0580452
-0.00579091
0.058208
-0.00099721
0.0580463
0.000496213
0.0582479
0.00133435
0.0580812
0.00236582
0.0584699
0.0047662
0.0579785
0.000382693
0.0583883
0.00368811
0.057762
-0.00163646
0.0580033
0.00378721
0.0574512
0.000354672
0.0577617
0.000438276
0.0573578
0.00159426
0.0576302
0.00140146
0.0572509
0.0033313
0.0573791
0.00319334
0.0571127
0.00470302
0.0573716
0.00407198
0.0572931
0.00502202
0.057531
0.00456755
0.0575248
0.00486353
0.057878
0.00487065
0.0580895
0.00490643
0.0584599
0.00532147
0.0588341
0.00462952
0.00539912
0.0625706
-0.0015463
0.0633591
0.00742855
0.0619431
-0.00437494
0.0619937
-0.00104778
0.0620108
0.000479088
0.0622216
0.00112357
0.0623376
0.00224984
0.0628719
0.00423189
0.0622275
0.00102708
0.0625675
0.00334813
0.0620405
-0.00110947
0.062327
0.00350064
0.0614105
0.00127126
0.0614766
0.000372114
0.0612799
0.00179096
0.0613827
0.00129869
0.0614051
0.00330891
0.0614756
0.00312286
0.0615133
0.00466528
0.0615457
0.00403957
0.0616879
0.0048798
0.0618471
0.00440839
0.0620156
0.00469498
0.0622964
0.00458988
0.0627013
0.0045015
0.0630207
0.00500212
0.0634424
0.00420779
0.00492598
0.0669212
-0.00157243
0.067941
0.00640874
0.0662535
-0.0026874
0.0661266
-0.000920868
0.0663029
0.000302747
0.0664942
0.000932267
0.0668108
0.00193326
0.0674364
0.00360627
0.0667882
0.00167527
0.0669774
0.00315891
0.0665463
-0.000678325
0.0668333
0.00321362
0.0658286
0.00227598
0.0655536
0.000647142
0.0655603
0.00178421
0.0654889
0.00137013
0.0658631
0.00293466
0.0659025
0.00308345
0.0662437
0.00432412
0.0662284
0.00405488
0.0664117
0.00469649
0.0665637
0.0042564
0.0668138
0.0044448
0.0670341
0.00436965
0.0675028
0.00403277
0.0679018
0.00460314
0.0683249
0.00378472
0.00441728
0.071541
-0.00157566
0.0726074
0.0053423
0.070939
-0.00101891
0.0707043
-0.000686227
0.0709588
4.82838e-05
0.0710837
0.000807314
0.0715301
0.0014869
0.0720678
0.00306858
0.0716526
0.0020904
0.0715815
0.00323002
0.0711981
-0.00029487
0.071504
0.00290766
0.0706807
0.00309933
0.0701949
0.00113293
0.0702252
0.00175392
0.0700409
0.00155445
0.070568
0.00240758
0.0706332
0.00301821
0.0711246
0.00383272
0.071222
0.00395748
0.0714654
0.0044531
0.0715896
0.00413217
0.0718929
0.00414155
0.0720852
0.00417728
0.0724968
0.00362124
0.07297
0.00412988
0.0733644
0.00339038
0.0038728
0.0764991
-0.00157209
0.0773595
0.00448193
0.0759685
0.000372091
0.0757748
-0.000492503
0.0760445
-0.000221486
0.0760648
0.000787005
0.0765794
0.000972299
0.0768454
0.00280263
0.0767477
0.00218805
0.0764924
0.00348539
0.0759752
0.000222326
0.0764108
0.00247204
0.0759271
0.003583
0.0753915
0.00166856
0.0753848
0.00176065
0.0751268
0.00181238
0.0755894
0.00194497
0.0757364
0.00287121
0.0762236
0.00334551
0.0764597
0.00372147
0.0768247
0.00408806
0.0769542
0.00400268
0.077296
0.00379973
0.0774893
0.00398404
0.0777879
0.00332258
0.0782214
0.00369643
0.0785672
0.00304453
0.00336375
0.0818213
-0.00158119
0.0822979
0.00400533
0.0814004
0.00126959
0.0813394
-0.000431499
0.0815511
-0.000433231
0.0815014
0.000836713
0.0819354
0.000538315
0.0819351
0.00280297
0.0820302
0.00209289
0.0817623
0.00375337
0.0810774
0.000907205
0.0815499
0.00199952
0.0814828
0.00365009
0.0810571
0.00209429
0.0810358
0.00178191
0.0808021
0.00204606
0.0810409
0.00170625
0.081268
0.00264401
0.0816978
0.00291577
0.0820004
0.00341881
0.0824549
0.00363358
0.0826426
0.00381496
0.0829816
0.00346077
0.083215
0.00375066
0.0834338
0.00310381
0.0837776
0.00335254
0.0840526
0.00276962
0.00295708
0.0874776
-0.00156863
0.0875608
0.00392219
0.087205
0.00162532
0.0873484
-0.000574904
0.0873985
-0.000483299
0.0873857
0.00084951
0.0875897
0.000334271
0.0873886
0.00300416
0.0875604
0.00192105
0.0873956
0.00391816
0.0867011
0.00160166
0.0870383
0.00166235
0.0873359
0.00335247
0.0871242
0.00230607
0.0871035
0.00180257
0.086994
0.00215555
0.0869951
0.00170512
0.0872292
0.00240992
0.0875721
0.00257292
0.0878873
0.00310363
0.0883411
0.00317969
0.0886009
0.00355516
0.0889227
0.00313898
0.0891974
0.00347599
0.0893965
0.00290474
0.0896602
0.00308879
0.0898636
0.00256625
0.00265931
0.0934734
-0.0014798
0.0932325
0.00416313
0.0934379
0.00141991
0.0937944
-0.000931383
0.093588
-0.000276952
0.0936354
0.00080213
0.0935532
0.000416493
0.0932224
0.00333495
0.093407
0.00173648
0.0933797
0.00394542
0.0929011
0.00208028
0.0930402
0.00152317
0.0935459
0.00284679
0.0935548
0.00229719
0.0935356
0.00182173
0.0936052
0.002086
0.0934624
0.0018479
0.0936418
0.00223056
0.0938585
0.00235621
0.0941384
0.00282369
0.0945096
0.00280856
0.0948052
0.00325957
0.0950897
0.00285445
0.0953705
0.00319516
0.0955806
0.00269467
0.0958053
0.00286407
0.0959886
0.00238295
0.00243572
0.099865
-0.00128902
0.0995096
0.0045185
0.100101
0.000828214
0.100542
-0.00137221
0.10016
0.000104694
0.100196
0.000766461
0.0998904
0.000722203
0.0995489
0.00367648
0.0996691
0.00161625
0.0998116
0.00380296
0.0996386
0.00225324
0.0995976
0.00156425
0.100158
0.00228592
0.100355
0.00210058
0.100327
0.00184947
0.100519
0.0018947
0.100375
0.00199165
0.100459
0.00214617
0.10055
0.00226541
0.10076
0.00261397
0.101017
0.00255163
0.101301
0.00297494
0.101538
0.00261822
0.101817
0.00291547
0.102037
0.00247524
0.102267
0.00263409
0.102454
0.00219581
0.00224253
0.106723
-0.00101199
0.106437
0.0048046
0.107184
8.09288e-05
0.10758
-0.00176853
0.107121
0.000563584
0.107129
0.00075916
0.106694
0.00115663
0.106446
0.00392454
0.106489
0.00157398
0.106718
0.00357324
0.106839
0.00213285
0.106743
0.00165952
0.107229
0.0018004
0.107517
0.00181201
0.10751
0.00185663
0.107717
0.00168836
0.10764
0.00206783
0.107691
0.002096
0.107681
0.00227512
0.107829
0.00246546
0.107973
0.00240833
0.108223
0.00272456
0.108415
0.00242652
0.10867
0.00266053
0.108886
0.0022593
0.109116
0.00240364
0.10932
0.00199176
0.00204944
0.114115
-0.000700828
0.114076
0.00484353
0.114704
-0.000546816
0.114879
-0.0019441
0.114487
0.000956116
0.114462
0.000784186
0.114055
0.00156306
0.113996
0.00398381
0.113968
0.0016018
0.114239
0.00330186
0.114505
0.00186767
0.114423
0.00174088
0.114761
0.00146286
0.115046
0.00152692
0.115068
0.00183432
0.115217
0.00153996
0.115218
0.00206668
0.115289
0.00202522
0.115268
0.00229549
0.115384
0.00234946
0.115478
0.00231492
0.115695
0.0025076
0.11586
0.00226131
0.116093
0.00242753
0.116294
0.00205788
0.116525
0.00217257
0.116734
0.00178323
0.00184724
0.122062
-0.000395633
0.122403
0.00450247
0.122725
-0.000869013
0.122525
-0.00174316
0.122301
0.00117927
0.122245
0.000840808
0.121996
0.00181173
0.122205
0.0037747
0.122146
0.0016609
0.122443
0.0030051
0.122691
0.00161921
0.122641
0.00179084
0.122804
0.00130003
0.122973
0.00135781
0.12303
0.00177717
0.123086
0.00148487
0.123155
0.00199766
0.123265
0.00191523
0.12332
0.00224045
0.123445
0.0022243
0.123555
0.00220503
0.123768
0.00229448
0.123942
0.0020866
0.124178
0.00219156
0.124373
0.00186383
0.124606
0.00193931
0.124803
0.00158559
0.00163623
0.130596
-0.000131713
0.131216
0.00388252
0.131245
-0.000898152
0.130762
-0.00125953
0.130685
0.00125634
0.130622
0.000903196
0.130548
0.00188606
0.130957
0.00336583
0.130927
0.00169088
0.131224
0.00270807
0.13139
0.00145282
0.131365
0.00181593
0.131395
0.00127047
0.131446
0.00130644
0.131524
0.00169953
0.131521
0.0014877
0.13162
0.00189852
0.131744
0.00179106
0.131888
0.00209628
0.132052
0.00206038
0.13221
0.00204727
0.132441
0.00206323
0.13264
0.00188784
0.132892
0.00193997
0.133088
0.00166731
0.133323
0.00170487
0.133507
0.0014012
0.00142606
0.139751
5.93157e-05
0.140479
0.0031551
0.140276
-0.000695287
0.139691
-0.000675085
0.139734
0.00121369
0.139673
0.000964477
0.13975
0.00180903
0.140231
0.00288399
0.140243
0.00167933
0.140521
0.00243015
0.140583
0.00139123
0.140601
0.00179738
0.140555
0.00131618
0.140534
0.00132797
0.140627
0.00160668
0.140612
0.00150191
0.140734
0.00177732
0.140855
0.00166961
0.141064
0.00188697
0.141264
0.00186042
0.141467
0.00184496
0.141708
0.00182154
0.141927
0.00166928
0.142186
0.00168078
0.142388
0.00146526
0.14262
0.00147301
0.142791
0.00123019
0.00122806
0.149542
0.000171442
0.150199
0.00249842
0.149893
-0.000389475
0.149392
-0.000173393
0.149491
0.00111394
0.149453
0.00100294
0.149606
0.00165589
0.150041
0.0024492
0.150081
0.00163877
0.150321
0.00219098
0.150323
0.00138825
0.15038
0.00174069
0.150332
0.00136484
0.150297
0.00136231
0.150398
0.00150612
0.150425
0.00147477
0.150564
0.00163788
0.150688
0.00154628
0.150913
0.00166152
0.151133
0.00164085
0.151358
0.00161932
0.151596
0.00158344
0.151814
0.00145195
0.152059
0.0014353
0.152256
0.00126892
0.152471
0.00125778
0.152628
0.0010728
0.00105392
0.159987
0.000224894
0.160515
0.00197084
0.160194
-6.83168e-05
0.159825
0.000195261
0.159945
0.000994314
0.159938
0.00101001
0.160114
0.0014797
0.160476
0.00208723
0.160542
0.00157288
0.160755
0.00197816
0.160742
0.00140105
0.16082
0.00166301
0.160807
0.00137704
0.160794
0.00137552
0.1609
0.00139998
0.160974
0.00140061
0.161131
0.00148156
0.161265
0.0014121
0.161478
0.00144861
0.161694
0.00142478
0.161917
0.00139595
0.162139
0.00136166
0.162339
0.00125203
0.162554
0.00122045
0.162732
0.00109066
0.162921
0.00106923
0.163063
0.000930381
0.000904293
0.171132
0.000241618
0.171509
0.00159303
0.171243
0.000198311
0.171013
0.000424487
0.171129
0.000878615
0.171154
0.000985675
0.171323
0.00130984
0.17161
0.00180021
0.171695
0.00148858
0.171881
0.00179174
0.171895
0.00138703
0.171993
0.00156559
0.17203
0.00133933
0.172067
0.0013387
0.172172
0.00129539
0.172279
0.00129309
0.172442
0.0013183
0.172587
0.00126788
0.172776
0.00125902
0.17297
0.00123111
0.173173
0.00119317
0.17337
0.00116402
0.173548
0.00107417
0.173728
0.00104023
0.173884
0.00093527
0.174042
0.000910652
0.174169
0.000804006
0.000777924
0.183026
0.000241559
0.183301
0.00131848
0.183117
0.000382815
0.182988
0.000552514
0.183087
0.000779673
0.183137
0.000936531
0.183285
0.00116146
0.183518
0.00156759
0.183619
0.00138732
0.183789
0.00162197
0.183841
0.00133418
0.183957
0.00144988
0.18403
0.00126678
0.184111
0.00125759
0.18422
0.00118597
0.184345
0.00116881
0.184505
0.00115832
0.18465
0.00112191
0.184821
0.0010884
0.184991
0.00106145
0.18517
0.00101426
0.185341
0.000992748
0.185498
0.00091689
0.18565
0.000888508
0.185784
0.000801269
0.185917
0.000777496
0.186028
0.00069294
0.000669657
0.195738
0.000232422
0.195944
0.00111211
0.195836
0.000491339
0.195782
0.000606055
0.195864
0.000698335
0.195931
0.00086904
0.196062
0.00103109
0.196255
0.00137395
0.196373
0.00127002
0.196534
0.00146057
0.196618
0.00124981
0.19675
0.00131803
0.196848
0.0011694
0.19696
0.00114514
0.197079
0.00106709
0.197209
0.00103837
0.197362
0.00100576
0.197506
0.000977251
0.197661
0.000933423
0.197812
0.000911393
0.197966
0.000859913
0.198115
0.000843903
0.198253
0.000778546
0.198384
0.000757243
0.198501
0.000684757
0.198615
0.000663682
0.198712
0.000595157
0.000575528
0.209325
0.000220282
0.209495
0.000942074
0.209451
0.000535312
0.209442
0.000615653
0.209508
0.000632093
0.209588
0.000789464
0.209708
0.000910739
0.209884
0.00119825
0.210014
0.00113973
0.210178
0.00129677
0.210283
0.00114464
0.210426
0.00117521
0.21054
0.00105511
0.210665
0.00101964
0.210791
0.000941266
0.210922
0.000907623
0.211067
0.000861258
0.211205
0.00083861
0.211348
0.000790977
0.211485
0.000774177
0.211621
0.000723525
0.211754
0.000711067
0.211877
0.000655952
0.211994
0.000639535
0.212098
0.000580921
0.2122
0.000562117
0.212287
0.000507592
0.000489567
0.223857
0.000203499
0.224003
0.000795978
0.224004
0.000533789
0.224032
0.000587748
0.224093
0.000571375
0.224177
0.000705563
0.224292
0.000795755
0.224454
0.00103621
0.224592
0.00100212
0.224761
0.00112774
0.224885
0.0010206
0.225036
0.00102425
0.225164
0.000926809
0.225297
0.000886626
0.225426
0.000812262
0.225556
0.000777751
0.225691
0.000726387
0.225822
0.000707024
0.225953
0.000660596
0.226079
0.00064785
0.2262
0.000602008
0.22632
0.000591674
0.22643
0.000545537
0.226538
0.000532165
0.226633
0.000485431
0.226726
0.000469068
0.226808
0.000425274
0.000408236
0.239395
0.000183196
0.239528
0.000663522
0.239564
0.000497671
0.239615
0.00053652
0.239676
0.000510856
0.239763
0.000617863
0.239874
0.000685335
0.240031
0.000879411
0.240173
0.000859566
0.240347
0.000953511
0.240488
0.000879664
0.240643
0.000869279
0.240782
0.000788068
0.240919
0.000749253
0.24105
0.00068223
0.241178
0.000649729
0.241304
0.000600099
0.241428
0.000582564
0.241547
0.000541571
0.241665
0.000530517
0.241775
0.000491841
0.241884
0.000481993
0.241985
0.000444762
0.242084
0.000432955
0.242173
0.000396395
0.242261
0.000381884
0.242339
0.000347353
0.000331668
0.256015
0.000156673
0.256133
0.000545076
0.256191
0.000440515
0.256258
0.000469401
0.25633
0.000438404
0.25642
0.000527842
0.25653
0.000575143
0.256682
0.000727273
0.256829
0.000712815
0.257004
0.000778867
0.257158
0.000725947
0.257315
0.000711546
0.257461
0.000642526
0.257601
0.00060904
0.257732
0.000550961
0.257859
0.000523479
0.25798
0.000478321
0.2581
0.000463033
0.258212
0.000429536
0.258322
0.000420155
0.258426
0.00038829
0.258528
0.000379446
0.258623
0.000349806
0.258716
0.000339926
0.258801
0.000311881
0.258883
0.000299994
0.258958
0.000272518
0.000259621
0.273784
0.000127018
0.273897
0.000432754
0.273966
0.000370879
0.274041
0.000394581
0.274115
0.00036421
0.274211
0.000431957
0.274328
0.00045793
0.274485
0.000570352
0.274638
0.000560117
0.274812
0.000604769
0.274973
0.000564759
0.275132
0.000552524
0.275279
0.000496366
0.275418
0.000469735
0.275547
0.000422163
0.27567
0.000400184
0.275787
0.000361645
0.275902
0.000347637
0.276014
0.000317932
0.276121
0.000312446
0.276222
0.000287274
0.276323
0.00027924
0.276417
0.000255192
0.276511
0.000246349
0.276599
0.000224075
0.276684
0.000214417
0.276763
0.000193987
0.000184052
0.292781
0.000100429
0.292892
0.000321666
0.292962
0.000300434
0.293043
0.00031369
0.293118
0.000289338
0.293226
0.000323657
0.293346
0.000338221
0.29351
0.000406189
0.293669
0.000401066
0.293849
0.000424881
0.294014
0.000399937
0.294176
0.000390382
0.294318
0.000353964
0.294455
0.000333641
0.294576
0.000300941
0.294693
0.000283318
0.294801
0.000253121
0.29491
0.000238687
0.295013
0.000215101
0.295121
0.000203874
0.295226
0.000182732
0.295334
0.000171751
0.295437
0.000152124
0.295541
0.000141486
0.295641
0.000124108
0.295741
0.000114516
0.295835
9.99634e-05
9.2226e-05
0.31312
5.2904e-05
0.313284
0.000157074
0.313428
0.000156287
0.313583
0.000159211
0.313719
0.000152723
0.313875
0.000167998
0.314036
0.00017764
0.314234
0.000207539
0.314427
0.000208074
0.314636
0.00021648
0.31483
0.000205528
0.315023
0.000197616
0.315197
0.000179382
0.315365
0.000166393
0.315515
0.000150417
0.315659
0.000139905
0.315785
0.000126669
0.315905
0.000118705
0.316011
0.000108631
0.316111
0.000104573
0.316198
9.55003e-05
0.31628
8.99724e-05
0.316351
8.10833e-05
0.316417
7.54952e-05
0.316474
6.72823e-05
0.316526
6.19943e-05
0.316571
5.47768e-05
5.01499e-05
0.334853
0.33501
0.335166
0.335326
0.335478
0.335646
0.335824
0.336031
0.33624
0.336456
0.336662
0.336859
0.337039
0.337205
0.337355
0.337495
0.337622
0.337741
0.337849
0.337954
0.338049
0.338139
0.33822
0.338296
0.338363
0.338425
0.33848
)
;

boundaryField
{
    outlet
    {
        type            calculated;
        value           nonuniform 0();
    }
    upperWall
    {
        type            symmetryPlane;
        value           uniform 0;
    }
    lowerWall
    {
        type            symmetryPlane;
        value           nonuniform 0();
    }
    inlet
    {
        type            calculated;
        value           nonuniform List<scalar> 
40
(
-0.053033
-0.053033
-0.053033
-0.053033
-0.053033
-0.053033
-0.053033
-0.053033
-0.053033
-0.053033
-0.0478286
-0.051148
-0.0546978
-0.058494
-0.0625537
-0.0668951
-0.0715378
-0.0765027
-0.0818122
-0.0874902
-0.0935622
-0.100056
-0.107
-0.114426
-0.122367
-0.13086
-0.139942
-0.149655
-0.160041
-0.171148
-0.183026
-0.195729
-0.209313
-0.22384
-0.239375
-0.255988
-0.273755
-0.292754
-0.313072
-0.3348
)
;
    }
    cylinder
    {
        type            calculated;
        value           nonuniform 0();
    }
    frontAndBack
    {
        type            empty;
        value           nonuniform 0();
    }
    procBoundary4to0
    {
        type            processor;
        value           nonuniform List<scalar> 
33
(
-0.00115717
-0.00122453
-0.00130458
-0.000107802
-0.00194966
-0.00135614
0.000751194
3.93239e-05
2.82809e-06
0.000617124
-0.00105594
-0.000993178
-0.000497977
-0.00142956
-0.000988466
-0.000623153
-0.000723009
-0.000597171
-0.000511875
-0.000438124
-0.000526457
-0.000577139
-0.000657069
-0.000739686
-0.000837009
-0.000943863
-0.00103099
-0.00112683
-0.0011972
-0.00127483
-0.00132653
-0.00138031
-0.00142323
)
;
    }
    procBoundary4to5
    {
        type            processor;
        value           nonuniform List<scalar> 
45
(
0.0422974
0.0421633
0.0417653
0.00992703
0.0438395
0.0427801
0.0158027
0.0440315
0.0189718
0.0448514
0.00677598
0.0432881
0.0405109
0.00672015
0.0385788
0.0470468
0.0514476
0.0552176
0.0593192
0.0639155
0.0688336
0.0739088
0.0790763
0.0844592
0.0901614
0.0962122
0.102647
0.109513
0.116936
0.125014
0.133717
0.142989
0.152802
0.163213
0.174295
0.186136
0.198807
0.212373
0.22689
0.242415
0.25903
0.276838
0.295927
0.316613
0.33853
)
;
    }
}


// ************************************************************************* //
