/*--------------------------------*- C++ -*----------------------------------*\
| =========                 |                                                 |
| \\      /  F ield         | OpenFOAM: The Open Source CFD Toolbox           |
|  \\    /   O peration     | Version:                                        |
|   \\  /    A nd           | Website:  www.openfoam.com                      |
|    \\/     M anipulation  |                                                 |
\*---------------------------------------------------------------------------*/
FoamFile
{
    version     2.0;
    format      ascii;
    class       volVectorField;
    location    "157.9";
    object      U;
}
// * * * * * * * * * * * * * * * * * * * * * * * * * * * * * * * * * * * * * //

dimensions      [0 1 -1 0 0 0 0];


internalField   nonuniform List<vector> 
1164
(
(0.571158 -0.875633 1.52032e-22)
(0.548014 -0.834832 -5.55377e-21)
(0.554848 -0.781156 9.13871e-21)
(0.552908 -0.691539 -2.31149e-21)
(0.547345 -0.567886 7.15478e-21)
(0.552585 -0.450516 3.73749e-20)
(0.621537 -0.814504 -7.53968e-22)
(0.629021 -0.803402 1.15308e-20)
(0.673686 -0.778122 -7.62401e-21)
(0.723926 -0.757391 -1.55175e-20)
(0.771834 -0.68183 -1.01134e-20)
(0.777258 -0.598473 -5.95153e-21)
(0.76209 -0.459082 4.36982e-21)
(0.737662 -0.35227 -2.74396e-21)
(0.717789 -0.209537 4.08482e-21)
(0.650435 -0.141794 -4.59779e-22)
(0.629043 -0.908754 1.64984e-21)
(0.628771 -0.931543 -4.57204e-21)
(0.655163 -0.910941 3.79788e-21)
(0.713923 -0.896117 2.247e-21)
(0.797138 -0.839004 -7.02442e-21)
(0.86977 -0.789187 -4.51859e-20)
(0.935079 -0.681361 -2.54298e-20)
(0.950012 -0.572992 -1.11759e-20)
(0.935994 -0.419715 -3.24149e-21)
(0.849796 -0.248439 3.81467e-21)
(0.595357 -0.85807 3.13649e-22)
(0.657465 -0.928415 3.1723e-21)
(0.737403 -0.948733 -1.69954e-21)
(0.794589 -0.972721 1.2657e-20)
(0.86227 -0.946077 3.14496e-20)
(0.925138 -0.909146 6.68206e-20)
(0.991825 -0.859791 6.96782e-22)
(1.02179 -0.771264 -2.26955e-21)
(1.08082 -0.710671 -2.59492e-20)
(1.04141 -0.550472 -5.22228e-21)
(0.443824 -0.645746 -3.35933e-21)
(0.561364 -0.693495 -4.67089e-22)
(0.703578 -0.74491 -2.20165e-20)
(0.84003 -0.770238 -4.76076e-21)
(0.983361 -0.800848 -1.81852e-20)
(1.05965 -0.785084 -5.61575e-20)
(1.14615 -0.792888 1.15548e-20)
(1.16866 -0.744634 -1.42583e-20)
(1.20859 -0.725371 -1.07811e-20)
(1.15152 -0.671166 -2.42631e-20)
(0.444588 -0.331667 1.81589e-21)
(0.549516 -0.318183 -1.58791e-20)
(0.675157 -0.344541 -5.40017e-21)
(0.826302 -0.350508 4.12646e-21)
(0.978678 -0.428006 -3.57774e-20)
(1.08913 -0.431206 -7.52976e-21)
(1.23424 -0.500963 3.34921e-20)
(1.24851 -0.498098 3.29645e-20)
(1.35226 -0.50246 -1.77135e-20)
(1.32175 -0.564622 -2.63737e-20)
(0.570492 0.293824 -7.08282e-22)
(0.700482 0.285882 1.79824e-20)
(0.841445 0.277356 4.82273e-20)
(0.9808 0.240662 -3.46035e-20)
(1.11742 0.168436 1.31364e-20)
(1.22923 0.106741 -6.37556e-21)
(1.33977 0.00610008 -4.14652e-20)
(1.37738 -0.0674494 4.57562e-21)
(1.50767 -0.107429 4.14753e-20)
(1.44246 -0.237354 2.55121e-20)
(0.491216 0.505312 2.32367e-21)
(0.578973 0.543826 -1.32884e-21)
(0.696838 0.586556 -7.02352e-21)
(0.842528 0.584057 1.63795e-20)
(1.00417 0.582936 2.30394e-20)
(1.15882 0.53269 2.69655e-20)
(1.30231 0.463336 -1.6748e-20)
(1.39765 0.366719 3.48858e-20)
(1.49076 0.290097 -2.22503e-20)
(1.4897 0.13704 -1.24162e-20)
(0.70096 0.711189 -1.41483e-21)
(0.77474 0.721526 -7.21165e-21)
(0.840768 0.705364 -3.38098e-21)
(0.927881 0.694954 3.57044e-21)
(0.994308 0.64925 1.66491e-20)
(1.06709 0.626118 7.79294e-21)
(1.1277 0.568991 2.90234e-20)
(1.18603 0.518183 -2.69614e-20)
(1.25139 0.452351 8.99372e-21)
(1.29573 0.350046 1.81774e-20)
(0.583626 0.753682 -3.68588e-22)
(0.620727 0.766441 2.58435e-21)
(0.655134 0.7206 -8.51925e-21)
(0.737098 0.720586 9.70389e-21)
(0.835025 0.660847 -1.82629e-20)
(0.96969 0.626401 -1.11595e-20)
(1.08801 0.566623 1.19646e-20)
(1.16721 0.528024 -2.80528e-21)
(1.19958 0.494465 2.03894e-20)
(1.21127 0.460428 -4.30137e-22)
(0.535772 0.589793 4.32197e-22)
(0.590803 0.590795 1.08563e-22)
(0.630993 0.556993 -5.67149e-21)
(0.668512 0.547463 2.58995e-21)
(0.704125 0.523104 1.3715e-20)
(0.738097 0.481527 -4.02803e-21)
(0.811512 0.433723 -7.59717e-21)
(0.906349 0.373972 -1.08147e-20)
(1.00017 0.312005 -5.98341e-21)
(1.09362 0.278962 1.93661e-20)
(0.468631 0.681227 -8.55777e-22)
(0.508571 0.704946 4.52156e-21)
(0.556812 0.698851 1.36583e-21)
(0.604124 0.698022 -1.59751e-20)
(0.659253 0.6909 -3.94255e-22)
(0.712832 0.656875 -2.44758e-21)
(0.775972 0.633004 3.07864e-21)
(0.810147 0.562827 -5.24536e-22)
(0.862901 0.501797 9.96118e-22)
(0.920568 0.39094 -7.56314e-21)
(0.627675 0.0848793 1.04572e-21)
(0.608762 0.130429 -2.4097e-21)
(0.581666 0.133923 1.18673e-21)
(0.575749 0.172712 1.00256e-20)
(0.584274 0.213515 2.37731e-21)
(0.574456 0.253638 5.94294e-21)
(0.593207 0.319162 4.13413e-22)
(0.599641 0.361698 2.39116e-21)
(0.634525 0.419957 3.53749e-21)
(0.702215 0.447815 5.48683e-21)
(0.55799 -0.190671 -1.12177e-21)
(0.566922 -0.135995 3.97513e-21)
(0.573856 -0.143572 5.84174e-21)
(0.619316 -0.0992108 -1.74585e-21)
(0.667148 -0.106867 -6.47452e-21)
(0.714666 -0.0687423 3.00247e-21)
(0.776899 -0.0514813 1.86152e-21)
(0.801123 0.000938671 -1.73945e-21)
(0.843221 0.0509717 -5.86222e-22)
(0.859298 0.142505 -7.24321e-22)
(0.742891 -0.395027 8.28731e-22)
(0.697102 -0.382026 -3.61421e-21)
(0.660902 -0.376733 -1.42781e-21)
(0.635589 -0.350064 6.96975e-22)
(0.614652 -0.355213 6.39028e-21)
(0.640765 -0.317065 -2.55787e-21)
(0.664991 -0.331223 2.13651e-21)
(0.722404 -0.290753 2.2238e-21)
(0.799402 -0.29695 -4.02751e-21)
(0.857934 -0.240495 4.38374e-21)
(0.692369 -0.81269 7.53143e-24)
(0.641686 -0.835798 -7.95716e-23)
(0.63138 -0.814195 -9.26261e-21)
(0.601434 -0.831208 2.25228e-21)
(0.600551 -0.806391 5.96698e-21)
(0.601373 -0.800422 1.18146e-21)
(0.606519 -0.785451 -6.46468e-21)
(0.631094 -0.758846 7.9406e-21)
(0.648666 -0.762118 3.0335e-21)
(0.689449 -0.72991 -7.2848e-22)
(0.698552 -0.541779 2.11794e-22)
(0.690591 -0.544462 -5.49414e-23)
(0.706649 -0.536521 8.68591e-21)
(0.710854 -0.557028 -7.96589e-21)
(0.74575 -0.536358 -1.67165e-21)
(0.754041 -0.569477 8.22247e-21)
(0.792158 -0.532656 2.82909e-22)
(0.795347 -0.567735 -4.79078e-21)
(0.837124 -0.515028 2.65837e-21)
(0.832874 -0.56281 -2.49907e-21)
(0.656105 -0.442882 -3.03212e-22)
(0.646324 -0.412507 -1.37961e-21)
(0.65266 -0.386276 -1.41716e-21)
(0.66385 -0.360303 1.99544e-21)
(0.69859 -0.325051 -5.41697e-21)
(0.742994 -0.314964 -1.37513e-20)
(0.811728 -0.271457 -1.25438e-20)
(0.862617 -0.279391 -5.52751e-21)
(0.932154 -0.225763 -2.56527e-21)
(0.961581 -0.253165 -7.01543e-21)
(0.855813 -0.0317227 -4.51439e-22)
(0.877684 -0.00153733 3.81284e-21)
(0.901938 0.0233929 -4.59217e-22)
(0.928186 0.0469764 4.10895e-21)
(0.954627 0.0726802 -1.31309e-22)
(0.985152 0.0815886 -1.83992e-21)
(1.01862 0.10079 1.51838e-20)
(1.06307 0.0878243 -2.07185e-21)
(1.11511 0.108307 -9.18461e-21)
(1.16305 0.0779157 2.35642e-21)
(0.89088 0.583396 3.96614e-22)
(0.932119 0.584748 -1.50446e-21)
(0.961569 0.594257 -4.09761e-21)
(1.0019 0.58574 -4.33162e-21)
(1.02917 0.596037 -8.74571e-22)
(1.06367 0.579508 1.41616e-20)
(1.08897 0.588223 -1.35947e-20)
(1.12079 0.559361 5.99028e-21)
(1.14783 0.560411 1.41778e-20)
(1.1818 0.507293 6.49489e-21)
(0.887631 0.539731 1.84437e-22)
(0.919717 0.533569 -3.99301e-22)
(0.94176 0.544407 3.64332e-21)
(0.974013 0.538279 4.95687e-21)
(0.99666 0.544653 -4.5333e-21)
(1.03021 0.54171 2.38606e-21)
(1.05118 0.547666 7.88237e-21)
(1.0797 0.545165 8.40535e-21)
(1.09055 0.540025 -6.91235e-21)
(1.10379 0.526292 -2.3208e-21)
(0.847575 0.692127 6.00951e-23)
(0.882386 0.691661 -1.11825e-22)
(0.909172 0.694619 -1.47634e-21)
(0.945488 0.690131 -6.74268e-21)
(0.974547 0.686269 4.57371e-21)
(1.01015 0.675705 -3.17412e-21)
(1.0361 0.666478 -2.91562e-21)
(1.058 0.657357 -6.9584e-21)
(1.06155 0.646237 -1.75862e-21)
(1.06612 0.625586 2.03659e-21)
(0.940511 0.285478 3.54299e-22)
(0.939086 0.300479 -7.34741e-22)
(0.93201 0.307411 -4.47825e-22)
(0.92948 0.321332 7.23648e-21)
(0.920121 0.316456 -4.04162e-21)
(0.920275 0.327953 1.74719e-21)
(0.910587 0.310202 3.70265e-21)
(0.91278 0.316073 -1.39784e-21)
(0.9038 0.29471 -8.40912e-22)
(0.899325 0.297887 -8.62339e-21)
(0.990093 -0.498417 -3.36749e-23)
(0.975477 -0.485886 1.34503e-22)
(0.961841 -0.482931 -1.84995e-21)
(0.94544 -0.464803 -3.32717e-22)
(0.925431 -0.460996 -1.46824e-21)
(0.903063 -0.439889 -4.74916e-21)
(0.872809 -0.438946 3.04563e-21)
(0.848606 -0.416174 -7.73496e-23)
(0.817538 -0.421228 5.55364e-21)
(0.785639 -0.401232 8.07911e-21)
(1.00845 -0.48886 2.10907e-23)
(0.995067 -0.485747 -1.37226e-21)
(0.984207 -0.484908 1.65269e-21)
(0.963317 -0.483224 -1.80783e-21)
(0.942378 -0.481576 2.83576e-21)
(0.908728 -0.48002 4.33877e-21)
(0.880619 -0.472915 -4.76309e-21)
(0.842496 -0.471059 -4.70012e-22)
(0.813556 -0.459925 -1.745e-21)
(0.779236 -0.453436 -4.16234e-21)
(0.946749 -0.602117 1.14163e-23)
(0.921858 -0.601539 5.81856e-22)
(0.905617 -0.600311 3.48617e-22)
(0.889588 -0.600316 1.57996e-22)
(0.881992 -0.594431 5.38026e-22)
(0.871153 -0.590918 -2.01105e-21)
(0.866632 -0.576211 1.11955e-22)
(0.854166 -0.56757 -1.01366e-21)
(0.851315 -0.54665 9.74372e-24)
(0.840387 -0.527457 5.22127e-23)
(1.016 -0.195522 2.12066e-22)
(1.01456 -0.179114 -5.29284e-22)
(1.01932 -0.160597 -9.69114e-23)
(1.0263 -0.139935 -1.35755e-21)
(1.03806 -0.118136 1.74811e-21)
(1.04887 -0.0961822 4.68943e-22)
(1.06144 -0.0720736 1.74074e-21)
(1.07122 -0.0519785 3.03006e-22)
(1.08489 -0.0269167 2.00952e-22)
(1.09774 -0.00791906 1.31722e-21)
(1.11036 0.761052 -4.74845e-22)
(1.11973 0.76448 9.51144e-23)
(1.12565 0.763213 1.36711e-21)
(1.13123 0.763058 -9.84633e-23)
(1.1339 0.760159 9.34173e-22)
(1.13732 0.75407 -2.57959e-21)
(1.13817 0.746838 2.45104e-23)
(1.13929 0.73542 5.59498e-22)
(1.13882 0.726331 -2.42359e-22)
(1.13656 0.712307 -3.79215e-22)
(1.06432 0.462281 -7.71513e-23)
(1.07838 0.458823 -1.55925e-22)
(1.08478 0.448645 -2.66124e-22)
(1.08996 0.440276 1.2573e-21)
(1.08705 0.425596 -1.00829e-21)
(1.08273 0.41273 9.84367e-22)
(1.07001 0.393089 -1.275e-21)
(1.05696 0.37515 6.80091e-22)
(1.03504 0.351805 -4.75065e-22)
(1.01122 0.326638 5.85438e-22)
(1.00108 -0.0872503 1.92892e-23)
(0.997573 -0.0914491 -5.84337e-23)
(0.989923 -0.0996413 4.76656e-24)
(0.980971 -0.104496 1.94057e-22)
(0.967377 -0.113329 -3.40767e-22)
(0.952643 -0.119327 3.87955e-22)
(0.932341 -0.128782 -5.91588e-22)
(0.911223 -0.136413 7.30709e-22)
(0.886008 -0.145737 1.00886e-22)
(0.858703 -0.155172 -4.04661e-22)
(0.715301 -0.0203732 0)
(0.853118 -0.0437578 0)
(0.973341 -0.0716419 0)
(1.00634 -0.0735827 0)
(1.00371 -0.0774743 0)
(0.996441 -0.0611807 0)
(0.982449 -0.0562273 0)
(0.978861 -0.0401303 0)
(0.978893 -0.0324269 0)
(0.991325 -0.0209853 0)
(0.999074 -0.0146781 0)
(1.01012 -0.00940947 0)
(1.0183 -0.00690865 0)
(1.02203 -0.00427578 0)
(1.02404 -0.00228071 0)
(1.02447 -0.000516827 0)
(1.02458 0.000655324 0)
(1.02425 0.00104309 0)
(1.02368 0.00100802 0)
(1.02301 0.000660374 0)
(1.02224 0.000367573 0)
(1.02156 7.95358e-05 0)
(1.02089 -0.000168717 0)
(1.02027 -0.000274646 0)
(1.01971 -0.000401441 0)
(1.01919 -0.000373366 0)
(1.01876 -0.000248869 0)
(1.01852 -0.000138832 0)
(0.868541 -0.114277 0)
(0.853861 -0.0326654 0)
(0.814955 0.0455716 0)
(0.835686 0.0824686 0)
(0.885059 0.0842771 0)
(0.941135 0.0523708 0)
(0.966876 0.0470948 0)
(0.988929 0.0181298 0)
(1.00504 0.0150331 0)
(1.02244 0.00357251 0)
(1.0302 0.0062894 0)
(1.03131 0.0043994 0)
(1.03036 0.00652739 0)
(1.02462 0.00754939 0)
(1.01812 0.00819311 0)
(1.01507 0.00766652 0)
(1.01361 0.00653542 0)
(1.01438 0.00544795 0)
(1.01569 0.00430367 0)
(1.01719 0.00348418 0)
(1.01837 0.00265565 0)
(1.01904 0.00201008 0)
(1.01934 0.0013169 0)
(1.01929 0.000733451 0)
(1.01904 0.00024835 0)
(1.01871 -6.3457e-05 0)
(1.01833 -0.000277892 0)
(1.01796 -0.000310411 0)
(1.01761 -0.000221979 0)
(1.01742 -0.000127817 0)
(1.05019 -0.442874 0)
(1.01259 -0.358545 0)
(0.946451 -0.303077 0)
(0.922354 -0.238475 0)
(0.947872 -0.146221 0)
(0.96675 -0.11329 0)
(0.96359 -0.0932721 0)
(0.958914 -0.0813798 0)
(0.965422 -0.0642291 0)
(0.969889 -0.0525806 0)
(0.981807 -0.0417994 0)
(0.992373 -0.0336963 0)
(1.00192 -0.0268054 0)
(1.01058 -0.0235631 0)
(1.01755 -0.0191573 0)
(1.02071 -0.0151323 0)
(1.02298 -0.0103794 0)
(1.02358 -0.00661958 0)
(1.02369 -0.00360702 0)
(1.02341 -0.00203078 0)
(1.02292 -0.00107667 0)
(1.02245 -0.000714999 0)
(1.02188 -0.000496315 0)
(1.02135 -0.000423978 0)
(1.02083 -0.00048205 0)
(1.02029 -0.000472348 0)
(1.0198 -0.00052753 0)
(1.01934 -0.000461774 0)
(1.01892 -0.000298714 0)
(1.01871 -0.000154739 0)
(1.16302 -0.58428 0)
(1.1642 -0.4675 0)
(1.10994 -0.433832 0)
(1.08402 -0.301335 0)
(1.06428 -0.203095 0)
(1.01064 -0.138032 0)
(1.00404 -0.126296 0)
(1.01559 -0.0861468 0)
(1.04154 -0.0734726 0)
(1.04839 -0.0445443 0)
(1.05211 -0.0301011 0)
(1.04972 -0.0130021 0)
(1.04387 -0.00470392 0)
(1.03576 0.00389215 0)
(1.02814 0.00579755 0)
(1.0239 0.00680601 0)
(1.0209 0.00552873 0)
(1.01981 0.00484027 0)
(1.01946 0.00375827 0)
(1.01941 0.00318992 0)
(1.01959 0.00239927 0)
(1.01956 0.00172009 0)
(1.01945 0.00101674 0)
(1.01921 0.000409228 0)
(1.01889 -2.78323e-05 0)
(1.01859 -0.000287044 0)
(1.01828 -0.000455292 0)
(1.01797 -0.000431746 0)
(1.01768 -0.0002953 0)
(1.01753 -0.000154349 0)
(1.35639 -0.446213 0)
(1.37544 -0.400283 0)
(1.36505 -0.351239 0)
(1.33439 -0.250608 0)
(1.24654 -0.193501 0)
(1.11142 -0.154545 0)
(1.04256 -0.10966 0)
(1.03216 -0.0772564 0)
(1.01955 -0.0505179 0)
(1.02196 -0.0391484 0)
(1.01902 -0.0280222 0)
(1.01578 -0.0274209 0)
(1.01612 -0.0236896 0)
(1.0164 -0.0251531 0)
(1.01783 -0.0210199 0)
(1.01885 -0.0177682 0)
(1.02038 -0.0123065 0)
(1.02131 -0.00865973 0)
(1.02144 -0.0053741 0)
(1.02146 -0.00359861 0)
(1.02128 -0.00232559 0)
(1.02117 -0.00161633 0)
(1.02098 -0.00117601 0)
(1.02072 -0.000913181 0)
(1.02044 -0.000871291 0)
(1.0201 -0.000794351 0)
(1.01975 -0.00077219 0)
(1.01943 -0.000643301 0)
(1.0191 -0.000410787 0)
(1.01894 -0.000192899 0)
(1.49064 -0.184079 0)
(1.50934 -0.192918 0)
(1.47931 -0.156315 0)
(1.41648 -0.153018 0)
(1.30565 -0.155236 0)
(1.21 -0.165026 0)
(1.16239 -0.133751 0)
(1.13884 -0.116936 0)
(1.10822 -0.0801254 0)
(1.09253 -0.0564545 0)
(1.07214 -0.0364887 0)
(1.06302 -0.0164802 0)
(1.05067 -0.00779517 0)
(1.04248 0.00295981 0)
(1.03697 0.00381861 0)
(1.03233 0.00562029 0)
(1.02895 0.00402212 0)
(1.0259 0.00370501 0)
(1.02377 0.00278107 0)
(1.02201 0.00229934 0)
(1.02092 0.00157718 0)
(1.02008 0.000855525 0)
(1.01947 0.000219983 0)
(1.01904 -0.000319532 0)
(1.01866 -0.000640129 0)
(1.01841 -0.000762565 0)
(1.01821 -0.000823998 0)
(1.018 -0.00069375 0)
(1.01779 -0.000452286 0)
(1.01768 -0.000208864 0)
(1.57311 0.0996286 0)
(1.53712 0.0870999 0)
(1.45979 0.0573188 0)
(1.35189 0.0379245 0)
(1.21568 0.0318086 0)
(1.17001 0.0318306 0)
(1.1275 0.0550815 0)
(1.12177 0.0427523 0)
(1.11665 0.0471162 0)
(1.0875 0.0318422 0)
(1.07197 0.0270953 0)
(1.05031 0.00959787 0)
(1.03691 0.00413833 0)
(1.02808 -0.00569497 0)
(1.02089 -0.00581916 0)
(1.01931 -0.00673445 0)
(1.01898 -0.00482994 0)
(1.01976 -0.00399481 0)
(1.01999 -0.00289855 0)
(1.02031 -0.00231888 0)
(1.0205 -0.00178612 0)
(1.02068 -0.00141734 0)
(1.02077 -0.00125299 0)
(1.02065 -0.0011401 0)
(1.02047 -0.00116959 0)
(1.02022 -0.00112724 0)
(1.01994 -0.00106361 0)
(1.01968 -0.000871108 0)
(1.0194 -0.000557441 0)
(1.01926 -0.000241224 0)
(1.35875 0.241642 0)
(1.30367 0.198178 0)
(1.32742 0.100772 0)
(1.29907 0.0611367 0)
(1.27501 0.010766 0)
(1.22709 -0.00623905 0)
(1.1656 -0.0142344 0)
(1.11794 -0.00102046 0)
(1.08127 -0.0100954 0)
(1.05628 -0.00109878 0)
(1.04085 -0.00207576 0)
(1.03549 0.00339842 0)
(1.03197 0.00446805 0)
(1.03179 0.00575055 0)
(1.03465 0.0040167 0)
(1.03374 0.00342012 0)
(1.0323 0.00205316 0)
(1.02909 0.0017114 0)
(1.02627 0.0011071 0)
(1.02362 0.000660972 0)
(1.02175 0.000111164 0)
(1.02045 -0.000482796 0)
(1.01955 -0.000869557 0)
(1.01904 -0.001176 0)
(1.0187 -0.00132011 0)
(1.01849 -0.00127195 0)
(1.01836 -0.00120691 0)
(1.01821 -0.000967887 0)
(1.01803 -0.000617597 0)
(1.01795 -0.00026287 0)
(1.21357 0.392051 0)
(1.17577 0.380139 0)
(1.17978 0.310084 0)
(1.11343 0.303514 0)
(1.11324 0.231376 0)
(1.11196 0.206004 0)
(1.17293 0.13668 0)
(1.1277 0.135243 0)
(1.1331 0.085438 0)
(1.09816 0.0857655 0)
(1.08517 0.0542141 0)
(1.05749 0.0480589 0)
(1.04465 0.0327209 0)
(1.03118 0.0254441 0)
(1.02128 0.0190182 0)
(1.01865 0.0136701 0)
(1.01736 0.00937208 0)
(1.01837 0.00588398 0)
(1.01895 0.00334828 0)
(1.01971 0.00178508 0)
(1.0202 0.000687417 0)
(1.02048 4.68579e-05 0)
(1.02068 -0.00055319 0)
(1.02063 -0.000934986 0)
(1.02052 -0.00120663 0)
(1.02038 -0.00129524 0)
(1.0202 -0.00124809 0)
(1.02002 -0.00102561 0)
(1.01982 -0.000665081 0)
(1.01972 -0.00027467 0)
(1.11394 0.21713 0)
(1.07017 0.194053 0)
(1.14102 0.164139 0)
(1.06857 0.14474 0)
(1.08155 0.140201 0)
(1.01352 0.140922 0)
(1.03356 0.131536 0)
(1.00174 0.118105 0)
(1.00504 0.081411 0)
(0.996055 0.0616005 0)
(0.985234 0.0416252 0)
(0.993527 0.0233138 0)
(0.996032 0.0144713 0)
(1.00613 0.00431792 0)
(1.01633 0.000721573 0)
(1.02091 -0.00174915 0)
(1.02342 -0.00167978 0)
(1.02279 -0.00183534 0)
(1.02161 -0.00162743 0)
(1.02019 -0.00185402 0)
(1.01908 -0.00185845 0)
(1.0185 -0.00202213 0)
(1.01817 -0.00198865 0)
(1.01812 -0.00193645 0)
(1.01819 -0.00189295 0)
(1.01825 -0.00169558 0)
(1.01834 -0.00151647 0)
(1.01836 -0.00119922 0)
(1.0183 -0.000759412 0)
(1.01828 -0.000306471 0)
(0.970147 0.29755 0)
(0.98369 0.27138 0)
(1.04897 0.192934 0)
(1.0249 0.153839 0)
(1.11651 0.100584 0)
(1.07801 0.0793571 0)
(1.10987 0.0675815 0)
(1.03412 0.0773899 0)
(1.02064 0.0639192 0)
(1.02771 0.0666798 0)
(1.03383 0.0528074 0)
(1.02776 0.0563686 0)
(1.03012 0.0466608 0)
(1.0224 0.0454883 0)
(1.0186 0.036315 0)
(1.01775 0.0290784 0)
(1.01798 0.0202682 0)
(1.01922 0.0141503 0)
(1.02032 0.00895991 0)
(1.02091 0.00574244 0)
(1.02124 0.00314417 0)
(1.02116 0.00141239 0)
(1.02108 7.43768e-05 0)
(1.02092 -0.000807435 0)
(1.02075 -0.00128271 0)
(1.02066 -0.00146053 0)
(1.02057 -0.00143267 0)
(1.02047 -0.00117693 0)
(1.02034 -0.00076847 0)
(1.02028 -0.000307096 0)
(0.758678 0.416231 0)
(0.816254 0.419041 0)
(0.854594 0.389593 0)
(0.85433 0.390374 0)
(0.906912 0.340842 0)
(0.933016 0.295041 0)
(1.03617 0.220587 0)
(0.987668 0.163863 0)
(0.994175 0.11372 0)
(0.970165 0.0768316 0)
(0.96088 0.0403374 0)
(0.9675 0.0200896 0)
(0.971729 0.00372061 0)
(0.98451 -0.00686647 0)
(0.993604 -0.00877779 0)
(1.00125 -0.00922391 0)
(1.00633 -0.00692794 0)
(1.00977 -0.00594255 0)
(1.01176 -0.00466344 0)
(1.01345 -0.00417379 0)
(1.01461 -0.00348254 0)
(1.01574 -0.00302123 0)
(1.01663 -0.00264451 0)
(1.01732 -0.00231864 0)
(1.01789 -0.0021868 0)
(1.01825 -0.0019609 0)
(1.01851 -0.00172384 0)
(1.01866 -0.001369 0)
(1.01866 -0.000870263 0)
(1.01869 -0.000339863 0)
(0.838527 0.178669 0)
(0.860381 0.183818 0)
(0.885123 0.204122 0)
(0.908462 0.224961 0)
(0.889054 0.242658 0)
(0.824125 0.237184 0)
(0.796108 0.214684 0)
(0.795218 0.146513 0)
(0.853534 0.109036 0)
(0.913804 0.0583588 0)
(0.948945 0.0506381 0)
(0.982728 0.0329589 0)
(0.996458 0.030146 0)
(1.0072 0.0284659 0)
(1.01554 0.0237209 0)
(1.02081 0.020422 0)
(1.02347 0.0151718 0)
(1.02453 0.0115063 0)
(1.0248 0.00767665 0)
(1.0241 0.004898 0)
(1.02331 0.00246541 0)
(1.02243 0.000653998 0)
(1.02175 -0.000565778 0)
(1.0214 -0.00138667 0)
(1.02117 -0.00175645 0)
(1.02111 -0.00181425 0)
(1.02112 -0.0017141 0)
(1.0211 -0.00138197 0)
(1.02104 -0.000895314 0)
(1.02102 -0.000348264 0)
(0.901766 -0.228511 0)
(0.94365 -0.231374 0)
(0.984747 -0.22115 0)
(0.996739 -0.235133 0)
(0.975583 -0.228565 0)
(0.91027 -0.227384 0)
(0.809046 -0.183009 0)
(0.769149 -0.129922 0)
(0.79789 -0.0666563 0)
(0.857504 -0.0443212 0)
(0.914961 -0.0284542 0)
(0.936387 -0.026761 0)
(0.970713 -0.0206312 0)
(0.98025 -0.0216559 0)
(0.985931 -0.0156011 0)
(0.988977 -0.0130856 0)
(0.992836 -0.00885659 0)
(0.997599 -0.00689064 0)
(1.0022 -0.00496287 0)
(1.00662 -0.0039669 0)
(1.01012 -0.00320509 0)
(1.01282 -0.00267894 0)
(1.01488 -0.00254486 0)
(1.01627 -0.00240792 0)
(1.01732 -0.0023862 0)
(1.01807 -0.00226079 0)
(1.01858 -0.00200526 0)
(1.01894 -0.00160087 0)
(1.0191 -0.00102717 0)
(1.01921 -0.000387815 0)
(0.73924 -0.7263 0)
(0.765852 -0.705952 0)
(0.806053 -0.70765 0)
(0.827749 -0.714813 0)
(0.88864 -0.709792 0)
(0.921112 -0.664453 0)
(0.975909 -0.596459 0)
(1.00576 -0.454273 0)
(1.01752 -0.348955 0)
(0.98325 -0.235815 0)
(0.965008 -0.182466 0)
(0.982842 -0.112953 0)
(0.989651 -0.0799175 0)
(1.00897 -0.0439456 0)
(1.02418 -0.0293091 0)
(1.03111 -0.014946 0)
(1.03322 -0.00937732 0)
(1.03121 -0.00517386 0)
(1.02864 -0.00373746 0)
(1.02583 -0.00321044 0)
(1.02377 -0.00317971 0)
(1.0225 -0.00340532 0)
(1.02167 -0.00338148 0)
(1.0214 -0.00332948 0)
(1.02138 -0.00320014 0)
(1.02147 -0.00286812 0)
(1.02166 -0.00249769 0)
(1.02179 -0.0019477 0)
(1.02183 -0.00123334 0)
(1.02187 -0.00046106 0)
(0.889642 -0.499521 0)
(0.955832 -0.456036 0)
(1.01458 -0.420881 0)
(1.08115 -0.359559 0)
(1.14948 -0.312601 0)
(1.23485 -0.237448 0)
(1.28865 -0.193663 0)
(1.29484 -0.126015 0)
(1.26631 -0.103548 0)
(1.19904 -0.0681424 0)
(1.15915 -0.0407746 0)
(1.11985 -0.0295164 0)
(1.08915 -0.0115186 0)
(1.05752 -0.00721906 0)
(1.02725 -7.2804e-05 0)
(1.01288 0.00078762 0)
(1.00458 0.00192557 0)
(1.00406 0.00165636 0)
(1.00588 0.000810881 0)
(1.00878 9.15257e-05 0)
(1.01157 -0.000992909 0)
(1.01364 -0.00173523 0)
(1.01538 -0.00253256 0)
(1.01667 -0.00303153 0)
(1.01766 -0.00320675 0)
(1.01851 -0.00312473 0)
(1.01914 -0.00278526 0)
(1.0196 -0.00219611 0)
(1.01986 -0.00140531 0)
(1.02001 -0.00051917 0)
(1.04725 -0.192201 0)
(1.12749 -0.154855 0)
(1.19902 -0.100195 0)
(1.25314 -0.0626557 0)
(1.3047 -0.00952765 0)
(1.32863 -0.000170991 0)
(1.28843 0.0243579 0)
(1.24972 -0.00785404 0)
(1.16183 -0.000952058 0)
(1.12459 -0.0437707 0)
(1.05094 -0.0181002 0)
(1.04594 -0.0454778 0)
(1.03114 -0.0299083 0)
(1.0317 -0.039205 0)
(1.03519 -0.0320536 0)
(1.03309 -0.0295014 0)
(1.03089 -0.0230132 0)
(1.02698 -0.0187392 0)
(1.02374 -0.0143573 0)
(1.02177 -0.0116876 0)
(1.02071 -0.00942897 0)
(1.02061 -0.00801212 0)
(1.0208 -0.00692465 0)
(1.02118 -0.0060055 0)
(1.0217 -0.00535512 0)
(1.02214 -0.00460452 0)
(1.02255 -0.00382686 0)
(1.02286 -0.00291505 0)
(1.023 -0.00182058 0)
(1.0231 -0.00066065 0)
(1.22512 0.0938996 0)
(1.27107 0.104805 0)
(1.31507 0.113206 0)
(1.33495 0.115524 0)
(1.34306 0.122984 0)
(1.31398 0.103936 0)
(1.2877 0.0990558 0)
(1.26354 0.0810208 0)
(1.20126 0.0780941 0)
(1.20917 0.060926 0)
(1.16501 0.0573867 0)
(1.12825 0.0632411 0)
(1.10729 0.0493145 0)
(1.07316 0.0514108 0)
(1.05231 0.0393741 0)
(1.03761 0.0318193 0)
(1.02754 0.0208585 0)
(1.0214 0.0135463 0)
(1.01822 0.00652912 0)
(1.01635 0.00218 0)
(1.01594 -0.00124084 0)
(1.01604 -0.00341266 0)
(1.01658 -0.00469047 0)
(1.01748 -0.00538485 0)
(1.01836 -0.00542543 0)
(1.01929 -0.00501369 0)
(1.02012 -0.0043302 0)
(1.02075 -0.00332638 0)
(1.02115 -0.00209802 0)
(1.02138 -0.000758774 0)
(1.20383 0.490871 0)
(1.22092 0.47702 0)
(1.23607 0.442642 0)
(1.24719 0.421311 0)
(1.24046 0.371071 0)
(1.22321 0.353524 0)
(1.19582 0.290901 0)
(1.14886 0.273385 0)
(1.11054 0.214889 0)
(1.04144 0.187139 0)
(1.06881 0.118362 0)
(1.00522 0.0952015 0)
(1.00664 0.0502684 0)
(0.997024 0.0211341 0)
(0.993394 0.00528492 0)
(0.995395 -0.00684389 0)
(0.998532 -0.00937719 0)
(1.00391 -0.0113992 0)
(1.00807 -0.0109163 0)
(1.01219 -0.0106721 0)
(1.01527 -0.0102417 0)
(1.01763 -0.00965698 0)
(1.01961 -0.00926511 0)
(1.02103 -0.00855712 0)
(1.02223 -0.00777699 0)
(1.02318 -0.00680125 0)
(1.02389 -0.00561407 0)
(1.02442 -0.00423196 0)
(1.02471 -0.002637 0)
(1.02487 -0.000935708 0)
(1.11011 0.5087 0)
(1.11643 0.492046 0)
(1.11782 0.47455 0)
(1.1087 0.445644 0)
(1.09553 0.394003 0)
(1.07747 0.367345 0)
(1.05539 0.297387 0)
(0.982875 0.258626 0)
(0.994012 0.186308 0)
(0.909126 0.14861 0)
(0.948489 0.0942264 0)
(0.947318 0.0764374 0)
(0.960177 0.0482501 0)
(0.979567 0.040218 0)
(1.00249 0.0218831 0)
(1.0128 0.0129626 0)
(1.01782 0.00337748 0)
(1.01762 -0.00255278 0)
(1.01667 -0.0065615 0)
(1.01577 -0.00896701 0)
(1.01565 -0.0100158 0)
(1.01644 -0.0106086 0)
(1.01743 -0.0104345 0)
(1.01869 -0.00988578 0)
(1.01996 -0.00908052 0)
(1.02108 -0.00786457 0)
(1.02207 -0.00649187 0)
(1.0228 -0.00487141 0)
(1.02325 -0.00302606 0)
(1.02351 -0.00107111 0)
(1.05396 0.604867 0)
(1.03504 0.589877 0)
(1.00683 0.558489 0)
(0.976726 0.533627 0)
(0.951259 0.491012 0)
(0.914307 0.452221 0)
(0.906252 0.398823 0)
(0.838509 0.339767 0)
(0.871511 0.276166 0)
(0.855608 0.20954 0)
(0.93769 0.155058 0)
(0.937485 0.106231 0)
(0.964267 0.0704576 0)
(0.96205 0.0496632 0)
(0.963813 0.031272 0)
(0.972753 0.0194314 0)
(0.983493 0.00898779 0)
(0.994855 0.00175661 0)
(1.00376 -0.00386891 0)
(1.01021 -0.00732797 0)
(1.01492 -0.00987182 0)
(1.01809 -0.0109849 0)
(1.02063 -0.0113698 0)
(1.02264 -0.0110971 0)
(1.02415 -0.0101905 0)
(1.02542 -0.00891101 0)
(1.02638 -0.0073368 0)
(1.02707 -0.00547716 0)
(1.02747 -0.00340388 0)
(1.02769 -0.00119307 0)
(0.896525 0.266217 0)
(0.886494 0.227482 0)
(0.877999 0.189181 0)
(0.843461 0.13689 0)
(0.812144 0.0939764 0)
(0.743305 0.0304489 0)
(0.696601 -0.0163771 0)
(0.617904 -0.0745895 0)
(0.59951 -0.106782 0)
(0.583703 -0.126262 0)
(0.66703 -0.125603 0)
(0.754549 -0.115929 0)
(0.828204 -0.103466 0)
(0.890381 -0.09248 0)
(0.936467 -0.0794529 0)
(0.964359 -0.0644194 0)
(0.982522 -0.0509807 0)
(0.993108 -0.0405468 0)
(1.00023 -0.0323555 0)
(1.00592 -0.0271645 0)
(1.01016 -0.0229114 0)
(1.01391 -0.0197985 0)
(1.01703 -0.0173621 0)
(1.01948 -0.0150134 0)
(1.0216 -0.0129594 0)
(1.02326 -0.0108473 0)
(1.02454 -0.00866814 0)
(1.02549 -0.00638632 0)
(1.02604 -0.00392845 0)
(1.02635 -0.00136416 0)
(0.76223 -0.410877 0)
(0.730661 -0.435997 0)
(0.696874 -0.446876 0)
(0.647444 -0.465989 0)
(0.609318 -0.472679 0)
(0.57441 -0.483774 0)
(0.582414 -0.469024 0)
(0.619043 -0.441002 0)
(0.704312 -0.382005 0)
(0.808623 -0.312884 0)
(0.924447 -0.222445 0)
(0.994587 -0.150279 0)
(1.00779 -0.0907274 0)
(1.01471 -0.0464808 0)
(1.02101 -0.0284379 0)
(1.02667 -0.0162932 0)
(1.02738 -0.0153665 0)
(1.02653 -0.014295 0)
(1.02598 -0.0163252 0)
(1.02499 -0.0169639 0)
(1.02506 -0.017409 0)
(1.02579 -0.0173784 0)
(1.02656 -0.016394 0)
(1.02766 -0.0150989 0)
(1.02869 -0.0134345 0)
(1.02959 -0.0113844 0)
(1.0304 -0.00919509 0)
(1.03097 -0.00678344 0)
(1.0313 -0.00417859 0)
(1.03149 -0.00144861 0)
(0.756402 -0.446934 0)
(0.739845 -0.434617 0)
(0.73019 -0.41608 0)
(0.724995 -0.387349 0)
(0.734583 -0.349781 0)
(0.759465 -0.302377 0)
(0.811325 -0.246571 0)
(0.875465 -0.194858 0)
(0.93782 -0.136839 0)
(1.01895 -0.110695 0)
(1.06285 -0.068101 0)
(1.08271 -0.0851799 0)
(1.06725 -0.0624901 0)
(1.02895 -0.0697046 0)
(1.00029 -0.0533615 0)
(0.98897 -0.049814 0)
(0.985476 -0.0404799 0)
(0.99045 -0.0364152 0)
(0.996864 -0.0322078 0)
(1.00385 -0.0285729 0)
(1.01033 -0.0260495 0)
(1.01517 -0.0230974 0)
(1.01929 -0.0205878 0)
(1.02254 -0.0181665 0)
(1.02497 -0.0155917 0)
(1.02692 -0.0130109 0)
(1.02833 -0.0103372 0)
(1.02932 -0.00754511 0)
(1.02992 -0.00462353 0)
(1.03023 -0.00159003 0)
(0.847515 -0.507653 0)
(0.864381 -0.474969 0)
(0.890539 -0.434092 0)
(0.917073 -0.388794 0)
(0.944541 -0.336263 0)
(0.968806 -0.281176 0)
(0.990483 -0.223855 0)
(1.00314 -0.173398 0)
(1.00647 -0.12003 0)
(1.03387 -0.0838217 0)
(0.984997 -0.0502415 0)
(1.01466 -0.0489494 0)
(1.01247 -0.0551355 0)
(1.0281 -0.0479804 0)
(1.04654 -0.0567892 0)
(1.04733 -0.051435 0)
(1.04569 -0.0493625 0)
(1.04056 -0.045049 0)
(1.03577 -0.0396621 0)
(1.03355 -0.0360738 0)
(1.03225 -0.0320609 0)
(1.03206 -0.0282854 0)
(1.03256 -0.0249326 0)
(1.03314 -0.0214168 0)
(1.03396 -0.0181568 0)
(1.0347 -0.0149356 0)
(1.03532 -0.0117239 0)
(1.03578 -0.00851143 0)
(1.03602 -0.00518586 0)
(1.03616 -0.00177684 0)
(1.12131 0.0201971 0)
(1.14095 0.054392 0)
(1.16189 0.0826706 0)
(1.17772 0.11094 0)
(1.19185 0.134374 0)
(1.20016 0.155534 0)
(1.21323 0.168652 0)
(1.22676 0.179337 0)
(1.24417 0.176676 0)
(1.25402 0.162061 0)
(1.18414 0.158383 0)
(1.11255 0.127879 0)
(1.12226 0.0916834 0)
(1.05801 0.0779762 0)
(1.03476 0.0423324 0)
(1.02152 0.0242313 0)
(1.01674 0.0018681 0)
(1.01519 -0.0102363 0)
(1.01726 -0.0197228 0)
(1.01972 -0.0241653 0)
(1.0226 -0.0255699 0)
(1.02567 -0.0254853 0)
(1.02807 -0.0239186 0)
(1.03013 -0.02157 0)
(1.03182 -0.0188217 0)
(1.03309 -0.0156791 0)
(1.0341 -0.0124305 0)
(1.03479 -0.00904702 0)
(1.03518 -0.00551804 0)
(1.03539 -0.0018927 0)
(1.13186 0.698609 0)
(1.12475 0.686265 0)
(1.11495 0.663341 0)
(1.09957 0.635921 0)
(1.08054 0.601811 0)
(1.05373 0.558808 0)
(1.01908 0.505158 0)
(0.981295 0.437879 0)
(0.941598 0.361046 0)
(0.894066 0.24357 0)
(0.895239 0.166221 0)
(0.801704 0.0533863 0)
(0.869779 0.00509061 0)
(0.881282 -0.0552009 0)
(0.910112 -0.0651113 0)
(0.945396 -0.0698569 0)
(0.972569 -0.066855 0)
(0.994852 -0.0600473 0)
(1.01101 -0.0545552 0)
(1.02163 -0.0477735 0)
(1.02907 -0.0421823 0)
(1.03384 -0.0367368 0)
(1.037 -0.0316282 0)
(1.03915 -0.0269776 0)
(1.04046 -0.0225483 0)
(1.04131 -0.0183257 0)
(1.04183 -0.0142747 0)
(1.0421 -0.0102628 0)
(1.04219 -0.00622237 0)
(1.04222 -0.00212372 0)
(0.985863 0.302347 0)
(0.959265 0.268556 0)
(0.925363 0.233905 0)
(0.887315 0.190542 0)
(0.842354 0.146421 0)
(0.789329 0.0922908 0)
(0.726629 0.0405316 0)
(0.660168 -0.0246346 0)
(0.583442 -0.0751605 0)
(0.520827 -0.14506 0)
(0.556053 -0.166578 0)
(0.630725 -0.199337 0)
(0.776402 -0.185514 0)
(0.888903 -0.179148 0)
(0.96403 -0.151531 0)
(1.00314 -0.128202 0)
(1.02014 -0.104447 0)
(1.02882 -0.0859682 0)
(1.03288 -0.070732 0)
(1.03548 -0.0586201 0)
(1.03725 -0.0492315 0)
(1.03845 -0.0412495 0)
(1.03951 -0.0347685 0)
(1.04032 -0.0291328 0)
(1.04097 -0.0241161 0)
(1.04148 -0.0195015 0)
(1.04182 -0.0151238 0)
(1.04204 -0.0108588 0)
(1.04211 -0.00657807 0)
(1.04214 -0.00224135 0)
(0.830087 -0.164507 0)
(0.801738 -0.1767 0)
(0.76908 -0.187675 0)
(0.734278 -0.200181 0)
(0.699302 -0.210191 0)
(0.66597 -0.222402 0)
(0.637602 -0.22812 0)
(0.623587 -0.235512 0)
(0.625628 -0.224825 0)
(0.668366 -0.215463 0)
(0.739586 -0.17756 0)
(0.827837 -0.154081 0)
(0.93749 -0.124372 0)