/*--------------------------------*- C++ -*----------------------------------*\
| =========                 |                                                 |
| \\      /  F ield         | OpenFOAM: The Open Source CFD Toolbox           |
|  \\    /   O peration     | Version:                                        |
|   \\  /    A nd           | Website:  www.openfoam.com                      |
|    \\/     M anipulation  |                                                 |
\*---------------------------------------------------------------------------*/
FoamFile
{
    version     2.0;
    format      ascii;
    class       surfaceScalarField;
    location    "0.9";
    object      phi;
}
// * * * * * * * * * * * * * * * * * * * * * * * * * * * * * * * * * * * * * //

dimensions      [0 3 -1 0 0 0 0];
oriented        oriented;


internalField   nonuniform List<scalar> 
2202
(
0.0568357
3.97602e-06
0.0568198
1.58674e-05
0.0567945
2.53525e-05
0.0567595
3.49623e-05
0.0567154
4.41537e-05
0.0566623
5.3042e-05
0.0566008
6.14931e-05
0.0565313
6.95843e-05
0.0564536
7.77005e-05
0.0563678
8.57732e-05
0.056274
9.37324e-05
0.0561725
0.000101563
0.0560632
0.000109235
0.0559464
0.000116813
0.055822
0.000124471
0.0556899
0.000132109
0.0555502
0.000139677
0.055403
0.00014719
0.0552483
0.000154677
0.0550862
0.000162095
0.0549167
0.000169489
0.05474
0.000176776
0.0545559
0.000184044
0.0543646
0.000191314
0.0541659
0.000198665
0.0539599
0.000206057
0.0537449
0.000215016
0.0535183
0.000226582
0.0532816
0.000236637
0.000264546
0.0566746
-2.02602e-05
0.0566858
4.6242e-06
0.0566838
2.74141e-05
0.0566641
5.45898e-05
0.0566306
7.76703e-05
0.0565844
9.92722e-05
0.0565268
0.000119068
0.0564592
0.00013723
0.0563822
0.000154712
0.0562962
0.000171713
0.0562019
0.000188096
0.0560994
0.000203993
0.0559892
0.000219501
0.0558714
0.00023456
0.0557464
0.000249502
0.0556143
0.000264215
0.0554752
0.000278773
0.0553291
0.000293307
0.055176
0.00030776
0.055016
0.000322071
0.0548492
0.000336256
0.0546758
0.000350188
0.0544958
0.000364079
0.0543092
0.000377889
0.054116
0.00039192
0.0539159
0.000406076
0.0537078
0.000423176
0.0534906
0.000443777
0.0532646
0.000462612
0.000516379
0.0562622
-7.3248e-06
0.0562374
2.94115e-05
0.0562071
5.78031e-05
0.0561754
8.62903e-05
0.0561392
0.000113837
0.056098
0.000140451
0.0560514
0.000165646
0.0559987
0.000189938
0.0559392
0.000214214
0.0558726
0.000238291
0.0557985
0.000262225
0.0557168
0.000285747
0.0556277
0.000308576
0.0555312
0.000331032
0.0554269
0.000353782
0.0553148
0.00037638
0.0551949
0.000398669
0.0550675
0.000420678
0.0549328
0.00044244
0.0547911
0.00046383
0.0546424
0.000484909
0.0544873
0.000505305
0.0543259
0.00052546
0.0541586
0.000545147
0.0539861
0.00056448
0.0538085
0.000583627
0.0536249
0.000606842
0.0534344
0.000634232
0.053236
0.000660984
0.000737603
0.0555749
-7.2964e-05
0.0556307
-2.6356e-05
0.0556697
1.87587e-05
0.0556883
6.77311e-05
0.0556885
0.000113598
0.0556722
0.000156721
0.0556429
0.000195016
0.0556026
0.000230256
0.0555521
0.000264664
0.0554928
0.000297579
0.0554256
0.000329482
0.0553507
0.000360657
0.0552683
0.000390901
0.0551792
0.000420141
0.0550839
0.000449097
0.0549828
0.000477501
0.0548759
0.000505561
0.0547631
0.000533455
0.0546445
0.000561041
0.0545202
0.00058813
0.0543904
0.000614682
0.0542555
0.000640261
0.0541157
0.000665212
0.0539715
0.000689376
0.0538234
0.000712594
0.0536721
0.0007349
0.0535172
0.000761797
0.0533581
0.000793299
0.053195
0.000824078
0.000915081
0.0542509
-0.00010618
0.0542662
-4.17227e-05
0.0542757
9.25949e-06
0.0542865
5.6997e-05
0.054298
0.000102112
0.0543085
0.000146233
0.0543174
0.000186101
0.054323
0.000224641
0.0543246
0.00026308
0.054321
0.000301127
0.0543118
0.000338747
0.0542966
0.00037581
0.0542762
0.000411326
0.0542502
0.00044608
0.0542175
0.000481817
0.0541778
0.000517217
0.0541312
0.00055221
0.0540778
0.000586858
0.0540177
0.000621139
0.0539509
0.000654902
0.0538775
0.000688095
0.0537975
0.000720184
0.0537116
0.00075117
0.05362
0.000780941
0.0535239
0.000808724
0.0534247
0.000834082
0.0533232
0.000863306
0.0532232
0.000893338
0.0531182
0.000929076
0.00102215
0.0532422
0.0533431
-0.00014258
0.053432
-7.96571e-05
0.0535109
-2.18518e-05
0.0535737
3.93081e-05
0.0536169
0.000103022
0.0536481
0.000154839
0.0536695
0.000203274
0.0536816
0.000250947
0.0536866
0.000296158
0.0536858
0.000339532
0.0536795
0.000382079
0.0536673
0.000423527
0.0536503
0.000463151
0.0536299
0.000502212
0.0536065
0.000540607
0.0535801
0.000578629
0.0535504
0.000616479
0.0535175
0.000654096
0.0534812
0.000691204
0.0534416
0.000727653
0.0533989
0.000762908
0.0533533
0.000796741
0.0533054
0.000828879
0.0532558
0.000858294
0.0532061
0.000883852
0.0531575
0.000911867
0.053111
0.000939786
0.0530702
0.000969908
0.00106131
0.0509598
-0.000260017
0.0510663
-0.000186183
0.0511625
-0.000118023
0.051251
-4.91333e-05
0.0513419
1.2099e-05
0.0514347
6.19866e-05
0.0515276
0.000110396
0.0516209
0.000157655
0.0517125
0.000204571
0.0518012
0.000250821
0.0518876
0.000295728
0.0519736
0.000337464
0.0520587
0.000378027
0.05214
0.000420949
0.0522178
0.000462782
0.0522923
0.000504133
0.0523636
0.00054517
0.0524318
0.000585929
0.0524967
0.000626325
0.0525579
0.000666468
0.0526151
0.000705645
0.0526679
0.000744007
0.052716
0.000780724
0.0527599
0.000814421
0.0528003
0.000843405
0.0528401
0.000872055
0.052886
0.000893985
0.052929
0.0009269
0.000989043
0.0499533
-0.000403755
0.0500913
-0.000324185
0.0502239
-0.000250705
0.0503564
-0.000181562
0.0504834
-0.00011498
0.0506029
-5.75106e-05
0.0507181
-4.76368e-06
0.050825
5.07209e-05
0.0509286
0.000100997
0.0510292
0.000150214
0.051127
0.000197907
0.0512206
0.000243859
0.0513126
0.000286104
0.0514065
0.00032704
0.0515016
0.000367661
0.0515978
0.000407904
0.0516955
0.000447462
0.0517945
0.000486924
0.0518947
0.000526155
0.0519959
0.000565317
0.0520981
0.000603447
0.0522011
0.000641015
0.0523051
0.000676716
0.0524103
0.000709191
0.0525179
0.000735797
0.0526309
0.000759068
0.0527528
0.000772076
0.0528884
0.000791247
0.000820959
0.0464762
-0.000650037
0.0467124
-0.000560406
0.0469401
-0.000478383
0.0471607
-0.000402193
0.0473779
-0.000332156
0.0475903
-0.000269898
0.047799
-0.00021348
0.0480083
-0.000158542
0.048216
-0.000106771
0.0484273
-6.10891e-05
0.0486419
-1.66893e-05
0.0488639
2.18856e-05
0.0490911
5.89027e-05
0.0493175
0.000100689
0.0495467
0.000138395
0.0497787
0.000175881
0.0500133
0.000212951
0.0502497
0.000250434
0.0504889
0.000287028
0.0507302
0.000324018
0.0509733
0.000360334
0.051217
0.000397332
0.0514604
0.000433292
0.0517029
0.000466727
0.0519431
0.000495597
0.0521848
0.000517311
0.0524297
0.000527239
0.0526775
0.000543373
0.000504086
0.0455021
0.0457154
-0.000773708
0.0459286
-0.000691552
0.0461431
-0.000616644
0.0463597
-0.000548774
0.0465766
-0.00048683
0.0467958
-0.000432713
0.0470235
-0.000386172
0.0472557
-0.000339029
0.0474881
-0.000293483
0.0477238
-0.000252371
0.0479599
-0.000214241
0.0481978
-0.000178997
0.0484435
-0.000144977
0.0486953
-0.000113424
0.0489543
-8.30549e-05
0.0492198
-5.26337e-05
0.0494944
-2.40864e-05
0.0497774
3.98372e-06
0.0500675
3.39637e-05
0.0503655
6.22564e-05
0.0506705
9.24195e-05
0.0509817
0.000122001
0.0512988
0.000149688
0.0516206
0.00017382
0.0519515
0.000186389
0.0522964
0.000182347
0.0526555
0.00018426
6.69975e-05
0.047314
-0.000827114
0.047363
-0.0007406
0.0474083
-0.000661928
0.0474502
-0.000590638
0.0474898
-0.000526393
0.0475268
-0.000469787
0.0475567
-0.000416064
0.0475841
-0.000366431
0.0476099
-0.00031924
0.0476345
-0.000276974
0.0476595
-0.000239213
0.0476836
-0.000203132
0.0477051
-0.000166519
0.047725
-0.000133334
0.0477438
-0.000101797
0.0477625
-7.13232e-05
0.0477789
-4.05303e-05
0.0477927
-9.83936e-06
0.0478061
2.0575e-05
0.0478185
4.99372e-05
0.047829
8.18843e-05
0.0478385
0.000112537
0.0478474
0.00014078
0.0478562
0.000165023
0.0478649
0.000177638
0.0478728
0.000174467
0.0478822
0.000174802
6.08657e-05
0.0505606
-0.000876724
0.0506068
-0.000786799
0.0506499
-0.000705032
0.05069
-0.000630783
0.0507269
-0.000563211
0.050759
-0.00050195
0.0507912
-0.000448199
0.0508217
-0.000397002
0.0508501
-0.000347614
0.0508749
-0.000301761
0.050895
-0.000259372
0.050912
-0.000220084
0.0509282
-0.000182719
0.0509424
-0.000147551
0.0509544
-0.000113811
0.0509626
-7.95434e-05
0.0509719
-4.97496e-05
0.0509826
-2.05335e-05
0.050993
1.01238e-05
0.0510025
4.04099e-05
0.0510135
7.08984e-05
0.0510266
9.9483e-05
0.0510416
0.000125775
0.0510583
0.000148271
0.0510736
0.000162365
0.0510915
0.000156581
0.0510993
0.000167017
7.69979e-05
0.0541067
-0.000931583
0.0541586
-0.00083861
0.0542074
-0.000753826
0.0542531
-0.000676509
0.054296
-0.000606101
0.0543362
-0.000542198
0.0543709
-0.000482897
0.054402
-0.00042807
0.0544311
-0.00037668
0.0544589
-0.00032964
0.0544865
-0.000286936
0.0545131
-0.000246716
0.054538
-0.000207585
0.0545614
-0.00017098
0.0545841
-0.000136519
0.0546084
-0.000103838
0.0546294
-7.07078e-05
0.0546458
-3.69434e-05
0.0546611
-5.20907e-06
0.0546756
2.59387e-05
0.0546894
5.70554e-05
0.0547007
8.82004e-05
0.0547097
0.00011678
0.0547169
0.000141076
0.0547236
0.00015568
0.0547283
0.000151876
0.0547401
0.000155172
6.43912e-05
0.0579344
-0.000972628
0.0579739
-0.000878152
0.0580113
-0.000791194
0.0580463
-0.000711538
0.0580789
-0.000638678
0.0581088
-0.000572122
0.0581381
-0.000512183
0.0581662
-0.000456212
0.0581926
-0.000403074
0.0582163
-0.000353266
0.0582362
-0.000306881
0.0582531
-0.000263586
0.0582682
-0.000222709
0.0582813
-0.000184083
0.0582918
-0.000146989
0.0582976
-0.000109646
0.0583038
-7.69032e-05
0.0583146
-4.77532e-05
0.058325
-1.56526e-05
0.0583351
1.58268e-05
0.0583457
4.64597e-05
0.0583578
7.61624e-05
0.058374
0.000100551
0.0583937
0.000121359
0.0584132
0.000136207
0.058433
0.000132037
0.0584404
0.000147856
7.93856e-05
0.0619047
-0.00102379
0.0619544
-0.00092781
0.0620025
-0.000839347
0.0620492
-0.000758228
0.062094
-0.000683418
0.0621359
-0.000614035
0.0621739
-0.000550216
0.0622088
-0.000491112
0.0622415
-0.000435778
0.0622727
-0.000384507
0.0623032
-0.000337304
0.0623327
-0.000293132
0.062361
-0.000251011
0.0623883
-0.000211327
0.0624152
-0.000173924
0.0624439
-0.000138397
0.0624708
-0.000103724
0.0624905
-6.75383e-05
0.0625081
-3.3209e-05
0.0625247
-7.6166e-07
0.0625404
3.07404e-05
0.0625553
6.12974e-05
0.0625661
8.96961e-05
0.0625723
0.00011524
0.0625762
0.000132219
0.0625787
0.000129535
0.0625908
0.000135807
6.39483e-05
0.0663781
-0.00105703
0.0664106
-0.000960278
0.066442
-0.000870836
0.066472
-0.00078819
0.0665004
-0.000711857
0.0665276
-0.000641221
0.0665535
-0.000576048
0.0665785
-0.000516106
0.0666025
-0.00045978
0.066624
-0.000406098
0.0666427
-0.000355928
0.0666586
-0.000309083
0.0666725
-0.000264881
0.0666841
-0.000222971
0.066693
-0.000182805
0.0666982
-0.000143597
0.0667007
-0.000106183
0.0667089
-7.57596e-05
0.0667191
-4.33864e-05
0.0667294
-1.1081e-05
0.0667399
2.01957e-05
0.0667518
4.94733e-05
0.0667664
7.50726e-05
0.0667875
9.415e-05
0.0668108
0.000108945
0.066832
0.000108297
0.0668412
0.000126643
7.45341e-05
0.0708756
-0.00109434
0.0709149
-0.000999534
0.0709552
-0.000911136
0.0709957
-0.000828736
0.0710359
-0.000752083
0.0710755
-0.000680766
0.0711134
-0.00061399
0.0711489
-0.000551547
0.0711824
-0.000493346
0.0712152
-0.000438903
0.0712472
-0.000387907
0.0712784
-0.000340322
0.071309
-0.000295479
0.0713391
-0.000252985
0.071369
-0.000212706
0.0713996
-0.000174269
0.0714305
-0.000137056
0.0714568
-0.000102021
0.0714776
-6.42232e-05
0.0714965
-2.99627e-05
0.0715143
2.35705e-06
0.0715307
3.31387e-05
0.0715446
6.11167e-05
0.0715523
8.64785e-05
0.0715541
0.000107152
0.0715555
0.000106844
0.0715652
0.000116961
6.09445e-05
0.0760236
-0.00112045
0.0760505
-0.00102649
0.0760774
-0.000938074
0.0761041
-0.000855357
0.0761301
-0.000778096
0.076155
-0.000705686
0.0761791
-0.000638043
0.0762021
-0.000574599
0.0762237
-0.000514959
0.0762437
-0.000458846
0.0762614
-0.000405597
0.0762766
-0.000355609
0.0762899
-0.000308709
0.0763007
-0.000263832
0.0763089
-0.000220879
0.0763144
-0.000179761
0.0763183
-0.000140976
0.0763203
-0.000103975
0.0763276
-7.15313e-05
0.0763368
-3.92223e-05
0.076347
-7.85315e-06
0.0763588
2.13913e-05
0.0763729
4.70028e-05
0.0763919
6.74772e-05
0.0764173
8.17199e-05
0.0764395
8.46836e-05
0.0764528
0.000103626
6.45671e-05
0.0812135
-0.00113487
0.0812327
-0.00104562
0.0812558
-0.000961249
0.0812822
-0.000881716
0.0813107
-0.000806619
0.0813408
-0.000735732
0.0813712
-0.000668526
0.0814016
-0.000604961
0.0814317
-0.000545045
0.0814616
-0.000488735
0.0814918
-0.000435867
0.0815222
-0.000385952
0.0815522
-0.000338722
0.0815822
-0.000293847
0.0816124
-0.000251074
0.081643
-0.000210331
0.0816733
-0.000171306
0.0817035
-0.000134146
0.0817307
-9.87522e-05
0.0817533
-6.18434e-05
0.0817737
-2.82449e-05
0.0817916
3.46962e-06
0.0818066
3.20184e-05
0.0818177
5.6419e-05
0.0818196
7.97708e-05
0.0818206
8.37246e-05
0.0818261
9.81288e-05
5.57518e-05
0.0870398
-0.0011514
0.0870594
-0.00106526
0.0870813
-0.000983135
0.0871048
-0.000905174
0.087129
-0.00083086
0.0871531
-0.000759846
0.0871766
-0.000692062
0.0871993
-0.000627565
0.0872207
-0.000566449
0.0872406
-0.000508716
0.0872588
-0.000454051
0.0872749
-0.000402003
0.0872886
-0.000352433
0.0873
-0.000305219
0.087309
-0.000260137
0.0873161
-0.000217376
0.0873217
-0.000176915
0.0873257
-0.000138212
0.0873278
-0.000100847
0.0873328
-6.67647e-05
0.0873409
-3.63669e-05
0.0873517
-7.31179e-06
0.0873654
1.83054e-05
0.0873823
3.94753e-05
0.0874065
5.56299e-05
0.0874291
6.1065e-05
0.0874475
7.97785e-05
5.21011e-05
0.0931044
-0.00114312
0.0931008
-0.00106163
0.0931023
-0.000984707
0.0931093
-0.000912131
0.093121
-0.000842546
0.0931359
-0.000774774
0.0931531
-0.000709231
0.093172
-0.000646521
0.0931926
-0.000586988
0.0932145
-0.000530662
0.0932377
-0.00047726
0.093262
-0.000426319
0.0932872
-0.000377632
0.0933133
-0.000331241
0.0933403
-0.000287129
0.0933679
-0.000245046
0.0933958
-0.00020475
0.0934237
-0.000166107
0.0934523
-0.000129451
0.0934794
-9.39286e-05
0.0935044
-6.13529e-05
0.0935245
-2.74422e-05
0.093541
1.84236e-06
0.0935532
2.72662e-05
0.0935588
5.00492e-05
0.0935595
6.03147e-05
0.093561
7.83023e-05
4.79448e-05
0.0996665
-0.00113266
0.0996652
-0.00106032
0.0996716
-0.000991063
0.0996846
-0.000925113
0.0997024
-0.000860352
0.0997228
-0.000795169
0.0997438
-0.000730298
0.099765
-0.000667668
0.099786
-0.000607976
0.0998065
-0.000551163
0.099826
-0.000496823
0.0998441
-0.000444378
0.0998602
-0.000393698
0.0998741
-0.000345208
0.099886
-0.000298987
0.0998958
-0.00025485
0.0999037
-0.0002127
0.0999101
-0.000172479
0.0999147
-0.000134063
0.0999192
-9.84237e-05
0.0999216
-6.37081e-05
0.0999294
-3.52558e-05
0.0999411
-9.87437e-06
0.0999565
1.18526e-05
0.0999769
2.96812e-05
0.099999
3.81971e-05
0.100021
5.6547e-05
3.95313e-05
0.106683
-0.00111207
0.106671
-0.0010484
0.106665
-0.000985395
0.106663
-0.000923355
0.106664
-0.000861334
0.106667
-0.000798246
0.106672
-0.000734705
0.106677
-0.000673252
0.106685
-0.000615773
0.106696
-0.000561776
0.106709
-0.000509688
0.106723
-0.000459001
0.10674
-0.000409847
0.106757
-0.00036291
0.106777
-0.000318301
0.106797
-0.000275713
0.10682
-0.000234954
0.106843
-0.000195896
0.106868
-0.000158671
0.106892
-0.000123161
0.106919
-8.98285e-05
0.106942
-5.8301e-05
0.106961
-2.91927e-05
0.106975
-1.81029e-06
0.106983
2.09432e-05
0.106986
3.5977e-05
0.106985
5.66013e-05
3.71715e-05
0.114189
-0.00108066
0.114166
-0.00102569
0.11415
-0.000969652
0.11414
-0.000912982
0.114134
-0.000855677
0.114134
-0.000797454
0.114138
-0.000739309
0.114148
-0.000682657
0.11416
-0.000628451
0.114176
-0.00057793
0.114194
-0.000527693
0.114213
-0.000477082
0.11423
-0.000427042
0.114246
-0.000378915
0.114261
-0.000333068
0.114274
-0.000289023
0.114285
-0.00024655
0.114295
-0.000205646
0.114303
-0.000166522
0.11431
-0.000129672
0.114315
-9.50521e-05
0.114321
-6.4468e-05
0.114328
-3.60285e-05
0.11434
-1.40669e-05
0.114356
4.83945e-06
0.114375
1.67537e-05
0.114397
3.52142e-05
2.83379e-05
0.122219
-0.00103922
0.122187
-0.000993012
0.122162
-0.000944564
0.122143
-0.000894422
0.12213
-0.00084294
0.122123
-0.000790442
0.122121
-0.000737317
0.122123
-0.000684579
0.122128
-0.000633514
0.122134
-0.000583766
0.122141
-0.0005342
0.122147
-0.000483943
0.122154
-0.000433893
0.122162
-0.000386933
0.122172
-0.000342872
0.122184
-0.00030099
0.122198
-0.00026043
0.122214
-0.000221327
0.122231
-0.000183996
0.12225
-0.000148722
0.122271
-0.000115518
0.122291
-8.44309e-05
0.12231
-5.56594e-05
0.122326
-2.97864e-05
0.122337
-6.33263e-06
0.122343
1.07564e-05
0.122345
3.33764e-05
2.44199e-05
0.130809
-0.000988748
0.130767
-0.000951217
0.130733
-0.000910634
0.130706
-0.000867595
0.130686
-0.000822487
0.130672
-0.000775964
0.130663
-0.000728397
0.130657
-0.000679327
0.130656
-0.000632376
0.130657
-0.000584499
0.13066
-0.000537177
0.130666
-0.000489638
0.130674
-0.000442547
0.130685
-0.000397898
0.130698
-0.00035555
0.130712
-0.00031473
0.130725
-0.000274006
0.130738
-0.00023365
0.130748
-0.000194838
0.130758
-0.000158197
0.130766
-0.000123962
0.130774
-9.24962e-05
0.130783
-6.38715e-05
0.130792
-3.94935e-05
0.130804
-1.75724e-05
0.130817
-2.77572e-06
0.130834
1.67755e-05
1.79539e-05
0.139995
-0.000930495
0.139945
-0.000901277
0.139903
-0.000868512
0.139868
-0.000832699
0.13984
-0.000794296
0.139817
-0.000753815
0.139801
-0.000711569
0.13979
-0.000668185
0.139782
-0.000624466
0.139777
-0.000579949
0.139776
-0.00053575
0.139777
-0.000490856
0.139781
-0.000446679
0.139787
-0.000404076
0.139794
-0.000362171
0.139801
-0.000321527
0.139808
-0.000281354
0.139816
-0.000241545
0.139825
-0.000204006
0.139836
-0.00016925
0.139849
-0.000136843
0.139863
-0.000106479
0.139877
-7.81798e-05
0.13989
-5.25214e-05
0.139902
-2.9238e-05
0.139911
-1.16282e-05
0.139918
9.96269e-06
1.28249e-05
0.149816
-0.000865877
0.149759
-0.000844363
0.14971
-0.000819038
0.149667
-0.000790288
0.149632
-0.000758554
0.149602
-0.000724193
0.149578
-0.000687766
0.14956
-0.000649618
0.149545
-0.000610069
0.149535
-0.000569741
0.149528
-0.000529095
0.149524
-0.000487027
0.149524
-0.000445782
0.149525
-0.000405445
0.149528
-0.000365144
0.149532
-0.000325758
0.149538
-0.00028712
0.149545
-0.000248997
0.149554
-0.000212832
0.149564
-0.000178814
0.149573
-0.00014648
0.149583
-0.000115946
0.149592
-8.75017e-05
0.149602
-6.19441e-05
0.149611
-3.88966e-05
0.149621
-2.11394e-05
0.149631
1.71325e-07
7.59183e-06
0.160315
-0.000796423
0.160252
-0.000781784
0.160197
-0.000763272
0.160147
-0.000741177
0.160105
-0.000715834
0.160068
-0.000687591
0.160037
-0.000656856
0.160012
-0.00062395
0.159991
-0.000589314
0.159974
-0.000553247
0.159961
-0.000516049
0.159952
-0.0004781
0.159946
-0.000439914
0.159943
-0.00040203
0.159942
-0.000364195
0.159943
-0.000326312
0.159945
-0.00028954
0.159949
-0.000253226
0.159955
-0.000218597
0.159962
-0.000185279
0.159969
-0.000153699
0.159977
-0.000123887
0.159985
-9.60604e-05
0.159994
-7.07413e-05
0.160003
-4.76811e-05
0.160011
-2.91135e-05
0.160019
-8.23951e-06
2.8274e-06
0.171536
-0.000723698
0.17147
-0.000714933
0.171409
-0.00070242
0.171354
-0.000686342
0.171305
-0.000666936
0.171262
-0.000644471
0.171224
-0.000619261
0.171192
-0.000591618
0.171165
-0.000561894
0.171142
-0.000530383
0.171123
-0.000497301
0.171108
-0.000463133
0.171097
-0.000428502
0.171088
-0.000393523
0.171082
-0.0003583
0.171079
-0.000322852
0.171077
-0.000288238
0.171078
-0.000254073
0.171081
-0.000220961
0.171084
-0.000188911
0.171089
-0.000158505
0.171095
-0.000129646
0.171101
-0.000102593
0.171108
-7.77999e-05
0.171116
-5.49358e-05
0.171122
-3.59221e-05
0.17113
-1.55823e-05
-1.45634e-06
0.183529
-0.000649176
0.18346
-0.000645196
0.183395
-0.00063773
0.183335
-0.000626869
0.183281
-0.000612755
0.183232
-0.000595576
0.183189
-0.000575558
0.18315
-0.000552961
0.183116
-0.000528055
0.183087
-0.000501172
0.183062
-0.000472651
0.183041
-0.000442174
0.183024
-0.000410986
0.18301
-0.000379714
0.182999
-0.000347326
0.182991
-0.000314829
0.182985
-0.000282675
0.182982
-0.000250846
0.182981
-0.00021967
0.182981
-0.000189195
0.182983
-0.000160479
0.182986
-0.00013286
0.182991
-0.000106798
0.182996
-8.28213e-05
0.183001
-6.04478e-05
0.183006
-4.13415e-05
0.183013
-2.16899e-05
-5.14371e-06
0.196346
-0.000574182
0.196274
-0.000573847
0.196207
-0.000570403
0.196144
-0.000563856
0.196086
-0.000554264
0.196032
-0.000541735
0.195983
-0.00052642
0.195938
-0.000508505
0.195898
-0.000488212
0.195863
-0.000465774
0.195832
-0.000441437
0.195805
-0.000415399
0.195782
-0.000387944
0.195762
-0.000360205
0.195746
-0.00033103
0.195733
-0.000301646
0.195722
-0.000272255
0.195715
-0.000243259
0.195709
-0.000214266
0.195706
-0.000185952
0.195705
-0.000159074
0.195705
-0.000133037
0.195707
-0.000108434
0.195709
-8.54899e-05
0.195713
-6.39852e-05
0.195717
-4.50999e-05
0.195721
-2.64071e-05
-8.12987e-06
0.210042
-0.000499758
0.209971
-0.000501969
0.209902
-0.000501509
0.209836
-0.000498324
0.209774
-0.000492405
0.209716
-0.000483789
0.209662
-0.000472559
0.209613
-0.000458831
0.209567
-0.000442766
0.209526
-0.000424538
0.209489
-0.000404376
0.209456
-0.000382516
0.209427
-0.000359092
0.209402
-0.000334535
0.20938
-0.000309286
0.209361
-0.000283115
0.209346
-0.000256982
0.209334
-0.000230759
0.209324
-0.000204407
0.209317
-0.000178778
0.209311
-0.000153917
0.209308
-0.000129953
0.209307
-0.000107019
0.209307
-8.55318e-05
0.209308
-6.52611e-05
0.20931
-4.70412e-05
0.209313
-2.95382e-05
-1.03323e-05
0.22468
-0.000426613
0.224609
-0.000430356
0.224539
-0.000431885
0.224472
-0.000431117
0.224407
-0.000428
0.224346
-0.000422511
0.224288
-0.000414674
0.224234
-0.000404552
0.224183
-0.000392244
0.224137
-0.000377886
0.224094
-0.000361638
0.224055
-0.000343701
0.22402
-0.000324255
0.223989
-0.000303412
0.223961
-0.000281266
0.223937
-0.000259324
0.223917
-0.000236334
0.223899
-0.000213212
0.223885
-0.000190016
0.223873
-0.000167012
0.223864
-0.000144782
0.223857
-0.000123148
0.223852
-0.000102393
0.22385
-8.27179e-05
0.223848
-6.40391e-05
0.223848
-4.69549e-05
0.22385
-3.09205e-05
-1.16696e-05
0.240325
-0.000355036
0.240254
-0.000359426
0.240184
-0.000362059
0.240116
-0.000362832
0.240049
-0.00036167
0.239985
-0.000358522
0.239924
-0.000353366
0.239866
-0.000346217
0.23981
-0.00033713
0.239759
-0.000326185
0.239711
-0.000313508
0.239666
-0.00029922
0.239625
-0.000283551
0.239589
-0.000266601
0.239555
-0.000247793
0.239525
-0.000229656
0.239499
-0.000210179
0.239477
-0.000190416
0.239457
-0.000170575
0.239441
-0.000150623
0.239427
-0.000131547
0.239417
-0.00011235
0.239408
-9.42251e-05
0.239403
-7.67858e-05
0.239399
-6.01953e-05
0.239396
-4.46591e-05
0.239396
-3.04522e-05
-1.20623e-05
0.257046
-0.000284898
0.256976
-0.000289199
0.256906
-0.000292173
0.256837
-0.00029372
0.256769
-0.000293754
0.256703
-0.00029221
0.256638
-0.000289044
0.256576
-0.00028424
0.256517
-0.000277811
0.256461
-0.000269806
0.256408
-0.000260295
0.256358
-0.000249379
0.256311
-0.00023716
0.256268
-0.000223763
0.25623
-0.000209273
0.256194
-0.000194125
0.256163
-0.00017873
0.256135
-0.000162166
0.25611
-0.000145898
0.256089
-0.000129652
0.256071
-0.000113621
0.256056
-9.76843e-05
0.256045
-8.24092e-05
0.256035
-6.75579e-05
0.256029
-5.35418e-05
0.256024
-4.00303e-05
0.256022
-2.80323e-05
-1.14738e-05
0.274921
-0.000215615
0.274851
-0.000219256
0.274781
-0.000221965
0.27471
-0.000223654
0.274641
-0.000224241
0.274572
-0.000223662
0.274505
-0.000221868
0.27444
-0.000218828
0.274377
-0.000214531
0.274316
-0.000208995
0.274258
-0.000202257
0.274203
-0.000194388
0.274151
-0.000185454
0.274103
-0.000175613
0.274058
-0.000164926
0.274018
-0.000153263
0.27398
-0.000141059
0.273947
-0.000129054
0.273917
-0.000116411
0.273892
-0.000103845
0.273869
-9.13302e-05
0.27385
-7.88536e-05
0.273835
-6.67629e-05
0.273822
-5.51651e-05
0.273813
-4.38957e-05
0.273806
-3.31535e-05
0.273801
-2.36153e-05
-9.89581e-06
0.294029
-0.000146101
0.293958
-0.000148697
0.293887
-0.00015071
0.293815
-0.000152073
0.293744
-0.000152724
0.293673
-0.00015261
0.293603
-0.000151691
0.293534
-0.000149934
0.293467
-0.000147323
0.293401
-0.000143858
0.293339
-0.000139557
0.293279
-0.000134455
0.293222
-0.000128602
0.293168
-0.000122054
0.293118
-0.000114866
0.293072
-0.000107047
0.29303
-9.88941e-05
0.292992
-9.07879e-05
0.292957
-8.18887e-05
0.292927
-7.32508e-05
0.2929
-6.45716e-05
0.292877
-5.5966e-05
0.292858
-4.76491e-05
0.292842
-3.95117e-05
0.29283
-3.16032e-05
0.292821
-2.39688e-05
0.292814
-1.73215e-05
-7.36059e-06
0.314456
-7.52171e-05
0.314383
-7.64267e-05
0.31431
-7.73962e-05
0.314236
-7.80787e-05
0.314162
-7.84356e-05
0.314088
-7.84301e-05
0.314014
-7.8032e-05
0.313941
-7.72187e-05
0.31387
-7.59752e-05
0.3138
-7.42947e-05
0.313733
-7.21821e-05
0.313668
-6.96501e-05
0.313606
-6.67236e-05
0.313548
-6.34283e-05
0.313493
-5.98223e-05
0.313442
-5.59214e-05
0.313394
-5.15468e-05
0.313351
-4.74262e-05
0.313312
-4.2902e-05
0.313277
-3.84715e-05
0.313246
-3.40043e-05
0.31322
-2.95651e-05
0.313198
-2.51619e-05
0.313179
-2.09065e-05
0.313164
-1.67892e-05
0.313153
-1.27808e-05
0.313145
-9.30709e-06
-3.99358e-06
0.336294
0.336218
0.33614
0.336062
0.335984
0.335905
0.335827
0.33575
0.335674
0.3356
0.335528
0.335458
0.335391
0.335328
0.335268
0.335212
0.335161
0.335113
0.33507
0.335032
0.334998
0.334968
0.334943
0.334922
0.334905
0.334893
0.334883
)
;

boundaryField
{
    outlet
    {
        type            calculated;
        value           nonuniform List<scalar> 
40
(
0.0530171
0.0530128
0.0530148
0.0530175
0.0530111
0.053031
0.0530012
0.0530565
0.0529944
0.0530926
0.0478884
0.0510831
0.0547528
0.0584254
0.0626062
0.0668306
0.0715788
0.0764492
0.0818349
0.0874511
0.0935652
0.100029
0.106988
0.114406
0.122349
0.13084
0.139923
0.149636
0.160024
0.171134
0.183016
0.195724
0.209315
0.223851
0.239396
0.256021
0.2738
0.292812
0.313142
0.334879
)
;
    }
    upperWall
    {
        type            symmetryPlane;
        value           uniform 0;
    }
    lowerWall
    {
        type            symmetryPlane;
        value           nonuniform 0();
    }
    inlet
    {
        type            calculated;
        value           nonuniform 0();
    }
    cylinder
    {
        type            calculated;
        value           nonuniform 0();
    }
    frontAndBack
    {
        type            empty;
        value           nonuniform 0();
    }
    procBoundary7to3
    {
        type            processor;
        value           nonuniform List<scalar> 
30
(
-1.46651e-09
-4.83074e-10
-6.14888e-10
-1.28377e-10
-4.73179e-10
-8.73932e-10
-1.11368e-09
-1.03966e-09
-4.20725e-10
-1.08642e-10
4.68326e-11
1.42065e-10
2.46683e-10
3.23726e-10
-1.74235e-10
-5.96629e-10
-5.85349e-10
-4.00354e-10
-2.33642e-10
-2.18323e-10
-3.58563e-10
-4.40102e-10
-3.98087e-10
-2.66962e-10
-1.52173e-10
-1.64132e-10
-1.93048e-10
-7.8943e-11
-2.58909e-11
-7.88199e-11
)
;
    }
    procBoundary7to6
    {
        type            processor;
        value           nonuniform List<scalar> 
42
(
-0.0568397
-0.0566504
-0.0562752
-0.0555093
-0.0542177
-0.0531361
-0.000212342
-0.0508424
-0.0498095
-0.0462299
-0.0452873
-0.000864884
-0.0472606
-0.050511
-0.0540519
-0.0578933
-0.0618535
-0.0663448
-0.0708383
-0.0759974
-0.0811991
-0.0870233
-0.0931127
-0.099677
-0.106703
-0.11422
-0.122261
-0.130859
-0.140053
-0.149881
-0.160384
-0.171609
-0.183604
-0.196421
-0.210117
-0.224753
-0.240396
-0.257116
-0.27499
-0.294098
-0.314527
-0.336369
)
;
    }
}


// ************************************************************************* //
