/*--------------------------------*- C++ -*----------------------------------*\
| =========                 |                                                 |
| \\      /  F ield         | OpenFOAM: The Open Source CFD Toolbox           |
|  \\    /   O peration     | Version:                                        |
|   \\  /    A nd           | Website:  www.openfoam.com                      |
|    \\/     M anipulation  |                                                 |
\*---------------------------------------------------------------------------*/
FoamFile
{
    version     2.0;
    format      ascii;
    class       volVectorField;
    location    "197.2";
    object      U;
}
// * * * * * * * * * * * * * * * * * * * * * * * * * * * * * * * * * * * * * //

dimensions      [0 1 -1 0 0 0 0];


internalField   nonuniform List<vector> 
1164
(
(0.454237 -0.498789 1.83204e-22)
(0.367279 -0.444349 -7.32156e-21)
(0.331789 -0.395675 1.08445e-20)
(0.32203 -0.321165 -3.47018e-21)
(0.319535 -0.21675 7.9193e-21)
(0.336482 -0.125142 3.59796e-20)
(0.442683 -0.693547 -7.73962e-22)
(0.401027 -0.62678 1.50231e-20)
(0.403351 -0.555109 -9.25171e-21)
(0.445117 -0.489393 -1.51579e-20)
(0.499256 -0.417364 -7.05771e-21)
(0.512996 -0.321799 -8.15117e-21)
(0.516493 -0.213939 3.63323e-21)
(0.501773 -0.134794 -1.15948e-21)
(0.534543 -0.085595 1.77949e-21)
(0.589986 -0.0845654 1.30525e-21)
(0.601004 -0.817322 1.95348e-21)
(0.569523 -0.781175 -4.1363e-21)
(0.556185 -0.704843 2.45835e-21)
(0.544857 -0.625471 2.73239e-21)
(0.575451 -0.521474 -1.39373e-21)
(0.635363 -0.441088 -2.22704e-20)
(0.683877 -0.329216 -9.23748e-21)
(0.693951 -0.232542 -1.96334e-21)
(0.685471 -0.0992949 -1.02433e-21)
(0.629715 -0.0296785 -4.8294e-22)
(0.607528 -0.870247 1.30113e-22)
(0.634415 -0.889887 2.53848e-21)
(0.670049 -0.875025 -1.47546e-21)
(0.695426 -0.855019 7.23885e-21)
(0.726943 -0.76325 1.60385e-20)
(0.73737 -0.684051 2.94444e-20)
(0.762285 -0.556869 -3.51946e-22)
(0.796941 -0.461017 -1.50701e-21)
(0.813211 -0.326786 -6.0081e-21)
(0.761511 -0.193613 2.02992e-22)
(0.590161 -0.784135 -2.22954e-21)
(0.608645 -0.83762 -3.17745e-22)
(0.67994 -0.861316 -1.32184e-20)
(0.770973 -0.893205 -2.3252e-21)
(0.849581 -0.877685 -9.20763e-21)
(0.90856 -0.838021 -2.59942e-20)
(0.960505 -0.772931 3.30959e-21)
(0.947166 -0.6657 -7.81701e-21)
(0.968994 -0.57771 -7.45779e-21)
(0.932192 -0.420531 -7.34327e-21)
(0.455807 -0.880282 1.10028e-21)
(0.494595 -0.88751 -1.19062e-20)
(0.574505 -0.917493 -6.69803e-21)
(0.655774 -0.908807 3.85141e-21)
(0.794063 -0.921847 -2.78532e-20)
(0.9078 -0.88817 -8.94946e-21)
(1.00668 -0.874399 1.97998e-20)
(1.07199 -0.792919 1.45753e-20)
(1.13122 -0.757373 -1.63015e-20)
(1.09124 -0.637269 -1.88764e-20)
(0.525218 -0.477482 -8.97705e-22)
(0.625231 -0.504639 1.47964e-20)
(0.729297 -0.564113 4.34981e-20)
(0.830504 -0.562064 -3.30421e-20)
(0.947326 -0.648458 -4.10169e-22)
(1.01275 -0.635084 -1.33873e-20)
(1.12816 -0.694335 -3.35016e-20)
(1.14659 -0.669111 4.32955e-21)
(1.20805 -0.663096 2.02875e-20)
(1.20716 -0.685146 5.47339e-21)
(0.380391 -0.0338764 2.66357e-21)
(0.509564 -0.018364 -4.66555e-22)
(0.672672 -0.0253907 -2.20457e-21)
(0.848514 -0.0359349 1.46034e-20)
(1.03318 -0.0910361 1.98401e-20)
(1.16557 -0.1165 2.70735e-20)
(1.3005 -0.194344 -2.99615e-20)
(1.31727 -0.24366 4.71439e-20)
(1.43032 -0.251871 -3.16889e-20)
(1.3768 -0.365821 -2.41248e-20)
(0.60515 0.348415 -1.82223e-21)
(0.671369 0.374422 -1.01513e-20)
(0.754231 0.399341 -3.00631e-21)
(0.845824 0.394174 4.60734e-21)
(0.960824 0.378879 2.52198e-20)
(1.08478 0.339991 1.40521e-20)
(1.23293 0.265996 3.78001e-20)
(1.32875 0.171296 -3.13293e-20)
(1.46411 0.117235 3.28354e-21)
(1.45576 -0.0368119 1.64919e-20)
(0.621872 0.667767 -4.04398e-22)
(0.700578 0.687999 4.06517e-21)
(0.809177 0.690198 -1.39119e-20)
(0.934539 0.697127 1.54966e-20)
(1.03744 0.672088 -3.06467e-20)
(1.13173 0.664051 -1.99277e-20)
(1.19508 0.602957 2.20991e-20)
(1.25978 0.550438 -3.23826e-21)
(1.33013 0.476712 3.4723e-20)
(1.37344 0.354369 -4.34075e-21)
(0.611605 0.562387 5.43075e-22)
(0.659492 0.590742 5.28934e-22)
(0.697625 0.570779 -7.57684e-21)
(0.780009 0.581644 1.91431e-21)
(0.85769 0.545151 2.27489e-20)
(0.958244 0.538334 -5.55111e-21)
(1.04966 0.504136 -1.37137e-20)
(1.12496 0.494077 -2.0074e-20)
(1.1813 0.469843 -1.09494e-20)
(1.23011 0.444264 3.52508e-20)
(0.604259 0.818273 -7.90888e-22)
(0.666938 0.819514 4.64546e-21)
(0.711767 0.768954 1.67075e-21)
(0.784124 0.743889 -1.9509e-20)
(0.854794 0.667647 -5.42123e-22)
(0.930891 0.604071 -3.38182e-21)
(0.999464 0.516868 4.63195e-21)
(1.0585 0.437004 -1.29127e-21)
(1.11395 0.370932 1.37549e-21)
(1.1449 0.317051 -1.44935e-20)
(0.581104 0.5976 9.47695e-22)
(0.579573 0.62034 -2.35337e-21)
(0.562331 0.593623 1.17378e-21)
(0.567236 0.611717 1.18411e-20)
(0.575823 0.603686 2.49565e-21)
(0.602881 0.592625 8.97805e-21)
(0.6653 0.578985 5.9695e-22)
(0.746738 0.53327 4.13117e-21)
(0.855669 0.497376 6.8599e-21)
(0.935421 0.412605 1.30847e-20)
(0.514408 0.174891 -1.08679e-21)
(0.538986 0.223759 3.86101e-21)
(0.560574 0.214645 5.52187e-21)
(0.613144 0.256137 -1.66104e-21)
(0.661278 0.270472 -7.12321e-21)
(0.693483 0.306433 3.17663e-21)
(0.734766 0.34578 1.37851e-21)
(0.741288 0.374554 -1.12751e-21)
(0.767194 0.417602 -1.39365e-21)
(0.781608 0.424644 -2.17604e-21)
(0.664313 0.0302 8.27046e-22)
(0.657732 0.0855454 -3.49582e-21)
(0.643217 0.097321 -1.39168e-21)
(0.653933 0.150965 6.14506e-22)
(0.666346 0.155354 5.54822e-21)
(0.708263 0.191574 -2.30336e-21)
(0.764211 0.200924 6.9947e-22)
(0.817062 0.228007 2.92901e-21)
(0.898673 0.254369 -2.09503e-21)
(0.93619 0.310016 -1.38892e-21)
(0.762541 -0.535835 1.28295e-23)
(0.723262 -0.526204 -8.3855e-23)
(0.680822 -0.530548 -8.72838e-21)
(0.664324 -0.496219 1.91127e-21)
(0.62728 -0.510988 4.49849e-21)
(0.627847 -0.454096 9.07309e-22)
(0.62176 -0.459167 -4.35486e-21)
(0.642118 -0.39507 4.30385e-21)
(0.680575 -0.391586 1.68836e-21)
(0.719195 -0.329862 -7.93224e-22)
(0.71757 -0.589955 2.06022e-22)
(0.701703 -0.608007 -2.89495e-23)
(0.708697 -0.596156 7.99184e-21)
(0.703876 -0.617522 -6.70191e-21)
(0.715934 -0.613189 -1.26488e-21)
(0.723548 -0.628154 6.07332e-21)
(0.744458 -0.626072 7.5298e-23)
(0.749825 -0.631032 -2.38306e-21)
(0.768494 -0.623676 1.69067e-21)
(0.780686 -0.615822 -6.44093e-22)
(0.685703 -0.615456 -3.23358e-22)
(0.648472 -0.619726 -1.18236e-21)
(0.636148 -0.598218 -1.3276e-21)
(0.616576 -0.607175 1.67497e-21)
(0.626652 -0.574354 -4.18475e-21)
(0.627676 -0.591311 -1.06771e-20)
(0.674988 -0.55117 -1.01221e-20)
(0.696945 -0.572333 -4.29415e-21)
(0.76016 -0.522189 -1.60218e-21)
(0.776223 -0.543818 -5.06265e-21)
(0.761022 -0.562017 -4.39184e-22)
(0.754282 -0.537251 3.46799e-21)
(0.759332 -0.504689 -3.03806e-22)
(0.762289 -0.481795 3.52206e-21)
(0.780221 -0.441709 1.73647e-22)
(0.796165 -0.428345 -2.65338e-21)
(0.834842 -0.384528 1.25305e-20)
(0.864856 -0.387401 -2.57637e-21)
(0.925017 -0.3382 -8.62289e-21)
(0.947471 -0.350398 1.31858e-21)
(0.884158 0.162029 3.69843e-22)
(0.909073 0.181941 -1.3207e-21)
(0.932883 0.193631 -4.14558e-21)
(0.958886 0.203196 -4.34428e-21)
(0.982356 0.217669 -4.23197e-22)
(1.01279 0.214628 1.36882e-20)
(1.04722 0.229822 -1.46139e-20)
(1.08713 0.208808 5.78288e-21)
(1.13277 0.222673 1.47578e-20)
(1.16665 0.181399 6.9803e-21)
(0.902835 0.377478 2.14848e-22)
(0.925643 0.388422 -4.42688e-22)
(0.94103 0.405873 3.99912e-21)
(0.965349 0.412303 5.67217e-21)
(0.98462 0.432434 -5.12674e-21)
(1.01644 0.436098 2.89821e-21)
(1.04475 0.45135 8.72706e-21)
(1.08268 0.442529 9.9133e-21)
(1.11251 0.44685 -7.94308e-21)
(1.15309 0.415215 -2.67985e-21)
(0.92723 0.650652 7.14206e-23)
(0.971251 0.646809 -1.19509e-22)
(1.00509 0.656452 -1.71685e-21)
(1.04594 0.651428 -7.51289e-21)
(1.07133 0.658917 4.85526e-21)
(1.09716 0.652593 -3.49703e-21)
(1.10567 0.661734 -2.9941e-21)
(1.1153 0.65006 -8.20548e-21)
(1.11474 0.644042 -1.74905e-21)
(1.11636 0.617529 1.87416e-21)
(0.924308 0.761641 3.55278e-22)
(0.946731 0.756788 -7.19788e-22)
(0.96322 0.757731 -4.78596e-22)
(0.986008 0.745776 7.16059e-21)
(0.999775 0.735189 -4.13916e-21)
(1.01571 0.718275 1.7453e-21)
(1.01881 0.700115 3.78297e-21)
(1.02618 0.687697 -1.30897e-21)
(1.02444 0.666318 -9.6432e-22)
(1.03179 0.648156 -8.74343e-21)
(0.959176 -0.0340424 -2.12826e-23)
(0.950673 -0.0234362 1.70724e-22)
(0.939808 -0.0239291 -1.77151e-21)
(0.934943 -0.0102142 -2.09077e-22)
(0.923385 -0.0147282 -1.77707e-21)
(0.920399 0.00222344 -5.01549e-21)
(0.903424 -0.00768522 3.49607e-21)
(0.89423 0.00811586 1.33443e-22)
(0.876856 -0.00245201 6.1526e-21)
(0.857402 0.00587646 8.84962e-21)
(0.998391 -0.331811 2.88416e-23)
(0.989238 -0.318427 -1.54133e-21)
(0.984467 -0.31324 1.89632e-21)
(0.977256 -0.300548 -2.00787e-21)
(0.967543 -0.296334 3.01407e-21)
(0.949924 -0.284892 5.05956e-21)
(0.924536 -0.281351 -5.86107e-21)
(0.893526 -0.271067 -4.88305e-22)
(0.860368 -0.26979 -2.13448e-21)
(0.823348 -0.257665 -5.77347e-21)
(1.01022 -0.567718 8.89395e-24)
(0.982239 -0.565304 6.75466e-22)
(0.958363 -0.563713 3.99368e-22)
(0.929109 -0.567676 1.63225e-22)
(0.906994 -0.568646 7.43188e-22)
(0.877577 -0.574803 -2.56438e-21)
(0.855469 -0.575747 2.8554e-22)
(0.825239 -0.574576 -1.41074e-21)
(0.801594 -0.575284 1.60052e-22)
(0.77388 -0.563711 2.9309e-22)
(0.997319 -0.686184 2.09012e-22)
(0.971075 -0.683182 -5.58134e-22)
(0.950753 -0.674682 -4.07465e-23)
(0.931633 -0.664995 -1.43185e-21)
(0.922767 -0.648893 2.01678e-21)
(0.91467 -0.632354 3.75197e-22)
(0.915377 -0.608626 2.00802e-21)
(0.912155 -0.584228 2.92435e-22)
(0.916185 -0.555969 4.50499e-22)
(0.91468 -0.52535 1.68905e-21)
(1.05649 0.321932 -4.06057e-22)
(1.05947 0.329727 1.04958e-22)
(1.06582 0.336738 1.14727e-21)
(1.07293 0.346964 -3.84009e-23)
(1.08298 0.355182 6.5748e-22)
(1.09251 0.363796 -2.0405e-21)
(1.10335 0.372236 -6.08945e-23)
(1.11273 0.379038 3.29507e-22)
(1.12307 0.387578 -9.70111e-23)
(1.13126 0.392448 -2.48984e-22)
(1.08409 0.660353 -9.29434e-23)
(1.09604 0.659355 -1.45058e-22)
(1.10328 0.651938 -2.6503e-22)
(1.10937 0.646901 1.16266e-21)
(1.11038 0.635351 -8.89117e-22)
(1.11025 0.624358 7.98938e-22)
(1.10456 0.607654 -9.35488e-22)
(1.09743 0.590485 4.56829e-22)
(1.08504 0.567063 -3.01676e-22)
(1.07452 0.544178 3.51139e-22)
(0.999417 0.132557 1.79151e-23)
(0.998548 0.128909 -5.01948e-23)
(0.993323 0.120672 1.23147e-23)
(0.987387 0.115419 1.66002e-22)
(0.976811 0.104988 -2.81359e-22)
(0.965799 0.0967261 3.03517e-22)
(0.949626 0.0840903 -4.52544e-22)
(0.933181 0.0725401 5.46374e-22)
(0.912336 0.0580207 6.54388e-23)
(0.890812 0.0430905 -2.75663e-22)
(0.743788 -0.153838 0)
(0.854673 -0.189697 0)
(0.929351 -0.165867 0)
(0.945168 -0.116715 0)
(0.948278 -0.0813781 0)
(0.944441 -0.0470267 0)
(0.948068 -0.0277045 0)
(0.95212 -0.0122699 0)
(0.965395 -0.00612659 0)
(0.979501 -0.00199179 0)
(0.993807 -0.000712927 0)
(1.00606 -0.00166633 0)
(1.01535 -0.00137744 0)
(1.0196 -0.000948351 0)
(1.02222 0.000349174 0)
(1.02335 0.0010193 0)
(1.02396 0.00152932 0)
(1.02408 0.00134067 0)
(1.02375 0.00107673 0)
(1.02327 0.000634758 0)
(1.02259 0.000300573 0)
(1.02193 1.91267e-05 0)
(1.02126 -0.000249468 0)
(1.02059 -0.000359527 0)
(1.02 -0.000475479 0)
(1.01944 -0.000438187 0)
(1.01895 -0.000293399 0)
(1.01871 -0.000151949 0)
(0.62775 0.0041693 0)
(0.650977 0.0406092 0)
(0.729997 0.0542681 0)
(0.86189 0.0324684 0)
(0.954945 -0.000903042 0)
(0.982192 -0.00418979 0)
(0.996371 -0.0150843 0)
(1.00793 -0.00825583 0)
(1.01612 -0.00955479 0)
(1.02323 1.55806e-05 0)
(1.02511 0.00507624 0)
(1.02778 0.0127072 0)
(1.02737 0.0153035 0)
(1.02525 0.019203 0)
(1.02192 0.0179815 0)
(1.01998 0.0163639 0)
(1.01841 0.0127664 0)
(1.01833 0.00997971 0)
(1.01889 0.00729109 0)
(1.01963 0.00554461 0)
(1.02025 0.00400583 0)
(1.02043 0.00283894 0)
(1.02033 0.00179877 0)
(1.02 0.000963491 0)
(1.01954 0.000355756 0)
(1.01909 -2.22473e-05 0)
(1.01864 -0.000269621 0)
(1.01821 -0.000311352 0)
(1.01782 -0.000229157 0)
(1.01763 -0.000127468 0)
(0.789601 -0.0775738 0)
(0.776174 -0.018393 0)
(0.762305 0.0489951 0)
(0.81535 0.0612853 0)
(0.894085 0.0528611 0)
(0.951398 0.0257876 0)
(0.960776 0.0296557 0)
(0.967402 0.011452 0)
(0.964215 0.012751 0)
(0.974063 -0.000434365 0)
(0.981915 -0.000733643 0)
(0.989922 -0.00766525 0)
(0.998764 -0.00740691 0)
(1.00632 -0.0114099 0)
(1.01168 -0.00972141 0)
(1.0148 -0.00853155 0)
(1.01748 -0.00525052 0)
(1.0195 -0.00319629 0)
(1.02089 -0.00130323 0)
(1.02187 -0.00053754 0)
(1.02218 -4.08231e-05 0)
(1.02223 8.2354e-05 0)
(1.02197 7.98889e-05 0)
(1.02157 1.21129e-05 0)
(1.0211 -0.000183173 0)
(1.02057 -0.00028633 0)
(1.02005 -0.000401663 0)
(1.01956 -0.00039163 0)
(1.01911 -0.000265532 0)
(1.01889 -0.000138259 0)
(0.943843 -0.318823 0)
(0.92078 -0.247223 0)
(0.867245 -0.174595 0)
(0.826821 -0.131509 0)
(0.856538 -0.0855289 0)
(0.926679 -0.0781925 0)
(0.972597 -0.0790999 0)
(0.985919 -0.0763911 0)
(1.0017 -0.0651405 0)
(1.01072 -0.047394 0)
(1.01887 -0.0329193 0)
(1.02642 -0.0144642 0)
(1.02768 -0.00444768 0)
(1.0276 0.00602871 0)
(1.02677 0.00757503 0)
(1.02524 0.00868848 0)
(1.02356 0.0068149 0)
(1.02221 0.00602382 0)
(1.02174 0.00476338 0)
(1.02134 0.00403155 0)
(1.02114 0.003098 0)
(1.02077 0.00220895 0)
(1.02032 0.00139347 0)
(1.01987 0.000681023 0)
(1.01938 0.000178881 0)
(1.01897 -0.000120721 0)
(1.01859 -0.000331637 0)
(1.01823 -0.000348532 0)
(1.01788 -0.000247895 0)
(1.01772 -0.000133768 0)
(1.11235 -0.554419 0)
(1.12891 -0.440185 0)
(1.07693 -0.388727 0)
(0.986133 -0.29611 0)
(0.943209 -0.16572 0)
(0.940183 -0.0776848 0)
(0.942495 -0.0443266 0)
(0.959347 -0.0203004 0)
(0.992455 -0.0160574 0)
(1.00386 -0.0122665 0)
(1.01687 -0.0095446 0)
(1.01581 -0.0128051 0)
(1.01714 -0.01089 0)
(1.01552 -0.0137744 0)
(1.01313 -0.0107551 0)
(1.01354 -0.00941913 0)
(1.01474 -0.00590122 0)
(1.01705 -0.00395853 0)
(1.01866 -0.00207963 0)
(1.02001 -0.00110165 0)
(1.02073 -0.000455772 0)
(1.0211 -0.000129177 0)
(1.02118 -7.3133e-05 0)
(1.02101 -0.000101356 0)
(1.02075 -0.000287889 0)
(1.02039 -0.000404392 0)
(1.02 -0.000500634 0)
(1.01964 -0.000470863 0)
(1.01927 -0.000317533 0)
(1.0191 -0.000156228 0)
(1.22095 -0.591536 0)
(1.23196 -0.522483 0)
(1.2537 -0.502803 0)
(1.25918 -0.414524 0)
(1.27818 -0.313728 0)
(1.18926 -0.250623 0)
(1.09161 -0.210186 0)
(1.0463 -0.156704 0)
(1.01967 -0.121325 0)
(1.02402 -0.0850985 0)
(1.02191 -0.0607569 0)
(1.02779 -0.0359392 0)
(1.02805 -0.0220219 0)
(1.02803 -0.00953811 0)
(1.03026 -0.00562505 0)
(1.02885 -0.00204737 0)
(1.02774 -0.000966554 0)
(1.02555 0.000469556 0)
(1.02397 0.00112224 0)
(1.02245 0.0014094 0)
(1.02134 0.00121225 0)
(1.02044 0.000723735 0)
(1.01973 0.000275035 0)
(1.01926 -0.000155707 0)
(1.01889 -0.000447797 0)
(1.01861 -0.000566663 0)
(1.0184 -0.000658563 0)
(1.01818 -0.000576747 0)
(1.01793 -0.000381561 0)
(1.01783 -0.000181619 0)
(1.41608 -0.266453 0)
(1.46847 -0.236384 0)
(1.42948 -0.180944 0)
(1.37393 -0.119081 0)
(1.28691 -0.0898132 0)
(1.18413 -0.0815645 0)
(1.13852 -0.0636839 0)
(1.12091 -0.0518891 0)
(1.11392 -0.0270771 0)
(1.09919 -0.0140629 0)
(1.08622 -0.00684032 0)
(1.06623 -0.00277031 0)
(1.05041 -0.00227513 0)
(1.03573 -0.00141133 0)
(1.02329 -0.00041057 0)
(1.01891 9.82505e-05 0)
(1.01728 0.000447799 0)
(1.01827 0.000458234 0)
(1.01912 0.000450921 0)
(1.02004 0.000453907 0)
(1.02061 0.000348772 0)
(1.0209 0.000237871 0)
(1.02102 -6.43876e-05 0)
(1.02088 -0.000321802 0)
(1.02065 -0.000597102 0)
(1.02038 -0.000749746 0)
(1.02008 -0.000809494 0)
(1.01981 -0.000707866 0)
(1.01951 -0.000468542 0)
(1.01938 -0.00020969 0)
(1.54773 -0.0332837 0)
(1.55421 -0.0439922 0)
(1.52353 -0.0453153 0)
(1.45636 -0.0655958 0)
(1.32969 -0.0559784 0)
(1.21656 -0.0710903 0)
(1.11532 -0.033842 0)
(1.0998 -0.0434343 0)
(1.06933 -0.0190268 0)
(1.05244 -0.027332 0)
(1.03469 -0.0132728 0)
(1.0336 -0.0184061 0)
(1.02637 -0.0121245 0)
(1.0273 -0.0136958 0)
(1.02955 -0.011269 0)
(1.02914 -0.00923454 0)
(1.02864 -0.00624429 0)
(1.02646 -0.00386377 0)
(1.02449 -0.00210012 0)
(1.02249 -0.00136336 0)
(1.02098 -0.0010199 0)
(1.01998 -0.00110955 0)
(1.01929 -0.00113866 0)
(1.01894 -0.00120691 0)
(1.01872 -0.00126608 0)
(1.01856 -0.00118627 0)
(1.01844 -0.0011265 0)
(1.0183 -0.000914581 0)
(1.01811 -0.000584709 0)
(1.01804 -0.000251892 0)
(1.45185 0.272835 0)
(1.40476 0.239009 0)
(1.39527 0.149525 0)
(1.35701 0.116223 0)
(1.30275 0.0441754 0)
(1.26419 0.0218029 0)
(1.21486 0.00925675 0)
(1.16809 0.0239727 0)
(1.14299 0.018851 0)
(1.1144 0.0305165 0)
(1.10307 0.0233785 0)
(1.07552 0.0296015 0)
(1.06263 0.0243381 0)
(1.04459 0.0253062 0)
(1.03228 0.0209613 0)
(1.02667 0.0173633 0)
(1.02349 0.0123319 0)
(1.02275 0.00883482 0)
(1.02231 0.00569743 0)
(1.02208 0.00382137 0)
(1.02196 0.00218664 0)
(1.02168 0.00108787 0)
(1.02147 0.000129481 0)
(1.02117 -0.000541618 0)
(1.02086 -0.000961213 0)
(1.02063 -0.00115132 0)
(1.02038 -0.00117092 0)
(1.02017 -0.000979267 0)
(1.01993 -0.000643067 0)
(1.01983 -0.000269193 0)
(1.24599 0.366458 0)
(1.20739 0.349299 0)
(1.2148 0.295479 0)
(1.14293 0.27429 0)
(1.11979 0.221863 0)
(1.11502 0.19601 0)
(1.13454 0.144131 0)
(1.09883 0.125842 0)
(1.09758 0.0781887 0)
(1.05243 0.0666253 0)
(1.03305 0.0374135 0)
(1.02197 0.0203731 0)
(1.01283 0.00727014 0)
(1.01429 -0.00477403 0)
(1.01612 -0.00723127 0)
(1.01775 -0.00846018 0)
(1.01877 -0.00599773 0)
(1.01884 -0.00477266 0)
(1.01831 -0.00338077 0)
(1.0179 -0.00299581 0)
(1.01749 -0.0025315 0)
(1.01752 -0.00235473 0)
(1.01765 -0.00215447 0)
(1.01787 -0.0019752 0)
(1.01813 -0.00191197 0)
(1.01828 -0.00172372 0)
(1.0184 -0.00154288 0)
(1.01844 -0.00122916 0)
(1.01836 -0.000781459 0)
(1.01835 -0.000315587 0)
(1.16442 0.247401 0)
(1.14237 0.220985 0)
(1.2013 0.163476 0)
(1.11796 0.137336 0)
(1.13701 0.117765 0)
(1.06332 0.116719 0)
(1.05564 0.111993 0)
(1.02493 0.111377 0)
(1.03049 0.0820255 0)
(1.03956 0.0754071 0)
(1.04151 0.0617071 0)
(1.03912 0.0569661 0)
(1.03761 0.0491835 0)
(1.03147 0.0457071 0)
(1.03031 0.0362675 0)
(1.02914 0.028756 0)
(1.02818 0.020163 0)
(1.02683 0.0143007 0)
(1.02569 0.00920218 0)
(1.02429 0.00585333 0)
(1.02329 0.00310158 0)
(1.02237 0.00116121 0)
(1.02172 -0.000197743 0)
(1.0213 -0.00110333 0)
(1.02097 -0.00154067 0)
(1.02081 -0.00165858 0)
(1.02071 -0.00159562 0)
(1.02061 -0.00129094 0)
(1.02047 -0.000837773 0)
(1.02043 -0.0003327 0)
(0.991981 0.339124 0)
(0.996827 0.318739 0)
(1.04762 0.239599 0)
(1.02609 0.21922 0)
(1.12829 0.149437 0)
(1.10458 0.135197 0)
(1.15158 0.103064 0)
(1.049 0.115054 0)
(1.03552 0.086188 0)
(1.00763 0.0852019 0)
(1.00044 0.0509278 0)
(0.99022 0.0404315 0)
(0.994669 0.0207063 0)
(0.994773 0.00910264 0)
(0.995962 0.00372939 0)
(0.998536 -6.3607e-05 0)
(1.00182 -0.000721324 0)
(1.00541 -0.00192151 0)
(1.00825 -0.00219177 0)
(1.01097 -0.00254339 0)
(1.01306 -0.00247901 0)
(1.01481 -0.00234275 0)
(1.01619 -0.00231146 0)
(1.01711 -0.00220553 0)
(1.01782 -0.00220678 0)
(1.01827 -0.00207169 0)
(1.01856 -0.00184889 0)
(1.01874 -0.00147738 0)
(1.01874 -0.00094614 0)
(1.01878 -0.000366291 0)
(0.805091 0.403578 0)
(0.833114 0.400491 0)
(0.84914 0.379854 0)
(0.856872 0.388518 0)
(0.9077 0.344527 0)
(0.920238 0.312984 0)
(1.00696 0.237773 0)
(0.95867 0.179172 0)
(0.99322 0.119507 0)
(0.982509 0.0809082 0)
(0.973013 0.0542457 0)
(0.992253 0.0414592 0)
(0.99038 0.0288501 0)
(1.00425 0.0262888 0)
(1.01612 0.0184286 0)
(1.02451 0.0156169 0)
(1.0282 0.010884 0)
(1.02847 0.00804154 0)
(1.02739 0.00492585 0)
(1.02558 0.00253613 0)
(1.02401 0.000601814 0)
(1.02282 -0.000869494 0)
(1.02196 -0.00169091 0)
(1.02158 -0.00218975 0)
(1.02136 -0.00235449 0)
(1.0213 -0.00223414 0)
(1.02132 -0.0020206 0)
(1.0213 -0.0015938 0)
(1.02121 -0.0010198 0)
(1.02121 -0.000392393 0)
(0.930792 0.303506 0)
(0.972475 0.301257 0)
(0.997426 0.308555 0)
(1.00769 0.316319 0)
(0.973407 0.32992 0)
(0.899757 0.323505 0)
(0.829816 0.306575 0)
(0.778615 0.24657 0)
(0.820214 0.209803 0)
(0.884091 0.137118 0)
(0.939283 0.107439 0)
(0.959972 0.0609307 0)
(0.984551 0.0437168 0)
(0.987553 0.0229261 0)
(0.986151 0.0168351 0)
(0.987743 0.00916176 0)
(0.990661 0.00606658 0)
(0.996181 0.00287877 0)
(1.00143 0.00113238 0)
(1.00638 -3.68233e-05 0)
(1.01029 -0.000830117 0)
(1.0131 -0.00126188 0)
(1.0152 -0.00180514 0)
(1.01657 -0.00213033 0)
(1.01756 -0.00231411 0)
(1.0183 -0.00230695 0)
(1.0188 -0.00208988 0)
(1.01915 -0.00167431 0)
(1.01929 -0.00108272 0)
(1.0194 -0.000407518 0)
(0.766435 -0.311632 0)
(0.801801 -0.326855 0)
(0.85546 -0.326667 0)
(0.874415 -0.351908 0)
(0.890193 -0.368269 0)
(0.863137 -0.38313 0)
(0.794022 -0.378785 0)
(0.737121 -0.338468 0)
(0.744271 -0.25099 0)
(0.78975 -0.18225 0)
(0.825711 -0.138207 0)
(0.876165 -0.0991079 0)
(0.920244 -0.07269 0)
(0.960376 -0.0506099 0)
(0.995002 -0.0366575 0)
(1.01164 -0.0242861 0)
(1.02089 -0.0166157 0)
(1.02283 -0.0115274 0)
(1.0229 -0.00830472 0)
(1.02209 -0.00671104 0)
(1.02133 -0.00551898 0)
(1.02103 -0.0049389 0)
(1.02089 -0.00437396 0)
(1.02102 -0.00391318 0)
(1.0213 -0.00358361 0)
(1.02154 -0.00312281 0)
(1.02181 -0.00265977 0)
(1.02199 -0.0020575 0)
(1.02203 -0.00129808 0)
(1.02209 -0.000480182 0)
(0.799874 -0.603184 0)
(0.818009 -0.584813 0)
(0.850759 -0.595765 0)
(0.877619 -0.587449 0)
(0.899613 -0.590452 0)
(0.914065 -0.54141 0)
(0.974272 -0.501211 0)
(1.03428 -0.380666 0)
(1.09549 -0.287851 0)
(1.08826 -0.17839 0)
(1.08307 -0.130295 0)
(1.06441 -0.0668803 0)
(1.05351 -0.0406704 0)
(1.03664 -0.0110879 0)
(1.01994 -0.00150029 0)
(1.01258 0.00560716 0)
(1.00801 0.00538687 0)
(1.00794 0.00509809 0)
(1.0095 0.00291979 0)
(1.01142 0.00149 0)
(1.01344 -0.000237585 0)
(1.01489 -0.00140756 0)
(1.01613 -0.0023617 0)
(1.01718 -0.00299422 0)
(1.018 -0.00319443 0)
(1.01878 -0.00310795 0)
(1.0194 -0.0027798 0)
(1.01985 -0.00218718 0)
(1.0201 -0.00140211 0)
(1.02026 -0.000515184 0)
(0.805491 -0.49517 0)
(0.864104 -0.451408 0)
(0.937055 -0.413594 0)
(1.00481 -0.358876 0)
(1.07041 -0.305925 0)
(1.15063 -0.237093 0)
(1.19533 -0.186666 0)
(1.21149 -0.13406 0)
(1.19129 -0.105914 0)
(1.12076 -0.0926153 0)
(1.06774 -0.0704986 0)
(1.04597 -0.0780338 0)
(1.02596 -0.0558871 0)
(1.02347 -0.0599024 0)
(1.01847 -0.0463598 0)
(1.01625 -0.0403059 0)
(1.01499 -0.0298469 0)
(1.01517 -0.0231914 0)
(1.01564 -0.0168031 0)
(1.01692 -0.0128305 0)
(1.01802 -0.0098266 0)
(1.01918 -0.00790261 0)
(1.02019 -0.00671596 0)
(1.02096 -0.00575714 0)
(1.0217 -0.00511828 0)
(1.02228 -0.00443317 0)
(1.02272 -0.00368758 0)
(1.02305 -0.00281935 0)
(1.02318 -0.00176747 0)
(1.02329 -0.000638121 0)
(1.02187 -0.296586 0)
(1.09906 -0.252109 0)
(1.17108 -0.200157 0)
(1.22127 -0.158357 0)
(1.2699 -0.100771 0)
(1.29322 -0.08107 0)
(1.28858 -0.0424523 0)
(1.27949 -0.0483266 0)
(1.22074 -0.0278117 0)
(1.2083 -0.0483291 0)
(1.12702 -0.0106565 0)
(1.12185 -0.0146727 0)
(1.09281 0.00308535 0)
(1.0718 0.0102262 0)
(1.06002 0.0109453 0)
(1.04798 0.0107806 0)
(1.03824 0.00630289 0)
(1.02957 0.00351285 0)
(1.02397 1.07665e-05 0)
(1.02 -0.00215157 0)
(1.01807 -0.00387421 0)
(1.01735 -0.00504563 0)
(1.01735 -0.00554556 0)
(1.01798 -0.00574343 0)
(1.01875 -0.00554176 0)
(1.01959 -0.00497647 0)
(1.0204 -0.00424623 0)
(1.02101 -0.00324597 0)
(1.02138 -0.00204008 0)
(1.02161 -0.000736441 0)
(1.2152 0.209886 0)
(1.25449 0.21103 0)
(1.29013 0.217004 0)
(1.30714 0.221839 0)
(1.31013 0.21803 0)
(1.29517 0.205123 0)
(1.27312 0.189972 0)
(1.24671 0.167994 0)
(1.18182 0.150597 0)
(1.17816 0.113821 0)
(1.14786 0.0908868 0)
(1.08432 0.072894 0)
(1.07524 0.0447083 0)
(1.04031 0.0254614 0)
(1.01808 0.0141351 0)
(1.00822 0.00356006 0)
(1.00467 -0.000689981 0)
(1.00723 -0.00414699 0)
(1.0103 -0.00578746 0)
(1.01366 -0.00675609 0)
(1.0164 -0.00758654 0)
(1.01836 -0.0077716 0)
(1.02008 -0.00795029 0)
(1.02135 -0.00770132 0)
(1.0224 -0.00715627 0)
(1.02332 -0.0063709 0)
(1.02402 -0.0053182 0)
(1.02456 -0.00402945 0)
(1.02485 -0.00252208 0)
(1.02503 -0.000895671 0)
(1.18812 0.395438 0)
(1.21431 0.388205 0)
(1.23255 0.369507 0)
(1.23354 0.341928 0)
(1.22601 0.30954 0)
(1.20381 0.284721 0)
(1.16443 0.22715 0)
(1.11293 0.202954 0)
(1.07246 0.142981 0)
(0.995897 0.121462 0)
(1.00974 0.0649091 0)
(0.978382 0.0595717 0)
(0.982189 0.0258341 0)
(0.993948 0.0147532 0)
(1.01073 -0.000140093 0)
(1.0167 -0.0065458 0)
(1.01889 -0.0104708 0)
(1.01761 -0.0124128 0)
(1.01611 -0.012702 0)
(1.0154 -0.0129148 0)
(1.01531 -0.01234 0)
(1.0162 -0.011883 0)
(1.01733 -0.0111669 0)
(1.01862 -0.0102175 0)
(1.01997 -0.00923825 0)
(1.02112 -0.00793994 0)
(1.02213 -0.00651308 0)
(1.02288 -0.00488061 0)
(1.02331 -0.00302648 0)
(1.02358 -0.00107024 0)
(1.11095 0.609535 0)
(1.10451 0.59439 0)
(1.09634 0.573478 0)
(1.08985 0.547822 0)
(1.07476 0.505924 0)
(1.06087 0.479958 0)
(1.03328 0.416535 0)
(0.996254 0.375715 0)
(1.03566 0.303834 0)
(0.989682 0.254138 0)
(1.06229 0.189623 0)
(1.01833 0.149388 0)
(1.02392 0.106085 0)
(1.00656 0.0863191 0)
(1.001 0.0594428 0)
(1.0024 0.0421066 0)
(1.00578 0.0245103 0)
(1.01039 0.0123414 0)
(1.01415 0.0026971 0)
(1.0167 -0.00332538 0)
(1.01891 -0.00754456 0)
(1.02057 -0.00978988 0)
(1.02208 -0.0106958 0)
(1.02354 -0.0107709 0)
(1.02472 -0.0100532 0)
(1.02579 -0.00884311 0)
(1.02667 -0.00732529 0)
(1.0273 -0.005481 0)
(1.02767 -0.00341 0)
(1.02789 -0.00119812 0)
(1.02415 0.618865 0)
(1.01043 0.588589 0)
(0.99232 0.548137 0)
(0.964525 0.504567 0)
(0.933656 0.455856 0)
(0.878733 0.393981 0)
(0.837322 0.336423 0)
(0.749263 0.259434 0)
(0.743339 0.194348 0)
(0.683311 0.118308 0)
(0.74933 0.0606105 0)
(0.781077 0.00944911 0)
(0.843983 -0.0150148 0)
(0.887922 -0.038049 0)
(0.922565 -0.0436499 0)
(0.946632 -0.0426495 0)
(0.96585 -0.0366859 0)
(0.980606 -0.0318839 0)
(0.991573 -0.0268525 0)
(1.0005 -0.0237175 0)
(1.00699 -0.0209325 0)
(1.01197 -0.0185726 0)
(1.01597 -0.0167609 0)
(1.01891 -0.0148069 0)
(1.02128 -0.0129249 0)
(1.02314 -0.0109306 0)
(1.02452 -0.00877871 0)
(1.02553 -0.00648136 0)
(1.02611 -0.00399508 0)
(1.02645 -0.00138847 0)
(0.845295 -0.00528664 0)
(0.824415 -0.0428701 0)
(0.80469 -0.0693071 0)
(0.761193 -0.111448 0)
(0.720671 -0.142403 0)
(0.653955 -0.195107 0)
(0.610111 -0.22962 0)
(0.561012 -0.265959 0)
(0.580881 -0.268603 0)
(0.622062 -0.255638 0)
(0.737171 -0.210677 0)
(0.840382 -0.149729 0)
(0.89912 -0.103756 0)
(0.949416 -0.0583856 0)
(0.989546 -0.0443454 0)
(1.01263 -0.0289815 0)
(1.02329 -0.0260067 0)
(1.02556 -0.0220869 0)
(1.02605 -0.0215526 0)
(1.02546 -0.0208991 0)
(1.02529 -0.0200238 0)
(1.02601 -0.0192991 0)
(1.02674 -0.0178463 0)
(1.02778 -0.0161177 0)
(1.02887 -0.0142305 0)
(1.02978 -0.0119853 0)
(1.0306 -0.00963524 0)
(1.03119 -0.00709459 0)
(1.0315 -0.0043627 0)
(1.03171 -0.00151152 0)
(0.789811 -0.265962 0)
(0.756134 -0.275344 0)
(0.725284 -0.280445 0)
(0.686032 -0.285912 0)
(0.653949 -0.282786 0)
(0.627907 -0.276028 0)
(0.640191 -0.25308 0)
(0.690757 -0.225743 0)
(0.774928 -0.181335 0)
(0.878307 -0.155328 0)
(0.990932 -0.106108 0)
(1.04501 -0.0959433 0)
(1.05568 -0.0605198 0)
(1.02244 -0.054181 0)
(0.993015 -0.0362392 0)
(0.985104 -0.0324821 0)
(0.983156 -0.0276099 0)
(0.989162 -0.0261582 0)
(0.996583 -0.0257154 0)
(1.00358 -0.0241611 0)
(1.01032 -0.0233606 0)
(1.0154 -0.0217188 0)
(1.01949 -0.0198173 0)
(1.02282 -0.0178684 0)
(1.02525 -0.015537 0)
(1.02719 -0.013049 0)
(1.02863 -0.0104312 0)
(1.02962 -0.00763184 0)
(1.03021 -0.0046869 0)
(1.03053 -0.00161255 0)
(0.746986 -0.560688 0)
(0.719061 -0.557082 0)
(0.701563 -0.538713 0)
(0.697873 -0.512689 0)
(0.708284 -0.47496 0)
(0.727339 -0.428248 0)
(0.755307 -0.365455 0)
(0.7882 -0.305481 0)
(0.809241 -0.232757 0)
(0.870059 -0.183238 0)
(0.907756 -0.131406 0)
(0.974628 -0.127098 0)
(0.97918 -0.11047 0)
(1.00185 -0.107195 0)
(1.01808 -0.0947156 0)
(1.02327 -0.0832037 0)
(1.02598 -0.0690066 0)
(1.02658 -0.0588436 0)
(1.026 -0.0483895 0)
(1.0271 -0.0413176 0)
(1.02834 -0.0354315 0)
(1.02963 -0.0302081 0)
(1.03124 -0.026104 0)
(1.03252 -0.0221953 0)
(1.03371 -0.0186333 0)
(1.03473 -0.0152719 0)
(1.03547 -0.0119499 0)
(1.03603 -0.00865528 0)
(1.03629 -0.00527235 0)
(1.03645 -0.00180195 0)
(0.928905 -0.49398 0)
(0.948368 -0.450216 0)
(0.976981 -0.398145 0)
(1.00873 -0.343394 0)
(1.04167 -0.285677 0)
(1.07137 -0.22541 0)
(1.10532 -0.166097 0)
(1.13841 -0.110216 0)
(1.16748 -0.0542592 0)
(1.19115 -0.0100116 0)
(1.12658 0.029955 0)
(1.12791 0.0371377 0)
(1.1189 0.0259823 0)
(1.07979 0.0392546 0)
(1.06822 0.0122548 0)
(1.05206 0.00472211 0)
(1.04203 -0.0120966 0)
(1.03321 -0.0196255 0)
(1.02898 -0.0256073 0)
(1.02728 -0.0283375 0)
(1.02707 -0.0281905 0)
(1.02826 -0.0270478 0)
(1.02964 -0.024914 0)
(1.03106 -0.0221067 0)
(1.03246 -0.0191234 0)
(1.03358 -0.0158501 0)
(1.03452 -0.0125122 0)
(1.03518 -0.00909331 0)
(1.03554 -0.00554051 0)
(1.03575 -0.00189551 0)
(1.14286 0.40389 0)
(1.15058 0.415488 0)
(1.15835 0.418456 0)
(1.1613 0.423628 0)
(1.16286 0.417679 0)
(1.15909 0.40817 0)
(1.15753 0.385297 0)
(1.15356 0.357515 0)
(1.14781 0.310792 0)
(1.13051 0.243692 0)
(1.0807 0.200038 0)
(0.976246 0.111434 0)
(1.01922 0.0629889 0)
(0.968422 0.0140533 0)
(0.958621 -0.00989556 0)
(0.969399 -0.0268006 0)
(0.984261 -0.0371747 0)
(1.00022 -0.0393287 0)
(1.01397 -0.0413615 0)
(1.02334 -0.0396692 0)
(1.03014 -0.0371942 0)
(1.03468 -0.0338599 0)
(1.03757 -0.0299146 0)
(1.03959 -0.0259358 0)
(1.04084 -0.0219204 0)
(1.04165 -0.0179099 0)
(1.04216 -0.0140023 0)
(1.04243 -0.0100862 0)
(1.0425 -0.0061199 0)
(1.04254 -0.00208821 0)
(1.06126 0.520054 0)
(1.04402 0.490767 0)
(1.02344 0.458274 0)
(0.998313 0.41919 0)
(0.966132 0.375677 0)
(0.92574 0.323379 0)
(0.87865 0.266108 0)
(0.826188 0.195738 0)
(0.761619 0.131436 0)
(0.6911 0.0323219 0)
(0.688812 -0.0228706 0)
(0.675106 -0.101604 0)
(0.784747 -0.119471 0)
(0.861808 -0.148614 0)
(0.928006 -0.136878 0)
(0.971686 -0.12273 0)
(0.995483 -0.103631 0)
(1.01129 -0.0861859 0)
(1.02141 -0.0718994 0)
(1.02828 -0.0596095 0)
(1.0331 -0.0501928 0)
(1.03619 -0.0420814 0)
(1.03837 -0.0354047 0)
(1.03986 -0.0296442 0)
(1.04085 -0.0244843 0)
(1.04156 -0.0197555 0)
(1.04201 -0.0152955 0)
(1.04228 -0.0109604 0)
(1.04234 -0.00663193 0)
(1.04239 -0.00225887 0)
(0.868777 0.0283075 0)
(0.845774 0.00936109 0)
(0.818929 -0.00936622 0)
(0.789222 -0.0319073 0)
(0.757259 -0.0536092 0)
(0.724031 -0.0800528 0)
(0.690205 -0.102289 0)
(0.665134 -0.131071 0)
(0.644588 -0.144835 0)
(0.65259 -0.167693 0)
(0.703151 -0.159213 0)
(0.770004 -0.158861 0)