/*--------------------------------*- C++ -*----------------------------------*\
| =========                 |                                                 |
| \\      /  F ield         | OpenFOAM: The Open Source CFD Toolbox           |
|  \\    /   O peration     | Version:                                        |
|   \\  /    A nd           | Website:  www.openfoam.com                      |
|    \\/     M anipulation  |                                                 |
\*---------------------------------------------------------------------------*/
FoamFile
{
    version     2.0;
    format      ascii;
    class       volScalarField;
    location    "67";
    object      p;
}
// * * * * * * * * * * * * * * * * * * * * * * * * * * * * * * * * * * * * * //

dimensions      [0 2 -2 0 0 0 0];


internalField   nonuniform List<scalar> 
1150
(
0.195756
0.20516
0.215309
0.188191
0.196087
0.204857
0.177938
0.183916
0.191025
0.164831
0.168573
0.148863
0.150164
0.130379
0.0657227
0.0610265
0.0635013
0.0636545
0.0658046
0.0655463
0.0666914
0.0675732
0.0696423
0.070398
0.0719085
0.0743919
0.0768923
0.079013
0.0819405
0.0852507
0.0889435
0.0928597
0.0973434
0.102203
0.107726
0.113823
0.120525
0.127704
0.135584
0.144168
0.153494
0.163403
0.173998
0.185276
0.0653382
0.0607605
0.0632455
0.0633
0.0652923
0.0653388
0.0662353
0.0668363
0.0694045
0.0698576
0.0708735
0.0737919
0.0762693
0.0779554
0.080933
0.0841768
0.0877585
0.0914131
0.095773
0.100384
0.105693
0.111447
0.117805
0.124573
0.132073
0.140166
0.149003
0.158367
0.168422
0.178979
0.0648886
0.0605438
0.06296
0.0629735
0.0647719
0.0651175
0.0657474
0.066143
0.0692144
0.0692342
0.0699054
0.0732115
0.07555
0.0769066
0.0799757
0.0830298
0.0865085
0.0899029
0.0941039
0.0984013
0.10343
0.108782
0.114757
0.120979
0.127963
0.135397
0.143526
0.152048
0.161202
0.170565
0.0643807
0.0603699
0.0626614
0.0626366
0.064253
0.0648793
0.0652249
0.0654803
0.0689963
0.0685084
0.0690305
0.0726171
0.0747052
0.0759181
0.0790243
0.0818158
0.0852089
0.0883554
0.0923776
0.0962762
0.101037
0.105879
0.111359
0.116936
0.123234
0.129783
0.136955
0.144326
0.152174
0.15984
0.0638169
0.0602355
0.0623341
0.0623286
0.0637422
0.0646271
0.0646539
0.064891
0.068747
0.0677211
0.0681253
0.0720192
0.0737488
0.0750046
0.0780871
0.0804669
0.0838399
0.0866871
0.0904379
0.093909
0.0983279
0.10257
0.107481
0.112234
0.117709
0.123141
0.129131
0.134979
0.14118
0.146647
0.0632127
0.060131
0.0619918
0.0619936
0.0632605
0.0643573
0.0640463
0.0643442
0.0684764
0.0668764
0.0677407
0.071334
0.0727613
0.0742081
0.077059
0.079176
0.0824781
0.0850063
0.0885316
0.0914372
0.0955525
0.0990687
0.103318
0.107105
0.111592
0.115705
0.120245
0.124319
0.128453
0.131382
0.0625751
0.0600491
0.0616248
0.0616927
0.0627908
0.0640722
0.0634009
0.0639021
0.0680715
0.0660115
0.0671394
0.0706226
0.0716797
0.0735002
0.0758618
0.0777895
0.0810073
0.0831312
0.0863164
0.0886878
0.0923557
0.09516
0.0986007
0.101383
0.104715
0.107309
0.109996
0.111928
0.113474
0.113328
0.0619258
0.0599779
0.0612477
0.0613687
0.0623664
0.0637617
0.0627563
0.0635153
0.0675714
0.065147
0.0668986
0.0697993
0.0707724
0.0728262
0.0746849
0.076583
0.0796105
0.0812819
0.0841695
0.0858958
0.089272
0.0909279
0.0937687
0.0950118
0.0973378
0.0979065
0.0990744
0.0982941
0.0973414
0.0612774
0.0598995
0.060869
0.0610574
0.0619369
0.0634198
0.0621304
0.0632199
0.066862
0.0644
0.0665194
0.0688646
0.069783
0.0720603
0.0731789
0.0753538
0.0777613
0.0793368
0.0814854
0.0828903
0.0856134
0.0865367
0.0882058
0.0885399
0.0891075
0.0878384
0.0865952
0.083865
0.0803473
0.0606704
0.0597969
0.060473
0.0607476
0.0615799
0.063049
0.0615287
0.0630492
0.0660361
0.0636948
0.0663584
0.0681212
0.0691154
0.0712265
0.0720157
0.0743564
0.0762758
0.0774161
0.0791357
0.0799657
0.0822575
0.0815187
0.082862
0.0809309
0.0806964
0.0766616
0.0742544
0.0665668
0.0601157
0.0596958
0.0600774
0.0604616
0.0611381
0.0626749
0.0609926
0.0627602
0.0651514
0.0630585
0.0656415
0.0671629
0.0681231
0.0700242
0.0703663
0.0728515
0.0738629
0.0753166
0.075542
0.0766538
0.0777993
0.076411
0.0767013
0.0740885
0.072495
0.0670121
0.0621095
0.0513437
0.0596044
0.0596128
0.059678
0.0601686
0.0606411
0.062286
0.0605148
0.062432
0.064229
0.062615
0.0646036
0.0661522
0.066899
0.0687494
0.0686145
0.0710917
0.071411
0.0727858
0.071981
0.0733796
0.0728184
0.0715891
0.070442
0.0674629
0.064054
0.0579162
0.0508726
0.0398771
0.0591174
0.0595235
0.059301
0.0598478
0.0601468
0.0618358
0.0599946
0.0620248
0.0633972
0.0621468
0.0636831
0.0651388
0.065468
0.0674466
0.0667737
0.0689965
0.0690968
0.0697693
0.0687856
0.0694808
0.0680314
0.0666748
0.0642182
0.0607039
0.0561162
0.0496604
0.0418352
0.0315566
0.0586286
0.0594077
0.0589733
0.0595073
0.0596679
0.0612633
0.0594884
0.06155
0.0625338
0.0615688
0.0628551
0.06397
0.064072
0.0658669
0.0649048
0.0666131
0.0668137
0.066405
0.0653991
0.0654158
0.0635138
0.0612832
0.0581821
0.054135
0.0488797
0.0420983
0.0342976
0.0246098
0.0581382
0.0592167
0.0586985
0.0591239
0.0592042
0.0605641
0.059015
0.0609325
0.0616884
0.0608348
0.0619913
0.062712
0.0626741
0.0639658
0.0631403
0.0639237
0.0643232
0.0631616
0.0617821
0.0613608
0.0588998
0.0558748
0.0525105
0.0481049
0.0422237
0.0354711
0.0280124
0.0189454
0.0576519
0.0589076
0.0584296
0.0586929
0.0587664
0.059722
0.0585603
0.0601913
0.0608478
0.0599413
0.0609773
0.0614574
0.0611802
0.0618669
0.0614545
0.0611949
0.0614666
0.0601099
0.0580318
0.0571483
0.0544581
0.0508213
0.0470328
0.0425356
0.0365183
0.0298741
0.0227273
0.0142948
0.057177
0.0584529
0.0581527
0.058225
0.0583301
0.0588075
0.0580809
0.0593738
0.0598344
0.0590158
0.0597711
0.0601222
0.059688
0.0596251
0.0596332
0.0587034
0.0583859
0.0570128
0.0544125
0.0529672
0.0502023
0.046129
0.0417956
0.0375274
0.0317511
0.0251333
0.0182355
0.0105802
0.0567089
0.0578726
0.0578127
0.0577616
0.0578372
0.0578846
0.0575175
0.0585277
0.0586412
0.0580854
0.058457
0.0586257
0.0582385
0.0573527
0.0575004
0.0563843
0.0552476
0.0537492
0.050995
0.0489251
0.0460533
0.0418865
0.0371703
0.0329849
0.0276502
0.0212865
0.0146925
0.00775401
0.0562311
0.0572287
0.0572842
0.05728
0.0572909
0.0569567
0.0568569
0.057672
0.0573163
0.0570978
0.0571462
0.0569379
0.0566965
0.0552208
0.0550748
0.0540439
0.0522999
0.0504337
0.0476511
0.0451321
0.0421388
0.038108
0.0332526
0.0290063
0.0241857
0.0183704
0.012131
0.00569523
0.0557184
0.0565657
0.0566969
0.056746
0.0567084
0.0560164
0.0560922
0.0568121
0.0559286
0.055963
0.055863
0.0551507
0.0549627
0.0532356
0.0525043
0.0515345
0.0495339
0.0472289
0.0444158
0.0416836
0.0385672
0.0347512
0.0300486
0.0257488
0.0213019
0.0161501
0.0104114
0.00446987
0.0551615
0.055903
0.0560291
0.056128
0.0560828
0.0550924
0.0552142
0.0558939
0.0545657
0.0546516
0.0545814
0.0533921
0.0529928
0.0512917
0.0500635
0.048914
0.0468466
0.0442708
0.0414046
0.0385947
0.0354224
0.0318054
0.0274268
0.0232005
0.0190303
0.0145165
0.00942575
0.00403414
0.0545645
0.0552338
0.0552903
0.0554175
0.0553965
0.0541834
0.0542345
0.0549101
0.0532657
0.0531588
0.053214
0.0517358
0.0509026
0.0493104
0.0477801
0.0463232
0.0442311
0.0415754
0.0387067
0.0358818
0.0327196
0.0292735
0.0252764
0.0213081
0.017424
0.0134277
0.00897592
0.00417213
0.0539221
0.0545484
0.0545084
0.0545997
0.0546417
0.0533148
0.05318
0.0538218
0.0520148
0.0515631
0.0517116
0.0501753
0.0487996
0.0472085
0.0456588
0.0439706
0.0417592
0.0390876
0.0362878
0.0335377
0.0304884
0.0272034
0.0235653
0.0199579
0.0164021
0.0128467
0.00896792
0.00477183
0.0532351
0.0538345
0.0536967
0.0536889
0.0537976
0.0524658
0.0521034
0.0526264
0.0507934
0.0499377
0.0500381
0.048642
0.0468527
0.0451083
0.0436043
0.0418313
0.0395383
0.0368361
0.0341343
0.0315567
0.0286978
0.0256074
0.0222832
0.0190281
0.0158525
0.012727
0.00937588
0.00575148
0.0525065
0.0530647
0.0528817
0.0527202
0.05282
0.0516284
0.0510653
0.0513236
0.04955
0.0483566
0.0482536
0.0470772
0.0451065
0.0431106
0.0415717
0.0398773
0.0376355
0.0349082
0.0322562
0.0298684
0.0272777
0.0244585
0.0214332
0.0184836
0.0156797
0.0129725
0.0101149
0.00700978
0.0517493
0.052226
0.0520495
0.0517524
0.0517373
0.0507177
0.0500369
0.0499916
0.0483007
0.0468154
0.0463963
0.0454562
0.0435507
0.0413224
0.0396494
0.0380443
0.0359705
0.0333461
0.0307116
0.0284488
0.02618
0.0237025
0.0209818
0.0182966
0.0158056
0.0134815
0.0110809
0.00846406
0.0509688
0.0513201
0.0511712
0.0508124
0.0505895
0.0496889
0.0490281
0.0486945
0.0470021
0.0453269
0.0446033
0.0437891
0.0420833
0.0397836
0.037928
0.0363322
0.0344927
0.0321105
0.0295456
0.0273442
0.025333
0.0232041
0.020841
0.0184403
0.0162141
0.0141979
0.0121848
0.0100229
0.0501627
0.0503752
0.0502284
0.049875
0.0494632
0.0485778
0.0479448
0.0474146
0.0457407
0.0439493
0.042898
0.0420913
0.0406642
0.0384798
0.0364706
0.034818
0.0331622
0.0310921
0.028738
0.0265784
0.0247149
0.0229129
0.0209328
0.0188481
0.0168567
0.0150788
0.013383
0.011615
0.0493286
0.049417
0.0492265
0.048898
0.0483706
0.0474257
0.0467787
0.0461717
0.0445511
0.0426672
0.0413393
0.0404697
0.0392648
0.0373154
0.0352826
0.0335578
0.0319962
0.0302346
0.028193
0.0261424
0.0243697
0.0227877
0.0211456
0.0193996
0.0176653
0.0161022
0.0146499
0.0131949
0.0484645
0.0484573
0.048201
0.047865
0.047295
0.0463039
0.0455752
0.0449128
0.0434046
0.0415244
0.0399891
0.0389664
0.0378918
0.0362429
0.0343274
0.0325675
0.0310535
0.0295182
0.0277936
0.0259578
0.0242788
0.0228373
0.0214555
0.0200251
0.0185656
0.0172074
0.015954
0.0147405
0.0475763
0.0475031
0.0471795
0.0467936
0.0462144
0.0452242
0.0443781
0.0436335
0.0422878
0.040515
0.0388408
0.0376471
0.0366189
0.0352409
0.0335389
0.0318296
0.0303413
0.0289457
0.0274974
0.0259332
0.024404
0.023067
0.0218537
0.0206715
0.0194714
0.0183241
0.0172524
0.0162313
0.0466778
0.0465599
0.0461798
0.0457188
0.0451248
0.0441741
0.0432351
0.0423767
0.0411667
0.0395812
0.0378981
0.0365632
0.0355061
0.0343212
0.0328662
0.0312874
0.0298446
0.0285488
0.0272987
0.0259833
0.0246467
0.0234265
0.0223391
0.0213338
0.0203469
0.0193954
0.0184946
0.0176396
0.045784
0.0456309
0.0452126
0.0446802
0.044047
0.0431419
0.0421637
0.0411972
0.0400612
0.0386875
0.0371202
0.0357168
0.0345993
0.0335202
0.0322792
0.0308823
0.0295325
0.0283155
0.0271964
0.0260809
0.0249465
0.0238699
0.022893
0.0220098
0.021178
0.0203896
0.0196436
0.018937
0.0449068
0.0447238
0.0442841
0.0436984
0.043012
0.0421399
0.0411686
0.0401431
0.0390348
0.037828
0.0364357
0.0350668
0.0339062
0.0328648
0.0317774
0.0305688
0.0293488
0.0282178
0.0271973
0.0262272
0.0252649
0.0243349
0.0234701
0.0226872
0.0219691
0.0213057
0.0206866
0.0201062
0.0440595
0.0438531
0.0434019
0.0427847
0.0420575
0.0412031
0.0402569
0.0392236
0.0381387
0.0370354
0.0358095
0.0345443
0.0333943
0.0323719
0.0313805
0.0303276
0.0292489
0.0282192
0.0272821
0.026414
0.0255812
0.0247809
0.0240267
0.0233357
0.0227073
0.0221395
0.0216224
0.0211489
0.0432625
0.043038
0.0425814
0.0419555
0.0412087
0.0403617
0.0394427
0.0384355
0.0373794
0.0363408
0.0352481
0.0341124
0.0330256
0.0320342
0.0311052
0.0301682
0.0292175
0.0282921
0.0274334
0.0266406
0.0258953
0.0251889
0.0245238
0.0239115
0.0233568
0.0228633
0.0224264
0.0220413
0.0425399
0.0423046
0.0418495
0.0412291
0.0404794
0.0396381
0.0387391
0.0377661
0.0367491
0.0357597
0.0347683
0.0337565
0.0327644
0.0318338
0.030966
0.0301193
0.0292727
0.0284375
0.0276424
0.0268999
0.0262072
0.0255594
0.0249538
0.024396
0.0238916
0.0234473
0.0230629
0.0227369
0.0419237
0.0416853
0.0412358
0.0406247
0.039883
0.0390495
0.0381616
0.0372185
0.0362422
0.0352917
0.0343664
0.0334493
0.032555
0.0317126
0.0309311
0.0301845
0.0294453
0.0287057
0.0279786
0.0272776
0.02661
0.0259786
0.0253846
0.0248338
0.0243328
0.0238898
0.0235094
0.0231945
0.0414595
0.041219
0.0407738
0.0401715
0.0394426
0.0386189
0.0377374
0.0368163
0.0358756
0.0349577
0.0340801
0.0332285
0.032397
0.0316002
0.0308505
0.0301426
0.0294642
0.0288122
0.0281938
0.0276169
0.0270827
0.0265868
0.0261218
0.0256808
0.0252584
0.0248513
0.0244577
0.024078
0.0411994
0.0409534
0.0405088
0.0399117
0.0391941
0.038385
0.0375188
0.0366212
0.0357098
0.0348133
0.033954
0.0331254
0.0323209
0.0315495
0.0308225
0.0301409
0.0294967
0.028886
0.0283108
0.0277752
0.0272796
0.0268209
0.0263943
0.0259949
0.025617
0.0252539
0.0248968
0.0245354
)
;

boundaryField
{
    outlet
    {
        type            fixedValue;
        value           nonuniform 0();
    }
    upperWall
    {
        type            symmetryPlane;
    }
    lowerWall
    {
        type            symmetryPlane;
    }
    inlet
    {
        type            zeroGradient;
    }
    cylinder
    {
        type            zeroGradient;
    }
    frontAndBack
    {
        type            empty;
    }
    procBoundary4to0
    {
        type            processor;
        value           nonuniform List<scalar> 
33
(
0.201129
0.211454
0.222336
0.0660433
0.0613439
0.0637203
0.0640199
0.0662935
0.0657354
0.0671301
0.0683057
0.069855
0.0708583
0.0729247
0.074961
0.077451
0.0799942
0.0828908
0.0862033
0.089984
0.0941179
0.0987116
0.103706
0.10938
0.115721
0.122646
0.130086
0.138221
0.147109
0.156763
0.167018
0.178004
0.189804
)
;
    }
    procBoundary4to5
    {
        type            processor;
        value           nonuniform List<scalar> 
45
(
0.226638
0.215201
0.200091
0.173877
0.173877
0.153597
0.128976
0.128976
0.109574
0.109574
0.0937756
0.0937756
0.0738288
0.0596985
0.0596985
0.0382604
0.0265651
0.0190992
0.0130005
0.00801969
0.00418463
0.0014767
-0.000425635
-0.00160595
-0.00202493
-0.00178608
-0.00101366
0.000229146
0.00180453
0.0036078
0.00557102
0.00760687
0.00963666
0.0115948
0.0134506
0.0151855
0.0167905
0.0182507
0.0195547
0.0207119
0.0217034
0.0224681
0.0229473
0.0237158
0.0241587
)
;
    }
}


// ************************************************************************* //
