/*--------------------------------*- C++ -*----------------------------------*\
| =========                 |                                                 |
| \\      /  F ield         | OpenFOAM: The Open Source CFD Toolbox           |
|  \\    /   O peration     | Version:                                        |
|   \\  /    A nd           | Website:  www.openfoam.com                      |
|    \\/     M anipulation  |                                                 |
\*---------------------------------------------------------------------------*/
FoamFile
{
    version     2.0;
    format      ascii;
    class       volVectorField;
    location    "139.9";
    object      U;
}
// * * * * * * * * * * * * * * * * * * * * * * * * * * * * * * * * * * * * * //

dimensions      [0 1 -1 0 0 0 0];


internalField   nonuniform List<vector> 
1161
(
(1.26224 -0.529423 -1.88724e-19)
(1.20694 -0.514607 3.26325e-19)
(1.14966 -0.490809 -4.90762e-20)
(1.12229 -0.456784 2.4362e-21)
(1.0564 -0.447585 4.12199e-20)
(1.03855 -0.417592 6.27815e-21)
(0.996334 -0.377327 -5.58845e-20)
(0.959662 -0.34094 -3.26765e-20)
(0.952834 -0.302339 -4.14951e-20)
(0.898972 -0.254078 -6.30815e-20)
(1.21268 -0.40515 -2.14409e-19)
(1.15968 -0.383277 4.23981e-20)
(1.12598 -0.354918 9.08364e-20)
(1.09069 -0.326129 -1.87589e-19)
(1.0715 -0.312153 1.43954e-20)
(1.04791 -0.292487 6.08056e-20)
(1.02338 -0.266434 1.7105e-19)
(0.97926 -0.245287 -1.24764e-19)
(1.18204 -0.303611 -1.58593e-19)
(1.15024 -0.285093 5.01528e-20)
(1.10973 -0.263876 2.15942e-19)
(1.08262 -0.228822 -8.1177e-20)
(1.05429 -0.212024 2.95189e-20)
(1.04697 -0.185745 -5.11914e-21)
(1.1083 -0.22386 -1.69768e-19)
(1.09462 -0.205393 6.96034e-20)
(1.0591 -0.183536 4.74478e-20)
(0.0405602 0.320528 5.16667e-20)
(0.0798328 0.0244554 -6.05395e-20)
(0.129529 -0.26473 8.14155e-22)
(0.168161 -0.504536 2.37354e-20)
(0.182697 -0.696053 -3.56722e-20)
(0.195958 -0.881273 -1.8843e-20)
(0.224334 -1.06994 5.16804e-20)
(0.261896 -1.2322 -3.4454e-20)
(0.282419 -1.34085 3.80432e-20)
(0.292054 -1.38165 2.98611e-20)
(0.282542 -1.37001 -2.53236e-20)
(0.206879 -1.3777 -2.84171e-20)
(0.200181 -1.32265 2.2265e-20)
(0.13048 -1.18625 1.35075e-20)
(0.214534 -1.09278 5.49575e-20)
(0.272827 -0.800321 -6.12023e-22)
(0.343763 -0.45967 -2.44511e-20)
(0.174616 -0.00967974 -5.0802e-20)
(0.250376 -0.303139 4.48513e-21)
(0.291338 -0.530774 -5.02333e-20)
(0.30827 -0.707953 -2.08772e-21)
(0.343154 -0.892252 4.26765e-20)
(0.400716 -1.0925 -1.98658e-19)
(0.449349 -1.25527 7.02333e-20)
(0.461931 -1.33955 3.443e-20)
(0.44552 -1.35328 -1.30177e-19)
(0.408387 -1.29712 2.52892e-20)
(0.324342 -1.26777 1.35948e-20)
(0.296792 -1.20847 -5.4797e-20)
(0.155244 -1.13334 -2.04667e-19)
(0.208614 -1.1398 1.2332e-20)
(0.130369 -0.850491 3.25099e-20)
(0.167257 -0.584169 5.60897e-20)
(0.269202 -0.0307197 3.10879e-19)
(0.366304 -0.304654 -1.09195e-19)
(0.4041 -0.514118 -1.6626e-19)
(0.433751 -0.702223 7.70721e-20)
(0.515385 -0.90739 1.24999e-19)
(0.613413 -1.09776 -1.76613e-19)
(0.668186 -1.22127 3.48996e-20)
(0.663869 -1.27117 2.03899e-19)
(0.628779 -1.26783 -2.26951e-19)
(0.568488 -1.20216 1.00246e-20)
(0.483287 -1.14262 7.94582e-20)
(0.451207 -1.06892 2.021e-20)
(0.256547 -1.02558 6.92061e-21)
(0.270778 -1.04377 2.30673e-19)
(0.0486451 -0.849452 -1.8608e-19)
(0.125763 -0.70492 8.50616e-20)
(0.352819 -0.0371987 8.52388e-20)
(0.453852 -0.283696 -2.46444e-19)
(0.494005 -0.485057 1.99634e-19)
(0.579808 -0.698606 6.74035e-20)
(0.725345 -0.926017 -4.03735e-20)
(0.843802 -1.10298 4.818e-20)
(0.885243 -1.19109 2.03031e-19)
(0.855809 -1.20557 7.15324e-21)
(0.793963 -1.16979 -2.18319e-19)
(0.691706 -1.11779 -6.39414e-20)
(0.599948 -1.04504 -2.19155e-20)
(0.571176 -0.924233 7.15106e-20)
(0.36922 -0.828495 9.10266e-20)
(0.381324 -0.820044 3.05756e-20)
(0.133239 -0.783886 -1.19414e-19)
(0.236163 -0.749068 9.82442e-20)
(0.394497 -0.059216 8.27989e-20)
(0.472859 -0.277673 -5.61045e-19)
(0.559149 -0.499779 7.50341e-19)
(0.748346 -0.748186 -3.98234e-19)
(0.935063 -0.956255 -3.55058e-19)
(1.02513 -1.07786 2.85183e-19)
(1.01787 -1.11917 -2.06614e-19)
(0.954331 -1.10703 3.51892e-20)
(0.866962 -1.04398 -1.04475e-19)
(0.74961 -0.989835 1.11277e-19)
(0.66815 -0.957472 7.41268e-20)
(0.606539 -0.860322 1.55534e-19)
(0.456243 -0.755731 -8.18616e-20)
(0.510564 -0.660084 -2.85493e-20)
(0.337072 -0.635347 -7.73239e-20)
(0.397195 -0.646468 1.80902e-19)
(0.469029 -0.298442 -5.14944e-19)
(0.71662 -0.563153 2.24428e-21)
(0.989882 -0.802787 1.97814e-19)
(1.13943 -0.953827 1.03435e-19)
(1.15092 -1.01644 -3.06177e-19)
(1.07693 -1.01987 1.42165e-20)
(0.977171 -0.991464 -2.43723e-19)
(0.875303 -0.954296 4.11265e-19)
(0.793374 -0.885693 -1.44362e-19)
(0.741734 -0.828108 -1.57675e-19)
(0.636286 -0.759517 -3.40563e-21)
(0.584903 -0.716289 -8.5108e-20)
(0.592544 -0.625139 9.81879e-20)
(0.523027 -0.522573 4.53718e-20)
(0.535258 -0.432714 -6.71273e-20)
(0.994921 -0.681657 -5.64799e-20)
(1.21098 -0.835466 4.99919e-19)
(1.25323 -0.89916 7.42233e-19)
(1.19405 -0.907082 -1.59309e-19)
(1.10411 -0.887468 1.23452e-19)
(1.00905 -0.85176 1.60245e-19)
(0.922102 -0.833798 -3.52122e-19)
(0.867223 -0.807943 -3.93735e-22)
(0.811146 -0.735362 3.83449e-19)
(0.721676 -0.680167 -3.0816e-20)
(0.753032 -0.636198 -1.81065e-19)
(0.684957 -0.602877 1.38173e-19)
(0.668809 -0.540653 -6.25452e-20)
(0.644657 -0.439792 -4.90273e-21)
(1.30861 -0.784126 8.63567e-20)
(1.26992 -0.803532 3.63222e-19)
(1.20074 -0.799677 -6.13595e-19)
(1.13772 -0.77969 -2.76807e-19)
(1.0775 -0.752755 -1.57463e-19)
(1.02784 -0.70174 2.36477e-20)
(0.981685 -0.664652 -1.68319e-19)
(0.898585 -0.641537 -1.30381e-19)
(0.881708 -0.58918 2.19757e-20)
(0.841057 -0.553071 2.29053e-19)
(0.803901 -0.487744 -1.00569e-19)
(0.733348 -0.434141 -3.29022e-20)
(0.748409 -0.411383 2.43225e-20)
(1.30636 -0.713993 9.06416e-20)
(1.26541 -0.703973 1.28844e-19)
(1.21392 -0.684699 2.85205e-20)
(1.16173 -0.662204 -2.72709e-20)
(1.12088 -0.636978 1.0529e-19)
(1.05358 -0.581578 2.23624e-20)
(1.01046 -0.550488 -1.11698e-19)
(0.994002 -0.507971 4.69772e-20)
(0.919853 -0.482883 1.40678e-19)
(0.878253 -0.408394 -2.02158e-19)
(0.826806 -0.388693 1.71948e-19)
(0.825556 -0.301592 -1.25828e-19)
(1.32456 -0.621749 -1.16494e-19)
(1.26817 -0.601278 -1.28346e-19)
(1.2137 -0.57119 4.02069e-19)
(1.14911 -0.544783 -2.58353e-19)
(1.09127 -0.536805 8.07253e-20)
(1.075 -0.487765 -1.35753e-19)
(0.99097 -0.455913 1.26437e-19)
(0.980609 -0.417278 -1.19592e-19)
(0.940754 -0.38345 1.37968e-19)
(0.928677 -0.366132 7.64781e-20)
(0.912601 -0.318783 2.43051e-20)
(0.464197 0.0483929 2.75475e-20)
(0.565585 0.58005 -6.79986e-21)
(0.630309 0.909374 4.91038e-21)
(0.690028 1.03897 2.02955e-21)
(0.735658 1.04341 -1.0174e-20)
(0.762299 1.02175 2.69589e-21)
(0.781288 0.964419 2.1928e-21)
(0.790484 0.970676 -3.66437e-21)
(0.787926 1.02321 3.17184e-21)
(0.746739 1.09415 -1.16627e-20)
(0.714734 1.03957 -1.18999e-21)
(0.642978 0.835334 -1.56602e-21)
(0.595646 0.454466 1.01323e-20)
(0.591831 -0.0632873 7.69375e-21)
(0.556135 -0.515384 -6.79603e-21)
(0.603032 -0.833978 -6.34483e-22)
(0.612368 -0.888752 -5.02633e-22)
(0.677186 -0.919185 -2.14691e-21)
(0.673823 -0.860545 3.95928e-21)
(0.670926 -0.876243 -1.85934e-21)
(0.229397 -0.0950166 -1.54653e-20)
(0.326841 0.422493 -2.99674e-20)
(0.430296 0.762311 5.76919e-21)
(0.541097 0.924553 2.56168e-20)
(0.636419 0.971542 1.30565e-20)
(0.708316 0.996064 -6.16828e-21)
(0.770822 0.958563 -3.96276e-21)
(0.81488 0.978196 2.01792e-20)
(0.862095 1.04592 -2.09026e-20)
(0.857186 1.13088 -2.47294e-20)
(0.862206 1.10908 7.92469e-22)
(0.844221 0.907413 6.41121e-20)
(0.801474 0.509513 -5.26966e-20)
(0.807806 -0.0322003 -4.55027e-20)
(0.75711 -0.529067 7.37963e-20)
(0.761417 -0.880907 -2.50949e-20)
(0.711805 -0.950291 9.06866e-22)
(0.759919 -0.944017 1.89023e-20)
(0.688704 -0.863268 -2.33476e-20)
(0.676658 -0.845757 8.63124e-21)
(0.0569845 -0.284111 -9.05775e-20)
(0.16506 0.228961 1.58726e-20)
(0.285403 0.579713 1.55482e-20)
(0.436942 0.797311 -1.86259e-20)
(0.558356 0.883522 1.10546e-20)
(0.652087 0.921645 -7.3064e-21)
(0.749394 0.889031 2.61465e-20)
(0.811894 0.911297 1.58701e-21)
(0.904282 1.00344 1.69724e-20)
(0.966346 1.12459 3.8492e-21)
(1.00411 1.15612 -6.51608e-20)
(1.0368 0.995308 3.39125e-21)
(1.01785 0.613772 -4.21663e-20)
(1.03042 0.0676326 7.29057e-20)
(0.97614 -0.45988 -3.74941e-20)
(0.938188 -0.831942 4.42873e-20)
(0.841196 -0.948202 2.44627e-20)
(0.834966 -0.933064 -3.42255e-20)
(0.737362 -0.840236 -1.81922e-20)
(0.712645 -0.813936 9.13249e-21)
(0.0246041 -0.434702 -7.88579e-20)
(0.1431 0.00903089 3.87254e-20)
(0.222464 0.341788 4.37488e-20)
(0.361907 0.612687 -3.03231e-20)
(0.497962 0.757073 2.21697e-20)
(0.599839 0.836493 -3.11279e-20)
(0.714667 0.831177 2.67004e-20)
(0.803204 0.831187 5.84241e-21)
(0.911068 0.90227 -3.54332e-20)
(1.01838 1.04113 1.39622e-20)
(1.08888 1.1263 3.99453e-20)
(1.16264 1.03022 -5.50307e-20)
(1.18943 0.702292 4.42526e-20)
(1.22021 0.170973 2.37713e-20)
(1.18774 -0.378402 2.76048e-20)
(1.11199 -0.769791 -9.67631e-20)
(1.01078 -0.918855 1.74486e-20)
(0.927557 -0.90887 -5.66252e-21)
(0.810248 -0.835021 2.5132e-20)
(0.760508 -0.76995 -5.74872e-21)
(0.165696 -0.512946 -1.20418e-19)
(0.198058 -0.222853 3.53445e-21)
(0.232038 0.117975 8.89656e-20)
(0.325559 0.403272 -5.94334e-20)
(0.447049 0.578336 -3.26842e-21)
(0.547776 0.685826 1.63861e-20)
(0.67053 0.70252 2.03078e-21)
(0.788351 0.708117 -7.07348e-21)
(0.907657 0.75712 -4.60667e-20)
(1.0585 0.894437 1.43921e-20)
(1.18017 1.02996 3.12919e-20)
(1.27882 1.02806 -1.08649e-20)
(1.34601 0.784286 1.1351e-19)
(1.37762 0.32367 6.18826e-20)
(1.36811 -0.190495 -1.36244e-19)
(1.2741 -0.616881 -5.27738e-20)
(1.16563 -0.829208 1.6835e-20)
(1.01225 -0.830417 -5.51235e-21)
(0.910261 -0.779543 2.86805e-20)
(0.790508 -0.721297 -2.08766e-20)
(0.411083 -0.438611 6.39715e-20)
(0.299462 -0.354627 -1.4935e-20)
(0.279293 -0.0872127 1.71471e-20)
(0.335034 0.201172 -6.03965e-21)
(0.415588 0.418236 -2.12803e-20)
(0.514409 0.561502 1.37984e-20)
(0.617921 0.587833 -6.87651e-21)
(0.736928 0.576513 3.07511e-20)
(0.866954 0.584081 -4.68631e-20)
(1.0065 0.69704 1.83571e-20)
(1.14984 0.870414 -5.73963e-20)
(1.28966 0.946936 1.7226e-20)
(1.4088 0.799714 4.25515e-20)
(1.45401 0.411563 6.13577e-20)
(1.46393 -0.0612586 7.23072e-21)
(1.38363 -0.481611 -4.94528e-20)
(1.27921 -0.718678 5.6363e-21)
(1.09414 -0.771036 7.41788e-21)
(1.00932 -0.73531 -9.78461e-21)
(0.83017 -0.675728 -4.19327e-20)
(0.590717 -0.322967 -1.05577e-20)
(0.482418 -0.279683 -1.51244e-20)
(0.36948 -0.182056 1.99541e-22)
(0.354521 0.0322495 -2.16159e-21)
(0.39631 0.246069 2.27204e-21)
(0.483096 0.417588 3.11292e-21)
(0.581896 0.489841 -2.68999e-23)
(0.70375 0.487579 1.8003e-21)
(0.834663 0.471449 3.16701e-21)
(0.959544 0.527839 1.62791e-21)
(1.12167 0.678379 8.52288e-21)
(1.24887 0.815656 -9.1838e-21)
(1.38181 0.784592 -5.40239e-20)
(1.47089 0.528398 6.35023e-20)
(1.50178 0.143191 -1.22688e-19)
(1.4503 -0.282419 4.52233e-20)
(1.36696 -0.562887 4.73375e-20)
(1.19433 -0.657863 4.54969e-20)
(1.08447 -0.647581 -2.68089e-20)
(0.895954 -0.608826 -3.35767e-20)
(0.835639 -0.5672 1.4116e-20)
(0.687787 -0.36822 -5.27483e-20)
(0.644421 -0.244711 2.1918e-20)
(0.560498 -0.169599 9.70534e-22)
(0.470188 -0.0568284 3.07509e-21)
(0.436383 0.118529 -8.84374e-21)
(0.469178 0.284988 -4.70739e-22)
(0.564093 0.356304 3.9951e-21)
(0.659146 0.352855 2.1824e-22)
(0.777395 0.33236 3.52674e-23)
(0.884483 0.351452 -1.19405e-20)
(1.03254 0.480236 -1.69906e-20)
(1.18431 0.65375 -2.8941e-21)
(1.31803 0.72062 3.83393e-20)
(1.38253 0.564606 4.00329e-20)
(1.43344 0.242027 -3.81266e-20)
(1.43587 -0.136456 4.36734e-20)
(1.39532 -0.428158 -4.15759e-20)
(1.25705 -0.564577 -3.28114e-21)
(1.14022 -0.580393 -2.64751e-22)
(0.975174 -0.554101 -3.11934e-21)
(0.861468 -0.539165 7.51173e-22)
(0.767533 -0.295908 2.45456e-20)
(0.716191 -0.262892 2.53907e-20)
(0.669377 -0.174991 -7.29093e-22)
(0.610905 -0.0759536 -2.24866e-21)
(0.582678 0.0331455 -6.58433e-21)
(0.573518 0.182984 9.06009e-21)
(0.627809 0.314937 -1.70549e-21)
(0.690658 0.340901 4.84537e-21)
(0.755093 0.291063 -6.45396e-22)
(0.776759 0.251767 -3.38463e-21)
(0.861473 0.30221 -2.77239e-23)
(1.00421 0.467777 -4.86879e-21)
(1.17357 0.61775 -3.11511e-20)
(1.34203 0.573497 6.61661e-20)
(1.44997 0.349787 -4.80699e-20)
(1.45111 0.00599797 2.02919e-20)
(1.42401 -0.300803 1.41971e-20)
(1.29003 -0.461438 -1.66812e-22)
(1.16623 -0.505567 -3.07551e-20)
(1.03015 -0.473091 1.53483e-20)
(0.882062 -0.502658 -7.88094e-21)
(0.865136 -0.289673 -1.48884e-22)
(0.807593 -0.243627 -6.33915e-22)
(0.751517 -0.196049 7.99367e-21)
(0.694647 -0.133885 -1.47217e-20)
(0.674032 -0.0732543 5.37907e-21)
(0.669358 0.0115068 -1.22903e-20)
(0.703635 0.145807 1.45281e-20)
(0.713893 0.262974 -6.18734e-21)
(0.721667 0.30293 -2.81107e-21)
(0.750454 0.253714 -2.79412e-22)
(0.815801 0.207861 6.06497e-22)
(0.920787 0.284011 1.82942e-20)
(1.06496 0.440327 4.11172e-21)
(1.11628 0.522433 -1.66408e-20)
(1.15548 0.443543 -2.39947e-20)
(1.25884 0.176618 2.07956e-20)
(1.37015 -0.123759 1.79524e-20)
(1.3186 -0.318233 -1.7306e-20)
(1.22362 -0.427522 -8.93808e-21)
(1.11187 -0.404391 1.42504e-20)
(0.9582 -0.458609 -2.37281e-21)
(0.881828 -0.235534 0)
(0.862029 -0.187172 0)
(0.838842 -0.135935 0)
(0.805285 -0.0816174 0)
(0.775092 -0.0434228 0)
(0.748363 0.000718449 0)
(0.746816 0.105012 0)
(0.756373 0.217001 0)
(0.816554 0.252416 0)
(0.870716 0.209205 0)
(0.884523 0.159403 0)
(0.877571 0.232067 0)
(0.91777 0.409883 0)
(0.95654 0.481552 0)
(1.158 0.358188 0)
(1.31654 0.111936 0)
(1.40921 -0.126175 0)
(1.34008 -0.242975 0)
(1.24301 -0.341376 0)
(1.14746 -0.312789 0)
(0.997298 -0.359369 0)
(0.943135 -0.359275 0)
(0.920133 -0.186373 0)
(0.89329 -0.15905 0)
(0.852372 -0.122577 0)
(0.823557 -0.0713683 0)
(0.813252 -0.0236335 0)
(0.792867 0.0196974 0)
(0.793025 0.107647 0)
(0.807568 0.186239 0)
(0.884368 0.2017 0)
(0.93299 0.189849 0)
(0.936712 0.169566 0)
(0.883706 0.245327 0)
(0.924058 0.377289 0)
(1.02134 0.40035 0)
(1.25165 0.262614 0)
(1.34526 0.069994 0)
(1.37324 -0.11906 0)
(1.26983 -0.203888 0)
(1.18072 -0.315933 0)
(1.09017 -0.281813 0)
(0.958955 -0.337385 0)
(0.91133 -0.325045 0)
(0.941787 -0.144836 0)
(0.921709 -0.124213 0)
(0.891009 -0.0945433 0)
(0.859595 -0.0563195 0)
(0.849561 -0.0117957 0)
(0.835585 0.0223094 0)
(0.84151 0.0902915 0)
(0.867867 0.158011 0)
(0.917899 0.157903 0)
(0.951931 0.17679 0)
(0.968894 0.187053 0)
(0.952054 0.248006 0)
(1.02675 0.322355 0)
(1.12918 0.303216 0)
(1.29541 0.170504 0)
(1.32379 0.0403668 0)
(1.31919 -0.0952444 0)
(1.27351 -0.136406 0)
(1.19087 -0.248606 0)
(1.14345 -0.2039 0)
(1.03471 -0.251752 0)
(0.94362 -0.319208 0)
(0.9534 -0.109564 0)
(0.940087 -0.0954173 0)
(0.921823 -0.0685663 0)
(0.897635 -0.0390692 0)
(0.881984 -0.00303238 0)
(0.877332 0.0332853 0)
(0.87832 0.0741404 0)
(0.909915 0.130013 0)
(0.938779 0.132585 0)
(0.963668 0.160749 0)
(0.987498 0.170429 0)
(1.00156 0.22173 0)
(1.08796 0.245511 0)
(1.16773 0.208915 0)
(1.26843 0.123975 0)
(1.29109 0.0536234 0)
(1.26347 -0.0795237 0)
(1.23958 -0.109769 0)
(1.13852 -0.22938 0)
(1.05674 -0.192291 0)
(0.996809 -0.215772 0)
(0.902407 -0.274882 0)
(0.961736 -0.0828929 0)
(0.959113 -0.0671377 0)
(0.940978 -0.0493677 0)
(0.929371 -0.0235517 0)
(0.907991 0.0002145 0)
(0.914184 0.0363136 0)
(0.907961 0.0580075 0)
(0.93583 0.107162 0)
(0.953066 0.10545 0)
(0.973617 0.139446 0)
(1.00395 0.14842 0)
(1.02196 0.175354 0)
(1.10672 0.184024 0)
(1.16262 0.170706 0)
(1.2044 0.0891084 0)
(1.25122 0.0443545 0)
(1.20569 -0.0719426 0)
(1.21023 -0.0701112 0)
(1.15429 -0.158752 0)
(1.10259 -0.14308 0)
(1.11616 -0.138285 0)
(0.993751 -0.240146 0)
(0.970954 -0.0600555 0)
(0.972876 -0.0451485 0)
(0.957426 -0.036409 0)
(0.952486 -0.0102493 0)
(0.934135 0.00168848 0)
(0.939613 0.0376363 0)
(0.935587 0.0473541 0)
(0.955385 0.0876654 0)
(0.971788 0.08985 0)
(0.984352 0.118005 0)
(1.01868 0.122848 0)
(1.03811 0.146061 0)
(1.09257 0.134054 0)
(1.14136 0.132614 0)
(1.17121 0.0615848 0)
(1.20757 0.0460054 0)
(1.17711 -0.0489732 0)
(1.18051 -0.053103 0)
(1.12857 -0.13647 0)
(1.04713 -0.156589 0)
(1.036 -0.134628 0)
(0.940293 -0.204561 0)
(0.978771 -0.0436389 0)
(0.984863 -0.028441 0)
(0.974273 -0.0249252 0)
(0.971139 -0.000547277 0)
(0.960125 0.00452232 0)
(0.958753 0.0360428 0)
(0.965302 0.0408802 0)
(0.970103 0.0736492 0)
(0.992532 0.0738653 0)
(0.996052 0.0986103 0)
(1.02781 0.0973273 0)
(1.04538 0.115669 0)
(1.08461 0.0977409 0)
(1.1239 0.103727 0)
(1.14056 0.0417361 0)
(1.16682 0.0402196 0)
(1.15558 -0.0498267 0)
(1.13423 -0.0473131 0)
(1.13816 -0.0867708 0)
(1.06741 -0.107674 0)
(1.07097 -0.0582329 0)
(0.985649 -0.170079 0)
(0.98726 -0.0299124 0)
(0.99534 -0.0162748 0)
(0.989478 -0.0148118 0)
(0.986821 0.00548181 0)
(0.981289 0.00733186 0)
(0.978145 0.0329016 0)
(0.986317 0.0344448 0)
(0.987373 0.0602148 0)
(1.006 0.0580858 0)
(1.00962 0.080835 0)
(1.03517 0.0726054 0)
(1.05034 0.0935722 0)
(1.07861 0.0681498 0)
(1.10526 0.0799083 0)
(1.1216 0.0267608 0)
(1.13405 0.0297051 0)
(1.14065 -0.0295135 0)
(1.10732 -0.0298943 0)
(1.11804 -0.066555 0)
(1.04413 -0.101457 0)
(1.05096 -0.0602425 0)
(1.00318 -0.144105 0)
(0.994575 -0.0200675 0)
(1.00297 -0.00958267 0)
(0.999996 -0.00836688 0)
(0.998555 0.00739683 0)
(0.997388 0.00861749 0)
(0.993446 0.0279368 0)
(1.00268 0.028543 0)
(1.00195 0.0487872 0)
(1.01872 0.0459615 0)
(1.02039 0.0647628 0)
(1.04121 0.0548315 0)
(1.04982 0.0720128 0)
(1.07516 0.047913 0)
(1.08556 0.0604446 0)
(1.1105 0.016504 0)
(1.10088 0.026078 0)
(1.12211 -0.0266812 0)
(1.07839 -0.0265347 0)
(1.10602 -0.0456233 0)
(1.04582 -0.0758814 0)
(1.05125 -0.0285097 0)
(1.01751 -0.105372 0)
(1.00035 -0.0129782 0)
(1.01095 -0.00686843 0)
(1.00756 -0.00395412 0)
(1.01003 0.00692919 0)
(1.007 0.00894573 0)
(1.00771 0.0230758 0)
(1.01299 0.0234784 0)
(1.01513 0.0395773 0)
(1.02612 0.0354684 0)
(1.02752 0.051325 0)
(1.04475 0.0403676 0)
(1.04686 0.0556772 0)
(1.07098 0.0336773 0)
(1.06885 0.0462186 0)
(1.09615 0.01102 0)
(1.07486 0.0194591 0)
(1.10591 -0.0180716 0)
(1.0591 -0.0148613 0)
(1.09185 -0.0328519 0)
(1.03811 -0.0529343 0)
(1.04361 -0.028729 0)
(1.02468 -0.0788566 0)
(1.00749 -0.00713469 0)
(1.01893 -0.00421175 0)
(1.01455 -0.00035598 0)
(1.01919 0.00557691 0)
(1.01482 0.0093754 0)
(1.01744 0.0171258 0)
(1.01998 0.0200011 0)
(1.0222 0.0290668 0)
(1.03104 0.0285736 0)
(1.03049 0.0385266 0)
(1.04583 0.031323 0)
(1.04177 0.0422526 0)
(1.0651 0.0244012 0)
(1.05394 0.0365025 0)
(1.0829 0.00620421 0)
(1.05625 0.019383 0)
(1.0879 -0.0144331 0)
(1.04537 -0.00769551 0)
(1.07461 -0.0249246 0)
(1.03407 -0.0390857 0)
(1.04098 -0.0210596 0)
(1.02727 -0.0558522 0)
(1.01431 -0.00189769 0)
(1.02437 -0.0027065 0)
(1.02063 0.00287296 0)
(1.02527 0.00361804 0)
(1.01981 0.00940133 0)
(1.02362 0.0117661 0)
(1.02286 0.0168715 0)
(1.02762 0.0211992 0)
(1.03083 0.0232078 0)
(1.03301 0.0290855 0)
(1.0407 0.0246199 0)
(1.03958 0.0326201 0)
(1.05429 0.0190033 0)
(1.04608 0.029161 0)
(1.06714 0.00566056 0)
(1.04512 0.0171993 0)
(1.07115 -0.0106082 0)
(1.03581 -0.00140709 0)
(1.06326 -0.0214377 0)
(1.02879 -0.0219832 0)
(1.0402 -0.022558 0)
(1.02445 -0.0363161 0)
(1.02017 0.00165684 0)
(1.02839 -0.00103391 0)
(1.02423 0.00474799 0)
(1.0286 0.00276723 0)
(1.02308 0.00971751 0)
(1.02718 0.00861984 0)
(1.02503 0.0154793 0)
(1.0293 0.015564 0)
(1.03014 0.019871 0)
(1.03169 0.0217331 0)
(1.03691 0.0206321 0)
(1.03492 0.0254657 0)
(1.04657 0.0158418 0)
(1.03843 0.0241608 0)
(1.05568 0.00511127 0)
(1.03772 0.0163499 0)
(1.05786 -0.00791033 0)
(1.03212 0.00275702 0)
(1.05205 -0.0172542 0)
(1.02758 -0.0135295 0)
(1.03772 -0.0203377 0)
(1.02371 -0.0249068 0)
(1.02227 0.00528075 0)
(1.02801 0.000324399 0)
(1.02628 0.0077592 0)
(1.02996 0.00295015 0)
(1.02531 0.0116145 0)
(1.02873 0.00688504 0)
(1.02524 0.0153663 0)
(1.03001 0.011636 0)
(1.02776 0.0180212 0)
(1.03181 0.0166356 0)
(1.0315 0.0180863 0)
(1.03395 0.0201673 0)
(1.03763 0.0137506 0)
(1.03673 0.0202932 0)
(1.04432 0.00481954 0)
(1.03622 0.0157435 0)
(1.04669 -0.00671904 0)
(1.03158 0.00697308 0)
(1.04421 -0.0168297 0)
(1.02726 -0.00427619 0)
(1.03614 -0.0215737 0)
(1.0226 -0.0145603 0)
(1.02184 0.00656189 0)
(1.02727 0.00227265 0)
(1.02656 0.00917668 0)
(1.02943 0.00402713 0)
(1.02477 0.0116848 0)
(1.02862 0.00649411 0)
(1.02402 0.0141653 0)
(1.03044 0.00999702 0)
(1.02539 0.0158828 0)
(1.03226 0.0138357 0)
(1.027 0.0154222 0)
(1.03394 0.0167182 0)
(1.03104 0.0117046 0)
(1.03663 0.017347 0)
(1.0362 0.00443765 0)
(1.03669 0.014423 0)
(1.03869 -0.00493284 0)
(1.03279 0.00788408 0)
(1.03869 -0.0134435 0)
(1.02788 -0.00121866 0)
(1.03597 -0.0178088 0)
(1.02109 -0.0104516 0)
(1.02237 0.00774598 0)
(1.02605 0.00352156 0)
(1.02504 0.00946149 0)
(1.02759 0.00442994 0)
(1.02364 0.011242 0)
(1.0278 0.00632982 0)
(1.02322 0.0131014 0)
(1.02994 0.00895661 0)
(1.02389 0.0140554 0)
(1.03165 0.0116885 0)
(1.02453 0.0132649 0)
(1.03332 0.0139254 0)
(1.02735 0.0101271 0)
(1.03583 0.0145025 0)
(1.03145 0.0041847 0)
(1.03608 0.0125555 0)
(1.03395 -0.00356869 0)
(1.03273 0.00790078 0)
(1.0352 -0.0109446 0)
(1.02839 0.00105786 0)
(1.03457 -0.0150864 0)
(1.02181 -0.00700133 0)
(1.02064 0.00767945 0)
(1.02362 0.00440544 0)
(1.02341 0.00875396 0)
(1.02607 0.00519477 0)
(1.02284 0.0101095 0)
(1.02674 0.00663418 0)
(1.02248 0.0113091 0)
(1.02886 0.00838201 0)
(1.023 0.0117556 0)
(1.03065 0.010223 0)
(1.02329 0.0110464 0)
(1.03226 0.0117017 0)
(1.02515 0.00855014 0)
(1.03457 0.011908 0)
(1.0284 0.00410244 0)
(1.0351 0.0102545 0)
(1.03043 -0.00170288 0)
(1.03241 0.00649984 0)
(1.03204 -0.00725052 0)
(1.02859 0.000934965 0)
(1.03259 -0.0106688 0)
(1.02247 -0.00557444 0)
(1.01969 0.00719586 0)
(1.02281 0.00501617 0)
(1.02275 0.00820402 0)
(1.02497 0.00558304 0)
(1.02225 0.00899845 0)
(1.0255 0.00640374 0)
(1.02204 0.00967154 0)
(1.02747 0.00752534 0)
(1.02263 0.00987868 0)
(1.02915 0.00870051 0)
(1.02277 0.00924971 0)
(1.03036 0.00955011 0)
(1.0241 0.00736577 0)
(1.03252 0.00959317 0)
(1.02663 0.00406318 0)
(1.03303 0.00825003 0)
(1.02809 -0.000339553 0)
(1.03097 0.00544552 0)
(1.02935 -0.00468731 0)
(1.02811 0.00125096 0)
(1.02993 -0.00761972 0)
(1.02322 -0.0038337 0)
(1.01986 0.0068971 0)
(1.02233 0.00546703 0)
(1.02205 0.00736185 0)
(1.02391 0.00562131 0)
(1.02168 0.00770623 0)
(1.02452 0.00604612 0)
(1.02181 0.00809644 0)
(1.02635 0.00671202 0)
(1.0224 0.00817606 0)
(1.02767 0.00737086 0)
(1.02229 0.00767685 0)
(1.02857 0.0078061 0)
(1.02327 0.00641691 0)
(1.03025 0.00767351 0)
(1.02507 0.00408771 0)
(1.03064 0.00655408 0)
(1.02602 0.00094653 0)
(1.02899 0.0043935 0)
(1.02694 -0.00230861 0)
(1.02686 0.00123093 0)
(1.02753 -0.00479694 0)
(1.0231 -0.00261057 0)
(1.01935 0.00638145 0)
(1.02148 0.00530621 0)
(1.02136 0.00652925 0)
(1.02302 0.00529774 0)
(1.02132 0.0066925 0)
(1.0236 0.00552042 0)
(1.02152 0.00689664 0)
(1.02507 0.00588162 0)
(1.02204 0.00688193 0)
(1.02605 0.00624142 0)
(1.02185 0.00650812 0)
(1.02663 0.00653253 0)
(1.02244 0.00564239 0)
(1.02793 0.0064133 0)
(1.02377 0.00400935 0)
(1.02825 0.00559462 0)
(1.02428 0.00171228 0)
(1.02697 0.0039736 0)
(1.02488 -0.000805937 0)
(1.02559 0.00155327 0)
(1.02532 -0.00295386 0)
(1.02284 -0.00150449 0)
(1.01883 0.00573709 0)
(1.02074 0.00502673 0)
(1.02058 0.00575231 0)
(1.02196 0.00492824 0)
(1.02052 0.00573468 0)
(1.02238 0.00497699 0)
(1.02074 0.005764 0)
(1.02359 0.00516198 0)
(1.02118 0.00570312 0)
(1.0243 0.00539371 0)
(1.02102 0.00548212 0)
(1.02475 0.00561924 0)
(1.0215 0.00495519 0)
(1.02582 0.00554088 0)
(1.0226 0.00389789 0)
(1.02615 0.004899 0)
(1.023 0.00232802 0)
(1.02526 0.00360629 0)
(1.02354 0.000498988 0)
(1.02439 0.00164904 0)
(1.02389 -0.00129485 0)
(1.02239 -0.000791668 0)
(1.01834 0.00532023 0)
(1.01994 0.00481531 0)
(1.01968 0.00517504 0)
(1.02084 0.00463033 0)
(1.01961 0.00499952 0)
(1.02112 0.00457958 0)
(1.01979 0.00489274 0)
(1.02205 0.00465344 0)
(1.0202 0.00475204 0)
(1.0226 0.00477547 0)
(1.02007 0.00454624 0)
(1.02282 0.00487126 0)
(1.02042 0.00418054 0)
(1.02373 0.00475798 0)
(1.02145 0.00352505 0)
(1.02415 0.0042086 0)
(1.02185 0.0025337 0)
(1.02368 0.00316586 0)
(1.0224 0.00134731 0)
(1.02337 0.00162888 0)
(1.02271 4.41756e-05 0)
(1.02206 -0.000211276 0)
(1.01771 0.00492148 0)
(1.0191 0.00462529 0)
(1.01876 0.00470717 0)
(1.0198 0.00442291 0)
(1.01875 0.00446781 0)
(1.02003 0.0043116 0)
(1.019 0.00427796 0)
(1.02076 0.00425886 0)
(1.01938 0.00404996 0)
(1.02106 0.00419158 0)
(1.01922 0.00379192 0)
(1.02112 0.00411276 0)
(1.0196 0.00353134 0)
(1.02187 0.00390476 0)
(1.02045 0.0031132 0)
(1.02224 0.00337671 0)
(1.02075 0.00251863 0)
(1.02209 0.00257723 0)
(1.02116 0.0018059 0)
(1.02222 0.00151733 0)
(1.02132 0.000912835 0)
(1.0216 0.000344409 0)
(1.01697 0.00440149 0)
(1.01819 0.00426045 0)
(1.01789 0.00420962 0)
(1.01882 0.00409312 0)
(1.01801 0.00398337 0)
(1.01905 0.003964 0)
(1.01828 0.00376983 0)
(1.0196 0.00383735 0)
(1.01863 0.00352043 0)
(1.01983 0.00368676 0)
(1.01861 0.00329175 0)
(1.01989 0.00354292 0)
(1.01889 0.00308505 0)
(1.0204 0.00327134 0)
(1.01948 0.00277641 0)
(1.02072 0.00278957 0)
(1.01961 0.00238935 0)
(1.0207 0.00217175 0)
(1.01979 0.00193367 0)
(1.02104 0.00144242 0)
(1.01985 0.00130968 0)
(1.02085 0.000703746 0)
(1.01631 0.00377414 0)
(1.0173 0.00369907 0)
(1.01706 0.00362167 0)
(1.0178 0.0035527 0)
(1.0172 0.00343402 0)
(1.01802 0.00342929 0)
(1.01751 0.0032655 0)
(1.01854 0.00331319 0)
(1.01792 0.00308131 0)
(1.0188 0.00317743 0)
(1.01794 0.00290622 0)
(1.01883 0.0030322 0)
(1.01813 0.00274142 0)
(1.01926 0.00280856 0)
(1.01856 0.00251231 0)
(1.01956 0.00244325 0)
(1.01856 0.00221448 0)
(1.01962 0.00199671 0)
(1.01862 0.00186899 0)
(1.02001 0.00148244 0)
(1.01864 0.00138009 0)
(1.02005 0.000960025 0)
(1.01563 0.0030459 0)
(1.0164 0.00299763 0)
(1.01618 0.00291931 0)
(1.01682 0.00287646 0)
(1.01638 0.00278471 0)
(1.01709 0.00278748 0)
(1.01671 0.00267885 0)
(1.01755 0.00270344 0)
(1.01707 0.0025534 0)
(1.01781 0.00259366 0)
(1.01714 0.00243306 0)
(1.01793 0.00249438 0)
(1.01734 0.00233966 0)
(1.01833 0.00235211 0)
(1.01768 0.00218138 0)
(1.01864 0.00209406 0)
(1.01772 0.00195361 0)
(1.01878 0.00177825 0)
(1.01779 0.00167795 0)
(1.01915 0.00139633 0)
(1.01786 0.00128121 0)
(1.01928 0.000988167 0)
(1.015 0.00244701 0)
(1.01562 0.00241504 0)
(1.01543 0.00236751 0)
(1.01599 0.00233663 0)
(1.01564 0.00228054 0)
(1.01625 0.0022753 0)
(1.01591 0.00220907 0)
(1.01665 0.00221655 0)
(1.01624 0.00212724 0)
(1.01695 0.00214828 0)
(1.01638 0.00205586 0)
(1.01715 0.0020941 0)
(1.01659 0.00199934 0)
(1.01752 0.00200657 0)
(1.01689 0.00188715 0)
(1.01784 0.00183181 0)
(1.017 0.00171427 0)
(1.01806 0.00160323 0)
(1.01713 0.00149609 0)
(1.01842 0.00130863 0)
(1.01727 0.00118325 0)
(1.0186 0.000966867 0)
(1.01453 0.00161176 0)
(1.01502 0.00159782 0)
(1.0148 0.00157953 0)
(1.01529 0.00156284 0)
(1.01498 0.00154307 0)
(1.01554 0.00154245 0)
(1.01523 0.00152175 0)
(1.0159 0.00152715 0)
(1.01552 0.0014918 0)
(1.01621 0.00150135 0)
(1.0157 0.00146228 0)
(1.01645 0.00148431 0)
(1.01592 0.00144185 0)
(1.01682 0.00144898 0)
(1.01621 0.00138061 0)
(1.01716 0.00135237 0)
(1.01639 0.00127151 0)
(1.01743 0.00121631 0)
(1.01658 0.00112705 0)
(1.01779 0.00102411 0)
(1.01677 0.000910309 0)
(1.01803 0.000785595 0)
(1.01418 0.000944255 0)
(1.01461 0.000934274 0)
(1.01439 0.000923393 0)
(1.01485 0.000914354 0)
(1.01457 0.000906477 0)
(1.01511 0.000907819 0)
(1.01479 0.000900851 0)
(1.0154 0.000903995 0)
(1.01502 0.000888495 0)
(1.01569 0.00089292 0)
(1.01523 0.000876463 0)
(1.01598 0.000889263 0)
(1.01547 0.000871282 0)
(1.01632 0.000875958 0)
(1.01573 0.000840453 0)
(1.01666 0.000825516 0)
(1.01595 0.000779558 0)
(1.01697 0.00075069 0)
(1.01618 0.000696348 0)
(1.01731 0.000640549 0)
(1.0164 0.00056937 0)
(1.0176 0.000499836 0)
(1.01391 0.000453644 0)
(1.0143 0.000445778 0)
(1.01408 0.000438674 0)
(1.01452 0.000430686 0)
(1.01426 0.000423972 0)
(1.01477 0.000419013 0)
(1.01447 0.000412831 0)
(1.01506 0.000409772 0)
(1.01469 0.000402216 0)
(1.01535 0.000401199 0)
(1.01492 0.000393263 0)
(1.01566 0.000394827 0)
(1.01516 0.000384845 0)
(1.01599 0.000383858 0)
(1.01542 0.00036743 0)
(1.01634 0.000360519 0)
(1.01567 0.000339652 0)
(1.01667 0.000327639 0)
(1.01592 0.000303727 0)
(1.01702 0.000282552 0)
(1.01615 0.000254752 0)
(1.01732 0.000228155 0)
(1.08189 -0.138629 -9.41882e-20)
(1.03217 -0.165282 8.45378e-22)
(1.0225 -0.185472 -1.11193e-19)
(0.989868 -0.207355 4.22642e-20)
(0.897581 -0.256864 -3.62094e-20)
(1.06662 -0.113957 3.07604e-20)
(1.02303 -0.12754 -7.19159e-20)
(1.00238 -0.161135 5.38899e-20)
(0.997947 -0.153624 2.51392e-20)
(0.928752 -0.212761 2.85581e-20)
(1.04894 -0.0995205 -1.75616e-20)
(1.02793 -0.0916644 1.68376e-20)
(0.994656 -0.135073 2.58716e-20)
(1.0042 -0.111565 -4.25443e-20)
(0.955472 -0.160075 -2.80319e-20)
(1.03045 -0.0844687 -7.58637e-21)
(1.02982 -0.0608387 5.03077e-22)
(0.991483 -0.108285 -1.25397e-20)
(0.994814 -0.0865789 5.43577e-20)
(0.961909 -0.124838 4.25849e-20)
(1.02253 -0.046824 -1.24358e-20)
(0.992087 -0.0857954 -2.76705e-20)
(0.990062 -0.0681523 -6.03899e-21)
(0.967398 -0.096052 -2.71739e-20)
(1.01577 -0.035165 1.97497e-20)
(0.99426 -0.0644529 2.93872e-20)
(0.994226 -0.0483801 -1.44233e-20)
(0.976524 -0.0691488 1.88662e-20)
(1.01147 -0.0277917 1.42435e-20)
(0.997052 -0.0472395 -9.06096e-21)
(0.995197 -0.0359665 9.87312e-21)
(0.985055 -0.0475306 -1.18335e-20)
(1.00983 -0.0214233 -2.04059e-20)
(0.999098 -0.0353192 1.14087e-20)
(0.995074 -0.0276598 -2.22485e-21)
(0.990048 -0.0329555 5.78373e-21)
(1.00999 -0.0169887 4.98485e-21)
(1.00493 -0.02478 -1.01238e-20)
(0.998051 -0.0211564 7.81637e-21)
(0.996259 -0.02237 -1.40661e-20)
(1.01318 -0.0110639 1.26713e-20)
(1.01163 -0.0170461 -2.75562e-21)
(1.00405 -0.0142611 -3.92028e-21)
(1.00259 -0.0162353 1.20504e-20)
(1.01641 -0.00593483 -8.29438e-21)
(1.01818 -0.0101231 7.23852e-21)
(1.01041 -0.00816014 -9.97117e-21)
(1.01072 -0.0105757 -8.65492e-21)
(1.02008 -0.00128841 -6.73031e-21)
(1.02234 -0.00600497 7.86455e-22)
(1.01641 -0.00280592 1.09922e-20)
(1.01667 -0.00690474 7.1686e-21)
(1.0206 0.00111508 9.51205e-21)
(1.02265 -0.0033975 -2.5002e-21)
(1.01879 0.000606246 -5.86219e-21)
(1.02109 -0.00336602 -3.59087e-21)
(1.02029 0.00332155 -3.2592e-21)
(1.02271 -0.000733141 -7.18602e-22)