/*--------------------------------*- C++ -*----------------------------------*\
| =========                 |                                                 |
| \\      /  F ield         | OpenFOAM: The Open Source CFD Toolbox           |
|  \\    /   O peration     | Version:                                        |
|   \\  /    A nd           | Website:  www.openfoam.com                      |
|    \\/     M anipulation  |                                                 |
\*---------------------------------------------------------------------------*/
FoamFile
{
    version     2.0;
    format      ascii;
    class       volScalarField;
    location    "0.9";
    object      p;
}
// * * * * * * * * * * * * * * * * * * * * * * * * * * * * * * * * * * * * * //

dimensions      [0 2 -2 0 0 0 0];


internalField   nonuniform List<scalar> 
400
(
0.130244
0.123302
0.116394
0.109518
0.102673
0.0958575
0.0890715
0.0823135
0.0755825
0.0688778
0.0621984
0.0555435
0.0489125
0.0423043
0.035719
0.0291547
0.0226143
0.0160898
0.00960296
0.00310064
0.130313
0.123369
0.116458
0.10958
0.102732
0.095915
0.0891268
0.0823668
0.0756339
0.0689273
0.0622461
0.0555895
0.0489569
0.0423472
0.0357606
0.0291949
0.022654
0.0161278
0.00964485
0.00312489
0.130372
0.123425
0.116512
0.109632
0.102782
0.0959633
0.0891733
0.0824115
0.075677
0.0689688
0.0622861
0.055628
0.048994
0.042383
0.0357952
0.029228
0.0226867
0.0161569
0.00967688
0.00313433
0.130418
0.12347
0.116555
0.109673
0.102822
0.0960016
0.0892101
0.0824469
0.075711
0.0690015
0.0623175
0.0556583
0.0490231
0.0424108
0.035822
0.0292531
0.0227113
0.0161767
0.00969761
0.00313601
0.13046
0.12351
0.116594
0.10971
0.102858
0.0960355
0.0892427
0.0824782
0.075741
0.0690303
0.0623452
0.0556848
0.0490484
0.0424349
0.0358451
0.0292743
0.0227315
0.016192
0.0097123
0.00313666
0.130499
0.123548
0.11663
0.109745
0.102891
0.0960674
0.0892733
0.0825076
0.0757692
0.0690573
0.062371
0.0557094
0.0490719
0.0424571
0.0358659
0.0292932
0.022749
0.0162047
0.00972338
0.00313887
0.130538
0.123585
0.116665
0.109779
0.102923
0.0960986
0.0893031
0.0825361
0.0757965
0.0690834
0.0623958
0.0557331
0.0490942
0.0424781
0.0358854
0.0293108
0.0227646
0.0162164
0.00973207
0.00314404
0.130577
0.123623
0.116701
0.109813
0.102956
0.0961301
0.0893332
0.0825649
0.075824
0.0691096
0.0624208
0.0557568
0.0491165
0.042499
0.0359045
0.029328
0.0227793
0.0162284
0.0097394
0.00315321
0.130619
0.123662
0.116739
0.109849
0.102991
0.096163
0.0893647
0.082595
0.0758526
0.069137
0.0624467
0.0557813
0.0491395
0.0425206
0.035924
0.0293458
0.0227939
0.0162417
0.00974613
0.00316692
0.130663
0.123704
0.116779
0.109887
0.103027
0.096198
0.0893981
0.0826269
0.075883
0.0691659
0.0624741
0.0558073
0.0491637
0.0425434
0.0359445
0.0293649
0.022809
0.016257
0.00975278
0.00318521
0.13071
0.123749
0.116822
0.109928
0.103066
0.0962352
0.0894337
0.0826608
0.0759153
0.0691967
0.0625032
0.055835
0.0491894
0.0425676
0.0359661
0.0293855
0.0228251
0.0162746
0.00975963
0.00320768
0.130759
0.123796
0.116867
0.109971
0.103107
0.0962743
0.089471
0.0826965
0.0759493
0.069229
0.0625338
0.055864
0.0492164
0.0425933
0.0359888
0.0294076
0.022842
0.0162945
0.00976677
0.00323355
0.130809
0.123844
0.116913
0.110015
0.103149
0.0963146
0.0895094
0.0827331
0.0759842
0.0692624
0.0625653
0.055894
0.0492443
0.0426198
0.0360124
0.0294308
0.0228595
0.016316
0.00977414
0.00326176
0.13086
0.123892
0.116959
0.110059
0.103191
0.0963548
0.0895478
0.0827698
0.0760191
0.0692957
0.0625968
0.055924
0.0492722
0.0426465
0.036036
0.0294545
0.0228772
0.0163385
0.00978159
0.00329102
0.130908
0.123938
0.117003
0.110102
0.103232
0.0963936
0.0895849
0.0828052
0.0760528
0.0693278
0.0626273
0.055953
0.0492992
0.0426724
0.0360589
0.0294776
0.0228944
0.0163608
0.00978886
0.0033199
0.130953
0.123981
0.117044
0.110141
0.103269
0.0964292
0.0896189
0.0828378
0.0760839
0.0693575
0.0626553
0.0559798
0.0493241
0.0426964
0.0360801
0.0294992
0.0229103
0.0163819
0.00979563
0.00334691
0.130992
0.124018
0.11708
0.110174
0.103302
0.0964602
0.0896485
0.0828661
0.0761109
0.0693832
0.0626797
0.0560031
0.0493457
0.0427173
0.0360985
0.0295182
0.0229243
0.0164005
0.00980156
0.0033706
0.131022
0.124048
0.117108
0.110202
0.103328
0.096485
0.0896722
0.0828887
0.0761324
0.0694038
0.0626992
0.0560218
0.0493631
0.0427341
0.0361133
0.0295335
0.0229355
0.0164156
0.00980633
0.00338966
0.131044
0.124068
0.117127
0.11022
0.103346
0.0965022
0.0896887
0.0829045
0.0761475
0.0694182
0.0627129
0.0560348
0.0493752
0.0427458
0.0361236
0.0295442
0.0229434
0.0164262
0.00980967
0.003403
0.131055
0.124079
0.117138
0.11023
0.103355
0.0965111
0.0896971
0.0829126
0.0761552
0.0694256
0.0627199
0.0560415
0.0493815
0.0427519
0.036129
0.0295497
0.0229474
0.0164317
0.0098114
0.00340987
)
;

boundaryField
{
    fixedWalls
    {
        type            zeroGradient;
    }
    inlet
    {
        type            zeroGradient;
    }
    outlet
    {
        type            fixedValue;
        value           uniform 0;
    }
    frontAndBack
    {
        type            empty;
    }
    procBoundary3to2
    {
        type            processor;
        value           nonuniform List<scalar> 
20
(
0.13722
0.137292
0.137353
0.137401
0.137445
0.137486
0.137526
0.137568
0.137611
0.137657
0.137706
0.137757
0.13781
0.137863
0.137914
0.137961
0.138001
0.138033
0.138056
0.138068
)
;
    }
    procBoundary3to7
    {
        type            processor;
        value           nonuniform List<scalar> 
20
(
0.131055
0.124079
0.117138
0.11023
0.103355
0.0965111
0.0896972
0.0829126
0.0761552
0.0694256
0.0627198
0.0560415
0.0493815
0.042752
0.036129
0.0295496
0.0229473
0.0164317
0.00981149
0.00340989
)
;
    }
}


// ************************************************************************* //
