/*--------------------------------*- C++ -*----------------------------------*\
| =========                 |                                                 |
| \\      /  F ield         | OpenFOAM: The Open Source CFD Toolbox           |
|  \\    /   O peration     | Version:                                        |
|   \\  /    A nd           | Website:  www.openfoam.com                      |
|    \\/     M anipulation  |                                                 |
\*---------------------------------------------------------------------------*/
FoamFile
{
    version     2.0;
    format      ascii;
    class       surfaceScalarField;
    location    "0.9";
    object      phi;
}
// * * * * * * * * * * * * * * * * * * * * * * * * * * * * * * * * * * * * * //

dimensions      [0 3 -1 0 0 0 0];
oriented        oriented;


internalField   nonuniform List<scalar> 
760
(
1.98652e-06
4.32797e-09
1.98235e-06
4.1667e-09
1.97834e-06
4.01199e-09
1.97448e-06
3.86351e-09
1.97076e-06
3.72108e-09
1.96717e-06
3.58434e-09
1.96372e-06
3.45328e-09
1.96039e-06
3.32748e-09
1.95718e-06
3.20722e-09
1.95409e-06
3.09199e-09
1.95111e-06
2.98233e-09
1.94823e-06
2.87835e-09
1.94545e-06
2.77926e-09
1.94276e-06
2.69105e-09
1.94016e-06
2.60071e-09
1.93761e-06
2.55119e-09
1.93515e-06
2.45633e-09
1.93256e-06
2.59215e-09
1.93011e-06
2.45375e-09
4.34936e-09
5.74257e-06
1.62323e-08
5.73111e-06
1.56239e-08
5.72008e-06
1.50404e-08
5.70946e-06
1.44807e-08
5.69924e-06
1.39439e-08
5.6894e-06
1.34287e-08
5.67992e-06
1.29349e-08
5.67078e-06
1.24611e-08
5.66198e-06
1.2008e-08
5.6535e-06
1.1574e-08
5.64532e-06
1.11606e-08
5.63743e-06
1.07678e-08
5.62982e-06
1.03951e-08
5.62245e-06
1.0055e-08
5.61533e-06
9.72404e-09
5.60839e-06
9.49328e-09
5.60165e-06
9.19536e-09
5.59484e-06
9.40237e-09
5.58812e-06
9.16527e-09
1.20879e-08
9.27994e-06
3.45632e-08
9.2623e-06
3.32617e-08
9.24533e-06
3.20138e-08
9.22899e-06
3.0817e-08
9.21327e-06
2.96694e-08
9.19813e-06
2.85684e-08
9.18355e-06
2.75131e-08
9.16951e-06
2.65009e-08
9.15599e-06
2.55325e-08
9.14296e-06
2.46049e-08
9.13039e-06
2.37212e-08
9.11828e-06
2.28798e-08
9.10659e-06
2.2083e-08
9.0953e-06
2.13459e-08
9.08438e-06
2.0643e-08
9.07378e-06
2.00964e-08
9.06348e-06
1.94954e-08
9.05331e-06
1.95725e-08
9.04328e-06
1.91907e-08
2.19473e-08
1.25959e-05
5.80562e-08
1.25733e-05
5.58606e-08
1.25516e-05
5.37562e-08
1.25307e-05
5.17383e-08
1.25105e-05
4.98037e-08
1.24912e-05
4.7948e-08
1.24725e-05
4.61695e-08
1.24545e-05
4.44637e-08
1.24372e-05
4.28317e-08
1.24206e-05
4.1268e-08
1.24045e-05
3.97782e-08
1.2389e-05
3.83569e-08
1.23741e-05
3.70126e-08
1.23597e-05
3.57561e-08
1.23458e-05
3.45715e-08
1.23323e-05
3.35829e-08
1.23192e-05
3.25882e-08
1.23065e-05
3.23071e-08
1.2294e-05
3.16944e-08
3.35981e-08
1.56873e-05
8.53051e-08
1.5661e-05
8.20665e-08
1.56358e-05
7.8963e-08
1.56116e-05
7.59877e-08
1.55883e-05
7.31357e-08
1.55658e-05
7.04002e-08
1.55442e-05
6.7779e-08
1.55234e-05
6.52647e-08
1.55034e-05
6.28595e-08
1.54841e-05
6.05538e-08
1.54655e-05
5.83575e-08
1.54476e-05
5.62576e-08
1.54303e-05
5.42748e-08
1.54137e-05
5.24027e-08
1.53976e-05
5.06564e-08
1.53821e-05
4.91132e-08
1.5367e-05
4.76649e-08
1.53525e-05
4.68087e-08
1.53383e-05
4.59404e-08
4.65829e-08
1.85505e-05
1.14756e-07
1.85222e-05
1.10385e-07
1.8495e-05
1.06196e-07
1.84688e-05
1.02181e-07
1.84436e-05
9.83327e-08
1.84194e-05
9.4642e-08
1.8396e-05
9.11059e-08
1.83736e-05
8.77137e-08
1.8352e-05
8.44692e-08
1.83312e-05
8.13569e-08
1.83111e-05
7.83938e-08
1.82918e-05
7.55536e-08
1.82732e-05
7.2878e-08
1.82553e-05
7.03255e-08
1.8238e-05
6.7973e-08
1.82213e-05
6.57854e-08
1.82051e-05
6.38628e-08
1.81897e-05
6.22533e-08
1.81745e-05
6.11558e-08
6.03333e-08
2.11829e-05
1.44724e-07
2.11541e-05
1.39195e-07
2.11264e-05
1.33898e-07
2.10998e-05
1.28821e-07
2.10741e-05
1.23954e-07
2.10495e-05
1.19288e-07
2.10258e-05
1.14817e-07
2.1003e-05
1.10527e-07
2.0981e-05
1.06426e-07
2.09599e-05
1.02488e-07
2.09395e-05
9.87416e-08
2.092e-05
9.51406e-08
2.09011e-05
9.17592e-08
2.08829e-05
8.84973e-08
2.08653e-05
8.55336e-08
2.08485e-05
8.26436e-08
2.08321e-05
8.02647e-08
2.08166e-05
7.77805e-08
2.08012e-05
7.65064e-08
7.41733e-08
2.35825e-05
1.73433e-07
2.35549e-05
1.66792e-07
2.35284e-05
1.6043e-07
2.35029e-05
1.54331e-07
2.34783e-05
1.48487e-07
2.34547e-05
1.42882e-07
2.3432e-05
1.37512e-07
2.34102e-05
1.32359e-07
2.33892e-05
1.27433e-07
2.3369e-05
1.227e-07
2.33495e-05
1.18202e-07
2.33308e-05
1.13864e-07
2.33128e-05
1.09807e-07
2.32954e-05
1.05847e-07
2.32786e-05
1.02308e-07
2.32626e-05
9.86983e-08
2.32469e-05
9.59144e-08
2.32322e-05
9.25028e-08
2.32176e-05
9.11122e-08
8.73405e-08
2.5749e-05
1.99079e-07
2.57243e-05
1.91444e-07
2.57006e-05
1.84128e-07
2.56778e-05
1.77116e-07
2.56559e-05
1.70395e-07
2.56349e-05
1.63949e-07
2.56146e-05
1.57775e-07
2.55951e-05
1.51847e-07
2.55764e-05
1.46183e-07
2.55583e-05
1.40734e-07
2.5541e-05
1.35563e-07
2.55243e-05
1.30557e-07
2.55082e-05
1.259e-07
2.54927e-05
1.21296e-07
2.54778e-05
1.17256e-07
2.54635e-05
1.12957e-07
2.54496e-05
1.09846e-07
2.54366e-05
1.0553e-07
2.54236e-05
1.04078e-07
9.90285e-08
2.76841e-05
2.19918e-07
2.76641e-05
2.11475e-07
2.76448e-05
2.03385e-07
2.76263e-05
1.95628e-07
2.76085e-05
1.88195e-07
2.75914e-05
1.81063e-07
2.75749e-05
1.74233e-07
2.75591e-05
1.67673e-07
2.75439e-05
1.61406e-07
2.75292e-05
1.55371e-07
2.75151e-05
1.49653e-07
2.75016e-05
1.44096e-07
2.74885e-05
1.38954e-07
2.7476e-05
1.33806e-07
2.74639e-05
1.29373e-07
2.74524e-05
1.24469e-07
2.74411e-05
1.21126e-07
2.74306e-05
1.16002e-07
2.74202e-05
1.14538e-07
1.08438e-07
2.93919e-05
2.34358e-07
2.9378e-05
2.25357e-07
2.93647e-05
2.16731e-07
2.93518e-05
2.08459e-07
2.93395e-05
2.00531e-07
2.93276e-05
1.92923e-07
2.93162e-05
1.85636e-07
2.93053e-05
1.78635e-07
2.92947e-05
1.7195e-07
2.92846e-05
1.65503e-07
2.92748e-05
1.59405e-07
2.92655e-05
1.53455e-07
2.92564e-05
1.47982e-07
2.92478e-05
1.42433e-07
2.92394e-05
1.37746e-07
2.92315e-05
1.32369e-07
2.92238e-05
1.28903e-07
2.92166e-05
1.23139e-07
2.92095e-05
1.21703e-07
1.14829e-07
3.08789e-05
2.41069e-07
3.08725e-05
2.31812e-07
3.08663e-05
2.22938e-07
3.08603e-05
2.14427e-07
3.08546e-05
2.06269e-07
3.08491e-05
1.98437e-07
3.08438e-05
1.90937e-07
3.08387e-05
1.83726e-07
3.08338e-05
1.76845e-07
3.08291e-05
1.70199e-07
3.08246e-05
1.63924e-07
3.08202e-05
1.57776e-07
3.08161e-05
1.52156e-07
3.08121e-05
1.46386e-07
3.08083e-05
1.41605e-07
3.08047e-05
1.35937e-07
3.08011e-05
1.32462e-07
3.0798e-05
1.26282e-07
3.07948e-05
1.2491e-07
1.17578e-07
3.21543e-05
2.39076e-07
3.21562e-05
2.29902e-07
3.2158e-05
2.21105e-07
3.21598e-05
2.12666e-07
3.21615e-05
2.04574e-07
3.21631e-05
1.96804e-07
3.21647e-05
1.89363e-07
3.21662e-05
1.82206e-07
3.21676e-05
1.75378e-07
3.21691e-05
1.68774e-07
3.21704e-05
1.62551e-07
3.21718e-05
1.56429e-07
3.21731e-05
1.50866e-07
3.21744e-05
1.45088e-07
3.21756e-05
1.40384e-07
3.21769e-05
1.34646e-07
3.21781e-05
1.31279e-07
3.21794e-05
1.24952e-07
3.21806e-05
1.23673e-07
1.16221e-07
3.32289e-05
2.27848e-07
3.32397e-05
2.19114e-07
3.325e-05
2.10737e-07
3.326e-05
2.02697e-07
3.32696e-05
1.94987e-07
3.32788e-05
1.87581e-07
3.32877e-05
1.80489e-07
3.32962e-05
1.73663e-07
3.33045e-05
1.67154e-07
3.33124e-05
1.6085e-07
3.332e-05
1.54921e-07
3.33274e-05
1.49064e-07
3.33345e-05
1.43774e-07
3.33413e-05
1.3822e-07
3.3348e-05
1.3377e-07
3.33544e-05
1.28205e-07
3.33606e-05
1.25062e-07
3.33667e-05
1.18882e-07
3.33726e-05
1.17726e-07
1.10503e-07
3.41154e-05
2.07353e-07
3.41351e-05
1.99415e-07
3.41541e-05
1.91798e-07
3.41723e-05
1.84486e-07
3.41898e-05
1.77472e-07
3.42066e-05
1.70734e-07
3.42228e-05
1.6428e-07
3.42384e-05
1.58064e-07
3.42534e-05
1.52141e-07
3.42679e-05
1.46397e-07
3.42818e-05
1.41002e-07
3.42952e-05
1.35655e-07
3.43081e-05
1.3085e-07
3.43206e-05
1.25759e-07
3.43326e-05
1.21736e-07
3.43442e-05
1.16599e-07
3.43555e-05
1.13788e-07
3.43663e-05
1.08057e-07
3.4377e-05
1.0705e-07
1.00397e-07
3.48272e-05
1.78085e-07
3.48553e-05
1.71277e-07
3.48824e-05
1.64742e-07
3.49084e-05
1.58466e-07
3.49334e-05
1.52446e-07
3.49575e-05
1.4666e-07
3.49807e-05
1.41118e-07
3.50029e-05
1.35778e-07
3.50244e-05
1.30691e-07
3.5045e-05
1.25752e-07
3.50649e-05
1.21121e-07
3.50841e-05
1.16516e-07
3.51025e-05
1.12397e-07
3.51203e-05
1.07998e-07
3.51374e-05
1.04562e-07
3.51539e-05
1.001e-07
3.517e-05
9.77198e-08
3.51853e-05
9.27272e-08
3.52005e-05
9.18923e-08
8.61295e-08
3.53774e-05
1.41056e-07
3.5413e-05
1.3567e-07
3.54472e-05
1.305e-07
3.54801e-05
1.25532e-07
3.55118e-05
1.20766e-07
3.55423e-05
1.16184e-07
3.55716e-05
1.11796e-07
3.55998e-05
1.07566e-07
3.5627e-05
1.03537e-07
3.56531e-05
9.96217e-08
3.56783e-05
9.5955e-08
3.57025e-05
9.22994e-08
3.57258e-05
8.9042e-08
3.57483e-05
8.55419e-08
3.577e-05
8.28328e-08
3.57909e-05
7.92675e-08
3.58112e-05
7.74023e-08
3.58305e-05
7.34067e-08
3.58496e-05
7.27632e-08
6.81714e-08
3.5778e-05
9.77446e-08
3.58196e-05
9.40158e-08
3.58597e-05
9.04365e-08
3.58982e-05
8.69965e-08
3.59353e-05
8.36947e-08
3.5971e-05
8.05202e-08
3.60053e-05
7.74808e-08
3.60383e-05
7.45497e-08
3.60701e-05
7.17581e-08
3.61006e-05
6.90435e-08
3.61301e-05
6.65036e-08
3.61584e-05
6.39665e-08
3.61858e-05
6.17117e-08
3.6212e-05
5.92784e-08
3.62375e-05
5.74079e-08
3.62618e-05
5.49225e-08
3.62856e-05
5.36394e-08
3.63081e-05
5.08508e-08
3.63305e-05
5.04138e-08
4.72198e-08
3.6039e-05
5.00147e-08
3.6085e-05
4.81077e-08
3.61291e-05
4.62768e-08
3.61716e-05
4.45178e-08
3.62125e-05
4.28295e-08
3.62518e-05
4.12056e-08
3.62896e-05
3.96504e-08
3.6326e-05
3.81507e-08
3.6361e-05
3.67227e-08
3.63947e-05
3.53333e-08
3.64272e-05
3.40342e-08
3.64584e-05
3.27352e-08
3.64886e-05
3.15824e-08
3.65175e-05
3.03344e-08
3.65455e-05
2.93793e-08
3.65724e-05
2.81039e-08
3.65986e-05
2.7451e-08
3.66234e-05
2.60178e-08
3.6648e-05
2.57962e-08
2.41588e-08
3.61677e-05
3.62158e-05
3.62621e-05
3.63066e-05
3.63494e-05
3.63906e-05
3.64303e-05
3.64684e-05
3.65051e-05
3.65405e-05
3.65745e-05
3.66072e-05
3.66388e-05
3.66691e-05
3.66985e-05
3.67266e-05
3.6754e-05
3.678e-05
3.68058e-05
)
;

boundaryField
{
    fixedWalls
    {
        type            calculated;
        value           uniform 0;
    }
    inlet
    {
        type            calculated;
        value           nonuniform 0();
    }
    outlet
    {
        type            calculated;
        value           nonuniform List<scalar> 
20
(
1.92576e-06
5.58039e-06
9.03343e-06
1.22823e-05
1.53253e-05
1.81607e-05
2.07874e-05
2.32044e-05
2.54119e-05
2.74108e-05
2.92031e-05
3.0792e-05
3.2182e-05
3.33783e-05
3.43871e-05
3.52148e-05
3.58676e-05
3.63514e-05
3.66711e-05
3.683e-05
)
;
    }
    frontAndBack
    {
        type            empty;
        value           nonuniform 0();
    }
    procBoundary3to2
    {
        type            processor;
        value           nonuniform List<scalar> 
20
(
-1.99085e-06
-5.75447e-06
-9.29827e-06
-1.26194e-05
-1.57145e-05
-1.858e-05
-2.12129e-05
-2.36112e-05
-2.57746e-05
-2.77049e-05
-2.94063e-05
-3.08857e-05
-3.21523e-05
-3.32177e-05
-3.40949e-05
-3.47979e-05
-3.53403e-05
-3.57347e-05
-3.59913e-05
-3.61177e-05
)
;
    }
    procBoundary3to7
    {
        type            processor;
        value           nonuniform List<scalar> 
20
(
5.32399e-12
3.00958e-12
8.70866e-13
3.61675e-12
6.60751e-12
5.46057e-12
2.95493e-12
3.51992e-12
5.15156e-12
5.2779e-12
5.83995e-12
7.18054e-12
6.22122e-12
3.77452e-12
4.82204e-12
9.32432e-12
1.07374e-11
6.98948e-12
5.24166e-12
7.79209e-12
)
;
    }
}


// ************************************************************************* //
