/*--------------------------------*- C++ -*----------------------------------*\
| =========                 |                                                 |
| \\      /  F ield         | OpenFOAM: The Open Source CFD Toolbox           |
|  \\    /   O peration     | Version:                                        |
|   \\  /    A nd           | Website:  www.openfoam.com                      |
|    \\/     M anipulation  |                                                 |
\*---------------------------------------------------------------------------*/
FoamFile
{
    version     2.0;
    format      ascii;
    class       volVectorField;
    location    "0.9";
    object      U;
}
// * * * * * * * * * * * * * * * * * * * * * * * * * * * * * * * * * * * * * //

dimensions      [0 1 -1 0 0 0 0];


internalField   nonuniform List<vector> 
400
(
(0.0795458 2.88684e-05 0)
(0.079376 2.78026e-05 0)
(0.0792125 2.67797e-05 0)
(0.079055 2.57974e-05 0)
(0.0789034 2.48548e-05 0)
(0.0787573 2.39492e-05 0)
(0.0786166 2.30815e-05 0)
(0.0784811 2.2248e-05 0)
(0.0783504 2.14521e-05 0)
(0.0782245 2.06891e-05 0)
(0.0781031 1.99642e-05 0)
(0.0779859 1.92793e-05 0)
(0.0778728 1.86247e-05 0)
(0.0777634 1.80608e-05 0)
(0.0776578 1.7453e-05 0)
(0.0775545 1.72333e-05 0)
(0.0774558 1.65322e-05 0)
(0.0773525 1.81836e-05 0)
(0.0772618 1.72914e-05 0)
(0.0770873 3.84176e-05 0)
(0.229936 0.000173436 0)
(0.229469 0.000166965 0)
(0.22902 0.000160758 0)
(0.228587 0.000154802 0)
(0.22817 0.000149088 0)
(0.227769 0.000143604 0)
(0.227383 0.000138347 0)
(0.227011 0.000133302 0)
(0.226652 0.000128479 0)
(0.226307 0.000123859 0)
(0.225974 0.000119462 0)
(0.225652 0.00011529 0)
(0.225342 0.000111329 0)
(0.225043 0.000107765 0)
(0.224754 0.000104222 0)
(0.224471 0.000102057 0)
(0.224202 9.8702e-05 0)
(0.223923 0.000102821 0)
(0.223684 9.97143e-05 0)
(0.223286 0.000151888 0)
(0.371557 0.000476369 0)
(0.370838 0.000458486 0)
(0.370146 0.000441338 0)
(0.36948 0.000424889 0)
(0.368839 0.000409114 0)
(0.368222 0.000393977 0)
(0.367628 0.000379469 0)
(0.367056 0.00036555 0)
(0.366505 0.000352237 0)
(0.365974 0.000339486 0)
(0.365463 0.000327342 0)
(0.364969 0.000315793 0)
(0.364494 0.000304852 0)
(0.364034 0.000294809 0)
(0.363591 0.000285146 0)
(0.363158 0.000278061 0)
(0.362748 0.000269662 0)
(0.362321 0.000273399 0)
(0.361972 0.000267609 0)
(0.361406 0.000327878 0)
(0.504298 0.000902683 0)
(0.503377 0.000868634 0)
(0.50249 0.000835994 0)
(0.501637 0.000804693 0)
(0.500816 0.00077468 0)
(0.500027 0.000745887 0)
(0.499266 0.000718292 0)
(0.498534 0.000691823 0)
(0.497829 0.000666502 0)
(0.49715 0.000642244 0)
(0.496496 0.000619134 0)
(0.495866 0.000597113 0)
(0.495258 0.000576274 0)
(0.494671 0.000556912 0)
(0.494106 0.00053855 0)
(0.493554 0.000523802 0)
(0.493034 0.000508263 0)
(0.492489 0.000507201 0)
(0.492062 0.000497402 0)
(0.491363 0.000546628 0)
(0.628025 0.00141818 0)
(0.626956 0.00136446 0)
(0.625928 0.00131297 0)
(0.624939 0.00126361 0)
(0.623988 0.00121628 0)
(0.623073 0.00117089 0)
(0.622192 0.00112739 0)
(0.621344 0.00108567 0)
(0.620528 0.00104576 0)
(0.619742 0.0010075 0)
(0.618985 0.000971061 0)
(0.618256 0.000936263 0)
(0.617553 0.000903374 0)
(0.616874 0.000872499 0)
(0.616223 0.000843522 0)
(0.615584 0.000818695 0)
(0.614989 0.000794483 0)
(0.614357 0.000783988 0)
(0.613882 0.000769152 0)
(0.613083 0.000796055 0)
(0.7426 0.0019933 0)
(0.741445 0.0019175 0)
(0.740334 0.00184488 0)
(0.739266 0.00177526 0)
(0.738239 0.00170852 0)
(0.73725 0.00164452 0)
(0.736299 0.00158319 0)
(0.735384 0.00152437 0)
(0.734503 0.0014681 0)
(0.733655 0.00141414 0)
(0.732839 0.00136275 0)
(0.732052 0.00131357 0)
(0.731295 0.00126717 0)
(0.730564 0.00122316 0)
(0.729863 0.00118231 0)
(0.729175 0.00114536 0)
(0.728539 0.00111166 0)
(0.727856 0.00108767 0)
(0.727361 0.00106785 0)
(0.7265 0.00106662 0)
(0.847904 0.00259621 0)
(0.846729 0.00249717 0)
(0.8456 0.00240228 0)
(0.844513 0.00231133 0)
(0.843468 0.00222416 0)
(0.842463 0.00214055 0)
(0.841497 0.00206046 0)
(0.840567 0.00198362 0)
(0.839672 0.00191013 0)
(0.83881 0.00183961 0)
(0.837981 0.0017725 0)
(0.837182 0.00170809 0)
(0.836414 0.00164748 0)
(0.835671 0.00158939 0)
(0.834962 0.00153615 0)
(0.834263 0.00148555 0)
(0.833623 0.00144237 0)
(0.832926 0.00140181 0)
(0.83244 0.00137787 0)
(0.831562 0.00134627 0)
(0.943863 0.00319213 0)
(0.942737 0.00307003 0)
(0.941655 0.00295306 0)
(0.940615 0.00284094 0)
(0.939614 0.00273349 0)
(0.938652 0.00263044 0)
(0.937727 0.00253172 0)
(0.936837 0.002437 0)
(0.93598 0.00234643 0)
(0.935156 0.00225945 0)
(0.934363 0.00217673 0)
(0.933599 0.00209711 0)
(0.932865 0.00202247 0)
(0.932155 0.00195008 0)
(0.931478 0.00188478 0)
(0.93081 0.00181974 0)
(0.930204 0.00176779 0)
(0.929534 0.00170887 0)
(0.929082 0.00168199 0)
(0.928239 0.00162045 0)
(1.03046 0.00374482 0)
(1.02946 0.00360129 0)
(1.02849 0.00346378 0)
(1.02756 0.00333197 0)
(1.02667 0.00320566 0)
(1.02581 0.00308451 0)
(1.02498 0.00296847 0)
(1.02419 0.00285708 0)
(1.02342 0.00275062 0)
(1.02269 0.00264827 0)
(1.02198 0.00255107 0)
(1.0213 0.00245716 0)
(1.02064 0.00236954 0)
(1.02001 0.00228351 0)
(1.01941 0.00220725 0)
(1.01881 0.00212787 0)
(1.01828 0.00206848 0)
(1.01768 0.00199089 0)
(1.01728 0.00196224 0)
(1.01653 0.00187319 0)
(1.10777 0.00421829 0)
(1.10695 0.00405639 0)
(1.10617 0.00390128 0)
(1.10541 0.00375258 0)
(1.10469 0.00361007 0)
(1.10399 0.00347337 0)
(1.10332 0.00334244 0)
(1.10267 0.00321672 0)
(1.10205 0.0030966 0)
(1.10146 0.00298099 0)
(1.10088 0.00287135 0)
(1.10033 0.00276503 0)
(1.0998 0.00266635 0)
(1.09929 0.00256821 0)
(1.0988 0.00248286 0)
(1.09831 0.00239027 0)
(1.09788 0.0023252 0)
(1.0974 0.00223015 0)
(1.09708 0.00220075 0)
(1.09647 0.00208815 0)
(1.17596 0.00457865 0)
(1.17539 0.00440281 0)
(1.17485 0.0042343 0)
(1.17432 0.00407273 0)
(1.17382 0.00391789 0)
(1.17334 0.00376931 0)
(1.17287 0.00362702 0)
(1.17243 0.00349033 0)
(1.172 0.00335978 0)
(1.17158 0.00323398 0)
(1.17118 0.00311486 0)
(1.1708 0.00299889 0)
(1.17043 0.00289188 0)
(1.17008 0.00278407 0)
(1.16974 0.00269212 0)
(1.16941 0.0025885 0)
(1.16911 0.00251982 0)
(1.16878 0.00241 0)
(1.16857 0.00238073 0)
(1.16815 0.0022497 0)
(1.23529 0.00479617 0)
(1.23503 0.00461196 0)
(1.23477 0.0044354 0)
(1.23453 0.00426607 0)
(1.2343 0.00410376 0)
(1.23407 0.00394799 0)
(1.23385 0.00379881 0)
(1.23365 0.00365542 0)
(1.23345 0.00351855 0)
(1.23326 0.00338646 0)
(1.23307 0.00326163 0)
(1.2329 0.00313958 0)
(1.23272 0.00302765 0)
(1.23256 0.00291345 0)
(1.2324 0.00281791 0)
(1.23226 0.00270645 0)
(1.23212 0.00263641 0)
(1.23197 0.00251579 0)
(1.23187 0.00248741 0)
(1.23169 0.00234392 0)
(1.28613 0.00484731 0)
(1.28621 0.00466122 0)
(1.28628 0.00448281 0)
(1.28636 0.00431167 0)
(1.28642 0.0041476 0)
(1.28649 0.00399008 0)
(1.28656 0.00383922 0)
(1.28662 0.00369416 0)
(1.28668 0.00355574 0)
(1.28674 0.00342197 0)
(1.28679 0.00329579 0)
(1.28685 0.00317189 0)
(1.2869 0.00305899 0)
(1.28695 0.00294238 0)
(1.287 0.0028466 0)
(1.28706 0.00273138 0)
(1.28709 0.00266231 0)
(1.28716 0.0025359 0)
(1.28718 0.00250907 0)
(1.28728 0.00235972 0)
(1.32894 0.00471663 0)
(1.32938 0.00453572 0)
(1.3298 0.00436223 0)
(1.33021 0.00419575 0)
(1.3306 0.00403612 0)
(1.33097 0.00388282 0)
(1.33133 0.003736 0)
(1.33168 0.00359472 0)
(1.33202 0.00345999 0)
(1.33234 0.0033296 0)
(1.33265 0.00320683 0)
(1.33295 0.0030858 0)
(1.33324 0.00297616 0)
(1.33352 0.00286165 0)
(1.33378 0.00276918 0)
(1.33406 0.0026549 0)
(1.33428 0.00258916 0)
(1.33458 0.00246267 0)
(1.33473 0.00243799 0)
(1.33512 0.00228972 0)
(1.36421 0.00439828 0)
(1.36502 0.00422979 0)
(1.36579 0.00406815 0)
(1.36653 0.00391299 0)
(1.36725 0.00376419 0)
(1.36793 0.00362124 0)
(1.3686 0.00348433 0)
(1.36923 0.00335251 0)
(1.36984 0.00322686 0)
(1.37043 0.00310508 0)
(1.371 0.00299064 0)
(1.37155 0.00287737 0)
(1.37207 0.00277535 0)
(1.37259 0.00266771 0)
(1.37306 0.00258209 0)
(1.37356 0.00247383 0)
(1.37396 0.00241368 0)
(1.3745 0.00229317 0)
(1.37477 0.00227121 0)
(1.37545 0.00213098 0)
(1.39251 0.00389684 0)
(1.39366 0.00374776 0)
(1.39476 0.0036047 0)
(1.39583 0.00346733 0)
(1.39685 0.00333555 0)
(1.39783 0.00320893 0)
(1.39877 0.00308765 0)
(1.39968 0.00297082 0)
(1.40055 0.00285949 0)
(1.4014 0.00275146 0)
(1.4022 0.0026501 0)
(1.40299 0.00254945 0)
(1.40373 0.00245924 0)
(1.40447 0.00236323 0)
(1.40514 0.00228784 0)
(1.40586 0.00219068 0)
(1.40643 0.00213822 0)
(1.4072 0.00202969 0)
(1.40758 0.00201096 0)
(1.40854 0.00188547 0)
(1.41437 0.00322751 0)
(1.41582 0.0031042 0)
(1.41722 0.00298585 0)
(1.41856 0.00287215 0)
(1.41985 0.00276307 0)
(1.42109 0.00265822 0)
(1.42229 0.0025578 0)
(1.42344 0.00246102 0)
(1.42455 0.00236882 0)
(1.42561 0.00227926 0)
(1.42663 0.00219535 0)
(1.42763 0.00211177 0)
(1.42857 0.00203719 0)
(1.42951 0.00195725 0)
(1.43035 0.00189513 0)
(1.43126 0.00181385 0)
(1.43198 0.00177093 0)
(1.43295 0.00167994 0)
(1.43343 0.00166489 0)
(1.43464 0.00156022 0)
(1.43027 0.00241553 0)
(1.43197 0.00232335 0)
(1.4336 0.00223486 0)
(1.43517 0.00214983 0)
(1.43668 0.00206822 0)
(1.43814 0.00198977 0)
(1.43954 0.00191465 0)
(1.44088 0.00184221 0)
(1.44218 0.00177321 0)
(1.44343 0.00170614 0)
(1.44462 0.00164336 0)
(1.44579 0.00158069 0)
(1.44688 0.00152495 0)
(1.44798 0.00146488 0)
(1.44897 0.00141858 0)
(1.45004 0.0013573 0)
(1.45088 0.00132547 0)
(1.45201 0.00125678 0)
(1.45257 0.00124577 0)
(1.45398 0.00116706 0)
(1.44063 0.00149482 0)
(1.4425 0.00143783 0)
(1.4443 0.0013831 0)
(1.44603 0.00133052 0)
(1.4477 0.00128004 0)
(1.4493 0.0012315 0)
(1.45084 0.00118502 0)
(1.45233 0.0011402 0)
(1.45375 0.00109751 0)
(1.45513 0.00105598 0)
(1.45645 0.00101715 0)
(1.45773 0.000978324 0)
(1.45894 0.000943856 0)
(1.46015 0.000906582 0)
(1.46124 0.000878015 0)
(1.46242 0.00083992 0)
(1.46335 0.000820343 0)
(1.46458 0.00077759 0)
(1.46521 0.000770876 0)
(1.46676 0.000722028 0)
(1.44573 0.000506066 0)
(1.44769 0.00048676 0)
(1.44958 0.000468216 0)
(1.45139 0.000450442 0)
(1.45314 0.000433401 0)
(1.45482 0.000416965 0)
(1.45643 0.000401205 0)
(1.45799 0.000386035 0)
(1.45948 0.000371605 0)
(1.46093 0.000357548 0)
(1.46231 0.00034441 0)
(1.46365 0.000331276 0)
(1.46492 0.000319608 0)
(1.46619 0.000306944 0)
(1.46733 0.000297293 0)
(1.46856 0.000284417 0)
(1.46954 0.000277835 0)
(1.47083 0.000263287 0)
(1.47149 0.000261006 0)
(1.47312 0.000244473 0)
)
;

boundaryField
{
    fixedWalls
    {
        type            noSlip;
    }
    inlet
    {
        type            fixedValue;
        value           nonuniform 0();
    }
    outlet
    {
        type            zeroGradient;
    }
    frontAndBack
    {
        type            empty;
    }
    procBoundary3to2
    {
        type            processor;
        value           nonuniform List<vector> 
20
(
(0.0797222 2.99788e-05 0)
(0.230422 0.000180183 0)
(0.372305 0.000495023 0)
(0.505256 0.000938211 0)
(0.629136 0.00147425 0)
(0.743801 0.00207241 0)
(0.849127 0.00269961 0)
(0.945034 0.00331961 0)
(1.03151 0.00389466 0)
(1.10862 0.00438728 0)
(1.17655 0.00476218 0)
(1.23556 0.00498837 0)
(1.28605 0.00504139 0)
(1.32848 0.00490524 0)
(1.36338 0.00457388 0)
(1.39132 0.00405216 0)
(1.41286 0.00335596 0)
(1.4285 0.00251153 0)
(1.43868 0.00155417 0)
(1.44369 0.000526111 0)
)
;
    }
    procBoundary3to7
    {
        type            processor;
        value           nonuniform List<vector> 
20
(
(1.44573 -0.000505894 0)
(1.44769 -0.000486624 0)
(1.44958 -0.000468131 0)
(1.45139 -0.000450315 0)
(1.45314 -0.000433191 0)
(1.45482 -0.000416762 0)
(1.45643 -0.000401051 0)
(1.45799 -0.000385872 0)
(1.45948 -0.000371404 0)
(1.46093 -0.000357339 0)
(1.46231 -0.000344188 0)
(1.46365 -0.000331017 0)
(1.46492 -0.000319355 0)
(1.46619 -0.000306742 0)
(1.46733 -0.000297078 0)
(1.46856 -0.000284102 0)
(1.46954 -0.000277466 0)
(1.47084 -0.000262978 0)
(1.47149 -0.000260737 0)
(1.47312 -0.000244146 0)
)
;
    }
}


// ************************************************************************* //
