/*--------------------------------*- C++ -*----------------------------------*\
| =========                 |                                                 |
| \\      /  F ield         | OpenFOAM: The Open Source CFD Toolbox           |
|  \\    /   O peration     | Version:                                        |
|   \\  /    A nd           | Website:  www.openfoam.com                      |
|    \\/     M anipulation  |                                                 |
\*---------------------------------------------------------------------------*/
FoamFile
{
    version     2.0;
    format      ascii;
    class       volVectorField;
    location    "91";
    object      U;
}
// * * * * * * * * * * * * * * * * * * * * * * * * * * * * * * * * * * * * * //

dimensions      [0 1 -1 0 0 0 0];


internalField   nonuniform List<vector> 
1139
(
(1.43925 0.437547 1.71936e-19)
(1.39487 0.428944 -2.92994e-19)
(1.34175 0.41904 4.50114e-20)
(1.36268 0.365286 1.95485e-19)
(1.29934 0.412415 4.0348e-22)
(1.32872 0.35836 -4.12934e-20)
(1.26354 0.402861 -3.9483e-20)
(1.28176 0.349463 -8.93362e-20)
(1.28688 0.293351 -1.1166e-19)
(1.22098 0.396568 -6.46381e-20)
(1.24315 0.337948 1.78799e-19)
(1.25164 0.286409 1.89212e-19)
(1.18234 0.372262 5.73763e-20)
(1.20765 0.333922 -1.41606e-20)
(1.22395 0.277131 -1.97762e-19)
(1.14606 0.381657 3.13677e-20)
(1.16736 0.302191 -6.04175e-20)
(1.19494 0.273743 7.56163e-20)
(1.20811 0.219936 1.49366e-19)
(1.11744 0.337024 4.33149e-20)
(1.14002 0.30227 -1.7484e-19)
(1.16941 0.253773 -2.77842e-20)
(1.18079 0.212897 -6.10636e-20)
(1.05959 0.365743 7.05524e-20)
(1.11012 0.282134 1.3048e-19)
(1.12876 0.246461 6.51527e-21)
(1.14974 0.208931 -4.14032e-20)
(0.226092 -0.97868 -4.44954e-20)
(0.257058 -0.855552 5.14264e-20)
(0.303267 -0.822082 3.85912e-20)
(0.32704 -0.767293 -2.40911e-19)
(0.296997 -0.690735 -6.01106e-20)
(0.154198 -0.602241 -5.47009e-20)
(0.285604 -0.674943 -5.10588e-22)
(0.364595 -0.650054 -8.56844e-21)
(0.385142 -0.617688 7.81939e-20)
(0.340308 -0.558376 1.74222e-19)
(0.307887 -0.420691 3.81999e-19)
(0.119619 -0.309357 3.46893e-19)
(0.313763 -0.462421 -2.25063e-20)
(0.408635 -0.443434 1.68117e-19)
(0.473822 -0.397276 1.3511e-19)
(0.501527 -0.318249 -1.5161e-19)
(0.385615 -0.249101 -5.29095e-19)
(0.293818 -0.109792 -1.30462e-21)
(0.631507 0.192614 -2.65342e-19)
(0.378025 -0.207595 3.33188e-20)
(0.511175 -0.166844 -1.19866e-19)
(0.5856 -0.131623 -6.0401e-20)
(0.548728 -0.109359 -5.19159e-20)
(0.507618 -0.0247656 6.16016e-19)
(0.738494 0.220071 -1.45262e-19)
(1.1014 0.446351 -7.48217e-20)
(1.32784 0.519017 -7.38609e-20)
(0.41461 0.0205385 2.26399e-20)
(0.535507 0.0650772 -4.93014e-20)
(0.606667 0.0828378 -1.17766e-19)
(0.672988 0.142703 2.90866e-20)
(0.86313 0.314437 -1.21154e-20)
(1.14917 0.514692 -9.3889e-20)
(1.35104 0.60006 -6.28374e-19)
(1.43951 0.59366 -3.22607e-19)
(1.4944 0.566022 -7.97763e-20)
(0.439764 0.228217 -5.82915e-20)
(0.596627 0.303957 7.23602e-21)
(0.757232 0.367142 1.71508e-19)
(0.954809 0.494991 1.09586e-19)
(1.18374 0.631213 -4.11578e-19)
(1.35654 0.700921 2.71793e-19)
(1.42775 0.682396 1.15403e-19)
(1.45975 0.638378 5.30096e-19)
(1.47613 0.581477 2.77699e-19)
(1.47941 0.505032 1.02304e-19)
(0.551638 0.532421 4.24187e-20)
(0.756478 0.6487 1.03103e-19)
(0.971055 0.7207 -3.5944e-20)
(1.17502 0.81048 -2.08051e-19)
(1.32577 0.827317 2.09913e-19)
(1.39413 0.797296 -1.66778e-20)
(1.41271 0.728237 -1.32039e-19)
(1.43077 0.661045 2.57394e-19)
(1.43625 0.582277 -3.91734e-19)
(1.434 0.505576 1.21484e-19)
(0.668693 0.884084 -4.7497e-20)
(0.893473 0.980052 -4.40538e-20)
(1.09437 0.988169 -2.47232e-19)
(1.24118 0.991471 -1.50027e-20)
(1.31866 0.91734 -3.86333e-20)
(1.34907 0.847012 2.55122e-19)
(1.36799 0.746069 -1.72316e-19)
(1.37716 0.664585 1.57423e-19)
(1.38525 0.577726 2.78516e-20)
(1.38483 0.50978 -3.6841e-19)
(0.743909 1.14665 -3.67219e-20)
(0.941615 1.18147 1.61492e-19)
(1.09548 1.11967 2.75824e-19)
(1.19995 1.06783 2.5539e-19)
(1.26022 0.947743 1.16579e-19)
(1.28844 0.862226 -4.51132e-19)
(1.30307 0.735035 3.80895e-19)
(1.30926 0.667964 -2.72567e-20)
(1.33812 0.574252 -1.04302e-19)
(1.34224 0.503887 2.43278e-19)
(0.739209 1.26297 3.06604e-20)
(0.903675 1.24989 -3.09521e-20)
(1.04027 1.14831 -1.3174e-20)
(1.13637 1.0771 7.69382e-20)
(1.18586 0.938641 -1.26515e-19)
(1.20118 0.852868 1.61139e-19)
(1.22845 0.727123 -1.00777e-19)
(1.26478 0.661294 7.10993e-20)
(1.28902 0.562256 -2.00034e-20)
(1.28722 0.497796 -7.74608e-20)
(0.711996 1.27756 3.08014e-20)
(0.861588 1.24502 -1.03259e-20)
(0.981584 1.13784 -9.47888e-20)
(1.06126 1.0544 2.67967e-20)
(1.10161 0.923541 -8.59919e-20)
(1.13389 0.830929 1.88677e-19)
(1.17918 0.71456 -2.5026e-19)
(1.21492 0.644983 1.60249e-19)
(1.2291 0.552385 1.26731e-19)
(1.24273 0.488136 1.3682e-19)
(0.687364 1.24833 -2.24074e-20)
(0.823041 1.19653 6.30003e-20)
(0.92529 1.10059 -2.22488e-20)
(0.988647 1.00168 -8.70335e-20)
(1.02647 0.892772 -1.90999e-19)
(1.06565 0.805274 3.95306e-21)
(1.11341 0.696554 3.11936e-20)
(1.15546 0.624542 -1.71717e-20)
(1.18349 0.544447 -5.2024e-20)
(1.19628 0.469603 -7.23469e-20)
(0.643776 1.2099 -1.34951e-20)
(0.757035 1.13146 1.89642e-19)
(0.849244 1.06254 -4.02357e-21)
(0.908676 0.97671 -1.09279e-19)
(0.9542 0.873356 1.02267e-19)
(1.00696 0.782408 1.12248e-19)
(1.07365 0.692168 2.36444e-19)
(1.11589 0.595937 -2.96028e-19)
(1.13054 0.520531 -1.68699e-19)
(1.16303 0.464174 1.33681e-19)
(0.623528 1.15963 -4.07493e-20)
(0.719633 1.07439 -1.48273e-20)
(0.818305 0.998869 -2.21068e-19)
(0.866914 0.920019 -4.0558e-20)
(0.910651 0.848223 3.36798e-20)
(0.966039 0.742705 -1.32756e-19)
(1.00817 0.639872 -1.91299e-19)
(1.05436 0.57049 1.29204e-19)
(1.08338 0.495146 2.47698e-19)
(1.12072 0.445909 -1.54186e-19)
(0.545434 1.13754 6.10067e-22)
(0.65488 1.08506 -2.89272e-20)
(0.748018 0.99658 1.69421e-19)
(0.794926 0.881941 1.38694e-19)
(0.832106 0.807007 1.13369e-19)
(0.88159 0.743942 -6.93284e-20)
(0.939647 0.643897 8.74415e-20)
(1.01357 0.540883 4.48425e-20)
(1.0586 0.501857 -2.34635e-19)
(1.09013 0.427573 -8.31917e-20)
(0.593126 1.11272 1.49698e-20)
(0.649572 1.04219 -6.60115e-21)
(0.698066 0.938539 1.04256e-20)
(0.748716 0.849507 -1.14226e-19)
(0.799519 0.751337 -2.64871e-19)
(0.864721 0.655683 1.15171e-19)
(0.917253 0.595467 2.75646e-21)
(0.988438 0.513228 -4.17603e-20)
(1.03463 0.421504 1.92515e-19)
(1.04652 0.403177 -2.82688e-20)
(0.479219 1.16845 -1.74886e-20)
(0.512357 1.03718 9.98241e-21)
(0.57216 0.914467 -1.13712e-20)
(0.647737 0.81949 8.26242e-20)
(0.684563 0.750612 1.80524e-19)
(0.752476 0.673852 -1.21083e-19)
(0.829789 0.583722 8.75853e-21)
(0.906275 0.521492 9.62739e-20)
(0.957299 0.465856 -3.08023e-20)
(0.986496 0.394878 -1.80762e-21)
(0.434622 1.20955 4.15325e-21)
(0.411484 1.07842 2.61076e-20)
(0.443541 0.960874 -1.11507e-20)
(0.540141 0.817039 -3.93018e-20)
(0.613451 0.690976 -6.79579e-21)
(0.674039 0.625703 3.16273e-20)
(0.739792 0.57823 3.62695e-20)
(0.830471 0.490337 -4.27388e-20)
(0.903759 0.450811 -4.90978e-20)
(0.951502 0.398603 -2.30736e-21)
(0.346999 1.07622 1.16497e-20)
(0.278261 1.0033 4.52261e-21)
(0.29545 0.929739 -1.51693e-20)
(0.380049 0.831126 -5.14803e-20)
(0.488746 0.687896 -1.35e-19)
(0.59166 0.565251 -3.81838e-20)
(0.672153 0.519152 4.34197e-20)
(0.756482 0.481537 -3.03866e-20)
(0.835955 0.419415 1.33691e-21)
(0.909773 0.38424 -2.99343e-20)
(0.37706 0.643319 -2.57862e-20)
(0.23603 0.652717 -3.16447e-20)
(0.19188 0.665794 -6.43192e-20)
(0.235372 0.685661 3.51434e-20)
(0.344392 0.643195 9.0897e-20)
(0.473896 0.549471 1.5373e-20)
(0.590172 0.452888 -1.53029e-20)
(0.685987 0.423434 3.50754e-20)
(0.749638 0.389311 -5.91057e-21)
(0.838983 0.370623 3.62091e-20)
(0.432209 0.0737246 1.97788e-20)
(0.237564 0.159641 -2.59816e-20)
(0.158021 0.255771 7.04149e-20)
(0.185967 0.36235 -3.50375e-20)
(0.25767 0.441803 5.76144e-21)
(0.351805 0.469517 4.37579e-20)
(0.474491 0.41603 -2.78802e-20)
(0.604125 0.358492 -1.67104e-20)
(0.683577 0.320981 1.34851e-22)
(0.76945 0.341299 1.8468e-20)
(0.47756 -0.448146 -6.11947e-21)
(0.31388 -0.329449 1.24088e-20)
(0.222456 -0.189815 1.22186e-20)
(0.202703 -0.0270243 4.77713e-20)
(0.241725 0.122063 -2.54397e-20)
(0.300302 0.242402 -2.49724e-20)
(0.377378 0.302193 -1.31663e-20)
(0.491492 0.294386 2.20192e-21)
(0.609731 0.255535 6.22742e-21)
(0.713192 0.274032 -1.38285e-20)
(0.542177 -0.795735 -3.81354e-21)
(0.397056 -0.668076 8.43343e-21)
(0.321392 -0.527944 -3.94014e-20)
(0.298231 -0.377412 -3.55028e-20)
(0.295462 -0.204918 -1.97598e-21)
(0.301316 -0.052421 1.07492e-20)
(0.336102 0.0869257 6.97148e-21)
(0.404903 0.167141 2.82916e-21)
(0.529972 0.187888 4.39805e-22)
(0.649084 0.216754 3.0595e-22)
(0.618751 -0.962025 6.79235e-21)
(0.511039 -0.87213 -2.38799e-20)
(0.433576 -0.749364 4.06523e-21)
(0.394568 -0.614534 1.15034e-21)
(0.387326 -0.457205 8.30868e-21)
(0.388688 -0.311825 -2.91413e-20)
(0.389739 -0.148809 2.17838e-21)
(0.396352 -0.0174033 2.98554e-21)
(0.482392 0.0538647 -1.01831e-20)
(0.584342 0.152456 3.00266e-23)
(0.671755 -0.993568 -3.37393e-21)
(0.605794 -0.939324 2.6183e-20)
(0.553941 -0.853039 -7.42872e-21)
(0.514995 -0.741784 3.34245e-20)
(0.482321 -0.609944 3.10802e-20)
(0.464386 -0.480337 3.83899e-20)
(0.453028 -0.355416 2.98605e-22)
(0.443426 -0.206633 -2.5941e-22)
(0.475708 -0.134582 1.75098e-20)
(0.562523 0.0136601 8.32483e-21)
(0.726207 -0.945128 8.6739e-21)
(0.686124 -0.916926 1.49615e-20)
(0.659432 -0.850843 5.79169e-21)
(0.639454 -0.759436 -8.68877e-21)
(0.612054 -0.659173 -1.69187e-20)
(0.589555 -0.538956 -1.14103e-20)
(0.558504 -0.460472 8.70609e-22)
(0.532868 -0.317196 1.63387e-21)
(0.513582 -0.269994 -8.01644e-21)
(0.584818 -0.124448 -1.20489e-20)
(0.757676 -0.928904 -1.012e-21)
(0.749976 -0.922964 -4.04901e-21)
(0.739416 -0.888138 3.1155e-20)
(0.721838 -0.798984 1.73775e-20)
(0.700211 -0.697528 -1.46975e-20)
(0.67334 -0.568215 1.8103e-20)
(0.652898 -0.506648 -1.38959e-21)
(0.61818 -0.391235 2.37061e-21)
(0.597097 -0.361224 9.42141e-23)
(0.639579 -0.259614 5.24437e-21)
(0.751491 -0.941045 -9.16694e-23)
(0.78735 -0.94844 -2.56145e-20)
(0.820786 -0.93759 -2.50592e-21)
(0.853382 -0.853825 -1.05551e-20)
(0.844447 -0.755887 3.27501e-21)
(0.796447 -0.597763 -3.99841e-20)
(0.75803 -0.502636 2.05114e-20)
(0.693743 -0.398662 6.32898e-22)
(0.675208 -0.350984 2.19533e-22)
(0.673443 -0.309427 4.0611e-21)
(0.728312 -1.00353 -4.07931e-21)
(0.783783 -1.02726 -5.99376e-21)
(0.846299 -1.02346 1.66579e-20)
(0.920104 -0.950986 2.87151e-20)
(0.956176 -0.855296 -3.74038e-20)
(0.949055 -0.681622 2.01105e-20)
(0.894134 -0.538146 -3.2606e-21)
(0.819258 -0.401346 -5.97025e-21)
(0.801619 -0.292571 5.56912e-21)
(0.746799 -0.277073 -3.38424e-21)
(0.695905 -1.00538 -4.1258e-21)
(0.802463 -1.04191 5.17996e-20)
(0.918265 -1.08545 -2.96132e-20)
(1.01077 -1.03842 -5.85957e-20)
(1.0887 -0.968469 -4.1359e-20)
(1.10047 -0.809025 4.0792e-20)
(1.0489 -0.64068 -1.93197e-20)
(0.984482 -0.453272 -1.52114e-20)
(0.917886 -0.281936 -1.68646e-20)
(0.826087 -0.223115 -9.93761e-22)
(0.596902 -0.94265 3.72568e-21)
(0.733954 -0.988731 -4.5342e-20)
(0.902453 -1.05402 2.6551e-20)
(1.05513 -1.0485 -3.66132e-20)
(1.2031 -1.0199 5.78726e-20)
(1.25267 -0.933533 1.48748e-20)
(1.26436 -0.780875 7.14904e-20)
(1.16953 -0.623512 1.22e-20)
(1.07753 -0.412478 2.01686e-20)
(0.94732 -0.258534 1.40721e-20)
(0.581161 -0.684291 6.92177e-22)
(0.746291 -0.735726 2.56367e-20)
(0.930162 -0.803993 -4.7225e-20)
(1.10718 -0.873741 8.66667e-20)
(1.24815 -0.878187 -2.95188e-20)
(1.35265 -0.909931 -7.44139e-20)
(1.3907 -0.814254 -8.63216e-21)
(1.30701 -0.763219 -3.93815e-20)
(1.27736 -0.590801 -1.16081e-20)
(1.08714 -0.442929 -1.32323e-20)
(0.505972 -0.268688 1.03104e-21)
(0.719905 -0.294467 4.09377e-21)
(0.948463 -0.366631 -6.4348e-20)
(1.15155 -0.456483 -2.02473e-20)
(1.3049 -0.529256 7.27181e-20)
(1.44824 -0.625395 -2.15563e-20)
(1.47204 -0.633579 -4.47198e-20)
(1.46876 -0.650818 3.38108e-20)
(1.4 -0.61267 -1.65941e-20)
(1.2201 -0.540326 -1.7629e-20)
(0.527299 0.239008 4.85979e-21)
(0.713387 0.241499 -4.27482e-20)
(0.926374 0.170702 6.57718e-20)
(1.13125 0.0989875 1.76568e-20)
(1.3151 -0.0398048 2.1428e-20)
(1.48041 -0.151597 -3.29771e-20)
(1.53344 -0.293089 -1.03735e-19)
(1.55214 -0.349804 3.23521e-21)
(1.52294 -0.468595 4.88161e-20)
(1.4076 -0.456467 1.65697e-20)
(0.530471 0.618443 -8.39965e-21)
(0.705771 0.66529 5.53162e-20)
(0.914524 0.624877 4.79338e-20)
(1.10599 0.582839 -7.16339e-20)
(1.27382 0.446223 -8.37771e-20)
(1.42433 0.332611 1.56081e-20)
(1.49 0.125413 5.14286e-20)
(1.52124 0.0217996 -2.12167e-22)
(1.58119 -0.170206 4.12596e-21)
(1.42599 -0.255285 1.47154e-20)
(0.586688 0.817484 3.25712e-21)
(0.699337 0.865906 -2.19586e-20)
(0.83655 0.848826 -2.4616e-20)
(0.997373 0.819814 2.11036e-20)
(1.15677 0.724841 6.3065e-20)
(1.29697 0.63372 1.33853e-19)
(1.38824 0.454584 1.09532e-19)
(1.43681 0.357547 1.033e-20)
(1.49622 0.179274 -3.90215e-20)
(1.37646 0.0180957 -2.92893e-20)
(1.23213 0.602346 -4.80157e-20)
(1.30375 0.509172 -1.74937e-21)
(1.37363 0.373243 3.51447e-20)
(1.34234 0.24093 -3.88096e-21)
(1.01972 0.350233 0)
(1.02478 0.287587 0)
(1.02066 0.245226 0)
(1.01476 0.2044 0)
(1.00931 0.170152 0)
(1.00746 0.136847 0)
(1.00725 0.108642 0)
(1.00638 0.0856835 0)
(1.00766 0.0665998 0)
(1.00976 0.050677 0)
(1.01173 0.0366842 0)
(1.01367 0.0256227 0)
(1.01458 0.0169029 0)
(1.01575 0.0101847 0)
(1.01689 0.00517232 0)
(1.01766 0.00238595 0)
(1.0185 0.000376251 0)
(1.01775 -0.000451515 0)
(1.01805 -0.00111668 0)
(1.0182 -0.00190493 0)
(1.01755 -0.0023407 0)
(1.01717 -0.0026349 0)
(1.01671 -0.00282825 0)
(1.01612 -0.00278378 0)
(1.01558 -0.0025474 0)
(1.01512 -0.00216245 0)
(1.01461 -0.00180398 0)
(1.01423 -0.00118973 0)
(1.01399 -0.000710119 0)
(1.01376 -0.000360024 0)
(0.999636 0.335355 0)
(0.993445 0.284639 0)
(1.00497 0.236913 0)
(1.00283 0.197749 0)
(1.00396 0.161114 0)
(1.00342 0.127685 0)
(1.00086 0.100843 0)
(1.00143 0.0793971 0)
(1.00409 0.0608413 0)
(1.00772 0.0444037 0)
(1.01081 0.0312955 0)
(1.01531 0.0195561 0)
(1.01796 0.0113805 0)
(1.02041 0.00536133 0)
(1.02092 0.00133388 0)
(1.02165 -0.00113405 0)
(1.02094 -0.00248487 0)
(1.0197 -0.0031428 0)
(1.01974 -0.00348316 0)
(1.01946 -0.00364543 0)
(1.01893 -0.00351032 0)
(1.01853 -0.00337175 0)
(1.01792 -0.00315571 0)
(1.0172 -0.00284914 0)
(1.01651 -0.00252047 0)
(1.01585 -0.00213233 0)
(1.01519 -0.00180428 0)
(1.01472 -0.00121349 0)
(1.01442 -0.000720918 0)
(1.01417 -0.000358428 0)
(0.961044 0.302505 0)
(0.957828 0.274589 0)
(0.966796 0.231235 0)
(0.967969 0.197063 0)
(0.973582 0.161799 0)
(0.981266 0.127164 0)
(0.988746 0.0999979 0)
(0.99383 0.0782618 0)
(0.999372 0.0603837 0)
(1.00371 0.0471201 0)
(1.00826 0.0346414 0)
(1.0122 0.0245977 0)
(1.01557 0.0165689 0)
(1.01785 0.0102389 0)
(1.02013 0.00504462 0)
(1.02169 0.00194588 0)
(1.02151 0.000340473 0)
(1.02139 -0.000517888 0)
(1.02128 -0.00118853 0)
(1.02049 -0.00162622 0)
(1.01974 -0.00201497 0)
(1.01896 -0.00234047 0)
(1.01807 -0.00251288 0)
(1.01721 -0.00250514 0)
(1.01643 -0.00232019 0)
(1.01571 -0.00196486 0)
(1.01503 -0.00165482 0)
(1.0145 -0.00111232 0)
(1.01416 -0.000662737 0)
(1.01389 -0.000335161 0)
(0.904347 0.26908 0)
(0.913468 0.251238 0)
(0.928671 0.205384 0)
(0.940533 0.171528 0)
(0.950431 0.139252 0)
(0.959839 0.112218 0)
(0.968149 0.0894558 0)
(0.979602 0.0689837 0)
(0.989753 0.0523505 0)
(0.996978 0.0383134 0)
(1.00355 0.0269804 0)
(1.0101 0.0166814 0)
(1.0147 0.00994955 0)
(1.01844 0.00485435 0)
(1.02125 0.00121094 0)
(1.02217 -0.000843519 0)
(1.02196 -0.0019771 0)
(1.02172 -0.00286298 0)
(1.02118 -0.00310849 0)
(1.02062 -0.00318925 0)
(1.02019 -0.00313933 0)
(1.01955 -0.00300337 0)
(1.01878 -0.00278853 0)
(1.01796 -0.00253021 0)
(1.01713 -0.00226177 0)
(1.01631 -0.00192142 0)
(1.01558 -0.00164996 0)
(1.01499 -0.00112713 0)
(1.01463 -0.000665889 0)
(1.01435 -0.000330644 0)
(0.846393 0.250637 0)
(0.856648 0.233585 0)
(0.884345 0.187785 0)
(0.900758 0.158203 0)
(0.919098 0.127999 0)
(0.935784 0.0991674 0)
(0.952484 0.0764756 0)
(0.966211 0.0594617 0)
(0.977167 0.0463331 0)
(0.987013 0.0372783 0)
(0.996334 0.0284093 0)
(1.00332 0.0214025 0)
(1.00998 0.0152546 0)
(1.01493 0.00948795 0)
(1.01902 0.00476554 0)
(1.02073 0.00206113 0)
(1.0218 0.00022116 0)
(1.02198 -0.000636306 0)
(1.02156 -0.00104171 0)
(1.02092 -0.00137794 0)
(1.02019 -0.00172041 0)
(1.01929 -0.00198857 0)
(1.01837 -0.00216751 0)
(1.01749 -0.00219538 0)
(1.01667 -0.00204761 0)
(1.0159 -0.00173198 0)
(1.01522 -0.00148157 0)
(1.01465 -0.00101335 0)
(1.01428 -0.000606222 0)
(1.01401 -0.000308042 0)
(0.802855 0.205493 0)
(0.801338 0.189126 0)
(0.845986 0.137815 0)
(0.865779 0.118693 0)
(0.886115 0.0974573 0)
(0.90663 0.0797353 0)
(0.929934 0.0628792 0)
(0.9523 0.0463432 0)
(0.969779 0.0342467 0)
(0.981816 0.0243853 0)
(0.990718 0.0171084 0)
(0.999277 0.0107534 0)
(1.00572 0.00643665 0)
(1.0118 0.00308977 0)
(1.01558 0.000975033 0)
(1.01836 -0.000478877 0)
(1.01999 -0.00164407 0)
(1.02026 -0.00233868 0)
(1.02003 -0.00255143 0)
(1.01987 -0.00272851 0)
(1.01957 -0.00272914 0)
(1.0191 -0.00260336 0)
(1.01852 -0.00242806 0)
(1.01784 -0.00221958 0)
(1.0171 -0.00200735 0)
(1.01636 -0.00172299 0)
(1.0157 -0.0015031 0)
(1.01513 -0.00104028 0)
(1.01479 -0.00061418 0)
(1.01454 -0.000304028 0)
(0.76758 0.149465 0)
(0.772952 0.141737 0)
(0.819862 0.100258 0)
(0.850348 0.0838517 0)
(0.877407 0.0617093 0)
(0.899476 0.0481034 0)
(0.91963 0.0371131 0)
(0.939262 0.0307542 0)
(0.956862 0.0248706 0)
(0.972138 0.0212475 0)
(0.98489 0.0180005 0)
(0.994514 0.0149579 0)
(1.00408 0.0115586 0)
(1.01089 0.00761668 0)
(1.01561 0.004236 0)
(1.0186 0.00164991 0)
(1.02022 -0.000176045 0)
(1.02059 -0.000869603 0)
(1.02057 -0.00122337 0)
(1.02023 -0.00145569 0)
(1.01962 -0.00164583 0)
(1.01887 -0.00183388 0)
(1.01808 -0.00198406 0)
(1.01732 -0.00199726 0)
(1.01656 -0.00185449 0)
(1.0159 -0.00156563 0)
(1.01528 -0.00135266 0)
(1.01473 -0.000942681 0)
(1.01438 -0.000570236 0)
(1.01412 -0.000287711 0)
(0.713974 0.109906 0)
(0.75253 0.0877099 0)
(0.792146 0.072602 0)
(0.828234 0.0564689 0)
(0.853702 0.0444549 0)
(0.881091 0.0314987 0)
(0.911488 0.0211689 0)
(0.939833 0.0107027 0)
(0.960827 0.00508442 0)
(0.974755 0.00228303 0)
(0.984465 0.000657543 0)
(0.993308 2.60679e-05 0)
(0.999853 -0.000376943 0)
(1.00605 -0.000312962 0)
(1.01095 -0.00035325 0)
(1.01539 -0.000945529 0)
(1.01805 -0.00155184 0)
(1.01918 -0.001973 0)
(1.01948 -0.00220549 0)
(1.01949 -0.0024025 0)
(1.01928 -0.00242384 0)
(1.01894 -0.00232399 0)
(1.01849 -0.00217833 0)
(1.0179 -0.00199957 0)
(1.0172 -0.00183323 0)
(1.01652 -0.00159736 0)
(1.01588 -0.00140345 0)
(1.01533 -0.000983259 0)
(1.01499 -0.000581709 0)
(1.01474 -0.000283995 0)
(0.678337 0.0325152 0)
(0.730183 0.0087769 0)
(0.779513 0.00611401 0)
(0.82351 -0.00594149 0)
(0.85995 -0.00948315 0)
(0.884142 -0.00597105 0)
(0.905001 -0.00314591 0)
(0.92778 -0.000253361 0)
(0.950263 0.00130838 0)
(0.969643 0.00202448 0)
(0.984611 0.00413869 0)
(0.995059 0.00505218 0)
(1.00517 0.0052738 0)
(1.01184 0.00391859 0)
(1.01637 0.00229304 0)
(1.01903 0.000548443 0)
(1.02029 -0.000834268 0)
(1.02073 -0.00147329 0)
(1.0208 -0.00175945 0)
(1.02049 -0.0018142 0)
(1.0199 -0.00182021 0)
(1.01916 -0.0018987 0)
(1.01837 -0.00197043 0)
(1.01757 -0.0019168 0)
(1.01681 -0.00175107 0)
(1.01613 -0.00146926 0)
(1.01548 -0.00127108 0)
(1.01491 -0.000903494 0)
(1.01452 -0.000552201 0)
(1.01425 -0.000274706 0)
(0.689689 -0.0663122 0)
(0.72021 -0.0721 0)
(0.75914 -0.0590049 0)
(0.801614 -0.0492694 0)
(0.844236 -0.0422867 0)
(0.882635 -0.0401664 0)
(0.916784 -0.0383019 0)
(0.944339 -0.0341568 0)
(0.963162 -0.0299906 0)
(0.977192 -0.0242265 0)
(0.986018 -0.0194819 0)
(0.993642 -0.0135288 0)
(0.99881 -0.0092865 0)
(1.00385 -0.00540594 0)
(1.0089 -0.00315242 0)
(1.01374 -0.00223979 0)
(1.01727 -0.00194814 0)
(1.01913 -0.00197209 0)
(1.01977 -0.00202663 0)
(1.01979 -0.00214887 0)
(1.01958 -0.00217606 0)
(1.01923 -0.00209883 0)
(1.01878 -0.00197127 0)
(1.01815 -0.00182229 0)
(1.01748 -0.00170922 0)
(1.01679 -0.00150667 0)
(1.01614 -0.00132849 0)
(1.01559 -0.000939852 0)
(1.01521 -0.000554554 0)
(1.01496 -0.000268055 0)
(0.72479 -0.208026 0)
(0.761774 -0.198933 0)
(0.806299 -0.159432 0)
(0.851602 -0.128735 0)
(0.872319 -0.0912113 0)
(0.889797 -0.061997 0)
(0.90952 -0.0406266 0)
(0.931967 -0.0295028 0)
(0.957554 -0.0210875 0)
(0.978049 -0.0172412 0)
(0.992535 -0.0108127 0)
(1.00233 -0.00709909 0)
(1.01052 -0.00346616 0)
(1.01591 -0.00195526 0)
(1.01859 -0.00126999 0)
(1.01975 -0.00141827 0)
(1.02024 -0.00202619 0)
(1.02044 -0.00242388 0)
(1.02042 -0.00253423 0)
(1.02016 -0.00237744 0)
(1.01966 -0.00219568 0)
(1.01901 -0.00213538 0)
(1.01826 -0.00208073 0)
(1.01749 -0.00193667 0)
(1.01684 -0.00173326 0)
(1.01617 -0.00142716 0)
(1.01557 -0.00123552 0)
(1.01502 -0.000893277 0)
(1.01463 -0.000548032 0)
(1.01438 -0.000269023 0)
(0.735025 -0.269038 0)
(0.799864 -0.249165 0)
(0.844729 -0.205787 0)
(0.877438 -0.162495 0)
(0.916156 -0.133937 0)
(0.935875 -0.112012 0)
(0.949826 -0.0969172 0)
(0.962577 -0.0763282 0)
(0.973169 -0.0624111 0)
(0.98357 -0.0482167 0)
(0.991532 -0.0379739 0)
(0.997079 -0.0267968 0)
(1.00044 -0.0184008 0)
(1.00342 -0.0116159 0)
(1.0076 -0.00712467 0)
(1.01199 -0.00460837 0)
(1.01594 -0.00319933 0)
(1.01833 -0.00252511 0)
(1.01925 -0.00215922 0)
(1.01944 -0.00209691 0)
(1.01926 -0.00207513 0)
(1.01899 -0.00198498 0)
(1.01855 -0.00185036 0)
(1.01802 -0.00174906 0)
(1.01744 -0.00168089 0)
(1.0168 -0.00148334 0)
(1.01624 -0.00131095 0)
(1.01575 -0.000931402 0)
(1.01541 -0.000547186 0)
(1.01518 -0.000260996 0)
(0.791091 -0.218785 0)
(0.881499 -0.195142 0)
(0.941532 -0.16296 0)
(0.954485 -0.121605 0)
(0.935523 -0.0916397 0)
(0.931887 -0.0756526 0)
(0.946154 -0.0597594 0)
(0.963699 -0.0512948 0)
(0.984102 -0.0411691 0)
(0.999801 -0.0347017 0)
(1.01004 -0.0264773 0)
(1.01671 -0.0205545 0)
(1.02089 -0.0147116 0)
(1.0234 -0.0101586 0)
(1.02267 -0.00679769 0)
(1.02158 -0.00471476 0)
(1.02064 -0.00411112 0)
(1.02007 -0.00382194 0)
(1.01978 -0.00359834 0)
(1.01952 -0.00319912 0)
(1.0191 -0.0028105 0)
(1.01854 -0.00258323 0)
(1.01785 -0.00237004 0)
(1.01725 -0.00212855 0)
(1.01666 -0.00184442 0)
(1.01608 -0.0014932 0)
(1.01556 -0.00129161 0)
(1.01507 -0.000944562 0)
(1.01473 -0.000581378 0)
(1.0145 -0.000276745 0)
(0.837005 -0.144227 0)
(0.887279 -0.130991 0)
(0.94498 -0.133573 0)
(0.969934 -0.143497 0)
(0.974387 -0.1435 0)
(0.982065 -0.133233 0)
(0.980203 -0.118385 0)
(0.984276 -0.0959359 0)
(0.989515 -0.0768784 0)
(0.996229 -0.0600061 0)
(1.00351 -0.0463987 0)
(1.00656 -0.0340396 0)
(1.00811 -0.0237755 0)
(1.00813 -0.0165015 0)
(1.01052 -0.0109474 0)
(1.01347 -0.00759704 0)
(1.01665 -0.00502425 0)
(1.01881 -0.00352058 0)
(1.01985 -0.00264933 0)
(1.01998 -0.00230185 0)
(1.01973 -0.00214338 0)
(1.01932 -0.00198631 0)
(1.01881 -0.00185775 0)
(1.01827 -0.00180958 0)
(1.01761 -0.00175091 0)
(1.017 -0.00155438 0)
(1.01646 -0.00136476 0)
(1.01598 -0.000971638 0)
(1.01565 -0.000572839 0)
(1.01542 -0.000265334 0)
(0.908966 -0.156761 0)
(0.916647 -0.109689 0)
(0.930786 -0.105318 0)
(0.935825 -0.114002 0)
(0.947281 -0.111527 0)
(0.965702 -0.106867 0)
(0.993987 -0.0955366 0)
(1.01212 -0.0787211 0)
(1.02355 -0.0656145 0)
(1.03096 -0.0518209 0)
(1.03397 -0.0425817 0)
(1.03576 -0.0331836 0)
(1.03514 -0.0264106 0)
(1.03408 -0.0189298 0)
(1.02984 -0.0134352 0)
(1.02612 -0.00892459 0)
(1.02325 -0.00676133 0)
(1.02156 -0.00549885 0)
(1.02062 -0.00478519 0)
(1.01999 -0.00406409 0)
(1.01941 -0.00347918 0)
(1.01876 -0.00309368 0)
(1.01811 -0.00275458 0)
(1.01747 -0.00238538 0)
(1.01687 -0.00200833 0)
(1.01629 -0.00162693 0)
(1.01574 -0.0013992 0)
(1.01523 -0.00103338 0)
(1.01488 -0.000638529 0)
(1.01465 -0.000292047 0)
(1.05978 -0.319346 0)
(1.00484 -0.262708 0)
(0.940819 -0.270382 0)
(0.935497 -0.25157 0)
(0.97537 -0.212781 0)
(1.00391 -0.175647 0)
(1.00816 -0.128546 0)
(1.01401 -0.100437 0)
(1.01605 -0.0711568 0)
(1.01975 -0.055757 0)
(1.02176 -0.0394299 0)
(1.02149 -0.0302428 0)
(1.02018 -0.0211955 0)
(1.01748 -0.0166169 0)
(1.0177 -0.0120527 0)
(1.01847 -0.00920207 0)
(1.01981 -0.00617623 0)
(1.02106 -0.00428714 0)
(1.02155 -0.00304781 0)
(1.0214 -0.00246464 0)
(1.02088 -0.00218096 0)
(1.02026 -0.00198607 0)
(1.01958 -0.00187907 0)
(1.01885 -0.00186796 0)
(1.0181 -0.0018348 0)
(1.01743 -0.00163445 0)
(1.01683 -0.00141787 0)
(1.01632 -0.0010132 0)
(1.01595 -0.000601106 0)
(1.0157 -0.000271332 0)
(1.20978 -0.413329 0)
(1.07939 -0.373808 0)
(0.970043 -0.352511 0)
(0.997396 -0.27738 0)
(1.05917 -0.228054 0)
(1.0809 -0.175973 0)
(1.0878 -0.143055 0)
(1.07878 -0.108689 0)
(1.07124 -0.0874021 0)
(1.0613 -0.0649744 0)
(1.05556 -0.0533569 0)
(1.05133 -0.0412295 0)
(1.04633 -0.0341127 0)
(1.04197 -0.0250199 0)
(1.03547 -0.0186878 0)
(1.0298 -0.0125954 0)
(1.02571 -0.00924006 0)
(1.02289 -0.00697264 0)
(1.02119 -0.00566216 0)
(1.0201 -0.00467548 0)
(1.01933 -0.00397498 0)
(1.01864 -0.00350889 0)
(1.018 -0.00305161 0)
(1.01744 -0.00257736 0)
(1.01691 -0.00214516 0)
(1.01637 -0.00174316 0)
(1.01585 -0.00149785 0)
(1.01537 -0.00111606 0)
(1.01504 -0.000689584 0)
(1.01483 -0.000305227 0)
(1.32418 -0.403095 0)
(1.16548 -0.411362 0)
(1.08319 -0.328218 0)
(1.10159 -0.239924 0)
(1.12131 -0.171076 0)
(1.11405 -0.122088 0)
(1.09402 -0.0844487 0)
(1.078 -0.0564511 0)
(1.06646 -0.0371788 0)
(1.05534 -0.026764 0)
(1.04596 -0.0164621 0)
(1.03842 -0.0131775 0)
(1.03249 -0.00861396 0)
(1.02804 -0.0089765 0)
(1.02618 -0.00752557 0)
(1.02494 -0.00685751 0)
(1.02374 -0.00495038 0)
(1.02336 -0.00369036 0)
(1.02288 -0.00279666 0)
(1.02229 -0.00232008 0)
(1.02152 -0.00207923 0)
(1.02069 -0.00191343 0)
(1.01986 -0.00187477 0)
(1.01906 -0.00193827 0)
(1.01828 -0.00192712 0)
(1.01763 -0.00170952 0)
(1.01707 -0.00146509 0)
(1.0166 -0.00105193 0)
(1.01625 -0.00062961 0)
(1.01602 -0.000277813 0)
(1.34656 -0.299116 0)
(1.26405 -0.289175 0)
(1.23867 -0.226458 0)
(1.24364 -0.169189 0)
(1.23267 -0.129678 0)
(1.20071 -0.106562 0)
(1.16369 -0.095614 0)
(1.13186 -0.0780231 0)
(1.09981 -0.0662575 0)
(1.07943 -0.0515445 0)
(1.06761 -0.0447265 0)
(1.05786 -0.0359735 0)
(1.05001 -0.0314617 0)
(1.04294 -0.0243826 0)
(1.03609 -0.0192749 0)
(1.03006 -0.0137945 0)
(1.02615 -0.0102836 0)
(1.02303 -0.00764468 0)
(1.02099 -0.00593082 0)
(1.01963 -0.00487782 0)
(1.01874 -0.00418064 0)
(1.01808 -0.00370902 0)
(1.01758 -0.00321156 0)
(1.01717 -0.00268662 0)
(1.01675 -0.00223735 0)
(1.01633 -0.00184778 0)
(1.01588 -0.00159463 0)
(1.01548 -0.00119946 0)
(1.0152 -0.00073974 0)
(1.01502 -0.000316173 0)
(1.35651 -0.0292679 0)
(1.31715 -0.00730188 0)
(1.29498 -0.000466908 0)
(1.28688 0.00516303 0)
(1.22228 0.0169236 0)
(1.18072 0.0103908 0)
(1.14232 0.0253243 0)
(1.12681 0.0162809 0)
(1.10095 0.0207563 0)
(1.08203 0.0163884 0)
(1.06274 0.0164722 0)
(1.04975 0.0139274 0)
(1.04226 0.01128 0)
(1.03794 0.00657821 0)
(1.03532 0.00346877 0)
(1.03283 0.000830903 0)
(1.02931 -0.00030368 0)
(1.02693 -0.000988167 0)
(1.02512 -0.00147549 0)
(1.02382 -0.00163699 0)
(1.02266 -0.00171789 0)
(1.02157 -0.00173355 0)
(1.02054 -0.00184408 0)
(1.01957 -0.00199161 0)
(1.01872 -0.00200014 0)
(1.01803 -0.00176353 0)
(1.01745 -0.00149293 0)
(1.01696 -0.00108418 0)
(1.0166 -0.000657283 0)
(1.01636 -0.000283492 0)
(1.32584 0.17373 0)
(1.27443 0.158001 0)
(1.26643 0.131493 0)
(1.24304 0.0959431 0)
(1.22207 0.0610482 0)
(1.20678 0.0207595 0)
(1.15955 0.021524 0)
(1.12777 -0.00378429 0)
(1.09538 -0.000722551 0)
(1.0796 -0.0132072 0)
(1.06475 -0.0127487 0)
(1.05577 -0.0168223 0)
(1.0447 -0.0172536 0)
(1.03614 -0.0157092 0)
(1.03021 -0.0139025 0)
(1.02595 -0.0115086 0)
(1.02392 -0.00904851 0)
(1.02197 -0.00697101 0)
(1.02055 -0.00528679 0)
(1.01942 -0.00443649 0)
(1.01859 -0.00389758 0)
(1.01803 -0.00351465 0)
(1.01766 -0.00304234 0)
(1.01733 -0.00253849 0)
(1.01695 -0.00215391 0)
(1.01653 -0.00183137 0)
(1.01609 -0.00160479 0)
(1.0157 -0.00122032 0)
(1.01543 -0.000750693 0)
(1.01526 -0.000312589 0)
(1.25382 0.261182 0)
(1.22741 0.251993 0)
(1.14259 0.156093 7.86182e-20)
(1.10193 0.141409 -2.50906e-20)
(1.08292 0.130706 1.34966e-20)
(1.07236 0.110927 5.24831e-21)
(1.06246 0.0976455 -4.74742e-21)
(1.05353 0.0815475 4.06298e-21)
(1.04661 0.0658379 -1.49051e-20)
(1.04237 0.0501744 7.24838e-21)
(1.0375 0.0367148 -7.26814e-21)
(1.03251 0.0260806 -2.98236e-22)
(1.14237 0.188702 1.53305e-22)
(1.1213 0.160115 1.28162e-20)
(1.10283 0.132693 3.08916e-20)
(1.08362 0.105374 -7.38491e-22)
(1.06443 0.0886586 8.36748e-21)
(1.04997 0.0723676 -1.39826e-20)
(1.04089 0.0597563 -9.14971e-21)
(1.03549 0.0492701 1.24511e-20)
(1.03297 0.0396818 -2.93284e-21)
(1.03096 0.0304691 -9.42087e-22)
(1.02847 0.0223071 -6.75996e-22)
(1.02533 0.0159285 2.11219e-22)
(1.02225 0.0111445 -8.27379e-22)
(1.0198 0.00727826 8.65262e-22)
(1.01815 0.00453671 -9.40116e-23)
(1.01708 0.0028292 4.04832e-22)
(1.01627 0.00142404 -1.11482e-21)
(1.01711 -6.09591e-05 7.76948e-22)
(1.0171 -0.000996726 3.89599e-22)
(1.01677 -0.00182903 -3.72365e-22)
(1.01685 -0.00264744 1.11767e-22)
(1.01638 -0.00296773 3.3364e-22)
(1.01593 -0.00309549 -3.92654e-23)
(1.01555 -0.00306906 -7.27715e-22)
(1.01506 -0.00278266 5.04774e-22)
(1.01463 -0.0023567 -1.81707e-22)
(1.01424 -0.00195734 1.38886e-22)
(1.01389 -0.00124912 -2.5839e-22)
(1.01366 -0.00075359 -2.74993e-22)
(1.01347 -0.000392725 -7.54993e-22)
(1.09324 0.241877 1.01106e-19)
(1.07236 0.215614 -4.89014e-20)
(1.06429 0.189059 -2.12258e-20)
(1.0552 0.158435 1.02643e-20)
(1.04389 0.134453 2.07342e-20)
(1.03642 0.108437 -2.14947e-20)
(1.03093 0.0847046 6.19438e-21)
(1.02655 0.0648509 -7.00624e-21)
(1.02243 0.0488184 6.04664e-21)
(1.02069 0.0349882 1.27576e-21)
(1.01974 0.0241233 -3.37028e-21)
(1.01878 0.0157368 -4.26112e-23)
(1.01904 0.00923419 9.78053e-22)
(1.01941 0.00444311 1.9147e-22)
(1.01967 0.000940062 -9.61614e-23)
(1.01839 -0.000857391 5.58645e-23)
(1.01731 -0.00224062 2.28603e-22)
(1.0177 -0.00352723 1.00763e-21)
(1.01697 -0.00365592 -2.65248e-21)
(1.01707 -0.00389268 1.07164e-21)
(1.01727 -0.00404258 3.51387e-23)
(1.01679 -0.00378152 7.35116e-23)
(1.01645 -0.00353215 -1.75249e-23)
(1.01606 -0.00321951 -3.09345e-22)
(1.01554 -0.00279187 6.31144e-22)
(1.0151 -0.00234539 -1.12096e-23)
(1.01466 -0.00197243 1.54524e-22)
(1.01428 -0.00128656 -2.97691e-22)
(1.01405 -0.000777487 4.24561e-22)