/*--------------------------------*- C++ -*----------------------------------*\
| =========                 |                                                 |
| \\      /  F ield         | OpenFOAM: The Open Source CFD Toolbox           |
|  \\    /   O peration     | Version:                                        |
|   \\  /    A nd           | Website:  www.openfoam.com                      |
|    \\/     M anipulation  |                                                 |
\*---------------------------------------------------------------------------*/
FoamFile
{
    version     2.0;
    format      ascii;
    class       surfaceScalarField;
    location    "0.9";
    object      phi;
}
// * * * * * * * * * * * * * * * * * * * * * * * * * * * * * * * * * * * * * //

dimensions      [0 3 -1 0 0 0 0];
oriented        oriented;


internalField   nonuniform List<scalar> 
760
(
3.61677e-05
-5.0008e-08
3.62158e-05
-4.81008e-08
3.62621e-05
-4.62701e-08
3.63066e-05
-4.45107e-08
3.63494e-05
-4.28215e-08
3.63906e-05
-4.11967e-08
3.64303e-05
-3.96413e-08
3.64684e-05
-3.81413e-08
3.65051e-05
-3.67128e-08
3.65405e-05
-3.53231e-08
3.65745e-05
-3.40236e-08
3.66072e-05
-3.27237e-08
3.66388e-05
-3.15701e-08
3.66691e-05
-3.0322e-08
3.66985e-05
-2.93668e-08
3.67266e-05
-2.80903e-08
3.6754e-05
-2.74359e-08
3.67801e-05
-2.60018e-08
3.68058e-05
-2.57801e-08
-2.41415e-08
3.6039e-05
-9.77395e-08
3.6085e-05
-9.40096e-08
3.61291e-05
-9.04284e-08
3.61716e-05
-8.69885e-08
3.62125e-05
-8.36877e-08
3.62518e-05
-8.05127e-08
3.62896e-05
-7.74715e-08
3.6326e-05
-7.45397e-08
3.6361e-05
-7.17482e-08
3.63947e-05
-6.90332e-08
3.64272e-05
-6.6493e-08
3.64584e-05
-6.3956e-08
3.64886e-05
-6.17005e-08
3.65175e-05
-5.92653e-08
3.65455e-05
-5.73938e-08
3.65724e-05
-5.49092e-08
3.65986e-05
-5.36267e-08
3.66234e-05
-5.08358e-08
3.6648e-05
-5.03967e-08
-4.7202e-08
3.5778e-05
-1.41051e-07
3.58196e-05
-1.35664e-07
3.58597e-05
-1.30492e-07
3.58982e-05
-1.25525e-07
3.59353e-05
-1.20759e-07
3.5971e-05
-1.16176e-07
3.60053e-05
-1.11787e-07
3.60383e-05
-1.07556e-07
3.60701e-05
-1.03527e-07
3.61007e-05
-9.96117e-08
3.61301e-05
-9.59447e-08
3.61584e-05
-9.22892e-08
3.61858e-05
-8.90308e-08
3.6212e-05
-8.55288e-08
3.62375e-05
-8.28191e-08
3.62618e-05
-7.9255e-08
3.62856e-05
-7.73898e-08
3.63081e-05
-7.33916e-08
3.63305e-05
-7.27464e-08
-6.81542e-08
3.53774e-05
-1.7808e-07
3.5413e-05
-1.7127e-07
3.54472e-05
-1.64735e-07
3.54801e-05
-1.58459e-07
3.55118e-05
-1.52439e-07
3.55423e-05
-1.46652e-07
3.55716e-05
-1.41109e-07
3.55998e-05
-1.35769e-07
3.5627e-05
-1.30682e-07
3.56531e-05
-1.25743e-07
3.56783e-05
-1.21111e-07
3.57025e-05
-1.16506e-07
3.57259e-05
-1.12386e-07
3.57483e-05
-1.07986e-07
3.577e-05
-1.0455e-07
3.57909e-05
-1.00088e-07
3.58112e-05
-9.77071e-08
3.58305e-05
-9.27126e-08
3.58496e-05
-9.18766e-08
-8.61131e-08
3.48272e-05
-2.07347e-07
3.48553e-05
-1.99408e-07
3.48824e-05
-1.91792e-07
3.49084e-05
-1.84479e-07
3.49334e-05
-1.77465e-07
3.49575e-05
-1.70726e-07
3.49807e-05
-1.64272e-07
3.50029e-05
-1.58056e-07
3.50244e-05
-1.52132e-07
3.5045e-05
-1.46387e-07
3.50649e-05
-1.40993e-07
3.50841e-05
-1.35645e-07
3.51025e-05
-1.3084e-07
3.51203e-05
-1.25748e-07
3.51375e-05
-1.21724e-07
3.51539e-05
-1.16587e-07
3.517e-05
-1.13775e-07
3.51853e-05
-1.08043e-07
3.52005e-05
-1.07035e-07
-1.00381e-07
3.41154e-05
-2.27842e-07
3.41351e-05
-2.19108e-07
3.41541e-05
-2.10731e-07
3.41723e-05
-2.0269e-07
3.41898e-05
-1.9498e-07
3.42066e-05
-1.87574e-07
3.42228e-05
-1.80481e-07
3.42384e-05
-1.73655e-07
3.42535e-05
-1.67146e-07
3.42679e-05
-1.60842e-07
3.42818e-05
-1.54912e-07
3.42952e-05
-1.49054e-07
3.43082e-05
-1.43764e-07
3.43206e-05
-1.3821e-07
3.43327e-05
-1.33759e-07
3.43443e-05
-1.28193e-07
3.43555e-05
-1.25049e-07
3.43664e-05
-1.18868e-07
3.4377e-05
-1.17713e-07
-1.10488e-07
3.32289e-05
-2.3907e-07
3.32397e-05
-2.29897e-07
3.325e-05
-2.211e-07
3.326e-05
-2.1266e-07
3.32696e-05
-2.04568e-07
3.32788e-05
-1.96798e-07
3.32877e-05
-1.89356e-07
3.32962e-05
-1.82198e-07
3.33045e-05
-1.7537e-07
3.33124e-05
-1.68766e-07
3.332e-05
-1.62543e-07
3.33274e-05
-1.5642e-07
3.33345e-05
-1.50857e-07
3.33414e-05
-1.45079e-07
3.3348e-05
-1.40374e-07
3.33544e-05
-1.34635e-07
3.33606e-05
-1.31267e-07
3.33667e-05
-1.2494e-07
3.33726e-05
-1.23661e-07
-1.16208e-07
3.21543e-05
-2.41064e-07
3.21562e-05
-2.31807e-07
3.2158e-05
-2.22933e-07
3.21598e-05
-2.14422e-07
3.21615e-05
-2.06263e-07
3.21631e-05
-1.98431e-07
3.21647e-05
-1.90931e-07
3.21662e-05
-1.8372e-07
3.21677e-05
-1.76838e-07
3.21691e-05
-1.70192e-07
3.21705e-05
-1.63917e-07
3.21718e-05
-1.57768e-07
3.21731e-05
-1.52148e-07
3.21744e-05
-1.46378e-07
3.21756e-05
-1.41595e-07
3.21769e-05
-1.35927e-07
3.21781e-05
-1.32452e-07
3.21794e-05
-1.26271e-07
3.21807e-05
-1.24898e-07
-1.17565e-07
3.08789e-05
-2.34354e-07
3.08725e-05
-2.25353e-07
3.08663e-05
-2.16727e-07
3.08603e-05
-2.08454e-07
3.08546e-05
-2.00526e-07
3.08491e-05
-1.92917e-07
3.08438e-05
-1.85631e-07
3.08387e-05
-1.78629e-07
3.08338e-05
-1.71944e-07
3.08291e-05
-1.65497e-07
3.08246e-05
-1.59398e-07
3.08203e-05
-1.53448e-07
3.08161e-05
-1.47974e-07
3.08121e-05
-1.42425e-07
3.08083e-05
-1.37737e-07
3.08047e-05
-1.3236e-07
3.08011e-05
-1.28893e-07
3.0798e-05
-1.23129e-07
3.07948e-05
-1.21692e-07
-1.14818e-07
2.93919e-05
-2.19914e-07
2.9378e-05
-2.11471e-07
2.93647e-05
-2.0338e-07
2.93518e-05
-1.95624e-07
2.93395e-05
-1.8819e-07
2.93276e-05
-1.81058e-07
2.93162e-05
-1.74228e-07
2.93053e-05
-1.67667e-07
2.92947e-05
-1.61401e-07
2.92846e-05
-1.55365e-07
2.92748e-05
-1.49647e-07
2.92655e-05
-1.44089e-07
2.92565e-05
-1.38947e-07
2.92478e-05
-1.33799e-07
2.92395e-05
-1.29366e-07
2.92316e-05
-1.24461e-07
2.92238e-05
-1.21117e-07
2.92166e-05
-1.15993e-07
2.92095e-05
-1.14529e-07
-1.08428e-07
2.76841e-05
-1.99076e-07
2.76641e-05
-1.9144e-07
2.76448e-05
-1.84125e-07
2.76263e-05
-1.77112e-07
2.76085e-05
-1.70391e-07
2.75914e-05
-1.63945e-07
2.75749e-05
-1.5777e-07
2.75591e-05
-1.51843e-07
2.75439e-05
-1.46178e-07
2.75292e-05
-1.40729e-07
2.75151e-05
-1.35557e-07
2.75016e-05
-1.30552e-07
2.74886e-05
-1.25894e-07
2.7476e-05
-1.2129e-07
2.74639e-05
-1.17249e-07
2.74524e-05
-1.1295e-07
2.74411e-05
-1.09839e-07
2.74307e-05
-1.05522e-07
2.74202e-05
-1.0407e-07
-9.90197e-08
2.5749e-05
-1.7343e-07
2.57243e-05
-1.66789e-07
2.57006e-05
-1.60427e-07
2.56779e-05
-1.54328e-07
2.56559e-05
-1.48484e-07
2.56349e-05
-1.42878e-07
2.56146e-05
-1.37509e-07
2.55951e-05
-1.32356e-07
2.55764e-05
-1.27429e-07
2.55583e-05
-1.22696e-07
2.5541e-05
-1.18198e-07
2.55243e-05
-1.13859e-07
2.55082e-05
-1.09802e-07
2.54928e-05
-1.05842e-07
2.54778e-05
-1.02302e-07
2.54636e-05
-9.86925e-08
2.54496e-05
-9.59084e-08
2.54366e-05
-9.24963e-08
2.54236e-05
-9.11054e-08
-8.73331e-08
2.35825e-05
-1.44722e-07
2.35549e-05
-1.39193e-07
2.35284e-05
-1.33896e-07
2.35029e-05
-1.28818e-07
2.34783e-05
-1.23952e-07
2.34547e-05
-1.19285e-07
2.3432e-05
-1.14814e-07
2.34102e-05
-1.10524e-07
2.33892e-05
-1.06422e-07
2.3369e-05
-1.02484e-07
2.33495e-05
-9.87382e-08
2.33308e-05
-9.5137e-08
2.33128e-05
-9.17553e-08
2.32954e-05
-8.84932e-08
2.32786e-05
-8.55293e-08
2.32626e-05
-8.2639e-08
2.32469e-05
-8.02598e-08
2.32322e-05
-7.77752e-08
2.32176e-05
-7.65009e-08
-7.41671e-08
2.11829e-05
-1.14754e-07
2.11541e-05
-1.10383e-07
2.11264e-05
-1.06194e-07
2.10998e-05
-1.02179e-07
2.10742e-05
-9.83307e-08
2.10495e-05
-9.46399e-08
2.10258e-05
-9.11037e-08
2.1003e-05
-8.77114e-08
2.0981e-05
-8.44668e-08
2.09599e-05
-8.13544e-08
2.09396e-05
-7.83912e-08
2.092e-05
-7.55508e-08
2.09011e-05
-7.28751e-08
2.08829e-05
-7.03224e-08
2.08654e-05
-6.79697e-08
2.08485e-05
-6.57818e-08
2.08321e-05
-6.3859e-08
2.08166e-05
-6.22492e-08
2.08012e-05
-6.11515e-08
-6.03285e-08
1.85506e-05
-8.53038e-08
1.85222e-05
-8.20652e-08
1.8495e-05
-7.89617e-08
1.84688e-05
-7.59864e-08
1.84436e-05
-7.31342e-08
1.84194e-05
-7.03987e-08
1.8396e-05
-6.77774e-08
1.83736e-05
-6.52631e-08
1.8352e-05
-6.28578e-08
1.83312e-05
-6.0552e-08
1.83112e-05
-5.83556e-08
1.82919e-05
-5.62556e-08
1.82733e-05
-5.42727e-08
1.82553e-05
-5.24004e-08
1.8238e-05
-5.0654e-08
1.82213e-05
-4.91106e-08
1.82051e-05
-4.76622e-08
1.81897e-05
-4.68057e-08
1.81745e-05
-4.59373e-08
-4.65792e-08
1.56873e-05
-5.80553e-08
1.56611e-05
-5.58597e-08
1.56358e-05
-5.37553e-08
1.56116e-05
-5.17374e-08
1.55883e-05
-4.98027e-08
1.55658e-05
-4.7947e-08
1.55442e-05
-4.61685e-08
1.55234e-05
-4.44626e-08
1.55034e-05
-4.28306e-08
1.54841e-05
-4.12668e-08
1.54655e-05
-3.9777e-08
1.54476e-05
-3.83556e-08
1.54304e-05
-3.70113e-08
1.54137e-05
-3.57546e-08
1.53976e-05
-3.45699e-08
1.53821e-05
-3.35812e-08
1.5367e-05
-3.25863e-08
1.53525e-05
-3.23051e-08
1.53383e-05
-3.16922e-08
-3.35955e-08
1.25959e-05
-3.45628e-08
1.25733e-05
-3.32612e-08
1.25516e-05
-3.20133e-08
1.25307e-05
-3.08165e-08
1.25105e-05
-2.96689e-08
1.24912e-05
-2.85679e-08
1.24725e-05
-2.75126e-08
1.24545e-05
-2.65003e-08
1.24372e-05
-2.55319e-08
1.24206e-05
-2.46042e-08
1.24045e-05
-2.37205e-08
1.23891e-05
-2.2879e-08
1.23741e-05
-2.20822e-08
1.23597e-05
-2.13451e-08
1.23458e-05
-2.0642e-08
1.23323e-05
-2.00955e-08
1.23192e-05
-1.94943e-08
1.23065e-05
-1.95713e-08
1.2294e-05
-1.91895e-08
-2.19456e-08
9.27994e-06
-1.62321e-08
9.26231e-06
-1.56237e-08
9.24533e-06
-1.50403e-08
9.229e-06
-1.44805e-08
9.21327e-06
-1.39436e-08
9.19813e-06
-1.34284e-08
9.18356e-06
-1.29346e-08
9.16952e-06
-1.24609e-08
9.15599e-06
-1.20077e-08
9.14296e-06
-1.15737e-08
9.1304e-06
-1.11603e-08
9.11829e-06
-1.07674e-08
9.1066e-06
-1.03948e-08
9.09531e-06
-1.00547e-08
9.08439e-06
-9.72363e-09
9.07379e-06
-9.49284e-09
9.06349e-06
-9.1949e-09
9.05332e-06
-9.40183e-09
9.0433e-06
-9.16473e-09
-1.2087e-08
5.74257e-06
-4.32795e-09
5.73111e-06
-4.16666e-09
5.72008e-06
-4.01196e-09
5.70947e-06
-3.86347e-09
5.69924e-06
-3.72104e-09
5.6894e-06
-3.58428e-09
5.67992e-06
-3.45322e-09
5.67079e-06
-3.3274e-09
5.66198e-06
-3.20713e-09
5.6535e-06
-3.09189e-09
5.64533e-06
-2.98222e-09
5.63744e-06
-2.87824e-09
5.62982e-06
-2.77915e-09
5.62246e-06
-2.69093e-09
5.61533e-06
-2.60059e-09
5.60839e-06
-2.55107e-09
5.60165e-06
-2.45622e-09
5.59484e-06
-2.59202e-09
5.58813e-06
-2.45365e-09
-4.34905e-09
1.98652e-06
1.98235e-06
1.97834e-06
1.97448e-06
1.97076e-06
1.96717e-06
1.96372e-06
1.96039e-06
1.95719e-06
1.95409e-06
1.95111e-06
1.94823e-06
1.94545e-06
1.94276e-06
1.94016e-06
1.93761e-06
1.93516e-06
1.93256e-06
1.93011e-06
)
;

boundaryField
{
    fixedWalls
    {
        type            calculated;
        value           uniform 0;
    }
    inlet
    {
        type            calculated;
        value           nonuniform 0();
    }
    outlet
    {
        type            calculated;
        value           nonuniform List<scalar> 
20
(
3.683e-05
3.66711e-05
3.63514e-05
3.58676e-05
3.52148e-05
3.43871e-05
3.33784e-05
3.2182e-05
3.0792e-05
2.92031e-05
2.74108e-05
2.54119e-05
2.32045e-05
2.07874e-05
1.81607e-05
1.53253e-05
1.22823e-05
9.03344e-06
5.58039e-06
1.92576e-06
)
;
    }
    frontAndBack
    {
        type            empty;
        value           nonuniform 0();
    }
    procBoundary7to3
    {
        type            processor;
        value           nonuniform List<scalar> 
20
(
-5.32399e-12
-3.00958e-12
-8.70866e-13
-3.61675e-12
-6.60751e-12
-5.46057e-12
-2.95493e-12
-3.51992e-12
-5.15156e-12
-5.2779e-12
-5.83995e-12
-7.18054e-12
-6.22122e-12
-3.77452e-12
-4.82204e-12
-9.32432e-12
-1.07374e-11
-6.98948e-12
-5.24166e-12
-7.79209e-12
)
;
    }
    procBoundary7to6
    {
        type            processor;
        value           nonuniform List<scalar> 
20
(
-3.61177e-05
-3.59913e-05
-3.57347e-05
-3.53403e-05
-3.47979e-05
-3.40949e-05
-3.32177e-05
-3.21523e-05
-3.08857e-05
-2.94063e-05
-2.77049e-05
-2.57746e-05
-2.36112e-05
-2.12129e-05
-1.858e-05
-1.57145e-05
-1.26194e-05
-9.29828e-06
-5.75447e-06
-1.99085e-06
)
;
    }
}


// ************************************************************************* //
