/*--------------------------------*- C++ -*----------------------------------*\
| =========                 |                                                 |
| \\      /  F ield         | OpenFOAM: The Open Source CFD Toolbox           |
|  \\    /   O peration     | Version:                                        |
|   \\  /    A nd           | Website:  www.openfoam.com                      |
|    \\/     M anipulation  |                                                 |
\*---------------------------------------------------------------------------*/
FoamFile
{
    version     2.0;
    format      ascii;
    class       volVectorField;
    location    "0.9";
    object      U;
}
// * * * * * * * * * * * * * * * * * * * * * * * * * * * * * * * * * * * * * //

dimensions      [0 1 -1 0 0 0 0];


internalField   nonuniform List<vector> 
400
(
(1.44573 -0.000505894 0)
(1.44769 -0.000486624 0)
(1.44958 -0.000468131 0)
(1.45139 -0.000450315 0)
(1.45314 -0.000433191 0)
(1.45482 -0.000416762 0)
(1.45643 -0.000401051 0)
(1.45799 -0.000385872 0)
(1.45948 -0.000371404 0)
(1.46093 -0.000357339 0)
(1.46231 -0.000344188 0)
(1.46365 -0.000331017 0)
(1.46492 -0.000319355 0)
(1.46619 -0.000306742 0)
(1.46733 -0.000297078 0)
(1.46856 -0.000284102 0)
(1.46954 -0.000277466 0)
(1.47084 -0.000262978 0)
(1.47149 -0.000260737 0)
(1.47312 -0.000244146 0)
(1.44063 -0.00149471 0)
(1.4425 -0.0014377 0)
(1.4443 -0.00138296 0)
(1.44603 -0.00133037 0)
(1.4477 -0.00127989 0)
(1.4493 -0.00123134 0)
(1.45084 -0.00118484 0)
(1.45233 -0.00114 0)
(1.45375 -0.00109731 0)
(1.45513 -0.00105578 0)
(1.45645 -0.00101694 0)
(1.45773 -0.000978104 0)
(1.45894 -0.000943623 0)
(1.46015 -0.000906328 0)
(1.46124 -0.000877745 0)
(1.46242 -0.000839646 0)
(1.46335 -0.000820065 0)
(1.46459 -0.000777284 0)
(1.46521 -0.000770543 0)
(1.46676 -0.000721675 0)
(1.43027 -0.00241542 0)
(1.43197 -0.00232322 0)
(1.4336 -0.0022347 0)
(1.43517 -0.00214967 0)
(1.43668 -0.00206809 0)
(1.43814 -0.00198962 0)
(1.43954 -0.00191446 0)
(1.44089 -0.00184201 0)
(1.44218 -0.00177302 0)
(1.44343 -0.00170594 0)
(1.44462 -0.00164315 0)
(1.44579 -0.00158049 0)
(1.44688 -0.00152472 0)
(1.44798 -0.00146462 0)
(1.44897 -0.0014183 0)
(1.45004 -0.00135704 0)
(1.45088 -0.00132522 0)
(1.45201 -0.00125648 0)
(1.45257 -0.00124543 0)
(1.45399 -0.00116671 0)
(1.41437 -0.00322741 0)
(1.41582 -0.00310408 0)
(1.41722 -0.0029857 0)
(1.41856 -0.002872 0)
(1.41985 -0.00276293 0)
(1.42109 -0.00265807 0)
(1.42229 -0.00255762 0)
(1.42344 -0.00246083 0)
(1.42455 -0.00236863 0)
(1.42561 -0.00227907 0)
(1.42663 -0.00219515 0)
(1.42763 -0.00211157 0)
(1.42857 -0.00203697 0)
(1.42951 -0.00195699 0)
(1.43035 -0.00189486 0)
(1.43126 -0.0018136 0)
(1.43198 -0.00177068 0)
(1.43295 -0.00167965 0)
(1.43343 -0.00166457 0)
(1.43464 -0.00155988 0)
(1.39251 -0.00389673 0)
(1.39366 -0.00374764 0)
(1.39476 -0.00360456 0)
(1.39583 -0.00346719 0)
(1.39685 -0.00333542 0)
(1.39783 -0.00320877 0)
(1.39877 -0.00308748 0)
(1.39968 -0.00297064 0)
(1.40055 -0.00285931 0)
(1.4014 -0.00275127 0)
(1.4022 -0.00264991 0)
(1.40299 -0.00254925 0)
(1.40373 -0.00245902 0)
(1.40447 -0.00236299 0)
(1.40514 -0.00228759 0)
(1.40586 -0.00219044 0)
(1.40643 -0.00213797 0)
(1.4072 -0.0020294 0)
(1.40758 -0.00201066 0)
(1.40854 -0.00188515 0)
(1.36422 -0.00439817 0)
(1.36502 -0.00422967 0)
(1.36579 -0.00406803 0)
(1.36653 -0.00391286 0)
(1.36725 -0.00376405 0)
(1.36794 -0.00362109 0)
(1.3686 -0.00348417 0)
(1.36923 -0.00335235 0)
(1.36984 -0.00322669 0)
(1.37043 -0.0031049 0)
(1.371 -0.00299045 0)
(1.37155 -0.00287718 0)
(1.37207 -0.00277515 0)
(1.37259 -0.00266749 0)
(1.37306 -0.00258186 0)
(1.37356 -0.00247359 0)
(1.37396 -0.00241343 0)
(1.3745 -0.0022929 0)
(1.37477 -0.00227093 0)
(1.37545 -0.00213068 0)
(1.32894 -0.00471652 0)
(1.32938 -0.00453561 0)
(1.3298 -0.00436212 0)
(1.33021 -0.00419563 0)
(1.3306 -0.00403599 0)
(1.33097 -0.00388268 0)
(1.33133 -0.00373585 0)
(1.33168 -0.00359457 0)
(1.33202 -0.00345983 0)
(1.33234 -0.00332943 0)
(1.33265 -0.00320666 0)
(1.33295 -0.00308561 0)
(1.33324 -0.00297597 0)
(1.33352 -0.00286145 0)
(1.33378 -0.00276896 0)
(1.33406 -0.00265467 0)
(1.33428 -0.00258892 0)
(1.33458 -0.00246242 0)
(1.33473 -0.00243773 0)
(1.33512 -0.00228944 0)
(1.28613 -0.00484721 0)
(1.28621 -0.00466112 0)
(1.28628 -0.00448271 0)
(1.28636 -0.00431155 0)
(1.28643 -0.00414747 0)
(1.28649 -0.00398995 0)
(1.28656 -0.00383909 0)
(1.28662 -0.00369402 0)
(1.28668 -0.00355559 0)
(1.28674 -0.00342182 0)
(1.28679 -0.00329563 0)
(1.28685 -0.00317172 0)
(1.2869 -0.00305881 0)
(1.28695 -0.00294219 0)
(1.287 -0.0028464 0)
(1.28706 -0.00273117 0)
(1.28709 -0.00266209 0)
(1.28716 -0.00253567 0)
(1.28718 -0.00250883 0)
(1.28728 -0.00235946 0)
(1.23529 -0.00479608 0)
(1.23503 -0.00461187 0)
(1.23477 -0.0044353 0)
(1.23453 -0.00426596 0)
(1.2343 -0.00410365 0)
(1.23407 -0.00394787 0)
(1.23385 -0.00379868 0)
(1.23365 -0.0036553 0)
(1.23345 -0.00351842 0)
(1.23326 -0.00338632 0)
(1.23307 -0.00326148 0)
(1.2329 -0.00313942 0)
(1.23272 -0.00302749 0)
(1.23256 -0.00291328 0)
(1.23241 -0.00281773 0)
(1.23226 -0.00270626 0)
(1.23212 -0.00263621 0)
(1.23197 -0.00251558 0)
(1.23187 -0.00248719 0)
(1.2317 -0.00234368 0)
(1.17596 -0.00457857 0)
(1.17539 -0.00440272 0)
(1.17485 -0.00423421 0)
(1.17432 -0.00407264 0)
(1.17382 -0.00391779 0)
(1.17334 -0.00376921 0)
(1.17287 -0.00362691 0)
(1.17243 -0.00349021 0)
(1.172 -0.00335966 0)
(1.17158 -0.00323385 0)
(1.17118 -0.00311473 0)
(1.1708 -0.00299875 0)
(1.17044 -0.00289173 0)
(1.17008 -0.00278392 0)
(1.16974 -0.00269196 0)
(1.16941 -0.00258833 0)
(1.16911 -0.00251964 0)
(1.16878 -0.00240981 0)
(1.16857 -0.00238053 0)
(1.16815 -0.00224948 0)
(1.10777 -0.00421822 0)
(1.10696 -0.00405632 0)
(1.10617 -0.0039012 0)
(1.10541 -0.00375249 0)
(1.10469 -0.00360999 0)
(1.10399 -0.00347328 0)
(1.10332 -0.00334234 0)
(1.10267 -0.00321662 0)
(1.10205 -0.0030965 0)
(1.10146 -0.00298088 0)
(1.10088 -0.00287123 0)
(1.10033 -0.00276491 0)
(1.0998 -0.00266622 0)
(1.09929 -0.00256808 0)
(1.0988 -0.00248272 0)
(1.09832 -0.00239012 0)
(1.09788 -0.00232504 0)
(1.0974 -0.00222998 0)
(1.09708 -0.00220058 0)
(1.09647 -0.00208796 0)
(1.03046 -0.00374476 0)
(1.02946 -0.00360122 0)
(1.02849 -0.00346371 0)
(1.02756 -0.0033319 0)
(1.02667 -0.00320559 0)
(1.02581 -0.00308444 0)
(1.02498 -0.00296839 0)
(1.02419 -0.002857 0)
(1.02342 -0.00275053 0)
(1.02269 -0.00264818 0)
(1.02198 -0.00255097 0)
(1.0213 -0.00245706 0)
(1.02064 -0.00236943 0)
(1.02001 -0.0022834 0)
(1.01941 -0.00220713 0)
(1.01881 -0.00212775 0)
(1.01828 -0.00206835 0)
(1.01768 -0.00199075 0)
(1.01728 -0.00196209 0)
(1.01653 -0.00187302 0)
(0.943863 -0.00319208 0)
(0.942738 -0.00306998 0)
(0.941655 -0.002953 0)
(0.940615 -0.00284088 0)
(0.939615 -0.00273343 0)
(0.938653 -0.00263037 0)
(0.937727 -0.00253165 0)
(0.936837 -0.00243693 0)
(0.935981 -0.00234635 0)
(0.935157 -0.00225937 0)
(0.934363 -0.00217666 0)
(0.9336 -0.00209703 0)
(0.932866 -0.00202238 0)
(0.932156 -0.00194999 0)
(0.931479 -0.00188468 0)
(0.93081 -0.00181963 0)
(0.930205 -0.00176768 0)
(0.929535 -0.00170875 0)
(0.929083 -0.00168187 0)
(0.92824 -0.00162031 0)
(0.847905 -0.00259617 0)
(0.84673 -0.00249713 0)
(0.8456 -0.00240224 0)
(0.844514 -0.00231128 0)
(0.843469 -0.00222411 0)
(0.842464 -0.0021405 0)
(0.841497 -0.00206041 0)
(0.840567 -0.00198356 0)
(0.839672 -0.00191007 0)
(0.838811 -0.00183955 0)
(0.837982 -0.00177244 0)
(0.837183 -0.00170802 0)
(0.836415 -0.00164741 0)
(0.835672 -0.00158931 0)
(0.834963 -0.00153608 0)
(0.834263 -0.00148547 0)
(0.833624 -0.00144228 0)
(0.832927 -0.00140171 0)
(0.832441 -0.00137777 0)
(0.831563 -0.00134616 0)
(0.7426 -0.00199327 0)
(0.741445 -0.00191747 0)
(0.740334 -0.00184485 0)
(0.739266 -0.00177522 0)
(0.738239 -0.00170849 0)
(0.737251 -0.00164448 0)
(0.7363 -0.00158315 0)
(0.735385 -0.00152433 0)
(0.734504 -0.00146806 0)
(0.733656 -0.0014141 0)
(0.732839 -0.00136271 0)
(0.732053 -0.00131352 0)
(0.731296 -0.00126712 0)
(0.730564 -0.00122311 0)
(0.729864 -0.00118225 0)
(0.729175 -0.00114529 0)
(0.72854 -0.0011116 0)
(0.727857 -0.0010876 0)
(0.727361 -0.00106778 0)
(0.726501 -0.00106653 0)
(0.628025 -0.00141816 0)
(0.626956 -0.00136444 0)
(0.625928 -0.00131295 0)
(0.62494 -0.00126359 0)
(0.623988 -0.00121626 0)
(0.623073 -0.00117087 0)
(0.622192 -0.00112737 0)
(0.621344 -0.00108564 0)
(0.620528 -0.00104573 0)
(0.619742 -0.00100747 0)
(0.618985 -0.00097103 0)
(0.618256 -0.000936231 0)
(0.617554 -0.00090334 0)
(0.616875 -0.000872463 0)
(0.616223 -0.000843483 0)
(0.615585 -0.000818653 0)
(0.614989 -0.000794438 0)
(0.614358 -0.000783938 0)
(0.613882 -0.000769101 0)
(0.613083 -0.000795993 0)
(0.504298 -0.000902671 0)
(0.503377 -0.000868622 0)
(0.50249 -0.000835982 0)
(0.501638 -0.000804679 0)
(0.500817 -0.000774665 0)
(0.500027 -0.000745872 0)
(0.499266 -0.000718277 0)
(0.498534 -0.000691807 0)
(0.497829 -0.000666484 0)
(0.49715 -0.000642226 0)
(0.496496 -0.000619115 0)
(0.495866 -0.000597093 0)
(0.495258 -0.000576253 0)
(0.494671 -0.000556889 0)
(0.494107 -0.000538526 0)
(0.493554 -0.000523776 0)
(0.493035 -0.000508235 0)
(0.49249 -0.00050717 0)
(0.492062 -0.00049737 0)
(0.491364 -0.000546586 0)
(0.371557 -0.000476363 0)
(0.370838 -0.00045848 0)
(0.370146 -0.000441332 0)
(0.369481 -0.000424883 0)
(0.36884 -0.000409107 0)
(0.368223 -0.00039397 0)
(0.367628 -0.000379461 0)
(0.367056 -0.000365542 0)
(0.366505 -0.000352229 0)
(0.365974 -0.000339477 0)
(0.365463 -0.000327333 0)
(0.36497 -0.000315783 0)
(0.364494 -0.000304841 0)
(0.364034 -0.000294798 0)
(0.363591 -0.000285134 0)
(0.363159 -0.000278048 0)
(0.362748 -0.000269648 0)
(0.362321 -0.000273383 0)
(0.361972 -0.000267593 0)
(0.361407 -0.000327853 0)
(0.229936 -0.000173435 0)
(0.229469 -0.000166963 0)
(0.22902 -0.000160756 0)
(0.228587 -0.0001548 0)
(0.22817 -0.000149086 0)
(0.227769 -0.000143601 0)
(0.227383 -0.000138344 0)
(0.227011 -0.000133299 0)
(0.226652 -0.000128475 0)
(0.226307 -0.000123855 0)
(0.225974 -0.000119458 0)
(0.225652 -0.000115287 0)
(0.225343 -0.000111325 0)
(0.225043 -0.000107761 0)
(0.224754 -0.000104218 0)
(0.224472 -0.000102053 0)
(0.224202 -9.86974e-05 0)
(0.223923 -0.000102816 0)
(0.223685 -9.97091e-05 0)
(0.223286 -0.000151877 0)
(0.0795458 -2.88684e-05 0)
(0.079376 -2.78025e-05 0)
(0.0792125 -2.67796e-05 0)
(0.079055 -2.57972e-05 0)
(0.0789034 -2.48546e-05 0)
(0.0787574 -2.39489e-05 0)
(0.0786167 -2.30811e-05 0)
(0.0784811 -2.22475e-05 0)
(0.0783505 -2.14514e-05 0)
(0.0782245 -2.06884e-05 0)
(0.0781031 -1.99635e-05 0)
(0.0779859 -1.92785e-05 0)
(0.0778729 -1.86239e-05 0)
(0.0777635 -1.806e-05 0)
(0.0776579 -1.74522e-05 0)
(0.0775545 -1.72325e-05 0)
(0.0774558 -1.65316e-05 0)
(0.0773526 -1.81829e-05 0)
(0.0772619 -1.7291e-05 0)
(0.0770874 -3.84149e-05 0)
)
;

boundaryField
{
    fixedWalls
    {
        type            noSlip;
    }
    inlet
    {
        type            fixedValue;
        value           nonuniform 0();
    }
    outlet
    {
        type            zeroGradient;
    }
    frontAndBack
    {
        type            empty;
    }
    procBoundary7to3
    {
        type            processor;
        value           nonuniform List<vector> 
20
(
(1.44573 0.000506066 0)
(1.44769 0.00048676 0)
(1.44958 0.000468216 0)
(1.45139 0.000450442 0)
(1.45314 0.000433401 0)
(1.45482 0.000416965 0)
(1.45643 0.000401205 0)
(1.45799 0.000386035 0)
(1.45948 0.000371605 0)
(1.46093 0.000357548 0)
(1.46231 0.00034441 0)
(1.46365 0.000331276 0)
(1.46492 0.000319608 0)
(1.46619 0.000306944 0)
(1.46733 0.000297293 0)
(1.46856 0.000284417 0)
(1.46954 0.000277835 0)
(1.47083 0.000263287 0)
(1.47149 0.000261006 0)
(1.47312 0.000244473 0)
)
;
    }
    procBoundary7to6
    {
        type            processor;
        value           nonuniform List<vector> 
20
(
(1.44369 -0.000526008 0)
(1.43868 -0.00155405 0)
(1.4285 -0.0025114 0)
(1.41286 -0.00335583 0)
(1.39132 -0.00405205 0)
(1.36338 -0.00457378 0)
(1.32848 -0.00490514 0)
(1.28605 -0.0050413 0)
(1.23556 -0.00498828 0)
(1.17655 -0.0047621 0)
(1.10862 -0.00438721 0)
(1.03151 -0.0038946 0)
(0.945034 -0.00331956 0)
(0.849127 -0.00269957 0)
(0.743801 -0.00207238 0)
(0.629136 -0.00147423 0)
(0.505256 -0.000938197 0)
(0.372305 -0.000495016 0)
(0.230422 -0.00018018 0)
(0.0797222 -2.99784e-05 0)
)
;
    }
}


// ************************************************************************* //
