/*--------------------------------*- C++ -*----------------------------------*\
| =========                 |                                                 |
| \\      /  F ield         | OpenFOAM: The Open Source CFD Toolbox           |
|  \\    /   O peration     | Version:                                        |
|   \\  /    A nd           | Website:  www.openfoam.com                      |
|    \\/     M anipulation  |                                                 |
\*---------------------------------------------------------------------------*/
FoamFile
{
    version     2.0;
    format      ascii;
    class       volScalarField;
    location    "108";
    object      p;
}
// * * * * * * * * * * * * * * * * * * * * * * * * * * * * * * * * * * * * * //

dimensions      [0 2 -2 0 0 0 0];


internalField   nonuniform List<scalar> 
1150
(
0.198285
0.208668
0.219582
0.202277
0.212987
0.223871
0.203649
0.213837
0.224343
0.202751
0.211881
0.19932
0.206966
0.193281
0.0631812
0.0583737
0.0611415
0.0613422
0.0631892
0.0629267
0.0646702
0.0654394
0.0666718
0.0680575
0.0702127
0.0718538
0.0743145
0.0771136
0.0800274
0.083187
0.0869734
0.0911998
0.0957981
0.10078
0.106455
0.112735
0.119584
0.126994
0.135179
0.144082
0.153704
0.163969
0.174995
0.186873
0.0634741
0.0587556
0.06133
0.0617481
0.0636682
0.0631613
0.0651963
0.0661094
0.0668505
0.0686735
0.0712337
0.0722691
0.0750002
0.0782163
0.0809248
0.0840752
0.0880459
0.0924926
0.0971146
0.102185
0.107976
0.114439
0.121439
0.129007
0.137368
0.146438
0.156219
0.166694
0.178024
0.190271
0.063702
0.0591842
0.0614904
0.0621607
0.0641017
0.0634331
0.0657335
0.0667299
0.067039
0.0692979
0.0721694
0.0726623
0.0757251
0.0792583
0.0817721
0.0849298
0.0890455
0.0936024
0.0982334
0.103324
0.109184
0.115618
0.122823
0.130331
0.138747
0.148034
0.158012
0.1686
0.180019
0.192282
0.0638725
0.0596547
0.061633
0.0625663
0.0644863
0.0636688
0.0662897
0.0672772
0.0672506
0.0699771
0.0729652
0.0730223
0.0765409
0.0800433
0.0825927
0.0857084
0.0900382
0.0946407
0.099381
0.104442
0.110607
0.117281
0.124326
0.132151
0.140656
0.149596
0.159403
0.16976
0.180872
0.192412
0.0639871
0.0601625
0.0617637
0.062972
0.0648076
0.0639408
0.0668325
0.0677477
0.0674944
0.0706918
0.073622
0.073342
0.0774319
0.0810207
0.0833838
0.0867685
0.0908308
0.0955764
0.10026
0.105267
0.111175
0.117789
0.124864
0.13234
0.140594
0.149381
0.15897
0.168974
0.179668
0.190432
0.0640577
0.0606993
0.0618989
0.0633557
0.0650737
0.0641945
0.0673889
0.0681386
0.0677895
0.0714665
0.0741384
0.0740743
0.0784002
0.0816284
0.0842869
0.0876811
0.0918123
0.0966308
0.101296
0.106541
0.112654
0.118987
0.125954
0.13327
0.141337
0.149687
0.158754
0.167892
0.177529
0.186615
0.0640832
0.0612605
0.0620424
0.0637205
0.0652758
0.0644974
0.06788
0.0684702
0.0681269
0.0722156
0.0744766
0.0745898
0.0791895
0.0821601
0.0850477
0.088314
0.0922778
0.0972936
0.101549
0.106846
0.112642
0.118722
0.125432
0.132297
0.13994
0.147565
0.155985
0.164126
0.172695
0.1802
0.0640759
0.0618361
0.0622141
0.0640461
0.0654253
0.0647938
0.0683384
0.0687532
0.0685598
0.0730312
0.074747
0.0753338
0.0801975
0.082741
0.0861777
0.0891901
0.0935433
0.0984308
0.102812
0.108147
0.114102
0.119879
0.126527
0.132974
0.140035
0.146925
0.15408
0.160606
0.167139
0.0640351
0.0624224
0.0624148
0.0643318
0.0655408
0.0651139
0.0687124
0.0690313
0.0689579
0.0735939
0.074856
0.0759649
0.0805878
0.0829947
0.0868955
0.0893438
0.093903
0.0986023
0.102635
0.108205
0.113158
0.118911
0.124773
0.130707
0.136976
0.142604
0.148821
0.153304
0.158372
0.0639706
0.0630031
0.0626712
0.0645649
0.0655905
0.0654617
0.0690342
0.0693256
0.0695616
0.0743373
0.0750177
0.0770712
0.0813456
0.0837078
0.0879937
0.0903288
0.0957112
0.0998207
0.104259
0.109958
0.11493
0.120198
0.12607
0.131062
0.136461
0.140761
0.14455
0.146536
0.0638867
0.0635228
0.063011
0.064776
0.0655675
0.0657299
0.0691448
0.0695752
0.0699009
0.0747596
0.0750217
0.0776342
0.0813443
0.0839651
0.0882641
0.0899596
0.0961432
0.0987615
0.104044
0.109111
0.112752
0.118648
0.12275
0.127631
0.131241
0.134704
0.136002
0.137126
0.0638067
0.063998
0.0632754
0.0650174
0.0655564
0.0660089
0.0691183
0.0698785
0.0700454
0.074976
0.0750251
0.078019
0.0811028
0.084117
0.0876485
0.0897612
0.0951572
0.0977111
0.102608
0.107466
0.110278
0.115815
0.118826
0.122855
0.125494
0.127117
0.127446
0.127157
0.0637586
0.0644543
0.0635531
0.0652988
0.0656269
0.066298
0.0691296
0.0701891
0.0702056
0.075194
0.0750333
0.0782293
0.0809635
0.0840941
0.0873492
0.0896492
0.0942933
0.0970234
0.101024
0.105783
0.107821
0.112519
0.115257
0.117675
0.11978
0.119959
0.119565
0.118323
0.063742
0.0648845
0.0638697
0.0656017
0.0658049
0.0666486
0.069192
0.0704702
0.0704617
0.0752211
0.0751453
0.0783322
0.0809133
0.0838507
0.0870989
0.0892649
0.093382
0.0961361
0.099395
0.103749
0.105216
0.109008
0.111466
0.112497
0.11402
0.113412
0.112334
0.110815
0.0637745
0.0652788
0.0642319
0.065902
0.066122
0.0669772
0.0693126
0.0707111
0.0707812
0.0750952
0.0754387
0.0782252
0.0809231
0.0834274
0.0866985
0.0887681
0.0923075
0.0949166
0.0977295
0.101499
0.102596
0.105204
0.107476
0.107767
0.10839
0.107439
0.105961
0.10437
0.0638635
0.065611
0.0646603
0.0661929
0.0665299
0.0672656
0.0694892
0.0708911
0.0711462
0.0749057
0.0757713
0.0779355
0.0809188
0.0829893
0.085843
0.0881947
0.0907594
0.0934109
0.0959222
0.0990455
0.0999153
0.101368
0.103433
0.10335
0.1031
0.101974
0.10043
0.0987589
0.0640166
0.0658613
0.0651446
0.066448
0.0669998
0.0675222
0.0696362
0.0710537
0.0715003
0.0746772
0.0760775
0.077594
0.0807134
0.082655
0.0846624
0.0874753
0.0896316
0.0917251
0.0938412
0.0963955
0.0972811
0.0977655
0.0992545
0.0991347
0.0984103
0.0970756
0.0954695
0.0937284
0.0642362
0.0660095
0.0656505
0.0666801
0.0674579
0.0677707
0.0696841
0.071239
0.0718199
0.0743833
0.0762974
0.077302
0.0802095
0.0823777
0.0835783
0.086404
0.0885026
0.090028
0.0916096
0.0935707
0.0945355
0.0944006
0.0952052
0.0951721
0.0942311
0.092629
0.090875
0.0891266
0.0645078
0.066079
0.0660876
0.0668988
0.0678477
0.0680428
0.0696242
0.0714248
0.0721028
0.074
0.0763835
0.0771064
0.0794254
0.0820191
0.0827608
0.0850189
0.0871852
0.0883811
0.089368
0.090679
0.0916165
0.0913489
0.0915231
0.0913351
0.0903455
0.088624
0.0867764
0.0850287
0.0648078
0.0661361
0.0663875
0.0670999
0.0681421
0.0683367
0.0694686
0.0715562
0.0723825
0.0735538
0.0762605
0.0770617
0.0785152
0.0813376
0.0821033
0.0835375
0.0854814
0.0866232
0.087273
0.0879559
0.0886733
0.0884167
0.0881399
0.0877348
0.0867816
0.0851188
0.0832277
0.0814482
0.0651195
0.0662278
0.0665876
0.0672756
0.0684075
0.0686457
0.0693404
0.0715962
0.0726502
0.0731026
0.0758739
0.0770504
0.0776345
0.080274
0.0814195
0.0821747
0.0835418
0.0846782
0.0852431
0.0854833
0.085823
0.0855388
0.0850838
0.0844947
0.0835512
0.0819991
0.0801553
0.0783878
0.0654273
0.0663691
0.0667578
0.0674304
0.0686302
0.0689482
0.0692256
0.0715231
0.072864
0.0727357
0.0752304
0.0769347
0.0769857
0.0789484
0.080436
0.0809909
0.081689
0.0825695
0.083125
0.0831939
0.083216
0.0828391
0.0822521
0.0815502
0.0806133
0.079231
0.0775269
0.0758198
0.0657195
0.0665576
0.0669536
0.0675639
0.0687989
0.0692229
0.069148
0.0713297
0.0729835
0.0724838
0.07442
0.0765802
0.0765425
0.077563
0.0790744
0.079842
0.0800983
0.0804833
0.0808941
0.0809788
0.0808746
0.0803691
0.0796426
0.0788612
0.0779533
0.0767543
0.0752365
0.0736429
0.0659951
0.0667711
0.0671771
0.067674
0.0689168
0.0694493
0.0691071
0.0710576
0.0729545
0.0723358
0.0735453
0.0758863
0.0761626
0.0763454
0.0774882
0.0785228
0.078705
0.0786321
0.0786913
0.0787532
0.0786731
0.0781708
0.0773208
0.0764231
0.0755214
0.0744878
0.0732089
0.0717857
0.0662556
0.0669866
0.0674036
0.0677658
0.0689752
0.0696124
0.069104
0.0707346
0.0727526
0.0722327
0.0727422
0.0748972
0.0756604
0.0753856
0.0759009
0.0769982
0.0773377
0.0770169
0.0766737
0.07657
0.0765423
0.0761748
0.0753105
0.0742927
0.0733328
0.0724082
0.0713625
0.0701505
0.0665019
0.0671879
0.0676069
0.0678384
0.0689732
0.0697044
0.0691237
0.0703957
0.0723835
0.0720867
0.0720945
0.0737523
0.0748467
0.0745918
0.0745337
0.0753754
0.0758439
0.0755409
0.0749222
0.0745637
0.0744976
0.0742816
0.0735396
0.0724696
0.0714265
0.0705277
0.0696581
0.068676
0.0667313
0.0673617
0.0677799
0.0678942
0.0689115
0.0697222
0.0691434
0.0700654
0.0718831
0.0718236
0.0715962
0.0726209
0.0737491
0.0737823
0.0733986
0.0738296
0.0742675
0.074081
0.0733881
0.0728138
0.0726103
0.0724609
0.0719029
0.0709081
0.0698267
0.0688938
0.0681177
0.0673249
0.0669387
0.0675053
0.0679121
0.0679439
0.0688028
0.0696548
0.0691532
0.0697387
0.0712796
0.0714263
0.0711617
0.0716632
0.072536
0.0727812
0.0723992
0.0724778
0.0727216
0.072594
0.0719776
0.0713033
0.0709463
0.0707724
0.0703528
0.0695082
0.0684688
0.0675198
0.06677
0.0661013
0.067125
0.0676097
0.068008
0.0679944
0.0686485
0.0695023
0.0691349
0.0694125
0.0706244
0.0709017
0.0707208
0.07088
0.0713751
0.0716348
0.071387
0.0712856
0.0713179
0.0711649
0.0706252
0.069958
0.0695081
0.0692623
0.0689044
0.0682115
0.0672866
0.0663704
0.065629
0.0650234
0.0672891
0.0676842
0.0680531
0.0680339
0.068494
0.0692611
0.0690552
0.0691214
0.0699452
0.0702675
0.0702266
0.0702146
0.0703644
0.0704709
0.0703188
0.0702037
0.0700938
0.0698433
0.0693328
0.068723
0.0682493
0.0679459
0.0675991
0.0670151
0.0662167
0.0653784
0.0646675
0.0641012
0.0674248
0.0677271
0.068053
0.0680529
0.0683355
0.0689538
0.0688948
0.0688562
0.0693112
0.0695698
0.0696552
0.0695864
0.0694875
0.0694019
0.0692555
0.069164
0.0689888
0.068664
0.0681467
0.0675733
0.0671116
0.0667865
0.0664436
0.0659291
0.0652407
0.0644996
0.0638489
0.0633299
0.0675281
0.0677519
0.0680154
0.0680256
0.0681784
0.0686186
0.0686376
0.0685866
0.0687684
0.0688779
0.069003
0.0689463
0.0687194
0.0684687
0.0682611
0.0681638
0.0679799
0.0676214
0.0670839
0.0665253
0.0660828
0.0657625
0.0654309
0.0649672
0.064365
0.0637169
0.0631397
0.0626785
0.0675969
0.067753
0.0679445
0.0679598
0.0680164
0.0682824
0.0683153
0.068275
0.0683059
0.0682556
0.0683182
0.0682864
0.0680243
0.0676741
0.0673858
0.0672428
0.0670508
0.0666915
0.0661615
0.0656124
0.0651771
0.0648621
0.0645515
0.0641384
0.0636109
0.063041
0.0625291
0.0621215
0.0676243
0.0677284
0.0678529
0.0678537
0.0678455
0.0679763
0.0679698
0.0679148
0.0678747
0.067722
0.067681
0.0676308
0.0673735
0.0669892
0.0666433
0.0664354
0.0662189
0.0658712
0.0653675
0.0648352
0.0644037
0.0640921
0.063804
0.0634394
0.0629785
0.0624759
0.0620202
0.0616597
0.0676129
0.0676773
0.067743
0.067719
0.0676613
0.0676943
0.0676481
0.0675439
0.0674443
0.0672596
0.0671281
0.0670189
0.0667609
0.0663821
0.0660171
0.0657546
0.0655027
0.0651562
0.0646854
0.0641823
0.0637582
0.0634432
0.063169
0.0628498
0.0624548
0.0620177
0.0616118
0.0612878
0.0675684
0.0676012
0.0676221
0.0675692
0.0674693
0.0674332
0.0673558
0.0672004
0.0670392
0.0668416
0.0666604
0.0664905
0.0662176
0.0658492
0.0654846
0.0651914
0.0649117
0.0645628
0.0641193
0.0636438
0.0632277
0.0629072
0.0626408
0.0623586
0.062023
0.0616487
0.0612911
0.0610009
0.0674945
0.0675038
0.0674916
0.0674216
0.0672909
0.0671909
0.0670876
0.0669116
0.0666961
0.0664701
0.0662636
0.0660615
0.0657789
0.0654122
0.0650466
0.0647419
0.0644585
0.0641231
0.0637051
0.0632465
0.0628256
0.0624869
0.0622119
0.0619482
0.0616549
0.0613307
0.0610128
0.0607482
0.0673915
0.0673828
0.0673482
0.0672796
0.0671393
0.066977
0.0668478
0.0666881
0.0664466
0.0661724
0.0659376
0.0657389
0.0654803
0.0651203
0.0647383
0.0644188
0.0641521
0.0638617
0.0634916
0.0630579
0.0626278
0.0622581
0.0619544
0.0616817
0.0613986
0.0610898
0.0607742
0.0604914
0.0672952
0.0672679
0.0671951
0.0671304
0.0670006
0.0667718
0.0666014
0.0664927
0.0662709
0.0659354
0.0656491
0.0654703
0.0652681
0.0649339
0.0645249
0.0641702
0.063921
0.0637117
0.0634508
0.0631161
0.062761
0.0624564
0.0622309
0.0620597
0.0618895
0.0616771
0.0614077
0.0610923
0.0672063
0.0671701
0.0670892
0.0670482
0.066965
0.0667302
0.0665296
0.0664426
0.066247
0.0658732
0.0655199
0.065324
0.0651593
0.0648539
0.0644319
0.0640486
0.0638008
0.0636341
0.0634283
0.0631254
0.0627651
0.0624297
0.0621694
0.0619756
0.061798
0.0615856
0.0613124
0.0609819
)
;

boundaryField
{
    outlet
    {
        type            fixedValue;
        value           nonuniform 0();
    }
    upperWall
    {
        type            symmetryPlane;
    }
    lowerWall
    {
        type            symmetryPlane;
    }
    inlet
    {
        type            zeroGradient;
    }
    cylinder
    {
        type            zeroGradient;
    }
    frontAndBack
    {
        type            empty;
    }
    procBoundary4to0
    {
        type            processor;
        value           nonuniform List<scalar> 
33
(
0.192032
0.201396
0.211535
0.0628213
0.0580422
0.0609228
0.060934
0.0626797
0.0626855
0.0641275
0.0647449
0.0664707
0.0674
0.0691486
0.0713696
0.0736127
0.07593
0.0790208
0.0821885
0.0857657
0.0897349
0.094262
0.099106
0.104585
0.110581
0.11716
0.124292
0.132185
0.140723
0.149961
0.159803
0.170362
0.181609
)
;
    }
    procBoundary4to5
    {
        type            processor;
        value           nonuniform List<scalar> 
45
(
0.231378
0.235439
0.235579
0.221478
0.221478
0.215351
0.199023
0.199023
0.18457
0.18457
0.171757
0.171757
0.159963
0.147676
0.147676
0.134789
0.123804
0.115389
0.108376
0.102216
0.0967328
0.0917979
0.087336
0.0834008
0.0799246
0.0769188
0.0743718
0.0722243
0.0704335
0.0689211
0.0676216
0.066465
0.0654126
0.064456
0.063613
0.0629051
0.0623119
0.0618113
0.0613982
0.0610617
0.0608049
0.0605708
0.0602808
0.0607503
0.0606115
)
;
    }
}


// ************************************************************************* //
