/*--------------------------------*- C++ -*----------------------------------*\
| =========                 |                                                 |
| \\      /  F ield         | OpenFOAM: The Open Source CFD Toolbox           |
|  \\    /   O peration     | Version:                                        |
|   \\  /    A nd           | Website:  www.openfoam.com                      |
|    \\/     M anipulation  |                                                 |
\*---------------------------------------------------------------------------*/
FoamFile
{
    version     2.0;
    format      ascii;
    class       volScalarField;
    location    "0.6";
    object      p;
}
// * * * * * * * * * * * * * * * * * * * * * * * * * * * * * * * * * * * * * //

dimensions      [0 2 -2 0 0 0 0];


internalField   nonuniform List<scalar> 
400
(
0.454916
0.445038
0.435293
0.425678
0.416186
0.406815
0.397559
0.388415
0.379379
0.370448
0.361619
0.352887
0.34425
0.335704
0.327246
0.318874
0.310584
0.302374
0.294241
0.286181
0.455487
0.445556
0.435767
0.426113
0.416588
0.407187
0.397905
0.388738
0.379682
0.370732
0.361886
0.353139
0.344488
0.335929
0.32746
0.319077
0.310777
0.302558
0.294415
0.286348
0.456012
0.446031
0.436198
0.426507
0.41695
0.407521
0.398214
0.389025
0.37995
0.370983
0.362121
0.35336
0.344696
0.336125
0.327646
0.319253
0.310944
0.302716
0.294566
0.286491
0.4565
0.446467
0.436592
0.426863
0.417274
0.407817
0.398487
0.389277
0.380182
0.371199
0.362322
0.353548
0.344872
0.336291
0.327802
0.3194
0.311083
0.302848
0.294691
0.28661
0.457021
0.44693
0.437004
0.427233
0.417608
0.408119
0.398762
0.389528
0.380413
0.371412
0.362519
0.353731
0.345043
0.336451
0.327951
0.31954
0.311215
0.302971
0.294808
0.28672
0.457612
0.44745
0.437464
0.427642
0.417973
0.408447
0.399058
0.389797
0.380658
0.371636
0.362725
0.353921
0.345218
0.336614
0.328102
0.319682
0.311347
0.303096
0.294924
0.28683
0.458289
0.448042
0.437985
0.428102
0.418381
0.408812
0.399385
0.390092
0.380925
0.371879
0.362947
0.354124
0.345405
0.336786
0.328262
0.31983
0.311485
0.303225
0.295045
0.286943
0.459057
0.448713
0.438574
0.428621
0.418841
0.409221
0.399751
0.39042
0.381221
0.372147
0.36319
0.354346
0.345609
0.336973
0.328435
0.31999
0.311633
0.303363
0.295174
0.287063
0.459907
0.449458
0.439228
0.429198
0.419352
0.409675
0.400156
0.390783
0.381548
0.372442
0.363459
0.354591
0.345832
0.337178
0.328623
0.320164
0.311794
0.303512
0.295313
0.287193
0.460818
0.450259
0.439934
0.429823
0.419906
0.410168
0.400597
0.391178
0.381904
0.372764
0.36375
0.354856
0.346075
0.337401
0.328828
0.320352
0.311969
0.303674
0.295463
0.287333
0.461758
0.45109
0.440671
0.430477
0.420488
0.410688
0.401062
0.391597
0.382281
0.373105
0.364061
0.355139
0.346333
0.337638
0.329046
0.320554
0.312155
0.303846
0.295623
0.287483
0.462693
0.451922
0.441411
0.431137
0.421079
0.411218
0.401538
0.392026
0.38267
0.373458
0.364381
0.355432
0.346602
0.337884
0.329273
0.320763
0.312349
0.304027
0.295791
0.287639
0.463589
0.452724
0.442129
0.431781
0.421657
0.411738
0.402008
0.392451
0.383056
0.373809
0.364702
0.355725
0.346871
0.338132
0.329502
0.320975
0.312546
0.304209
0.295961
0.287798
0.464417
0.453469
0.442801
0.432386
0.422203
0.412232
0.402455
0.392858
0.383426
0.374147
0.365012
0.35601
0.347133
0.338374
0.329725
0.321182
0.312738
0.304389
0.296129
0.287954
0.465154
0.454137
0.443405
0.432933
0.422699
0.412682
0.402865
0.393231
0.383767
0.37446
0.365299
0.356274
0.347377
0.338599
0.329935
0.321377
0.312919
0.304558
0.296287
0.288102
0.465785
0.45471
0.443926
0.433407
0.42313
0.413075
0.403224
0.39356
0.384068
0.374736
0.365554
0.356509
0.347594
0.338801
0.330122
0.321551
0.313082
0.30471
0.296429
0.288236
0.466299
0.455179
0.444353
0.433797
0.423486
0.413401
0.403522
0.393833
0.384319
0.374968
0.365767
0.356707
0.347778
0.338972
0.330281
0.3217
0.313221
0.30484
0.296551
0.28835
0.466688
0.455535
0.444679
0.434094
0.423759
0.41365
0.403751
0.394044
0.384514
0.375148
0.365933
0.356861
0.347921
0.339105
0.330406
0.321816
0.31333
0.304942
0.296647
0.28844
0.466949
0.455774
0.444898
0.434295
0.423943
0.41382
0.403907
0.394187
0.384646
0.37527
0.366047
0.356966
0.348019
0.339196
0.330491
0.321896
0.313404
0.305012
0.296713
0.288502
0.46708
0.455894
0.445008
0.434396
0.424036
0.413905
0.403985
0.39426
0.384713
0.375332
0.366104
0.35702
0.348069
0.339243
0.330534
0.321936
0.313443
0.305048
0.296746
0.288534
)
;

boundaryField
{
    fixedWalls
    {
        type            zeroGradient;
    }
    inlet
    {
        type            zeroGradient;
    }
    outlet
    {
        type            fixedValue;
        value           nonuniform 0();
    }
    frontAndBack
    {
        type            empty;
    }
    procBoundary1to0
    {
        type            processor;
        value           nonuniform List<scalar> 
20
(
0.464936
0.465568
0.466152
0.4667
0.467292
0.467967
0.468744
0.469625
0.470599
0.471637
0.472701
0.473752
0.474753
0.475672
0.476486
0.47718
0.477742
0.478167
0.478451
0.478594
)
;
    }
    procBoundary1to2
    {
        type            processor;
        value           nonuniform List<scalar> 
20
(
0.278194
0.278352
0.278489
0.278602
0.278706
0.27881
0.278916
0.279029
0.27915
0.27928
0.27942
0.279566
0.279715
0.279861
0.28
0.280126
0.280233
0.280318
0.280376
0.280406
)
;
    }
    procBoundary1to5
    {
        type            processor;
        value           nonuniform List<scalar> 
20
(
0.46708
0.455894
0.445008
0.434396
0.424036
0.413905
0.403985
0.39426
0.384713
0.375332
0.366104
0.35702
0.348069
0.339243
0.330534
0.321936
0.313443
0.305048
0.296746
0.288534
)
;
    }
}


// ************************************************************************* //
