/*--------------------------------*- C++ -*----------------------------------*\
| =========                 |                                                 |
| \\      /  F ield         | OpenFOAM: The Open Source CFD Toolbox           |
|  \\    /   O peration     | Version:                                        |
|   \\  /    A nd           | Website:  www.openfoam.com                      |
|    \\/     M anipulation  |                                                 |
\*---------------------------------------------------------------------------*/
FoamFile
{
    version     2.0;
    format      ascii;
    class       volScalarField;
    location    "181.6";
    object      p;
}
// * * * * * * * * * * * * * * * * * * * * * * * * * * * * * * * * * * * * * //

dimensions      [0 2 -2 0 0 0 0];


internalField   nonuniform List<scalar> 
1164
(
-0.404363
-0.429351
-0.436429
-0.423526
-0.391208
-0.352243
-0.322564
-0.316995
-0.305613
-0.285801
-0.258998
-0.230512
-0.194175
-0.165922
-0.135776
-0.0992559
-0.31246
-0.282374
-0.251206
-0.217044
-0.180539
-0.149687
-0.123751
-0.10421
-0.088744
-0.0677306
-0.344241
-0.283912
-0.22621
-0.179377
-0.138244
-0.102972
-0.0741085
-0.0521317
-0.0414223
-0.0358723
-0.445114
-0.362016
-0.282426
-0.212219
-0.151143
-0.101286
-0.0642328
-0.0365429
-0.0168971
-0.00432499
-0.517144
-0.40952
-0.309956
-0.229632
-0.168399
-0.121205
-0.0840655
-0.054245
-0.0334852
-0.0160871
-0.485072
-0.388194
-0.296903
-0.210921
-0.133239
-0.0737916
-0.0400662
-0.0220872
-0.0131333
-0.006867
-0.367925
-0.310842
-0.25533
-0.201734
-0.151453
-0.104534
-0.0642026
-0.0333252
-0.0109141
-0.00566834
-0.312897
-0.281035
-0.243578
-0.199756
-0.152876
-0.106517
-0.0686954
-0.0364948
-0.0131058
-0.000551741
-0.266422
-0.265548
-0.263691
-0.25928
-0.241667
-0.211485
-0.165898
-0.114157
-0.0685191
-0.029036
-0.288259
-0.309254
-0.331776
-0.345078
-0.349031
-0.334972
-0.301882
-0.255662
-0.198908
-0.139021
-0.331556
-0.37249
-0.414353
-0.451145
-0.481187
-0.489974
-0.481043
-0.437683
-0.38247
-0.317703
-0.331227
-0.379134
-0.45822
-0.513636
-0.558563
-0.586127
-0.601376
-0.553234
-0.508486
-0.43099
-0.290251
-0.318318
-0.347113
-0.373811
-0.397294
-0.417714
-0.429122
-0.422148
-0.406863
-0.361549
-0.288
-0.304769
-0.315817
-0.321363
-0.320066
-0.315357
-0.304822
-0.290131
-0.277641
-0.259733
-0.244066
-0.250834
-0.254958
-0.255807
-0.2524
-0.245981
-0.235198
-0.222562
-0.208438
-0.188809
-0.189069
-0.180445
-0.17282
-0.166262
-0.159877
-0.154614
-0.149588
-0.145435
-0.13982
-0.127243
-0.202413
-0.190164
-0.177447
-0.165459
-0.153174
-0.141039
-0.129251
-0.119752
-0.113031
-0.102048
-0.228908
-0.212042
-0.193132
-0.174387
-0.156054
-0.138515
-0.122729
-0.10871
-0.0982922
-0.0895537
-0.225994
-0.213819
-0.199904
-0.185198
-0.170449
-0.155927
-0.140992
-0.124675
-0.106654
-0.0879436
-0.178863
-0.174079
-0.168506
-0.16226
-0.155238
-0.147175
-0.137911
-0.127018
-0.114671
-0.102638
-0.169452
-0.167705
-0.164906
-0.161543
-0.158054
-0.154069
-0.149726
-0.144632
-0.137543
-0.129597
-0.184356
-0.183755
-0.182906
-0.181821
-0.180375
-0.178409
-0.175291
-0.170354
-0.16294
-0.152388
-0.2009
-0.201914
-0.201913
-0.200907
-0.199141
-0.195838
-0.190692
-0.183186
-0.172563
-0.158028
-0.150908
-0.15367
-0.155567
-0.156387
-0.15623
-0.15486
-0.15173
-0.146372
-0.139176
-0.130788
-0.132325
-0.137248
-0.142812
-0.148751
-0.154784
-0.160274
-0.164754
-0.167667
-0.169047
-0.168643
-0.160922
-0.176745
-0.19384
-0.211653
-0.229221
-0.245699
-0.260075
-0.271514
-0.27914
-0.282127
-0.141761
-0.145929
-0.150747
-0.156325
-0.162309
-0.168868
-0.175177
-0.18085
-0.185132
-0.186711
-0.0503975
-0.041284
-0.0327631
-0.0250218
-0.0184256
-0.0130884
-0.00910785
-0.00643672
-0.00544373
-0.00596834
-0.00740176
-0.00340084
-0.000114277
0.00237836
0.00401305
0.00484345
0.00492578
0.00441039
0.00333432
0.00187861
-0.0289951
-0.0106797
-0.00334029
0.0110421
0.0143581
0.0220042
0.0236058
0.0253834
0.0263469
0.026236
0.0260738
0.0256781
0.0251815
0.024752
0.0243612
0.0240433
0.0237918
0.0236066
0.0234791
0.0234226
0.0234278
0.0234861
0.0235774
0.0236662
0.0237631
0.0238587
0.0239049
0.0239515
-0.0401184
-0.0226162
-0.00961142
0.00376848
0.00620903
0.0183729
0.0173981
0.0239669
0.0239132
0.0265292
0.0270588
0.0272008
0.0272703
0.0268464
0.0265194
0.026113
0.0256562
0.0252312
0.0248704
0.0245693
0.0243506
0.0241941
0.0241016
0.0240512
0.0240317
0.0240269
0.0240415
0.0240678
0.0240683
0.0240878
-0.019692
-0.0074442
0.00114666
0.0110892
0.018185
0.0257697
0.0263496
0.0299741
0.0288414
0.0299818
0.0292636
0.0290526
0.0287153
0.0281971
0.0277081
0.0272391
0.0267717
0.0263438
0.0258994
0.0255078
0.0251678
0.0249035
0.0247043
0.0245624
0.0244594
0.0243768
0.0243168
0.0242821
0.0242394
0.0242338
0.00588516
0.0149812
0.0199689
0.0216843
0.0253318
0.0235144
0.0285584
0.0300294
0.0309201
0.0318147
0.0310635
0.0306252
0.0300291
0.0293442
0.0288006
0.0281874
0.0276243
0.0270593
0.0265627
0.0261359
0.025765
0.0254465
0.025179
0.024975
0.0248041
0.0246639
0.0245508
0.0244738
0.0244029
0.024379
-0.00362808
0.00244741
0.00702504
0.00520286
0.0190634
0.0182267
0.0273
0.027702
0.0299635
0.0307811
0.03104
0.0310846
0.0306133
0.0299862
0.0293713
0.0288056
0.028269
0.0277201
0.0271896
0.0266909
0.0262517
0.025882
0.0255658
0.025336
0.0251148
0.0249266
0.0247718
0.024658
0.0245623
0.0245219
-0.00177705
0.00102272
0.00339225
0.00656731
0.0155111
0.02169
0.0278692
0.0306106
0.0328888
0.0333846
0.033252
0.0329603
0.0322771
0.0315427
0.030696
0.0298991
0.0291604
0.0285135
0.0279478
0.0274228
0.026956
0.0265183
0.0261292
0.0258002
0.0254989
0.0252406
0.0250243
0.0248562
0.0247243
0.0246614
0.000573395
0.00971842
0.017482
0.021848
0.0281493
0.0329082
0.0369391
0.0379062
0.0386334
0.0378466
0.0370952
0.0357619
0.034328
0.0329313
0.0318601
0.0309792
0.030191
0.0294724
0.0287864
0.0281894
0.02766
0.0271791
0.0267447
0.0263351
0.0259566
0.0256134
0.0253143
0.0250758
0.0248925
0.0248003
0.0156183
0.0282995
0.0418576
0.0366818
0.0400542
0.0450753
0.0485738
0.047195
0.0445395
0.0418962
0.0401484
0.0382785
0.0364727
0.0347434
0.0332814
0.0320276
0.0310934
0.0303022
0.029637
0.0290169
0.0284206
0.0278454
0.0273091
0.0268161
0.0263584
0.0259417
0.0255767
0.0252771
0.0250508
0.0249329
0.0033421
0.0252087
0.0388729
0.0418452
0.0460912
0.0535528
0.0562672
0.0538561
0.0502815
0.0465205
0.0423396
0.0389564
0.0364096
0.0346063
0.0332893
0.032273
0.0313963
0.0306004
0.0299392
0.0293413
0.0287921
0.0282429
0.0277077
0.027174
0.0266668
0.0261974
0.0257785
0.0254362
0.0251794
0.0250423
-0.0793998
-0.0348596
-0.0126251
0.00364978
0.0232633
0.0363817
0.0371837
0.0372097
0.0381198
0.0382995
0.0377263
0.0367798
0.0350309
0.0338404
0.0327731
0.032102
0.0315222
0.0310281
0.0304845
0.0299058
0.0292897
0.0286861
0.0280848
0.0275021
0.0269466
0.0264212
0.0259553
0.02557
0.02528
0.025124
-0.249199
-0.193526
-0.148713
-0.0949736
-0.0429988
-0.00797583
0.0080906
0.0168053
0.0216278
0.025208
0.0282635
0.0300009
0.0314098
0.0319306
0.0321427
0.0319631
0.0316899
0.0313322
0.0309453
0.030478
0.0299453
0.0293283
0.0286691
0.0279909
0.0273252
0.0267065
0.0261547
0.0256983
0.0253584
0.0251739
-0.368876
-0.316044
-0.24625
-0.168745
-0.0952133
-0.0433876
-0.0103742
0.00655675
0.0153722
0.021295
0.0234966
0.0265254
0.0278694
0.0293896
0.0306032
0.0315897
0.0319954
0.0320412
0.0316907
0.0311959
0.0305681
0.0298968
0.0291763
0.0284281
0.0276894
0.026979
0.0263402
0.0258086
0.0254111
0.0251957
-0.320168
-0.277619
-0.225908
-0.170399
-0.115719
-0.0712134
-0.036138
-0.013274
0.00426841
0.0136468
0.0214608
0.0255063
0.0285391
0.0297912
0.0311637
0.0318322
0.0323955
0.0325728
0.032441
0.0319833
0.0313206
0.030515
0.0296501
0.0287831
0.0279317
0.0271385
0.0264312
0.0258409
0.025404
0.0251656
-0.22842
-0.197801
-0.169654
-0.139644
-0.114757
-0.0842279
-0.0606105
-0.0374501
-0.016524
-0.00153478
0.0112441
0.0194523
0.0254747
0.0292141
0.0315834
0.0328029
0.03331
0.0332949
0.03293
0.032394
0.0316831
0.0308689
0.0299789
0.0290315
0.0281018
0.0272261
0.026442
0.025797
0.0253195
0.0250587
-0.162123
-0.138556
-0.115807
-0.0920272
-0.070014
-0.0454694
-0.0272067
-0.00972738
-0.000379444
0.0135803
0.0189603
0.0266276
0.0299224
0.0330308
0.034616
0.0355942
0.0358569
0.0355597
0.0348391
0.0338601
0.0327598
0.0316294
0.0304758
0.0293597
0.0282922
0.0272968
0.0264219
0.0257002
0.0251673
0.0248775
-0.112109
-0.096644
-0.0815328
-0.0652957
-0.0475699
-0.0282712
-0.00825438
0.0113013
0.0228189
0.0341257
0.0375635
0.0410889
0.0413171
0.0411521
0.0403027
0.0393045
0.0382411
0.0371819
0.0361193
0.0349526
0.0337193
0.0323899
0.0310509
0.0297323
0.0284788
0.0273423
0.0263444
0.0255296
0.0249329
0.0246087
-0.0883129
-0.0757411
-0.0658373
-0.0573973
-0.0489976
-0.0401116
-0.0240378
-0.00145799
0.0232387
0.040387
0.0501392
0.05303
0.0523022
0.050371
0.0476757
0.0450056
0.0424423
0.0400988
0.0379779
0.0360958
0.0343675
0.0327816
0.031253
0.0297938
0.0284386
0.0271956
0.0261125
0.0252327
0.0245871
0.0242382
-0.0773894
-0.0646835
-0.0546119
-0.0471132
-0.0411694
-0.0349082
-0.022935
-0.00124086
0.0300622
0.0468455
0.054592
0.0558024
0.0548847
0.0523917
0.0497582
0.0470856
0.0445729
0.0420543
0.0396838
0.0373856
0.0352689
0.0332832
0.0314386
0.0297638
0.0282277
0.0268666
0.025702
0.0247608
0.0240787
0.0237096
-0.0712739
-0.0592637
-0.05012
-0.0455735
-0.0413903
-0.0335034
-0.0195192
0.00135453
0.0283715
0.0486056
0.0570253
0.0574872
0.0541619
0.0508365
0.0474218
0.0452527
0.0429654
0.0411065
0.0391217
0.0371999
0.0352544
0.0333017
0.0314267
0.0296163
0.0279503
0.0264661
0.0251859
0.024163
0.023422
0.0230227
-0.0878859
-0.0737861
-0.0628498
-0.0530042
-0.0417172
-0.0298966
-0.0170345
-0.0035065
0.0119177
0.027489
0.0389648
0.0453411
0.0486094
0.0484982
0.0476521
0.045894
0.0439703
0.041865
0.039676
0.0374852
0.0352782
0.033159
0.0310996
0.0291728
0.0274092
0.025824
0.0244737
0.0233907
0.0226066
0.0221865
-0.119014
-0.106246
-0.0922403
-0.0770095
-0.060632
-0.0444382
-0.0287369
-0.0127776
0.00229719
0.0158732
0.0292045
0.0354857
0.0413344
0.0432713
0.0444406
0.043789
0.0429088
0.0413168
0.0394185
0.0372555
0.0349937
0.0326777
0.0304632
0.0283975
0.0265039
0.0248514
0.0234497
0.0223365
0.0215394
0.021112
-0.143317
-0.131551
-0.115483
-0.0963723
-0.0755824
-0.0533347
-0.031374
-0.0115713
0.00603898
0.020146
0.0299889
0.0369987
0.0400547
0.0431298
0.0436465
0.0438173
0.0428559
0.0411974
0.0390341
0.0367429
0.0342565
0.0318374
0.0295149
0.0273158
0.0253575
0.0236354
0.0221825
0.0210422
0.020225
0.0197901
-0.144044
-0.12934
-0.110964
-0.0896418
-0.0661406
-0.0408221
-0.0155848
0.00619245
0.0248795
0.0415851
0.0492421
0.0544223
0.055003
0.0541856
0.0513937
0.048971
0.0460708
0.0429186
0.039838
0.0366329
0.0336184
0.0308429
0.0282184
0.0259069
0.023862
0.0220903
0.0206301
0.0194811
0.0186664
0.0182334
-0.121018
-0.109098
-0.0947829
-0.077851
-0.0587525
-0.038282
-0.0170586
0.0030049
0.0201439
0.0356443
0.045034
0.050575
0.0541322
0.0538487
0.0517679
0.0494522
0.0454604
0.0420816
0.038408
0.0349075
0.0317748
0.0287833
0.0261416
0.0238218
0.021775
0.0200632
0.0186473
0.0175474
0.0167742
0.0163625
-0.16625
-0.161294
-0.151974
-0.137712
-0.118365
-0.0927562
-0.0611508
-0.0259567
0.0092646
0.0420939
0.0656488
0.0729603
0.0720785
0.065125
0.0596485
0.051285
0.0461956
0.0414945
0.0368544
0.0329116
0.0293024
0.0261603
0.0235082
0.0211775
0.0192314
0.0176064
0.0162764
0.0152608
0.0145439
0.0141663
-0.27893
-0.270941
-0.257528
-0.234382
-0.202166
-0.161427
-0.111212
-0.0575163
-0.00826471
0.0305889
0.0559129
0.0620764
0.0628975
0.0579727
0.0536181
0.0478799
0.0426987
0.0374712
0.0329264
0.0289263
0.0253694
0.0224644
0.0199545
0.017849
0.0161113
0.0146562
0.0134936
0.0126003
0.0119748
0.0116466
-0.18797
-0.188785
-0.184241
-0.171266
-0.150169
-0.122034
-0.0863953
-0.0451884
-0.00417531
0.0280207
0.0443846
0.0439241
0.0416195
0.0388684
0.0354216
0.0323552
0.0292345
0.0262004
0.0235674
0.0209668
0.0187658
0.0167849
0.0150091
0.0135016
0.0121874
0.011088
0.0101936
0.00949941
0.00901562
0.00875957
-0.00799455
-0.0108576
-0.0145474
-0.0194889
-0.0258601
-0.0331206
-0.0402205
-0.0450182
-0.0444639
-0.00957313
-0.00551788
0.00310918
0.0112794
0.0163675
0.0182911
0.0192445
0.0182361
0.0170397
0.0152327
0.0135291
0.0120349
0.0106801
0.00954782
0.0085658
0.00771844
0.00701517
0.00643234
0.00598525
0.00567063
0.00550498
0.000186577
-0.00145552
-0.00321959
-0.00511394
-0.00704006
-0.00872173
-0.00975196
-0.00973688
-0.00844679
-0.00403032
-0.00200041
0.00140644
0.00410178
0.00460426
0.00617705
0.00667239
0.00668101
0.00649766
0.00588636
0.00525938
0.00459346
0.00398726
0.00348424
0.00306066
0.00272123
0.00244765
0.00222821
0.0020652
0.00195002
0.00189107
)
;

boundaryField
{
    outlet
    {
        type            fixedValue;
        value           uniform 0;
    }
    upperWall
    {
        type            symmetryPlane;
    }
    lowerWall
    {
        type            symmetryPlane;
    }
    inlet
    {
        type            zeroGradient;
    }
    cylinder
    {
        type            zeroGradient;
    }
    frontAndBack
    {
        type            empty;
    }
    procBoundary3to2
    {
        type            processor;
        value           nonuniform List<scalar> 
43
(
-0.544282
-0.600823
-0.628481
-0.623037
-0.579564
-0.511027
-0.295831
-0.295831
-0.248195
-0.19513
-0.128826
-0.070636
-0.0363733
-0.0147178
-0.0005172
0.00883038
0.0166471
0.0198538
0.0233917
0.0233406
0.0248385
0.0246188
0.0245207
0.0242746
0.0239721
0.0236214
0.0233262
0.023061
0.0228692
0.0227579
0.0227369
0.0227891
0.0228962
0.0230426
0.0232171
0.0233815
0.0235359
0.0236812
0.0237596
0.0238262
-0.070636
-0.0465642
-0.0465642
)
;
    }
    procBoundary3to7
    {
        type            processor;
        value           nonuniform List<scalar> 
30
(
-0.370888
-0.320623
-0.333276
-0.398558
-0.523372
-0.620322
-0.579614
-0.424913
-0.341709
-0.265779
-0.266558
-0.292013
-0.280063
-0.260402
-0.266531
-0.236573
-0.197931
-0.214308
-0.245347
-0.237131
-0.182909
-0.170325
-0.184863
-0.198781
-0.147225
-0.128008
-0.146476
-0.137489
-0.0596317
-0.0119749
)
;
    }
}


// ************************************************************************* //
