/*--------------------------------*- C++ -*----------------------------------*\
| =========                 |                                                 |
| \\      /  F ield         | OpenFOAM: The Open Source CFD Toolbox           |
|  \\    /   O peration     | Version:                                        |
|   \\  /    A nd           | Website:  www.openfoam.com                      |
|    \\/     M anipulation  |                                                 |
\*---------------------------------------------------------------------------*/
FoamFile
{
    version     2.0;
    format      ascii;
    class       volScalarField;
    location    "0.1";
    object      p;
}
// * * * * * * * * * * * * * * * * * * * * * * * * * * * * * * * * * * * * * //

dimensions      [0 2 -2 0 0 0 0];


internalField   nonuniform List<scalar> 
400
(
0.327819
0.319527
0.311233
0.302936
0.294639
0.286342
0.278043
0.269745
0.261445
0.253146
0.244846
0.236547
0.228247
0.219948
0.211649
0.20335
0.195051
0.186752
0.178453
0.170154
0.327818
0.319526
0.311232
0.302936
0.294639
0.286341
0.278043
0.269744
0.261445
0.253146
0.244846
0.236547
0.228247
0.219948
0.211649
0.20335
0.195051
0.186752
0.178453
0.170154
0.327817
0.319526
0.311231
0.302936
0.294639
0.286341
0.278043
0.269744
0.261445
0.253146
0.244846
0.236546
0.228247
0.219948
0.211649
0.20335
0.195051
0.186752
0.178453
0.170154
0.327817
0.319526
0.311231
0.302935
0.294639
0.286341
0.278043
0.269744
0.261445
0.253145
0.244846
0.236546
0.228247
0.219947
0.211648
0.20335
0.195051
0.186752
0.178453
0.170154
0.327817
0.319526
0.311231
0.302935
0.294638
0.286341
0.278042
0.269744
0.261444
0.253145
0.244845
0.236546
0.228246
0.219947
0.211648
0.20335
0.195051
0.186752
0.178453
0.170154
0.327817
0.319526
0.311231
0.302935
0.294638
0.28634
0.278042
0.269743
0.261444
0.253144
0.244845
0.236545
0.228246
0.219947
0.211648
0.203349
0.195051
0.186752
0.178454
0.170154
0.327817
0.319526
0.311231
0.302934
0.294638
0.28634
0.278042
0.269742
0.261443
0.253144
0.244844
0.236545
0.228245
0.219946
0.211648
0.203349
0.195051
0.186752
0.178454
0.170154
0.327817
0.319525
0.31123
0.302934
0.294637
0.28634
0.278041
0.269742
0.261442
0.253143
0.244843
0.236544
0.228245
0.219946
0.211647
0.203349
0.19505
0.186752
0.178454
0.170155
0.327818
0.319525
0.311229
0.302933
0.294637
0.286339
0.27804
0.269741
0.261442
0.253142
0.244843
0.236543
0.228244
0.219945
0.211647
0.203349
0.19505
0.186752
0.178454
0.170155
0.327818
0.319525
0.311229
0.302933
0.294636
0.286339
0.27804
0.269741
0.261441
0.253142
0.244842
0.236543
0.228244
0.219945
0.211646
0.203348
0.19505
0.186752
0.178453
0.170155
0.32782
0.319525
0.311228
0.302933
0.294636
0.286338
0.278039
0.26974
0.261441
0.253141
0.244842
0.236542
0.228243
0.219945
0.211646
0.203348
0.19505
0.186752
0.178453
0.170156
0.327822
0.319525
0.311228
0.302932
0.294636
0.286338
0.278039
0.26974
0.26144
0.253141
0.244841
0.236542
0.228243
0.219944
0.211646
0.203348
0.195049
0.186751
0.178452
0.170156
0.327824
0.319526
0.311227
0.302932
0.294636
0.286338
0.278039
0.26974
0.26144
0.253141
0.244841
0.236542
0.228242
0.219944
0.211645
0.203347
0.195049
0.186751
0.178452
0.170156
0.327827
0.319527
0.311227
0.302933
0.294636
0.286338
0.278039
0.269739
0.26144
0.25314
0.244841
0.236541
0.228242
0.219944
0.211645
0.203347
0.195049
0.186751
0.178451
0.170156
0.32783
0.319528
0.311228
0.302933
0.294637
0.286338
0.278039
0.269739
0.26144
0.25314
0.244841
0.236541
0.228242
0.219943
0.211645
0.203347
0.195049
0.18675
0.17845
0.170156
0.327832
0.319529
0.311228
0.302933
0.294637
0.286338
0.278039
0.269739
0.26144
0.25314
0.244841
0.236541
0.228242
0.219943
0.211645
0.203346
0.195048
0.18675
0.17845
0.170155
0.327833
0.31953
0.311229
0.302934
0.294637
0.286339
0.278039
0.26974
0.26144
0.25314
0.244841
0.236541
0.228242
0.219943
0.211644
0.203346
0.195048
0.18675
0.17845
0.170155
0.327834
0.319532
0.311231
0.302935
0.294638
0.286339
0.278039
0.26974
0.26144
0.25314
0.244841
0.236542
0.228242
0.219943
0.211644
0.203346
0.195047
0.186749
0.17845
0.170154
0.327834
0.319533
0.311232
0.302936
0.294638
0.286339
0.27804
0.26974
0.26144
0.25314
0.244841
0.236542
0.228242
0.219943
0.211644
0.203346
0.195047
0.186749
0.17845
0.170152
0.327834
0.319534
0.311233
0.302936
0.294639
0.286339
0.27804
0.26974
0.26144
0.253141
0.244841
0.236542
0.228242
0.219943
0.211644
0.203346
0.195046
0.186748
0.178451
0.170152
)
;

boundaryField
{
    fixedWalls
    {
        type            zeroGradient;
    }
    inlet
    {
        type            zeroGradient;
    }
    outlet
    {
        type            fixedValue;
        value           nonuniform 0();
    }
    frontAndBack
    {
        type            empty;
    }
    procBoundary2to1
    {
        type            processor;
        value           nonuniform List<scalar> 
20
(
0.336108
0.336107
0.336106
0.336106
0.336106
0.336106
0.336106
0.336106
0.336107
0.336109
0.336111
0.336113
0.336116
0.336119
0.336122
0.336125
0.336128
0.336129
0.33613
0.336131
)
;
    }
    procBoundary2to3
    {
        type            processor;
        value           nonuniform List<scalar> 
20
(
0.161856
0.161856
0.161856
0.161856
0.161856
0.161856
0.161856
0.161857
0.161857
0.161858
0.161858
0.161859
0.16186
0.16186
0.161861
0.16186
0.16186
0.161859
0.161857
0.161856
)
;
    }
    procBoundary2to6
    {
        type            processor;
        value           nonuniform List<scalar> 
20
(
0.327834
0.319534
0.311233
0.302936
0.294639
0.28634
0.27804
0.26974
0.26144
0.253141
0.244841
0.236542
0.228242
0.219943
0.211644
0.203346
0.195046
0.186748
0.178451
0.170152
)
;
    }
}


// ************************************************************************* //
