/*--------------------------------*- C++ -*----------------------------------*\
| =========                 |                                                 |
| \\      /  F ield         | OpenFOAM: The Open Source CFD Toolbox           |
|  \\    /   O peration     | Version:                                        |
|   \\  /    A nd           | Website:  www.openfoam.com                      |
|    \\/     M anipulation  |                                                 |
\*---------------------------------------------------------------------------*/
FoamFile
{
    version     2.0;
    format      ascii;
    class       surfaceScalarField;
    location    "0.1";
    object      phi;
}
// * * * * * * * * * * * * * * * * * * * * * * * * * * * * * * * * * * * * * //

dimensions      [0 3 -1 0 0 0 0];
oriented        oriented;


internalField   nonuniform List<scalar> 
760
(
2.5936e-06
-1.05076e-10
2.59368e-06
-8.37569e-11
2.59374e-06
-5.92501e-11
2.59378e-06
-3.89353e-11
2.5938e-06
-2.64062e-11
2.59382e-06
-1.91042e-11
2.59384e-06
-1.37341e-11
2.59385e-06
-9.5482e-12
2.59385e-06
-5.73755e-12
2.59386e-06
-3.21011e-12
2.59386e-06
-1.06152e-12
2.59386e-06
3.52745e-13
2.59386e-06
8.70452e-13
2.59385e-06
1.16782e-12
2.59385e-06
1.13425e-12
2.59385e-06
7.08849e-13
2.59385e-06
2.7144e-13
2.59385e-06
-7.7258e-13
2.59385e-06
7.62805e-13
2.85343e-12
7.4675e-06
-3.53544e-10
7.4677e-06
-2.80983e-10
7.46784e-06
-2.04023e-10
7.46794e-06
-1.38402e-10
7.46801e-06
-9.43177e-11
7.46805e-06
-6.66043e-11
7.46809e-06
-4.67789e-11
7.46811e-06
-3.17499e-11
7.46812e-06
-1.93969e-11
7.46813e-06
-1.08168e-11
7.46813e-06
-4.47301e-12
7.46814e-06
-1.91228e-13
7.46813e-06
1.77638e-12
7.46813e-06
2.81591e-12
7.46813e-06
3.13968e-12
7.46813e-06
2.19274e-12
7.46813e-06
1.35758e-12
7.46813e-06
-1.59583e-12
7.46813e-06
2.81982e-12
8.26427e-12
1.1931e-05
-6.94882e-10
1.19313e-05
-5.5372e-10
1.19315e-05
-4.10961e-10
1.19316e-05
-2.86646e-10
1.19317e-05
-1.97955e-10
1.19318e-05
-1.38682e-10
1.19319e-05
-9.61894e-11
1.19319e-05
-6.45365e-11
1.19319e-05
-3.99271e-11
1.19319e-05
-2.24083e-11
1.19319e-05
-1.01377e-11
1.19319e-05
-1.81712e-12
1.19319e-05
2.70844e-12
1.19319e-05
4.87278e-12
1.19319e-05
5.69504e-12
1.19319e-05
4.16776e-12
1.19319e-05
3.25387e-12
1.19319e-05
-2.91455e-12
1.19319e-05
4.26892e-12
1.65227e-11
1.59088e-05
-1.08266e-09
1.59091e-05
-8.65998e-10
1.59094e-05
-6.55595e-10
1.59096e-05
-4.70645e-10
1.59097e-05
-3.32033e-10
1.59098e-05
-2.33714e-10
1.59099e-05
-1.61732e-10
1.59099e-05
-1.08079e-10
1.59099e-05
-6.77055e-11
1.591e-05
-3.85905e-11
1.591e-05
-1.85589e-11
1.591e-05
-5.18873e-12
1.591e-05
2.80558e-12
1.591e-05
6.59761e-12
1.591e-05
8.28379e-12
1.591e-05
6.17847e-12
1.591e-05
5.61017e-12
1.591e-05
-4.60938e-12
1.591e-05
2.28732e-12
2.42663e-11
1.93562e-05
-1.47219e-09
1.93565e-05
-1.17902e-09
1.93568e-05
-9.07179e-10
1.9357e-05
-6.70814e-10
1.93571e-05
-4.86549e-10
1.93572e-05
-3.47604e-10
1.93573e-05
-2.42172e-10
1.93574e-05
-1.62329e-10
1.93574e-05
-1.0298e-10
1.93574e-05
-6.01896e-11
1.93575e-05
-3.05664e-11
1.93575e-05
-1.09222e-11
1.93575e-05
1.21397e-12
1.93575e-05
7.08474e-12
1.93575e-05
1.02337e-11
1.93575e-05
7.61698e-12
1.93575e-05
7.54922e-12
1.93575e-05
-5.53345e-12
1.93575e-05
-4.22902e-12
2.4021e-11
2.22608e-05
-1.8187e-09
2.22611e-05
-1.45595e-09
2.22613e-05
-1.13263e-09
2.22615e-05
-8.61185e-10
2.22617e-05
-6.44499e-10
2.22618e-05
-4.70885e-10
2.22619e-05
-3.3273e-10
2.2262e-05
-2.25453e-10
2.2262e-05
-1.44968e-10
2.2262e-05
-8.66367e-11
2.22621e-05
-4.64824e-11
2.22621e-05
-1.98203e-11
2.22621e-05
-2.57984e-12
2.22621e-05
6.08937e-12
2.22621e-05
1.09812e-11
2.22621e-05
8.25802e-12
2.22621e-05
8.15358e-12
2.22621e-05
-4.62058e-12
2.22621e-05
-1.29993e-11
9.35372e-12
2.46403e-05
-2.07755e-09
2.46405e-05
-1.66526e-09
2.46407e-05
-1.30308e-09
2.46409e-05
-1.01561e-09
2.4641e-05
-7.84882e-10
2.46411e-05
-5.89215e-10
2.46412e-05
-4.2443e-10
2.46413e-05
-2.92061e-10
2.46413e-05
-1.91315e-10
2.46414e-05
-1.17146e-10
2.46414e-05
-6.55106e-11
2.46414e-05
-3.12094e-11
2.46414e-05
-8.63441e-12
2.46414e-05
2.9544e-12
2.46414e-05
9.99008e-12
2.46414e-05
8.22407e-12
2.46414e-05
7.09093e-12
2.46414e-05
-2.09785e-12
2.46414e-05
-1.94893e-11
-1.96407e-11
2.65363e-05
-2.20725e-09
2.65364e-05
-1.78227e-09
2.65365e-05
-1.39853e-09
2.65366e-05
-1.11425e-09
2.65367e-05
-8.88755e-10
2.65368e-05
-6.8693e-10
2.65369e-05
-5.0649e-10
2.6537e-05
-3.54953e-10
2.6537e-05
-2.37039e-10
2.6537e-05
-1.48885e-10
2.65371e-05
-8.65385e-11
2.65371e-05
-4.47952e-11
2.65371e-05
-1.66161e-11
2.65371e-05
-1.85071e-12
2.65371e-05
7.40551e-12
2.65371e-05
7.50438e-12
2.65371e-05
4.48053e-12
2.65371e-05
6.58432e-13
2.65371e-05
-2.02669e-11
-5.57407e-11
2.80066e-05
-2.17744e-09
2.80066e-05
-1.79045e-09
2.80066e-05
-1.41031e-09
2.80066e-05
-1.14798e-09
2.80067e-05
-9.44581e-10
2.80067e-05
-7.51434e-10
2.80068e-05
-5.67997e-10
2.80069e-05
-4.06374e-10
2.80069e-05
-2.76915e-10
2.80069e-05
-1.78437e-10
2.80069e-05
-1.07368e-10
2.8007e-05
-5.93066e-11
2.8007e-05
-2.56993e-11
2.8007e-05
-7.51747e-12
2.8007e-05
3.70185e-12
2.8007e-05
5.92834e-12
2.8007e-05
8.29053e-13
2.8007e-05
2.37944e-12
2.8007e-05
-1.46313e-11
-8.87075e-11
2.9117e-05
-1.97875e-09
2.91169e-05
-1.68461e-09
2.91168e-05
-1.34105e-09
2.91168e-05
-1.11837e-09
2.91168e-05
-9.49498e-10
2.91168e-05
-7.76464e-10
2.91169e-05
-6.01504e-10
2.91169e-05
-4.39875e-10
2.91169e-05
-3.06108e-10
2.9117e-05
-2.02282e-10
2.9117e-05
-1.25296e-10
2.9117e-05
-7.26781e-11
2.9117e-05
-3.49439e-11
2.9117e-05
-1.36257e-11
2.9117e-05
-5.60974e-13
2.9117e-05
3.72651e-12
2.9117e-05
-3.03218e-12
2.9117e-05
2.52744e-12
2.9117e-05
-4.6838e-12
-1.10307e-10
2.99346e-05
-1.62847e-09
2.99343e-05
-1.47388e-09
2.99342e-05
-1.20345e-09
2.99341e-05
-1.03608e-09
2.99341e-05
-9.08647e-10
2.99341e-05
-7.62445e-10
2.99341e-05
-6.04419e-10
2.99341e-05
-4.51698e-10
2.99341e-05
-3.20896e-10
2.99341e-05
-2.17359e-10
2.99341e-05
-1.38175e-10
2.99341e-05
-8.32039e-11
2.99341e-05
-4.31999e-11
2.99342e-05
-1.9752e-11
2.99342e-05
-4.8242e-12
2.99342e-05
1.42709e-12
2.99342e-05
-6.22074e-12
2.99342e-05
1.36225e-12
2.99342e-05
6.32665e-12
-1.16313e-10
3.05218e-05
-1.16888e-09
3.05215e-05
-1.1825e-09
3.05213e-05
-1.01842e-09
3.05212e-05
-9.18018e-10
3.05211e-05
-8.33094e-10
3.05211e-05
-7.1509e-10
3.0521e-05
-5.78293e-10
3.0521e-05
-4.41181e-10
3.0521e-05
-3.19661e-10
3.0521e-05
-2.21716e-10
3.0521e-05
-1.44509e-10
3.0521e-05
-8.97135e-11
3.05211e-05
-4.9221e-11
3.05211e-05
-2.51181e-11
3.05211e-05
-8.45234e-12
3.05211e-05
-6.50588e-13
3.05211e-05
-8.10782e-12
3.05211e-05
-4.06451e-13
3.05211e-05
1.53105e-11
-1.05769e-10
3.09336e-05
-6.57902e-10
3.09333e-05
-8.46932e-10
3.09331e-05
-8.12596e-10
3.0933e-05
-7.84051e-10
3.09329e-05
-7.36538e-10
3.09328e-05
-6.43312e-10
3.09327e-05
-5.27783e-10
3.09327e-05
-4.10165e-10
3.09327e-05
-3.02796e-10
3.09327e-05
-2.14642e-10
3.09327e-05
-1.43286e-10
3.09327e-05
-9.13589e-11
3.09327e-05
-5.19944e-11
3.09327e-05
-2.87863e-11
3.09327e-05
-1.08475e-11
3.09327e-05
-2.73971e-12
3.09327e-05
-8.42184e-12
3.09327e-05
-1.85506e-12
3.09327e-05
1.94063e-11
-7.93434e-11
3.12159e-05
-1.56814e-10
3.12155e-05
-5.09286e-10
3.12154e-05
-6.1443e-10
3.12152e-05
-6.53288e-10
3.12151e-05
-6.31924e-10
3.1215e-05
-5.56606e-10
3.1215e-05
-4.59572e-10
3.12149e-05
-3.62252e-10
3.12149e-05
-2.72046e-10
3.12149e-05
-1.96574e-10
3.12149e-05
-1.34193e-10
3.12149e-05
-8.77498e-11
3.12149e-05
-5.10441e-11
3.12149e-05
-3.02567e-11
3.12149e-05
-1.15341e-11
3.12149e-05
-5.22739e-12
3.12149e-05
-6.78283e-12
3.12149e-05
-2.74127e-12
3.12149e-05
1.57486e-11
-3.83079e-11
3.14049e-05
2.79184e-10
3.14046e-05
-2.09322e-10
3.14045e-05
-4.476e-10
3.14043e-05
-5.39359e-10
3.14042e-05
-5.29211e-10
3.14041e-05
-4.63192e-10
3.14041e-05
-3.80661e-10
3.1404e-05
-3.02122e-10
3.1404e-05
-2.30152e-10
3.14039e-05
-1.69121e-10
3.14039e-05
-1.17844e-10
3.14039e-05
-7.91016e-11
3.14039e-05
-4.648e-11
3.14039e-05
-2.94513e-11
3.14039e-05
-1.0029e-11
3.14039e-05
-8.32426e-12
3.14039e-05
-2.57991e-12
3.14039e-05
-4.17207e-12
3.14039e-05
1.24423e-12
1.55146e-11
3.15286e-05
6.05354e-10
3.15283e-05
2.17384e-11
3.15282e-05
-3.24337e-10
3.15281e-05
-4.4487e-10
3.1528e-05
-4.31334e-10
3.15279e-05
-3.68027e-10
3.15278e-05
-2.97015e-10
3.15278e-05
-2.35156e-10
3.15277e-05
-1.81069e-10
3.15277e-05
-1.35102e-10
3.15277e-05
-9.56699e-11
3.15277e-05
-6.59286e-11
3.15276e-05
-3.88214e-11
3.15276e-05
-2.66744e-11
3.15276e-05
-6.43599e-12
3.15276e-05
-1.23491e-11
3.15276e-05
4.63894e-12
3.15276e-05
-7.41122e-12
3.15277e-05
-2.56105e-11
7.62936e-11
3.16072e-05
7.84751e-10
3.16071e-05
1.6703e-10
3.1607e-05
-2.36807e-10
3.16069e-05
-3.56413e-10
3.16068e-05
-3.32e-10
3.16067e-05
-2.71955e-10
3.16066e-05
-2.13418e-10
3.16066e-05
-1.67052e-10
3.16065e-05
-1.2948e-10
3.16065e-05
-9.79437e-11
3.16065e-05
-7.01409e-11
3.16064e-05
-4.96365e-11
3.16064e-05
-2.8956e-11
3.16064e-05
-2.20499e-11
3.16064e-05
-1.67356e-12
3.16064e-05
-1.69274e-11
3.16064e-05
1.36402e-11
3.16064e-05
-1.22069e-11
3.16065e-05
-6.43151e-11
1.26472e-10
3.16554e-05
7.92032e-10
3.16553e-05
2.29019e-10
3.16552e-05
-1.51077e-10
3.16551e-05
-2.49268e-10
3.1655e-05
-2.20139e-10
3.16549e-05
-1.73759e-10
3.16548e-05
-1.33753e-10
3.16548e-05
-1.02942e-10
3.16547e-05
-7.99464e-11
3.16547e-05
-6.10528e-11
3.16547e-05
-4.41352e-11
3.16547e-05
-3.21074e-11
3.16546e-05
-1.78421e-11
3.16546e-05
-1.58575e-11
3.16546e-05
2.37721e-12
3.16546e-05
-1.83262e-11
3.16546e-05
1.82182e-11
3.16546e-05
-1.02669e-11
3.16547e-05
-1.11478e-10
1.30402e-10
3.16828e-05
5.42397e-10
3.16827e-05
2.40546e-10
3.16826e-05
-2.26849e-11
3.16825e-05
-8.44297e-11
3.16823e-05
-8.08284e-11
3.16822e-05
-6.82644e-11
3.16821e-05
-5.66228e-11
3.16821e-05
-4.48888e-11
3.1682e-05
-3.55729e-11
3.1682e-05
-2.73029e-11
3.1682e-05
-1.91337e-11
3.1682e-05
-1.44718e-11
3.16819e-05
-6.8725e-12
3.16819e-05
-7.59733e-12
3.16819e-05
3.09852e-12
3.16819e-05
-1.3138e-11
3.16819e-05
1.34231e-11
3.16819e-05
-1.36321e-13
3.16819e-05
-9.40188e-11
2.84146e-11
3.16951e-05
3.16952e-05
3.1695e-05
3.16948e-05
3.16946e-05
3.16945e-05
3.16944e-05
3.16944e-05
3.16943e-05
3.16943e-05
3.16943e-05
3.16943e-05
3.16943e-05
3.16942e-05
3.16943e-05
3.16942e-05
3.16943e-05
3.16943e-05
3.16942e-05
)
;

boundaryField
{
    fixedWalls
    {
        type            calculated;
        value           uniform 0;
    }
    inlet
    {
        type            calculated;
        value           nonuniform 0();
    }
    outlet
    {
        type            calculated;
        value           nonuniform 0();
    }
    frontAndBack
    {
        type            empty;
        value           nonuniform 0();
    }
    procBoundary2to1
    {
        type            processor;
        value           nonuniform List<scalar> 
20
(
-2.59349e-06
-7.46725e-06
-1.19307e-05
-1.59084e-05
-1.93558e-05
-2.22605e-05
-2.46401e-05
-2.65362e-05
-2.80066e-05
-2.91172e-05
-2.99349e-05
-3.05222e-05
-3.09342e-05
-3.12164e-05
-3.14054e-05
-3.15289e-05
-3.16074e-05
-3.16554e-05
-3.16825e-05
-3.16946e-05
)
;
    }
    procBoundary2to3
    {
        type            processor;
        value           nonuniform List<scalar> 
20
(
2.59385e-06
7.46812e-06
1.19319e-05
1.591e-05
1.93575e-05
2.22621e-05
2.46414e-05
2.65371e-05
2.8007e-05
2.9117e-05
2.99342e-05
3.0521e-05
3.09327e-05
3.12148e-05
3.14039e-05
3.15276e-05
3.16064e-05
3.16547e-05
3.1682e-05
3.16943e-05
)
;
    }
    procBoundary2to6
    {
        type            processor;
        value           nonuniform List<scalar> 
20
(
1.03923e-10
1.2134e-10
1.42787e-10
1.27429e-10
8.74903e-11
4.98355e-11
2.51145e-11
1.32155e-11
8.17802e-12
4.20211e-12
3.7964e-12
2.81773e-12
3.05554e-12
2.74142e-12
2.12193e-12
-2.85521e-12
-3.25984e-12
1.94531e-12
-2.43702e-11
-5.11193e-11
)
;
    }
}


// ************************************************************************* //
