/*--------------------------------*- C++ -*----------------------------------*\
| =========                 |                                                 |
| \\      /  F ield         | OpenFOAM: The Open Source CFD Toolbox           |
|  \\    /   O peration     | Version:                                        |
|   \\  /    A nd           | Website:  www.openfoam.com                      |
|    \\/     M anipulation  |                                                 |
\*---------------------------------------------------------------------------*/
FoamFile
{
    version     2.0;
    format      ascii;
    class       surfaceScalarField;
    location    "0.9";
    object      phi;
}
// * * * * * * * * * * * * * * * * * * * * * * * * * * * * * * * * * * * * * //

dimensions      [0 3 -1 0 0 0 0];
oriented        oriented;


internalField   nonuniform List<scalar> 
760
(
3.46778e-05
-1.09994e-07
3.47835e-05
-1.057e-07
3.48851e-05
-1.01577e-07
3.49827e-05
-9.76181e-08
3.50765e-05
-9.38166e-08
3.51667e-05
-9.01665e-08
3.52534e-05
-8.6662e-08
3.53367e-05
-8.32974e-08
3.54167e-05
-8.00672e-08
3.54937e-05
-7.69661e-08
3.55677e-05
-7.39884e-08
3.56388e-05
-7.11291e-08
3.57072e-05
-6.83837e-08
3.5773e-05
-6.57484e-08
3.58362e-05
-6.32184e-08
3.5897e-05
-6.07883e-08
3.59554e-05
-5.84539e-08
3.60116e-05
-5.62125e-08
3.60657e-05
-5.40609e-08
-5.1994e-08
3.46146e-05
-2.15494e-07
3.47159e-05
-2.07024e-07
3.48132e-05
-1.98898e-07
3.49067e-05
-1.91102e-07
3.49965e-05
-1.83623e-07
3.50828e-05
-1.76446e-07
3.51657e-05
-1.6956e-07
3.52453e-05
-1.62952e-07
3.53219e-05
-1.56612e-07
3.53954e-05
-1.50528e-07
3.54661e-05
-1.44689e-07
3.55341e-05
-1.39085e-07
3.55994e-05
-1.33706e-07
3.56622e-05
-1.28543e-07
3.57226e-05
-1.23587e-07
3.57806e-05
-1.1883e-07
3.58364e-05
-1.14263e-07
3.58901e-05
-1.09876e-07
3.59417e-05
-1.05665e-07
-1.01622e-07
3.44807e-05
-3.12182e-07
3.45735e-05
-2.99778e-07
3.46625e-05
-2.87896e-07
3.47479e-05
-2.76511e-07
3.48299e-05
-2.65602e-07
3.49086e-05
-2.55146e-07
3.49841e-05
-2.45123e-07
3.50567e-05
-2.35515e-07
3.51264e-05
-2.26302e-07
3.51933e-05
-2.17469e-07
3.52576e-05
-2.08997e-07
3.53194e-05
-2.00872e-07
3.53788e-05
-1.93078e-07
3.54358e-05
-1.85599e-07
3.54907e-05
-1.78425e-07
3.55434e-05
-1.71541e-07
3.55941e-05
-1.64934e-07
3.56428e-05
-1.58592e-07
3.56896e-05
-1.52504e-07
-1.46661e-07
3.42622e-05
-3.9611e-07
3.43426e-05
-3.80151e-07
3.44196e-05
-3.64891e-07
3.44934e-05
-3.50294e-07
3.45641e-05
-3.36329e-07
3.46319e-05
-3.22963e-07
3.4697e-05
-3.10169e-07
3.47594e-05
-2.97918e-07
3.48192e-05
-2.86185e-07
3.48767e-05
-2.74945e-07
3.49319e-05
-2.64176e-07
3.49849e-05
-2.53855e-07
3.50358e-05
-2.43962e-07
3.50846e-05
-2.34477e-07
3.51316e-05
-2.25382e-07
3.51767e-05
-2.1666e-07
3.52201e-05
-2.08293e-07
3.52618e-05
-2.00266e-07
3.53018e-05
-1.92564e-07
-1.85173e-07
3.39389e-05
-4.63899e-07
3.40037e-05
-4.44904e-07
3.40656e-05
-4.2678e-07
3.41248e-05
-4.09479e-07
3.41814e-05
-3.92956e-07
3.42356e-05
-3.7717e-07
3.42875e-05
-3.62081e-07
3.43372e-05
-3.47653e-07
3.43849e-05
-3.33852e-07
3.44306e-05
-3.20647e-07
3.44745e-05
-3.08008e-07
3.45165e-05
-2.95907e-07
3.45569e-05
-2.84318e-07
3.45956e-05
-2.73215e-07
3.46328e-05
-2.62576e-07
3.46685e-05
-2.5238e-07
3.47028e-05
-2.42605e-07
3.47358e-05
-2.33232e-07
3.47675e-05
-2.24242e-07
-2.15619e-07
3.34862e-05
-5.12942e-07
3.35328e-05
-4.91571e-07
3.35773e-05
-4.71228e-07
3.36197e-05
-4.51851e-07
3.36601e-05
-4.33382e-07
3.36987e-05
-4.15768e-07
3.37356e-05
-3.9896e-07
3.37708e-05
-3.82913e-07
3.38045e-05
-3.67584e-07
3.38368e-05
-3.52935e-07
3.38678e-05
-3.3893e-07
3.38974e-05
-3.25534e-07
3.39258e-05
-3.12718e-07
3.3953e-05
-3.0045e-07
3.39791e-05
-2.88703e-07
3.40042e-05
-2.77452e-07
3.40283e-05
-2.66673e-07
3.40514e-05
-2.56343e-07
3.40736e-05
-2.46441e-07
-2.36947e-07
3.28761e-05
-5.41591e-07
3.29032e-05
-5.1863e-07
3.29288e-05
-4.96825e-07
3.29531e-05
-4.76102e-07
3.29761e-05
-4.56388e-07
3.29979e-05
-4.37622e-07
3.30187e-05
-4.19745e-07
3.30385e-05
-4.02703e-07
3.30573e-05
-3.86446e-07
3.30753e-05
-3.70931e-07
3.30925e-05
-3.56114e-07
3.31089e-05
-3.41957e-07
3.31247e-05
-3.28424e-07
3.31397e-05
-3.15482e-07
3.31541e-05
-3.03099e-07
3.31679e-05
-2.91247e-07
3.31811e-05
-2.799e-07
3.31938e-05
-2.69031e-07
3.3206e-05
-2.58618e-07
-2.48637e-07
3.208e-05
-5.4931e-07
3.2087e-05
-5.25633e-07
3.20934e-05
-5.03201e-07
3.20992e-05
-4.81925e-07
3.21046e-05
-4.61726e-07
3.21095e-05
-4.42531e-07
3.2114e-05
-4.24275e-07
3.21182e-05
-4.06897e-07
3.21221e-05
-3.90343e-07
3.21257e-05
-3.74562e-07
3.21291e-05
-3.59509e-07
3.21323e-05
-3.4514e-07
3.21353e-05
-3.31417e-07
3.21381e-05
-3.18304e-07
3.21408e-05
-3.05767e-07
3.21433e-05
-2.93776e-07
3.21457e-05
-2.82302e-07
3.2148e-05
-2.71317e-07
3.21502e-05
-2.60798e-07
-2.5072e-07
3.10698e-05
-5.36749e-07
3.10574e-05
-5.13267e-07
3.10453e-05
-4.91067e-07
3.10334e-05
-4.70052e-07
3.10218e-05
-4.50136e-07
3.10105e-05
-4.3124e-07
3.09996e-05
-4.13296e-07
3.09889e-05
-3.96237e-07
3.09786e-05
-3.80007e-07
3.09686e-05
-3.64552e-07
3.09589e-05
-3.49825e-07
3.09495e-05
-3.3578e-07
3.09405e-05
-3.22377e-07
3.09317e-05
-3.0958e-07
3.09233e-05
-2.97353e-07
3.09152e-05
-2.85665e-07
3.09074e-05
-2.74486e-07
3.08999e-05
-2.6379e-07
3.08926e-05
-2.53551e-07
-2.43746e-07
2.98202e-05
-5.05719e-07
2.97903e-05
-4.83316e-07
2.97614e-05
-4.62175e-07
2.97335e-05
-4.42196e-07
2.97067e-05
-4.23292e-07
2.96808e-05
-4.05381e-07
2.96559e-05
-3.88393e-07
2.96319e-05
-3.72263e-07
2.96089e-05
-3.56933e-07
2.95867e-05
-3.42348e-07
2.95653e-05
-3.28462e-07
2.95447e-05
-3.1523e-07
2.9525e-05
-3.02612e-07
2.9506e-05
-2.90571e-07
2.94877e-05
-2.79073e-07
2.94701e-05
-2.68088e-07
2.94532e-05
-2.57586e-07
2.9437e-05
-2.47541e-07
2.94213e-05
-2.37929e-07
-2.28727e-07
2.83103e-05
-4.59074e-07
2.82656e-05
-4.38538e-07
2.82226e-05
-4.19189e-07
2.81813e-05
-4.00929e-07
2.81417e-05
-3.83673e-07
2.81037e-05
-3.67343e-07
2.80671e-05
-3.5187e-07
2.80321e-05
-3.37192e-07
2.79984e-05
-3.23253e-07
2.7966e-05
-3.10003e-07
2.7935e-05
-2.97396e-07
2.79051e-05
-2.85391e-07
2.78765e-05
-2.73948e-07
2.78489e-05
-2.63035e-07
2.78225e-05
-2.52618e-07
2.77971e-05
-2.42669e-07
2.77726e-05
-2.33161e-07
2.77492e-05
-2.24069e-07
2.77266e-05
-2.15372e-07
-2.07047e-07
2.65247e-05
-4.00491e-07
2.64686e-05
-3.82456e-07
2.64149e-05
-3.65483e-07
2.63634e-05
-3.49482e-07
2.63141e-05
-3.34374e-07
2.62669e-05
-3.2009e-07
2.62216e-05
-3.06566e-07
2.61781e-05
-2.93746e-07
2.61365e-05
-2.81579e-07
2.60965e-05
-2.7002e-07
2.60581e-05
-2.59027e-07
2.60213e-05
-2.48563e-07
2.59859e-05
-2.38593e-07
2.5952e-05
-2.29088e-07
2.59194e-05
-2.20018e-07
2.58881e-05
-2.11358e-07
2.5858e-05
-2.03083e-07
2.58291e-05
-1.95172e-07
2.58013e-05
-1.87605e-07
-1.80363e-07
2.44535e-05
-3.3419e-07
2.43902e-05
-3.19087e-07
2.43296e-05
-3.04884e-07
2.42716e-05
-2.91503e-07
2.42161e-05
-2.78878e-07
2.4163e-05
-2.66948e-07
2.41121e-05
-2.55658e-07
2.40633e-05
-2.44961e-07
2.40165e-05
-2.34813e-07
2.39717e-05
-2.25175e-07
2.39286e-05
-2.16012e-07
2.38874e-05
-2.07292e-07
2.38478e-05
-1.98986e-07
2.38097e-05
-1.91068e-07
2.37732e-05
-1.83513e-07
2.37382e-05
-1.76301e-07
2.37045e-05
-1.69411e-07
2.36722e-05
-1.62824e-07
2.36411e-05
-1.56524e-07
-1.50494e-07
2.20931e-05
-2.64625e-07
2.20267e-05
-2.52659e-07
2.19632e-05
-2.4141e-07
2.19025e-05
-2.30817e-07
2.18445e-05
-2.20825e-07
2.17889e-05
-2.11385e-07
2.17357e-05
-2.02455e-07
2.16848e-05
-1.93995e-07
2.16359e-05
-1.8597e-07
2.15891e-05
-1.7835e-07
2.15442e-05
-1.71106e-07
2.15011e-05
-1.64213e-07
2.14598e-05
-1.57648e-07
2.14201e-05
-1.51389e-07
2.1382e-05
-1.45418e-07
2.13454e-05
-1.39718e-07
2.13103e-05
-1.34271e-07
2.12765e-05
-1.29065e-07
2.12441e-05
-1.24084e-07
-1.19318e-07
1.94446e-05
-1.962e-07
1.93793e-05
-1.87346e-07
1.93169e-05
-1.79025e-07
1.92573e-05
-1.71189e-07
1.92002e-05
-1.63797e-07
1.91457e-05
-1.56815e-07
1.90934e-05
-1.50209e-07
1.90434e-05
-1.43951e-07
1.89954e-05
-1.38015e-07
1.89495e-05
-1.32377e-07
1.89054e-05
-1.27018e-07
1.88631e-05
-1.21918e-07
1.88225e-05
-1.1706e-07
1.87835e-05
-1.12428e-07
1.87461e-05
-1.08009e-07
1.87102e-05
-1.03789e-07
1.86757e-05
-9.97572e-08
1.86425e-05
-9.59022e-08
1.86106e-05
-9.22142e-08
-8.86842e-08
1.6513e-05
-1.33039e-07
1.64527e-05
-1.27063e-07
1.63952e-05
-1.21444e-07
1.63401e-05
-1.16153e-07
1.62875e-05
-1.1116e-07
1.62371e-05
-1.06443e-07
1.61889e-05
-1.01979e-07
1.61427e-05
-9.77496e-08
1.60984e-05
-9.37365e-08
1.6056e-05
-8.99246e-08
1.60152e-05
-8.62999e-08
1.59762e-05
-8.28497e-08
1.59387e-05
-7.95625e-08
1.59027e-05
-7.6428e-08
1.58681e-05
-7.34365e-08
1.58349e-05
-7.05794e-08
1.5803e-05
-6.78488e-08
1.57723e-05
-6.52375e-08
1.57428e-05
-6.27388e-08
-6.03466e-08
1.3306e-05
-7.88421e-08
1.32543e-05
-7.53239e-08
1.32049e-05
-7.20148e-08
1.31576e-05
-6.88967e-08
1.31124e-05
-6.59538e-08
1.30691e-05
-6.31717e-08
1.30277e-05
-6.05381e-08
1.2988e-05
-5.80415e-08
1.29499e-05
-5.5672e-08
1.29134e-05
-5.34205e-08
1.28784e-05
-5.12788e-08
1.28448e-05
-4.92395e-08
1.28125e-05
-4.72959e-08
1.27815e-05
-4.54419e-08
1.27518e-05
-4.3672e-08
1.27232e-05
-4.19811e-08
1.26957e-05
-4.03646e-08
1.26693e-05
-3.88182e-08
1.26439e-05
-3.73381e-08
-3.59207e-08
9.83222e-06
-3.68263e-08
9.79209e-06
-3.51971e-08
9.75374e-06
-3.36636e-08
9.71706e-06
-3.22176e-08
9.68196e-06
-3.0852e-08
9.64835e-06
-2.95603e-08
9.61615e-06
-2.83368e-08
9.58528e-06
-2.71764e-08
9.55569e-06
-2.60744e-08
9.52729e-06
-2.50268e-08
9.50004e-06
-2.40298e-08
9.47388e-06
-2.30801e-08
9.44876e-06
-2.21745e-08
9.42463e-06
-2.13103e-08
9.40144e-06
-2.0485e-08
9.37916e-06
-1.96962e-08
9.35774e-06
-1.89419e-08
9.33714e-06
-1.822e-08
9.31733e-06
-1.75288e-08
-1.68667e-08
6.09991e-06
-9.74877e-09
6.07404e-06
-9.32258e-09
6.0493e-06
-8.92102e-09
6.02562e-06
-8.54201e-09
6.00295e-06
-8.18373e-09
5.98124e-06
-7.84455e-09
5.96042e-06
-7.523e-09
5.94046e-06
-7.21779e-09
5.92132e-06
-6.92776e-09
5.90294e-06
-6.65183e-09
5.8853e-06
-6.38906e-09
5.86836e-06
-6.13858e-09
5.85209e-06
-5.89961e-09
5.83645e-06
-5.67143e-09
5.82141e-06
-5.45339e-09
5.80696e-06
-5.24489e-09
5.79307e-06
-5.04539e-09
5.7797e-06
-4.85438e-09
5.76684e-06
-4.6714e-09
-4.49606e-09
2.11585e-06
2.10652e-06
2.0976e-06
2.08906e-06
2.08088e-06
2.07303e-06
2.06551e-06
2.05829e-06
2.05136e-06
2.04471e-06
2.03832e-06
2.03218e-06
2.02629e-06
2.02061e-06
2.01516e-06
2.00992e-06
2.00487e-06
2.00002e-06
1.99534e-06
)
;

boundaryField
{
    fixedWalls
    {
        type            calculated;
        value           uniform 0;
    }
    inlet
    {
        type            calculated;
        value           nonuniform 0();
    }
    outlet
    {
        type            calculated;
        value           nonuniform 0();
    }
    frontAndBack
    {
        type            empty;
        value           nonuniform 0();
    }
    procBoundary6to2
    {
        type            processor;
        value           nonuniform List<scalar> 
20
(
-6.24662e-13
-2.4825e-13
-1.62874e-13
-7.91429e-13
-1.3393e-12
-1.42301e-12
-1.2744e-12
-8.74128e-13
-3.59384e-13
-8.40879e-13
-2.75e-12
-4.18922e-12
-2.87768e-12
3.17485e-13
3.14696e-15
-4.47463e-12
-6.02936e-12
-1.91017e-12
7.25573e-13
-3.32512e-12
)
;
    }
    procBoundary6to5
    {
        type            processor;
        value           nonuniform List<scalar> 
20
(
-3.45678e-05
-3.45091e-05
-3.4384e-05
-3.41783e-05
-3.38712e-05
-3.34371e-05
-3.28475e-05
-3.20723e-05
-3.10824e-05
-2.98512e-05
-2.8357e-05
-2.65832e-05
-2.45198e-05
-2.21627e-05
-1.9513e-05
-1.65762e-05
-1.33602e-05
-9.87424e-06
-6.12699e-06
-2.1256e-06
)
;
    }
    procBoundary6to7
    {
        type            processor;
        value           nonuniform List<scalar> 
20
(
3.61177e-05
3.59913e-05
3.57347e-05
3.53403e-05
3.47979e-05
3.40949e-05
3.32177e-05
3.21523e-05
3.08857e-05
2.94063e-05
2.77049e-05
2.57746e-05
2.36112e-05
2.12129e-05
1.858e-05
1.57145e-05
1.26194e-05
9.29828e-06
5.75447e-06
1.99085e-06
)
;
    }
}


// ************************************************************************* //
