/*--------------------------------*- C++ -*----------------------------------*\
| =========                 |                                                 |
| \\      /  F ield         | OpenFOAM: The Open Source CFD Toolbox           |
|  \\    /   O peration     | Version:                                        |
|   \\  /    A nd           | Website:  www.openfoam.com                      |
|    \\/     M anipulation  |                                                 |
\*---------------------------------------------------------------------------*/
FoamFile
{
    version     2.0;
    format      ascii;
    class       volVectorField;
    location    "0.9";
    object      U;
}
// * * * * * * * * * * * * * * * * * * * * * * * * * * * * * * * * * * * * * //

dimensions      [0 1 -1 0 0 0 0];


internalField   nonuniform List<vector> 
400
(
(1.38496 -0.00111144 0)
(1.38927 -0.00106821 0)
(1.39341 -0.00102668 0)
(1.3974 -0.000986775 0)
(1.40122 -0.000948442 0)
(1.4049 -0.000911627 0)
(1.40844 -0.000876272 0)
(1.41183 -0.00084232 0)
(1.4151 -0.000809718 0)
(1.41824 -0.000778403 0)
(1.42126 -0.000748313 0)
(1.42416 -0.000719411 0)
(1.42695 -0.000691682 0)
(1.42963 -0.000665084 0)
(1.43221 -0.00063952 0)
(1.43469 -0.000614915 0)
(1.43707 -0.00059129 0)
(1.43936 -0.000568665 0)
(1.44157 -0.00054694 0)
(1.44369 -0.000526008 0)
(1.38252 -0.00328895 0)
(1.38665 -0.00316041 0)
(1.39062 -0.003037 0)
(1.39444 -0.00291851 0)
(1.3981 -0.00280476 0)
(1.40162 -0.00269555 0)
(1.405 -0.00259071 0)
(1.40825 -0.00249007 0)
(1.41137 -0.00239345 0)
(1.41438 -0.00230069 0)
(1.41726 -0.00221165 0)
(1.42003 -0.00212615 0)
(1.4227 -0.00204407 0)
(1.42526 -0.00196526 0)
(1.42772 -0.0018896 0)
(1.43009 -0.00181695 0)
(1.43236 -0.00174718 0)
(1.43455 -0.00168018 0)
(1.43666 -0.00161584 0)
(1.43868 -0.00155405 0)
(1.37734 -0.00533202 0)
(1.38112 -0.00512172 0)
(1.38476 -0.00492006 0)
(1.38824 -0.00472667 0)
(1.39159 -0.0045412 0)
(1.3948 -0.0043633 0)
(1.39788 -0.00419266 0)
(1.40085 -0.00402897 0)
(1.40369 -0.00387194 0)
(1.40642 -0.00372128 0)
(1.40905 -0.00357674 0)
(1.41157 -0.00343805 0)
(1.41399 -0.00330494 0)
(1.41632 -0.00317719 0)
(1.41855 -0.00305459 0)
(1.4207 -0.00293693 0)
(1.42277 -0.00282397 0)
(1.42476 -0.0027155 0)
(1.42667 -0.00261137 0)
(1.4285 -0.0025114 0)
(1.36885 -0.00715702 0)
(1.37213 -0.00687111 0)
(1.37528 -0.00659742 0)
(1.37829 -0.00633535 0)
(1.38118 -0.00608438 0)
(1.38395 -0.00584397 0)
(1.3866 -0.00561365 0)
(1.38915 -0.00539295 0)
(1.3916 -0.00518143 0)
(1.39394 -0.00497869 0)
(1.3962 -0.00478433 0)
(1.39836 -0.00459797 0)
(1.40043 -0.00441925 0)
(1.40243 -0.00424783 0)
(1.40434 -0.0040834 0)
(1.40618 -0.00392567 0)
(1.40795 -0.00377431 0)
(1.40965 -0.00362905 0)
(1.41129 -0.00348964 0)
(1.41286 -0.00335583 0)
(1.35623 -0.00868962 0)
(1.35888 -0.00833706 0)
(1.36141 -0.00800025 0)
(1.36383 -0.00767837 0)
(1.36615 -0.00737064 0)
(1.36836 -0.00707635 0)
(1.37048 -0.00679482 0)
(1.37252 -0.00652541 0)
(1.37446 -0.00626752 0)
(1.37633 -0.00602061 0)
(1.37812 -0.00578413 0)
(1.37984 -0.0055576 0)
(1.38148 -0.00534054 0)
(1.38307 -0.0051325 0)
(1.38458 -0.00493308 0)
(1.38604 -0.00474188 0)
(1.38744 -0.00455853 0)
(1.38879 -0.00438265 0)
(1.39008 -0.00421393 0)
(1.39132 -0.00405205 0)
(1.33849 -0.00986892 0)
(1.3404 -0.00946154 0)
(1.34222 -0.00907327 0)
(1.34396 -0.008703 0)
(1.34561 -0.0083497 0)
(1.34719 -0.00801244 0)
(1.3487 -0.00769032 0)
(1.35014 -0.00738253 0)
(1.35152 -0.0070883 0)
(1.35284 -0.00680694 0)
(1.35411 -0.00653778 0)
(1.35532 -0.0062802 0)
(1.35648 -0.00603361 0)
(1.35759 -0.00579748 0)
(1.35865 -0.0055713 0)
(1.35968 -0.00535458 0)
(1.36066 -0.00514689 0)
(1.3616 -0.00494778 0)
(1.36251 -0.00475687 0)
(1.36338 -0.00457378 0)
(1.31449 -0.0106515 0)
(1.3156 -0.0102039 0)
(1.31665 -0.00977829 0)
(1.31765 -0.00937335 0)
(1.31859 -0.00898777 0)
(1.31949 -0.00862036 0)
(1.32034 -0.00827005 0)
(1.32115 -0.00793585 0)
(1.32193 -0.00761683 0)
(1.32266 -0.00731215 0)
(1.32337 -0.00702102 0)
(1.32404 -0.00674271 0)
(1.32468 -0.00647654 0)
(1.32529 -0.00622189 0)
(1.32588 -0.00597814 0)
(1.32645 -0.00574477 0)
(1.32699 -0.00552125 0)
(1.3275 -0.0053071 0)
(1.328 -0.00510188 0)
(1.32848 -0.00490514 0)
(1.28305 -0.0110148 0)
(1.28335 -0.0105438 0)
(1.28361 -0.0100971 0)
(1.28386 -0.00967294 0)
(1.28408 -0.00926987 0)
(1.28428 -0.00888651 0)
(1.28447 -0.00852161 0)
(1.28465 -0.00817402 0)
(1.28481 -0.00784269 0)
(1.28496 -0.00752665 0)
(1.2851 -0.00722501 0)
(1.28523 -0.00693697 0)
(1.28535 -0.00666175 0)
(1.28547 -0.00639865 0)
(1.28558 -0.00614703 0)
(1.28568 -0.00590628 0)
(1.28578 -0.00567584 0)
(1.28588 -0.00545518 0)
(1.28596 -0.00524382 0)
(1.28605 -0.0050413 0)
(1.24304 -0.01096 0)
(1.24254 -0.0104837 0)
(1.24205 -0.010033 0)
(1.24157 -0.00960603 0)
(1.2411 -0.009201 0)
(1.24064 -0.00881645 0)
(1.2402 -0.00845099 0)
(1.23977 -0.00810337 0)
(1.23935 -0.00777244 0)
(1.23894 -0.00745716 0)
(1.23855 -0.00715658 0)
(1.23816 -0.00686981 0)
(1.2378 -0.00659606 0)
(1.23744 -0.00633457 0)
(1.2371 -0.00608467 0)
(1.23677 -0.00584572 0)
(1.23645 -0.00561713 0)
(1.23614 -0.00539836 0)
(1.23585 -0.0051889 0)
(1.23556 -0.00498828 0)
(1.19342 -0.0105119 0)
(1.1922 -0.0100487 0)
(1.19102 -0.00961124 0)
(1.18989 -0.00919754 0)
(1.18879 -0.00880581 0)
(1.18774 -0.00843445 0)
(1.18673 -0.00808202 0)
(1.18575 -0.00774722 0)
(1.18481 -0.00742887 0)
(1.1839 -0.00712589 0)
(1.18303 -0.00683731 0)
(1.18219 -0.00656223 0)
(1.18139 -0.00629983 0)
(1.18061 -0.00604937 0)
(1.17987 -0.00581015 0)
(1.17915 -0.00558153 0)
(1.17846 -0.00536295 0)
(1.1778 -0.00515384 0)
(1.17716 -0.00495371 0)
(1.17655 -0.0047621 0)
(1.13333 -0.00971808 0)
(1.1315 -0.00928503 0)
(1.12975 -0.00887673 0)
(1.12806 -0.0084912 0)
(1.12644 -0.00812666 0)
(1.12489 -0.00778153 0)
(1.1234 -0.00745438 0)
(1.12197 -0.00714392 0)
(1.1206 -0.006849 0)
(1.11928 -0.00656856 0)
(1.11801 -0.00630166 0)
(1.11679 -0.00604742 0)
(1.11562 -0.00580506 0)
(1.1145 -0.00557385 0)
(1.11342 -0.00535313 0)
(1.11238 -0.0051423 0)
(1.11138 -0.00494078 0)
(1.11043 -0.00474808 0)
(1.10951 -0.0045637 0)
(1.10862 -0.00438721 0)
(1.06213 -0.00864525 0)
(1.05984 -0.00825682 0)
(1.05765 -0.00789109 0)
(1.05554 -0.00754618 0)
(1.05353 -0.00722041 0)
(1.0516 -0.00691229 0)
(1.04975 -0.00662049 0)
(1.04798 -0.00634381 0)
(1.04627 -0.00608117 0)
(1.04464 -0.00583159 0)
(1.04308 -0.0055942 0)
(1.04157 -0.0053682 0)
(1.04013 -0.00515285 0)
(1.03874 -0.0049475 0)
(1.03741 -0.00475153 0)
(1.03614 -0.0045644 0)
(1.03491 -0.00438559 0)
(1.03373 -0.00421464 0)
(1.0326 -0.00405111 0)
(1.03151 -0.0038946 0)
(0.979438 -0.00737392 0)
(0.976846 -0.00704093 0)
(0.974368 -0.00672771 0)
(0.971998 -0.00643258 0)
(0.96973 -0.00615404 0)
(0.967559 -0.00589078 0)
(0.965479 -0.00564163 0)
(0.963486 -0.00540551 0)
(0.961576 -0.00518149 0)
(0.959745 -0.00496871 0)
(0.957988 -0.00476639 0)
(0.956304 -0.00457384 0)
(0.954687 -0.00439043 0)
(0.953135 -0.00421558 0)
(0.951645 -0.00404876 0)
(0.950215 -0.00388948 0)
(0.948841 -0.00373731 0)
(0.947521 -0.00359184 0)
(0.946253 -0.00345271 0)
(0.945034 -0.00331956 0)
(0.885084 -0.00599242 0)
(0.882367 -0.00572131 0)
(0.87977 -0.00546644 0)
(0.877289 -0.00522641 0)
(0.874915 -0.00499999 0)
(0.872644 -0.00478607 0)
(0.87047 -0.00458367 0)
(0.868388 -0.00439194 0)
(0.866393 -0.00421007 0)
(0.864481 -0.00403736 0)
(0.862647 -0.00387318 0)
(0.860888 -0.00371696 0)
(0.859201 -0.00356816 0)
(0.857581 -0.00342632 0)
(0.856026 -0.00329101 0)
(0.854533 -0.00316182 0)
(0.8531 -0.0030384 0)
(0.851722 -0.00292042 0)
(0.850399 -0.00280757 0)
(0.849127 -0.00269957 0)
(0.779121 -0.00459085 0)
(0.776448 -0.00438337 0)
(0.773896 -0.00418837 0)
(0.771457 -0.00400476 0)
(0.769125 -0.00383157 0)
(0.766895 -0.00366798 0)
(0.76476 -0.00351321 0)
(0.762715 -0.0033666 0)
(0.760756 -0.00322754 0)
(0.758879 -0.00309549 0)
(0.757078 -0.00296995 0)
(0.755352 -0.0028505 0)
(0.753695 -0.00273673 0)
(0.752104 -0.00262827 0)
(0.750578 -0.00252479 0)
(0.749112 -0.00242599 0)
(0.747704 -0.00233159 0)
(0.746351 -0.00224134 0)
(0.745051 -0.00215501 0)
(0.743801 -0.00207238 0)
(0.661755 -0.00325528 0)
(0.659288 -0.00310872 0)
(0.656932 -0.00297095 0)
(0.654682 -0.00284121 0)
(0.652529 -0.00271883 0)
(0.650471 -0.00260321 0)
(0.6485 -0.00249381 0)
(0.646612 -0.00239016 0)
(0.644804 -0.00229183 0)
(0.64307 -0.00219844 0)
(0.641407 -0.00210965 0)
(0.639812 -0.00202514 0)
(0.638282 -0.00194464 0)
(0.636813 -0.00186788 0)
(0.635402 -0.00179463 0)
(0.634047 -0.00172469 0)
(0.632745 -0.00165784 0)
(0.631494 -0.00159392 0)
(0.630292 -0.00153277 0)
(0.629136 -0.00147423 0)
(0.5333 -0.00206287 0)
(0.531183 -0.00197056 0)
(0.529161 -0.00188376 0)
(0.527228 -0.00180199 0)
(0.52538 -0.00172482 0)
(0.523612 -0.00165189 0)
(0.521919 -0.00158286 0)
(0.520296 -0.00151743 0)
(0.518742 -0.00145534 0)
(0.517251 -0.00139635 0)
(0.515822 -0.00134025 0)
(0.51445 -0.00128684 0)
(0.513133 -0.00123594 0)
(0.511868 -0.0011874 0)
(0.510654 -0.00114106 0)
(0.509487 -0.0010968 0)
(0.508366 -0.00105449 0)
(0.507288 -0.00101402 0)
(0.506252 -0.000975284 0)
(0.505256 -0.000938197 0)
(0.39411 -0.00108269 0)
(0.392468 -0.00103466 0)
(0.3909 -0.000989453 0)
(0.3894 -0.00094684 0)
(0.387965 -0.000906603 0)
(0.386592 -0.000868552 0)
(0.385277 -0.000832516 0)
(0.384016 -0.000798344 0)
(0.382807 -0.000765899 0)
(0.381648 -0.00073506 0)
(0.380536 -0.000705715 0)
(0.379468 -0.000677766 0)
(0.378443 -0.00065112 0)
(0.377458 -0.000625696 0)
(0.376512 -0.000601418 0)
(0.375603 -0.000578217 0)
(0.37473 -0.000556032 0)
(0.37389 -0.000534804 0)
(0.373082 -0.000514482 0)
(0.372305 -0.000495016 0)
(0.244526 -0.000391235 0)
(0.243468 -0.000374091 0)
(0.242456 -0.000357942 0)
(0.241488 -0.000342702 0)
(0.240562 -0.000328297 0)
(0.239675 -0.000314663 0)
(0.238825 -0.00030174 0)
(0.23801 -0.000289475 0)
(0.237228 -0.000277822 0)
(0.236478 -0.000266736 0)
(0.235758 -0.000256181 0)
(0.235067 -0.000246121 0)
(0.234403 -0.000236524 0)
(0.233765 -0.000227362 0)
(0.233151 -0.000218607 0)
(0.232562 -0.000210236 0)
(0.231995 -0.000202228 0)
(0.23145 -0.000194561 0)
(0.230926 -0.000187217 0)
(0.230422 -0.00018018 0)
(0.0848247 -6.42654e-05 0)
(0.0844435 -6.15131e-05 0)
(0.0840788 -5.8915e-05 0)
(0.0837298 -5.64584e-05 0)
(0.0833955 -5.41323e-05 0)
(0.0830751 -5.19268e-05 0)
(0.0827679 -4.98329e-05 0)
(0.0824732 -4.78426e-05 0)
(0.0821905 -4.59488e-05 0)
(0.081919 -4.4145e-05 0)
(0.0816583 -4.24251e-05 0)
(0.0814079 -4.0784e-05 0)
(0.0811672 -3.92165e-05 0)
(0.0809359 -3.77184e-05 0)
(0.0807135 -3.62854e-05 0)
(0.0804996 -3.49139e-05 0)
(0.0802939 -3.36005e-05 0)
(0.080096 -3.23419e-05 0)
(0.0799055 -3.11354e-05 0)
(0.0797222 -2.99784e-05 0)
)
;

boundaryField
{
    fixedWalls
    {
        type            noSlip;
    }
    inlet
    {
        type            fixedValue;
        value           nonuniform 0();
    }
    outlet
    {
        type            zeroGradient;
    }
    frontAndBack
    {
        type            empty;
    }
    procBoundary6to2
    {
        type            processor;
        value           nonuniform List<vector> 
20
(
(1.38496 0.00111146 0)
(1.38927 0.00106823 0)
(1.39341 0.00102669 0)
(1.3974 0.0009868 0)
(1.40122 0.000948483 0)
(1.4049 0.000911675 0)
(1.40844 0.000876322 0)
(1.41183 0.000842367 0)
(1.4151 0.000809755 0)
(1.41824 0.000778444 0)
(1.42126 0.000748393 0)
(1.42416 0.000719536 0)
(1.42695 0.000691794 0)
(1.42963 0.000665129 0)
(1.43221 0.000639552 0)
(1.43469 0.000615036 0)
(1.43707 0.000591469 0)
(1.43936 0.000568771 0)
(1.44157 0.00054698 0)
(1.44369 0.000526111 0)
)
;
    }
    procBoundary6to5
    {
        type            processor;
        value           nonuniform List<vector> 
20
(
(1.38047 -0.00115644 0)
(1.37821 -0.00342283 0)
(1.37339 -0.00555133 0)
(1.36542 -0.00745574 0)
(1.35346 -0.00905884 0)
(1.33648 -0.0102966 0)
(1.31331 -0.0111226 0)
(1.28273 -0.0115119 0)
(1.24355 -0.0114639 0)
(1.19468 -0.011003 0)
(1.13523 -0.0101781 0)
(1.06453 -0.0090585 0)
(0.98215 -0.00772856 0)
(0.887932 -0.00628136 0)
(0.781922 -0.00481202 0)
(0.664341 -0.0034115 0)
(0.535519 -0.00216121 0)
(0.39583 -0.00113384 0)
(0.245634 -0.000409467 0)
(0.0852234 -6.71859e-05 0)
)
;
    }
    procBoundary6to7
    {
        type            processor;
        value           nonuniform List<vector> 
20
(
(1.44573 -0.000505894 0)
(1.44063 -0.00149471 0)
(1.43027 -0.00241542 0)
(1.41437 -0.00322741 0)
(1.39251 -0.00389673 0)
(1.36422 -0.00439817 0)
(1.32894 -0.00471652 0)
(1.28613 -0.00484721 0)
(1.23529 -0.00479608 0)
(1.17596 -0.00457857 0)
(1.10777 -0.00421822 0)
(1.03046 -0.00374476 0)
(0.943863 -0.00319208 0)
(0.847905 -0.00259617 0)
(0.7426 -0.00199327 0)
(0.628025 -0.00141816 0)
(0.504298 -0.000902671 0)
(0.371557 -0.000476363 0)
(0.229936 -0.000173435 0)
(0.0795458 -2.88684e-05 0)
)
;
    }
}


// ************************************************************************* //
