/*--------------------------------*- C++ -*----------------------------------*\
| =========                 |                                                 |
| \\      /  F ield         | OpenFOAM: The Open Source CFD Toolbox           |
|  \\    /   O peration     | Version:                                        |
|   \\  /    A nd           | Website:  www.openfoam.com                      |
|    \\/     M anipulation  |                                                 |
\*---------------------------------------------------------------------------*/
FoamFile
{
    version     2.0;
    format      ascii;
    class       surfaceScalarField;
    location    "197.4";
    object      phi;
}
// * * * * * * * * * * * * * * * * * * * * * * * * * * * * * * * * * * * * * //

dimensions      [0 3 -1 0 0 0 0];
oriented        oriented;


internalField   nonuniform List<scalar> 
2213
(
-0.00144716
0.000771437
0.000675726
-0.00283207
0.00337257
-0.00198766
-0.0030711
0.00582331
-0.00558428
-0.00297719
0.00836924
-0.00846315
0.00306207
0.00319932
-0.00923859
0.0134769
-0.00902207
-0.0013928
0.0229804
-0.0188598
0.00935638
0.0293695
-0.024999
0.0186099
0.0328438
-0.0282775
0.0248032
-0.0300482
-0.0007764
0.00154784
-0.00136629
0.00396246
-0.00217824
0.00663526
0.00108796
0.00510304
0.0113907
-0.00710337
0.02039
-0.0180214
0.0262159
-0.0246858
0.0293064
-0.0280894
0.0308259
-0.0297971
0.0316101
-0.0308324
0.0321803
-0.0317552
-0.0326431
-0.000725516
0.00227335
-0.00165308
0.00489002
-0.000753346
0.00573553
0.00820071
-0.00385101
0.0172389
-0.0161416
0.0229268
-0.0237093
0.0257896
-0.0275486
0.0271581
-0.029458
0.0279408
-0.0305798
0.028589
-0.0314806
0.0291155
-0.0322817
0.0295374
-0.033065
0.0298664
-0.0338546
-0.0346891
-0.000519496
0.00279285
-0.00209647
0.00646699
0.00364079
-1.72935e-06
0.0134682
-0.0136785
0.0195322
-0.0222056
0.022474
-0.026651
0.023865
-0.0289395
0.0246419
-0.0302349
0.0251913
-0.0311291
0.0256008
-0.0318901
0.025961
-0.0326419
0.0263276
-0.0334317
0.0267268
-0.0342537
0.0270692
-0.0350315
0.0273858
-0.0358057
0.0276284
-0.0365697
-0.0373058
-0.00107179
0.00386464
0.000481675
0.00491352
0.00966599
-0.00918604
0.0157369
-0.0197494
0.0190264
-0.0254951
0.0206761
-0.0283008
0.0214821
-0.0297455
0.0219079
-0.0306607
0.022226
-0.0314472
0.0225593
-0.0322234
0.0229123
-0.0329948
0.0232126
-0.033732
0.0234706
-0.0345117
0.0237356
-0.0352965
0.0240372
-0.0361074
0.024452
-0.0369844
0.0248886
-0.0377424
0.025313
-0.038528
0.025914
-0.0395008
-0.0401996
-0.00176114
0.00562578
0.00398741
-0.00083502
0.0112954
-0.0164941
0.0155783
-0.0240322
0.0176198
-0.0275366
0.0184996
-0.0291806
0.0189035
-0.0301494
0.0191946
-0.0309518
0.019444
-0.0316966
0.0196526
-0.0324319
0.0198195
-0.0331618
0.0200288
-0.0339413
0.0202608
-0.0347437
0.0204884
-0.0355242
0.0207003
-0.0363193
0.0208416
-0.0371257
0.0209786
-0.0378794
0.0211948
-0.0387442
0.0214321
-0.0397381
-0.0407146
0.0219471
0.000156692
0.00546908
0.00799532
-0.00867365
0.0121405
-0.0206393
0.0145392
-0.0264309
0.0156555
-0.0286529
0.0161075
-0.0296326
0.0163386
-0.0303805
0.016475
-0.0310882
0.0165902
-0.0318118
0.0167126
-0.0325543
0.0168524
-0.0333016
0.0169473
-0.0340362
0.0170163
-0.0348127
0.0170943
-0.0356022
0.017236
-0.036461
0.0174615
-0.0373512
0.017772
-0.0381899
0.0180707
-0.0390429
0.0183291
-0.0399965
-0.0407918
0.0184063
0.00133407
0.00413502
0.00824657
-0.0155862
0.0118547
-0.0242475
0.0130744
-0.0276505
0.0134498
-0.0290283
0.0136057
-0.0297885
0.0136718
-0.0304466
0.013716
-0.0311324
0.0137485
-0.0318442
0.0137456
-0.0325514
0.0137371
-0.0332932
0.0137581
-0.0340572
0.0137906
-0.0348451
0.0138098
-0.0356214
0.0137881
-0.0364393
0.0137345
-0.0372976
0.0136505
-0.0381059
0.0137168
-0.0391092
0.0139216
-0.0402013
-0.0410341
0.014164
0.00390966
0.000225356
0.00827033
-0.0199468
0.0104373
-0.0264144
0.0110841
-0.0282973
0.0111863
-0.0291305
0.0111598
-0.029762
0.011134
-0.0304208
0.0110848
-0.0310832
0.0110012
-0.0317606
0.0109114
-0.0324617
0.0108016
-0.0331834
0.0106743
-0.0339299
0.0105091
-0.0346799
0.0103646
-0.0354769
0.0103142
-0.0363889
0.0102744
-0.0372578
0.0102278
-0.0380593
0.0100882
-0.0389696
0.00996711
-0.0400802
-0.0410579
0.00999086
0.00619499
-0.00596963
0.00806191
-0.0218137
0.00860588
-0.0269584
0.00879323
-0.0284847
0.00881794
-0.0291552
0.0087645
-0.0297086
0.00862903
-0.0302854
0.00845315
-0.0309073
0.00826512
-0.0315726
0.0080291
-0.0322256
0.00777939
-0.0329337
0.00753108
-0.0336816
0.00729554
-0.0344444
0.0070094
-0.0351907
0.00668914
-0.0360686
0.00644536
-0.037014
0.00621263
-0.0378266
0.0059973
-0.0387543
0.00577836
-0.0398613
0.00565121
-0.0409307
-0.000639418
0.0096374
-0.00209897
0.0143946
0.0171349
0.00109536
0.00854205
0.000884146
0.0146058
0.000650782
0.0173683
0.0196205
0.00461937
0.00392268
0.0050886
0.0141366
0.00481347
0.0176434
0.0191089
0.0042255
-0.000302823
0.00774529
0.0106168
0.00918307
0.0162056
0.0184312
0.00220691
-0.00250974
0.00780673
0.00501696
0.0111548
0.0128576
0.0165993
0.00104288
-0.00355261
0.00528783
0.000772007
0.00951085
0.00863453
0.0126897
0.0134204
0.0149058
0.000348901
-0.00390151
0.00225728
-0.00113637
0.00550049
0.00539132
0.00853176
0.0103892
0.0111189
0.0123186
0.0118382
-0.000251684
-0.00364983
-0.000260462
-0.00112759
0.00112307
0.00400779
0.00297277
0.00853948
0.00448365
0.0108077
0.00489873
0.0114231
0.00879639
-0.001197
-0.00245283
-0.00250588
0.000181292
-0.00307766
0.00457957
-0.00287447
0.00833628
-0.00279275
0.010726
-0.000464797
0.00909512
0.00709402
0.00123757
-0.00844904
-0.00177711
-0.00358348
-0.00458819
-0.00471506
-0.00322765
0.00447467
0.0150686
0.0252294
0.0539415
0.00492543
-0.0532157
0.0548625
0.00906982
0.0553275
0.013699
0.0563596
0.0173742
0.0216325
0.0568912
0.0044377
-0.0564035
0.0577867
0.00817429
0.0580509
0.0134348
0.0590066
0.0164185
0.0215622
0.0601511
0.00412111
-0.0598345
0.0609342
0.00739115
0.0611556
0.0132134
0.0618931
0.015681
0.0214687
0.0635674
0.00379689
-0.0632431
0.0641853
0.00677321
0.064461
0.0129376
0.0650238
0.0151182
0.0211413
0.0672106
0.00344726
-0.066861
0.0676739
0.00630989
0.0681005
0.0125111
0.0684367
0.014782
0.0690091
0.0205689
0.0233267
0.0710163
0.00306793
-0.070637
0.0713036
0.00602262
0.0718713
0.0119433
0.0720319
0.0146214
0.0726715
0.0199293
0.0230859
0.0749766
0.00268064
-0.0745894
0.0750996
0.00589969
0.0757045
0.0113384
0.0758351
0.0144908
0.076406
0.0193584
0.0227095
0.0791976
0.00233642
-0.0788534
0.0792259
0.00587134
0.0797566
0.0108078
0.0799656
0.0142818
0.0804755
0.0188485
0.0222266
0.0837502
0.00209206
-0.0835058
0.0837702
0.00585129
0.0841808
0.0103972
0.0844589
0.0140038
0.0849452
0.0183622
0.0217476
0.0886967
0.00194335
-0.0885479
0.0887542
0.00579371
0.0890742
0.0100772
0.0893543
0.0137236
0.0898223
0.0178942
0.0213072
0.0940729
0.00186679
-0.0939963
0.0941866
0.00567999
0.0944455
0.00981832
0.0947428
0.0134264
0.0951958
0.0174411
0.0208338
0.0999393
0.001817
-0.0998895
0.100098
0.00552132
0.100353
0.009563
0.100685
0.013095
0.101157
0.0169693
0.020326
0.106333
0.00176827
-0.106285
0.106527
0.00532759
0.106793
0.00929705
0.107169
0.0127192
0.107641
0.0164974
0.0197778
0.113292
0.00171499
-0.113239
0.113503
0.00511706
0.113779
0.00902096
0.114184
0.0123137
0.114675
0.016007
0.0191832
0.120815
0.00164029
-0.120741
0.121023
0.00490957
0.121338
0.0087057
0.121766
0.0118859
0.122316
0.0154572
0.0185385
0.128853
0.00154682
-0.128759
0.129056
0.00470595
0.129413
0.00834895
0.129867
0.0114321
0.130475
0.0148495
0.0178458
0.137406
0.00144102
-0.1373
0.137602
0.00450949
0.137993
0.00795822
0.138466
0.010959
0.139111
0.0142041
0.0171166
0.146501
0.0013367
-0.146396
0.1467
0.00430993
0.147114
0.00754492
0.147621
0.0104514
0.148322
0.0135031
0.0162914
0.156237
0.00123773
-0.156138
0.156459
0.00408789
0.156905
0.00709891
0.15748
0.00987569
0.158258
0.0127258
0.0153854
0.166672
0.00114095
-0.166575
0.16692
0.00383966
0.167385
0.00663343
0.167996
0.00926503
0.168791
0.0119313
0.0144498
0.177849
0.0010501
-0.177758
0.178114
0.00357535
0.178598
0.00614951
0.179255
0.00860768
0.180123
0.0110629
0.0133967
0.189846
0.000955519
-0.189751
0.190141
0.00328003
0.190668
0.00562275
0.191395
0.00788035
0.192342
0.0101162
0.0122697
0.202719
0.000853671
-0.202618
0.203041
0.0029588
0.203601
0.00506279
0.204373
0.00710779
0.205365
0.00912443
0.0110767
0.216501
0.000747889
-0.216396
0.216846
0.00261455
0.217439
0.00446895
0.218265
0.00628194
0.219331
0.00805911
0.00978645
0.231272
0.000635808
-0.23116
0.231644
0.00224281
0.23228
0.00383302
0.233166
0.00539557
0.234302
0.00692343
0.00841208
0.247095
0.000517923
-0.246977
0.247494
0.00184434
0.248169
0.00315815
0.249112
0.00445197
0.250322
0.00571392
0.00694344
0.264045
0.000393512
-0.26392
0.264467
0.00142173
0.265186
0.00243936
0.266196
0.0034425
0.267489
0.00442011
0.00537303
0.282216
0.00026511
-0.282088
0.282663
0.000975253
0.283425
0.00167663
0.284501
0.0023672
0.28588
0.0030409
0.00369817
0.301687
0.000138539
-0.301561
0.302159
0.000503819
0.30297
0.000865594
0.304114
0.00122247
0.305585
0.00157047
0.00190926
0.322568
-0.32243
0.323072
0.323938
0.32516
0.326731
0.0315918
0.0307056
-0.0292152
-0.0330822
0.0296438
0.0299417
-0.0279936
0.0275732
0.0290415
-0.0269709
0.0255911
0.0282007
-0.0262187
0.0237607
0.0275172
-0.0256868
0.02194
0.0270342
-0.0252135
0.0200319
0.0264773
-0.0245692
0.0181662
0.0257858
-0.02392
0.0164394
0.0252208
-0.023494
0.0147888
0.0248469
-0.0231964
0.0131302
0.02448
-0.0228214
0.011476
0.0241039
-0.0224496
0.0098721
0.0237745
-0.0221706
0.00831001
0.0235476
-0.0219855
0.00677613
0.0234172
-0.0218833
0.00526527
0.0233684
-0.0218575
0.00375966
0.0234051
-0.0218995
0.00228957
0.023512
-0.0220419
0.000899087
0.0238542
-0.0224637
0.019066
-0.0181669
0.0283908
0.0324505
-0.0301357
0.0265071
0.0318253
0.0245587
0.0309899
0.0226713
0.0300882
0.0209442
0.0292443
0.0193312
0.0286472
0.0176636
0.0281449
0.0159782
0.0274712
0.014399
0.0268
0.0128974
0.0263485
0.0114089
0.0259685
0.00993631
0.0255764
0.00848953
0.0252213
0.00709987
0.0249373
0.00575916
0.0247579
0.0044223
0.0247052
0.00308619
0.0247412
0.00176916
0.024829
0.00056208
0.0250613
0.0196281
0.0247775
0.0341297
-0.0264566
0.0231873
0.0334155
0.0215196
0.0326577
0.0198222
0.0317856
0.018236
0.0308305
0.0167764
0.0301068
0.0153227
0.0295986
0.0137858
0.0290081
0.0122967
0.0282892
0.0109394
0.0277058
0.00963508
0.0272728
0.00832409
0.0268874
0.00702331
0.0265221
0.0057577
0.0262029
0.0045681
0.0259475
0.00345377
0.0258196
0.00237137
0.0258236
0.00124553
0.0259549
0.000252713
0.0260541
0.0198808
0.0210089
0.0359045
-0.0227837
0.0194894
0.034935
0.0180588
0.0340883
0.0165989
0.0332455
0.0151407
0.0322887
0.0138554
0.031392
0.0126518
0.0308023
0.0113879
0.030272
0.0100568
0.0296203
0.00876679
0.0289958
0.00758326
0.0284563
0.00648384
0.0279868
0.00540272
0.0276032
0.00431811
0.0272875
0.00326565
0.027
0.00228177
0.0268034
0.00144344
0.026662
0.000534561
0.0268637
-0.000221346
0.02681
0.0196595
0.017506
0.0372417
-0.0188432
0.016196
0.036245
0.0148434
0.0354409
0.0135122
0.0345767
0.0121884
0.0336126
0.0109112
0.0326692
0.00980707
0.0319064
0.00876783
0.0313112
0.00772558
0.0306625
0.00666123
0.0300601
0.00558964
0.0295279
0.00456358
0.0290129
0.00363711
0.0285297
0.00277354
0.0281511
0.00194336
0.0278301
0.00112676
0.02762
0.000402647
0.0273861
-3.18698e-05
0.0272983
-0.000501704
0.0272799
0.0191578
0.0132149
0.0383805
-0.0143537
0.0122334
0.0372265
0.0112856
0.0363888
0.0101945
0.0356678
0.00907908
0.0347279
0.00799826
0.03375
0.00695659
0.032948
0.00598875
0.0322791
0.00506281
0.0315885
0.00419519
0.0309277
0.00336604
0.0303571
0.00254433
0.0298346
0.00173304
0.029341
0.000986424
0.0288977
0.000328816
0.0284878
-0.000229304
0.0281782
-0.000821409
0.0279782
-0.00121715
0.027694
-0.00106371
0.0271264
0.0180941
0.00919445
0.039463
-0.0102769
0.00818963
0.0382313
0.00736587
0.0372126
0.0065794
0.0364542
0.0057184
0.0355889
0.00485758
0.0346108
0.00403595
0.0337697
0.00325569
0.0330593
0.00250092
0.0323432
0.00177144
0.0316572
0.00107198
0.0310565
0.000422688
0.0304839
-0.000167187
0.0299308
-0.000746395
0.0294769
-0.00130261
0.029044
-0.00178118
0.0286567
-0.00207345
0.0282704
-0.00214751
0.0277681
-0.00161552
0.0265944
0.0164785
0.0051974
0.0402023
-0.00593674
0.00433751
0.0390912
0.00359915
0.0379509
0.00294723
0.0371062
0.00227342
0.0362628
0.00161066
0.0352736
0.000958694
0.0344216
0.00030944
0.0337086
-0.000311541
0.0329642
-0.000878294
0.032224
-0.00139513
0.0315734
-0.00190873
0.0309975
-0.00239308
0.0304152
-0.00281356
0.0298974
-0.00318642
0.0294168
-0.00350069
0.028971
-0.00368449
0.0284542
-0.00352372
0.0276073
-0.00240969
0.0254804
0.0140689
0.000640453
0.0406893
-0.00112747
0.000135765
0.0395958
-0.00035377
0.0384405
-0.000781603
0.037534
-0.00123334
0.0367145
-0.00172609
0.0357664
-0.00218333
0.0348789
-0.00260654
0.0341318
-0.00304586
0.0334035
-0.00349612
0.0326742
-0.00391089
0.0319881
-0.00426265
0.0313493
-0.00458237
0.0307349
-0.00485654
0.0301716
-0.00506704
0.0296273
-0.00522585
0.0291298
-0.00530145
0.0285298
-0.00500394
0.0273098
-0.00334377
0.0238202
0.0107251
-0.00366925
0.00342782
-0.00393466
-0.00424846
-0.00454102
-0.00484058
-0.00514281
-0.00545468
-0.00576728
-0.00604536
-0.00630481
-0.00654232
-0.00676565
-0.00693806
-0.00705187
-0.0071331
-0.00715848
-0.00711332
-0.00676193
-0.00475545
0.0395256
0.00340222
0.0367721
0.00336942
0.0340776
0.00334046
0.0314374
0.00330587
0.0288525
0.00326687
0.026314
0.00323426
0.0238228
0.00320093
0.0213708
0.00318036
0.018944
0.00317065
0.016544
0.00316083
0.0141589
0.00316306
0.0117784
0.00317998
0.00940692
0.00319276
0.00704715
0.00322303
0.00467197
0.00327779
0.00217478
0.00342849
0.00282605
0.039335
0.00623011
0.0365765
0.00612792
0.0338853
0.00603167
0.0312517
0.00593952
0.0286762
0.00584236
0.0261514
0.00575905
0.0236701
0.00568226
0.0212381
0.00561229
0.0188364
0.00557242
0.0164531
0.00554409
0.0140866
0.00552961
0.0117194
0.00554718
0.00932367
0.00558844
0.00690283
0.00564387
0.00448682
0.0056938
0.00201233
0.00590298
0.00483837
0.0388901
0.00903866
0.0361485
0.00886954
0.0334751
0.00870499
0.0308616
0.00855302
0.0283027
0.00840127
0.0258015
0.00826027
0.0233377
0.00814606
0.0209125
0.00803751
0.0185247
0.00796017
0.0161533
0.00791552
0.0138172
0.00786566
0.011524
0.00784038
0.00925296
0.00785953
0.00694658
0.00795024
0.0046176
0.00802278
0.0021853
0.00833529
0.00702367
0.0408716
0.0120696
0.0381059
0.0118044
0.0354163
0.0115591
0.0328007
0.0113206
0.0302468
0.0111069
0.0277378
0.0109103
0.0252829
0.0107151
0.0228768
0.0105521
0.0205141
0.0104002
0.0182099
0.0102644
0.0159224
0.010203
0.0136023
0.0101858
0.0112631
0.0101796
0.00892903
0.0101936
0.00662775
0.0102515
0.00431422
0.0103363
0.0019539
0.0106956
0.00897757
0.0397826
0.0148724
0.0370416
0.0145454
0.0343677
0.0142331
0.0317838
0.0139044
0.0292956
0.0135952
0.0268668
0.0133391
0.0244704
0.0131115
0.0220942
0.0129284
0.0197315
0.0127629
0.0174235
0.0125724
0.0152142
0.0124123
0.0130473
0.0123527
0.0108864
0.0123405
0.00869543
0.0123845
0.00644548
0.0125015
0.0041829
0.0125989
0.00188898
0.0129895
0.0108666
0.0410373
0.0179428
0.0383911
0.0175186
0.0358015
0.017135
0.0332394
0.0167951
0.0306908
0.016453
0.0282164
0.0160697
0.0258566
0.0156989
0.0236057
0.0153624
0.0214236
0.0151105
0.0192226
0.0149639
0.0169538
0.0148412
0.0146985
0.0146676
0.0125141
0.014537
0.0103568
0.0144978
0.00824166
0.0144997
0.00614655
0.0145966
0.00403277
0.0147127
0.00185721
0.0151651
0.0127238
0.0418215
0.0212559
0.0390591
0.0207051
0.0363932
0.0201845
0.0338748
0.0196533
0.03152
0.0191499
0.0292131
0.0187599
0.0268699
0.0184129
0.0245115
0.0180573
0.0222141
0.0176597
0.0200501
0.0172744
0.0180084
0.0170056
0.0159863
0.0168632
0.0139122
0.0167418
0.0118516
0.0165976
0.00983371
0.0165157
0.00779031
0.0165431
0.00572831
0.0166586
0.00362974
0.0168112
0.00154654
0.0172483
0.0142703
0.0397146
0.0236154
-0.0420741
0.0371833
0.0232364
0.0345708
0.022797
0.0320289
0.0221953
0.0296445
0.0215343
0.0274893
0.0209152
0.025443
0.0204592
0.0233289
0.0201714
0.0211218
0.0198669
0.01894
0.0194562
0.0168783
0.0190674
0.0149244
0.0188171
0.0129974
0.0186688
0.0110265
0.0185685
0.00908563
0.0184565
0.00721172
0.018417
0.0053491
0.0185212
0.00349009
0.0186702
0.00158357
0.0191548
0.0158539
0.0365663
0.026186
-0.0391369
0.034137
0.0256657
0.0319675
0.0249665
0.0298334
0.0243294
0.0276049
0.0237628
0.025381
0.023139
0.0233419
0.0224983
0.0214775
0.0220358
0.0195785
0.0217658
0.0175906
0.0214441
0.0156306
0.0210274
0.0137503
0.0206975
0.0119503
0.0204688
0.0101749
0.0203439
0.00835167
0.0202798
0.00653513
0.0202336
0.0047599
0.0202964
0.00296301
0.0204671
0.00120277
0.0209151
0.0170566
0.0336097
-0.0366389
0.0312817
0.0292773
0.0273881
0.025464
0.0233896
0.0213186
0.0194345
0.0177062
0.0159539
0.0141599
0.0124078
0.0107059
0.00906432
0.00746078
0.00583684
0.00423375
0.00265898
0.0011103
0.00693193
0.00785729
0.0372381
0.00701216
0.00845647
0.0471974
0.00642538
0.00736817
0.0482857
0.050917
0.00625078
0.00673828
0.0515469
0.0547999
0.00601333
0.00603318
0.055505
0.0589958
0.0056824
0.00535865
0.0596704
0.0635664
0.00526495
0.00478613
0.0641389
0.0684726
0.00482231
0.0043102
0.0689485
0.0736717
0.00436214
0.00389023
0.0740917
0.0791419
0.00387092
0.003492
0.0795401
0.084849
0.00336521
0.00309005
0.085251
0.0907953
0.00287686
0.00268798
0.0911974
0.0969891
0.00244912
0.0023208
0.0973563
0.10347
0.0021033
0.00200706
0.103784
0.110359
0.00183781
0.00176337
0.110603
0.117735
0.00163248
0.00156969
0.117928
0.125647
0.00144858
0.00139617
0.125821
0.134126
0.00126705
0.00122387
0.134298
0.143219
0.001089
0.00104947
0.143393
0.152974
0.000922177
0.000885854
0.153138
0.163407
0.000774318
0.000741763
0.163551
0.174544
0.000648408
0.000620199
0.174665
0.186422
0.000543755
0.000516807
0.186526
0.199108
0.000454785
0.000429894
0.199195
0.212665
0.000377598
0.000355534
0.21274
0.227163
0.000308985
0.000290106
0.227229
0.242666
0.000246016
0.000230463
0.242725
0.259259
0.00018985
0.000178321
0.259311
0.277047
0.000129855
0.000121352
0.277104
0.296132
5.75564e-05
5.35969e-05
0.296199
0.316761
3.13114e-05
2.83189e-05
0.316787
0.33868
0.338708
0.0481972
-0.0329937
0.0484762
-0.0304147
0.0489676
-0.0269481
0.0495523
-0.0233684
0.0498545
-0.0191454
0.0504696
-0.0149688
0.0511238
-0.0109312
0.0516748
-0.00648765
0.0523088
-0.00176148
0.00252091
0.0520419
-0.0334887
0.0522691
-0.0306419
0.0526148
-0.0272937
0.0531326
-0.0238863
0.0533865
-0.0193993
0.0540152
-0.0155975
0.0543976
-0.0113136
0.0550002
-0.00709027
0.0555154
-0.00227668
0.00163284
0.0558027
-0.0337864
0.0560586
-0.0308978
0.0562266
-0.0274618
0.0566969
-0.0243566
0.0569925
-0.0196949
0.0576484
-0.0162533
0.0578766
-0.0115418
0.058573
-0.00778674
0.0590164
-0.00272
0.000814737
0.0598912
-0.0340071
0.0601911
-0.0311978
0.0603428
-0.0276135
0.0607261
-0.0247399
0.0610029
-0.0199717
0.0615234
-0.0167737
0.0616923
-0.0117107
0.062287
-0.00838143
0.0626613
-0.00309432
0.000232909
0.0642937
-0.034162
0.0645056
-0.0314096
0.0646378
-0.0277457
0.0648309
-0.024933
0.0650802
-0.020221
0.0654067
-0.0171002
0.0656579
-0.011962
0.0660625
-0.00878597
0.0664331
-0.00346492
-0.000195003
0.0689966
-0.03421
0.0690794
-0.0314925
0.0691773
-0.0278436
0.0692131
-0.0249687
0.0694301
-0.020438
0.0695564
-0.0172265
0.0698347
-0.0122403
0.0700198
-0.00897111
0.0703625
-0.00380756
-0.00046952
0.0740048
-0.0341232
0.0739661
-0.0314538
0.0739918
-0.0278693
0.0739041
-0.0248811
0.0740156
-0.0205495
0.0739635
-0.0171743
0.074166
-0.0124428
0.0741838
-0.00898893
0.0744586
-0.00408238
-0.000600274
0.079336
-0.0339191
0.0791738
-0.0312916
0.0790789
-0.0277744
0.0788808
-0.024683
0.0788511
-0.0205198
0.0786698
-0.016993
0.0787618
-0.0125348
0.0786596
-0.00888677
0.0788567
-0.00427948
-0.000596918
0.08493
-0.0335981
0.0846275
-0.0309891
0.0843858
-0.0275327
0.0840989
-0.024396
0.083928
-0.020349
0.0836687
-0.0167337
0.0836316
-0.0124976
0.0834645
-0.00871961
0.0835682
-0.00438319
-0.000534541
0.0907414
-0.0331422
0.0902891
-0.0305369
0.0899002
-0.0271437
0.0895245
-0.0240203
0.0892221
-0.0200467
0.0889164
-0.016428
0.0887573
-0.0123385
0.0885799
-0.00854228
0.0886002
-0.00440342
-0.000482327
0.0967574
-0.0325433
0.0961555
-0.029935
0.0956451
-0.0266333
0.0951787
-0.0235538
0.0947883
-0.0196563
0.0944537
-0.0160934
0.0942132
-0.012098
0.0940535
-0.00838254
0.0940017
-0.00435161
-0.00047698
0.103057
-0.0318157
0.102331
-0.0292099
0.101729
-0.0260308
0.101187
-0.0230115
0.100743
-0.0192125
0.100383
-0.0157337
0.100098
-0.0118132
0.0999484
-0.0082326
0.099854
-0.00425722
-0.000512455
0.109766
-0.0309789
0.108946
-0.0283896
0.108269
-0.0253542
0.107667
-0.022409
0.107189
-0.0187348
0.106802
-0.0153465
0.106496
-0.011508
0.106337
-0.00807287
0.106229
-0.00414909
-0.000568483
0.117007
-0.0300573
0.116117
-0.0275
0.115378
-0.0246153
0.114723
-0.0217537
0.114216
-0.0182284
0.113799
-0.014929
0.11348
-0.0111888
0.113298
-0.00789075
0.113184
-0.00403528
-0.000623696
0.124823
-0.0290597
0.12388
-0.026557
0.123079
-0.023814
0.122365
-0.0210403
0.121825
-0.0176883
0.12137
-0.0144736
0.12104
-0.0108588
0.12082
-0.00767056
0.12071
-0.00392573
-0.000654233
0.133222
-0.0279838
0.132227
-0.0255614
0.131359
-0.0229461
0.130579
-0.0202611
0.129982
-0.0170907
0.12948
-0.013972
0.129126
-0.0105045
0.128864
-0.00740852
0.128753
-0.003815
-0.000660165
0.142231
-0.0268218
0.141165
-0.0244959
0.140222
-0.0220024
0.139367
-0.019406
0.138695
-0.0164194
0.138135
-0.0134112
0.137747
-0.0101174
0.137441
-0.0071016
0.137323
-0.00369711
-0.000637336
0.151874
-0.0255582
0.150717
-0.0233384
0.149681
-0.0209661
0.148744
-0.0184695
0.147987
-0.0156626
0.147361
-0.0127853
0.146926
-0.00968148
0.146581
-0.00675736
0.146441
-0.00355707
-0.00059242
0.162176
-0.0241829
0.160912
-0.0220743
0.159774
-0.0198284
0.158753
-0.0174478
0.15791
-0.0148201
0.157218
-0.0120927
0.156726
-0.00918997
0.156352
-0.00638292
0.156185
-0.00339034
-0.000545197
0.173172
-0.0226893
0.171797
-0.0206998
0.170554
-0.0185851
0.169445
-0.0163391
0.168518
-0.0138928
0.16776
-0.0113351
0.16721
-0.00864025
0.166809
-0.0059817
0.166618
-0.00319899
-0.000502541
0.184911
-0.0210743
0.183426
-0.0192149
0.18208
-0.0172392
0.180885
-0.0151445
0.179877
-0.0128845
0.179058
-0.0105155
0.17845
-0.00803244
0.17802
-0.0055521
0.177802
-0.00298076
-0.000459029
0.197456
-0.0193346
0.195859
-0.0176187
0.194413
-0.0157934
0.193133
-0.0138643
0.192046
-0.0117968
0.191163
-0.00963243
0.190498
-0.00736797
0.190034
-0.00508853
0.189793
-0.00273899
-0.000417541
0.21087
-0.0174651
0.209158
-0.0159066
0.207612
-0.014247
0.206244
-0.0124971
0.205079
-0.0106317
0.204131
-0.00868412
0.203414
-0.00665079
0.202917
-0.00459157
0.202657
-0.00247916
-0.000378139
0.225222
-0.0154584
0.223388
-0.0140722
0.221736
-0.012595
0.220278
-0.0110395
0.219036
-0.0093896
0.218021
-0.00766962
0.21725
-0.00587935
0.216717
-0.00405891
0.216437
-0.00219849
-0.000337173
0.240575
-0.0133075
0.238612
-0.0121092
0.236849
-0.0108323
0.235297
-0.00948797
0.233976
-0.00806823
0.232896
-0.00659017
0.232073
-0.00505568
0.231505
-0.00349122
0.231203
-0.0018963
-0.000294514
0.257007
-0.0110029
0.254907
-0.0100092
0.253025
-0.0089506
0.251373
-0.00783624
0.249968
-0.00666349
0.248822
-0.0054438
0.247947
-0.00418039
0.247345
-0.00288933
0.247023
-0.00157468
-0.000248587
0.274632
-0.00853118
0.272385
-0.00776223
0.270376
-0.00694129
0.268615
-0.00607555
0.267118
-0.00516619
0.265896
-0.00422132
0.26496
-0.0032444
0.264315
-0.00224497
0.263969
-0.00122813
-0.000200333
0.293578
-0.00590971
0.291182
-0.00536606
0.289033
-0.0047928
0.287148
-0.00419082
0.285543
-0.00356101
0.28423
-0.00290832
0.283221
-0.00223526
0.282524
-0.00154736
0.282144
-0.000848507
-0.000144302
0.313917
-0.00303983
0.311319
-0.00276874
0.309005
-0.00247875
0.306985
-0.00217061
0.30527
-0.00184548
0.303868
-0.00150699
0.302791
-0.00115742
0.302043
-0.000800264
0.301633
-0.000437712
-7.23521e-05
0.335668
0.332899
0.330421
0.32825
0.326405
0.324898
0.32374
0.32294
0.322502
)
;

boundaryField
{
    outlet
    {
        type            calculated;
        value           nonuniform 0();
    }
    upperWall
    {
        type            symmetryPlane;
        value           uniform 0;
    }
    lowerWall
    {
        type            symmetryPlane;
        value           nonuniform 0();
    }
    inlet
    {
        type            calculated;
        value           nonuniform 0();
    }
    cylinder
    {
        type            calculated;
        value           uniform 0;
    }
    frontAndBack
    {
        type            empty;
        value           nonuniform 0();
    }
    procBoundary5to1
    {
        type            processor;
        value           nonuniform List<scalar> 
20
(
-0.00899799
-0.012935
-0.0156562
-0.000583857
-0.000615922
-0.000645975
-0.000665675
-0.000681986
-0.000695747
-0.000709694
-0.000728415
-0.000743822
-0.000760881
-0.000777875
-0.000799503
-0.000821298
-0.000863258
-0.000902613
-0.000931296
-0.000651268
)
;
    }
    procBoundary5to4
    {
        type            processor;
        value           nonuniform List<scalar> 
45
(
-0.0423439
-0.0421629
-0.0416986
-0.0092194
-0.0437218
-0.0425854
-0.0152182
-0.0437618
-0.0185024
-0.044575
-0.00612158
-0.0428845
-0.0400622
-0.00654698
-0.0377033
-0.0466106
-0.0507424
-0.0545624
-0.0586649
-0.0631489
-0.0680299
-0.0732115
-0.0786507
-0.0843433
-0.0903069
-0.0965614
-0.103124
-0.110094
-0.117529
-0.125463
-0.133944
-0.14304
-0.152808
-0.16326
-0.174418
-0.186318
-0.199019
-0.212588
-0.227095
-0.242603
-0.259203
-0.276987
-0.296059
-0.316735
-0.338648
)
;
    }
    procBoundary5to6
    {
        type            processor;
        value           nonuniform List<scalar> 
63
(
0.034611
0.028281
0.031185
0.0321203
0.0327031
0.0335255
0.0343364
0.0302192
0.0354891
0.0363271
0.0370288
0.0279055
0.0381036
0.0388998
0.0398952
0.0262183
-0.00357769
-0.0198249
0.000855201
0.00532506
0.00986079
0.0129867
-0.0170532
0.0148372
-0.0142544
0.0135352
-0.0102105
0.00631286
-0.00193902
0.0174821
0.0178191
0.0322135
0.0566742
0.0590768
0.0619867
0.0653512
-0.0235106
0.0691931
0.0729122
0.0767825
0.0809583
0.0854242
0.0902627
0.0956692
0.101664
0.108189
0.115269
0.12296
0.131167
0.13984
0.149147
0.159164
0.169726
0.181176
0.193469
0.206558
0.220621
0.235676
0.25179
0.26906
0.287555
0.307374
0.32864
)
;
    }
}


// ************************************************************************* //
