/*--------------------------------*- C++ -*----------------------------------*\
| =========                 |                                                 |
| \\      /  F ield         | OpenFOAM: The Open Source CFD Toolbox           |
|  \\    /   O peration     | Version:                                        |
|   \\  /    A nd           | Website:  www.openfoam.com                      |
|    \\/     M anipulation  |                                                 |
\*---------------------------------------------------------------------------*/
FoamFile
{
    version     2.0;
    format      ascii;
    class       volScalarField;
    location    "0.5";
    object      p;
}
// * * * * * * * * * * * * * * * * * * * * * * * * * * * * * * * * * * * * * //

dimensions      [0 2 -2 0 0 0 0];


internalField   nonuniform List<scalar> 
400
(
0.278035
0.270117
0.262265
0.254478
0.246753
0.239088
0.23148
0.223929
0.216432
0.208988
0.201593
0.194248
0.186949
0.179697
0.172488
0.165321
0.158196
0.15111
0.144063
0.137053
0.278194
0.270268
0.26241
0.254616
0.246885
0.239215
0.231602
0.224046
0.216545
0.209095
0.201697
0.194347
0.187045
0.179788
0.172575
0.165406
0.158277
0.151188
0.144138
0.137125
0.27833
0.270399
0.262534
0.254735
0.246999
0.239323
0.231706
0.224146
0.21664
0.209187
0.201784
0.194431
0.187125
0.179865
0.17265
0.165477
0.158345
0.151254
0.144201
0.137186
0.278443
0.270506
0.262636
0.254832
0.247091
0.239412
0.231791
0.224226
0.216717
0.20926
0.201855
0.194499
0.18719
0.179927
0.172709
0.165534
0.1584
0.151306
0.144251
0.137234
0.278548
0.270605
0.26273
0.254922
0.247177
0.239493
0.231868
0.2243
0.216787
0.209327
0.201919
0.19456
0.187248
0.179983
0.172763
0.165585
0.158449
0.151353
0.144296
0.137277
0.278651
0.270703
0.262823
0.255009
0.24726
0.239571
0.231943
0.224371
0.216855
0.209392
0.20198
0.194618
0.187304
0.180037
0.172814
0.165634
0.158496
0.151398
0.144339
0.137318
0.278757
0.270803
0.262917
0.255098
0.247344
0.239651
0.232018
0.224443
0.216923
0.209456
0.202042
0.194677
0.18736
0.18009
0.172864
0.165682
0.158542
0.151442
0.144381
0.137358
0.27887
0.270908
0.263016
0.255192
0.247432
0.239734
0.232096
0.224517
0.216993
0.209523
0.202105
0.194737
0.187417
0.180144
0.172916
0.165732
0.158589
0.151487
0.144424
0.137399
0.278991
0.271022
0.263123
0.255291
0.247526
0.239823
0.23218
0.224596
0.217068
0.209594
0.202172
0.194801
0.187478
0.180202
0.172971
0.165784
0.158639
0.151534
0.144469
0.137442
0.279122
0.271144
0.263237
0.255399
0.247627
0.239918
0.23227
0.224681
0.217148
0.20967
0.202244
0.194869
0.187543
0.180263
0.173029
0.165839
0.158692
0.151585
0.144517
0.137488
0.279261
0.271274
0.26336
0.255514
0.247735
0.24002
0.232366
0.224771
0.217234
0.209751
0.202321
0.194942
0.187612
0.180329
0.173092
0.165899
0.158748
0.151639
0.144569
0.137537
0.279407
0.271411
0.263488
0.255634
0.247848
0.240126
0.232466
0.224866
0.217323
0.209836
0.202401
0.195018
0.187684
0.180398
0.173157
0.165961
0.158808
0.151695
0.144623
0.137589
0.279556
0.27155
0.263618
0.255757
0.247964
0.240235
0.232569
0.224963
0.217415
0.209923
0.202484
0.195096
0.187759
0.180469
0.173225
0.166025
0.158869
0.151754
0.144679
0.137642
0.279702
0.271688
0.263747
0.255879
0.248078
0.240343
0.232671
0.22506
0.217507
0.210009
0.202566
0.195174
0.187833
0.180539
0.173292
0.166089
0.15893
0.151812
0.144734
0.137695
0.279841
0.271818
0.26387
0.255994
0.248187
0.240446
0.232769
0.225152
0.217594
0.210092
0.202645
0.195249
0.187904
0.180607
0.173356
0.166151
0.158988
0.151868
0.144787
0.137746
0.279967
0.271936
0.263982
0.256099
0.248286
0.24054
0.232857
0.225236
0.217674
0.210168
0.202717
0.195317
0.187969
0.180669
0.173415
0.166207
0.159042
0.151919
0.144836
0.137793
0.280075
0.272038
0.264077
0.256189
0.248372
0.240621
0.232934
0.225309
0.217743
0.210233
0.202779
0.195377
0.188025
0.180722
0.173467
0.166256
0.159089
0.151964
0.144879
0.137834
0.280159
0.272118
0.264153
0.256261
0.248439
0.240685
0.232995
0.225366
0.217797
0.210285
0.202828
0.195424
0.18807
0.180765
0.173507
0.166295
0.159126
0.151999
0.144913
0.137866
0.280218
0.272173
0.264205
0.25631
0.248486
0.240729
0.233037
0.225406
0.217835
0.210321
0.202862
0.195456
0.188101
0.180795
0.173536
0.166322
0.159152
0.152024
0.144937
0.137889
0.280248
0.272201
0.264231
0.256335
0.24851
0.240752
0.233058
0.225427
0.217855
0.21034
0.20288
0.195473
0.188117
0.18081
0.17355
0.166336
0.159165
0.152036
0.144949
0.1379
)
;

boundaryField
{
    fixedWalls
    {
        type            zeroGradient;
    }
    inlet
    {
        type            zeroGradient;
    }
    outlet
    {
        type            fixedValue;
        value           nonuniform 0();
    }
    frontAndBack
    {
        type            empty;
    }
    procBoundary2to1
    {
        type            processor;
        value           nonuniform List<scalar> 
20
(
0.286022
0.286189
0.286332
0.286451
0.286561
0.286671
0.286784
0.286904
0.287034
0.287174
0.287324
0.28748
0.287639
0.287795
0.287943
0.288077
0.288191
0.288281
0.288343
0.288375
)
;
    }
    procBoundary2to3
    {
        type            processor;
        value           nonuniform List<scalar> 
20
(
0.130079
0.130148
0.130206
0.130252
0.130294
0.130333
0.130371
0.13041
0.130451
0.130495
0.130542
0.130592
0.130642
0.130693
0.130742
0.130787
0.130826
0.130857
0.130878
0.130889
)
;
    }
    procBoundary2to6
    {
        type            processor;
        value           nonuniform List<scalar> 
20
(
0.280248
0.272201
0.264232
0.256335
0.24851
0.240752
0.233058
0.225427
0.217855
0.21034
0.20288
0.195473
0.188117
0.18081
0.17355
0.166336
0.159165
0.152036
0.144949
0.1379
)
;
    }
}


// ************************************************************************* //
