/*--------------------------------*- C++ -*----------------------------------*\
| =========                 |                                                 |
| \\      /  F ield         | OpenFOAM: The Open Source CFD Toolbox           |
|  \\    /   O peration     | Version:                                        |
|   \\  /    A nd           | Website:  www.openfoam.com                      |
|    \\/     M anipulation  |                                                 |
\*---------------------------------------------------------------------------*/
FoamFile
{
    version     2.0;
    format      ascii;
    class       surfaceScalarField;
    location    "0.5";
    object      phi;
}
// * * * * * * * * * * * * * * * * * * * * * * * * * * * * * * * * * * * * * //

dimensions      [0 3 -1 0 0 0 0];
oriented        oriented;


internalField   nonuniform List<scalar> 
760
(
2.11585e-06
9.74852e-09
2.10653e-06
9.32234e-09
2.09761e-06
8.92078e-09
2.08906e-06
8.54172e-09
2.08088e-06
8.1833e-09
2.07304e-06
7.84397e-09
2.06551e-06
7.52229e-09
2.0583e-06
7.21699e-09
2.05137e-06
6.92683e-09
2.04472e-06
6.6507e-09
2.03833e-06
6.38768e-09
2.0322e-06
6.13692e-09
2.0263e-06
5.89762e-09
2.02063e-06
5.6691e-09
2.01518e-06
5.45047e-09
2.00994e-06
5.24146e-09
2.0049e-06
5.04118e-09
2.00005e-06
4.84954e-09
1.99538e-06
4.66567e-09
4.48944e-09
6.09992e-06
3.68251e-08
6.07405e-06
3.51957e-08
6.0493e-06
3.3662e-08
6.02563e-06
3.22157e-08
6.00296e-06
3.08497e-08
5.98125e-06
2.95575e-08
5.96044e-06
2.83334e-08
5.94048e-06
2.71723e-08
5.92134e-06
2.60696e-08
5.90297e-06
2.5021e-08
5.88534e-06
2.40229e-08
5.8684e-06
2.30718e-08
5.85213e-06
2.21646e-08
5.8365e-06
2.12987e-08
5.82148e-06
2.0471e-08
5.80705e-06
1.96798e-08
5.79316e-06
1.89221e-08
5.77982e-06
1.81968e-08
5.76698e-06
1.75008e-08
1.68345e-08
9.83223e-06
7.88393e-08
9.79211e-06
7.53206e-08
9.75376e-06
7.20109e-08
9.71708e-06
6.88921e-08
9.68198e-06
6.59481e-08
9.64838e-06
6.31649e-08
9.61618e-06
6.05299e-08
9.58532e-06
5.80317e-08
9.55573e-06
5.56602e-08
9.52734e-06
5.34063e-08
9.5001e-06
5.12619e-08
9.47396e-06
4.92194e-08
9.44885e-06
4.72719e-08
9.42474e-06
4.54135e-08
9.40157e-06
4.36381e-08
9.37931e-06
4.19411e-08
9.35791e-06
4.03167e-08
9.33735e-06
3.87617e-08
9.31758e-06
3.72701e-08
3.58421e-08
1.3306e-05
1.33034e-07
1.32543e-05
1.27056e-07
1.32049e-05
1.21437e-07
1.31576e-05
1.16144e-07
1.31124e-05
1.1115e-07
1.30692e-05
1.06431e-07
1.30277e-05
1.01964e-07
1.2988e-05
9.77316e-08
1.295e-05
9.37149e-08
1.29135e-05
8.98988e-08
1.28785e-05
8.62691e-08
1.28449e-05
8.28131e-08
1.28126e-05
7.95189e-08
1.27817e-05
7.63762e-08
1.27519e-05
7.33747e-08
1.27234e-05
7.05064e-08
1.26959e-05
6.77616e-08
1.26695e-05
6.51344e-08
1.26442e-05
6.26148e-08
6.02034e-08
1.6513e-05
1.96192e-07
1.64528e-05
1.87337e-07
1.63952e-05
1.79013e-07
1.63402e-05
1.71175e-07
1.62875e-05
1.63782e-07
1.62372e-05
1.56796e-07
1.61889e-05
1.50186e-07
1.61427e-05
1.43923e-07
1.60985e-05
1.37981e-07
1.6056e-05
1.32338e-07
1.60153e-05
1.2697e-07
1.59763e-05
1.21861e-07
1.59388e-05
1.16992e-07
1.59028e-05
1.12348e-07
1.58683e-05
1.07914e-07
1.58351e-05
1.03676e-07
1.58033e-05
9.96223e-08
1.57727e-05
9.57429e-08
1.57433e-05
9.20227e-08
8.84633e-08
1.94446e-05
2.64615e-07
1.93793e-05
2.52646e-07
1.93169e-05
2.41394e-07
1.92573e-05
2.30799e-07
1.92003e-05
2.20803e-07
1.91457e-05
2.11359e-07
1.90935e-05
2.02423e-07
1.90434e-05
1.93956e-07
1.89955e-05
1.85924e-07
1.89495e-05
1.78295e-07
1.89055e-05
1.71041e-07
1.88632e-05
1.64135e-07
1.88226e-05
1.57555e-07
1.87837e-05
1.51279e-07
1.87463e-05
1.45287e-07
1.87105e-05
1.39561e-07
1.8676e-05
1.34085e-07
1.86429e-05
1.28845e-07
1.86111e-05
1.2382e-07
1.19013e-07
2.20931e-05
3.34177e-07
2.20267e-05
3.19071e-07
2.19633e-05
3.04864e-07
2.19026e-05
2.9148e-07
2.18445e-05
2.78851e-07
2.1789e-05
2.66915e-07
2.17358e-05
2.55618e-07
2.16848e-05
2.44912e-07
2.1636e-05
2.34755e-07
2.15892e-05
2.25105e-07
2.15443e-05
2.15929e-07
2.15012e-05
2.07193e-07
2.14599e-05
1.98868e-07
2.14203e-05
1.90927e-07
2.13822e-05
1.83346e-07
2.13457e-05
1.76102e-07
2.13106e-05
1.69173e-07
2.12769e-05
1.62544e-07
2.12445e-05
1.56187e-07
1.50107e-07
2.44536e-05
4.00476e-07
2.43902e-05
3.82437e-07
2.43296e-05
3.6546e-07
2.42716e-05
3.49454e-07
2.42161e-05
3.34341e-07
2.4163e-05
3.2005e-07
2.41121e-05
3.06518e-07
2.40633e-05
2.93688e-07
2.40166e-05
2.8151e-07
2.39717e-05
2.69937e-07
2.39287e-05
2.58928e-07
2.38875e-05
2.48445e-07
2.38479e-05
2.38453e-07
2.38099e-05
2.28921e-07
2.37734e-05
2.19818e-07
2.37384e-05
2.11121e-07
2.37048e-05
2.028e-07
2.36725e-05
1.94839e-07
2.36415e-05
1.87203e-07
1.79903e-07
2.65247e-05
4.59057e-07
2.64686e-05
4.38517e-07
2.64149e-05
4.19164e-07
2.63634e-05
4.00899e-07
2.63142e-05
3.83636e-07
2.62669e-05
3.67298e-07
2.62216e-05
3.51816e-07
2.61782e-05
3.37127e-07
2.61365e-05
3.23176e-07
2.60965e-05
3.09911e-07
2.60582e-05
2.97286e-07
2.60214e-05
2.85258e-07
2.5986e-05
2.7379e-07
2.59521e-05
2.62846e-07
2.59195e-05
2.52392e-07
2.58882e-05
2.42401e-07
2.58582e-05
2.32841e-07
2.58293e-05
2.23694e-07
2.58016e-05
2.14918e-07
2.06527e-07
2.83104e-05
5.05701e-07
2.82656e-05
4.83294e-07
2.82226e-05
4.62148e-07
2.81813e-05
4.42164e-07
2.81417e-05
4.23252e-07
2.81037e-05
4.05334e-07
2.80672e-05
3.88336e-07
2.80321e-05
3.72194e-07
2.79984e-05
3.56849e-07
2.79661e-05
3.42249e-07
2.7935e-05
3.28343e-07
2.79052e-05
3.15088e-07
2.78765e-05
3.02442e-07
2.7849e-05
2.90368e-07
2.78226e-05
2.7883e-07
2.77972e-05
2.67799e-07
2.77728e-05
2.5724e-07
2.77493e-05
2.47137e-07
2.77268e-05
2.37439e-07
2.28166e-07
2.98202e-05
5.36731e-07
2.97903e-05
5.13245e-07
2.97614e-05
4.9104e-07
2.97335e-05
4.70019e-07
2.97067e-05
4.50096e-07
2.96808e-05
4.31192e-07
2.96559e-05
4.13237e-07
2.96319e-05
3.96166e-07
2.96089e-05
3.79922e-07
2.95867e-05
3.6445e-07
2.95653e-05
3.49702e-07
2.95448e-05
3.35633e-07
2.9525e-05
3.22202e-07
2.9506e-05
3.0937e-07
2.94877e-05
2.97101e-07
2.94702e-05
2.85367e-07
2.94533e-05
2.74129e-07
2.9437e-05
2.63373e-07
2.94214e-05
2.53045e-07
2.43167e-07
3.10698e-05
5.49293e-07
3.10574e-05
5.25612e-07
3.10453e-05
5.03175e-07
3.10334e-05
4.81894e-07
3.10218e-05
4.61687e-07
3.10105e-05
4.42484e-07
3.09996e-05
4.24217e-07
3.09889e-05
4.06827e-07
3.09786e-05
3.90259e-07
3.09685e-05
3.74462e-07
3.09589e-05
3.59388e-07
3.09495e-05
3.44995e-07
3.09405e-05
3.31243e-07
3.09317e-05
3.18096e-07
3.09233e-05
3.05518e-07
3.09152e-05
2.9348e-07
3.09074e-05
2.81946e-07
3.08998e-05
2.70903e-07
3.08926e-05
2.60294e-07
2.50144e-07
3.208e-05
5.41575e-07
3.2087e-05
5.1861e-07
3.20934e-05
4.96801e-07
3.20992e-05
4.76072e-07
3.21045e-05
4.56352e-07
3.21095e-05
4.37578e-07
3.2114e-05
4.19691e-07
3.21182e-05
4.02637e-07
3.21221e-05
3.86368e-07
3.21257e-05
3.70836e-07
3.21291e-05
3.55999e-07
3.21323e-05
3.41819e-07
3.21352e-05
3.28258e-07
3.2138e-05
3.15283e-07
3.21407e-05
3.02861e-07
3.21432e-05
2.90966e-07
3.21456e-05
2.79561e-07
3.21479e-05
2.68636e-07
3.215e-05
2.58136e-07
2.48086e-07
3.28761e-05
5.12928e-07
3.29032e-05
4.91553e-07
3.29288e-05
4.71207e-07
3.2953e-05
4.51825e-07
3.2976e-05
4.3335e-07
3.29979e-05
4.15728e-07
3.30187e-05
3.98912e-07
3.30384e-05
3.82854e-07
3.30573e-05
3.67513e-07
3.30753e-05
3.5285e-07
3.30925e-05
3.38827e-07
3.31089e-05
3.2541e-07
3.31246e-05
3.12567e-07
3.31396e-05
3.00269e-07
3.31539e-05
2.88487e-07
3.31677e-05
2.77196e-07
3.31809e-05
2.66364e-07
3.31936e-05
2.55983e-07
3.32057e-05
2.46e-07
2.36443e-07
3.34862e-05
4.63889e-07
3.35328e-05
4.4489e-07
3.35773e-05
4.26763e-07
3.36196e-05
4.09458e-07
3.366e-05
3.9293e-07
3.36986e-05
3.77137e-07
3.37355e-05
3.6204e-07
3.37708e-05
3.47604e-07
3.38045e-05
3.33793e-07
3.38368e-05
3.20575e-07
3.38677e-05
3.0792e-07
3.38973e-05
2.958e-07
3.39257e-05
2.84189e-07
3.39529e-05
2.7306e-07
3.3979e-05
2.6239e-07
3.4004e-05
2.52158e-07
3.4028e-05
2.42337e-07
3.40511e-05
2.32919e-07
3.40732e-05
2.23858e-07
2.1518e-07
3.39389e-05
3.96103e-07
3.40037e-05
3.80141e-07
3.40656e-05
3.64878e-07
3.41247e-05
3.50279e-07
3.41814e-05
3.36309e-07
3.42356e-05
3.22939e-07
3.42875e-05
3.10138e-07
3.43372e-05
2.9788e-07
3.43848e-05
2.86139e-07
3.44305e-05
2.74888e-07
3.44743e-05
2.64106e-07
3.45164e-05
2.5377e-07
3.45567e-05
2.43859e-07
3.45954e-05
2.34353e-07
3.46326e-05
2.25232e-07
3.46682e-05
2.16481e-07
3.47025e-05
2.08076e-07
3.47354e-05
2.00013e-07
3.4767e-05
1.92251e-07
1.84815e-07
3.42622e-05
3.12178e-07
3.43426e-05
2.99773e-07
3.44196e-05
2.87889e-07
3.44933e-05
2.76502e-07
3.45641e-05
2.6559e-07
3.46319e-05
2.5513e-07
3.46969e-05
2.45103e-07
3.47593e-05
2.3549e-07
3.48192e-05
2.26271e-07
3.48766e-05
2.1743e-07
3.49318e-05
2.08949e-07
3.49847e-05
2.00813e-07
3.50356e-05
1.93005e-07
3.50844e-05
1.85512e-07
3.51313e-05
1.78318e-07
3.51764e-05
1.71412e-07
3.52197e-05
1.64777e-07
3.52613e-05
1.58407e-07
3.53013e-05
1.52275e-07
1.46398e-07
3.44807e-05
2.15494e-07
3.45735e-05
2.07024e-07
3.46625e-05
1.98897e-07
3.47479e-05
1.911e-07
3.48298e-05
1.83619e-07
3.49085e-05
1.76441e-07
3.49841e-05
1.69552e-07
3.50566e-05
1.62942e-07
3.51263e-05
1.56597e-07
3.51932e-05
1.50509e-07
3.52575e-05
1.44664e-07
3.53193e-05
1.39054e-07
3.53786e-05
1.33667e-07
3.54356e-05
1.28495e-07
3.54904e-05
1.23527e-07
3.55431e-05
1.18756e-07
3.55937e-05
1.14171e-07
3.56423e-05
1.09768e-07
3.5689e-05
1.05528e-07
1.01464e-07
3.46145e-05
1.09999e-07
3.47159e-05
1.05705e-07
3.48132e-05
1.01583e-07
3.49066e-05
9.76238e-08
3.49964e-05
9.38222e-08
3.50827e-05
9.01718e-08
3.51656e-05
8.66667e-08
3.52452e-05
8.33011e-08
3.53218e-05
8.007e-08
3.53953e-05
7.69677e-08
3.5466e-05
7.3989e-08
3.55339e-05
7.11281e-08
3.55992e-05
6.83805e-08
3.56619e-05
6.57417e-08
3.57223e-05
6.32074e-08
3.57802e-05
6.07727e-08
3.5836e-05
5.84323e-08
3.58896e-05
5.61848e-08
3.59411e-05
5.40211e-08
5.19473e-08
3.46778e-05
3.47835e-05
3.48851e-05
3.49827e-05
3.50765e-05
3.51666e-05
3.52533e-05
3.53366e-05
3.54166e-05
3.54936e-05
3.55675e-05
3.56386e-05
3.5707e-05
3.57727e-05
3.58359e-05
3.58966e-05
3.5955e-05
3.60111e-05
3.60651e-05
)
;

boundaryField
{
    fixedWalls
    {
        type            calculated;
        value           uniform 0;
    }
    inlet
    {
        type            calculated;
        value           nonuniform 0();
    }
    outlet
    {
        type            calculated;
        value           nonuniform 0();
    }
    frontAndBack
    {
        type            empty;
        value           nonuniform 0();
    }
    procBoundary2to1
    {
        type            processor;
        value           nonuniform List<scalar> 
20
(
-2.1256e-06
-6.127e-06
-9.87425e-06
-1.33602e-05
-1.65762e-05
-1.9513e-05
-2.21627e-05
-2.45199e-05
-2.65833e-05
-2.8357e-05
-2.98512e-05
-3.10824e-05
-3.20723e-05
-3.28475e-05
-3.34371e-05
-3.38711e-05
-3.41783e-05
-3.4384e-05
-3.4509e-05
-3.45678e-05
)
;
    }
    procBoundary2to3
    {
        type            processor;
        value           nonuniform List<scalar> 
20
(
1.99089e-06
5.75464e-06
9.29857e-06
1.26198e-05
1.5715e-05
1.85805e-05
2.12134e-05
2.36117e-05
2.5775e-05
2.77052e-05
2.94064e-05
3.08856e-05
3.21521e-05
3.32173e-05
3.40945e-05
3.47974e-05
3.53397e-05
3.5734e-05
3.59906e-05
3.6117e-05
)
;
    }
    procBoundary2to6
    {
        type            processor;
        value           nonuniform List<scalar> 
20
(
9.01414e-12
9.1476e-12
1.00517e-11
1.16952e-11
1.3561e-11
1.52557e-11
1.65385e-11
1.76414e-11
1.89981e-11
2.09841e-11
2.38388e-11
2.71459e-11
3.05828e-11
3.35962e-11
3.69998e-11
4.12826e-11
4.5665e-11
5.08939e-11
5.77814e-11
6.45811e-11
)
;
    }
}


// ************************************************************************* //
