/*--------------------------------*- C++ -*----------------------------------*\
| =========                 |                                                 |
| \\      /  F ield         | OpenFOAM: The Open Source CFD Toolbox           |
|  \\    /   O peration     | Version:                                        |
|   \\  /    A nd           | Website:  www.openfoam.com                      |
|    \\/     M anipulation  |                                                 |
\*---------------------------------------------------------------------------*/
FoamFile
{
    version     2.0;
    format      ascii;
    class       volVectorField;
    location    "0.5";
    object      U;
}
// * * * * * * * * * * * * * * * * * * * * * * * * * * * * * * * * * * * * * //

dimensions      [0 1 -1 0 0 0 0];


internalField   nonuniform List<vector> 
400
(
(0.0848247 6.42642e-05 0)
(0.0844436 6.15123e-05 0)
(0.0840789 5.89145e-05 0)
(0.0837299 5.64577e-05 0)
(0.0833956 5.41308e-05 0)
(0.0830752 5.19242e-05 0)
(0.082768 4.98297e-05 0)
(0.0824734 4.78392e-05 0)
(0.0821907 4.59451e-05 0)
(0.0819193 4.41404e-05 0)
(0.0816586 4.24195e-05 0)
(0.0814082 4.07772e-05 0)
(0.0811677 3.92085e-05 0)
(0.0809364 3.77093e-05 0)
(0.0807141 3.62734e-05 0)
(0.0805004 3.49002e-05 0)
(0.0802948 3.35829e-05 0)
(0.0800971 3.2323e-05 0)
(0.0799068 3.11126e-05 0)
(0.0797238 2.99518e-05 0)
(0.244526 0.000391224 0)
(0.243468 0.00037408 0)
(0.242456 0.000357929 0)
(0.241489 0.000342686 0)
(0.240562 0.000328277 0)
(0.239675 0.000314638 0)
(0.238825 0.00030171 0)
(0.23801 0.00028944 0)
(0.237229 0.00027778 0)
(0.236479 0.000266685 0)
(0.235759 0.00025612 0)
(0.235068 0.000246047 0)
(0.234404 0.000236436 0)
(0.233767 0.000227258 0)
(0.233154 0.000218481 0)
(0.232565 0.000210088 0)
(0.231999 0.000202049 0)
(0.231455 0.000194352 0)
(0.230931 0.000186966 0)
(0.230428 0.000179891 0)
(0.39411 0.00108266 0)
(0.392469 0.00103461 0)
(0.3909 0.000989404 0)
(0.389401 0.00094678 0)
(0.387966 0.00090653 0)
(0.386593 0.000868463 0)
(0.385278 0.00083241 0)
(0.384017 0.000798217 0)
(0.382809 0.000765747 0)
(0.38165 0.000734878 0)
(0.380538 0.000705497 0)
(0.379471 0.000677507 0)
(0.378446 0.000650811 0)
(0.377462 0.00062533 0)
(0.376517 0.000600981 0)
(0.375609 0.000577704 0)
(0.374736 0.000555416 0)
(0.373897 0.000534078 0)
(0.373091 0.000513606 0)
(0.372316 0.000494004 0)
(0.5333 0.00206279 0)
(0.531183 0.00197047 0)
(0.529162 0.00188365 0)
(0.527229 0.00180186 0)
(0.525381 0.00172467 0)
(0.523613 0.0016517 0)
(0.52192 0.00158263 0)
(0.520298 0.00151716 0)
(0.518744 0.00145502 0)
(0.517254 0.00139597 0)
(0.515825 0.00133979 0)
(0.514453 0.00128629 0)
(0.513137 0.00123529 0)
(0.511874 0.00118662 0)
(0.51066 0.00114014 0)
(0.509495 0.00109571 0)
(0.508375 0.00105318 0)
(0.507299 0.00101247 0)
(0.506265 0.000973429 0)
(0.505271 0.000936052 0)
(0.661756 0.00325515 0)
(0.659289 0.00310856 0)
(0.656933 0.00297077 0)
(0.654683 0.002841 0)
(0.652531 0.00271857 0)
(0.650472 0.0026029 0)
(0.648501 0.00249343 0)
(0.646614 0.0023897 0)
(0.644806 0.00229128 0)
(0.643073 0.00219779 0)
(0.641411 0.00210888 0)
(0.639817 0.00202422 0)
(0.638287 0.00194354 0)
(0.636819 0.00186658 0)
(0.635409 0.00179308 0)
(0.634056 0.00172285 0)
(0.632756 0.00165565 0)
(0.631507 0.00159133 0)
(0.630307 0.00152965 0)
(0.629154 0.00147062 0)
(0.779121 0.00459067 0)
(0.776449 0.00438315 0)
(0.773896 0.00418811 0)
(0.771458 0.00400444 0)
(0.769127 0.00383119 0)
(0.766896 0.00366752 0)
(0.764762 0.00351266 0)
(0.762717 0.00336593 0)
(0.760759 0.00322674 0)
(0.758882 0.00309454 0)
(0.757082 0.00296883 0)
(0.755356 0.00284916 0)
(0.7537 0.00273513 0)
(0.752111 0.00262636 0)
(0.750586 0.00252252 0)
(0.749121 0.0024233 0)
(0.747715 0.00232838 0)
(0.746364 0.00223755 0)
(0.745067 0.00215045 0)
(0.74382 0.00206713 0)
(0.885085 0.00599219 0)
(0.882367 0.00572102 0)
(0.879771 0.00546609 0)
(0.87729 0.005226 0)
(0.874916 0.00499949 0)
(0.872646 0.00478547 0)
(0.870472 0.00458295 0)
(0.86839 0.00439106 0)
(0.866395 0.00420902 0)
(0.864484 0.00403611 0)
(0.862651 0.00387169 0)
(0.860893 0.00371518 0)
(0.859206 0.00356604 0)
(0.857588 0.0034238 0)
(0.856034 0.003288 0)
(0.854543 0.00315825 0)
(0.853111 0.00303414 0)
(0.851736 0.0029154 0)
(0.850415 0.00280153 0)
(0.849146 0.00269262 0)
(0.979439 0.00737363 0)
(0.976847 0.00704058 0)
(0.974369 0.00672729 0)
(0.971999 0.00643207 0)
(0.969731 0.00615343 0)
(0.96756 0.00589005 0)
(0.96548 0.00564074 0)
(0.963488 0.00540444 0)
(0.961578 0.0051802 0)
(0.959748 0.00496717 0)
(0.957992 0.00476456 0)
(0.956308 0.00457166 0)
(0.954692 0.00438783 0)
(0.953141 0.00421248 0)
(0.951652 0.00404506 0)
(0.950223 0.00388509 0)
(0.948851 0.00373207 0)
(0.947533 0.00358568 0)
(0.946267 0.00344527 0)
(0.945051 0.00331102 0)
(1.06213 0.00864493 0)
(1.05984 0.00825642 0)
(1.05765 0.00789061 0)
(1.05555 0.0075456 0)
(1.05353 0.00721971 0)
(1.0516 0.00691144 0)
(1.04975 0.00661947 0)
(1.04798 0.00634257 0)
(1.04628 0.00607969 0)
(1.04464 0.00582982 0)
(1.04308 0.00559209 0)
(1.04158 0.00536567 0)
(1.04013 0.00514983 0)
(1.03875 0.0049439 0)
(1.03742 0.00474724 0)
(1.03614 0.00455931 0)
(1.03492 0.0043795 0)
(1.03374 0.00420749 0)
(1.03261 0.00404247 0)
(1.03152 0.00388471 0)
(1.13333 0.00971773 0)
(1.1315 0.00928459 0)
(1.12975 0.00887621 0)
(1.12806 0.00849057 0)
(1.12644 0.0081259 0)
(1.12489 0.0077806 0)
(1.1234 0.00745325 0)
(1.12197 0.00714256 0)
(1.1206 0.00684737 0)
(1.11928 0.00656662 0)
(1.11801 0.00629934 0)
(1.11679 0.00604464 0)
(1.11562 0.00580174 0)
(1.1145 0.00556989 0)
(1.11342 0.0053484 0)
(1.11239 0.00513668 0)
(1.11139 0.00493406 0)
(1.11043 0.00474021 0)
(1.10951 0.00455417 0)
(1.10863 0.00437631 0)
(1.19342 0.0105115 0)
(1.1922 0.0100482 0)
(1.19102 0.0096107 0)
(1.18989 0.00919688 0)
(1.18879 0.00880501 0)
(1.18774 0.00843348 0)
(1.18673 0.00808084 0)
(1.18575 0.0077458 0)
(1.18481 0.00742717 0)
(1.1839 0.00712386 0)
(1.18303 0.00683487 0)
(1.18219 0.00655931 0)
(1.18139 0.00629633 0)
(1.18061 0.00604519 0)
(1.17987 0.00580515 0)
(1.17915 0.00557561 0)
(1.17846 0.00535585 0)
(1.1778 0.00514555 0)
(1.17716 0.00494365 0)
(1.17655 0.00475058 0)
(1.24304 0.0109596 0)
(1.24254 0.0104833 0)
(1.24205 0.0100325 0)
(1.24157 0.00960537 0)
(1.2411 0.00920021 0)
(1.24064 0.00881548 0)
(1.2402 0.00844981 0)
(1.23977 0.00810195 0)
(1.23935 0.00777074 0)
(1.23894 0.00745512 0)
(1.23854 0.00715413 0)
(1.23816 0.00686686 0)
(1.2378 0.00659252 0)
(1.23744 0.00633034 0)
(1.2371 0.00607961 0)
(1.23677 0.00583972 0)
(1.23645 0.00560993 0)
(1.23614 0.00538996 0)
(1.23585 0.00517869 0)
(1.23556 0.00497661 0)
(1.28305 0.0110145 0)
(1.28335 0.0105434 0)
(1.28361 0.0100966 0)
(1.28386 0.00967232 0)
(1.28408 0.00926911 0)
(1.28428 0.00888558 0)
(1.28447 0.00852048 0)
(1.28465 0.00817265 0)
(1.28481 0.00784105 0)
(1.28496 0.00752468 0)
(1.2851 0.00722264 0)
(1.28523 0.00693411 0)
(1.28535 0.00665831 0)
(1.28547 0.00639454 0)
(1.28558 0.00614211 0)
(1.28568 0.00590045 0)
(1.28578 0.00566883 0)
(1.28587 0.00544702 0)
(1.28596 0.00523387 0)
(1.28604 0.00502992 0)
(1.31449 0.0106512 0)
(1.3156 0.0102035 0)
(1.31665 0.00977784 0)
(1.31765 0.00937279 0)
(1.31859 0.00898708 0)
(1.31949 0.00861951 0)
(1.32034 0.00826902 0)
(1.32115 0.00793459 0)
(1.32192 0.00761532 0)
(1.32266 0.00731033 0)
(1.32336 0.00701882 0)
(1.32403 0.00674006 0)
(1.32468 0.00647336 0)
(1.32529 0.00621806 0)
(1.32588 0.00597356 0)
(1.32644 0.00573934 0)
(1.32698 0.00551471 0)
(1.3275 0.00529948 0)
(1.32799 0.00509256 0)
(1.32847 0.0048945 0)
(1.33849 0.00986868 0)
(1.3404 0.00946123 0)
(1.34222 0.00907288 0)
(1.34396 0.00870252 0)
(1.34561 0.00834911 0)
(1.34719 0.0080117 0)
(1.3487 0.00768942 0)
(1.35014 0.00738144 0)
(1.35152 0.00708699 0)
(1.35284 0.00680535 0)
(1.3541 0.00653585 0)
(1.35531 0.00627785 0)
(1.35647 0.00603079 0)
(1.35758 0.0057941 0)
(1.35865 0.00556723 0)
(1.35967 0.00534976 0)
(1.36065 0.00514106 0)
(1.36159 0.00494099 0)
(1.3625 0.00474854 0)
(1.36336 0.00456426 0)
(1.35623 0.00868945 0)
(1.35888 0.00833682 0)
(1.36141 0.00799995 0)
(1.36383 0.007678 0)
(1.36615 0.00737018 0)
(1.36836 0.00707577 0)
(1.37048 0.0067941 0)
(1.37251 0.00652453 0)
(1.37446 0.00626646 0)
(1.37633 0.0060193 0)
(1.37812 0.00578254 0)
(1.37983 0.00555566 0)
(1.38148 0.0053382 0)
(1.38306 0.00512968 0)
(1.38457 0.00492968 0)
(1.38603 0.00473784 0)
(1.38743 0.00455363 0)
(1.38877 0.00437694 0)
(1.39006 0.0042069 0)
(1.3913 0.00404402 0)
(1.36885 0.00715691 0)
(1.37213 0.00687096 0)
(1.37528 0.00659722 0)
(1.37829 0.0063351 0)
(1.38118 0.00608406 0)
(1.38395 0.00584356 0)
(1.3866 0.00561314 0)
(1.38915 0.00539232 0)
(1.39159 0.00518065 0)
(1.39394 0.00497772 0)
(1.39619 0.00478314 0)
(1.39835 0.00459651 0)
(1.40043 0.00441748 0)
(1.40242 0.0042457 0)
(1.40433 0.00408081 0)
(1.40617 0.00392257 0)
(1.40794 0.00377053 0)
(1.40964 0.00362463 0)
(1.41127 0.00348417 0)
(1.41284 0.00334958 0)
(1.37734 0.00533198 0)
(1.38112 0.00512167 0)
(1.38476 0.00491998 0)
(1.38824 0.00472656 0)
(1.39159 0.00454104 0)
(1.3948 0.00436309 0)
(1.39788 0.00419238 0)
(1.40084 0.00402861 0)
(1.40369 0.00387148 0)
(1.40642 0.0037207 0)
(1.40904 0.00357601 0)
(1.41156 0.00343713 0)
(1.41398 0.00330381 0)
(1.41631 0.00317582 0)
(1.41854 0.00305291 0)
(1.42069 0.00293489 0)
(1.42275 0.00282145 0)
(1.42474 0.00271255 0)
(1.42665 0.00260768 0)
(1.42848 0.00250717 0)
(1.38251 0.003289 0)
(1.38665 0.00316045 0)
(1.39062 0.00303704 0)
(1.39443 0.00291855 0)
(1.3981 0.00280478 0)
(1.40162 0.00269555 0)
(1.405 0.00259068 0)
(1.40825 0.00248999 0)
(1.41137 0.00239333 0)
(1.41437 0.00230051 0)
(1.41725 0.0022114 0)
(1.42002 0.00212582 0)
(1.42269 0.00204364 0)
(1.42525 0.0019647 0)
(1.42771 0.00188888 0)
(1.43007 0.00181605 0)
(1.43235 0.00174603 0)
(1.43453 0.00167879 0)
(1.43663 0.00161405 0)
(1.43865 0.00155199 0)
(1.38496 0.00111158 0)
(1.38927 0.00106836 0)
(1.39341 0.00102684 0)
(1.39739 0.000986956 0)
(1.40122 0.000948648 0)
(1.4049 0.000911848 0)
(1.40843 0.000876497 0)
(1.41183 0.000842544 0)
(1.4151 0.00080994 0)
(1.41823 0.000778636 0)
(1.42125 0.000748581 0)
(1.42415 0.000719715 0)
(1.42694 0.000691988 0)
(1.42962 0.000665353 0)
(1.4322 0.000639774 0)
(1.43467 0.000615208 0)
(1.43705 0.000591593 0)
(1.43934 0.000568922 0)
(1.44155 0.000547114 0)
(1.44366 0.00052621 0)
)
;

boundaryField
{
    fixedWalls
    {
        type            noSlip;
    }
    inlet
    {
        type            fixedValue;
        value           nonuniform 0();
    }
    outlet
    {
        type            zeroGradient;
    }
    frontAndBack
    {
        type            empty;
    }
    procBoundary2to1
    {
        type            processor;
        value           nonuniform List<vector> 
20
(
(0.0852235 6.7185e-05 0)
(0.245634 0.000409458 0)
(0.39583 0.00113381 0)
(0.535519 0.00216115 0)
(0.664341 0.0034114 0)
(0.781922 0.00481188 0)
(0.887932 0.00628117 0)
(0.982151 0.00772833 0)
(1.06453 0.00905824 0)
(1.13523 0.0101778 0)
(1.19468 0.0110027 0)
(1.24355 0.0114636 0)
(1.28273 0.0115117 0)
(1.31331 0.0111224 0)
(1.33648 0.0102964 0)
(1.35346 0.0090587 0)
(1.36542 0.00745566 0)
(1.37339 0.00555132 0)
(1.37821 0.00342288 0)
(1.38047 0.00115657 0)
)
;
    }
    procBoundary2to3
    {
        type            processor;
        value           nonuniform List<vector> 
20
(
(0.0795477 2.88323e-05 0)
(0.229944 0.000173071 0)
(0.37157 0.000475129 0)
(0.504316 0.000900079 0)
(0.628046 0.00141382 0)
(0.742623 0.00198696 0)
(0.847927 0.00258785 0)
(0.943883 0.00318188 0)
(1.03048 0.00373297 0)
(1.10778 0.00420524 0)
(1.17596 0.0045649 0)
(1.23529 0.00478224 0)
(1.28612 0.00483372 0)
(1.32892 0.0047039 0)
(1.3642 0.00438687 0)
(1.39249 0.00388718 0)
(1.41434 0.00321994 0)
(1.43024 0.00241033 0)
(1.44059 0.00149218 0)
(1.4457 0.00050606 0)
)
;
    }
    procBoundary2to6
    {
        type            processor;
        value           nonuniform List<vector> 
20
(
(1.38496 -0.00111122 0)
(1.38927 -0.00106797 0)
(1.39341 -0.00102642 0)
(1.39739 -0.00098648 0)
(1.40122 -0.000948109 0)
(1.4049 -0.000911249 0)
(1.40843 -0.000875844 0)
(1.41183 -0.000841837 0)
(1.4151 -0.000809169 0)
(1.41823 -0.000777782 0)
(1.42125 -0.000747623 0)
(1.42415 -0.000718638 0)
(1.42694 -0.000690781 0)
(1.42962 -0.000664014 0)
(1.4322 -0.000638282 0)
(1.43467 -0.000613552 0)
(1.43706 -0.000589749 0)
(1.43934 -0.000566878 0)
(1.44155 -0.000544798 0)
(1.44366 -0.000523626 0)
)
;
    }
}


// ************************************************************************* //
