/*--------------------------------*- C++ -*----------------------------------*\
| =========                 |                                                 |
| \\      /  F ield         | OpenFOAM: The Open Source CFD Toolbox           |
|  \\    /   O peration     | Version:                                        |
|   \\  /    A nd           | Website:  www.openfoam.com                      |
|    \\/     M anipulation  |                                                 |
\*---------------------------------------------------------------------------*/
FoamFile
{
    version     2.0;
    format      ascii;
    class       volScalarField;
    location    "121.7";
    object      p;
}
// * * * * * * * * * * * * * * * * * * * * * * * * * * * * * * * * * * * * * //

dimensions      [0 2 -2 0 0 0 0];


internalField   nonuniform List<scalar> 
1136
(
-0.611302
-0.468398
-0.362153
-0.310751
-0.317427
-0.39809
-0.50432
-0.538318
-0.492226
-0.374009
-0.28493
-0.279342
-0.249212
-0.263181
-0.271149
-0.267116
-0.218005
-0.20233
-0.210148
-0.225321
-0.217695
-0.195325
-0.180655
-0.169241
-0.177449
-0.152767
-0.146809
-0.116583
-0.0770372
-0.0109433
-0.48323
-0.385418
-0.316207
-0.296856
-0.328238
-0.433342
-0.58394
-0.618205
-0.559306
-0.411468
-0.29272
-0.273376
-0.221581
-0.230379
-0.238209
-0.240504
-0.207709
-0.202123
-0.216369
-0.236388
-0.222964
-0.196168
-0.182177
-0.171311
-0.175811
-0.151196
-0.13814
-0.105304
-0.0773107
-0.0148442
-0.363749
-0.305217
-0.261473
-0.272767
-0.326868
-0.452557
-0.636585
-0.677054
-0.607882
-0.439638
-0.294286
-0.261539
-0.196854
-0.198616
-0.204481
-0.212344
-0.196283
-0.201067
-0.221503
-0.246619
-0.22697
-0.195442
-0.182517
-0.172619
-0.173648
-0.149162
-0.129688
-0.0955001
-0.0769255
-0.0183692
-0.252934
-0.230612
-0.199751
-0.233209
-0.30403
-0.439033
-0.658321
-0.715807
-0.636172
-0.458513
-0.292402
-0.246205
-0.177131
-0.167087
-0.170619
-0.183154
-0.185756
-0.198801
-0.225785
-0.254949
-0.229137
-0.192658
-0.181398
-0.17411
-0.171123
-0.146704
-0.121433
-0.0869364
-0.0758625
-0.0214948
-0.1607
-0.162047
-0.139297
-0.179024
-0.261921
-0.400453
-0.643328
-0.714522
-0.635337
-0.461572
-0.284991
-0.227697
-0.162282
-0.138052
-0.138792
-0.152999
-0.174042
-0.195473
-0.229643
-0.262661
-0.230574
-0.188438
-0.179143
-0.174952
-0.168172
-0.14376
-0.113026
-0.0788531
-0.0738115
-0.024151
-0.095392
-0.103262
-0.0877547
-0.119701
-0.211499
-0.338912
-0.582932
-0.677025
-0.617043
-0.45634
-0.273965
-0.208011
-0.147835
-0.111206
-0.108664
-0.120076
-0.162147
-0.190866
-0.232064
-0.267213
-0.230705
-0.183921
-0.175889
-0.175305
-0.164578
-0.140468
-0.104111
-0.0707808
-0.0705537
-0.0262435
-0.0586795
-0.0464499
-0.0708727
-0.15594
-0.264567
-0.492956
-0.6051
-0.565918
-0.432649
-0.260203
-0.191686
-0.136853
-0.0904756
-0.0835009
-0.0892433
-0.149443
-0.184179
-0.232061
-0.269234
-0.229137
-0.179105
-0.172892
-0.173944
-0.160293
-0.13604
-0.0943364
-0.0626075
-0.0661872
-0.0276905
-0.0287572
-0.0198444
-0.0313509
-0.100523
-0.193937
-0.377221
-0.505892
-0.494281
-0.396023
-0.243199
-0.175702
-0.125128
-0.0768043
-0.0628516
-0.0606505
-0.135635
-0.174696
-0.227317
-0.264156
-0.224244
-0.171469
-0.169742
-0.170795
-0.154627
-0.130427
-0.0844885
-0.0545616
-0.0607267
-0.0284222
-0.0106407
-0.00689208
-0.00425197
-0.0556254
-0.123674
-0.278182
-0.414364
-0.443059
-0.359182
-0.229091
-0.162731
-0.115555
-0.0731029
-0.0518835
-0.0389607
-0.11911
-0.162404
-0.217272
-0.253918
-0.21609
-0.159691
-0.163871
-0.166031
-0.147616
-0.1232
-0.0743951
-0.0468382
-0.0542809
-0.0283512
0.00199238
-0.0012509
0.00948566
-0.0218278
-0.0706614
-0.190776
-0.302616
-0.34411
-0.295306
-0.2045
-0.148707
-0.100378
-0.0682588
-0.0478921
-0.0234247
-0.102017
-0.149082
-0.203466
-0.236373
-0.200893
-0.145453
-0.154309
-0.158736
-0.139783
-0.114007
-0.0642642
-0.0403474
-0.0476396
-0.0274889
0.000480196
0.0204042
0.00589517
-0.0249686
-0.117728
-0.219516
-0.270653
-0.236861
-0.167754
-0.125441
-0.0835943
-0.0587084
-0.0360033
-0.00821383
-0.0809317
-0.13214
-0.187468
-0.221352
-0.182204
-0.131824
-0.143016
-0.151622
-0.130018
-0.104385
-0.054128
-0.0360307
-0.0409772
-0.0264862
-0.00187723
0.0178005
0.0173841
0.0064344
-0.0718078
-0.167989
-0.207625
-0.182355
-0.135056
-0.105097
-0.0724519
-0.0515742
-0.0255444
-0.000935561
-0.0662109
-0.117969
-0.170033
-0.20217
-0.162611
-0.116661
-0.131177
-0.145888
-0.118258
-0.094043
-0.0418573
-0.0310294
-0.0335155
-0.0253399
-0.00622194
0.0184103
0.0246629
0.0174481
-0.046274
-0.115339
-0.147798
-0.133414
-0.10536
-0.0882774
-0.0616334
-0.04453
-0.0209652
-0.0012983
-0.0605854
-0.106881
-0.150013
-0.174367
-0.139235
-0.0991471
-0.116976
-0.136627
-0.103584
-0.0796262
-0.0273898
-0.0238037
-0.0250229
-0.023571
-0.00546834
0.0191719
0.0334194
0.0291472
-0.0146569
-0.0659923
-0.0990971
-0.0918622
-0.0772799
-0.0693896
-0.050815
-0.0395788
-0.0226377
-0.0106513
-0.0587483
-0.0937585
-0.125874
-0.14258
-0.112164
-0.0788028
-0.100805
-0.124514
-0.0863725
-0.0618957
-0.0130781
-0.0144081
-0.0155795
-0.0209562
0.0115383
0.0238026
0.0419177
0.0394872
0.00963604
-0.0296726
-0.0601097
-0.0637649
-0.0555116
-0.0541142
-0.0406738
-0.0283151
-0.0258101
-0.0217415
-0.0520373
-0.075977
-0.100085
-0.109831
-0.0844391
-0.0568036
-0.0814416
-0.109337
-0.0672267
-0.0424225
0.000740156
-0.0027391
-0.0050614
-0.0178919
0.0230911
0.0278351
0.040823
0.0357853
0.0169502
-0.00740983
-0.0346594
-0.0401014
-0.0361375
-0.035942
-0.026332
-0.0135985
-0.0252768
-0.0249935
-0.0360092
-0.0563725
-0.0743452
-0.0756174
-0.0558717
-0.0360931
-0.0587936
-0.0899957
-0.0469514
-0.0218309
0.0138094
0.0108093
0.00668777
-0.0139201
0.0308136
0.0299054
0.0375643
0.0329585
0.0201603
0.00489473
-0.0157029
-0.0313521
-0.0214574
-0.0212548
-0.0142398
0.00152627
-0.012326
-0.0117718
-0.00944438
-0.0335257
-0.0489781
-0.0447215
-0.0272584
-0.0131684
-0.0331574
-0.0668365
-0.026358
-0.00150807
0.0255072
0.0252805
0.0195352
-0.00901952
0.0350557
0.0312207
0.0356875
0.0327279
0.0238888
0.0120905
-0.0040577
-0.0106391
-0.00824935
-0.00816662
0.000325446
0.0151027
0.0106443
0.0202281
0.0252591
-0.00807276
-0.0252197
-0.0177416
-0.0039146
0.00830251
-0.00221067
-0.0398841
-0.00799834
0.0162893
0.0359634
0.0400342
0.0322211
-0.00315341
0.0369992
0.0333078
0.0350116
0.0331475
0.0263779
0.0163735
0.00680612
-0.00178969
0.000525628
0.00371512
0.00953903
0.023045
0.0361795
0.0528886
0.052454
0.0146706
-0.003656
0.00488401
0.0140347
0.0249086
0.0271349
-0.00912401
0.00801377
0.030351
0.0437845
0.0552093
0.0435159
0.00294847
0.0378757
0.034271
0.0348881
0.0336617
0.0280629
0.0201776
0.0125851
0.00892157
0.00948512
0.0129564
0.0197388
0.031464
0.0513961
0.0677859
0.0648465
0.0317147
0.0107302
0.0210622
0.0310458
0.0412823
0.0520012
0.0182281
0.0204036
0.0396548
0.0484475
0.0701059
0.0537613
0.00957936
0.0379986
0.0352792
0.0348382
0.0334476
0.0291688
0.0234168
0.0183724
0.0153429
0.0157548
0.0192602
0.0270347
0.037003
0.0571556
0.0700057
0.0648647
0.0407088
0.0251106
0.0329455
0.0385746
0.0494318
0.0680105
0.0431669
0.0312869
0.0454425
0.0513896
0.075386
0.0565018
0.0146455
0.0376447
0.0349067
0.0343879
0.0335097
0.0301415
0.0262905
0.0218241
0.0208886
0.0218453
0.0247762
0.0328126
0.040797
0.0566578
0.0668244
0.0630491
0.0454007
0.0323928
0.0402036
0.0475195
0.0558565
0.0692159
0.0545307
0.040064
0.0468717
0.0501319
0.0789995
0.055649
0.0158732
0.0369954
0.0351113
0.0341094
0.0334242
0.0308823
0.0284328
0.0256191
0.024915
0.0262279
0.0285238
0.0356509
0.0424258
0.0540413
0.0624177
0.0591422
0.0478147
0.0395067
0.0447229
0.0487146
0.0563106
0.0683518
0.0586415
0.0466319
0.0489239
0.0464069
0.0761406
0.0565837
0.0166419
0.0363603
0.0349484
0.0338015
0.0334646
0.0316583
0.0302441
0.0281316
0.0279321
0.029581
0.0315283
0.0374613
0.0431324
0.0509208
0.0569709
0.05603
0.0481338
0.0408672
0.0469638
0.0512193
0.0561878
0.0619615
0.0572242
0.0492111
0.048432
0.0463922
0.068238
0.0489376
0.0144761
0.035692
0.0347725
0.0337699
0.0335815
0.0324058
0.0314419
0.0304024
0.0303709
0.0320597
0.0337914
0.0382332
0.0427347
0.0480956
0.0524523
0.0524821
0.0480522
0.0433638
0.0477965
0.0497153
0.0537601
0.0583407
0.0542718
0.0500545
0.0479098
0.0417075
0.0593764
0.0446015
0.0134024
0.0352135
0.0345599
0.0338213
0.0337218
0.0331168
0.0325573
0.0320061
0.0322232
0.0337087
0.0353945
0.0383691
0.0419649
0.0458756
0.0487327
0.0499684
0.0474864
0.0440705
0.0474711
0.0489812
0.0517041
0.0547825
0.0515028
0.0488042
0.0462568
0.0428456
0.0501898
0.0396561
0.012257
0.0347962
0.0343258
0.0338896
0.034016
0.0336688
0.0333383
0.0331256
0.0335904
0.0348246
0.0363387
0.0384664
0.0409849
0.0441011
0.0459559
0.0472229
0.0464945
0.0440835
0.0466639
0.0477561
0.0492267
0.0513057
0.048507
0.0468153
0.0442517
0.0391964
0.0428423
0.0347031
0.011233
0.0344237
0.0340811
0.0338333
0.0338258
0.0339368
0.0339363
0.0338541
0.0344772
0.035471
0.0367741
0.0383155
0.0400215
0.042539
0.0437914
0.044956
0.0450905
0.0435586
0.0452968
0.0460856
0.0467716
0.0479238
0.045713
0.0440083
0.0412832
0.0366635
0.0367582
0.0295466
0.00998982
0.0341027
0.033916
0.033813
0.0340389
0.0341825
0.0343126
0.0343112
0.0349471
0.0358198
0.0367904
0.0380331
0.0391181
0.0411143
0.0420954
0.042861
0.0434857
0.0425034
0.0436422
0.0441932
0.044263
0.0447657
0.0427086
0.0409516
0.038336
0.0335176
0.0312829
0.0246536
0.0086835
0.033836
0.033765
0.0337808
0.034109
0.0342912
0.0344998
0.0345557
0.0351176
0.0358823
0.0366081
0.0375689
0.0383084
0.0397897
0.0405934
0.0410821
0.0417357
0.0412495
0.0418015
0.0420651
0.0418072
0.0416693
0.0398004
0.0379537
0.0350578
0.0303756
0.027019
0.0205136
0.00738528
0.0336078
0.0336317
0.0337062
0.0340706
0.0343057
0.0345142
0.0346253
0.0350632
0.035758
0.0362628
0.0369761
0.0374995
0.038546
0.0392373
0.0394488
0.0399965
0.039779
0.0398976
0.0398988
0.0393444
0.0387882
0.0369964
0.0348539
0.0319063
0.0275119
0.0233378
0.0170102
0.00619807
0.0334245
0.0334868
0.0336046
0.0339635
0.0342208
0.0344265
0.0345372
0.034879
0.0354508
0.0358274
0.0363084
0.0366978
0.0373947
0.0379111
0.0379846
0.0382859
0.0381689
0.0380142
0.0376915
0.0369897
0.0360883
0.0342183
0.0320013
0.0290424
0.024758
0.0202927
0.0142968
0.00520835
0.0332696
0.0333425
0.0334806
0.0337882
0.0340312
0.0341452
0.0343041
0.0345768
0.0350358
0.0353137
0.0355981
0.0358915
0.0362961
0.0366417
0.0365892
0.0366579
0.0365328
0.0361367
0.0355832
0.0347365
0.0335497
0.0316926
0.0293943
0.0263766
0.0223312
0.0178439
0.0121602
0.00438717
0.0331331
0.0332037
0.0333398
0.0336078
0.0338114
0.0339095
0.0340164
0.0342188
0.03455
0.0347421
0.0348825
0.035045
0.0352671
0.0354225
0.0352687
0.0351443
0.0348983
0.0343645
0.0336123
0.0326101
0.0312866
0.0293705
0.0270086
0.0240608
0.0202246
0.015818
0.0105081
0.00375159
0.0330173
0.0330634
0.0331709
0.0333583
0.0335473
0.0336233
0.0336892
0.0338269
0.0340368
0.0341548
0.0341748
0.0342252
0.0342939
0.0342792
0.0340413
0.0337382
0.0333688
0.03272
0.0317984
0.030696
0.0292454
0.0272809
0.024935
0.0220337
0.0183823
0.0141853
0.00924471
0.00325982
0.0329105
0.0329411
0.0330207
0.0331593
0.0332862
0.0333264
0.0333493
0.0334192
0.0335316
0.0335687
0.0335076
0.0334519
0.0333905
0.0332454
0.0329099
0.0324803
0.0319814
0.0312242
0.0302028
0.0289919
0.0274572
0.0254829
0.0231316
0.0202959
0.0168471
0.0128695
0.00826656
0.00288653
0.0328147
0.0328282
0.0328742
0.0329606
0.0330335
0.0330432
0.0330254
0.0330357
0.0330596
0.0330261
0.0329037
0.0327558
0.0325907
0.0323332
0.0319208
0.0313931
0.0307703
0.0299374
0.0288363
0.0275394
0.025958
0.0239703
0.0216347
0.01888
0.0155915
0.0118215
0.00752366
0.00260828
0.0327456
0.0327421
0.0327555
0.032791
0.0328177
0.0328011
0.0327529
0.0327088
0.0326597
0.0325674
0.0323969
0.0321809
0.0319262
0.031584
0.0311113
0.0305069
0.0297932
0.0288962
0.0277434
0.0263871
0.0247679
0.0227861
0.0204727
0.0177802
0.0146261
0.0110346
0.00697829
0.00240749
0.0326723
0.0326601
0.0326486
0.032646
0.0326379
0.0326027
0.0325338
0.0324497
0.0323489
0.0322136
0.0320135
0.03175
0.0314324
0.0310322
0.0305162
0.0298626
0.0290805
0.0281374
0.0269551
0.0255565
0.0239174
0.0219446
0.0196487
0.0170083
0.0139521
0.0104885
0.00660635
0.00227187
0.0326479
0.0326278
0.0326009
0.0325758
0.0325471
0.0325004
0.0324194
0.0323129
0.0321821
0.0320221
0.0318041
0.0315153
0.0311633
0.0307306
0.0301921
0.0295117
0.0286944
0.0277289
0.0265311
0.0251113
0.023462
0.0214958
0.0192121
0.0166003
0.0135973
0.0102042
0.00641492
0.00220309
)
;

boundaryField
{
    outlet
    {
        type            fixedValue;
        value           uniform 0;
    }
    upperWall
    {
        type            symmetryPlane;
    }
    lowerWall
    {
        type            symmetryPlane;
    }
    inlet
    {
        type            zeroGradient;
    }
    cylinder
    {
        type            zeroGradient;
    }
    frontAndBack
    {
        type            empty;
    }
    procBoundary7to3
    {
        type            processor;
        value           nonuniform List<scalar> 
30
(
-0.72969
-0.548591
-0.401092
-0.315652
-0.296107
-0.349606
-0.414886
-0.450618
-0.411916
-0.328464
-0.273785
-0.283412
-0.280027
-0.297946
-0.301945
-0.29315
-0.228701
-0.20204
-0.202143
-0.212612
-0.21067
-0.192834
-0.177327
-0.168116
-0.178413
-0.153685
-0.155752
-0.129134
-0.0761751
-0.00688441
)
;
    }
    procBoundary7to6
    {
        type            processor;
        value           nonuniform List<scalar> 
42
(
-0.6688
-0.517547
-0.388567
-0.277535
-0.186814
-0.114298
-0.0542519
-0.0542519
-0.0227795
0.00280003
0.0153997
0.0110503
0.0110503
0.0130922
0.0142352
0.0172418
0.0291663
0.0379466
0.0424326
0.0433376
0.0428027
0.0418039
0.0406037
0.0393603
0.0382455
0.037268
0.0364543
0.0357206
0.0351172
0.0345692
0.0341275
0.0337839
0.0335275
0.0333254
0.0331723
0.0330426
0.0329385
0.0328561
0.0327802
0.032731
0.0326698
0.032654
)
;
    }
}


// ************************************************************************* //
