/*--------------------------------*- C++ -*----------------------------------*\
| =========                 |                                                 |
| \\      /  F ield         | OpenFOAM: The Open Source CFD Toolbox           |
|  \\    /   O peration     | Version:                                        |
|   \\  /    A nd           | Website:  www.openfoam.com                      |
|    \\/     M anipulation  |                                                 |
\*---------------------------------------------------------------------------*/
FoamFile
{
    version     2.0;
    format      ascii;
    class       surfaceScalarField;
    location    "1.3";
    object      phi;
}
// * * * * * * * * * * * * * * * * * * * * * * * * * * * * * * * * * * * * * //

dimensions      [0 3 -1 0 0 0 0];
oriented        oriented;


internalField   nonuniform List<scalar> 
760
(
3.61677e-05
-5.00114e-08
3.62158e-05
-4.81043e-08
3.62621e-05
-4.62726e-08
3.63066e-05
-4.4513e-08
3.63494e-05
-4.28249e-08
3.63906e-05
-4.12011e-08
3.64303e-05
-3.96451e-08
3.64684e-05
-3.81446e-08
3.65051e-05
-3.67164e-08
3.65405e-05
-3.53271e-08
3.65745e-05
-3.40278e-08
3.66072e-05
-3.27285e-08
3.66388e-05
-3.15752e-08
3.66691e-05
-3.03268e-08
3.66985e-05
-2.93717e-08
3.67266e-05
-2.80965e-08
3.6754e-05
-2.74431e-08
3.67801e-05
-2.60091e-08
3.68058e-05
-2.57877e-08
-2.415e-08
3.6039e-05
-9.7742e-08
3.6085e-05
-9.40127e-08
3.61291e-05
-9.04318e-08
3.61716e-05
-8.69915e-08
3.62125e-05
-8.36905e-08
3.62518e-05
-8.05161e-08
3.62896e-05
-7.74754e-08
3.6326e-05
-7.45434e-08
3.6361e-05
-7.17516e-08
3.63947e-05
-6.90368e-08
3.64272e-05
-6.64972e-08
3.64584e-05
-6.39604e-08
3.64886e-05
-6.1705e-08
3.65175e-05
-5.927e-08
3.65455e-05
-5.73994e-08
3.65724e-05
-5.49158e-08
3.65986e-05
-5.36333e-08
3.66234e-05
-5.08426e-08
3.6648e-05
-5.04046e-08
-4.72111e-08
3.5778e-05
-1.41054e-07
3.58196e-05
-1.35667e-07
3.58597e-05
-1.30495e-07
3.58982e-05
-1.25528e-07
3.59353e-05
-1.20762e-07
3.5971e-05
-1.1618e-07
3.60053e-05
-1.11791e-07
3.60383e-05
-1.0756e-07
3.60701e-05
-1.03531e-07
3.61007e-05
-9.96152e-08
3.61301e-05
-9.59487e-08
3.61584e-05
-9.22933e-08
3.61858e-05
-8.90351e-08
3.6212e-05
-8.55335e-08
3.62375e-05
-8.28248e-08
3.62618e-05
-7.92615e-08
3.62856e-05
-7.73962e-08
3.63081e-05
-7.33984e-08
3.63305e-05
-7.27544e-08
-6.81634e-08
3.53774e-05
-1.78082e-07
3.5413e-05
-1.71273e-07
3.54472e-05
-1.64738e-07
3.54801e-05
-1.58462e-07
3.55118e-05
-1.52442e-07
3.55423e-05
-1.46655e-07
3.55716e-05
-1.41113e-07
3.55998e-05
-1.35773e-07
3.5627e-05
-1.30685e-07
3.56531e-05
-1.25746e-07
3.56783e-05
-1.21115e-07
3.57025e-05
-1.1651e-07
3.57258e-05
-1.1239e-07
3.57483e-05
-1.07991e-07
3.577e-05
-1.04555e-07
3.57909e-05
-1.00094e-07
3.58112e-05
-9.77134e-08
3.58305e-05
-9.27194e-08
3.58496e-05
-9.18846e-08
-8.61222e-08
3.48272e-05
-2.0735e-07
3.48553e-05
-1.99411e-07
3.48824e-05
-1.91794e-07
3.49084e-05
-1.84482e-07
3.49334e-05
-1.77468e-07
3.49575e-05
-1.70729e-07
3.49807e-05
-1.64275e-07
3.50029e-05
-1.58059e-07
3.50244e-05
-1.52135e-07
3.5045e-05
-1.46391e-07
3.50649e-05
-1.40996e-07
3.50841e-05
-1.35649e-07
3.51025e-05
-1.30844e-07
3.51203e-05
-1.25752e-07
3.51374e-05
-1.21729e-07
3.51539e-05
-1.16593e-07
3.517e-05
-1.13781e-07
3.51853e-05
-1.0805e-07
3.52005e-05
-1.07043e-07
-1.0039e-07
3.41154e-05
-2.27845e-07
3.41351e-05
-2.19111e-07
3.41541e-05
-2.10733e-07
3.41723e-05
-2.02693e-07
3.41898e-05
-1.94983e-07
3.42066e-05
-1.87577e-07
3.42228e-05
-1.80484e-07
3.42384e-05
-1.73657e-07
3.42534e-05
-1.67148e-07
3.42679e-05
-1.60845e-07
3.42818e-05
-1.54915e-07
3.42952e-05
-1.49058e-07
3.43082e-05
-1.43767e-07
3.43206e-05
-1.38214e-07
3.43327e-05
-1.33764e-07
3.43443e-05
-1.28199e-07
3.43555e-05
-1.25055e-07
3.43664e-05
-1.18875e-07
3.4377e-05
-1.1772e-07
-1.10497e-07
3.32289e-05
-2.39073e-07
3.32397e-05
-2.29899e-07
3.325e-05
-2.21102e-07
3.326e-05
-2.12662e-07
3.32696e-05
-2.0457e-07
3.32788e-05
-1.968e-07
3.32877e-05
-1.89359e-07
3.32962e-05
-1.82201e-07
3.33045e-05
-1.75372e-07
3.33124e-05
-1.68769e-07
3.332e-05
-1.62546e-07
3.33274e-05
-1.56423e-07
3.33345e-05
-1.5086e-07
3.33413e-05
-1.45083e-07
3.3348e-05
-1.40378e-07
3.33544e-05
-1.3464e-07
3.33606e-05
-1.31273e-07
3.33667e-05
-1.24946e-07
3.33726e-05
-1.23668e-07
-1.16216e-07
3.21543e-05
-2.41066e-07
3.21562e-05
-2.31809e-07
3.2158e-05
-2.22935e-07
3.21598e-05
-2.14424e-07
3.21615e-05
-2.06265e-07
3.21631e-05
-1.98433e-07
3.21647e-05
-1.90933e-07
3.21662e-05
-1.83722e-07
3.21677e-05
-1.7684e-07
3.21691e-05
-1.70194e-07
3.21705e-05
-1.63919e-07
3.21718e-05
-1.57771e-07
3.21731e-05
-1.52151e-07
3.21744e-05
-1.46381e-07
3.21756e-05
-1.416e-07
3.21769e-05
-1.35932e-07
3.21781e-05
-1.32457e-07
3.21794e-05
-1.26278e-07
3.21807e-05
-1.24905e-07
-1.17573e-07
3.08789e-05
-2.34356e-07
3.08725e-05
-2.25355e-07
3.08663e-05
-2.16728e-07
3.08603e-05
-2.08456e-07
3.08546e-05
-2.00528e-07
3.08491e-05
-1.92919e-07
3.08438e-05
-1.85632e-07
3.08387e-05
-1.78631e-07
3.08338e-05
-1.71946e-07
3.08291e-05
-1.65499e-07
3.08246e-05
-1.594e-07
3.08202e-05
-1.5345e-07
3.08161e-05
-1.47977e-07
3.08121e-05
-1.42428e-07
3.08083e-05
-1.37741e-07
3.08047e-05
-1.32365e-07
3.08011e-05
-1.28898e-07
3.0798e-05
-1.23134e-07
3.07948e-05
-1.21699e-07
-1.14825e-07
2.93919e-05
-2.19916e-07
2.9378e-05
-2.11472e-07
2.93647e-05
-2.03382e-07
2.93518e-05
-1.95625e-07
2.93395e-05
-1.88191e-07
2.93276e-05
-1.8106e-07
2.93162e-05
-1.74229e-07
2.93053e-05
-1.67669e-07
2.92947e-05
-1.61402e-07
2.92846e-05
-1.55367e-07
2.92748e-05
-1.49648e-07
2.92655e-05
-1.44091e-07
2.92564e-05
-1.38949e-07
2.92478e-05
-1.33802e-07
2.92395e-05
-1.2937e-07
2.92316e-05
-1.24465e-07
2.92238e-05
-1.21122e-07
2.92166e-05
-1.15999e-07
2.92095e-05
-1.14535e-07
-1.08434e-07
2.76841e-05
-1.99077e-07
2.76641e-05
-1.91442e-07
2.76448e-05
-1.84126e-07
2.76263e-05
-1.77113e-07
2.76085e-05
-1.70392e-07
2.75914e-05
-1.63946e-07
2.75749e-05
-1.57771e-07
2.75591e-05
-1.51844e-07
2.75439e-05
-1.46179e-07
2.75292e-05
-1.4073e-07
2.75151e-05
-1.35559e-07
2.75016e-05
-1.30554e-07
2.74885e-05
-1.25896e-07
2.7476e-05
-1.21292e-07
2.74639e-05
-1.17252e-07
2.74524e-05
-1.12954e-07
2.74411e-05
-1.09843e-07
2.74307e-05
-1.05527e-07
2.74202e-05
-1.04075e-07
-9.90258e-08
2.5749e-05
-1.73431e-07
2.57243e-05
-1.6679e-07
2.57006e-05
-1.60427e-07
2.56778e-05
-1.54329e-07
2.56559e-05
-1.48484e-07
2.56349e-05
-1.42879e-07
2.56146e-05
-1.37509e-07
2.55951e-05
-1.32356e-07
2.55764e-05
-1.2743e-07
2.55583e-05
-1.22697e-07
2.5541e-05
-1.18199e-07
2.55243e-05
-1.13861e-07
2.55082e-05
-1.09804e-07
2.54927e-05
-1.05844e-07
2.54778e-05
-1.02305e-07
2.54635e-05
-9.86955e-08
2.54496e-05
-9.59118e-08
2.54366e-05
-9.25003e-08
2.54236e-05
-9.11098e-08
-8.73383e-08
2.35825e-05
-1.44723e-07
2.35549e-05
-1.39193e-07
2.35284e-05
-1.33896e-07
2.35029e-05
-1.28818e-07
2.34783e-05
-1.23952e-07
2.34547e-05
-1.19285e-07
2.3432e-05
-1.14814e-07
2.34102e-05
-1.10525e-07
2.33892e-05
-1.06423e-07
2.3369e-05
-1.02485e-07
2.33495e-05
-9.8739e-08
2.33308e-05
-9.5138e-08
2.33128e-05
-9.17566e-08
2.32954e-05
-8.84949e-08
2.32786e-05
-8.55313e-08
2.32626e-05
-8.26415e-08
2.32469e-05
-8.02627e-08
2.32322e-05
-7.77785e-08
2.32176e-05
-7.65046e-08
-7.41715e-08
2.11829e-05
-1.14755e-07
2.11541e-05
-1.10383e-07
2.11264e-05
-1.06194e-07
2.10998e-05
-1.02179e-07
2.10741e-05
-9.83308e-08
2.10495e-05
-9.464e-08
2.10258e-05
-9.11038e-08
2.1003e-05
-8.77115e-08
2.0981e-05
-8.4467e-08
2.09599e-05
-8.13547e-08
2.09395e-05
-7.83917e-08
2.092e-05
-7.55515e-08
2.09011e-05
-7.2876e-08
2.08829e-05
-7.03236e-08
2.08653e-05
-6.79712e-08
2.08485e-05
-6.57837e-08
2.08321e-05
-6.38612e-08
2.08166e-05
-6.22518e-08
2.08012e-05
-6.11543e-08
-6.0332e-08
1.85506e-05
-8.5304e-08
1.85222e-05
-8.20653e-08
1.8495e-05
-7.89617e-08
1.84688e-05
-7.59863e-08
1.84436e-05
-7.31341e-08
1.84194e-05
-7.03986e-08
1.8396e-05
-6.77773e-08
1.83736e-05
-6.5263e-08
1.8352e-05
-6.28579e-08
1.83312e-05
-6.05521e-08
1.83111e-05
-5.83559e-08
1.82919e-05
-5.6256e-08
1.82732e-05
-5.42733e-08
1.82553e-05
-5.24013e-08
1.8238e-05
-5.06551e-08
1.82213e-05
-4.9112e-08
1.82051e-05
-4.76638e-08
1.81897e-05
-4.68077e-08
1.81745e-05
-4.59394e-08
-4.65819e-08
1.56873e-05
-5.80553e-08
1.56611e-05
-5.58596e-08
1.56358e-05
-5.37552e-08
1.56116e-05
-5.17372e-08
1.55883e-05
-4.98025e-08
1.55658e-05
-4.79468e-08
1.55442e-05
-4.61683e-08
1.55234e-05
-4.44625e-08
1.55034e-05
-4.28305e-08
1.54841e-05
-4.12668e-08
1.54655e-05
-3.97771e-08
1.54476e-05
-3.83558e-08
1.54303e-05
-3.70117e-08
1.54137e-05
-3.57552e-08
1.53976e-05
-3.45707e-08
1.53821e-05
-3.35821e-08
1.5367e-05
-3.25874e-08
1.53525e-05
-3.23064e-08
1.53383e-05
-3.16937e-08
-3.35974e-08
1.25959e-05
-3.45627e-08
1.25733e-05
-3.3261e-08
1.25516e-05
-3.20132e-08
1.25307e-05
-3.08163e-08
1.25105e-05
-2.96687e-08
1.24912e-05
-2.85676e-08
1.24725e-05
-2.75123e-08
1.24545e-05
-2.65001e-08
1.24372e-05
-2.55318e-08
1.24206e-05
-2.46042e-08
1.24045e-05
-2.37205e-08
1.2389e-05
-2.28791e-08
1.23741e-05
-2.20824e-08
1.23597e-05
-2.13454e-08
1.23458e-05
-2.06425e-08
1.23323e-05
-2.0096e-08
1.23192e-05
-1.9495e-08
1.23065e-05
-1.95722e-08
1.2294e-05
-1.91904e-08
-2.19469e-08
9.27994e-06
-1.6232e-08
9.26231e-06
-1.56236e-08
9.24533e-06
-1.50401e-08
9.229e-06
-1.44803e-08
9.21327e-06
-1.39435e-08
9.19813e-06
-1.34283e-08
9.18355e-06
-1.29345e-08
9.16951e-06
-1.24607e-08
9.15599e-06
-1.20076e-08
9.14296e-06
-1.15736e-08
9.1304e-06
-1.11603e-08
9.11829e-06
-1.07675e-08
9.1066e-06
-1.03949e-08
9.09531e-06
-1.00548e-08
9.08439e-06
-9.72386e-09
9.07379e-06
-9.49312e-09
9.06349e-06
-9.19522e-09
9.05332e-06
-9.40224e-09
9.04329e-06
-9.16514e-09
-1.20877e-08
5.74257e-06
-4.32787e-09
5.73111e-06
-4.16659e-09
5.72008e-06
-4.01188e-09
5.70947e-06
-3.86339e-09
5.69924e-06
-3.72096e-09
5.6894e-06
-3.58421e-09
5.67992e-06
-3.45315e-09
5.67078e-06
-3.32735e-09
5.66198e-06
-3.2071e-09
5.6535e-06
-3.09187e-09
5.64532e-06
-2.98222e-09
5.63743e-06
-2.87826e-09
5.62982e-06
-2.77919e-09
5.62246e-06
-2.69099e-09
5.61533e-06
-2.60066e-09
5.60839e-06
-2.55116e-09
5.60165e-06
-2.45631e-09
5.59484e-06
-2.59213e-09
5.58813e-06
-2.45375e-09
-4.3493e-09
1.98652e-06
1.98235e-06
1.97834e-06
1.97448e-06
1.97076e-06
1.96717e-06
1.96372e-06
1.96039e-06
1.95719e-06
1.95409e-06
1.95111e-06
1.94823e-06
1.94545e-06
1.94276e-06
1.94016e-06
1.93761e-06
1.93515e-06
1.93256e-06
1.93011e-06
)
;

boundaryField
{
    fixedWalls
    {
        type            calculated;
        value           uniform 0;
    }
    inlet
    {
        type            calculated;
        value           nonuniform 0();
    }
    outlet
    {
        type            calculated;
        value           nonuniform List<scalar> 
20
(
3.683e-05
3.66711e-05
3.63514e-05
3.58676e-05
3.52148e-05
3.43871e-05
3.33784e-05
3.2182e-05
3.0792e-05
2.92031e-05
2.74108e-05
2.54119e-05
2.32044e-05
2.07874e-05
1.81607e-05
1.53253e-05
1.22823e-05
9.03343e-06
5.58039e-06
1.92576e-06
)
;
    }
    frontAndBack
    {
        type            empty;
        value           nonuniform 0();
    }
    procBoundary7to3
    {
        type            processor;
        value           nonuniform List<scalar> 
20
(
-1.56032e-12
-1.46524e-12
1.48605e-12
2.0254e-12
-1.32694e-12
-2.97981e-12
-3.75984e-13
1.72112e-12
2.17398e-13
-1.61034e-12
-1.22768e-12
-5.48688e-13
-3.70644e-13
2.19193e-13
1.1621e-13
-1.48129e-12
-1.82723e-12
-2.33173e-13
3.28226e-13
-4.76146e-13
)
;
    }
    procBoundary7to6
    {
        type            processor;
        value           nonuniform List<scalar> 
20
(
-3.61177e-05
-3.59913e-05
-3.57347e-05
-3.53403e-05
-3.47979e-05
-3.40949e-05
-3.32177e-05
-3.21523e-05
-3.08857e-05
-2.94063e-05
-2.77049e-05
-2.57746e-05
-2.36112e-05
-2.12129e-05
-1.858e-05
-1.57145e-05
-1.26194e-05
-9.29827e-06
-5.75447e-06
-1.99085e-06
)
;
    }
}


// ************************************************************************* //
