/*--------------------------------*- C++ -*----------------------------------*\
| =========                 |                                                 |
| \\      /  F ield         | OpenFOAM: The Open Source CFD Toolbox           |
|  \\    /   O peration     | Version:                                        |
|   \\  /    A nd           | Website:  www.openfoam.com                      |
|    \\/     M anipulation  |                                                 |
\*---------------------------------------------------------------------------*/
FoamFile
{
    version     2.0;
    format      ascii;
    class       volVectorField;
    location    "1.3";
    object      U;
}
// * * * * * * * * * * * * * * * * * * * * * * * * * * * * * * * * * * * * * //

dimensions      [0 1 -1 0 0 0 0];


internalField   nonuniform List<vector> 
400
(
(1.44573 -0.000505969 0)
(1.44769 -0.000486677 0)
(1.44958 -0.000468176 0)
(1.45139 -0.000450387 0)
(1.45314 -0.000433281 0)
(1.45482 -0.000416834 0)
(1.45643 -0.000401115 0)
(1.45799 -0.000385955 0)
(1.45948 -0.000371495 0)
(1.46093 -0.000357419 0)
(1.46231 -0.000344276 0)
(1.46365 -0.000331131 0)
(1.46492 -0.000319466 0)
(1.46619 -0.00030683 0)
(1.46733 -0.000297174 0)
(1.46856 -0.000284242 0)
(1.46954 -0.000277629 0)
(1.47084 -0.00026312 0)
(1.47149 -0.000260869 0)
(1.47312 -0.000244305 0)
(1.44063 -0.00149476 0)
(1.4425 -0.00143776 0)
(1.4443 -0.00138302 0)
(1.44603 -0.00133042 0)
(1.4477 -0.00127995 0)
(1.4493 -0.00123142 0)
(1.45084 -0.00118492 0)
(1.45233 -0.00114007 0)
(1.45375 -0.00109738 0)
(1.45513 -0.00105585 0)
(1.45645 -0.00101702 0)
(1.45773 -0.000978195 0)
(1.45894 -0.000943717 0)
(1.46015 -0.000906422 0)
(1.46124 -0.00087785 0)
(1.46242 -0.000839773 0)
(1.46335 -0.000820202 0)
(1.46459 -0.000777424 0)
(1.46521 -0.000770699 0)
(1.46676 -0.000721852 0)
(1.43027 -0.00241548 0)
(1.43197 -0.00232328 0)
(1.4336 -0.00223477 0)
(1.43517 -0.00214973 0)
(1.43668 -0.00206814 0)
(1.43814 -0.00198969 0)
(1.43954 -0.00191453 0)
(1.44089 -0.00184208 0)
(1.44218 -0.00177309 0)
(1.44343 -0.00170601 0)
(1.44462 -0.00164323 0)
(1.44579 -0.00158057 0)
(1.44688 -0.00152481 0)
(1.44798 -0.00146471 0)
(1.44897 -0.00141841 0)
(1.45004 -0.00135717 0)
(1.45088 -0.00132535 0)
(1.45201 -0.00125661 0)
(1.45257 -0.00124559 0)
(1.45399 -0.00116689 0)
(1.41437 -0.00322745 0)
(1.41582 -0.00310414 0)
(1.41722 -0.00298576 0)
(1.41856 -0.00287207 0)
(1.41985 -0.00276299 0)
(1.42109 -0.00265813 0)
(1.42229 -0.00255769 0)
(1.42344 -0.0024609 0)
(1.42455 -0.0023687 0)
(1.42561 -0.00227913 0)
(1.42663 -0.00219522 0)
(1.42763 -0.00211165 0)
(1.42857 -0.00203705 0)
(1.42951 -0.00195708 0)
(1.43035 -0.00189498 0)
(1.43126 -0.00181373 0)
(1.43198 -0.00177081 0)
(1.43295 -0.00167978 0)
(1.43343 -0.00166473 0)
(1.43464 -0.00156007 0)
(1.39251 -0.00389678 0)
(1.39366 -0.00374769 0)
(1.39476 -0.00360463 0)
(1.39583 -0.00346725 0)
(1.39685 -0.00333547 0)
(1.39783 -0.00320883 0)
(1.39877 -0.00308754 0)
(1.39968 -0.0029707 0)
(1.40055 -0.00285937 0)
(1.4014 -0.00275134 0)
(1.4022 -0.00264998 0)
(1.40299 -0.00254933 0)
(1.40373 -0.0024591 0)
(1.40447 -0.00236308 0)
(1.40514 -0.00228771 0)
(1.40586 -0.00219057 0)
(1.40643 -0.00213809 0)
(1.4072 -0.00202954 0)
(1.40758 -0.00201082 0)
(1.40854 -0.00188534 0)
(1.36422 -0.00439822 0)
(1.36502 -0.00422972 0)
(1.36579 -0.00406808 0)
(1.36653 -0.00391292 0)
(1.36725 -0.00376411 0)
(1.36793 -0.00362114 0)
(1.3686 -0.00348423 0)
(1.36923 -0.00335241 0)
(1.36984 -0.00322675 0)
(1.37043 -0.00310497 0)
(1.371 -0.00299052 0)
(1.37155 -0.00287725 0)
(1.37207 -0.00277522 0)
(1.37259 -0.00266758 0)
(1.37306 -0.00258197 0)
(1.37356 -0.00247371 0)
(1.37396 -0.00241355 0)
(1.3745 -0.00229303 0)
(1.37477 -0.00227108 0)
(1.37545 -0.00213086 0)
(1.32894 -0.00471657 0)
(1.32938 -0.00453566 0)
(1.3298 -0.00436217 0)
(1.33021 -0.00419568 0)
(1.3306 -0.00403604 0)
(1.33097 -0.00388273 0)
(1.33133 -0.0037359 0)
(1.33168 -0.00359462 0)
(1.33202 -0.00345988 0)
(1.33234 -0.00332949 0)
(1.33265 -0.00320672 0)
(1.33295 -0.00308568 0)
(1.33324 -0.00297604 0)
(1.33352 -0.00286153 0)
(1.33378 -0.00276906 0)
(1.33406 -0.00265479 0)
(1.33428 -0.00258904 0)
(1.33458 -0.00246255 0)
(1.33473 -0.00243788 0)
(1.33512 -0.00228961 0)
(1.28613 -0.00484725 0)
(1.28621 -0.00466116 0)
(1.28628 -0.00448275 0)
(1.28636 -0.0043116 0)
(1.28643 -0.00414752 0)
(1.28649 -0.00398999 0)
(1.28656 -0.00383913 0)
(1.28662 -0.00369406 0)
(1.28668 -0.00355564 0)
(1.28674 -0.00342187 0)
(1.28679 -0.00329568 0)
(1.28685 -0.00317178 0)
(1.2869 -0.00305888 0)
(1.28695 -0.00294227 0)
(1.287 -0.0028465 0)
(1.28706 -0.00273127 0)
(1.28709 -0.00266221 0)
(1.28716 -0.0025358 0)
(1.28718 -0.00250897 0)
(1.28728 -0.00235962 0)
(1.23529 -0.00479612 0)
(1.23503 -0.0046119 0)
(1.23477 -0.00443534 0)
(1.23453 -0.004266 0)
(1.2343 -0.00410369 0)
(1.23407 -0.00394791 0)
(1.23385 -0.00379872 0)
(1.23365 -0.00365533 0)
(1.23345 -0.00351845 0)
(1.23326 -0.00338637 0)
(1.23307 -0.00326153 0)
(1.2329 -0.00313948 0)
(1.23272 -0.00302755 0)
(1.23256 -0.00291335 0)
(1.2324 -0.00281781 0)
(1.23226 -0.00270636 0)
(1.23212 -0.00263632 0)
(1.23197 -0.0025157 0)
(1.23187 -0.00248732 0)
(1.2317 -0.00234383 0)
(1.17596 -0.00457861 0)
(1.17539 -0.00440276 0)
(1.17485 -0.00423424 0)
(1.17432 -0.00407267 0)
(1.17382 -0.00391782 0)
(1.17334 -0.00376924 0)
(1.17287 -0.00362694 0)
(1.17243 -0.00349024 0)
(1.172 -0.00335969 0)
(1.17158 -0.00323389 0)
(1.17118 -0.00311477 0)
(1.1708 -0.0029988 0)
(1.17043 -0.00289179 0)
(1.17008 -0.00278399 0)
(1.16974 -0.00269203 0)
(1.16941 -0.00258842 0)
(1.16911 -0.00251974 0)
(1.16878 -0.00240992 0)
(1.16857 -0.00238066 0)
(1.16815 -0.00224962 0)
(1.10777 -0.00421824 0)
(1.10696 -0.00405634 0)
(1.10617 -0.00390122 0)
(1.10541 -0.00375252 0)
(1.10469 -0.00361001 0)
(1.10399 -0.0034733 0)
(1.10332 -0.00334237 0)
(1.10267 -0.00321664 0)
(1.10205 -0.00309652 0)
(1.10146 -0.00298091 0)
(1.10088 -0.00287127 0)
(1.10033 -0.00276495 0)
(1.0998 -0.00266627 0)
(1.09929 -0.00256814 0)
(1.0988 -0.00248278 0)
(1.09831 -0.0023902 0)
(1.09788 -0.00232513 0)
(1.0974 -0.00223009 0)
(1.09708 -0.00220069 0)
(1.09647 -0.00208809 0)
(1.03046 -0.00374478 0)
(1.02946 -0.00360124 0)
(1.02849 -0.00346373 0)
(1.02756 -0.00333192 0)
(1.02667 -0.00320561 0)
(1.02581 -0.00308445 0)
(1.02498 -0.0029684 0)
(1.02419 -0.00285702 0)
(1.02342 -0.00275055 0)
(1.02269 -0.0026482 0)
(1.02198 -0.002551 0)
(1.0213 -0.0024571 0)
(1.02064 -0.00236947 0)
(1.02001 -0.00228345 0)
(1.01941 -0.00220719 0)
(1.01881 -0.00212781 0)
(1.01828 -0.00206843 0)
(1.01768 -0.00199084 0)
(1.01728 -0.00196219 0)
(1.01653 -0.00187314 0)
(0.943863 -0.0031921 0)
(0.942737 -0.00306999 0)
(0.941655 -0.00295302 0)
(0.940615 -0.00284089 0)
(0.939614 -0.00273344 0)
(0.938652 -0.00263038 0)
(0.937727 -0.00253166 0)
(0.936837 -0.00243694 0)
(0.93598 -0.00234637 0)
(0.935156 -0.00225939 0)
(0.934363 -0.00217667 0)
(0.9336 -0.00209705 0)
(0.932865 -0.00202241 0)
(0.932156 -0.00195003 0)
(0.931479 -0.00188473 0)
(0.93081 -0.00181969 0)
(0.930204 -0.00176774 0)
(0.929534 -0.00170883 0)
(0.929082 -0.00168195 0)
(0.928239 -0.00162041 0)
(0.847905 -0.00259618 0)
(0.846729 -0.00249714 0)
(0.8456 -0.00240225 0)
(0.844513 -0.00231129 0)
(0.843469 -0.00222411 0)
(0.842464 -0.00214051 0)
(0.841497 -0.00206041 0)
(0.840567 -0.00198357 0)
(0.839672 -0.00191008 0)
(0.83881 -0.00183956 0)
(0.837981 -0.00177245 0)
(0.837183 -0.00170804 0)
(0.836414 -0.00164744 0)
(0.835672 -0.00158934 0)
(0.834962 -0.00153611 0)
(0.834263 -0.00148551 0)
(0.833624 -0.00144233 0)
(0.832927 -0.00140177 0)
(0.83244 -0.00137784 0)
(0.831563 -0.00134624 0)
(0.7426 -0.00199327 0)
(0.741445 -0.00191748 0)
(0.740334 -0.00184485 0)
(0.739266 -0.00177522 0)
(0.738239 -0.00170849 0)
(0.73725 -0.00164448 0)
(0.736299 -0.00158315 0)
(0.735384 -0.00152433 0)
(0.734503 -0.00146806 0)
(0.733656 -0.0014141 0)
(0.732839 -0.00136271 0)
(0.732053 -0.00131353 0)
(0.731296 -0.00126713 0)
(0.730564 -0.00122313 0)
(0.729863 -0.00118228 0)
(0.729175 -0.00114533 0)
(0.728539 -0.00111164 0)
(0.727856 -0.00108765 0)
(0.727361 -0.00106783 0)
(0.7265 -0.0010666 0)
(0.628025 -0.00141816 0)
(0.626956 -0.00136444 0)
(0.625928 -0.00131295 0)
(0.62494 -0.00126358 0)
(0.623988 -0.00121626 0)
(0.623073 -0.00117086 0)
(0.622192 -0.00112736 0)
(0.621344 -0.00108564 0)
(0.620528 -0.00104573 0)
(0.619742 -0.00100747 0)
(0.618985 -0.000971034 0)
(0.618256 -0.000936238 0)
(0.617553 -0.00090335 0)
(0.616874 -0.000872477 0)
(0.616223 -0.000843501 0)
(0.615584 -0.000818676 0)
(0.614989 -0.000794465 0)
(0.614358 -0.000783971 0)
(0.613882 -0.000769136 0)
(0.613083 -0.000796039 0)
(0.504298 -0.000902669 0)
(0.503377 -0.000868619 0)
(0.50249 -0.000835978 0)
(0.501637 -0.000804675 0)
(0.500817 -0.000774661 0)
(0.500027 -0.000745867 0)
(0.499266 -0.000718272 0)
(0.498534 -0.000691803 0)
(0.497829 -0.000666482 0)
(0.49715 -0.000642225 0)
(0.496496 -0.000619116 0)
(0.495866 -0.000597096 0)
(0.495258 -0.000576259 0)
(0.494671 -0.000556898 0)
(0.494106 -0.000538537 0)
(0.493554 -0.00052379 0)
(0.493034 -0.000508252 0)
(0.49249 -0.000507191 0)
(0.492062 -0.000497392 0)
(0.491363 -0.000546618 0)
(0.371557 -0.00047636 0)
(0.370838 -0.000458476 0)
(0.370146 -0.000441328 0)
(0.36948 -0.000424879 0)
(0.368839 -0.000409103 0)
(0.368222 -0.000393965 0)
(0.367628 -0.000379457 0)
(0.367056 -0.000365539 0)
(0.366505 -0.000352226 0)
(0.365974 -0.000339476 0)
(0.365463 -0.000327333 0)
(0.364969 -0.000315785 0)
(0.364494 -0.000304844 0)
(0.364034 -0.000294802 0)
(0.363591 -0.00028514 0)
(0.363158 -0.000278056 0)
(0.362748 -0.000269657 0)
(0.362321 -0.000273395 0)
(0.361972 -0.000267605 0)
(0.361406 -0.000327872 0)
(0.229936 -0.000173432 0)
(0.229469 -0.000166961 0)
(0.22902 -0.000160754 0)
(0.228587 -0.000154797 0)
(0.22817 -0.000149083 0)
(0.227769 -0.000143598 0)
(0.227383 -0.000138342 0)
(0.227011 -0.000133297 0)
(0.226652 -0.000128474 0)
(0.226307 -0.000123854 0)
(0.225974 -0.000119458 0)
(0.225652 -0.000115287 0)
(0.225343 -0.000111326 0)
(0.225043 -0.000107763 0)
(0.224754 -0.000104221 0)
(0.224472 -0.000102056 0)
(0.224202 -9.87009e-05 0)
(0.223923 -0.000102821 0)
(0.223685 -9.97134e-05 0)
(0.223286 -0.000151886 0)
(0.0795458 -2.88675e-05 0)
(0.079376 -2.78017e-05 0)
(0.0792125 -2.67788e-05 0)
(0.079055 -2.57964e-05 0)
(0.0789034 -2.48538e-05 0)
(0.0787574 -2.39482e-05 0)
(0.0786167 -2.30804e-05 0)
(0.0784811 -2.2247e-05 0)
(0.0783505 -2.1451e-05 0)
(0.0782245 -2.06882e-05 0)
(0.0781031 -1.99634e-05 0)
(0.0779859 -1.92787e-05 0)
(0.0778729 -1.86242e-05 0)
(0.0777635 -1.80604e-05 0)
(0.0776579 -1.74527e-05 0)
(0.0775545 -1.72331e-05 0)
(0.0774558 -1.65322e-05 0)
(0.0773526 -1.81837e-05 0)
(0.0772619 -1.72916e-05 0)
(0.0770874 -3.84172e-05 0)
)
;

boundaryField
{
    fixedWalls
    {
        type            noSlip;
    }
    inlet
    {
        type            fixedValue;
        value           nonuniform 0();
    }
    outlet
    {
        type            zeroGradient;
    }
    frontAndBack
    {
        type            empty;
    }
    procBoundary7to3
    {
        type            processor;
        value           nonuniform List<vector> 
20
(
(1.44573 0.000505994 0)
(1.44769 0.000486708 0)
(1.44958 0.000468165 0)
(1.45139 0.000450362 0)
(1.45314 0.000433306 0)
(1.45482 0.000416889 0)
(1.45643 0.000401134 0)
(1.45799 0.00038594 0)
(1.45948 0.0003715 0)
(1.46093 0.000357453 0)
(1.46231 0.000344308 0)
(1.46365 0.000331152 0)
(1.46492 0.000319484 0)
(1.46619 0.00030684 0)
(1.46733 0.000297186 0)
(1.46856 0.000284275 0)
(1.46954 0.000277669 0)
(1.47084 0.00026314 0)
(1.47149 0.000260882 0)
(1.47312 0.000244329 0)
)
;
    }
    procBoundary7to6
    {
        type            processor;
        value           nonuniform List<vector> 
20
(
(1.44369 -0.00052607 0)
(1.43868 -0.0015541 0)
(1.4285 -0.00251146 0)
(1.41286 -0.00335589 0)
(1.39132 -0.0040521 0)
(1.36338 -0.00457383 0)
(1.32848 -0.00490519 0)
(1.28605 -0.00504134 0)
(1.23556 -0.00498832 0)
(1.17655 -0.00476213 0)
(1.10862 -0.00438724 0)
(1.03151 -0.00389462 0)
(0.945034 -0.00331957 0)
(0.849127 -0.00269958 0)
(0.743801 -0.00207239 0)
(0.629136 -0.00147423 0)
(0.505256 -0.000938198 0)
(0.372305 -0.000495015 0)
(0.230422 -0.000180179 0)
(0.0797222 -2.99779e-05 0)
)
;
    }
}


// ************************************************************************* //
