/*--------------------------------*- C++ -*----------------------------------*\
| =========                 |                                                 |
| \\      /  F ield         | OpenFOAM: The Open Source CFD Toolbox           |
|  \\    /   O peration     | Version:                                        |
|   \\  /    A nd           | Website:  www.openfoam.com                      |
|    \\/     M anipulation  |                                                 |
\*---------------------------------------------------------------------------*/
FoamFile
{
    version     2.0;
    format      ascii;
    class       volScalarField;
    location    "102.9";
    object      p;
}
// * * * * * * * * * * * * * * * * * * * * * * * * * * * * * * * * * * * * * //

dimensions      [0 2 -2 0 0 0 0];


internalField   nonuniform List<scalar> 
1147
(
-1.19345
-1.20943
-1.22398
-1.25513
-1.29881
-1.29175
-1.24921
-1.21098
-1.2062
-1.22472
-1.19555
-1.21955
-1.22574
-1.22452
-1.26438
-1.28695
-1.24855
-1.19075
-1.16126
-1.1467
-1.193
-1.20268
-1.21181
-1.20701
-1.19717
-1.18764
-1.15396
-1.11631
-1.08567
-1.05616
-1.17361
-1.16496
-1.15147
-1.13745
-1.11189
-1.08245
-1.05034
-1.02136
-0.991929
-0.959057
-1.1216
-1.09505
-1.07032
-1.04929
-1.02033
-0.987529
-0.957746
-0.931292
-0.902974
-0.870034
-1.04536
-1.00969
-0.982328
-0.958451
-0.930933
-0.901882
-0.875132
-0.849475
-0.821413
-0.789004
-0.956495
-0.920435
-0.894302
-0.870474
-0.84636
-0.82282
-0.799582
-0.775248
-0.748241
-0.716116
-0.863725
-0.832444
-0.809977
-0.78703
-0.767391
-0.749348
-0.729197
-0.707415
-0.682501
-0.65084
-0.772122
-0.748027
-0.730886
-0.709106
-0.694733
-0.681507
-0.663516
-0.64531
-0.622714
-0.592177
-0.683565
-0.667795
-0.656628
-0.63772
-0.628032
-0.619544
-0.602695
-0.588399
-0.568091
-0.539041
-0.5919
-0.586006
-0.572228
-0.566891
-0.562685
-0.546955
-0.536305
-0.518144
-0.490802
-0.520734
-0.518699
-0.511243
-0.510823
-0.509556
-0.49645
-0.488608
-0.472475
-0.447426
-0.45592
-0.454385
-0.458877
-0.459798
-0.45055
-0.444864
-0.43068
-0.408559
-0.399127
-0.401617
-0.410995
-0.413301
-0.408739
-0.404413
-0.392474
-0.373344
-0.3542
-0.366899
-0.37065
-0.370237
-0.367345
-0.357215
-0.341442
-0.313052
-0.325887
-0.332389
-0.334413
-0.333524
-0.324927
-0.312047
-0.275269
-0.289385
-0.297378
-0.301698
-0.302432
-0.295552
-0.285184
-0.25653
-0.265579
-0.27195
-0.273943
-0.268946
-0.260571
-0.226394
-0.237262
-0.244311
-0.247942
-0.244976
-0.2376
-0.198563
-0.211219
-0.218645
-0.223101
-0.222802
-0.216397
-1.055
-1.18161
-1.26128
-1.28704
-1.26563
-1.21868
-1.1776
-1.16123
-1.1645
-1.17595
-1.08156
-1.20721
-1.28118
-1.30635
-1.2784
-1.2226
-1.17158
-1.15012
-1.15512
-1.17418
-1.13633
-1.26762
-1.34276
-1.354
-1.31358
-1.24433
-1.17697
-1.14633
-1.14973
-1.17349
-1.32624
-1.39312
-1.39286
-1.34265
-1.26364
-1.18595
-1.14648
-1.1459
-1.16391
-1.26851
-1.18835
-1.14697
-1.14049
-1.13856
-1.18019
-1.14018
-1.11736
-1.08604
-1.10887
-1.06424
-1.0096
-0.982638
-0.918119
-0.819651
-0.19671
-0.175323
-0.155268
-0.137873
-0.120779
-0.106142
-0.0922347
-0.0797935
-0.0684789
-0.0583846
-0.0493877
-0.0414512
-0.0344349
-0.0281087
-0.022418
-0.0173283
-0.0126547
-0.00842515
-0.00465524
-0.00123741
0.00181875
0.00451276
0.00685404
0.00882833
0.0104485
0.0117762
0.0128369
0.013611
0.014057
0.0143072
-0.19892
-0.173701
-0.151526
-0.133151
-0.116463
-0.102174
-0.088823
-0.0768836
-0.066121
-0.0563899
-0.0476057
-0.0398472
-0.033002
-0.0267971
-0.0212954
-0.0163988
-0.0118265
-0.00775426
-0.00413277
-0.000833127
0.002098
0.00469591
0.00698326
0.00892053
0.0105171
0.0118161
0.0128312
0.0135693
0.0140122
0.0142702
-0.196465
-0.169987
-0.147684
-0.129884
-0.113442
-0.0988294
-0.085351
-0.0736446
-0.0632929
-0.0539106
-0.0454676
-0.0380746
-0.0314551
-0.0253514
-0.0201351
-0.0154579
-0.0110168
-0.00717467
-0.00369583
-0.000501031
0.00230275
0.00480253
0.00702575
0.0089149
0.0105032
0.0117941
0.0127929
0.0135203
0.0139655
0.0142332
-0.191639
-0.164058
-0.141256
-0.123769
-0.107853
-0.0936573
-0.0809799
-0.0702305
-0.0603518
-0.0512041
-0.0430778
-0.0361265
-0.0297431
-0.0237544
-0.0189165
-0.0143707
-0.0100635
-0.00652293
-0.0031747
-0.000108381
0.00254836
0.0049452
0.00708002
0.00889683
0.0104684
0.0117434
0.0127391
0.0134711
0.0139203
0.0141988
-0.183271
-0.157052
-0.13769
-0.121606
-0.1048
-0.0895432
-0.0770309
-0.066651
-0.0569982
-0.0480694
-0.0404165
-0.0340627
-0.0277566
-0.0220255
-0.017718
-0.0131347
-0.00903244
-0.00580373
-0.00252545
0.000371869
0.00287771
0.00517928
0.0072079
0.0089436
0.0104801
0.0117143
0.0127028
0.0134369
0.0138837
0.0141699
-0.0384876
-0.0326032
-0.0259393
-0.0207415
-0.0168212
-0.0118986
-0.00820468
-0.00516059
-0.0018727
0.000827574
0.00323318
0.0054657
0.00739161
0.00906372
0.0105502
0.0117255
0.0127009
0.0134244
0.013861
0.0141494
-0.0336171
-0.0575702
-0.0761962
-0.0971953
-0.120032
-0.142938
-0.163635
-0.180911
-0.195363
-0.206755
-0.0332627
-0.0576099
-0.0791083
-0.102851
-0.128417
-0.153193
-0.17618
-0.196116
-0.21251
-0.226881
-0.0334329
-0.0611163
-0.0869049
-0.113321
-0.141153
-0.168039
-0.192672
-0.214466
-0.232874
-0.247823
-0.0346577
-0.0667741
-0.0972873
-0.126677
-0.156319
-0.18512
-0.211535
-0.234398
-0.254488
-0.270903
-0.0374853
-0.0737001
-0.108599
-0.141201
-0.172716
-0.203108
-0.231517
-0.256358
-0.277458
-0.296423
-0.0420943
-0.0817119
-0.120287
-0.156261
-0.190167
-0.222437
-0.252788
-0.280016
-0.302885
-0.324194
-0.0484174
-0.091043
-0.13299
-0.17233
-0.20913
-0.243687
-0.276409
-0.30588
-0.330959
-0.355
-0.0562451
-0.101957
-0.147308
-0.190264
-0.230519
-0.267311
-0.302961
-0.334486
-0.36227
-0.388902
-0.0655205
-0.114889
-0.163743
-0.210446
-0.254781
-0.294094
-0.332912
-0.366287
-0.397045
-0.426254
-0.0763539
-0.13026
-0.18285
-0.233482
-0.281998
-0.324449
-0.366687
-0.401849
-0.435799
-0.467071
-0.0891169
-0.148516
-0.205135
-0.260193
-0.312538
-0.358885
-0.404628
-0.441916
-0.479021
-0.51191
-0.104554
-0.170141
-0.231237
-0.291429
-0.347303
-0.398251
-0.44717
-0.487459
-0.527091
-0.561765
-0.12371
-0.195652
-0.262222
-0.32792
-0.387781
-0.443479
-0.495488
-0.539473
-0.581057
-0.617656
-0.147696
-0.225978
-0.299233
-0.370645
-0.435366
-0.495754
-0.550963
-0.599059
-0.642158
-0.680766
-0.177694
-0.262865
-0.343819
-0.421117
-0.491671
-0.55655
-0.615292
-0.667384
-0.711971
-0.752529
-0.214992
-0.308485
-0.397976
-0.481564
-0.55857
-0.627502
-0.689844
-0.745022
-0.791718
-0.833719
-0.262189
-0.365373
-0.464587
-0.555826
-0.639966
-0.712906
-0.776808
-0.83418
-0.88247
-0.92434
-0.322012
-0.435771
-0.545041
-0.64567
-0.739512
-0.822103
-0.891059
-0.944998
-0.989499
-1.02544
-0.397622
-0.522062
-0.638409
-0.74654
-0.845624
-0.932212
-1.00667
-1.06468
-1.10596
-1.12839
-0.521086
-0.664681
-0.798027
-0.920744
-1.02247
-1.10754
-1.17059
-1.21227
-1.23392
-1.2351
0.0937348
0.0683258
0.0408263
0.00721961
0.115313
0.0897311
0.0612032
0.0313558
-0.00130679
0.164737
0.142439
0.117237
0.0897949
0.0593248
0.0283344
-0.00265669
0.223244
0.210413
0.193577
0.173127
0.149265
0.122352
0.0933996
0.0616511
0.0294528
-0.00205125
0.236339
0.22298
0.205178
0.183486
0.15827
0.129743
0.0991993
0.0660095
0.0317235
-0.0020231
0.250867
0.236867
0.218127
0.195193
0.168576
0.13831
0.105811
0.0706758
0.0335476
-0.00353915
0.266851
0.252035
0.232235
0.207899
0.179637
0.147328
0.112441
0.0748501
0.0344258
-0.00654554
0.284335
0.268584
0.24755
0.221578
0.191338
0.156602
0.11882
0.0782855
0.0344327
-0.0106256
0.30332
0.286584
0.264146
0.236284
0.203724
0.166198
0.125006
0.0810209
0.0336375
-0.0156119
0.323747
0.30601
0.282003
0.251999
0.216792
0.176172
0.131123
0.0831491
0.0318462
-0.02177
0.345556
0.326759
0.301007
0.268585
0.230363
0.186346
0.137097
0.0845545
0.0288543
-0.0297185
0.368653
0.348703
0.321002
0.285901
0.24423
0.196371
0.142665
0.0848191
0.0242413
-0.0399508
0.392941
0.371704
0.341823
0.30373
0.258207
0.205823
0.147309
0.0835732
0.0171772
-0.0529956
0.418267
0.395599
0.363242
0.321784
0.27199
0.214485
0.150223
0.0803916
0.00681071
-0.0696709
0.44429
0.420056
0.384866
0.339609
0.284863
0.221829
0.150722
0.0741851
-0.00769782
-0.0912709
0.470456
0.444588
0.406135
0.356433
0.296114
0.22653
0.148078
0.0634207
-0.0273582
-0.119721
0.495827
0.468091
0.426009
0.370988
0.304362
0.226964
0.140341
0.0460628
-0.0541311
-0.157363
0.519019
0.489082
0.442908
0.381869
0.307763
0.221465
0.125152
0.0198859
-0.0908835
-0.206298
0.537554
0.504612
0.453933
0.385917
0.302734
0.205896
0.0974502
-0.0199617
-0.143367
-0.271181
0.549223
0.512673
0.457892
0.382429
0.288472
0.177079
0.0520522
-0.0826816
-0.227044
-0.373257
0.040315
0.0770374
0.0546415
0.0249927
0.0188666
0.00731089
-0.000299353
-0.00640414
-0.0111534
-0.0147633
-0.0172973
-0.0187791
-0.0193591
-0.0191579
-0.0182387
-0.0167687
-0.0148587
-0.0125926
-0.0101158
-0.00753504
-0.00492589
-0.00233611
0.000181495
0.00258085
0.00482707
0.0069051
0.00880237
0.0105072
0.0120235
0.0133484
0.0143936
0.0150972
0.0162771
0.0164971
-0.00366847
-0.0104062
-0.0161133
-0.0207799
-0.024221
-0.0265613
-0.0278925
-0.0283504
-0.0279813
-0.0268156
-0.0249613
-0.0226083
-0.0198629
-0.0168383
-0.0136525
-0.0104207
-0.00724071
-0.00417435
-0.00127567
0.00142102
0.00390427
0.00617351
0.00822944
0.0100692
0.0117004
0.0131266
0.0142481
0.0149655
0.0159393
0.0161401
-0.0322146
-0.0330041
-0.0358461
-0.0382465
-0.0400886
-0.0410513
-0.0411051
-0.0403027
-0.0387228
-0.0363992
-0.0334517
-0.0300454
-0.0263021
-0.022366
-0.0183361
-0.0143229
-0.010415
-0.00669252
-0.00323132
-7.78503e-05
0.00276355
0.00530825
0.00757587
0.00958436
0.0113523
0.0129
0.0141221
0.0148671
0.0155808
0.0157628
-0.0604334
-0.0614685
-0.0613501
-0.0606769
-0.059972
-0.0587136
-0.056758
-0.0540863
-0.0507366
-0.0467724
-0.0423836
-0.0376958
-0.0328248
-0.027911
-0.0230364
-0.0182841
-0.0137001
-0.00935031
-0.00531746
-0.00167262
0.00156739
0.00441863
0.00691429
0.00909341
0.0109905
0.0126506
0.0139817
0.0147637
0.0152469
0.0154081
-0.0785005
-0.0813387
-0.0807405
-0.0788191
-0.0761217
-0.0725016
-0.0683345
-0.063659
-0.0584876
-0.0529731
-0.0472969
-0.0415657
-0.035888
-0.0303517
-0.0250196
-0.0199477
-0.0151326
-0.0105888
-0.00636354
-0.00252362
0.000898146
0.00390316
0.00651665
0.00877937
0.010733
0.0124406
0.0138403
0.0146563
0.0149789
0.0151163
-0.0959587
-0.0959658
-0.0935965
-0.0910833
-0.0870548
-0.0818057
-0.0758747
-0.0694845
-0.0628818
-0.0561999
-0.0495602
-0.0430624
-0.0368064
-0.0308514
-0.025239
-0.0200074
-0.0151411
-0.01063
-0.00646898
-0.0026847
0.000710943
0.00371515
0.00634115
0.00861299
0.0105656
0.0122648
0.0136865
0.0145338
0.0147722
0.0148904
-0.115894
-0.112071
-0.106113
-0.101049
-0.094962
-0.0883525
-0.0812281
-0.0737346
-0.0661212
-0.0586007
-0.0512943
-0.0442547
-0.0375586
-0.03124
-0.0253504
-0.0199175
-0.014939
-0.0104057
-0.0062982
-0.0026048
0.000699856
0.0036368
0.00622514
0.00847644
0.010412
0.0120848
0.0135008
0.0143815
0.0146068
0.0147218
-0.136954
-0.130219
-0.120967
-0.113029
-0.104087
-0.0952864
-0.0864463
-0.0776802
-0.0691289
-0.060904
-0.0530614
-0.0456319
-0.0386211
-0.0320407
-0.0259249
-0.0202892
-0.015141
-0.0104869
-0.00631834
-0.00262047
0.000651821
0.00354305
0.00609229
0.00831895
0.0102391
0.0118874
0.0132847
0.0141991
0.0144657
0.0145979
-0.154293
-0.144476
-0.132741
-0.122105
-0.110751
-0.100296
-0.0901757
-0.0805078
-0.0712652
-0.0624778
-0.0542194
-0.0465001
-0.0393023
-0.0325971
-0.0263987
-0.020695
-0.0154802
-0.0107447
-0.00649004
-0.00272077
0.000588683
0.00347891
0.0060009
0.00819517
0.0100887
0.0117076
0.0130731
0.0140084
0.014343
0.0145066
-0.16928
-0.157122
-0.143493
-0.130969
-0.117527
-0.105141
-0.0933505
-0.0824468
-0.0723204
-0.0629514
-0.0543003
-0.0463433
-0.0390265
-0.0323154
-0.0261712
-0.0205499
-0.0154234
-0.0107385
-0.00648815
-0.00268835
0.000657998
0.0035585
0.00605443
0.00820102
0.0100383
0.0116024
0.0129127
0.0138418
0.0142408
0.0144389
-0.181552
-0.166241
-0.149894
-0.135274
-0.119978
-0.106897
-0.0943474
-0.0827252
-0.0719621
-0.0621475
-0.0532297
-0.0451377
-0.0377989
-0.0311555
-0.0251289
-0.0196821
-0.0147383
-0.0102054
-0.00607982
-0.00235454
0.00095311
0.00382411
0.00627874
0.0083638
0.0101211
0.0116034
0.0128332
0.0137237
0.014162
0.014387
-0.190942
-0.173258
-0.154264
-0.138456
-0.120164
-0.107226
-0.0937076
-0.0817671
-0.0705736
-0.0604882
-0.0514249
-0.0433462
-0.0361314
-0.0296258
-0.023744
-0.0184702
-0.013679
-0.00930767
-0.0053653
-0.00179238
0.00140184
0.00419518
0.00659334
0.00861552
0.0102909
0.0116841
0.0128225
0.013654
0.0141038
0.0143451
)
;

boundaryField
{
    outlet
    {
        type            fixedValue;
        value           nonuniform 0();
    }
    upperWall
    {
        type            symmetryPlane;
    }
    lowerWall
    {
        type            symmetryPlane;
    }
    inlet
    {
        type            zeroGradient;
    }
    cylinder
    {
        type            zeroGradient;
    }
    frontAndBack
    {
        type            empty;
    }
    procBoundary1to0
    {
        type            processor;
        value           nonuniform List<scalar> 
45
(
0.11663
0.11663
0.0985045
0.15876
0.138442
0.138442
0.211514
0.199355
0.183729
0.183729
0.0487389
0.0816029
0.0625033
0.0625033
0.0985045
0.0339027
0.0220552
0.0129727
0.00569575
-9.54167e-05
-0.00467069
-0.00814358
-0.0104895
-0.011859
-0.0124986
-0.0124365
-0.0117426
-0.0105586
-0.00897286
-0.0071171
-0.005079
-0.00291542
-0.000674752
0.00156105
0.00372929
0.00577861
0.00768286
0.00942631
0.0109984
0.0124018
0.0136302
0.0146079
0.0153009
0.0165867
0.0168224
)
;
    }
    procBoundary1to2
    {
        type            processor;
        value           nonuniform List<scalar> 
63
(
-0.598159
-0.7195
-0.598159
-0.517168
-0.454102
-0.454102
-0.392139
-0.347622
-0.347622
-0.300527
-0.260463
-0.241247
-0.241247
-0.210908
-0.183303
-0.169313
-1.19349
-1.19349
-1.36533
-1.41989
-1.40698
-1.35103
-1.35103
-1.25456
-1.25456
-1.15525
-1.15525
-1.04294
-1.04294
-0.881218
-0.881218
-0.7195
-0.169313
-0.144385
-0.127789
-0.114091
-0.0987282
-0.0849919
-0.0741118
-0.0642261
-0.0544578
-0.0455561
-0.0455561
-0.037176
-0.0311929
-0.0242451
-0.0201858
-0.0160127
-0.0108423
-0.00781521
-0.00463581
-0.00136834
0.00114309
0.00353407
0.00571745
0.00756754
0.00921327
0.0106451
0.0117674
0.0127289
0.0134292
0.0138515
0.0141375
)
;
    }
    procBoundary1to5
    {
        type            processor;
        value           nonuniform List<scalar> 
20
(
-0.904266
-0.923602
-0.963826
0.231894
0.245145
0.260006
0.276508
0.294535
0.313971
0.334748
0.356856
0.380289
0.404956
0.430723
0.457218
0.483851
0.509607
0.533201
0.552337
0.56474
)
;
    }
}


// ************************************************************************* //
