/*--------------------------------*- C++ -*----------------------------------*\
| =========                 |                                                 |
| \\      /  F ield         | OpenFOAM: The Open Source CFD Toolbox           |
|  \\    /   O peration     | Version:                                        |
|   \\  /    A nd           | Website:  www.openfoam.com                      |
|    \\/     M anipulation  |                                                 |
\*---------------------------------------------------------------------------*/
FoamFile
{
    version     2.0;
    format      ascii;
    class       volScalarField;
    location    "84";
    object      p;
}
// * * * * * * * * * * * * * * * * * * * * * * * * * * * * * * * * * * * * * //

dimensions      [0 2 -2 0 0 0 0];


internalField   nonuniform List<scalar> 
1136
(
-0.309872
-0.35663
-0.453181
-0.539659
-0.525829
-0.429722
-0.331548
-0.280812
-0.292917
-0.326212
-0.373715
-0.360706
-0.305701
-0.258122
-0.231027
-0.202581
-0.21465
-0.235288
-0.223189
-0.177654
-0.171692
-0.194652
-0.183988
-0.146964
-0.138692
-0.141378
-0.101463
-0.0557604
-0.0275157
-0.00649936
-0.274732
-0.293253
-0.359432
-0.422688
-0.414872
-0.348079
-0.290301
-0.271132
-0.308421
-0.375624
-0.43681
-0.415957
-0.336557
-0.270929
-0.230699
-0.185326
-0.19388
-0.215615
-0.210352
-0.175137
-0.173121
-0.197224
-0.185225
-0.14721
-0.14025
-0.143275
-0.107051
-0.0652341
-0.0328968
-0.00708873
-0.238094
-0.230499
-0.271049
-0.311657
-0.313232
-0.27
-0.24434
-0.255048
-0.321896
-0.422206
-0.496974
-0.467429
-0.363216
-0.278663
-0.229242
-0.170174
-0.171991
-0.193919
-0.195244
-0.171248
-0.174028
-0.204561
-0.186107
-0.146051
-0.140508
-0.144009
-0.112182
-0.0751797
-0.0384684
-0.00762037
-0.203605
-0.178213
-0.196385
-0.218417
-0.224001
-0.197065
-0.192574
-0.232018
-0.321551
-0.457127
-0.549791
-0.514856
-0.385033
-0.281609
-0.225827
-0.156946
-0.150386
-0.170813
-0.178998
-0.166727
-0.174882
-0.206597
-0.186276
-0.143264
-0.139313
-0.14306
-0.11652
-0.0853207
-0.0441265
-0.00807391
-0.168326
-0.133152
-0.13568
-0.146869
-0.149658
-0.133631
-0.138205
-0.196495
-0.303748
-0.478639
-0.585015
-0.548609
-0.399251
-0.27833
-0.219833
-0.144818
-0.12905
-0.146165
-0.161868
-0.161129
-0.175553
-0.210172
-0.18655
-0.139213
-0.136537
-0.140146
-0.120129
-0.0953731
-0.0496523
-0.00842252
-0.137842
-0.0955712
-0.0874743
-0.0928386
-0.0930867
-0.0840569
-0.0860158
-0.15418
-0.269982
-0.468947
-0.593181
-0.570044
-0.409578
-0.272756
-0.212283
-0.134964
-0.109314
-0.121643
-0.144878
-0.154427
-0.175561
-0.211224
-0.186612
-0.1345
-0.132392
-0.135113
-0.122852
-0.104929
-0.0549452
-0.00865733
-0.066447
-0.0525678
-0.053969
-0.0541631
-0.0465708
-0.0453325
-0.111366
-0.220825
-0.432495
-0.574771
-0.567023
-0.40737
-0.262464
-0.201112
-0.126095
-0.0913704
-0.0993146
-0.126997
-0.146039
-0.17434
-0.213003
-0.186509
-0.129836
-0.127222
-0.128155
-0.124653
-0.113738
-0.0599679
-0.00877482
-0.0458628
-0.0278536
-0.0264615
-0.0280797
-0.0227347
-0.0167247
-0.0678955
-0.166865
-0.362971
-0.516597
-0.528241
-0.393011
-0.248787
-0.188847
-0.119844
-0.0758878
-0.078801
-0.108143
-0.135955
-0.171067
-0.209767
-0.184065
-0.124678
-0.121901
-0.119637
-0.125861
-0.121455
-0.064735
-0.00878933
-0.0339372
-0.00992849
-0.00619827
-0.0108197
-0.0108158
0.00221284
-0.0344749
-0.112872
-0.283641
-0.447486
-0.492713
-0.374205
-0.237296
-0.177209
-0.116674
-0.0664324
-0.061098
-0.0880936
-0.124374
-0.165346
-0.205794
-0.178247
-0.117334
-0.116715
-0.110041
-0.125886
-0.128253
-0.068949
-0.00869956
-0.0258952
0.000860414
0.00803714
0.00290661
-0.00396261
0.00717698
-0.00803691
-0.0632809
-0.205951
-0.364501
-0.408774
-0.331451
-0.221667
-0.159841
-0.103016
-0.057774
-0.0504783
-0.0684004
-0.112679
-0.157361
-0.196452
-0.16666
-0.106979
-0.109007
-0.100281
-0.124782
-0.133708
-0.0719644
-0.00830701
0.011385
0.0181536
0.0120338
0.00271821
0.0301698
0.0159452
-0.0223541
-0.133716
-0.288912
-0.364475
-0.287947
-0.193336
-0.137096
-0.0866692
-0.0475293
-0.0291162
-0.0493789
-0.0979437
-0.146558
-0.188432
-0.15383
-0.0968197
-0.0983431
-0.0898632
-0.122865
-0.138099
-0.0743883
-0.00770228
0.0218778
0.0256856
0.0163375
0.00713368
0.0335264
0.0279646
0.00714622
-0.0811371
-0.230889
-0.304834
-0.244076
-0.167225
-0.11717
-0.0730907
-0.0375065
-0.0194936
-0.0363043
-0.0846471
-0.134266
-0.174299
-0.140236
-0.0865103
-0.0879661
-0.0810744
-0.120734
-0.141488
-0.0764671
-0.00708644
0.0279955
0.031439
0.0189772
0.0100302
0.0348102
0.0355785
0.0208913
-0.0499738
-0.174713
-0.223583
-0.193314
-0.145096
-0.100735
-0.0612321
-0.0297562
-0.0118596
-0.0282912
-0.0755216
-0.120647
-0.154939
-0.123273
-0.0745865
-0.078369
-0.0735897
-0.117592
-0.143018
-0.0778819
-0.00644003
0.032122
0.0328082
0.0189504
0.012359
0.0317718
0.0362675
0.0272851
-0.0188564
-0.112621
-0.148593
-0.142456
-0.118547
-0.0840535
-0.0507338
-0.0257343
-0.0090158
-0.0260608
-0.0672819
-0.104362
-0.130849
-0.103314
-0.0611643
-0.0684292
-0.0660466
-0.112611
-0.14205
-0.0781701
-0.0057995
0.0379551
0.0364519
0.0244729
0.0196294
0.0322628
0.0418891
0.0402798
0.0101904
-0.0637911
-0.090881
-0.0969749
-0.0995767
-0.0678597
-0.0378557
-0.0225137
-0.0074692
-0.0244404
-0.0566635
-0.0863948
-0.105066
-0.0810683
-0.0462566
-0.0586373
-0.0574752
-0.105226
-0.137635
-0.0767598
-0.00518344
0.0365634
0.0335447
0.0265335
0.0265529
0.037183
0.0499075
0.0521877
0.0243095
-0.034612
-0.0528202
-0.0611761
-0.0741082
-0.0473045
-0.0233984
-0.0208411
-0.00660622
-0.018978
-0.0450534
-0.0680675
-0.0785109
-0.0564397
-0.029954
-0.0474289
-0.0468392
-0.0948544
-0.128707
-0.073201
-0.00464131
0.0374857
0.0379828
0.0326398
0.0317203
0.0423656
0.0507065
0.0531579
0.0280556
-0.0168742
-0.027528
-0.0336704
-0.0538762
-0.030631
-0.00610791
-0.012541
-0.00275017
-0.00961666
-0.0309532
-0.0497101
-0.0531372
-0.0309647
-0.0116077
-0.0334239
-0.0318567
-0.0787824
-0.114759
-0.0669543
-0.00431783
0.0363353
0.0374502
0.0323846
0.0343177
0.0434976
0.0466943
0.0498673
0.030652
-0.00356417
-0.0126765
-0.01587
-0.0331149
-0.0134855
0.0121231
0.00529205
0.0102267
0.00657158
-0.0137401
-0.0306551
-0.0311903
-0.00927073
0.00688194
-0.0153368
-0.0102775
-0.0553252
-0.0958522
-0.0578204
-0.00404971
0.0342246
0.0367867
0.03368
0.0356205
0.0423406
0.0430375
0.0448302
0.0319872
0.00616396
-0.00216939
-0.00175032
-0.0139497
-0.00578227
0.0228361
0.0287898
0.0343039
0.029379
0.00588397
-0.0112285
-0.0129814
0.00936985
0.0227328
0.00375795
0.0166483
-0.0238011
-0.0716091
-0.045878
-0.00400768
0.0333232
0.0357571
0.0338923
0.0349192
0.0396772
0.0398523
0.0403561
0.0320367
0.0132841
0.00660675
0.00766534
-0.000551601
0.0090478
0.0337574
0.0426018
0.0468415
0.0474351
0.0232771
0.00600069
0.00333914
0.0251427
0.0385585
0.0216438
0.0389485
0.00981352
-0.0445561
-0.0319547
-0.00314159
0.0318119
0.0338489
0.0332174
0.033843
0.0369521
0.0374009
0.0364329
0.0309004
0.0192463
0.012983
0.0143394
0.011272
0.0138148
0.0360887
0.0498166
0.0513977
0.0540563
0.0340051
0.0218163
0.0152664
0.0336962
0.048048
0.037759
0.0549307
0.0406776
-0.0174641
-0.0176678
-0.0022147
0.0304313
0.0322064
0.032133
0.0325246
0.0343718
0.0349428
0.0336293
0.0297435
0.0226693
0.0180874
0.0192167
0.0187337
0.02111
0.0381013
0.049284
0.0521773
0.0545661
0.038965
0.0248593
0.0252003
0.0401411
0.0534222
0.0421799
0.0591335
0.0612914
0.0033427
-0.00373014
0.00239427
0.0290543
0.0305129
0.0306966
0.0311048
0.0323035
0.0327978
0.0316618
0.028785
0.0252872
0.022251
0.0224365
0.0238739
0.0249033
0.0373751
0.0479199
0.0508839
0.0519396
0.0416701
0.0413875
0.0311287
0.0422891
0.057684
0.0484967
0.0604562
0.0671516
0.0192575
0.00873453
0.00440077
0.0275952
0.0288921
0.0292884
0.0296562
0.0305887
0.0308962
0.0305619
0.028407
0.0263288
0.0250775
0.0247648
0.0268356
0.0286593
0.0369768
0.0458519
0.0492529
0.0488632
0.0417388
0.0392059
0.0366273
0.0437786
0.0493286
0.0483251
0.0554876
0.06333
0.0292461
0.0166931
0.00488762
0.0262835
0.027375
0.0279258
0.0282474
0.0291426
0.0294708
0.0293171
0.0280816
0.027057
0.0268907
0.0265555
0.0286476
0.0306203
0.0362907
0.0432772
0.0468105
0.0459375
0.0409783
0.0428233
0.0392686
0.043044
0.0490856
0.0478407
0.0529003
0.0574495
0.0319624
0.0205077
0.0070167
0.0250213
0.025999
0.0266542
0.0270273
0.0278822
0.0283108
0.0283978
0.0279137
0.0273141
0.0277913
0.0278618
0.0294564
0.0319793
0.0356766
0.0406129
0.0441067
0.0434659
0.0399499
0.0410599
0.0402893
0.0424272
0.0471869
0.0468447
0.0488605
0.050045
0.0318455
0.0218509
0.00752437
0.0238803
0.0248286
0.0255161
0.0260077
0.0267997
0.0274187
0.027662
0.0275678
0.0274558
0.0281289
0.0286439
0.0299056
0.0318903
0.0349836
0.0382302
0.041215
0.041288
0.0386686
0.0405558
0.0403266
0.0408515
0.0444395
0.0442173
0.0445458
0.0436085
0.0294895
0.019741
0.00747221
0.0229003
0.0238178
0.0244854
0.0250627
0.0258847
0.0265947
0.0269947
0.0271433
0.0273933
0.0281281
0.0289384
0.0299569
0.0315925
0.0341249
0.0362175
0.0385285
0.0392029
0.037449
0.0387887
0.0391791
0.0391248
0.04143
0.0412711
0.0403092
0.0376532
0.0265786
0.0179735
0.0070119
0.022071
0.0229566
0.0236318
0.0242358
0.0250915
0.0258387
0.0263861
0.0266455
0.0271207
0.0279288
0.0287169
0.0297817
0.0309355
0.0330275
0.034589
0.0360602
0.0371732
0.0360487
0.0369336
0.0376268
0.0371085
0.0383403
0.037859
0.0359922
0.0327111
0.0237773
0.0156514
0.00617343
0.0214115
0.0222593
0.0229193
0.0235294
0.0244008
0.0251677
0.0257685
0.0261395
0.0266998
0.0275703
0.028323
0.0292952
0.0301829
0.0318122
0.0330895
0.0339791
0.0350965
0.0345598
0.0349772
0.0356003
0.0349419
0.0352137
0.0344165
0.0321743
0.0285104
0.0209907
0.0136215
0.00536825
0.0209238
0.0216945
0.0223261
0.0229338
0.0237739
0.0245454
0.0251664
0.0256157
0.0261804
0.027074
0.0277534
0.0286
0.0293419
0.0305369
0.0316537
0.032167
0.0330623
0.0329613
0.0329525
0.033368
0.0326867
0.0322315
0.0311528
0.0286302
0.0248645
0.0186248
0.0119382
0.0045958
0.0205375
0.0212493
0.0218333
0.0224344
0.0232052
0.0239716
0.0245588
0.0250534
0.0256223
0.0264477
0.0270982
0.0277694
0.0284279
0.0292994
0.0301942
0.0305468
0.031113
0.0312272
0.0310057
0.0310632
0.0304081
0.0294583
0.0280436
0.025505
0.0218827
0.016526
0.0104775
0.00391431
0.0202694
0.0209094
0.0214463
0.0220263
0.0227211
0.0234438
0.0240051
0.0244849
0.0250401
0.025757
0.0263749
0.0268908
0.0274588
0.0281068
0.0287698
0.0290339
0.0293096
0.0294535
0.0291194
0.0288366
0.0281554
0.026906
0.0252844
0.0228331
0.0193436
0.0146776
0.00930992
0.00338233
0.0201278
0.0207337
0.0211794
0.0216966
0.0223114
0.0229599
0.0234853
0.0239179
0.0244487
0.0250458
0.0256127
0.0260082
0.0264681
0.0269678
0.0274065
0.0275975
0.0276613
0.0277033
0.0273148
0.0267686
0.0260009
0.0246478
0.0228711
0.0204852
0.0172252
0.0131033
0.00831776
0.00295472
0.0200339
0.0205463
0.0209632
0.0214249
0.0219713
0.0225165
0.0230069
0.0233832
0.0238706
0.0243594
0.0248415
0.0251644
0.0255002
0.0258856
0.02614
0.0262447
0.0261624
0.0260609
0.0256226
0.0249022
0.0240305
0.022638
0.0207842
0.018489
0.015468
0.011739
0.00745431
0.00261806
0.0199915
0.0204196
0.0208
0.02119
0.0216727
0.0221259
0.0225699
0.022897
0.0233169
0.023719
0.0241049
0.0243757
0.0245958
0.0248803
0.0249944
0.0250082
0.0248227
0.0245816
0.0240894
0.0232618
0.0222953
0.020893
0.0190421
0.016817
0.0140013
0.0106078
0.00673325
0.00234907
0.0199874
0.020338
0.020682
0.0210085
0.0214234
0.0217988
0.0221845
0.0224749
0.0228168
0.0231542
0.0234425
0.0236715
0.0237977
0.0239848
0.0240022
0.0239214
0.02367
0.0233083
0.0227629
0.0218745
0.0208351
0.0194369
0.0176118
0.0154581
0.0128228
0.00969483
0.00613711
0.00213001
0.0200022
0.0202952
0.0206
0.0208823
0.0212279
0.0215462
0.0218675
0.0221345
0.0224055
0.0226865
0.0228973
0.0230809
0.0231467
0.0232391
0.0231938
0.0230335
0.0227388
0.0222829
0.0216901
0.0207748
0.0196762
0.0182909
0.016501
0.0144168
0.0119201
0.00898609
0.00567708
0.00196566
0.0200075
0.0202621
0.0205352
0.0207919
0.0210793
0.0213601
0.0216298
0.0218834
0.0220987
0.0223349
0.0224932
0.0226374
0.0226734
0.0226841
0.0226061
0.0223844
0.0220592
0.0215421
0.0209066
0.0199899
0.0188434
0.0174788
0.0157216
0.0136828
0.0112934
0.00849212
0.00535547
0.00185198
0.0200226
0.0202579
0.0205097
0.0207534
0.0210056
0.0212665
0.0215056
0.0217491
0.021935
0.0221422
0.0222767
0.022395
0.0224181
0.0223805
0.0222872
0.022032
0.0216897
0.0211441
0.0204818
0.0195713
0.0183965
0.0170451
0.0153078
0.0132923
0.0109665
0.0082324
0.0051852
0.00179343
)
;

boundaryField
{
    outlet
    {
        type            fixedValue;
        value           uniform 0;
    }
    upperWall
    {
        type            symmetryPlane;
    }
    lowerWall
    {
        type            symmetryPlane;
    }
    inlet
    {
        type            zeroGradient;
    }
    cylinder
    {
        type            zeroGradient;
    }
    frontAndBack
    {
        type            empty;
    }
    procBoundary7to3
    {
        type            processor;
        value           nonuniform List<scalar> 
30
(
-0.33613
-0.413951
-0.542316
-0.652618
-0.633887
-0.508613
-0.372066
-0.285098
-0.272101
-0.277405
-0.312672
-0.302475
-0.269573
-0.241522
-0.230812
-0.220432
-0.23487
-0.253429
-0.23485
-0.17925
-0.169336
-0.190345
-0.181721
-0.145189
-0.135929
-0.138792
-0.0956023
-0.0468785
-0.0224926
-0.00591774
)
;
    }
    procBoundary7to6
    {
        type            processor;
        value           nonuniform List<scalar> 
42
(
-0.31473
-0.3032
-0.286885
-0.262337
-0.230862
-0.199757
-0.110655
-0.110655
-0.0903598
-0.0751588
-0.0558459
-0.00961232
-0.00961232
0.00282704
0.0118303
0.0206485
0.0232335
0.028829
0.0276963
0.0310523
0.030245
0.0310747
0.0301202
0.029017
0.0277085
0.0263089
0.0249114
0.0236448
0.0225148
0.0215901
0.0208496
0.020271
0.0199061
0.0196255
0.0194876
0.0194543
0.0194736
0.0195247
0.0195982
0.0196796
0.0197342
0.0197806
)
;
    }
}


// ************************************************************************* //
