/*--------------------------------*- C++ -*----------------------------------*\
| =========                 |                                                 |
| \\      /  F ield         | OpenFOAM: The Open Source CFD Toolbox           |
|  \\    /   O peration     | Version:                                        |
|   \\  /    A nd           | Website:  www.openfoam.com                      |
|    \\/     M anipulation  |                                                 |
\*---------------------------------------------------------------------------*/
FoamFile
{
    version     2.0;
    format      ascii;
    class       volVectorField;
    location    "165.7";
    object      U;
}
// * * * * * * * * * * * * * * * * * * * * * * * * * * * * * * * * * * * * * //

dimensions      [0 1 -1 0 0 0 0];


internalField   nonuniform List<vector> 
1164
(
(0.613227 -0.89834 -2.75629e-22)
(0.673645 -0.958216 -1.25693e-20)
(0.750504 -0.986131 1.90501e-20)
(0.835848 -1.00157 3.45571e-21)
(0.937113 -0.975314 1.42126e-20)
(1.03139 -0.945435 1.19022e-19)
(0.506411 -0.639728 -1.88194e-21)
(0.641009 -0.698797 2.12872e-20)
(0.800828 -0.741241 -1.62714e-20)
(0.934715 -0.789589 -4.32422e-20)
(1.05474 -0.815664 -3.53605e-20)
(1.1564 -0.829314 -2.11518e-20)
(1.23327 -0.823783 2.20883e-20)
(1.27335 -0.783408 -1.95963e-20)
(1.31277 -0.737782 4.63231e-20)
(1.21742 -0.631769 -2.77505e-20)
(0.461809 -0.287142 3.23267e-21)
(0.593221 -0.292176 -9.74678e-21)
(0.753627 -0.31928 7.97827e-21)
(0.927049 -0.35626 9.41257e-21)
(1.08733 -0.404463 -9.0151e-21)
(1.2218 -0.450398 -1.44456e-19)
(1.33915 -0.508708 -8.88865e-20)
(1.37598 -0.521541 -3.66467e-20)
(1.42655 -0.564053 -3.07218e-20)
(1.36162 -0.590473 4.10815e-20)
(0.561131 0.264331 2.19337e-22)
(0.709713 0.260297 6.02973e-21)
(0.86108 0.227783 -6.27589e-21)
(1.01893 0.190636 2.28855e-20)
(1.16109 0.108151 6.71074e-20)
(1.29022 0.055383 1.54832e-19)
(1.40466 -0.0484596 3.88332e-20)
(1.45709 -0.0965917 2.24009e-20)
(1.57093 -0.165906 -6.03744e-20)
(1.49167 -0.251269 -2.92703e-20)
(0.47658 0.568178 -3.29445e-21)
(0.603604 0.6093 -1.00019e-21)
(0.762359 0.623288 -2.00554e-20)
(0.948365 0.607507 -9.56185e-21)
(1.1389 0.553365 -2.41076e-20)
(1.30241 0.47663 -7.82527e-20)
(1.43494 0.358365 3.32699e-20)
(1.5276 0.263535 -2.25417e-22)
(1.61907 0.158676 1.99298e-20)
(1.54302 0.00194287 -3.03705e-20)
(0.659566 0.787665 1.70844e-21)
(0.743056 0.797514 -8.9535e-21)
(0.830898 0.820278 2.99547e-21)
(0.927584 0.787519 3.16418e-22)
(1.01206 0.760512 -1.46162e-20)
(1.10569 0.684942 4.75734e-21)
(1.20818 0.604586 2.32804e-20)
(1.30165 0.49222 3.34651e-20)
(1.36536 0.370526 1.11628e-20)
(1.34954 0.222844 -1.53111e-21)
(0.613103 0.805313 -3.77403e-22)
(0.662251 0.798938 9.73063e-21)
(0.721876 0.789068 2.26702e-20)
(0.82046 0.767389 -1.4238e-20)
(0.930335 0.736779 1.10975e-20)
(1.04819 0.692932 2.28578e-21)
(1.129 0.643132 -1.74872e-20)
(1.17539 0.580214 1.23304e-21)
(1.21475 0.512978 2.69154e-20)
(1.24177 0.439332 2.43127e-20)
(0.550471 0.671286 1.60328e-21)
(0.601128 0.662397 -1.79809e-22)
(0.647412 0.61869 -1.83825e-21)
(0.694541 0.591953 5.91417e-21)
(0.744247 0.55029 7.80716e-21)
(0.80047 0.511331 8.84114e-21)
(0.85913 0.4539 -4.47763e-21)
(0.945865 0.410625 9.66556e-21)
(1.01596 0.361111 -5.71885e-21)
(1.08597 0.32661 -1.60823e-21)
(0.464125 0.80759 -1.11639e-21)
(0.501349 0.801632 -5.51739e-21)
(0.556247 0.76418 -2.50077e-22)
(0.624744 0.726207 1.48699e-21)
(0.707902 0.685889 6.74846e-21)
(0.778841 0.624694 3.03678e-21)
(0.830956 0.554141 8.5013e-21)
(0.877203 0.47595 -7.50866e-21)
(0.917467 0.395311 2.69808e-21)
(0.994108 0.327422 6.30934e-21)
(0.4776 0.32855 -5.0148e-22)
(0.440919 0.313339 1.76442e-21)
(0.444787 0.328638 -5.06649e-21)
(0.452649 0.323464 6.3802e-21)
(0.486127 0.356168 -1.01875e-20)
(0.507961 0.375857 -4.43597e-21)
(0.50883 0.392013 4.52815e-21)
(0.576911 0.405465 -4.2168e-22)
(0.660327 0.387238 5.55246e-21)
(0.800194 0.350699 1.86757e-22)
(0.417483 -0.000127213 5.56108e-22)
(0.422151 0.0397458 9.3562e-23)
(0.472894 0.0805509 -5.12221e-21)
(0.528132 0.0983338 2.84053e-21)
(0.615908 0.137384 7.93962e-21)
(0.672483 0.15075 -2.36875e-21)
(0.70437 0.187583 -3.25644e-21)
(0.710702 0.232146 -3.94894e-21)
(0.657254 0.272831 -1.79527e-21)
(0.666866 0.300158 4.87142e-21)
(0.633692 -0.303007 -8.48246e-22)
(0.606444 -0.245057 4.65894e-21)
(0.571107 -0.223204 1.26391e-21)
(0.569351 -0.155627 -1.51045e-20)
(0.580314 -0.112418 2.29401e-22)
(0.5881 -0.0554613 -3.30179e-21)
(0.651423 -0.00428838 1.4288e-21)
(0.715155 0.0596538 -8.4189e-22)
(0.781574 0.113336 1.47434e-23)
(0.830105 0.232085 -2.0666e-21)
(0.64469 -0.685413 1.01157e-21)
(0.626595 -0.673694 -2.42696e-21)
(0.620047 -0.699419 1.28377e-21)
(0.649261 -0.663414 1.00271e-20)
(0.6552 -0.691055 4.80397e-21)
(0.68282 -0.618692 4.9935e-21)
(0.704008 -0.613727 1.12361e-21)
(0.721132 -0.513821 -5.62487e-22)
(0.768898 -0.481209 1.96792e-21)
(0.798445 -0.369139 6.64526e-21)
(0.581033 -0.558585 -1.04968e-21)
(0.562301 -0.57044 4.16869e-21)
(0.604689 -0.588855 7.18097e-21)
(0.61923 -0.620511 -2.25736e-21)
(0.678781 -0.641786 -1.05288e-20)
(0.717981 -0.673259 6.11287e-21)
(0.769963 -0.697231 5.82179e-21)
(0.815912 -0.711107 -8.82453e-21)
(0.841129 -0.723357 -2.22094e-21)
(0.872899 -0.704755 1.06789e-20)
(0.571685 -0.746393 7.93704e-22)
(0.525865 -0.72425 -3.82728e-21)
(0.526276 -0.707011 -1.2666e-21)
(0.507115 -0.695554 1.17421e-21)
(0.548132 -0.666385 1.14696e-20)
(0.558409 -0.686456 -5.51326e-21)
(0.642369 -0.643032 5.48328e-21)
(0.681946 -0.693238 9.44865e-21)
(0.771858 -0.639061 -1.58667e-20)
(0.821631 -0.70235 1.33575e-20)
(0.688868 -0.42768 2.53172e-23)
(0.704787 -0.386349 -6.60503e-23)
(0.730291 -0.371655 -1.25511e-20)
(0.749658 -0.339872 3.13836e-21)
(0.784746 -0.31646 8.28788e-21)
(0.81338 -0.305545 2.55457e-21)
(0.870458 -0.265912 -1.49868e-20)
(0.903301 -0.290945 1.57343e-20)
(0.979672 -0.22737 1.33539e-20)
(0.99331 -0.29092 -1.65083e-20)
(0.746796 0.106597 2.78162e-22)
(0.768382 0.136384 -9.86766e-23)
(0.802591 0.146187 1.17419e-20)
(0.851951 0.164089 -1.11269e-20)
(0.90754 0.178597 -5.06817e-21)
(0.978406 0.184592 1.08426e-20)
(1.04583 0.205467 1.41126e-21)
(1.11323 0.18966 -1.05607e-20)
(1.17936 0.216663 3.58668e-21)
(1.23335 0.167677 -7.34943e-21)
(0.775774 0.250005 -4.67053e-22)
(0.809154 0.270708 -1.30337e-21)
(0.838712 0.296776 -2.30436e-21)
(0.878648 0.311934 2.8888e-21)
(0.912983 0.333346 -7.44519e-21)
(0.967371 0.339795 -1.55668e-20)
(1.00903 0.348231 -1.16809e-20)
(1.06386 0.33624 -5.47936e-21)
(1.1007 0.33519 -3.46245e-21)
(1.1563 0.299902 -7.12594e-21)
(0.884023 0.771472 -4.8967e-22)
(0.93638 0.755398 3.7162e-21)
(0.974053 0.764909 -8.61681e-22)
(1.024 0.741856 3.65569e-21)
(1.06299 0.742637 -6.65395e-22)
(1.10927 0.713828 3.22383e-22)
(1.13556 0.706181 1.38676e-20)
(1.15836 0.671943 -6.49805e-22)
(1.16228 0.654515 -6.6994e-21)
(1.17563 0.613804 2.60105e-21)
(0.801554 0.688401 3.36852e-22)
(0.822375 0.680947 -1.3245e-21)
(0.836511 0.685357 -3.20364e-21)
(0.862211 0.677547 -3.08629e-21)
(0.881491 0.670948 -6.64033e-22)
(0.912299 0.661039 1.00575e-20)
(0.935041 0.643438 -9.18636e-21)
(0.975302 0.638863 4.26156e-21)
(1.00659 0.611585 9.86817e-21)
(1.05018 0.600409 4.49515e-21)
(0.839452 0.268695 1.81227e-22)
(0.853325 0.285732 -3.15847e-22)
(0.86002 0.287025 3.12643e-21)
(0.877688 0.308004 4.76922e-21)
(0.883235 0.302119 -3.23061e-21)
(0.899779 0.322167 1.7844e-21)
(0.905967 0.312948 5.27449e-21)
(0.92186 0.328533 7.55275e-21)
(0.936088 0.319324 -4.61133e-21)
(0.955611 0.323408 -1.3565e-21)
(0.88236 0.0543512 8.727e-23)
(0.873387 0.0783892 -1.18459e-22)
(0.863427 0.0910374 -1.57476e-21)
(0.855544 0.109475 -7.33176e-21)
(0.847109 0.112835 5.47206e-21)
(0.845501 0.127695 -3.87021e-21)
(0.83532 0.121291 -3.05356e-21)
(0.840869 0.134632 -6.30855e-21)
(0.841426 0.121071 -1.69497e-21)
(0.840957 0.140276 2.09083e-21)
(1.02991 -0.669611 4.44696e-22)
(0.99571 -0.666014 -9.15416e-22)
(0.964832 -0.65684 -6.54798e-22)
(0.925753 -0.64589 8.00746e-21)
(0.889126 -0.640928 -4.54865e-21)
(0.851821 -0.621473 1.62047e-21)
(0.816616 -0.623944 3.91282e-21)
(0.78697 -0.599759 -1.38798e-21)
(0.757392 -0.606888 -1.3831e-22)
(0.733202 -0.585135 -7.04471e-21)
(0.967289 -0.706444 -5.58908e-24)
(0.940454 -0.709075 1.02743e-22)
(0.920403 -0.702262 -1.62872e-21)
(0.890621 -0.698193 -4.96511e-22)
(0.867606 -0.685784 -1.22436e-21)
(0.836488 -0.674936 -3.94349e-21)
(0.814732 -0.657519 2.41498e-21)
(0.784895 -0.646795 1.95521e-23)
(0.77337 -0.619959 4.43866e-21)
(0.747292 -0.614251 6.38003e-21)
(0.96704 -0.26434 3.14292e-23)
(0.961564 -0.264666 -1.3581e-21)
(0.961925 -0.262874 1.49254e-21)
(0.956566 -0.260969 -1.51827e-21)
(0.955305 -0.25323 2.24413e-21)
(0.949396 -0.246984 3.90872e-21)
(0.95019 -0.233292 -4.44614e-21)
(0.951189 -0.224722 -1.79256e-22)
(0.967738 -0.202313 -1.4882e-21)
(0.982318 -0.19923 -4.23314e-21)
(0.976321 -0.0441493 2.04538e-23)
(0.98788 -0.0241118 6.61114e-22)
(1.00532 -0.00676843 4.21786e-22)
(1.02304 0.0133195 3.07526e-22)
(1.04142 0.0322415 4.46594e-22)
(1.05693 0.0504951 -2.22587e-21)
(1.07165 0.069517 -3.15453e-22)
(1.08509 0.082583 -1.08895e-21)
(1.09831 0.0998682 -3.21383e-22)
(1.11251 0.106568 -3.44404e-22)
(1.131 0.701828 2.42102e-22)
(1.1485 0.708372 -6.53672e-22)
(1.15703 0.716146 -7.2107e-23)
(1.16321 0.722473 -1.81638e-21)
(1.16275 0.728502 2.462e-21)
(1.16111 0.73034 8.42498e-22)
(1.15643 0.732729 2.65662e-21)
(1.15143 0.727442 6.35944e-22)
(1.14467 0.726207 -1.40656e-22)
(1.13749 0.718155 2.1135e-21)
(1.05073 0.687197 -4.63775e-22)
(1.07882 0.679775 4.27688e-23)
(1.0975 0.669151 1.639e-21)
(1.11196 0.656611 -4.64441e-23)
(1.1153 0.640112 1.56473e-21)
(1.11429 0.625041 -4.19795e-21)
(1.10088 0.603422 -1.60734e-22)
(1.08531 0.585706 1.32026e-21)
(1.05939 0.560383 -5.29161e-22)
(1.0332 0.537682 -9.19353e-22)
(1.06637 -0.274886 -8.08197e-23)
(1.06392 -0.276545 -1.71835e-22)
(1.05739 -0.284707 -3.26642e-22)
(1.05022 -0.289361 1.57326e-21)
(1.0376 -0.301534 -1.3442e-21)
(1.02274 -0.309324 1.4046e-21)
(0.999388 -0.323542 -2.07332e-21)
(0.97454 -0.332803 1.18545e-21)
(0.939926 -0.34686 -7.45073e-22)
(0.90014 -0.358769 1.11595e-21)
(1.00325 -0.331526 3.15633e-23)
(0.997109 -0.332334 -8.14231e-23)
(0.988216 -0.33623 2.08639e-23)
(0.976724 -0.336246 1.92653e-22)
(0.96206 -0.339192 -3.27819e-22)
(0.944141 -0.338774 2.77611e-22)
(0.923061 -0.340158 -2.90747e-22)
(0.899808 -0.339009 4.90344e-22)
(0.873215 -0.33843 6.58854e-23)
(0.845291 -0.33608 -3.40368e-22)
(1.13479 -0.333258 0)
(1.08491 -0.22258 0)
(0.981621 -0.166649 0)
(0.953309 -0.136669 0)
(0.968423 -0.111825 0)
(0.988027 -0.0951663 0)
(1.00921 -0.0743876 0)
(1.01784 -0.0614883 0)
(1.02336 -0.0436156 0)
(1.02747 -0.0316961 0)
(1.0264 -0.0202126 0)
(1.02621 -0.0115913 0)
(1.02701 -0.00722266 0)
(1.02708 -0.00432703 0)
(1.02674 -0.00327555 0)
(1.02573 -0.00198406 0)
(1.02478 -0.00124113 0)
(1.02364 -0.000657811 0)
(1.0226 -0.000508719 0)
(1.02153 -0.000576357 0)
(1.02057 -0.000698434 0)
(1.01977 -0.000858736 0)
(1.01904 -0.000923844 0)
(1.01845 -0.000873056 0)
(1.01794 -0.000849994 0)
(1.01749 -0.000664923 0)
(1.0171 -0.000414517 0)
(1.0169 -0.000200605 0)
(1.37855 -0.484933 0)
(1.37342 -0.435206 0)
(1.36234 -0.375111 0)
(1.24684 -0.287425 0)
(1.11922 -0.258617 0)
(1.04955 -0.184392 0)
(1.05057 -0.154085 0)
(1.04644 -0.0917371 0)
(1.04785 -0.0713961 0)
(1.04438 -0.0415189 0)
(1.04626 -0.0334669 0)
(1.036 -0.024275 0)
(1.03216 -0.0219653 0)
(1.0233 -0.0198964 0)
(1.0167 -0.0163984 0)
(1.01372 -0.0133357 0)
(1.01306 -0.00958791 0)
(1.01391 -0.00697339 0)
(1.0149 -0.00487606 0)
(1.01592 -0.00353743 0)
(1.01657 -0.00254773 0)
(1.017 -0.00185453 0)
(1.01723 -0.00145457 0)
(1.01723 -0.00120727 0)
(1.01711 -0.00112558 0)
(1.01689 -0.0010085 0)
(1.0166 -0.000935871 0)
(1.01631 -0.000736726 0)
(1.016 -0.00045876 0)
(1.01585 -0.000214463 0)
(1.47491 -0.213646 0)
(1.43676 -0.221509 0)
(1.36337 -0.190674 0)
(1.24304 -0.195091 0)
(1.15086 -0.183548 0)
(1.1096 -0.158495 0)
(1.10639 -0.119937 0)
(1.10324 -0.100847 0)
(1.07459 -0.0767481 0)
(1.06192 -0.0602402 0)
(1.04123 -0.0451851 0)
(1.03927 -0.0327354 0)
(1.0307 -0.0238761 0)
(1.03138 -0.0161555 0)
(1.03285 -0.0125641 0)
(1.0331 -0.00899463 0)
(1.03239 -0.00685274 0)
(1.03037 -0.00461979 0)
(1.02816 -0.00310923 0)
(1.02582 -0.00216225 0)
(1.02389 -0.00175039 0)
(1.02226 -0.00166069 0)
(1.02096 -0.00155697 0)
(1.02001 -0.00151093 0)
(1.01924 -0.00141736 0)
(1.01866 -0.00123115 0)
(1.01818 -0.00111015 0)
(1.01776 -0.000846943 0)
(1.01739 -0.000523489 0)
(1.01721 -0.000237211 0)
(1.56346 -0.0322305 0)
(1.50843 -0.0464336 0)
(1.40912 -0.0569199 0)
(1.28784 -0.0820419 0)
(1.19868 -0.0507013 0)
(1.18076 -0.0485181 0)
(1.13445 0.00217773 0)
(1.12127 -0.0133893 0)
(1.10335 0.0132895 0)
(1.09231 0.00334965 0)
(1.08007 0.00932517 0)
(1.06114 0.00210274 0)
(1.05001 0.000826778 0)
(1.03496 -0.00180088 0)
(1.02384 -0.00135817 0)
(1.01822 -0.00158842 0)
(1.01564 -0.00118854 0)
(1.01538 -0.0012595 0)
(1.01548 -0.00127688 0)
(1.01602 -0.0012451 0)
(1.01648 -0.00120718 0)
(1.01681 -0.00109307 0)
(1.01703 -0.00113301 0)
(1.01704 -0.00116311 0)
(1.01695 -0.00121874 0)
(1.01681 -0.00117153 0)
(1.0166 -0.00109141 0)
(1.01639 -0.000863641 0)
(1.01615 -0.000544323 0)
(1.01604 -0.000241199 0)
(1.38766 0.104918 0)
(1.33722 0.0917216 0)
(1.3063 0.00633283 0)
(1.26726 -0.00235419 0)
(1.23828 -0.0212442 0)
(1.2196 -0.0159263 0)
(1.17695 -0.0319075 0)
(1.12875 -0.0195171 0)
(1.09708 -0.0264544 0)
(1.05737 -0.0180826 0)
(1.03719 -0.0189366 0)
(1.03009 -0.0153786 0)
(1.02376 -0.0144444 0)
(1.02683 -0.0134872 0)
(1.03098 -0.0128199 0)
(1.03224 -0.0105266 0)
(1.03256 -0.00827825 0)
(1.03057 -0.00596798 0)
(1.02818 -0.00423386 0)
(1.02565 -0.00335545 0)
(1.02352 -0.00281345 0)
(1.02192 -0.00260623 0)
(1.02068 -0.00231301 0)
(1.01984 -0.00207221 0)
(1.01921 -0.00186162 0)
(1.01873 -0.00156473 0)
(1.01835 -0.00135617 0)
(1.01802 -0.00103225 0)
(1.01771 -0.000636573 0)
(1.01756 -0.000271764 0)
(1.27361 0.341873 0)
(1.23054 0.337295 0)
(1.21936 0.240442 0)
(1.18584 0.236851 0)
(1.16881 0.17725 0)
(1.12781 0.16636 0)
(1.14484 0.110097 0)
(1.11282 0.115738 0)
(1.12025 0.0699122 0)
(1.10034 0.0622236 0)
(1.08801 0.0454371 0)
(1.06941 0.0345141 0)
(1.05584 0.0279451 0)
(1.04137 0.0227864 0)
(1.0295 0.0186587 0)
(1.0239 0.0142992 0)
(1.02012 0.00989483 0)
(1.01868 0.0065621 0)
(1.01786 0.00374253 0)
(1.01755 0.00212789 0)
(1.01758 0.00086444 0)
(1.01755 0.000100163 0)
(1.01753 -0.000550502 0)
(1.01737 -0.000986739 0)
(1.01716 -0.00122646 0)
(1.01699 -0.00127247 0)
(1.0168 -0.00121141 0)
(1.01661 -0.000966734 0)
(1.0164 -0.000616301 0)
(1.0163 -0.00026151 0)
(1.132 0.277277 0)
(1.04836 0.243746 0)
(1.09516 0.199544 0)
(1.07252 0.171273 0)
(1.12759 0.133216 0)
(1.06241 0.105547 0)
(1.09268 0.071557 0)
(1.04079 0.0724564 0)
(1.02161 0.0409734 0)
(1.00725 0.0391708 0)
(1.00234 0.0203326 0)
(1.00028 0.0107485 0)
(1.00537 0.00267717 0)
(1.01188 -0.00577553 0)
(1.01952 -0.00758625 0)
(1.02333 -0.00839724 0)
(1.02575 -0.00649741 0)
(1.02579 -0.0053591 0)
(1.02469 -0.00404167 0)
(1.02335 -0.00359304 0)
(1.02202 -0.0031315 0)
(1.02109 -0.00285459 0)
(1.02036 -0.00251008 0)
(1.01981 -0.00217598 0)
(1.0194 -0.00196208 0)
(1.01903 -0.00167071 0)
(1.01871 -0.00144095 0)
(1.01841 -0.0011117 0)
(1.01812 -0.000691924 0)
(1.01798 -0.000284645 0)
(1.06588 0.251545 0)
(1.02553 0.22747 0)
(1.07117 0.193087 0)
(1.01638 0.182257 0)
(1.04962 0.152458 0)
(1.00084 0.13315 0)
(1.08698 0.0880385 0)
(1.06475 0.0735685 0)
(1.07329 0.0449288 0)
(1.06423 0.0467518 0)
(1.05617 0.0323084 0)
(1.05 0.038153 0)
(1.04256 0.0325561 0)
(1.0352 0.0344382 0)
(1.02952 0.0279735 0)
(1.02625 0.0232515 0)
(1.02346 0.0161681 0)
(1.02152 0.0114123 0)
(1.02016 0.00713302 0)
(1.01915 0.00450671 0)
(1.0186 0.00240429 0)
(1.01815 0.00095946 0)
(1.0178 -0.000104037 0)
(1.01752 -0.000820007 0)
(1.01726 -0.00117883 0)
(1.01711 -0.00127188 0)
(1.01699 -0.00123305 0)
(1.01686 -0.000992722 0)
(1.01671 -0.000638906 0)
(1.01664 -0.000265858 0)
(0.907911 0.280105 0)
(0.948222 0.23778 0)
(1.04094 0.200714 0)
(1.02025 0.164289 0)
(1.03994 0.16096 0)
(0.965245 0.156788 0)
(0.988621 0.166342 0)
(0.973576 0.145842 0)
(0.98071 0.123848 0)
(0.986138 0.0876247 0)
(0.988801 0.063792 0)
(0.989697 0.0340894 0)
(0.995393 0.0196221 0)
(1.00076 0.00397113 0)
(1.00514 0.000851682 0)
(1.00951 -0.00252155 0)
(1.01309 -0.00189017 0)
(1.01582 -0.00249561 0)
(1.01724 -0.00229863 0)
(1.0182 -0.00247554 0)
(1.01862 -0.00229221 0)
(1.01896 -0.00211958 0)
(1.01914 -0.00197617 0)
(1.01916 -0.00178949 0)
(1.01914 -0.0017282 0)
(1.01902 -0.00156917 0)
(1.01888 -0.00139058 0)
(1.01872 -0.00110493 0)
(1.01852 -0.000700582 0)
(1.01844 -0.000282291 0)
(0.695474 0.273216 0)
(0.717448 0.231823 0)
(0.802629 0.196099 0)
(0.863375 0.137962 0)
(0.983567 0.0985467 0)
(0.99652 0.0398933 0)
(1.03189 0.0151735 0)
(0.985431 -0.00568332 0)
(0.960585 -0.00485957 0)
(0.97115 0.00111985 0)
(0.97684 0.00280059 0)
(0.995377 0.0139449 0)
(1.00593 0.014397 0)
(1.01389 0.0197265 0)
(1.02121 0.0160406 0)
(1.02321 0.0147371 0)
(1.02362 0.010502 0)
(1.02225 0.00799671 0)
(1.02109 0.00516153 0)
(1.01971 0.00323502 0)
(1.01879 0.00155957 0)
(1.01808 0.000263467 0)
(1.01756 -0.000581797 0)
(1.01731 -0.00115698 0)
(1.01714 -0.00141688 0)
(1.0171 -0.00142021 0)
(1.01711 -0.00134405 0)
(1.01709 -0.00107951 0)
(1.01701 -0.000692899 0)
(1.01699 -0.000280626 0)
(0.797462 0.250518 0)
(0.79334 0.281971 0)
(0.822154 0.306682 0)
(0.843353 0.340016 0)
(0.810934 0.333834 0)
(0.772833 0.296487 0)
(0.865238 0.224316 0)
(0.9208 0.150643 0)
(0.972349 0.10659 0)
(0.982939 0.0718445 0)
(0.999919 0.0438464 0)
(1.0003 0.0279696 0)
(1.0048 0.0166749 0)
(1.00561 0.00943469 0)
(1.00234 0.00748298 0)
(1.00429 0.00484889 0)
(1.00595 0.00362036 0)
(1.00973 0.00181155 0)
(1.0126 0.000707684 0)
(1.01523 -2.86635e-05 0)
(1.017 -0.000467028 0)
(1.01816 -0.000693141 0)
(1.0189 -0.00104653 0)
(1.01921 -0.00125825 0)
(1.01933 -0.00144632 0)
(1.01934 -0.00148531 0)
(1.01926 -0.0013877 0)
(1.01917 -0.00113499 0)
(1.01902 -0.000734893 0)
(1.01896 -0.000290119 0)
(0.828735 -0.303405 0)
(0.87229 -0.276918 0)
(0.90419 -0.228406 0)
(0.938982 -0.192475 0)
(0.90623 -0.154465 0)
(0.810345 -0.131158 0)
(0.74553 -0.068518 0)
(0.781096 -0.0467079 0)
(0.836075 -0.0320838 0)
(0.885056 -0.0455003 0)
(0.911357 -0.0308242 0)
(0.950939 -0.0366571 0)
(0.97295 -0.0259772 0)
(0.994279 -0.0221633 0)
(1.01139 -0.0157541 0)
(1.01791 -0.0109124 0)
(1.02089 -0.00664555 0)
(1.02023 -0.00412789 0)
(1.01943 -0.002666 0)
(1.01836 -0.00228048 0)
(1.01754 -0.00207265 0)
(1.01708 -0.00216992 0)
(1.01681 -0.00211453 0)
(1.01685 -0.00207972 0)
(1.01699 -0.00203426 0)
(1.01714 -0.0018354 0)
(1.01731 -0.00163732 0)
(1.0174 -0.00129722 0)
(1.01738 -0.000824606 0)
(1.0174 -0.000321622 0)
(0.919685 -0.678606 0)
(0.941833 -0.652021 0)
(0.980257 -0.647765 0)
(0.997334 -0.640998 0)
(1.01364 -0.610682 0)
(0.988837 -0.541095 0)
(0.96648 -0.404481 0)
(0.979847 -0.268776 0)
(0.981796 -0.182092 0)
(1.00089 -0.108371 0)
(1.02824 -0.0685887 0)
(1.02823 -0.0282919 0)
(1.03866 -0.0118951 0)
(1.02889 0.00436496 0)
(1.02089 0.00770024 0)
(1.01588 0.00952082 0)
(1.01357 0.00734392 0)
(1.01406 0.00585986 0)
(1.01553 0.00385801 0)
(1.01702 0.00264713 0)
(1.01823 0.00126884 0)
(1.01883 0.000282378 0)
(1.01924 -0.00067875 0)
(1.01942 -0.00134392 0)
(1.01949 -0.00170118 0)
(1.01959 -0.00181667 0)
(1.01965 -0.00171418 0)
(1.01968 -0.00139221 0)
(1.01964 -0.000904299 0)
(1.01964 -0.000347125 0)
(0.859408 -0.656688 0)
(0.941578 -0.604265 0)
(1.04191 -0.590554 0)
(1.13448 -0.524489 0)
(1.23157 -0.481482 0)
(1.26533 -0.390765 0)
(1.27668 -0.319337 0)
(1.20949 -0.229077 0)
(1.14288 -0.191728 0)
(1.06025 -0.129931 0)
(1.02901 -0.110106 0)
(1.0223 -0.0779636 0)
(1.0118 -0.0614755 0)
(1.01626 -0.0494322 0)
(1.01669 -0.0380376 0)
(1.01627 -0.029123 0)
(1.01507 -0.0208542 0)
(1.01383 -0.015236 0)
(1.01317 -0.0107906 0)
(1.01333 -0.00818652 0)
(1.01364 -0.00616131 0)
(1.01434 -0.0049289 0)
(1.01505 -0.00409347 0)
(1.01575 -0.00348484 0)
(1.01645 -0.00316177 0)
(1.01698 -0.00276769 0)
(1.0174 -0.00236547 0)
(1.0177 -0.00184573 0)
(1.01782 -0.00116373 0)
(1.01791 -0.000437046 0)
(1.09204 -0.210732 0)
(1.19025 -0.172242 0)
(1.27727 -0.115896 0)
(1.35618 -0.0758357 0)
(1.39037 -0.0411512 0)
(1.41034 -0.0293708 0)
(1.35339 -0.0214518 0)
(1.29738 -0.0346078 0)
(1.22253 -0.0292671 0)
(1.18002 -0.0376111 0)
(1.13129 -0.00479701 0)
(1.11366 -0.00889343 0)
(1.08363 0.00827704 0)
(1.06404 0.0136583 0)
(1.04946 0.0149869 0)
(1.04096 0.0144478 0)
(1.03443 0.0108678 0)
(1.02997 0.00843375 0)
(1.02692 0.00518953 0)
(1.02441 0.00284447 0)
(1.0228 0.000527004 0)
(1.02155 -0.00116838 0)
(1.02076 -0.00227378 0)
(1.02043 -0.00296319 0)
(1.02027 -0.00316754 0)
(1.02033 -0.00303709 0)
(1.02045 -0.00271421 0)
(1.02055 -0.0021262 0)
(1.02057 -0.00135311 0)
(1.0206 -0.000505197 0)
(1.30247 0.196669 0)
(1.3493 0.196753 0)
(1.39043 0.214837 0)
(1.40129 0.20564 0)
(1.39371 0.207318 0)
(1.36011 0.164989 0)
(1.27332 0.163621 0)
(1.22925 0.104119 0)
(1.14645 0.111036 0)
(1.14259 0.0574247 0)
(1.10231 0.0593777 0)
(1.06559 0.0254241 0)
(1.05593 0.0168772 0)
(1.03286 -0.00363987 0)
(1.0173 -0.00668607 0)
(1.0072 -0.0119204 0)
(1.00286 -0.0105704 0)
(1.0029 -0.0101043 0)
(1.00448 -0.00839588 0)
(1.0072 -0.00724205 0)
(1.00974 -0.00624368 0)
(1.01198 -0.00548753 0)
(1.01391 -0.00516684 0)
(1.01531 -0.00479758 0)
(1.01645 -0.00450188 0)
(1.01733 -0.00405946 0)
(1.01797 -0.00345205 0)
(1.01844 -0.00266486 0)
(1.01867 -0.00167954 0)
(1.01882 -0.000614026 0)
(1.20035 0.258528 0)
(1.23668 0.258574 0)
(1.2686 0.219939 0)
(1.2748 0.196882 0)
(1.29221 0.151945 0)
(1.23063 0.125281 0)
(1.21271 0.0815871 0)
(1.16192 0.0776912 0)
(1.10804 0.0543307 0)
(1.07169 0.0628777 0)
(1.05524 0.0279142 0)
(1.04096 0.0453503 0)
(1.03087 0.0256731 0)
(1.03306 0.028553 0)
(1.04049 0.0166875 0)
(1.04206 0.0127394 0)
(1.04063 0.0059047 0)
(1.03579 0.0021977 0)
(1.03093 -0.00111032 0)
(1.02659 -0.00337361 0)
(1.02361 -0.00488785 0)
(1.02193 -0.00590423 0)
(1.02099 -0.00615236 0)
(1.0208 -0.00606643 0)
(1.02093 -0.00572199 0)
(1.0212 -0.00504365 0)
(1.02155 -0.00425805 0)
(1.02182 -0.00324075 0)
(1.02195 -0.00202694 0)
(1.02205 -0.000735559 0)
(1.18238 0.579203 0)
(1.18969 0.575147 0)
(1.17354 0.522691 0)
(1.16084 0.522347 0)
(1.1459 0.448071 0)
(1.12515 0.441315 0)
(1.15349 0.354235 0)
(1.12154 0.34715 0)
(1.14561 0.270067 0)
(1.06172 0.250854 0)
(1.10362 0.172711 0)
(1.05101 0.141902 0)
(1.04087 0.0959862 0)
(1.01608 0.0682318 0)
(0.996316 0.0473988 0)
(0.990963 0.0303451 0)
(0.990337 0.0188514 0)
(0.995178 0.0101575 0)
(0.999934 0.00392616 0)
(1.00449 -9.12689e-05 0)
(1.00839 -0.0030838 0)
(1.01129 -0.004757 0)
(1.01371 -0.00587796 0)
(1.01552 -0.0063234 0)
(1.01692 -0.00619163 0)
(1.0181 -0.00567725 0)
(1.019 -0.00483542 0)
(1.01966 -0.00369307 0)
(1.02006 -0.00232421 0)
(1.02028 -0.000833861 0)
(1.06137 0.571489 0)
(1.05317 0.548802 0)
(1.04821 0.511811 0)
(1.02343 0.495677 0)
(0.997938 0.443009 0)
(0.951036 0.405367 0)
(0.956955 0.34538 0)
(0.866252 0.280075 0)
(0.867232 0.204401 0)
(0.779229 0.138911 0)
(0.810882 0.0820727 0)
(0.842581 0.0403388 0)
(0.880591 0.0145319 0)
(0.923875 -0.00653439 0)
(0.964038 -0.016111 0)
(0.987366 -0.0205965 0)
(1.00234 -0.0194501 0)
(1.00984 -0.0186224 0)
(1.01364 -0.016167 0)
(1.01605 -0.0148241 0)
(1.01745 -0.0131148 0)
(1.01885 -0.0118882 0)
(1.02003 -0.0107793 0)
(1.02101 -0.00958732 0)
(1.02195 -0.00854027 0)
(1.02268 -0.00730018 0)
(1.02327 -0.0059645 0)
(1.0237 -0.00446961 0)
(1.02391 -0.00277361 0)
(1.02404 -0.000982634 0)
(0.964074 0.310819 0)
(0.955953 0.284379 0)
(0.95735 0.259638 0)
(0.932214 0.231029 0)
(0.912521 0.197635 0)
(0.843159 0.158094 0)
(0.828408 0.117272 0)
(0.766238 0.0737397 0)
(0.782439 0.0312172 0)
(0.800648 0.00364666 0)
(0.876115 0.000547284 0)
(0.926814 0.0124611 0)
(0.961877 0.0137851 0)
(0.973332 0.030755 0)
(0.985466 0.0240191 0)
(0.994037 0.0224307 0)
(1.00018 0.0128634 0)
(1.00397 0.0066221 0)
(1.00728 0.000124649 0)
(1.00949 -0.00386354 0)
(1.01176 -0.0067513 0)
(1.01379 -0.00842635 0)
(1.01556 -0.00904845 0)
(1.01731 -0.00911277 0)
(1.01875 -0.00855938 0)
(1.02002 -0.00754805 0)
(1.02108 -0.00629293 0)
(1.02184 -0.00473212 0)
(1.02231 -0.00295188 0)
(1.02257 -0.00104334 0)
(0.841569 0.10738 0)
(0.840286 0.0771957 0)
(0.831535 0.0437846 0)
(0.792991 0.00370116 0)
(0.765211 -0.0326729 0)
(0.711604 -0.0713099 0)
(0.694924 -0.0942149 0)
(0.666486 -0.112362 0)
(0.68518 -0.114673 0)
(0.728725 -0.102227 0)
(0.837345 -0.08684 0)
(0.880523 -0.0798119 0)
(0.919512 -0.0705337 0)
(0.939652 -0.0686019 0)
(0.951652 -0.0565723 0)
(0.96611 -0.0473798 0)
(0.978951 -0.0368618 0)
(0.991098 -0.0298073 0)
(1.00037 -0.0241056 0)
(1.00773 -0.0202972 0)
(1.01298 -0.0175991 0)
(1.01672 -0.0154027 0)
(1.01966 -0.0138619 0)
(1.02174 -0.0123012 0)
(1.02334 -0.0107648 0)
(1.02459 -0.00915962 0)
(1.02549 -0.00739928 0)
(1.02614 -0.00548748 0)
(1.0265 -0.0033957 0)
(1.0267 -0.00118374 0)
(0.712521 -0.59158 0)
(0.688696 -0.611451 0)
(0.670742 -0.617329 0)
(0.643495 -0.627753 0)
(0.634006 -0.618788 0)
(0.633149 -0.604355 0)
(0.664059 -0.555057 0)
(0.710986 -0.499099 0)
(0.785533 -0.415808 0)
(0.860472 -0.328737 0)
(0.926206 -0.240777 0)
(0.978731 -0.18054 0)
(0.975957 -0.12478 0)
(0.999595 -0.0880993 0)
(1.01752 -0.0650663 0)
(1.02389 -0.047163 0)
(1.02395 -0.0371098 0)
(1.02043 -0.0293133 0)
(1.01818 -0.0249266 0)
(1.01693 -0.0217926 0)
(1.01674 -0.0191964 0)
(1.01764 -0.0173683 0)
(1.01876 -0.0155259 0)
(1.02016 -0.0137417 0)
(1.02161 -0.0120522 0)
(1.02284 -0.01014 0)
(1.0239 -0.00816466 0)
(1.02469 -0.00603704 0)
(1.02516 -0.0037197 0)
(1.02543 -0.00129369 0)
(0.739633 -0.580741 0)
(0.746413 -0.542311 0)
(0.770436 -0.499327 0)
(0.810136 -0.446354 0)
(0.867559 -0.386963 0)
(0.931571 -0.322418 0)
(1.00413 -0.253158 0)
(1.06509 -0.190648 0)
(1.12492 -0.125239 0)
(1.19345 -0.0892639 0)
(1.17694 -0.0354691 0)
(1.16586 -0.0412832 0)
(1.13037 -0.0165106 0)
(1.07777 -0.0102324 0)
(1.04344 -0.00419614 0)
(1.02653 -0.00540117 0)
(1.01692 -0.00788168 0)
(1.01543 -0.0107696 0)
(1.01631 -0.0137998 0)
(1.018 -0.0150541 0)
(1.0205 -0.0163794 0)
(1.02246 -0.0164023 0)
(1.02425 -0.0156832 0)
(1.02593 -0.014584 0)
(1.02721 -0.0129363 0)
(1.02833 -0.0110089 0)
(1.0292 -0.00889734 0)
(1.02981 -0.00656019 0)
(1.03016 -0.00404521 0)
(1.03036 -0.00140039 0)
(1.01719 -0.165947 0)
(1.04226 -0.133311 0)
(1.06804 -0.0992071 0)
(1.08886 -0.0615502 0)
(1.10821 -0.0282651 0)
(1.11936 0.00291862 0)
(1.1258 0.0236118 0)
(1.12095 0.03879 0)
(1.09987 0.0450984 0)
(1.10599 0.0287654 0)
(1.02964 0.0262561 0)
(1.01331 -0.00846088 0)
(1.01768 -0.0322981 0)
(1.00716 -0.0489873 0)
(1.00775 -0.0556667 0)
(1.00432 -0.0552869 0)
(1.00407 -0.049403 0)
(1.00565 -0.0447969 0)
(1.00749 -0.038064 0)
(1.01105 -0.0333741 0)
(1.01436 -0.029065 0)
(1.01735 -0.0250534 0)
(1.02031 -0.0219716 0)
(1.02262 -0.0189128 0)
(1.0246 -0.016071 0)
(1.02621 -0.0133159 0)
(1.02742 -0.0105149 0)
(1.02831 -0.00766969 0)
(1.02883 -0.00469122 0)
(1.02912 -0.00161369 0)
(1.12993 0.118859 0)
(1.14318 0.138133 0)
(1.15972 0.151574 0)
(1.16949 0.158797 0)
(1.17764 0.166839 0)
(1.17621 0.165699 0)
(1.1682 0.164085 0)
(1.15338 0.157719 0)
(1.14847 0.143361 0)
(1.15119 0.119756 0)
(1.10022 0.105667 0)
(1.03347 0.0985711 0)
(1.05012 0.0620194 0)
(1.03791 0.0570327 0)
(1.04748 0.0226108 0)
(1.0472 0.0102219 0)
(1.04562 -0.00729273 0)
(1.04035 -0.014996 0)
(1.03674 -0.0208263 0)
(1.03416 -0.0238834 0)
(1.03245 -0.024297 0)
(1.03217 -0.0238298 0)
(1.03224 -0.0222236 0)
(1.03264 -0.0198965 0)
(1.03329 -0.0173814 0)
(1.03385 -0.0145145 0)
(1.0344 -0.0115421 0)
(1.03479 -0.00843701 0)
(1.03499 -0.00515822 0)
(1.03512 -0.00177532 0)
(1.12663 0.715473 0)
(1.11428 0.705474 0)
(1.10021 0.691608 0)
(1.08427 0.668206 0)
(1.06654 0.63518 0)
(1.04806 0.59352 0)
(1.02712 0.545 0)
(1.00513 0.479508 0)
(0.996832 0.411862 0)
(0.983393 0.301265 0)
(1.02973 0.224644 0)
(0.934994 0.125543 0)
(0.972832 0.0750998 0)
(0.943573 0.0270513 0)
(0.935942 0.00761189 0)
(0.948704 -0.0108252 0)
(0.964035 -0.0223246 0)
(0.980722 -0.0274153 0)
(0.995425 -0.0316162 0)
(1.00605 -0.0314131 0)
(1.01448 -0.0303946 0)
(1.02056 -0.0284045 0)
(1.02478 -0.0256442 0)
(1.02795 -0.0227376 0)
(1.03013 -0.0195673 0)
(1.03172 -0.0162191 0)
(1.03288 -0.012835 0)
(1.03363 -0.00932269 0)
(1.03407 -0.0056889 0)
(1.03429 -0.00195265 0)
(1.00361 0.512805 0)
(0.973576 0.474898 0)
(0.935123 0.437684 0)
(0.892186 0.388418 0)
(0.836883 0.337642 0)
(0.778243 0.27165 0)
(0.711594 0.207712 0)
(0.630439 0.120986 0)
(0.537811 0.0476163 0)
(0.437174 -0.0545833 0)
(0.475622 -0.108786 0)
(0.55059 -0.172784 0)
(0.707928 -0.174936 0)
(0.834474 -0.182471 0)
(0.920585 -0.15336 0)
(0.972664 -0.129606 0)
(1.00037 -0.102124 0)
(1.01764 -0.0821681 0)
(1.02665 -0.0664569 0)
(1.03199 -0.0544149 0)
(1.03531 -0.0457204 0)
(1.03716 -0.0383652 0)
(1.03857 -0.0324827 0)
(1.03955 -0.02739 0)
(1.04022 -0.0227781 0)
(1.04075 -0.0185168 0)
(1.04107 -0.0144236 0)
(1.04127 -0.0103891 0)
(1.04131 -0.0063103 0)
(1.04134 -0.00215477 0)
(0.856971 -0.372044 0)
(0.813667 -0.393033 0)
(0.761101 -0.412297 0)
(0.706345 -0.431843 0)
(0.645933 -0.445089 0)
(0.581757 -0.458485 0)
(0.524272 -0.462404 0)
(0.484195 -0.460892 0)
(0.479572 -0.433836 0)
(0.555138 -0.388908 0)
(0.6765 -0.301688 0)
(0.82973 -0.23752 0)
(0.949894 -0.175889 0)
(1.01667 -0.128638 0)
(1.04914 -0.101744 0)
(1.05461 -0.0819891 0)
(1.05196 -0.0687822 0)
(1.04697 -0.0592165 0)
(1.04274 -0.0512753 0)
(1.04039 -0.0453605 0)
(1.03908 -0.0400604 0)
(1.03872 -0.0352297 0)
(1.03894 -0.0308817 0)
(1.03934 -0.0266063 0)
(1.03988 -0.0225216 0)
(1.04036 -0.0184797 0)
(1.04074 -0.0144745 0)
(1.041 -0.0104659 0)
(1.04109 -0.00636507 0)
(1.04115 -0.00217155 0)
(0.818221 -0.333448 0)
(0.791518 -0.330443 0)
(0.763696 -0.323459 0)
(0.739252 -0.313731 0)
(0.720125 -0.299325 0)
(0.710297 -0.280948 0)
(0.714898 -0.254995 0)
(0.737888 -0.224818 0)
(0.781985 -0.18217 0)
(0.848816 -0.147623 0)
(0.900903 -0.0988539 0)
(0.964144 -0.0809963 0)
(1.033 -0.0609706 0)
(1.04756 -0.0506294 0)
(1.05612 -0.0510649 0)
(1.0574 -0.0494713 0)
(1.05634 -0.0514437 0)