/*--------------------------------*- C++ -*----------------------------------*\
| =========                 |                                                 |
| \\      /  F ield         | OpenFOAM: The Open Source CFD Toolbox           |
|  \\    /   O peration     | Version:                                        |
|   \\  /    A nd           | Website:  www.openfoam.com                      |
|    \\/     M anipulation  |                                                 |
\*---------------------------------------------------------------------------*/
FoamFile
{
    version     2.0;
    format      ascii;
    class       surfaceScalarField;
    location    "70.6";
    object      phi;
}
// * * * * * * * * * * * * * * * * * * * * * * * * * * * * * * * * * * * * * //

dimensions      [0 3 -1 0 0 0 0];
oriented        oriented;


internalField   nonuniform List<scalar> 
2202
(
0.0251701
-0.077103
0.0214294
-0.0487383
0.0225085
-0.0054533
0.0262115
0.0429715
0.0313161
0.072662
0.0341
0.0928093
0.0320755
0.105502
0.0273138
0.11192
0.0242587
0.0862598
0.0263185
0.0273284
0.0316178
-0.0342602
0.0338627
-0.0731022
0.0319366
-0.0910218
0.0295593
-0.114532
0.0297978
-0.095083
0.0335547
-0.0460664
0.0363576
0.0255537
0.0379142
0.0858532
0.0385502
0.134351
0.0402406
0.121915
0.0395165
0.0405985
0.0381073
-0.0632845
0.0414961
-0.133311
0.0405089
-0.127807
0.0378703
-0.0404049
0.0338668
0.0437066
0.0326335
0.0741208
0.0425672
0.116526
0.0439218
0.0289031
-0.0392512
0.0207166
-0.0707912
0.0172804
-0.0453021
0.0195904
-0.00776333
0.0254647
0.0370972
0.0323251
0.0658016
0.0363172
0.0888173
0.0352683
0.106551
0.0315883
0.1156
0.0287625
0.0890856
0.0290263
0.0270646
0.0332882
-0.0385221
0.0361762
-0.0759902
0.0341582
-0.0890038
0.0303516
-0.110726
0.0300838
-0.0948152
0.0340903
-0.0500729
0.036862
0.0227821
0.0383762
0.084339
0.0396733
0.133054
0.0423124
0.119276
0.0417903
0.0411206
0.0397499
-0.061244
0.0420837
-0.135645
0.0415164
-0.12724
0.039449
-0.0383375
0.0340857
0.0490699
0.030771
0.0774356
0.0403776
0.106919
0.0433571
0.0259237
-0.0365144
0.0184269
-0.0643839
0.0152036
-0.0420787
0.0183746
-0.0109344
0.0260864
0.0293854
0.0345031
0.0573849
0.0399997
0.0833207
0.0409871
0.105564
0.0388875
0.117699
0.0359117
0.0920614
0.0343849
0.0285914
0.0362733
-0.0404106
0.0378667
-0.0775836
0.0351483
-0.0862854
0.0301829
-0.10576
0.0295561
-0.0941884
0.0338726
-0.0543894
0.0372628
0.0193918
0.0393428
0.0822591
0.0412558
0.131141
0.0442627
0.116269
0.043511
0.0418723
0.0408789
-0.0586118
0.0425519
-0.137318
0.0424756
-0.127164
0.0411482
-0.0370101
0.0344371
0.0557811
0.0288039
0.0830687
0.0379351
0.0977879
0.042687
0.0211718
-0.0351057
0.0182147
-0.0580428
0.0153055
-0.0391695
0.0187972
-0.0144261
0.0274862
0.0206964
0.0368308
0.0480403
0.0439479
0.0762036
0.0467072
0.102804
0.0457464
0.11866
0.0426675
0.0951403
0.0394904
0.0317685
0.039541
-0.0404612
0.041284
-0.0793267
0.038493
-0.0834944
0.0319018
-0.099169
0.0303018
-0.0925884
0.0343951
-0.0584827
0.0377889
0.015998
0.0395788
0.0804692
0.0419118
0.128808
0.0455463
0.112634
0.0454483
0.0419703
0.0424413
-0.0556049
0.0431625
-0.138039
0.043224
-0.127225
0.0423417
-0.0361278
0.034537
0.0635858
0.0269833
0.0906224
0.0355943
0.0891769
0.0420762
0.0146899
-0.0350342
0.0200442
-0.0524018
0.0171562
-0.0362815
0.020019
-0.0172889
0.0284552
0.0122602
0.038842
0.0376535
0.047993
0.0670526
0.0531945
0.0976028
0.0549226
0.116932
0.0523091
0.0977539
0.0469833
0.0370943
0.0433982
-0.0368761
0.043243
-0.0791714
0.0403648
-0.0806161
0.0330572
-0.0918614
0.0306848
-0.090216
0.0343305
-0.0621284
0.0378453
0.0124833
0.0400027
0.0783117
0.0430131
0.125797
0.0466033
0.109044
0.0465987
0.0419749
0.043313
-0.0523192
0.043375
-0.138101
0.0435125
-0.127363
0.0430324
-0.0356477
0.0348885
0.0717296
0.026357
0.0991539
0.0341775
0.0813564
0.0415692
0.00729822
-0.03607
0.0222549
0.0192693
-0.0332959
0.0208213
-0.0188408
0.0292669
0.00381461
0.0407233
0.0261971
0.0504606
0.0573153
0.0576212
0.0904423
0.061078
0.113475
0.0593252
0.0995067
0.0533374
0.043082
0.0476639
-0.0312025
0.0462437
-0.0777512
0.0434055
-0.0777779
0.035001
-0.0834569
0.0316268
-0.0868418
0.0349203
-0.0654219
0.0385806
0.00882302
0.0406381
0.0762542
0.0433083
0.123127
0.0470314
0.105321
0.0479573
0.041049
0.0447118
-0.0490737
0.0439292
-0.137318
0.0437858
-0.127219
0.0433468
-0.0352087
0.0352953
0.0797811
0.0271501
0.107299
0.0342619
0.0742446
0.0416505
-9.03342e-05
-0.037841
0.0223166
-0.0306337
0.0224593
-0.0189835
0.0292226
-0.00294878
0.0405142
0.0149055
0.0523221
0.0455074
0.0621866
0.0805777
0.067838
0.107824
0.0687119
0.0986328
0.0629295
0.0488644
0.0531991
-0.0214721
0.0483036
-0.0728557
0.0451409
-0.0746153
0.0362394
-0.0745554
0.032472
-0.0830744
0.0360273
-0.0689771
0.0396394
0.00521089
0.0417754
0.0741183
0.0440432
0.120859
0.0474549
0.101909
0.0487349
0.039769
0.0455502
-0.045889
0.0440346
-0.135803
0.0435549
-0.12674
0.0432988
-0.0349526
0.0361805
0.0868995
0.0296509
0.113829
0.0360017
0.0678938
0.0423615
-0.00645015
-0.0397993
0.0248442
-0.0285532
0.0236674
-0.0178067
0.0280517
-0.00733301
0.039283
0.00367412
0.0517913
0.0329992
0.0625301
0.0698389
0.0700592
0.100295
0.0718013
0.0968907
0.0668092
0.0538565
0.057333
-0.0119958
0.0504068
-0.0659295
0.0470213
-0.0712298
0.0376496
-0.0651836
0.0324943
-0.0779192
0.0364372
-0.0729201
0.0408464
0.000801747
0.0431552
0.0718095
0.0444376
0.119577
0.0478312
0.0985156
0.0500523
0.0375479
0.0468671
-0.0427038
0.0443859
-0.133321
0.0434054
-0.125759
0.0430169
-0.034564
0.037197
0.0927194
0.0326512
0.118374
0.0384272
0.0621179
0.0437126
-0.0117356
-0.04166
0.0268184
-0.0282757
0.0251129
-0.0161012
0.0264867
-0.00870685
0.0360332
-0.00587242
0.0498774
0.019155
0.063727
0.0559893
0.0726471
0.0913748
0.0749132
0.0946246
0.0718605
0.0569092
0.0613012
-0.00143662
0.0516952
-0.0563235
0.0477848
-0.0673195
0.0390761
-0.0564749
0.0325657
-0.0714087
0.0371785
-0.077533
0.0424773
-0.00449702
0.0445933
0.0696935
0.0453366
0.118834
0.0488784
0.0949738
0.0512187
0.0352076
0.047525
-0.0390101
0.0443695
-0.130166
0.0429837
-0.124373
0.0426574
-0.0342377
0.0383772
0.0969995
0.0355116
0.12124
0.0407167
0.0569128
0.045186
-0.0162049
-0.0433122
0.0283306
0.0271299
-0.0149005
0.0250774
-0.00665442
0.0303567
-0.0111517
0.0438644
0.00564725
0.0587469
0.0411069
0.0703484
0.0797732
0.075178
0.089795
0.07253
0.0595572
0.0632541
0.00783923
0.0531754
-0.0462447
0.048239
-0.0623831
0.0405632
-0.0487991
0.0324155
-0.063261
0.0360988
-0.0812163
0.0431494
-0.0115475
0.0461573
0.0666856
0.046207
0.118784
0.0496672
0.0915136
0.0526195
0.0322553
0.0488087
-0.0351994
0.0450404
-0.126398
0.0428975
-0.12223
0.0424506
-0.0337909
0.0396244
0.0998257
0.0377388
0.123126
0.0425243
0.0521272
0.046721
-0.0204016
-0.044826
0.0340737
-0.00944711
0.0293296
-0.00191035
0.0311883
-0.0130104
0.0381632
-0.00132771
0.0453949
0.0338752
0.0529334
0.0722347
0.0593217
0.0834068
0.066171
0.0527079
0.067577
0.00643319
0.0629891
-0.0416568
0.0575923
-0.0569864
0.0502343
-0.0414411
0.0425198
-0.0555464
0.0415407
-0.0802372
0.0412593
-0.0112662
0.037957
0.069988
0.037348
0.119393
0.0448318
0.0840298
0.0522134
0.0248738
0.0519521
-0.034938
0.0490007
-0.123446
0.0438222
-0.117052
0.0393977
-0.0293664
0.0358621
0.103361
0.0358124
0.123175
0.04087
0.0470696
0.04414
-0.0236715
-0.0452839
0.0382424
-0.00520903
0.0331605
0.00317154
0.0334066
-0.0132565
0.040107
-0.00802808
0.0490251
0.024957
0.0571871
0.0640727
0.065266
0.0753279
0.0733781
0.0445959
0.0729945
0.00681679
0.066813
-0.0354753
0.0609662
-0.0511396
0.0531875
-0.0336624
0.045934
-0.0482929
0.0461004
-0.0804037
0.0456949
-0.0108607
0.041832
0.0738509
0.0415634
0.119661
0.0502181
0.0753751
0.0580482
0.0170437
0.0573131
-0.0342029
0.0532452
-0.119378
0.0472312
-0.111038
0.0429163
-0.0250516
0.0403869
0.105891
0.0412223
0.12234
0.0461594
0.0421325
0.0488492
-0.0263613
-0.0453086
0.0465469
-0.00332251
0.0412523
0.00846622
0.037619
-0.00962325
0.0422984
-0.0127075
0.0523695
0.014886
0.0618474
0.0545948
0.071172
0.0660032
0.0791966
0.0365713
0.07871
0.00730346
0.0722336
-0.0289989
0.0661679
-0.0450738
0.0583072
-0.0258017
0.0497938
-0.0397794
0.0503016
-0.0809115
0.0509869
-0.011546
0.0467559
0.0780819
0.0470342
0.119383
0.0563439
0.0660654
0.0644765
0.0089111
0.0630725
-0.0327989
0.0576309
-0.113937
0.0510006
-0.104407
0.0471744
-0.0212254
0.0460772
0.106988
0.0476908
0.120726
0.0522517
0.0375716
0.0541493
-0.0282588
-0.0447573
0.0516523
-0.0049647
0.0509187
0.00919986
0.046343
-0.00504752
0.0462272
-0.0125918
0.0534007
0.00771246
0.0635255
0.0444701
0.0750057
0.054523
0.0834975
0.0280794
0.0828081
0.00799285
0.0740841
-0.0202749
0.066255
-0.0372447
0.0602312
-0.0197779
0.0532658
-0.032814
0.0543925
-0.0820383
0.0559031
-0.0130566
0.0520605
0.0819244
0.0535461
0.117898
0.063085
0.0565265
0.0710668
0.000929337
0.0690674
-0.0307995
0.0621226
-0.106992
0.0546312
-0.096916
0.0514289
-0.0180231
0.0518015
0.106615
0.0545611
0.117967
0.0589153
0.0332174
0.0598666
-0.0292102
-0.0435208
0.0574816
-0.00579241
0.0595001
0.00718136
0.0560142
-0.00156159
0.0515776
-0.00815527
0.0540594
0.00523071
0.0654603
0.0330691
0.0787484
0.0412349
0.0859295
0.0208983
0.0845416
0.00938076
0.0766567
-0.0123899
0.0714796
-0.0320676
0.0691748
-0.0174731
0.0606203
-0.0242596
0.0582751
-0.0796931
0.0605998
-0.0153813
0.0577791
0.0847451
0.0613739
0.114303
0.0708529
0.0470476
0.0778659
-0.00608371
0.0751187
-0.0280523
0.0664289
-0.0983022
0.058328
-0.0888152
0.0562521
-0.0159471
0.0582666
0.104601
0.0621476
0.114086
0.0661062
0.0292587
0.066089
-0.0291929
-0.0416053
0.061433
-0.00646023
0.0641192
0.00449514
0.0628689
-0.000311231
0.0588788
-0.00416517
0.0594276
0.00468191
0.0700039
0.0224928
0.0805284
0.0307105
0.0847296
0.016697
0.0851854
0.00892502
0.079326
-0.0065306
0.0729842
-0.0257258
0.0725976
-0.0170865
0.0654128
-0.0170748
0.0607266
-0.0750068
0.0636434
-0.018298
0.0637461
0.0846424
0.071084
0.106965
0.079629
0.0385026
0.0842452
-0.0106998
0.0808906
-0.0246977
0.0704535
-0.0878651
0.0612881
-0.0796497
0.0604017
-0.0150608
0.0644907
0.100512
0.069751
0.108825
0.0733356
0.0256742
0.0723493
-0.0282066
-0.0390257
0.0672584
-0.00625536
0.06908
0.00267355
0.0687748
-6.0832e-06
0.0665703
-0.00196061
0.0663152
0.00493692
0.0738654
0.0149426
0.0811311
0.0234448
0.0833489
0.0144793
0.084994
0.00727985
0.0823802
-0.00391683
0.0771107
-0.0204562
0.0796432
-0.0196191
0.0751049
-0.0125365
0.064562
-0.064464
0.0636147
-0.0173507
0.0696206
0.0786365
0.0818783
0.0947071
0.0881097
0.0322711
0.0896699
-0.01226
0.0858545
-0.0208823
0.0743325
-0.0763431
0.0642949
-0.0696121
0.0645787
-0.0153446
0.0713202
0.0937706
0.0778507
0.102295
0.080804
0.0227209
0.0791203
-0.0265229
-0.035961
0.0731079
-0.00545776
0.0744201
0.00136141
0.0744948
-8.08517e-05
0.0732927
-0.000758451
0.0727638
0.00546583
0.0774658
0.0102406
0.0832127
0.017698
0.0860714
0.0116205
0.0880124
0.00533892
0.0866446
-0.00254903
0.0807804
-0.014592
0.0798619
-0.0187005
0.0760954
-0.00876995
0.0636213
-0.0519899
0.0604337
-0.0141632
0.0728178
0.0662524
0.0908562
0.0766687
0.0960944
0.0270329
0.0943092
-0.0104748
0.0898984
-0.0164716
0.0781776
-0.0646223
0.0658208
-0.0572553
0.0666057
-0.0161296
0.0771905
0.0831858
0.085528
0.0939574
0.0880662
0.0201826
0.0854757
-0.0239323
-0.0323225
0.0795955
-0.0047818
0.0802241
0.000732835
0.0800419
0.000101321
0.0795722
-0.000288698
0.0797333
0.00530468
0.0827966
0.00717736
0.087165
0.0133295
0.0899703
0.00881521
0.0914545
0.00385467
0.0914421
-0.0025366
0.0870668
-0.0102168
0.0856559
-0.0172897
0.0837904
-0.00690442
0.0696845
-0.037884
0.0629429
-0.00742152
0.0783631
0.0508322
0.0977353
0.0572966
0.100918
0.0238506
0.0970539
-0.00661105
0.0936728
-0.0130905
0.0840214
-0.0549709
0.0687881
-0.042022
0.0679251
-0.0152666
0.081941
0.0691698
0.0919443
0.0839541
0.0940789
0.018048
0.0917221
-0.0215755
-0.0289653
0.086188
-0.00392544
0.0865224
0.000398529
0.0864431
0.000180576
0.0861345
1.99376e-05
0.0864895
0.00494968
0.0888123
0.00485456
0.0922993
0.00984251
0.0947457
0.00636875
0.0956167
0.00298371
0.0953502
-0.00227014
0.0918572
-0.00672373
0.0899004
-0.0153329
0.0872675
-0.00427148
0.0765538
-0.0271703
0.0713302
-0.00219794
0.0849575
0.0372049
0.100495
0.0417586
0.10501
0.0193363
0.102664
-0.00426537
0.0973986
-0.00782504
0.0870157
-0.044588
0.0709236
-0.0259299
0.0686192
-0.0129622
0.0847313
0.0530578
0.0976277
0.0710577
0.100468
0.0152075
0.097559
-0.0186664
-0.0253403
0.0930875
-0.00312677
0.0932867
0.000199343
0.093069
0.000398272
0.0929517
0.000137221
0.0937141
0.0041873
0.0952534
0.00331525
0.0977373
0.00735861
0.0998667
0.00423937
0.10038
0.00247031
0.100642
-0.00253217
0.0977985
-0.00388011
0.09553
-0.0130643
0.0927571
-0.00149862
0.0850203
-0.0194335
0.0817637
0.0010586
0.0925471
0.0264216
0.103726
0.0305795
0.10639
0.0166728
0.104884
-0.00275927
0.10322
-0.00616173
0.0973052
-0.038673
0.0828449
-0.0114696
0.0780358
-0.00815311
0.0922459
0.0388477
0.104736
0.0585678
0.106762
0.0131813
0.103636
-0.0155405
-0.0220532
0.100235
-0.00237617
0.100361
7.35003e-05
0.100207
0.00055212
0.100336
8.71587e-06
0.100875
0.00364823
0.102091
0.00209863
0.104061
0.00538918
0.10557
0.00273018
0.106018
0.00202213
0.106039
-0.0025533
0.103502
-0.00134237
0.101888
-0.0114512
0.0993873
0.00100258
0.0941823
-0.0142286
0.0920129
0.00322806
0.0993707
0.0190638
0.108599
0.0213515
0.111759
0.0135127
0.110158
-0.00115828
0.106257
-0.00226071
0.100323
-0.0327394
0.0907955
-0.00194196
0.0882368
-0.00559434
0.10039
0.0266942
0.112364
0.0465942
0.114925
0.0106198
0.111058
-0.0116733
-0.0179652
0.107879
-0.00187595
0.107869
8.3512e-05
0.107736
0.000684548
0.107975
-0.000230289
0.108432
0.00319085
0.109547
0.000983989
0.110754
0.00418251
0.111997
0.00148707
0.112114
0.00190451
0.112256
-0.00269448
0.110176
0.000737551
0.108953
-0.0102289
0.106482
0.00347386
0.102986
-0.0107322
0.102107
0.00410666
0.10741
0.0137606
0.11366
0.015102
0.116075
0.0110974
0.116682
-0.00176477
0.113316
0.0011054
0.10784
-0.0272638
0.101612
0.00428607
0.0997925
-0.00377492
0.108804
0.0176823
0.117583
0.0378152
0.119268
0.00893528
0.117269
-0.00967387
-0.0151963
0.115826
-0.00131776
0.115887
2.22782e-05
0.115803
0.000768767
0.115977
-0.000404652
0.11648
0.00268784
0.117173
0.000291009
0.118054
0.0033014
0.119102
0.000439627
0.118722
0.00228449
0.119278
-0.00325077
0.117201
0.00281435
0.116317
-0.00934486
0.114608
0.00518333
0.112293
-0.00841746
0.111576
0.00482426
0.115642
0.00969388
0.120573
0.0101717
0.12205
0.00962052
0.122687
-0.00240229
0.119656
0.0041367
0.115767
-0.0233749
0.111729
0.0083236
0.10994
-0.00198565
0.117556
0.0100665
0.124937
0.0304341
0.125423
0.00844941
0.123661
-0.00791193
-0.0125918
0.124347
-0.000912718
0.124416
-4.74677e-05
0.124275
0.000910421
0.124509
-0.000638849
0.124815
0.00238121
0.125347
-0.000240926
0.125937
0.00271145
0.126666
-0.000289116
0.126196
0.00275492
0.126884
-0.00393941
0.124839
0.00485974
0.124788
-0.00929365
0.123058
0.00691256
0.121523
-0.00688168
0.12175
0.00459652
0.124128
0.00731585
0.127723
0.00657726
0.129005
0.00833822
0.129935
-0.00333244
0.127013
0.00705896
0.124498
-0.0208597
0.122154
0.0106677
0.120538
-0.000369438
0.12541
0.00519387
0.132245
0.0235989
0.133211
0.0074833
0.131406
-0.00610611
-0.0104409
0.13337
-0.000634238
0.13336
-3.75977e-05
0.13334
0.000930541
0.133416
-0.00071535
0.133709
0.00208828
0.13405
-0.000582119
0.134308
0.00245417
0.13505
-0.0010311
0.134355
0.00344921
0.135188
-0.00477187
0.133432
0.00661544
0.133553
-0.00941435
0.132123
0.00834209
0.131614
-0.00637282
0.131323
0.00488739
0.133182
0.00545724
0.136277
0.00348226
0.136143
0.00847271
0.138087
-0.00527729
0.135583
0.00956382
0.133008
-0.0182854
0.132534
0.0111419
0.131298
0.000866726
0.134165
0.00232727
0.140077
0.0176866
0.14062
0.00694062
0.139281
-0.00476806
-0.00860485
0.142881
-0.000385381
0.142822
2.13092e-05
0.142929
0.000823844
0.142812
-0.000598561
0.143192
0.00170792
0.143248
-0.000637991
0.143509
0.00219313
0.143982
-0.00150437
0.143361
0.00407105
0.144232
-0.00564283
0.142413
0.00843454
0.143305
-0.0103071
0.141405
0.0102421
0.141649
-0.00661654
0.14178
0.00475608
0.142011
0.00522697
0.145502
-8.93296e-06
0.14441
0.00956458
0.146288
-0.00715567
0.144567
0.0112855
0.142539
-0.0162577
0.142781
0.0108994
0.141848
0.00179973
0.143769
0.000407047
0.14837
0.0130855
0.148839
0.00647101
0.147876
-0.00380486
-0.00695947
0.153158
-0.000509086
0.152756
0.000422726
0.153093
0.00048729
0.152943
-0.000448526
0.152959
0.00169169
0.153542
-0.00122079
0.15294
0.00279548
0.153984
-0.00254853
0.153017
0.00503814
0.153772
-0.00639832
0.152564
0.00964314
0.153134
-0.0108776
0.151607
0.0117691
0.152228
-0.0072376
0.152465
0.00451925
0.151383
0.00630862
0.156104
-0.00473007
0.153088
0.0125814
0.155151
-0.00921912
0.155447
0.0109895
0.151647
-0.0124579
0.152475
0.0100719
0.153642
0.000632427
0.153489
0.000559985
0.156213
0.0103621
0.157899
0.00478463
0.157289
-0.00319454
-0.00493037
0.163918
-0.000780525
0.163557
0.000784232
0.163652
0.000392109
0.163905
-0.000701315
0.163314
0.00228249
0.164373
-0.00227992
0.163377
0.00379209
0.164308
-0.00348014
0.163902
0.00544407
0.163829
-0.00632537
0.16366
0.00981269
0.164095
-0.0113128
0.16224
0.0136241
0.164207
-0.00920439
0.163334
0.00539231
0.161897
0.00774496
0.168261
-0.0110937
0.161712
0.0191306
0.166234
-0.0137408
0.1669
0.0103232
0.160143
-0.00570122
0.165036
0.00517867
0.165415
0.000254201
0.162437
0.00353777
0.166797
0.00600153
0.168525
0.00305687
0.166725
-0.00139416
-0.00273637
0.175016
-0.000495867
0.175302
0.000498681
0.174854
0.000840019
0.17536
-0.00120755
0.174886
0.00275595
0.175316
-0.00270906
0.175259
0.00384845
0.175086
-0.00330672
0.17561
0.00491945
0.175116
-0.00583054
0.175009
0.00991942
0.17599
-0.0122942
0.173845
0.015769
0.176003
-0.0113618
0.175726
0.00566939
0.172899
0.0105716
0.180413
-0.0186077
0.172459
0.0270848
0.176656
-0.0179378
0.179382
0.00759749
0.169568
0.00411276
0.17774
-0.0029939
0.177381
0.000613701
0.17183
0.00908822
0.178195
-0.00036345
0.179645
0.00160754
0.176466
0.00178447
-0.000708648
0.187018
0.000141784
0.187562
-4.5134e-05
0.187113
0.00128905
0.187346
-0.00144062
0.187404
0.0026976
0.187198
-0.00250256
0.187596
0.00345032
0.187353
-0.00306356
0.187456
0.00481605
0.18767
-0.00604464
0.187325
0.0102647
0.187653
-0.0126221
0.187991
0.0154307
0.186956
-0.0103263
0.18962
0.00300521
0.186197
0.0139938
0.190762
-0.0231724
0.187999
0.0298483
0.187541
-0.0174806
0.192152
0.00298677
0.18426
0.0120049
0.189494
-0.00822756
0.190577
-0.000469466
0.185445
0.0142198
0.190247
-0.00516567
0.191836
1.87655e-05
0.189011
0.00460932
0.00102696
0.200088
0.000644224
0.200456
-0.000413003
0.200281
0.00146447
0.200244
-0.00140425
0.20051
0.00243152
0.20024
-0.00223196
0.200496
0.00319432
0.200504
-0.00307177
0.200521
0.00479941
0.200316
-0.00584012
0.201554
0.00902732
0.199189
-0.0102571
0.203124
0.0114956
0.199049
-0.00625126
0.202393
-0.000338673
0.202107
0.0142799
0.200462
-0.0215283
0.204697
0.0256134
0.201113
-0.0138963
0.203237
0.000863179
0.202496
0.0127456
0.20238
-0.00811141
0.203546
-0.00163546
0.202608
0.0151574
0.204129
-0.00668638
0.204673
-0.000525309
0.203826
0.00545651
0.00206954
0.214096
0.000845885
0.214203
-0.000519975
0.21426
0.00140727
0.214078
-0.00122273
0.214408
0.0021023
0.214097
-0.0019217
0.214448
0.00284332
0.214154
-0.00277729
0.214804
0.00414919
0.213559
-0.00459516
0.216065
0.00652156
0.212238
-0.00643017
0.216928
0.00680565
0.212895
-0.00221833
0.214724
-0.00216815
0.217652
0.0113521
0.211789
-0.015665
0.219369
0.0180335
0.21492
-0.00944778
0.214615
0.0011687
0.218945
0.00841482
0.21545
-0.0046156
0.215664
-0.00184966
0.218892
0.0119294
0.217453
-0.00524796
0.216756
0.000171795
0.217727
0.00448571
0.0024527
0.228976
0.000836277
0.228916
-0.000459603
0.229108
0.00121475
0.228843
-0.000957156
0.229231
0.0017139
0.228819
-0.00150978
0.229342
0.00232036
0.228732
-0.00216756
0.229687
0.00319478
0.228197
-0.00310583
0.23043
0.00428838
0.227448
-0.00344809
0.230596
0.00365802
0.228545
-0.000167046
0.228615
-0.00223888
0.23225
0.0077174
0.226311
-0.00972531
0.232974
0.0113699
0.229494
-0.00596777
0.228615
0.0020476
0.233126
0.00390406
0.229752
-0.00124196
0.229258
-0.00135492
0.233578
0.00760892
0.231177
-0.00284661
0.230151
0.00119738
0.231772
0.00286473
0.00261014
0.244797
0.000730328
0.244679
-0.000342022
0.244912
0.000982214
0.244639
-0.000684857
0.24503
0.00132283
0.244595
-0.00107407
0.245161
0.00175384
0.244487
-0.00149324
0.245402
0.00227915
0.244188
-0.00189172
0.245759
0.00271739
0.244009
-0.00169774
0.245706
0.00196104
0.245067
0.000471837
0.244364
-0.00153571
0.247199
0.00488206
0.243089
-0.00561554
0.247356
0.0071033
0.245349
-0.00396093
0.244828
0.00256865
0.247431
0.00130159
0.245872
0.000316738
0.245048
-0.000531215
0.248099
0.00455775
0.246622
-0.00136874
0.245873
0.00194554
0.246963
0.00177539
0.00266696
0.261667
0.000591617
0.261552
-0.000226411
0.261779
0.000755516
0.261549
-0.000454885
0.261893
0.000977894
0.261527
-0.000707523
0.26202
0.00126044
0.261475
-0.00094812
0.262193
0.00156123
0.26139
-0.00108813
0.262396
0.00171108
0.261494
-0.0007955
0.262342
0.00111273
0.262253
0.000560738
0.261593
-0.000875608
0.263448
0.0030265
0.260952
-0.00311932
0.263678
0.00437761
0.262221
-0.00250367
0.262505
0.00228461
0.263521
0.00028486
0.263001
0.000836775
0.262543
-7.24136e-05
0.264271
0.00282917
0.263519
-0.000616325
0.263279
0.00218528
0.263892
0.0011627
0.00255181
0.279695
0.000444278
0.279603
-0.000134585
0.279811
0.000547678
0.279635
-0.000279451
0.279928
0.000685352
0.279653
-0.000432268
0.280055
0.000858503
0.279666
-0.000559746
0.280205
0.00102218
0.279708
-0.000590598
0.280358
0.00106043
0.279905
-0.000341966
0.280352
0.000665813
0.280449
0.000463212
0.279991
-0.000417637
0.281218
0.00179954
0.279717
-0.00161826
0.281523
0.00257237
0.280433
-0.00141426
0.281068
0.00164939
0.281332
2.1569e-05
0.281326
0.00084226
0.28117
8.38141e-05
0.282111
0.00188839
0.281802
-0.000307851
0.281991
0.00199684
0.282318
0.00083546
0.00222053
0.298976
0.000297832
0.298912
-7.00668e-05
0.299102
0.000357606
0.298977
-0.000154456
0.299226
0.000435824
0.299033
-0.000239019
0.299358
0.000533223
0.299101
-0.000301974
0.299505
0.000618062
0.299212
-0.000298082
0.299648
0.000624436
0.299441
-0.000134235
0.299704
0.000402628
0.299864
0.000302804
0.299593
-0.000146111
0.300414
0.000977876
0.299539
-0.000743386
0.30073
0.00138152
0.300002
-0.000686188
0.300643
0.00100896
0.300676
-1.19868e-05
0.300861
0.000657879
0.300877
6.75469e-05
0.301515
0.00125014
0.301373
-0.000166054
0.301856
0.00151458
0.302106
0.000585417
0.00165506
0.319623
0.000150141
0.319581
-2.8456e-05
0.319761
0.000177772
0.319674
-6.72522e-05
0.319896
0.000213553
0.319762
-0.000104707
0.320037
0.00025799
0.319865
-0.000129809
0.320188
0.000294735
0.320013
-0.000122769
0.320343
0.000294802
0.320253
-4.46171e-05
0.320458
0.000197971
0.320617
0.0001438
0.320497
-2.62571e-05
0.321052
0.000422863
0.320578
-0.000269907
0.321365
0.000594662
0.320941
-0.000261894
0.321476
0.000473965
0.321471
-7.2069e-06
0.321762
0.000366968
0.321808
2.16788e-05
0.322403
0.000655305
0.322316
-7.95408e-05
0.323012
0.000818792
0.323277
0.000320772
0.000895888
0.34174
0.341711
0.341889
0.341822
0.342035
0.34193
0.342188
0.342059
0.342353
0.342231
0.342525
0.342481
0.342679
0.342823
0.342796
0.343219
0.342949
0.343544
0.343282
0.343756
0.343749
0.344116
0.344137
0.344793
0.344713
0.345532
0.345853
)
;

boundaryField
{
    outlet
    {
        type            calculated;
        value           nonuniform List<scalar> 
40
(
0.0399754
0.0406203
0.0412783
0.0420047
0.042605
0.0434214
0.0443198
0.0455733
0.0468382
0.0482348
0.0445979
0.0488739
0.0535979
0.0586301
0.0641735
0.0697697
0.0760556
0.0818371
0.0883649
0.093934
0.100349
0.10697
0.1145
0.121056
0.129255
0.137445
0.146231
0.15526
0.164531
0.174438
0.187276
0.202783
0.217344
0.231615
0.246906
0.264007
0.282649
0.302671
0.324036
0.346749
)
;
    }
    upperWall
    {
        type            symmetryPlane;
        value           uniform 0;
    }
    lowerWall
    {
        type            symmetryPlane;
        value           nonuniform 0();
    }
    inlet
    {
        type            calculated;
        value           nonuniform 0();
    }
    cylinder
    {
        type            calculated;
        value           nonuniform 0();
    }
    frontAndBack
    {
        type            empty;
        value           nonuniform 0();
    }
    procBoundary7to3
    {
        type            processor;
        value           nonuniform List<scalar> 
30
(
0.0826492
0.052479
0.00437424
-0.0466745
-0.0777666
-0.0955933
-0.103478
-0.107158
-0.0832047
-0.0293882
0.0289609
0.0708573
0.0929478
0.116909
0.0948445
0.0423095
-0.0283566
-0.0874097
-0.134987
-0.123605
-0.0398744
0.0646937
0.129922
0.128794
0.0430434
-0.0397031
-0.0728875
-0.126459
-0.0302577
0.0431976
)
;
    }
    procBoundary7to6
    {
        type            processor;
        value           nonuniform List<scalar> 
42
(
-0.0307163
-0.0270284
-0.0248343
-0.0245558
-0.0256852
-0.026895
-0.0477617
-0.0249787
-0.0269247
-0.0270959
-0.0274023
-0.029204
-0.0395271
-0.0424804
-0.0484335
-0.0500101
-0.0566539
-0.0607652
-0.0674632
-0.0739055
-0.0802715
-0.0870444
-0.0938862
-0.100986
-0.108379
-0.116384
-0.124752
-0.133648
-0.14313
-0.153034
-0.163647
-0.175301
-0.187656
-0.200591
-0.214297
-0.228966
-0.244691
-0.261529
-0.279547
-0.29883
-0.319475
-0.341589
)
;
    }
}


// ************************************************************************* //
