/*--------------------------------*- C++ -*----------------------------------*\
| =========                 |                                                 |
| \\      /  F ield         | OpenFOAM: The Open Source CFD Toolbox           |
|  \\    /   O peration     | Version:                                        |
|   \\  /    A nd           | Website:  www.openfoam.com                      |
|    \\/     M anipulation  |                                                 |
\*---------------------------------------------------------------------------*/
FoamFile
{
    version     2.0;
    format      ascii;
    class       volScalarField;
    location    "49.3";
    object      p;
}
// * * * * * * * * * * * * * * * * * * * * * * * * * * * * * * * * * * * * * //

dimensions      [0 2 -2 0 0 0 0];


internalField   nonuniform List<scalar> 
1153
(
-0.662367
-0.660927
-0.65729
-0.653031
-0.64792
-0.640571
-0.627634
-0.609124
-0.58603
-0.559771
-0.669354
-0.668717
-0.667834
-0.662886
-0.657558
-0.642127
-0.61833
-0.590008
-0.560286
-0.530546
-0.500956
-0.470926
-0.677187
-0.676449
-0.677914
-0.672141
-0.658867
-0.634268
-0.60308
-0.570105
-0.537602
-0.50605
-0.475026
-0.444442
-0.414399
-0.384669
-0.686774
-0.690208
-0.674358
-0.674317
-0.653186
-0.621622
-0.586548
-0.551238
-0.517039
-0.484205
-0.452871
-0.422907
-0.393934
-0.365631
-0.338006
-0.310622
-0.283921
-0.692742
-0.697777
-0.68848
-0.671464
-0.64277
-0.607177
-0.569776
-0.533116
-0.498175
-0.465276
-0.434279
-0.404848
-0.376517
-0.349007
-0.322228
-0.296624
-0.27195
-0.247724
-0.224639
-0.201814
-0.713435
-0.682726
-0.696137
-0.668417
-0.630472
-0.59102
-0.552409
-0.515548
-0.480718
-0.447931
-0.417139
-0.388057
-0.360378
-0.333992
-0.30895
-0.284968
-0.262
-0.240281
-0.219457
-0.199413
-0.754235
-0.721936
-0.696599
-0.658257
-0.615033
-0.573445
-0.53442
-0.497712
-0.463123
-0.430683
-0.400407
-0.372052
-0.345304
-0.320158
-0.296341
-0.273607
-0.25178
-0.230727
-0.210798
-0.191641
-0.757984
-0.751197
-0.696048
-0.643481
-0.596515
-0.554208
-0.515189
-0.478754
-0.444595
-0.412728
-0.383073
-0.355328
-0.329293
-0.30473
-0.281674
-0.259986
-0.239509
-0.220329
-0.202161
-0.184333
-0.716825
-0.730004
-0.682563
-0.62723
-0.577815
-0.534195
-0.494681
-0.458179
-0.424225
-0.392678
-0.36344
-0.336314
-0.311113
-0.287922
-0.266348
-0.246119
-0.227233
-0.209495
-0.192874
-0.176736
-0.693341
-0.695805
-0.663184
-0.609996
-0.559216
-0.513505
-0.472539
-0.435367
-0.401293
-0.370143
-0.341652
-0.315423
-0.291269
-0.268901
-0.248243
-0.229045
-0.211139
-0.194639
-0.179321
-0.165019
-0.729563
-0.717046
-0.708599
-0.727577
-0.717565
-0.711182
-0.712707
-0.719298
-0.710907
-0.705325
-0.706577
-0.707487
-0.69975
-0.693674
-0.693218
-0.694764
-0.686979
-0.679445
-0.676102
-0.682772
-0.674828
-0.66551
-0.658747
-0.656365
-0.672319
-0.664835
-0.654342
-0.644677
-0.63872
-0.637521
-0.664214
-0.658109
-0.647675
-0.636632
-0.628536
-0.624918
-0.626501
-0.659442
-0.655297
-0.646208
-0.63572
-0.627194
-0.622755
-0.624246
-0.62817
-0.658903
-0.656225
-0.649778
-0.641608
-0.634519
-0.631187
-0.628018
-0.622012
-0.611087
-0.150624
-0.159124
-0.165251
-0.170204
-0.176988
-0.135108
-0.140351
-0.144788
-0.146128
-0.150771
-0.119873
-0.122236
-0.124794
-0.123743
-0.126807
-0.105788
-0.10568
-0.106996
-0.105606
-0.107652
-0.0924574
-0.0907637
-0.091426
-0.0902011
-0.0907317
-0.0913228
-0.0800189
-0.0778161
-0.077709
-0.0764596
-0.0752108
-0.0749738
-0.0682409
-0.0659795
-0.0651609
-0.0637304
-0.0614381
-0.0606935
-0.0573016
-0.0551857
-0.0539939
-0.052456
-0.0498779
-0.0487336
-0.0472553
-0.0454059
-0.0440321
-0.0425118
-0.0398832
-0.0382384
-0.0381398
-0.0365683
-0.0351195
-0.0336937
-0.0312211
-0.0292442
-0.0300942
-0.02875
-0.02734
-0.0259948
-0.0237354
-0.0215556
-0.0231899
-0.0219552
-0.0205933
-0.0191605
-0.0171011
-0.0150088
-0.0172562
-0.015984
-0.0146646
-0.0132806
-0.011553
-0.00977355
-0.0122529
-0.010979
-0.00976349
-0.00847184
-0.00680248
-0.00489601
-0.00818691
-0.00690896
-0.00563107
-0.00424327
-0.00263019
-0.00116812
-0.00482018
-0.00355663
-0.00228435
-0.00107745
5.94521e-05
0.000949541
-0.00209778
-0.000969107
0.000191486
0.00128372
0.00234358
0.00330827
0.000126821
0.00115082
0.00228699
0.00337278
0.00431647
0.00498193
0.0019708
0.00287913
0.00389132
0.00480637
0.00549857
0.00592043
0.00341766
0.00419953
0.0050714
0.00584867
0.00642293
0.00675611
0.00458361
0.00525209
0.00599732
0.00663625
0.00705187
0.00721314
0.00554802
0.00608287
0.00666993
0.00713445
0.00738293
0.00742158
0.00635622
0.00673361
0.00714543
0.00744572
0.00756947
0.00753559
0.00701796
0.00722928
0.00746528
0.00761741
0.00764086
0.00754971
0.00749864
0.00756115
0.0076454
0.00767751
0.00762301
0.00748489
0.00779109
0.00774305
0.00771452
0.00765558
0.00753837
0.00736026
0.00793209
0.0078025
0.00768973
0.00756013
0.00739274
0.00718343
0.00797813
0.0077795
0.00759736
0.00741018
0.00720283
0.00697033
0.00798065
0.007729
0.00749053
0.00725489
0.00701332
0.00676144
0.00795954
0.00768665
0.00741721
0.0071506
0.00688486
0.0066182
0.000915949
0.00261728
0.00436544
0.00548355
0.00527648
0.00336094
-0.000176304
-0.00500191
-0.0110342
-0.0184991
-0.0277796
-0.039455
-0.0543161
-0.0732914
-0.0976593
-0.128942
-0.16928
-0.22055
-0.285314
-0.393764
-0.0190819
-0.0174618
-0.0181298
-0.0203899
-0.0238086
-0.0284046
-0.0343529
-0.0417337
-0.0505823
-0.0611282
-0.0738741
-0.0894673
-0.108824
-0.132821
-0.162688
-0.200096
-0.247605
-0.30685
-0.377929
-0.500167
-0.0337569
-0.0345063
-0.0387969
-0.0447839
-0.0514584
-0.058634
-0.0668265
-0.0765029
-0.0880207
-0.101725
-0.118002
-0.137422
-0.16075
-0.188959
-0.223471
-0.266141
-0.319879
-0.385995
-0.46155
-0.593706
-0.0497514
-0.052987
-0.0600972
-0.069107
-0.078632
-0.0883976
-0.0988747
-0.110761
-0.124554
-0.140662
-0.15959
-0.181973
-0.208682
-0.240589
-0.278921
-0.32536
-0.383325
-0.456326
-0.535758
-0.669222
-0.0686633
-0.0737181
-0.0825284
-0.0931707
-0.104377
-0.115861
-0.128224
-0.14214
-0.15815
-0.176687
-0.198163
-0.223203
-0.252596
-0.287233
-0.328423
-0.377591
-0.437422
-0.514906
-0.597637
-0.724685
-0.087776
-0.0943131
-0.104436
-0.115964
-0.128178
-0.141192
-0.155474
-0.171534
-0.189696
-0.210255
-0.233656
-0.26058
-0.291962
-0.328612
-0.371678
-0.42245
-0.482406
-0.56001
-0.645527
-0.75904
-0.107468
-0.116044
-0.127448
-0.139623
-0.152357
-0.166085
-0.181435
-0.198767
-0.218387
-0.240601
-0.265708
-0.294318
-0.3272
-0.365001
-0.40893
-0.460089
-0.519779
-0.592919
-0.67478
-0.772295
-0.123201
-0.134023
-0.146476
-0.159444
-0.173181
-0.188203
-0.205046
-0.224005
-0.24522
-0.268793
-0.295025
-0.324547
-0.358215
-0.396695
-0.440827
-0.491412
-0.549215
-0.615876
-0.687366
-0.764671
-0.138852
-0.151929
-0.165166
-0.178929
-0.193776
-0.210021
-0.227914
-0.247761
-0.269826
-0.29434
-0.321538
-0.351896
-0.386028
-0.424529
-0.468219
-0.517582
-0.572435
-0.631601
-0.687371
-0.740774
-0.153515
-0.166795
-0.18072
-0.195597
-0.211592
-0.229134
-0.248457
-0.269651
-0.292978
-0.318494
-0.346436
-0.377204
-0.411293
-0.449265
-0.491817
-0.539476
-0.591867
-0.645948
-0.685787
-0.708795
0.198431
0.210256
0.223416
0.237872
0.253543
0.270362
0.288292
0.307309
0.327401
0.348498
0.370442
0.39291
0.415405
0.437075
0.456843
0.472428
0.481949
0.190759
0.202146
0.214997
0.22909
0.24424
0.260377
0.277507
0.29564
0.314755
0.334773
0.355505
0.376516
0.397192
0.416655
0.43383
0.446452
0.453069
0.179578
0.19023
0.202452
0.215828
0.230079
0.245116
0.260965
0.277637
0.295056
0.313058
0.331521
0.350165
0.368352
0.38475
0.397999
0.40561
0.407292
0.15745
0.165173
0.174923
0.186227
0.198526
0.211453
0.224894
0.238915
0.253578
0.268836
0.284373
0.299695
0.314476
0.328487
0.340558
0.348771
0.350063
0.34429
0.141148
0.147716
0.156453
0.166666
0.177644
0.188967
0.200459
0.212104
0.223954
0.236044
0.248287
0.260233
0.271109
0.280079
0.286063
0.287698
0.281122
0.264923
0.119608
0.122124
0.127337
0.134814
0.1436
0.152928
0.16238
0.171806
0.181148
0.190297
0.199077
0.20731
0.214696
0.220459
0.223613
0.22275
0.216229
0.200176
0.171891
0.101928
0.0999035
0.101039
0.105203
0.111487
0.118664
0.12583
0.132609
0.138983
0.145076
0.15087
0.156078
0.160324
0.163134
0.163531
0.16031
0.151994
0.136914
0.110515
0.0671855
0.0820992
0.077298
0.076873
0.0802908
0.0857553
0.0915646
0.0968299
0.101154
0.104576
0.107303
0.109359
0.110442
0.109941
0.107229
0.101491
0.0915079
0.0753916
0.0510555
0.013892
-0.0450047
0.0604606
0.0539298
0.0526265
0.0550963
0.0588692
0.0625189
0.0652525
0.0668985
0.0674192
0.0668271
0.0650645
0.0618119
0.0564986
0.0483439
0.036328
0.0191437
-0.00516141
-0.0386986
-0.0860676
-0.161931
0.0330982
0.0273822
0.0278454
0.030091
0.0320097
0.032762
0.0322733
0.0307059
0.0281431
0.0244137
0.0191413
0.011799
0.00162991
-0.012158
-0.0305794
-0.0549159
-0.0872972
-0.130077
-0.187068
-0.279386
0.0877678
0.0696105
0.0572131
0.0469388
0.0397392
0.0237
0.0285847
0.0153137
0.0214813
0.00960433
0.0157568
0.00485392
0.0107198
0.000766311
0.00657368
-0.00259565
0.00345878
-0.00511113
0.00131564
-0.00673482
-4.3945e-05
-0.00747704
-0.000719876
-0.00745268
-0.000775364
-0.00676713
-0.000292004
-0.00554628
0.000624215
-0.00390614
0.00183878
-0.0019787
0.00320946
8.14744e-05
0.00460648
0.00212749
0.00591122
0.00403247
0.00705859
0.00570832
0.00803297
0.00710688
0.00882699
0.00821147
0.00944606
0.00902446
0.00992259
0.00959539
0.0103055
0.0100204
0.0106181
0.0103572
0.0108674
0.0106257
0.011052
0.0108352
0.0111556
0.0109609
0.0112253
0.0110106
0.0114089
0.0111008
0.0118507
0.0114296
0.000707542
-0.0225086
-0.0371784
-0.0504415
-0.0673011
-0.0849195
-0.102412
-0.116512
-0.130595
-0.141816
-0.00193987
-0.02413
-0.0413235
-0.0529883
-0.0669316
-0.0822345
-0.0977224
-0.109843
-0.12094
-0.129195
-0.00543962
-0.0253535
-0.0427587
-0.0531928
-0.0644903
-0.0769752
-0.090251
-0.100786
-0.109614
-0.116232
-0.00875369
-0.0267596
-0.043158
-0.0533375
-0.062843
-0.0729916
-0.083616
-0.0927876
-0.0990884
-0.103999
-0.011794
-0.0282791
-0.0429014
-0.052535
-0.0601368
-0.0680187
-0.0757712
-0.0833993
-0.0877623
-0.0915356
-0.0142041
-0.0292076
-0.0418388
-0.0504564
-0.0564538
-0.0627011
-0.0682833
-0.07435
-0.0773685
-0.0796063
-0.0158681
-0.0294719
-0.0402121
-0.0473885
-0.0520772
-0.0570574
-0.0609291
-0.0654546
-0.067232
-0.0681866
-0.0168161
-0.0290916
-0.0379842
-0.0436286
-0.0471189
-0.0510558
-0.0536562
-0.0568264
-0.0576177
-0.0576118
-0.0169228
-0.0279365
-0.0351778
-0.0393987
-0.0418009
-0.0447997
-0.0465597
-0.0485423
-0.0487392
-0.0479428
-0.0162067
-0.0260932
-0.0319849
-0.034918
-0.0364286
-0.0384879
-0.0397357
-0.0407687
-0.0405755
-0.0393003
-0.014769
-0.0236123
-0.0284594
-0.0303122
-0.0310874
-0.0323113
-0.0331686
-0.0335849
-0.0330691
-0.0316247
-0.0127547
-0.0206304
-0.0246823
-0.0257277
-0.0258947
-0.0264627
-0.0269617
-0.027032
-0.0262817
-0.0248429
-0.0102938
-0.0172826
-0.0207425
-0.0212633
-0.0209483
-0.0210187
-0.0212076
-0.0211119
-0.0202764
-0.0188904
-0.00751537
-0.0136658
-0.0167143
-0.0169691
-0.0163275
-0.0160252
-0.015982
-0.0158302
-0.0150607
-0.0137868
-0.00459314
-0.00991144
-0.0126579
-0.0128444
-0.0120608
-0.0115205
-0.0113355
-0.0111988
-0.0106079
-0.00954987
-0.00168656
-0.00616008
-0.00864139
-0.00889922
-0.00816035
-0.00754452
-0.007314
-0.00723502
-0.00684031
-0.00600921
0.0010613
-0.00255828
-0.00476761
-0.00517931
-0.00464275
-0.00411217
-0.00392628
-0.00392548
-0.00369864
-0.00308058
0.00352352
0.00074604
-0.00114952
-0.00172794
-0.00149897
-0.00118989
-0.00113114
-0.00122519
-0.00113242
-0.000681962
0.00560803
0.00362156
0.0020968
0.00140958
0.00130818
0.001313
0.00117693
0.000970994
0.000955765
0.00128794
0.00726401
0.00596551
0.00484937
0.00416365
0.0038001
0.00349607
0.00312334
0.00276888
0.00264015
0.00285862
0.00845691
0.00768824
0.00696813
0.00640067
0.00591638
0.00538919
0.00480355
0.00428757
0.00403094
0.00413664
0.00923993
0.00880525
0.00838618
0.00798585
0.00752232
0.00692293
0.00622885
0.00560029
0.00523084
0.00522278
0.00976123
0.00948605
0.00922096
0.00893389
0.00854521
0.00799533
0.00732674
0.00669009
0.00626733
0.00616271
0.0101395
0.00992251
0.00970278
0.00944833
0.009106
0.008638
0.00807328
0.00751997
0.00711627
0.0069512
0.0104304
0.0102317
0.0100124
0.00975192
0.00942507
0.00901763
0.008552
0.00809649
0.00773869
0.00753936
0.0106645
0.0104807
0.0102559
0.00998002
0.00964936
0.00926834
0.00885855
0.00846364
0.00813548
0.00791089
0.0108172
0.0106577
0.0104442
0.0101676
0.00983388
0.00945885
0.00906694
0.0086914
0.0083658
0.00811269
0.0108521
0.0106906
0.0104889
0.010233
0.0099233
0.00957225
0.00920062
0.00883498
0.00850057
0.00821436
0.0108452
0.010605
0.0103622
0.0101038
0.00982216
0.00951739
0.00919593
0.0088697
0.00855207
0.00825419
0.0110062
0.0106004
0.0102367
0.00991175
0.00961479
0.00933421
0.00906014
0.00878671
0.00851144
0.0082351
)
;

boundaryField
{
    outlet
    {
        type            fixedValue;
        value           nonuniform 0();
    }
    upperWall
    {
        type            symmetryPlane;
    }
    lowerWall
    {
        type            symmetryPlane;
    }
    inlet
    {
        type            zeroGradient;
    }
    cylinder
    {
        type            zeroGradient;
    }
    frontAndBack
    {
        type            empty;
    }
    procBoundary5to1
    {
        type            processor;
        value           nonuniform List<scalar> 
20
(
-0.723107
-0.707536
-0.69611
0.202283
0.214172
0.227334
0.241842
0.257675
0.274741
0.292943
0.312216
0.332538
0.353865
0.376109
0.399012
0.422143
0.444646
0.465279
0.481499
0.491496
)
;
    }
    procBoundary5to4
    {
        type            processor;
        value           nonuniform List<scalar> 
45
(
0.18787
0.180918
0.170741
0.170741
0.151702
0.136955
0.136955
0.119511
0.119511
0.104226
0.104226
0.0895302
0.0742428
0.0742428
0.0625542
0.0505377
0.0396449
0.0313148
0.0246783
0.0191277
0.0144817
0.0106743
0.0077591
0.00573912
0.00446748
0.00381849
0.00369449
0.00400594
0.00464378
0.00547245
0.00637149
0.00723906
0.00803087
0.00874655
0.00936615
0.00988292
0.0103116
0.0106685
0.01096
0.0111891
0.0113497
0.0114379
0.01153
0.0117942
0.0122705
)
;
    }
    procBoundary5to6
    {
        type            processor;
        value           nonuniform List<scalar> 
63
(
-0.531581
-0.59401
-0.531581
-0.502312
-0.440144
-0.440144
-0.408741
-0.354983
-0.354983
-0.325891
-0.297365
-0.258006
-0.258006
-0.232354
-0.209037
-0.176125
-0.708936
-0.708936
-0.721356
-0.714281
-0.698558
-0.677847
-0.677847
-0.658729
-0.658729
-0.641096
-0.641096
-0.63384
-0.63384
-0.630163
-0.630163
-0.59401
-0.176125
-0.148775
-0.125872
-0.108168
-0.108168
-0.0887015
-0.0717938
-0.0580497
-0.0463198
-0.0357834
-0.0269565
-0.0194743
-0.0131613
-0.00801924
-0.00299266
-0.000222288
0.00167431
0.00414603
0.00534587
0.00616216
0.00689619
0.00718625
0.00732921
0.00740431
0.0073802
0.0072824
0.00713232
0.00693803
0.00671487
0.00649868
0.00634937
)
;
    }
}


// ************************************************************************* //
