/*--------------------------------*- C++ -*----------------------------------*\
| =========                 |                                                 |
| \\      /  F ield         | OpenFOAM: The Open Source CFD Toolbox           |
|  \\    /   O peration     | Version:                                        |
|   \\  /    A nd           | Website:  www.openfoam.com                      |
|    \\/     M anipulation  |                                                 |
\*---------------------------------------------------------------------------*/
FoamFile
{
    version     2.0;
    format      ascii;
    class       volVectorField;
    location    "51.1";
    object      U;
}
// * * * * * * * * * * * * * * * * * * * * * * * * * * * * * * * * * * * * * //

dimensions      [0 1 -1 0 0 0 0];


internalField   nonuniform List<vector> 
1150
(
(0.849147 -0.0371495 4.13068e-21)
(0.854048 -0.0585069 -7.82252e-21)
(0.861508 -0.0776313 -2.45475e-20)
(0.871207 -0.0981613 -7.87092e-22)
(0.884222 -0.114737 -4.42785e-21)
(0.898387 -0.13301 1.97769e-20)
(0.837661 -0.0394678 -9.50174e-21)
(0.844024 -0.062185 -1.9404e-21)
(0.85338 -0.082379 -3.29878e-20)
(0.865533 -0.104129 -1.01055e-20)
(0.880705 -0.120995 -7.28594e-20)
(0.82485 -0.0424647 5.44514e-21)
(0.832425 -0.0669728 2.54937e-20)
(0.843429 -0.0885715 4.13071e-20)
(1.00012 -0.000327102 1.50727e-22)
(1.00031 0.00118168 -6.42732e-22)
(1.00061 0.00271425 1.06299e-21)
(1.00109 0.00411787 -7.02586e-22)
(1.00149 0.00552826 -2.96115e-22)
(1.00211 0.00676497 1.53913e-21)
(1.00316 0.008021 -7.74113e-22)
(1.00346 0.0090309 -2.08661e-23)
(1.00447 0.0101276 -6.48046e-22)
(1.00451 0.0108757 6.68347e-22)
(1.00614 -0.00344056 4.07884e-23)
(1.00581 -0.00516148 9.3645e-23)
(1.00534 -0.0069087 1.75552e-22)
(1.00459 -0.00846094 -4.49794e-22)
(1.00397 -0.0100371 2.60861e-22)
(1.00316 -0.0113163 -5.57345e-22)
(1.00162 -0.0126664 7.23083e-22)
(1.00107 -0.0136152 -5.71289e-22)
(0.999862 -0.0146971 2.82635e-22)
(1.00041 -0.0153692 -1.87236e-22)
(1.00418 -0.00127712 -2.61625e-23)
(1.00448 0.000275784 3.73187e-22)
(1.00485 0.00190655 1.17638e-22)
(1.00547 0.00330422 -2.17495e-22)
(1.00589 0.00479948 -4.04076e-22)
(1.00656 0.00593 9.70773e-22)
(1.00778 0.00719235 1.15103e-21)
(1.00815 0.00793949 -1.1149e-21)
(1.00861 0.00886297 6.09763e-22)
(1.00878 0.00958157 8.92265e-22)
(1.00379 -0.003203 -8.42544e-23)
(1.00354 -0.00491458 3.45857e-23)
(1.0032 -0.00680769 -3.34938e-23)
(1.00251 -0.00833416 -6.95971e-22)
(1.00209 -0.0101055 6.88995e-22)
(1.00135 -0.0113245 -9.05663e-22)
(0.999873 -0.0128248 -7.36419e-22)
(0.999146 -0.0136013 -7.56873e-22)
(0.999118 -0.0147349 -8.69997e-22)
(0.999149 -0.0153989 -1.49072e-22)
(1.00176 -0.000834281 -3.0082e-23)
(1.002 0.000451315 2.86538e-22)
(1.0023 0.00204425 3.00098e-22)
(1.00289 0.00320196 -1.1017e-21)
(1.00314 0.00483282 -6.22169e-22)
(1.00394 0.00574771 1.19487e-21)
(1.005 0.0072192 -4.94051e-22)
(1.00573 0.00781364 3.28737e-23)
(1.00445 0.00894357 -9.22526e-22)
(1.00601 0.00958633 -5.95978e-23)
(1.00175 -0.00223689 9.91284e-23)
(1.00163 -0.00386177 -6.96224e-22)
(1.00139 -0.00590024 1.05991e-21)
(1.00085 -0.00735165 5.65101e-22)
(1.00069 -0.00951277 4.12157e-22)
(0.999833 -0.0106776 -5.68656e-22)
(0.998812 -0.0127252 1.1407e-21)
(0.997557 -0.0135982 1.61349e-21)
(0.999835 -0.015226 1.84392e-22)
(0.998348 -0.0161966 -1.0809e-22)
(1.00023 -0.00179807 1.21328e-22)
(1.00036 -0.000841455 1.81605e-22)
(1.00064 0.00055236 -8.91229e-22)
(1.00106 0.00134511 4.82101e-22)
(1.00116 0.00303871 4.38122e-22)
(1.00215 0.00355789 -3.66126e-22)
(1.00256 0.00533242 -1.03168e-21)
(1.00371 0.00568596 -1.05289e-21)
(1.00049 0.00725356 1.05327e-21)
(1.00425 0.00751859 3.43606e-22)
(0.999428 -0.00279511 -8.00293e-24)
(0.999452 -0.00437713 1.01722e-22)
(0.999227 -0.00634535 3.05766e-22)
(0.999004 -0.00765339 5.50788e-22)
(0.998926 -0.00994864 8.56584e-22)
(0.997983 -0.0108939 -6.71261e-22)
(0.997855 -0.0133994 -9.48802e-22)
(0.996298 -0.0143121 -4.39721e-22)
(0.999583 -0.0166631 -1.426e-21)
(0.996456 -0.0175624 -4.67487e-22)
(0.997853 -0.0036491 7.07172e-23)
(0.997946 -0.00296843 -3.10004e-22)
(0.998323 -0.00207905 -3.83336e-22)
(0.998457 -0.00170616 -1.06386e-21)
(0.998761 -0.000475684 -1.53861e-21)
(0.999715 -0.000561193 -6.09064e-22)
(0.999326 0.0011273 3.06165e-21)
(1.00034 0.000954542 8.59785e-22)
(0.998159 0.0028403 6.71326e-22)
(1.00308 0.00208097 -1.83048e-21)
(0.996259 -0.00476329 -1.12241e-22)
(0.996337 -0.00662279 5.56124e-22)
(0.996138 -0.00841826 1.15456e-21)
(0.996188 -0.00990984 5.95141e-22)
(0.995741 -0.0119587 -1.20404e-21)
(0.995061 -0.0128195 1.75013e-21)
(0.995558 -0.0153593 -1.09307e-21)
(0.994394 -0.0160349 1.09784e-21)
(0.995024 -0.0185775 -1.69339e-22)
(0.992665 -0.0190974 1.12089e-21)
(0.993973 -0.00563362 7.80392e-23)
(0.994074 -0.005235 -2.61042e-22)
(0.994369 -0.00495778 -1.03526e-21)
(0.994319 -0.0046758 1.22872e-21)
(0.99507 -0.00414235 2.07694e-21)
(0.995534 -0.00454972 -6.26698e-22)
(0.995042 -0.00333258 -2.97853e-21)
(0.995833 -0.00430477 4.39001e-22)
(0.997579 -0.00274882 -6.07596e-22)
(0.999729 -0.00460665 -3.26894e-21)
(0.991905 -0.00721524 -2.915e-23)
(0.992076 -0.00940806 1.85944e-22)
(0.992121 -0.0111604 1.26625e-21)
(0.992345 -0.0130611 -7.92558e-22)
(0.991749 -0.0150052 5.08516e-22)
(0.991876 -0.0163274 -7.8804e-22)
(0.992302 -0.0188607 2.13639e-21)
(0.99116 -0.0194098 -6.23859e-21)
(0.988658 -0.0217091 3.39286e-21)
(0.990296 -0.0221528 3.49282e-21)
(0.988952 -0.00764501 2.67758e-22)
(0.989041 -0.0078017 -3.00569e-22)
(0.98914 -0.00803034 -2.29314e-21)
(0.989188 -0.00808274 -9.77541e-22)
(0.990033 -0.00804795 -2.52689e-21)
(0.989829 -0.00853796 -4.4151e-21)
(0.989857 -0.00766499 -3.96549e-21)
(0.991066 -0.00943214 1.25888e-21)
(0.994379 -0.00825047 -2.12398e-21)
(0.992495 -0.0108128 6.03894e-21)
(0.986155 -0.00955242 -2.18571e-22)
(0.986475 -0.0119395 1.79837e-22)
(0.986769 -0.014029 4.01955e-22)
(0.987044 -0.0162687 2.21567e-21)
(0.986751 -0.0184092 1.65275e-21)
(0.987542 -0.0203771 4.35766e-21)
(0.9877 -0.0230794 6.59521e-21)
(0.98638 -0.0240492 1.33047e-21)
(0.984438 -0.0268225 -7.30498e-22)
(0.988558 -0.0278142 -1.14137e-20)
(0.982614 -0.00965808 1.76856e-22)
(0.982743 -0.010608 -1.61329e-21)
(0.982962 -0.0112856 8.02928e-22)
(0.983217 -0.0120767 -5.34304e-22)
(0.984068 -0.0124855 -6.09726e-22)
(0.983778 -0.0135069 -2.00497e-21)
(0.984352 -0.0130611 -7.91288e-21)
(0.98587 -0.0154122 4.73848e-21)
(0.987765 -0.0139443 5.71731e-21)
(0.985362 -0.0176113 4.86153e-21)
(0.97907 -0.0117686 -3.8669e-22)
(0.979499 -0.0146389 2.50243e-21)
(0.979935 -0.0173274 -1.47724e-21)
(0.980338 -0.0200133 1.97155e-21)
(0.980326 -0.0226482 7.54258e-22)
(0.981256 -0.0251281 -2.92706e-21)
(0.981454 -0.0281202 3.35525e-21)
(0.980234 -0.0298451 3.97708e-21)
(0.980207 -0.0332383 -7.28494e-21)
(0.983748 -0.0344816 -4.54919e-22)
(0.974613 -0.0118353 -2.80987e-23)
(0.974981 -0.0136496 -2.24411e-21)
(0.975429 -0.0150196 5.16753e-21)
(0.975913 -0.0165978 -3.28073e-21)
(0.976961 -0.0175376 -6.41233e-22)
(0.97704 -0.0194353 2.92161e-21)
(0.977913 -0.0194295 6.50795e-21)
(0.97987 -0.0226081 -4.17854e-21)
(0.980719 -0.0211997 7.05567e-21)
(0.97995 -0.026342 1.30806e-21)
(0.970215 -0.0139111 8.11762e-22)
(0.97078 -0.0177292 -1.79414e-21)
(0.97137 -0.0211218 -7.20718e-21)
(0.972019 -0.02464 4.47904e-21)
(0.972289 -0.0279716 6.043e-22)
(0.973346 -0.0312223 6.68904e-21)
(0.973998 -0.0348068 3.85015e-21)
(0.972853 -0.0374108 -5.95182e-21)
(0.974147 -0.0413684 -1.38043e-20)
(0.976735 -0.0430209 9.86786e-21)
(0.964869 -0.0143236 -8.72837e-22)
(0.965493 -0.0172032 2.25803e-21)
(0.9663 -0.0195581 1.05846e-21)
(0.967115 -0.0221123 -2.51414e-21)
(0.968512 -0.0238171 6.05675e-22)
(0.969099 -0.0267155 3.09458e-21)
(0.970314 -0.0272102 2.57147e-21)
(0.972908 -0.0314301 4.78278e-21)
(0.973704 -0.0301362 2.21873e-20)
(0.974512 -0.0368682 -6.71605e-21)
(0.959249 -0.016348 2.55219e-22)
(0.960002 -0.021342 -2.58457e-21)
(0.960844 -0.0257722 2.27069e-22)
(0.961787 -0.0303947 -5.44755e-21)
(0.962505 -0.0345797 -9.41356e-21)
(0.963855 -0.0389893 -1.16581e-20)
(0.965256 -0.0433127 1.22255e-21)
(0.964579 -0.0471006 1.37976e-21)
(0.966888 -0.05194 -2.02068e-20)
(0.969556 -0.0541873 -6.76188e-21)
(0.952839 -0.0170351 -6.30445e-22)
(0.95386 -0.0214631 3.72515e-21)
(0.955126 -0.0250864 2.09983e-21)
(0.956454 -0.0289692 7.66857e-21)
(0.95846 -0.0317935 8.20777e-21)
(0.959807 -0.0359422 -4.71768e-21)
(0.961745 -0.0372674 -1.94196e-20)
(0.96512 -0.0427318 -1.17735e-20)
(0.966702 -0.0417024 -3.69602e-22)
(0.968525 -0.0498353 -6.17607e-21)
(0.9459 -0.0191478 1.59457e-21)
(0.946951 -0.0257982 1.30531e-21)
(0.948199 -0.0316275 -1.3463e-22)
(0.949664 -0.037784 -9.86652e-21)
(0.951074 -0.0431031 8.33347e-21)
(0.953058 -0.0490735 2.64813e-21)
(0.955473 -0.0542477 2.07582e-20)
(0.955808 -0.0594526 4.7149e-21)
(0.959211 -0.0652562 2.1401e-20)
(0.963329 -0.0680211 1.59492e-20)
(0.938188 -0.0201693 -2.07109e-22)
(0.939686 -0.0266081 1.00021e-21)
(0.941595 -0.0319452 4.64859e-21)
(0.943628 -0.0376196 1.09499e-20)
(0.946571 -0.0419413 1.71972e-21)
(0.948972 -0.0477129 -4.02924e-21)
(0.952229 -0.0502833 -4.10589e-22)
(0.956773 -0.0571155 -6.55112e-21)
(0.959962 -0.0569195 -6.2453e-21)
(0.962755 -0.0659932 1.10545e-20)
(0.929769 -0.0224151 -1.01483e-21)
(0.9313 -0.0313619 1.69314e-21)
(0.933177 -0.0390602 -9.41669e-21)
(0.935441 -0.0472937 -4.46227e-21)
(0.937953 -0.0541849 -2.31705e-20)
(0.941096 -0.06222 -3.46495e-21)
(0.944977 -0.0684903 -1.34115e-20)
(0.947153 -0.0755276 -4.05403e-21)
(0.952032 -0.0820952 -2.87777e-21)
(0.958902 -0.0847616 -3.11687e-20)
(0.920617 -0.0237778 -2.88021e-22)
(0.92267 -0.0328696 -4.47385e-21)
(0.925382 -0.0404383 -1.18358e-21)
(0.928418 -0.0485456 -5.72449e-21)
(0.932718 -0.0548913 -1.32066e-20)
(0.936636 -0.0627671 1.48098e-20)
(0.941926 -0.0671444 1.15149e-20)
(0.948325 -0.0752082 3.39319e-20)
(0.954216 -0.0766426 -1.03249e-20)
(0.958491 -0.0846155 1.99591e-20)
(0.910602 -0.0262693 2.86855e-21)
(0.912702 -0.0381448 -8.78627e-22)
(0.915464 -0.0483768 7.02552e-21)
(0.918888 -0.0594284 -7.45949e-21)
(0.923003 -0.0685383 1.3062e-20)
(0.928013 -0.0792265 1.85791e-20)
(0.934084 -0.0870597 -7.25678e-21)
(0.939134 -0.0965101 -6.18456e-21)
(0.946628 -0.103318 1.11101e-20)
(0.957578 -0.105197 -7.79944e-23)
(0.899797 -0.0278813 -2.34319e-21)
(0.902467 -0.0403074 2.45647e-21)
(0.906196 -0.0508482 -2.78678e-21)
(0.910568 -0.0622127 2.52297e-20)
(0.916782 -0.0712868 -8.83359e-21)
(0.922834 -0.0819798 -9.13922e-21)
(0.931202 -0.0887037 -2.6575e-20)
(0.94034 -0.0984549 4.12114e-21)
(0.950422 -0.101754 8.69565e-22)
(0.957004 -0.104963 5.8797e-21)
(0.888072 -0.0306162 1.31536e-22)
(0.890829 -0.0461954 -5.66239e-21)
(0.894719 -0.0598267 2.95214e-22)
(0.899737 -0.0746405 -5.39011e-21)
(0.906093 -0.0868436 1.73833e-20)
(0.913849 -0.101014 -4.33763e-20)
(0.92316 -0.1109 1.27462e-20)
(0.932162 -0.123596 -1.04677e-21)
(0.943917 -0.130267 -1.24769e-20)
(0.960873 -0.129311 -2.36556e-20)
(0.87546 -0.032372 -4.83363e-22)
(0.878824 -0.0489287 -3.33982e-22)
(0.883814 -0.0633586 6.16423e-21)
(0.890024 -0.079011 8.77303e-22)
(0.898862 -0.0916716 -9.51474e-21)
(0.907946 -0.106158 6.13364e-20)
(0.920715 -0.115523 1.53163e-21)
(0.934033 -0.127462 -2.42659e-20)
(0.948157 -0.134818 -6.56177e-21)
(0.861908 -0.0353635 -2.4464e-21)
(0.865519 -0.0555109 6.61406e-21)
(0.870996 -0.073612 1.6766e-20)
(0.878444 -0.0932342 3.76077e-21)
(0.888012 -0.109486 6.55121e-20)
(0.899906 -0.127928 -6.72378e-20)
(0.913607 -0.140559 -9.279e-21)
(1.008 0.0119294 0)
(1.00737 0.012414 0)
(0.993732 0.0129788 0)
(0.989653 0.0144234 0)
(1.02077 0.0160801 0)
(1.05661 0.0172421 0)
(1.05749 0.0180629 0)
(1.03606 0.0184746 0)
(1.0189 0.0193946 0)
(1.01082 0.0202852 0)
(1.00695 0.0201453 0)
(1.00472 0.019143 0)
(1.00343 0.0177736 0)
(1.00254 0.0159159 0)
(1.00178 0.0137802 0)
(1.00118 0.011561 0)
(1.00073 0.00941941 0)
(1.0004 0.0074817 0)
(1.00015 0.00582437 0)
(0.99996 0.00443144 0)
(0.999835 0.00328724 0)
(0.999768 0.00237973 0)
(0.99975 0.00167091 0)
(0.99977 0.00113121 0)
(0.999813 0.000730603 0)
(0.999871 0.000442626 0)
(0.999931 0.000245375 0)
(0.999986 0.000119211 0)
(1.00003 4.42508e-05 0)
(1.00005 1.38208e-05 0)
(0.995588 -0.0165192 0)
(0.993004 -0.0170446 0)
(1.00824 -0.017978 0)
(1.01903 -0.0194395 0)
(0.990997 -0.0194814 0)
(0.950411 -0.0192374 0)
(0.944202 -0.0207568 0)
(0.96491 -0.0230268 0)
(0.982485 -0.0258881 0)
(0.989949 -0.0283051 0)
(0.992586 -0.0283723 0)
(0.993567 -0.0263396 0)
(0.993835 -0.0238044 0)
(0.994085 -0.0208361 0)
(0.994653 -0.0176825 0)
(0.995458 -0.0146437 0)
(0.996347 -0.0119217 0)
(0.997231 -0.00963452 0)
(0.998023 -0.00781327 0)
(0.998685 -0.0063503 0)
(0.999203 -0.00516147 0)
(0.999585 -0.00421259 0)
(0.999847 -0.00344955 0)
(1.00001 -0.00282112 0)
(1.0001 -0.00229021 0)
(1.00014 -0.00182607 0)
(1.00014 -0.00140337 0)
(1.00013 -0.00100037 0)
(1.00012 -0.000600383 0)
(1.0001 -0.000203606 0)
(1.01354 0.0102 0)
(1.01134 0.010203 0)
(0.995173 0.0109599 0)
(0.996288 0.0118569 0)
(1.03158 0.0110796 0)
(1.05876 0.0109399 0)
(1.04885 0.0130496 0)
(1.02527 0.0155826 0)
(1.0123 0.0182998 0)
(1.00797 0.0203648 0)
(1.00551 0.020109 0)
(1.00375 0.0181066 0)
(1.00247 0.0155598 0)
(1.00124 0.0126245 0)
(1.00004 0.00961477 0)
(0.999107 0.00690071 0)
(0.998573 0.0047262 0)
(0.998394 0.00316662 0)
(0.998445 0.00208772 0)
(0.998647 0.0012766 0)
(0.998927 0.000636914 0)
(0.999229 0.000131047 0)
(0.999516 -0.000249787 0)
(0.999771 -0.000518334 0)
(0.999987 -0.000684054 0)
(1.00016 -0.000749995 0)
(1.0003 -0.000719377 0)
(1.00039 -0.000603123 0)
(1.00046 -0.000406706 0)
(1.0005 -0.000161335 0)
(0.992273 -0.0156922 0)
(0.990714 -0.0158194 0)
(1.00746 -0.0170499 0)
(1.01408 -0.0174201 0)
(0.985949 -0.014776 0)
(0.954699 -0.0136982 0)
(0.955552 -0.0168334 0)
(0.974861 -0.0206786 0)
(0.987436 -0.0239709 0)
(0.991639 -0.0260704 0)
(0.993774 -0.0256897 0)
(0.99503 -0.0235645 0)
(0.995133 -0.0211001 0)
(0.994981 -0.0184018 0)
(0.995329 -0.0156912 0)
(0.996041 -0.0133057 0)
(0.99678 -0.0113571 0)
(0.997433 -0.00979058 0)
(0.998042 -0.00851278 0)
(0.998635 -0.00739138 0)
(0.999183 -0.00634031 0)
(0.999661 -0.00539594 0)
(1.00005 -0.00457197 0)
(1.00035 -0.00385907 0)
(1.00055 -0.0032304 0)
(1.00068 -0.00265125 0)
(1.00075 -0.00208994 0)
(1.00077 -0.00152344 0)
(1.00076 -0.000936772 0)
(1.00078 -0.0003133 0)
(1.01276 0.0102415 0)
(1.00642 0.010413 0)
(0.991144 0.0117686 0)
(1.00569 0.0107516 0)
(1.04086 0.0070622 0)
(1.04945 0.00680692 0)
(1.02723 0.0111107 0)
(1.00777 0.0154536 0)
(1.0049 0.0183978 0)
(1.00618 0.0196326 0)
(1.00441 0.0178895 0)
(1.00221 0.0146944 0)
(1.0013 0.0113159 0)
(1.00102 0.00828465 0)
(1.00062 0.00572733 0)
(1.00011 0.00365845 0)
(0.999744 0.00201309 0)
(0.999576 0.000717088 0)
(0.999576 -0.000305907 0)
(0.999689 -0.00107045 0)
(0.999878 -0.00158603 0)
(1.00012 -0.00191701 0)
(1.00039 -0.00209167 0)
(1.00065 -0.00213657 0)
(1.00088 -0.00207268 0)
(1.00105 -0.00190387 0)
(1.00118 -0.00163543 0)
(1.00126 -0.00127133 0)
(1.00131 -0.000824912 0)
(1.00133 -0.000270591 0)
(0.989688 -0.016557 0)
(0.991464 -0.0174799 0)
(1.00383 -0.0192032 0)
(0.998608 -0.0168233 0)
(0.978719 -0.0118663 0)
(0.970407 -0.0118031 0)
(0.979647 -0.0170854 0)
(0.990057 -0.0222957 0)
(0.992161 -0.0259522 0)
(0.991168 -0.0278766 0)
(0.99166 -0.0266432 0)
(0.993137 -0.0232293 0)
(0.994462 -0.0195388 0)
(0.995541 -0.0165578 0)
(0.996472 -0.0143194 0)
(0.997282 -0.0126641 0)
(0.997988 -0.0113921 0)
(0.998636 -0.0103537 0)
(0.999226 -0.00948073 0)
(0.999754 -0.0086364 0)
(1.00024 -0.00777608 0)
(1.00067 -0.00694043 0)
(1.00105 -0.00613077 0)
(1.00135 -0.00534463 0)
(1.00157 -0.00457038 0)
(1.0017 -0.00380255 0)
(1.00177 -0.00302764 0)
(1.00179 -0.00222376 0)
(1.0018 -0.00137524 0)
(1.00177 -0.000466776 0)
(1.01038 0.00841446 0)
(1.00062 0.00965219 0)
(0.997958 0.0105636 0)
(1.02623 0.00606487 0)
(1.04369 0.00196271 0)
(1.02632 0.00337788 0)
(0.998914 0.00814619 0)
(0.989605 0.0118978 0)
(0.995589 0.0138457 0)
(1.00125 0.0140362 0)
(1.00309 0.0118531 0)
(1.0031 0.00887914 0)
(1.00198 0.00554196 0)
(1.00062 0.00259431 0)
(0.999848 0.000383057 0)
(0.999769 -0.00109983 0)
(1.00002 -0.00211015 0)
(1.00034 -0.00289878 0)
(1.00064 -0.0035652 0)
(1.0009 -0.00410451 0)
(1.00117 -0.00445998 0)
(1.00144 -0.00462045 0)
(1.00171 -0.00458404 0)
(1.00195 -0.00436715 0)
(1.00215 -0.0040012 0)
(1.0023 -0.00351242 0)
(1.00239 -0.0029105 0)
(1.00245 -0.00220644 0)
(1.00248 -0.00139696 0)
(1.00248 -0.000492444 0)
(0.990815 -0.0185788 0)
(0.992557 -0.0208522 0)
(0.988586 -0.0217407 0)
(0.979394 -0.0176768 0)
(0.986192 -0.0156807 0)
(0.997824 -0.0187065 0)
(1.00062 -0.0235153 0)
(0.997878 -0.0269301 0)
(0.995192 -0.027705 0)
(0.994059 -0.0261886 0)
(0.993359 -0.0237689 0)
(0.993017 -0.0216256 0)
(0.993312 -0.0198327 0)
(0.994481 -0.0181168 0)
(0.996091 -0.0165019 0)
(0.997542 -0.0151238 0)
(0.998648 -0.0139457 0)
(0.999527 -0.0129123 0)
(1.00029 -0.0119843 0)
(1.00099 -0.0111105 0)
(1.00159 -0.0102345 0)
(1.00209 -0.00934682 0)
(1.00249 -0.00841986 0)
(1.00278 -0.00744209 0)
(1.00298 -0.00642922 0)
(1.00309 -0.00538745 0)
(1.00314 -0.00430715 0)
(1.00315 -0.00317033 0)
(1.00314 -0.00195774 0)
(1.00312 -0.000667449 0)
(1.00325 0.00397134 0)
(0.998109 0.00625177 0)
(1.01439 0.00514547 0)
(1.03405 0.000710547 0)
(1.02027 0.00101654 0)
(0.993294 0.00370267 0)
(0.980796 0.00615809 0)
(0.986376 0.00760281 0)
(0.996689 0.00668693 0)
(1.00038 0.0034731 0)
(0.999139 -5.94133e-05 0)
(0.998209 -0.00224071 0)
(0.998943 -0.00351845 0)
(0.99992 -0.00435902 0)
(1.00029 -0.00511118 0)
(1.00035 -0.00592131 0)
(1.00057 -0.00672235 0)
(1.00102 -0.00736892 0)
(1.00156 -0.00781224 0)
(1.00209 -0.00805259 0)
(1.00258 -0.00806981 0)
(1.00298 -0.00789045 0)
(1.00331 -0.0075148 0)
(1.00356 -0.00694767 0)
(1.00374 -0.00622291 0)
(1.00386 -0.00536569 0)
(1.00393 -0.00438448 0)
(1.00397 -0.00328331 0)
(1.00397 -0.00205298 0)
(1.00396 -0.000701045 0)
(0.994061 -0.0209445 0)
(0.986599 -0.0240332 0)
(0.968408 -0.0236193 0)
(0.979086 -0.0224733 0)
(1.01178 -0.0248957 0)
(1.0205 -0.0271384 0)
(1.00688 -0.0285121 0)
(0.99436 -0.0295569 0)
(0.990137 -0.029119 0)
(0.99101 -0.0272913 0)
(0.9938 -0.0249319 0)
(0.995936 -0.0224588 0)
(0.996585 -0.0207109 0)
(0.996728 -0.0198218 0)
(0.997166 -0.019262 0)
(0.997983 -0.0185698 0)
(0.999041 -0.017683 0)
(1.00019 -0.016672 0)
(1.00129 -0.01561 0)
(1.00226 -0.0145278 0)
(1.00307 -0.0133982 0)
(1.00371 -0.012237 0)
(1.00418 -0.011034 0)
(1.0045 -0.00977404 0)
(1.00469 -0.00846387 0)
(1.00478 -0.00710683 0)
(1.0048 -0.00568995 0)
(1.00478 -0.00418883 0)
(1.00475 -0.00258009 0)
(1.00471 -0.000869613 0)
(0.994321 -0.00190257 0)
(1.00237 -0.000105256 0)
(1.02285 -0.00175945 0)
(1.01606 -0.00218149 0)
(0.990267 -0.000531426 0)
(0.978744 -0.000969407 0)
(0.98098 -0.00156741 0)
(0.988027 -0.00182488 0)
(0.994359 -0.00310357 0)
(0.997025 -0.00519416 0)
(0.998097 -0.00728188 0)
(0.998959 -0.008858 0)
(0.999154 -0.00993407 0)
(0.999149 -0.0106872 0)
(0.999542 -0.0114332 0)
(1.00025 -0.0121093 0)
(1.00108 -0.0125963 0)
(1.00193 -0.0128018 0)
(1.00275 -0.0127434 0)
(1.00351 -0.0124744 0)
(1.00417 -0.0119951 0)
(1.00471 -0.0113379 0)
(1.00512 -0.0105151 0)
(1.00541 -0.00953563 0)
(1.00559 -0.00842055 0)
(1.00569 -0.00718422 0)
(1.00572 -0.005827 0)
(1.00572 -0.0043346 0)
(1.0057 -0.00269006 0)
(1.00567 -0.000913032 0)
(0.994578 -0.0241627 0)
(0.975672 -0.0273273 0)
(0.961384 -0.0277402 0)
(0.993065 -0.0295231 0)
(1.02482 -0.0308886 0)
(1.01949 -0.0309268 0)
(1.00029 -0.0314754 0)
(0.99119 -0.0316971 0)
(0.99115 -0.0305947 0)
(0.992735 -0.0289591 0)
(0.994296 -0.0276135 0)
(0.995997 -0.0265984 0)
(0.997008 -0.0258083 0)
(0.997397 -0.0249893 0)
(0.997936 -0.0240646 0)
(0.998972 -0.0230653 0)
(1.00031 -0.0220008 0)
(1.00168 -0.0208077 0)
(1.00293 -0.0195036 0)
(1.00403 -0.0181324 0)
(1.00493 -0.0166815 0)
(1.00564 -0.0151805 0)
(1.00615 -0.0136335 0)
(1.00649 -0.0120384 0)
(1.00667 -0.010401 0)
(1.00672 -0.00872092 0)
(1.00669 -0.00698026 0)
(1.00663 -0.00513777 0)
(1.00656 -0.00316001 0)
(1.00651 -0.00107349 0)
(0.988582 -0.00813472 0)
(1.0052 -0.00663142 0)
(1.01539 -0.00730767 0)
(0.996438 -0.0075286 0)
(0.9811 -0.00834883 0)
(0.981603 -0.00950161 0)
(0.984043 -0.00946153 0)
(0.986791 -0.00992515 0)
(0.991778 -0.0110715 0)
(0.995591 -0.0122188 0)
(0.997759 -0.0132918 0)
(0.998879 -0.0146462 0)
(0.999118 -0.0163432 0)
(0.99927 -0.0177545 0)
(0.999931 -0.0185155 0)
(1.00106 -0.0187092 0)
(1.00232 -0.0185463 0)
(1.00348 -0.0180992 0)
(1.00448 -0.017453 0)
(1.00535 -0.016659 0)
(1.00609 -0.0156872 0)
(1.00668 -0.0145659 0)
(1.00714 -0.0133018 0)
(1.00745 -0.0119086 0)
(1.00762 -0.010405 0)
(1.00768 -0.00880237 0)
(1.00766 -0.00710065 0)
(1.00761 -0.00526315 0)
(1.00756 -0.00325618 0)
(1.00752 -0.00111354 0)
(0.991081 -0.0293691 0)
(0.969331 -0.0328043 0)
(0.962372 -0.0334479 0)
(0.996167 -0.033817 0)
(1.01993 -0.0344042 0)
(1.01193 -0.0355003 0)
(0.997007 -0.0362412 0)
(0.991492 -0.0360449 0)
(0.992493 -0.0352354 0)
(0.993631 -0.0343056 0)
(0.993933 -0.0336552 0)
(0.994513 -0.0328821 0)
(0.995821 -0.0319566 0)
(0.997579 -0.030766 0)
(0.999339 -0.0292805 0)
(1.00101 -0.0277554 0)
(1.00256 -0.0262807 0)
(1.00397 -0.0247451 0)
(1.00523 -0.0231266 0)
(1.0063 -0.021443 0)
(1.00718 -0.0196758 0)
(1.00787 -0.0178588 0)
(1.00836 -0.0159895 0)
(1.00867 -0.014071 0)
(1.00881 -0.0121126 0)
(1.0088 -0.0101192 0)
(1.0087 -0.00808402 0)
(1.00857 -0.00594975 0)
(1.00845 -0.00366276 0)
(1.0084 -0.00124956 0)
(0.984342 -0.0146256 0)
(1.00171 -0.0135626 0)
(1.0074 -0.015659 0)
(0.99099 -0.017092 0)
(0.982905 -0.0168229 0)
(0.985135 -0.0163751 0)
(0.984616 -0.0158504 0)
(0.985455 -0.0163294 0)
(0.990617 -0.0174744 0)
(0.994897 -0.0190808 0)
(0.996745 -0.020878 0)
(0.997615 -0.0224397 0)
(0.998665 -0.0238845 0)
(1.00012 -0.0247823 0)
(1.00168 -0.0248733 0)
(1.00315 -0.0244034 0)
(1.00448 -0.0236376 0)
(1.00568 -0.022667 0)
(1.00673 -0.0215435 0)
(1.00763 -0.0202892 0)
(1.00837 -0.0188851 0)
(1.00896 -0.0173599 0)
(1.00939 -0.0157105 0)
(1.00967 -0.01395 0)
(1.0098 -0.012094 0)
(1.0098 -0.0101552 0)
(1.00969 -0.00814998 0)
(1.00956 -0.00603032 0)
(1.00947 -0.00373464 0)
(1.00943 -0.00127732 0)
(0.986038 -0.0364805 0)
(0.965865 -0.0391118 0)
(0.958654 -0.0380349 0)
(0.989842 -0.0390783 0)
(1.01263 -0.0420604 0)
(1.00771 -0.044049 0)
(0.996061 -0.0447323 0)
(0.990967 -0.0446024 0)
(0.991411 -0.0435757 0)
(0.993094 -0.0421851 0)
(0.99404 -0.0407859 0)
(0.994837 -0.0391734 0)
(0.996544 -0.0375097 0)
(0.999091 -0.0357624 0)
(1.0016 -0.0339125 0)
(1.00363 -0.0320465 0)
(1.00523 -0.0301768 0)
(1.0066 -0.0282652 0)
(1.00781 -0.0263077 0)
(1.00883 -0.0243114 0)
(1.00966 -0.0222528 0)
(1.01029 -0.0201492 0)
(1.01072 -0.0179914 0)
(1.01096 -0.0157863 0)
(1.01103 -0.0135404 0)
(1.01096 -0.0112627 0)
(1.01076 -0.00896845 0)
(1.01053 -0.00660337 0)
(1.01037 -0.00408187 0)
(1.01031 -0.00138944 0)
(0.980341 -0.0223579 0)
(0.997155 -0.0231094 0)
(1.00345 -0.0268875 0)
(0.990458 -0.0268818 0)
(0.985728 -0.0245418 0)
(0.987936 -0.0228332 0)
(0.985782 -0.0217046 0)
(0.985762 -0.0223213 0)
(0.990322 -0.0245662 0)
(0.993776 -0.0275414 0)
(0.995628 -0.0298321 0)
(0.997725 -0.0308043 0)
(1.00015 -0.0309361 0)
(1.00245 -0.0306281 0)
(1.00438 -0.0300184 0)
(1.00592 -0.0291058 0)
(1.0072 -0.0279104 0)
(1.00833 -0.0265078 0)
(1.00933 -0.0249655 0)
(1.01019 -0.023321 0)
(1.01089 -0.0215563 0)
(1.01142 -0.0196873 0)
(1.01178 -0.0177102 0)
(1.01199 -0.0156363 0)
(1.01204 -0.0134764 0)
(1.01196 -0.011243 0)
(1.01176 -0.00897184 0)
(1.01151 -0.00663277 0)
(1.01136 -0.00412649 0)
(1.0113 -0.00140737 0)
(0.979588 -0.0456871 0)
(0.961373 -0.046635 0)
(0.953197 -0.0447625 0)
(0.982501 -0.0476747 0)
(1.00588 -0.0525708 0)
(1.00487 -0.0559293 0)
(0.995563 -0.0566925 0)
(0.989702 -0.0551297 0)
(0.989841 -0.0522524 0)
(0.992626 -0.0495124 0)
(0.995098 -0.0472562 0)
(0.997015 -0.0449901 0)
(0.999141 -0.0425786 0)
(1.00173 -0.0401656 0)
(1.00432 -0.0378678 0)
(1.00643 -0.0356509 0)
(1.00804 -0.0334451 0)
(1.00936 -0.0312225 0)
(1.01049 -0.0289757 0)
(1.01145 -0.0267087 0)
(1.0122 -0.0243921 0)
(1.01276 -0.0220361 0)
(1.01311 -0.0196317 0)
(1.01327 -0.0171835 0)
(1.01326 -0.0146941 0)
(1.0131 -0.0121697 0)
(1.01282 -0.00964428 0)
(1.01247 -0.00710009 0)
(1.01224 -0.00441533 0)
(1.01214 -0.00150106 0)
(0.976788 -0.0315217 0)
(0.993233 -0.034358 0)
(0.999488 -0.0391755 0)
(0.989057 -0.037336 0)
(0.987751 -0.0329529 0)
(0.990782 -0.0301411 0)
(0.987994 -0.0295131 0)
(0.987217 -0.0316584 0)
(0.990854 -0.0348092 0)
(0.994013 -0.0373118 0)
(0.996864 -0.0384194 0)
(1.00025 -0.0381359 0)
(1.00331 -0.0370824 0)
(1.00562 -0.0357856 0)
(1.00741 -0.0344595 0)
(1.00887 -0.0330431 0)
(1.01011 -0.0314488 0)
(1.01119 -0.0296832 0)
(1.01212 -0.0277926 0)
(1.01291 -0.0258208 0)
(1.01353 -0.0237472 0)
(1.01396 -0.0215852 0)
(1.01423 -0.0193323 0)
(1.01433 -0.0169978 0)
(1.01429 -0.0145857 0)
(1.01412 -0.0121023 0)
(1.01383 -0.00959328 0)
(1.01345 -0.00707779 0)
(1.01319 -0.00442631 0)
(1.01308 -0.00151003 0)
(0.972785 -0.0581601 0)
(0.956404 -0.057035 0)
(0.949428 -0.0542195 0)
(0.977914 -0.0590847 0)
(1.00124 -0.0657518 0)
(1.00318 -0.0689203 0)
(0.995819 -0.0677534 0)
(0.989874 -0.0641523 0)
(0.990203 -0.0600561 0)
(0.994072 -0.0565595 0)
(0.997892 -0.0533959 0)
(1.00083 -0.0500984 0)
(1.00325 -0.0469012 0)
(1.00546 -0.0439551 0)
(1.00751 -0.041231 0)
(1.00932 -0.0386636 0)
(1.01084 -0.0361737 0)
(1.0121 -0.033685 0)
(1.01316 -0.0311838 0)
(1.01405 -0.0286764 0)
(1.01474 -0.02613 0)
(1.01521 -0.0235547 0)
(1.01547 -0.0209415 0)
(1.01555 -0.0182929 0)
(1.01545 -0.0156056 0)
(1.01522 -0.0128763 0)
(1.01486 -0.0101441 0)
(1.0144 -0.00744775 0)
(1.01404 -0.00465195 0)
(1.01387 -0.0015864 0)
(0.973636 -0.0425787 0)
(0.990743 -0.0475811 0)
(0.995013 -0.0530644 0)
(0.985887 -0.0487177 0)
(0.989134 -0.0427352 0)
(0.994313 -0.0404793 0)
(0.991314 -0.041109 0)
(0.989583 -0.0432825 0)
(0.992619 -0.0451305 0)
(0.996372 -0.0460145 0)
(1.0002 -0.0456685 0)
(1.0041 -0.0442381 0)
(1.00718 -0.0422977 0)
(1.00919 -0.040219 0)
(1.01066 -0.03823 0)
(1.01192 -0.0363267 0)
(1.01305 -0.0343763 0)
(1.01404 -0.0323071 0)
(1.01489 -0.0301314 0)
(1.0156 -0.0278798 0)
(1.01612 -0.0255359 0)
(1.01646 -0.0231219 0)
(1.01663 -0.0206345 0)
(1.01663 -0.0180839 0)
(1.01649 -0.0154669 0)
(1.01623 -0.0127777 0)
(1.01585 -0.0100581 0)
(1.01538 -0.00738078 0)
(1.01495 -0.00462359 0)
(1.01475 -0.0015842 0)
(0.966694 -0.0740866 0)
(0.952088 -0.0704706 0)
(0.948817 -0.066872 0)
(0.97673 -0.0730697 0)
(0.998501 -0.079531 0)
(1.00297 -0.0809514 0)
(0.997929 -0.0779018 0)
(0.992338 -0.0730185 0)
(0.992947 -0.0680756 0)
(0.997716 -0.0635175 0)
(1.00236 -0.0590034 0)
(1.00565 -0.0545929 0)
(1.00785 -0.0506989 0)
(1.00944 -0.0472626 0)
(1.01092 -0.0441209 0)
(1.01236 -0.0411918 0)
(1.0137 -0.0384141 0)
(1.01485 -0.0356946 0)
(1.01583 -0.0329873 0)
(1.01662 -0.030275 0)
(1.01721 -0.0275304 0)
(1.01759 -0.0247688 0)
(1.01776 -0.0219793 0)
(1.01774 -0.0191666 0)
(1.01756 -0.0163215 0)
(1.01725 -0.0134275 0)
(1.01683 -0.0105149 0)
(1.0163 -0.00766729 0)
(1.01577 -0.00478446 0)
(1.01549 -0.00164092 0)
(0.971998 -0.0572352 0)
(0.990339 -0.0636245 0)
(0.990962 -0.0683946 0)
(0.982906 -0.0614972 0)
(0.991392 -0.054729 0)
(0.998872 -0.052768 0)
(0.995928 -0.0530926 0)
(0.993591 -0.0540035 0)
(0.996586 -0.0541382 0)
(1.00111 -0.0534251 0)
(1.00537 -0.0516596 0)
(1.00892 -0.0491671 0)
(1.01131 -0.0465363 0)
(1.01276 -0.0439616 0)
(1.01385 -0.0414918 0)
(1.01487 -0.0391208 0)
(1.01589 -0.0368027 0)
(1.01682 -0.0344513 0)
(1.0176 -0.0320326 0)
(1.0182 -0.0295436 0)
(1.01862 -0.0269753 0)
(1.01885 -0.024352 0)
(1.01891 -0.0216704 0)
(1.0188 -0.0189437 0)
(1.01856 -0.016164 0)
(1.01822 -0.0133111 0)
(1.01779 -0.0104124 0)
(1.01725 -0.00756765 0)
(1.01664 -0.00471626 0)
(1.0163 -0.00162455 0)
(0.961563 -0.0928499 0)
(0.949728 -0.0864715 0)
(0.952841 -0.0826015 0)
(0.979953 -0.0891084 0)
(0.999267 -0.093685 0)
(1.00561 -0.0925881 0)
(1.00239 -0.0875071 0)
(0.99689 -0.0811207 0)
(0.99749 -0.075035 0)
(1.00274 -0.0692922 0)
(1.00779 -0.0636134 0)
(1.01096 -0.0583193 0)
(1.01259 -0.0538444 0)
(1.0135 -0.0500144 0)
(1.01439 -0.0465484 0)
(1.01544 -0.043323 0)
(1.01656 -0.0402851 0)
(1.0176 -0.0373475 0)
(1.01848 -0.0344476 0)
(1.01915 -0.031553 0)
(1.01962 -0.0286427 0)
(1.01989 -0.0257267 0)
(1.01994 -0.0227929 0)
(1.01982 -0.0198481 0)
(1.01954 -0.0168801 0)
(1.01916 -0.0138593 0)
(1.01869 -0.0107989 0)
(1.01812 -0.00779105 0)
(1.01743 -0.00481911 0)
(1.017 -0.00165894 0)
(0.974009 -0.0764418 0)
(0.992983 -0.083653 0)
(0.988356 -0.0854909 0)
(0.981587 -0.0752984 0)
(0.995119 -0.0676456 0)
(1.00481 -0.0654009 0)
(1.00237 -0.0646652 0)
(0.999761 -0.0637504 0)
(1.00247 -0.0618671 0)
(1.00717 -0.0595183 0)
(1.01123 -0.0565483 0)
(1.01387 -0.0531866 0)
(1.01529 -0.0499663 0)
(1.01616 -0.0469899 0)
(1.01694 -0.0441559 0)
(1.01777 -0.0414258 0)
(1.01867 -0.0388038 0)
(1.01951 -0.0362033 0)
(1.0202 -0.0335635 0)
(1.0207 -0.0308684 0)
(1.021 -0.0281137 0)
(1.02112 -0.025319 0)
(1.02106 -0.0224808 0)
(1.02084 -0.0196127 0)
(1.0205 -0.0167064 0)
(1.02007 -0.0137301 0)
(1.01957 -0.0106909 0)
(1.01901 -0.00767705 0)
(1.01828 -0.00472046 0)
(1.01776 -0.00162544 0)
(0.958283 -0.114298 0)
(0.95258 -0.104997 0)
(0.964253 -0.101574 0)
(0.98872 -0.106508 0)
(1.00414 -0.106935 0)
(1.01112 -0.102238 0)
(1.00883 -0.0949526 0)
(1.00322 -0.087237 0)
(1.00366 -0.0800731 0)
(1.00899 -0.0733793 0)
(1.01386 -0.0669906 0)
(1.01634 -0.06123 0)
(1.01708 -0.0564068 0)
(1.01734 -0.0522923 0)
(1.01778 -0.0485595 0)
(1.01854 -0.0450899 0)
(1.01946 -0.0418304 0)
(1.02034 -0.0386926 0)
(1.02107 -0.0356167 0)
(1.02161 -0.0325646 0)
(1.02195 -0.0295146 0)
(1.02208 -0.0264712 0)
(1.02201 -0.0234207 0)
(1.02177 -0.0203685 0)
(1.02138 -0.0173051 0)
(1.0209 -0.0141924 0)
(1.02037 -0.0110232 0)
(1.0198 -0.00786325 0)
(1.01904 -0.00478262 0)
(1.01842 -0.0016369 0)
(0.98188 -0.101229 0)
(0.998845 -0.1073 0)
(0.988062 -0.1025 0)
(0.983834 -0.0888025 0)
(1.00202 -0.0807753 0)
(1.01331 -0.0776825 0)
(1.01114 -0.0750595 0)
(1.00778 -0.0718658 0)
(1.0096 -0.0679935 0)
(1.01393 -0.0641405 0)
(1.01744 -0.06016 0)
(1.01903 -0.0561823 0)
(1.0194 -0.0525999 0)
(1.01962 -0.0493627 0)