/*--------------------------------*- C++ -*----------------------------------*\
| =========                 |                                                 |
| \\      /  F ield         | OpenFOAM: The Open Source CFD Toolbox           |
|  \\    /   O peration     | Version:                                        |
|   \\  /    A nd           | Website:  www.openfoam.com                      |
|    \\/     M anipulation  |                                                 |
\*---------------------------------------------------------------------------*/
FoamFile
{
    version     2.0;
    format      ascii;
    class       volScalarField;
    location    "65.4";
    object      p;
}
// * * * * * * * * * * * * * * * * * * * * * * * * * * * * * * * * * * * * * //

dimensions      [0 2 -2 0 0 0 0];


internalField   nonuniform List<scalar> 
1150
(
0.190149
0.200079
0.21069
0.187857
0.197448
0.207781
0.18317
0.191569
0.200957
0.175757
0.182452
0.165621
0.170302
0.152799
0.0615522
0.0564085
0.0593078
0.059783
0.0612132
0.0606344
0.0625252
0.0634502
0.064331
0.0653209
0.0678688
0.0695786
0.0713593
0.0738383
0.0768234
0.0798509
0.0831469
0.0869218
0.0914433
0.0964058
0.101762
0.107615
0.114254
0.121526
0.129404
0.137878
0.14709
0.157037
0.167751
0.179235
0.06148
0.0565153
0.0592469
0.0597398
0.0613637
0.0605824
0.0622768
0.0636873
0.0643276
0.0649611
0.0680915
0.0696214
0.0710301
0.0737127
0.0766988
0.0796047
0.0827914
0.0865583
0.0910533
0.0959129
0.101161
0.106927
0.113498
0.120654
0.128438
0.136635
0.145531
0.155133
0.165722
0.17734
0.0613451
0.0566701
0.059161
0.0597047
0.0614706
0.0605193
0.0620608
0.0638848
0.0642731
0.0646464
0.0682992
0.0695908
0.070753
0.073596
0.0765179
0.0793333
0.0824304
0.086121
0.0905441
0.0952567
0.100333
0.105865
0.112288
0.119204
0.126758
0.135209
0.144203
0.153739
0.16378
0.173922
0.0611559
0.0568633
0.0590563
0.0596754
0.0615347
0.0604349
0.0618954
0.0640403
0.0641583
0.0644317
0.0684727
0.0694336
0.0705451
0.0734524
0.07625
0.079053
0.0820297
0.0856598
0.0900815
0.0946501
0.099645
0.105095
0.111278
0.118042
0.125325
0.132624
0.140848
0.149464
0.158733
0.168129
0.0609174
0.0571013
0.0589311
0.0597426
0.0615505
0.0603386
0.0617789
0.064162
0.0639803
0.0642592
0.0685677
0.0692084
0.0704154
0.0733021
0.0759099
0.078722
0.0815108
0.0849241
0.0892838
0.0936613
0.0983747
0.103517
0.109472
0.115304
0.121836
0.128628
0.136178
0.143935
0.152251
0.160163
0.0606439
0.0573532
0.0587924
0.0597514
0.0615237
0.060221
0.0617358
0.0642762
0.0637405
0.0641985
0.0685973
0.0688558
0.0703949
0.0731385
0.0756609
0.0785357
0.0811579
0.0846397
0.0889727
0.0930239
0.0975297
0.102352
0.107751
0.113051
0.119077
0.124956
0.131546
0.137836
0.144501
0.150138
0.0603375
0.0576404
0.0586483
0.0597794
0.0614437
0.0601091
0.0617183
0.0644576
0.0634562
0.0643126
0.0685178
0.0684834
0.0703694
0.0726891
0.0752197
0.0781461
0.0803271
0.0837052
0.0877641
0.0915354
0.0956856
0.0998909
0.104858
0.109292
0.114541
0.11927
0.124591
0.129272
0.134232
0.137434
0.0600145
0.0579395
0.0585244
0.0597833
0.0613168
0.0600246
0.0617876
0.0646314
0.0631771
0.0645036
0.0683712
0.0681108
0.0705937
0.0726116
0.0752699
0.0779739
0.0799433
0.0835539
0.0876667
0.0909359
0.0947989
0.0986154
0.102855
0.106552
0.110857
0.114105
0.117852
0.120181
0.122578
0.0596784
0.0582464
0.0584389
0.0597563
0.0611437
0.0600033
0.0618011
0.0645578
0.0628739
0.0647806
0.0680199
0.0677928
0.070578
0.0719487
0.0749943
0.077227
0.0788121
0.0827755
0.0859523
0.0890348
0.0923898
0.0956999
0.0991148
0.101847
0.105101
0.106686
0.108826
0.10882
0.108698
0.059354
0.0585272
0.0584165
0.0596864
0.0609148
0.0600319
0.061938
0.064476
0.0626687
0.0651496
0.0677726
0.0676535
0.0706096
0.0719274
0.0754154
0.0770641
0.0789839
0.0829635
0.0858112
0.0883671
0.0915299
0.0941701
0.0966184
0.0983257
0.100095
0.099588
0.0993578
0.0959047
0.0590563
0.0587804
0.0584212
0.0595985
0.0606401
0.0600388
0.0619505
0.0643476
0.0624699
0.0653287
0.0672579
0.0675584
0.0701433
0.0711194
0.0749733
0.0758829
0.0782958
0.0815811
0.0834883
0.0863698
0.0884089
0.0908346
0.0915558
0.0935081
0.0927787
0.0917854
0.0895002
0.0847319
0.0587722
0.0591442
0.0584576
0.0595538
0.0603626
0.0600683
0.0615821
0.0641644
0.0622481
0.065341
0.0666696
0.0674718
0.0694571
0.0705472
0.0737906
0.0747554
0.0766707
0.0798105
0.0810458
0.0839036
0.0850843
0.0866609
0.0869213
0.0876161
0.085602
0.0842055
0.0798427
0.0741744
0.0585001
0.0593113
0.0585326
0.0595697
0.0601393
0.0600604
0.0614243
0.0639383
0.0620177
0.0652498
0.0661612
0.0671979
0.0689451
0.0700192
0.0727405
0.0738508
0.0750541
0.0782587
0.0788008
0.0809322
0.0819801
0.0823615
0.0822901
0.08164
0.0792219
0.0765453
0.0715147
0.0656582
0.0582379
0.0594049
0.058637
0.0596366
0.0599517
0.0600354
0.0612632
0.0635651
0.061831
0.0650208
0.0656825
0.0667383
0.0684394
0.0693388
0.0717593
0.0727369
0.0734345
0.07636
0.0764623
0.0777241
0.0787691
0.0779777
0.0774794
0.0761523
0.0730371
0.0694908
0.064681
0.0589466
0.0580088
0.0594131
0.0587608
0.0596804
0.0598114
0.0599545
0.0611566
0.0630615
0.0617352
0.0646163
0.0653214
0.0660981
0.0678201
0.0685846
0.0705874
0.0714238
0.0719024
0.0740997
0.0741609
0.0744582
0.0752999
0.0738819
0.0726696
0.0709268
0.0674242
0.0635384
0.058938
0.0534318
0.0578168
0.0593232
0.0588962
0.0596683
0.0596935
0.0598053
0.0611079
0.0624625
0.0617119
0.0640185
0.0649086
0.0653735
0.0669481
0.0678295
0.069199
0.0699253
0.0703555
0.0716854
0.0717829
0.0712229
0.0716964
0.0700954
0.06803
0.0659997
0.0625399
0.0584622
0.0540006
0.0489826
0.0576688
0.0591204
0.0590338
0.0595964
0.0595257
0.0596416
0.0609917
0.0618371
0.0616607
0.0634805
0.0643493
0.0647072
0.0657059
0.0669951
0.0678405
0.068181
0.0687659
0.0693042
0.0692633
0.0681123
0.0679886
0.0664661
0.0638811
0.0614732
0.0582004
0.0541479
0.049933
0.0454131
0.0575662
0.0588253
0.0591212
0.0595231
0.0592676
0.059495
0.0608398
0.0612144
0.0615181
0.06296
0.0636113
0.0640747
0.0645033
0.0659699
0.0665664
0.0663465
0.0669054
0.0669585
0.066674
0.0651563
0.0643714
0.0629878
0.0602877
0.0574536
0.0543253
0.050591
0.0466924
0.0425763
0.0575072
0.0585235
0.0591057
0.0594565
0.0589842
0.0593484
0.0606486
0.0605878
0.0612322
0.0624545
0.0627691
0.0634017
0.0633969
0.0646935
0.0652821
0.0645791
0.064796
0.0646159
0.0641221
0.0624376
0.0610904
0.0596248
0.0570988
0.0541086
0.0510641
0.047703
0.0441246
0.0403872
0.0574077
0.0582618
0.0589855
0.059364
0.0587217
0.0591734
0.0604111
0.0599411
0.0608075
0.0619829
0.0618476
0.0625762
0.0623902
0.0632744
0.0638277
0.0628903
0.0626562
0.0622846
0.0616281
0.0599211
0.0581987
0.0565568
0.0543132
0.0514464
0.0484368
0.0453023
0.0420584
0.0387694
0.0572844
0.0580165
0.058789
0.0592358
0.0584728
0.058936
0.0601216
0.0593332
0.0602382
0.0614542
0.0609852
0.0615942
0.0614149
0.0618015
0.0621793
0.0612555
0.0606777
0.0600549
0.0592247
0.0575616
0.0557129
0.0539085
0.051863
0.0492427
0.0463405
0.0434191
0.0405344
0.0376884
0.0571598
0.0577904
0.0585235
0.0590459
0.058239
0.0586569
0.0597732
0.0587609
0.0595407
0.0608629
0.0601878
0.060437
0.0603726
0.0604603
0.060478
0.0595598
0.058824
0.0580255
0.0570103
0.0553695
0.0535269
0.0516864
0.0497626
0.0474044
0.0447554
0.0420724
0.0394772
0.0369814
0.0570283
0.0575841
0.0581821
0.0587919
0.0580353
0.058328
0.059357
0.0582464
0.0587382
0.060134
0.059444
0.0592302
0.059202
0.0591969
0.0588382
0.0578486
0.0570528
0.0561851
0.0550556
0.0533928
0.0516009
0.0498338
0.0480369
0.0459308
0.0435666
0.0411356
0.0387965
0.0366216
0.0568662
0.0573869
0.0578235
0.0584138
0.0578198
0.0580113
0.0588822
0.0577333
0.0579227
0.0592798
0.058705
0.0580584
0.0579014
0.0579336
0.0574001
0.0562412
0.055316
0.0544684
0.0533386
0.0516956
0.0499564
0.0482778
0.0466449
0.0447919
0.0427237
0.0405662
0.0384762
0.0365631
0.0566709
0.0571839
0.0574813
0.0579075
0.0575576
0.0577097
0.0583424
0.0572319
0.0571184
0.0582505
0.0579189
0.057032
0.0565667
0.0566075
0.0561001
0.0548176
0.053687
0.0528437
0.0518319
0.0503123
0.0486071
0.04698
0.0455279
0.0439385
0.0421664
0.0402794
0.0384157
0.0367225
0.0564418
0.0569407
0.057162
0.057384
0.0571744
0.0573875
0.0578241
0.0567156
0.0562796
0.0571365
0.0570698
0.0561098
0.05531
0.0552414
0.0548415
0.0536058
0.0522821
0.0513452
0.0504774
0.0491369
0.0475382
0.0459905
0.0446497
0.0432822
0.0417944
0.0401959
0.0385685
0.0370709
0.0561825
0.0566523
0.0568486
0.0568948
0.0566942
0.0570025
0.0573037
0.0561883
0.0554907
0.0559902
0.0560715
0.0552596
0.0542408
0.0539129
0.0535691
0.0525279
0.0511306
0.050044
0.0492409
0.0481331
0.0467302
0.0452722
0.0439935
0.0427924
0.0415515
0.0402335
0.0388514
0.0375405
0.0559019
0.0561953
0.0564839
0.0564485
0.0561745
0.0564967
0.0567634
0.055704
0.0547524
0.0548431
0.0549905
0.0544279
0.0533313
0.052712
0.0523088
0.0514942
0.0502183
0.0490158
0.0481666
0.0472461
0.0460599
0.0447578
0.0435624
0.0424677
0.0414105
0.0403271
0.0391946
0.0380782
0.0556175
0.0558239
0.0560711
0.0560261
0.0556686
0.0558937
0.0561564
0.0552317
0.0541131
0.0538119
0.0538829
0.0535238
0.0525261
0.0516987
0.0511494
0.050493
0.0494353
0.0482228
0.0472898
0.0464704
0.0454942
0.0443862
0.043303
0.0422989
0.0413699
0.0404637
0.0395443
0.03862
0.0553202
0.0554411
0.0556147
0.0555796
0.0551924
0.055244
0.0554585
0.0547321
0.0535876
0.0529304
0.0528008
0.052573
0.0517605
0.0508562
0.0501628
0.0495477
0.0486951
0.0476142
0.0466484
0.0458461
0.0450131
0.0440854
0.043151
0.0422524
0.041424
0.0406427
0.0398841
0.0391331
0.0550005
0.0550555
0.0551335
0.055093
0.0547295
0.0546092
0.0546899
0.0541528
0.0531227
0.052218
0.0518424
0.0516289
0.0510024
0.0501473
0.0493578
0.0487178
0.0480102
0.0471066
0.0461797
0.0453766
0.044628
0.0438477
0.0430605
0.0422786
0.0415454
0.0408603
0.0402198
0.0396068
0.0546694
0.0546709
0.0546515
0.0545793
0.0542573
0.0540069
0.0539081
0.0534892
0.0526385
0.0516588
0.0510586
0.0507632
0.0502679
0.0495219
0.048717
0.0480399
0.0473952
0.0466413
0.045822
0.0450545
0.0443555
0.0436728
0.0430034
0.0423376
0.0417007
0.0411025
0.040551
0.0400414
0.0543229
0.0542899
0.0541885
0.054056
0.0537604
0.0534382
0.0531709
0.05277
0.0520983
0.0511896
0.0504547
0.050034
0.049586
0.0489537
0.0482002
0.0475072
0.0468823
0.0462311
0.0455291
0.0448302
0.0441783
0.0435629
0.04298
0.0424109
0.041864
0.0413472
0.0408721
0.0404433
0.0539623
0.053903
0.0537472
0.0535456
0.0532499
0.052897
0.0525128
0.0520763
0.0515248
0.0507467
0.0499869
0.0494559
0.0489938
0.0484424
0.0477679
0.0470966
0.0464838
0.0458912
0.0452834
0.0446678
0.0440743
0.0435136
0.0429918
0.0424956
0.0420245
0.0415809
0.041174
0.040812
0.0535943
0.0535158
0.0533253
0.0530684
0.0527525
0.0523828
0.0519404
0.051468
0.0509649
0.0503057
0.0495951
0.0490112
0.0485151
0.0480013
0.0474019
0.0467799
0.0461901
0.0456331
0.0450882
0.0445451
0.0440137
0.0435061
0.0430341
0.0425923
0.0421798
0.0417966
0.0414488
0.0411444
0.0532292
0.0531352
0.0529273
0.0526368
0.0522948
0.0519103
0.0514478
0.0509484
0.0504565
0.0498832
0.0492496
0.0486666
0.0481506
0.0476549
0.0471165
0.0465514
0.0459955
0.0454652
0.0449569
0.0444608
0.0439767
0.0435125
0.0430799
0.0426799
0.0423139
0.0419817
0.0416874
0.0414369
0.0528826
0.0527775
0.0525623
0.0522559
0.0518934
0.0514929
0.0510227
0.0505128
0.0500201
0.0494991
0.0489372
0.0483919
0.0478911
0.0474195
0.0469333
0.0464264
0.0459146
0.0454133
0.0449278
0.0444544
0.0439919
0.0435461
0.043129
0.0427463
0.0424017
0.0420967
0.041835
0.0416228
0.0525744
0.0524637
0.0522456
0.0519348
0.0515602
0.0511433
0.050669
0.0501587
0.0496616
0.0491652
0.0486526
0.0481498
0.0476833
0.0472541
0.0468341
0.0464044
0.0459625
0.0455127
0.0450607
0.0446081
0.0441565
0.0437122
0.0432858
0.0428858
0.0425202
0.0421954
0.041918
0.0416951
0.052335
0.0522187
0.0519985
0.0516877
0.0513088
0.0508799
0.0504034
0.0498958
0.0493974
0.0489178
0.0484425
0.0479749
0.0475296
0.0471099
0.0467024
0.0462961
0.0458918
0.0454971
0.0451178
0.0447561
0.0444116
0.0440825
0.043766
0.0434578
0.0431535
0.0428505
0.0425487
0.0422523
0.0521972
0.0520734
0.0518497
0.0515398
0.051163
0.0507346
0.0502663
0.0497737
0.0492845
0.0488136
0.0483503
0.0478934
0.0474544
0.0470377
0.0466377
0.0462474
0.0458673
0.045502
0.0451545
0.0448253
0.0445126
0.0442154
0.0439328
0.0436624
0.0433998
0.0431385
0.042871
0.0425891
)
;

boundaryField
{
    outlet
    {
        type            fixedValue;
        value           nonuniform 0();
    }
    upperWall
    {
        type            symmetryPlane;
    }
    lowerWall
    {
        type            symmetryPlane;
    }
    inlet
    {
        type            zeroGradient;
    }
    cylinder
    {
        type            zeroGradient;
    }
    frontAndBack
    {
        type            empty;
    }
    procBoundary4to0
    {
        type            processor;
        value           nonuniform List<scalar> 
33
(
0.190289
0.199843
0.21003
0.0615562
0.0563506
0.0593455
0.0598294
0.0610193
0.0606845
0.0627795
0.063174
0.064294
0.0656509
0.0676339
0.0694732
0.0716674
0.07391
0.0768464
0.0799778
0.0833879
0.0871116
0.0916215
0.096615
0.102024
0.107883
0.114523
0.121797
0.129721
0.138253
0.147539
0.157506
0.168196
0.1796
)
;
    }
    procBoundary4to5
    {
        type            processor;
        value           nonuniform List<scalar> 
45
(
0.2223
0.21907
0.211524
0.190432
0.190432
0.176749
0.155143
0.155143
0.137324
0.137324
0.122476
0.122476
0.105051
0.0919846
0.0919846
0.0767505
0.0657394
0.05834
0.0523491
0.0475458
0.0437648
0.0407642
0.0384357
0.0366845
0.0354872
0.0348012
0.0344809
0.0344954
0.0347487
0.0351771
0.035736
0.0363764
0.0370692
0.0377642
0.0384268
0.0390358
0.0395805
0.0400684
0.0405052
0.0408946
0.0412402
0.0414691
0.0415348
0.0419688
0.0422849
)
;
    }
}


// ************************************************************************* //
