/*--------------------------------*- C++ -*----------------------------------*\
| =========                 |                                                 |
| \\      /  F ield         | OpenFOAM: The Open Source CFD Toolbox           |
|  \\    /   O peration     | Version:                                        |
|   \\  /    A nd           | Website:  www.openfoam.com                      |
|    \\/     M anipulation  |                                                 |
\*---------------------------------------------------------------------------*/
FoamFile
{
    version     2.0;
    format      ascii;
    class       surfaceScalarField;
    location    "118.3";
    object      phi;
}
// * * * * * * * * * * * * * * * * * * * * * * * * * * * * * * * * * * * * * //

dimensions      [0 3 -1 0 0 0 0];
oriented        oriented;


internalField   nonuniform List<scalar> 
2213
(
-0.000121306
0.00188026
-0.00175895
0.000508695
0.000719672
-0.00134967
0.00637314
-0.010649
0.00478452
0.0116923
-0.021908
0.0165888
0.0148369
-0.0277753
0.0246307
0.0165516
-0.030584
0.0288693
0.017459
-0.0318161
0.0309087
0.0178447
-0.0322658
0.0318801
0.0178748
-0.0323243
0.0322942
-0.0322376
-0.000304752
0.00218501
0.00271368
-0.00229876
0.00901884
-0.0169541
0.012616
-0.0255051
0.0147009
-0.0298602
0.0157207
-0.0316038
0.0160702
-0.0321657
0.0161344
-0.03233
0.0162107
-0.0324005
0.0164301
-0.032457
0.0167508
-0.0324655
-0.0325086
-0.000938662
0.00312368
0.00448255
-0.00771997
0.0095263
-0.0219979
0.0124947
-0.0284736
0.013821
-0.0311864
0.0143526
-0.0321355
0.0146543
-0.0324674
0.0149597
-0.0326354
0.015334
-0.0327748
0.0157586
-0.0328816
0.0163204
-0.0330273
0.0170231
-0.0332114
0.0175903
-0.0331811
-0.0333289
0.00063354
0.00249014
0.00692897
-0.0140154
0.00995537
-0.0250243
0.011773
-0.0302913
0.0126636
-0.032077
0.0131271
-0.032599
0.0134617
-0.0328019
0.0137598
-0.0329334
0.0140122
-0.0330273
0.0142694
-0.0331388
0.0145657
-0.0333235
0.0148075
-0.0334532
0.0153757
-0.0337493
0.0159596
-0.0339127
0.0164635
-0.0340083
0.0173515
-0.0343943
-0.034803
0.00195645
0.000533683
0.00714704
-0.019206
0.00998844
-0.0278657
0.0110864
-0.0313892
0.0115066
-0.0324973
0.0116801
-0.0327725
0.0117621
-0.0328839
0.0118104
-0.0329817
0.0119114
-0.0331282
0.0121216
-0.0333491
0.0123856
-0.0335875
0.0128416
-0.0339092
0.013225
-0.0341327
0.013739
-0.0344267
0.0146524
-0.0349217
0.0156046
-0.0353465
0.0165742
-0.0357725
0.0177236
-0.0362626
0.0187551
-0.0366843
-0.0370469
0.00312916
-0.00259548
0.0071999
-0.0232767
0.0093193
-0.0299851
0.00997421
-0.0320441
0.0100739
-0.0325969
0.0100875
-0.0327862
0.0101653
-0.0329618
0.0103246
-0.033141
0.0105353
-0.0333389
0.0107714
-0.0335852
0.0111314
-0.0339475
0.0115093
-0.034287
0.012038
-0.0346614
0.012642
-0.0350307
0.0130984
-0.0353782
0.0136541
-0.0359022
0.0143688
-0.0364872
0.0151348
-0.0370287
0.0160673
-0.0376167
-0.0382013
0.0172217
0.00465817
-0.00725365
0.00725789
-0.0258764
0.00829221
-0.0310194
0.00848802
-0.0322399
0.00844203
-0.0325509
0.00841457
-0.0327587
0.00844532
-0.0329925
0.00852406
-0.0332198
0.00864769
-0.0334625
0.00882382
-0.0337613
0.00896499
-0.0340887
0.00910987
-0.0344319
0.00926138
-0.0348129
0.00951423
-0.0352836
0.0100211
-0.0358851
0.0105546
-0.0364357
0.0110296
-0.0369622
0.0115311
-0.0375302
0.0121062
-0.0381918
-0.038849
0.0127539
0.0047171
-0.0119707
0.00615489
-0.0273142
0.00651611
-0.0313806
0.00667039
-0.0323942
0.00672512
-0.0326056
0.0066982
-0.0327318
0.00663115
-0.0329255
0.00654106
-0.0331297
0.00646395
-0.0333854
0.00642412
-0.0337215
0.00646647
-0.034131
0.00660756
-0.034573
0.00679335
-0.0349987
0.00696467
-0.0354549
0.00711411
-0.0360346
0.00744097
-0.0367625
0.00795006
-0.0374712
0.00854183
-0.038122
0.0091006
-0.0387506
-0.039436
0.00968759
0.00330343
-0.0152742
0.00496764
-0.0289784
0.00527915
-0.0316921
0.00521825
-0.0323333
0.00509543
-0.0324828
0.00498664
-0.032623
0.00489707
-0.0328359
0.00483521
-0.0330678
0.00479572
-0.0333459
0.00476325
-0.033689
0.00474599
-0.0341138
0.00469368
-0.0345207
0.0046939
-0.0349989
0.00483237
-0.0355933
0.00503307
-0.0362353
0.00509456
-0.036824
0.00503823
-0.0374149
0.00504535
-0.0381291
0.00524895
-0.0389542
-0.0397433
0.00555629
0.00261794
-0.0178921
0.00369051
-0.030051
0.00376818
-0.0317698
0.00364673
-0.0322118
0.00349703
-0.0323331
0.00331573
-0.0324417
0.0031067
-0.0326269
0.00287008
-0.0328312
0.0026285
-0.0331043
0.00240587
-0.0334664
0.00216589
-0.0338738
0.00196323
-0.034318
0.00173364
-0.0347693
0.00143316
-0.0352929
0.00117911
-0.0359812
0.0011184
-0.0367633
0.00121046
-0.037507
0.00129577
-0.0382144
0.00130457
-0.038963
0.00147151
-0.0399103
0.000531335
0.0114207
0.000490022
0.0128561
0.00981358
0.00133145
0.0100892
0.00215969
0.0120279
0.00287138
0.00910188
0.00411388
0.00203927
0.00804998
0.00354523
0.0105219
0.00476375
0.00788335
0.00306633
0.00249264
0.00555734
0.00462056
0.00839401
0.00628831
0.00621561
0.00175538
0.00247446
0.00308288
0.00490219
0.00596628
0.00682907
0.00428872
0.000268071
0.00178481
0.00129807
0.0040667
0.00368439
0.00598933
0.0023661
0.00749982
-0.00124242
-0.00584554
0.000711956
0.00058611
0.00237273
0.00202362
0.00393075
0.000808078
0.00499058
-0.00230225
0.00722473
-0.00807969
-0.0167213
-0.000189147
0.000775256
0.000567283
0.00126719
0.00143327
-5.7911e-05
0.00369159
-0.00456057
0.00920526
-0.0135934
0.0151089
-0.0226249
-0.0283667
-0.000559464
0.00133472
-0.000457855
0.00116558
0.000695781
-0.00121155
0.00606316
-0.00992795
0.0125957
-0.0201259
0.0165997
-0.026629
0.0181285
-0.0298956
-0.0313048
-0.000424234
-0.000608331
0.00296464
0.00962552
0.0141304
0.0163708
0.0173839
0.0179592
0.0519718
0.00121092
-0.0517112
0.0522881
0.00523999
0.0521353
0.00984033
0.0520164
0.0128728
0.0176006
0.0543252
0.00108948
-0.0542038
0.0545158
0.00504934
0.0544898
0.00986638
0.0542135
0.0131491
0.0178408
0.0571507
0.00108967
-0.0571509
0.0571682
0.00503179
0.0571612
0.00987336
0.0569233
0.013387
0.0182364
0.0601115
0.00110688
-0.0601287
0.0601267
0.00501657
0.0600731
0.00992693
0.0601384
0.0133217
0.0186776
0.0633841
0.00123706
-0.0635142
0.06348
0.00492062
0.0633273
0.0100796
0.0635685
0.0130805
0.0632754
0.0189707
0.0208294
0.0671408
0.00146831
-0.0673721
0.0672451
0.00481632
0.0670058
0.0103189
0.0671663
0.01292
0.0671009
0.0190361
0.0209685
0.0713455
0.00176665
-0.0716438
0.0713751
0.00478675
0.0711953
0.0104987
0.0711736
0.0129417
0.0713474
0.0188623
0.0210877
0.076042
0.00200257
-0.0762779
0.0759472
0.00488158
0.0759183
0.0105276
0.0757769
0.0130831
0.0760808
0.0185584
0.0211464
0.0811319
0.00211256
-0.0812419
0.0809773
0.0050362
0.0810866
0.0104183
0.0809221
0.0132476
0.0812296
0.0182509
0.0211901
0.0865724
0.00210977
-0.0865696
0.0864147
0.00519388
0.0865877
0.0102453
0.0864762
0.0133591
0.0867621
0.0179651
0.021152
0.092367
0.00205046
-0.0923076
0.0922393
0.00532155
0.0924566
0.0100279
0.0924532
0.0133625
0.0927841
0.0176342
0.02095
0.0985902
0.0019584
-0.0984982
0.0985317
0.00538007
0.0987901
0.00976958
0.0989462
0.0132064
0.0993397
0.0172407
0.0205802
0.105247
0.00185175
-0.10514
0.105264
0.00536327
0.105548
0.00948518
0.105803
0.012952
0.106184
0.0168598
0.0201699
0.112304
0.00176007
-0.112212
0.112371
0.00529608
0.112645
0.00921195
0.112957
0.0126391
0.113394
0.0164232
0.0195688
0.119814
0.00168458
-0.119739
0.119944
0.00516688
0.120262
0.00889318
0.120694
0.0122078
0.121285
0.0158315
0.0188433
0.127875
0.00159922
-0.12779
0.12806
0.00498224
0.128428
0.0085251
0.128895
0.0117408
0.129492
0.0152343
0.0181905
0.136484
0.00151861
-0.136403
0.136689
0.00477706
0.137069
0.00814539
0.137556
0.0112534
0.138231
0.0145588
0.0173882
0.145708
0.00143275
-0.145622
0.145944
0.00454094
0.146378
0.00771169
0.146946
0.0106854
0.147727
0.0137772
0.0165114
0.155588
0.00133574
-0.155491
0.155854
0.0042755
0.15632
0.00724483
0.156925
0.0100809
0.157733
0.0129696
0.0156031
0.166136
0.00123569
-0.166036
0.166419
0.00399224
0.166911
0.00675287
0.167566
0.00942561
0.168438
0.0120974
0.0145887
0.177433
0.00113547
-0.177333
0.177736
0.00368929
0.178258
0.00623121
0.178967
0.00871613
0.179892
0.0111725
0.0135009
0.189559
0.00103181
-0.189455
0.189878
0.00337012
0.190421
0.00568824
0.191171
0.00796583
0.192143
0.0102005
0.012348
0.202538
0.00092313
-0.202429
0.202875
0.00303261
0.203447
0.00511607
0.204244
0.00716876
0.205263
0.00918149
0.011126
0.216403
0.000806166
-0.216287
0.216766
0.00267031
0.217371
0.00451084
0.218213
0.0063269
0.219289
0.00810535
0.00983
0.231218
0.000682854
-0.231094
0.2316
0.00228801
0.23224
0.00387099
0.233132
0.00543465
0.234274
0.00696335
0.00844839
0.24706
0.000554534
-0.246932
0.247469
0.00187878
0.248153
0.00318757
0.249108
0.00447998
0.25033
0.0057411
0.00696843
0.264027
0.000419014
-0.263892
0.264461
0.0014455
0.265188
0.00246025
0.266205
0.00346268
0.267506
0.00444009
0.0053924
0.282216
0.000282971
-0.28208
0.282668
0.000992907
0.283436
0.00169246
0.284517
0.00238187
0.285903
0.00305441
0.00371027
0.301714
0.000146667
-0.301577
0.302195
0.000511486
0.303015
0.000872501
0.304168
0.00122905
0.305646
0.0015765
0.00191499
0.322598
-0.322451
0.32311
0.323982
0.325211
0.326788
0.0332287
0.0304736
-0.0291008
-0.0346015
0.0313477
0.0298385
-0.0279575
0.0292719
0.029128
-0.0270522
0.0271903
0.0284367
-0.0263552
0.0253017
0.0277007
-0.025812
0.0235261
0.0271756
-0.0254001
0.021609
0.0267953
-0.0248782
0.0196549
0.0263025
-0.0243483
0.0178431
0.0257925
-0.0239807
0.0161713
0.0254118
-0.02374
0.0145117
0.0251709
-0.0235113
0.0127986
0.0249972
-0.023284
0.011072
0.0248325
-0.0231059
0.00937018
0.0247192
-0.0230174
0.00770322
0.0246944
-0.0230275
0.00606449
0.0247918
-0.0231531
0.00445821
0.0249539
-0.0233476
0.00287178
0.0251937
-0.0236073
0.00128673
0.0257571
-0.024172
0.0211957
-0.019909
0.02972
0.0321603
-0.0314067
0.0281342
0.0314243
0.0264737
0.0307885
0.0246414
0.0302691
0.022718
0.0296241
0.0209941
0.0288995
0.019408
0.0283814
0.0177472
0.0279633
0.0160553
0.0274844
0.0144174
0.0270497
0.012868
0.0267202
0.0113643
0.0265009
0.00987659
0.0263202
0.00839904
0.0261967
0.00692918
0.0261643
0.00542974
0.0262913
0.00389506
0.0264886
0.00236581
0.026723
0.000857343
0.0272655
0.0220531
0.0267548
0.0342783
-0.0288728
0.0248206
0.0333585
0.023236
0.0323732
0.021861
0.031644
0.0203899
0.0310953
0.0188219
0.0304675
0.0173217
0.0298816
0.0158649
0.0294201
0.0143845
0.0289648
0.0129332
0.028501
0.0115244
0.0281289
0.0101262
0.0278992
0.0087182
0.0277282
0.00731653
0.0275984
0.00595394
0.0275269
0.00462942
0.0276158
0.00327488
0.0278431
0.00192672
0.0280712
0.000705897
0.0284864
0.022759
0.0237315
0.0355701
-0.0250234
0.0221505
0.0349395
0.0204299
0.0340937
0.0189013
0.0331727
0.0175138
0.0324827
0.0161645
0.0318168
0.0148627
0.0311835
0.0135832
0.0306996
0.0122996
0.0302484
0.0110037
0.029797
0.00973016
0.0294025
0.0084999
0.0291294
0.00729803
0.0289301
0.00610623
0.0287902
0.00493137
0.0287017
0.00379658
0.0287506
0.00269831
0.0289414
0.00152557
0.0292439
0.000362901
0.029649
0.0231219
0.0195609
0.0368752
-0.020866
0.018636
0.0358644
0.0174449
0.0352848
0.0161528
0.0344647
0.0149511
0.0336844
0.0137255
0.0330424
0.0125379
0.0323711
0.0114057
0.0318318
0.0102829
0.0313712
0.00918156
0.0308983
0.00812339
0.0304606
0.00707548
0.0301773
0.00601991
0.0299857
0.00495822
0.0298519
0.00390567
0.0297543
0.00287749
0.0297788
0.0018964
0.0299225
0.000875701
0.0302646
4.52883e-05
0.0304794
0.0231672
0.0162323
0.0382437
-0.0176008
0.015035
0.0370618
0.014131
0.0361888
0.0130414
0.0355544
0.0119816
0.0347442
0.0110069
0.0340171
0.0100441
0.0333338
0.00911139
0.0327645
0.00817725
0.0323053
0.00720872
0.0318668
0.00622578
0.0314436
0.00529478
0.0311083
0.00440356
0.0308769
0.00353725
0.0307182
0.00269269
0.0305988
0.00187896
0.0305925
0.00119411
0.0306073
0.000486979
0.0309717
-0.000216571
0.031183
0.0229506
0.0124822
0.0388609
-0.0130994
0.0115413
0.0380026
0.0106592
0.0370709
0.00991036
0.0363032
0.00908138
0.0355731
0.00822463
0.0348739
0.00735929
0.0341992
0.00653258
0.0335912
0.00575636
0.0330816
0.00501777
0.0326054
0.00432364
0.0321377
0.00362771
0.0318043
0.00293338
0.0315712
0.00223629
0.0314153
0.00153598
0.0312992
0.000818133
0.0313103
4.58906e-05
0.0313796
-0.000355118
0.0313727
-0.000621089
0.031449
0.0223295
0.00833205
0.0394695
-0.00894059
0.00780434
0.0385304
0.00720863
0.0376666
0.00657037
0.0369415
0.00596584
0.0361777
0.00545551
0.0353842
0.00496342
0.0346913
0.00442475
0.0341299
0.00383069
0.0336756
0.00319616
0.0332399
0.00251867
0.0328152
0.00188261
0.0324403
0.00129073
0.0321631
0.000730485
0.0319755
0.000216387
0.0318133
-0.000233696
0.0317604
-0.000680033
0.0318259
-0.00104508
0.0317378
-0.0009589
0.0313628
0.0213706
0.00452273
0.0397848
-0.00483811
0.00408206
0.038971
0.00370607
0.0380426
0.00340783
0.0372397
0.00299899
0.0365865
0.00247329
0.0359099
0.00192686
0.0352377
0.00144827
0.0346085
0.00104397
0.0340799
0.000665537
0.0336184
0.000326079
0.0331547
-3.51856e-05
0.0328016
-0.000411536
0.0325394
-0.000783827
0.0323478
-0.00115902
0.0321885
-0.00152174
0.0321231
-0.00179294
0.0320971
-0.00197195
0.0319168
-0.00149591
0.0308867
0.0198747
0.000186623
-0.000312045
0.000194675
2.28513e-05
-0.000244419
-0.000421217
-0.000492523
-0.000547663
-0.000708484
-0.000946607
-0.00120201
-0.00151376
-0.00181652
-0.00210828
-0.00238733
-0.00264058
-0.00285056
-0.0029653
-0.00281831
-0.00198258
0.0395159
0.0037343
0.036764
0.0037282
0.0340682
0.00371962
0.0314281
0.00371151
0.0288415
0.00371023
0.0263053
0.00371685
0.0238124
0.00373379
0.0213583
0.00375645
0.0189348
0.00378722
0.0165372
0.00382509
0.0141552
0.00387141
0.0117904
0.00392111
0.00943051
0.00398323
0.00706262
0.0040473
0.00468312
0.0041245
0.00218842
0.0043071
0.00381984
0.0393585
0.00653375
0.0366207
0.00646602
0.0339397
0.00640067
0.0313156
0.00633558
0.0287451
0.00628076
0.0262236
0.00623832
0.0237489
0.00620846
0.0213102
0.00619521
0.0189023
0.00619509
0.0165191
0.0062083
0.0141402
0.00625028
0.0117573
0.00630404
0.00936083
0.00637967
0.00692529
0.00648283
0.00446307
0.00658672
0.00197285
0.00679732
0.00579269
0.038954
0.00930933
0.036242
0.00917802
0.033592
0.00905069
0.0309948
0.00893281
0.0284529
0.00882263
0.0259564
0.00873482
0.0235006
0.00866426
0.0210881
0.0086077
0.0187011
0.00858207
0.0163447
0.00856475
0.0140215
0.00857345
0.0116886
0.0086369
0.00934633
0.00872199
0.00698131
0.00884785
0.00459124
0.0089768
0.00213255
0.00925601
0.00792524
0.0409595
0.0122573
0.038228
0.0120408
0.0355645
0.0118416
0.0329645
0.0116507
0.0304248
0.0114726
0.0279336
0.0113138
0.0255011
0.0111673
0.0230971
0.0110683
0.0207229
0.0109819
0.0183792
0.0109257
0.0160306
0.0109134
0.0137074
0.0108966
0.0114363
0.010908
0.00915123
0.0110071
0.00683821
0.0111609
0.00449538
0.0113196
0.00207885
0.0116725
0.0100041
0.0399753
0.0149961
0.0372962
0.01472
0.0346841
0.0144536
0.0321275
0.0142073
0.0296343
0.0139657
0.027187
0.0137611
0.0247901
0.0135641
0.0224629
0.0133955
0.0201587
0.0132862
0.0178965
0.0131878
0.0156677
0.0131422
0.0133851
0.0131792
0.0110961
0.013197
0.00886368
0.0132396
0.00663123
0.0133933
0.00433572
0.0136151
0.00195292
0.0140553
0.011957
0.0412547
0.0179962
0.0386257
0.0176251
0.036059
0.0172867
0.0335618
0.0169507
0.0311255
0.0166437
0.028733
0.0163582
0.0263923
0.0161019
0.024051
0.0159054
0.0217438
0.0157028
0.0194885
0.0155414
0.0172308
0.0154456
0.0150336
0.0153394
0.0129137
0.0152991
0.0107586
0.015352
0.00855506
0.0154431
0.0063522
0.0155962
0.00418121
0.0157861
0.00193375
0.0163028
0.0138908
0.0422026
0.0210985
0.0395556
0.0206432
0.036956
0.0202247
0.034433
0.0198097
0.0319913
0.0193924
0.0296381
0.0189969
0.0273435
0.0186528
0.025135
0.0183103
0.0229969
0.0180436
0.020843
0.0178567
0.0187212
0.0176632
0.0166306
0.0175362
0.0144869
0.0174831
0.0123233
0.0174627
0.0102045
0.0174708
0.00813652
0.0175111
0.00606618
0.0176665
0.00394819
0.0179041
0.00177936
0.0184716
0.0156701
0.0402262
0.0234808
-0.0426085
0.0377621
0.0231073
0.035299
0.0226878
0.0329399
0.0221688
0.030636
0.0216963
0.0283934
0.0212394
0.0261659
0.0208804
0.0238983
0.0205779
0.0217102
0.0202317
0.0196178
0.019949
0.017543
0.019738
0.0155327
0.0195466
0.0136066
0.0194092
0.0116985
0.0193708
0.00971959
0.0194497
0.00767046
0.0195602
0.00562462
0.0197124
0.00357677
0.019952
0.00153943
0.020509
0.0172095
0.0375501
0.0260294
-0.0400988
0.0350181
0.0256393
0.0327256
0.0249803
0.0305896
0.0243048
0.02852
0.0237659
0.0264856
0.0232738
0.0245552
0.0228108
0.0226377
0.0224954
0.0206271
0.0222423
0.0186207
0.0219554
0.0166657
0.0216931
0.0147086
0.0215036
0.0127426
0.0213751
0.0108205
0.0212929
0.0089696
0.0213006
0.0071238
0.021406
0.00528345
0.0215527
0.00345955
0.0217759
0.00157468
0.0223939
0.0187842
0.0351134
-0.0381847
0.0327951
0.0307232
0.0286728
0.0266267
0.0245005
0.022433
0.0205801
0.0188417
0.0170571
0.0152389
0.0134585
0.0117277
0.0100033
0.00827636
0.0065293
0.0047344
0.00290296
0.00112478
0.00681996
0.00735889
0.0387275
0.00606083
0.00790166
0.0475991
0.00519559
0.00662421
0.0488765
0.0511606
0.00504218
0.00576914
0.0520156
0.0550149
0.0046625
0.005044
0.05574
0.0591962
0.00416088
0.00451098
0.0597292
0.0637362
0.00367604
0.00405524
0.064192
0.0685689
0.00326905
0.00363174
0.0689924
0.0736069
0.00294894
0.00323826
0.0740004
0.0788075
0.0026738
0.00288548
0.0791603
0.0841758
0.00243338
0.00257522
0.084486
0.0898513
0.00224029
0.0023213
0.0901052
0.0959959
0.00208968
0.00213433
0.0961829
0.102641
0.00195031
0.00198482
0.102791
0.109697
0.00178508
0.00183784
0.109844
0.117125
0.00159634
0.00166638
0.117296
0.125035
0.00140408
0.00147591
0.125226
0.133505
0.0012295
0.00128738
0.133694
0.142602
0.0010836
0.00111786
0.142771
0.152343
0.00096058
0.000972097
0.152489
0.162774
0.000852979
0.000846829
0.162899
0.17394
0.000758213
0.000741819
0.174045
0.18589
0.000672804
0.000650882
0.18598
0.198641
0.00058849
0.000566496
0.198726
0.212253
0.000503948
0.000483272
0.212336
0.226802
0.000420054
0.000401393
0.226883
0.242358
0.000339192
0.000322316
0.242437
0.258996
0.000264362
0.000250424
0.259068
0.276831
0.000186696
0.000175728
0.276906
0.29595
9.44635e-05
8.87808e-05
0.296037
0.316612
5.11618e-05
4.69957e-05
0.316653
0.338535
0.338582
0.0487017
-0.0344267
0.0490775
-0.0317824
0.0496932
-0.0294886
0.0494309
-0.024761
0.0502162
-0.0216513
0.0501985
-0.0175832
0.0503967
-0.0132976
0.050936
-0.00947989
0.051212
-0.00511406
-0.000811256
0.052219
-0.0346301
0.0524457
-0.0320091
0.0524979
-0.0295408
0.0526169
-0.02488
0.0531934
-0.0222279
0.0528542
-0.017244
0.0534477
-0.0138911
0.0536291
-0.00966133
0.0537725
-0.0052575
-0.00124246
0.0558627
-0.0347527
0.0560723
-0.0322187
0.0559233
-0.0293918
0.0563723
-0.025329
0.0564655
-0.0223211
0.0564691
-0.0172475
0.0568671
-0.0142892
0.0567675
-0.00956172
0.0569302
-0.00542016
-0.00146315
0.0598978
-0.0349213
0.0600105
-0.0323314
0.0599449
-0.0293261
0.060185
-0.0255691
0.0600164
-0.0221525
0.0601498
-0.0173809
0.0601186
-0.0142579
0.0599771
-0.00942021
0.0601248
-0.00556791
-0.00146699
0.0642954
-0.0350247
0.0642777
-0.0323137
0.0641798
-0.0292283
0.0641095
-0.0254988
0.0639172
-0.0219602
0.0639385
-0.0174022
0.0637427
-0.0140621
0.0636329
-0.00931046
0.0636196
-0.00555458
-0.00136164
0.06894
-0.0349723
0.0687394
-0.0321132
0.0685431
-0.029032
0.0683071
-0.0252627
0.0680751
-0.0217282
0.0679776
-0.0173047
0.0677165
-0.013801
0.0676261
-0.00922004
0.0674572
-0.00538567
-0.00127655
0.0737403
-0.0347123
0.0734003
-0.0317731
0.0730952
-0.0287269
0.0727854
-0.024953
0.0724719
-0.0214147
0.0723241
-0.0171569
0.0719971
-0.013474
0.071967
-0.00918992
0.0716582
-0.00507691
-0.00126218
0.0787281
-0.0342801
0.0782948
-0.0313399
0.0778782
-0.0283102
0.0775409
-0.0246157
0.0771491
-0.0210228
0.0769851
-0.0169929
0.0766307
-0.0131196
0.0766129
-0.00917206
0.0762936
-0.00475769
-0.00124647
0.0839398
-0.0337339
0.0834228
-0.0308228
0.0829398
-0.0278272
0.0825664
-0.0242424
0.0821431
-0.0205995
0.0819449
-0.0167946
0.0816045
-0.0127792
0.0815474
-0.00911499
0.0813058
-0.00451616
-0.00118256
0.0894806
-0.0331094
0.0888997
-0.0302418
0.0883773
-0.0273049
0.0879488
-0.0238138
0.0875226
-0.0201734
0.0872538
-0.0165258
0.086956
-0.0124814
0.086823
-0.00898198
0.0866842
-0.00437737
-0.00106791
0.0954965
-0.032423
0.0948539
-0.0295993
0.0942923
-0.0267433
0.0937961
-0.0233176
0.0933631
-0.0197404
0.0930153
-0.016178
0.0927456
-0.0122118
0.092534
-0.0087703
0.0924523
-0.00429573
-0.000923236
0.10203
-0.0316621
0.101316
-0.0288853
0.100698
-0.0261249
0.100126
-0.0227464
0.0996734
-0.0192873
0.0992487
-0.0157533
0.0989875
-0.0119505
0.0987065
-0.00848935
0.0986509
-0.0042401
-0.000770488
0.108997
-0.0308154
0.10821
-0.0280983
0.107526
-0.0254402
0.106893
-0.0221139
0.106406
-0.0188005
0.105928
-0.0152752
0.105651
-0.0116736
0.10533
-0.00816826
0.105279
-0.00418893
-0.000631948
0.116373
-0.0298917
0.115524
-0.0272499
0.114772
-0.0246881
0.114091
-0.0214324
0.113558
-0.0182676
0.113044
-0.014761
0.112733
-0.0113629
0.112398
-0.00783318
0.112325
-0.00411629
-0.000519344
0.124229
-0.028895
0.123316
-0.026337
0.122484
-0.0238556
0.121756
-0.0207051
0.12116
-0.0176711
0.120625
-0.0142267
0.120263
-0.0109999
0.119932
-0.00750254
0.119819
-0.00400332
-0.000439358
0.132616
-0.0278171
0.131629
-0.0253502
0.130708
-0.0229348
0.129928
-0.0199245
0.129263
-0.0170069
0.12871
-0.0136731
0.128294
-0.0105846
0.127972
-0.00718021
0.127835
-0.00386596
-0.000394456
0.141601
-0.0266472
0.140533
-0.0242817
0.13952
-0.021922
0.138676
-0.0190805
0.137942
-0.0162726
0.137367
-0.0130985
0.136903
-0.010121
0.136587
-0.00686338
0.136423
-0.00370201
-0.000374904
0.151224
-0.0253816
0.150067
-0.0231248
0.148973
-0.0208284
0.148054
-0.018162
0.147258
-0.0154763
0.146648
-0.0124887
0.14615
-0.00962241
0.14582
-0.00653376
0.145636
-0.00351743
-0.000361503
0.161531
-0.024013
0.16028
-0.0218742
0.159108
-0.0196561
0.158107
-0.017161
0.157244
-0.014613
0.156582
-0.0118269
0.15605
-0.00909026
0.155698
-0.00618235
0.155501
-0.00331976
-0.000352096
0.172563
-0.0225311
0.171207
-0.0205184
0.169954
-0.0184031
0.168866
-0.0160732
0.167933
-0.0136796
0.167206
-0.0110999
0.166637
-0.00852189
0.166259
-0.00580395
0.166049
-0.00311002
-0.000338539
0.184376
-0.0209266
0.182909
-0.019051
0.18157
-0.0170641
0.180399
-0.0149025
0.179395
-0.0126756
0.1786
-0.0103049
0.177985
-0.0079073
0.177576
-0.00539518
0.177351
-0.00288444
-0.000320448
0.196997
-0.0191973
0.195417
-0.0174713
0.193989
-0.0156362
0.19274
-0.0136537
0.19167
-0.0116058
0.190812
-0.00944618
0.190152
-0.00724792
0.189711
-0.00495381
0.189474
-0.00264751
-0.000301357
0.21048
-0.0173411
0.208786
-0.0157781
0.207263
-0.0141134
0.205934
-0.0123246
0.204798
-0.0104691
0.203878
-0.00852622
0.203173
-0.00654309
0.202699
-0.0044795
0.202448
-0.00239703
-0.000282136
0.224894
-0.0153512
0.223079
-0.013964
0.221452
-0.0124857
0.220033
-0.0109056
0.218824
-0.00926055
0.21784
-0.0075426
0.217085
-0.00578763
0.216575
-0.00396913
0.216307
-0.00212938
-0.000261645
0.240305
-0.0132189
0.238362
-0.012021
0.236621
-0.0107447
0.235102
-0.00938676
0.233812
-0.00797008
0.232762
-0.00649313
0.231955
-0.00498047
0.231407
-0.0034212
0.231119
-0.00184086
-0.00023735
0.256782
-0.0109329
0.254702
-0.00994072
0.252841
-0.00888348
0.251216
-0.00776264
0.249838
-0.00659178
0.248718
-0.00537308
0.24786
-0.00412202
0.247274
-0.00283588
0.246964
-0.00153054
-0.000205301
0.274449
-0.00847648
0.272218
-0.00770921
0.270225
-0.00689073
0.268485
-0.00602332
0.26701
-0.00511627
0.265809
-0.00417257
0.26489
-0.00320266
0.264261
-0.00220688
0.263927
-0.00119645
-0.000170121
0.293434
-0.00587287
0.291055
-0.00533027
0.288923
-0.00475911
0.287057
-0.00415725
0.28547
-0.0035293
0.284175
-0.00287727
0.28318
-0.00220775
0.282495
-0.00152188
0.282126
-0.000826947
-0.000124432
0.313801
-0.00302029
0.31122
-0.00274989
0.308923
-0.00246135
0.306919
-0.00215398
0.30522
-0.00183027
0.303835
-0.00149235
0.302772
-0.00114434
0.302038
-0.000788106
0.301639
-0.000427461
-6.30338e-05
0.335562
0.332812
0.330351
0.328197
0.326367
0.324874
0.32373
0.322942
0.322514
)
;

boundaryField
{
    outlet
    {
        type            calculated;
        value           nonuniform 0();
    }
    upperWall
    {
        type            symmetryPlane;
        value           uniform 0;
    }
    lowerWall
    {
        type            symmetryPlane;
        value           nonuniform 0();
    }
    inlet
    {
        type            calculated;
        value           nonuniform 0();
    }
    cylinder
    {
        type            calculated;
        value           uniform 0;
    }
    frontAndBack
    {
        type            empty;
        value           nonuniform 0();
    }
    procBoundary5to1
    {
        type            processor;
        value           nonuniform List<scalar> 
20
(
-0.011952
-0.0128148
-0.0100741
-0.00092485
-0.000976363
-0.00102383
-0.00107134
-0.00112367
-0.00118066
-0.00124089
-0.00130231
-0.00136371
-0.0014275
-0.00148946
-0.00155625
-0.00162337
-0.00167941
-0.00174499
-0.00181241
-0.00163142
)
;
    }
    procBoundary5to4
    {
        type            processor;
        value           nonuniform List<scalar> 
45
(
-0.0423253
-0.042158
-0.0417296
-0.00945073
-0.0437661
-0.042714
-0.0153022
-0.0439487
-0.0184605
-0.0448406
-0.00617481
-0.0432536
-0.0406377
-0.00611932
-0.038669
-0.0467338
-0.0510071
-0.0546352
-0.0586946
-0.0632514
-0.0681619
-0.0732868
-0.0785324
-0.0839353
-0.0896582
-0.0958453
-0.102502
-0.109532
-0.116936
-0.124843
-0.13333
-0.142456
-0.15222
-0.162667
-0.173845
-0.185804
-0.198557
-0.212168
-0.226718
-0.242277
-0.258921
-0.276753
-0.295858
-0.316568
-0.338484
)
;
    }
    procBoundary5to6
    {
        type            processor;
        value           nonuniform List<scalar> 
63
(
0.0177802
0.0323322
0.0321448
0.0319833
0.0172761
0.0326139
0.0324963
0.0184229
0.0335043
0.0335064
0.0337181
0.0184364
0.0351133
0.0356527
0.0358847
0.0199173
0.000750548
-0.00491471
0.00367221
0.0058113
0.00759925
0.00831638
0.00510791
0.00823745
0.0119738
0.0119722
0.024937
0.0185385
0.0310722
0.0183612
0.0318831
0.0183703
0.0516376
0.0539733
0.0565277
0.0596971
-0.0208781
0.0633242
0.0669618
0.0712283
0.0760221
0.0811859
0.0868002
0.092986
0.0997095
0.106594
0.113995
0.122011
0.130145
0.139034
0.148604
0.158641
0.169453
0.18098
0.193296
0.206485
0.220585
0.235656
0.25181
0.269082
0.287585
0.307441
0.328703
)
;
    }
}


// ************************************************************************* //
