/*--------------------------------*- C++ -*----------------------------------*\
| =========                 |                                                 |
| \\      /  F ield         | OpenFOAM: The Open Source CFD Toolbox           |
|  \\    /   O peration     | Version:                                        |
|   \\  /    A nd           | Website:  www.openfoam.com                      |
|    \\/     M anipulation  |                                                 |
\*---------------------------------------------------------------------------*/
FoamFile
{
    version     2.0;
    format      ascii;
    class       volVectorField;
    location    "128";
    object      U;
}
// * * * * * * * * * * * * * * * * * * * * * * * * * * * * * * * * * * * * * //

dimensions      [0 1 -1 0 0 0 0];


internalField   nonuniform List<vector> 
1164
(
(0.498544 -0.698109 2.38631e-22)
(0.423941 -0.638474 -6.42148e-21)
(0.394362 -0.57948 1.03089e-20)
(0.379037 -0.485214 -3.6619e-21)
(0.369917 -0.362952 8.13759e-21)
(0.37761 -0.253319 3.78189e-20)
(0.515643 -0.780157 -7.01138e-22)
(0.489497 -0.724629 1.37531e-20)
(0.506361 -0.661056 -8.72231e-21)
(0.546669 -0.603986 -1.49978e-20)
(0.586794 -0.523592 -7.51641e-21)
(0.587713 -0.418465 -8.12813e-21)
(0.578788 -0.293939 3.90975e-21)
(0.549986 -0.202608 -1.31687e-21)
(0.566733 -0.121674 3.4154e-21)
(0.585607 -0.108586 -4.94335e-22)
(0.64585 -0.857819 1.76794e-21)
(0.62335 -0.83706 -4.05899e-21)
(0.613061 -0.775689 2.70116e-21)
(0.616816 -0.717769 2.51981e-21)
(0.670543 -0.62275 -2.71579e-21)
(0.731199 -0.553902 -2.68369e-20)
(0.770953 -0.429653 -1.26156e-20)
(0.780158 -0.325272 -3.81106e-21)
(0.760679 -0.168641 -1.48415e-21)
(0.676539 -0.0648932 7.30238e-22)
(0.634274 -0.893477 1.7752e-22)
(0.669151 -0.937412 2.59275e-21)
(0.710042 -0.936082 -1.42986e-21)
(0.747969 -0.926169 8.46235e-21)
(0.782067 -0.852362 1.95004e-20)
(0.80187 -0.784665 3.80428e-20)
(0.847783 -0.675652 -7.29726e-22)
(0.875276 -0.579378 -2.28232e-21)
(0.895022 -0.454165 -1.12258e-20)
(0.846453 -0.298958 -1.06666e-21)
(0.548539 -0.783934 -2.51187e-21)
(0.59795 -0.84852 -3.31793e-22)
(0.703395 -0.890308 -1.58131e-20)
(0.80175 -0.928227 -2.80187e-21)
(0.894523 -0.92395 -1.16171e-20)
(0.969702 -0.888328 -3.40896e-20)
(1.01922 -0.84506 5.10157e-21)
(1.01908 -0.74176 -1.0077e-20)
(1.0617 -0.683954 -8.95972e-21)
(1.01874 -0.530954 -1.2354e-20)
(0.427469 -0.770644 1.27145e-21)
(0.496293 -0.769301 -1.36364e-20)
(0.59515 -0.806815 -7.13333e-21)
(0.709095 -0.798739 4.23348e-21)
(0.869498 -0.839046 -3.17217e-20)
(0.969243 -0.811099 -9.31929e-21)
(1.0877 -0.822613 2.44711e-20)
(1.14652 -0.767678 2.00456e-20)
(1.19115 -0.743802 -1.84551e-20)
(1.15753 -0.679614 -2.29174e-20)
(0.549465 -0.249954 -8.83406e-22)
(0.658063 -0.272189 1.64366e-20)
(0.772349 -0.315871 4.69891e-20)
(0.890195 -0.327265 -3.50888e-20)
(1.01166 -0.422318 3.71597e-21)
(1.09131 -0.431283 -1.22122e-20)
(1.212 -0.516947 -3.76198e-20)
(1.20987 -0.519476 4.76857e-21)
(1.30913 -0.524506 2.73845e-20)
(1.28726 -0.594127 1.16057e-20)
(0.4087 0.184546 2.6234e-21)
(0.533052 0.208924 -9.01701e-22)
(0.692964 0.225084 -4.43521e-21)
(0.870691 0.212229 1.60764e-20)
(1.06014 0.170128 2.21019e-20)
(1.2061 0.125458 2.84347e-20)
(1.34249 0.0390028 -2.65958e-20)
(1.38469 -0.0461724 4.59271e-20)
(1.50542 -0.074887 -2.99905e-20)
(1.44791 -0.207387 -2.09345e-20)
(0.651237 0.501759 -1.71348e-21)
(0.716751 0.521735 -9.19704e-21)
(0.790663 0.542267 -3.57357e-21)
(0.876448 0.534585 4.459e-21)
(0.968085 0.523239 2.27653e-20)
(1.07343 0.49118 1.19324e-20)
(1.1986 0.423571 3.67092e-20)
(1.30007 0.335457 -3.27103e-20)
(1.41873 0.261136 7.00361e-21)
(1.4424 0.113367 1.86968e-20)
(0.616566 0.726306 -3.79183e-22)
(0.684019 0.741281 3.59038e-21)
(0.774154 0.72516 -1.21289e-20)
(0.904298 0.728757 1.32335e-20)
(1.01513 0.686006 -2.57471e-20)
(1.12268 0.678367 -1.69042e-20)
(1.18168 0.62382 1.83748e-20)
(1.22557 0.588325 -3.60313e-21)
(1.26632 0.530633 3.0017e-20)
(1.29942 0.436917 -2.41299e-21)
(0.598909 0.579405 4.9431e-22)
(0.643696 0.601856 3.79757e-22)
(0.67087 0.572159 -6.72838e-21)
(0.734439 0.577229 2.03024e-21)
(0.800553 0.53325 1.90026e-20)
(0.891493 0.506495 -4.79979e-21)
(0.99177 0.459859 -1.1231e-20)
(1.07763 0.433659 -1.63572e-20)
(1.13891 0.404239 -8.85101e-21)
(1.18858 0.394219 2.93362e-20)
(0.554315 0.814482 -7.98683e-22)
(0.617109 0.821644 4.49652e-21)
(0.664119 0.77871 1.51876e-21)
(0.722664 0.758744 -1.77617e-20)
(0.785584 0.699216 -4.71329e-22)
(0.85079 0.635604 -3.04665e-21)
(0.916497 0.556738 3.9057e-21)
(0.973962 0.46303 -1.13964e-21)
(1.04201 0.385108 9.53494e-22)
(1.08771 0.307113 -1.18601e-20)
(0.588473 0.471798 9.62955e-22)
(0.580517 0.500789 -2.32148e-21)
(0.561138 0.486456 1.15214e-21)
(0.558213 0.510398 1.09204e-20)
(0.560585 0.52546 2.31123e-21)
(0.565738 0.53115 7.72173e-21)
(0.607151 0.547647 4.91242e-22)
(0.663087 0.527222 3.5283e-21)
(0.760407 0.518844 5.6297e-21)
(0.849895 0.451563 1.02789e-20)
(0.522102 0.047274 -1.09006e-21)
(0.541279 0.100947 3.86616e-21)
(0.558693 0.0953552 5.5695e-21)
(0.609095 0.138926 -1.64764e-21)
(0.660423 0.152461 -6.56267e-21)
(0.695103 0.191677 2.87688e-21)
(0.743433 0.234292 1.22772e-21)
(0.752268 0.277246 -8.04343e-22)
(0.776406 0.334908 -1.01667e-21)
(0.785834 0.377827 -2.19959e-21)
(0.691628 -0.108793 8.26501e-22)
(0.675229 -0.0617836 -3.51271e-21)
(0.651785 -0.0525378 -1.36525e-21)
(0.652587 -0.00139744 6.18344e-22)
(0.652208 -0.000419627 5.50691e-21)
(0.688008 0.039379 -2.16421e-21)
(0.736812 0.0409669 1.03868e-21)
(0.788903 0.0751386 2.16308e-21)
(0.872793 0.0901315 -1.99871e-21)
(0.925245 0.153359 -2.39109e-22)
(0.752496 -0.644222 9.66683e-24)
(0.706019 -0.649787 -7.94851e-23)
(0.669209 -0.644508 -8.76346e-21)
(0.645376 -0.625848 1.94959e-21)
(0.610278 -0.632518 4.82814e-21)
(0.61284 -0.584282 9.30158e-22)
(0.605864 -0.590463 -4.52511e-21)
(0.631052 -0.529606 4.96962e-21)
(0.66474 -0.533774 1.48675e-21)
(0.703393 -0.477009 1.4797e-22)
(0.7134 -0.60935 1.99492e-22)
(0.698647 -0.628692 -2.98247e-23)
(0.710447 -0.614836 8.0069e-21)
(0.703641 -0.64353 -6.88779e-21)
(0.722227 -0.62972 -1.28762e-21)
(0.726418 -0.655608 6.55686e-21)
(0.748935 -0.641007 8.89067e-23)
(0.749406 -0.658839 -2.79662e-21)
(0.77388 -0.638664 1.93799e-21)
(0.780235 -0.648397 -8.73273e-22)
(0.667668 -0.587697 -3.02615e-22)
(0.637698 -0.583256 -1.23373e-21)
(0.630805 -0.561932 -1.28718e-21)
(0.620153 -0.563144 1.70295e-21)
(0.637782 -0.528791 -4.40834e-21)
(0.651339 -0.540787 -1.1487e-20)
(0.706933 -0.496597 -1.09393e-20)
(0.736459 -0.515409 -4.6892e-21)
(0.802985 -0.457828 -1.85131e-21)
(0.812367 -0.48491 -5.67261e-21)
(0.77954 -0.421164 -4.3723e-22)
(0.781943 -0.390742 3.55859e-21)
(0.793849 -0.359367 -3.10037e-22)
(0.805326 -0.332278 3.71083e-21)
(0.828537 -0.295566 1.32096e-22)
(0.853507 -0.280683 -2.56471e-21)
(0.895264 -0.243103 1.34556e-20)
(0.934818 -0.247248 -2.51555e-21)
(0.99471 -0.204505 -8.95152e-21)
(1.02668 -0.21976 1.63089e-21)
(0.898648 0.299177 3.82177e-22)
(0.928032 0.315842 -1.38156e-21)
(0.953088 0.32757 -4.20388e-21)
(0.983065 0.33404 -4.44105e-21)
(1.00708 0.348063 -5.69121e-22)
(1.03934 0.341993 1.41412e-20)
(1.07238 0.354554 -1.45894e-20)
(1.11325 0.32971 5.96904e-21)
(1.15616 0.338392 1.48094e-20)
(1.19326 0.291262 6.93055e-21)
(0.903546 0.44648 2.06687e-22)
(0.931319 0.451593 -4.38889e-22)
(0.949771 0.468349 3.93756e-21)
(0.977998 0.470129 5.45914e-21)
(0.998033 0.488519 -5.03878e-21)
(1.02921 0.49023 2.77551e-21)
(1.0534 0.505054 8.63267e-21)
(1.08727 0.496339 9.39891e-21)
(1.10964 0.498489 -7.72955e-21)
(1.14283 0.469412 -2.62777e-21)
(0.909967 0.692406 6.48989e-23)
(0.953672 0.686704 -1.16121e-22)
(0.987715 0.693614 -1.63234e-21)
(1.03058 0.686323 -7.19789e-21)
(1.05984 0.689752 4.65998e-21)
(1.09029 0.680067 -3.3137e-21)
(1.10265 0.685016 -2.92965e-21)
(1.11251 0.674622 -7.76997e-21)
(1.11077 0.667434 -1.7247e-21)
(1.10985 0.642561 1.87798e-21)
(0.920244 0.65989 3.43566e-22)
(0.936606 0.660983 -7.02298e-22)
(0.947004 0.663064 -4.518e-22)
(0.964333 0.657681 7.0586e-21)
(0.974722 0.646991 -4.03508e-21)
(0.990647 0.637275 1.73605e-21)
(0.994071 0.61682 3.70633e-21)
(1.00177 0.609031 -1.32126e-21)
(0.997039 0.586044 -9.63832e-22)
(1.00248 0.573088 -8.68614e-21)
(0.970817 -0.17403 -2.67097e-23)
(0.959956 -0.160354 1.63017e-22)
(0.947477 -0.159259 -1.79417e-21)
(0.939755 -0.141434 -2.26765e-22)
(0.925608 -0.143073 -1.70157e-21)
(0.918768 -0.121989 -4.95536e-21)
(0.898058 -0.129413 3.39231e-21)
(0.8852 -0.109403 7.08266e-23)
(0.86459 -0.11868 5.97996e-21)
(0.840599 -0.106976 8.64835e-21)
(1.01146 -0.393844 2.53704e-23)
(1.00185 -0.381943 -1.48164e-21)
(0.996176 -0.37714 1.83439e-21)
(0.985426 -0.36619 -1.96977e-21)
(0.972277 -0.362177 2.99605e-21)
(0.948643 -0.353066 4.83185e-21)
(0.920162 -0.348728 -5.51568e-21)
(0.885388 -0.340409 -5.21732e-22)
(0.851069 -0.337667 -2.0009e-21)
(0.813332 -0.326472 -5.25681e-21)
(1.00201 -0.600024 8.40268e-24)
(0.972882 -0.599899 6.3451e-22)
(0.94845 -0.600357 3.73039e-22)
(0.919818 -0.60555 1.3677e-22)
(0.898711 -0.606438 6.82691e-22)
(0.871123 -0.612357 -2.34569e-21)
(0.852071 -0.609615 3.17582e-22)
(0.824282 -0.607799 -1.28165e-21)
(0.805258 -0.603585 1.8495e-22)
(0.779592 -0.58937 3.12082e-22)
(0.992986 -0.579864 2.06117e-22)
(0.973544 -0.573119 -5.32134e-22)
(0.961116 -0.561681 -6.75332e-23)
(0.951142 -0.548052 -1.35163e-21)
(0.950156 -0.529312 1.82167e-21)
(0.94928 -0.509566 3.79808e-22)
(0.954836 -0.483811 1.79705e-21)
(0.956217 -0.459053 2.55332e-22)
(0.96417 -0.428849 3.9518e-22)
(0.968491 -0.39985 1.44442e-21)
(1.07825 0.457793 -4.31934e-22)
(1.08325 0.465548 1.05297e-22)
(1.09032 0.470774 1.20907e-21)
(1.09789 0.479419 -6.97325e-23)
(1.10708 0.484573 7.27141e-22)
(1.11576 0.489382 -2.1347e-21)
(1.12463 0.493449 -9.87927e-24)
(1.1323 0.49555 3.80138e-22)
(1.14005 0.499445 -1.4271e-22)
(1.14545 0.498571 -2.59761e-22)
(1.08551 0.636584 -8.98345e-23)
(1.09829 0.635221 -1.49483e-22)
(1.10515 0.627091 -2.65024e-22)
(1.11078 0.621095 1.19065e-21)
(1.11036 0.60841 -9.17256e-22)
(1.10885 0.596663 8.40676e-22)
(1.10102 0.578297 -1.00485e-21)
(1.0917 0.560245 4.99425e-22)
(1.07545 0.535547 -3.37135e-22)
(1.06067 0.510924 3.93047e-22)
(1.00503 0.0803666 1.68581e-23)
(1.00361 0.0764436 -4.90505e-23)
(0.997609 0.067887 1.00279e-23)
(0.990672 0.062545 1.71195e-22)
(0.978922 0.0523992 -2.95815e-22)
(0.966462 0.0445145 3.26426e-22)
(0.948534 0.032078 -4.9413e-22)
(0.930182 0.0212624 5.99292e-22)
(0.907168 0.00790889 7.69898e-23)
(0.882979 -0.00597723 -3.12025e-22)
(0.726898 -0.132105 0)
(0.867377 -0.165656 0)
(0.966513 -0.159067 0)
(0.983059 -0.11746 0)
(0.975921 -0.0949232 0)
(0.964876 -0.0590766 0)
(0.960071 -0.0438444 0)
(0.958315 -0.0239597 0)
(0.965386 -0.0154421 0)
(0.97682 -0.0060901 0)
(0.98887 -0.00206339 0)
(1.00214 -0.000357829 0)
(1.01357 0.000472822 0)
(1.02001 0.00104237 0)
(1.02396 0.00183357 0)
(1.02508 0.00207211 0)
(1.02506 0.00219047 0)
(1.02439 0.00177396 0)
(1.02357 0.00140247 0)
(1.02289 0.000885592 0)
(1.02218 0.000508923 0)
(1.02157 0.000179095 0)
(1.02093 -0.00011634 0)
(1.0203 -0.00024692 0)
(1.01974 -0.00038835 0)
(1.0192 -0.000372502 0)
(1.01879 -0.000252371 0)
(1.01854 -0.000141036 0)
(0.675109 0.00735427 0)
(0.68719 0.0649138 0)
(0.734069 0.106982 0)
(0.845307 0.0987334 0)
(0.935855 0.0587937 0)
(0.975817 0.0339371 0)
(0.991516 0.019151 0)
(1.00666 0.00890514 0)
(1.01543 0.00318231 0)
(1.0264 0.00387593 0)
(1.02703 0.0081122 0)
(1.02706 0.0137975 0)
(1.02452 0.0176546 0)
(1.02096 0.021626 0)
(1.01787 0.0211354 0)
(1.01739 0.0194038 0)
(1.01711 0.0156277 0)
(1.0178 0.0122236 0)
(1.01845 0.00885026 0)
(1.0191 0.00653969 0)
(1.01965 0.00463354 0)
(1.01986 0.00327303 0)
(1.01987 0.00210372 0)
(1.01963 0.00120172 0)
(1.01924 0.000531706 0)
(1.01883 0.000103921 0)
(1.01839 -0.000178132 0)
(1.01799 -0.000252509 0)
(1.01766 -0.000193675 0)
(1.01746 -0.000118867 0)
(0.87732 -0.166079 0)
(0.85446 -0.0990068 0)
(0.814401 -0.0239008 0)
(0.826116 0.00161156 0)
(0.878464 0.0205933 0)
(0.93656 0.00186032 0)
(0.949839 0.00915803 0)
(0.954678 -0.00986339 0)
(0.956493 -0.00578221 0)
(0.967993 -0.0159335 0)
(0.978617 -0.0130984 0)
(0.987055 -0.0153569 0)
(0.995394 -0.0116447 0)
(1.00341 -0.0125231 0)
(1.0103 -0.00926414 0)
(1.01497 -0.0073704 0)
(1.01858 -0.00422719 0)
(1.02039 -0.00255369 0)
(1.02123 -0.00102854 0)
(1.02166 -0.000515822 0)
(1.02166 -7.58295e-05 0)
(1.02164 2.80561e-05 0)
(1.02142 4.99087e-05 0)
(1.02111 -6.10123e-06 0)
(1.02072 -0.000187292 0)
(1.02024 -0.000272043 0)
(1.01977 -0.000386657 0)
(1.01931 -0.000374914 0)
(1.01893 -0.000252764 0)
(1.01871 -0.000137746 0)
(1.02178 -0.442764 0)
(1.00288 -0.352287 0)
(0.94079 -0.29135 0)
(0.885822 -0.228159 0)
(0.899537 -0.146621 0)
(0.937595 -0.106076 0)
(0.966813 -0.10184 0)
(0.979346 -0.0856137 0)
(1.00596 -0.0747137 0)
(1.01838 -0.0520196 0)
(1.02903 -0.0363466 0)
(1.03365 -0.0155372 0)
(1.03167 -0.00348856 0)
(1.02814 0.00880076 0)
(1.02514 0.0116888 0)
(1.02335 0.012968 0)
(1.02185 0.0104562 0)
(1.02094 0.00856493 0)
(1.02073 0.00620532 0)
(1.02052 0.0047873 0)
(1.02049 0.00347246 0)
(1.02022 0.00243942 0)
(1.01987 0.0015399 0)
(1.0195 0.000780496 0)
(1.01907 0.000244028 0)
(1.01869 -8.59577e-05 0)
(1.01834 -0.000308521 0)
(1.018 -0.000335277 0)
(1.01772 -0.000240165 0)
(1.01755 -0.000133985 0)
(1.18283 -0.594115 0)
(1.19702 -0.478626 0)
(1.15159 -0.443331 0)
(1.09255 -0.328429 0)
(1.06129 -0.201207 0)
(1.00471 -0.115939 0)
(0.966026 -0.0787375 0)
(0.971022 -0.0446102 0)
(0.993949 -0.0339167 0)
(1.00762 -0.0252151 0)
(1.01912 -0.0193676 0)
(1.01748 -0.0199581 0)
(1.01755 -0.0158839 0)
(1.01466 -0.016865 0)
(1.01243 -0.0121177 0)
(1.01278 -0.00983136 0)
(1.01405 -0.00579136 0)
(1.01611 -0.00394939 0)
(1.01753 -0.00215411 0)
(1.01889 -0.0013413 0)
(1.01968 -0.000707141 0)
(1.0202 -0.000368309 0)
(1.02044 -0.000263621 0)
(1.02043 -0.000246198 0)
(1.02029 -0.000397543 0)
(1.02002 -0.00047021 0)
(1.0197 -0.000543487 0)
(1.01938 -0.000495542 0)
(1.01908 -0.000328061 0)
(1.01891 -0.000163067 0)
(1.29837 -0.490006 0)
(1.32917 -0.451582 0)
(1.35053 -0.417586 0)
(1.35578 -0.336181 0)
(1.33343 -0.272655 0)
(1.20728 -0.242877 0)
(1.11232 -0.206167 0)
(1.07218 -0.161493 0)
(1.04324 -0.12162 0)
(1.0466 -0.0859115 0)
(1.04077 -0.0607577 0)
(1.04302 -0.0348132 0)
(1.03806 -0.0207616 0)
(1.03393 -0.00645443 0)
(1.0324 -0.00219985 0)
(1.02884 0.00167037 0)
(1.0266 0.00166635 0)
(1.02416 0.00209449 0)
(1.02282 0.00180902 0)
(1.02167 0.00164199 0)
(1.02084 0.00124189 0)
(1.02007 0.00070612 0)
(1.01942 0.000234803 0)
(1.01899 -0.000214512 0)
(1.01862 -0.000503932 0)
(1.01837 -0.00062337 0)
(1.01816 -0.00070101 0)
(1.01796 -0.00060468 0)
(1.01777 -0.000396993 0)
(1.01766 -0.000187709 0)
(1.5105 -0.14105 0)
(1.54393 -0.128345 0)
(1.47935 -0.0865271 0)
(1.39824 -0.0611335 0)
(1.26869 -0.0496392 0)
(1.17263 -0.0544882 0)
(1.13093 -0.0294873 0)
(1.12328 -0.0297705 0)
(1.11961 -0.00630307 0)
(1.1025 -0.00399501 0)
(1.08968 0.0011618 0)
(1.0689 -0.00169969 0)
(1.05204 -0.0019746 0)
(1.0364 -0.00365805 0)
(1.02272 -0.00190927 0)
(1.01724 -0.00119602 0)
(1.01493 -6.22506e-05 0)
(1.0158 0.000127121 0)
(1.01697 0.000311405 0)
(1.01837 0.000267928 0)
(1.01934 0.000149146 0)
(1.01994 2.9895e-05 0)
(1.0203 -0.000245483 0)
(1.02034 -0.000460655 0)
(1.02026 -0.000709755 0)
(1.02007 -0.00082503 0)
(1.01982 -0.00085845 0)
(1.01957 -0.000740298 0)
(1.01934 -0.000483156 0)
(1.0192 -0.00021563 0)
(1.53474 0.06206 0)
(1.50584 0.0336481 0)
(1.48707 -0.0040519 0)
(1.4249 -0.0418166 0)
(1.3146 -0.054327 0)
(1.22456 -0.0666442 0)
(1.12789 -0.0357625 0)
(1.10536 -0.0372529 0)
(1.07324 -0.0200779 0)
(1.05555 -0.0236088 0)
(1.04121 -0.0128827 0)
(1.03932 -0.0158554 0)
(1.0328 -0.0108494 0)
(1.03218 -0.0112837 0)
(1.03282 -0.00950661 0)
(1.03025 -0.00770524 0)
(1.02836 -0.00572141 0)
(1.02551 -0.00382375 0)
(1.02362 -0.00241965 0)
(1.02188 -0.00170674 0)
(1.0206 -0.001346 0)
(1.01969 -0.00137869 0)
(1.01903 -0.00135855 0)
(1.0187 -0.00139476 0)
(1.01848 -0.00140308 0)
(1.01834 -0.00128433 0)
(1.01824 -0.00119025 0)
(1.0181 -0.000950472 0)
(1.01796 -0.000602358 0)
(1.01788 -0.000256264 0)
(1.36092 0.342682 0)
(1.31537 0.311891 0)
(1.30958 0.213895 0)
(1.27097 0.185886 0)
(1.24415 0.10155 0)
(1.22856 0.0786428 0)
(1.21432 0.0407196 0)
(1.16321 0.0549667 0)
(1.14882 0.0325483 0)
(1.11665 0.0448823 0)
(1.10616 0.0287643 0)
(1.07732 0.0332343 0)
(1.06407 0.0242498 0)
(1.04513 0.0236149 0)
(1.03079 0.0189669 0)
(1.02371 0.0155539 0)
(1.01964 0.0112882 0)
(1.01928 0.00824819 0)
(1.01952 0.00550138 0)
(1.02012 0.00373838 0)
(1.02057 0.00213026 0)
(1.0207 0.0010396 0)
(1.02078 7.97599e-05 0)
(1.02066 -0.000562591 0)
(1.02049 -0.000980253 0)
(1.02033 -0.00116293 0)
(1.02013 -0.00116934 0)
(1.01994 -0.000979084 0)
(1.01977 -0.000638836 0)
(1.01966 -0.000266466 0)
(1.19312 0.328611 0)
(1.15542 0.31207 0)
(1.18137 0.271014 0)
(1.10175 0.25485 0)
(1.08632 0.220357 0)
(1.06428 0.202648 0)
(1.09668 0.156137 0)
(1.06505 0.135625 0)
(1.07207 0.0837492 0)
(1.03891 0.0677988 0)
(1.0233 0.0379 0)
(1.01902 0.0189187 0)
(1.01217 0.00598492 0)
(1.01575 -0.00601085 0)
(1.01858 -0.00877289 0)
(1.01928 -0.0101291 0)
(1.01951 -0.00780613 0)
(1.01875 -0.00637872 0)
(1.01798 -0.00466577 0)
(1.01745 -0.00400242 0)
(1.01707 -0.00329227 0)
(1.01713 -0.00294475 0)
(1.01729 -0.00257257 0)
(1.01757 -0.00226925 0)
(1.01786 -0.00209709 0)
(1.01804 -0.00182495 0)
(1.01818 -0.00159619 0)
(1.01823 -0.00125224 0)
(1.01821 -0.000787629 0)
(1.01819 -0.000315486 0)
(1.1142 0.232973 0)
(1.0952 0.206285 0)
(1.16315 0.142945 0)
(1.09622 0.113701 0)
(1.14082 0.088591 0)
(1.06712 0.0883096 0)
(1.06541 0.0908687 0)
(1.01766 0.0991469 0)
(1.02081 0.0776438 0)
(1.03623 0.0750755 0)
(1.04162 0.0608027 0)
(1.03998 0.0574364 0)
(1.04083 0.0474434 0)
(1.03312 0.0438683 0)
(1.02961 0.0339637 0)
(1.0265 0.0268063 0)
(1.02475 0.0185796 0)
(1.02384 0.0132758 0)
(1.0235 0.00857061 0)
(1.02287 0.00558421 0)
(1.02244 0.00300481 0)
(1.02184 0.00120543 0)
(1.0214 -0.000116954 0)
(1.02105 -0.00099532 0)
(1.02076 -0.00143871 0)
(1.02062 -0.00157945 0)
(1.02051 -0.00152504 0)
(1.02041 -0.00124143 0)
(1.02032 -0.000804693 0)
(1.02025 -0.000319809 0)
(0.912564 0.380661 0)
(0.933074 0.366348 0)
(0.975507 0.296005 0)
(0.967208 0.277628 0)
(1.06843 0.205481 0)
(1.07123 0.176918 0)
(1.14009 0.130747 0)
(1.0425 0.125047 0)
(1.03185 0.0932333 0)
(0.999455 0.082925 0)
(0.989676 0.0468453 0)
(0.98427 0.0337958 0)
(0.988395 0.0131227 0)
(0.993209 0.00112949 0)
(0.996744 -0.00387897 0)
(1.00044 -0.0065006 0)
(1.00351 -0.00563999 0)
(1.00649 -0.00546498 0)
(1.00864 -0.00463946 0)
(1.01091 -0.00431711 0)
(1.01273 -0.00371316 0)
(1.01444 -0.0031978 0)
(1.01582 -0.00284134 0)
(1.0168 -0.00249588 0)
(1.01756 -0.00235169 0)
(1.01804 -0.00211494 0)
(1.01835 -0.0018503 0)
(1.01853 -0.00146435 0)
(1.01859 -0.000928672 0)
(1.01861 -0.000360476 0)
(0.789929 0.374724 0)
(0.824363 0.376233 0)
(0.84368 0.371762 0)
(0.852031 0.387602 0)
(0.873171 0.366692 0)
(0.868073 0.338218 0)
(0.931848 0.271879 0)
(0.908704 0.196591 0)
(0.952814 0.136402 0)
(0.963415 0.0849888 0)
(0.966184 0.0619417 0)
(0.991111 0.0432304 0)
(0.993624 0.0316926 0)
(1.00754 0.0269748 0)
(1.01835 0.0186631 0)
(1.02535 0.0148467 0)
(1.02804 0.00981245 0)
(1.02804 0.00704668 0)
(1.02716 0.00417264 0)
(1.02558 0.00217297 0)
(1.0242 0.000501632 0)
(1.02302 -0.000775073 0)
(1.02209 -0.00152834 0)
(1.0216 -0.0020163 0)
(1.02128 -0.00218008 0)
(1.02116 -0.0020906 0)
(1.02114 -0.00190383 0)
(1.0211 -0.00150767 0)
(1.02106 -0.000965492 0)
(1.02103 -0.000373458 0)
(0.929239 0.159413 0)
(0.966222 0.153576 0)
(0.999308 0.165254 0)
(1.01738 0.167099 0)
(0.987551 0.185017 0)
(0.911111 0.184761 0)
(0.810265 0.187268 0)
(0.751151 0.150903 0)
(0.785779 0.139785 0)
(0.859618 0.0901443 0)
(0.921356 0.0742432 0)
(0.943548 0.0390024 0)
(0.974132 0.0274575 0)
(0.980881 0.00966356 0)
(0.984201 0.00568639 0)
(0.987862 -0.000157472 0)
(0.991894 -0.000891476 0)
(0.997193 -0.00209922 0)
(1.00191 -0.00214907 0)
(1.00639 -0.00215812 0)
(1.01002 -0.00210779 0)
(1.01275 -0.00197638 0)
(1.01486 -0.00215549 0)
(1.01625 -0.00224067 0)
(1.01728 -0.00233074 0)
(1.01803 -0.0022754 0)
(1.01854 -0.0020472 0)
(1.0189 -0.00164114 0)
(1.01909 -0.00105674 0)
(1.01919 -0.000400912 0)
(0.755436 -0.463994 0)
(0.789805 -0.473824 0)
(0.84032 -0.474002 0)
(0.85338 -0.499406 0)
(0.872909 -0.517749 0)
(0.851739 -0.521035 0)
(0.809168 -0.500865 0)
(0.787717 -0.419308 0)
(0.813167 -0.309083 0)
(0.843551 -0.215262 0)
(0.863754 -0.163076 0)
(0.903769 -0.108267 0)
(0.936327 -0.0778889 0)
(0.970927 -0.0492229 0)
(1.00235 -0.0352296 0)
(1.01813 -0.0222799 0)
(1.02641 -0.0157329 0)
(1.02728 -0.0108874 0)
(1.02629 -0.00804452 0)
(1.02456 -0.00646202 0)
(1.02304 -0.00532012 0)
(1.0221 -0.00475294 0)
(1.02145 -0.00420005 0)
(1.02127 -0.00377848 0)
(1.02131 -0.00345835 0)
(1.02144 -0.00301263 0)
(1.02164 -0.00257885 0)
(1.02179 -0.00199759 0)
(1.02186 -0.0012612 0)
(1.0219 -0.00047018 0)
(0.801711 -0.626014 0)
(0.832828 -0.597147 0)
(0.87465 -0.598377 0)
(0.91133 -0.572841 0)
(0.948344 -0.557662 0)
(0.997517 -0.489416 0)
(1.08086 -0.436516 0)
(1.13778 -0.31338 0)
(1.17333 -0.23744 0)
(1.1345 -0.145811 0)
(1.1138 -0.106994 0)
(1.08389 -0.0575853 0)
(1.06377 -0.034396 0)
(1.04117 -0.0115002 0)
(1.02 -0.00240855 0)
(1.01201 0.00302992 0)
(1.0073 0.0033973 0)
(1.00777 0.003515 0)
(1.00937 0.00218822 0)
(1.01136 0.00134487 0)
(1.01334 -7.17202e-06 0)
(1.01475 -0.00102831 0)
(1.01597 -0.00202429 0)
(1.01696 -0.00271307 0)
(1.01776 -0.00300086 0)
(1.01852 -0.00299268 0)
(1.01912 -0.00270852 0)
(1.01958 -0.0021497 0)
(1.01987 -0.0013816 0)
(1.02002 -0.000512282 0)
(0.863382 -0.423526 0)
(0.941196 -0.377545 0)
(1.01996 -0.328005 0)
(1.08999 -0.271006 0)
(1.1614 -0.211708 0)
(1.23521 -0.154526 0)
(1.25501 -0.110823 0)
(1.24885 -0.0862487 0)
(1.19615 -0.0703694 0)
(1.12386 -0.0792451 0)
(1.05993 -0.055235 0)
(1.04437 -0.0719087 0)
(1.02402 -0.0488059 0)
(1.02356 -0.0546731 0)
(1.02238 -0.0412539 0)
(1.02225 -0.0360313 0)
(1.02195 -0.0265295 0)
(1.02136 -0.0210035 0)
(1.02041 -0.0154116 0)
(1.02006 -0.0120638 0)
(1.01977 -0.0093991 0)
(1.02003 -0.00773605 0)
(1.02046 -0.00663083 0)
(1.02096 -0.00572153 0)
(1.02157 -0.00511271 0)
(1.02207 -0.00442419 0)
(1.0225 -0.00369057 0)
(1.02282 -0.00282506 0)
(1.023 -0.0017714 0)
(1.02309 -0.000643411 0)
(1.10618 -0.171967 0)
(1.17685 -0.135169 0)
(1.23956 -0.0904969 0)
(1.27898 -0.0599556 0)
(1.31495 -0.0147101 0)
(1.31828 -0.0116242 0)
(1.29953 0.0138265 0)
(1.2809 -0.00560537 0)
(1.21421 0.00794121 0)
(1.2147 -0.0170402 0)
(1.13969 0.0137156 0)
(1.12805 0.0114934 0)
(1.10113 0.0213109 0)
(1.07427 0.0282076 0)
(1.05907 0.0256005 0)
(1.04547 0.0230962 0)
(1.03549 0.0160942 0)
(1.02775 0.0110757 0)
(1.02294 0.005657 0)
(1.01953 0.00194128 0)
(1.01784 -0.0011244 0)
(1.01712 -0.00325515 0)
(1.01709 -0.00448172 0)
(1.01769 -0.00516658 0)
(1.01842 -0.00523459 0)
(1.01927 -0.00484044 0)
(1.02008 -0.00419243 0)
(1.02071 -0.00323112 0)
(1.02114 -0.0020404 0)
(1.02136 -0.000738562 0)
(1.23375 0.304703 0)
(1.26655 0.298405 0)
(1.29622 0.289966 0)
(1.30865 0.284995 0)
(1.30428 0.266744 0)
(1.28274 0.249534 0)
(1.25492 0.219997 0)
(1.22146 0.199079 0)
(1.15896 0.169941 0)
(1.14025 0.137366 0)
(1.12864 0.0993115 0)
(1.06166 0.083269 0)
(1.0563 0.0484594 0)
(1.02725 0.0272259 0)
(1.00978 0.014708 0)
(1.00352 0.00362572 0)
(1.00241 -0.000270911 0)
(1.0062 -0.00390782 0)
(1.00945 -0.00541883 0)
(1.0127 -0.00665565 0)
(1.01525 -0.00751699 0)
(1.01733 -0.00782115 0)
(1.01929 -0.00805551 0)
(1.02075 -0.00778683 0)
(1.02198 -0.00725263 0)
(1.02299 -0.0064552 0)
(1.02375 -0.00538526 0)
(1.02431 -0.00408533 0)
(1.02466 -0.00255636 0)
(1.02483 -0.000909161 0)
(1.17102 0.446744 0)
(1.1927 0.435276 0)
(1.20694 0.414179 0)
(1.20641 0.382131 0)
(1.1971 0.341401 0)
(1.17592 0.315881 0)
(1.13656 0.250642 0)
(1.07914 0.225144 0)
(1.05526 0.158414 0)
(0.970712 0.136222 0)
(0.999294 0.0781215 0)
(0.97385 0.0714212 0)
(0.97988 0.0389878 0)
(0.993519 0.0303118 0)
(1.01095 0.0146798 0)
(1.01659 0.00754954 0)
(1.01849 0.00110716 0)
(1.01691 -0.00375563 0)
(1.01559 -0.00697271 0)
(1.01492 -0.00943068 0)
(1.01491 -0.0104103 0)
(1.0158 -0.0109144 0)
(1.0169 -0.0106585 0)
(1.01825 -0.0099993 0)
(1.01963 -0.00914462 0)
(1.02081 -0.00789589 0)
(1.02185 -0.00649484 0)
(1.02262 -0.0048716 0)
(1.02313 -0.00302417 0)
(1.02338 -0.00106867 0)
(1.09715 0.634476 0)
(1.08277 0.619078 0)
(1.06544 0.595819 0)
(1.05212 0.570903 0)
(1.03293 0.526036 0)
(1.01505 0.496298 0)
(0.992919 0.433389 0)
(0.946447 0.385663 0)
(0.992987 0.314214 0)
(0.955057 0.256556 0)
(1.03394 0.193361 0)
(1.00056 0.146118 0)
(1.01208 0.104363 0)
(0.996942 0.0823212 0)
(0.990882 0.0571099 0)
(0.991313 0.0402946 0)
(0.995046 0.0241404 0)
(1.00094 0.0125955 0)
(1.00644 0.00332905 0)
(1.011 -0.00282698 0)
(1.01506 -0.00729432 0)
(1.0181 -0.0096824 0)
(1.02059 -0.0107162 0)
(1.02261 -0.0108196 0)
(1.02411 -0.0100904 0)
(1.02536 -0.00888166 0)
(1.02632 -0.00734563 0)
(1.02701 -0.00549797 0)
(1.02745 -0.00341904 0)
(1.02767 -0.00119925 0)
(0.997404 0.541694 0)
(0.983557 0.509176 0)
(0.965554 0.469077 0)
(0.932844 0.423027 0)
(0.900167 0.376404 0)
(0.83817 0.311803 0)
(0.794267 0.255858 0)
(0.703155 0.181044 0)
(0.689289 0.120285 0)
(0.639607 0.0525446 0)
(0.710406 0.00783129 0)
(0.763447 -0.0293799 0)
(0.833403 -0.0446465 0)
(0.884419 -0.058779 0)
(0.923281 -0.0605114 0)
(0.948308 -0.0560548 0)
(0.967218 -0.0475327 0)
(0.980572 -0.0402576 0)
(0.990711 -0.033262 0)
(0.999207 -0.0283663 0)
(1.00573 -0.0239634 0)
(1.01104 -0.0204929 0)
(1.01532 -0.0178684 0)
(1.01846 -0.0153892 0)
(1.02097 -0.0132134 0)
(1.02286 -0.0110376 0)
(1.02427 -0.00880101 0)
(1.02529 -0.00647461 0)
(1.02592 -0.0039815 0)
(1.02625 -0.00138295 0)
(0.824291 -0.117322 0)
(0.800381 -0.153125 0)
(0.776973 -0.177429 0)
(0.729939 -0.215304 0)
(0.685591 -0.241443 0)
(0.620678 -0.285084 0)
(0.582785 -0.30856 0)
(0.55236 -0.328538 0)
(0.587679 -0.313758 0)
(0.652973 -0.283469 0)
(0.783323 -0.223477 0)
(0.886408 -0.15635 0)
(0.932054 -0.105535 0)
(0.967601 -0.0603447 0)
(0.996701 -0.0467641 0)
(1.01481 -0.0330126 0)
(1.02258 -0.0304862 0)
(1.02397 -0.025992 0)
(1.02471 -0.0246125 0)
(1.02477 -0.0227837 0)
(1.0253 -0.0212291 0)
(1.02617 -0.0199117 0)
(1.02684 -0.0180838 0)
(1.02779 -0.016196 0)
(1.02876 -0.0141999 0)
(1.02961 -0.0119173 0)
(1.03038 -0.00955607 0)
(1.03095 -0.0070224 0)
(1.03131 -0.00431408 0)
(1.0315 -0.00149371 0)
(0.779966 -0.332418 0)
(0.747396 -0.337678 0)
(0.718 -0.337844 0)
(0.683779 -0.33463 0)
(0.659274 -0.322005 0)
(0.645771 -0.302791 0)
(0.669927 -0.268008 0)
(0.7282 -0.230625 0)
(0.808465 -0.17802 0)
(0.909852 -0.148953 0)
(1.00957 -0.0995066 0)
(1.05636 -0.0985803 0)
(1.05647 -0.0669544 0)
(1.01812 -0.066711 0)
(0.988428 -0.048444 0)
(0.98253 -0.0446937 0)
(0.983476 -0.0372595 0)
(0.991156 -0.0336248 0)
(0.998153 -0.0302294 0)
(1.00449 -0.0266392 0)
(1.01058 -0.0245413 0)
(1.01534 -0.0221716 0)
(1.01939 -0.0200507 0)
(1.02264 -0.0179258 0)
(1.02505 -0.0155148 0)
(1.02696 -0.0129976 0)
(1.02836 -0.0103641 0)
(1.02934 -0.00758 0)
(1.02997 -0.0046506 0)
(1.03027 -0.00160153 0)
(0.757309 -0.582311 0)
(0.739862 -0.570929 0)
(0.736961 -0.544208 0)
(0.746472 -0.510772 0)
(0.76555 -0.465853 0)
(0.789257 -0.412947 0)
(0.816965 -0.347084 0)
(0.844201 -0.285978 0)
(0.85868 -0.21414 0)
(0.911419 -0.164999 0)
(0.925375 -0.116025 0)
(0.983391 -0.112337 0)
(0.982725 -0.101896 0)
(1.00522 -0.0963724 0)
(1.02437 -0.0883778 0)
(1.03019 -0.0771203 0)
(1.03367 -0.0660454 0)
(1.0339 -0.0577547 0)
(1.03243 -0.0488955 0)
(1.03178 -0.0424426 0)
(1.03102 -0.0361829 0)
(1.03104 -0.0306684 0)
(1.03186 -0.0262837 0)
(1.03272 -0.0222038 0)
(1.03372 -0.0186064 0)
(1.03458 -0.0152094 0)
(1.03526 -0.011891 0)
(1.03576 -0.00860583 0)
(1.03605 -0.00523722 0)
(1.0362 -0.00179329 0)
(0.989311 -0.36694 0)
(1.0123 -0.321552 0)
(1.04161 -0.273474 0)
(1.0704 -0.222917 0)
(1.09859 -0.171901 0)
(1.12257 -0.12121 0)
(1.15103 -0.0737587 0)
(1.17729 -0.0290742 0)
(1.20139 0.0111728 0)
(1.2174 0.041117 0)
(1.14405 0.0704405 0)
(1.12542 0.0672057 0)
(1.12132 0.048895 0)
(1.07306 0.0564064 0)
(1.05909 0.0256217 0)
(1.04369 0.0161899 0)
(1.03532 -0.00226877 0)
(1.02919 -0.0114797 0)
(1.02802 -0.0196384 0)
(1.02806 -0.0240141 0)
(1.02851 -0.0254162 0)
(1.02942 -0.0253261 0)
(1.03025 -0.0237743 0)
(1.03129 -0.0214224 0)
(1.03243 -0.0187131 0)
(1.03341 -0.0156169 0)
(1.03427 -0.0123904 0)
(1.03488 -0.00902443 0)
(1.03528 -0.00550709 0)
(1.03547 -0.00188794 0)
(1.15288 0.503351 0)
(1.15649 0.508697 0)
(1.15898 0.503153 0)
(1.15619 0.499148 0)
(1.15138 0.484172 0)
(1.13962 0.464279 0)
(1.128 0.431099 0)
(1.11439 0.391137 0)
(1.09931 0.333935 0)
(1.07456 0.251513 0)
(1.03601 0.198314 0)
(0.929146 0.102173 0)
(0.979273 0.0536652 0)
(0.942846 0.00158548 0)
(0.944112 -0.016686 0)
(0.963202 -0.0302161 0)
(0.982024 -0.0363414 0)
(0.999292 -0.0359587 0)
(1.01249 -0.0367479 0)
(1.02152 -0.0350833 0)
(1.02851 -0.0338004 0)
(1.03332 -0.0315942 0)
(1.03656 -0.0286031 0)
(1.03883 -0.0252489 0)
(1.04026 -0.0215773 0)
(1.04119 -0.0177727 0)
(1.04177 -0.0139559 0)
(1.04208 -0.0100822 0)
(1.04221 -0.00612792 0)
(1.04226 -0.00209225 0)
(1.04399 0.485823 0)
(1.02355 0.453929 0)
(0.998448 0.419234 0)
(0.969183 0.377229 0)
(0.932631 0.331552 0)
(0.8876 0.276646 0)
(0.834605 0.218718 0)
(0.776706 0.147101 0)
(0.707192 0.0849483 0)
(0.637656 -0.0088725 0)
(0.646433 -0.0590734 0)
(0.658853 -0.127384 0)
(0.780745 -0.136654 0)
(0.869599 -0.156706 0)
(0.939717 -0.139019 0)
(0.982236 -0.122807 0)
(1.00333 -0.102812 0)
(1.01599 -0.0860753 0)
(1.02266 -0.0719005 0)
(1.0273 -0.0597523 0)
(1.03115 -0.0503019 0)
(1.03429 -0.0421453 0)
(1.03692 -0.0354827 0)
(1.03882 -0.0296854 0)
(1.04013 -0.024513 0)
(1.04104 -0.0197758 0)
(1.0416 -0.0153044 0)
(1.04192 -0.0109677 0)
(1.04207 -0.00663377 0)
(1.04211 -0.00225787 0)
(0.858073 -0.0196313 0)
(0.832637 -0.037486 0)
(0.803007 -0.0549589 0)
(0.770672 -0.0755757 0)
(0.736606 -0.0949292 0)
(0.701981 -0.118406 0)
(0.668408 -0.136927 0)
(0.645081 -0.160504 0)
(0.629812 -0.16843 0)
(0.648498 -0.182237 0)
(0.707128 -0.165997 0)
(0.783116 -0.158664 0)
(0.89876 -0.136135 0)