/*--------------------------------*- C++ -*----------------------------------*\
| =========                 |                                                 |
| \\      /  F ield         | OpenFOAM: The Open Source CFD Toolbox           |
|  \\    /   O peration     | Version:                                        |
|   \\  /    A nd           | Website:  www.openfoam.com                      |
|    \\/     M anipulation  |                                                 |
\*---------------------------------------------------------------------------*/
FoamFile
{
    version     2.0;
    format      ascii;
    class       volScalarField;
    location    "22.8";
    object      p;
}
// * * * * * * * * * * * * * * * * * * * * * * * * * * * * * * * * * * * * * //

dimensions      [0 2 -2 0 0 0 0];


internalField   nonuniform List<scalar> 
400
(
0.278213
0.270295
0.262443
0.254655
0.24693
0.239265
0.231658
0.224106
0.216609
0.209164
0.201769
0.194423
0.187124
0.179871
0.172661
0.165494
0.158367
0.15128
0.144232
0.13722
0.278372
0.270446
0.262588
0.254794
0.247063
0.239392
0.23178
0.224223
0.216721
0.209271
0.201872
0.194522
0.187219
0.179962
0.172749
0.165578
0.158448
0.151358
0.144307
0.137292
0.278509
0.270577
0.262712
0.254913
0.247177
0.239501
0.231884
0.224323
0.216816
0.209363
0.20196
0.194606
0.1873
0.18004
0.172823
0.16565
0.158517
0.151424
0.14437
0.137353
0.278621
0.270684
0.262814
0.25501
0.247269
0.239589
0.231968
0.224403
0.216894
0.209437
0.202031
0.194674
0.187365
0.180102
0.172883
0.165707
0.158572
0.151477
0.144421
0.137402
0.278726
0.270783
0.262908
0.2551
0.247354
0.23967
0.232045
0.224477
0.216964
0.209504
0.202095
0.194735
0.187423
0.180158
0.172936
0.165758
0.158621
0.151524
0.144466
0.137445
0.278829
0.270881
0.263001
0.255187
0.247437
0.239749
0.23212
0.224548
0.217032
0.209568
0.202156
0.194794
0.18748
0.180211
0.172988
0.165807
0.158668
0.151569
0.144509
0.137486
0.278936
0.270981
0.263095
0.255276
0.247521
0.239829
0.232195
0.22462
0.2171
0.209633
0.202218
0.194853
0.187535
0.180264
0.173038
0.165855
0.158714
0.151613
0.144551
0.137527
0.279048
0.271086
0.263194
0.255369
0.247609
0.239912
0.232274
0.224694
0.21717
0.2097
0.202281
0.194913
0.187593
0.180319
0.17309
0.165905
0.158762
0.151658
0.144594
0.137568
0.279169
0.2712
0.263301
0.255469
0.247703
0.24
0.232358
0.224773
0.217245
0.209771
0.202348
0.194977
0.187653
0.180377
0.173145
0.165957
0.158811
0.151706
0.14464
0.137611
0.2793
0.271322
0.263415
0.255577
0.247805
0.240096
0.232447
0.224858
0.217325
0.209847
0.20242
0.195045
0.187718
0.180438
0.173204
0.166013
0.158864
0.151757
0.144688
0.137657
0.27944
0.271453
0.263538
0.255692
0.247913
0.240197
0.232543
0.224949
0.217411
0.209927
0.202497
0.195118
0.187787
0.180504
0.173266
0.166072
0.158921
0.15181
0.144739
0.137706
0.279586
0.271589
0.263666
0.255812
0.248026
0.240304
0.232644
0.225044
0.2175
0.210012
0.202578
0.195194
0.18786
0.180573
0.173332
0.166135
0.15898
0.151867
0.144793
0.137758
0.279734
0.271729
0.263796
0.255935
0.248141
0.240413
0.232747
0.225141
0.217592
0.2101
0.20266
0.195272
0.187934
0.180643
0.173399
0.166199
0.159041
0.151925
0.144849
0.137811
0.279881
0.271866
0.263926
0.256057
0.248256
0.240521
0.232849
0.225237
0.217684
0.210186
0.202742
0.19535
0.188008
0.180714
0.173466
0.166263
0.159102
0.151983
0.144904
0.137864
0.280019
0.271996
0.264048
0.256172
0.248365
0.240624
0.232946
0.225329
0.217771
0.210269
0.202821
0.195425
0.188079
0.180781
0.17353
0.166324
0.159161
0.152039
0.144957
0.137914
0.280145
0.272114
0.26416
0.256277
0.248464
0.240718
0.233035
0.225413
0.217851
0.210345
0.202893
0.195493
0.188144
0.180843
0.173589
0.16638
0.159214
0.15209
0.145006
0.137961
0.280253
0.272216
0.264255
0.256367
0.248549
0.240798
0.233111
0.225486
0.21792
0.21041
0.202955
0.195552
0.1882
0.180897
0.17364
0.166429
0.159261
0.152135
0.145049
0.138002
0.280337
0.272296
0.264331
0.256439
0.248617
0.240862
0.233172
0.225543
0.217974
0.210462
0.203004
0.195599
0.188245
0.18094
0.173681
0.166468
0.159298
0.15217
0.145082
0.138034
0.280396
0.272351
0.264383
0.256488
0.248664
0.240907
0.233214
0.225583
0.218012
0.210498
0.203039
0.195632
0.188276
0.180969
0.173709
0.166495
0.159324
0.152195
0.145106
0.138056
0.280426
0.272379
0.26441
0.256513
0.248688
0.240929
0.233236
0.225604
0.218032
0.210516
0.203056
0.195649
0.188292
0.180985
0.173724
0.166509
0.159337
0.152207
0.145118
0.138068
)
;

boundaryField
{
    fixedWalls
    {
        type            zeroGradient;
    }
    inlet
    {
        type            zeroGradient;
    }
    outlet
    {
        type            fixedValue;
        value           nonuniform 0();
    }
    frontAndBack
    {
        type            empty;
    }
    procBoundary2to1
    {
        type            processor;
        value           nonuniform List<scalar> 
20
(
0.286201
0.286367
0.286511
0.286629
0.286739
0.286849
0.286962
0.287083
0.287212
0.287352
0.287502
0.287658
0.287817
0.287973
0.288121
0.288255
0.288369
0.288459
0.288522
0.288553
)
;
    }
    procBoundary2to3
    {
        type            processor;
        value           nonuniform List<scalar> 
20
(
0.130244
0.130314
0.130372
0.130419
0.130461
0.1305
0.130539
0.130578
0.130619
0.130663
0.13071
0.130759
0.13081
0.13086
0.130909
0.130953
0.130992
0.131023
0.131044
0.131056
)
;
    }
    procBoundary2to6
    {
        type            processor;
        value           nonuniform List<scalar> 
20
(
0.280426
0.272379
0.26441
0.256513
0.248688
0.240929
0.233236
0.225604
0.218032
0.210516
0.203056
0.195649
0.188292
0.180985
0.173724
0.166509
0.159337
0.152207
0.145118
0.138068
)
;
    }
}


// ************************************************************************* //
