/*--------------------------------*- C++ -*----------------------------------*\
| =========                 |                                                 |
| \\      /  F ield         | OpenFOAM: The Open Source CFD Toolbox           |
|  \\    /   O peration     | Version:                                        |
|   \\  /    A nd           | Website:  www.openfoam.com                      |
|    \\/     M anipulation  |                                                 |
\*---------------------------------------------------------------------------*/
FoamFile
{
    version     2.0;
    format      ascii;
    class       surfaceScalarField;
    location    "0.2";
    object      phi;
}
// * * * * * * * * * * * * * * * * * * * * * * * * * * * * * * * * * * * * * //

dimensions      [0 3 -1 0 0 0 0];
oriented        oriented;


internalField   nonuniform List<scalar> 
760
(
3.4234e-05
-6.60144e-08
3.42931e-05
-5.90398e-08
3.43458e-05
-5.25012e-08
3.43925e-05
-4.65538e-08
3.44337e-05
-4.10188e-08
3.44697e-05
-3.58621e-08
3.45009e-05
-3.10939e-08
3.45278e-05
-2.67331e-08
3.45508e-05
-2.27867e-08
3.45703e-05
-1.92525e-08
3.45866e-05
-1.61213e-08
3.46003e-05
-1.33716e-08
3.46115e-05
-1.09916e-08
3.46207e-05
-8.93165e-09
3.46282e-05
-7.21061e-09
3.46341e-05
-5.70811e-09
3.4639e-05
-4.56724e-09
3.46427e-05
-3.49061e-09
3.46455e-05
-2.54833e-09
-2.35858e-09
3.41791e-05
-1.28569e-07
3.42352e-05
-1.15086e-07
3.42851e-05
-1.02473e-07
3.43293e-05
-9.07729e-08
3.43682e-05
-7.98838e-08
3.44021e-05
-6.9785e-08
3.44315e-05
-6.04883e-08
3.44568e-05
-5.2008e-08
3.44784e-05
-4.43461e-08
3.44966e-05
-3.74915e-08
3.45119e-05
-3.14239e-08
3.45246e-05
-2.60988e-08
3.45351e-05
-2.14881e-08
3.45437e-05
-1.75058e-08
3.45507e-05
-1.41618e-08
3.45562e-05
-1.1273e-08
3.45607e-05
-9.00772e-09
3.45641e-05
-6.95139e-09
3.45668e-05
-5.2663e-09
-4.62219e-09
3.40627e-05
-1.84595e-07
3.41129e-05
-1.65282e-07
3.41575e-05
-1.47077e-07
3.41968e-05
-1.30082e-07
3.42312e-05
-1.14293e-07
3.42611e-05
-9.97056e-08
3.4287e-05
-8.6326e-08
3.43091e-05
-7.41529e-08
3.4328e-05
-6.31779e-08
3.43438e-05
-5.33755e-08
3.43571e-05
-4.471e-08
3.43682e-05
-3.71164e-08
3.43772e-05
-3.05457e-08
3.43846e-05
-2.48862e-08
3.43905e-05
-2.01177e-08
3.43953e-05
-1.60465e-08
3.43991e-05
-1.27668e-08
3.44021e-05
-9.94433e-09
3.44044e-05
-7.64077e-09
-6.2444e-09
3.38721e-05
-2.31472e-07
3.39139e-05
-2.07061e-07
3.39508e-05
-1.84001e-07
3.39831e-05
-1.62436e-07
3.40113e-05
-1.42442e-07
3.40356e-05
-1.24036e-07
3.40565e-05
-1.07212e-07
3.40743e-05
-9.19506e-08
3.40894e-05
-7.82275e-08
3.4102e-05
-6.59981e-08
3.41125e-05
-5.52088e-08
3.41211e-05
-4.57745e-08
3.41282e-05
-3.76213e-08
3.4134e-05
-3.06213e-08
3.41385e-05
-2.47135e-08
3.41422e-05
-1.97199e-08
3.41451e-05
-1.56202e-08
3.41474e-05
-1.22298e-08
3.41491e-05
-9.41671e-09
-7.37122e-09
3.35886e-05
-2.67084e-07
3.362e-05
-2.38503e-07
3.36475e-05
-2.11529e-07
3.36714e-05
-1.86324e-07
3.3692e-05
-1.63018e-07
3.37096e-05
-1.41639e-07
3.37245e-05
-1.22166e-07
3.37372e-05
-1.04561e-07
3.37477e-05
-8.87793e-08
3.37565e-05
-7.47553e-08
3.37637e-05
-6.24146e-08
3.37696e-05
-5.16526e-08
3.37743e-05
-4.23709e-08
3.37781e-05
-3.44293e-08
3.37811e-05
-2.77255e-08
3.37835e-05
-2.21033e-08
3.37853e-05
-1.74387e-08
3.37868e-05
-1.36765e-08
3.37879e-05
-1.05227e-08
-8.01458e-09
3.31888e-05
-2.90083e-07
3.32087e-05
-2.58436e-07
3.32258e-05
-2.28652e-07
3.32404e-05
-2.0089e-07
3.32527e-05
-1.75306e-07
3.3263e-05
-1.51923e-07
3.32715e-05
-1.30705e-07
3.32785e-05
-1.11592e-07
3.32843e-05
-9.45181e-08
3.32889e-05
-7.93963e-08
3.32926e-05
-6.61308e-08
3.32956e-05
-5.45988e-08
3.32979e-05
-4.4679e-08
3.32997e-05
-3.62223e-08
3.3301e-05
-2.90921e-08
3.33021e-05
-2.31483e-08
3.33028e-05
-1.81965e-08
3.33034e-05
-1.4259e-08
3.33038e-05
-1.09437e-08
-8.19268e-09
3.26456e-05
-2.99986e-07
3.26537e-05
-2.66512e-07
3.26602e-05
-2.35131e-07
3.26653e-05
-2.05992e-07
3.26692e-05
-1.79239e-07
3.26722e-05
-1.54883e-07
3.26744e-05
-1.32868e-07
3.26759e-05
-1.13116e-07
3.26769e-05
-9.55391e-08
3.26775e-05
-8.00292e-08
3.26779e-05
-6.6471e-08
3.2678e-05
-5.47267e-08
3.2678e-05
-4.46556e-08
3.26779e-05
-3.61024e-08
3.26777e-05
-2.89081e-08
3.26775e-05
-2.29387e-08
3.26772e-05
-1.7967e-08
3.2677e-05
-1.40454e-08
3.26768e-05
-1.074e-08
-7.95273e-09
3.19299e-05
-2.9721e-07
3.19266e-05
-2.6322e-07
3.1923e-05
-2.31503e-07
3.19192e-05
-2.02184e-07
3.19153e-05
-1.75378e-07
3.19115e-05
-1.5107e-07
3.19078e-05
-1.29189e-07
3.19043e-05
-1.09639e-07
3.19011e-05
-9.23117e-08
3.18982e-05
-7.70841e-08
3.18955e-05
-6.38235e-08
3.18932e-05
-5.23819e-08
3.18911e-05
-4.2605e-08
3.18894e-05
-3.43335e-08
3.18879e-05
-2.73994e-08
3.18866e-05
-2.16686e-08
3.18855e-05
-1.69105e-08
3.18846e-05
-1.31703e-08
3.18839e-05
-1.00238e-08
-7.37575e-09
3.10115e-05
-2.83027e-07
3.09981e-05
-2.4982e-07
3.09856e-05
-2.18993e-07
3.0974e-05
-1.90639e-07
3.09635e-05
-1.64822e-07
3.09539e-05
-1.41506e-07
3.09453e-05
-1.20605e-07
3.09377e-05
-1.0201e-07
3.0931e-05
-8.56e-08
3.09251e-05
-7.12391e-08
3.09201e-05
-5.87837e-08
3.09158e-05
-4.80811e-08
3.09122e-05
-3.89709e-08
3.09091e-05
-3.12933e-08
3.09066e-05
-2.48828e-08
3.09045e-05
-1.96028e-08
3.09029e-05
-1.52412e-08
3.09015e-05
-1.18141e-08
3.09004e-05
-8.94482e-09
-6.56223e-09
2.98612e-05
-2.59423e-07
2.98396e-05
-2.28197e-07
2.982e-05
-1.9937e-07
2.98023e-05
-1.72987e-07
2.97866e-05
-1.49063e-07
2.97726e-05
-1.27541e-07
2.97603e-05
-1.08328e-07
2.97496e-05
-9.13085e-08
2.97404e-05
-7.63526e-08
2.97325e-05
-6.33213e-08
2.97258e-05
-5.20654e-08
2.97201e-05
-4.24339e-08
2.97154e-05
-3.4269e-08
2.97115e-05
-2.74143e-08
2.97084e-05
-2.17154e-08
2.97058e-05
-1.70369e-08
2.97037e-05
-1.31952e-08
2.97021e-05
-1.01716e-08
2.97008e-05
-7.66224e-09
-5.61681e-09
2.84524e-05
-2.28876e-07
2.84249e-05
-2.00645e-07
2.84002e-05
-1.7473e-07
2.83784e-05
-1.51125e-07
2.83591e-05
-1.29798e-07
2.83423e-05
-1.10683e-07
2.83276e-05
-9.36873e-08
2.8315e-05
-7.86958e-08
2.83042e-05
-6.55772e-08
2.82951e-05
-5.41956e-08
2.82874e-05
-4.44046e-08
2.82811e-05
-3.60599e-08
2.82758e-05
-2.90154e-08
2.82715e-05
-2.31236e-08
2.82681e-05
-1.82456e-08
2.82653e-05
-1.42546e-08
2.82631e-05
-1.09975e-08
2.82613e-05
-8.4248e-09
2.826e-05
-6.31932e-09
-4.63336e-09
2.67622e-05
-1.94082e-07
2.67311e-05
-1.69604e-07
2.67037e-05
-1.4726e-07
2.66795e-05
-1.26989e-07
2.66584e-05
-1.08731e-07
2.66402e-05
-9.24212e-08
2.66245e-05
-7.79754e-08
2.66111e-05
-6.52841e-08
2.65997e-05
-5.4222e-08
2.65902e-05
-4.46626e-08
2.65822e-05
-3.64712e-08
2.65757e-05
-2.95152e-08
2.65703e-05
-2.36659e-08
2.6566e-05
-1.87924e-08
2.65625e-05
-1.47722e-08
2.65598e-05
-1.1494e-08
2.65576e-05
-8.83407e-09
2.65559e-05
-6.72381e-09
2.65546e-05
-5.02857e-09
-3.68407e-09
2.47723e-05
-1.57674e-07
2.47401e-05
-1.3741e-07
2.47119e-05
-1.19006e-07
2.46872e-05
-1.02357e-07
2.46659e-05
-8.73987e-08
2.46476e-05
-7.40762e-08
2.46319e-05
-6.23162e-08
2.46186e-05
-5.20222e-08
2.46075e-05
-4.30808e-08
2.45982e-05
-3.53802e-08
2.45905e-05
-2.8805e-08
2.45843e-05
-2.32398e-08
2.45792e-05
-1.85754e-08
2.45751e-05
-1.47027e-08
2.45718e-05
-1.15181e-08
2.45693e-05
-8.92922e-09
2.45673e-05
-6.83794e-09
2.45657e-05
-5.17353e-09
2.45646e-05
-3.86354e-09
-2.81736e-09
2.24704e-05
-1.21978e-07
2.24391e-05
-1.06079e-07
2.24118e-05
-9.1694e-08
2.23881e-05
-7.87011e-08
2.23678e-05
-6.70476e-08
2.23504e-05
-5.66948e-08
2.23357e-05
-4.75816e-08
2.23233e-05
-3.96281e-08
2.23129e-05
-3.27399e-08
2.23044e-05
-2.68234e-08
2.22973e-05
-2.17858e-08
2.22916e-05
-1.75341e-08
2.2287e-05
-1.39795e-08
2.22834e-05
-1.10359e-08
2.22805e-05
-8.62142e-09
2.22782e-05
-6.66431e-09
2.22765e-05
-5.0868e-09
2.22751e-05
-3.83061e-09
2.22741e-05
-2.85926e-09
-2.06187e-09
1.98501e-05
-8.88656e-08
1.98212e-05
-7.71864e-08
1.97961e-05
-6.66404e-08
1.97746e-05
-5.71155e-08
1.97561e-05
-4.85811e-08
1.97404e-05
-4.10135e-08
1.97272e-05
-3.43656e-08
1.97161e-05
-2.85753e-08
1.9707e-05
-2.35714e-08
1.96994e-05
-1.92821e-08
1.96933e-05
-1.5636e-08
1.96883e-05
-1.25637e-08
1.96843e-05
-1e-08
1.96812e-05
-7.88094e-09
1.96787e-05
-6.14514e-09
1.96768e-05
-4.74149e-09
1.96753e-05
-3.60961e-09
1.96742e-05
-2.71039e-09
1.96733e-05
-2.02154e-09
-1.4314e-09
1.69112e-05
-5.9711e-08
1.68858e-05
-5.18513e-08
1.68639e-05
-4.47525e-08
1.68451e-05
-3.83327e-08
1.68291e-05
-3.25814e-08
1.68156e-05
-2.74865e-08
1.68043e-05
-2.30166e-08
1.67948e-05
-1.91277e-08
1.6787e-05
-1.57691e-08
1.67806e-05
-1.28918e-08
1.67754e-05
-1.04487e-08
1.67713e-05
-8.39098e-09
1.67679e-05
-6.67472e-09
1.67653e-05
-5.25753e-09
1.67633e-05
-4.09646e-09
1.67617e-05
-3.15891e-09
1.67605e-05
-2.40117e-09
1.67596e-05
-1.80171e-09
1.67589e-05
-1.34048e-09
-9.27806e-10
1.36596e-05
-3.547e-08
1.36386e-05
-3.08293e-08
1.36205e-05
-2.66269e-08
1.3605e-05
-2.28163e-08
1.35918e-05
-1.94004e-08
1.35807e-05
-1.63742e-08
1.35714e-05
-1.37181e-08
1.35636e-05
-1.14067e-08
1.35573e-05
-9.41024e-09
1.35521e-05
-7.69833e-09
1.35479e-05
-6.2436e-09
1.35445e-05
-5.01764e-09
1.35418e-05
-3.99415e-09
1.35397e-05
-3.14873e-09
1.35381e-05
-2.45501e-09
1.35368e-05
-1.89472e-09
1.35359e-05
-1.44001e-09
1.35351e-05
-1.08231e-09
1.35346e-05
-8.01942e-10
-5.42807e-10
1.01073e-05
-1.68687e-08
1.00911e-05
-1.46952e-08
1.00772e-05
-1.27165e-08
1.00653e-05
-1.0915e-08
1.00552e-05
-9.29663e-09
1.00467e-05
-7.8602e-09
1.00396e-05
-6.59814e-09
1.00337e-05
-5.4977e-09
1.00288e-05
-4.54484e-09
1.00248e-05
-3.72579e-09
1.00216e-05
-3.02829e-09
1.0019e-05
-2.43897e-09
1.0017e-05
-1.94568e-09
1.00154e-05
-1.53758e-09
1.00141e-05
-1.20146e-09
1.00132e-05
-9.29512e-10
1.00124e-05
-7.07465e-10
1.00119e-05
-5.33981e-10
1.00115e-05
-3.94045e-10
-2.619e-10
6.27084e-06
-4.67019e-09
6.26023e-06
-4.08649e-09
6.25106e-06
-3.55031e-09
6.24321e-06
-3.05828e-09
6.23653e-06
-2.61458e-09
6.23088e-06
-2.21896e-09
6.22616e-06
-1.86991e-09
6.22222e-06
-1.56457e-09
6.21898e-06
-1.29892e-09
6.21632e-06
-1.06908e-09
6.21416e-06
-8.72388e-10
6.21243e-06
-7.05485e-10
6.21105e-06
-5.64988e-10
6.20996e-06
-4.48436e-10
6.20911e-06
-3.51841e-10
6.20846e-06
-2.73358e-10
6.20796e-06
-2.08634e-10
6.20758e-06
-1.58737e-10
6.2073e-06
-1.17045e-10
-7.61409e-11
2.17073e-06
2.16664e-06
2.16309e-06
2.16003e-06
2.15742e-06
2.1552e-06
2.15333e-06
2.15176e-06
2.15047e-06
2.1494e-06
2.14852e-06
2.14782e-06
2.14725e-06
2.1468e-06
2.14645e-06
2.14618e-06
2.14597e-06
2.14581e-06
2.1457e-06
)
;

boundaryField
{
    fixedWalls
    {
        type            calculated;
        value           uniform 0;
    }
    inlet
    {
        type            calculated;
        value           nonuniform 0();
    }
    outlet
    {
        type            calculated;
        value           nonuniform 0();
    }
    frontAndBack
    {
        type            empty;
        value           nonuniform 0();
    }
    procBoundary6to2
    {
        type            processor;
        value           nonuniform List<scalar> 
20
(
-2.20284e-11
-9.77803e-11
-1.66476e-10
-1.68769e-10
-1.48892e-10
-1.45428e-10
-1.57996e-10
-1.77047e-10
-1.96866e-10
-2.16574e-10
-2.34164e-10
-2.4736e-10
-2.56561e-10
-2.64235e-10
-2.61799e-10
-2.62074e-10
-2.46321e-10
-2.47519e-10
-2.15611e-10
-1.08953e-10
)
;
    }
    procBoundary6to5
    {
        type            processor;
        value           nonuniform List<scalar> 
20
(
-3.41679e-05
-3.41166e-05
-3.40067e-05
-3.38252e-05
-3.35529e-05
-3.31658e-05
-3.26357e-05
-3.19327e-05
-3.10257e-05
-2.98848e-05
-2.8483e-05
-2.6797e-05
-2.48087e-05
-2.25061e-05
-1.98832e-05
-1.69403e-05
-1.36839e-05
-1.01259e-05
-6.28304e-06
-2.1754e-06
)
;
    }
    procBoundary6to7
    {
        type            processor;
        value           nonuniform List<scalar> 
20
(
3.46479e-05
3.45691e-05
3.44061e-05
3.41503e-05
3.37885e-05
3.3304e-05
3.26766e-05
3.18834e-05
3.08996e-05
2.96999e-05
2.8259e-05
2.65537e-05
2.45637e-05
2.22734e-05
1.96727e-05
1.67584e-05
1.35342e-05
1.00112e-05
6.20712e-06
2.14562e-06
)
;
    }
}


// ************************************************************************* //
