/*--------------------------------*- C++ -*----------------------------------*\
| =========                 |                                                 |
| \\      /  F ield         | OpenFOAM: The Open Source CFD Toolbox           |
|  \\    /   O peration     | Version:                                        |
|   \\  /    A nd           | Website:  www.openfoam.com                      |
|    \\/     M anipulation  |                                                 |
\*---------------------------------------------------------------------------*/
FoamFile
{
    version     2.0;
    format      ascii;
    class       volVectorField;
    location    "0.2";
    object      U;
}
// * * * * * * * * * * * * * * * * * * * * * * * * * * * * * * * * * * * * * //

dimensions      [0 1 -1 0 0 0 0];


internalField   nonuniform List<vector> 
400
(
(1.36811 -0.00066881 0)
(1.37061 -0.000597341 0)
(1.37284 -0.000530264 0)
(1.37482 -0.000470234 0)
(1.37658 -0.000414618 0)
(1.37812 -0.000362552 0)
(1.37946 -0.00031416 0)
(1.38062 -0.000269785 0)
(1.38161 -0.000229596 0)
(1.38246 -0.000193549 0)
(1.38317 -0.000161576 0)
(1.38376 -0.000133529 0)
(1.38426 -0.000109298 0)
(1.38466 -8.82861e-05 0)
(1.38499 -7.08215e-05 0)
(1.38526 -5.55125e-05 0)
(1.38547 -4.41359e-05 0)
(1.38565 -3.31706e-05 0)
(1.38577 -2.3624e-05 0)
(1.38586 -2.29787e-05 0)
(1.36598 -0.00197155 0)
(1.36835 -0.00176442 0)
(1.37047 -0.00157061 0)
(1.37235 -0.00139239 0)
(1.374 -0.00122648 0)
(1.37546 -0.00107223 0)
(1.37672 -0.00092985 0)
(1.37781 -0.000799791 0)
(1.37874 -0.000682122 0)
(1.37953 -0.000576756 0)
(1.3802 -0.000483454 0)
(1.38076 -0.000401508 0)
(1.38122 -0.000330525 0)
(1.3816 -0.000269126 0)
(1.3819 -0.000217684 0)
(1.38215 -0.00017296 0)
(1.38235 -0.00013845 0)
(1.38251 -0.000106401 0)
(1.38263 -7.93198e-05 0)
(1.38272 -7.18848e-05 0)
(1.36145 -0.00317205 0)
(1.36357 -0.00284058 0)
(1.36546 -0.00252924 0)
(1.36714 -0.00223924 0)
(1.36861 -0.00196953 0)
(1.36989 -0.00171978 0)
(1.371 -0.00149025 0)
(1.37196 -0.00128105 0)
(1.37277 -0.00109218 0)
(1.37346 -0.000923316 0)
(1.37404 -0.000773879 0)
(1.37453 -0.000642783 0)
(1.37493 -0.000529283 0)
(1.37525 -0.000431349 0)
(1.37552 -0.000348957 0)
(1.37573 -0.000278177 0)
(1.3759 -0.000221853 0)
(1.37603 -0.000172102 0)
(1.37614 -0.000131631 0)
(1.37622 -0.000111423 0)
(1.354 -0.00421342 0)
(1.35577 -0.00377193 0)
(1.35734 -0.00335498 0)
(1.35872 -0.00296517 0)
(1.35993 -0.00260325 0)
(1.36098 -0.00226943 0)
(1.36188 -0.00196369 0)
(1.36265 -0.00168585 0)
(1.3633 -0.00143563 0)
(1.36385 -0.00121233 0)
(1.36431 -0.00101507 0)
(1.36469 -0.000842349 0)
(1.365 -0.000692945 0)
(1.36526 -0.000564433 0)
(1.36546 -0.000456032 0)
(1.36562 -0.000363949 0)
(1.36576 -0.000288953 0)
(1.36585 -0.000225832 0)
(1.36594 -0.000173921 0)
(1.36599 -0.000138713 0)
(1.34287 -0.00504735 0)
(1.34421 -0.00451223 0)
(1.34539 -0.00400667 0)
(1.34641 -0.00353381 0)
(1.3473 -0.00309584 0)
(1.34806 -0.00269328 0)
(1.34871 -0.00232593 0)
(1.34926 -0.00199318 0)
(1.34972 -0.00169436 0)
(1.3501 -0.00142838 0)
(1.35042 -0.00119397 0)
(1.35068 -0.000989216 0)
(1.35089 -0.000812408 0)
(1.35106 -0.000660843 0)
(1.35119 -0.000532866 0)
(1.3513 -0.000425135 0)
(1.35138 -0.000336115 0)
(1.35144 -0.000263545 0)
(1.35151 -0.000202955 0)
(1.35153 -0.000156402 0)
(1.32712 -0.00563838 0)
(1.32798 -0.00503004 0)
(1.32872 -0.00445652 0)
(1.32935 -0.00392103 0)
(1.32988 -0.00342658 0)
(1.33033 -0.00297377 0)
(1.33071 -0.00256206 0)
(1.33101 -0.00219046 0)
(1.33127 -0.00185787 0)
(1.33147 -0.00156276 0)
(1.33164 -0.00130342 0)
(1.33177 -0.00107757 0)
(1.33187 -0.000883011 0)
(1.33196 -0.000716823 0)
(1.33202 -0.000576575 0)
(1.33206 -0.00045933 0)
(1.3321 -0.000361765 0)
(1.33212 -0.000283712 0)
(1.33215 -0.000218094 0)
(1.33216 -0.000164461 0)
(1.30565 -0.00596773 0)
(1.30601 -0.00530991 0)
(1.30629 -0.00469187 0)
(1.30652 -0.00411671 0)
(1.3067 -0.00358758 0)
(1.30684 -0.00310485 0)
(1.30694 -0.00266763 0)
(1.30701 -0.00227454 0)
(1.30706 -0.00192402 0)
(1.30709 -0.00161411 0)
(1.30711 -0.00134269 0)
(1.30712 -0.00110712 0)
(1.30712 -0.000904776 0)
(1.30712 -0.000732601 0)
(1.30711 -0.000587556 0)
(1.3071 -0.00046695 0)
(1.3071 -0.00036643 0)
(1.30708 -0.000286852 0)
(1.30708 -0.000219822 0)
(1.30707 -0.000163532 0)
(1.27726 -0.00603473 0)
(1.27714 -0.00535329 0)
(1.277 -0.00471587 0)
(1.27684 -0.00412521 0)
(1.27669 -0.00358401 0)
(1.27654 -0.00309225 0)
(1.27639 -0.00264866 0)
(1.27624 -0.00225148 0)
(1.27611 -0.00189874 0)
(1.27598 -0.00158808 0)
(1.27587 -0.00131703 0)
(1.27577 -0.00108268 0)
(1.27568 -0.000882063 0)
(1.27561 -0.000712019 0)
(1.27554 -0.000569196 0)
(1.27549 -0.000450938 0)
(1.27544 -0.000352579 0)
(1.2754 -0.000275131 0)
(1.27537 -0.000209909 0)
(1.27534 -0.000154856 0)
(1.24074 -0.00585667 0)
(1.24018 -0.00517819 0)
(1.23966 -0.00454668 0)
(1.23918 -0.00396435 0)
(1.23874 -0.00343304 0)
(1.23834 -0.00295226 0)
(1.23798 -0.00252038 0)
(1.23765 -0.00213535 0)
(1.23737 -0.00179483 0)
(1.23711 -0.0014962 0)
(1.2369 -0.00123669 0)
(1.23671 -0.00101325 0)
(1.23655 -0.000822679 0)
(1.23642 -0.000661774 0)
(1.23631 -0.000527156 0)
(1.23622 -0.000416091 0)
(1.23615 -0.000324102 0)
(1.23608 -0.000251829 0)
(1.23604 -0.000191154 0)
(1.236 -0.000140377 0)
(1.1949 -0.00546706 0)
(1.194 -0.00481698 0)
(1.19317 -0.00421517 0)
(1.19243 -0.00366307 0)
(1.19176 -0.00316147 0)
(1.19117 -0.0027094 0)
(1.19064 -0.00230504 0)
(1.19018 -0.0019461 0)
(1.18979 -0.00163004 0)
(1.18945 -0.00135409 0)
(1.18915 -0.00111526 0)
(1.18891 -0.000910504 0)
(1.1887 -0.000736579 0)
(1.18853 -0.000590289 0)
(1.18839 -0.000468431 0)
(1.18828 -0.000368236 0)
(1.18819 -0.000285712 0)
(1.18811 -0.000220841 0)
(1.18806 -0.000166747 0)
(1.18801 -0.000122232 0)
(1.13868 -0.00491185 0)
(1.13752 -0.00431268 0)
(1.13648 -0.00376117 0)
(1.13555 -0.00325775 0)
(1.13473 -0.00280219 0)
(1.13401 -0.00239319 0)
(1.13338 -0.00202888 0)
(1.13283 -0.0017069 0)
(1.13237 -0.00142461 0)
(1.13197 -0.00117923 0)
(1.13164 -0.000967726 0)
(1.13136 -0.000787147 0)
(1.13113 -0.000634424 0)
(1.13094 -0.000506462 0)
(1.13078 -0.000400324 0)
(1.13066 -0.000313356 0)
(1.13056 -0.000242175 0)
(1.13048 -0.000186064 0)
(1.13042 -0.000139803 0)
(1.13038 -0.00010248 0)
(1.07114 -0.00424425 0)
(1.06983 -0.00371402 0)
(1.06866 -0.00322877 0)
(1.06763 -0.00278784 0)
(1.06673 -0.00239021 0)
(1.06595 -0.00203449 0)
(1.06527 -0.00171891 0)
(1.06469 -0.00144116 0)
(1.0642 -0.00119865 0)
(1.06378 -0.000988739 0)
(1.06343 -0.000808552 0)
(1.06315 -0.000655291 0)
(1.06291 -0.000526216 0)
(1.06272 -0.000418497 0)
(1.06256 -0.000329496 0)
(1.06244 -0.000256818 0)
(1.06234 -0.000197702 0)
(1.06227 -0.000150912 0)
(1.06221 -0.000112967 0)
(1.06216 -8.28158e-05 0)
(0.991578 -0.00351898 0)
(0.990208 -0.00307005 0)
(0.989003 -0.00266143 0)
(0.987948 -0.00229146 0)
(0.987032 -0.00195877 0)
(0.986242 -0.00166209 0)
(0.985564 -0.00139986 0)
(0.984989 -0.00116997 0)
(0.984503 -0.000969992 0)
(0.984097 -0.000797532 0)
(0.983761 -0.000650084 0)
(0.983484 -0.000525116 0)
(0.983258 -0.000420237 0)
(0.983077 -0.000333044 0)
(0.982931 -0.000261257 0)
(0.982816 -0.000202821 0)
(0.982726 -0.000155544 0)
(0.982656 -0.000117978 0)
(0.982602 -8.81212e-05 0)
(0.982564 -6.4445e-05 0)
(0.899486 -0.00278674 0)
(0.898149 -0.00242521 0)
(0.89698 -0.00209766 0)
(0.895964 -0.00180174 0)
(0.895087 -0.00153621 0)
(0.894336 -0.00130009 0)
(0.893697 -0.001092 0)
(0.893157 -0.00091021 0)
(0.892705 -0.000752613 0)
(0.89233 -0.000617102 0)
(0.89202 -0.000501615 0)
(0.891768 -0.000404064 0)
(0.891564 -0.00032243 0)
(0.8914 -0.000254759 0)
(0.891271 -0.000199214 0)
(0.891168 -0.00015414 0)
(0.891089 -0.000117796 0)
(0.891028 -8.88604e-05 0)
(0.890981 -6.63185e-05 0)
(0.890949 -4.81148e-05 0)
(0.794622 -0.00209016 0)
(0.793386 -0.00181591 0)
(0.792311 -0.0015682 0)
(0.791382 -0.00134457 0)
(0.790584 -0.00114415 0)
(0.789904 -0.00096635 0)
(0.78933 -0.000810048 0)
(0.788847 -0.000673817 0)
(0.788445 -0.000556037 0)
(0.788114 -0.000455036 0)
(0.787842 -0.000369134 0)
(0.787621 -0.000296717 0)
(0.787444 -0.000236265 0)
(0.787303 -0.000186271 0)
(0.787192 -0.000145313 0)
(0.787105 -0.000112171 0)
(0.787038 -8.5464e-05 0)
(0.786986 -6.42176e-05 0)
(0.786948 -4.79073e-05 0)
(0.78692 -3.4227e-05 0)
(0.67699 -0.00146158 0)
(0.675904 -0.0012689 0)
(0.674963 -0.00109501 0)
(0.674153 -0.000937902 0)
(0.67346 -0.000797175 0)
(0.672873 -0.000672485 0)
(0.672378 -0.000563086 0)
(0.671965 -0.000467909 0)
(0.671622 -0.000385709 0)
(0.671341 -0.000315301 0)
(0.671111 -0.000255516 0)
(0.670926 -0.000205164 0)
(0.670777 -0.000163177 0)
(0.670659 -0.000128513 0)
(0.670567 -0.000100125 0)
(0.670495 -7.71948e-05 0)
(0.670441 -5.86916e-05 0)
(0.670398 -4.40223e-05 0)
(0.670368 -3.27885e-05 0)
(0.670345 -2.29163e-05 0)
(0.546837 -0.000922984 0)
(0.545935 -0.000801652 0)
(0.545155 -0.000691974 0)
(0.544485 -0.00059265 0)
(0.543914 -0.000503656 0)
(0.54343 -0.000424858 0)
(0.543024 -0.000355738 0)
(0.542686 -0.000295626 0)
(0.542407 -0.000243726 0)
(0.542177 -0.000199254 0)
(0.541991 -0.000161492 0)
(0.541841 -0.000129697 0)
(0.541721 -0.000103173 0)
(0.541626 -8.12712e-05 0)
(0.541552 -6.3319e-05 0)
(0.541495 -4.88288e-05 0)
(0.541451 -3.70953e-05 0)
(0.541418 -2.78414e-05 0)
(0.541394 -2.06636e-05 0)
(0.541375 -1.4095e-05 0)
(0.404638 -0.000489797 0)
(0.403946 -0.000426173 0)
(0.403347 -0.000368406 0)
(0.402833 -0.000315898 0)
(0.402395 -0.000268786 0)
(0.402024 -0.000227029 0)
(0.401713 -0.000190369 0)
(0.401455 -0.00015843 0)
(0.401241 -0.000130819 0)
(0.401065 -0.000107127 0)
(0.400923 -8.69715e-05 0)
(0.400808 -6.99631e-05 0)
(0.400716 -5.57469e-05 0)
(0.400644 -4.39969e-05 0)
(0.400587 -3.43384e-05 0)
(0.400544 -2.65307e-05 0)
(0.40051 -2.01727e-05 0)
(0.400485 -1.51901e-05 0)
(0.400466 -1.12193e-05 0)
(0.400452 -7.49327e-06 0)
(0.251062 -0.000183771 0)
(0.250607 -0.000160548 0)
(0.250213 -0.000139269 0)
(0.249874 -0.000119803 0)
(0.249584 -0.000102275 0)
(0.249339 -8.66653e-05 0)
(0.249133 -7.29246e-05 0)
(0.248961 -6.09256e-05 0)
(0.248818 -5.04985e-05 0)
(0.248701 -4.14978e-05 0)
(0.248606 -3.38128e-05 0)
(0.248528 -2.73003e-05 0)
(0.248467 -2.18337e-05 0)
(0.248418 -1.73022e-05 0)
(0.24838 -1.35544e-05 0)
(0.24835 -1.05151e-05 0)
(0.248327 -8.01739e-06 0)
(0.24831 -6.07773e-06 0)
(0.248297 -4.47915e-06 0)
(0.248288 -2.93488e-06 0)
(0.0869169 -3.30228e-05 0)
(0.0867423 -2.9094e-05 0)
(0.08659 -2.54231e-05 0)
(0.0864583 -2.20203e-05 0)
(0.0863453 -1.89271e-05 0)
(0.0862491 -1.61662e-05 0)
(0.0861677 -1.3711e-05 0)
(0.0860994 -1.15398e-05 0)
(0.0860425 -9.64206e-06 0)
(0.0859955 -7.98154e-06 0)
(0.0859569 -6.55201e-06 0)
(0.0859256 -5.33594e-06 0)
(0.0859004 -4.3009e-06 0)
(0.0858803 -3.4391e-06 0)
(0.0858645 -2.71579e-06 0)
(0.0858521 -2.12167e-06 0)
(0.0858426 -1.62897e-06 0)
(0.0858353 -1.25096e-06 0)
(0.0858299 -9.14962e-07 0)
(0.085826 -5.94027e-07 0)
)
;

boundaryField
{
    fixedWalls
    {
        type            noSlip;
    }
    inlet
    {
        type            fixedValue;
        value           nonuniform 0();
    }
    outlet
    {
        type            zeroGradient;
    }
    frontAndBack
    {
        type            empty;
    }
    procBoundary6to2
    {
        type            processor;
        value           nonuniform List<vector> 
20
(
(1.36811 0.000669435 0)
(1.37061 0.00060112 0)
(1.37284 0.000536916 0)
(1.37482 0.000476981 0)
(1.37657 0.000420615 0)
(1.37811 0.000368412 0)
(1.37945 0.000320487 0)
(1.38061 0.000276865 0)
(1.3816 0.00023746 0)
(1.38245 0.000202192 0)
(1.38316 0.000170958 0)
(1.38376 0.000143456 0)
(1.38425 0.000119557 0)
(1.38466 9.88395e-05 0)
(1.38498 8.13074e-05 0)
(1.38526 6.60136e-05 0)
(1.38546 5.40038e-05 0)
(1.38564 4.31729e-05 0)
(1.38576 3.27681e-05 0)
(1.38586 2.74665e-05 0)
)
;
    }
    procBoundary6to5
    {
        type            processor;
        value           nonuniform List<vector> 
20
(
(1.36532 -0.00073815 0)
(1.36334 -0.00217948 0)
(1.35909 -0.00351267 0)
(1.35202 -0.00467335 0)
(1.34136 -0.00560963 0)
(1.32614 -0.0062819 0)
(1.30521 -0.00666759 0)
(1.27736 -0.00676328 0)
(1.24132 -0.00658533 0)
(1.19589 -0.00616817 0)
(1.13996 -0.00556071 0)
(1.07261 -0.00482088 0)
(0.993122 -0.00400937 0)
(0.901005 -0.00318353 0)
(0.796036 -0.00239258 0)
(0.678237 -0.00167492 0)
(0.547874 -0.0010577 0)
(0.405434 -0.000560464 0)
(0.251583 -0.000209526 0)
(0.087116 -3.73391e-05 0)
)
;
    }
    procBoundary6to7
    {
        type            processor;
        value           nonuniform List<vector> 
20
(
(1.38597 -1.99671e-05 0)
(1.3828 -5.84245e-05 0)
(1.37626 -8.68043e-05 0)
(1.36602 -0.000108126 0)
(1.35155 -0.000122348 0)
(1.33216 -0.000128707 0)
(1.30706 -0.000127741 0)
(1.27532 -0.000120627 0)
(1.23597 -0.000108846 0)
(1.18798 -9.4067e-05 0)
(1.13034 -7.79121e-05 0)
(1.06213 -6.17864e-05 0)
(0.982532 -4.68275e-05 0)
(0.890921 -3.38567e-05 0)
(0.786897 -2.33219e-05 0)
(0.670327 -1.52746e-05 0)
(0.541362 -9.3863e-06 0)
(0.400444 -5.12393e-06 0)
(0.248282 -2.09534e-06 0)
(0.0858236 -4.72759e-07 0)
)
;
    }
}


// ************************************************************************* //
