/*--------------------------------*- C++ -*----------------------------------*\
| =========                 |                                                 |
| \\      /  F ield         | OpenFOAM: The Open Source CFD Toolbox           |
|  \\    /   O peration     | Version:                                        |
|   \\  /    A nd           | Website:  www.openfoam.com                      |
|    \\/     M anipulation  |                                                 |
\*---------------------------------------------------------------------------*/
FoamFile
{
    version     2.0;
    format      ascii;
    class       surfaceScalarField;
    location    "10.1";
    object      phi;
}
// * * * * * * * * * * * * * * * * * * * * * * * * * * * * * * * * * * * * * //

dimensions      [0 3 -1 0 0 0 0];
oriented        oriented;


internalField   nonuniform List<scalar> 
760
(
3.13714e-05
-2.46849e-07
3.16081e-05
-2.36675e-07
3.18351e-05
-2.27006e-07
3.20529e-05
-2.17806e-07
3.22619e-05
-2.0904e-07
3.24626e-05
-2.00677e-07
3.26553e-05
-1.92689e-07
3.28404e-05
-1.85049e-07
3.30181e-05
-1.77736e-07
3.31888e-05
-1.70729e-07
3.33528e-05
-1.64012e-07
3.35104e-05
-1.57568e-07
3.36618e-05
-1.51384e-07
3.38072e-05
-1.45447e-07
3.3947e-05
-1.39748e-07
3.40813e-05
-1.34274e-07
3.42103e-05
-1.29018e-07
3.43342e-05
-1.2397e-07
3.44534e-05
-1.19122e-07
-1.14466e-07
3.14031e-05
-4.90581e-07
3.16363e-05
-4.69832e-07
3.18594e-05
-4.50137e-07
3.2073e-05
-4.31427e-07
3.22776e-05
-4.13632e-07
3.24736e-05
-3.96689e-07
3.26615e-05
-3.80537e-07
3.28415e-05
-3.65124e-07
3.30142e-05
-3.504e-07
3.31798e-05
-3.36322e-07
3.33386e-05
-3.22853e-07
3.3491e-05
-3.09959e-07
3.36373e-05
-2.97608e-07
3.37776e-05
-2.85773e-07
3.39123e-05
-2.74429e-07
3.40415e-05
-2.63552e-07
3.41656e-05
-2.53123e-07
3.42848e-05
-2.4312e-07
3.43992e-05
-2.33526e-07
-2.24323e-07
3.14614e-05
-7.27408e-07
3.16869e-05
-6.95337e-07
3.19017e-05
-6.64968e-07
3.21065e-05
-6.36197e-07
3.23018e-05
-6.08917e-07
3.24881e-05
-5.83025e-07
3.2666e-05
-5.58426e-07
3.28359e-05
-5.35031e-07
3.29983e-05
-5.12758e-07
3.31535e-05
-4.91535e-07
3.33019e-05
-4.71296e-07
3.3444e-05
-4.5198e-07
3.35799e-05
-4.33534e-07
3.371e-05
-4.15908e-07
3.38347e-05
-3.99059e-07
3.3954e-05
-3.82945e-07
3.40685e-05
-3.67528e-07
3.41781e-05
-3.52775e-07
3.42832e-05
-3.38653e-07
-3.25131e-07
3.15353e-05
-9.52282e-07
3.17479e-05
-9.07926e-07
3.1949e-05
-8.6608e-07
3.21394e-05
-8.26594e-07
3.23198e-05
-7.89315e-07
3.24909e-05
-7.54091e-07
3.26532e-05
-7.20777e-07
3.28074e-05
-6.89237e-07
3.2954e-05
-6.59346e-07
3.30935e-05
-6.30989e-07
3.32262e-05
-6.04061e-07
3.33527e-05
-5.78466e-07
3.34733e-05
-5.54119e-07
3.35883e-05
-5.3094e-07
3.36981e-05
-5.08859e-07
3.3803e-05
-4.87809e-07
3.39032e-05
-4.67732e-07
3.3999e-05
-4.48572e-07
3.40906e-05
-4.30279e-07
-4.12806e-07
3.16063e-05
-1.15849e-06
3.17993e-05
-1.10089e-06
3.198e-05
-1.04683e-06
3.21495e-05
-9.96084e-07
3.23087e-05
-9.4844e-07
3.24582e-05
-9.03671e-07
3.2599e-05
-8.61566e-07
3.27317e-05
-8.21922e-07
3.28569e-05
-7.84552e-07
3.29752e-05
-7.49284e-07
3.30871e-05
-7.1596e-07
3.31931e-05
-6.84438e-07
3.32936e-05
-6.54588e-07
3.33889e-05
-6.26293e-07
3.34795e-05
-5.99445e-07
3.35656e-05
-5.73948e-07
3.36476e-05
-5.49713e-07
3.37257e-05
-5.26662e-07
3.38001e-05
-5.04719e-07
-4.83819e-07
3.16469e-05
-1.3376e-06
3.18121e-05
-1.2661e-06
3.19647e-05
-1.19943e-06
3.21059e-05
-1.13727e-06
3.22367e-05
-1.07929e-06
3.23582e-05
-1.02517e-06
3.24712e-05
-9.74582e-07
3.25766e-05
-9.2725e-07
3.26749e-05
-8.82901e-07
3.27669e-05
-8.41287e-07
3.28531e-05
-8.02183e-07
3.29341e-05
-7.65387e-07
3.30102e-05
-7.30713e-07
3.30819e-05
-6.97998e-07
3.31496e-05
-6.67091e-07
3.32135e-05
-6.37858e-07
3.32739e-05
-6.10178e-07
3.33312e-05
-5.83942e-07
3.33855e-05
-5.59049e-07
-5.3541e-07
3.16184e-05
-1.47977e-06
3.17467e-05
-1.39444e-06
3.18628e-05
-1.31549e-06
3.1968e-05
-1.24244e-06
3.20635e-05
-1.17481e-06
3.21504e-05
-1.11212e-06
3.22298e-05
-1.05395e-06
3.23024e-05
-9.99882e-07
3.23691e-05
-9.4954e-07
3.24304e-05
-9.02589e-07
3.24869e-05
-8.58723e-07
3.25392e-05
-8.17668e-07
3.25877e-05
-7.79179e-07
3.26327e-05
-7.43036e-07
3.26747e-05
-7.09044e-07
3.27138e-05
-6.77026e-07
3.27505e-05
-6.46826e-07
3.27848e-05
-6.18302e-07
3.28171e-05
-5.91329e-07
-5.65793e-07
3.1471e-05
-1.57476e-06
3.15533e-05
-1.47676e-06
3.16247e-05
-1.3869e-06
3.16867e-05
-1.30444e-06
3.17406e-05
-1.22871e-06
3.17876e-05
-1.15906e-06
3.18285e-05
-1.09489e-06
3.18643e-05
-1.03565e-06
3.18956e-05
-9.80859e-07
3.19231e-05
-9.30066e-07
3.19472e-05
-8.82883e-07
3.19685e-05
-8.38961e-07
3.19874e-05
-7.97991e-07
3.2004e-05
-7.59698e-07
3.20188e-05
-7.23841e-07
3.2032e-05
-6.90203e-07
3.20438e-05
-6.58594e-07
3.20543e-05
-6.28844e-07
3.20638e-05
-6.00801e-07
-5.7433e-07
3.11442e-05
-1.61338e-06
3.11727e-05
-1.50533e-06
3.1193e-05
-1.40717e-06
3.12065e-05
-1.31791e-06
3.12144e-05
-1.2366e-06
3.12177e-05
-1.16241e-06
3.12174e-05
-1.09454e-06
3.1214e-05
-1.03233e-06
3.12083e-05
-9.75139e-07
3.12007e-05
-9.22444e-07
3.11916e-05
-8.73763e-07
3.11813e-05
-8.2868e-07
3.11701e-05
-7.86827e-07
3.11583e-05
-7.47882e-07
3.1146e-05
-7.11564e-07
3.11335e-05
-6.77622e-07
3.11207e-05
-6.45839e-07
3.11079e-05
-6.16022e-07
3.10951e-05
-5.87999e-07
-5.6162e-07
3.05701e-05
-1.58939e-06
3.05402e-05
-1.47543e-06
3.05059e-05
-1.3729e-06
3.04685e-05
-1.28049e-06
3.04289e-05
-1.19701e-06
3.03879e-05
-1.12142e-06
3.03461e-05
-1.05276e-06
3.0304e-05
-9.90221e-07
3.0262e-05
-9.33086e-07
3.02203e-05
-8.80731e-07
3.01791e-05
-8.32612e-07
3.01387e-05
-7.88259e-07
3.00991e-05
-7.47263e-07
3.00605e-05
-7.09269e-07
3.00229e-05
-6.73966e-07
2.99864e-05
-6.41087e-07
2.99509e-05
-6.10394e-07
2.99166e-05
-5.81682e-07
2.98834e-05
-5.54769e-07
-5.29495e-07
2.96792e-05
-1.50143e-06
2.95907e-05
-1.38699e-06
2.95029e-05
-1.28501e-06
2.94163e-05
-1.1939e-06
2.93315e-05
-1.11224e-06
2.92489e-05
-1.03882e-06
2.91687e-05
-9.7257e-07
2.90911e-05
-9.1259e-07
2.90161e-05
-8.58092e-07
2.89437e-05
-8.08401e-07
2.88741e-05
-7.62939e-07
2.8807e-05
-7.21209e-07
2.87425e-05
-6.82784e-07
2.86806e-05
-6.47296e-07
2.8621e-05
-6.14426e-07
2.85638e-05
-5.83901e-07
2.85089e-05
-5.55481e-07
2.84562e-05
-5.28958e-07
2.84056e-05
-5.04152e-07
-4.80904e-07
2.84073e-05
-1.35437e-06
2.82659e-05
-1.24559e-06
2.81304e-05
-1.14952e-06
2.80009e-05
-1.06437e-06
2.78772e-05
-9.88616e-07
2.77594e-05
-9.2094e-07
2.7647e-05
-8.60237e-07
2.754e-05
-8.05565e-07
2.7438e-05
-7.56125e-07
2.73409e-05
-7.11239e-07
2.72483e-05
-6.70331e-07
2.716e-05
-6.32912e-07
2.70757e-05
-5.98564e-07
2.69954e-05
-5.6693e-07
2.69187e-05
-5.37706e-07
2.68454e-05
-5.10629e-07
2.67754e-05
-4.85472e-07
2.67085e-05
-4.62039e-07
2.66445e-05
-4.40161e-07
-4.19688e-07
2.67036e-05
-1.15967e-06
2.65204e-05
-1.06248e-06
2.63482e-05
-9.77325e-07
2.61863e-05
-9.02391e-07
2.60338e-05
-8.3614e-07
2.58901e-05
-7.77289e-07
2.57547e-05
-7.24763e-07
2.56268e-05
-6.77664e-07
2.55059e-05
-6.35237e-07
2.53915e-05
-5.96851e-07
2.52831e-05
-5.61974e-07
2.51804e-05
-5.30158e-07
2.50828e-05
-5.01023e-07
2.49902e-05
-4.74248e-07
2.4902e-05
-4.4956e-07
2.48181e-05
-4.26724e-07
2.47382e-05
-4.0554e-07
2.4662e-05
-3.85834e-07
2.45893e-05
-3.67458e-07
-3.50281e-07
2.45367e-05
-9.34397e-07
2.43278e-05
-8.53505e-07
2.41336e-05
-7.83124e-07
2.39527e-05
-7.21559e-07
2.3784e-05
-6.67411e-07
2.36262e-05
-6.19529e-07
2.34784e-05
-5.76961e-07
2.33397e-05
-5.38922e-07
2.32092e-05
-5.04757e-07
2.30863e-05
-4.73926e-07
2.29703e-05
-4.45975e-07
2.28607e-05
-4.20525e-07
2.27569e-05
-3.97259e-07
2.26586e-05
-3.75908e-07
2.25652e-05
-3.56245e-07
2.24766e-05
-3.38076e-07
2.23923e-05
-3.21238e-07
2.23121e-05
-3.05588e-07
2.22356e-05
-2.91004e-07
-2.7738e-07
2.18981e-05
-6.98963e-07
2.16817e-05
-6.37102e-07
2.14822e-05
-5.83575e-07
2.12976e-05
-5.36973e-07
2.11263e-05
-4.9615e-07
2.0967e-05
-4.60172e-07
2.08183e-05
-4.2828e-07
2.06792e-05
-3.99848e-07
2.05488e-05
-3.74363e-07
2.04263e-05
-3.51403e-07
2.03109e-05
-3.30615e-07
2.02021e-05
-3.11709e-07
2.00993e-05
-2.94441e-07
2.0002e-05
-2.78606e-07
1.99098e-05
-2.64031e-07
1.98223e-05
-2.50571e-07
1.97391e-05
-2.38101e-07
1.96601e-05
-2.26514e-07
1.95848e-05
-2.15719e-07
-2.05637e-07
1.88002e-05
-4.74309e-07
1.85949e-05
-4.31813e-07
1.84065e-05
-3.95193e-07
1.8233e-05
-3.63418e-07
1.80725e-05
-3.35661e-07
1.79236e-05
-3.11254e-07
1.77849e-05
-2.89656e-07
1.76555e-05
-2.70429e-07
1.75344e-05
-2.53213e-07
1.74207e-05
-2.37714e-07
1.73137e-05
-2.2369e-07
1.7213e-05
-2.10939e-07
1.71178e-05
-1.99295e-07
1.70278e-05
-1.88619e-07
1.69426e-05
-1.78792e-07
1.68618e-05
-1.69716e-07
1.6785e-05
-1.61307e-07
1.67119e-05
-1.53492e-07
1.66424e-05
-1.4621e-07
-1.39408e-07
1.52715e-05
-2.79238e-07
1.50938e-05
-2.54139e-07
1.49312e-05
-2.32569e-07
1.47816e-05
-2.13893e-07
1.46436e-05
-1.97605e-07
1.45156e-05
-1.83299e-07
1.43966e-05
-1.70651e-07
1.42856e-05
-1.59395e-07
1.41817e-05
-1.49319e-07
1.40842e-05
-1.40247e-07
1.39926e-05
-1.32036e-07
1.39062e-05
-1.24569e-07
1.38246e-05
-1.17747e-07
1.37475e-05
-1.11489e-07
1.36744e-05
-1.05725e-07
1.36051e-05
-1.00399e-07
1.35393e-05
-9.54618e-08
1.34767e-05
-9.08708e-08
1.3417e-05
-8.65904e-08
-8.25898e-08
1.13485e-05
-1.28701e-07
1.12115e-05
-1.17191e-07
1.10863e-05
-1.07314e-07
1.09711e-05
-9.87717e-08
1.08649e-05
-9.13256e-08
1.07664e-05
-8.47871e-08
1.06747e-05
-7.90048e-08
1.05892e-05
-7.38573e-08
1.05091e-05
-6.92461e-08
1.04339e-05
-6.50914e-08
1.03632e-05
-6.13278e-08
1.02966e-05
-5.79015e-08
1.02336e-05
-5.4768e-08
1.0174e-05
-5.18905e-08
1.01175e-05
-4.92379e-08
1.00639e-05
-4.67841e-08
1.00129e-05
-4.45071e-08
9.96445e-06
-4.23879e-08
9.91827e-06
-4.04104e-08
-3.85606e-08
7.06778e-06
-3.33178e-08
6.98097e-06
-3.03815e-08
6.90152e-06
-2.78634e-08
6.82844e-06
-2.56854e-08
6.7609e-06
-2.37861e-08
6.69823e-06
-2.21169e-08
6.63986e-06
-2.0639e-08
6.58533e-06
-1.93215e-08
6.53422e-06
-1.81393e-08
6.4862e-06
-1.70724e-08
6.44098e-06
-1.61041e-08
6.3983e-06
-1.5221e-08
6.35794e-06
-1.44119e-08
6.31972e-06
-1.36677e-08
6.28346e-06
-1.29804e-08
6.24902e-06
-1.23436e-08
6.21626e-06
-1.17517e-08
6.18508e-06
-1.12001e-08
6.15535e-06
-1.06847e-08
-1.02019e-08
2.45917e-06
2.42879e-06
2.40092e-06
2.37524e-06
2.35145e-06
2.32934e-06
2.3087e-06
2.28938e-06
2.27124e-06
2.25416e-06
2.23806e-06
2.22284e-06
2.20843e-06
2.19476e-06
2.18178e-06
2.16943e-06
2.15768e-06
2.14648e-06
2.1358e-06
)
;

boundaryField
{
    fixedWalls
    {
        type            calculated;
        value           uniform 0;
    }
    inlet
    {
        type            calculated;
        value           nonuniform 0();
    }
    outlet
    {
        type            calculated;
        value           nonuniform 0();
    }
    frontAndBack
    {
        type            empty;
        value           nonuniform 0();
    }
    procBoundary5to1
    {
        type            processor;
        value           nonuniform List<scalar> 
20
(
8.14337e-17
1.39257e-16
-1.4373e-16
-6.1556e-16
-2.81779e-16
8.18894e-16
8.92105e-16
-9.02136e-16
-2.30406e-15
-5.49671e-16
3.43764e-15
3.69922e-15
-4.15515e-15
-1.04057e-14
1.70586e-15
2.00346e-14
5.67648e-15
-3.02597e-14
-2.73607e-14
4.74091e-14
)
;
    }
    procBoundary5to4
    {
        type            processor;
        value           nonuniform List<scalar> 
20
(
-3.11246e-05
-3.11594e-05
-3.12246e-05
-3.13104e-05
-3.14001e-05
-3.14678e-05
-3.14762e-05
-3.1376e-05
-3.11055e-05
-3.05941e-05
-2.97671e-05
-2.85543e-05
-2.68983e-05
-2.4762e-05
-2.21335e-05
-1.90248e-05
-1.54665e-05
-1.1499e-05
-7.16317e-06
-2.49249e-06
)
;
    }
    procBoundary5to6
    {
        type            processor;
        value           nonuniform List<scalar> 
20
(
3.45678e-05
3.45091e-05
3.4384e-05
3.41783e-05
3.38712e-05
3.34371e-05
3.28475e-05
3.20723e-05
3.10824e-05
2.98513e-05
2.8357e-05
2.65833e-05
2.45199e-05
2.21627e-05
1.9513e-05
1.65762e-05
1.33602e-05
9.87424e-06
6.12699e-06
2.1256e-06
)
;
    }
}


// ************************************************************************* //
