/*--------------------------------*- C++ -*----------------------------------*\
| =========                 |                                                 |
| \\      /  F ield         | OpenFOAM: The Open Source CFD Toolbox           |
|  \\    /   O peration     | Version:                                        |
|   \\  /    A nd           | Website:  www.openfoam.com                      |
|    \\/     M anipulation  |                                                 |
\*---------------------------------------------------------------------------*/
FoamFile
{
    version     2.0;
    format      ascii;
    class       volVectorField;
    location    "156";
    object      U;
}
// * * * * * * * * * * * * * * * * * * * * * * * * * * * * * * * * * * * * * //

dimensions      [0 1 -1 0 0 0 0];


internalField   nonuniform List<vector> 
1161
(
(1.24845 -0.214799 -1.43141e-19)
(1.25701 -0.244265 2.6302e-19)
(1.20289 -0.227868 -3.3475e-20)
(1.11431 -0.203538 1.60614e-20)
(1.05007 -0.166956 1.8871e-20)
(1.01092 -0.102384 8.42845e-21)
(0.935387 -0.0701182 -5.27826e-21)
(0.953437 -0.00830363 -9.98775e-21)
(0.956477 -0.014968 -4.96073e-22)
(0.929173 0.0673233 1.10694e-20)
(1.19878 -0.162021 -1.41553e-19)
(1.12556 -0.143443 2.18921e-20)
(1.08397 -0.10578 2.74761e-20)
(1.03491 -0.0787561 -7.82109e-20)
(1.05057 -0.0443512 4.96233e-21)
(1.0552 -0.0229957 1.31323e-20)
(1.03106 0.0138582 1.80654e-20)
(1.06871 0.042672 -3.56674e-22)
(1.11813 -0.0627872 -8.1328e-20)
(1.1253 -0.04193 3.29443e-20)
(1.10293 -0.0214627 8.80726e-20)
(1.08112 0.00852568 -3.09257e-20)
(1.08118 0.0161487 5.17466e-21)
(1.07661 0.0335124 -2.12958e-21)
(1.0848 0.00784742 -7.3426e-20)
(1.06133 0.0228306 2.7994e-20)
(1.04324 0.0391008 1.446e-20)
(0.0615613 -1.10864 3.94873e-20)
(0.0577428 -1.02524 -4.57297e-20)
(0.0686808 -0.926715 9.61526e-22)
(0.0950321 -0.795321 2.11715e-20)
(0.134362 -0.643417 -3.18541e-20)
(0.189022 -0.471079 -2.10824e-20)
(0.251402 -0.271149 5.69585e-20)
(0.312442 -0.0824573 -4.35287e-20)
(0.3743 0.139841 5.02616e-20)
(0.451779 0.470037 4.46677e-20)
(0.531318 0.815926 -3.7281e-20)
(0.579027 1.08277 -3.90333e-20)
(0.614153 1.22096 2.76484e-20)
(0.629825 1.28481 1.60855e-20)
(0.65807 1.24153 4.35281e-20)
(0.638832 1.17616 -1.09974e-21)
(0.672903 1.14943 -1.34345e-20)
(-0.0754846 -1.02509 -3.48822e-20)
(-0.0768804 -0.960807 8.54284e-21)
(-0.056201 -0.856289 -3.78735e-20)
(-0.020797 -0.734164 3.4062e-21)
(0.0222209 -0.591643 5.14863e-20)
(0.0794314 -0.416164 -2.10809e-19)
(0.134121 -0.219062 8.53897e-20)
(0.171042 0.0352332 5.36069e-20)
(0.221157 0.356322 -1.9132e-19)
(0.275937 0.700815 3.84427e-20)
(0.319607 0.986382 1.49431e-20)
(0.386577 1.12498 -7.79974e-20)
(0.42252 1.21196 -2.13514e-19)
(0.509677 1.20754 2.08929e-20)
(0.500103 1.17085 2.87084e-20)
(0.56256 1.14185 3.75836e-20)
(-0.226707 -1.01164 2.26513e-19)
(-0.248906 -0.989432 -7.5091e-20)
(-0.242804 -0.922084 -1.36323e-19)
(-0.218938 -0.834291 6.14916e-20)
(-0.188008 -0.713155 1.20348e-19)
(-0.13938 -0.550842 -1.76725e-19)
(-0.0972956 -0.351744 3.63958e-20)
(-0.0682714 -0.108428 2.84373e-19)
(-0.0309049 0.232286 -3.21085e-19)
(0.0145952 0.518132 1.95194e-20)
(0.0960397 0.805044 1.19946e-19)
(0.190706 0.963488 2.93375e-20)
(0.229918 1.05831 1.17344e-20)
(0.372171 1.0952 2.0684e-19)
(0.420781 1.10872 -1.58991e-19)
(0.507799 1.05776 6.40367e-20)
(-0.384768 -0.965384 5.15544e-20)
(-0.425626 -0.989664 -1.87134e-19)
(-0.44306 -0.977755 1.53302e-19)
(-0.43737 -0.938046 5.70463e-20)
(-0.41828 -0.847301 -3.15087e-20)
(-0.37905 -0.710778 4.86043e-20)
(-0.343764 -0.532987 2.07514e-19)
(-0.304844 -0.29122 2.10988e-20)
(-0.274708 0.000551184 -2.61099e-19)
(-0.178728 0.269143 -6.6926e-20)
(-0.12048 0.539839 -1.69805e-21)
(0.0617327 0.724905 7.09167e-20)
(0.124408 0.83655 7.69362e-20)
(0.283823 0.862669 1.13895e-20)
(0.346983 0.961375 -7.88644e-20)
(0.448343 0.953664 6.65652e-20)
(-0.507029 -0.880049 5.86424e-20)
(-0.562737 -0.949201 -4.08808e-19)
(-0.600117 -0.993818 5.72265e-19)
(-0.599811 -1.00618 -3.12158e-19)
(-0.586876 -0.961116 -3.0151e-19)
(-0.556507 -0.869352 2.4923e-19)
(-0.523789 -0.720434 -1.95863e-19)
(-0.478306 -0.51005 3.57997e-20)
(-0.416613 -0.286015 -6.51155e-20)
(-0.299093 -0.0647577 1.00581e-19)
(-0.207366 0.150575 5.80475e-20)
(-0.0356452 0.394557 7.20038e-20)
(0.0614148 0.584152 -3.99883e-20)
(0.217487 0.6165 -2.36868e-20)
(0.281858 0.74315 -1.05678e-20)
(0.440716 0.782366 5.43887e-20)
(-0.590456 -0.862675 -3.79531e-19)
(-0.629635 -0.958945 -6.97387e-21)
(-0.625208 -1.02477 1.63395e-19)
(-0.610848 -1.0386 8.39896e-20)
(-0.577089 -0.999531 -2.59276e-19)
(-0.532358 -0.895681 2.1234e-20)
(-0.483347 -0.732981 -1.70366e-19)
(-0.42084 -0.556736 2.44915e-19)
(-0.312608 -0.39206 -8.86242e-20)
(-0.178545 -0.245017 -4.4027e-20)
(0.0109351 -0.0584658 -1.43242e-20)
(0.0727871 0.292654 1.91789e-20)
(0.182516 0.289011 -2.64463e-20)
(0.299063 0.437283 -2.06772e-20)
(0.449985 0.514519 1.51829e-20)
(-0.478586 -0.82356 -6.11853e-20)
(-0.452067 -0.934218 4.6073e-19)
(-0.416124 -1.00498 6.62013e-19)
(-0.375447 -1.01846 -1.51713e-19)
(-0.32172 -0.960975 7.37845e-20)
(-0.274703 -0.830984 7.99835e-20)
(-0.23203 -0.671855 -1.49193e-19)
(-0.136965 -0.573777 2.37118e-20)
(0.0758395 -0.572535 -1.47349e-20)
(0.123014 -0.311109 -2.0036e-20)
(-0.0289381 0.102719 9.0701e-20)
(0.309915 -0.0187525 -9.52608e-20)
(0.246572 0.204623 3.75322e-20)
(0.436071 0.245929 -9.48637e-21)
(-0.117296 -0.668559 1.02147e-19)
(-0.0197826 -0.7801 3.67577e-19)
(0.0630965 -0.855894 -6.22859e-19)
(0.156308 -0.868508 -2.45401e-19)
(0.226695 -0.807064 -9.31852e-20)
(0.258485 -0.6806 -4.07353e-21)
(0.308271 -0.543275 -2.64674e-20)
(0.430305 -0.434475 6.05489e-20)
(0.360553 -0.335996 3.24421e-20)
(0.259059 -0.0842429 -1.65358e-19)
(0.614452 -0.0776823 7.17785e-20)
(0.450739 0.0885014 2.58175e-20)
(0.685903 0.107615 -3.89453e-20)
(0.393271 -0.522488 1.04489e-19)
(0.525271 -0.620986 1.20763e-19)
(0.652148 -0.660363 1.4435e-20)
(0.736274 -0.628952 -5.05719e-21)
(0.769708 -0.559736 6.60758e-20)
(0.843957 -0.498718 2.31891e-20)
(0.819277 -0.36095 3.07426e-20)
(0.782814 -0.21648 -4.40055e-21)
(0.821032 -0.107877 -7.22351e-20)
(0.865545 -0.0268797 1.1182e-19)
(0.856833 0.0966561 -1.41488e-19)
(0.949099 0.115339 1.39316e-19)
(0.878903 -0.369634 -1.12691e-19)
(1.02013 -0.422022 -9.66332e-20)
(1.0773 -0.425094 3.25e-19)
(1.09595 -0.411309 -1.55965e-19)
(1.06109 -0.32013 3.84711e-20)
(0.993594 -0.248556 -2.82858e-20)
(0.98234 -0.17157 3.31358e-21)
(0.975388 -0.0905615 2.99248e-20)
(0.926456 -0.0113316 -3.07784e-20)
(0.981902 0.0474586 -1.19952e-20)
(0.960969 0.0693432 -8.31063e-21)
(0.653858 1.10829 1.53128e-20)
(0.655847 1.11885 -3.56199e-21)
(0.620351 1.22771 5.58013e-21)
(0.581301 1.24088 6.99391e-21)
(0.578448 1.01701 -1.74214e-20)
(0.604205 0.556524 6.89909e-21)
(0.630104 -0.0243519 6.64174e-21)
(0.65948 -0.563695 -1.07439e-20)
(0.689296 -0.900483 5.86234e-21)
(0.707728 -1.01292 -1.37373e-20)
(0.726991 -0.998305 2.73535e-21)
(0.750096 -0.921563 1.15324e-21)
(0.755648 -0.911027 4.1251e-21)
(0.712839 -0.887682 2.65845e-21)
(0.65399 -0.929347 -2.35526e-21)
(0.560565 -0.877522 -3.75194e-22)
(0.418549 -0.729471 -6.30484e-22)
(0.382835 -0.413256 -4.11871e-21)
(0.364301 0.0520266 7.65203e-21)
(0.381025 0.414827 -3.58634e-21)
(0.585766 1.11762 -9.81848e-21)
(0.640893 1.14265 -2.51001e-20)
(0.65751 1.26245 -5.31629e-21)
(0.682714 1.28037 3.15703e-20)
(0.745138 1.04786 3.52481e-20)
(0.807373 0.575282 -1.24636e-20)
(0.858279 -0.027752 -1.28501e-20)
(0.873299 -0.589681 5.26323e-20)
(0.872012 -0.94345 -5.71354e-20)
(0.852403 -1.04413 -2.60316e-20)
(0.838304 -1.01772 1.09268e-20)
(0.812823 -0.927558 2.83601e-20)
(0.791627 -0.889271 -1.84153e-20)
(0.719985 -0.852074 -1.27347e-20)
(0.652586 -0.881903 2.20903e-20)
(0.535412 -0.807964 -1.07792e-20)
(0.378783 -0.680748 -2.678e-21)
(0.313663 -0.402383 2.3028e-20)
(0.26104 0.0249926 -3.69984e-20)
(0.309083 0.340662 1.5102e-20)
(0.551097 1.01981 -6.76914e-20)
(0.654958 1.06083 1.03476e-20)
(0.733247 1.20597 1.77898e-20)
(0.799787 1.25704 -3.49217e-20)
(0.897422 1.06579 2.26937e-20)
(0.974435 0.642135 -2.69004e-20)
(1.03543 0.068265 9.45647e-20)
(1.07166 -0.514727 -7.62523e-21)
(1.06373 -0.906158 1.41682e-20)
(1.01181 -1.03532 -2.38551e-20)
(0.958266 -1.01768 -5.57827e-20)
(0.886119 -0.923632 7.27056e-21)
(0.844676 -0.858327 -8.43211e-21)
(0.733907 -0.793926 1.80948e-20)
(0.655574 -0.804398 -9.5707e-21)
(0.515935 -0.715387 1.47346e-20)
(0.395776 -0.605771 2.21399e-20)
(0.293677 -0.373474 -2.05018e-20)
(0.237352 0.0113424 -2.25786e-20)
(0.283203 0.268117 1.25779e-20)
(0.49529 0.886214 -6.12002e-20)
(0.614325 0.901989 3.01901e-20)
(0.736532 1.05902 6.66575e-20)
(0.848387 1.15289 -4.35944e-20)
(0.980982 1.03235 7.62973e-20)
(1.08104 0.687638 -1.00975e-19)
(1.15629 0.162314 1.06775e-19)
(1.23911 -0.429965 1.93081e-21)
(1.23273 -0.842407 -1.06859e-19)
(1.16124 -0.975955 2.38772e-20)
(1.05869 -0.954491 2.25766e-20)
(0.95783 -0.888574 -3.17474e-20)
(0.904816 -0.818428 1.25616e-20)
(0.793123 -0.7475 3.64902e-21)
(0.718107 -0.746375 6.77642e-21)
(0.552105 -0.678097 -2.33388e-20)
(0.466047 -0.572093 4.71359e-21)
(0.316929 -0.380008 -5.52857e-21)
(0.284881 -0.0160316 2.51332e-20)
(0.284724 0.178934 -4.86592e-21)
(0.529509 0.729604 -5.76491e-20)
(0.631264 0.714216 -1.89265e-20)
(0.728289 0.840784 1.37984e-19)
(0.847989 0.958699 -1.18968e-19)
(0.987367 0.933053 -2.38211e-20)
(1.10382 0.706008 6.25778e-20)
(1.20934 0.248628 1.05518e-20)
(1.34508 -0.307464 -3.23813e-20)
(1.35347 -0.712519 -1.16385e-19)
(1.28587 -0.874923 7.55608e-20)
(1.16032 -0.874864 4.42598e-20)
(1.04905 -0.838367 -4.63627e-21)
(0.947937 -0.780145 3.16541e-20)
(0.84487 -0.706547 6.64906e-21)
(0.747779 -0.674927 -2.82113e-20)
(0.603706 -0.614006 -1.1878e-20)
(0.520008 -0.509088 2.55389e-21)
(0.369987 -0.359352 -5.40985e-21)
(0.335186 -0.0371595 1.97516e-20)
(0.348428 0.123472 -1.90241e-20)
(0.521944 0.584853 -1.87393e-20)
(0.60261 0.628554 4.29295e-21)
(0.659563 0.703606 3.78467e-20)
(0.775054 0.79074 6.7682e-21)
(0.904269 0.825215 -8.43855e-20)
(1.03873 0.692782 7.6919e-20)
(1.20312 0.302722 -4.4935e-20)
(1.40581 -0.213835 1.63901e-19)
(1.46339 -0.605912 -2.113e-19)
(1.39372 -0.770343 5.90942e-20)
(1.25358 -0.777939 -5.37906e-20)
(1.12645 -0.746832 3.14752e-20)
(0.987063 -0.707895 2.01643e-20)
(0.904559 -0.641986 1.28477e-20)
(0.790218 -0.616397 -8.55576e-22)
(0.695948 -0.580026 -8.91921e-21)
(0.57738 -0.487332 2.50875e-21)
(0.485865 -0.360551 5.53471e-21)
(0.386901 -0.0934347 -5.21787e-23)
(0.432763 0.0799253 -3.0364e-20)
(0.432229 0.416197 9.7933e-21)
(0.490371 0.539225 2.10977e-20)
(0.55983 0.583898 1.79327e-22)
(0.68794 0.630009 -2.55358e-20)
(0.808765 0.696089 2.84348e-20)
(0.969727 0.626365 5.61589e-20)
(1.21279 0.293441 -1.32319e-20)
(1.462 -0.153423 -6.50682e-22)
(1.53605 -0.47544 -4.24235e-21)
(1.44007 -0.627045 -1.3341e-20)
(1.31157 -0.661839 8.82826e-23)
(1.19259 -0.654859 -1.5294e-20)
(1.06831 -0.649175 -2.26255e-20)
(0.974309 -0.598981 2.16006e-20)
(0.859813 -0.558147 -2.37976e-20)
(0.768981 -0.523202 9.55739e-21)
(0.62845 -0.447284 7.57675e-21)
(0.569485 -0.337902 1.07698e-20)
(0.438217 -0.115156 -4.0599e-21)
(0.479913 0.0480469 -1.73556e-20)
(0.473833 0.208641 7.45733e-21)
(0.633899 0.255779 8.98949e-20)
(0.606764 0.39968 -4.12536e-20)
(0.649411 0.442506 -2.51626e-20)
(0.734848 0.475929 2.42314e-20)
(0.814009 0.546989 8.25729e-21)
(0.986889 0.502896 2.90238e-20)
(1.28577 0.23589 2.44528e-20)
(1.52178 -0.117646 -9.59981e-20)
(1.57237 -0.35947 2.38035e-20)
(1.4813 -0.494875 -2.89924e-20)
(1.35997 -0.558314 -5.88432e-21)
(1.22312 -0.562675 1.60666e-20)
(1.10047 -0.568661 2.90763e-20)
(0.989224 -0.53841 1.14488e-20)
(0.906517 -0.504663 -1.28046e-20)
(0.809626 -0.47702 5.73215e-21)
(0.710052 -0.420848 -5.96426e-21)
(0.63548 -0.33935 -3.32145e-22)
(0.53506 -0.144619 4.16865e-23)
(0.5213 0.00093565 -9.70566e-22)
(0.529669 0.148745 3.93255e-24)
(0.956323 0.225363 -1.79456e-20)
(0.944246 0.317356 -4.163e-20)
(0.954818 0.349233 1.11461e-21)
(0.985483 0.385956 -9.07078e-21)
(1.02749 0.438406 2.02971e-21)
(1.19489 0.380719 6.91985e-21)
(1.44718 0.183179 3.81587e-21)
(1.58013 -0.0605886 -5.27675e-20)
(1.56965 -0.235888 9.43293e-20)
(1.48224 -0.353604 -4.55993e-20)
(1.36927 -0.432051 6.11445e-22)
(1.25425 -0.463697 -5.09562e-21)
(1.15707 -0.494633 -1.97922e-20)
(1.04776 -0.500788 3.72361e-20)
(0.969731 -0.467295 -1.69245e-20)
(0.858161 -0.445541 4.29465e-21)
(0.794747 -0.399579 5.02617e-22)
(0.702235 -0.337407 -9.42864e-22)
(0.634084 -0.164186 -8.7942e-22)
(0.562197 -0.0150242 1.24376e-21)
(0.584279 0.115175 -2.34486e-21)
(1.00138 0.154655 -2.68161e-21)
(1.04542 0.204813 -5.06177e-21)
(1.08059 0.242188 -3.72565e-20)
(1.12045 0.283662 3.75719e-20)
(1.17025 0.321544 3.34167e-20)
(1.28383 0.286302 -3.21412e-20)
(1.39996 0.196087 1.27338e-20)
(1.45589 0.0644267 -5.02763e-21)
(1.45778 -0.0698163 9.85952e-21)
(1.42392 -0.1966 -1.9656e-20)
(1.36213 -0.303058 9.46967e-21)
(1.28171 -0.36725 2.09541e-20)
(1.19518 -0.404777 -3.01147e-21)
(1.09745 -0.431404 -1.29545e-20)
(1.01609 -0.410042 -7.55162e-21)
(0.90463 -0.401387 5.72163e-21)
(0.844144 -0.381457 -3.65508e-22)
(0.76224 -0.334174 1.61982e-22)
(0.68694 -0.18884 1.62211e-21)
(0.607514 -0.047034 -2.22352e-21)
(0.636237 0.0850474 6.00994e-22)
(0.982317 0.0959701 0)
(1.0213 0.133878 0)
(1.0592 0.175947 0)
(1.12202 0.197675 0)
(1.1914 0.223891 0)
(1.28166 0.192014 0)
(1.35686 0.138923 0)
(1.40317 0.0345795 0)
(1.41024 -0.0630354 0)
(1.38911 -0.151064 0)
(1.33745 -0.22667 0)
(1.27823 -0.279891 0)
(1.20017 -0.317228 0)
(1.11366 -0.358777 0)
(1.05441 -0.343404 0)
(0.955906 -0.328906 0)
(0.882521 -0.335062 0)
(0.813031 -0.302119 0)
(0.74053 -0.194155 0)
(0.679809 -0.0670067 0)
(0.679378 0.0843117 0)
(0.608021 0.109814 0)
(1.04763 0.0875755 0)
(1.06293 0.110543 0)
(1.08167 0.148275 0)
(1.13338 0.15026 0)
(1.18757 0.177616 0)
(1.2543 0.144423 0)
(1.30673 0.11273 0)
(1.33842 0.0272054 0)
(1.33916 -0.0409845 0)
(1.32825 -0.12922 0)
(1.27692 -0.207613 0)
(1.22368 -0.266617 0)
(1.15522 -0.299487 0)
(1.05774 -0.343066 0)
(1.00483 -0.318697 0)
(0.939339 -0.293876 0)
(0.873903 -0.305992 0)
(0.797748 -0.244875 0)
(0.76894 -0.142938 0)
(0.704602 -0.0167463 0)
(0.7063 0.104818 0)
(0.624655 0.102499 0)
(1.08234 0.0878777 0)
(1.08827 0.0934388 0)
(1.10979 0.126594 0)
(1.14025 0.117518 0)
(1.18458 0.13881 0)
(1.22089 0.0943558 0)
(1.25902 0.0797394 0)
(1.27967 0.00923472 0)
(1.28305 -0.0473312 0)
(1.27847 -0.105952 0)
(1.24976 -0.158437 0)
(1.20358 -0.200382 0)
(1.17301 -0.206758 0)
(1.10993 -0.252899 0)
(1.0528 -0.266655 0)
(1.0185 -0.235575 0)
(0.957208 -0.259991 0)
(0.865801 -0.221958 0)
(0.830394 -0.148645 0)
(0.764183 -0.0169532 0)
(0.802209 0.117192 0)
(0.722948 0.118284 0)
(1.09326 0.0818147 0)
(1.09749 0.0749152 0)
(1.1213 0.10562 0)
(1.13746 0.0844049 0)
(1.17495 0.104853 0)
(1.19744 0.0616003 0)
(1.22294 0.055512 0)
(1.24036 -0.00120803 0)
(1.24206 -0.0325743 0)
(1.23607 -0.0919586 0)
(1.21476 -0.129319 0)
(1.17174 -0.186147 0)
(1.12837 -0.220933 0)
(1.07726 -0.246943 0)
(0.991514 -0.252433 0)
(0.94222 -0.221224 0)
(0.88554 -0.242487 0)
(0.837865 -0.173141 0)
(0.825519 -0.109947 0)
(0.774626 -0.0058263 0)
(0.86058 0.122052 0)
(0.866154 0.153264 0)
(1.10175 0.0757053 0)
(1.10032 0.0595859 0)
(1.12641 0.0869338 0)
(1.13367 0.0601839 0)
(1.16428 0.0798912 0)
(1.17951 0.039699 0)
(1.19748 0.0381743 0)
(1.20678 -0.011496 0)
(1.20591 -0.0350567 0)
(1.20115 -0.081908 0)
(1.18169 -0.119705 0)
(1.16673 -0.146572 0)
(1.11992 -0.163309 0)
(1.09789 -0.173474 0)
(1.03254 -0.19463 0)
(1.02548 -0.152714 0)
(0.967956 -0.191152 0)
(0.889265 -0.150082 0)
(0.876955 -0.103667 0)
(0.820566 -0.0293189 0)
(0.869919 0.0681334 0)
(0.968963 0.154353 0)
(1.106 0.0717602 0)
(1.10296 0.0496251 0)
(1.12571 0.0733299 0)
(1.13057 0.0435757 0)
(1.15416 0.062248 0)
(1.16299 0.0223543 0)
(1.17459 0.0245285 0)
(1.18213 -0.0176437 0)
(1.17723 -0.0336518 0)
(1.18179 -0.0675609 0)
(1.16071 -0.0955716 0)
(1.14694 -0.115157 0)
(1.10563 -0.150702 0)
(1.08375 -0.151883 0)
(1.01593 -0.185463 0)
(0.989523 -0.153755 0)
(0.959998 -0.170737 0)
(0.900221 -0.124807 0)
(0.903312 -0.0805477 0)
(0.86717 -0.00818541 0)
(0.880891 0.021626 0)
(0.987927 0.117737 0)
(1.10128 0.0658568 0)
(1.10498 0.0403137 0)
(1.11869 0.0611765 0)
(1.12907 0.030739 0)
(1.13759 0.0451071 0)
(1.15352 0.0117036 0)
(1.15011 0.0123291 0)
(1.16741 -0.0181112 0)
(1.15084 -0.033349 0)
(1.16079 -0.0556714 0)
(1.13472 -0.0852196 0)
(1.13016 -0.0952255 0)
(1.09602 -0.125407 0)
(1.07384 -0.116251 0)
(1.04087 -0.141227 0)
(0.998744 -0.110665 0)
(0.9888 -0.129739 0)
(0.926009 -0.099552 0)
(0.920594 -0.0718264 0)
(0.91199 -0.0101781 0)
(0.910322 -0.0152779 0)
(0.982477 0.0993402 0)
(1.09615 0.0561971 0)
(1.10337 0.0327296 0)
(1.1097 0.0480826 0)
(1.12247 0.0199335 0)
(1.12286 0.0329201 0)
(1.14079 0.00297474 0)
(1.13103 0.00611559 0)
(1.14715 -0.0210404 0)
(1.12794 -0.0313346 0)
(1.13873 -0.0486825 0)
(1.1162 -0.0701315 0)
(1.11249 -0.0746297 0)
(1.08794 -0.0996687 0)
(1.06675 -0.0911855 0)
(1.04132 -0.115321 0)
(1.0027 -0.0946553 0)
(0.995213 -0.11032 0)
(0.950564 -0.0783714 0)
(0.941185 -0.0715661 0)
(0.94276 -0.00392155 0)
(0.936255 -0.0248335 0)
(0.970913 0.0637201 0)
(1.09023 0.0483344 0)
(1.09844 0.0266403 0)
(1.09928 0.0377925 0)
(1.11482 0.0144677 0)
(1.10801 0.0234423 0)
(1.12726 -0.000436401 0)
(1.11011 0.000255264 0)
(1.12919 -0.0201283 0)
(1.1065 -0.0278166 0)
(1.11914 -0.0401867 0)
(1.09701 -0.0562735 0)
(1.096 -0.0595132 0)
(1.07734 -0.0788629 0)
(1.05774 -0.0730867 0)
(1.04327 -0.0906053 0)
(1.01092 -0.0736239 0)
(1.00431 -0.0857696 0)
(0.97234 -0.0600633 0)
(0.963373 -0.0624064 0)
(0.954632 -0.00523187 0)
(0.967773 -0.0352347 0)
(0.964079 0.0490526 0)
(1.08257 0.0405524 0)
(1.09163 0.0237187 0)
(1.09078 0.0313933 0)
(1.10392 0.0116532 0)
(1.09466 0.0183368 0)
(1.11095 -0.00314902 0)
(1.09386 -5.33871e-05 0)
(1.11036 -0.0192198 0)
(1.08783 -0.0214045 0)
(1.10045 -0.0351673 0)
(1.07818 -0.0430386 0)
(1.08268 -0.0493553 0)
(1.0628 -0.0608323 0)
(1.0552 -0.0581875 0)
(1.03837 -0.0700959 0)
(1.01994 -0.0572376 0)
(1.01068 -0.0688242 0)
(0.988119 -0.0448346 0)
(0.985267 -0.0560264 0)
(0.967174 -0.00691055 0)
(0.990424 -0.032267 0)
(0.962293 0.0286744 0)
(1.07643 0.0350976 0)
(1.08425 0.0222367 0)
(1.08128 0.026463 0)
(1.09156 0.0108269 0)
(1.08197 0.0145508 0)
(1.09633 -0.00183242 0)
(1.0791 -0.000332963 0)
(1.09411 -0.0154491 0)
(1.07144 -0.0170646 0)
(1.08491 -0.0288447 0)
(1.06234 -0.0330016 0)
(1.07115 -0.0406466 0)
(1.05143 -0.0454785 0)
(1.0508 -0.0482853 0)
(1.03521 -0.0520922 0)
(1.02388 -0.0480214 0)
(1.01798 -0.0520681 0)
(0.998622 -0.0366699 0)
(1.0053 -0.0458048 0)
(0.976409 -0.00739592 0)
(1.0098 -0.0326885 0)
(0.970041 0.021063 0)
(1.07014 0.0301082 0)
(1.07368 0.0216476 0)
(1.07224 0.02253 0)
(1.07881 0.0116145 0)
(1.07291 0.0135019 0)
(1.08156 0.000208591 0)
(1.06952 0.00201144 0)
(1.07839 -0.0124233 0)
(1.0618 -0.0106734 0)
(1.07054 -0.0245393 0)
(1.05336 -0.0226822 0)
(1.0607 -0.0349799 0)
(1.04422 -0.0326901 0)
(1.04724 -0.0415489 0)
(1.03167 -0.0389003 0)
(1.02878 -0.0409051 0)
(1.01948 -0.0403598 0)
(1.01108 -0.0305095 0)
(1.01247 -0.0373091 0)
(0.993662 -0.00923391 0)
(1.01589 -0.0272549 0)
(0.983668 0.0119572 0)
(1.06121 0.0261679 0)
(1.06378 0.0210736 0)
(1.06428 0.0204974 0)
(1.06824 0.0132348 0)
(1.06471 0.0129736 0)
(1.06987 0.00325284 0)
(1.06155 0.00360634 0)
(1.06726 -0.00787149 0)
(1.05488 -0.0063567 0)
(1.0613 -0.0189909 0)
(1.04713 -0.0158804 0)
(1.05422 -0.0291016 0)
(1.03962 -0.023829 0)
(1.04465 -0.0358717 0)
(1.03023 -0.0290717 0)
(1.03076 -0.0359642 0)
(1.02227 -0.0309077 0)
(1.01716 -0.0273076 0)
(1.01949 -0.0298124 0)
(1.00314 -0.010072 0)
(1.0217 -0.0242508 0)
(0.99569 0.00812806 0)
(1.05471 0.0229791 0)
(1.05588 0.0212869 0)
(1.05778 0.0188069 0)
(1.05875 0.014256 0)
(1.05836 0.0127426 0)
(1.06014 0.00525878 0)
(1.05678 0.00571636 0)
(1.05832 -0.00492739 0)
(1.05136 -0.00181508 0)
(1.05347 -0.0156204 0)
(1.04474 -0.00923698 0)
(1.04866 -0.0252932 0)
(1.03817 -0.0157717 0)
(1.04239 -0.0318508 0)
(1.02972 -0.0207052 0)
(1.03284 -0.0323437 0)
(1.02207 -0.0234067 0)
(1.02386 -0.0250964 0)
(1.01891 -0.0237951 0)
(1.01457 -0.01075 0)
(1.01938 -0.020872 0)
(1.0075 0.00566513 0)
(1.04979 0.0211432 0)
(1.04886 0.0201751 0)
(1.05225 0.0174091 0)
(1.05095 0.0141099 0)
(1.0538 0.0125268 0)
(1.0526 0.0065789 0)
(1.05326 0.00686917 0)
(1.05149 -0.00221825 0)
(1.04898 0.000674885 0)
(1.04827 -0.0114485 0)
(1.04341 -0.00532987 0)
(1.04547 -0.0199085 0)
(1.03731 -0.010965 0)
(1.04162 -0.0259032 0)
(1.02905 -0.0156234 0)
(1.03489 -0.0269865 0)
(1.02099 -0.0186981 0)
(1.02878 -0.0215066 0)
(1.01699 -0.019899 0)
(1.0221 -0.00991396 0)
(1.01571 -0.018752 0)
(1.01655 0.00413058 0)
(1.04462 0.0188744 0)
(1.04357 0.0185053 0)
(1.04733 0.0158322 0)
(1.04577 0.013543 0)
(1.04924 0.0120186 0)
(1.04745 0.00713561 0)
(1.0494 0.00747325 0)
(1.04694 -0.000363974 0)
(1.04619 0.00260433 0)
(1.04472 -0.0081455 0)
(1.04157 -0.00234515 0)
(1.04283 -0.0154367 0)
(1.03631 -0.00717209 0)
(1.04038 -0.0206352 0)
(1.02882 -0.0114738 0)
(1.03541 -0.0219561 0)
(1.02103 -0.0146091 0)
(1.03106 -0.0180014 0)
(1.01637 -0.0162467 0)
(1.02593 -0.00914859 0)
(1.01419 -0.0158528 0)
(1.02064 0.00238271 0)
(1.04044 0.0168591 0)
(1.03968 0.0164294 0)
(1.04315 0.014418 0)
(1.04157 0.0124235 0)
(1.045 0.0111908 0)
(1.04314 0.00726309 0)
(1.04549 0.00740636 0)
(1.04309 0.0013343 0)
(1.04312 0.00334988 0)
(1.0413 -0.00486776 0)
(1.0392 -0.000834691 0)
(1.04024 -0.0105691 0)
(1.03503 -0.00487858 0)
(1.03866 -0.0148021 0)
(1.02847 -0.00861372 0)
(1.0349 -0.0162273 0)
(1.02141 -0.0114221 0)
(1.03167 -0.0138063 0)
(1.0167 -0.0130637 0)
(1.02766 -0.00767959 0)
(1.01377 -0.0129894 0)
(1.0231 0.000615582 0)
(1.03669 0.0147892 0)
(1.03635 0.0144263 0)
(1.03875 0.012741 0)
(1.03787 0.011237 0)
(1.04047 0.0101523 0)
(1.0395 0.00722294 0)
(1.04128 0.00716539 0)
(1.03963 0.00264314 0)
(1.03933 0.00390655 0)
(1.03821 -0.00217846 0)
(1.03646 0.00061389 0)
(1.0375 -0.00661434 0)
(1.03314 -0.00271232 0)
(1.03633 -0.0101077 0)
(1.02794 -0.00581986 0)
(1.03339 -0.0116146 0)
(1.02212 -0.00825259 0)
(1.03095 -0.0104084 0)
(1.01809 -0.00979929 0)
(1.02779 -0.00644888 0)
(1.01515 -0.0100589 0)
(1.02391 -0.0005915 0)
(1.03311 0.0128329 0)
(1.03308 0.0124857 0)
(1.03481 0.0111912 0)
(1.03445 0.0101238 0)
(1.03633 0.00919046 0)
(1.03595 0.00716439 0)
(1.03713 0.00683019 0)
(1.03615 0.00369566 0)
(1.03564 0.00420812 0)
(1.03505 7.63907e-05 0)
(1.03334 0.00155574 0)
(1.03456 -0.00338567 0)
(1.03102 -0.00112059 0)
(1.03391 -0.00620401 0)
(1.02704 -0.00364372 0)
(1.03167 -0.00774416 0)
(1.02252 -0.0056633 0)
(1.02992 -0.00741099 0)
(1.01942 -0.00699267 0)
(1.02746 -0.00514017 0)
(1.0168 -0.00739251 0)
(1.02427 -0.00135613 0)
(1.02985 0.0110742 0)
(1.03013 0.0108698 0)
(1.03114 0.00982926 0)
(1.03125 0.00910991 0)
(1.03245 0.0082944 0)
(1.03263 0.0068785 0)
(1.03319 0.00644764 0)
(1.03282 0.00423888 0)
(1.03208 0.00444035 0)
(1.03201 0.00150615 0)
(1.0305 0.00241063 0)
(1.03186 -0.00113422 0)
(1.029 0.000339656 0)
(1.03147 -0.00342781 0)
(1.02612 -0.00170639 0)
(1.02977 -0.00487177 0)
(1.02282 -0.00342279 0)
(1.02857 -0.00500822 0)
(1.02057 -0.00471576 0)
(1.02666 -0.00380777 0)
(1.01839 -0.00536598 0)
(1.02409 -0.00138248 0)
(1.027 0.00959951 0)
(1.02744 0.0094345 0)
(1.028 0.00862574 0)
(1.02837 0.00810629 0)
(1.02903 0.00742802 0)
(1.02953 0.00643326 0)
(1.02973 0.00601427 0)
(1.02991 0.00450919 0)
(1.02907 0.00452052 0)
(1.02938 0.00249521 0)
(1.02792 0.00296544 0)
(1.02935 0.000488359 0)
(1.02703 0.00133469 0)
(1.02923 -0.00132953 0)
(1.02505 -0.000311126 0)
(1.02798 -0.00260454 0)
(1.02274 -0.00176096 0)
(1.02715 -0.0030224 0)
(1.0212 -0.00298236 0)
(1.02571 -0.00253566 0)
(1.01949 -0.00372928 0)
(1.02365 -0.00115705 0)
(1.02467 0.00839833 0)
(1.02515 0.00820426 0)
(1.02531 0.00762431 0)
(1.02584 0.00717835 0)
(1.02617 0.00671753 0)
(1.02695 0.0059398 0)
(1.02693 0.00566703 0)
(1.02735 0.00450229 0)
(1.02638 0.00448653 0)
(1.02684 0.00296157 0)
(1.02559 0.00326435 0)
(1.02698 0.00146928 0)
(1.02519 0.00197919 0)
(1.02702 7.70312e-05 0)
(1.02388 0.000618828 0)
(1.02614 -0.000967998 0)
(1.02235 -0.000629407 0)
(1.02566 -0.00145515 0)
(1.02141 -0.00175008 0)
(1.0247 -0.00136131 0)
(1.02009 -0.00252985 0)
(1.02317 -0.000674288 0)
(1.02256 0.00729736 0)
(1.02312 0.00711128 0)
(1.02313 0.00673686 0)
(1.02381 0.00637917 0)
(1.0239 0.00607787 0)
(1.02476 0.00546417 0)
(1.0245 0.00524603 0)
(1.02505 0.00435824 0)
(1.02411 0.00430886 0)
(1.02476 0.00323001 0)
(1.02365 0.0033699 0)
(1.02495 0.00212393 0)
(1.02349 0.00232611 0)
(1.02504 0.00103639 0)
(1.02266 0.00119506 0)
(1.02444 0.000159268 0)
(1.02171 0.00012999 0)
(1.0242 -0.000376937 0)
(1.02122 -0.000842584 0)
(1.0236 -0.000566847 0)
(1.02027 -0.00154722 0)
(1.02253 -0.000328468 0)
(1.02087 0.00632085 0)
(1.02145 0.00615169 0)
(1.02133 0.00594729 0)
(1.02197 0.00563633 0)
(1.0219 0.00545865 0)
(1.02274 0.00496673 0)
(1.02245 0.00482891 0)
(1.02312 0.00417289 0)
(1.02229 0.00411917 0)
(1.02298 0.00335181 0)
(1.022 0.00335573 0)
(1.02319 0.00250388 0)
(1.02203 0.0024738 0)
(1.02337 0.00163233 0)
(1.02154 0.00150194 0)
(1.02299 0.000872556 0)
(1.02096 0.000578614 0)
(1.02293 0.00031542 0)
(1.02074 -0.000264431 0)
(1.02256 -4.33408e-05 0)
(1.02006 -0.000847205 0)
(1.02186 -6.51029e-05 0)
(1.01934 0.00533499 0)
(1.01986 0.00519703 0)
(1.01966 0.005065 0)
(1.0203 0.00484143 0)
(1.02018 0.00473011 0)
(1.02103 0.00439169 0)
(1.02074 0.00428691 0)
(1.02144 0.00382908 0)
(1.02071 0.00374856 0)
(1.02141 0.00322029 0)
(1.02061 0.00315861 0)
(1.02169 0.00258323 0)
(1.02077 0.00246342 0)
(1.02193 0.00188743 0)
(1.02054 0.00167185 0)
(1.02175 0.00124038 0)
(1.02023 0.000912893 0)
(1.02179 0.00070937 0)
(1.02014 0.00020317 0)
(1.02162 0.000305182 0)
(1.01968 -0.000282438 0)
(1.02116 0.000174284 0)
(1.01798 0.00429749 0)
(1.0185 0.00420698 0)
(1.01832 0.00412591 0)
(1.01895 0.00398837 0)
(1.01879 0.0039059 0)
(1.01957 0.00368847 0)
(1.01928 0.00358265 0)
(1.01998 0.00328671 0)
(1.01939 0.0031808 0)
(1.02011 0.00285156 0)
(1.01945 0.00274553 0)
(1.02044 0.00238161 0)
(1.01968 0.00221759 0)
(1.02073 0.00183775 0)
(1.01964 0.00160581 0)
(1.02069 0.00130347 0)
(1.01949 0.00101359 0)
(1.02081 0.000834845 0)
(1.01951 0.00046063 0)
(1.02077 0.000450246 0)
(1.0192 6.94608e-05 0)
(1.02051 0.000282277 0)
(1.01697 0.00344326 0)
(1.01745 0.00338994 0)
(1.01725 0.00334161 0)
(1.01781 0.00325194 0)
(1.01764 0.00319227 0)
(1.01834 0.0030488 0)
(1.01808 0.00296617 0)
(1.01876 0.00277124 0)
(1.01829 0.00267891 0)
(1.01899 0.00245991 0)
(1.01845 0.00235723 0)
(1.01934 0.00211226 0)
(1.01871 0.0019616 0)
(1.01966 0.00169877 0)
(1.01878 0.00149776 0)
(1.01977 0.00127955 0)
(1.01878 0.00104614 0)
(1.01996 0.000900964 0)
(1.01886 0.000619254 0)
(1.02003 0.000572894 0)
(1.01869 0.000309472 0)
(1.01994 0.000416209 0)
(1.01616 0.0023188 0)
(1.0166 0.00229717 0)
(1.01639 0.00227301 0)
(1.01692 0.00223503 0)
(1.01673 0.00220514 0)
(1.01738 0.00213368 0)
(1.01713 0.00208267 0)
(1.01778 0.00197234 0)
(1.01738 0.00190943 0)
(1.01807 0.00177998 0)
(1.01761 0.00171018 0)
(1.01844 0.00155893 0)
(1.01789 0.00145704 0)
(1.01878 0.00128471 0)
(1.01805 0.00115228 0)
(1.01898 0.00100082 0)
(1.01814 0.000851716 0)
(1.01921 0.000738149 0)
(1.01825 0.000560009 0)
(1.01936 0.000505703 0)
(1.01821 0.000343985 0)
(1.0194 0.000394002 0)
(1.0156 0.0013706 0)
(1.01604 0.00136065 0)
(1.01586 0.00134945 0)
(1.01636 0.00133315 0)
(1.01617 0.00131787 0)
(1.01674 0.0012827 0)
(1.01649 0.00125246 0)
(1.01711 0.00119511 0)
(1.01676 0.0011564 0)
(1.01744 0.00108897 0)
(1.01703 0.00104512 0)
(1.0178 0.0009638 0)
(1.01729 0.000899775 0)
(1.01813 0.000803121 0)
(1.01749 0.000721769 0)
(1.0184 0.00063392 0)
(1.01764 0.000545887 0)
(1.01865 0.000476093 0)
(1.01776 0.000374676 0)
(1.01884 0.000334453 0)
(1.01781 0.000246105 0)
(1.01897 0.000264484 0)
(1.01524 0.000603992 0)
(1.01565 0.000597133 0)
(1.01548 0.000589524 0)
(1.01596 0.000578376 0)
(1.01577 0.000568189 0)
(1.01632 0.000550627 0)
(1.01607 0.000536385 0)
(1.01669 0.000512402 0)
(1.01637 0.000495542 0)
(1.01704 0.00046768 0)
(1.01665 0.000448228 0)
(1.0174 0.000415797 0)
(1.01692 0.000390108 0)
(1.01775 0.000353782 0)
(1.01715 0.000322561 0)
(1.01804 0.000289566 0)
(1.01733 0.000255548 0)
(1.01831 0.000229029 0)
(1.01747 0.00019056 0)
(1.01854 0.000174951 0)
(1.01756 0.000141206 0)
(1.01871 0.000145733 0)
(1.09289 0.0439639 -3.38519e-20)
(1.08244 0.0328953 -3.33325e-21)
(1.01717 0.0239255 -1.28439e-20)
(1.08751 0.0288969 8.36117e-22)
(0.988792 0.0429691 1.05548e-20)
(1.04237 0.0572102 8.97687e-21)
(1.1071 0.0403361 -1.35529e-20)
(1.01496 0.0418597 4.404e-21)
(1.08552 0.040676 -1.96422e-21)
(1.04918 0.050838 -7.82955e-21)
(1.03677 0.0650378 -3.89319e-21)
(1.10277 0.0526081 2.81352e-21)
(1.05124 0.0616014 2.46037e-21)
(1.08238 0.0616558 -1.47883e-21)
(1.0788 0.0626731 2.47688e-21)
(1.05558 0.0726113 -9.1133e-22)
(1.08478 0.0549814 4.49885e-22)
(1.07414 0.0689714 -1.45547e-21)
(1.0783 0.063676 1.03222e-21)
(1.08072 0.0638928 -4.03907e-21)
(1.072 0.049944 1.20692e-22)
(1.07307 0.0620118 2.49228e-22)
(1.07858 0.0595629 -4.49784e-22)
(1.07753 0.0559092 3.26016e-21)
(1.06907 0.0498526 1.13594e-21)
(1.07103 0.0570132 -1.00527e-21)
(1.08586 0.0621488 1.50424e-21)
(1.08413 0.0535033 -2.73936e-21)
(1.07404 0.0545064 -1.21122e-21)
(1.07361 0.05206 8.06705e-22)
(1.08705 0.0624383 -1.48366e-21)
(1.08547 0.048773 1.96808e-21)
(1.07281 0.051574 2.86459e-21)
(1.06924 0.0438225 -2.73761e-21)
(1.0797 0.0533813 2.92774e-22)
(1.08298 0.0416283 -1.64432e-21)
(1.06644 0.0466654 -7.31483e-22)
(1.06738 0.0376337 2.8128e-21)
(1.07769 0.0483857 -3.17213e-21)
(1.0834 0.0368787 5.42177e-21)
(1.06541 0.0437802 -5.43036e-21)
(1.06844 0.0365108 1.53096e-21)
(1.07381 0.0431327 8.07252e-22)
(1.07802 0.0341101 -5.2917e-21)
(1.06054 0.0396542 3.55021e-21)
(1.06184 0.0318341 -4.23244e-21)
(1.06448 0.036655 6.51718e-21)
(1.07166 0.030502 5.93589e-21)
(1.05287 0.033306 5.84676e-21)
(1.05512 0.0293856 -1.43632e-21)
(1.05996 0.0321596 -9.40421e-21)
(1.06652 0.0296097 -5.33554e-21)
(1.04891 0.0300015 -9.76413e-21)
(1.0516 0.0288399 2.07069e-21)