/*--------------------------------*- C++ -*----------------------------------*\
| =========                 |                                                 |
| \\      /  F ield         | OpenFOAM: The Open Source CFD Toolbox           |
|  \\    /   O peration     | Version:                                        |
|   \\  /    A nd           | Website:  www.openfoam.com                      |
|    \\/     M anipulation  |                                                 |
\*---------------------------------------------------------------------------*/
FoamFile
{
    version     2.0;
    format      ascii;
    class       volVectorField;
    location    "149";
    object      U;
}
// * * * * * * * * * * * * * * * * * * * * * * * * * * * * * * * * * * * * * //

dimensions      [0 1 -1 0 0 0 0];


internalField   nonuniform List<vector> 
1136
(
(0.652525 -0.908159 -7.81602e-23)
(0.618543 -0.816086 8.43912e-22)
(0.529697 -0.878463 -1.72977e-21)
(0.47259 -0.638393 -3.25938e-22)
(0.324028 -0.285176 3.28207e-21)
(0.430094 0.123182 -1.79324e-21)
(0.508692 0.579905 4.45454e-22)
(0.544997 0.578885 -1.80391e-21)
(0.642177 0.828463 1.12434e-21)
(0.555505 0.793923 4.51655e-22)
(0.431529 0.544007 -1.9345e-21)
(0.499401 0.367534 2.5317e-21)
(0.725715 -0.236372 -1.26999e-21)
(0.607822 -0.361041 1.23932e-21)
(0.759211 -0.603034 -8.783e-22)
(0.649696 -0.835748 -5.76101e-24)
(0.692831 -0.374966 -2.27233e-22)
(0.677141 -0.243375 2.85844e-22)
(0.86761 0.274826 4.84715e-22)
(0.836014 0.716801 -3.74064e-22)
(0.84091 0.526479 -1.70829e-22)
(0.812172 0.546557 -6.65236e-23)
(0.989116 -0.0865043 -3.96036e-22)
(1.00452 -0.676843 3.083e-23)
(1.00333 -0.488452 -2.47668e-23)
(0.9378 -0.496746 -2.05495e-23)
(1.05653 0.128395 -2.75867e-22)
(1.0947 0.878645 4.98024e-22)
(1.04269 0.26063 4.7161e-23)
(1.00301 -0.195422 -1.40238e-23)
(0.69157 -0.897187 4.88697e-21)
(0.638628 -0.772879 -1.08789e-20)
(0.546448 -0.816661 3.99094e-21)
(0.417871 -0.582386 -2.79214e-21)
(0.278165 -0.277974 3.81503e-22)
(0.369785 0.0711608 9.04748e-21)
(0.452052 0.547498 -1.01861e-20)
(0.539546 0.553301 2.91682e-22)
(0.60418 0.827493 5.91255e-21)
(0.568111 0.804754 -1.58444e-21)
(0.442808 0.536701 3.03486e-22)
(0.509183 0.304372 -6.60498e-22)
(0.769458 -0.283607 -2.46665e-21)
(0.652074 -0.395061 -5.05789e-21)
(0.828019 -0.596121 4.53775e-21)
(0.692455 -0.83174 7.57965e-23)
(0.705412 -0.400524 1.20226e-23)
(0.69418 -0.282089 1.23774e-21)
(0.834695 0.257251 -3.3917e-21)
(0.802019 0.723085 1.33149e-21)
(0.815139 0.533068 3.36757e-22)
(0.797087 0.530939 1.13185e-22)
(1.00111 -0.104064 -3.13801e-22)
(1.02328 -0.677416 -1.21901e-22)
(1.01967 -0.48764 1.47089e-21)
(0.958963 -0.501086 -6.80341e-22)
(1.05238 0.114929 7.40194e-22)
(1.06816 0.877348 -5.57567e-23)
(1.02727 0.261148 9.4325e-23)
(1.00453 -0.192292 2.65229e-23)
(0.758384 -0.892571 -9.53134e-21)
(0.663163 -0.751971 7.90373e-21)
(0.574573 -0.763548 -2.33431e-21)
(0.395695 -0.528231 1.16329e-21)
(0.291361 -0.268796 1.08515e-20)
(0.331485 0.0130885 4.76378e-22)
(0.450564 0.485441 -1.96239e-20)
(0.553167 0.508319 1.00929e-21)
(0.582066 0.832974 -1.72143e-21)
(0.625151 0.877394 5.99835e-21)
(0.51962 0.593964 9.4395e-21)
(0.541234 0.28573 -2.57754e-21)
(0.834271 -0.289547 -2.0901e-21)
(0.70298 -0.409373 -8.50139e-21)
(0.862925 -0.587721 3.17684e-21)
(0.724641 -0.819924 9.40357e-21)
(0.709676 -0.38677 -7.51155e-21)
(0.70458 -0.284871 1.1562e-21)
(0.803549 0.249945 3.82272e-22)
(0.785158 0.712578 3.27228e-21)
(0.805042 0.521753 -3.11147e-21)
(0.792216 0.504416 1.41405e-21)
(1.0129 -0.122373 1.6449e-21)
(1.03828 -0.678596 1.97788e-21)
(1.0277 -0.490789 -1.75285e-21)
(0.976072 -0.504091 -4.74338e-22)
(1.04866 0.110882 -9.66218e-23)
(1.03761 0.881011 -1.71979e-21)
(1.01418 0.263485 -2.1852e-23)
(1.00535 -0.186208 -1.55917e-23)
(0.847938 -0.864495 7.74011e-21)
(0.708879 -0.715287 1.55634e-20)
(0.643065 -0.705376 -2.86076e-21)
(0.409818 -0.496108 -5.95247e-21)
(0.358824 -0.26524 2.35724e-21)
(0.33207 -0.0616232 -1.13299e-21)
(0.473845 0.435118 1.06915e-20)
(0.56863 0.483201 -4.15008e-21)
(0.5795 0.800149 -8.28813e-22)
(0.654562 0.89193 -1.3638e-20)
(0.59395 0.598961 -1.00374e-20)
(0.584548 0.236544 4.29487e-20)
(0.898837 -0.324684 -2.90992e-20)
(0.792123 -0.43788 3.1053e-21)
(0.924955 -0.573549 -1.07241e-21)
(0.779115 -0.813826 -1.38526e-21)
(0.73512 -0.424448 6.17997e-21)
(0.73759 -0.318889 -1.40962e-21)
(0.779269 0.225666 -2.78517e-21)
(0.76153 0.709641 3.05876e-21)
(0.786719 0.531656 -4.4984e-21)
(0.785085 0.487291 6.71725e-21)
(1.02622 -0.137891 -7.85295e-21)
(1.06302 -0.671477 3.62861e-22)
(1.04138 -0.492618 1.8907e-21)
(0.995166 -0.50636 -4.34783e-22)
(1.045 0.104632 2.37498e-21)
(0.999435 0.878933 1.17378e-21)
(0.998864 0.258285 -2.5432e-22)
(1.00398 -0.183843 -2.46328e-23)
(0.929412 -0.814175 -1.49815e-20)
(0.750062 -0.692884 7.39007e-21)
(0.712683 -0.637011 -6.89496e-22)
(0.429477 -0.463515 -1.23632e-20)
(0.438228 -0.252477 5.3284e-21)
(0.343246 -0.127525 6.72175e-21)
(0.487418 0.352248 -1.65494e-21)
(0.636056 0.444375 -3.63769e-21)
(0.585332 0.773097 -8.69888e-21)
(0.709543 0.926005 2.88046e-20)
(0.730689 0.661218 -2.60876e-20)
(0.691097 0.249051 -9.32563e-22)
(0.974423 -0.33295 -7.64473e-21)
(0.873783 -0.446281 2.03656e-20)
(0.955005 -0.541883 -1.11593e-20)
(0.821527 -0.782663 -2.09092e-21)
(0.745941 -0.409544 3.31415e-21)
(0.762441 -0.314962 3.31286e-21)
(0.746919 0.225682 1.3354e-22)
(0.748734 0.701758 1.26112e-22)
(0.787221 0.519834 3.40883e-21)
(0.791956 0.455495 -4.96735e-21)
(1.03943 -0.159884 4.37634e-21)
(1.08164 -0.67204 3.88925e-21)
(1.04623 -0.495309 -3.0706e-21)
(1.00359 -0.507662 -4.76815e-22)
(1.03811 0.111526 -3.87038e-21)
(0.958975 0.880937 -2.5986e-21)
(0.987502 0.254787 -6.0538e-23)
(1.00217 -0.178602 1.58319e-23)
(0.994272 -0.745606 -8.52395e-20)
(0.825532 -0.655775 1.98726e-20)
(0.765047 -0.57233 2.30743e-20)
(0.497579 -0.434009 -2.20267e-20)
(0.496717 -0.248229 1.30021e-20)
(0.417479 -0.175689 -1.3564e-22)
(0.521368 0.244107 1.08909e-21)
(0.701586 0.41443 -3.99996e-21)
(0.610077 0.711042 -6.50287e-21)
(0.744119 0.901198 1.03896e-20)
(0.807716 0.682578 1.42751e-20)
(0.798452 0.249199 1.85489e-20)
(1.0624 -0.346069 -2.96352e-20)
(0.99542 -0.469474 -1.0222e-20)
(1.01154 -0.517965 6.62296e-21)
(0.885916 -0.770585 -1.93485e-21)
(0.780994 -0.447616 -4.68603e-21)
(0.797718 -0.337996 7.47391e-21)
(0.734384 0.189916 1.26441e-21)
(0.734773 0.690636 -8.22045e-21)
(0.778018 0.531954 -1.96646e-21)
(0.801905 0.440755 3.47404e-21)
(1.05542 -0.172622 -1.91108e-21)
(1.10792 -0.65931 3.23898e-21)
(1.05836 -0.495899 -5.56522e-21)
(1.0089 -0.508252 4.93893e-21)
(1.02907 0.111927 -9.87298e-22)
(0.912557 0.878934 3.87239e-21)
(0.97588 0.244614 -1.72428e-22)
(0.99879 -0.176986 -3.29961e-24)
(0.911257 -0.614015 -9.93516e-21)
(0.808931 -0.518659 1.02392e-20)
(0.632999 -0.400973 -4.51046e-21)
(0.529249 -0.251117 -2.94111e-21)
(0.520387 -0.209827 -3.91399e-21)
(0.504759 0.127145 3.74054e-21)
(0.752663 0.359284 5.63014e-21)
(0.712279 0.677525 -3.93937e-21)
(0.782768 0.901013 -1.65566e-20)
(0.947562 0.696546 2.1393e-20)
(0.961023 0.272198 -1.14815e-20)
(1.15605 -0.332981 -2.68822e-21)
(1.0888 -0.460329 -4.9108e-21)
(1.04389 -0.46529 2.28833e-22)
(0.938869 -0.723622 9.92316e-21)
(0.805187 -0.433712 -9.81357e-22)
(0.832201 -0.332266 5.95118e-21)
(0.709736 0.19348 -7.2375e-21)
(0.729953 0.684977 8.44759e-21)
(0.790426 0.513856 -5.14196e-21)
(0.831077 0.406328 3.14381e-21)
(1.07561 -0.193198 -4.02378e-21)
(1.12666 -0.657228 1.37744e-22)
(1.06489 -0.494032 2.94326e-21)
(1.00226 -0.506186 -2.77243e-21)
(1.01029 0.127142 -1.99836e-21)
(0.86731 0.878185 1.76072e-21)
(0.969409 0.234862 -2.42425e-23)
(0.995296 -0.172456 -5.50186e-24)
(0.984021 -0.569996 2.51043e-21)
(0.848114 -0.480509 4.78366e-22)
(0.746555 -0.363666 -2.9207e-21)
(0.558806 -0.231281 1.37093e-21)
(0.580218 -0.218651 -3.92894e-21)
(0.536106 0.0237413 -1.58127e-22)
(0.792964 0.271024 -5.12263e-21)
(0.772051 0.597045 -2.07727e-22)
(0.826871 0.828016 -7.92343e-21)
(1.00105 0.726907 2.22831e-20)
(1.03387 0.345205 1.12994e-20)
(1.2327 -0.291381 -1.32815e-20)
(1.19745 -0.456183 5.82704e-21)
(1.10146 -0.430458 -1.42761e-20)
(1.00426 -0.70374 -6.97662e-21)
(0.842496 -0.463072 4.95364e-21)
(0.869922 -0.342239 2.38745e-21)
(0.708638 0.154819 1.08323e-21)
(0.716866 0.665165 -2.80884e-21)
(0.781922 0.52528 -7.63427e-21)
(0.855248 0.398899 6.35421e-21)
(1.09999 -0.197121 1.45043e-21)
(1.14656 -0.636843 -5.69127e-23)
(1.07735 -0.488047 3.94935e-23)
(0.995311 -0.50373 3.62738e-21)
(0.988338 0.132503 -3.76571e-21)
(0.817573 0.873136 -8.97911e-22)
(0.962783 0.219424 -1.43537e-22)
(0.990466 -0.170891 4.30239e-24)
(1.05495 -0.514856 -2.44412e-20)
(0.922457 -0.455231 7.3141e-21)
(0.846848 -0.33708 1.97977e-21)
(0.647675 -0.20451 8.94615e-22)
(0.62132 -0.236173 -8.04476e-22)
(0.584355 -0.069907 -2.10779e-21)
(0.767328 0.177072 2.02389e-21)
(0.855719 0.540524 5.37892e-21)
(0.90628 0.796799 -8.89088e-21)
(1.10033 0.67919 1.93318e-20)
(1.19339 0.31631 7.17266e-21)
(1.31893 -0.278813 -2.48576e-20)
(1.27496 -0.441897 6.63764e-21)
(1.13884 -0.375435 1.09085e-20)
(1.03135 -0.643549 -9.916e-21)
(0.875313 -0.458704 -1.3722e-21)
(0.908337 -0.344572 1.20764e-21)
(0.719359 0.160281 3.74988e-21)
(0.708926 0.656763 -7.13799e-21)
(0.803732 0.490069 4.20441e-21)
(0.89952 0.360459 1.83298e-21)
(1.1295 -0.213162 9.46269e-22)
(1.15687 -0.631331 -6.30452e-21)
(1.07806 -0.478478 2.57584e-21)
(0.976713 -0.495259 1.35334e-21)
(0.954656 0.15316 -2.06858e-21)
(0.769116 0.870127 1.82281e-21)
(0.961473 0.202971 -1.90931e-22)
(0.985054 -0.166967 -2.88202e-24)
(1.106 -0.442972 1.87841e-20)
(0.98443 -0.431518 -8.21486e-21)
(0.909219 -0.325722 2.4909e-21)
(0.739882 -0.155033 1.21907e-21)
(0.628175 -0.194902 1.40667e-22)
(0.612722 -0.144631 -1.19653e-21)
(0.748656 0.0454401 1.00057e-21)
(0.876482 0.405008 2.45942e-21)
(0.90527 0.706293 1.45924e-20)
(1.13881 0.715758 -3.31369e-20)
(1.20175 0.453732 3.55032e-20)
(1.33434 -0.166831 -5.21611e-20)
(1.34362 -0.395946 7.04184e-21)
(1.19286 -0.333997 3.35752e-21)
(1.05828 -0.595389 1.43333e-20)
(0.908778 -0.463738 3.25866e-21)
(0.936819 -0.355041 2.65279e-21)
(0.732392 0.118908 -7.33851e-22)
(0.703243 0.625523 -3.22425e-21)
(0.792277 0.503039 1.03074e-21)
(0.921081 0.358407 -2.25314e-21)
(1.15726 -0.19966 8.96379e-21)
(1.16379 -0.602794 -8.87095e-21)
(1.07936 -0.468365 6.64984e-21)
(0.960077 -0.492572 1.98107e-21)
(0.914757 0.161907 -4.9047e-21)
(0.723726 0.85665 -3.57744e-23)
(0.960153 0.185419 4.63634e-22)
(0.978831 -0.164849 1.67641e-24)
(0.986708 -0.363967 0)
(0.93916 -0.302329 0)
(0.815157 -0.129595 0)
(0.670027 -0.153272 0)
(0.644439 -0.183467 0)
(0.749011 -0.0230431 0)
(0.886677 0.323806 0)
(0.966171 0.620425 0)
(1.20934 0.615468 0)
(1.29479 0.386802 0)
(1.41156 -0.188565 0)
(1.39224 -0.358308 0)
(1.24086 -0.241913 0)
(1.07081 -0.517862 0)
(0.938442 -0.452424 0)
(0.951454 -0.330356 0)
(0.747075 0.135483 0)
(0.698553 0.619037 0)
(0.810469 0.457073 0)
(0.976368 0.320906 0)
(1.19246 -0.223777 0)
(1.16476 -0.588316 0)
(1.06662 -0.464069 0)
(0.93754 -0.473102 0)
(0.87115 0.188811 0)
(0.682308 0.850293 0)
(0.967673 0.162201 0)
(0.973452 -0.16203 0)
(0.940779 -0.32371 0)
(0.916335 -0.258509 0)
(0.834572 -0.0566984 0)
(0.711859 -0.104655 0)
(0.646571 -0.194987 0)
(0.720922 -0.032075 0)
(0.901574 0.268758 0)
(0.983196 0.530143 0)
(1.24883 0.539062 0)
(1.39917 0.379964 0)
(1.45888 -0.172405 0)
(1.38857 -0.348166 0)
(1.22489 -0.219863 0)
(1.07218 -0.508239 0)
(0.944212 -0.432854 0)
(0.959397 -0.299863 0)
(0.772018 0.15751 0)
(0.691378 0.603271 0)
(0.847506 0.41942 0)
(1.03434 0.276201 0)
(1.21292 -0.238651 0)
(1.16348 -0.568164 0)
(1.04952 -0.438143 0)
(0.907475 -0.453356 0)
(0.822986 0.224089 0)
(0.643873 0.841128 0)
(0.974838 0.134431 0)
(0.966771 -0.160122 0)
(1.0084 -0.263329 0)
(0.949324 -0.265241 0)
(0.925493 -0.0399656 0)
(0.833881 -0.046915 0)
(0.70076 -0.209904 0)
(0.734443 -0.0874306 0)
(0.916081 0.199979 0)
(0.98152 0.469478 0)
(1.27755 0.489317 0)
(1.4828 0.35524 0)
(1.48316 -0.15968 0)
(1.38768 -0.315604 0)
(1.2667 -0.140666 0)
(1.11055 -0.433362 0)
(0.984387 -0.420555 0)
(0.98108 -0.278006 0)
(0.804583 0.188148 0)
(0.695369 0.595891 0)
(0.891346 0.379715 0)
(1.08847 0.232404 0)
(1.23262 -0.24863 0)
(1.15567 -0.547451 0)
(1.02769 -0.426599 0)
(0.867229 -0.430906 0)
(0.771751 0.256924 0)
(0.612895 0.818628 0)
(0.986888 0.10463 0)
(0.960491 -0.156693 0)
(0.990369 -0.203643 0)
(0.888861 -0.238931 0)
(0.912507 -0.0173231 0)
(0.938193 0.0181604 0)
(0.810988 -0.182439 0)
(0.783936 -0.105698 0)
(0.915662 0.147262 0)
(0.98073 0.409053 0)
(1.25252 0.404774 0)
(1.50467 0.321271 0)
(1.48274 -0.141646 0)
(1.32025 -0.269252 0)
(1.20932 -0.117054 0)
(1.07751 -0.439003 0)
(0.973862 -0.405759 0)
(0.978407 -0.247957 0)
(0.806871 0.219645 0)
(0.70966 0.588671 0)
(0.93901 0.328908 0)
(1.1284 0.192715 0)
(1.24435 -0.25913 0)
(1.1417 -0.514353 0)
(0.990538 -0.388784 0)
(0.810525 -0.394999 0)
(0.716768 0.298929 0)
(0.594005 0.78673 0)
(1.0039 0.0696404 0)
(0.954094 -0.152772 0)
(1.11681 -0.143908 0)
(0.967788 -0.20941 0)
(0.927011 -0.0640864 0)
(1.02807 0.0299358 0)
(0.924567 -0.142296 0)
(0.833276 -0.106691 0)
(0.877159 0.118658 0)
(0.915802 0.342102 0)
(1.18476 0.285555 0)
(1.48562 0.263303 0)
(1.40049 -0.105383 0)
(1.26811 -0.243877 0)
(1.25976 -0.0595541 0)
(1.12758 -0.356438 0)
(0.99889 -0.376917 0)
(0.989814 -0.220489 0)
(0.810712 0.264017 0)
(0.741533 0.577622 0)
(0.987528 0.273919 0)
(1.16591 0.145897 0)
(1.255 -0.26 0)
(1.12304 -0.478201 0)
(0.951044 -0.359421 0)
(0.759697 -0.364451 0)
(0.649085 0.324737 0)
(0.587967 0.737923 0)
(1.02749 0.0357232 0)
(0.949666 -0.145737 0)
(1.02353 -0.126397 0)
(0.93906 -0.147356 0)
(0.899781 -0.0675371 0)
(1.008 0.0298207 0)
(0.961342 -0.101758 0)
(0.862733 -0.0730608 0)
(0.8618 0.094824 0)
(0.918944 0.249757 0)
(1.13248 0.165671 0)
(1.39124 0.218602 0)
(1.34792 -0.0714317 0)
(1.20488 -0.185521 0)
(1.19624 -0.0511072 0)
(1.0837 -0.360446 0)
(0.963576 -0.35938 0)
(0.943937 -0.190327 0)
(0.785057 0.288228 0)
(0.787102 0.537315 0)
(1.04357 0.217496 0)
(1.18721 0.115685 0)
(1.25846 -0.254435 0)
(1.09775 -0.429366 0)
(0.89922 -0.306414 0)
(0.698373 -0.316543 0)
(0.570963 0.357109 0)
(0.603309 0.681299 0)
(1.05565 0.000166427 0)
(0.946053 -0.136585 0)
(1.04696 -0.0766104 0)
(1.01133 -0.112544 0)
(0.933753 -0.089706 0)
(1.00011 0.00890959 0)
(0.991726 -0.072627 0)
(0.888064 -0.0567944 0)
(0.904084 0.0684606 0)
(0.98603 0.201938 0)
(1.09258 0.0937886 0)
(1.27278 0.17449 0)
(1.26037 -0.0448024 0)
(1.11711 -0.175935 0)
(1.18544 -0.0329933 0)
(1.11724 -0.274378 0)
(0.945727 -0.302259 0)
(0.881509 -0.157148 0)
(0.772602 0.305122 0)
(0.849963 0.494342 0)
(1.09791 0.16152 0)
(1.19743 0.0787018 0)
(1.26099 -0.238311 0)
(1.06284 -0.372086 0)
(0.866753 -0.257794 0)
(0.663565 -0.274512 0)
(0.490552 0.371223 0)
(0.645432 0.599622 0)
(1.08874 -0.0321111 0)
(0.944456 -0.122842 0)
(1.02633 -0.0768168 0)
(1.02033 -0.0831445 0)
(0.954086 -0.0671168 0)
(0.99141 -0.00565107 0)
(0.99242 -0.0454834 0)
(0.926401 -0.0254702 0)
(0.933985 0.0380757 0)
(1.00103 0.153469 0)
(1.07521 0.0569439 0)
(1.15623 0.141698 0)
(1.22284 -0.0272009 0)
(1.10462 -0.123255 0)
(1.13439 -0.0456755 0)
(1.06591 -0.274896 0)
(0.855805 -0.247025 0)
(0.786269 -0.119422 0)
(0.720143 0.299713 0)
(0.904716 0.416929 0)
(1.13852 0.119808 0)
(1.18344 0.0652146 0)
(1.26199 -0.231912 0)
(1.02285 -0.312118 0)
(0.829067 -0.190296 0)
(0.642591 -0.215827 0)
(0.445455 0.381449 0)
(0.729956 0.505298 0)
(1.12161 -0.0631599 0)
(0.941228 -0.103429 0)
(1.01665 -0.0435785 0)
(1.03147 -0.0599727 0)
(0.97191 -0.054644 0)
(0.991526 -0.0142148 0)
(0.993061 -0.0332256 0)
(0.952199 -0.0181927 0)
(0.958947 0.0194879 0)
(1.00154 0.124796 0)
(1.06233 0.0317476 0)
(1.0845 0.106476 0)
(1.2002 -0.0313131 0)
(1.05365 -0.113541 0)
(1.10204 -0.0273671 0)
(1.12236 -0.191647 0)
(0.886707 -0.173123 0)
(0.789296 -0.0963415 0)
(0.738273 0.261641 0)
(1.00121 0.333735 0)
(1.16694 0.0749795 0)
(1.15484 0.0419414 0)
(1.22594 -0.202543 0)
(0.968983 -0.24939 0)
(0.849179 -0.137036 0)
(0.666487 -0.166699 0)
(0.433271 0.359153 0)
(0.834182 0.392584 0)
(1.14743 -0.0787734 0)
(0.93388 -0.0823597 0)
(1.01446 -0.0317984 0)
(1.03937 -0.0535946 0)
(0.978664 -0.0347569 0)
(1.0087 -0.0215559 0)
(0.989257 -0.0262451 0)
(0.979277 -0.00104298 0)
(0.975352 0.0067067 0)
(0.995959 0.0874635 0)
(1.06835 0.0249754 0)
(1.05534 0.0747242 0)
(1.16171 -0.0328306 0)
(1.03434 -0.0672567 0)
(1.08243 -0.0556907 0)
(1.04101 -0.186625 0)
(0.860502 -0.108853 0)
(0.834038 -0.0595037 0)
(0.779179 0.195189 0)
(1.05305 0.229533 0)
(1.17247 0.0707377 0)
(1.14868 0.0522123 0)
(1.23793 -0.169015 0)
(0.899497 -0.178008 0)
(0.831405 -0.0814336 0)
(0.690205 -0.0939247 0)
(0.463306 0.332112 0)
(0.946146 0.279089 0)
(1.14881 -0.0801036 0)
(0.921644 -0.0387529 0)
(1.01009 -0.0206107 0)
(1.04477 -0.0391988 0)
(0.984985 -0.0236273 0)
(1.02226 -0.0217688 0)
(0.990657 -0.014837 0)
(0.992482 -0.0070994 0)
(0.998296 0.00668191 0)
(0.996072 0.0620735 0)
(1.06991 0.00844046 0)
(1.03083 0.0578493 0)
(1.13959 -0.0362244 0)
(1.01894 -0.0537748 0)
(1.06695 -0.0334407 0)
(1.04275 -0.117026 0)
(0.869817 -0.0723738 0)
(0.901715 -0.0489535 0)
(0.83681 0.160946 0)
(1.06467 0.157897 0)
(1.11941 0.0388129 0)
(1.05879 0.0330283 0)
(1.2129 -0.141966 0)
(0.936191 -0.114047 0)
(0.899097 -0.0417198 0)
(0.816763 -0.0456655 0)
(0.589562 0.27838 0)
(1.00134 0.173457 0)
(1.09799 -0.0884166 0)
(0.907036 -0.0193872 0)
(1.0148 -0.0122775 0)
(1.03926 -0.0356447 0)
(0.996498 -0.0105638 0)
(1.02618 -0.026748 0)
(0.997355 -0.00643341 0)
(1.00967 -0.00788167 0)
(1.00072 0.00610509 0)
(1.01236 0.0367182 0)
(1.05592 0.00510305 0)
(1.02723 0.0408917 0)
(1.11057 -0.0363185 0)
(1.00397 -0.0209935 0)
(1.05166 -0.0504569 0)
(1.01676 -0.0897703 0)
(0.912967 -0.0398947 0)
(0.927436 -0.0383013 0)
(0.877141 0.122378 0)
(1.06258 0.0989937 0)
(1.08366 0.0627301 0)
(1.06455 0.0320573 0)
(1.12884 -0.124378 0)
(0.871863 -0.0632797 0)
(0.90168 -0.0243653 0)
(0.868506 0.00620428 0)
(0.752572 0.248314 0)
(1.08911 0.114772 0)
(1.06954 -0.0466539 0)
(0.883577 0.028994 0)
(1.01696 -0.00961591 0)
(1.03591 -0.0285281 0)
(1.00293 -0.00672105 0)
(1.03062 -0.025513 0)
(1.00196 -8.5189e-05 0)
(1.01751 -0.0134447 0)
(1.01092 0.00723644 0)
(1.01503 0.0218614 0)
(1.05019 -0.00214428 0)
(1.02054 0.0330018 0)
(1.08299 -0.0341294 0)
(1.00452 -0.0108659 0)
(1.04268 -0.0367793 0)
(1.00611 -0.0552828 0)
(0.934413 -0.0262805 0)
(0.960377 -0.0280557 0)
(0.910958 0.101435 0)
(1.04622 0.0581519 0)
(1.05985 0.0388107 0)
(1.04525 0.0287756 0)
(1.12206 -0.0830744 0)
(0.910418 -0.0184041 0)
(0.937396 -0.018711 0)
(0.929493 0.0100929 0)
(0.856473 0.201355 0)
(1.09786 0.0743842 0)
(1.08544 -0.0288128 0)
(0.949782 0.0477232 0)
(1.02208 -0.00582434 0)
(1.02954 -0.0266163 0)
(1.01147 -0.000280583 0)
(1.02751 -0.0284644 0)
(1.00777 0.00565774 0)
(1.02356 -0.0173441 0)
(1.00979 0.00842926 0)
(1.02448 0.00962633 0)
(1.03404 -0.00338701 0)
(1.02413 0.0260093 0)
(1.058 -0.0318682 0)
(1.00659 0.00738836 0)
(1.03171 -0.040801 0)
(0.999671 -0.0314367 0)
(0.964738 -0.0154455 0)
(0.966604 -0.0244499 0)
(0.945143 0.0817672 0)
(1.04203 0.0231942 0)
(1.03187 0.0496289 0)
(1.04593 0.0210217 0)
(1.06643 -0.0699268 0)
(0.935103 0.0138777 0)
(0.961649 -0.0217281 0)
(0.937793 0.0295195 0)
(0.930229 0.17459 0)
(1.08769 0.03587 0)
(1.02556 -0.00439746 0)
(0.96643 0.0763163 0)
(1.02747 -0.00372109 0)
(1.0245 -0.0219823 0)
(1.01726 0.000360182 0)
(1.02602 -0.0251797 0)
(1.00968 0.0054299 0)
(1.02704 -0.0167422 0)
(1.00705 0.0056435 0)
(1.03086 0.00567058 0)
(1.02005 -0.00595462 0)
(1.02933 0.0215912 0)
(1.03607 -0.025762 0)
(1.01237 0.00926864 0)
(1.02918 -0.0293496 0)
(0.993378 -0.0171477 0)
(0.991185 -0.0083234 0)
(0.973618 -0.0193036 0)
(0.971146 0.0650243 0)
(1.03711 0.00995851 0)
(1.00961 0.0354403 0)
(1.05344 0.0231104 0)
(1.03299 -0.0464432 0)
(0.964843 0.0298033 0)
(0.989268 -0.00714238 0)
(0.941112 0.027744 0)
(0.972885 0.138137 0)
(1.08331 0.0352492 0)
(1.00267 0.0146591 0)
(0.992413 0.0804649 0)
(1.02898 -0.00200853 0)
(1.02318 -0.0181488 0)
(1.02025 0.00135406 0)
(1.02483 -0.0219879 0)
(1.01125 0.00468378 0)
(1.02791 -0.0153762 0)
(1.00545 0.00416843 0)
(1.0323 0.00168012 0)
(1.01202 -0.00509955 0)
(1.03038 0.0161374 0)
(1.0247 -0.0201126 0)
(1.01535 0.0126853 0)
(1.02601 -0.0243366 0)
(0.995617 -0.00667159 0)
(1.00602 -0.00402875 0)
(0.982735 -0.0149132 0)
(0.98569 0.0494736 0)
(1.03488 0.000496504 0)
(0.998624 0.0333802 0)
(1.05102 0.0200153 0)
(1.01498 -0.0309572 0)
(0.982449 0.0363488 0)
(1.0033 -0.00328999 0)
(0.958749 0.0311736 0)
(0.995503 0.112123 0)
(1.07097 0.0262086 0)
(0.996477 0.025666 0)
(1.01405 0.0806825 0)
(1.02914 -0.00105964 0)
(1.02232 -0.0131471 0)
(1.02152 0.000492257 0)
(1.02411 -0.0163722 0)
(1.01251 0.00237943 0)
(1.02724 -0.0118502 0)
(1.00534 0.00160575 0)
(1.03172 0.000483556 0)
(1.00798 -0.00448748 0)
(1.0304 0.0115628 0)
(1.01712 -0.0138701 0)
(1.01759 0.0102485 0)
(1.02386 -0.0159557 0)
(0.998626 -0.00189841 0)
(1.01406 -0.000584035 0)
(0.991837 -0.0099796 0)
(0.994946 0.03649 0)
(1.03126 0.000424082 0)
(0.993819 0.0251323 0)
(1.04608 0.0197746 0)
(1.00543 -0.0166859 0)
(0.996046 0.0353889 0)
(1.01155 0.00833144 0)
(0.974154 0.0311056 0)
(1.00655 0.0870427 0)
(1.06259 0.0300914 0)
(0.998291 0.0364883 0)
(1.02698 0.0770188 0)
(1.02721 -0.000434111 0)
(1.02241 -0.00917159 0)
(1.02141 0.000423056 0)
(1.02372 -0.0120126 0)
(1.01373 0.00138701 0)
(1.02604 -0.00932283 0)
(1.00716 0.000836558 0)
(1.02939 -0.000818763 0)
(1.00792 -0.00330946 0)
(1.02803 0.00783254 0)
(1.01458 -0.0097551 0)
(1.01816 0.00931181 0)
(1.02128 -0.0109885 0)
(1.00397 0.00167304 0)
(1.0158 0.00195422 0)
(1.00078 -0.00609522 0)
(0.999989 0.0273266 0)
(1.02788 0.000460231 0)
(0.995381 0.0207733 0)
(1.03865 0.018343 0)
(1.00424 -0.00606484 0)
(1.00496 0.0338369 0)
(1.01375 0.0129086 0)
(0.99039 0.0299435 0)
(1.01253 0.0705028 0)
(1.05386 0.0304322 0)
(1.00447 0.0388783 0)
(1.0354 0.069519 0)
(1.02518 1.19548e-06 0)
(1.02226 -0.00567287 0)
(1.02074 0.000220724 0)
(1.02336 -0.00806112 0)
(1.01468 0.000623794 0)
(1.02499 -0.00667431 0)
(1.00916 0.000187639 0)
(1.02717 -0.00116862 0)
(1.00926 -0.00237058 0)
(1.02564 0.00519906 0)
(1.01388 -0.00609521 0)
(1.018 0.00733072 0)
(1.01961 -0.00600178 0)
(1.00801 0.00304791 0)
(1.01578 0.00371323 0)
(1.00748 -0.00235412 0)
(1.00354 0.0201875 0)
(1.02538 0.0028392 0)
(0.99876 0.0167477 0)
(1.03245 0.0170727 0)
(1.0058 0.00208487 0)
(1.01052 0.0296414 0)
(1.01572 0.01781 0)
(1.00302 0.0298719 0)
(1.01522 0.0562538 0)
(1.04766 0.0315227 0)
(1.01263 0.0408988 0)
(1.04087 0.0626363 0)
(1.0231 0.000566761 0)
(1.02199 -0.00340927 0)
(1.01994 0.000582096 0)
(1.02287 -0.00542594 0)
(1.01558 0.000623922 0)
(1.02371 -0.00483672 0)
(1.01145 6.58285e-05 0)
(1.02489 -0.00106835 0)
(1.01127 -0.00172942 0)
(1.02332 0.00384376 0)
(1.01409 -0.00387628 0)
(1.018 0.00635061 0)
(1.01794 -0.00277978 0)
(1.01177 0.00395064 0)
(1.01506 0.0049932 0)
(1.01213 0.000253103 0)
(1.0068 0.0157172 0)
(1.02304 0.00420768 0)
(1.00331 0.0140898 0)
(1.0279 0.0159369 0)
(1.00834 0.00699212 0)
(1.01534 0.027198 0)
(1.01682 0.020208 0)
(1.01185 0.0280514 0)
(1.01834 0.0462072 0)
(1.04363 0.0320141 0)
(1.01966 0.039795 0)
(1.04435 0.0549471 0)
(1.02129 0.000955659 0)
(1.02163 -0.00172881 0)
(1.01912 0.000816882 0)
(1.02238 -0.00333491 0)
(1.01614 0.000583658 0)
(1.02265 -0.00314687 0)
(1.01327 1.46034e-05 0)
(1.023 -0.000628796 0)
(1.01312 -0.00111722 0)
(1.02145 0.00297919 0)
(1.0146 -0.00194639 0)
(1.01793 0.00528769 0)
(1.01692 -0.000213012 0)
(1.0145 0.00438417 0)
(1.01469 0.00557037 0)
(1.01539 0.00255766 0)
(1.00962 0.0123317 0)
(1.02175 0.00566162 0)
(1.00741 0.0122943 0)
(1.02492 0.0146006 0)
(1.0112 0.0103722 0)
(1.0186 0.0244392 0)
(1.01821 0.020815 0)
(1.01906 0.0269977 0)
(1.02125 0.0386295 0)
(1.04065 0.0307574 0)
(1.02549 0.0374185 0)
(1.04678 0.0479386 0)
(1.01988 0.00129964 0)
(1.02106 -0.000738603 0)
(1.01852 0.00109922 0)
(1.02165 -0.00197531 0)
(1.01666 0.000711974 0)
(1.02157 -0.00185567 0)
(1.01471 9.36267e-05 0)
(1.02155 3.84153e-05 0)
(1.01445 -0.000648289 0)
(1.02028 0.00276035 0)
(1.01489 -0.000645639 0)
(1.01813 0.00464255 0)
(1.01618 0.00145804 0)
(1.01639 0.00436416 0)
(1.01492 0.00594694 0)
(1.01731 0.00381553 0)
(1.01236 0.0102486 0)
(1.02117 0.00673304 0)
(1.01075 0.0108656 0)
(1.0236 0.0137237 0)
(1.01347 0.0117524 0)
(1.02108 0.021607 0)
(1.02018 0.0207016 0)
(1.02415 0.0252489 0)
(1.02397 0.0326083 0)
(1.03915 0.0288834 0)
(1.02983 0.034069 0)
(1.04823 0.0412082 0)
(1.01881 0.00142436 0)
(1.02039 -2.60288e-05 0)
(1.01801 0.00120316 0)
(1.02084 -0.000975785 0)
(1.01689 0.000804342 0)
(1.02061 -0.000901645 0)
(1.01561 0.000335684 0)
(1.02047 0.000540864 0)
(1.01539 -2.25305e-05 0)
(1.01955 0.00261746 0)
(1.01532 0.000451145 0)
(1.01838 0.00416061 0)
(1.01597 0.0024466 0)
(1.01771 0.00433896 0)
(1.01527 0.00579237 0)
(1.01863 0.00459346 0)
(1.01438 0.00882388 0)
(1.02107 0.00723484 0)
(1.0137 0.0101109 0)
(1.0232 0.0127316 0)
(1.01585 0.0120977 0)
(1.02325 0.0191357 0)
(1.02166 0.0192898 0)
(1.02748 0.0229065 0)
(1.02665 0.0282978 0)
(1.03884 0.0265711 0)
(1.03303 0.0300393 0)
(1.04895 0.0349858 0)
(1.01809 0.00147949 0)
(1.01963 0.000418772 0)
(1.01762 0.00120701 0)
(1.02002 -0.000265763 0)
(1.01689 0.000803232 0)
(1.01985 -0.000169076 0)
(1.01599 0.000484891 0)
(1.0198 0.000937658 0)
(1.01586 0.000461452 0)
(1.01922 0.00248281 0)
(1.01574 0.00125201 0)
(1.0186 0.00370169 0)
(1.01625 0.00305983 0)
(1.01849 0.00411961 0)
(1.0159 0.00546984 0)
(1.01948 0.00490102 0)
(1.01578 0.0075897 0)
(1.02146 0.00734296 0)
(1.01593 0.00926089 0)
(1.02354 0.0115871 0)
(1.01828 0.0118262 0)
(1.02488 0.0165699 0)
(1.02316 0.0173892 0)
(1.0297 0.0203889 0)
(1.02858 0.0243159 0)
(1.03926 0.0236884 0)
(1.03563 0.0259723 0)
(1.04921 0.0293681 0)
(1.0175 0.00147023 0)
(1.01895 0.000741752 0)
(1.01725 0.00120136 0)
(1.01927 0.000237614 0)
(1.01681 0.00086106 0)
(1.01919 0.00029846 0)
(1.01619 0.000688253 0)
(1.01925 0.00112184 0)
(1.01614 0.000854266 0)
(1.01902 0.0023232 0)
(1.01607 0.00170568 0)
(1.01887 0.00340418 0)
(1.01658 0.00323345 0)
(1.01912 0.00396751 0)
(1.01658 0.00505276 0)
(1.02009 0.00482978 0)
(1.017 0.00666637 0)
(1.02187 0.00687794 0)
(1.01772 0.00831176 0)
(1.02417 0.0103289 0)
(1.02024 0.0108748 0)
(1.02635 0.014297 0)
(1.02467 0.0153847 0)
(1.03116 0.0175752 0)
(1.03008 0.0204323 0)
(1.03986 0.020482 0)
(1.03753 0.0220154 0)
(1.04922 0.0243142 0)
(1.01698 0.0013054 0)
(1.01839 0.000880424 0)
(1.01687 0.0010624 0)
(1.01869 0.000526036 0)
(1.01665 0.000805367 0)
(1.0187 0.000536922 0)
(1.01627 0.000768249 0)
(1.01883 0.00110094 0)
(1.01633 0.00106077 0)
(1.01885 0.00200671 0)
(1.01638 0.00186266 0)
(1.01902 0.00298513 0)
(1.01692 0.00306588 0)
(1.01959 0.00367121 0)
(1.01721 0.00440253 0)
(1.02067 0.00449732 0)
(1.01801 0.0056745 0)
(1.02237 0.00602897 0)
(1.01917 0.00720776 0)
(1.02474 0.00874341 0)
(1.02181 0.00949427 0)
(1.02753 0.0120299 0)
(1.02596 0.0130182 0)
(1.0324 0.01467 0)
(1.03138 0.0166773 0)
(1.04023 0.0169299 0)
(1.03876 0.0180604 0)
(1.0491 0.0196489 0)
(1.01653 0.00117539 0)
(1.01789 0.000910716 0)
(1.01654 0.000969345 0)
(1.01819 0.000663691 0)
(1.01647 0.000771261 0)
(1.0183 0.00065937 0)
(1.01628 0.000787189 0)
(1.01852 0.0010565 0)
(1.0164 0.00109095 0)
(1.01874 0.00172817 0)
(1.01657 0.00178028 0)
(1.01913 0.00253616 0)
(1.01721 0.00272623 0)
(1.0199 0.00317499 0)
(1.01781 0.00370983 0)
(1.0211 0.00388786 0)
(1.01885 0.00465374 0)
(1.02288 0.00502663 0)
(1.02026 0.00590484 0)
(1.02531 0.00707555 0)
(1.023 0.00780838 0)
(1.0284 0.00962855 0)
(1.02709 0.0104933 0)
(1.03335 0.0116904 0)
(1.03241 0.01301 0)
(1.0405 0.0132985 0)
(1.03953 0.0141489 0)
(1.04889 0.0152333 0)
(1.01612 0.000902821 0)
(1.01745 0.000754689 0)
(1.01622 0.00076561 0)
(1.01776 0.000593113 0)
(1.01626 0.00064181 0)
(1.01796 0.00058629 0)
(1.01623 0.000684164 0)
(1.01825 0.00086027 0)
(1.01641 0.000933627 0)
(1.01862 0.00134397 0)
(1.0167 0.00144697 0)
(1.01918 0.00196356 0)
(1.0174 0.00212624 0)
(1.02011 0.00247136 0)
(1.01825 0.00282714 0)
(1.02141 0.0030002 0)
(1.01948 0.00351129 0)
(1.02326 0.00378753 0)
(1.02107 0.00442812 0)
(1.02574 0.00525253 0)
(1.02384 0.00582152 0)
(1.02904 0.00709241 0)
(1.0279 0.0077362 0)
(1.03398 0.00853879 0)
(1.03318 0.00939771 0)
(1.04067 0.00962938 0)
(1.03995 0.0102092 0)
(1.04863 0.0109239 0)
(1.0158 0.000559162 0)
(1.01711 0.000486699 0)
(1.01595 0.000478721 0)
(1.01742 0.00039716 0)
(1.01606 0.000410025 0)
(1.0177 0.000392673 0)
(1.01613 0.000447821 0)
(1.01804 0.000551906 0)
(1.01636 0.000614717 0)
(1.01849 0.000842425 0)
(1.01676 0.00093736 0)
(1.01915 0.00123107 0)
(1.01752 0.00135024 0)
(1.02019 0.00156465 0)
(1.01851 0.00176955 0)
(1.02159 0.00190056 0)
(1.01984 0.00218542 0)
(1.02352 0.00236659 0)
(1.02158 0.00275521 0)
(1.02602 0.00324131 0)
(1.0244 0.00361257 0)
(1.02941 0.00436069 0)
(1.02842 0.00475539 0)
(1.03435 0.00523359 0)
(1.03364 0.00571779 0)
(1.04073 0.00585798 0)
(1.04017 0.00619824 0)
(1.04837 0.00660939 0)
(1.01561 0.000247396 0)
(1.01689 0.00021943 0)
(1.01578 0.000214318 0)
(1.01722 0.000185133 0)
(1.01593 0.000186341 0)
(1.01755 0.000180322 0)
(1.01606 0.000195777 0)
(1.01791 0.000233414 0)
(1.01632 0.00025419 0)
(1.01842 0.000333334 0)
(1.01678 0.000367091 0)
(1.01913 0.000463113 0)
(1.01757 0.000506913 0)
(1.02022 0.000575528 0)
(1.01864 0.000646614 0)
(1.02166 0.000687367 0)
(1.02002 0.0007809 0)
(1.02365 0.000844318 0)
(1.02183 0.000970876 0)
(1.02616 0.00113699 0)
(1.02467 0.00126349 0)
(1.0296 0.00151002 0)
(1.02868 0.00164656 0)
(1.03451 0.00180053 0)
(1.03386 0.00195474 0)
(1.04075 0.00200162 0)
(1.04026 0.00211426 0)
(1.04821 0.00224811 0)
)
;

boundaryField
{
    outlet
    {
        type            zeroGradient;
    }
    upperWall
    {
        type            symmetryPlane;
    }
    lowerWall
    {
        type            symmetryPlane;
    }
    inlet
    {
        type            fixedValue;
        value           nonuniform 0();
    }
    cylinder
    {
        type            fixedValue;
        value           nonuniform 0();
    }
    frontAndBack
    {
        type            empty;
    }