/*--------------------------------*- C++ -*----------------------------------*\
| =========                 |                                                 |
| \\      /  F ield         | OpenFOAM: The Open Source CFD Toolbox           |
|  \\    /   O peration     | Version:                                        |
|   \\  /    A nd           | Website:  www.openfoam.com                      |
|    \\/     M anipulation  |                                                 |
\*---------------------------------------------------------------------------*/
FoamFile
{
    version     2.0;
    format      ascii;
    class       volVectorField;
    location    "157";
    object      U;
}
// * * * * * * * * * * * * * * * * * * * * * * * * * * * * * * * * * * * * * //

dimensions      [0 1 -1 0 0 0 0];


internalField   nonuniform List<vector> 
1164
(
(0.593652 -0.860484 -3.05481e-22)
(0.661145 -0.921413 -1.36734e-20)
(0.752987 -0.951906 2.08008e-20)
(0.851777 -0.97561 3.47392e-21)
(0.962514 -0.966644 1.61269e-20)
(1.07141 -0.944685 1.34305e-19)
(0.495682 -0.552164 -1.95827e-21)
(0.642432 -0.601036 2.30656e-20)
(0.81133 -0.640794 -1.78699e-20)
(0.953087 -0.691716 -4.67956e-20)
(1.08253 -0.727283 -3.73603e-20)
(1.18992 -0.754588 -2.58302e-20)
(1.27235 -0.768729 2.46641e-20)
(1.32004 -0.743388 -2.08295e-20)
(1.35317 -0.721892 5.21612e-20)
(1.2589 -0.64804 -3.16806e-20)
(0.469993 -0.153686 3.36968e-21)
(0.605194 -0.153127 -9.9514e-21)
(0.767592 -0.180117 7.88087e-21)
(0.946848 -0.215592 1.04707e-20)
(1.1131 -0.269635 -7.06725e-21)
(1.25297 -0.322133 -1.4854e-19)
(1.37169 -0.39226 -8.89066e-20)
(1.40662 -0.419094 -3.61968e-20)
(1.4694 -0.479416 -3.31983e-20)
(1.40768 -0.520628 4.32364e-20)
(0.56289 0.385098 1.74754e-22)
(0.713243 0.387174 6.03428e-21)
(0.867078 0.357456 -6.50632e-21)
(1.0274 0.32037 2.23809e-20)
(1.17585 0.236889 6.65419e-20)
(1.30962 0.179067 1.53655e-19)
(1.4274 0.0680479 4.12519e-20)
(1.49147 0.0019755 2.49696e-20)
(1.60784 -0.0784131 -5.70869e-20)
(1.51723 -0.173158 -2.95557e-20)
(0.493291 0.628492 -3.11006e-21)
(0.60589 0.670901 -9.7208e-22)
(0.750243 0.692156 -1.86614e-20)
(0.924137 0.677445 -9.21173e-21)
(1.1089 0.631615 -2.28394e-20)
(1.27371 0.550612 -7.38783e-20)
(1.40844 0.433505 3.1636e-20)
(1.50712 0.327081 1.38666e-21)
(1.58693 0.208694 2.1674e-20)
(1.5171 0.0497061 -2.70167e-20)
(0.664755 0.811728 1.59633e-21)
(0.747111 0.815859 -8.31572e-21)
(0.831672 0.836482 2.89361e-21)
(0.926123 0.802967 2.30403e-22)
(1.00223 0.776928 -1.29379e-20)
(1.08172 0.704501 4.67481e-21)
(1.16776 0.631928 2.08986e-20)
(1.25157 0.526514 3.03568e-20)
(1.31123 0.407947 1.05295e-20)
(1.30569 0.27129 -1.208e-21)
(0.602928 0.799255 -3.91019e-22)
(0.645955 0.787795 9.12391e-21)
(0.696447 0.768116 2.11087e-20)
(0.782144 0.744028 -1.31574e-20)
(0.885147 0.709461 9.61451e-21)
(1.00547 0.666178 1.88118e-21)
(1.09402 0.617944 -1.54702e-20)
(1.14358 0.563698 1.06904e-21)
(1.1797 0.505141 2.37101e-20)
(1.21209 0.445496 2.18396e-20)
(0.519831 0.67528 1.62625e-21)
(0.572336 0.66026 -8.38287e-23)
(0.624908 0.614385 -1.40135e-21)
(0.673599 0.581926 5.38453e-21)
(0.721367 0.538423 6.98855e-21)
(0.771315 0.498262 7.98855e-21)
(0.821547 0.438646 -4.49004e-21)
(0.906052 0.392856 8.9076e-21)
(0.976833 0.340889 -5.18252e-21)
(1.05195 0.303733 -1.4077e-21)
(0.443171 0.766881 -1.15174e-21)
(0.471153 0.762217 -5.66795e-21)
(0.520112 0.737573 -7.15431e-23)
(0.58223 0.703368 1.44231e-21)
(0.664935 0.673248 6.55233e-21)
(0.741821 0.621237 2.91292e-21)
(0.798059 0.559109 7.96838e-21)
(0.844641 0.487326 -6.88729e-21)
(0.879365 0.407438 2.42762e-21)
(0.954539 0.334756 5.6185e-21)
(0.479062 0.236649 -5.07773e-22)
(0.437667 0.226189 1.84012e-21)
(0.43983 0.249996 -5.16973e-21)
(0.446461 0.251953 6.43869e-21)
(0.481388 0.292792 -1.00779e-20)
(0.507228 0.322838 -4.25387e-21)
(0.500874 0.349558 4.26249e-21)
(0.554333 0.376741 -3.98986e-22)
(0.61912 0.373503 4.94993e-21)
(0.749826 0.349882 3.6353e-22)
(0.433497 -0.0696947 5.73082e-22)
(0.436169 -0.0242981 1.36803e-22)
(0.480927 0.0186772 -5.18923e-21)
(0.531533 0.0421527 2.89122e-21)
(0.615979 0.0829701 7.89437e-21)
(0.673453 0.0990014 -2.48205e-21)
(0.712604 0.136924 -3.18181e-21)
(0.727463 0.185878 -3.77369e-21)
(0.673618 0.234441 -1.24324e-21)
(0.669125 0.27999 3.62423e-21)
(0.64511 -0.375264 -8.35833e-22)
(0.616226 -0.321919 4.64752e-21)
(0.577411 -0.307184 1.27034e-21)
(0.576025 -0.237861 -1.55456e-20)
(0.580648 -0.201564 3.06041e-22)
(0.586839 -0.138496 -3.83581e-21)
(0.648932 -0.0922071 1.52641e-21)
(0.711126 -0.0217964 -1.21645e-21)
(0.783915 0.0293878 -2.42746e-22)
(0.838973 0.156299 -1.25265e-21)
(0.636372 -0.718242 9.97724e-22)
(0.6193 -0.714847 -2.41996e-21)
(0.623812 -0.738661 1.31317e-21)
(0.651974 -0.71268 1.03895e-20)
(0.659442 -0.741758 5.17069e-21)
(0.69055 -0.675078 5.51021e-21)
(0.708316 -0.677678 1.26995e-21)
(0.727669 -0.580888 -4.92301e-22)
(0.773787 -0.557283 1.86455e-21)
(0.800784 -0.451298 7.5077e-21)
(0.572118 -0.565858 -1.05146e-21)
(0.5546 -0.577288 4.25474e-21)
(0.599654 -0.597508 7.48077e-21)
(0.611725 -0.632694 -2.37361e-21)
(0.676622 -0.651476 -1.12889e-20)
(0.710981 -0.692583 6.63281e-21)
(0.768622 -0.709503 6.30334e-21)
(0.808703 -0.737923 -9.56274e-21)
(0.835954 -0.743358 -2.54605e-21)
(0.874114 -0.741157 1.16307e-20)
(0.560496 -0.726797 8.02075e-22)
(0.523025 -0.696161 -3.91185e-21)
(0.526299 -0.678678 -1.30987e-21)
(0.512923 -0.658829 1.23512e-21)
(0.556118 -0.630915 1.21077e-20)
(0.572481 -0.643271 -5.91836e-21)
(0.662242 -0.598724 5.53271e-21)
(0.702906 -0.646763 1.0461e-20)
(0.801174 -0.584746 -1.67615e-20)
(0.838894 -0.658846 1.3065e-20)
(0.705391 -0.343386 2.57919e-23)
(0.724992 -0.300384 -6.16689e-23)
(0.753358 -0.28648 -1.29132e-20)
(0.778317 -0.253243 3.16354e-21)
(0.816314 -0.232284 8.24836e-21)
(0.852011 -0.21878 2.69073e-21)
(0.910106 -0.183464 -1.56392e-20)
(0.948867 -0.204956 1.59612e-20)
(1.02393 -0.145949 1.41937e-20)
(1.04271 -0.206486 -1.79656e-20)
(0.74811 0.167886 2.77031e-22)
(0.77198 0.195543 -9.35357e-23)
(0.807029 0.206806 1.19252e-20)
(0.858989 0.222923 -1.1261e-20)
(0.91525 0.237446 -5.45803e-21)
(0.989649 0.241727 1.0793e-20)
(1.05771 0.259317 1.50731e-21)
(1.1286 0.242223 -1.07803e-20)
(1.19243 0.26341 3.53477e-21)
(1.25045 0.21451 -7.49953e-21)
(0.781773 0.303043 -4.75071e-22)
(0.818722 0.318817 -1.26392e-21)
(0.849203 0.343887 -2.34662e-21)
(0.890152 0.354876 2.91099e-21)
(0.922647 0.374113 -7.44405e-21)
(0.975802 0.377343 -1.53088e-20)
(1.01485 0.382309 -1.12846e-20)
(1.06699 0.368949 -5.31432e-21)
(1.09816 0.364143 -3.40529e-21)
(1.14881 0.32968 -6.87221e-21)
(0.868802 0.809563 -4.88145e-22)
(0.921524 0.791849 3.64655e-21)
(0.9598 0.79986 -8.61097e-22)
(1.00952 0.775309 3.52972e-21)
(1.04898 0.773432 -6.72314e-22)
(1.09698 0.74388 4.39356e-22)
(1.12756 0.733326 1.33838e-20)
(1.15435 0.699606 -5.41528e-22)
(1.1602 0.677132 -6.32754e-21)
(1.17205 0.63768 2.51723e-21)
(0.795815 0.647484 3.30275e-22)
(0.812855 0.643424 -1.28406e-21)
(0.823901 0.646913 -3.15329e-21)
(0.846259 0.644003 -2.97819e-21)
(0.861945 0.636474 -5.65495e-22)
(0.889576 0.631578 9.55411e-21)
(0.908584 0.612399 -8.79232e-21)
(0.946403 0.612581 4.02646e-21)
(0.977265 0.584505 9.33943e-21)
(1.025 0.574953 4.23131e-21)
(0.840261 0.212983 1.86397e-22)
(0.851423 0.233213 -3.19777e-22)
(0.855839 0.23438 3.13335e-21)
(0.871042 0.257745 4.80247e-21)
(0.874383 0.252268 -3.19647e-21)
(0.888494 0.274366 1.80389e-21)
(0.892382 0.265809 5.06096e-21)
(0.90527 0.282972 7.40784e-21)
(0.917051 0.275555 -4.38291e-21)
(0.933568 0.282623 -1.26335e-21)
(0.892036 -0.0173874 8.98752e-23)
(0.878239 0.00572477 -1.21492e-22)
(0.864528 0.0187738 -1.60023e-21)
(0.851606 0.0361472 -7.34327e-21)
(0.839738 0.0404039 5.41198e-21)
(0.834212 0.0550637 -3.83188e-21)
(0.821157 0.0494488 -2.97482e-21)
(0.824019 0.063617 -6.18302e-21)
(0.822866 0.0503324 -1.63018e-21)
(0.820796 0.0713866 2.01135e-21)
(1.02573 -0.725739 4.40993e-22)
(0.987483 -0.725437 -9.01471e-22)
(0.955264 -0.715988 -6.43967e-22)
(0.913324 -0.707714 7.87597e-21)
(0.876526 -0.70094 -4.48191e-21)
(0.837708 -0.683612 1.58263e-21)
(0.80349 -0.683228 3.81894e-21)
(0.772735 -0.659694 -1.3375e-21)
(0.744087 -0.664609 -1.42609e-22)
(0.720231 -0.64181 -6.79708e-21)
(0.956755 -0.679532 -4.14113e-24)
(0.931239 -0.682119 1.08526e-22)
(0.913604 -0.674558 -1.60215e-21)
(0.885693 -0.67009 -4.62707e-22)
(0.865303 -0.655943 -1.26126e-21)
(0.836641 -0.64532 -3.91183e-21)
(0.818015 -0.626767 2.42911e-21)
(0.792289 -0.615103 5.58707e-23)
(0.784874 -0.586271 4.37346e-21)
(0.761958 -0.581481 6.25946e-21)
(0.965816 -0.215309 3.16767e-23)
(0.963776 -0.213667 -1.36967e-21)
(0.967455 -0.21054 1.5201e-21)
(0.965916 -0.207349 -1.53829e-21)
(0.968081 -0.198075 2.24522e-21)
(0.965609 -0.191382 3.95011e-21)
(0.96958 -0.177081 -4.51812e-21)
(0.974628 -0.167909 -1.84921e-22)
(0.994051 -0.146134 -1.48286e-21)
(1.01238 -0.143082 -4.33572e-21)
(0.985198 0.0232219 1.89714e-23)
(0.998916 0.0435721 6.63755e-22)
(1.01753 0.061145 4.21428e-22)
(1.0366 0.0812457 3.0013e-22)
(1.05555 0.0999622 4.61145e-22)
(1.07191 0.117583 -2.27166e-21)
(1.08669 0.135906 -2.98433e-22)
(1.1001 0.14746 -1.12404e-21)
(1.1116 0.162973 -3.35618e-22)
(1.12394 0.167818 -3.42658e-22)
(1.12771 0.749683 2.35261e-22)
(1.14768 0.753644 -6.41206e-22)
(1.15815 0.759031 -7.29483e-23)
(1.16573 0.762503 -1.81078e-21)
(1.16551 0.766242 2.48492e-21)
(1.16339 0.765663 8.66224e-22)
(1.15689 0.765928 2.71934e-21)
(1.14986 0.758835 6.66654e-22)
(1.14019 0.755355 -1.74675e-22)
(1.13086 0.745698 2.17923e-21)
(1.03777 0.626681 -4.53392e-22)
(1.06507 0.619791 3.92739e-23)
(1.08419 0.608854 1.62576e-21)
(1.09979 0.596874 -4.27604e-23)
(1.10427 0.579798 1.59291e-21)
(1.1049 0.564579 -4.26205e-21)
(1.09221 0.54274 -2.0162e-22)
(1.07694 0.524831 1.36818e-21)
(1.05069 0.49973 -5.30456e-22)
(1.02301 0.476447 -9.41353e-22)
(1.0685 -0.339176 -8.39432e-23)
(1.06385 -0.340106 -1.70874e-22)
(1.05542 -0.347393 -3.24518e-22)
(1.04624 -0.351273 1.56541e-21)
(1.03189 -0.362282 -1.3253e-21)
(1.01511 -0.369351 1.38311e-21)
(0.990378 -0.382348 -2.05819e-21)
(0.964018 -0.390652 1.16654e-21)
(0.92771 -0.403716 -7.09511e-22)
(0.886684 -0.41399 1.09896e-21)
(1.0008 -0.333872 3.01998e-23)
(0.994565 -0.334477 -7.54618e-23)
(0.985759 -0.338108 2.43283e-23)
(0.974194 -0.337894 1.75865e-22)
(0.95963 -0.340443 -3.00155e-22)
(0.941784 -0.339681 2.34819e-22)
(0.921221 -0.340561 -2.17141e-22)
(0.898345 -0.338883 4.11968e-22)
(0.872569 -0.337634 5.59684e-23)
(0.845864 -0.334484 -3.01629e-22)
(1.20258 -0.361367 0)
(1.12362 -0.255007 0)
(1.00138 -0.203964 0)
(0.967389 -0.158989 0)
(0.980781 -0.129902 0)
(0.997662 -0.10213 0)
(1.0166 -0.0792793 0)
(1.02321 -0.0622619 0)
(1.02738 -0.0434084 0)
(1.02963 -0.0303984 0)
(1.02853 -0.0193786 0)
(1.02792 -0.0110863 0)
(1.02838 -0.00716729 0)
(1.02805 -0.00444848 0)
(1.02746 -0.00349056 0)
(1.02616 -0.00220944 0)
(1.02484 -0.00145686 0)
(1.02343 -0.000833816 0)
(1.02231 -0.000669427 0)
(1.02128 -0.000723152 0)
(1.02037 -0.000831041 0)
(1.01959 -0.000972725 0)
(1.01888 -0.00101647 0)
(1.0183 -0.000946754 0)
(1.0178 -0.000904901 0)
(1.01735 -0.000701783 0)
(1.01697 -0.000435897 0)
(1.01677 -0.00020836 0)
(1.41871 -0.430266 0)
(1.4119 -0.393532 0)
(1.37976 -0.342566 0)
(1.24656 -0.279026 0)
(1.1299 -0.255836 0)
(1.06916 -0.182818 0)
(1.07146 -0.151406 0)
(1.06449 -0.0901633 0)
(1.05861 -0.0700662 0)
(1.05182 -0.040015 0)
(1.0489 -0.0323539 0)
(1.03684 -0.0232854 0)
(1.0318 -0.0216287 0)
(1.02342 -0.0201605 0)
(1.01728 -0.0170982 0)
(1.01452 -0.0141391 0)
(1.01384 -0.0103455 0)
(1.01443 -0.00769031 0)
(1.01502 -0.00548588 0)
(1.01574 -0.00402554 0)
(1.01634 -0.00291342 0)
(1.01681 -0.00213664 0)
(1.01709 -0.00166923 0)
(1.0171 -0.00136802 0)
(1.01698 -0.00124416 0)
(1.01675 -0.00109253 0)
(1.01647 -0.000994768 0)
(1.01617 -0.00077563 0)
(1.01588 -0.000480586 0)
(1.01572 -0.000222391 0)
(1.49185 -0.159276 0)
(1.44258 -0.174643 0)
(1.35117 -0.154004 0)
(1.23314 -0.172504 0)
(1.1542 -0.154643 0)
(1.12625 -0.13912 0)
(1.11753 -0.0970399 0)
(1.11264 -0.0902804 0)
(1.08158 -0.0649808 0)
(1.06771 -0.0543253 0)
(1.04441 -0.0393049 0)
(1.04078 -0.0291311 0)
(1.03141 -0.0209314 0)
(1.03207 -0.0142375 0)
(1.03364 -0.0113196 0)
(1.03394 -0.00826532 0)
(1.03312 -0.00652905 0)
(1.03087 -0.00458308 0)
(1.02833 -0.00323259 0)
(1.02575 -0.00227959 0)
(1.02371 -0.00182766 0)
(1.02207 -0.00171252 0)
(1.02079 -0.0016142 0)
(1.01985 -0.00157714 0)
(1.01908 -0.00148287 0)
(1.01851 -0.00128984 0)
(1.01804 -0.00115614 0)
(1.01762 -0.000878216 0)
(1.01727 -0.000541907 0)
(1.01708 -0.000243426 0)
(1.54362 -0.0040206 0)
(1.4853 -0.0206895 0)
(1.39163 -0.0454044 0)
(1.28568 -0.0633552 0)
(1.20633 -0.0337935 0)
(1.19478 -0.0323341 0)
(1.14335 0.0107141 0)
(1.12463 -0.00318708 0)
(1.10798 0.0193976 0)
(1.09294 0.00932413 0)
(1.08002 0.0131813 0)
(1.05897 0.00505825 0)
(1.04778 0.00265794 0)
(1.03334 -0.00095857 0)
(1.02322 -0.00119001 0)
(1.01813 -0.00179384 0)
(1.01578 -0.00158499 0)
(1.01546 -0.00182763 0)
(1.01541 -0.00187176 0)
(1.01581 -0.00177165 0)
(1.01624 -0.00159827 0)
(1.0166 -0.00137534 0)
(1.01687 -0.00133541 0)
(1.01689 -0.00130553 0)
(1.01681 -0.00132068 0)
(1.01667 -0.00124146 0)
(1.01647 -0.00113811 0)
(1.01626 -0.000894899 0)
(1.01604 -0.000561796 0)
(1.01592 -0.00024687 0)
(1.34365 0.145848 0)
(1.29558 0.136803 0)
(1.27808 0.0386235 0)
(1.25302 0.0373895 0)
(1.23538 0.00558776 0)
(1.21196 0.00697933 0)
(1.17912 -0.0213852 0)
(1.12821 -0.00526531 0)
(1.09938 -0.0217263 0)
(1.05813 -0.0124089 0)
(1.03676 -0.0159858 0)
(1.02904 -0.0126413 0)
(1.02223 -0.0123292 0)
(1.02603 -0.0116349 0)
(1.03089 -0.0114721 0)
(1.03268 -0.00960865 0)
(1.0331 -0.00787725 0)
(1.03101 -0.00592366 0)
(1.0285 -0.00440151 0)
(1.0258 -0.00348483 0)
(1.02356 -0.00286169 0)
(1.02189 -0.00260787 0)
(1.02062 -0.00231675 0)
(1.01976 -0.00209622 0)
(1.01911 -0.00189518 0)
(1.01862 -0.0015986 0)
(1.01824 -0.0013844 0)
(1.0179 -0.00105113 0)
(1.0176 -0.000647291 0)
(1.01744 -0.000275049 0)
(1.24489 0.358218 0)
(1.19949 0.352634 0)
(1.19486 0.265009 0)
(1.16055 0.256529 0)
(1.15712 0.195778 0)
(1.10678 0.180288 0)
(1.13498 0.121724 0)
(1.10424 0.125351 0)
(1.1133 0.077132 0)
(1.09672 0.0675446 0)
(1.08473 0.0492007 0)
(1.0654 0.0371493 0)
(1.0525 0.0298878 0)
(1.03871 0.0238835 0)
(1.02786 0.0193577 0)
(1.0229 0.0145294 0)
(1.01942 0.00990456 0)
(1.01826 0.00630931 0)
(1.01763 0.00340655 0)
(1.01741 0.00180141 0)
(1.01744 0.000617817 0)
(1.01739 -6.20092e-05 0)
(1.01737 -0.000659723 0)
(1.01723 -0.00105581 0)
(1.01704 -0.00127128 0)
(1.01687 -0.0013011 0)
(1.01668 -0.00122742 0)
(1.01649 -0.000977149 0)
(1.01629 -0.00062199 0)
(1.01619 -0.000262818 0)
(1.11078 0.257264 0)
(1.02753 0.221077 0)
(1.07585 0.185099 0)
(1.05004 0.156645 0)
(1.11271 0.123734 0)
(1.04799 0.0955099 0)
(1.08585 0.0640492 0)
(1.03671 0.0629608 0)
(1.01726 0.0343216 0)
(1.00385 0.0336305 0)
(0.998761 0.0157499 0)
(0.997178 0.00834737 0)
(1.00244 0.00106475 0)
(1.00981 -0.00603063 0)
(1.01861 -0.0076527 0)
(1.02311 -0.00832639 0)
(1.02589 -0.0066416 0)
(1.02601 -0.00561725 0)
(1.02497 -0.00433975 0)
(1.02359 -0.00380706 0)
(1.02217 -0.00323741 0)
(1.02114 -0.00289658 0)
(1.02033 -0.00252764 0)
(1.01975 -0.0021914 0)
(1.01932 -0.00197711 0)
(1.01893 -0.00168123 0)
(1.0186 -0.0014475 0)
(1.0183 -0.00111427 0)
(1.01801 -0.000691905 0)
(1.01787 -0.000284437 0)
(1.03739 0.253445 0)
(1.01572 0.225222 0)
(1.06675 0.189784 0)
(1.01299 0.177429 0)
(1.04123 0.151951 0)
(0.990662 0.135187 0)
(1.07495 0.0950188 0)
(1.05949 0.0773245 0)
(1.07113 0.049687 0)
(1.0646 0.0479097 0)
(1.05655 0.0338404 0)
(1.04997 0.0384824 0)
(1.04183 0.0331088 0)
(1.03422 0.0349371 0)
(1.02826 0.0285587 0)
(1.02507 0.0236932 0)
(1.02238 0.0164952 0)
(1.02082 0.0116063 0)
(1.01988 0.00722318 0)
(1.0191 0.00454495 0)
(1.01855 0.00242765 0)
(1.01802 0.000992268 0)
(1.01763 -7.53465e-05 0)
(1.01736 -0.000794276 0)
(1.01711 -0.00115727 0)
(1.01698 -0.00125471 0)
(1.01686 -0.00121801 0)
(1.01674 -0.00098245 0)
(1.0166 -0.000632796 0)
(1.01653 -0.000263453 0)
(0.857519 0.287496 0)
(0.90883 0.241393 0)
(1.00895 0.203821 0)
(1.00538 0.160145 0)
(1.03563 0.154662 0)
(0.9681 0.145856 0)
(0.984 0.157584 0)
(0.967425 0.136652 0)
(0.971212 0.117451 0)
(0.978921 0.0809358 0)
(0.983022 0.058623 0)
(0.985573 0.029488 0)
(0.992169 0.0163579 0)
(0.998385 0.00165948 0)
(1.00392 -0.000731538 0)
(1.00894 -0.00369615 0)
(1.01297 -0.00273019 0)
(1.01585 -0.00305756 0)
(1.01739 -0.00266665 0)
(1.01837 -0.00275182 0)
(1.01873 -0.00250553 0)
(1.01899 -0.00228233 0)
(1.01911 -0.00208045 0)
(1.01909 -0.00184774 0)
(1.01905 -0.0017575 0)
(1.01892 -0.00157893 0)
(1.01877 -0.00139132 0)
(1.01861 -0.00110216 0)
(1.01841 -0.000696447 0)
(1.01832 -0.000280827 0)
(0.682365 0.265761 0)
(0.695319 0.231827 0)
(0.771113 0.203202 0)
(0.836446 0.151134 0)
(0.955068 0.1112 0)
(0.976918 0.0481151 0)
(1.01992 0.0147019 0)
(0.981954 -0.0113741 0)
(0.96177 -0.0115295 0)
(0.972997 -0.0035585 0)
(0.980029 -0.00160496 0)
(0.998717 0.011148 0)
(1.00868 0.0123698 0)
(1.01559 0.0191217 0)
(1.02157 0.0160248 0)
(1.02305 0.0151477 0)
(1.02321 0.0109294 0)
(1.02204 0.00846133 0)
(1.02111 0.00554877 0)
(1.01986 0.00356066 0)
(1.0189 0.00179224 0)
(1.01809 0.000439116 0)
(1.0175 -0.000458162 0)
(1.01722 -0.00107172 0)
(1.01705 -0.00135705 0)
(1.017 -0.00137983 0)
(1.017 -0.00131626 0)
(1.01697 -0.00106118 0)
(1.0169 -0.000682387 0)
(1.01687 -0.000277199 0)
(0.813763 0.18595 0)
(0.808608 0.222724 0)
(0.831616 0.257523 0)
(0.85416 0.3026 0)
(0.809325 0.309048 0)
(0.752191 0.282231 0)
(0.833995 0.217985 0)
(0.902765 0.147595 0)
(0.963322 0.105364 0)
(0.977641 0.0695412 0)
(0.9967 0.0424199 0)
(0.998527 0.0243694 0)
(1.0037 0.0137629 0)
(1.00503 0.00622357 0)
(1.00209 0.0051948 0)
(1.00412 0.00302054 0)
(1.0059 0.0025704 0)
(1.00973 0.00123954 0)
(1.01259 0.000480209 0)
(1.01522 -0.00022766 0)
(1.01697 -0.000685151 0)
(1.0181 -0.000907122 0)
(1.01881 -0.00120328 0)
(1.01911 -0.00134737 0)
(1.01922 -0.00149141 0)
(1.01923 -0.00150325 0)
(1.01915 -0.00139219 0)
(1.01905 -0.00113509 0)
(1.0189 -0.000732776 0)
(1.01883 -0.000289482 0)
(0.840596 -0.387205 0)
(0.887997 -0.362054 0)
(0.920243 -0.313551 0)
(0.951529 -0.281305 0)
(0.917512 -0.243442 0)
(0.825092 -0.213503 0)
(0.760042 -0.131744 0)
(0.79538 -0.0873311 0)
(0.842896 -0.0594488 0)
(0.889653 -0.0630794 0)
(0.915106 -0.0419735 0)
(0.954453 -0.0425239 0)
(0.977339 -0.0291935 0)
(0.997534 -0.0231383 0)
(1.0137 -0.0160055 0)
(1.01922 -0.0105932 0)
(1.02186 -0.00633127 0)
(1.02091 -0.003716 0)
(1.01986 -0.00230299 0)
(1.01856 -0.00196178 0)
(1.01764 -0.00185195 0)
(1.01713 -0.00202769 0)
(1.01681 -0.0020248 0)
(1.01681 -0.00202755 0)
(1.01692 -0.00200195 0)
(1.01704 -0.00181609 0)
(1.0172 -0.00162686 0)
(1.01728 -0.00129048 0)
(1.01728 -0.000820565 0)
(1.01729 -0.000320852 0)
(0.919006 -0.71498 0)
(0.944548 -0.682907 0)
(0.991335 -0.681108 0)
(1.01481 -0.666634 0)
(1.04486 -0.631942 0)
(1.03103 -0.547878 0)
(1.01962 -0.40806 0)
(1.02459 -0.271165 0)
(1.01456 -0.187095 0)
(1.02151 -0.109532 0)
(1.04241 -0.071414 0)
(1.03719 -0.0285873 0)
(1.04402 -0.0128305 0)
(1.03232 0.00363652 0)
(1.02235 0.00689214 0)
(1.01645 0.0089815 0)
(1.0136 0.00715761 0)
(1.01398 0.00593068 0)
(1.01533 0.00401527 0)
(1.0168 0.00272663 0)
(1.01801 0.00125494 0)
(1.01864 0.000223331 0)
(1.01907 -0.000745073 0)
(1.01926 -0.00139207 0)
(1.01935 -0.00173683 0)
(1.01946 -0.00184297 0)
(1.01952 -0.00173258 0)
(1.01955 -0.00140607 0)
(1.01951 -0.000912467 0)
(1.0195 -0.000350564 0)
(0.887974 -0.601332 0)
(0.988484 -0.54931 0)
(1.09339 -0.526795 0)
(1.19085 -0.456115 0)
(1.28218 -0.414385 0)
(1.30901 -0.32923 0)
(1.30658 -0.272045 0)
(1.22692 -0.198451 0)
(1.15483 -0.170489 0)
(1.0699 -0.118215 0)
(1.03536 -0.0997519 0)
(1.02845 -0.0730005 0)
(1.01538 -0.0571633 0)
(1.01917 -0.047061 0)
(1.01895 -0.036233 0)
(1.01831 -0.027983 0)
(1.01682 -0.0200601 0)
(1.01501 -0.01478 0)
(1.0137 -0.0105573 0)
(1.01342 -0.00810065 0)
(1.01362 -0.00615443 0)
(1.01435 -0.00498201 0)
(1.01507 -0.00415356 0)
(1.01576 -0.00354221 0)
(1.01641 -0.00320988 0)
(1.0169 -0.00280489 0)
(1.01731 -0.00239565 0)
(1.0176 -0.00186626 0)
(1.01772 -0.00117485 0)
(1.01781 -0.000441757 0)
(1.14496 -0.129913 0)
(1.23699 -0.0971088 0)
(1.31686 -0.0417317 0)
(1.38507 -0.0136576 0)
(1.40429 0.0160181 0)
(1.41366 0.0118059 0)
(1.34292 0.0166639 0)
(1.28978 -0.00739032 0)
(1.2153 -0.00370206 0)
(1.18261 -0.0213692 0)
(1.13423 0.011668 0)
(1.11475 0.00195393 0)
(1.086 0.0158647 0)
(1.06478 0.0188717 0)
(1.04958 0.018508 0)
(1.0404 0.016741 0)
(1.03368 0.0124557 0)
(1.02931 0.00941105 0)
(1.02643 0.00576526 0)
(1.02405 0.00322898 0)
(1.02254 0.000815794 0)
(1.02136 -0.000947706 0)
(1.02062 -0.00214207 0)
(1.02031 -0.0029036 0)
(1.02016 -0.00315243 0)
(1.02022 -0.0030471 0)
(1.02034 -0.00273178 0)
(1.02042 -0.00214378 0)
(1.02045 -0.00136616 0)
(1.02047 -0.000510297 0)
(1.31327 0.231043 0)
(1.3557 0.227327 0)
(1.39282 0.234461 0)
(1.39653 0.219166 0)
(1.3865 0.212797 0)
(1.34444 0.167974 0)
(1.26028 0.163863 0)
(1.21715 0.108465 0)
(1.13612 0.114567 0)
(1.13179 0.0655714 0)
(1.09566 0.061587 0)
(1.05835 0.0307602 0)
(1.04961 0.0188476 0)
(1.02859 -0.00155705 0)
(1.01538 -0.00592514 0)
(1.00663 -0.0114236 0)
(1.00278 -0.0104346 0)
(1.00273 -0.0101663 0)
(1.00414 -0.00856168 0)
(1.00684 -0.00747099 0)
(1.00945 -0.00645985 0)
(1.01179 -0.00568887 0)
(1.01377 -0.0053283 0)
(1.01519 -0.00491664 0)
(1.01635 -0.00459237 0)
(1.01724 -0.00412326 0)
(1.01788 -0.00349681 0)
(1.01834 -0.0026943 0)
(1.01858 -0.00169529 0)
(1.01872 -0.000619399 0)
(1.18796 0.282138 0)
(1.22125 0.281893 0)
(1.24938 0.237131 0)
(1.25363 0.215394 0)
(1.27367 0.163062 0)
(1.2134 0.140419 0)
(1.20551 0.0888945 0)
(1.15561 0.0905966 0)
(1.11084 0.0604519 0)
(1.06539 0.0741387 0)
(1.054 0.0338855 0)
(1.03878 0.0517518 0)
(1.02835 0.0306034 0)
(1.03116 0.0330047 0)
(1.03861 0.0200546 0)
(1.04064 0.0152741 0)
(1.03951 0.00752066 0)
(1.03505 0.00308242 0)
(1.03047 -0.000671733 0)
(1.02629 -0.00306161 0)
(1.02343 -0.00461748 0)
(1.0218 -0.00567758 0)
(1.0209 -0.00600066 0)
(1.02071 -0.00599405 0)
(1.02084 -0.00569387 0)
(1.0211 -0.00504091 0)
(1.02144 -0.00426587 0)
(1.02171 -0.00324975 0)
(1.02185 -0.00203438 0)
(1.02194 -0.000738312 0)
(1.17425 0.601772 0)
(1.18038 0.598841 0)
(1.16316 0.545018 0)
(1.14563 0.547481 0)
(1.12592 0.473968 0)
(1.10124 0.466334 0)
(1.13286 0.378637 0)
(1.1009 0.365 0)
(1.13328 0.284831 0)
(1.04653 0.258767 0)
(1.08789 0.1798 0)
(1.03957 0.142315 0)
(1.03052 0.0963523 0)
(1.00795 0.0661493 0)
(0.990581 0.045343 0)
(0.986833 0.0281986 0)
(0.987339 0.0172471 0)
(0.993037 0.0090032 0)
(0.998649 0.00325025 0)
(1.00386 -0.000518065 0)
(1.00803 -0.00331907 0)
(1.011 -0.0048774 0)
(1.01347 -0.00594962 0)
(1.01534 -0.00635939 0)
(1.01679 -0.00621485 0)
(1.018 -0.00569222 0)
(1.01891 -0.00484185 0)
(1.01957 -0.00369717 0)
(1.01997 -0.00232595 0)
(1.02018 -0.000833849 0)
(1.04369 0.547223 0)
(1.03655 0.522931 0)
(1.03502 0.485875 0)
(1.0114 0.467193 0)
(0.987207 0.419077 0)
(0.932015 0.378732 0)
(0.935496 0.323636 0)
(0.84392 0.256785 0)
(0.840784 0.183698 0)
(0.760573 0.117653 0)
(0.790976 0.066036 0)
(0.830642 0.0277235 0)
(0.873238 0.0058127 0)
(0.919867 -0.0116057 0)
(0.96258 -0.0196128 0)
(0.987316 -0.0226321 0)
(1.00307 -0.021015 0)
(1.01054 -0.0195929 0)
(1.01411 -0.016785 0)
(1.01625 -0.0151909 0)
(1.01752 -0.0133637 0)
(1.01887 -0.0120824 0)
(1.02 -0.0108941 0)
(1.02096 -0.00964245 0)
(1.02189 -0.00855617 0)
(1.0226 -0.00729021 0)
(1.02318 -0.00594802 0)
(1.0236 -0.00445318 0)
(1.02381 -0.00276146 0)
(1.02394 -0.000978156 0)
(0.942852 0.268839 0)
(0.936585 0.241427 0)
(0.939878 0.215617 0)
(0.915992 0.184487 0)
(0.898907 0.150491 0)
(0.83019 0.110886 0)
(0.813944 0.0715286 0)
(0.757001 0.0327756 0)
(0.773779 -0.0030518 0)
(0.800756 -0.0231465 0)
(0.8801 -0.0192391 0)
(0.930917 0.000846384 0)
(0.965514 0.00493732 0)
(0.975362 0.0246783 0)
(0.985445 0.0200464 0)
(0.993122 0.0198355 0)
(0.999037 0.0113062 0)
(1.00327 0.00569935 0)
(1.00701 -0.000397825 0)
(1.00942 -0.00405814 0)
(1.01171 -0.00677564 0)
(1.01369 -0.00833179 0)
(1.01545 -0.00892728 0)
(1.0172 -0.00900064 0)
(1.01865 -0.00845887 0)
(1.01992 -0.00746879 0)
(1.02097 -0.00623165 0)
(1.02173 -0.00468874 0)
(1.0222 -0.00292664 0)
(1.02246 -0.00103464 0)
(0.821527 0.0411966 0)
(0.820617 0.0118024 0)
(0.811221 -0.0198629 0)
(0.773555 -0.057801 0)
(0.7471 -0.0921636 0)
(0.699543 -0.12587 0)
(0.687859 -0.142442 0)
(0.668286 -0.151878 0)
(0.69406 -0.145054 0)
(0.744296 -0.123726 0)
(0.850317 -0.102355 0)
(0.889614 -0.0922449 0)
(0.923608 -0.0793724 0)
(0.943315 -0.0759199 0)
(0.955301 -0.0617258 0)
(0.969486 -0.051193 0)
(0.981688 -0.0393151 0)
(0.993 -0.0312268 0)
(1.00152 -0.0248609 0)
(1.00838 -0.0208212 0)
(1.0133 -0.0180109 0)
(1.01685 -0.0157078 0)
(1.01966 -0.0140482 0)
(1.02167 -0.0123724 0)
(1.02325 -0.0107734 0)
(1.02449 -0.00913517 0)
(1.02537 -0.00736332 0)
(1.02602 -0.005455 0)
(1.02638 -0.00337213 0)
(1.02658 -0.00117528 0)
(0.699763 -0.645047 0)
(0.677715 -0.658648 0)
(0.662463 -0.657117 0)
(0.642771 -0.658838 0)
(0.644707 -0.640272 0)
(0.65793 -0.614719 0)
(0.700513 -0.555631 0)
(0.754347 -0.492322 0)
(0.830069 -0.40346 0)
(0.901882 -0.315875 0)
(0.953315 -0.228331 0)
(0.998943 -0.171805 0)
(0.990624 -0.116791 0)
(1.01 -0.0816093 0)
(1.02425 -0.0597474 0)
(1.02836 -0.043147 0)
(1.02709 -0.0343996 0)
(1.02264 -0.0275971 0)
(1.01944 -0.0239148 0)
(1.01748 -0.0211296 0)
(1.01702 -0.0187594 0)
(1.01786 -0.017072 0)
(1.01892 -0.0153033 0)
(1.02024 -0.0135721 0)
(1.02161 -0.0119161 0)
(1.02278 -0.0100318 0)
(1.02382 -0.0080848 0)
(1.02459 -0.00598141 0)
(1.02505 -0.00368686 0)
(1.02532 -0.00128342 0)
(0.763741 -0.541928 0)
(0.779611 -0.500782 0)
(0.811105 -0.455224 0)
(0.856378 -0.399412 0)
(0.915918 -0.339717 0)
(0.978895 -0.275396 0)
(1.04693 -0.210192 0)
(1.10096 -0.152341 0)
(1.15228 -0.0935416 0)
(1.21341 -0.0651464 0)
(1.18352 -0.0172435 0)
(1.1665 -0.0281611 0)
(1.13145 -0.008525 0)
(1.07716 -0.00557961 0)
(1.04262 -0.00164566 0)
(1.0254 -0.00396543 0)
(1.01576 -0.00681976 0)
(1.01459 -0.0102208 0)
(1.01581 -0.0134881 0)
(1.01778 -0.0148782 0)
(1.02035 -0.0161775 0)
(1.0223 -0.0161601 0)
(1.02409 -0.0154796 0)
(1.02577 -0.0144274 0)
(1.02705 -0.0128238 0)
(1.02817 -0.0109327 0)
(1.02904 -0.00884271 0)
(1.02964 -0.00652352 0)
(1.03 -0.00402342 0)
(1.03019 -0.0013937 0)
(1.04793 -0.11142 0)
(1.07256 -0.0808159 0)
(1.0978 -0.0497127 0)
(1.11682 -0.0164879 0)
(1.13346 0.0114347 0)
(1.1407 0.0366985 0)
(1.14194 0.0516362 0)
(1.13122 0.0612428 0)
(1.10397 0.0610668 0)
(1.10487 0.0402444 0)
(1.02569 0.0336021 0)
(1.00362 -9.97929e-05 0)
(1.01093 -0.0268973 0)
(1.00316 -0.043501 0)
(1.00692 -0.0522593 0)
(1.00519 -0.0525826 0)
(1.00538 -0.0477342 0)
(1.00653 -0.0435292 0)
(1.008 -0.0370979 0)
(1.01143 -0.0327797 0)
(1.01463 -0.0286998 0)
(1.01752 -0.024877 0)
(1.02036 -0.0218785 0)
(1.02259 -0.0188515 0)
(1.02452 -0.0160367 0)
(1.0261 -0.0132893 0)
(1.02729 -0.0104948 0)
(1.02818 -0.00765509 0)
(1.0287 -0.00468065 0)
(1.02898 -0.00161062 0)
(1.13791 0.178107 0)
(1.14856 0.193757 0)
(1.16249 0.204097 0)
(1.17024 0.206572 0)
(1.17641 0.210048 0)
(1.17361 0.203384 0)
(1.1641 0.196726 0)
(1.1478 0.185117 0)
(1.14326 0.165557 0)
(1.14593 0.135866 0)
(1.105 0.116699 0)
(1.03258 0.106343 0)
(1.04932 0.0693101 0)
(1.03531 0.0619252 0)
(1.04323 0.0275592 0)
(1.0433 0.0140211 0)
(1.04278 -0.00432213 0)
(1.0385 -0.0129223 0)
(1.03549 -0.0193045 0)
(1.0332 -0.022637 0)
(1.0318 -0.0233656 0)
(1.03177 -0.0232074 0)
(1.03197 -0.0218161 0)
(1.03244 -0.0196536 0)
(1.03311 -0.0172318 0)
(1.03368 -0.0144201 0)
(1.03422 -0.0114849 0)
(1.03462 -0.0084018 0)
(1.03482 -0.00513965 0)
(1.03494 -0.00177006 0)
(1.11717 0.74137 0)
(1.10184 0.728231 0)
(1.08421 0.711842 0)
(1.06517 0.685872 0)
(1.04395 0.650153 0)
(1.02307 0.604656 0)
(1.00064 0.553275 0)
(0.97537 0.482894 0)
(0.963682 0.4126 0)
(0.943908 0.297288 0)
(0.999002 0.216664 0)
(0.913531 0.114619 0)
(0.952858 0.0652877 0)
(0.931422 0.0171547 0)
(0.928464 0.000741381 0)
(0.943871 -0.0162858 0)
(0.96076 -0.0260649 0)
(0.97863 -0.029933 0)
(0.994136 -0.0331699 0)
(1.0052 -0.0323219 0)
(1.01379 -0.0308862 0)
(1.01994 -0.0286198 0)
(1.0243 -0.0257393 0)
(1.0276 -0.022777 0)
(1.02987 -0.019574 0)
(1.03152 -0.0162152 0)
(1.0327 -0.012824 0)
(1.03346 -0.00931141 0)
(1.0339 -0.00568085 0)
(1.03412 -0.00194952 0)
(0.9914 0.451225 0)
(0.959623 0.413027 0)
(0.919356 0.374857 0)
(0.874373 0.325421 0)
(0.816498 0.275374 0)
(0.754793 0.209889 0)
(0.685702 0.147795 0)
(0.602105 0.0639461 0)
(0.508252 -0.00617622 0)
(0.410183 -0.0999311 0)
(0.454654 -0.14279 0)
(0.547949 -0.195015 0)
(0.711573 -0.190591 0)
(0.842056 -0.19038 0)
(0.928288 -0.158149 0)
(0.978533 -0.132357 0)
(1.00453 -0.103927 0)
(1.02024 -0.0833539 0)
(1.02817 -0.0672144 0)
(1.03286 -0.0551037 0)
(1.03572 -0.0462504 0)
(1.03729 -0.0387056 0)
(1.03856 -0.032651 0)
(1.03945 -0.0274246 0)
(1.04009 -0.0227485 0)
(1.04059 -0.0184609 0)
(1.0409 -0.0143645 0)
(1.04109 -0.0103417 0)
(1.04113 -0.00627932 0)
(1.04116 -0.00214352 0)
(0.842955 -0.426123 0)
(0.798634 -0.445242 0)
(0.745665 -0.461978 0)
(0.691482 -0.477929 0)
(0.631771 -0.486944 0)
(0.57021 -0.494711 0)
(0.518491 -0.492242 0)
(0.488073 -0.482457 0)
(0.499096 -0.446016 0)
(0.587384 -0.390771 0)
(0.709468 -0.296467 0)
(0.858866 -0.228878 0)
(0.969599 -0.166755 0)
(1.02707 -0.119841 0)
(1.05362 -0.0956385 0)
(1.05637 -0.0773721 0)
(1.0529 -0.0659036 0)
(1.04742 -0.0571376 0)
(1.04288 -0.0498968 0)
(1.04038 -0.0444406 0)
(1.03909 -0.0394277 0)
(1.03876 -0.034791 0)
(1.03894 -0.0305458 0)
(1.03928 -0.0263394 0)
(1.03975 -0.0223114 0)
(1.0402 -0.0183135 0)
(1.04056 -0.0143504 0)
(1.04081 -0.0103793 0)
(1.0409 -0.00631355 0)
(1.04095 -0.00215446 0)
(0.820321 -0.330896 0)
(0.79516 -0.326604 0)
(0.769615 -0.31812 0)
(0.747907 -0.306704 0)
(0.731844 -0.290554 0)
(0.725616 -0.27021 0)
(0.733749 -0.242751 0)
(0.759773 -0.211317 0)
(0.80572 -0.168574 0)
(0.870707 -0.135053 0)
(0.917267 -0.0882537 0)
(0.974788 -0.0730613 0)
(1.03794 -0.054889 0)
(1.04745 -0.0466915 0)
(1.05403 -0.0483758 0)
(1.05522 -0.0476069 0)
(1.05466 -0.0501909 0)