/*--------------------------------*- C++ -*----------------------------------*\
| =========                 |                                                 |
| \\      /  F ield         | OpenFOAM: The Open Source CFD Toolbox           |
|  \\    /   O peration     | Version:                                        |
|   \\  /    A nd           | Website:  www.openfoam.com                      |
|    \\/     M anipulation  |                                                 |
\*---------------------------------------------------------------------------*/
FoamFile
{
    version     2.0;
    format      ascii;
    class       volVectorField;
    location    "82.5";
    object      U;
}
// * * * * * * * * * * * * * * * * * * * * * * * * * * * * * * * * * * * * * //

dimensions      [0 1 -1 0 0 0 0];


internalField   nonuniform List<vector> 
1164
(
(0.567719 0.840265 2.79562e-22)
(0.669083 0.881845 -6.19879e-21)
(0.792912 0.876469 1.54742e-20)
(0.940063 0.845799 -1.4965e-20)
(1.09095 0.766267 2.81463e-20)
(1.22568 0.6748 1.62518e-19)
(0.614386 0.858228 -6.57326e-22)
(0.674427 0.876105 1.53034e-20)
(0.749668 0.881212 -1.2994e-20)
(0.84526 0.854022 -2.58185e-20)
(0.93822 0.80513 -1.18673e-20)
(1.04312 0.730035 -3.97641e-20)
(1.13822 0.625837 1.9916e-20)
(1.22765 0.533941 -6.38786e-21)
(1.30397 0.40874 4.82459e-20)
(1.29367 0.284276 -3.38523e-20)
(0.616148 0.847828 1.60084e-21)
(0.647233 0.812981 -3.77112e-21)
(0.687838 0.80907 2.05044e-21)
(0.760411 0.769225 4.92333e-21)
(0.82534 0.739882 4.13719e-21)
(0.915559 0.694307 -3.90495e-20)
(0.99694 0.638048 -1.95611e-20)
(1.07853 0.577883 -2.11383e-21)
(1.14847 0.499475 -1.68221e-20)
(1.16822 0.40152 2.05426e-20)
(0.54106 0.839043 1.95549e-22)
(0.555177 0.768843 2.28964e-21)
(0.586287 0.734043 -1.62821e-21)
(0.646294 0.682234 5.61017e-21)
(0.712811 0.631951 1.42744e-20)
(0.79178 0.588692 2.98096e-20)
(0.859159 0.545494 1.18024e-20)
(0.924038 0.510152 8.94266e-21)
(0.982074 0.480188 -6.18335e-21)
(0.994971 0.443088 -8.78306e-21)
(0.425918 0.703009 -2.45802e-21)
(0.411369 0.648406 -2.69918e-22)
(0.43583 0.602225 -8.37574e-21)
(0.484707 0.566622 -1.87983e-21)
(0.548648 0.519466 -4.6824e-21)
(0.643786 0.479246 -1.20367e-20)
(0.744215 0.433825 4.22468e-21)
(0.831083 0.390141 7.73651e-22)
(0.923877 0.359098 4.9116e-21)
(0.964194 0.343111 -8.7486e-22)
(0.339914 0.419205 1.28252e-21)
(0.310726 0.408531 -8.26575e-21)
(0.330156 0.395206 -1.65078e-21)
(0.386631 0.393151 1.17066e-21)
(0.439394 0.374315 -6.00188e-21)
(0.506121 0.361152 -3.31965e-22)
(0.566922 0.335602 3.49983e-21)
(0.622928 0.294007 3.12135e-21)
(0.704621 0.256993 6.09518e-23)
(0.764239 0.194339 8.60676e-23)
(0.396507 -0.038603 -6.08494e-22)
(0.340147 -0.00380611 9.66339e-21)
(0.325274 0.0431193 1.83182e-20)
(0.354008 0.0929945 -9.37963e-21)
(0.38597 0.14039 1.9691e-21)
(0.465776 0.19324 -5.42604e-22)
(0.535978 0.231555 -3.32006e-21)
(0.599201 0.257498 1.97699e-22)
(0.655694 0.277455 2.27797e-21)
(0.671822 0.24861 1.12086e-21)
(0.466787 -0.41464 2.02918e-21)
(0.432117 -0.374596 -3.34956e-22)
(0.447592 -0.310691 -1.37636e-21)
(0.466096 -0.264532 3.74396e-21)
(0.496132 -0.192068 3.29078e-21)
(0.553304 -0.114457 3.0687e-21)
(0.566562 -0.0402227 -1.99072e-21)
(0.62116 0.0462397 1.36149e-21)
(0.634578 0.121398 1.8078e-22)
(0.64484 0.191628 1.10382e-21)
(0.553515 -0.572078 -1.25816e-21)
(0.538868 -0.539663 -5.51312e-21)
(0.539028 -0.507535 4.36736e-22)
(0.549635 -0.474733 9.32728e-22)
(0.601922 -0.429547 5.69008e-21)
(0.639841 -0.385857 3.2805e-21)
(0.700251 -0.327631 1.85063e-21)
(0.764446 -0.250564 2.40477e-22)
(0.780312 -0.180567 -1.44378e-21)
(0.790586 -0.0577071 -6.79061e-22)
(0.606258 -0.770616 -3.6671e-22)
(0.578461 -0.761654 1.68649e-21)
(0.56959 -0.781149 -4.98357e-21)
(0.580525 -0.755928 9.00436e-21)
(0.589569 -0.763058 -1.72571e-20)
(0.61733 -0.70446 -5.33693e-21)
(0.683964 -0.687116 7.97908e-21)
(0.71377 -0.60419 4.33145e-21)
(0.785911 -0.562137 2.07561e-21)
(0.815394 -0.440793 -5.56905e-21)
(0.557357 -0.726064 4.18141e-22)
(0.549581 -0.73381 -1.99692e-22)
(0.598687 -0.779707 -6.73345e-21)
(0.609567 -0.79699 7.36523e-21)
(0.676162 -0.830472 1.58715e-20)
(0.717789 -0.832368 -9.97908e-21)
(0.77204 -0.850299 -1.01801e-20)
(0.831215 -0.805599 -1.4192e-20)
(0.903546 -0.784496 -1.15241e-20)
(0.916611 -0.709373 1.45743e-20)
(0.444614 -0.648486 -9.37521e-22)
(0.435018 -0.629951 5.88853e-21)
(0.471595 -0.657763 1.75855e-21)
(0.490327 -0.653754 -3.48033e-20)
(0.586328 -0.67466 1.87385e-21)
(0.631691 -0.708249 -1.85771e-20)
(0.783314 -0.699338 7.9694e-21)
(0.837316 -0.765679 -1.23227e-20)
(0.964719 -0.721276 -1.04326e-20)
(1.03865 -0.784034 -2.67042e-20)
(0.59813 -0.232235 1.13654e-21)
(0.618505 -0.18252 -3.36982e-21)
(0.658945 -0.185643 2.04039e-21)
(0.701254 -0.150791 2.50022e-20)
(0.773536 -0.154646 9.618e-21)
(0.840254 -0.153281 2.52655e-20)
(0.947309 -0.151431 3.28547e-21)
(0.996104 -0.224894 9.68484e-21)
(1.12228 -0.201421 2.24573e-20)
(1.13131 -0.342214 5.44496e-20)
(0.608168 0.126845 -1.21882e-21)
(0.634328 0.179177 5.20616e-21)
(0.68571 0.199045 9.28695e-21)
(0.76533 0.24247 -3.52168e-21)
(0.85255 0.265629 -2.2041e-20)
(0.959641 0.299178 1.16198e-20)
(1.05928 0.318599 6.53734e-21)
(1.15567 0.316988 -8.33798e-21)
(1.24103 0.337878 -7.84483e-21)
(1.28943 0.262645 -4.79973e-21)
(0.720369 0.40312 8.73135e-22)
(0.767477 0.415836 -4.65981e-21)
(0.801686 0.426349 -3.37701e-21)
(0.872653 0.426056 1.21818e-21)
(0.925802 0.424167 1.27714e-20)
(1.00838 0.415134 -7.76511e-21)
(1.06641 0.401531 -4.65977e-22)
(1.14931 0.380725 1.78197e-20)
(1.21022 0.365757 -1.35393e-20)
(1.27984 0.328409 -4.19955e-21)
(0.706647 0.712494 3.32594e-24)
(0.761521 0.696193 -5.5869e-23)
(0.794437 0.697978 -1.02745e-20)
(0.854485 0.677151 1.66143e-21)
(0.895917 0.661333 2.98612e-21)
(0.961043 0.63089 2.24766e-21)
(1.00454 0.591503 -1.19892e-20)
(1.063 0.552785 8.94628e-21)
(1.09742 0.496975 1.23148e-20)
(1.1526 0.451713 -1.80897e-20)
(0.664823 0.639845 1.88267e-22)
(0.693834 0.640807 -6.03138e-24)
(0.719348 0.639247 7.94796e-21)
(0.765146 0.644318 -6.84095e-21)
(0.801666 0.627435 -4.71848e-21)
(0.851542 0.632789 5.22242e-21)
(0.880643 0.599719 1.18354e-21)
(0.926656 0.604189 -6.31686e-21)
(0.957003 0.564876 1.60163e-21)
(1.00006 0.545096 -4.36673e-21)
(0.699672 0.508273 -2.58856e-22)
(0.717028 0.535631 -1.03117e-21)
(0.724925 0.538695 -1.30801e-21)
(0.749225 0.566511 1.58198e-21)
(0.76815 0.558021 -3.72142e-21)
(0.808913 0.578708 -7.1164e-21)
(0.84188 0.562155 -4.52893e-21)
(0.885123 0.573101 -2.03419e-21)
(0.917467 0.565434 -1.50264e-21)
(0.950826 0.554883 -2.4495e-21)
(0.802715 -0.00809169 -4.21762e-22)
(0.787281 0.0160232 2.94279e-21)
(0.764977 0.00724176 -2.5863e-22)
(0.760435 0.0395682 2.18898e-21)
(0.742075 0.0324019 -5.89826e-23)
(0.745309 0.0696103 -9.54429e-22)
(0.740569 0.0649742 5.61173e-21)
(0.745778 0.0998256 -5.64854e-22)
(0.762273 0.100299 -2.50118e-21)
(0.780063 0.138904 7.18923e-22)
(0.800367 -0.45785 3.35817e-22)
(0.773927 -0.451628 -1.14855e-21)
(0.753581 -0.454865 -2.9931e-21)
(0.739459 -0.441223 -2.6959e-21)
(0.725636 -0.448357 1.10413e-22)
(0.718935 -0.429517 6.5531e-21)
(0.714707 -0.43515 -6.77958e-21)
(0.718939 -0.407934 1.98424e-21)
(0.727912 -0.409323 5.04831e-21)
(0.737654 -0.370574 2.18121e-21)
(0.809597 -0.68425 1.70892e-22)
(0.777467 -0.689108 -3.37581e-22)
(0.759971 -0.67504 2.95634e-21)
(0.736028 -0.671905 4.18832e-21)
(0.733474 -0.653456 -3.03509e-21)
(0.726049 -0.644547 1.74778e-21)
(0.740072 -0.621858 4.18615e-21)
(0.74338 -0.609641 6.49284e-21)
(0.755701 -0.588056 -3.12382e-21)
(0.769175 -0.569963 -6.04018e-22)
(0.790995 -0.661454 5.63202e-23)
(0.782902 -0.659018 -1.05016e-22)
(0.785792 -0.637655 -1.33269e-21)
(0.780717 -0.634353 -6.15799e-21)
(0.788137 -0.60812 4.44374e-21)
(0.783188 -0.608676 -3.09793e-21)
(0.796319 -0.580014 -2.77876e-21)
(0.792316 -0.588176 -5.42482e-21)
(0.816404 -0.560483 -1.7784e-21)
(0.821287 -0.567443 2.26946e-21)
(0.891825 -0.0467933 3.54163e-22)
(0.903011 -0.0369355 -7.42404e-22)
(0.915508 -0.0303172 -4.92788e-22)
(0.926956 -0.0267764 6.95518e-21)
(0.9374 -0.0163086 -3.88117e-21)
(0.944641 -0.0198052 1.61036e-21)
(0.956138 -0.00485304 3.55025e-21)
(0.968441 -0.016508 -1.37892e-21)
(0.995228 0.00200082 -7.85611e-22)
(1.02056 -0.0235199 -8.45635e-21)
(0.897421 0.435805 -2.09e-23)
(0.918013 0.435154 1.08126e-22)
(0.93694 0.433324 -1.64906e-21)
(0.960172 0.426099 -3.80478e-22)
(0.979186 0.424591 -1.27795e-21)
(1.00246 0.414935 -4.24247e-21)
(1.02032 0.417564 2.73744e-21)
(1.04365 0.406616 -6.43828e-23)
(1.06032 0.409252 5.37861e-21)
(1.0775 0.388384 7.74405e-21)
(0.844686 0.727865 2.20857e-23)
(0.858775 0.715277 -1.2416e-21)
(0.868332 0.70714 1.48318e-21)
(0.887205 0.688466 -1.61531e-21)
(0.901842 0.67296 2.51309e-21)
(0.925943 0.648578 3.78218e-21)
(0.946521 0.630635 -4.15459e-21)
(0.972727 0.605641 -5.46465e-22)
(0.989006 0.58299 -1.55649e-21)
(1.00576 0.544632 -3.69731e-21)
(0.819548 0.449934 8.86872e-24)
(0.810826 0.446021 5.37014e-22)
(0.801448 0.443566 3.21409e-22)
(0.799274 0.441899 1.37198e-22)
(0.796758 0.437426 4.07702e-22)
(0.80202 0.436024 -1.72035e-21)
(0.804618 0.429226 1.27064e-22)
(0.812857 0.427623 -8.72379e-22)
(0.818493 0.421069 -3.84133e-24)
(0.828156 0.421865 7.79565e-23)
(0.853366 -0.515386 1.62651e-22)
(0.836628 -0.52134 -4.58458e-22)
(0.824495 -0.524762 1.80472e-23)
(0.809921 -0.527123 -1.14223e-21)
(0.8003 -0.527294 1.56572e-21)
(0.792507 -0.526142 3.79024e-22)
(0.789797 -0.52525 1.52339e-21)
(0.787924 -0.520258 3.10412e-22)
(0.793532 -0.513994 4.34122e-25)
(0.795484 -0.504968 1.14516e-21)
(0.759245 -0.596739 -1.96959e-22)
(0.752088 -0.606597 1.12104e-23)
(0.75025 -0.612768 7.75347e-22)
(0.747475 -0.623895 4.01111e-23)
(0.751214 -0.629406 6.7558e-22)
(0.754121 -0.640944 -1.95228e-21)
(0.76401 -0.644206 -9.87599e-23)
(0.771401 -0.657133 5.89012e-22)
(0.785506 -0.658015 -2.53218e-22)
(0.794901 -0.671168 -4.85062e-22)
(0.737877 0.0521762 -3.16219e-23)
(0.738127 0.043271 -7.42159e-23)
(0.740093 0.0384131 -1.53786e-22)
(0.745276 0.0300904 7.20804e-22)
(0.751924 0.0255856 -6.41274e-22)
(0.761301 0.0169985 6.82433e-22)
(0.77262 0.0126916 -1.02659e-21)
(0.786399 0.00290774 6.33793e-22)
(0.802595 -0.000778132 -4.50517e-22)
(0.819979 -0.0126865 6.59956e-22)
(0.679929 0.145636 1.29762e-23)
(0.682551 0.139571 -3.85448e-23)
(0.68646 0.136592 1.4381e-24)
(0.692817 0.131893 1.1248e-22)
(0.700375 0.130217 -2.02861e-22)
(0.710245 0.126484 2.27173e-22)
(0.72141 0.125786 -3.37093e-22)
(0.73546 0.122786 4.59363e-22)
(0.751393 0.123249 8.12237e-23)
(0.77048 0.119696 -3.13048e-22)
(1.23118 0.139639 0)
(1.17268 0.125602 0)
(1.1542 0.0788056 0)
(1.15663 0.0438299 0)
(1.15185 0.0131529 0)
(1.12576 -0.0144444 0)
(1.10737 -0.0248329 0)
(1.08546 -0.0292075 0)
(1.06663 -0.0295263 0)
(1.05372 -0.0254039 0)
(1.04295 -0.0242541 0)
(1.03676 -0.0201689 0)
(1.03189 -0.0200542 0)
(1.02914 -0.019447 0)
(1.02811 -0.0191623 0)
(1.02899 -0.0172806 0)
(1.02908 -0.0144167 0)
(1.02821 -0.0116023 0)
(1.0265 -0.00917105 0)
(1.02474 -0.00717792 0)
(1.02311 -0.00571529 0)
(1.02173 -0.00468035 0)
(1.02055 -0.00391819 0)
(1.01966 -0.00319457 0)
(1.01897 -0.00253556 0)
(1.01846 -0.00178822 0)
(1.01812 -0.00106202 0)
(1.01792 -0.000402507 0)
(1.20635 0.291441 0)
(1.21247 0.281159 0)
(1.25392 0.18348 0)
(1.1795 0.187704 0)
(1.18306 0.145872 0)
(1.10582 0.174028 0)
(1.10388 0.126095 0)
(1.06848 0.13768 0)
(1.07854 0.105846 0)
(1.06356 0.0891116 0)
(1.06089 0.0721576 0)
(1.05503 0.0533124 0)
(1.04919 0.0431646 0)
(1.04271 0.0323114 0)
(1.03651 0.0270212 0)
(1.03143 0.0225525 0)
(1.02688 0.019033 0)
(1.02213 0.0145523 0)
(1.01878 0.00999904 0)
(1.01704 0.00619532 0)
(1.01661 0.00333701 0)
(1.01663 0.00123377 0)
(1.01683 -8.82189e-05 0)
(1.01698 -0.000826096 0)
(1.01705 -0.00117762 0)
(1.01699 -0.0012917 0)
(1.01682 -0.00131567 0)
(1.0166 -0.00112199 0)
(1.01642 -0.000754061 0)
(1.0163 -0.000313555 0)
(0.999141 0.360122 0)
(0.975344 0.333441 0)
(1.03492 0.252351 0)
(1.01678 0.202201 0)
(1.15466 0.112435 0)
(1.06332 0.0862599 0)
(1.10876 0.0108063 0)
(1.07306 0.0212982 0)
(1.05045 -0.0114683 0)
(1.03538 -0.00923585 0)
(1.02515 -0.0185239 0)
(1.01867 -0.0212584 0)
(1.01731 -0.0243105 0)
(1.01804 -0.0258934 0)
(1.02009 -0.0276064 0)
(1.02022 -0.0275947 0)
(1.02043 -0.025996 0)
(1.02167 -0.0222548 0)
(1.0231 -0.0176405 0)
(1.02374 -0.01358 0)
(1.02337 -0.0104461 0)
(1.0226 -0.00802581 0)
(1.02168 -0.0063689 0)
(1.02082 -0.00519008 0)
(1.02007 -0.00430278 0)
(1.01951 -0.00343252 0)
(1.01909 -0.00265363 0)
(1.01877 -0.00184442 0)
(1.01855 -0.00108556 0)
(1.01841 -0.000404032 0)
(0.993849 0.317289 0)
(0.994833 0.283577 0)
(1.02236 0.28658 0)
(0.938781 0.274937 0)
(0.979308 0.261254 0)
(0.921921 0.224605 0)
(1.0055 0.181596 0)
(1.01646 0.144503 0)
(1.03688 0.107156 0)
(1.04334 0.092942 0)
(1.04871 0.0722599 0)
(1.04999 0.0636778 0)
(1.04721 0.0541258 0)
(1.04266 0.0477036 0)
(1.03702 0.0413348 0)
(1.03416 0.0353323 0)
(1.03179 0.0283084 0)
(1.02836 0.0210316 0)
(1.02457 0.0141522 0)
(1.02157 0.00888431 0)
(1.01982 0.00519298 0)
(1.01892 0.00256459 0)
(1.01845 0.000952994 0)
(1.01816 -2.02851e-05 0)
(1.0179 -0.00060518 0)
(1.0176 -0.000940873 0)
(1.01728 -0.00112646 0)
(1.01699 -0.00103972 0)
(1.01678 -0.000720729 0)
(1.01667 -0.000300217 0)
(0.843756 0.155034 0)
(0.855917 0.0774099 0)
(0.958428 0.0428708 0)
(0.953873 -0.00187664 0)
(1.00151 0.0216323 0)
(0.955411 0.0147073 0)
(0.968666 0.0441484 0)
(0.975023 0.0344396 0)
(0.981316 0.0318217 0)
(0.986829 0.0128307 0)
(0.989072 0.0042754 0)
(0.992165 -0.0119172 0)
(0.996554 -0.0185268 0)
(1.00214 -0.027684 0)
(1.00622 -0.0301107 0)
(1.00767 -0.0309233 0)
(1.00823 -0.0274881 0)
(1.0108 -0.0229058 0)
(1.0146 -0.0175763 0)
(1.0177 -0.0132422 0)
(1.01944 -0.0101328 0)
(1.02005 -0.00781889 0)
(1.02013 -0.00630237 0)
(1.01993 -0.00520555 0)
(1.01971 -0.00431333 0)
(1.0195 -0.00339597 0)
(1.01935 -0.00258802 0)
(1.01917 -0.00178919 0)
(1.01902 -0.00105363 0)
(1.01891 -0.000391262 0)
(0.711327 0.212535 0)
(0.753346 0.175096 0)
(0.858162 0.1256 0)
(0.932752 0.067244 0)
(1.02023 0.0339106 0)
(0.995799 0.0180821 0)
(1.01777 0.0121388 0)
(1.00743 0.0102197 0)
(1.00498 0.00782403 0)
(1.01146 0.021167 0)
(1.02312 0.0187454 0)
(1.02758 0.0288739 0)
(1.0333 0.0282326 0)
(1.03361 0.0329611 0)
(1.0361 0.0311114 0)
(1.03822 0.029021 0)
(1.03942 0.0232539 0)
(1.03712 0.0176883 0)
(1.03238 0.0122183 0)
(1.02778 0.00795208 0)
(1.02429 0.00492343 0)
(1.02212 0.00270201 0)
(1.02069 0.00129287 0)
(1.01974 0.000374302 0)
(1.01897 -0.000297647 0)
(1.01835 -0.000765309 0)
(1.01782 -0.00104074 0)
(1.01745 -0.000998329 0)
(1.01721 -0.000701593 0)
(1.01709 -0.000288481 0)
(0.663262 0.222847 0)
(0.655649 0.21486 0)
(0.710964 0.229287 0)
(0.798493 0.202996 0)
(0.896596 0.180564 0)
(0.926019 0.145065 0)
(0.953581 0.122694 0)
(0.974522 0.0800341 0)
(0.989735 0.0597193 0)
(0.995173 0.0352561 0)
(0.994613 0.0219184 0)
(1.00101 0.007353 0)
(1.00124 -0.000827646 0)
(1.00351 -0.0105545 0)
(1.00145 -0.0141534 0)
(0.999172 -0.0162589 0)
(0.99822 -0.0144682 0)
(1.0009 -0.0126546 0)
(1.00623 -0.0102955 0)
(1.0112 -0.00840398 0)
(1.01481 -0.00696925 0)
(1.01686 -0.00585267 0)
(1.01804 -0.00509232 0)
(1.01867 -0.00447065 0)
(1.0191 -0.00381271 0)
(1.01936 -0.00302665 0)
(1.01953 -0.00232005 0)
(1.01954 -0.00163511 0)
(1.01949 -0.000980246 0)
(1.01943 -0.000368427 0)
(0.786221 0.00140829 0)
(0.768427 0.0126603 0)
(0.792784 0.0518639 0)
(0.838557 0.0638662 0)
(0.890149 0.0682277 0)
(0.888237 0.0338661 0)
(0.890623 0.0195499 0)
(0.914498 0.00371309 0)
(0.936229 0.00239174 0)
(0.964919 -0.0120015 0)
(0.983789 -0.0121642 0)
(0.996784 -0.0165453 0)
(1.00738 -0.0127341 0)
(1.01781 -0.00809556 0)
(1.02885 -0.00473656 0)
(1.03722 -0.00136646 0)
(1.04118 -0.000675787 0)
(1.04007 0.000761166 0)
(1.0359 0.00128664 0)
(1.03098 0.00145531 0)
(1.0268 0.00116812 0)
(1.02387 0.000656898 0)
(1.02184 0.000193465 0)
(1.02046 -0.000234685 0)
(1.01939 -0.000709575 0)
(1.01862 -0.00108605 0)
(1.01808 -0.0012777 0)
(1.01775 -0.00113985 0)
(1.01759 -0.000773832 0)
(1.01752 -0.000304666 0)
(0.833101 -0.373693 0)
(0.841802 -0.314362 0)
(0.838428 -0.254324 0)
(0.856376 -0.194616 0)
(0.840383 -0.165685 0)
(0.810679 -0.145853 0)
(0.874972 -0.137082 0)
(0.928811 -0.11093 0)
(0.956235 -0.0803515 0)
(0.968964 -0.040282 0)
(0.990547 -0.0204806 0)
(1.00413 0.00141388 0)
(1.01486 0.0100143 0)
(1.01399 0.0147922 0)
(1.00959 0.0164248 0)
(1.00482 0.0147789 0)
(1.00205 0.0128865 0)
(1.0032 0.00862365 0)
(1.00619 0.00450215 0)
(1.00986 0.00118474 0)
(1.0131 -0.00100859 0)
(1.01539 -0.00226303 0)
(1.01701 -0.00297795 0)
(1.01811 -0.00322571 0)
(1.01896 -0.00304734 0)
(1.01954 -0.00257531 0)
(1.01988 -0.00208041 0)
(1.02 -0.001561 0)
(1.02 -0.000982821 0)
(1.01997 -0.000373176 0)
(0.986958 -0.626285 0)
(1.04547 -0.536922 0)
(1.05651 -0.473654 0)
(1.05652 -0.400985 0)
(0.968825 -0.31292 0)
(0.905399 -0.201023 0)
(0.938338 -0.134402 0)
(1.00157 -0.0973692 0)
(1.03922 -0.0801826 0)
(1.03917 -0.0746962 0)
(1.03404 -0.0655684 0)
(1.02941 -0.0626246 0)
(1.02033 -0.0571463 0)
(1.02339 -0.0521186 0)
(1.02712 -0.0468169 0)
(1.0309 -0.0393047 0)
(1.03227 -0.0313799 0)
(1.03144 -0.0224735 0)
(1.03018 -0.0144905 0)
(1.0281 -0.00879843 0)
(1.02563 -0.00527298 0)
(1.02349 -0.00335609 0)
(1.02177 -0.00238493 0)
(1.02048 -0.00199313 0)
(1.01947 -0.00200359 0)
(1.01876 -0.00202873 0)
(1.01835 -0.00192385 0)
(1.01813 -0.00153162 0)
(1.01807 -0.00097521 0)
(1.01805 -0.000365457 0)
(1.11415 -0.703689 0)
(1.18306 -0.64386 0)
(1.25478 -0.614631 0)
(1.28717 -0.559046 0)
(1.2873 -0.450993 0)
(1.21517 -0.320595 0)
(1.14229 -0.206907 0)
(1.08163 -0.130389 0)
(1.02549 -0.0796526 0)
(1.02208 -0.0456361 0)
(1.02483 -0.0128235 0)
(1.02659 0.00596257 0)
(1.03496 0.0240943 0)
(1.03109 0.0350942 0)
(1.03099 0.0418675 0)
(1.02772 0.0418121 0)
(1.02491 0.0366778 0)
(1.02214 0.0282353 0)
(1.01905 0.018653 0)
(1.01724 0.0107645 0)
(1.01692 0.0050261 0)
(1.01738 0.00129915 0)
(1.01813 -0.000947671 0)
(1.01895 -0.00208637 0)
(1.01969 -0.00243282 0)
(1.02025 -0.00233148 0)
(1.02056 -0.00208066 0)
(1.02068 -0.00169316 0)
(1.02067 -0.00112375 0)
(1.02065 -0.000428089 0)
(1.23873 -0.278513 0)
(1.35225 -0.272231 0)
(1.45075 -0.255491 0)
(1.51716 -0.227906 0)
(1.51092 -0.214016 0)
(1.4531 -0.179916 0)
(1.3644 -0.168143 0)
(1.26073 -0.14132 0)
(1.20917 -0.121831 0)
(1.16126 -0.0816435 0)
(1.11954 -0.0756147 0)
(1.09032 -0.0546837 0)
(1.05921 -0.054852 0)
(1.04285 -0.050402 0)
(1.02725 -0.0497238 0)
(1.01742 -0.0453817 0)
(1.01136 -0.0386124 0)
(1.01008 -0.030667 0)
(1.0129 -0.0219665 0)
(1.01605 -0.0151217 0)
(1.01788 -0.010226 0)
(1.01855 -0.00707589 0)
(1.01869 -0.0052566 0)
(1.01854 -0.00430974 0)
(1.01837 -0.00386821 0)
(1.01828 -0.00343708 0)
(1.01836 -0.00290188 0)
(1.01851 -0.00215268 0)
(1.01866 -0.0013107 0)
(1.01875 -0.00047707 0)
(1.3694 0.286519 0)
(1.41854 0.285681 0)
(1.43965 0.290832 0)
(1.44323 0.261853 0)
(1.36151 0.242338 0)
(1.30347 0.190259 0)
(1.19479 0.165126 0)
(1.1664 0.12061 0)
(1.12515 0.115699 0)
(1.09015 0.0759896 0)
(1.07247 0.0785201 0)
(1.05893 0.0564557 0)
(1.05093 0.0583737 0)
(1.04956 0.05048 0)
(1.05012 0.0476763 0)
(1.05012 0.0420844 0)
(1.0475 0.0342731 0)
(1.04212 0.0269951 0)
(1.03463 0.0184972 0)
(1.02808 0.0112668 0)
(1.02375 0.00543623 0)
(1.02157 0.00130744 0)
(1.02071 -0.00121605 0)
(1.02069 -0.00245985 0)
(1.02095 -0.00290378 0)
(1.02127 -0.00291513 0)
(1.02143 -0.00272542 0)
(1.0215 -0.0022679 0)
(1.02153 -0.00152342 0)
(1.02154 -0.000570238 0)
(1.32587 0.27731 0)
(1.32647 0.260156 0)
(1.35721 0.21618 0)
(1.31742 0.166 0)
(1.31739 0.135073 0)
(1.2625 0.0775827 0)
(1.19914 0.0740384 0)
(1.17394 0.0359877 0)
(1.09797 0.0441992 0)
(1.0928 0.0169391 0)
(1.06658 0.0205432 0)
(1.04445 0.00671886 0)
(1.03377 0.00439902 0)
(1.01613 -0.00175937 0)
(1.00452 -0.00230584 0)
(0.995094 -0.00729876 0)
(0.990344 -0.0082869 0)
(0.991589 -0.0110116 0)
(0.997074 -0.0111845 0)
(1.00369 -0.0105155 0)
(1.00913 -0.00909208 0)
(1.01283 -0.00767618 0)
(1.01519 -0.00672329 0)
(1.01656 -0.00616367 0)
(1.01749 -0.00567345 0)
(1.01818 -0.00493399 0)
(1.0188 -0.00400042 0)
(1.01929 -0.00291223 0)
(1.0196 -0.00176027 0)
(1.01975 -0.000627856 0)
(1.18128 0.363856 0)
(1.18425 0.360558 0)
(1.21337 0.275643 0)
(1.1669 0.27753 0)
(1.21326 0.198435 0)
(1.14527 0.19817 0)
(1.17072 0.13646 0)
(1.1401 0.148422 0)
(1.137 0.100068 0)
(1.08497 0.12742 0)
(1.0849 0.0720962 0)
(1.05872 0.0795677 0)
(1.05477 0.0467424 0)
(1.05004 0.0355645 0)
(1.04885 0.0156368 0)
(1.04546 0.0075283 0)
(1.04287 0.0010819 0)
(1.03881 0.000275744 0)
(1.03483 -0.000415873 0)
(1.03051 -0.00133938 0)
(1.02684 -0.0028697 0)
(1.02433 -0.00425667 0)
(1.02301 -0.00492794 0)
(1.0226 -0.00497764 0)
(1.02258 -0.00478193 0)
(1.02264 -0.0044441 0)
(1.02271 -0.00399517 0)
(1.02275 -0.0032067 0)
(1.02284 -0.00209375 0)
(1.0229 -0.000760705 0)
(1.02711 0.485623 0)
(1.04096 0.482388 0)
(1.06505 0.435221 0)
(1.03603 0.432835 0)
(1.07366 0.378691 0)
(1.02093 0.381874 0)
(1.04462 0.305331 0)
(1.00545 0.289829 0)
(1.0512 0.208565 0)
(0.974523 0.187883 0)
(0.986972 0.123861 0)
(0.980224 0.0968209 0)
(0.968457 0.0695747 0)
(0.968708 0.0541756 0)
(0.971867 0.0445248 0)
(0.979179 0.033506 0)
(0.984784 0.0237083 0)
(0.991017 0.0131872 0)
(0.995967 0.00459205 0)
(1.00121 -0.00104941 0)
(1.00626 -0.00425932 0)
(1.01047 -0.00581058 0)
(1.01358 -0.00678345 0)
(1.01578 -0.00722748 0)
(1.01742 -0.00698012 0)
(1.01878 -0.00612025 0)
(1.01983 -0.004949 0)
(1.02057 -0.00363116 0)
(1.021 -0.00223292 0)
(1.02119 -0.000789809 0)
(0.975495 0.509676 0)
(0.993217 0.485879 0)
(1.01932 0.451994 0)
(1.01365 0.424258 0)
(1.03326 0.392674 0)
(0.981105 0.367889 0)
(0.949394 0.324545 0)
(0.878974 0.27578 0)
(0.892721 0.210297 0)
(0.860956 0.136753 0)
(0.889753 0.088597 0)
(0.924524 0.0431454 0)
(0.96205 0.0169362 0)
(0.990995 -0.00417578 0)
(1.00392 -0.016718 0)
(1.00868 -0.0235315 0)
(1.01058 -0.0245591 0)
(1.01283 -0.0232021 0)
(1.01643 -0.0197778 0)
(1.01941 -0.0169994 0)
(1.02087 -0.0145386 0)
(1.02161 -0.0124286 0)
(1.02227 -0.0104508 0)
(1.02286 -0.00878534 0)
(1.02338 -0.00762458 0)
(1.02372 -0.0066696 0)
(1.02403 -0.00566631 0)
(1.02431 -0.00434224 0)
(1.02459 -0.00273411 0)
(1.02477 -0.000967131 0)
(0.804005 0.125948 0)
(0.828277 0.102233 0)
(0.867738 0.0779986 0)
(0.877952 0.0518425 0)
(0.90398 0.0234056 0)
(0.875072 -0.00735157 0)
(0.853834 -0.0270362 0)
(0.773094 -0.0472281 0)
(0.736831 -0.0589314 0)
(0.745146 -0.0571508 0)
(0.812176 -0.0443216 0)
(0.862996 -0.0266275 0)
(0.897622 -0.0180359 0)
(0.916906 -0.0102289 0)
(0.945152 -0.00801259 0)
(0.966737 -0.00624395 0)
(0.984935 -0.00492215 0)
(0.997457 -0.00346363 0)
(1.00527 -0.003508 0)
(1.0097 -0.00419908 0)
(1.01266 -0.00568702 0)
(1.01484 -0.00728323 0)
(1.01649 -0.00852786 0)
(1.01803 -0.0089521 0)
(1.01948 -0.00845039 0)
(1.02081 -0.00730276 0)
(1.02183 -0.00593304 0)
(1.02252 -0.00442789 0)
(1.02291 -0.00278377 0)
(1.02308 -0.000981271 0)
(0.751989 -0.368405 0)
(0.761931 -0.367964 0)
(0.77751 -0.37966 0)
(0.779793 -0.392428 0)
(0.796599 -0.415762 0)
(0.78641 -0.421317 0)
(0.802339 -0.42509 0)
(0.788461 -0.40002 0)
(0.815043 -0.361554 0)
(0.867132 -0.279786 0)
(0.940037 -0.223164 0)
(0.974848 -0.166442 0)
(0.989879 -0.132931 0)
(1.00662 -0.0938953 0)
(1.01015 -0.0686092 0)
(1.01259 -0.0476885 0)
(1.01193 -0.0364062 0)
(1.01076 -0.0305128 0)
(1.01103 -0.0269862 0)
(1.01325 -0.0239605 0)
(1.01623 -0.0205024 0)
(1.01916 -0.0168291 0)
(1.02166 -0.0138159 0)
(1.0234 -0.0116697 0)
(1.02454 -0.0101529 0)
(1.02534 -0.00876556 0)
(1.02603 -0.00720233 0)
(1.02664 -0.00534601 0)
(1.0271 -0.00328336 0)
(1.02735 -0.00113733 0)
(0.783192 -0.55227 0)
(0.793147 -0.525558 0)
(0.810605 -0.504867 0)
(0.830878 -0.479201 0)
(0.860239 -0.444945 0)
(0.885965 -0.395275 0)
(0.936601 -0.341741 0)
(0.975472 -0.278823 0)
(1.02369 -0.20558 0)
(1.05749 -0.142694 0)
(1.06818 -0.0870844 0)
(1.0627 -0.0683611 0)
(1.05094 -0.0355552 0)
(1.04356 -0.035021 0)
(1.03586 -0.0281909 0)
(1.02687 -0.0282142 0)
(1.01949 -0.0254975 0)
(1.01767 -0.021483 0)
(1.01895 -0.0176812 0)
(1.02008 -0.0150822 0)
(1.02012 -0.0140645 0)
(1.01991 -0.013846 0)
(1.02011 -0.0134034 0)
(1.02095 -0.0122838 0)
(1.02218 -0.010754 0)
(1.02335 -0.00904885 0)
(1.02428 -0.00736283 0)
(1.02492 -0.00554626 0)
(1.02534 -0.00350389 0)
(1.02556 -0.00123112 0)
(0.842679 -0.5373 0)
(0.878282 -0.504373 0)
(0.936217 -0.467326 0)
(0.992828 -0.433948 0)
(1.04943 -0.381317 0)
(1.09411 -0.336995 0)
(1.13904 -0.276394 0)
(1.16449 -0.240474 0)
(1.1658 -0.181529 0)
(1.15966 -0.163343 0)
(1.10503 -0.125785 0)
(1.08765 -0.122194 0)
(1.03982 -0.0955941 0)
(1.01635 -0.0799003 0)
(1.00984 -0.0584508 0)
(1.01226 -0.0463869 0)
(1.01695 -0.0342373 0)
(1.01893 -0.0272955 0)
(1.01919 -0.0228959 0)
(1.0197 -0.0200608 0)
(1.02114 -0.0178487 0)
(1.02304 -0.0160076 0)
(1.02469 -0.0147494 0)
(1.02601 -0.0137736 0)
(1.02705 -0.0125791 0)
(1.02806 -0.0108863 0)
(1.029 -0.00879832 0)
(1.0298 -0.006439 0)
(1.03032 -0.00393852 0)
(1.03058 -0.00135539 0)
(1.06501 0.00283193 0)
(1.10092 0.0215947 0)
(1.143 0.0395959 0)
(1.18179 0.0531736 0)
(1.21452 0.0665244 0)
(1.24161 0.0676881 0)
(1.25682 0.0714358 0)
(1.26435 0.0676251 0)
(1.22986 0.0693817 0)
(1.23247 0.0535058 0)
(1.169 0.0560835 0)
(1.14973 0.0428482 0)
(1.15396 0.0219642 0)
(1.12703 0.0194165 0)
(1.10183 0.00699522 0)
(1.07295 0.00312435 0)
(1.04947 -0.00528889 0)
(1.03357 -0.0119415 0)
(1.02511 -0.0173208 0)
(1.02147 -0.0201235 0)
(1.02052 -0.0209662 0)
(1.02099 -0.0201859 0)
(1.02235 -0.0183873 0)
(1.02398 -0.0161441 0)
(1.02547 -0.0139388 0)
(1.02663 -0.0118258 0)
(1.0275 -0.00967168 0)
(1.02815 -0.00725087 0)
(1.02865 -0.00452487 0)
(1.02894 -0.00157234 0)
(1.09256 0.384846 0)
(1.10733 0.380938 0)
(1.11953 0.379172 0)
(1.12968 0.366421 0)
(1.1388 0.352964 0)
(1.14965 0.329037 0)
(1.15429 0.29473 0)
(1.16484 0.264793 0)
(1.13594 0.225253 0)
(1.11158 0.178574 0)
(1.09001 0.151259 0)
(1.00842 0.131512 0)
(1.00392 0.0948051 0)
(0.979974 0.0675134 0)
(0.987005 0.038597 0)
(0.991804 0.0137888 0)
(0.998102 -0.00149143 0)
(1.00674 -0.0103976 0)
(1.01472 -0.0142932 0)
(1.02095 -0.0163524 0)
(1.02475 -0.0177114 0)
(1.02691 -0.01846 0)
(1.02839 -0.0185806 0)
(1.02971 -0.0177223 0)
(1.03108 -0.015952 0)
(1.03241 -0.013512 0)
(1.03352 -0.0107838 0)
(1.03428 -0.00790292 0)
(1.03473 -0.00487742 0)
(1.03493 -0.00168234 0)
(1.01049 0.515803 0)
(1.01561 0.489737 0)
(1.01823 0.458478 0)
(1.01482 0.425122 0)
(1.01229 0.389347 0)
(1.00343 0.345999 0)
(0.998765 0.298436 0)
(0.981894 0.241853 0)
(0.974452 0.181841 0)
(0.953822 0.112713 0)
(1.01562 0.0396791 0)
(0.977965 -0.0159858 0)
(0.982173 -0.0524329 0)
(0.978671 -0.0561289 0)
(0.978459 -0.0611713 0)
(0.983942 -0.0520603 0)
(0.995904 -0.0473488 0)
(1.00379 -0.0418195 0)
(1.00908 -0.0376587 0)
(1.01336 -0.0347676 0)
(1.0173 -0.0313666 0)
(1.02123 -0.0279223 0)
(1.02457 -0.024739 0)
(1.02709 -0.0217584 0)
(1.02893 -0.0189571 0)
(1.03033 -0.0160399 0)
(1.03148 -0.0128843 0)
(1.03244 -0.00943675 0)
(1.03314 -0.00577096 0)
(1.03352 -0.00196908 0)
(0.839435 0.399949 0)
(0.844894 0.384987 0)
(0.857516 0.368364 0)
(0.858884 0.345857 0)
(0.862154 0.330841 0)
(0.846241 0.306817 0)
(0.837687 0.29369 0)
(0.799533 0.267612 0)
(0.783945 0.252409 0)
(0.740159 0.220694 0)
(0.769598 0.192716 0)
(0.827412 0.141515 0)
(0.933135 0.110344 0)
(0.986787 0.0735386 0)
(1.01743 0.0423064 0)
(1.02831 0.0229821 0)
(1.02915 0.00271321 0)
(1.0283 -0.00957447 0)
(1.02917 -0.0199183 0)
(1.03044 -0.0252429 0)
(1.0321 -0.0275347 0)
(1.03385 -0.0276156 0)
(1.03548 -0.025936 0)
(1.03704 -0.0232704 0)
(1.03841 -0.0201562 0)
(1.03941 -0.0168486 0)
(1.04004 -0.0134784 0)
(1.04038 -0.00994184 0)
(1.04058 -0.00615925 0)
(1.04067 -0.00211484 0)
(0.804138 -0.491966 0)
(0.809536 -0.49496 0)
(0.822379 -0.486159 0)
(0.825728 -0.491282 0)
(0.839337 -0.478759 0)
(0.83803 -0.478473 0)
(0.851277 -0.458702 0)
(0.839328 -0.442669 0)
(0.825036 -0.409093 0)
(0.785508 -0.371572 0)
(0.784168 -0.308385 0)
(0.795485 -0.238191 0)
(0.822876 -0.172088 0)
(0.84934 -0.143662 0)
(0.878682 -0.109373 0)
(0.912497 -0.0981367 0)
(0.9403 -0.0819648 0)
(0.966784 -0.0700929 0)
(0.988262 -0.0591973 0)
(1.00462 -0.0497684 0)
(1.01612 -0.042785 0)
(1.02352 -0.037016 0)
(1.02838 -0.0322488 0)
(1.03174 -0.0280047 0)
(1.03425 -0.0238452 0)
(1.03622 -0.0196059 0)
(1.03775 -0.0153429 0)
(1.03884 -0.0110575 0)
(1.03952 -0.00672115 0)
(1.03982 -0.00228683 0)
(0.806387 -0.670526 0)
(0.81817 -0.674039 0)
(0.835543 -0.67109 0)
(0.852866 -0.67377 0)
(0.875125 -0.663899 0)
(0.898047 -0.659867 0)
(0.923344 -0.639401 0)
(0.953915 -0.62301 0)
(0.979385 -0.585934 0)
(1.01719 -0.543465 0)
(1.06699 -0.484423 0)
(1.10352 -0.411433 0)
(1.11092 -0.340672 0)
(1.10971 -0.2719 0)
(1.09024 -0.215169 0)
(1.07943 -0.166187 0)
(1.0737 -0.126197 0)
(1.06729 -0.0978381 0)
(1.06047 -0.0761035 0)
(1.05555 -0.0614781 0)
(1.05207 -0.050606 0)
(1.04999 -0.0421402 0)
(1.04893 -0.0355413 0)
(1.04837 -0.0300416 0)
(1.04809 -0.0252616 0)
(1.04794 -0.0207928 0)
(1.04789 -0.0163966 0)
(1.04792 -0.0119055 0)
(1.04798 -0.00726486 0)
(1.04804 -0.00247624 0)
(0.841337 -0.0136031 0)
(0.867147 -0.015551 0)
(0.897481 -0.0156262 0)
(0.933664 -0.0160972 0)
(0.973647 -0.0139493 0)
(1.01775 -0.0120021 0)
(1.05928 -0.00678788 0)
(1.10497 -0.00407695 0)
(1.13946 0.0055558 0)
(1.179 0.00590731 0)
(1.20367 0.0143501 0)
(1.23449 0.00309181 0)
(1.20456 0.00886674 0)
(1.16268 -0.00273327 0)
(1.13891 -0.0145428 0)
(1.10395 -0.0162543 0)
(1.08022 -0.0250421 0)
(1.06196 -0.0284924 0)
(1.05129 -0.0329341 0)
(1.04562 -0.0351285 0)
(1.04317 -0.0353316 0)
(1.04275 -0.0340999 0)
(1.04329 -0.0316541 0)
(1.04429 -0.0283449 0)
(1.04538 -0.024562 0)
(1.04629 -0.020468 0)
(1.04694 -0.0162264 0)
(1.04733 -0.0118332 0)
(1.04754 -0.00725832 0)
(1.04764 -0.00247542 0)
(0.790307 0.119818 0)
(0.811885 0.118581 0)
(0.837486 0.118953 0)
(0.866856 0.117097 0)
(0.900359 0.117054 0)
(0.935419 0.113617 0)
(0.97209 0.112563 0)
(1.00534 0.105519 0)
(1.03272 0.102507 0)
(1.05886 0.0877868 0)
(1.07156 0.0819249 0)
(1.08887 0.0530055 0)
(1.0818 0.0382567 0)
(1.05104 0.00978597 0)
(1.05321 -0.0104445 0)
(1.04659 -0.0272091 0)
(1.04407 -0.039812 0)
(1.0443 -0.0452827 0)