/*--------------------------------*- C++ -*----------------------------------*\
| =========                 |                                                 |
| \\      /  F ield         | OpenFOAM: The Open Source CFD Toolbox           |
|  \\    /   O peration     | Version:                                        |
|   \\  /    A nd           | Website:  www.openfoam.com                      |
|    \\/     M anipulation  |                                                 |
\*---------------------------------------------------------------------------*/
FoamFile
{
    version     2.0;
    format      ascii;
    class       volScalarField;
    location    "102";
    object      p;
}
// * * * * * * * * * * * * * * * * * * * * * * * * * * * * * * * * * * * * * //

dimensions      [0 2 -2 0 0 0 0];


internalField   nonuniform List<scalar> 
1153
(
-0.778675
-0.777556
-0.789222
-0.775374
-0.781239
-0.747009
-0.690697
-0.63176
-0.577496
-0.52947
-0.780847
-0.769651
-0.765987
-0.778369
-0.766008
-0.724613
-0.667635
-0.608624
-0.554183
-0.505447
-0.46119
-0.420349
-0.787931
-0.792143
-0.734252
-0.763226
-0.744869
-0.698104
-0.64189
-0.585858
-0.533757
-0.486006
-0.442294
-0.402177
-0.364538
-0.329006
-0.778669
-0.777703
-0.767719
-0.750853
-0.718498
-0.67133
-0.617863
-0.564388
-0.51423
-0.468552
-0.426888
-0.388045
-0.352086
-0.318415
-0.286738
-0.256532
-0.228458
-0.813784
-0.750636
-0.785945
-0.750625
-0.700901
-0.649086
-0.596803
-0.545975
-0.497889
-0.453163
-0.412164
-0.374882
-0.340171
-0.308049
-0.278251
-0.250365
-0.224231
-0.199483
-0.176692
-0.154299
-0.877557
-0.827069
-0.791479
-0.741282
-0.683713
-0.628112
-0.576289
-0.527744
-0.482262
-0.439579
-0.399799
-0.36321
-0.32947
-0.297977
-0.268936
-0.242216
-0.217322
-0.194529
-0.173395
-0.153982
-0.875298
-0.879489
-0.799314
-0.726865
-0.663954
-0.608047
-0.556965
-0.509618
-0.465808
-0.425269
-0.387452
-0.352117
-0.319802
-0.290066
-0.262292
-0.236496
-0.212692
-0.190027
-0.168904
-0.148983
-0.78928
-0.830612
-0.780488
-0.708792
-0.644987
-0.588995
-0.538536
-0.491685
-0.448003
-0.407917
-0.371293
-0.337652
-0.30626
-0.277534
-0.251229
-0.227096
-0.205075
-0.184938
-0.165791
-0.14677
-0.746138
-0.77247
-0.751329
-0.69123
-0.628437
-0.570783
-0.519041
-0.472399
-0.429474
-0.38973
-0.353401
-0.320363
-0.29028
-0.262615
-0.237383
-0.214246
-0.193138
-0.173792
-0.155887
-0.139279
-0.783936
-0.766988
-0.731273
-0.673145
-0.610567
-0.551298
-0.497559
-0.449669
-0.406942
-0.368448
-0.333385
-0.301534
-0.27275
-0.246621
-0.222798
-0.201216
-0.181475
-0.163215
-0.145912
-0.130061
-0.980643
-0.972604
-0.999606
-0.929435
-0.938011
-0.968097
-0.998217
-0.909001
-0.921996
-0.933687
-0.937831
-0.934181
-0.933461
-0.905398
-0.872861
-0.935139
-0.922834
-0.876415
-0.813434
-0.899654
-0.890917
-0.847811
-0.770422
-0.702283
-0.854944
-0.854812
-0.820927
-0.751605
-0.682826
-0.63302
-0.812948
-0.817975
-0.798036
-0.749266
-0.702719
-0.668832
-0.655215
-0.785087
-0.788793
-0.784261
-0.769442
-0.739174
-0.72003
-0.691737
-0.660125
-0.778204
-0.779797
-0.777638
-0.783061
-0.778881
-0.749349
-0.70226
-0.6512
-0.603746
-0.116048
-0.121658
-0.12574
-0.127464
-0.131804
-0.101027
-0.102759
-0.104683
-0.104456
-0.107541
-0.0860569
-0.0856151
-0.0862502
-0.0848572
-0.0877886
-0.0730293
-0.0713223
-0.0711113
-0.0697206
-0.0717726
-0.0611749
-0.0585551
-0.0575742
-0.0563482
-0.057191
-0.057208
-0.050521
-0.047408
-0.0457056
-0.044522
-0.0444671
-0.044471
-0.0408016
-0.0375869
-0.0353356
-0.0342185
-0.0337708
-0.0338484
-0.0319645
-0.0288508
-0.0263906
-0.0254157
-0.0249103
-0.0250614
-0.0241371
-0.0212575
-0.0187921
-0.0178576
-0.0173214
-0.017284
-0.0171658
-0.0145182
-0.0121411
-0.011178
-0.0106668
-0.0104999
-0.0110066
-0.00855348
-0.00636821
-0.0054008
-0.00502537
-0.00488251
-0.00558616
-0.00332223
-0.00139288
-0.000468453
-0.000175431
-4.60885e-05
-0.000837995
0.00123695
0.00292413
0.00381481
0.00410283
0.00425708
0.00333569
0.00520347
0.00669063
0.00751902
0.00776877
0.00790795
0.00697456
0.0086232
0.00994745
0.0106856
0.0109338
0.0110478
0.0101492
0.0115911
0.0127711
0.0134413
0.0136532
0.0137104
0.012957
0.0141794
0.0152345
0.0158486
0.0160815
0.0162032
0.0154561
0.0164789
0.0174005
0.017948
0.0181278
0.0181291
0.0176672
0.0184813
0.019212
0.0196249
0.0197174
0.0197115
0.0196253
0.0202807
0.0208796
0.0212549
0.0214152
0.0215178
0.0213904
0.0219284
0.0224021
0.0226731
0.0227348
0.0226933
0.0228922
0.0232998
0.0236315
0.0237844
0.0237808
0.0237351
0.0241655
0.024481
0.0247397
0.0248586
0.024856
0.0248137
0.0252548
0.0254949
0.0256913
0.0257651
0.0257213
0.0256286
0.0261481
0.0263016
0.0264261
0.0264596
0.0264043
0.0263171
0.0268793
0.0269563
0.0270251
0.0270384
0.0269868
0.0269022
0.0274781
0.0274809
0.0274881
0.027466
0.0274025
0.0273164
0.0278859
0.0278314
0.0277894
0.0277411
0.0276773
0.0276055
0.0280907
0.0280288
0.0279705
0.0279086
0.0278394
0.0277663
0.0282035
0.028141
0.0280758
0.0280088
0.0279412
0.0278756
0.0161703
0.0182248
0.0199324
0.0209356
0.0203112
0.0176917
0.0132158
0.00712566
-0.000640805
-0.0103874
-0.022681
-0.0382955
-0.0581312
-0.0832356
-0.114962
-0.155307
-0.207267
-0.273134
-0.355525
-0.494533
-0.00306531
-0.00129609
-0.0016114
-0.00382961
-0.007528
-0.0131633
-0.0209621
-0.0307201
-0.0421892
-0.0556541
-0.0719772
-0.0920156
-0.116851
-0.147739
-0.186453
-0.23476
-0.295575
-0.371301
-0.461689
-0.619372
-0.0165266
-0.0176392
-0.0219683
-0.0281518
-0.0355216
-0.0438154
-0.0537564
-0.0659766
-0.0807329
-0.0981313
-0.118662
-0.14326
-0.17305
-0.209083
-0.253236
-0.30802
-0.376881
-0.461153
-0.557533
-0.731548
-0.0301955
-0.0337689
-0.0413778
-0.0513005
-0.0621138
-0.0735807
-0.0859677
-0.100192
-0.117052
-0.137204
-0.161199
-0.18957
-0.223441
-0.264155
-0.313295
-0.373075
-0.448086
-0.541936
-0.643032
-0.822366
-0.0474089
-0.0522747
-0.0613542
-0.0734386
-0.0866119
-0.100566
-0.115719
-0.132586
-0.151883
-0.17445
-0.201054
-0.232424
-0.269428
-0.313281
-0.365777
-0.428913
-0.506791
-0.608965
-0.714508
-0.892145
-0.0647541
-0.0711695
-0.0813857
-0.0942409
-0.108697
-0.124146
-0.141084
-0.160393
-0.182428
-0.207603
-0.236741
-0.270653
-0.310278
-0.356894
-0.411862
-0.476704
-0.554446
-0.659514
-0.769656
-0.935186
-0.0821136
-0.0905418
-0.102317
-0.115836
-0.130775
-0.147336
-0.165555
-0.186204
-0.209896
-0.237053
-0.268055
-0.303637
-0.34471
-0.392973
-0.44977
-0.515496
-0.593349
-0.693089
-0.804526
-0.952251
-0.096391
-0.107156
-0.120778
-0.135511
-0.151193
-0.168433
-0.188152
-0.210499
-0.235847
-0.264497
-0.297166
-0.334446
-0.375626
-0.424375
-0.481
-0.546282
-0.621421
-0.7129
-0.816015
-0.941838
-0.109079
-0.121112
-0.135762
-0.151639
-0.16881
-0.18741
-0.208073
-0.231711
-0.258431
-0.288344
-0.321884
-0.360061
-0.403331
-0.452297
-0.507956
-0.570819
-0.641016
-0.72132
-0.80841
-0.9056
-0.121901
-0.135543
-0.150993
-0.167454
-0.185436
-0.205407
-0.227397
-0.251974
-0.279714
-0.310582
-0.344878
-0.383338
-0.426819
-0.475866
-0.531045
-0.592034
-0.657244
-0.72409
-0.786811
-0.849117
0.21478
0.227479
0.241724
0.257473
0.27464
0.293146
0.312951
0.334023
0.356363
0.379851
0.40433
0.429436
0.454434
0.478309
0.499933
0.516768
0.526658
0.207563
0.219693
0.233586
0.24896
0.26555
0.283206
0.30193
0.321749
0.342646
0.364561
0.387214
0.410235
0.433064
0.45436
0.472531
0.484978
0.490627
0.196625
0.207908
0.221092
0.235656
0.251207
0.267559
0.284746
0.30282
0.321687
0.341177
0.361016
0.380724
0.399599
0.416601
0.429911
0.436291
0.435213
0.174355
0.182235
0.192452
0.204581
0.217891
0.231851
0.246281
0.261229
0.276831
0.293113
0.309671
0.325988
0.341383
0.355159
0.366143
0.372847
0.371238
0.36023
0.158062
0.164667
0.173737
0.184599
0.19642
0.208563
0.220765
0.233
0.245237
0.257567
0.269909
0.281865
0.292481
0.300625
0.304596
0.302761
0.29135
0.268278
0.136554
0.138783
0.143869
0.151558
0.160872
0.170872
0.180911
0.190663
0.20011
0.209226
0.217809
0.225475
0.231812
0.236121
0.237278
0.233373
0.222419
0.199289
0.159062
0.11932
0.116941
0.11753
0.121275
0.127555
0.135076
0.142739
0.149917
0.15633
0.162044
0.167231
0.17168
0.174683
0.175375
0.172926
0.166328
0.153474
0.131864
0.0963957
0.0390027
0.099337
0.0941437
0.0933437
0.0964084
0.101714
0.107481
0.112693
0.116834
0.119829
0.121762
0.12261
0.122133
0.119749
0.114437
0.104857
0.0896807
0.0670133
0.0345247
-0.0134567
-0.0909037
0.0774684
0.0699875
0.0680796
0.0704509
0.0744779
0.078315
0.0808567
0.0818342
0.0812886
0.0792489
0.0755957
0.0699549
0.0617307
0.049927
0.033124
0.00968963
-0.0229078
-0.0671343
-0.12771
-0.225183
0.0498142
0.0435682
0.0433046
0.0451776
0.0470447
0.047896
0.0471487
0.0446571
0.0405138
0.0346241
0.0266194
0.0159691
0.00192343
-0.0165678
-0.0409702
-0.0730653
-0.115141
-0.17018
-0.242392
-0.361414
0.104938
0.0876595
0.0747202
0.0635621
0.0559832
0.0391199
0.0444949
0.0311912
0.0373198
0.0254187
0.0314952
0.0203785
0.02657
0.0160533
0.0225562
0.0127078
0.0193764
0.0102969
0.0169256
0.00869204
0.0151163
0.00777601
0.0139718
0.00749123
0.0135072
0.00774113
0.0135433
0.00841838
0.0139817
0.00948331
0.0147032
0.0108019
0.0156351
0.0122835
0.016759
0.0138781
0.0180313
0.0155546
0.0193799
0.0172684
0.0207492
0.0189849
0.02208
0.0206481
0.0233421
0.022206
0.0244806
0.0236166
0.0255952
0.0249427
0.0266137
0.0261354
0.0275415
0.0271975
0.0283557
0.028123
0.0290085
0.0288522
0.0293939
0.0292634
0.0303448
0.0300033
0.0304427
0.030093
0.0153223
-0.00614568
-0.018975
-0.030422
-0.046142
-0.061544
-0.0767757
-0.0889872
-0.100535
-0.110474
0.0138003
-0.00766346
-0.022396
-0.0315923
-0.044751
-0.0581163
-0.0716048
-0.0816343
-0.0907177
-0.0980407
0.0104384
-0.00896222
-0.0238349
-0.0315096
-0.0417923
-0.0527354
-0.064421
-0.0728848
-0.0798472
-0.0848563
0.0070251
-0.00995377
-0.0236216
-0.0309375
-0.0390102
-0.0479032
-0.0576675
-0.0649592
-0.069922
-0.0733429
0.00402075
-0.0108332
-0.0228575
-0.0297439
-0.0358986
-0.0429543
-0.0504583
-0.0566289
-0.0599533
-0.0622128
0.00167223
-0.0113994
-0.0215176
-0.0275422
-0.032163
-0.0377246
-0.0433009
-0.0483905
-0.0506118
-0.0518886
1.00168e-07
-0.0115639
-0.0198049
-0.0247224
-0.0282393
-0.0325699
-0.0366751
-0.040603
-0.0420262
-0.0424135
-0.000902124
-0.0111977
-0.0177337
-0.0214604
-0.0240294
-0.0273139
-0.0303113
-0.0331394
-0.0340093
-0.0337488
-0.00101834
-0.0101973
-0.0153591
-0.0178806
-0.0196332
-0.0220598
-0.0242679
-0.0262101
-0.0266722
-0.0260325
-0.00042453
-0.00859145
-0.0126674
-0.0141397
-0.0151517
-0.016876
-0.0185205
-0.0198195
-0.0199791
-0.0191154
0.000688689
-0.00647881
-0.00970883
-0.0103725
-0.0107305
-0.0118775
-0.0130949
-0.0139851
-0.0139139
-0.0129361
0.00220995
-0.00400266
-0.00657134
-0.00667089
-0.00649909
-0.00715348
-0.00803763
-0.00865834
-0.00845327
-0.00742994
0.00404644
-0.00131971
-0.0033791
-0.00310763
-0.00252541
-0.00276105
-0.00336268
-0.00380238
-0.00355255
-0.00253214
0.00608301
0.00147777
-0.000207807
0.000294428
0.00116313
0.001286
0.00092128
0.000605703
0.000842298
0.00180083
0.00823989
0.00431549
0.00289369
0.00349402
0.00453493
0.00496022
0.00481253
0.00460171
0.00478577
0.00562805
0.0104313
0.00710843
0.00588639
0.00648249
0.00760143
0.00825863
0.00832321
0.00820684
0.00832292
0.00900216
0.0126217
0.00981762
0.00875413
0.00928344
0.0103842
0.0111853
0.0114416
0.0114225
0.0114984
0.0120098
0.0147799
0.0124063
0.0114701
0.0119014
0.0129182
0.0137736
0.0141692
0.0142482
0.0143165
0.0146959
0.0168916
0.0148764
0.01403
0.0143493
0.0152391
0.0160703
0.0165385
0.0166965
0.0167797
0.0170716
0.0189269
0.0172306
0.0164448
0.0166397
0.0173754
0.0181337
0.0186159
0.0188171
0.0189126
0.0191508
0.0208262
0.0194231
0.0186928
0.0187633
0.0193326
0.0199864
0.0204415
0.0206586
0.0207692
0.0209852
0.0225518
0.0214238
0.0207594
0.0207207
0.0211254
0.0216571
0.02206
0.0222701
0.0223827
0.0225671
0.024141
0.0232566
0.0226681
0.0225414
0.0227908
0.023186
0.0235117
0.0236868
0.0237765
0.0239146
0.0255548
0.024886
0.0243859
0.0242029
0.0243167
0.0245736
0.0248049
0.0249273
0.0249817
0.0250713
0.0267949
0.0263107
0.0259026
0.0256883
0.0256859
0.025808
0.0259358
0.0259961
0.0260071
0.0260422
0.0278705
0.0275495
0.0272374
0.0270155
0.0269183
0.0269113
0.0269255
0.0269095
0.0268676
0.0268462
0.0287089
0.0285239
0.0283157
0.0281257
0.0279826
0.0278819
0.0277951
0.0276978
0.027594
0.0275138
0.0291625
0.0290423
0.0289022
0.0287569
0.0286191
0.0284902
0.0283612
0.0282255
0.0280889
0.0279711
0.0296401
0.0292991
0.0290222
0.0288136
0.0286601
0.0285419
0.02844
0.0283431
0.0282493
0.0281638
0.0297192
0.0293669
0.0290764
0.0288515
0.028684
0.0285607
0.0284671
0.0283919
0.028326
0.0282645
)
;

boundaryField
{
    outlet
    {
        type            fixedValue;
        value           nonuniform 0();
    }
    upperWall
    {
        type            symmetryPlane;
    }
    lowerWall
    {
        type            symmetryPlane;
    }
    inlet
    {
        type            zeroGradient;
    }
    cylinder
    {
        type            zeroGradient;
    }
    frontAndBack
    {
        type            empty;
    }
    procBoundary5to1
    {
        type            processor;
        value           nonuniform List<scalar> 
20
(
-1.00151
-0.971053
-0.998219
0.218133
0.230905
0.245084
0.260792
0.278095
0.296941
0.317215
0.33881
0.361636
0.385639
0.41072
0.436567
0.462691
0.488164
0.511566
0.530071
0.541457
)
;
    }
    procBoundary5to4
    {
        type            processor;
        value           nonuniform List<scalar> 
45
(
0.203542
0.197229
0.187466
0.187466
0.168531
0.153907
0.153907
0.136671
0.136671
0.121177
0.121177
0.1064
0.0917234
0.0917234
0.0795345
0.0669286
0.0557508
0.0476685
0.0410856
0.0354608
0.0307356
0.0267163
0.0234479
0.0210294
0.0193896
0.0184683
0.0180186
0.0179079
0.018112
0.0185926
0.0193305
0.0202507
0.021257
0.0222981
0.02333
0.0243271
0.0252633
0.0262017
0.0270854
0.027909
0.0286368
0.0292268
0.0295893
0.0306509
0.0307509
)
;
    }
    procBoundary5to6
    {
        type            processor;
        value           nonuniform List<scalar> 
63
(
-0.48619
-0.560629
-0.48619
-0.445542
-0.381637
-0.381637
-0.34478
-0.295123
-0.295123
-0.2637
-0.233708
-0.201834
-0.201834
-0.176988
-0.155472
-0.129341
-1.03842
-1.03842
-1.03326
-0.949689
-0.851845
-0.75856
-0.75856
-0.655152
-0.655152
-0.623891
-0.623891
-0.651579
-0.651579
-0.6281
-0.6281
-0.560629
-0.129341
-0.104922
-0.0859327
-0.0712283
-0.0712283
-0.0558531
-0.0429152
-0.0328258
-0.0243062
-0.016572
-0.0100258
-0.00465999
0.000122988
0.00439043
0.0079734
0.0110863
0.0137468
0.0163113
0.0180556
0.0197664
0.0216037
0.022618
0.0237347
0.0247884
0.0255537
0.0262524
0.0268208
0.0272349
0.0275377
0.027694
0.0278137
)
;
    }
}


// ************************************************************************* //
