/*--------------------------------*- C++ -*----------------------------------*\
| =========                 |                                                 |
| \\      /  F ield         | OpenFOAM: The Open Source CFD Toolbox           |
|  \\    /   O peration     | Version:                                        |
|   \\  /    A nd           | Website:  www.openfoam.com                      |
|    \\/     M anipulation  |                                                 |
\*---------------------------------------------------------------------------*/
FoamFile
{
    version     2.0;
    format      ascii;
    class       volVectorField;
    location    "115";
    object      U;
}
// * * * * * * * * * * * * * * * * * * * * * * * * * * * * * * * * * * * * * //

dimensions      [0 1 -1 0 0 0 0];


internalField   nonuniform List<vector> 
1164
(
(0.504693 -0.75661 2.37435e-22)
(0.441979 -0.696496 -6.06272e-21)
(0.42102 -0.634883 9.90774e-21)
(0.41318 -0.541082 -3.52994e-21)
(0.41014 -0.421481 8.03593e-21)
(0.409581 -0.305875 3.8237e-20)
(0.549337 -0.792921 -6.92563e-22)
(0.529988 -0.74168 1.30663e-20)
(0.548654 -0.679121 -8.35404e-21)
(0.584187 -0.620588 -1.47333e-20)
(0.624672 -0.538034 -7.64621e-21)
(0.6334 -0.439703 -7.99135e-21)
(0.626816 -0.314766 3.9559e-21)
(0.590372 -0.219557 -1.40905e-21)
(0.592899 -0.124337 3.57757e-21)
(0.590932 -0.108111 -7.39603e-22)
(0.656589 -0.876688 1.70781e-21)
(0.64233 -0.865719 -4.06285e-21)
(0.640339 -0.815337 2.83465e-21)
(0.652076 -0.761956 2.37197e-21)
(0.702926 -0.665664 -3.44951e-21)
(0.756592 -0.594204 -2.8946e-20)
(0.798131 -0.467786 -1.41872e-20)
(0.814377 -0.363511 -4.74364e-21)
(0.795148 -0.202267 -1.61113e-21)
(0.7059 -0.0838686 1.0908e-21)
(0.63502 -0.882815 2.03246e-22)
(0.674559 -0.934208 2.65089e-21)
(0.728724 -0.940779 -1.41739e-21)
(0.780371 -0.94194 9.03661e-21)
(0.818689 -0.882326 2.10946e-20)
(0.842821 -0.817645 4.18677e-20)
(0.886326 -0.717246 -6.77156e-22)
(0.906618 -0.6164 -2.43921e-21)
(0.928267 -0.50058 -1.32494e-20)
(0.885405 -0.338673 -1.61378e-21)
(0.533338 -0.792554 -2.68412e-21)
(0.590749 -0.852177 -3.42821e-22)
(0.700294 -0.891931 -1.70607e-20)
(0.803664 -0.926301 -3.02139e-21)
(0.913631 -0.923739 -1.26426e-20)
(0.996755 -0.892195 -3.73214e-20)
(1.04977 -0.856808 5.92578e-21)
(1.05811 -0.759502 -1.05918e-20)
(1.10019 -0.711161 -9.02452e-21)
(1.04867 -0.565205 -1.38762e-20)
(0.441912 -0.717743 1.37341e-21)
(0.524454 -0.716352 -1.44863e-20)
(0.626661 -0.751066 -7.24585e-21)
(0.747723 -0.74178 4.37042e-21)
(0.901652 -0.787369 -3.29969e-20)
(0.994754 -0.760558 -9.26312e-21)
(1.12086 -0.782004 2.58707e-20)
(1.16763 -0.737725 2.17608e-20)
(1.21514 -0.716362 -1.86186e-20)
(1.18359 -0.679894 -2.35322e-20)
(0.558311 -0.146209 -8.86966e-22)
(0.682356 -0.168565 1.72656e-20)
(0.810688 -0.206569 4.84999e-20)
(0.937857 -0.224558 -3.56874e-20)
(1.05935 -0.316595 5.53085e-21)
(1.14289 -0.336172 -1.12469e-20)
(1.25428 -0.425879 -3.81415e-20)
(1.24856 -0.43937 4.62046e-21)
(1.35815 -0.449003 2.92628e-20)
(1.31897 -0.53175 1.33692e-20)
(0.435314 0.256751 2.64671e-21)
(0.554737 0.286025 -1.06581e-21)
(0.707646 0.309883 -5.27658e-21)
(0.878114 0.298623 1.65021e-20)
(1.06369 0.269049 2.26814e-20)
(1.21646 0.219448 2.82922e-20)
(1.3597 0.136043 -2.43457e-20)
(1.41764 0.043618 4.20821e-20)
(1.53157 0.00427355 -2.883e-20)
(1.47514 -0.135513 -1.92188e-20)
(0.679373 0.567502 -1.69579e-21)
(0.75086 0.584845 -8.90868e-21)
(0.83235 0.599782 -3.81647e-21)
(0.921976 0.588613 4.37553e-21)
(1.00458 0.571456 2.15974e-20)
(1.09515 0.540674 1.0976e-20)
(1.19769 0.47402 3.49417e-20)
(1.28953 0.39127 -3.01475e-20)
(1.39636 0.31206 8.3148e-21)
(1.4267 0.168828 1.90266e-20)
(0.6218 0.736905 -3.7375e-22)
(0.683674 0.754499 3.43531e-21)
(0.759549 0.73242 -1.14584e-20)
(0.882079 0.736443 1.23887e-20)
(0.994673 0.686607 -2.38625e-20)
(1.1156 0.676324 -1.55583e-20)
(1.18509 0.622035 1.6736e-20)
(1.22906 0.592548 -3.46616e-21)
(1.25695 0.542998 2.76398e-20)
(1.27906 0.462437 -1.83373e-21)
(0.610143 0.583682 4.80781e-22)
(0.659447 0.601494 3.33248e-22)
(0.6855 0.566482 -6.44467e-21)
(0.740869 0.568183 2.10505e-21)
(0.798421 0.524002 1.75983e-20)
(0.878283 0.491574 -4.55542e-21)
(0.975202 0.440708 -1.02384e-20)
(1.06343 0.406931 -1.48441e-20)
(1.12689 0.372013 -8.03657e-21)
(1.18046 0.364189 2.66702e-20)
(0.543271 0.813748 -7.95997e-22)
(0.601789 0.822019 4.42914e-21)
(0.648309 0.782957 1.473e-21)
(0.70371 0.765482 -1.70585e-20)
(0.765301 0.713729 -4.67184e-22)
(0.830227 0.65312 -2.85392e-21)
(0.896347 0.580202 3.65235e-21)
(0.951952 0.483546 -1.03291e-21)
(1.02024 0.40132 8.32098e-22)
(1.06837 0.310222 -1.08112e-20)
(0.599023 0.400413 9.59126e-22)
(0.59291 0.431992 -2.29112e-21)
(0.575901 0.421237 1.13055e-21)
(0.575455 0.448545 1.04962e-20)
(0.579474 0.472047 2.25359e-21)
(0.577754 0.486906 7.18282e-21)
(0.605818 0.516602 4.83605e-22)
(0.642211 0.510212 3.2181e-21)
(0.726007 0.517384 5.15212e-21)
(0.818537 0.464893 9.25412e-21)
(0.531578 0.00905305 -1.07172e-21)
(0.55173 0.0649871 3.80755e-21)
(0.568516 0.0599418 5.53607e-21)
(0.6192 0.103504 -1.63402e-21)
(0.672968 0.112646 -6.42824e-21)
(0.712824 0.149575 2.90066e-21)
(0.767345 0.186396 1.36539e-21)
(0.779503 0.230425 -9.1868e-22)
(0.804332 0.289179 -9.15297e-22)
(0.810522 0.344679 -2.12146e-21)
(0.713072 -0.155957 8.14908e-22)
(0.69262 -0.11504 -3.47023e-21)
(0.666665 -0.108874 -1.31078e-21)
(0.66319 -0.0615992 6.31663e-22)
(0.655934 -0.063853 5.69319e-21)
(0.68651 -0.0227859 -2.261e-21)
(0.727029 -0.0240399 1.20381e-21)
(0.776731 0.0131159 2.12489e-21)
(0.859744 0.0227363 -2.07323e-21)
(0.91755 0.0855637 3.9265e-22)
(0.746198 -0.685731 8.72224e-24)
(0.698721 -0.698456 -7.73508e-23)
(0.66729 -0.690532 -8.77682e-21)
(0.643118 -0.680333 1.97338e-21)
(0.612742 -0.684351 4.91942e-21)
(0.616468 -0.642911 9.82388e-22)
(0.609293 -0.649545 -4.83748e-21)
(0.633629 -0.590663 5.39319e-21)
(0.661385 -0.597023 1.49748e-21)
(0.69682 -0.5416 3.18373e-22)
(0.713204 -0.600332 1.98537e-22)
(0.697894 -0.618521 -3.21353e-23)
(0.709653 -0.605284 8.03405e-21)
(0.702401 -0.634834 -6.99204e-21)
(0.725374 -0.618766 -1.37646e-21)
(0.732037 -0.649653 6.7654e-21)
(0.758359 -0.631556 1.27078e-22)
(0.758557 -0.655746 -3.08828e-21)
(0.785972 -0.629657 2.04181e-21)
(0.786174 -0.648977 -1.07747e-21)
(0.664 -0.572703 -2.9778e-22)
(0.638196 -0.563215 -1.25166e-21)
(0.634559 -0.540637 -1.28445e-21)
(0.626401 -0.535013 1.72409e-21)
(0.644328 -0.49954 -4.5132e-21)
(0.662088 -0.507036 -1.17762e-20)
(0.721095 -0.461825 -1.11784e-20)
(0.755922 -0.479369 -4.8189e-21)
(0.823663 -0.42074 -1.95461e-21)
(0.833678 -0.44945 -5.89931e-21)
(0.797903 -0.357532 -4.36291e-22)
(0.804161 -0.324669 3.58368e-21)
(0.8193 -0.295675 -3.23586e-22)
(0.833725 -0.267847 3.76145e-21)
(0.857299 -0.233903 9.74095e-23)
(0.882223 -0.218808 -2.46047e-21)
(0.92091 -0.185594 1.3712e-20)
(0.960767 -0.190928 -2.45813e-21)
(1.01881 -0.153759 -9.01568e-21)
(1.05429 -0.171915 1.75423e-21)
(0.901635 0.370368 3.83763e-22)
(0.933054 0.386018 -1.39853e-21)
(0.958608 0.395223 -4.1753e-21)
(0.990263 0.399699 -4.41649e-21)
(1.01479 0.411136 -6.25569e-22)
(1.04692 0.403459 1.41261e-20)
(1.07686 0.414163 -1.4371e-20)
(1.11495 0.388372 5.98202e-21)
(1.15487 0.393908 1.46943e-20)
(1.19272 0.343424 6.8508e-21)
(0.906464 0.472231 2.01116e-22)
(0.934268 0.474508 -4.30164e-22)
(0.951811 0.489009 3.8694e-21)
(0.979736 0.48862 5.33493e-21)
(0.999386 0.503717 -4.92534e-21)
(1.02974 0.504834 2.68489e-21)
(1.05095 0.518005 8.46919e-21)
(1.08146 0.511761 9.14192e-21)
(1.0993 0.512554 -7.56008e-21)
(1.12763 0.488169 -2.57102e-21)
(0.894898 0.697606 6.22667e-23)
(0.935606 0.691942 -1.16117e-22)
(0.967267 0.697191 -1.58949e-21)
(1.00942 0.689848 -7.10475e-21)
(1.04067 0.690492 4.65997e-21)
(1.0752 0.680101 -3.27259e-21)
(1.09166 0.68112 -2.95281e-21)
(1.10317 0.671626 -7.55451e-21)
(1.10202 0.663086 -1.74787e-21)
(1.10182 0.639605 1.93106e-21)
(0.921517 0.602791 3.51906e-22)
(0.933295 0.606803 -7.24775e-22)
(0.939214 0.610196 -4.51498e-22)
(0.951876 0.609398 7.23304e-21)
(0.958203 0.600213 -4.08613e-21)
(0.9716 0.594854 1.7741e-21)
(0.973157 0.573379 3.74196e-21)
(0.979754 0.567835 -1.35997e-21)
(0.973218 0.545474 -9.92886e-22)
(0.977026 0.535526 -8.83075e-21)
(0.977339 -0.251791 -3.05515e-23)
(0.964512 -0.2384 1.59786e-22)
(0.951437 -0.237454 -1.86415e-21)
(0.941613 -0.219806 -2.5794e-22)
(0.925599 -0.221187 -1.67902e-21)
(0.914822 -0.199706 -5.03411e-21)
(0.890417 -0.206878 3.3887e-21)
(0.87349 -0.185775 2.62862e-23)
(0.849422 -0.19513 6.00928e-21)
(0.821724 -0.18155 8.68736e-21)
(1.00748 -0.428639 2.38466e-23)
(0.995311 -0.418596 -1.48149e-21)
(0.987554 -0.414815 1.83248e-21)
(0.973503 -0.406541 -1.98541e-21)
(0.958515 -0.40331 3.04642e-21)
(0.932085 -0.396706 4.78832e-21)
(0.903729 -0.392226 -5.39913e-21)
(0.868388 -0.385904 -5.44519e-22)
(0.835414 -0.381683 -1.96767e-21)
(0.798623 -0.371803 -5.02415e-21)
(0.98611 -0.606946 8.41297e-24)
(0.955988 -0.606721 6.25195e-22)
(0.931078 -0.606521 3.66661e-22)
(0.902901 -0.610537 1.29466e-22)
(0.882785 -0.609434 6.52042e-22)
(0.857535 -0.613681 -2.25812e-21)
(0.841512 -0.60784 3.0432e-22)
(0.817027 -0.605473 -1.21868e-21)
(0.80211 -0.597365 1.54915e-22)
(0.779409 -0.582539 2.55682e-22)
(0.995488 -0.518022 2.0809e-22)
(0.979644 -0.508413 -5.29244e-22)
(0.970605 -0.494354 -7.73527e-23)
(0.963974 -0.477785 -1.33446e-21)
(0.965289 -0.456614 1.76735e-21)
(0.966229 -0.435051 3.9055e-22)
(0.972259 -0.407154 1.74391e-21)
(0.974381 -0.381543 2.6167e-22)
(0.983279 -0.350995 3.46601e-22)
(0.990322 -0.323306 1.40349e-21)
(1.08709 0.529713 -4.47192e-22)
(1.09356 0.536577 1.06888e-22)
(1.10073 0.540906 1.24435e-21)
(1.10803 0.547534 -8.13453e-23)
(1.11597 0.551704 7.61016e-22)
(1.12383 0.554448 -2.1965e-21)
(1.13127 0.556815 2.00049e-24)
(1.13807 0.556669 4.12639e-22)
(1.14446 0.558917 -1.61202e-22)
(1.14896 0.555312 -2.82094e-22)
(1.08272 0.620983 -8.83003e-23)
(1.09629 0.619018 -1.51863e-22)
(1.10304 0.610483 -2.65392e-22)
(1.10841 0.603709 1.20613e-21)
(1.10702 0.590755 -9.34698e-22)
(1.10453 0.5778 8.6438e-22)
(1.09542 0.559181 -1.05016e-21)
(1.0852 0.541009 5.29636e-22)
(1.06758 0.51624 -3.59452e-22)
(1.05121 0.490795 4.26275e-22)
(1.00546 0.0479066 1.63699e-23)
(1.00358 0.0437432 -4.81841e-23)
(0.997229 0.0352163 9.57977e-24)
(0.989668 0.0296764 1.71244e-22)
(0.977258 0.0198213 -2.98228e-22)
(0.963947 0.0120384 3.36224e-22)
(0.945284 0.000332528 -5.28217e-22)
(0.925907 -0.00985813 6.45177e-22)
(0.902377 -0.0227055 8.21327e-23)
(0.877465 -0.0362544 -3.35719e-22)
(0.727087 -0.110145 0)
(0.871278 -0.1422 0)
(0.974526 -0.143482 0)
(0.991821 -0.112299 0)
(0.984171 -0.0982739 0)
(0.972453 -0.0661718 0)
(0.963397 -0.0549003 0)
(0.959814 -0.0362748 0)
(0.965249 -0.0295922 0)
(0.976901 -0.0205267 0)
(0.98878 -0.0165066 0)
(1.00162 -0.0126428 0)
(1.01053 -0.00900262 0)
(1.01578 -0.00546539 0)
(1.02077 -0.00232891 0)
(1.02399 -0.000558453 0)
(1.02601 0.000618253 0)
(1.0262 0.000872119 0)
(1.02534 0.000965772 0)
(1.02418 0.000699792 0)
(1.02296 0.000477763 0)
(1.02195 0.000225885 0)
(1.02105 -2.50417e-05 0)
(1.02027 -0.000150208 0)
(1.01963 -0.000295951 0)
(1.01906 -0.000301563 0)
(1.01864 -0.000209073 0)
(1.01837 -0.000125407 0)
(0.70837 0.00415135 0)
(0.715483 0.0680421 0)
(0.746675 0.119357 0)
(0.839143 0.117338 0)
(0.918292 0.0805182 0)
(0.961132 0.049678 0)
(0.979115 0.0342406 0)
(0.996593 0.0162274 0)
(1.00645 0.00868217 0)
(1.01882 0.00474933 0)
(1.02111 0.00736731 0)
(1.02488 0.0104887 0)
(1.02603 0.014082 0)
(1.02491 0.0176868 0)
(1.02253 0.0183172 0)
(1.02048 0.0183841 0)
(1.01893 0.0158846 0)
(1.01984 0.0131857 0)
(1.02096 0.00989177 0)
(1.02162 0.00749884 0)
(1.02168 0.00540022 0)
(1.0212 0.00389055 0)
(1.02064 0.0025835 0)
(1.01998 0.00156911 0)
(1.01932 0.000802041 0)
(1.01875 0.000300519 0)
(1.01824 -3.52252e-05 0)
(1.0178 -0.000161245 0)
(1.01747 -0.000141706 0)
(1.01726 -0.000100697 0)
(0.915569 -0.208175 0)
(0.886273 -0.141143 0)
(0.835657 -0.071537 0)
(0.833963 -0.0449176 0)
(0.879544 -0.0124815 0)
(0.933384 -0.0225247 0)
(0.94445 -0.0130115 0)
(0.948089 -0.0273256 0)
(0.951394 -0.0190741 0)
(0.962131 -0.0258636 0)
(0.974511 -0.0211382 0)
(0.984352 -0.0219887 0)
(0.995019 -0.018255 0)
(1.00359 -0.0179585 0)
(1.00958 -0.0131389 0)
(1.01315 -0.00942219 0)
(1.01691 -0.0041517 0)
(1.01988 -0.00124045 0)
(1.02217 0.000812617 0)
(1.02326 0.00113767 0)
(1.02318 0.00122244 0)
(1.02272 0.000919488 0)
(1.02204 0.000643132 0)
(1.02138 0.000386782 0)
(1.02077 8.65814e-05 0)
(1.02016 -7.93608e-05 0)
(1.01963 -0.000248226 0)
(1.01914 -0.000283249 0)
(1.01875 -0.000201622 0)
(1.01852 -0.000120176 0)
(1.04613 -0.485248 0)
(1.02941 -0.3859 0)
(0.959265 -0.335505 0)
(0.906429 -0.257182 0)
(0.919187 -0.165522 0)
(0.940795 -0.116972 0)
(0.964336 -0.112177 0)
(0.978066 -0.0899183 0)
(1.0061 -0.0789069 0)
(1.01583 -0.0529195 0)
(1.02566 -0.0375701 0)
(1.0322 -0.0168566 0)
(1.03392 -0.00539783 0)
(1.03467 0.00610847 0)
(1.0331 0.0091985 0)
(1.03 0.0124761 0)
(1.0265 0.0117553 0)
(1.02436 0.0113823 0)
(1.02349 0.00924285 0)
(1.0227 0.00747913 0)
(1.02206 0.00549236 0)
(1.02117 0.0038655 0)
(1.02037 0.00249465 0)
(1.01966 0.00141082 0)
(1.01903 0.000650331 0)
(1.01853 0.000174225 0)
(1.01812 -0.000135872 0)
(1.01776 -0.00022901 0)
(1.01749 -0.000181674 0)
(1.01732 -0.000113801 0)
(1.20951 -0.586704 0)
(1.21937 -0.478449 0)
(1.17841 -0.444943 0)
(1.13877 -0.318985 0)
(1.10429 -0.203543 0)
(1.02294 -0.126747 0)
(0.974924 -0.0865068 0)
(0.978148 -0.0486158 0)
(0.995178 -0.0338598 0)
(1.00679 -0.0234331 0)
(1.01547 -0.0156642 0)
(1.01409 -0.015438 0)
(1.01596 -0.0115239 0)
(1.01414 -0.0128576 0)
(1.01354 -0.00835642 0)
(1.01429 -0.00638384 0)
(1.0151 -0.00141949 0)
(1.01692 0.000762831 0)
(1.0183 0.00239862 0)
(1.01965 0.00228974 0)
(1.02028 0.00189119 0)
(1.02055 0.00132732 0)
(1.02057 0.00079741 0)
(1.0204 0.000410641 0)
(1.02016 1.66219e-05 0)
(1.01983 -0.000202807 0)
(1.01948 -0.000371814 0)
(1.01915 -0.000391597 0)
(1.01887 -0.000273607 0)
(1.0187 -0.000144966 0)
(1.33531 -0.42856 0)
(1.36772 -0.403758 0)
(1.382 -0.360743 0)
(1.37756 -0.290186 0)
(1.32646 -0.248927 0)
(1.1996 -0.232809 0)
(1.121 -0.19776 0)
(1.08598 -0.1572 0)
(1.05289 -0.116355 0)
(1.05086 -0.0817758 0)
(1.04094 -0.0575327 0)
(1.04298 -0.0322639 0)
(1.03981 -0.0196549 0)
(1.03974 -0.00613296 0)
(1.0398 -0.00265723 0)
(1.03606 0.00254141 0)
(1.03242 0.00386286 0)
(1.02784 0.00576096 0)
(1.02479 0.00567045 0)
(1.02252 0.00500423 0)
(1.02113 0.00373964 0)
(1.02008 0.00242328 0)
(1.0193 0.00134819 0)
(1.01878 0.000493003 0)
(1.01837 -6.22711e-05 0)
(1.01809 -0.000347282 0)
(1.01787 -0.000520512 0)
(1.01767 -0.000493869 0)
(1.01751 -0.000336507 0)
(1.01741 -0.000166725 0)
(1.54413 -0.0850799 0)
(1.55953 -0.0761691 0)
(1.48255 -0.0435124 0)
(1.38313 -0.0324306 0)
(1.23836 -0.0252645 0)
(1.15722 -0.0272729 0)
(1.12324 0.000733257 0)
(1.12249 -0.00422821 0)
(1.11861 0.0173372 0)
(1.0979 0.01406 0)
(1.08318 0.0191569 0)
(1.06319 0.0130436 0)
(1.0477 0.0122784 0)
(1.03423 0.0080767 0)
(1.02471 0.00797576 0)
(1.02165 0.00651126 0)
(1.01885 0.00687704 0)
(1.01817 0.00625419 0)
(1.01765 0.00554678 0)
(1.01816 0.00425511 0)
(1.01882 0.00291938 0)
(1.01944 0.00181433 0)
(1.01987 0.000867764 0)
(1.01999 0.000236823 0)
(1.01995 -0.00027315 0)
(1.01977 -0.000541342 0)
(1.01954 -0.000678918 0)
(1.01931 -0.000634384 0)
(1.01909 -0.000428223 0)
(1.01896 -0.000197414 0)
(1.51331 0.100015 0)
(1.47002 0.0658764 0)
(1.45707 0.0113134 0)
(1.39711 -0.0309007 0)
(1.30429 -0.0509438 0)
(1.22762 -0.0589637 0)
(1.13557 -0.0321744 0)
(1.10773 -0.0302178 0)
(1.07019 -0.0172118 0)
(1.05017 -0.0189198 0)
(1.03652 -0.0103176 0)
(1.03428 -0.0127137 0)
(1.03005 -0.00844037 0)
(1.03292 -0.00874205 0)
(1.0352 -0.00733285 0)
(1.03401 -0.00527287 0)
(1.03218 -0.0030799 0)
(1.02748 -0.000785963 0)
(1.02369 0.000535102 0)
(1.02077 0.000819842 0)
(1.01926 0.00054738 0)
(1.01853 -7.25733e-05 0)
(1.01815 -0.000500918 0)
(1.01803 -0.000844037 0)
(1.01795 -0.0010429 0)
(1.0179 -0.00104702 0)
(1.01785 -0.00102638 0)
(1.01776 -0.00084178 0)
(1.01766 -0.000540971 0)
(1.01759 -0.000234528 0)
(1.32503 0.371829 0)
(1.27916 0.344275 0)
(1.26874 0.249672 0)
(1.22742 0.227692 0)
(1.21213 0.142814 0)
(1.20845 0.120239 0)
(1.20999 0.072569 0)
(1.15766 0.083913 0)
(1.14753 0.0541565 0)
(1.11122 0.0662199 0)
(1.09895 0.0471491 0)
(1.07129 0.0514801 0)
(1.05947 0.0416588 0)
(1.043 0.0387633 0)
(1.03332 0.0312914 0)
(1.02902 0.0247414 0)
(1.02453 0.0179046 0)
(1.02214 0.0129252 0)
(1.01983 0.00882464 0)
(1.01905 0.00606839 0)
(1.01915 0.00368078 0)
(1.01949 0.002068 0)
(1.0199 0.000747246 0)
(1.02002 -0.000107919 0)
(1.02002 -0.000676584 0)
(1.01993 -0.000952145 0)
(1.01978 -0.00102734 0)
(1.01963 -0.000892678 0)
(1.01948 -0.000591993 0)
(1.01939 -0.000250469 0)
(1.18166 0.304599 0)
(1.14002 0.286288 0)
(1.17357 0.253762 0)
(1.09142 0.239269 0)
(1.07722 0.216485 0)
(1.04667 0.203603 0)
(1.07501 0.166324 0)
(1.04549 0.144418 0)
(1.05386 0.0945849 0)
(1.02641 0.0750741 0)
(1.01434 0.045799 0)
(1.01123 0.0244194 0)
(1.00522 0.0114809 0)
(1.00966 -0.000875087 0)
(1.01339 -0.00383206 0)
(1.01618 -0.00680188 0)
(1.01819 -0.00588067 0)
(1.01724 -0.00558134 0)
(1.01572 -0.0042204 0)
(1.01477 -0.00366942 0)
(1.01461 -0.00292213 0)
(1.01523 -0.00260304 0)
(1.01593 -0.00227991 0)
(1.01661 -0.00203741 0)
(1.01715 -0.00190727 0)
(1.01749 -0.00167032 0)
(1.01773 -0.00147579 0)
(1.01784 -0.00116175 0)
(1.01788 -0.000733137 0)
(1.01787 -0.000296288 0)
(1.09767 0.232815 0)
(1.07937 0.205337 0)
(1.14946 0.139279 0)
(1.09146 0.108438 0)
(1.14919 0.0788037 0)
(1.08007 0.0769772 0)
(1.07801 0.0803815 0)
(1.02042 0.0938315 0)
(1.01571 0.0774671 0)
(1.0268 0.0793071 0)
(1.03064 0.06666 0)
(1.03119 0.0662863 0)
(1.03576 0.0571889 0)
(1.031 0.0536241 0)
(1.03039 0.0418836 0)
(1.02878 0.0328561 0)
(1.02724 0.0216106 0)
(1.02546 0.0143079 0)
(1.02358 0.00838553 0)
(1.0219 0.00515343 0)
(1.02116 0.00263035 0)
(1.02071 0.00102228 0)
(1.02055 -0.000165175 0)
(1.02041 -0.000950442 0)
(1.02027 -0.00136656 0)
(1.0202 -0.00150589 0)
(1.02013 -0.00145855 0)
(1.02006 -0.0011939 0)
(1.02 -0.000775954 0)
(1.01995 -0.000309415 0)
(0.885647 0.400476 0)
(0.913392 0.389494 0)
(0.952452 0.325969 0)
(0.945576 0.310755 0)
(1.03963 0.240802 0)
(1.05146 0.207692 0)
(1.13131 0.154168 0)
(1.04156 0.140336 0)
(1.03396 0.105567 0)
(0.999762 0.0900188 0)
(0.989734 0.0545771 0)
(0.983217 0.0401833 0)
(0.983405 0.0200119 0)
(0.984836 0.00773666 0)
(0.986773 0.00272302 0)
(0.991507 -0.00259552 0)
(0.996575 -0.00403777 0)
(1.00152 -0.00618972 0)
(1.00491 -0.00606677 0)
(1.00796 -0.00566295 0)
(1.01041 -0.00455363 0)
(1.01274 -0.00362359 0)
(1.01458 -0.00299382 0)
(1.01591 -0.0025099 0)
(1.01689 -0.00230295 0)
(1.0175 -0.00203374 0)
(1.0179 -0.00177077 0)
(1.01813 -0.00139625 0)
(1.01823 -0.00088443 0)
(1.01827 -0.000345383 0)
(0.802537 0.350137 0)
(0.831951 0.350686 0)
(0.8504 0.351905 0)
(0.862917 0.36824 0)
(0.876218 0.357226 0)
(0.860342 0.332992 0)
(0.905806 0.275343 0)
(0.884945 0.196678 0)
(0.927114 0.136932 0)
(0.945217 0.0812923 0)
(0.952271 0.0597844 0)
(0.980532 0.0393064 0)
(0.987601 0.0293616 0)
(1.00451 0.0245727 0)
(1.01496 0.0166904 0)
(1.02108 0.0135359 0)
(1.02476 0.00763337 0)
(1.02639 0.00423656 0)
(1.02655 0.00110579 0)
(1.02519 -0.000296828 0)
(1.02374 -0.00120832 0)
(1.02246 -0.00178623 0)
(1.02154 -0.00207803 0)
(1.0211 -0.00229532 0)
(1.02081 -0.00230808 0)
(1.02074 -0.002149 0)
(1.02073 -0.00191983 0)
(1.02072 -0.00150526 0)
(1.02071 -0.000959403 0)
(1.0207 -0.000369831 0)
(0.929801 0.0917987 0)
(0.967879 0.0825394 0)
(1.00408 0.0937375 0)
(1.02274 0.0922779 0)
(0.996715 0.108171 0)
(0.925909 0.108964 0)
(0.819137 0.118989 0)
(0.751373 0.0967851 0)
(0.778302 0.101209 0)
(0.854227 0.0667524 0)
(0.919937 0.0597882 0)
(0.942795 0.0337103 0)
(0.972429 0.0266163 0)
(0.97439 0.0116306 0)
(0.976782 0.00846172 0)
(0.979431 0.00172269 0)
(0.983629 7.06091e-05 0)
(0.991372 -0.00251629 0)
(0.998515 -0.00299137 0)
(1.00469 -0.00303772 0)
(1.009 -0.00269301 0)
(1.01201 -0.00228239 0)
(1.01421 -0.00228613 0)
(1.01567 -0.0022693 0)
(1.01677 -0.00232363 0)
(1.01757 -0.00224231 0)
(1.01812 -0.00200842 0)
(1.01851 -0.00160793 0)
(1.01874 -0.00103298 0)
(1.01884 -0.000392791 0)
(0.747354 -0.532032 0)
(0.778341 -0.538193 0)
(0.827678 -0.539162 0)
(0.840394 -0.563238 0)
(0.865524 -0.58216 0)
(0.853199 -0.578719 0)
(0.831862 -0.553428 0)
(0.825099 -0.460178 0)
(0.853571 -0.345675 0)
(0.870614 -0.241482 0)
(0.881618 -0.188176 0)
(0.913227 -0.13023 0)
(0.9394 -0.0997282 0)
(0.971502 -0.0678893 0)
(0.99719 -0.050712 0)
(1.01061 -0.0335516 0)
(1.0203 -0.0234639 0)
(1.02368 -0.0157773 0)
(1.02516 -0.011129 0)
(1.02449 -0.00841491 0)
(1.02308 -0.00651426 0)
(1.02194 -0.00549527 0)
(1.02109 -0.0046467 0)
(1.02084 -0.00407644 0)
(1.02087 -0.00365026 0)
(1.02102 -0.00314047 0)
(1.02124 -0.00265726 0)
(1.0214 -0.00203489 0)
(1.02151 -0.00127622 0)
(1.02156 -0.00047426 0)
(0.809892 -0.62033 0)
(0.848586 -0.587268 0)
(0.894153 -0.582529 0)
(0.935519 -0.548373 0)
(0.978423 -0.526647 0)
(1.03981 -0.452947 0)
(1.12556 -0.40047 0)
(1.17679 -0.284368 0)
(1.20378 -0.218969 0)
(1.15643 -0.135713 0)
(1.12525 -0.0986137 0)
(1.09345 -0.0555252 0)
(1.07097 -0.0316283 0)
(1.04604 -0.0113349 0)
(1.02505 -0.00162288 0)
(1.01464 0.00469953 0)
(1.00734 0.00664835 0)
(1.00735 0.00716828 0)
(1.0093 0.00512972 0)
(1.01172 0.00327472 0)
(1.01366 0.00101293 0)
(1.0148 -0.000550955 0)
(1.01581 -0.00184827 0)
(1.01667 -0.00266588 0)
(1.01743 -0.00300772 0)
(1.01818 -0.00301492 0)
(1.01877 -0.00272263 0)
(1.01923 -0.00216249 0)
(1.01953 -0.00138793 0)
(1.01968 -0.000514274 0)
(0.893993 -0.384909 0)
(0.976345 -0.339812 0)
(1.05533 -0.286559 0)
(1.12252 -0.231895 0)
(1.19189 -0.170675 0)
(1.25974 -0.122039 0)
(1.26839 -0.0799041 0)
(1.25706 -0.069263 0)
(1.19551 -0.054755 0)
(1.12737 -0.0775617 0)
(1.05991 -0.053652 0)
(1.04244 -0.0762478 0)
(1.02323 -0.0545108 0)
(1.02069 -0.0606192 0)
(1.01937 -0.0461147 0)
(1.01869 -0.0395045 0)
(1.01846 -0.027643 0)
(1.01774 -0.020433 0)
(1.01727 -0.0140284 0)
(1.01777 -0.0109235 0)
(1.01816 -0.0087031 0)
(1.01891 -0.00750944 0)
(1.0196 -0.00664081 0)
(1.0203 -0.00584757 0)
(1.02104 -0.00526302 0)
(1.02163 -0.00454677 0)
(1.02211 -0.00377934 0)
(1.02246 -0.0028748 0)
(1.02266 -0.0017934 0)
(1.02276 -0.000650471 0)
(1.13163 -0.129664 0)
(1.19753 -0.0980285 0)
(1.25744 -0.0594298 0)
(1.29256 -0.0354607 0)
(1.32325 0.00382261 0)
(1.31977 0.000908794 0)
(1.29758 0.0227635 0)
(1.27776 0.00107728 0)
(1.20628 0.0135824 0)
(1.20709 -0.010819 0)
(1.13564 0.013264 0)
(1.12383 0.0150376 0)
(1.10273 0.0207704 0)
(1.07974 0.0288378 0)
(1.06713 0.024322 0)
(1.0531 0.0236548 0)
(1.04109 0.0165879 0)
(1.03063 0.0122796 0)
(1.02375 0.00641561 0)
(1.01922 0.00218888 0)
(1.01729 -0.0013251 0)
(1.01655 -0.00365061 0)
(1.01661 -0.00487009 0)
(1.01729 -0.00549001 0)
(1.01807 -0.00545652 0)
(1.01895 -0.0050002 0)
(1.01976 -0.00429276 0)
(1.02038 -0.00329183 0)
(1.02082 -0.0020728 0)
(1.02104 -0.000747536 0)
(1.2302 0.350451 0)
(1.26109 0.341746 0)
(1.28981 0.326265 0)
(1.30396 0.31721 0)
(1.29885 0.291493 0)
(1.27824 0.273845 0)
(1.24925 0.236085 0)
(1.21618 0.215845 0)
(1.15924 0.179769 0)
(1.12963 0.148496 0)
(1.12957 0.104284 0)
(1.05967 0.0909864 0)
(1.05454 0.0538499 0)
(1.02392 0.0326553 0)
(1.00812 0.0192162 0)
(1.00272 0.00646429 0)
(1.0004 0.00175581 0)
(1.00267 -0.00275232 0)
(1.00528 -0.0046465 0)
(1.00926 -0.00634784 0)
(1.01302 -0.00757755 0)
(1.01604 -0.00805394 0)
(1.01858 -0.00834086 0)
(1.02029 -0.0080178 0)
(1.02166 -0.00743111 0)
(1.0227 -0.00657342 0)
(1.02346 -0.00545579 0)
(1.02401 -0.00412728 0)
(1.02435 -0.0025756 0)
(1.02451 -0.000914027 0)
(1.15081 0.464612 0)
(1.1693 0.452573 0)
(1.18104 0.431875 0)
(1.17964 0.399388 0)
(1.1698 0.354401 0)
(1.15033 0.32815 0)
(1.11307 0.259358 0)
(1.05201 0.229642 0)
(1.0345 0.158453 0)
(0.944634 0.131267 0)
(0.9851 0.0694774 0)
(0.965472 0.0561496 0)
(0.97368 0.0216222 0)
(0.993651 0.0107566 0)
(1.01237 -0.00494302 0)
(1.01818 -0.0105425 0)
(1.0205 -0.0158316 0)
(1.0174 -0.0173982 0)
(1.01478 -0.0171136 0)
(1.01341 -0.0161569 0)
(1.01353 -0.0145077 0)
(1.01488 -0.0133014 0)
(1.01634 -0.0119767 0)
(1.0179 -0.0107061 0)
(1.01935 -0.00950512 0)
(1.02055 -0.00807728 0)
(1.02158 -0.00658642 0)
(1.02234 -0.00491059 0)
(1.02284 -0.00304034 0)
(1.02309 -0.00107135 0)
(1.08857 0.630224 0)
(1.0731 0.615692 0)
(1.05305 0.591459 0)
(1.0371 0.56821 0)
(1.01607 0.523785 0)
(0.993663 0.49321 0)
(0.973823 0.432966 0)
(0.920626 0.383989 0)
(0.964536 0.313538 0)
(0.932564 0.254696 0)
(1.00737 0.193387 0)
(0.984532 0.144437 0)
(1.00162 0.102971 0)
(0.990933 0.0780683 0)
(0.991466 0.0500643 0)
(0.996227 0.0317441 0)
(1.00134 0.0144184 0)
(1.00771 0.00357956 0)
(1.01238 -0.00429488 0)
(1.01549 -0.00810082 0)
(1.01817 -0.0106249 0)
(1.02001 -0.0115064 0)
(1.02169 -0.011643 0)
(1.02313 -0.0112302 0)
(1.02428 -0.0102435 0)
(1.02532 -0.00892439 0)
(1.02615 -0.00733646 0)
(1.02676 -0.00548292 0)
(1.02717 -0.0034087 0)
(1.02737 -0.00119243 0)
(0.973849 0.501467 0)
(0.961792 0.468159 0)
(0.945992 0.427121 0)
(0.912605 0.379268 0)
(0.880493 0.333362 0)
(0.816335 0.268107 0)
(0.773306 0.213149 0)
(0.684097 0.140709 0)
(0.664217 0.0839338 0)
(0.619776 0.0225214 0)
(0.696979 -0.0135617 0)
(0.757877 -0.0431268 0)
(0.826916 -0.0538775 0)
(0.878399 -0.0629728 0)
(0.918368 -0.0603466 0)
(0.946634 -0.0553921 0)
(0.968084 -0.0468007 0)
(0.983921 -0.0400497 0)
(0.994759 -0.0330031 0)
(1.00298 -0.0279349 0)
(1.00848 -0.0234677 0)
(1.01281 -0.0199755 0)
(1.01627 -0.0174299 0)
(1.01886 -0.0150385 0)
(1.02105 -0.012972 0)
(1.02274 -0.0108618 0)
(1.02405 -0.00868747 0)
(1.02502 -0.00640205 0)
(1.02563 -0.00393893 0)
(1.02594 -0.00136741 0)
(0.802962 -0.191922 0)
(0.778448 -0.226649 0)
(0.755361 -0.249675 0)
(0.710098 -0.284427 0)
(0.666438 -0.307854 0)
(0.603641 -0.345344 0)
(0.569183 -0.362868 0)
(0.548387 -0.370995 0)
(0.592307 -0.348046 0)
(0.665817 -0.303753 0)
(0.794943 -0.233312 0)
(0.896744 -0.162158 0)
(0.940929 -0.105856 0)
(0.977564 -0.0576794 0)
(1.00451 -0.040888 0)
(1.02041 -0.0250617 0)
(1.02807 -0.0223941 0)
(1.03043 -0.0191749 0)
(1.03097 -0.019568 0)
(1.02972 -0.0193993 0)
(1.02849 -0.0190305 0)
(1.02796 -0.0184947 0)
(1.02771 -0.0171558 0)
(1.02815 -0.0156004 0)
(1.02877 -0.0137785 0)
(1.02945 -0.0116334 0)
(1.03013 -0.00937298 0)
(1.03064 -0.00690558 0)
(1.03099 -0.00425422 0)
(1.03116 -0.00147315 0)
(0.76738 -0.375616 0)
(0.738661 -0.376668 0)
(0.713581 -0.373096 0)
(0.686892 -0.363746 0)
(0.671022 -0.345469 0)
(0.667798 -0.317835 0)
(0.70118 -0.276014 0)
(0.763708 -0.229771 0)
(0.847598 -0.172655 0)
(0.946825 -0.13685 0)
(1.03237 -0.0831079 0)
(1.0747 -0.0819123 0)
(1.06881 -0.0482101 0)
(1.02412 -0.0494755 0)
(0.993886 -0.0317416 0)
(0.984712 -0.0299611 0)
(0.982478 -0.0233028 0)
(0.98937 -0.0219322 0)
(0.996912 -0.0211582 0)
(1.00433 -0.0204556 0)
(1.01095 -0.0205638 0)
(1.01566 -0.0196341 0)
(1.01953 -0.0184743 0)
(1.02254 -0.0169235 0)
(1.02481 -0.0148843 0)
(1.02665 -0.0126176 0)
(1.028 -0.010123 0)
(1.02898 -0.00743953 0)
(1.0296 -0.00457724 0)
(1.0299 -0.0015764 0)
(0.763394 -0.572728 0)
(0.75499 -0.556509 0)
(0.76197 -0.525953 0)
(0.779324 -0.489496 0)
(0.8045 -0.442052 0)
(0.832261 -0.387322 0)
(0.862552 -0.322353 0)
(0.888672 -0.261824 0)
(0.90394 -0.192945 0)
(0.951325 -0.146775 0)
(0.950172 -0.100789 0)
(0.997203 -0.0985742 0)
(0.992043 -0.0913683 0)
(1.00962 -0.0860097 0)
(1.02525 -0.0799729 0)
(1.02945 -0.069862 0)
(1.03248 -0.0596142 0)
(1.03149 -0.0512106 0)
(1.02922 -0.0424695 0)
(1.02877 -0.0371497 0)
(1.02871 -0.0323135 0)
(1.02955 -0.0282203 0)
(1.03082 -0.0248047 0)
(1.03195 -0.0213097 0)
(1.0331 -0.0180835 0)
(1.03403 -0.0148837 0)
(1.03477 -0.0116938 0)
(1.03531 -0.008491 0)
(1.03563 -0.00517515 0)
(1.03579 -0.00177349 0)
(1.01354 -0.289899 0)
(1.0377 -0.244821 0)
(1.06749 -0.199523 0)
(1.09555 -0.152976 0)
(1.12326 -0.106754 0)
(1.14777 -0.061773 0)
(1.1761 -0.021452 0)
(1.2021 0.0161572 0)
(1.22505 0.0467502 0)
(1.23749 0.0688953 0)
(1.1598 0.0900562 0)
(1.13413 0.0823234 0)
(1.12999 0.0603244 0)
(1.07749 0.0635665 0)
(1.06162 0.0312875 0)
(1.04402 0.020901 0)
(1.03515 0.000900735 0)
(1.02828 -0.00937466 0)
(1.02571 -0.0184452 0)
(1.02462 -0.0230194 0)
(1.02509 -0.024632 0)
(1.02674 -0.024808 0)
(1.02837 -0.0234205 0)
(1.03007 -0.0212212 0)
(1.03156 -0.0185599 0)
(1.03275 -0.0154912 0)
(1.03372 -0.0122944 0)
(1.03439 -0.00895208 0)
(1.03483 -0.00546629 0)
(1.03504 -0.00187369 0)
(1.15455 0.557137 0)
(1.15704 0.559662 0)
(1.1577 0.550584 0)
(1.15361 0.542742 0)
(1.14676 0.524631 0)
(1.13301 0.500239 0)
(1.11843 0.462381 0)
(1.10219 0.416687 0)
(1.08341 0.354457 0)
(1.05604 0.264056 0)
(1.02368 0.205322 0)
(0.916584 0.104447 0)
(0.966059 0.0526948 0)
(0.930967 -0.00385676 0)
(0.936373 -0.0219572 0)
(0.956582 -0.0361398 0)
(0.975276 -0.0418858 0)
(0.993449 -0.0415891 0)
(1.00771 -0.0422494 0)
(1.01786 -0.0397412 0)
(1.02585 -0.0372715 0)
(1.0314 -0.0338014 0)
(1.03527 -0.0298986 0)
(1.03791 -0.0259473 0)
(1.03954 -0.0219074 0)
(1.04059 -0.0179211 0)
(1.04122 -0.0140003 0)
(1.04157 -0.0100867 0)
(1.04173 -0.0061229 0)
(1.04179 -0.00208759 0)
(1.03375 0.46541 0)
(1.0129 0.432453 0)
(0.986933 0.397176 0)
(0.957425 0.354212 0)
(0.920237 0.308107 0)
(0.874999 0.252453 0)
(0.820437 0.195078 0)
(0.759997 0.122597 0)
(0.688905 0.0622173 0)
(0.615036 -0.0304444 0)
(0.625942 -0.07895 0)
(0.645554 -0.144862 0)
(0.769016 -0.152971 0)
(0.864742 -0.169453 0)
(0.939226 -0.150586 0)
(0.982512 -0.133144 0)
(1.00274 -0.111167 0)
(1.01481 -0.0925257 0)
(1.02172 -0.0765681 0)
(1.0271 -0.0630902 0)
(1.03137 -0.0525006 0)
(1.03454 -0.043487 0)
(1.03703 -0.0362672 0)
(1.03873 -0.0300816 0)
(1.0399 -0.0246947 0)
(1.04068 -0.0198333 0)
(1.04118 -0.0152963 0)
(1.04147 -0.0109426 0)
(1.04162 -0.00661166 0)
(1.04167 -0.00224832 0)
(0.852053 -0.0492474 0)
(0.826579 -0.0663138 0)
(0.796916 -0.0828897 0)
(0.765128 -0.102297 0)
(0.73151 -0.120257 0)
(0.698068 -0.141983 0)
(0.665576 -0.158451 0)
(0.642879 -0.179388 0)
(0.629871 -0.184313 0)
(0.6491 -0.193876 0)
(0.706396 -0.173656 0)
(0.786761 -0.16393 0)
(0.900398 -0.138579 0)
(0.978679 -0.123638 0)