/*--------------------------------*- C++ -*----------------------------------*\
| =========                 |                                                 |
| \\      /  F ield         | OpenFOAM: The Open Source CFD Toolbox           |
|  \\    /   O peration     | Version:                                        |
|   \\  /    A nd           | Website:  www.openfoam.com                      |
|    \\/     M anipulation  |                                                 |
\*---------------------------------------------------------------------------*/
FoamFile
{
    version     2.0;
    format      ascii;
    class       surfaceScalarField;
    location    "63.7";
    object      phi;
}
// * * * * * * * * * * * * * * * * * * * * * * * * * * * * * * * * * * * * * //

dimensions      [0 3 -1 0 0 0 0];
oriented        oriented;


internalField   nonuniform List<scalar> 
2213
(
-0.00184006
-0.00022259
0.00206265
-0.00375333
0.00188272
3.05517e-05
-0.00489284
0.00461067
-0.00347116
-0.00532699
0.0072568
-0.00682265
-0.00326094
0.00721241
-0.00927846
0.0050364
-0.00130224
-0.00699511
0.0155467
-0.0112577
0.000747466
0.0254382
-0.0193725
0.00948087
0.0324528
-0.024611
0.0175965
-0.0273603
-0.00115533
0.000932742
-0.00233244
0.00305982
-0.00283556
0.0051138
-0.00228167
0.00670291
0.00466669
0.000264044
0.01468
-0.0113155
0.0234043
-0.019982
0.0290628
-0.025031
0.0320039
-0.0275521
0.0336104
-0.0289668
0.0347233
-0.0300515
-0.0310389
-0.000738046
0.00167079
-0.00146117
0.00378294
-0.00210832
0.00576095
0.00270958
0.00188501
0.012921
-0.00994734
0.0209713
-0.0193659
0.025761
-0.0247717
0.0281775
-0.0274475
0.0295195
-0.0288941
0.0304431
-0.0298903
0.0312056
-0.0308141
0.0319423
-0.0317756
0.0326465
-0.0327542
-0.0337082
-0.000743631
0.00241442
-0.00202812
0.00506743
0.000386816
0.00334602
0.00999974
-0.00772791
0.0179546
-0.0179022
0.0224997
-0.023911
0.0247073
-0.0269794
0.0258756
-0.0286157
0.026671
-0.0296896
0.0273696
-0.0305889
0.0280152
-0.0314596
0.0285558
-0.0323162
0.029012
-0.0332105
0.029467
-0.0341631
0.0299832
-0.0351354
0.0304169
-0.0360477
-0.0370171
-0.00039278
0.0028072
-0.000860644
0.0055353
0.00604285
-0.00355747
0.0141244
-0.0158095
0.0190154
-0.0227932
0.0213906
-0.0262861
0.0225591
-0.028148
0.023255
-0.0293116
0.0237797
-0.0302143
0.0242256
-0.0310349
0.0246366
-0.0318706
0.0250794
-0.0327591
0.0255504
-0.0336814
0.0259867
-0.0345995
0.0263164
-0.0354652
0.0267125
-0.0364438
0.0271269
-0.0374315
0.0275642
-0.0382618
0.028208
-0.0393295
-0.040318
-0.00131974
0.00412693
0.00170899
0.00250657
0.0104901
-0.0123386
0.0155542
-0.0208736
0.0181354
-0.0253744
0.0194239
-0.0275747
0.0200631
-0.0287871
0.0204347
-0.0296832
0.0207576
-0.0305372
0.0211068
-0.0313841
0.0214689
-0.0322326
0.021785
-0.0330752
0.022047
-0.0339434
0.0222873
-0.0348398
0.0226067
-0.0357845
0.0229366
-0.0367737
0.0231882
-0.037683
0.0234895
-0.0385631
0.0237232
-0.0395632
-0.0406396
0.0240449
-0.000953214
0.00508015
0.0058136
-0.00426024
0.0112355
-0.0177604
0.0146464
-0.0242845
0.0162644
-0.0269924
0.0169478
-0.0282581
0.0172996
-0.0291389
0.0175731
-0.0299567
0.0178174
-0.0307816
0.018028
-0.0315946
0.018202
-0.0324067
0.0183959
-0.0332691
0.0186113
-0.0341587
0.0188037
-0.0350323
0.0189517
-0.0359325
0.0191062
-0.0369281
0.0193559
-0.0379328
0.0195933
-0.0388005
0.0199227
-0.0398926
-0.0409397
0.0202228
0.000758582
0.00432157
0.0081541
-0.0116558
0.0118509
-0.0214572
0.0134917
-0.0259253
0.0142006
-0.0277014
0.0145315
-0.028589
0.0147241
-0.0293314
0.0148348
-0.0300674
0.0149037
-0.0308506
0.0149697
-0.0316606
0.0150477
-0.0324846
0.0151004
-0.0333218
0.0151479
-0.0342062
0.015172
-0.0350564
0.0152441
-0.0360045
0.0153529
-0.0370369
0.0153338
-0.0379137
0.0153261
-0.0387928
0.0152949
-0.0398614
-0.0409846
0.0153399
0.00228174
0.00203983
0.00791845
-0.0172925
0.0108384
-0.0243772
0.0117493
-0.0268361
0.0119515
-0.0279036
0.0119945
-0.028632
0.0120101
-0.0293471
0.0120084
-0.0300657
0.0119989
-0.030841
0.0119562
-0.0316179
0.0118734
-0.0324019
0.0117903
-0.0332387
0.0116966
-0.0341125
0.0116009
-0.0349606
0.0114801
-0.0358838
0.0114029
-0.0369598
0.0114137
-0.0379245
0.0113729
-0.038752
0.0112792
-0.0397677
-0.0408683
0.0111629
0.00522215
-0.00318232
0.0080022
-0.0200725
0.00925693
-0.0256319
0.00958356
-0.0271627
0.00959803
-0.027918
0.00953068
-0.0285646
0.00943855
-0.029255
0.00932579
-0.0299529
0.00916191
-0.0306771
0.00897866
-0.0314347
0.00878255
-0.0322058
0.00855761
-0.0330137
0.00831779
-0.0338727
0.00805566
-0.0346985
0.00777954
-0.0356077
0.00750683
-0.036687
0.00721926
-0.0376369
0.00694322
-0.0384759
0.00672598
-0.0395505
0.00661047
-0.0407528
-0.00177538
0.00427486
-0.00413525
0.00799187
0.0108948
-0.000354676
0.00462954
-0.00172107
0.00935826
-0.00303009
0.0122038
0.0151847
0.00251641
0.00211313
0.00190066
0.00997401
0.000902683
0.0132018
0.0155298
0.00262413
-0.000510997
0.00517458
0.00742356
0.00562241
0.0127539
0.0156367
0.00142601
-0.00193701
0.00627169
0.00257788
0.00874973
0.0102759
0.0145896
0.000807738
-0.00274474
0.00453029
-0.00114467
0.00870449
0.00610169
0.0116051
0.011689
0.0142535
0.00112952
-0.00387426
0.00281566
-0.00283081
0.00605389
0.00286346
0.00918457
0.00855835
0.0114911
0.011947
0.0124246
0.000669806
-0.00454407
0.000904128
-0.00306513
0.00227823
0.00148936
0.00451452
0.00632206
0.00685484
0.00960665
0.0086762
0.0106032
0.0101165
-0.000644679
-0.00389939
-0.00161084
-0.00209898
-0.00208612
0.00196464
-0.00184258
0.00607852
-0.00137284
0.00913691
-0.00121408
0.0104445
0.00138597
0.00751643
0.00104697
-0.00183674
-0.00390516
-0.00541168
-0.00615581
-0.00629736
-0.002848
0.00541589
0.0159437
0.0538709
0.00580858
-0.053069
0.0549849
0.0100489
0.055644
0.0146807
0.056693
0.0191738
0.0233531
0.0568648
0.00518311
-0.0562393
0.0579765
0.00893724
0.0583846
0.0142726
0.0595867
0.0179716
0.0228901
0.0600739
0.00472675
-0.0596175
0.0610582
0.00795296
0.0614362
0.0138945
0.0625516
0.0168562
0.0224316
0.0632257
0.00440082
-0.0628998
0.0640262
0.00715247
0.0644929
0.0134278
0.0653886
0.0159605
0.0217453
0.0666472
0.00408191
-0.0663283
0.0672028
0.00659684
0.0677902
0.0128405
0.068412
0.0153387
0.0692474
0.0209098
0.0235814
0.0705219
0.00366387
-0.0701038
0.0707976
0.00632113
0.0714274
0.0122106
0.0718311
0.014935
0.0725358
0.0202051
0.0229211
0.0747572
0.00317794
-0.0742713
0.0749251
0.00615328
0.0754781
0.0116576
0.0757828
0.0146303
0.0762774
0.0197104
0.0225098
0.0792849
0.0027033
-0.0788103
0.0794572
0.00598102
0.0799581
0.0111567
0.0802517
0.0143367
0.0807392
0.0192229
0.0222154
0.0840138
0.00233228
-0.0836428
0.0842045
0.00579031
0.0846701
0.0106911
0.085022
0.0139848
0.0855966
0.0186484
0.0218437
0.0890418
0.00209154
-0.088801
0.0892273
0.00560479
0.08963
0.0102884
0.0899807
0.0136341
0.0905644
0.0180647
0.0213995
0.0944849
0.00190181
-0.0942952
0.0946297
0.00545999
0.0949966
0.00992153
0.0952999
0.0133307
0.0958375
0.0175272
0.0209055
0.100305
0.00175027
-0.100153
0.100456
0.00530856
0.100802
0.00957544
0.101126
0.0130067
0.101664
0.0169897
0.0203873
0.106557
0.00161642
-0.106423
0.106709
0.00515653
0.107089
0.00919564
0.107417
0.0126788
0.108011
0.0163957
0.0198645
0.113326
0.00147401
-0.113184
0.113457
0.00502552
0.11386
0.00879249
0.114207
0.0123318
0.114806
0.0157969
0.0192548
0.120622
0.0013511
-0.120499
0.120784
0.00486403
0.121147
0.00842908
0.121582
0.0118971
0.122146
0.0152326
0.0185348
0.12847
0.00126942
-0.128388
0.12868
0.00465412
0.129022
0.00808701
0.129513
0.0114061
0.130108
0.0146379
0.017794
0.136921
0.00119666
-0.136848
0.137136
0.0044394
0.137507
0.00771598
0.138009
0.0109038
0.138665
0.0139823
0.0170322
0.145996
0.00111797
-0.145917
0.146213
0.00422205
0.14661
0.00731839
0.147146
0.0103687
0.147839
0.0132892
0.0161925
0.155735
0.00104097
-0.155658
0.155972
0.00398519
0.15639
0.00689962
0.156982
0.00977731
0.157729
0.0125417
0.0152674
0.166181
0.000965161
-0.166105
0.166441
0.0037252
0.166884
0.00645595
0.167516
0.00914581
0.168303
0.0117548
0.0143049
0.177371
0.000889286
-0.177296
0.177645
0.00345186
0.178114
0.00598646
0.17878
0.00847962
0.179631
0.0109041
0.013259
0.189369
0.000809158
-0.189288
0.189664
0.00315646
0.190175
0.00547574
0.190898
0.0077561
0.191827
0.0099755
0.0121333
0.202226
0.000722702
-0.20214
0.202543
0.00283961
0.203088
0.00493121
0.203854
0.00698944
0.204834
0.00899552
0.0109467
0.215987
0.000633038
-0.215897
0.216321
0.00250502
0.216899
0.00435372
0.217715
0.00617324
0.218765
0.00794535
0.00966843
0.230728
0.000538011
-0.230633
0.231086
0.00214709
0.231704
0.00373531
0.232579
0.00529817
0.233704
0.00682094
0.00830412
0.246519
0.000438136
-0.246419
0.2469
0.00176592
0.247559
0.00307664
0.248489
0.00436811
0.249683
0.0056271
0.00685306
0.263431
0.000333271
-0.263327
0.263836
0.00136141
0.264536
0.00237658
0.265527
0.00337744
0.266801
0.00435283
0.00530245
0.281558
0.00022402
-0.281448
0.281987
0.000932139
0.282732
0.00163124
0.283789
0.00232107
0.285148
0.00299391
0.00364914
0.301005
0.000115779
-0.300897
0.301456
0.000481658
0.302245
0.000842134
0.303368
0.00119824
0.304815
0.001546
0.00188448
0.321846
-0.32173
0.322327
0.323169
0.324368
0.325914
0.0317282
0.0301558
-0.0286585
-0.0332255
0.0297919
0.0294389
-0.0275026
0.0276856
0.0285428
-0.0264365
0.0256222
0.0276876
-0.0256242
0.0237145
0.0269753
-0.0250676
0.0218162
0.0264637
-0.0245654
0.0198603
0.025871
-0.0239151
0.0179761
0.0251319
-0.0232477
0.0162416
0.024529
-0.0227946
0.0145491
0.0241534
-0.0224609
0.012852
0.0237362
-0.0220391
0.0112325
0.0232705
-0.021651
0.00970188
0.0229108
-0.0213802
0.00820133
0.0226826
-0.0211821
0.00669057
0.0225203
-0.0210095
0.00516928
0.0224233
-0.020902
0.00370878
0.0224
-0.0209395
0.00231123
0.0224603
-0.0210628
0.000967147
0.0227355
-0.0213914
0.0181251
-0.017158
0.0281591
0.03196
-0.0299633
0.0263133
0.0312847
0.0243929
0.0304632
0.022538
0.0295425
0.0208197
0.0286936
0.0192104
0.0280729
0.0175366
0.0275449
0.0158265
0.026842
0.0142265
0.026129
0.0127381
0.0256418
0.0112336
0.0252406
0.00970143
0.0248027
0.00823698
0.0243752
0.00686303
0.0240566
0.00554806
0.0238353
0.00425923
0.0237121
0.00293012
0.0237291
0.00162474
0.0237657
0.000469863
0.0238904
0.018595
0.0248885
0.0337406
-0.0266691
0.0231608
0.0330124
0.0214008
0.0322232
0.0196248
0.0313185
0.0179925
0.0303258
0.0164902
0.0295752
0.0150237
0.0290114
0.0135256
0.0283401
0.0120618
0.0275928
0.0106871
0.0270165
0.00938501
0.0265427
0.00810115
0.0260865
0.0068086
0.0256678
0.00555404
0.0253112
0.0043571
0.0250322
0.00324663
0.0248226
0.00225282
0.0247229
0.00115107
0.0248675
0.000157198
0.0248843
0.0187522
0.0211548
0.0354336
-0.0228478
0.0196044
0.0345628
0.0181145
0.0337131
0.0165965
0.0328365
0.0150933
0.0318291
0.013735
0.0309335
0.0124141
0.0303323
0.0110535
0.0297007
0.00972985
0.0289165
0.0085014
0.028245
0.0073196
0.0277245
0.00617742
0.0272287
0.0051002
0.026745
0.00406526
0.0263461
0.00306949
0.026028
0.00209021
0.0258019
0.00122026
0.0255929
0.000436909
0.0256508
-0.000234313
0.0255555
0.0185179
0.0170336
0.0368139
-0.0184139
0.0157872
0.0358092
0.0144587
0.0350416
0.0131557
0.0341395
0.0118723
0.0331124
0.0106758
0.03213
0.00960252
0.0314056
0.00852145
0.0307817
0.00737342
0.0300646
0.00626432
0.0293541
0.00525169
0.0287371
0.00427073
0.0282097
0.00329938
0.0277164
0.00239475
0.0272507
0.00157049
0.0268522
0.00082853
0.0265438
0.000140893
0.0262805
-0.000338799
0.0261305
-0.00066203
0.0258787
0.0178558
0.0133234
0.0381354
-0.0146449
0.0121715
0.0369611
0.0110434
0.0361697
0.00982453
0.0353583
0.00864261
0.0342944
0.00753688
0.0332357
0.00652529
0.0324172
0.00558693
0.0317201
0.00469643
0.0309551
0.00379228
0.0302582
0.00291835
0.029611
0.00212997
0.0289981
0.0014112
0.0284351
0.000708398
0.0279535
5.83368e-05
0.0275023
-0.000543225
0.0271454
-0.00107813
0.0268154
-0.00136092
0.0264133
-0.0011173
0.0256351
0.0167385
0.00886566
0.0390108
-0.00974102
0.00797387
0.0378529
0.00717595
0.0369676
0.00627781
0.0362565
0.00533035
0.0352418
0.00442193
0.0341442
0.00359062
0.0332485
0.00281008
0.0325006
0.00202954
0.0317356
0.00130579
0.030982
0.000612563
0.0303043
-6.38308e-05
0.0296745
-0.000705661
0.029077
-0.00127738
0.0285253
-0.00178492
0.0280098
-0.00220677
0.0275673
-0.00249925
0.0271079
-0.00257045
0.0264845
-0.00186856
0.0249332
0.01487
0.00451787
0.0398377
-0.00534479
0.00368005
0.0386907
0.00298883
0.0376589
0.00239003
0.0368553
0.00168866
0.0359432
0.000984413
0.0348484
0.000291534
0.0339414
-0.000329252
0.0331214
-0.000883375
0.0322897
-0.0014409
0.0315395
-0.00195937
0.0308227
-0.00241878
0.0301339
-0.00285026
0.0295084
-0.00325776
0.0289328
-0.00361776
0.0283698
-0.00390693
0.0278564
-0.00404046
0.0272414
-0.00381457
0.0262586
-0.00260344
0.0237221
0.0122665
9.44883e-05
0.0404586
-0.000715343
-0.00042453
0.0392097
-0.000948764
0.0381831
-0.00143983
0.0373463
-0.00187417
0.0363775
-0.00235699
0.0353312
-0.00283405
0.0344184
-0.00332044
0.0336078
-0.00378038
0.0327497
-0.00418718
0.0319463
-0.00457894
0.0312145
-0.00494227
0.0304972
-0.00522399
0.0297902
-0.00544135
0.0291501
-0.00561217
0.0285407
-0.00575517
0.0279994
-0.005864
0.0273502
-0.005583
0.0259776
-0.00373322
0.0218723
0.00853332
-0.00449499
0.00420071
-0.0048357
-0.00512856
-0.00541913
-0.00572865
-0.0060051
-0.00628518
-0.0065501
-0.00681419
-0.00707363
-0.00729381
-0.00747377
-0.00763654
-0.00774139
-0.00776538
-0.00768398
-0.00749648
-0.00715079
-0.00535101
0.0394209
0.00290192
0.0366689
0.00284477
0.033979
0.00278738
0.0313441
0.00273163
0.028763
0.00267052
0.0262316
0.00261117
0.0237435
0.00255846
0.0212946
0.0025101
0.0188746
0.00247317
0.0164721
0.00244687
0.0140957
0.00241293
0.0117378
0.00239493
0.00939261
0.00238224
0.00704194
0.00237645
0.00466345
0.0024075
0.00216163
0.00254006
0.00205778
0.0391925
0.0057164
0.0364424
0.00559486
0.0337579
0.00547186
0.031134
0.00535551
0.0285656
0.00523891
0.0260493
0.00512749
0.0235787
0.00502904
0.0211505
0.00493828
0.0187629
0.00486078
0.0163931
0.00481668
0.0140255
0.00478053
0.0116637
0.0047568
0.0092729
0.00477301
0.00685441
0.00479493
0.00447402
0.00478789
0.00205173
0.00496235
0.00410951
0.038712
0.00850594
0.0359901
0.00831673
0.0333284
0.0081335
0.0307277
0.00795629
0.028177
0.00778955
0.0256822
0.00762227
0.0232334
0.00747785
0.0208181
0.00735358
0.018433
0.00724589
0.0160738
0.0071759
0.0137269
0.00712742
0.011416
0.00706774
0.0091235
0.00706547
0.00677952
0.00713892
0.00438109
0.00718632
0.00194599
0.00739745
0.0060555
0.0406478
0.0115473
0.0378934
0.0112604
0.0352193
0.0109909
0.0326196
0.0107331
0.0300872
0.0104888
0.0275978
0.010279
0.0251471
0.0100729
0.0227426
0.00988243
0.0203872
0.00970892
0.0180931
0.00953998
0.0158498
0.00941926
0.0135977
0.00937947
0.0112964
0.00936909
0.00901786
0.00934399
0.00675475
0.00940203
0.00450003
0.00944105
0.00214593
0.00975154
0.00820143
0.0395567
0.0143166
0.0368402
0.0139769
0.0341824
0.0136486
0.0315992
0.0133164
0.0291203
0.0129676
0.0267254
0.0126739
0.0243657
0.0124325
0.0220162
0.0122319
0.0196571
0.0120681
0.0173223
0.0118747
0.0150621
0.0116795
0.0128856
0.0115559
0.0107359
0.0115188
0.00856437
0.0115155
0.00637882
0.0115876
0.00411824
0.0117016
0.00182587
0.0120439
0.0100273
0.0407505
0.0174074
0.0381215
0.0169456
0.0355551
0.0165434
0.0330344
0.0161692
0.0305084
0.0158424
0.0280023
0.0154737
0.0256109
0.0150654
0.0233537
0.0146897
0.021206
0.0143797
0.0190692
0.0142048
0.0168632
0.0140808
0.0146405
0.0139022
0.0124409
0.0137555
0.010298
0.0136617
0.00817741
0.0136361
0.0060671
0.0136979
0.00396811
0.0138006
0.00180065
0.0142114
0.011828
0.041618
0.0206722
0.0388871
0.0201383
0.0362148
0.0196179
0.0336889
0.0190693
0.0313405
0.0185176
0.0291037
0.0180793
0.0268355
0.0177418
0.0244907
0.0174102
0.0221604
0.0170201
0.0199432
0.0165969
0.0178864
0.0162616
0.015866
0.0161012
0.0138258
0.0159424
0.0117875
0.0157938
0.00973952
0.0157097
0.0077173
0.0156584
0.00570979
0.0157054
0.00371241
0.015798
0.00168358
0.0162402
0.0135115
0.0394306
0.0230995
-0.0418579
0.0369312
0.0226377
0.0343513
0.0221978
0.0317873
0.0216333
0.0293359
0.020969
0.0271146
0.0203006
0.0250757
0.0197807
0.0230371
0.0194488
0.0208981
0.019159
0.0187341
0.0187609
0.0166747
0.018321
0.0147388
0.018037
0.0128233
0.0178579
0.0109293
0.0176878
0.0090418
0.0175971
0.0071188
0.0175814
0.0052026
0.0176216
0.00326285
0.0177377
0.00135652
0.0181465
0.0148681
0.0365432
0.0256836
-0.0391272
0.0340853
0.0250956
0.0319456
0.0243375
0.0298671
0.0237117
0.0276675
0.0231686
0.0254193
0.0225488
0.0233033
0.0218966
0.0213749
0.0213772
0.0194783
0.0210557
0.0175049
0.0207343
0.0155218
0.0203041
0.0136186
0.0199403
0.0117842
0.0196923
0.00997646
0.0194956
0.00823687
0.0193367
0.00651689
0.0193013
0.0047823
0.0193562
0.00308454
0.0194355
0.00137817
0.0198529
0.0162462
0.0334429
-0.0364178
0.0310359
0.0289369
0.0270244
0.0251255
0.0231089
0.0210905
0.0192201
0.0174812
0.0157545
0.0140195
0.0123088
0.0106209
0.0089344
0.00726156
0.00566088
0.00407757
0.00245029
0.000911753
0.00634936
0.00719389
0.0371794
0.00641313
0.00795549
0.0468383
0.00578116
0.00690891
0.0478849
0.0504636
0.00564723
0.00623254
0.0511399
0.054349
0.00546857
0.00554253
0.055039
0.058822
0.00524446
0.00501894
0.0593456
0.0638482
0.00490633
0.00464511
0.064222
0.0688723
0.00440402
0.00426507
0.0692523
0.0736184
0.00382837
0.00383347
0.07405
0.0784686
0.00328392
0.00338399
0.078918
0.0838198
0.00284907
0.0029491
0.0842547
0.0897461
0.00251733
0.00257054
0.0901247
0.0961229
0.00223075
0.0022464
0.096447
0.102891
0.00193564
0.00195503
0.103182
0.110014
0.001641
0.00167671
0.110292
0.117524
0.0014006
0.00141236
0.117789
0.125499
0.0011996
0.00119176
0.125719
0.133994
0.00102121
0.00100897
0.134177
0.143064
0.000868504
0.000848293
0.143225
0.152765
0.000736973
0.000708317
0.152905
0.163138
0.000622702
0.000590205
0.163256
0.174224
0.000523005
0.000490677
0.174323
0.186072
0.000437321
0.000406242
0.186156
0.198739
0.000363307
0.000334685
0.19881
0.212286
0.000298085
0.000273538
0.212347
0.226775
0.000239753
0.000219548
0.226829
0.242267
0.000187203
0.000170951
0.242315
0.258847
0.000140558
0.000128542
0.258889
0.276616
9.40855e-05
8.55999e-05
0.276658
0.29569
4.19959e-05
3.76752e-05
0.295738
0.316197
1.6718e-05
1.33955e-05
0.316221
0.338169
0.338182
0.0478709
-0.0332114
0.0481902
-0.0302826
0.0486559
-0.0271348
0.049121
-0.0233129
0.0496318
-0.0189247
0.050195
-0.0152082
0.0506444
-0.0101904
0.0514796
-0.00618007
0.052172
-0.00140765
0.0033037
0.0516622
-0.0337338
0.0519654
-0.0305858
0.0522506
-0.02742
0.0527826
-0.023845
0.0531912
-0.0193332
0.053652
-0.015669
0.0540814
-0.0106198
0.0548643
-0.00696299
0.055347
-0.00189031
0.00241136
0.0554101
-0.0341049
0.0557524
-0.030928
0.0558757
-0.0275434
0.0563497
-0.024319
0.056699
-0.0196824
0.0571836
-0.0161537
0.0575965
-0.0110326
0.0582861
-0.00765268
0.0586833
-0.00228746
0.00147714
0.0596836
-0.0344429
0.06
-0.0312445
0.0601617
-0.027705
0.0604561
-0.0246134
0.0607368
-0.0199631
0.0610849
-0.0165019
0.0613853
-0.011333
0.0618214
-0.00808876
0.0621207
-0.00258679
0.000698049
0.0643991
-0.03462
0.0645341
-0.0313795
0.0646197
-0.0277906
0.0646237
-0.0246174
0.0648007
-0.0201401
0.0649329
-0.0166341
0.0651898
-0.0115899
0.0654537
-0.00835258
0.0657465
-0.00287959
0.000116235
0.0691595
-0.0345272
0.0690809
-0.0313009
0.0690285
-0.0277382
0.0688845
-0.0244733
0.068978
-0.0202336
0.0690098
-0.016666
0.0692646
-0.0118446
0.0694401
-0.0085281
0.0697595
-0.00319896
-0.000228131
0.0737623
-0.0342395
0.073545
-0.0310836
0.0734138
-0.0276071
0.0732684
-0.0243279
0.0733109
-0.0202762
0.0733314
-0.0166864
0.0735709
-0.0120842
0.073702
-0.00865915
0.074062
-0.00355895
-0.000437447
0.0785911
-0.0339125
0.0783243
-0.0308169
0.0782062
-0.0274889
0.0780825
-0.0242042
0.0780769
-0.0202706
0.0780807
-0.0166902
0.0782457
-0.0122492
0.0783376
-0.00875105
0.0786748
-0.00389614
-0.000572909
0.0839107
-0.0335685
0.0836188
-0.030525
0.0834833
-0.0273534
0.0833071
-0.0240279
0.083256
-0.0202195
0.0831852
-0.0166194
0.0832715
-0.0123355
0.0832996
-0.00877913
0.083552
-0.00414853
-0.000663724
0.0897045
-0.0331483
0.0893414
-0.0301619
0.0891043
-0.0271163
0.0888512
-0.0237748
0.0887348
-0.0201032
0.0885782
-0.0164627
0.0885974
-0.0123548
0.0885621
-0.00874381
0.0887276
-0.00431403
-0.000737128
0.0959159
-0.0326172
0.0954551
-0.029701
0.0951009
-0.0267621
0.0947699
-0.0234438
0.0945555
-0.0198889
0.094319
-0.0162262
0.0942533
-0.012289
0.0941532
-0.0086437
0.094255
-0.00441591
-0.000777285
0.10253
-0.0319645
0.101963
-0.0291343
0.101485
-0.0262847
0.101053
-0.0230116
0.100736
-0.0195718
0.100412
-0.0159021
0.100259
-0.0121359
0.100101
-0.00848628
0.100131
-0.00444526
-0.000799504
0.109517
-0.03119
0.108836
-0.0284527
0.108218
-0.0256665
0.107705
-0.022499
0.10726
-0.0191269
0.106894
-0.0155357
0.106627
-0.0118689
0.106452
-0.00831193
0.106402
-0.00439437
-0.000821194
0.116896
-0.0302972
0.116091
-0.0276481
0.115355
-0.0249304
0.114762
-0.0219054
0.114225
-0.0185908
0.113819
-0.0151288
0.113483
-0.0115339
0.113277
-0.0081057
0.113195
-0.00431185
-0.000810187
0.124717
-0.0292949
0.123804
-0.0267356
0.12298
-0.0241057
0.122294
-0.0212193
0.121712
-0.0180089
0.12124
-0.0146569
0.120884
-0.011178
0.120623
-0.00784479
0.120532
-0.00422056
-0.000777503
0.133077
-0.0281951
0.132072
-0.0257303
0.131165
-0.0231989
0.130383
-0.0204377
0.129743
-0.017369
0.129213
-0.0141268
0.128823
-0.0107882
0.12853
-0.00755176
0.128405
-0.00409547
-0.000760538
0.142028
-0.0269984
0.140935
-0.024637
0.13994
-0.0222039
0.139072
-0.0195702
0.138356
-0.0166521
0.137778
-0.0135487
0.137342
-0.010353
0.137024
-0.00723321
0.136869
-0.00394019
-0.000740091
0.151607
-0.0257005
0.150421
-0.0234509
0.149336
-0.0211186
0.148383
-0.0186171
0.147587
-0.0158565
0.146953
-0.0129144
0.146477
-0.00987689
0.146127
-0.00688393
0.145955
-0.00376792
-0.000701803
0.161851
-0.0242961
0.160568
-0.022167
0.159392
-0.0199436
0.158354
-0.0175783
0.157482
-0.0149846
0.156785
-0.0122179
0.156268
-0.00935971
0.15589
-0.0065062
0.155699
-0.0035763
-0.000660833
0.172809
-0.0227819
0.171422
-0.0207806
0.170158
-0.0186791
0.169033
-0.0164536
0.168087
-0.0140381
0.167327
-0.011458
0.166761
-0.00879339
0.166356
-0.00610197
0.166144
-0.00336394
-0.000621576
0.184527
-0.0211523
0.183034
-0.019288
0.181678
-0.0173231
0.180469
-0.0152445
0.179448
-0.0130169
0.178625
-0.0106352
0.178005
-0.00817331
0.177572
-0.0056683
0.177339
-0.00313124
-0.000578263
0.19706
-0.0194022
0.195457
-0.0176852
0.194006
-0.0158717
0.192714
-0.0139524
0.191616
-0.0119186
0.190727
-0.00974693
0.190053
-0.00749911
0.189586
-0.00520123
0.189333
-0.0028777
-0.000534141
0.210469
-0.0175241
0.20875
-0.0159663
0.207198
-0.0143196
0.205821
-0.0125756
0.204643
-0.0107402
0.203687
-0.00879143
0.20296
-0.00677132
0.202458
-0.00469941
0.202185
-0.00260472
-0.000489043
0.224815
-0.0155104
0.222974
-0.0141257
0.221316
-0.0126613
0.219851
-0.01111
0.218591
-0.00948107
0.217566
-0.00776614
0.216783
-0.00598834
0.216243
-0.00415965
0.215947
-0.00230868
-0.000438762
0.240158
-0.013353
0.238189
-0.0121564
0.236418
-0.0108906
0.234858
-0.00954995
0.233521
-0.00814468
0.232426
-0.00667058
0.231586
-0.00514865
0.231007
-0.00358024
0.230688
-0.00198954
-0.000384038
0.256579
-0.0110424
0.254472
-0.0100496
0.252581
-0.00899928
0.250918
-0.00788752
0.249498
-0.00672446
0.248335
-0.00550717
0.247439
-0.00425261
0.246819
-0.00296098
0.24648
-0.00164981
-0.000323604
0.27418
-0.00856427
0.271925
-0.00779473
0.269905
-0.0069785
0.268131
-0.00611398
0.266617
-0.00521085
0.265378
-0.0042676
0.264422
-0.00329632
0.263758
-0.0022978
0.263393
-0.00128428
-0.000257251
0.293088
-0.00591443
0.290672
-0.00537935
0.288507
-0.00481347
0.286608
-0.00421482
0.284988
-0.00359046
0.28366
-0.00293979
0.282634
-0.00227074
0.28192
-0.00158368
0.281523
-0.000887231
-0.000182405
0.313373
-0.00306624
0.310783
-0.00278886
0.308464
-0.00249484
0.306432
-0.00218308
0.3047
-0.00185789
0.303279
-0.00151967
0.302181
-0.00117265
0.301415
-0.000817165
0.300985
-0.00045748
-9.42417e-05
0.335116
0.332327
0.329832
0.327649
0.325791
0.324271
0.323099
0.322282
0.321824
)
;

boundaryField
{
    outlet
    {
        type            calculated;
        value           nonuniform 0();
    }
    upperWall
    {
        type            symmetryPlane;
        value           uniform 0;
    }
    lowerWall
    {
        type            symmetryPlane;
        value           nonuniform 0();
    }
    inlet
    {
        type            calculated;
        value           nonuniform 0();
    }
    cylinder
    {
        type            calculated;
        value           uniform 0;
    }
    frontAndBack
    {
        type            empty;
        value           nonuniform 0();
    }
    procBoundary5to1
    {
        type            processor;
        value           nonuniform List<scalar> 
20
(
-0.00249948
-0.005632
-0.00837899
-8.86791e-05
-9.28135e-05
-9.74389e-05
-9.67406e-05
-8.9442e-05
-7.97679e-05
-7.03513e-05
-6.11852e-05
-5.32125e-05
-4.43868e-05
-3.64481e-05
-3.71192e-05
-3.70188e-05
-2.57734e-05
-2.90146e-05
-3.8235e-05
0.000103852
)
;
    }
    procBoundary5to4
    {
        type            processor;
        value           nonuniform List<scalar> 
45
(
-0.0422341
-0.0420069
-0.0415015
-0.00871453
-0.0434806
-0.042326
-0.0146692
-0.0434888
-0.0179779
-0.0443123
-0.00551732
-0.04269
-0.0399718
-0.0059299
-0.0376626
-0.0462063
-0.0503296
-0.0541703
-0.0585979
-0.06351
-0.0683699
-0.0730428
-0.0779241
-0.083385
-0.0894144
-0.0958363
-0.102596
-0.109719
-0.117284
-0.125298
-0.133816
-0.142912
-0.152633
-0.163023
-0.174124
-0.185986
-0.198665
-0.212221
-0.226716
-0.242214
-0.2588
-0.276569
-0.295638
-0.316172
-0.338152
)
;
    }
    procBoundary5to6
    {
        type            processor;
        value           nonuniform List<scalar> 
63
(
0.0361699
0.0236432
0.0289386
0.0302783
0.035484
0.0320501
0.0331831
0.0331716
0.0346192
0.035614
0.0365712
0.0308628
0.0378245
0.0386857
0.0399019
0.028624
-0.00665101
-0.0140849
-0.00412988
0.000557621
0.00551552
0.00979675
-0.0162733
0.0136249
-0.014779
0.0138455
-0.0109209
0.00948057
-0.00777726
0.00811626
0.00673196
0.0268083
0.0573847
0.0600498
0.0630101
0.0660749
-0.0243563
0.0700223
0.0731961
0.0766887
0.0810336
0.0859682
0.0910086
0.0963316
0.102182
0.108534
0.115416
0.122866
0.130848
0.139426
0.148678
0.158654
0.169265
0.180677
0.192952
0.206021
0.220043
0.235068
0.251134
0.268352
0.286801
0.30658
0.327798
)
;
    }
}


// ************************************************************************* //
