/*--------------------------------*- C++ -*----------------------------------*\
| =========                 |                                                 |
| \\      /  F ield         | OpenFOAM: The Open Source CFD Toolbox           |
|  \\    /   O peration     | Version:                                        |
|   \\  /    A nd           | Website:  www.openfoam.com                      |
|    \\/     M anipulation  |                                                 |
\*---------------------------------------------------------------------------*/
FoamFile
{
    version     2.0;
    format      ascii;
    class       volVectorField;
    location    "21.4";
    object      U;
}
// * * * * * * * * * * * * * * * * * * * * * * * * * * * * * * * * * * * * * //

dimensions      [0 1 -1 0 0 0 0];


internalField   nonuniform List<vector> 
1136
(
(0.128338 -0.0392575 -4.38265e-23)
(0.259838 -0.0318494 -4.67765e-22)
(0.375862 -0.0266637 9.18416e-22)
(0.473332 -0.0213892 5.06311e-23)
(0.550949 -0.0158383 -8.71837e-22)
(0.61153 -0.0118834 4.53438e-22)
(0.657615 -0.00930938 -1.26389e-22)
(0.694523 -0.00765754 4.58377e-22)
(0.725558 -0.00635459 -2.92992e-22)
(0.752556 -0.00497585 -8.01987e-23)
(0.773434 -0.00404272 3.12507e-22)
(0.791506 -0.00370809 -3.37935e-22)
(0.80832 -0.00328451 1.52702e-22)
(0.823987 -0.00268233 -1.45274e-22)
(0.836108 -0.00262071 9.93252e-23)
(0.850944 -0.00267181 9.24681e-25)
(0.864619 -0.0023372 2.04821e-23)
(0.877732 -0.00197205 -3.83806e-23)
(0.88744 -0.00206368 -3.76574e-23)
(0.901968 -0.00205355 2.51041e-23)
(0.913277 -0.00166764 1.19073e-23)
(0.923725 -0.00141331 3.86209e-24)
(0.931846 -0.00131025 1.74222e-23)
(0.940865 -0.00143619 -6.60289e-25)
(0.95309 -0.00114699 8.05318e-25)
(0.958075 -0.00107369 1.23595e-26)
(0.969476 -0.0011385 4.93699e-24)
(0.975368 -0.00112874 -9.03687e-24)
(0.987979 -0.0014878 -1.95171e-24)
(1.00337 -0.000850039 7.96605e-25)
(0.35131 -0.12659 -3.69624e-21)
(0.467406 -0.103499 6.633e-21)
(0.565694 -0.0824886 -2.22909e-21)
(0.648724 -0.0636815 1.34205e-21)
(0.715511 -0.0469992 -1.95072e-22)
(0.765415 -0.0350777 -2.58838e-21)
(0.80178 -0.0272047 2.91164e-21)
(0.83134 -0.0215952 -1.26295e-22)
(0.855191 -0.0176964 -1.46628e-21)
(0.875393 -0.0140215 5.20474e-22)
(0.891847 -0.0107161 7.38741e-23)
(0.905113 -0.00924298 1.3346e-22)
(0.915549 -0.00847387 2.62355e-22)
(0.926448 -0.00687157 5.53805e-22)
(0.934661 -0.00630464 -4.9048e-22)
(0.943441 -0.00657141 -8.4325e-24)
(0.951623 -0.0059637 -3.38066e-24)
(0.960822 -0.00477317 -8.73666e-23)
(0.966263 -0.00486617 2.66745e-22)
(0.974209 -0.0051229 -9.40244e-23)
(0.981358 -0.00410428 -2.49549e-23)
(0.987187 -0.00327048 -6.20195e-24)
(0.991705 -0.00289882 1.30235e-23)
(0.993533 -0.00358821 4.50465e-24)
(1.00334 -0.00275033 -5.37102e-23)
(1.00242 -0.00247132 2.15756e-23)
(1.01199 -0.00247686 -1.48052e-23)
(1.00877 -0.00261611 1.57641e-24)
(1.01852 -0.00391433 -3.18933e-24)
(1.0271 -0.00200846 -1.97459e-24)
(0.573554 -0.196877 5.38607e-21)
(0.665848 -0.159714 -4.66092e-21)
(0.739666 -0.124759 1.42781e-21)
(0.797797 -0.0967588 -1.12052e-21)
(0.846451 -0.0725416 -4.31409e-21)
(0.885398 -0.0524141 -1.64085e-23)
(0.911118 -0.0394262 6.90813e-21)
(0.931404 -0.0314338 -6.23439e-22)
(0.948592 -0.025421 -2.07226e-22)
(0.962139 -0.0201714 -1.69862e-21)
(0.974082 -0.0156482 -1.30519e-21)
(0.985093 -0.0127179 3.07132e-22)
(0.99072 -0.011228 2.14605e-22)
(0.996984 -0.0093727 8.98417e-22)
(1.0029 -0.00825797 -3.24392e-22)
(1.00731 -0.00823174 -1.09477e-21)
(1.00962 -0.00782434 9.16385e-22)
(1.01602 -0.00636665 -1.75015e-22)
(1.01948 -0.00592345 -5.38723e-23)
(1.02154 -0.0063353 -2.41673e-22)
(1.02439 -0.00525762 2.18213e-22)
(1.02777 -0.00412053 -9.22522e-23)
(1.03085 -0.00299336 -7.23769e-23)
(1.02612 -0.00424249 -7.30667e-23)
(1.0323 -0.0032936 6.76148e-23)
(1.0282 -0.0029934 1.23454e-23)
(1.03555 -0.00254776 -1.04966e-24)
(1.02661 -0.00245078 2.97975e-23)
(1.02825 -0.00506513 -5.30496e-24)
(1.0332 -0.00247846 4.88895e-25)
(0.741001 -0.253488 -3.4091e-22)
(0.796459 -0.203658 -9.68432e-21)
(0.83762 -0.157167 2.07147e-21)
(0.8694 -0.121483 3.90083e-21)
(0.896022 -0.0928006 -1.51594e-21)
(0.920355 -0.0675918 3.75208e-22)
(0.937248 -0.0494516 -4.55888e-21)
(0.949634 -0.0389168 1.97031e-21)
(0.959992 -0.0314466 4.92212e-22)
(0.969063 -0.0250094 2.26563e-21)
(0.978271 -0.0199922 6.51654e-22)
(0.987402 -0.0158345 -3.93357e-21)
(0.99051 -0.0131566 2.48173e-21)
(0.994686 -0.011328 -3.26838e-22)
(0.99914 -0.00989723 1.14159e-22)
(1.00126 -0.00891484 2.14318e-22)
(1.00029 -0.00875114 -8.08838e-22)
(1.00524 -0.00775961 2.04342e-22)
(1.00768 -0.00650613 2.50087e-22)
(1.00746 -0.00650858 -2.41346e-22)
(1.00757 -0.00580339 3.02786e-22)
(1.0109 -0.00489079 -3.92371e-22)
(1.01324 -0.00260768 3.40325e-22)
(1.00751 -0.00386898 -1.77108e-23)
(1.00969 -0.00322621 -7.41909e-23)
(1.00747 -0.00313535 3.82227e-24)
(1.01114 -0.00216761 -4.16527e-23)
(1.00532 -0.00116086 -2.3181e-23)
(0.998566 -0.00505091 1.04488e-23)
(1.00649 -0.00282077 3.89729e-24)
(0.849118 -0.286829 4.07132e-21)
(0.863739 -0.226848 -6.09217e-21)
(0.871062 -0.173162 -5.74148e-22)
(0.879208 -0.133664 1.05942e-20)
(0.889115 -0.102916 -4.02382e-21)
(0.901632 -0.0759951 -4.32278e-21)
(0.912808 -0.0555081 1.77936e-21)
(0.921177 -0.0430472 2.62167e-21)
(0.92849 -0.0347956 2.87043e-21)
(0.93698 -0.0283796 -4.49416e-21)
(0.944945 -0.0231046 3.56769e-21)
(0.952279 -0.0175868 -2.42255e-23)
(0.956075 -0.0140339 7.02787e-22)
(0.960541 -0.0123226 -1.79947e-21)
(0.963806 -0.0104114 1.17038e-21)
(0.966282 -0.00863578 4.5849e-22)
(0.966222 -0.00893967 -4.05684e-22)
(0.970262 -0.00844924 -5.0227e-22)
(0.971658 -0.00654637 -3.0753e-23)
(0.9728 -0.0062533 -3.99893e-23)
(0.972035 -0.00608911 -2.68507e-22)
(0.97538 -0.00542504 2.53414e-22)
(0.976014 -0.00215834 -2.05267e-22)
(0.973736 -0.00334477 -1.37882e-22)
(0.973037 -0.00318525 1.16018e-22)
(0.973621 -0.00320822 2.6833e-23)
(0.973982 -0.00192167 6.52039e-23)
(0.974598 7.93649e-05 4.4993e-23)
(0.966698 -0.00505113 -3.9346e-24)
(0.978133 -0.00372811 -5.77233e-24)
(0.894999 -0.299148 2.64508e-20)
(0.876897 -0.235217 -6.17038e-21)
(0.863585 -0.180374 -2.27747e-20)
(0.859736 -0.140743 2.38339e-20)
(0.864386 -0.110715 -1.29199e-20)
(0.873441 -0.0839236 -1.27597e-22)
(0.883618 -0.0617935 -6.10819e-22)
(0.893325 -0.047784 3.41963e-21)
(0.903316 -0.0393662 1.70229e-21)
(0.914454 -0.0326441 -2.48458e-21)
(0.922568 -0.0266709 -1.237e-21)
(0.929782 -0.0206248 -1.10995e-21)
(0.936349 -0.0164791 2.20861e-21)
(0.942142 -0.0141174 9.42008e-22)
(0.945493 -0.0118754 -6.67119e-22)
(0.950537 -0.00968332 2.10956e-22)
(0.953418 -0.0097789 7.21895e-22)
(0.956811 -0.0092138 -1.04287e-21)
(0.958077 -0.00713205 -2.64055e-23)
(0.962147 -0.00645886 7.76559e-22)
(0.961679 -0.00630473 1.51601e-22)
(0.964356 -0.00574384 -1.92357e-22)
(0.963623 -0.00208016 8.21079e-23)
(0.965777 -0.00308574 -1.23498e-22)
(0.964311 -0.00304103 1.87468e-22)
(0.965812 -0.00325012 -1.34101e-22)
(0.965049 -0.0021598 1.43028e-23)
(0.968587 0.000338587 -6.5016e-23)
(0.965643 -0.00551614 1.78308e-23)
(0.974126 -0.00478902 5.59131e-24)
(0.875495 -0.237559 4.3063e-21)
(0.860182 -0.188455 -1.36064e-20)
(0.857272 -0.150225 5.63156e-21)
(0.863751 -0.120346 4.79795e-21)
(0.873588 -0.0931756 5.40299e-21)
(0.883576 -0.0699597 -5.73519e-21)
(0.894759 -0.0545255 -3.177e-21)
(0.906572 -0.0451566 4.41146e-21)
(0.918762 -0.0371935 3.21458e-21)
(0.927473 -0.029864 -2.80424e-21)
(0.93499 -0.0233693 1.03736e-21)
(0.942368 -0.0188669 2.37826e-22)
(0.949004 -0.0157758 5.94034e-22)
(0.953 -0.0134828 1.27032e-22)
(0.95915 -0.0113516 -1.21501e-21)
(0.963552 -0.0109771 1.02503e-22)
(0.966942 -0.0100617 -8.07538e-22)
(0.968362 -0.00826376 9.72934e-22)
(0.973472 -0.00740152 -7.71779e-22)
(0.974141 -0.00682211 4.50033e-22)
(0.976621 -0.00611906 -1.5742e-22)
(0.975971 -0.0026966 1.96001e-22)
(0.980111 -0.00357856 -5.13273e-24)
(0.979785 -0.00321522 -8.34049e-23)
(0.981477 -0.0034608 1.02606e-22)
(0.98123 -0.00254844 4.14561e-23)
(0.983774 -0.000106726 -2.69925e-23)
(0.985084 -0.00608499 -2.13266e-24)
(0.986988 -0.0053241 -1.17571e-23)
(0.8868 -0.24013 -3.42798e-21)
(0.87557 -0.196685 -5.64953e-21)
(0.874781 -0.160403 3.41909e-21)
(0.879186 -0.130452 -1.25558e-21)
(0.887674 -0.10208 7.19914e-21)
(0.896218 -0.0779655 6.25532e-22)
(0.905826 -0.0620741 6.07197e-21)
(0.916484 -0.05232 -4.04247e-21)
(0.927754 -0.043451 7.11341e-23)
(0.936484 -0.0348233 -3.29255e-21)
(0.944157 -0.0273808 -6.30669e-22)
(0.950587 -0.0221221 1.01787e-21)
(0.956994 -0.0181058 -8.04615e-22)
(0.961762 -0.0153647 1.45116e-21)
(0.967679 -0.0129651 1.08507e-21)
(0.97167 -0.0120264 -7.30663e-22)
(0.975257 -0.0106466 -3.86478e-22)
(0.977453 -0.00894605 -7.60817e-23)
(0.981683 -0.00798385 3.40173e-22)
(0.983148 -0.00712906 5.52981e-22)
(0.985979 -0.00631856 -4.62229e-22)
(0.986962 -0.00308557 -6.82543e-23)
(0.990919 -0.00397317 9.99344e-25)
(0.991251 -0.00337414 -2.27392e-23)
(0.99391 -0.00363728 -9.8234e-23)
(0.994415 -0.00276483 4.87637e-23)
(0.996975 -0.00049498 1.44606e-23)
(0.998691 -0.00612297 1.22829e-23)
(0.996266 -0.00518148 9.2765e-24)
(0.910508 -0.243075 7.76186e-21)
(0.898086 -0.202987 -5.68822e-21)
(0.895578 -0.170049 -1.12348e-20)
(0.895825 -0.141665 1.84985e-21)
(0.899732 -0.111633 -3.19802e-22)
(0.905919 -0.0838916 8.07097e-21)
(0.9137 -0.0658263 -4.36453e-21)
(0.922459 -0.055715 5.91178e-22)
(0.932881 -0.0468419 5.09083e-21)
(0.942 -0.037919 -2.49338e-21)
(0.949771 -0.0301078 -6.91505e-23)
(0.955527 -0.0246232 2.14635e-21)
(0.961513 -0.0205268 -6.04727e-22)
(0.966514 -0.0177154 -1.4177e-21)
(0.971862 -0.0150205 1.25605e-21)
(0.975346 -0.0137364 2.49767e-22)
(0.978465 -0.0122389 -2.35397e-22)
(0.980845 -0.010429 -5.48325e-22)
(0.98381 -0.00923221 8.57187e-22)
(0.98513 -0.00820595 -4.30223e-22)
(0.987284 -0.00735622 -9.9235e-23)
(0.988763 -0.00400367 -1.8837e-23)
(0.991958 -0.00462293 2.63451e-22)
(0.991349 -0.00389724 -8.43507e-23)
(0.994346 -0.00417415 2.21476e-24)
(0.993707 -0.00327058 4.2014e-23)
(0.997713 -0.00106539 -2.91428e-23)
(0.998006 -0.00599749 1.95166e-25)
(0.995496 -0.00491357 1.15764e-24)
(0.934676 -0.26378 -1.3778e-21)
(0.917721 -0.225122 7.57919e-21)
(0.912123 -0.191901 -6.03689e-21)
(0.911238 -0.161181 -8.1679e-21)
(0.913436 -0.129157 -3.36186e-21)
(0.917566 -0.098456 6.86096e-21)
(0.923227 -0.076584 -3.13658e-21)
(0.9294 -0.0639253 3.27594e-21)
(0.937707 -0.0535644 -1.59038e-21)
(0.946369 -0.0428937 7.66639e-21)
(0.954106 -0.0332849 -4.20622e-21)
(0.959795 -0.0265829 5.10887e-21)
(0.965381 -0.0217617 -2.18813e-22)
(0.970021 -0.0185127 9.41301e-23)
(0.974838 -0.0154278 -1.83126e-21)
(0.978425 -0.0136851 -5.54875e-22)
(0.980929 -0.012036 -5.52205e-22)
(0.982906 -0.0102425 1.89167e-22)
(0.985184 -0.00895419 4.25606e-22)
(0.986098 -0.00788996 -1.50743e-22)
(0.987173 -0.00716665 1.12803e-22)
(0.987668 -0.00411185 -4.43533e-22)
(0.990446 -0.00446244 4.03225e-22)
(0.98858 -0.0037626 -2.37584e-22)
(0.991113 -0.00406905 4.97057e-24)
(0.988422 -0.00337073 7.90079e-23)
(0.99286 -0.0013538 6.27695e-24)
(0.992171 -0.00562391 -1.28337e-23)
(0.991606 -0.00467164 -5.14829e-24)
(0.94302 -0.192211 0)
(0.934728 -0.16884 0)
(0.930763 -0.146867 0)
(0.928632 -0.123657 0)
(0.929307 -0.0988771 0)
(0.9328 -0.079113 0)
(0.936531 -0.0677937 0)
(0.941779 -0.0590666 0)
(0.948559 -0.0491259 0)
(0.955667 -0.039002 0)
(0.961127 -0.0314874 0)
(0.96623 -0.0260624 0)
(0.970438 -0.022363 0)
(0.974715 -0.0188169 0)
(0.978314 -0.0164837 0)
(0.980721 -0.0143424 0)
(0.9826 -0.0122201 0)
(0.984741 -0.0105617 0)
(0.98568 -0.009109 0)
(0.986672 -0.00810556 0)
(0.986645 -0.00493897 0)
(0.989568 -0.0049588 0)
(0.98772 -0.00408796 0)
(0.990302 -0.00422433 0)
(0.987078 -0.00361563 0)
(0.991022 -0.00174518 0)
(0.990369 -0.0057471 0)
(0.990744 -0.00478122 0)
(0.945141 -0.221791 0)
(0.939463 -0.195401 0)
(0.935653 -0.169011 0)
(0.932683 -0.14023 0)
(0.932441 -0.111188 0)
(0.935557 -0.0887816 0)
(0.939048 -0.0751738 0)
(0.943365 -0.0644987 0)
(0.948852 -0.0531471 0)
(0.955158 -0.0420362 0)
(0.960259 -0.0337992 0)
(0.965088 -0.0278963 0)
(0.969167 -0.0238045 0)
(0.973208 -0.0199876 0)
(0.976625 -0.0173192 0)
(0.97919 -0.0148828 0)
(0.981325 -0.0126879 0)
(0.98349 -0.0109296 0)
(0.984629 -0.00940176 0)
(0.986117 -0.0082413 0)
(0.986524 -0.00538089 0)
(0.989819 -0.00529408 0)
(0.988823 -0.00437306 0)
(0.992029 -0.00436245 0)
(0.989774 -0.0038044 0)
(0.993517 -0.00219644 0)
(0.993526 -0.00581802 0)
(0.993283 -0.00487906 0)
(0.98594 -0.171642 0)
(0.970447 -0.152577 0)
(0.958822 -0.133063 0)
(0.950065 -0.111847 0)
(0.945262 -0.0896913 0)
(0.945177 -0.071977 0)
(0.946072 -0.0619326 0)
(0.947784 -0.0549034 0)
(0.95114 -0.04673 0)
(0.9564 -0.0375138 0)
(0.961207 -0.0302463 0)
(0.965759 -0.0251112 0)
(0.96948 -0.0216609 0)
(0.973377 -0.0182962 0)
(0.976639 -0.0158975 0)
(0.979236 -0.0137258 0)
(0.98155 -0.0117257 0)
(0.983743 -0.0100496 0)
(0.984918 -0.00862215 0)
(0.986581 -0.00756969 0)
(0.987729 -0.00498998 0)
(0.991174 -0.00486105 0)
(0.990844 -0.00397689 0)
(0.994232 -0.00397744 0)
(0.993115 -0.00349953 0)
(0.997104 -0.00217053 0)
(0.99756 -0.00539911 0)
(0.996443 -0.0045408 0)
(0.959536 -0.208925 0)
(0.946493 -0.189285 0)
(0.937635 -0.166764 0)
(0.932273 -0.141648 0)
(0.930863 -0.116831 0)
(0.9348 -0.0969784 0)
(0.940168 -0.0836753 0)
(0.944776 -0.0730358 0)
(0.949067 -0.0619833 0)
(0.954654 -0.0505862 0)
(0.960274 -0.0413643 0)
(0.965748 -0.0344601 0)
(0.969835 -0.0295322 0)
(0.973896 -0.0249578 0)
(0.977316 -0.0214629 0)
(0.980074 -0.0183684 0)
(0.982304 -0.0156838 0)
(0.98448 -0.0133411 0)
(0.985617 -0.0114348 0)
(0.98713 -0.00998858 0)
(0.988065 -0.00734581 0)
(0.990885 -0.00680588 0)
(0.990511 -0.00567802 0)
(0.993442 -0.00540057 0)
(0.992229 -0.00484181 0)
(0.995908 -0.00347121 0)
(0.995955 -0.00607074 0)
(0.995691 -0.00492012 0)
(1.00152 -0.163549 0)
(0.989995 -0.145927 0)
(0.980742 -0.126691 0)
(0.974586 -0.106987 0)
(0.97168 -0.0878526 0)
(0.972493 -0.0718847 0)
(0.973817 -0.0610167 0)
(0.974109 -0.0530261 0)
(0.97415 -0.0453374 0)
(0.97597 -0.0370725 0)
(0.978549 -0.0301439 0)
(0.981637 -0.0248826 0)
(0.983602 -0.0212611 0)
(0.985664 -0.0179055 0)
(0.987397 -0.0153814 0)
(0.988856 -0.013123 0)
(0.989958 -0.0111444 0)
(0.99118 -0.00941949 0)
(0.991681 -0.00799472 0)
(0.992381 -0.00700636 0)
(0.992453 -0.00493654 0)
(0.994118 -0.00466006 0)
(0.993349 -0.00381746 0)
(0.995395 -0.00374539 0)
(0.993563 -0.00347302 0)
(0.996334 -0.00256093 0)
(0.995781 -0.00493117 0)
(0.996096 -0.00419785 0)
(0.998932 -0.180639 0)
(0.982817 -0.167219 0)
(0.96958 -0.150512 0)
(0.960258 -0.131367 0)
(0.955096 -0.112107 0)
(0.954446 -0.095877 0)
(0.955143 -0.0839621 0)
(0.955723 -0.074005 0)
(0.956365 -0.0642828 0)
(0.958702 -0.0542847 0)
(0.962052 -0.045741 0)
(0.966293 -0.0387875 0)
(0.969741 -0.033473 0)
(0.973432 -0.0285878 0)
(0.976598 -0.0247185 0)
(0.979441 -0.0211738 0)
(0.982044 -0.0181089 0)
(0.984696 -0.0153872 0)
(0.986448 -0.0131451 0)
(0.988561 -0.0113291 0)
(0.990131 -0.00881101 0)
(0.992882 -0.00796933 0)
(0.993335 -0.00674512 0)
(0.996224 -0.00611282 0)
(0.995906 -0.0056307 0)
(0.998894 -0.00445249 0)
(0.999 -0.00648255 0)
(0.998481 -0.00532486 0)
(1.0164 -0.157378 0)
(1.00244 -0.141906 0)
(0.990539 -0.124699 0)
(0.982096 -0.107358 0)
(0.977152 -0.0910475 0)
(0.976179 -0.0766838 0)
(0.976776 -0.0652771 0)
(0.977417 -0.0560893 0)
(0.977709 -0.048127 0)
(0.97881 -0.0403092 0)
(0.980533 -0.0334406 0)
(0.983286 -0.0276434 0)
(0.985342 -0.0233385 0)
(0.987593 -0.019534 0)
(0.989367 -0.0165502 0)
(0.990881 -0.0139876 0)
(0.99211 -0.011758 0)
(0.993361 -0.00977079 0)
(0.993785 -0.00814696 0)
(0.994616 -0.00708008 0)
(0.994893 -0.00527998 0)
(0.996204 -0.0048164 0)
(0.995687 -0.00397796 0)
(0.997491 -0.00380122 0)
(0.996401 -0.00358586 0)
(0.998551 -0.00289774 0)
(0.998093 -0.00437675 0)
(0.998175 -0.00374302 0)
(1.02473 -0.149633 0)
(1.00926 -0.139415 0)
(0.995993 -0.127831 0)
(0.986537 -0.114686 0)
(0.980371 -0.100985 0)
(0.977483 -0.0887139 0)
(0.976062 -0.0787856 0)
(0.975292 -0.0698804 0)
(0.97488 -0.0613486 0)
(0.975502 -0.0527984 0)
(0.976741 -0.0454731 0)
(0.979064 -0.0391028 0)
(0.980921 -0.0339598 0)
(0.983206 -0.0292574 0)
(0.985193 -0.0254985 0)
(0.987002 -0.0219566 0)
(0.98866 -0.0189513 0)
(0.990436 -0.0161946 0)
(0.991435 -0.013912 0)
(0.992925 -0.0119936 0)
(0.993804 -0.00971735 0)
(0.995526 -0.00869291 0)
(0.995593 -0.00751187 0)
(0.99767 -0.00670674 0)
(0.997145 -0.00631005 0)
(0.999132 -0.0052373 0)
(0.998808 -0.0067638 0)
(0.998906 -0.00565897 0)
(1.03222 -0.138683 0)
(1.01772 -0.129588 0)
(1.00553 -0.118102 0)
(0.996474 -0.105289 0)
(0.990167 -0.0925407 0)
(0.986931 -0.0804505 0)
(0.985048 -0.0697077 0)
(0.983695 -0.0602532 0)
(0.982742 -0.0521088 0)
(0.98282 -0.0444837 0)
(0.983453 -0.0377792 0)
(0.985108 -0.0318037 0)
(0.986338 -0.0270318 0)
(0.988098 -0.0228404 0)
(0.989555 -0.0193804 0)
(0.990886 -0.0163781 0)
(0.992171 -0.013788 0)
(0.993523 -0.0114739 0)
(0.99407 -0.00950609 0)
(0.995214 -0.00814394 0)
(0.995818 -0.00631004 0)
(0.997056 -0.00555012 0)
(0.99684 -0.00460605 0)
(0.998539 -0.0042174 0)
(0.997961 -0.00392248 0)
(0.999617 -0.00330958 0)
(0.999322 -0.00419266 0)
(0.999316 -0.0036027 0)
(1.03856 -0.127586 0)
(1.02495 -0.119817 0)
(1.01314 -0.110535 0)
(1.00442 -0.100229 0)
(0.997749 -0.0896906 0)
(0.993134 -0.0799625 0)
(0.989824 -0.0715787 0)
(0.987625 -0.0637904 0)
(0.986316 -0.0565583 0)
(0.985858 -0.04943 0)
(0.985823 -0.0432885 0)
(0.986904 -0.0376731 0)
(0.987703 -0.0329806 0)
(0.989069 -0.0286403 0)
(0.990322 -0.0250787 0)
(0.99151 -0.0216519 0)
(0.992663 -0.0187842 0)
(0.993959 -0.0160485 0)
(0.994497 -0.0138164 0)
(0.9957 -0.0119036 0)
(0.996256 -0.00988475 0)
(0.997387 -0.00873819 0)
(0.997299 -0.00766357 0)
(0.998874 -0.00680405 0)
(0.998399 -0.00647959 0)
(0.999748 -0.00552035 0)
(0.999383 -0.00654619 0)
(0.999645 -0.00566828 0)
(1.04356 -0.11648 0)
(1.03112 -0.110437 0)
(1.02019 -0.102804 0)
(1.01139 -0.0943444 0)
(1.00421 -0.085779 0)
(0.999212 -0.077319 0)
(0.995634 -0.0692198 0)
(0.992974 -0.0613532 0)
(0.991119 -0.0541062 0)
(0.990234 -0.0471333 0)
(0.989806 -0.0409342 0)
(0.990402 -0.0352043 0)
(0.990684 -0.0303499 0)
(0.991659 -0.0260484 0)
(0.992551 -0.022295 0)
(0.993376 -0.0189491 0)
(0.994343 -0.0160524 0)
(0.995401 -0.013445 0)
(0.995724 -0.0111812 0)
(0.996762 -0.00952044 0)
(0.997299 -0.00760542 0)
(0.998182 -0.00655367 0)
(0.998003 -0.00552051 0)
(0.999378 -0.00493165 0)
(0.99897 -0.00451834 0)
(1.00009 -0.00387856 0)
(0.999881 -0.00438782 0)
(0.999939 -0.00379964 0)
(1.04765 -0.105843 0)
(1.03632 -0.101109 0)
(1.02585 -0.0952254 0)
(1.01741 -0.0884565 0)
(1.01044 -0.0811466 0)
(1.00506 -0.0736816 0)
(1.00091 -0.0665658 0)
(0.99776 -0.059525 0)
(0.995623 -0.0530276 0)
(0.994234 -0.0466595 0)
(0.993191 -0.0411675 0)
(0.993235 -0.0360428 0)
(0.993039 -0.0317259 0)
(0.99355 -0.0277072 0)
(0.994149 -0.0243292 0)
(0.994729 -0.0210026 0)
(0.995435 -0.0182801 0)
(0.996341 -0.0156073 0)
(0.996513 -0.0134414 0)
(0.997501 -0.0115559 0)
(0.997891 -0.00972477 0)
(0.998606 -0.0085013 0)
(0.998444 -0.00752438 0)
(0.999659 -0.00667706 0)
(0.99924 -0.0063648 0)
(1.00016 -0.00554894 0)
(0.999843 -0.00618945 0)
(1.00012 -0.00551231 0)
(1.05063 -0.095514 0)
(1.04035 -0.0921314 0)
(1.03077 -0.0875429 0)
(1.02275 -0.0820573 0)
(1.01577 -0.0760666 0)
(1.01022 -0.0698244 0)
(1.00591 -0.0635896 0)
(1.00242 -0.0572986 0)
(0.999795 -0.0514617 0)
(0.997961 -0.045787 0)
(0.996508 -0.0407005 0)
(0.996115 -0.035889 0)
(0.99551 -0.0316033 0)
(0.995696 -0.0276871 0)
(0.996041 -0.0240971 0)
(0.996286 -0.0207549 0)
(0.996845 -0.0177905 0)
(0.997514 -0.0150542 0)
(0.997522 -0.012658 0)
(0.998349 -0.0107846 0)
(0.998766 -0.00883322 0)
(0.999256 -0.0075274 0)
(0.999035 -0.00643827 0)
(1.00008 -0.00567253 0)
(0.999755 -0.00515727 0)
(1.00042 -0.00447473 0)
(1.00026 -0.00470855 0)
(1.00031 -0.00412993 0)
(1.05268 -0.0856859 0)
(1.04351 -0.0832932 0)
(1.03467 -0.0798895 0)
(1.02711 -0.0756391 0)
(1.02046 -0.0708046 0)
(1.0149 -0.0655316 0)
(1.01041 -0.0602773 0)
(1.00658 -0.0547706 0)
(1.00373 -0.0496938 0)
(1.00155 -0.0444865 0)
(0.999687 -0.0398642 0)
(0.99894 -0.0353356 0)
(0.997972 -0.0313582 0)
(0.997781 -0.0275095 0)
(0.997857 -0.0241764 0)
(0.997861 -0.0208658 0)
(0.998121 -0.0181281 0)
(0.998594 -0.0153794 0)
(0.998389 -0.0131815 0)
(0.999116 -0.0112894 0)
(0.999366 -0.00952075 0)
(0.99965 -0.00820321 0)
(0.999404 -0.00727181 0)
(1.00031 -0.00645181 0)
(0.999928 -0.00610386 0)
(1.00047 -0.00541211 0)
(1.00019 -0.00576835 0)
(1.0004 -0.00527226 0)
(1.05384 -0.0762695 0)
(1.04569 -0.0748079 0)
(1.03769 -0.0723601 0)
(1.03072 -0.0691359 0)
(1.02438 -0.0653185 0)
(1.01886 -0.0610595 0)
(1.01439 -0.0566537 0)
(1.01042 -0.0519398 0)
(1.00731 -0.0474487 0)
(1.00489 -0.0428746 0)
(1.00274 -0.0386263 0)
(1.00163 -0.0345624 0)
(1.00036 -0.0307672 0)
(0.999853 -0.0272577 0)
(0.999682 -0.0240035 0)
(0.999297 -0.0209149 0)
(0.999415 -0.0182194 0)
(0.999625 -0.0155911 0)
(0.999225 -0.0132905 0)
(0.999771 -0.0114187 0)
(1.00007 -0.00958374 0)
(1.00017 -0.00813062 0)
(0.999876 -0.0070702 0)
(1.00063 -0.00621243 0)
(1.00034 -0.00565393 0)
(1.00063 -0.00496379 0)
(1.00052 -0.0050124 0)
(1.00055 -0.00448035 0)
(1.0542 -0.0674513 0)
(1.04703 -0.0666433 0)
(1.03988 -0.0650514 0)
(1.03343 -0.0626793 0)
(1.02755 -0.0598224 0)
(1.02222 -0.0563423 0)
(1.01785 -0.0527947 0)
(1.01378 -0.048747 0)
(1.0106 -0.044957 0)
(1.008 -0.0408758 0)
(1.00555 -0.0371433 0)
(1.00421 -0.0334333 0)
(1.00265 -0.0300436 0)
(1.00181 -0.0266897 0)
(1.0014 -0.0237538 0)
(1.00078 -0.0207223 0)
(1.00062 -0.0182144 0)
(1.00069 -0.0155833 0)
(1.0001 -0.0132934 0)
(1.00052 -0.0113572 0)
(1.00073 -0.00960222 0)
(1.0006 -0.00813795 0)
(1.00026 -0.00713875 0)
(1.00087 -0.00629525 0)
(1.00053 -0.0058657 0)
(1.00072 -0.00524277 0)
(1.00051 -0.00538609 0)
(1.00058 -0.00502217 0)
(1.05385 -0.0591584 0)
(1.04759 -0.0589343 0)
(1.04122 -0.0579905 0)
(1.03541 -0.0563651 0)
(1.03003 -0.0542405 0)
(1.02493 -0.0515637 0)
(1.02075 -0.0486841 0)
(1.01674 -0.0453855 0)
(1.01347 -0.0421049 0)
(1.01079 -0.0386739 0)
(1.00817 -0.0353493 0)
(1.00654 -0.0321267 0)
(1.00483 -0.0289907 0)
(1.0037 -0.0259695 0)
(1.00311 -0.0232223 0)
(1.00215 -0.0204111 0)
(1.00186 -0.0179546 0)
(1.00174 -0.0154729 0)
(1.00095 -0.0132219 0)
(1.00114 -0.0112976 0)
(1.00135 -0.00963352 0)
(1.00107 -0.00814603 0)
(1.00065 -0.00715102 0)
(1.00111 -0.0063234 0)
(1.00085 -0.00582358 0)
(1.00081 -0.00519986 0)
(1.00071 -0.00515433 0)
(1.00066 -0.00471825 0)
(1.05288 -0.051538 0)
(1.04745 -0.051663 0)
(1.0419 -0.0512909 0)
(1.03666 -0.0502006 0)
(1.0318 -0.0487805 0)
(1.02706 -0.0467026 0)
(1.0231 -0.0445102 0)
(1.01921 -0.0417841 0)
(1.01599 -0.0391139 0)
(1.01325 -0.0361783 0)
(1.01048 -0.0333816 0)
(1.00875 -0.0304756 0)
(1.00687 -0.0277758 0)
(1.00544 -0.0249755 0)
(1.00468 -0.0225473 0)
(1.00357 -0.0198974 0)
(1.00302 -0.0175857 0)
(1.00273 -0.015233 0)
(1.00183 -0.0130393 0)
(1.00182 -0.0111135 0)
(1.00198 -0.0095035 0)
(1.00148 -0.00809205 0)
(1.00103 -0.00709776 0)
(1.00135 -0.00624857 0)
(1.00108 -0.00576545 0)
(1.00094 -0.00514375 0)
(1.00082 -0.00510466 0)
(1.00069 -0.00481941 0)
(1.05141 -0.0444928 0)
(1.04676 -0.044936 0)
(1.04192 -0.0449219 0)
(1.03728 -0.0443455 0)
(1.03296 -0.0433879 0)
(1.02857 -0.0419323 0)
(1.02492 -0.0402241 0)
(1.02123 -0.0381246 0)
(1.01806 -0.0359146 0)
(1.01533 -0.033538 0)
(1.01259 -0.031129 0)
(1.01065 -0.0286581 0)
(1.00872 -0.0262895 0)
(1.0071 -0.0238308 0)
(1.0062 -0.0216274 0)
(1.00483 -0.0192109 0)
(1.00417 -0.0170062 0)
(1.00374 -0.0147809 0)
(1.00269 -0.01276 0)
(1.00243 -0.0108643 0)
(1.00252 -0.00937963 0)
(1.00193 -0.00797582 0)
(1.00142 -0.00696861 0)
(1.00159 -0.00612348 0)
(1.00139 -0.00563535 0)
(1.00104 -0.00509563 0)
(1.00093 -0.00502918 0)
(1.00072 -0.00472563 0)
(1.04955 -0.0381194 0)
(1.04557 -0.038707 0)
(1.04143 -0.0390154 0)
(1.03735 -0.0387497 0)
(1.03353 -0.0382469 0)
(1.02958 -0.037208 0)
(1.02623 -0.0360079 0)
(1.02275 -0.0343585 0)
(1.01976 -0.0326623 0)
(1.01709 -0.0306756 0)
(1.01434 -0.028743 0)
(1.01239 -0.0265995 0)
(1.01037 -0.0246344 0)
(1.00855 -0.0224642 0)
(1.00755 -0.0204928 0)
(1.00614 -0.0182906 0)
(1.00528 -0.0162551 0)
(1.00459 -0.0142455 0)
(1.0035 -0.0123747 0)
(1.00305 -0.0105472 0)
(1.00311 -0.00906672 0)
(1.00235 -0.00772597 0)
(1.00183 -0.0067622 0)
(1.00184 -0.00594215 0)
(1.00159 -0.00553228 0)
(1.00114 -0.00500015 0)
(1.00107 -0.00486916 0)
(1.00074 -0.00463946 0)
(1.04739 -0.0323249 0)
(1.04405 -0.0330555 0)
(1.04049 -0.0335088 0)
(1.03694 -0.0335456 0)
(1.03364 -0.0333033 0)
(1.03005 -0.0326794 0)
(1.02709 -0.03182 0)
(1.02385 -0.0306253 0)
(1.02104 -0.029307 0)
(1.01846 -0.0277489 0)
(1.01585 -0.0261708 0)
(1.01378 -0.0244238 0)
(1.01178 -0.0227713 0)
(1.00992 -0.0208719 0)
(1.00887 -0.0191351 0)
(1.00724 -0.0172155 0)
(1.00624 -0.0154258 0)
(1.00543 -0.0135366 0)
(1.00427 -0.011831 0)
(1.00367 -0.010054 0)
(1.00365 -0.00867245 0)
(1.00276 -0.00743604 0)
(1.00221 -0.00652753 0)
(1.00203 -0.00575974 0)
(1.00187 -0.00530693 0)
(1.00129 -0.00480786 0)
(1.00118 -0.00470695 0)
(1.00074 -0.00450937 0)
(1.04505 -0.0271555 0)
(1.04224 -0.0279047 0)
(1.03922 -0.0284939 0)
(1.03617 -0.0286658 0)
(1.0333 -0.0286934 0)
(1.03014 -0.0283058 0)
(1.02751 -0.0277885 0)
(1.02453 -0.0269149 0)
(1.02196 -0.0259614 0)
(1.01953 -0.0247279 0)
(1.01697 -0.0235312 0)
(1.01497 -0.0220865 0)
(1.01305 -0.0207043 0)
(1.01107 -0.0191208 0)
(1.00993 -0.0176696 0)
(1.00824 -0.0160118 0)
(1.00719 -0.0143785 0)
(1.00617 -0.0126651 0)
(1.00502 -0.0111051 0)
(1.00427 -0.00947665 0)
(1.00416 -0.00820756 0)
(1.00312 -0.00704248 0)
(1.00258 -0.00619413 0)
(1.00231 -0.00543199 0)
(1.0021 -0.00504168 0)
(1.00135 -0.00463131 0)
(1.0013 -0.00449034 0)
(1.00075 -0.00431858 0)
(1.0426 -0.0225275 0)
(1.04027 -0.0232908 0)
(1.03774 -0.0238943 0)
(1.03509 -0.0242058 0)
(1.03268 -0.0243518 0)
(1.02985 -0.0241906 0)
(1.02757 -0.0238989 0)
(1.02486 -0.0233031 0)
(1.02254 -0.0226224 0)
(1.02021 -0.0217215 0)
(1.01788 -0.0207889 0)
(1.01591 -0.0196278 0)
(1.01401 -0.0185569 0)
(1.01202 -0.0172486 0)
(1.01088 -0.0160351 0)
(1.00913 -0.0145819 0)
(1.00802 -0.0131731 0)
(1.00688 -0.0116358 0)
(1.00567 -0.010269 0)
(1.00478 -0.00879277 0)
(1.00464 -0.00762 0)
(1.00349 -0.0065505 0)
(1.00296 -0.00577408 0)
(1.00248 -0.00510863 0)
(1.00232 -0.0047424 0)
(1.00149 -0.00432552 0)
(1.00142 -0.00419977 0)
(1.00074 -0.00408246 0)
(1.04017 -0.0184364 0)
(1.03823 -0.0191277 0)
(1.0361 -0.0197589 0)
(1.03384 -0.0200879 0)
(1.0318 -0.0203492 0)
(1.02931 -0.0203161 0)
(1.02734 -0.0201954 0)
(1.02489 -0.0198123 0)
(1.02279 -0.0193653 0)
(1.02067 -0.0187021 0)
(1.01849 -0.0180115 0)
(1.01657 -0.0171334 0)
(1.01479 -0.0162931 0)
(1.01279 -0.0152253 0)
(1.01166 -0.0142341 0)
(1.00988 -0.0130268 0)
(1.00876 -0.0118155 0)
(1.00743 -0.0105029 0)
(1.00626 -0.00930421 0)
(1.0053 -0.0079599 0)
(1.00508 -0.00693672 0)
(1.0038 -0.00598097 0)
(1.00326 -0.00529443 0)
(1.00271 -0.00466974 0)
(1.00257 -0.00431517 0)
(1.00157 -0.00399887 0)
(1.00151 -0.00388857 0)
(1.00072 -0.00377711 0)
(1.03783 -0.0147935 0)
(1.03619 -0.0154251 0)
(1.03444 -0.0160026 0)
(1.03248 -0.0163444 0)
(1.03078 -0.016647 0)
(1.02858 -0.0166955 0)
(1.02689 -0.0166909 0)
(1.02467 -0.0164716 0)
(1.02282 -0.0161811 0)
(1.02085 -0.0157267 0)
(1.01887 -0.0152473 0)
(1.01703 -0.0145665 0)
(1.01536 -0.0139523 0)
(1.01338 -0.0130971 0)
(1.01227 -0.012325 0)
(1.01049 -0.0113367 0)
(1.00934 -0.0103345 0)
(1.00793 -0.00922508 0)
(1.0068 -0.00817971 0)
(1.0057 -0.00703109 0)
(1.00545 -0.00615356 0)
(1.00409 -0.0053118 0)
(1.00361 -0.00468959 0)
(1.00289 -0.00414738 0)
(1.00272 -0.00389362 0)
(1.00164 -0.00359652 0)
(1.00163 -0.00346936 0)
(1.00071 -0.00340176 0)
(1.03564 -0.0115685 0)
(1.03427 -0.0120955 0)
(1.03281 -0.0126123 0)
(1.03112 -0.012922 0)
(1.02969 -0.0132279 0)
(1.02777 -0.0133217 0)
(1.0263 -0.0133833 0)
(1.02431 -0.0132763 0)
(1.02266 -0.0131007 0)
(1.02084 -0.0128137 0)
(1.01907 -0.0124756 0)
(1.01729 -0.0119872 0)
(1.01576 -0.0115482 0)
(1.0138 -0.0108869 0)
(1.01272 -0.0103058 0)
(1.01096 -0.00952433 0)
(1.00984 -0.00871969 0)
(1.00832 -0.00780421 0)
(1.00722 -0.00695602 0)
(1.00607 -0.00597481 0)
(1.00579 -0.00525709 0)
(1.00435 -0.00454799 0)
(1.00386 -0.00401979 0)
(1.00302 -0.00360124 0)
(1.00292 -0.00334392 0)
(1.00175 -0.00308547 0)
(1.0017 -0.00300724 0)
(1.00067 -0.00295882 0)
(1.03373 -0.00867407 0)
(1.03253 -0.00909775 0)
(1.03133 -0.00952348 0)
(1.02985 -0.00978023 0)
(1.02864 -0.0100624 0)
(1.02693 -0.0101604 0)
(1.02565 -0.0102579 0)
(1.02386 -0.010214 0)
(1.0224 -0.0101237 0)
(1.02071 -0.00994788 0)
(1.01912 -0.00973027 0)
(1.01741 -0.00938941 0)
(1.016 -0.00909786 0)
(1.01409 -0.00860221 0)
(1.01304 -0.00818403 0)
(1.01131 -0.00760011 0)
(1.0102 -0.00697825 0)
(1.00863 -0.0062897 0)
(1.00761 -0.0055808 0)
(1.00635 -0.00481192 0)
(1.00602 -0.00427701 0)
(1.00457 -0.00370568 0)
(1.0041 -0.00326231 0)
(1.00317 -0.00289939 0)
(1.00307 -0.00274141 0)
(1.00178 -0.00254999 0)
(1.00176 -0.00246385 0)
(1.00065 -0.00243011 0)
(1.03215 -0.0060422 0)
(1.03108 -0.0063528 0)
(1.03008 -0.00667429 0)
(1.02874 -0.00686031 0)
(1.02771 -0.0070903 0)
(1.02618 -0.00717831 0)
(1.02504 -0.00726333 0)
(1.02341 -0.00727447 0)
(1.02208 -0.00721727 0)
(1.02051 -0.00712867 0)
(1.01909 -0.00699728 0)
(1.01741 -0.00677752 0)
(1.01614 -0.00658955 0)
(1.01427 -0.00625612 0)
(1.01323 -0.00597441 0)
(1.01155 -0.00554992 0)
(1.01046 -0.00516235 0)
(1.00887 -0.00462421 0)
(1.0079 -0.00410746 0)
(1.00652 -0.00355993 0)
(1.00621 -0.00320727 0)
(1.00477 -0.00273418 0)
(1.00432 -0.00237816 0)
(1.00323 -0.0022347 0)
(1.00314 -0.00205223 0)
(1.00189 -0.0018576 0)
(1.00183 -0.00185732 0)
(1.00061 -0.00184397 0)
(1.03101 -0.00358359 0)
(1.03 -0.0037746 0)
(1.02915 -0.00397384 0)
(1.02792 -0.00408818 0)
(1.02698 -0.00424489 0)
(1.02561 -0.00429118 0)
(1.02453 -0.00437071 0)
(1.02304 -0.00437244 0)
(1.02183 -0.00435403 0)
(1.0203 -0.00431804 0)
(1.01902 -0.00423773 0)
(1.01739 -0.00412326 0)
(1.01619 -0.00402701 0)
(1.01435 -0.00381464 0)
(1.01338 -0.00366275 0)
(1.01164 -0.00343051 0)
(1.01061 -0.00315678 0)
(1.00909 -0.00288297 0)
(1.00809 -0.00253279 0)
(1.00661 -0.00219549 0)
(1.00635 -0.00198301 0)