/*--------------------------------*- C++ -*----------------------------------*\
| =========                 |                                                 |
| \\      /  F ield         | OpenFOAM: The Open Source CFD Toolbox           |
|  \\    /   O peration     | Version:                                        |
|   \\  /    A nd           | Website:  www.openfoam.com                      |
|    \\/     M anipulation  |                                                 |
\*---------------------------------------------------------------------------*/
FoamFile
{
    version     2.0;
    format      ascii;
    class       volVectorField;
    location    "56";
    object      U;
}
// * * * * * * * * * * * * * * * * * * * * * * * * * * * * * * * * * * * * * //

dimensions      [0 1 -1 0 0 0 0];


internalField   nonuniform List<vector> 
1139
(
(1.45327 0.367034 1.87494e-19)
(1.39774 0.364791 -3.17017e-19)
(1.35292 0.362485 4.95226e-20)
(1.37849 0.308301 2.11568e-19)
(1.31329 0.362138 1.30177e-21)
(1.35431 0.302186 -4.55206e-20)
(1.29464 0.355041 -4.35781e-20)
(1.30657 0.302198 -9.94826e-20)
(1.27923 0.242645 -1.2076e-19)
(1.25066 0.350637 -7.17266e-20)
(1.26343 0.291234 1.96928e-19)
(1.23974 0.245169 2.04204e-19)
(1.2179 0.32915 6.37429e-20)
(1.21717 0.297776 -1.54986e-20)
(1.21626 0.230757 -2.13624e-19)
(1.17755 0.338709 3.50045e-20)
(1.17949 0.267243 -6.66701e-20)
(1.17635 0.234162 8.20895e-20)
(1.22321 0.164307 1.63096e-19)
(1.1456 0.293212 4.83245e-20)
(1.13881 0.277357 -1.96675e-19)
(1.15632 0.206289 -3.07098e-20)
(1.19632 0.16212 -6.68591e-20)
(1.08244 0.309166 7.85869e-20)
(1.10758 0.258865 1.47752e-19)
(1.12357 0.207009 7.31051e-21)
(1.15591 0.15634 -4.55578e-20)
(0.0762711 -0.808168 -3.98433e-20)
(0.0968259 -0.75912 4.62819e-20)
(0.150775 -0.723485 3.72915e-20)
(0.1839 -0.670812 -2.32201e-19)
(0.193252 -0.60192 -6.14953e-20)
(0.183191 -0.522595 -5.98857e-20)
(0.12789 -0.662564 -8.39553e-22)
(0.204709 -0.618931 -7.04403e-21)
(0.256145 -0.561365 7.84786e-20)
(0.283651 -0.488009 1.82542e-19)
(0.273759 -0.411093 4.06851e-19)
(0.236931 -0.308403 3.66701e-19)
(0.170845 -0.51069 -2.04795e-20)
(0.270578 -0.464021 1.55377e-19)
(0.340594 -0.406755 1.31485e-19)
(0.377154 -0.337 -1.51605e-19)
(0.38784 -0.261872 -5.60022e-19)
(0.348967 -0.169487 -2.62119e-21)
(0.268954 -0.0668386 -2.78337e-19)
(0.220812 -0.313181 3.06606e-20)
(0.341822 -0.266088 -1.10407e-19)
(0.430481 -0.21736 -5.95164e-20)
(0.48794 -0.154997 -5.53528e-20)
(0.500918 -0.089233 6.48691e-19)
(0.447734 -0.0171457 -1.53888e-19)
(0.566426 0.121329 -7.84534e-20)
(0.968827 0.302462 -7.78318e-20)
(0.272319 -0.0886443 2.01152e-20)
(0.416262 -0.0406905 -4.66414e-20)
(0.531106 0.00612044 -1.12627e-19)
(0.598322 0.0496667 3.06483e-20)
(0.589707 0.0774753 -1.35555e-20)
(0.638764 0.171346 -9.99886e-20)
(0.953994 0.339577 -6.80215e-19)
(1.32137 0.44576 -3.52448e-19)
(1.47329 0.439479 -8.6213e-20)
(0.336672 0.151178 -5.3494e-20)
(0.504627 0.196628 7.20937e-21)
(0.618938 0.213879 1.68776e-19)
(0.65638 0.220923 1.17428e-19)
(0.701593 0.268564 -4.27728e-19)
(0.944684 0.404964 2.90846e-19)
(1.29344 0.515672 1.186e-19)
(1.47342 0.525241 5.74573e-19)
(1.46838 0.474214 3.00905e-19)
(1.48972 0.425961 1.09876e-19)
(0.39761 0.35592 3.9095e-20)
(0.54715 0.382495 9.56128e-20)
(0.636555 0.385312 -3.7682e-20)
(0.725705 0.413198 -2.20102e-19)
(0.936776 0.501204 2.25109e-19)
(1.24797 0.60675 -1.61526e-20)
(1.4483 0.62323 -1.51472e-19)
(1.45672 0.567864 2.83787e-19)
(1.44262 0.498247 -4.27784e-19)
(1.4795 0.436308 1.34952e-19)
(0.409431 0.506386 -4.44063e-20)
(0.553899 0.53655 -4.61147e-20)
(0.699089 0.558568 -2.61097e-19)
(0.903782 0.632954 -1.99978e-20)
(1.17626 0.718716 -4.2978e-20)
(1.38862 0.745179 2.92215e-19)
(1.43252 0.674285 -1.97719e-19)
(1.40122 0.581567 1.77153e-19)
(1.42453 0.513221 3.06161e-20)
(1.429 0.446376 -4.03003e-19)
(0.456461 0.643907 -3.84859e-20)
(0.628583 0.708763 1.67666e-19)
(0.832453 0.781716 2.95796e-19)
(1.08329 0.862949 2.89875e-19)
(1.30044 0.872942 1.36904e-19)
(1.38651 0.796154 -5.22441e-19)
(1.35001 0.676252 4.36815e-19)
(1.35028 0.598923 -3.18058e-20)
(1.39057 0.528832 -1.16275e-19)
(1.36844 0.43968 2.67311e-19)
(0.521274 0.830361 3.23058e-20)
(0.730643 0.931337 -3.19394e-20)
(0.976007 0.992716 -1.04085e-20)
(1.18911 1.00393 9.11035e-20)
(1.29131 0.920301 -1.48161e-19)
(1.27748 0.795688 1.87448e-19)
(1.25522 0.686669 -1.1543e-19)
(1.31726 0.610489 8.04739e-20)
(1.34865 0.520535 -2.16777e-20)
(1.29426 0.436969 -8.51133e-20)
(0.612334 1.03769 3.61092e-20)
(0.843002 1.12674 -1.17809e-20)
(1.04072 1.13222 -1.12109e-19)
(1.16235 1.06025 2.97056e-20)
(1.1668 0.916796 -1.01793e-19)
(1.16308 0.785467 2.17205e-19)
(1.22568 0.681459 -2.88799e-19)
(1.28832 0.604225 1.84124e-19)
(1.26689 0.516934 1.43184e-19)
(1.23844 0.432737 1.51584e-19)
(0.679003 1.20171 -2.63081e-20)
(0.875904 1.23772 7.47559e-20)
(1.00369 1.15117 -2.67095e-20)
(1.05539 1.03056 -1.01581e-19)
(1.05663 0.876927 -2.17508e-19)
(1.0954 0.759523 4.342e-21)
(1.18191 0.674225 3.61494e-20)
(1.21287 0.605281 -1.90111e-20)
(1.19683 0.504735 -5.92356e-20)
(1.20827 0.422951 -8.06074e-20)
(0.688333 1.27809 -1.59339e-20)
(0.82865 1.25517 2.17394e-19)
(0.896795 1.12439 -5.82863e-21)
(0.938024 0.98864 -1.23244e-19)
(0.96014 0.854837 1.15246e-19)
(1.0216 0.767631 1.26144e-19)
(1.14162 0.665828 2.721e-19)
(1.17462 0.571764 -3.40346e-19)
(1.13579 0.499075 -1.89005e-19)
(1.16564 0.412385 1.46949e-19)
(0.688916 1.25103 -4.43614e-20)
(0.779909 1.18994 -1.87977e-20)
(0.813638 1.05927 -2.42897e-19)
(0.84125 0.948774 -4.46368e-20)
(0.91219 0.815929 3.7061e-20)
(1.01209 0.708201 -1.4892e-19)
(1.08299 0.626321 -2.18609e-19)
(1.09405 0.569858 1.48094e-19)
(1.07318 0.468263 2.76274e-19)
(1.12917 0.40072 -1.70903e-19)
(0.603146 1.26119 7.81247e-22)
(0.68397 1.15208 -3.19739e-20)
(0.718732 1.00222 1.84692e-19)
(0.747708 0.897796 1.51265e-19)
(0.830685 0.807484 1.25863e-19)
(0.929375 0.731862 -7.74983e-20)
(1.00877 0.617621 9.90026e-20)
(1.04758 0.527271 5.14211e-20)
(1.04532 0.495061 -2.64557e-19)
(1.09493 0.377039 -9.13983e-20)
(0.650368 1.16938 1.46854e-20)
(0.633953 1.05934 -6.80668e-21)
(0.661218 0.944254 1.16161e-20)
(0.715793 0.872685 -1.24845e-19)
(0.81062 0.766355 -2.9299e-19)
(0.921374 0.624298 1.27747e-19)
(0.967373 0.572948 2.83545e-21)
(0.988785 0.50606 -4.75462e-20)
(1.02177 0.407967 2.18556e-19)
(1.05925 0.358561 -3.08525e-20)
(0.486945 1.07385 -1.6968e-20)
(0.483434 1.00634 1.04119e-20)
(0.568788 0.913036 -1.21647e-20)
(0.628211 0.854135 9.12831e-20)
(0.677825 0.802413 2.00559e-19)
(0.784452 0.671168 -1.34526e-19)
(0.894876 0.552527 1.0073e-20)
(0.913671 0.497143 1.10077e-19)
(0.939656 0.469639 -3.47235e-20)
(0.99351 0.366719 -2.01958e-21)
(0.537176 1.09899 3.99804e-21)
(0.497727 1.09513 2.67999e-20)
(0.491673 0.990555 -1.20411e-20)
(0.5314 0.834946 -4.34723e-20)
(0.606471 0.734622 -5.41576e-21)
(0.681881 0.648631 3.49469e-20)
(0.777854 0.580122 4.06555e-20)
(0.837673 0.445953 -4.87147e-20)
(0.888931 0.431906 -5.59716e-20)
(0.946274 0.397042 -2.71232e-21)
(0.479282 1.08505 1.05405e-20)
(0.395469 1.0629 5.05386e-21)
(0.338408 0.972148 -1.74527e-20)
(0.35374 0.85249 -6.23815e-20)
(0.449973 0.732594 -1.62564e-19)
(0.579947 0.581467 -4.62494e-20)
(0.68527 0.515198 4.91449e-20)
(0.749339 0.472038 -3.53612e-20)
(0.830203 0.37564 1.52501e-21)
(0.896403 0.377566 -3.36983e-20)
(0.524831 0.817377 -2.39852e-20)
(0.376262 0.834005 -3.29821e-20)
(0.27205 0.827129 -8.08917e-20)
(0.248215 0.780652 4.19047e-20)
(0.308083 0.718396 1.14877e-19)
(0.436336 0.60632 1.56695e-20)
(0.59741 0.460366 -1.69732e-20)
(0.697724 0.440337 4.07089e-20)
(0.748343 0.386694 -6.57818e-21)
(0.834565 0.332677 4.06799e-20)
(0.596631 0.373775 1.90445e-20)
(0.38753 0.424628 -3.09008e-20)
(0.206741 0.483769 8.81145e-20)
(0.126369 0.520644 -5.3204e-20)
(0.172559 0.540927 1.13516e-20)
(0.289787 0.522063 5.93929e-20)
(0.445283 0.437514 -3.21376e-20)
(0.593955 0.328801 -1.84073e-20)
(0.667055 0.339528 3.99895e-22)
(0.756839 0.327502 1.96992e-20)
(0.653773 -0.142469 -6.51061e-21)
(0.425516 -0.0679641 1.3451e-20)
(0.226661 0.0284817 1.79234e-20)
(0.108389 0.14144 7.1088e-20)
(0.105155 0.272731 -3.90483e-20)
(0.188395 0.329998 -3.99909e-20)
(0.306123 0.353459 -1.89426e-20)
(0.442424 0.248614 6.67717e-22)
(0.592946 0.216312 6.71009e-21)
(0.673461 0.283789 -1.39036e-20)
(0.716 -0.641518 -4.6572e-21)
(0.490613 -0.551911 1.06938e-20)
(0.2902 -0.41572 -5.73656e-20)
(0.157084 -0.270747 -5.60031e-20)
(0.109663 -0.0716847 -3.47252e-21)
(0.146171 0.0577995 1.96536e-20)
(0.219883 0.168185 9.0021e-21)
(0.30585 0.191768 -1.59756e-21)
(0.506752 0.114939 2.84938e-22)
(0.595966 0.163376 -2.91827e-22)
(0.724813 -0.937366 8.03364e-21)
(0.548613 -0.876395 -3.01537e-20)
(0.390994 -0.735913 7.58148e-21)
(0.27712 -0.604752 4.11657e-21)
(0.219174 -0.404264 1.38952e-20)
(0.199918 -0.218922 -5.13725e-20)
(0.235955 -0.0730294 2.19924e-21)
(0.255062 0.0681625 1.26826e-20)
(0.402966 0.0619992 -8.68954e-21)
(0.530202 0.0737374 3.19128e-22)
(0.719278 -1.00671 -3.76367e-21)
(0.603364 -0.993586 3.33948e-20)
(0.493553 -0.890504 -6.91861e-21)
(0.403092 -0.794163 4.92759e-20)
(0.345337 -0.656774 4.63606e-20)
(0.297057 -0.475067 6.56566e-20)
(0.297559 -0.331185 8.30926e-22)
(0.283563 -0.147214 -3.08895e-21)
(0.339031 -0.0653151 1.64669e-20)
(0.474609 0.00464587 8.86854e-21)
(0.727687 -0.980281 8.82999e-21)
(0.647643 -0.999756 1.56092e-20)
(0.576649 -0.953641 1.00697e-20)
(0.507189 -0.880614 -1.14322e-20)
(0.454342 -0.800975 -2.75602e-20)
(0.412882 -0.639329 -1.83205e-20)
(0.388225 -0.530873 2.13872e-21)
(0.376345 -0.355812 2.47261e-21)
(0.357126 -0.240342 -8.36173e-21)
(0.464832 -0.108457 -1.45434e-20)
(0.706377 -0.924178 -1.52612e-21)
(0.668328 -0.941585 -5.48731e-21)
(0.643324 -0.946349 3.30249e-20)
(0.607483 -0.879619 1.92726e-20)
(0.579962 -0.825363 -1.99729e-20)
(0.545155 -0.681945 2.4477e-20)
(0.513953 -0.597264 -2.03875e-21)
(0.509559 -0.463073 3.82854e-21)
(0.463758 -0.361942 1.18291e-22)
(0.511401 -0.21735 6.79528e-21)
(0.702747 -0.867462 -5.40117e-22)
(0.669355 -0.872469 -2.13217e-20)
(0.693764 -0.912024 -3.43222e-21)
(0.700589 -0.854389 -1.19697e-20)
(0.696664 -0.826988 3.68489e-21)
(0.67876 -0.698533 -5.31219e-20)
(0.644749 -0.596676 3.3043e-20)
(0.627163 -0.492314 3.185e-21)
(0.601759 -0.408514 8.59257e-22)
(0.589236 -0.300072 4.6695e-21)
(0.699906 -0.858021 -3.10173e-21)
(0.645229 -0.871494 -2.39852e-21)
(0.706226 -0.921126 1.12895e-20)
(0.749605 -0.892475 2.36795e-20)
(0.776837 -0.871571 -3.74116e-20)
(0.820865 -0.764268 2.66445e-20)
(0.779954 -0.643381 -6.43814e-21)
(0.734378 -0.520402 -1.27705e-20)
(0.724146 -0.414056 1.39166e-20)
(0.669218 -0.337608 -8.06824e-21)
(0.66588 -0.904051 -2.31645e-21)
(0.61907 -0.929848 3.22462e-20)
(0.681459 -0.991479 -2.10793e-20)
(0.765464 -1.00449 -4.68201e-20)
(0.827381 -0.972173 -3.27091e-20)
(0.898472 -0.91585 4.31687e-20)
(0.898401 -0.793086 -2.79936e-20)
(0.849877 -0.653454 -2.41372e-20)
(0.815214 -0.50643 -3.43075e-20)
(0.752869 -0.379875 1.9924e-21)
(0.591818 -0.905143 2.06987e-21)
(0.569777 -0.952524 -2.60153e-20)
(0.628113 -1.02576 1.66762e-20)
(0.763847 -1.0792 -2.4946e-20)
(0.826538 -1.07507 5.14556e-20)
(0.904645 -1.08147 1.19304e-20)
(1.0024 -0.970883 8.42443e-20)
(0.921617 -0.879587 2.07045e-20)
(0.929275 -0.716698 3.38518e-20)
(0.858792 -0.537303 2.36744e-20)
(0.487559 -0.790765 3.48888e-22)
(0.514824 -0.83906 1.40401e-20)
(0.595454 -0.900877 -2.9502e-20)
(0.752058 -0.973103 6.13854e-20)
(0.825242 -1.02311 -2.45148e-20)
(0.969206 -1.04981 -7.29012e-20)
(1.04951 -1.03523 -1.06884e-20)
(1.01216 -0.980668 -5.30831e-20)
(1.08506 -0.885811 -1.82492e-20)
(0.919568 -0.764367 -2.18542e-20)
(0.430588 -0.528291 5.59848e-22)
(0.49076 -0.544924 2.84014e-21)
(0.596019 -0.596431 -4.34016e-20)
(0.750179 -0.640794 -1.4196e-20)
(0.882495 -0.729899 6.09873e-20)
(1.01597 -0.768327 -2.23786e-20)
(1.11113 -0.883219 -5.16876e-20)
(1.16521 -0.829213 4.54058e-20)
(1.13203 -0.886126 -2.87619e-20)
(1.03335 -0.847215 -3.49403e-20)
(0.423602 -0.153659 2.86221e-21)
(0.501835 -0.136332 -2.63657e-20)
(0.630549 -0.162516 4.2193e-20)
(0.784532 -0.185818 1.43512e-20)
(0.942276 -0.264893 2.06666e-20)
(1.0606 -0.338078 -3.82171e-20)
(1.21337 -0.47889 -1.3182e-19)
(1.1971 -0.524152 4.42322e-21)
(1.25539 -0.620496 8.69655e-20)
(1.22562 -0.707843 3.23074e-20)
(0.480195 0.208394 -5.05824e-21)
(0.556749 0.255396 3.67137e-20)
(0.676074 0.271251 3.54361e-20)
(0.831079 0.2657 -6.00292e-20)
(0.981211 0.21894 -7.89049e-20)
(1.11593 0.142971 1.27734e-20)
(1.24619 0.023773 6.14211e-20)
(1.25497 -0.115938 -6.13943e-22)
(1.40714 -0.164269 1.24864e-20)
(1.2837 -0.397933 4.15354e-20)
(0.550422 0.428052 2.02678e-21)
(0.637113 0.495753 -1.48417e-20)
(0.737832 0.525696 -1.85818e-20)
(0.854532 0.554714 1.65072e-20)
(0.9861 0.536037 6.40345e-20)
(1.12645 0.511775 1.6131e-19)
(1.24393 0.420961 1.55987e-19)
(1.32004 0.310084 1.66554e-20)
(1.41526 0.259176 -7.80295e-20)
(1.36963 0.00851696 -8.39723e-20)
(1.19385 0.599653 -6.83705e-20)
(1.28562 0.527297 -2.1773e-21)
(1.36108 0.493814 7.6643e-20)
(1.40729 0.325194 -8.97982e-21)
(1.03853 0.306336 0)
(1.0261 0.247362 0)
(1.02632 0.203861 0)
(1.01563 0.166289 0)
(1.01667 0.13493 0)
(1.02685 0.101139 0)
(1.03104 0.0729547 0)
(1.02636 0.051795 0)
(1.02363 0.0348128 0)
(1.02517 0.0207333 0)
(1.02741 0.00968328 0)
(1.02905 0.000904655 0)
(1.02919 -0.00511287 0)
(1.0308 -0.00953873 0)
(1.03069 -0.0122029 0)
(1.03048 -0.0131451 0)
(1.03086 -0.013586 0)
(1.03005 -0.0132308 0)
(1.02905 -0.0124389 0)
(1.02812 -0.0115817 0)
(1.0267 -0.0105503 0)
(1.02521 -0.00943432 0)
(1.0238 -0.0083778 0)
(1.02236 -0.00731757 0)
(1.02091 -0.00621914 0)
(1.01971 -0.00513099 0)
(1.01864 -0.00404514 0)
(1.01778 -0.00290597 0)
(1.01722 -0.00173725 0)
(1.01692 -0.000587964 0)
(1.02155 0.282441 0)
(0.997835 0.259957 0)
(1.00977 0.196227 0)
(1.00413 0.163156 0)
(1.01127 0.125843 0)
(1.01935 0.0933851 0)
(1.02351 0.0675661 0)
(1.02283 0.0475395 0)
(1.02387 0.0301025 0)
(1.02619 0.0168409 0)
(1.02881 0.00676249 0)
(1.03024 -0.00116638 0)
(1.0313 -0.00672946 0)
(1.03282 -0.010633 0)
(1.03272 -0.0127134 0)
(1.03313 -0.0136948 0)
(1.03298 -0.0138523 0)
(1.03193 -0.0132666 0)
(1.0309 -0.0124662 0)
(1.02966 -0.0115373 0)
(1.02799 -0.0104589 0)
(1.02635 -0.00937413 0)
(1.02473 -0.00833353 0)
(1.02306 -0.00727956 0)
(1.02148 -0.00620908 0)
(1.02013 -0.00514413 0)
(1.01892 -0.00406556 0)
(1.01797 -0.00293522 0)
(1.01732 -0.00176367 0)
(1.01699 -0.000597009 0)
(0.94652 0.275843 0)
(0.972146 0.23633 0)
(0.966061 0.194619 0)
(0.973439 0.158892 0)
(0.982776 0.124918 0)
(1.00305 0.0930032 0)
(1.01444 0.0668369 0)
(1.01599 0.0456785 0)
(1.01782 0.0290075 0)
(1.02232 0.0160447 0)
(1.0274 0.00543329 0)
(1.03038 -0.00262608 0)
(1.03226 -0.00830275 0)
(1.03362 -0.0116173 0)
(1.03427 -0.0133177 0)
(1.03499 -0.0140503 0)
(1.0346 -0.01387 0)
(1.03359 -0.0131912 0)
(1.0325 -0.0123832 0)
(1.03101 -0.0113889 0)
(1.02922 -0.0102994 0)
(1.02747 -0.00924667 0)
(1.02568 -0.00821708 0)
(1.02387 -0.00718409 0)
(1.0222 -0.00615023 0)
(1.02072 -0.00511233 0)
(1.01941 -0.00405117 0)
(1.01838 -0.00293884 0)
(1.01767 -0.00177442 0)
(1.01731 -0.000600842 0)
(0.87609 0.269379 0)
(0.91463 0.210448 0)
(0.925789 0.178828 0)
(0.945055 0.136273 0)
(0.961542 0.108179 0)
(0.979187 0.0798258 0)
(0.992946 0.0564431 0)
(1.00214 0.0374055 0)
(1.0089 0.0215073 0)
(1.0154 0.0100343 0)
(1.02217 0.00156209 0)
(1.02716 -0.00527725 0)
(1.03087 -0.00993717 0)
(1.03312 -0.0127541 0)
(1.03481 -0.0141584 0)
(1.03579 -0.0145947 0)
(1.03547 -0.014039 0)
(1.03465 -0.0132075 0)
(1.03354 -0.0122934 0)
(1.03189 -0.0112084 0)
(1.03008 -0.01012 0)
(1.02821 -0.00909289 0)
(1.02629 -0.00807942 0)
(1.02438 -0.00707709 0)
(1.02262 -0.00608369 0)
(1.02103 -0.00507314 0)
(1.01965 -0.0040339 0)
(1.01855 -0.00294066 0)
(1.01778 -0.00178375 0)
(1.01738 -0.000604146 0)
(0.841969 0.215358 0)
(0.832397 0.213643 0)
(0.888114 0.146304 0)
(0.901788 0.118068 0)
(0.924536 0.0889525 0)
(0.954033 0.0636129 0)
(0.9778 0.0436395 0)
(0.990217 0.0267635 0)
(0.998322 0.0146214 0)
(1.0088 0.00511708 0)
(1.01823 -0.00309175 0)
(1.02467 -0.00879954 0)
(1.02904 -0.0124778 0)
(1.03206 -0.0142253 0)
(1.03469 -0.0150614 0)
(1.0359 -0.0149551 0)
(1.03589 -0.0141195 0)
(1.03525 -0.0131984 0)
(1.03411 -0.0121535 0)
(1.03241 -0.0109934 0)
(1.03065 -0.00990879 0)
(1.02873 -0.00888823 0)
(1.02677 -0.00789385 0)
(1.02485 -0.00692952 0)
(1.02307 -0.0059781 0)
(1.02145 -0.00499971 0)
(1.02005 -0.00398987 0)
(1.01893 -0.00292083 0)
(1.01814 -0.00177968 0)
(1.01774 -0.00060291 0)
(0.796455 0.167949 0)
(0.784048 0.190773 0)
(0.839992 0.114061 0)
(0.868659 0.0970097 0)
(0.905486 0.0672404 0)
(0.933174 0.0462316 0)
(0.956819 0.0282884 0)
(0.975235 0.0143163 0)
(0.989167 0.00383843 0)
(1.00076 -0.00386312 0)
(1.01151 -0.00907856 0)
(1.02037 -0.0130807 0)
(1.0265 -0.0152169 0)
(1.03101 -0.0161963 0)
(1.03415 -0.0163185 0)
(1.03575 -0.0156247 0)
(1.03601 -0.0144326 0)
(1.03554 -0.013246 0)
(1.03438 -0.0120108 0)
(1.03269 -0.0107788 0)
(1.03093 -0.00969723 0)
(1.02894 -0.0086817 0)
(1.02695 -0.00772058 0)
(1.02501 -0.00679654 0)
(1.02322 -0.00588576 0)
(1.02157 -0.00494052 0)
(1.02016 -0.00395925 0)
(1.01903 -0.0029108 0)
(1.01822 -0.00178128 0)
(1.0178 -0.000603266 0)
(0.727234 0.115656 0)
(0.762255 0.0947988 0)
(0.798775 0.0637506 0)
(0.836963 0.0503335 0)
(0.872193 0.0302 0)
(0.913001 0.0148928 0)
(0.948317 0.00290923 0)
(0.968467 -0.00566994 0)
(0.982797 -0.0113018 0)
(0.998093 -0.0153291 0)
(1.01076 -0.0186432 0)
(1.01944 -0.0199486 0)
(1.02605 -0.0199316 0)
(1.03077 -0.0189614 0)
(1.03435 -0.0177595 0)
(1.0361 -0.0162834 0)
(1.03645 -0.0146821 0)
(1.03599 -0.0132871 0)
(1.0347 -0.0118542 0)
(1.03305 -0.0105529 0)
(1.03125 -0.00945266 0)
(1.02924 -0.00843362 0)
(1.02725 -0.00751018 0)
(1.02533 -0.00663032 0)
(1.02354 -0.00576263 0)
(1.02192 -0.00485634 0)
(1.02053 -0.0039081 0)
(1.01941 -0.0028842 0)
(1.01861 -0.00177259 0)
(1.01819 -0.000600277 0)
(0.678768 0.0516718 0)
(0.738122 0.0162525 0)
(0.7905 0.00765055 0)
(0.834685 0.000748592 0)
(0.873314 -0.00941935 0)
(0.905639 -0.0130944 0)
(0.935806 -0.0179276 0)
(0.961889 -0.0222647 0)
(0.980518 -0.0240226 0)
(0.994814 -0.0245528 0)
(1.00778 -0.0246638 0)
(1.01895 -0.0245577 0)
(1.02627 -0.0234261 0)
(1.03161 -0.0215097 0)
(1.03507 -0.0194468 0)
(1.03669 -0.0171039 0)
(1.03712 -0.0150289 0)
(1.03654 -0.0132548 0)
(1.0351 -0.011629 0)
(1.03343 -0.0103005 0)
(1.0315 -0.00918525 0)
(1.02944 -0.00818723 0)
(1.02741 -0.00731529 0)
(1.02546 -0.00648295 0)
(1.02364 -0.00566078 0)
(1.02201 -0.00479485 0)
(1.02062 -0.00387637 0)
(1.01948 -0.00287287 0)
(1.01867 -0.0017727 0)
(1.01824 -0.000599761 0)
(0.658643 -0.00704825 0)
(0.723912 -0.0126495 0)
(0.783964 -0.0178909 0)
(0.827472 -0.0262427 0)
(0.865465 -0.0335518 0)
(0.908272 -0.0438514 0)
(0.94382 -0.0489039 0)
(0.964782 -0.0472173 0)
(0.980726 -0.0438931 0)
(0.996633 -0.0406529 0)
(1.01009 -0.0369055 0)
(1.0197 -0.0327247 0)
(1.0273 -0.0283604 0)
(1.03283 -0.0244582 0)
(1.03618 -0.0208416 0)
(1.03774 -0.0178046 0)
(1.03796 -0.0152986 0)
(1.0371 -0.0131986 0)
(1.03556 -0.0114028 0)
(1.03383 -0.0100057 0)
(1.0318 -0.00885691 0)
(1.02973 -0.00788958 0)
(1.0277 -0.00706873 0)
(1.02576 -0.0062906 0)
(1.02397 -0.00552261 0)
(1.02238 -0.00470347 0)
(1.02101 -0.00381997 0)
(1.01989 -0.00284277 0)
(1.0191 -0.00176082 0)
(1.01867 -0.000595725 0)
(0.650861 -0.0904447 0)
(0.720997 -0.0960766 0)
(0.763393 -0.0881147 0)
(0.815305 -0.0945707 0)
(0.848842 -0.0862795 0)
(0.887515 -0.0762801 0)
(0.933282 -0.0713815 0)
(0.967143 -0.0679618 0)
(0.986303 -0.0593323 0)
(0.999988 -0.0505369 0)
(1.01281 -0.0438591 0)
(1.02347 -0.0378616 0)
(1.0306 -0.0324831 0)
(1.0351 -0.0270123 0)
(1.03783 -0.0223794 0)
(1.03899 -0.0184623 0)
(1.03887 -0.0153846 0)
(1.0377 -0.0129505 0)
(1.03603 -0.0110607 0)
(1.0341 -0.00964524 0)
(1.03195 -0.00850748 0)
(1.02982 -0.00760319 0)
(1.02775 -0.00684495 0)
(1.02579 -0.00612645 0)
(1.02399 -0.0054157 0)
(1.0224 -0.00464255 0)
(1.02104 -0.00379009 0)
(1.01994 -0.00283348 0)
(1.01915 -0.00176111 0)
(1.01872 -0.000595558 0)
(0.633698 -0.17834 0)
(0.726141 -0.202795 0)
(0.775161 -0.198579 0)
(0.818568 -0.174993 0)
(0.875098 -0.155285 0)
(0.915538 -0.132466 0)
(0.946427 -0.113568 0)
(0.972326 -0.0935266 0)
(0.992356 -0.0794001 0)
(1.00663 -0.0670922 0)
(1.01762 -0.0553992 0)
(1.02651 -0.0453053 0)
(1.03321 -0.0362577 0)
(1.03777 -0.0290881 0)
(1.03994 -0.0233165 0)
(1.04055 -0.0188308 0)
(1.03982 -0.015352 0)
(1.03835 -0.0126873 0)
(1.03647 -0.0106826 0)
(1.03436 -0.00920233 0)
(1.03215 -0.00808615 0)
(1.03 -0.00725053 0)
(1.02794 -0.00656296 0)
(1.02601 -0.00591671 0)
(1.02427 -0.00527283 0)
(1.02273 -0.00455098 0)
(1.02142 -0.00373631 0)
(1.02036 -0.0028063 0)
(1.01961 -0.0017503 0)
(1.01919 -0.000592571 0)
(0.623949 -0.238879 0)
(0.719266 -0.262597 0)
(0.816895 -0.269218 0)
(0.872388 -0.234044 0)
(0.89895 -0.189565 0)
(0.933732 -0.158938 0)
(0.974318 -0.136112 0)
(0.999694 -0.118215 0)
(1.00965 -0.096453 0)
(1.01931 -0.0782411 0)
(1.02897 -0.0638853 0)
(1.03589 -0.0512989 0)
(1.04043 -0.0407077 0)
(1.04246 -0.0315205 0)
(1.04332 -0.024324 0)
(1.04277 -0.0188852 0)
(1.04137 -0.0149317 0)
(1.03942 -0.0121334 0)
(1.03711 -0.0101022 0)
(1.03471 -0.00868357 0)
(1.03232 -0.00765555 0)
(1.03006 -0.00691172 0)
(1.02793 -0.00631218 0)
(1.02598 -0.00574884 0)
(1.02424 -0.00517392 0)
(1.0227 -0.00450207 0)
(1.02141 -0.00372072 0)
(1.02037 -0.00280885 0)
(1.01963 -0.00175823 0)
(1.01922 -0.00059647 0)
(0.638106 -0.259022 0)
(0.703671 -0.255273 0)
(0.832848 -0.27196 0)
(0.92759 -0.26703 0)
(0.96823 -0.228063 0)
(0.980351 -0.188668 0)
(0.991342 -0.156554 0)
(1.01259 -0.130424 0)
(1.02944 -0.107486 0)
(1.03528 -0.086828 0)
(1.03921 -0.0682887 0)
(1.04409 -0.0533428 0)
(1.04707 -0.0410038 0)
(1.04818 -0.0313338 0)
(1.04737 -0.023973 0)
(1.04547 -0.0183341 0)
(1.04319 -0.0143178 0)
(1.04058 -0.0113961 0)
(1.03788 -0.00935754 0)
(1.03524 -0.00800437 0)
(1.0327 -0.00708551 0)
(1.03037 -0.00646837 0)
(1.0282 -0.00598191 0)
(1.02627 -0.00552105 0)
(1.02456 -0.0050273 0)
(1.02308 -0.00441538 0)
(1.02184 -0.00367636 0)
(1.02084 -0.00279083 0)
(1.02014 -0.00175419 0)
(1.01975 -0.000596948 0)
(0.691848 -0.286536 0)
(0.701582 -0.228099 0)
(0.822905 -0.234617 0)
(0.936621 -0.237747 0)
(0.995591 -0.23184 0)
(1.01868 -0.208569 0)
(1.04467 -0.183953 0)
(1.05362 -0.148916 0)
(1.05388 -0.121171 0)
(1.05571 -0.0960136 0)
(1.05754 -0.0757297 0)
(1.05771 -0.058029 0)
(1.05681 -0.0433397 0)
(1.0549 -0.0318731 0)
(1.05212 -0.0231587 0)
(1.049 -0.0171069 0)
(1.04561 -0.0129965 0)
(1.04218 -0.0102177 0)
(1.0389 -0.00838742 0)
(1.03585 -0.00722904 0)
(1.03305 -0.00649018 0)
(1.03054 -0.00603056 0)
(1.02828 -0.00567971 0)
(1.0263 -0.0053364 0)
(1.02457 -0.00492747 0)
(1.02308 -0.00437721 0)
(1.02184 -0.00367552 0)
(1.02085 -0.00280714 0)
(1.02015 -0.0017725 0)
(1.01977 -0.000606391 0)
(0.817771 -0.427682 0)
(0.781932 -0.317485 0)
(0.832166 -0.29024 0)
(0.934452 -0.290025 0)
(0.999635 -0.267227 0)
(1.03876 -0.228212 0)
(1.06082 -0.187002 0)
(1.0797 -0.155651 0)
(1.08416 -0.12074 0)
(1.07923 -0.0942149 0)
(1.07425 -0.0710067 0)
(1.07146 -0.053212 0)
(1.06773 -0.0392843 0)
(1.0628 -0.0286488 0)
(1.05744 -0.0208812 0)
(1.0523 -0.0151854 0)
(1.0477 -0.0112686 0)
(1.04352 -0.00867385 0)
(1.03979 -0.00708454 0)
(1.03644 -0.00618431 0)
(1.03347 -0.00569196 0)
(1.03087 -0.00544952 0)
(1.02859 -0.00527662 0)
(1.02664 -0.00507124 0)
(1.02494 -0.00476396 0)
(1.0235 -0.00428839 0)
(1.02232 -0.00363447 0)
(1.02137 -0.00279499 0)
(1.02071 -0.00177358 0)
(1.02035 -0.00060945 0)
(0.968326 -0.625783 0)
(0.929586 -0.507502 0)
(0.876849 -0.47084 0)
(0.953073 -0.43977 0)
(1.06187 -0.358463 0)
(1.12294 -0.286686 0)
(1.13173 -0.219125 0)
(1.12712 -0.163905 0)
(1.11579 -0.12479 0)
(1.10287 -0.0937754 0)
(1.09425 -0.0706984 0)
(1.08454 -0.0508904 0)
(1.07665 -0.0355695 0)
(1.06926 -0.024749 0)
(1.06198 -0.0169304 0)
(1.05554 -0.0118708 0)
(1.04973 -0.00865847 0)
(1.04472 -0.00668944 0)
(1.0404 -0.00559956 0)
(1.03669 -0.00507185 0)
(1.03352 -0.00488894 0)
(1.03082 -0.0048944 0)
(1.02851 -0.00491938 0)
(1.02654 -0.00486703 0)
(1.02486 -0.00466756 0)
(1.02344 -0.00426401 0)
(1.02228 -0.0036499 0)
(1.02135 -0.00282626 0)
(1.0207 -0.00180236 0)
(1.02035 -0.00062361 0)
(1.1269 -0.702518 0)
(1.04826 -0.624558 0)
(0.988622 -0.573794 0)
(1.07973 -0.457439 0)
(1.18412 -0.33428 0)
(1.21409 -0.247893 0)
(1.20921 -0.1895 0)
(1.18515 -0.138952 0)
(1.15865 -0.106497 0)
(1.13463 -0.0778709 0)
(1.11438 -0.0566051 0)
(1.10084 -0.0395073 0)
(1.08854 -0.0280741 0)
(1.07628 -0.01873 0)
(1.06614 -0.0124755 0)
(1.05774 -0.00826946 0)
(1.05091 -0.00559926 0)
(1.04531 -0.00422095 0)
(1.04064 -0.00368608 0)
(1.03674 -0.00367155 0)
(1.0335 -0.00389703 0)
(1.03082 -0.00421838 0)
(1.02858 -0.00447752 0)
(1.02671 -0.00459399 0)
(1.02514 -0.00451401 0)
(1.02384 -0.0041911 0)
(1.02277 -0.00362559 0)
(1.02192 -0.00282842 0)
(1.02133 -0.00181243 0)
(1.021 -0.000629661 0)
(1.21476 -0.601203 0)
(1.18103 -0.558402 0)
(1.21517 -0.465228 0)
(1.30585 -0.32742 0)
(1.35531 -0.234862 0)
(1.31551 -0.172194 0)
(1.2652 -0.131581 0)
(1.22103 -0.10093 0)
(1.17997 -0.0690337 0)
(1.15254 -0.054835 0)
(1.12862 -0.0363013 0)
(1.11074 -0.0245653 0)
(1.09421 -0.0143743 0)
(1.08108 -0.00844462 0)
(1.06943 -0.00484947 0)
(1.05968 -0.00269614 0)
(1.05184 -0.00172041 0)
(1.04554 -0.00147 0)
(1.0405 -0.00172943 0)
(1.03641 -0.00227733 0)
(1.03314 -0.00295181 0)
(1.03047 -0.00361785 0)
(1.02826 -0.00412868 0)
(1.02646 -0.00442984 0)
(1.02496 -0.00446811 0)
(1.02371 -0.00421559 0)
(1.02269 -0.00368328 0)
(1.02188 -0.00289091 0)
(1.02131 -0.00186032 0)
(1.02099 -0.000649475 0)
(1.32847 -0.307919 0)
(1.37251 -0.278821 0)
(1.40977 -0.189604 0)
(1.44279 -0.120255 0)
(1.41974 -0.0914584 0)
(1.37013 -0.0727318 0)
(1.31446 -0.0581965 0)
(1.26401 -0.0478684 0)
(1.21499 -0.0384409 0)
(1.16839 -0.0246941 0)
(1.14369 -0.0164484 0)
(1.12035 -0.00900277 0)
(1.10065 -0.00381145 0)
(1.0839 -0.000374451 0)
(1.07042 0.00199896 0)
(1.06012 0.00276856 0)
(1.05189 0.0026403 0)
(1.04537 0.00182066 0)
(1.04017 0.00063671 0)
(1.03606 -0.000660505 0)
(1.03284 -0.00189144 0)
(1.03028 -0.00293451 0)
(1.02825 -0.00371782 0)
(1.02662 -0.00420582 0)
(1.02527 -0.00436433 0)
(1.02417 -0.00418834 0)
(1.02326 -0.00369537 0)
(1.02253 -0.00291856 0)
(1.02202 -0.00188511 0)
(1.02173 -0.000659457 0)
(1.46761 0.0637082 0)
(1.48405 0.0548213 0)
(1.48273 0.0838246 0)
(1.47983 0.0753726 0)
(1.41366 0.0699481 0)
(1.36549 0.0472007 0)
(1.29584 0.0431565 0)
(1.24261 0.0389993 0)
(1.21196 0.0206956 0)
(1.17645 0.0220103 0)
(1.14951 0.0173757 0)
(1.12334 0.0190909 0)
(1.10366 0.0163878 0)
(1.08607 0.0142665 0)
(1.07174 0.0118289 0)
(1.06026 0.00948783 0)
(1.05137 0.00730339 0)
(1.04457 0.00509336 0)
(1.03932 0.00292953 0)
(1.0353 0.000887067 0)
(1.0322 -0.000908569 0)
(1.02977 -0.00237305 0)
(1.02786 -0.00345484 0)
(1.02633 -0.00413461 0)
(1.02508 -0.004406 0)
(1.02405 -0.00428677 0)
(1.02319 -0.00380939 0)
(1.0225 -0.00301957 0)
(1.022 -0.0019553 0)
(1.02173 -0.00068418 0)
(1.45807 0.295918 0)
(1.43857 0.255844 0)
(1.44704 0.241615 0)
(1.41262 0.186129 0)
(1.38113 0.159878 0)
(1.33272 0.104916 0)
(1.29699 0.0867807 0)
(1.24603 0.0614304 0)
(1.18747 0.0588864 0)
(1.16561 0.0475894 0)
(1.1396 0.0395877 0)
(1.11798 0.0354129 0)
(1.09784 0.0295422 0)
(1.0809 0.0254524 0)
(1.06804 0.0211383 0)
(1.05762 0.0168158 0)
(1.04939 0.0126679 0)
(1.04287 0.00883152 0)
(1.03787 0.0054203 0)
(1.03412 0.00248089 0)
(1.03132 7.4755e-05 0)
(1.02923 -0.00179427 0)
(1.02764 -0.00314736 0)
(1.02638 -0.00400468 0)
(1.02537 -0.00438332 0)
(1.02453 -0.00432295 0)
(1.02382 -0.00386693 0)
(1.02324 -0.00307649 0)
(1.02282 -0.00199593 0)
(1.02258 -0.000697307 0)
(1.36769 0.377359 0)
(1.33908 0.344414 0)
(1.15022 0.125976 8.76997e-20)
(1.1068 0.11339 -2.81207e-20)
(1.08478 0.104913 1.52835e-20)
(1.07853 0.0850318 6.02546e-21)
(1.07177 0.0691012 -5.39091e-21)
(1.05965 0.0525059 4.71217e-21)
(1.04934 0.0384732 -1.72058e-20)
(1.04426 0.0264983 8.50799e-21)
(1.0416 0.016906 -8.77463e-21)
(1.039 0.00904897 -5.76005e-22)
(1.1439 0.135652 -2.0754e-22)
(1.12743 0.108252 1.38528e-20)
(1.11209 0.0849256 3.46063e-20)
(1.09658 0.0644992 -7.34335e-22)
(1.0847 0.0529857 9.71608e-21)
(1.07109 0.0410363 -1.60882e-20)
(1.05643 0.0294171 -1.07557e-20)
(1.04632 0.0192286 1.47585e-20)
(1.04123 0.0112404 -3.47071e-21)
(1.03842 0.00455027 -1.14397e-21)
(1.03641 -0.000859763 -8.96854e-22)
(1.03445 -0.00522084 2.60136e-22)
(1.03277 -0.00843211 -1.56428e-21)
(1.03058 -0.0105279 1.50184e-21)
(1.02973 -0.01217 5.76644e-22)
(1.02933 -0.0128257 -3.31837e-22)
(1.02793 -0.0125646 -3.30477e-22)
(1.02727 -0.0123281 2.75328e-22)
(1.0265 -0.0117631 2.23025e-22)
(1.02529 -0.0108885 -2.29868e-22)
(1.02428 -0.0100118 7.36868e-23)
(1.02314 -0.00901443 2.38773e-22)
(1.02186 -0.00794337 -2.38799e-23)
(1.02073 -0.00692721 -5.44026e-22)
(1.01962 -0.00587122 3.7873e-22)
(1.01854 -0.00476881 -1.38902e-22)
(1.01768 -0.00371742 1.07374e-22)
(1.01697 -0.0026319 -1.98315e-22)
(1.01648 -0.00154087 -2.11762e-22)
(1.01623 -0.000518776 -5.83969e-22)
(1.09377 0.203091 1.10988e-19)
(1.07095 0.176357 -5.37526e-20)
(1.0667 0.147069 -2.34379e-20)
(1.064 0.116135 1.13084e-20)
(1.05659 0.0943821 2.34271e-20)
(1.04944 0.0732204 -2.43999e-20)
(1.04116 0.0548062 7.12944e-21)
(1.0347 0.0392419 -8.31641e-21)
(1.03206 0.0260633 7.24e-21)
(1.03188 0.0148753 1.67703e-21)
(1.03128 0.00587929 -4.4334e-21)
(1.03027 -0.00113174 -2.59533e-22)
(1.02956 -0.00602916 1.41362e-21)
(1.02802 -0.00926727 3.33776e-22)
(1.02869 -0.0120799 2.58665e-22)
(1.02821 -0.0130255 -2.14873e-22)
(1.02721 -0.0128833 7.08472e-23)
(1.02718 -0.0128306 5.40215e-22)
(1.02638 -0.0121533 -1.46707e-21)
(1.02533 -0.0112307 6.11158e-22)
(1.02447 -0.0103411 1.31571e-23)
(1.02327 -0.00926979 4.39438e-23)
(1.02202 -0.0081665 -1.9551e-23)
(1.02091 -0.00713346 -2.34965e-22)
(1.01974 -0.00604272 4.69042e-22)
(1.01866 -0.00492091 -9.32073e-24)
(1.01779 -0.00385046 1.18666e-22)
(1.01705 -0.00273525 -2.27264e-22)
(1.01656 -0.00160949 3.27654e-22)
(1.0163 -0.000543084 1.02626e-22)
(1.09696 0.218626 -5.09023e-20)
(1.06952 0.183808 -2.806e-20)
(1.06378 0.141017 4.10685e-20)