/*--------------------------------*- C++ -*----------------------------------*\
| =========                 |                                                 |
| \\      /  F ield         | OpenFOAM: The Open Source CFD Toolbox           |
|  \\    /   O peration     | Version:                                        |
|   \\  /    A nd           | Website:  www.openfoam.com                      |
|    \\/     M anipulation  |                                                 |
\*---------------------------------------------------------------------------*/
FoamFile
{
    version     2.0;
    format      ascii;
    class       surfaceScalarField;
    location    "10";
    object      phi;
}
// * * * * * * * * * * * * * * * * * * * * * * * * * * * * * * * * * * * * * //

dimensions      [0 3 -1 0 0 0 0];
oriented        oriented;


internalField   nonuniform List<scalar> 
2194
(
0.0256724
0.00426561
0.0303201
0.007018
-0.0154559
0.0360721
0.00970398
0.042397
-0.0191756
0.0420948
0.0131528
0.0483122
-0.02296
0.0487691
0.0162858
-0.0273737
0.0527259
0.0466093
-0.0264371
0.054544
0.0206622
-0.0292724
0.0555611
0.0459693
-0.0293998
0.0601119
0.023832
-0.0303945
0.0565558
0.0451317
-0.0319265
0.0631512
0.0288873
-0.0310296
0.0556589
-0.0315996
0.0457016
0.0445728
-0.0328499
0.064787
0.0312141
-0.0319865
0.0547955
-0.0331745
0.0468895
0.0469126
-0.0344007
0.0363858
0.0628019
-0.0329426
0.0533374
-0.0358981
0.049845
0.047764
-0.0143077
0.00352118
-0.0178289
0.00651912
-0.0148695
0.00878052
-0.0111988
0.0103144
-0.00715068
-0.00295106
0.00354796
-0.0213769
0.00651648
-0.017838
0.00875489
-0.0134373
0.0102443
-0.00864011
0.0108918
-0.00359855
0.00118481
0.00358589
-0.0249628
0.00655139
-0.0208035
0.00876079
-0.0156467
0.01016
-0.0100393
0.0106813
-0.00411979
0.0104136
0.00145243
0.00674843
0.00363486
-0.0285976
0.00659142
-0.0237601
0.00876771
-0.0178229
0.0100331
-0.0113047
0.0104128
-0.00449953
0.00982846
0.00203676
0.00852895
0.00804794
0.0128135
0.00367683
-0.0322745
0.00664186
-0.0267251
0.0087386
-0.0199197
0.00986338
-0.0124295
0.00994649
-0.00458264
0.00927696
0.00270629
0.00771053
0.00961437
0.00569867
0.0148254
0.0190768
0.00372171
-0.0359962
0.00665622
-0.0296596
0.00865605
-0.0219195
0.00960526
-0.0133787
0.00947528
-0.00445266
0.00815195
0.00402963
0.00613267
0.0116337
0.00341226
0.0175458
0.000719456
0.0217696
0.023986
0.00374156
-0.0397378
0.00664422
-0.0325623
0.00853752
-0.0238128
0.00923196
-0.0140731
0.00887496
-0.00409565
0.00741597
0.00548862
0.00526121
0.0137884
0.00245942
0.0203476
-0.000899045
0.0251281
0.0273525
0.0037514
-0.0434892
0.00659169
-0.0354026
0.00829834
-0.0255195
0.00879489
-0.0145697
0.00774043
-0.00304119
0.00593754
0.00729151
0.00286708
0.0168589
-0.000435127
0.0236498
-0.00384745
0.0285404
0.0305231
0.0037269
-0.0472161
0.00646316
-0.0381388
0.007978
-0.0270343
0.00822945
-0.0148211
0.00722518
-0.00203693
0.00484982
0.00966687
0.00199449
0.0197142
-0.00171638
0.0273606
-0.00565047
0.0324745
0.0345766
0.00367536
-0.0508915
0.0062762
-0.0407397
0.00762074
-0.0283789
0.00719666
-0.014397
0.00570037
-0.000540644
0.00261341
0.0127538
-0.00112361
0.0234512
-0.00512596
0.031363
-0.00905265
0.0364012
0.0386768
0.00358992
-0.0544814
0.00599441
-0.0431442
0.00697012
-0.0293546
0.00672562
-0.0141525
0.00441741
0.00176756
0.00159616
0.0155751
-0.0023483
0.0273957
-0.00674378
0.0357585
-0.0111158
0.0407732
0.0438467
0.00347039
-0.0579517
0.00562177
-0.0452955
0.00617677
-0.0299096
0.00461232
-0.0125881
0.00229617
0.00408371
-0.00166159
0.0195328
-0.00602724
0.0317613
-0.0106424
0.0403737
-0.0153435
0.0454743
0.0491654
0.00328334
-0.061235
0.00512192
-0.0471341
0.00547109
-0.0302587
0.00435596
-0.0114729
0.0012599
0.00717977
-0.00280687
0.0235996
-0.00766091
0.0366154
-0.0127115
0.0454243
-0.0179128
0.0506755
0.0550846
0.00300356
-0.0642386
0.00452399
-0.0486545
0.00404544
-0.0297802
0.00187129
-0.00929878
-0.00202144
0.0110725
-0.00668222
0.0282604
-0.0117833
0.0417165
-0.0171408
0.0507817
-0.0229383
0.056473
0.0610336
0.00259853
-0.0668371
0.00362651
-0.0496825
0.00297537
-0.0291291
0.000443686
-0.00676709
-0.0034121
0.0149283
-0.00845095
0.0332993
-0.0138415
0.047107
-0.0195356
0.0564758
-0.0259445
0.0628819
0.0663032
0.00208005
-0.0689171
0.00255777
-0.0501602
0.000943473
-0.0275148
-0.00224172
-0.00358191
-0.00724053
0.0199271
-0.0127627
0.0388214
-0.018567
0.0529113
-0.0243865
0.0622954
-0.0308443
0.0693397
0.0718447
-0.00182674
-0.0670903
-0.0030584
-0.0489286
-0.00396085
-0.0266123
-0.00365665
-0.0038861
-0.00254276
0.0188132
-0.00149982
0.0377784
-0.00045097
0.0518625
0.00053312
0.0613113
0.00160433
0.0682685
0.0710332
0.00241582
-0.00270685
-0.0643833
-0.00515602
-0.0464794
-0.00696473
-0.0248036
-0.007907
-0.00294384
-0.00718894
0.0180951
-0.00597337
0.0365629
-0.00453155
0.0504207
-0.00304138
0.0598211
-0.00144956
0.0666767
0.0694604
0.000123267
-0.0034356
-0.0609477
-0.00660408
-0.0433109
-0.0092727
-0.022135
-0.0107131
-0.00150349
-0.010693
0.0180751
-0.00962624
0.0354961
-0.00793385
0.0487283
-0.00595011
0.0578374
-0.00377886
0.0645054
0.0674229
-0.00174134
-0.00445457
-0.056493
-0.00833327
-0.0394322
-0.0113092
-0.019159
-0.0136433
0.000830624
-0.0139861
0.0184178
-0.0130251
0.0345352
-0.0114066
0.0471097
-0.00936549
0.0557963
-0.00692488
0.0620648
0.0648509
-0.00435291
-0.00517986
-0.0513131
-0.0102266
-0.0343855
-0.0141585
-0.0152271
-0.0164361
0.00310822
-0.017463
0.0194447
-0.0167627
0.0338349
-0.015346
0.045693
-0.0133403
0.0537906
-0.0106656
0.0593902
0.0616173
-0.00743198
-0.00569907
-0.045614
-0.0109923
-0.0290923
-0.0156385
-0.0105809
-0.0190037
0.00647344
-0.0206228
0.0210637
-0.0203049
0.033517
-0.0191702
0.0445584
-0.017327
0.0519473
-0.0144867
0.0565499
0.0578866
-0.010756
-0.00648468
-0.0391292
-0.0124992
-0.0230778
-0.017494
-0.00558608
-0.0211249
0.0101043
-0.0231316
0.0230704
-0.0236485
0.0340339
-0.022879
0.0437888
-0.0212256
0.050294
-0.0182511
0.0535753
0.0537428
-0.0141073
-0.00697401
-0.0321552
-0.0134852
-0.0165665
-0.0192285
0.00015717
-0.023053
0.0139289
-0.0257182
0.0257356
-0.027011
0.0353268
-0.0263911
0.0431689
-0.0248137
0.0487166
-0.0215862
0.0503479
0.0492439
-0.0170873
-0.00778842
-0.0243667
-0.0152336
-0.00912131
-0.0208755
0.00579903
-0.0252905
0.0183439
-0.028507
0.028952
-0.0302392
0.037059
-0.0299986
0.0429283
-0.0281778
0.0468957
-0.0243776
0.0465477
0.0444097
-0.0195434
-0.00805112
-0.0163155
-0.0155568
-0.0016156
-0.0220908
0.012333
-0.0272703
0.0235233
-0.0310221
0.0327039
-0.0330961
0.0391329
-0.0329957
0.042828
-0.030226
0.044126
-0.0255953
0.0419171
0.0396647
-0.0208504
-0.0084484
-0.00786714
-0.0159819
0.00591795
-0.022806
0.0191571
-0.0284597
0.029177
-0.0324221
0.0366663
-0.0343178
0.0410287
-0.0335806
0.0420908
-0.0301801
0.0407254
-0.025651
0.037388
0.0355928
-0.0215791
-0.00817971
0.000312541
-0.0161086
0.0138468
-0.0230551
0.0261036
-0.0287084
0.0348303
-0.0322902
0.040248
-0.0333475
0.042086
-0.031685
0.0404283
-0.0282018
0.0372422
-0.0248473
0.0340334
0.0327272
-0.0219816
-0.00855694
0.00886942
-0.0162274
0.0215173
-0.0227151
0.0325913
-0.0276492
0.0397645
-0.0301845
0.0427833
-0.0300573
0.0419588
-0.0278405
0.0382115
-0.025117
0.0345187
-0.0235299
0.0324464
0.0315825
-0.0223852
-0.00820085
0.0170702
-0.0154823
0.0287987
-0.021259
0.038368
-0.0250869
0.0435924
-0.0264148
0.0441112
-0.0254739
0.0410179
-0.0235901
0.0363277
-0.0222974
0.033226
-0.022246
0.032395
0.0314831
-0.0221466
-0.00739526
0.0244654
-0.0139208
0.0353242
-0.0187914
0.0432387
-0.0215019
0.0463029
-0.0219018
0.0445111
-0.0207646
0.0398807
-0.0198897
0.0354529
-0.0200489
0.0333852
-0.0209485
0.0332946
0.0319124
-0.0213778
-0.00627434
0.0307396
-0.0116881
0.040738
-0.0156085
0.047159
-0.0174624
0.0481568
-0.0174529
0.0445016
-0.0166212
0.0390489
-0.0168768
0.0357084
-0.0180761
0.0345844
-0.0194428
0.0346613
0.0327056
-0.0202359
-0.00504251
0.035782
-0.00930312
0.0449986
-0.0122797
0.0501356
-0.0134614
0.0493385
-0.0133683
0.0444086
-0.0132503
0.0389309
-0.0143565
0.0368146
-0.0161879
0.0364159
-0.0176708
0.0361441
0.0337163
-0.0186815
-0.00403288
0.0398149
-0.0073205
0.0482862
-0.00955246
0.0523676
-0.0103348
0.0501208
-0.0103223
0.0443961
-0.0107834
0.039392
-0.0123597
0.038391
-0.0143637
0.0384198
-0.0157601
0.0375405
0.0347903
-0.0168341
-0.00327139
0.0430862
-0.00578559
0.0508004
-0.00748205
0.054064
-0.00812834
0.0507671
-0.00833582
0.0446036
-0.00916172
0.0402179
-0.0107368
0.039966
-0.0125639
0.0402469
-0.013862
0.0388386
0.0358456
-0.0149172
-0.00259409
-0.00446032
-0.00571386
-0.0063504
-0.00684073
-0.00794477
-0.00937691
0.0413982
-0.0108837
0.0417537
-0.0120763
0.0400312
0.036837
-0.0130676
-0.00802634
-0.0092386
-0.0103686
-0.0113576
0.00300097
0.0708149
-0.0714001
0.00327713
0.07196
-0.0722361
0.00312115
0.0745066
-0.0743507
0.00270445
0.0776925
-0.0772758
0.00241735
0.0808619
-0.0805748
0.00218146
0.0841153
-0.0838794
0.00187499
0.0878267
-0.0875202
0.00158256
0.0920303
-0.0917379
0.00136743
0.0966757
-0.0964605
0.00117537
0.101692
-0.1015
0.000997054
0.107155
-0.106977
0.000854908
0.113035
-0.112893
0.000735988
0.119392
-0.119273
0.000631818
0.126228
-0.126124
0.000541469
0.133615
-0.133525
0.000467194
0.141577
-0.141503
0.000403495
0.150163
-0.1501
0.000349997
0.15941
-0.159357
0.000305213
0.169364
-0.16932
0.000267314
0.180079
-0.180042
0.000235614
0.1916
-0.191568
0.000206199
0.203979
-0.203949
0.000180735
0.217281
-0.217255
0.000156021
0.231562
-0.231537
0.000130693
0.246908
-0.246883
0.000106624
0.263387
-0.263363
8.07368e-05
0.281095
-0.281069
5.43309e-05
0.300135
-0.300109
2.72118e-05
0.320621
-0.320593
0.342687
-0.342659
0.000743814
0.0701944
0.00119546
0.0715083
0.00131845
0.0743837
0.00132269
0.0776882
0.00132432
0.0808602
0.00125298
0.0841866
0.00111219
0.0879675
0.000964197
0.0921783
0.000832974
0.0968069
0.000718655
0.101807
0.000618903
0.107255
0.000538989
0.113115
0.000470897
0.11946
0.000412739
0.126286
0.000361957
0.133666
0.000319847
0.141619
0.000283278
0.1502
0.00025268
0.159441
0.000226707
0.16939
0.000204129
0.180102
0.000184887
0.191619
0.000166325
0.203997
0.000149823
0.217297
0.000131647
0.23158
0.000112866
0.246927
9.3336e-05
0.263407
7.12921e-05
0.281117
4.83238e-05
0.300158
2.38095e-05
0.320645
0.342711
-0.00144739
0.0699004
-0.00104599
0.0711069
-0.000702595
0.0740403
-0.000356062
0.0773417
-8.53533e-05
0.0805895
8.25403e-05
0.0840187
0.000149431
0.0879006
0.000161398
0.0921663
0.000157594
0.0968107
0.000151449
0.101813
0.00014804
0.107258
0.000145769
0.113117
0.000146562
0.11946
0.000144928
0.126288
0.000143013
0.133668
0.000140614
0.141622
0.000137334
0.150203
0.000134504
0.159444
0.000131069
0.169394
0.000127204
0.180106
0.000123182
0.191623
0.000117903
0.204002
0.000111577
0.217304
0.000101762
0.23159
9.05396e-05
0.246938
7.63688e-05
0.263421
5.91459e-05
0.281134
4.02905e-05
0.300177
1.99152e-05
0.320665
0.34273
-0.00374097
0.0692885
-0.00317741
0.0705434
-0.00265459
0.0735174
-0.00208705
0.0767742
-0.00155017
0.0800526
-0.00116206
0.0836306
-0.000907405
0.0876459
-0.000726253
0.0919852
-0.000588035
0.0966725
-0.000478294
0.101703
-0.000380571
0.107161
-0.000293899
0.113031
-0.000220328
0.119386
-0.000158603
0.126226
-0.000107753
0.133617
-6.66958e-05
0.14158
-3.29501e-05
0.150169
-5.73775e-06
0.159417
1.70759e-05
0.169371
3.55143e-05
0.180087
4.94336e-05
0.191609
5.95718e-05
0.203992
6.50352e-05
0.217298
6.56356e-05
0.231589
6.29345e-05
0.246941
5.55082e-05
0.263428
4.44051e-05
0.281146
3.06976e-05
0.300191
1.52189e-05
0.320681
0.342746
-0.0062871
0.0681436
-0.00538648
0.0696427
-0.00461196
0.0727429
-0.00383101
0.0759932
-0.00310824
0.0793299
-0.0025132
0.0830356
-0.00205801
0.0871908
-0.0016982
0.0916254
-0.00141057
0.0963848
-0.00116796
0.101461
-0.000958999
0.106952
-0.000775708
0.112847
-0.000621358
0.119232
-0.000489807
0.126095
-0.00038221
0.133509
-0.000292077
0.14149
-0.000217135
0.150094
-0.000154294
0.159354
-0.000104619
0.169321
-6.47462e-05
0.180048
-3.19391e-05
0.191576
-6.53081e-06
0.203967
1.21312e-05
0.217279
2.46559e-05
0.231576
3.13844e-05
0.246934
3.19729e-05
0.263428
2.77864e-05
0.28115
1.99484e-05
0.300199
9.80925e-06
0.320691
0.342755
-0.00899986
0.0663875
-0.00770769
0.0683506
-0.00662156
0.0716568
-0.0056066
0.0749783
-0.00469122
0.0784145
-0.00391214
0.0822565
-0.00326774
0.0865464
-0.00273513
0.0910928
-0.00228797
0.0959377
-0.00190592
0.101078
-0.00157714
0.106623
-0.00129472
0.112565
-0.0010535
0.11899
-0.000849715
0.125891
-0.000680191
0.13334
-0.00053837
0.141349
-0.000418959
0.149975
-0.000319393
0.159254
-0.000240276
0.169242
-0.000175237
0.179983
-0.000120337
0.191521
-7.78035e-05
0.203924
-4.5816e-05
0.217248
-2.15605e-05
0.231552
-5.33624e-06
0.246918
3.95393e-06
0.263418
7.70117e-06
0.281146
6.88114e-06
0.300199
3.81513e-06
0.320694
0.342759
-0.0117626
0.0640428
-0.0100731
0.0666611
-0.00866311
0.0702468
-0.00740576
0.0737209
-0.00630103
0.0773098
-0.00534987
0.0813054
-0.00452505
0.0857215
-0.00381537
0.0903831
-0.00320451
0.0953268
-0.0026786
0.100553
-0.00222658
0.106171
-0.00184059
0.112179
-0.00150951
0.118659
-0.00123081
0.125612
-0.000997243
0.133106
-0.00080105
0.141152
-0.000635188
0.149809
-0.000498428
0.159117
-0.000387355
0.169131
-0.000294525
0.17989
-0.000216745
0.191444
-0.00015711
0.203865
-0.000108466
0.217199
-7.06196e-05
0.231514
-4.34015e-05
0.246891
-2.42065e-05
0.263399
-1.22445e-05
0.281134
-5.65301e-06
0.300193
-2.53384e-06
0.320691
0.342757
-0.0143331
0.0612886
-0.01241
0.064738
-0.0107226
0.0685594
-0.00922918
0.0722275
-0.00794124
0.0760218
-0.00681627
0.0801804
-0.00581319
0.0847185
-0.00492641
0.0894963
-0.00415448
0.0945549
-0.00348192
0.09988
-0.00290366
0.105593
-0.00240834
0.111684
-0.00198663
0.118238
-0.00163119
0.125257
-0.00133108
0.132806
-0.00107688
0.140898
-0.000864583
0.149597
-0.000689298
0.158942
-0.000543989
0.168986
-0.00042162
0.179767
-0.000321445
0.191343
-0.000242678
0.203786
-0.000176245
0.217132
-0.000124994
0.231463
-8.59233e-05
0.246852
-5.61715e-05
0.263369
-3.51947e-05
0.281113
-2.03725e-05
0.300178
-9.41573e-06
0.32068
0.342747
-0.0165705
0.0583157
-0.0145838
0.0627513
-0.0127435
0.0667191
-0.0110528
0.0705368
-0.00958229
0.0745513
-0.00827384
0.0788719
-0.00709088
0.0835355
-0.0060351
0.0884405
-0.0051001
0.0936199
-0.00428855
0.0990684
-0.00358692
0.104891
-0.00298868
0.111085
-0.00247885
0.117728
-0.00204768
0.124825
-0.00167903
0.132437
-0.00136798
0.140587
-0.00110864
0.149338
-0.000892288
0.158726
-0.000710841
0.168804
-0.000558072
0.179615
-0.000435314
0.191221
-0.000334031
0.203685
-0.000249316
0.217048
-0.000184016
0.231398
-0.00013113
0.246799
-9.00566e-05
0.263328
-5.90766e-05
0.281082
-3.5311e-05
0.300154
-1.62099e-05
0.320661
0.342731
-0.018242
0.0557073
-0.0164303
0.0609396
-0.0145174
0.0648061
-0.0127439
0.0687633
-0.0111258
0.0729333
-0.00964915
0.0773952
-0.00830593
0.0821923
-0.00709537
0.0872299
-0.00602126
0.0925458
-0.00508422
0.0981314
-0.00427378
0.104081
-0.00357509
0.110387
-0.00298043
0.117133
-0.00247227
0.124317
-0.0020376
0.132003
-0.00167056
0.14022
-0.00136318
0.14903
-0.00110381
0.158466
-0.000885611
0.168586
-0.00070277
0.179432
-0.000555057
0.191073
-0.000429969
0.20356
-0.0003271
0.216945
-0.000246281
0.231317
-0.000179061
0.246731
-0.000126502
0.263276
-8.50833e-05
0.281041
-5.21468e-05
0.300121
-2.48261e-05
0.320634
0.342706
-0.0195986
0.0537268
-0.0179697
0.0593106
-0.0159801
0.0628165
-0.014132
0.0669152
-0.0124088
0.0712102
-0.0108241
0.0758105
-0.00937287
0.0807411
-0.00804611
0.0859032
-0.00686793
0.0913676
-0.0058348
0.0970983
-0.00493495
0.103181
-0.00415528
0.109607
-0.0034847
0.116463
-0.00290402
0.123737
-0.00240574
0.131504
-0.00198477
0.139799
-0.00162828
0.148674
-0.00132529
0.158163
-0.0010707
0.168331
-0.00085778
0.179219
-0.000682276
0.190897
-0.000533153
0.20341
-0.000412202
0.216824
-0.000313722
0.231218
-0.000232083
0.24665
-0.000167348
0.263211
-0.000114504
0.280988
-7.1427e-05
0.300078
-3.42179e-05
0.320596
0.342672
-0.0206866
0.0524318
-0.0190705
0.0576945
-0.0169442
0.0606902
-0.0150685
0.0650395
-0.0133201
0.0694618
-0.0117238
0.0742142
-0.0102293
0.0792465
-0.00885804
0.084532
-0.00761983
0.0901294
-0.00652587
0.0960043
-0.00555972
0.102215
-0.00472037
0.108768
-0.00397845
0.115721
-0.00333263
0.123091
-0.0027774
0.130949
-0.00230649
0.139328
-0.00189877
0.148266
-0.00155427
0.157819
-0.00126312
0.16804
-0.00101898
0.178975
-0.000814284
0.190693
-0.000641026
0.203237
-0.00050066
0.216684
-0.000383086
0.231101
-0.00028657
0.246553
-0.000208547
0.263133
-0.000143773
0.280923
-9.01206e-05
0.300025
-4.37374e-05
0.32055
0.342628
-0.0212223
0.0512689
-0.0193787
0.0558509
-0.017242
0.0585535
-0.0154889
0.0632864
-0.0138186
0.0677914
-0.0122789
0.0726745
-0.0108301
0.0777977
-0.00948899
0.0831909
-0.00825579
0.0888962
-0.00713824
0.0948868
-0.00613899
0.101215
-0.00524665
0.107875
-0.00444996
0.114924
-0.00375156
0.122392
-0.0031511
0.130349
-0.00262567
0.138803
-0.00217222
0.147813
-0.00178885
0.157436
-0.00146158
0.167713
-0.00118555
0.178699
-0.00095253
0.19046
-0.000756287
0.203041
-0.000595081
0.216522
-0.000458905
0.230965
-0.000347357
0.246442
-0.000255368
0.263041
-0.000178324
0.280846
-0.000113084
0.299959
-5.53745e-05
0.320492
0.342573
-0.021072
0.0501943
-0.0191065
0.0538854
-0.0171392
0.0565862
-0.0155774
0.0617246
-0.0140445
0.0662585
-0.0125956
0.0712256
-0.0112371
0.0764392
-0.00995462
0.0819084
-0.00876182
0.0877034
-0.00765
0.0937749
-0.00663299
0.100198
-0.0057084
0.106951
-0.00487897
0.114095
-0.00414903
0.121662
-0.00350651
0.129706
-0.00293699
0.138233
-0.00244806
0.147324
-0.00202669
0.157014
-0.00166391
0.16735
-0.00135651
0.178391
-0.0010959
0.190199
-0.000876521
0.202822
-0.000693155
0.216339
-0.000538337
0.23081
-0.000410397
0.246314
-0.000303176
0.262934
-0.000212892
0.280756
-0.000135313
0.299882
-6.59393e-05
0.320423
0.342507
-0.0203157
0.0491322
-0.0185342
0.0521039
-0.016894
0.0549461
-0.0155172
0.0603478
-0.0141156
0.064857
-0.0127692
0.0698791
-0.0114995
0.0751695
-0.0102953
0.0807042
-0.00914873
0.0865569
-0.00806177
0.092688
-0.00704455
0.099181
-0.00611027
0.106016
-0.0052628
0.113247
-0.00451109
0.120911
-0.00383155
0.129027
-0.00323562
0.137637
-0.00271475
0.146803
-0.00226075
0.15656
-0.00186616
0.166956
-0.0015303
0.178055
-0.00124253
0.189911
-0.000999891
0.202579
-0.000794603
0.216134
-0.000621358
0.230637
-0.000476414
0.246169
-0.000353832
0.262811
-0.000250042
0.280652
-0.000159884
0.299792
-7.8532e-05
0.320342
0.342428
-0.0192139
0.0481102
-0.0176801
0.05057
-0.016382
0.053648
-0.0152761
0.0592419
-0.0140062
0.0635871
-0.0127745
0.0686474
-0.0115991
0.0739941
-0.0104772
0.0795823
-0.00938364
0.0854633
-0.00833851
0.0916429
-0.00735185
0.0981944
-0.00642984
0.105094
-0.00559253
0.11241
-0.00482574
0.120144
-0.00412979
0.128331
-0.00351395
0.137021
-0.00296722
0.146256
-0.00248711
0.15608
-0.00206775
0.166536
-0.00170707
0.177695
-0.00139437
0.189599
-0.00112858
0.202313
-0.000902056
0.215907
-0.000710442
0.230445
-0.000548128
0.246007
-0.000409863
0.262673
-0.000291617
0.280534
-0.000188016
0.299688
-9.2922e-05
0.320246
0.342336
-0.0177279
0.0471566
-0.0164589
0.049301
-0.0154971
0.0526862
-0.0147065
0.0584512
-0.0136294
0.06251
-0.0125838
0.0676017
-0.0115319
0.0729423
-0.0105013
0.0785516
-0.00948013
0.0844421
-0.00849848
0.0906612
-0.00755329
0.0972492
-0.00667037
0.104211
-0.00585161
0.111591
-0.00508409
0.119376
-0.00439101
0.127638
-0.00376149
0.136392
-0.00320031
0.145695
-0.00269958
0.155579
-0.00226013
0.166097
-0.00187661
0.177311
-0.00154275
0.189265
-0.00125498
0.202025
-0.00100779
0.21566
-0.00079735
0.230235
-0.00061767
0.245827
-0.000463795
0.262519
-0.00033105
0.280401
-0.000214029
0.299571
-0.000107187
0.32014
0.342228
-0.0160127
0.0463351
-0.0150007
0.0482891
-0.0143999
0.0520854
-0.0138083
0.0578597
-0.0129307
0.0616325
-0.0120951
0.0667661
-0.0112202
0.0720674
-0.0103215
0.0776529
-0.0094084
0.083529
-0.00851958
0.0897724
-0.0076496
0.0963792
-0.00683129
0.103393
-0.00603425
0.110794
-0.00529244
0.118635
-0.00460709
0.126952
-0.00397728
0.135762
-0.00340905
0.145127
-0.00289572
0.155066
-0.00244149
0.165643
-0.00204014
0.17691
-0.00168803
0.188913
-0.00138194
0.201719
-0.00111698
0.215395
-0.000888452
0.230006
-0.000692316
0.245631
-0.000523305
0.26235
-0.00037594
0.280254
-0.00024455
0.29944
-0.000122388
0.320017
0.342106
-0.0143026
0.0457205
-0.0135885
0.0475749
-0.0132896
0.0517866
-0.0127867
0.0573568
-0.0120823
0.060928
-0.0114304
0.0661142
-0.0107353
0.0713723
-0.00997283
0.0768905
-0.00919083
0.082747
-0.00840485
0.0889864
-0.00763815
0.0956125
-0.00688153
0.102637
-0.00613538
0.110048
-0.00543834
0.117938
-0.00477196
0.126286
-0.0041568
0.135147
-0.00358949
0.144559
-0.00307216
0.154549
-0.00260889
0.165179
-0.00219461
0.176496
-0.0018277
0.188546
-0.00150604
0.201398
-0.00122474
0.215114
-0.0009799
0.229761
-0.000767126
0.245418
-0.000582271
0.262165
-0.000419508
0.280091
-0.000273335
0.299293
-0.000134941
0.319879
0.341971
-0.0126038
0.0452567
-0.0121993
0.0471705
-0.0121271
0.0517143
-0.0117047
0.0569344
-0.0112015
0.0604248
-0.0106917
0.0656044
-0.010149
0.0708296
-0.00951608
0.0762575
-0.00887781
0.0821087
-0.00821181
0.0883204
-0.00754421
0.0949449
-0.00684725
0.10194
-0.00617407
0.109375
-0.00551861
0.117282
-0.00488523
0.125653
-0.00429303
0.134555
-0.00373606
0.144002
-0.00322319
0.154036
-0.00275711
0.164713
-0.00233416
0.176073
-0.00195661
0.188168
-0.00162143
0.201062
-0.0013256
0.214818
-0.00106599
0.229502
-0.000838211
0.24519
-0.00063827
0.261965
-0.000460849
0.279913
-0.000299956
0.299133
-0.000150507
0.31973
0.341821
-0.0109828
0.044882
-0.0108277
0.0470153
-0.010917
-0.0105844
-0.0102802
-0.00992119
-0.00949081
-0.00899813
-0.00846426
-0.00792242
-0.00733662
-0.00673058
-0.00613631
-0.00553279
-0.00494772
-0.00438622
-0.00384858
-0.00334967
-0.00288695
-0.00246317
-0.00208002
-0.00173529
-0.00142826
-0.0011556
-0.000914008
-0.000699218
-0.000506545
-0.000329808
-0.000164763
-0.00954278
0.037271
0.0580786
0.0370434
0.062622
0.0354675
0.0667017
0.0335331
0.0697401
0.031927
0.0731316
0.0305023
0.0772561
0.0292484
0.0815328
0.0280964
0.0859379
0.0269305
0.0908286
0.0960803
0.0429736
0.062869
0.0396869
0.0659087
0.0382717
0.0681169
0.0371841
0.0708278
0.0357483
0.0745674
0.0343095
0.0786949
0.0330686
0.0827736
0.0318505
0.087156
0.0305931
0.092086
0.0293999
0.0972736
0.028258
0.102778
0.0270996
0.108721
0.0259406
0.115144
0.0247979
0.121985
0.0236494
0.129336
0.0224808
0.137251
0.0212926
0.145756
0.0200792
0.154888
0.0188291
0.164692
0.0175296
0.175223
0.0161728
0.186532
0.0147535
0.198658
0.0132579
0.211671
0.0116829
0.225635
0.0100161
0.240617
0.00825072
0.256713
0.0063793
0.273991
0.00438797
0.292567
0.0022661
0.312549
0.334068
0.0496581
0.0630559
0.0471276
0.0684392
0.0443985
0.070846
0.042191
0.0730353
0.0402532
0.0765052
0.0386727
0.0802754
0.0372857
0.0841606
0.0358657
0.088576
0.0344718
0.0934799
0.0331572
0.0985882
0.0318573
0.104078
0.030554
0.110024
0.0292765
0.116421
0.028007
0.123254
0.0267199
0.130623
0.0254146
0.138556
0.0240881
0.147082
0.0227279
0.156248
0.0213218
0.166098
0.01986
0.176685
0.018334
0.188058
0.0167343
0.200257
0.0150468
0.213359
0.0132667
0.227415
0.0113787
0.242505
0.00937781
0.258714
0.00725246
0.276116
0.00498947
0.29483
0.00257718
0.314962
0.336646
0.0502307
0.0661625
0.0493531
0.0693168
0.0480368
0.0721623
0.0459548
0.0751173
0.0439321
0.078528
0.0422528
0.0819547
0.0407063
0.0857071
0.0392117
0.0900706
0.0378015
0.0948901
0.0364214
0.0999683
0.0350311
0.105468
0.0336527
0.111402
0.0322895
0.117784
0.0309159
0.124628
0.0295244
0.132015
0.0281123
0.139968
0.026668
0.148526
0.0251798
0.157736
0.0236379
0.16764
0.0220321
0.178291
0.0203532
0.189737
0.0185881
0.202023
0.0167245
0.215222
0.0147544
0.229385
0.0126616
0.244598
0.0104402
0.260935
0.00807588
0.278481
0.00555698
0.297349
0.00287016
0.317649
0.339516
0.0575643
0.054645
0.0524566
0.0502981
0.0482513
0.0463267
0.0445136
0.0428463
0.0412759
0.0397438
0.0382354
0.0367448
0.0352559
0.0337601
0.03225
0.0307157
0.0291424
0.0275218
0.0258422
0.0240915
0.0222605
0.0203338
0.0183008
0.0161493
0.0138647
0.0114365
0.00884802
0.00608852
0.00314369
)
;

boundaryField
{
    outlet
    {
        type            calculated;
        value           nonuniform 0();
    }
    upperWall
    {
        type            symmetryPlane;
        value           nonuniform 0();
    }
    lowerWall
    {
        type            symmetryPlane;
        value           uniform 0;
    }
    inlet
    {
        type            calculated;
        value           nonuniform 0();
    }
    cylinder
    {
        type            calculated;
        value           nonuniform 0();
    }
    frontAndBack
    {
        type            empty;
        value           nonuniform 0();
    }
    procBoundary2to1
    {
        type            processor;
        value           nonuniform List<scalar> 
63
(
-0.0217482
-0.00192163
-0.00818982
-0.0116657
-0.035822
-0.0220309
-0.0250908
-0.0463529
-0.0276301
-0.0286324
-0.0295569
-0.0421827
-0.0339897
-0.0355143
-0.0367495
-0.0379647
0.0107863
0.00352138
0.0118715
0.00893745
0.00561685
0.00218544
0.01108
-0.00117157
0.0108786
-0.0058532
0.0095184
-0.0108767
0.0065922
-0.0165413
0.00316319
-0.0213449
-0.0573849
-0.0623944
-0.0651258
-0.0678058
-0.0715255
-0.0758314
-0.0802789
-0.0847859
-0.0896627
-0.0949302
0.0257804
-0.101636
-0.107562
-0.113985
-0.120842
-0.128187
-0.136082
-0.144567
-0.153675
-0.163442
-0.173924
-0.185175
-0.197238
-0.210176
-0.22406
-0.238951
-0.254947
-0.27212
-0.290576
-0.310428
-0.331802
)
;
    }
    procBoundary2to3
    {
        type            processor;
        value           nonuniform List<scalar> 
43
(
0.0456803
0.0526666
0.0553176
0.0514037
0.0450939
0.0413219
0.00663818
0.0427863
0.042966
0.0411611
0.037826
0.00975371
0.0518036
0.0566018
0.0601206
0.0652454
0.0703993
0.0757648
0.0815749
0.0877786
0.0943591
0.101334
0.10878
0.116679
0.125068
0.133993
0.143465
0.153537
0.164251
0.175649
0.187785
0.200718
0.214511
0.229229
0.244949
0.261751
0.279721
0.298956
0.319565
0.341656
0.0446711
-0.00952641
0.046999
)
;
    }
    procBoundary2to6
    {
        type            processor;
        value           nonuniform List<scalar> 
37
(
2.85221e-08
2.91579e-08
2.84977e-08
2.6813e-08
2.42342e-08
2.08709e-08
1.6677e-08
1.17691e-08
5.98545e-09
-5.74913e-10
-6.35708e-09
-1.28411e-08
-1.96783e-08
-2.66901e-08
-3.38601e-08
-4.02359e-08
-4.53802e-08
-6.50538e-08
-7.09306e-08
-7.41973e-08
-7.41093e-08
-6.93119e-08
-7.10901e-08
-6.192e-08
-4.84507e-08
-5.23563e-08
-2.03484e-08
3.71154e-10
2.49245e-08
6.26025e-08
8.24826e-08
9.21115e-08
9.02159e-08
8.03081e-08
6.54128e-08
4.82455e-08
3.15057e-08
)
;
    }
}


// ************************************************************************* //
