/*--------------------------------*- C++ -*----------------------------------*\
| =========                 |                                                 |
| \\      /  F ield         | OpenFOAM: The Open Source CFD Toolbox           |
|  \\    /   O peration     | Version:                                        |
|   \\  /    A nd           | Website:  www.openfoam.com                      |
|    \\/     M anipulation  |                                                 |
\*---------------------------------------------------------------------------*/
FoamFile
{
    version     2.0;
    format      ascii;
    class       volVectorField;
    location    "0.3";
    object      U;
}
// * * * * * * * * * * * * * * * * * * * * * * * * * * * * * * * * * * * * * //

dimensions      [0 1 -1 0 0 0 0];


internalField   nonuniform List<vector> 
400
(
(0.0990037 0.000210448 0)
(0.0977346 0.00019252 0)
(0.0965738 0.000177137 0)
(0.0955062 0.000163813 0)
(0.0945198 0.000152168 0)
(0.0936045 0.000141903 0)
(0.0927519 0.000132785 0)
(0.091955 0.000124626 0)
(0.0912081 0.000117275 0)
(0.0905063 0.000110611 0)
(0.0898452 0.000104533 0)
(0.0892213 9.89598e-05 0)
(0.0886316 9.38239e-05 0)
(0.0880734 8.90679e-05 0)
(0.0875443 8.46428e-05 0)
(0.0870423 8.05065e-05 0)
(0.0865658 7.66201e-05 0)
(0.086113 7.29574e-05 0)
(0.0856829 6.94788e-05 0)
(0.0852741 6.61683e-05 0)
(0.284534 0.00134204 0)
(0.280904 0.00122341 0)
(0.277591 0.00112164 0)
(0.274551 0.00103357 0)
(0.271748 0.000956745 0)
(0.269153 0.000889196 0)
(0.26674 0.000829361 0)
(0.26449 0.000775985 0)
(0.262385 0.00072805 0)
(0.260411 0.000684728 0)
(0.258555 0.00064534 0)
(0.256807 0.000609328 0)
(0.255158 0.000576224 0)
(0.253599 0.000545636 0)
(0.252124 0.000517228 0)
(0.250727 0.000490719 0)
(0.249404 0.00046586 0)
(0.248148 0.000442456 0)
(0.246958 0.000420282 0)
(0.245829 0.000399173 0)
(0.456814 0.00380034 0)
(0.451087 0.00345937 0)
(0.445863 0.00316662 0)
(0.441072 0.00291327 0)
(0.43666 0.0026923 0)
(0.432578 0.00249815 0)
(0.428789 0.00232634 0)
(0.425259 0.00217325 0)
(0.421961 0.00203595 0)
(0.418871 0.00191203 0)
(0.415969 0.00179952 0)
(0.41324 0.00169679 0)
(0.410667 0.00160248 0)
(0.408238 0.00151543 0)
(0.405943 0.00143468 0)
(0.403771 0.00135939 0)
(0.401715 0.00128886 0)
(0.399768 0.00122248 0)
(0.397924 0.0011597 0)
(0.396176 0.00109997 0)
(0.614587 0.00733019 0)
(0.60716 0.00667035 0)
(0.600379 0.00610272 0)
(0.594158 0.00561079 0)
(0.588426 0.00518138 0)
(0.583125 0.00480388 0)
(0.578204 0.00446976 0)
(0.573621 0.00417208 0)
(0.569341 0.00390518 0)
(0.565334 0.0036644 0)
(0.561574 0.00344593 0)
(0.558038 0.00324656 0)
(0.554707 0.00306364 0)
(0.551565 0.00289493 0)
(0.548597 0.00273852 0)
(0.545792 0.00259279 0)
(0.543137 0.00245636 0)
(0.540625 0.00232804 0)
(0.538246 0.0022068 0)
(0.535993 0.00209154 0)
(0.756309 0.0116184 0)
(0.74774 0.0105791 0)
(0.739893 0.00968207 0)
(0.732679 0.00890259 0)
(0.72602 0.00822073 0)
(0.719853 0.00762035 0)
(0.714123 0.00708832 0)
(0.708783 0.00661391 0)
(0.703793 0.00618831 0)
(0.69912 0.00580425 0)
(0.694734 0.00545571 0)
(0.690608 0.00513766 0)
(0.686723 0.00484588 0)
(0.683057 0.00457681 0)
(0.679596 0.00432743 0)
(0.676324 0.00409515 0)
(0.673229 0.00387778 0)
(0.6703 0.00367341 0)
(0.667527 0.00348047 0)
(0.664901 0.00329716 0)
(0.880447 0.0163224 0)
(0.871436 0.0148859 0)
(0.863142 0.0136401 0)
(0.855482 0.0125532 0)
(0.848386 0.0115993 0)
(0.841795 0.0107569 0)
(0.835655 0.0100088 0)
(0.829921 0.00934042 0)
(0.824555 0.00873993 0)
(0.819521 0.00819742 0)
(0.81479 0.00770462 0)
(0.810337 0.00725463 0)
(0.806139 0.00684159 0)
(0.802176 0.00646057 0)
(0.798431 0.00610735 0)
(0.79489 0.00577832 0)
(0.791538 0.00547042 0)
(0.788365 0.00518093 0)
(0.78536 0.00490777 0)
(0.782514 0.00464838 0)
(0.985819 0.0210383 0)
(0.977153 0.0192359 0)
(0.969108 0.017663 0)
(0.961625 0.0162832 0)
(0.954652 0.0150665 0)
(0.94814 0.0139879 0)
(0.942047 0.0130266 0)
(0.936336 0.0121654 0)
(0.930972 0.0113897 0)
(0.925927 0.0106874 0)
(0.921174 0.0100483 0)
(0.91669 0.00946394 0)
(0.912455 0.00892689 0)
(0.908451 0.00843097 0)
(0.904662 0.00797088 0)
(0.901073 0.00754202 0)
(0.897674 0.00714053 0)
(0.894451 0.00676289 0)
(0.891396 0.00640654 0)
(0.888499 0.00606824 0)
(1.07193 0.0253376 0)
(1.06438 0.023247 0)
(1.05729 0.0214087 0)
(1.05061 0.0197852 0)
(1.04434 0.0183453 0)
(1.03843 0.0170621 0)
(1.03286 0.0159134 0)
(1.0276 0.0148801 0)
(1.02265 0.0139462 0)
(1.01796 0.0130981 0)
(1.01353 0.0123244 0)
(1.00933 0.0116153 0)
(1.00535 0.0109623 0)
(1.00158 0.0103582 0)
(0.998001 0.00979707 0)
(0.994605 0.00927335 0)
(0.991379 0.00878256 0)
(0.988316 0.00832052 0)
(0.985407 0.00788427 0)
(0.982645 0.00747005 0)
(1.13919 0.0288306 0)
(1.13341 0.0265635 0)
(1.12788 0.0245524 0)
(1.12258 0.0227625 0)
(1.11752 0.0211638 0)
(1.1127 0.0197305 0)
(1.1081 0.0184401 0)
(1.10372 0.0172737 0)
(1.09956 0.0162148 0)
(1.09559 0.0152495 0)
(1.09181 0.0143658 0)
(1.08821 0.0135533 0)
(1.08478 0.012803 0)
(1.08151 0.0121074 0)
(1.0784 0.0114598 0)
(1.07543 0.0108542 0)
(1.07261 0.0102858 0)
(1.06992 0.00975004 0)
(1.06735 0.00924353 0)
(1.06491 0.00876226 0)
(1.18894 0.031223 0)
(1.1854 0.0289053 0)
(1.18187 0.0268297 0)
(1.17837 0.0249665 0)
(1.17495 0.0232893 0)
(1.1716 0.021775 0)
(1.16834 0.020403 0)
(1.16519 0.0191556 0)
(1.16214 0.0180174 0)
(1.1592 0.0169748 0)
(1.15637 0.0160162 0)
(1.15365 0.0151314 0)
(1.15103 0.0143117 0)
(1.14852 0.0135492 0)
(1.1461 0.0128374 0)
(1.14379 0.0121702 0)
(1.14158 0.0115426 0)
(1.13945 0.0109498 0)
(1.13742 0.0103885 0)
(1.13548 0.00985443 0)
(1.22335 0.0323499 0)
(1.22226 0.0301017 0)
(1.22096 0.0280683 0)
(1.21952 0.0262264 0)
(1.21797 0.0245546 0)
(1.21635 0.0230335 0)
(1.21469 0.0216457 0)
(1.21301 0.0203759 0)
(1.21133 0.0192102 0)
(1.20965 0.0181368 0)
(1.20799 0.017145 0)
(1.20636 0.0162255 0)
(1.20477 0.01537 0)
(1.20321 0.0145713 0)
(1.20169 0.0138231 0)
(1.20022 0.0131197 0)
(1.19879 0.0124563 0)
(1.19741 0.0118282 0)
(1.19607 0.011232 0)
(1.19478 0.0106638 0)
(1.2451 0.0321815 0)
(1.24643 0.030101 0)
(1.24739 0.0282006 0)
(1.24805 0.0264633 0)
(1.24846 0.024873 0)
(1.24868 0.0234146 0)
(1.24873 0.0220742 0)
(1.24864 0.0208392 0)
(1.24846 0.0196983 0)
(1.24818 0.0186415 0)
(1.24784 0.0176597 0)
(1.24745 0.0167448 0)
(1.24701 0.0158898 0)
(1.24655 0.0150881 0)
(1.24606 0.0143342 0)
(1.24556 0.0136229 0)
(1.24505 0.0129498 0)
(1.24453 0.0123108 0)
(1.24401 0.0117026 0)
(1.2435 0.0111216 0)
(1.25707 0.0308034 0)
(1.2606 0.0289583 0)
(1.26366 0.0272571 0)
(1.26631 0.025688 0)
(1.26861 0.0242396 0)
(1.27061 0.0229008 0)
(1.27236 0.021661 0)
(1.27388 0.0205107 0)
(1.27521 0.019441 0)
(1.27638 0.018444 0)
(1.2774 0.0175124 0)
(1.27829 0.0166396 0)
(1.27908 0.0158198 0)
(1.27978 0.0150476 0)
(1.28039 0.0143183 0)
(1.28093 0.0136275 0)
(1.28141 0.0129716 0)
(1.28183 0.0123468 0)
(1.28221 0.0117504 0)
(1.28254 0.0111791 0)
(1.26203 0.0283802 0)
(1.26743 0.026807 0)
(1.2723 0.0253442 0)
(1.2767 0.0239839 0)
(1.2807 0.0227182 0)
(1.28434 0.0215393 0)
(1.28765 0.0204397 0)
(1.29067 0.0194123 0)
(1.29344 0.0184506 0)
(1.29599 0.0175485 0)
(1.29833 0.0167007 0)
(1.30049 0.0159019 0)
(1.30248 0.0151478 0)
(1.30433 0.014434 0)
(1.30604 0.0137569 0)
(1.30764 0.0131129 0)
(1.30912 0.0124991 0)
(1.3105 0.0119123 0)
(1.31179 0.0113505 0)
(1.31299 0.0108108 0)
(1.26243 0.0251153 0)
(1.2693 0.0238244 0)
(1.27564 0.0226153 0)
(1.2815 0.0214828 0)
(1.28693 0.0204214 0)
(1.29196 0.0194259 0)
(1.29663 0.0184909 0)
(1.30099 0.0176116 0)
(1.30504 0.0167832 0)
(1.30883 0.0160015 0)
(1.31238 0.0152625 0)
(1.3157 0.0145625 0)
(1.31881 0.0138981 0)
(1.32174 0.0132663 0)
(1.32449 0.0126642 0)
(1.32709 0.0120892 0)
(1.32953 0.011539 0)
(1.33183 0.0110112 0)
(1.33401 0.0105043 0)
(1.33606 0.010016 0)
(1.26026 0.0212157 0)
(1.26823 0.0201991 0)
(1.27569 0.0192412 0)
(1.28268 0.0183386 0)
(1.28924 0.0174876 0)
(1.2954 0.0166843 0)
(1.30119 0.0159253 0)
(1.30664 0.0152072 0)
(1.31178 0.0145267 0)
(1.31663 0.013881 0)
(1.32121 0.0132671 0)
(1.32555 0.0126827 0)
(1.32965 0.0121253 0)
(1.33353 0.0115928 0)
(1.33721 0.0110832 0)
(1.3407 0.0105945 0)
(1.344 0.0101253 0)
(1.34714 0.00967352 0)
(1.35012 0.00923841 0)
(1.35295 0.00881816 0)
(1.25703 0.0168673 0)
(1.26577 0.016107 0)
(1.27403 0.0153875 0)
(1.28185 0.0147063 0)
(1.28925 0.0140608 0)
(1.29627 0.0134485 0)
(1.30292 0.012867 0)
(1.30924 0.0123139 0)
(1.31523 0.0117871 0)
(1.32093 0.0112847 0)
(1.32635 0.0108049 0)
(1.33151 0.0103459 0)
(1.33642 0.00990632 0)
(1.3411 0.00948457 0)
(1.34555 0.00907952 0)
(1.34979 0.00868957 0)
(1.35383 0.00831406 0)
(1.35768 0.00795124 0)
(1.36135 0.00760096 0)
(1.36484 0.00726202 0)
(1.25383 0.0122221 0)
(1.26306 0.0116975 0)
(1.27186 0.0111997 0)
(1.28024 0.0107267 0)
(1.28823 0.0102769 0)
(1.29585 0.00984853 0)
(1.30312 0.00944003 0)
(1.31006 0.00904994 0)
(1.31669 0.00867691 0)
(1.32302 0.00831971 0)
(1.32906 0.00797722 0)
(1.33484 0.0076484 0)
(1.34037 0.00733237 0)
(1.34565 0.00702813 0)
(1.3507 0.00673503 0)
(1.35552 0.00645197 0)
(1.36014 0.00617877 0)
(1.36454 0.00591394 0)
(1.36875 0.00565785 0)
(1.37276 0.00540992 0)
(1.25135 0.00739618 0)
(1.26088 0.00708942 0)
(1.26999 0.00679779 0)
(1.27872 0.00652016 0)
(1.28707 0.00625545 0)
(1.29507 0.0060027 0)
(1.30273 0.00576101 0)
(1.31008 0.00552958 0)
(1.31711 0.00530765 0)
(1.32386 0.00509452 0)
(1.33032 0.00488961 0)
(1.33651 0.00469235 0)
(1.34245 0.0045023 0)
(1.34814 0.00431891 0)
(1.35359 0.00414185 0)
(1.35881 0.00397046 0)
(1.36381 0.00380479 0)
(1.3686 0.00364378 0)
(1.37318 0.00348792 0)
(1.37756 0.00333705 0)
(1.25002 0.00247522 0)
(1.25968 0.00237435 0)
(1.26894 0.00227839 0)
(1.27783 0.00218694 0)
(1.28635 0.00209965 0)
(1.29454 0.00201618 0)
(1.30239 0.00193625 0)
(1.30993 0.00185961 0)
(1.31716 0.00178602 0)
(1.32411 0.00171525 0)
(1.33078 0.00164711 0)
(1.33718 0.00158143 0)
(1.34333 0.00151807 0)
(1.34922 0.00145687 0)
(1.35488 0.00139771 0)
(1.3603 0.0013404 0)
(1.36549 0.00128495 0)
(1.37047 0.00123098 0)
(1.37524 0.00117879 0)
(1.3798 0.0011282 0)
)
;

boundaryField
{
    fixedWalls
    {
        type            noSlip;
    }
    inlet
    {
        type            fixedValue;
        value           nonuniform 0();
    }
    outlet
    {
        type            zeroGradient;
    }
    frontAndBack
    {
        type            empty;
    }
    procBoundary1to0
    {
        type            processor;
        value           nonuniform List<vector> 
20
(
(0.1004 0.000231547 0)
(0.288533 0.00148154 0)
(0.463127 0.00420072 0)
(0.622761 0.00810304 0)
(0.765707 0.0128308 0)
(0.890266 0.0179887 0)
(0.99517 0.0231139 0)
(1.07995 0.0277241 0)
(1.14518 0.0313933 0)
(1.19244 0.0338153 0)
(1.22418 0.0348374 0)
(1.24334 0.0344593 0)
(1.253 0.0328036 0)
(1.25606 0.0300706 0)
(1.25498 0.0264923 0)
(1.25174 0.0222941 0)
(1.24779 0.0176707 0)
(1.24412 0.012775 0)
(1.24139 0.00771911 0)
(1.23994 0.00258135 0)
)
;
    }
    procBoundary1to2
    {
        type            processor;
        value           nonuniform List<vector> 
20
(
(0.0848857 6.30452e-05 0)
(0.244758 0.000379165 0)
(0.39452 0.00104327 0)
(0.533861 0.00198201 0)
(0.662416 0.00312284 0)
(0.779818 0.00440157 0)
(0.885754 0.0057462 0)
(0.980021 0.00707554 0)
(1.06259 0.0083036 0)
(1.13362 0.009345 0)
(1.19354 0.010121 0)
(1.24298 0.0105657 0)
(1.28283 0.0106314 0)
(1.31412 0.010292 0)
(1.33799 0.0095452 0)
(1.35563 0.0084116 0)
(1.36817 0.00693278 0)
(1.3766 0.00516782 0)
(1.38174 0.00318929 0)
(1.38417 0.00107862 0)
)
;
    }
    procBoundary1to5
    {
        type            processor;
        value           nonuniform List<vector> 
20
(
(1.25002 -0.00247512 0)
(1.25968 -0.00237424 0)
(1.26894 -0.00227827 0)
(1.27783 -0.00218681 0)
(1.28635 -0.0020995 0)
(1.29454 -0.00201601 0)
(1.30239 -0.00193606 0)
(1.30993 -0.0018594 0)
(1.31716 -0.00178577 0)
(1.32411 -0.00171495 0)
(1.33078 -0.00164676 0)
(1.33718 -0.001581 0)
(1.34333 -0.00151755 0)
(1.34922 -0.00145624 0)
(1.35488 -0.001397 0)
(1.3603 -0.00133952 0)
(1.36549 -0.00128393 0)
(1.37047 -0.00122983 0)
(1.37524 -0.00117725 0)
(1.3798 -0.00112662 0)
)
;
    }
}


// ************************************************************************* //
