/*--------------------------------*- C++ -*----------------------------------*\
| =========                 |                                                 |
| \\      /  F ield         | OpenFOAM: The Open Source CFD Toolbox           |
|  \\    /   O peration     | Version:                                        |
|   \\  /    A nd           | Website:  www.openfoam.com                      |
|    \\/     M anipulation  |                                                 |
\*---------------------------------------------------------------------------*/
FoamFile
{
    version     2.0;
    format      ascii;
    class       volScalarField;
    location    "563";
    object      p;
}
// * * * * * * * * * * * * * * * * * * * * * * * * * * * * * * * * * * * * * //

dimensions      [0 2 -2 0 0 0 0];


internalField   nonuniform List<scalar> 
1250
(
0.676348
0.673958
0.671575
0.6692
0.666832
0.66447
0.662116
0.659769
0.657429
0.655095
0.652768
0.650448
0.648134
0.645827
0.643526
0.641231
0.638942
0.63666
0.634384
0.632114
0.629849
0.627591
0.625338
0.623091
0.62085
0.618615
0.616385
0.61416
0.611941
0.609728
0.607519
0.605316
0.603119
0.600926
0.598738
0.596556
0.594379
0.592206
0.590038
0.587876
0.585718
0.583565
0.581416
0.579273
0.577134
0.574999
0.572869
0.570744
0.568623
0.566506
0.564394
0.562286
0.560182
0.558083
0.555988
0.553897
0.55181
0.549727
0.547649
0.545574
0.543503
0.541437
0.539374
0.537315
0.53526
0.533209
0.531162
0.529118
0.527078
0.525042
0.52301
0.520981
0.518956
0.516934
0.514916
0.512901
0.51089
0.508882
0.506878
0.504877
0.50288
0.500886
0.498895
0.496907
0.494923
0.492942
0.490965
0.48899
0.487019
0.485051
0.483085
0.481124
0.479165
0.477209
0.475256
0.473306
0.471359
0.469416
0.467475
0.465537
0.463602
0.461669
0.45974
0.457814
0.45589
0.453969
0.452051
0.450136
0.448223
0.446313
0.444406
0.442502
0.4406
0.438701
0.436804
0.43491
0.433019
0.43113
0.429244
0.42736
0.425479
0.4236
0.421724
0.41985
0.417979
0.67639
0.674
0.671617
0.669241
0.666873
0.664512
0.662157
0.65981
0.65747
0.655136
0.652809
0.650488
0.648175
0.645867
0.643566
0.641271
0.638983
0.6367
0.634424
0.632154
0.629889
0.627631
0.625378
0.623131
0.62089
0.618654
0.616424
0.6142
0.611981
0.609767
0.607558
0.605355
0.603157
0.600965
0.598777
0.596595
0.594417
0.592245
0.590077
0.587914
0.585756
0.583603
0.581454
0.579311
0.577171
0.575037
0.572907
0.570781
0.56866
0.566543
0.564431
0.562323
0.56022
0.55812
0.556025
0.553934
0.551847
0.549764
0.547686
0.545611
0.54354
0.541473
0.539411
0.537352
0.535297
0.533245
0.531198
0.529154
0.527114
0.525078
0.523046
0.521017
0.518991
0.51697
0.514951
0.512937
0.510925
0.508918
0.506913
0.504913
0.502915
0.500921
0.49893
0.496942
0.494958
0.492977
0.490999
0.489025
0.487053
0.485085
0.48312
0.481158
0.479199
0.477243
0.47529
0.47334
0.471393
0.46945
0.467509
0.465571
0.463635
0.461703
0.459774
0.457847
0.455923
0.454003
0.452084
0.450169
0.448256
0.446346
0.444439
0.442535
0.440633
0.438733
0.436837
0.434943
0.433051
0.431163
0.429276
0.427393
0.425511
0.423633
0.421756
0.419883
0.418011
0.676346
0.673956
0.671574
0.669198
0.66683
0.664469
0.662115
0.659768
0.657428
0.655094
0.652768
0.650448
0.648134
0.645827
0.643526
0.641231
0.638943
0.636661
0.634385
0.632115
0.62985
0.627592
0.62534
0.623093
0.620852
0.618616
0.616387
0.614162
0.611943
0.60973
0.607522
0.605319
0.603121
0.600929
0.598741
0.596559
0.594381
0.592209
0.590042
0.587879
0.585721
0.583568
0.58142
0.579276
0.577137
0.575003
0.572873
0.570747
0.568626
0.56651
0.564398
0.56229
0.560186
0.558087
0.555992
0.553901
0.551814
0.549732
0.547653
0.545579
0.543508
0.541442
0.539379
0.53732
0.535265
0.533214
0.531167
0.529123
0.527084
0.525047
0.523015
0.520986
0.518961
0.516939
0.514921
0.512907
0.510896
0.508888
0.506884
0.504883
0.502886
0.500892
0.498901
0.496913
0.494929
0.492948
0.490971
0.488996
0.487025
0.485057
0.483092
0.48113
0.479171
0.477215
0.475262
0.473313
0.471366
0.469422
0.467481
0.465543
0.463608
0.461676
0.459747
0.45782
0.455897
0.453976
0.452058
0.450142
0.44823
0.44632
0.444413
0.442508
0.440607
0.438707
0.436811
0.434917
0.433026
0.431137
0.429251
0.427367
0.425486
0.423607
0.421731
0.419857
0.417986
0.676326
0.673936
0.671554
0.669179
0.666811
0.66445
0.662097
0.65975
0.65741
0.655077
0.65275
0.65043
0.648117
0.64581
0.643509
0.641215
0.638927
0.636645
0.634369
0.632099
0.629835
0.627577
0.625325
0.623078
0.620837
0.618602
0.616373
0.614148
0.61193
0.609716
0.607508
0.605306
0.603108
0.600916
0.598728
0.596546
0.594369
0.592197
0.590029
0.587867
0.585709
0.583556
0.581408
0.579265
0.577126
0.574992
0.572862
0.570737
0.568616
0.566499
0.564387
0.56228
0.560176
0.558077
0.555982
0.553891
0.551805
0.549722
0.547644
0.545569
0.543499
0.541433
0.53937
0.537311
0.535257
0.533206
0.531158
0.529115
0.527075
0.525039
0.523007
0.520978
0.518953
0.516931
0.514913
0.512899
0.510888
0.508881
0.506876
0.504876
0.502878
0.500884
0.498894
0.496906
0.494922
0.492942
0.490964
0.48899
0.487018
0.48505
0.483085
0.481123
0.479165
0.477209
0.475256
0.473307
0.47136
0.469416
0.467475
0.465537
0.463603
0.46167
0.459741
0.457815
0.455891
0.45397
0.452052
0.450137
0.448225
0.446315
0.444408
0.442503
0.440602
0.438703
0.436806
0.434912
0.433021
0.431132
0.429246
0.427363
0.425482
0.423603
0.421727
0.419853
0.417982
0.676284
0.673895
0.671513
0.669139
0.666771
0.664411
0.662057
0.659711
0.657372
0.655039
0.652713
0.650393
0.64808
0.645773
0.643473
0.641179
0.638891
0.63661
0.634334
0.632065
0.629801
0.627543
0.625291
0.623045
0.620804
0.618569
0.61634
0.614116
0.611898
0.609685
0.607477
0.605274
0.603077
0.600885
0.598698
0.596516
0.594339
0.592167
0.59
0.587838
0.58568
0.583528
0.58138
0.579237
0.577098
0.574964
0.572834
0.570709
0.568589
0.566472
0.564361
0.562253
0.56015
0.558051
0.555956
0.553866
0.551779
0.549697
0.547619
0.545544
0.543474
0.541408
0.539346
0.537287
0.535232
0.533182
0.531135
0.529091
0.527052
0.525016
0.522984
0.520955
0.51893
0.516909
0.514891
0.512877
0.510866
0.508858
0.506854
0.504854
0.502857
0.500863
0.498872
0.496885
0.494901
0.492921
0.490943
0.488969
0.486998
0.48503
0.483065
0.481103
0.479145
0.477189
0.475236
0.473287
0.47134
0.469397
0.467456
0.465518
0.463583
0.461651
0.459722
0.457796
0.455873
0.453952
0.452034
0.450119
0.448207
0.446297
0.44439
0.442486
0.440584
0.438685
0.436789
0.434895
0.433004
0.431115
0.429229
0.427346
0.425465
0.423586
0.42171
0.419837
0.417966
0.676237
0.673849
0.671467
0.669093
0.666727
0.664367
0.662014
0.659668
0.657329
0.654997
0.652671
0.650352
0.648039
0.645733
0.643433
0.64114
0.638852
0.636571
0.634296
0.632027
0.629763
0.627506
0.625254
0.623009
0.620768
0.618534
0.616305
0.614081
0.611863
0.60965
0.607443
0.605241
0.603044
0.600852
0.598665
0.596484
0.594307
0.592135
0.589969
0.587807
0.58565
0.583497
0.581349
0.579206
0.577068
0.574934
0.572805
0.57068
0.56856
0.566444
0.564332
0.562225
0.560122
0.558023
0.555929
0.553839
0.551752
0.54967
0.547592
0.545518
0.543448
0.541382
0.53932
0.537262
0.535207
0.533157
0.53111
0.529067
0.527027
0.524992
0.52296
0.520931
0.518907
0.516885
0.514868
0.512854
0.510843
0.508836
0.506832
0.504832
0.502835
0.500841
0.498851
0.496864
0.49488
0.492899
0.490922
0.488948
0.486977
0.485009
0.483045
0.481083
0.479125
0.477169
0.475217
0.473267
0.471321
0.469377
0.467437
0.465499
0.463565
0.461633
0.459704
0.457778
0.455854
0.453934
0.452016
0.450101
0.448189
0.446279
0.444372
0.442468
0.440567
0.438668
0.436772
0.434878
0.432987
0.431098
0.429213
0.427329
0.425448
0.42357
0.421694
0.419821
0.41795
0.676179
0.673791
0.671411
0.669037
0.666671
0.664312
0.66196
0.659614
0.657276
0.654944
0.652619
0.6503
0.647988
0.645683
0.643383
0.64109
0.638803
0.636523
0.634248
0.631979
0.629716
0.62746
0.625208
0.622963
0.620723
0.618489
0.616261
0.614037
0.61182
0.609607
0.6074
0.605199
0.603002
0.600811
0.598624
0.596443
0.594267
0.592096
0.589929
0.587768
0.585611
0.583459
0.581311
0.579169
0.577031
0.574897
0.572768
0.570644
0.568524
0.566408
0.564297
0.56219
0.560087
0.557989
0.555895
0.553805
0.551719
0.549637
0.547559
0.545485
0.543416
0.54135
0.539288
0.53723
0.535176
0.533125
0.531079
0.529036
0.526997
0.524962
0.52293
0.520902
0.518877
0.516856
0.514839
0.512825
0.510814
0.508807
0.506804
0.504804
0.502807
0.500814
0.498823
0.496837
0.494853
0.492873
0.490896
0.488922
0.486951
0.484983
0.483019
0.481058
0.479099
0.477144
0.475192
0.473243
0.471296
0.469353
0.467413
0.465475
0.463541
0.461609
0.45968
0.457754
0.455831
0.453911
0.451993
0.450078
0.448166
0.446257
0.44435
0.442446
0.440545
0.438646
0.43675
0.434857
0.432966
0.431077
0.429192
0.427308
0.425428
0.423549
0.421674
0.4198
0.41793
0.676113
0.673725
0.671346
0.668973
0.666607
0.664249
0.661897
0.659553
0.657215
0.654884
0.652559
0.650242
0.64793
0.645625
0.643326
0.641034
0.638748
0.636468
0.634193
0.631925
0.629663
0.627407
0.625156
0.622911
0.620672
0.618439
0.61621
0.613988
0.611771
0.609559
0.607352
0.605151
0.602955
0.600764
0.598578
0.596397
0.594222
0.592051
0.589885
0.587724
0.585567
0.583416
0.581269
0.579126
0.576989
0.574856
0.572727
0.570603
0.568483
0.566368
0.564257
0.562151
0.560048
0.55795
0.555856
0.553767
0.551681
0.5496
0.547522
0.545449
0.543379
0.541314
0.539252
0.537195
0.535141
0.533091
0.531044
0.529002
0.526963
0.524928
0.522897
0.520869
0.518844
0.516824
0.514807
0.512793
0.510783
0.508776
0.506773
0.504773
0.502776
0.500783
0.498793
0.496807
0.494824
0.492843
0.490867
0.488893
0.486922
0.484955
0.482991
0.48103
0.479072
0.477117
0.475165
0.473216
0.47127
0.469326
0.467386
0.465449
0.463515
0.461583
0.459655
0.457729
0.455806
0.453886
0.451968
0.450054
0.448142
0.446233
0.444326
0.442422
0.440521
0.438623
0.436727
0.434834
0.432943
0.431055
0.429169
0.427286
0.425405
0.423527
0.421652
0.419779
0.417908
0.676037
0.673651
0.671272
0.6689
0.666535
0.664178
0.661827
0.659483
0.657146
0.654816
0.652492
0.650175
0.647864
0.64556
0.643262
0.64097
0.638685
0.636406
0.634132
0.631865
0.629603
0.627347
0.625097
0.622853
0.620615
0.618382
0.616154
0.613932
0.611716
0.609504
0.607298
0.605098
0.602902
0.600712
0.598526
0.596346
0.594171
0.592
0.589835
0.587674
0.585518
0.583367
0.581221
0.579079
0.576942
0.574809
0.572681
0.570558
0.568438
0.566324
0.564213
0.562107
0.560005
0.557907
0.555814
0.553725
0.551639
0.549558
0.547481
0.545408
0.543339
0.541274
0.539213
0.537156
0.535102
0.533052
0.531006
0.528964
0.526926
0.524891
0.52286
0.520832
0.518809
0.516788
0.514771
0.512758
0.510748
0.508742
0.506739
0.504739
0.502743
0.50075
0.498761
0.496774
0.494791
0.492811
0.490835
0.488861
0.486891
0.484924
0.48296
0.480999
0.479041
0.477087
0.475135
0.473186
0.47124
0.469298
0.467358
0.465421
0.463487
0.461555
0.459627
0.457701
0.455779
0.453859
0.451942
0.450027
0.448116
0.446207
0.4443
0.442397
0.440496
0.438597
0.436702
0.434809
0.432918
0.43103
0.429145
0.427262
0.425382
0.423504
0.421628
0.419755
0.417885
0.675954
0.673569
0.671191
0.66882
0.666456
0.6641
0.66175
0.659407
0.657071
0.654742
0.652419
0.650103
0.647793
0.645489
0.643192
0.640901
0.638617
0.636338
0.634065
0.631799
0.629538
0.627283
0.625034
0.62279
0.620552
0.61832
0.616093
0.613872
0.611656
0.609446
0.60724
0.60504
0.602845
0.600656
0.598471
0.596291
0.594116
0.591947
0.589782
0.587622
0.585466
0.583316
0.58117
0.579029
0.576892
0.57476
0.572632
0.570509
0.56839
0.566276
0.564166
0.562061
0.559959
0.557862
0.555769
0.55368
0.551595
0.549515
0.547438
0.545366
0.543297
0.541232
0.539171
0.537114
0.535061
0.533012
0.530967
0.528925
0.526887
0.524852
0.522822
0.520794
0.518771
0.516751
0.514734
0.512721
0.510712
0.508706
0.506703
0.504704
0.502708
0.500716
0.498726
0.49674
0.494758
0.492778
0.490802
0.488829
0.486859
0.484892
0.482928
0.480968
0.47901
0.477056
0.475104
0.473156
0.47121
0.469268
0.467328
0.465391
0.463458
0.461527
0.459598
0.457673
0.455751
0.453831
0.451914
0.45
0.448088
0.44618
0.444274
0.44237
0.44047
0.438571
0.436676
0.434783
0.432893
0.431005
0.42912
0.427237
0.425357
0.423479
0.421604
0.419732
0.417861
)
;

boundaryField
{
    inlet
    {
        type            zeroGradient;
    }
    outlet
    {
        type            fixedValue;
        value           nonuniform 0();
    }
    wall
    {
        type            zeroGradient;
    }
    back
    {
        type            wedge;
    }
    front
    {
        type            wedge;
    }
    axis
    {
        type            empty;
    }
    procBoundary1to0
    {
        type            processor;
        value           nonuniform List<scalar> 10(0.678746 0.678788 0.678744 0.678723 0.678681 0.678634 0.678575 0.678507 0.678431 0.678346);
    }
    procBoundary1to2
    {
        type            processor;
        value           nonuniform List<scalar> 10(0.41611 0.416142 0.416117 0.416113 0.416097 0.416081 0.416061 0.41604 0.416017 0.415993);
    }
    procBoundary1to5
    {
        type            processor;
        value           nonuniform List<scalar> 
125
(
0.675865
0.673481
0.671104
0.668735
0.666372
0.664017
0.661668
0.659326
0.656991
0.654663
0.652341
0.650026
0.647717
0.645415
0.643119
0.640829
0.638545
0.636267
0.633995
0.63173
0.62947
0.627215
0.624967
0.622724
0.620487
0.618256
0.61603
0.613809
0.611594
0.609384
0.60718
0.60498
0.602786
0.600597
0.598413
0.596234
0.59406
0.591891
0.589727
0.587567
0.585412
0.583263
0.581117
0.578977
0.57684
0.574709
0.572582
0.570459
0.568341
0.566227
0.564118
0.562013
0.559912
0.557815
0.555723
0.553634
0.55155
0.54947
0.547394
0.545322
0.543254
0.541189
0.539129
0.537073
0.53502
0.532971
0.530926
0.528885
0.526847
0.524813
0.522783
0.520756
0.518733
0.516713
0.514697
0.512684
0.510675
0.50867
0.506667
0.504668
0.502673
0.500681
0.498692
0.496706
0.494724
0.492745
0.490769
0.488796
0.486826
0.48486
0.482896
0.480936
0.478979
0.477025
0.475074
0.473125
0.47118
0.469238
0.467299
0.465362
0.463429
0.461498
0.45957
0.457645
0.455723
0.453803
0.451887
0.449973
0.448062
0.446153
0.444247
0.442344
0.440444
0.438546
0.436651
0.434758
0.432868
0.43098
0.429095
0.427213
0.425333
0.423456
0.421581
0.419708
0.417838
)
;
    }
}


// ************************************************************************* //
