/*--------------------------------*- C++ -*----------------------------------*\
| =========                 |                                                 |
| \\      /  F ield         | OpenFOAM: The Open Source CFD Toolbox           |
|  \\    /   O peration     | Version:                                        |
|   \\  /    A nd           | Website:  www.openfoam.com                      |
|    \\/     M anipulation  |                                                 |
\*---------------------------------------------------------------------------*/
FoamFile
{
    version     2.0;
    format      ascii;
    class       surfaceScalarField;
    location    "563";
    object      phi;
}
// * * * * * * * * * * * * * * * * * * * * * * * * * * * * * * * * * * * * * //

dimensions      [0 3 -1 0 0 0 0];
oriented        oriented;


internalField   nonuniform List<scalar> 
2365
(
5.99057e-07
-7.81592e-10
5.99835e-07
-7.7825e-10
6.0061e-07
-7.7495e-10
6.01381e-07
-7.7169e-10
6.0215e-07
-7.68469e-10
6.02915e-07
-7.65287e-10
6.03677e-07
-7.62143e-10
6.04436e-07
-7.59036e-10
6.05192e-07
-7.55965e-10
6.05945e-07
-7.5293e-10
6.06695e-07
-7.49929e-10
6.07442e-07
-7.46962e-10
6.08186e-07
-7.44028e-10
6.08927e-07
-7.41126e-10
6.09666e-07
-7.38256e-10
6.10401e-07
-7.35417e-10
6.11134e-07
-7.32608e-10
6.11863e-07
-7.29829e-10
6.1259e-07
-7.27078e-10
6.13315e-07
-7.24356e-10
6.14036e-07
-7.21662e-10
6.14755e-07
-7.18995e-10
6.15472e-07
-7.16355e-10
6.16186e-07
-7.13741e-10
6.16897e-07
-7.11152e-10
6.17605e-07
-7.08588e-10
6.18311e-07
-7.06048e-10
6.19015e-07
-7.03533e-10
6.19716e-07
-7.01041e-10
6.20415e-07
-6.98572e-10
6.21111e-07
-6.96125e-10
6.21804e-07
-6.93701e-10
6.22496e-07
-6.91298e-10
6.23185e-07
-6.88916e-10
6.23871e-07
-6.86555e-10
6.24555e-07
-6.84214e-10
6.25237e-07
-6.81893e-10
6.25917e-07
-6.79591e-10
6.26594e-07
-6.77309e-10
6.27269e-07
-6.75045e-10
6.27942e-07
-6.728e-10
6.28613e-07
-6.70573e-10
6.29281e-07
-6.68363e-10
6.29947e-07
-6.66171e-10
6.30611e-07
-6.63995e-10
6.31273e-07
-6.61836e-10
6.31933e-07
-6.59694e-10
6.3259e-07
-6.57567e-10
6.33246e-07
-6.55456e-10
6.33899e-07
-6.5336e-10
6.3455e-07
-6.5128e-10
6.35199e-07
-6.49214e-10
6.35847e-07
-6.47163e-10
6.36492e-07
-6.45126e-10
6.37135e-07
-6.43103e-10
6.37776e-07
-6.41094e-10
6.38415e-07
-6.39098e-10
6.39052e-07
-6.37115e-10
6.39687e-07
-6.35145e-10
6.4032e-07
-6.33188e-10
6.40952e-07
-6.31244e-10
6.41581e-07
-6.29311e-10
6.42208e-07
-6.27391e-10
6.42834e-07
-6.25482e-10
6.43458e-07
-6.23585e-10
6.44079e-07
-6.217e-10
6.44699e-07
-6.19825e-10
6.45317e-07
-6.17962e-10
6.45933e-07
-6.16109e-10
6.46547e-07
-6.14267e-10
6.4716e-07
-6.12435e-10
6.4777e-07
-6.10614e-10
6.48379e-07
-6.08802e-10
6.48986e-07
-6.07001e-10
6.49591e-07
-6.05209e-10
6.50195e-07
-6.03427e-10
6.50797e-07
-6.01654e-10
6.51396e-07
-5.9989e-10
6.51995e-07
-5.98135e-10
6.52591e-07
-5.96389e-10
6.53186e-07
-5.94652e-10
6.53778e-07
-5.92924e-10
6.5437e-07
-5.91204e-10
6.54959e-07
-5.89492e-10
6.55547e-07
-5.87789e-10
6.56133e-07
-5.86093e-10
6.56717e-07
-5.84406e-10
6.573e-07
-5.82726e-10
6.57881e-07
-5.81054e-10
6.58461e-07
-5.7939e-10
6.59038e-07
-5.77733e-10
6.59614e-07
-5.76083e-10
6.60189e-07
-5.74441e-10
6.60762e-07
-5.72806e-10
6.61333e-07
-5.71178e-10
6.61902e-07
-5.69556e-10
6.6247e-07
-5.67942e-10
6.63037e-07
-5.66334e-10
6.63601e-07
-5.64733e-10
6.64165e-07
-5.63138e-10
6.64726e-07
-5.6155e-10
6.65286e-07
-5.59968e-10
6.65845e-07
-5.58392e-10
6.66401e-07
-5.56822e-10
6.66957e-07
-5.55259e-10
6.6751e-07
-5.53701e-10
6.68062e-07
-5.5215e-10
6.68613e-07
-5.50604e-10
6.69162e-07
-5.49064e-10
6.6971e-07
-5.4753e-10
6.70256e-07
-5.46001e-10
6.708e-07
-5.44478e-10
6.71343e-07
-5.4296e-10
6.71885e-07
-5.41448e-10
6.72424e-07
-5.39941e-10
6.72963e-07
-5.38439e-10
6.735e-07
-5.36943e-10
6.74035e-07
-5.35452e-10
6.74569e-07
-5.33965e-10
6.75102e-07
-5.32484e-10
6.75633e-07
-5.31008e-10
6.76162e-07
-5.29536e-10
6.7669e-07
-5.2807e-10
6.77217e-07
-5.26608e-10
-5.25151e-10
1.79789e-06
-3.12691e-09
1.80023e-06
-3.1135e-09
1.80255e-06
-3.10025e-09
1.80487e-06
-3.08717e-09
1.80717e-06
-3.07424e-09
1.80947e-06
-3.06146e-09
1.81176e-06
-3.04883e-09
1.81404e-06
-3.03635e-09
1.8163e-06
-3.02401e-09
1.81856e-06
-3.01181e-09
1.82081e-06
-2.99975e-09
1.82305e-06
-2.98783e-09
1.82528e-06
-2.97603e-09
1.82751e-06
-2.96436e-09
1.82972e-06
-2.95281e-09
1.83193e-06
-2.94139e-09
1.83413e-06
-2.93009e-09
1.83632e-06
-2.9189e-09
1.8385e-06
-2.90783e-09
1.84067e-06
-2.89688e-09
1.84283e-06
-2.88603e-09
1.84499e-06
-2.87528e-09
1.84714e-06
-2.86465e-09
1.84928e-06
-2.85411e-09
1.85141e-06
-2.84368e-09
1.85353e-06
-2.83334e-09
1.85565e-06
-2.8231e-09
1.85776e-06
-2.81296e-09
1.85986e-06
-2.80291e-09
1.86196e-06
-2.79295e-09
1.86404e-06
-2.78307e-09
1.86612e-06
-2.77329e-09
1.8682e-06
-2.76359e-09
1.87026e-06
-2.75397e-09
1.87232e-06
-2.74443e-09
1.87437e-06
-2.73498e-09
1.87641e-06
-2.7256e-09
1.87845e-06
-2.7163e-09
1.88048e-06
-2.70708e-09
1.8825e-06
-2.69792e-09
1.88452e-06
-2.68884e-09
1.88653e-06
-2.67984e-09
1.88853e-06
-2.6709e-09
1.89053e-06
-2.66203e-09
1.89252e-06
-2.65322e-09
1.8945e-06
-2.64449e-09
1.89647e-06
-2.63581e-09
1.89844e-06
-2.6272e-09
1.90041e-06
-2.61865e-09
1.90236e-06
-2.61016e-09
1.90432e-06
-2.60173e-09
1.90626e-06
-2.59336e-09
1.9082e-06
-2.58505e-09
1.91013e-06
-2.57679e-09
1.91205e-06
-2.56859e-09
1.91397e-06
-2.56044e-09
1.91589e-06
-2.55235e-09
1.91779e-06
-2.54431e-09
1.9197e-06
-2.53631e-09
1.92159e-06
-2.52837e-09
1.92348e-06
-2.52048e-09
1.92536e-06
-2.51264e-09
1.92724e-06
-2.50484e-09
1.92911e-06
-2.49709e-09
1.93098e-06
-2.48939e-09
1.93284e-06
-2.48173e-09
1.93469e-06
-2.47412e-09
1.93654e-06
-2.46655e-09
1.93838e-06
-2.45902e-09
1.94022e-06
-2.45154e-09
1.94205e-06
-2.44409e-09
1.94388e-06
-2.43669e-09
1.9457e-06
-2.42932e-09
1.94751e-06
-2.422e-09
1.94932e-06
-2.41472e-09
1.95113e-06
-2.40747e-09
1.95293e-06
-2.40026e-09
1.95472e-06
-2.39308e-09
1.95651e-06
-2.38595e-09
1.95829e-06
-2.37884e-09
1.96007e-06
-2.37178e-09
1.96184e-06
-2.36474e-09
1.96361e-06
-2.35775e-09
1.96537e-06
-2.35078e-09
1.96712e-06
-2.34385e-09
1.96887e-06
-2.33695e-09
1.97062e-06
-2.33008e-09
1.97236e-06
-2.32324e-09
1.9741e-06
-2.31644e-09
1.97583e-06
-2.30966e-09
1.97755e-06
-2.30292e-09
1.97927e-06
-2.2962e-09
1.98099e-06
-2.28951e-09
1.9827e-06
-2.28286e-09
1.9844e-06
-2.27623e-09
1.9861e-06
-2.26962e-09
1.9878e-06
-2.26305e-09
1.98949e-06
-2.2565e-09
1.99117e-06
-2.24998e-09
1.99285e-06
-2.24349e-09
1.99453e-06
-2.23702e-09
1.9962e-06
-2.23058e-09
1.99786e-06
-2.22416e-09
1.99952e-06
-2.21777e-09
2.00118e-06
-2.2114e-09
2.00283e-06
-2.20506e-09
2.00448e-06
-2.19874e-09
2.00612e-06
-2.19244e-09
2.00776e-06
-2.18617e-09
2.00939e-06
-2.17992e-09
2.01102e-06
-2.1737e-09
2.01264e-06
-2.1675e-09
2.01426e-06
-2.16131e-09
2.01587e-06
-2.15516e-09
2.01748e-06
-2.14902e-09
2.01909e-06
-2.14291e-09
2.02069e-06
-2.13681e-09
2.02228e-06
-2.13074e-09
2.02387e-06
-2.12469e-09
2.02546e-06
-2.11866e-09
2.02704e-06
-2.11265e-09
2.02862e-06
-2.10666e-09
2.03019e-06
-2.10069e-09
2.03176e-06
-2.09474e-09
-2.08881e-09
2.99915e-06
-7.03671e-09
3.00304e-06
-7.00632e-09
3.00692e-06
-6.97628e-09
3.01078e-06
-6.9466e-09
3.01462e-06
-6.91727e-09
3.01845e-06
-6.88827e-09
3.02226e-06
-6.8596e-09
3.02605e-06
-6.83126e-09
3.02983e-06
-6.80323e-09
3.0336e-06
-6.77551e-09
3.03734e-06
-6.7481e-09
3.04108e-06
-6.72097e-09
3.0448e-06
-6.69414e-09
3.0485e-06
-6.66758e-09
3.05219e-06
-6.6413e-09
3.05586e-06
-6.61529e-09
3.05952e-06
-6.58955e-09
3.06317e-06
-6.56406e-09
3.0668e-06
-6.53882e-09
3.07041e-06
-6.51383e-09
3.07402e-06
-6.48908e-09
3.07761e-06
-6.46456e-09
3.08118e-06
-6.44028e-09
3.08474e-06
-6.41622e-09
3.08829e-06
-6.39238e-09
3.09183e-06
-6.36876e-09
3.09535e-06
-6.34535e-09
3.09886e-06
-6.32215e-09
3.10236e-06
-6.29915e-09
3.10584e-06
-6.27635e-09
3.10931e-06
-6.25375e-09
3.11277e-06
-6.23133e-09
3.11621e-06
-6.2091e-09
3.11965e-06
-6.18706e-09
3.12307e-06
-6.1652e-09
3.12648e-06
-6.14351e-09
3.12987e-06
-6.12199e-09
3.13326e-06
-6.10064e-09
3.13663e-06
-6.07946e-09
3.13999e-06
-6.05844e-09
3.14334e-06
-6.03758e-09
3.14667e-06
-6.01687e-09
3.15e-06
-5.99632e-09
3.15331e-06
-5.97592e-09
3.15662e-06
-5.95566e-09
3.15991e-06
-5.93555e-09
3.16319e-06
-5.91558e-09
3.16646e-06
-5.89575e-09
3.16971e-06
-5.87606e-09
3.17296e-06
-5.8565e-09
3.17619e-06
-5.83707e-09
3.17942e-06
-5.81777e-09
3.18263e-06
-5.7986e-09
3.18584e-06
-5.77955e-09
3.18903e-06
-5.76062e-09
3.19221e-06
-5.74181e-09
3.19538e-06
-5.72312e-09
3.19854e-06
-5.70455e-09
3.20169e-06
-5.68609e-09
3.20483e-06
-5.66774e-09
3.20796e-06
-5.6495e-09
3.21108e-06
-5.63137e-09
3.21419e-06
-5.61334e-09
3.21728e-06
-5.59542e-09
3.22037e-06
-5.5776e-09
3.22345e-06
-5.55988e-09
3.22652e-06
-5.54226e-09
3.22958e-06
-5.52474e-09
3.23262e-06
-5.50731e-09
3.23566e-06
-5.48998e-09
3.23869e-06
-5.47274e-09
3.24171e-06
-5.45559e-09
3.24472e-06
-5.43853e-09
3.24772e-06
-5.42155e-09
3.25071e-06
-5.40467e-09
3.25369e-06
-5.38787e-09
3.25666e-06
-5.37115e-09
3.25962e-06
-5.35452e-09
3.26257e-06
-5.33797e-09
3.26552e-06
-5.3215e-09
3.26845e-06
-5.30511e-09
3.27137e-06
-5.2888e-09
3.27429e-06
-5.27256e-09
3.27719e-06
-5.2564e-09
3.28009e-06
-5.24031e-09
3.28298e-06
-5.2243e-09
3.28586e-06
-5.20836e-09
3.28873e-06
-5.1925e-09
3.29159e-06
-5.1767e-09
3.29444e-06
-5.16097e-09
3.29728e-06
-5.14531e-09
3.30011e-06
-5.12972e-09
3.30294e-06
-5.1142e-09
3.30575e-06
-5.09874e-09
3.30856e-06
-5.08335e-09
3.31136e-06
-5.06802e-09
3.31415e-06
-5.05276e-09
3.31693e-06
-5.03755e-09
3.3197e-06
-5.02242e-09
3.32247e-06
-5.00734e-09
3.32522e-06
-4.99232e-09
3.32797e-06
-4.97736e-09
3.33071e-06
-4.96246e-09
3.33344e-06
-4.94762e-09
3.33616e-06
-4.93284e-09
3.33887e-06
-4.91812e-09
3.34158e-06
-4.90345e-09
3.34427e-06
-4.88883e-09
3.34696e-06
-4.87428e-09
3.34964e-06
-4.85977e-09
3.35231e-06
-4.84532e-09
3.35498e-06
-4.83093e-09
3.35763e-06
-4.81659e-09
3.36028e-06
-4.8023e-09
3.36292e-06
-4.78806e-09
3.36555e-06
-4.77387e-09
3.36817e-06
-4.75973e-09
3.37079e-06
-4.74565e-09
3.37339e-06
-4.73161e-09
3.37599e-06
-4.71763e-09
3.37858e-06
-4.70369e-09
3.38117e-06
-4.6898e-09
3.38374e-06
-4.67596e-09
3.38631e-06
-4.66217e-09
-4.64842e-09
4.2045e-06
-1.2507e-08
4.20995e-06
-1.24522e-08
4.21537e-06
-1.23981e-08
4.22077e-06
-1.23445e-08
4.22614e-06
-1.22916e-08
4.23149e-06
-1.22392e-08
4.23682e-06
-1.21874e-08
4.24212e-06
-1.21362e-08
4.24741e-06
-1.20855e-08
4.25267e-06
-1.20354e-08
4.2579e-06
-1.19858e-08
4.26312e-06
-1.19366e-08
4.26831e-06
-1.1888e-08
4.27349e-06
-1.18399e-08
4.27864e-06
-1.17922e-08
4.28377e-06
-1.1745e-08
4.28888e-06
-1.16983e-08
4.29396e-06
-1.1652e-08
4.29903e-06
-1.16061e-08
4.30408e-06
-1.15606e-08
4.3091e-06
-1.15156e-08
4.31411e-06
-1.1471e-08
4.3191e-06
-1.14268e-08
4.32406e-06
-1.13829e-08
4.32901e-06
-1.13395e-08
4.33394e-06
-1.12964e-08
4.33885e-06
-1.12537e-08
4.34374e-06
-1.12113e-08
4.34861e-06
-1.11693e-08
4.35346e-06
-1.11277e-08
4.35829e-06
-1.10863e-08
4.3631e-06
-1.10454e-08
4.3679e-06
-1.10047e-08
4.37268e-06
-1.09643e-08
4.37744e-06
-1.09243e-08
4.38218e-06
-1.08845e-08
4.3869e-06
-1.08451e-08
4.39161e-06
-1.08059e-08
4.39629e-06
-1.07671e-08
4.40096e-06
-1.07285e-08
4.40562e-06
-1.06902e-08
4.41025e-06
-1.06522e-08
4.41487e-06
-1.06144e-08
4.41947e-06
-1.05769e-08
4.42405e-06
-1.05396e-08
4.42862e-06
-1.05026e-08
4.43317e-06
-1.04659e-08
4.43771e-06
-1.04294e-08
4.44222e-06
-1.03931e-08
4.44672e-06
-1.03571e-08
4.45121e-06
-1.03213e-08
4.45567e-06
-1.02857e-08
4.46013e-06
-1.02503e-08
4.46456e-06
-1.02152e-08
4.46898e-06
-1.01803e-08
4.47339e-06
-1.01455e-08
4.47777e-06
-1.0111e-08
4.48215e-06
-1.00767e-08
4.4865e-06
-1.00426e-08
4.49084e-06
-1.00087e-08
4.49517e-06
-9.975e-09
4.49948e-06
-9.94148e-09
4.50377e-06
-9.90814e-09
4.50805e-06
-9.875e-09
4.51232e-06
-9.84203e-09
4.51657e-06
-9.80924e-09
4.5208e-06
-9.77663e-09
4.52502e-06
-9.74419e-09
4.52923e-06
-9.71193e-09
4.53342e-06
-9.67983e-09
4.53759e-06
-9.6479e-09
4.54175e-06
-9.61613e-09
4.5459e-06
-9.58453e-09
4.55003e-06
-9.55308e-09
4.55415e-06
-9.52179e-09
4.55825e-06
-9.49066e-09
4.56234e-06
-9.45968e-09
4.56641e-06
-9.42885e-09
4.57047e-06
-9.39816e-09
4.57452e-06
-9.36763e-09
4.57855e-06
-9.33724e-09
4.58257e-06
-9.30699e-09
4.58657e-06
-9.27688e-09
4.59056e-06
-9.24692e-09
4.59454e-06
-9.21709e-09
4.5985e-06
-9.18739e-09
4.60245e-06
-9.15783e-09
4.60639e-06
-9.1284e-09
4.61031e-06
-9.09911e-09
4.61422e-06
-9.06994e-09
4.61811e-06
-9.0409e-09
4.622e-06
-9.01198e-09
4.62587e-06
-8.9832e-09
4.62972e-06
-8.95453e-09
4.63356e-06
-8.92599e-09
4.63739e-06
-8.89756e-09
4.64121e-06
-8.86926e-09
4.64501e-06
-8.84108e-09
4.6488e-06
-8.81301e-09
4.65258e-06
-8.78506e-09
4.65635e-06
-8.75722e-09
4.6601e-06
-8.72949e-09
4.66384e-06
-8.70188e-09
4.66757e-06
-8.67438e-09
4.67128e-06
-8.64699e-09
4.67498e-06
-8.61971e-09
4.67867e-06
-8.59253e-09
4.68235e-06
-8.56547e-09
4.68601e-06
-8.5385e-09
4.68966e-06
-8.51165e-09
4.6933e-06
-8.48489e-09
4.69693e-06
-8.45824e-09
4.70055e-06
-8.4317e-09
4.70415e-06
-8.40525e-09
4.70774e-06
-8.3789e-09
4.71132e-06
-8.35266e-09
4.71488e-06
-8.32651e-09
4.71844e-06
-8.30046e-09
4.72198e-06
-8.27451e-09
4.72551e-06
-8.24865e-09
4.72903e-06
-8.22289e-09
4.73254e-06
-8.19722e-09
4.73604e-06
-8.17165e-09
4.73952e-06
-8.14617e-09
-8.12078e-09
5.41553e-06
-1.95168e-08
5.42251e-06
-1.94292e-08
5.42945e-06
-1.93426e-08
5.43637e-06
-1.92569e-08
5.44325e-06
-1.9172e-08
5.4501e-06
-1.90881e-08
5.45691e-06
-1.9005e-08
5.4637e-06
-1.89228e-08
5.47046e-06
-1.88414e-08
5.47718e-06
-1.87608e-08
5.48388e-06
-1.8681e-08
5.49054e-06
-1.86019e-08
5.49718e-06
-1.85236e-08
5.50378e-06
-1.8446e-08
5.51036e-06
-1.83692e-08
5.51691e-06
-1.82931e-08
5.52343e-06
-1.82176e-08
5.52992e-06
-1.81428e-08
5.53638e-06
-1.80687e-08
5.54282e-06
-1.79952e-08
5.54922e-06
-1.79223e-08
5.5556e-06
-1.78501e-08
5.56195e-06
-1.77785e-08
5.56828e-06
-1.77074e-08
5.57458e-06
-1.76369e-08
5.58085e-06
-1.7567e-08
5.58709e-06
-1.74977e-08
5.59331e-06
-1.74289e-08
5.5995e-06
-1.73606e-08
5.60566e-06
-1.72929e-08
5.6118e-06
-1.72257e-08
5.61792e-06
-1.7159e-08
5.62401e-06
-1.70927e-08
5.63007e-06
-1.7027e-08
5.63611e-06
-1.69617e-08
5.64212e-06
-1.68969e-08
5.64811e-06
-1.68326e-08
5.65407e-06
-1.67687e-08
5.66001e-06
-1.67053e-08
5.66592e-06
-1.66423e-08
5.67181e-06
-1.65797e-08
5.67767e-06
-1.65175e-08
5.68352e-06
-1.64558e-08
5.68933e-06
-1.63944e-08
5.69513e-06
-1.63334e-08
5.7009e-06
-1.62729e-08
5.70664e-06
-1.62128e-08
5.71237e-06
-1.61529e-08
5.71807e-06
-1.60935e-08
5.72375e-06
-1.60345e-08
5.7294e-06
-1.59758e-08
5.73503e-06
-1.59174e-08
5.74064e-06
-1.58594e-08
5.74623e-06
-1.58018e-08
5.75179e-06
-1.57445e-08
5.75733e-06
-1.56875e-08
5.76285e-06
-1.56308e-08
5.76835e-06
-1.55745e-08
5.77383e-06
-1.55185e-08
5.77928e-06
-1.54628e-08
5.78471e-06
-1.54074e-08
5.79012e-06
-1.53524e-08
5.79551e-06
-1.52976e-08
5.80088e-06
-1.52431e-08
5.80623e-06
-1.51889e-08
5.81156e-06
-1.5135e-08
5.81686e-06
-1.50814e-08
5.82214e-06
-1.50281e-08
5.82741e-06
-1.49751e-08
5.83265e-06
-1.49223e-08
5.83787e-06
-1.48698e-08
5.84307e-06
-1.48175e-08
5.84825e-06
-1.47656e-08
5.85341e-06
-1.47138e-08
5.85856e-06
-1.46624e-08
5.86368e-06
-1.46112e-08
5.86878e-06
-1.45602e-08
5.87386e-06
-1.45095e-08
5.87892e-06
-1.44591e-08
5.88396e-06
-1.44089e-08
5.88898e-06
-1.43589e-08
5.89398e-06
-1.43092e-08
5.89897e-06
-1.42597e-08
5.90393e-06
-1.42104e-08
5.90887e-06
-1.41614e-08
5.9138e-06
-1.41126e-08
5.9187e-06
-1.4064e-08
5.92359e-06
-1.40156e-08
5.92846e-06
-1.39675e-08
5.93331e-06
-1.39196e-08
5.93814e-06
-1.38719e-08
5.94295e-06
-1.38244e-08
5.94775e-06
-1.37771e-08
5.95252e-06
-1.373e-08
5.95728e-06
-1.36832e-08
5.96202e-06
-1.36365e-08
5.96674e-06
-1.35901e-08
5.97144e-06
-1.35438e-08
5.97613e-06
-1.34978e-08
5.98079e-06
-1.34519e-08
5.98544e-06
-1.34063e-08
5.99007e-06
-1.33608e-08
5.99469e-06
-1.33155e-08
5.99928e-06
-1.32705e-08
6.00386e-06
-1.32256e-08
6.00842e-06
-1.31809e-08
6.01297e-06
-1.31364e-08
6.01749e-06
-1.30921e-08
6.022e-06
-1.3048e-08
6.0265e-06
-1.3004e-08
6.03097e-06
-1.29602e-08
6.03543e-06
-1.29167e-08
6.03987e-06
-1.28733e-08
6.0443e-06
-1.283e-08
6.0487e-06
-1.2787e-08
6.0531e-06
-1.27441e-08
6.05747e-06
-1.27014e-08
6.06183e-06
-1.26588e-08
6.06617e-06
-1.26165e-08
6.0705e-06
-1.25743e-08
6.07481e-06
-1.25323e-08
6.0791e-06
-1.24904e-08
6.08338e-06
-1.24487e-08
6.08764e-06
-1.24072e-08
-1.23658e-08
6.63335e-06
-2.80024e-08
6.64179e-06
-2.78716e-08
6.65019e-06
-2.77421e-08
6.65855e-06
-2.76139e-08
6.66686e-06
-2.7487e-08
6.67513e-06
-2.73613e-08
6.68337e-06
-2.72368e-08
6.69156e-06
-2.71135e-08
6.69971e-06
-2.69913e-08
6.70782e-06
-2.68703e-08
6.71588e-06
-2.67503e-08
6.72391e-06
-2.66315e-08
6.7319e-06
-2.65137e-08
6.73986e-06
-2.63969e-08
6.74777e-06
-2.62811e-08
6.75564e-06
-2.61664e-08
6.76348e-06
-2.60525e-08
6.77127e-06
-2.59397e-08
6.77903e-06
-2.58278e-08
6.78675e-06
-2.57167e-08
6.79444e-06
-2.56066e-08
6.80208e-06
-2.54973e-08
6.80969e-06
-2.53889e-08
6.81727e-06
-2.52814e-08
6.82481e-06
-2.51747e-08
6.83231e-06
-2.50687e-08
6.83977e-06
-2.49636e-08
6.8472e-06
-2.48593e-08
6.8546e-06
-2.47557e-08
6.86196e-06
-2.46529e-08
6.86928e-06
-2.45508e-08
6.87658e-06
-2.44495e-08
6.88383e-06
-2.43488e-08
6.89105e-06
-2.42489e-08
6.89824e-06
-2.41496e-08
6.9054e-06
-2.40511e-08
6.91252e-06
-2.39532e-08
6.9196e-06
-2.38559e-08
6.92666e-06
-2.37593e-08
6.93368e-06
-2.36634e-08
6.94067e-06
-2.3568e-08
6.94762e-06
-2.34733e-08
6.95455e-06
-2.33792e-08
6.96144e-06
-2.32857e-08
6.9683e-06
-2.31928e-08
6.97512e-06
-2.31004e-08
6.98192e-06
-2.30086e-08
6.98868e-06
-2.29174e-08
6.99542e-06
-2.28268e-08
7.00212e-06
-2.27367e-08
7.00879e-06
-2.26471e-08
7.01543e-06
-2.25581e-08
7.02204e-06
-2.24696e-08
7.02862e-06
-2.23816e-08
7.03517e-06
-2.22941e-08
7.04169e-06
-2.22072e-08
7.04818e-06
-2.21207e-08
7.05464e-06
-2.20347e-08
7.06107e-06
-2.19492e-08
7.06747e-06
-2.18642e-08
7.07385e-06
-2.17797e-08
7.08019e-06
-2.16956e-08
7.0865e-06
-2.1612e-08
7.09279e-06
-2.15289e-08
7.09905e-06
-2.14462e-08
7.10528e-06
-2.1364e-08
7.11148e-06
-2.12822e-08
7.11765e-06
-2.12008e-08
7.12379e-06
-2.11199e-08
7.12991e-06
-2.10394e-08
7.136e-06
-2.09593e-08
7.14206e-06
-2.08797e-08
7.1481e-06
-2.08004e-08
7.15411e-06
-2.07216e-08
7.16009e-06
-2.06432e-08
7.16604e-06
-2.05651e-08
7.17197e-06
-2.04875e-08
7.17787e-06
-2.04103e-08
7.18374e-06
-2.03335e-08
7.18959e-06
-2.0257e-08
7.19541e-06
-2.01809e-08
7.20121e-06
-2.01052e-08
7.20698e-06
-2.00299e-08
7.21272e-06
-1.9955e-08
7.21844e-06
-1.98804e-08
7.22414e-06
-1.98062e-08
7.2298e-06
-1.97324e-08
7.23545e-06
-1.96589e-08
7.24107e-06
-1.95858e-08
7.24666e-06
-1.9513e-08
7.25223e-06
-1.94406e-08
7.25777e-06
-1.93685e-08
7.26329e-06
-1.92967e-08
7.26879e-06
-1.92254e-08
7.27426e-06
-1.91543e-08
7.27971e-06
-1.90836e-08
7.28513e-06
-1.90132e-08
7.29053e-06
-1.89432e-08
7.2959e-06
-1.88734e-08
7.30126e-06
-1.8804e-08
7.30658e-06
-1.8735e-08
7.31189e-06
-1.86662e-08
7.31717e-06
-1.85978e-08
7.32243e-06
-1.85297e-08
7.32767e-06
-1.84619e-08
7.33288e-06
-1.83944e-08
7.33807e-06
-1.83272e-08
7.34324e-06
-1.82603e-08
7.34839e-06
-1.81937e-08
7.35351e-06
-1.81275e-08
7.35861e-06
-1.80615e-08
7.36369e-06
-1.79958e-08
7.36875e-06
-1.79304e-08
7.37378e-06
-1.78654e-08
7.3788e-06
-1.78006e-08
7.38379e-06
-1.77361e-08
7.38876e-06
-1.76719e-08
7.39371e-06
-1.7608e-08
7.39863e-06
-1.75443e-08
7.40354e-06
-1.7481e-08
7.40843e-06
-1.74179e-08
7.41329e-06
-1.73551e-08
7.41814e-06
-1.72926e-08
7.42296e-06
-1.72303e-08
-1.71684e-08
7.85757e-06
-3.78086e-08
7.86732e-06
-3.76211e-08
7.87702e-06
-3.74354e-08
7.88665e-06
-3.72514e-08
7.89624e-06
-3.70691e-08
7.90576e-06
-3.68885e-08
7.91524e-06
-3.67095e-08
7.92465e-06
-3.65321e-08
7.93402e-06
-3.63562e-08
7.94333e-06
-3.61819e-08
7.95259e-06
-3.6009e-08
7.9618e-06
-3.58377e-08
7.97095e-06
-3.56677e-08
7.98005e-06
-3.54992e-08
7.9891e-06
-3.5332e-08
7.9981e-06
-3.51662e-08
8.00705e-06
-3.50018e-08
8.01595e-06
-3.48386e-08
8.0248e-06
-3.46767e-08
8.0336e-06
-3.45162e-08
8.04235e-06
-3.43567e-08
8.05105e-06
-3.41986e-08
8.0597e-06
-3.40416e-08
8.06831e-06
-3.38859e-08
8.07686e-06
-3.37312e-08
8.08537e-06
-3.35777e-08
8.09384e-06
-3.34254e-08
8.10225e-06
-3.32741e-08
8.11062e-06
-3.31239e-08
8.11894e-06
-3.29748e-08
8.12722e-06
-3.28267e-08
8.13545e-06
-3.26797e-08
8.14363e-06
-3.25337e-08
8.15177e-06
-3.23887e-08
8.15987e-06
-3.22446e-08
8.16792e-06
-3.21016e-08
8.17592e-06
-3.19595e-08
8.18389e-06
-3.18184e-08
8.1918e-06
-3.16782e-08
8.19968e-06
-3.15389e-08
8.20751e-06
-3.14006e-08
8.2153e-06
-3.12631e-08
8.22305e-06
-3.11265e-08
8.23075e-06
-3.09908e-08
8.23842e-06
-3.0856e-08
8.24604e-06
-3.0722e-08
8.25362e-06
-3.05889e-08
8.26116e-06
-3.04566e-08
8.26866e-06
-3.03251e-08
8.27611e-06
-3.01944e-08
8.28353e-06
-3.00646e-08
8.29091e-06
-2.99355e-08
8.29825e-06
-2.98072e-08
8.30555e-06
-2.96797e-08
8.3128e-06
-2.9553e-08
8.32002e-06
-2.9427e-08
8.32721e-06
-2.93018e-08
8.33435e-06
-2.91773e-08
8.34145e-06
-2.90536e-08
8.34852e-06
-2.89306e-08
8.35555e-06
-2.88083e-08
8.36254e-06
-2.86867e-08
8.36949e-06
-2.85658e-08
8.37641e-06
-2.84457e-08
8.38329e-06
-2.83262e-08
8.39013e-06
-2.82074e-08
8.39694e-06
-2.80893e-08
8.40371e-06
-2.79718e-08
8.41045e-06
-2.7855e-08
8.41715e-06
-2.77389e-08
8.42381e-06
-2.76235e-08
8.43044e-06
-2.75086e-08
8.43703e-06
-2.73945e-08
8.44359e-06
-2.72809e-08
8.45012e-06
-2.7168e-08
8.45661e-06
-2.70557e-08
8.46306e-06
-2.6944e-08
8.46949e-06
-2.6833e-08
8.47588e-06
-2.67225e-08
8.48223e-06
-2.66127e-08
8.48855e-06
-2.65034e-08
8.49484e-06
-2.63948e-08
8.5011e-06
-2.62867e-08
8.50732e-06
-2.61792e-08
8.51352e-06
-2.60723e-08
8.51968e-06
-2.5966e-08
8.5258e-06
-2.58602e-08
8.5319e-06
-2.5755e-08
8.53796e-06
-2.56504e-08
8.544e-06
-2.55463e-08
8.55e-06
-2.54428e-08
8.55597e-06
-2.53398e-08
8.56191e-06
-2.52374e-08
8.56782e-06
-2.51355e-08
8.5737e-06
-2.50341e-08
8.57955e-06
-2.49333e-08
8.58537e-06
-2.48329e-08
8.59116e-06
-2.47332e-08
8.59692e-06
-2.46339e-08
8.60265e-06
-2.45351e-08
8.60835e-06
-2.44369e-08
8.61403e-06
-2.43391e-08
8.61967e-06
-2.42419e-08
8.62529e-06
-2.41452e-08
8.63087e-06
-2.4049e-08
8.63643e-06
-2.39532e-08
8.64196e-06
-2.3858e-08
8.64747e-06
-2.37632e-08
8.65294e-06
-2.36689e-08
8.65839e-06
-2.35751e-08
8.66381e-06
-2.34818e-08
8.6692e-06
-2.33889e-08
8.67457e-06
-2.32965e-08
8.67991e-06
-2.32046e-08
8.68522e-06
-2.31132e-08
8.69051e-06
-2.30222e-08
8.69577e-06
-2.29316e-08
8.701e-06
-2.28416e-08
8.70621e-06
-2.27519e-08
8.71139e-06
-2.26627e-08
8.71655e-06
-2.2574e-08
8.72168e-06
-2.24857e-08
8.72678e-06
-2.23979e-08
8.73186e-06
-2.23104e-08
-2.22234e-08
9.08434e-06
-4.86121e-08
9.09507e-06
-4.83505e-08
9.10573e-06
-4.80913e-08
9.11631e-06
-4.78344e-08
9.12682e-06
-4.75798e-08
9.13726e-06
-4.73274e-08
9.14763e-06
-4.70772e-08
9.15792e-06
-4.68291e-08
9.16815e-06
-4.65832e-08
9.17831e-06
-4.63394e-08
9.1884e-06
-4.60976e-08
9.19842e-06
-4.58578e-08
9.20837e-06
-4.56199e-08
9.21825e-06
-4.53841e-08
9.22807e-06
-4.51501e-08
9.23782e-06
-4.4918e-08
9.24751e-06
-4.46878e-08
9.25713e-06
-4.44594e-08
9.26669e-06
-4.42328e-08
9.27618e-06
-4.40079e-08
9.28561e-06
-4.37848e-08
9.29497e-06
-4.35634e-08
9.30427e-06
-4.33437e-08
9.31351e-06
-4.31257e-08
9.32269e-06
-4.29093e-08
9.33181e-06
-4.26945e-08
9.34086e-06
-4.24813e-08
9.34986e-06
-4.22697e-08
9.35879e-06
-4.20596e-08
9.36767e-06
-4.18511e-08
9.37649e-06
-4.16441e-08
9.38525e-06
-4.14386e-08
9.39395e-06
-4.12346e-08
9.40259e-06
-4.1032e-08
9.41118e-06
-4.08308e-08
9.41971e-06
-4.06311e-08
9.42818e-06
-4.04328e-08
9.4366e-06
-4.02359e-08
9.44496e-06
-4.00403e-08
9.45327e-06
-3.98461e-08
9.46152e-06
-3.96532e-08
9.46972e-06
-3.94617e-08
9.47786e-06
-3.92715e-08
9.48596e-06
-3.90825e-08
9.49399e-06
-3.88949e-08
9.50198e-06
-3.87085e-08
9.50991e-06
-3.85233e-08
9.5178e-06
-3.83394e-08
9.52563e-06
-3.81568e-08
9.53341e-06
-3.79753e-08
9.54114e-06
-3.77951e-08
9.54882e-06
-3.7616e-08
9.55645e-06
-3.74381e-08
9.56403e-06
-3.72614e-08
9.57157e-06
-3.70858e-08
9.57905e-06
-3.69114e-08
9.58649e-06
-3.67381e-08
9.59388e-06
-3.65659e-08
9.60122e-06
-3.63948e-08
9.60851e-06
-3.62248e-08
9.61576e-06
-3.6056e-08
9.62296e-06
-3.58882e-08
9.63012e-06
-3.57214e-08
9.63723e-06
-3.55557e-08
9.64429e-06
-3.53911e-08
9.65131e-06
-3.52275e-08
9.65829e-06
-3.50649e-08
9.66522e-06
-3.49034e-08
9.67211e-06
-3.47428e-08
9.67895e-06
-3.45833e-08
9.68575e-06
-3.44248e-08
9.69251e-06
-3.42672e-08
9.69923e-06
-3.41106e-08
9.7059e-06
-3.3955e-08
9.71253e-06
-3.38004e-08
9.71912e-06
-3.36466e-08
9.72567e-06
-3.34939e-08
9.73218e-06
-3.33421e-08
9.73865e-06
-3.31911e-08
9.74508e-06
-3.30412e-08
9.75147e-06
-3.28921e-08
9.75782e-06
-3.27439e-08
9.76413e-06
-3.25967e-08
9.7704e-06
-3.24503e-08
9.77663e-06
-3.23048e-08
9.78283e-06
-3.21601e-08
9.78898e-06
-3.20164e-08
9.7951e-06
-3.18735e-08
9.80118e-06
-3.17314e-08
9.80722e-06
-3.15902e-08
9.81323e-06
-3.14499e-08
9.8192e-06
-3.13103e-08
9.82514e-06
-3.11716e-08
9.83103e-06
-3.10338e-08
9.8369e-06
-3.08967e-08
9.84272e-06
-3.07604e-08
9.84852e-06
-3.0625e-08
9.85427e-06
-3.04903e-08
9.86e-06
-3.03564e-08
9.86568e-06
-3.02234e-08
9.87134e-06
-3.0091e-08
9.87696e-06
-2.99595e-08
9.88255e-06
-2.98287e-08
9.8881e-06
-2.96987e-08
9.89362e-06
-2.95694e-08
9.89911e-06
-2.94409e-08
9.90456e-06
-2.93131e-08
9.90999e-06
-2.91861e-08
9.91538e-06
-2.90598e-08
9.92074e-06
-2.89342e-08
9.92606e-06
-2.88094e-08
9.93136e-06
-2.86852e-08
9.93662e-06
-2.85618e-08
9.94186e-06
-2.8439e-08
9.94706e-06
-2.8317e-08
9.95224e-06
-2.81957e-08
9.95738e-06
-2.8075e-08
9.96249e-06
-2.7955e-08
9.96758e-06
-2.78358e-08
9.97263e-06
-2.77171e-08
9.97766e-06
-2.75992e-08
9.98265e-06
-2.74819e-08
9.98762e-06
-2.73653e-08
9.99256e-06
-2.72493e-08
-2.7134e-08
1.03026e-05
-5.98201e-08
1.03137e-05
-5.94636e-08
1.03248e-05
-5.91103e-08
1.03357e-05
-5.87602e-08
1.03465e-05
-5.84132e-08
1.03573e-05
-5.80694e-08
1.03679e-05
-5.77287e-08
1.03785e-05
-5.7391e-08
1.0389e-05
-5.70562e-08
1.03993e-05
-5.67243e-08
1.04096e-05
-5.63954e-08
1.04198e-05
-5.60692e-08
1.043e-05
-5.57459e-08
1.044e-05
-5.54254e-08
1.045e-05
-5.51075e-08
1.04598e-05
-5.47922e-08
1.04696e-05
-5.44798e-08
1.04793e-05
-5.41698e-08
1.0489e-05
-5.38625e-08
1.04985e-05
-5.35577e-08
1.0508e-05
-5.32553e-08
1.05174e-05
-5.29555e-08
1.05267e-05
-5.26581e-08
1.05359e-05
-5.23632e-08
1.05451e-05
-5.20705e-08
1.05542e-05
-5.17803e-08
1.05632e-05
-5.14924e-08
1.05721e-05
-5.12067e-08
1.0581e-05
-5.09234e-08
1.05898e-05
-5.06422e-08
1.05985e-05
-5.03633e-08
1.06072e-05
-5.00866e-08
1.06157e-05
-4.9812e-08
1.06242e-05
-4.95396e-08
1.06327e-05
-4.92693e-08
1.06411e-05
-4.9001e-08
1.06494e-05
-4.87349e-08
1.06576e-05
-4.84707e-08
1.06658e-05
-4.82087e-08
1.06739e-05
-4.79485e-08
1.06819e-05
-4.76904e-08
1.06899e-05
-4.74342e-08
1.06978e-05
-4.718e-08
1.07056e-05
-4.69277e-08
1.07134e-05
-4.66773e-08
1.07211e-05
-4.64286e-08
1.07288e-05
-4.6182e-08
1.07364e-05
-4.59371e-08
1.07439e-05
-4.5694e-08
1.07514e-05
-4.54529e-08
1.07588e-05
-4.52133e-08
1.07662e-05
-4.49756e-08
1.07735e-05
-4.47397e-08
1.07807e-05
-4.45054e-08
1.07879e-05
-4.42729e-08
1.0795e-05
-4.4042e-08
1.08021e-05
-4.38129e-08
1.08091e-05
-4.35854e-08
1.08161e-05
-4.33595e-08
1.0823e-05
-4.31353e-08
1.08299e-05
-4.29126e-08
1.08367e-05
-4.26916e-08
1.08434e-05
-4.24722e-08
1.08501e-05
-4.22543e-08
1.08568e-05
-4.2038e-08
1.08634e-05
-4.18232e-08
1.08699e-05
-4.16099e-08
1.08764e-05
-4.13981e-08
1.08828e-05
-4.11878e-08
1.08892e-05
-4.0979e-08
1.08956e-05
-4.07717e-08
1.09019e-05
-4.05658e-08
1.09081e-05
-4.03614e-08
1.09143e-05
-4.01584e-08
1.09205e-05
-3.99568e-08
1.09266e-05
-3.97565e-08
1.09327e-05
-3.95578e-08
1.09387e-05
-3.93603e-08
1.09447e-05
-3.91643e-08
1.09506e-05
-3.89695e-08
1.09565e-05
-3.87761e-08
1.09623e-05
-3.85841e-08
1.09681e-05
-3.83933e-08
1.09739e-05
-3.82039e-08
1.09796e-05
-3.80157e-08
1.09852e-05
-3.78289e-08
1.09909e-05
-3.76432e-08
1.09965e-05
-3.74589e-08
1.1002e-05
-3.72758e-08
1.10075e-05
-3.70939e-08
1.1013e-05
-3.69132e-08
1.10184e-05
-3.67338e-08
1.10238e-05
-3.65556e-08
1.10291e-05
-3.63785e-08
1.10344e-05
-3.62027e-08
1.10397e-05
-3.6028e-08
1.10449e-05
-3.58544e-08
1.10501e-05
-3.56821e-08
1.10553e-05
-3.55108e-08
1.10604e-05
-3.53407e-08
1.10655e-05
-3.51717e-08
1.10705e-05
-3.50039e-08
1.10755e-05
-3.48371e-08
1.10805e-05
-3.46714e-08
1.10854e-05
-3.45068e-08
1.10903e-05
-3.43433e-08
1.10952e-05
-3.41809e-08
1.11e-05
-3.40195e-08
1.11048e-05
-3.38591e-08
1.11096e-05
-3.36998e-08
1.11143e-05
-3.35416e-08
1.1119e-05
-3.33843e-08
1.11237e-05
-3.32281e-08
1.11283e-05
-3.30729e-08
1.11329e-05
-3.29186e-08
1.11375e-05
-3.27654e-08
1.1142e-05
-3.26131e-08
1.11465e-05
-3.24618e-08
1.1151e-05
-3.23115e-08
1.11555e-05
-3.21621e-08
1.11599e-05
-3.20137e-08
1.11643e-05
-3.18662e-08
1.11686e-05
-3.17197e-08
1.11729e-05
-3.1574e-08
-3.14293e-08
1.14887e-05
1.14992e-05
1.15096e-05
1.152e-05
1.15302e-05
1.15402e-05
1.15502e-05
1.15601e-05
1.15699e-05
1.15795e-05
1.15891e-05
1.15985e-05
1.16079e-05
1.16171e-05
1.16263e-05
1.16354e-05
1.16443e-05
1.16532e-05
1.1662e-05
1.16706e-05
1.16792e-05
1.16877e-05
1.16961e-05
1.17045e-05
1.17127e-05
1.17208e-05
1.17289e-05
1.17369e-05
1.17448e-05
1.17526e-05
1.17603e-05
1.1768e-05
1.17755e-05
1.1783e-05
1.17904e-05
1.17978e-05
1.1805e-05
1.18122e-05
1.18193e-05
1.18264e-05
1.18334e-05
1.18403e-05
1.18471e-05
1.18539e-05
1.18605e-05
1.18672e-05
1.18737e-05
1.18802e-05
1.18866e-05
1.1893e-05
1.18993e-05
1.19055e-05
1.19117e-05
1.19178e-05
1.19239e-05
1.19299e-05
1.19358e-05
1.19417e-05
1.19475e-05
1.19533e-05
1.1959e-05
1.19646e-05
1.19702e-05
1.19758e-05
1.19813e-05
1.19867e-05
1.19921e-05
1.19974e-05
1.20027e-05
1.20079e-05
1.20131e-05
1.20182e-05
1.20233e-05
1.20283e-05
1.20333e-05
1.20382e-05
1.20431e-05
1.2048e-05
1.20528e-05
1.20575e-05
1.20622e-05
1.20669e-05
1.20715e-05
1.20761e-05
1.20806e-05
1.20851e-05
1.20896e-05
1.2094e-05
1.20984e-05
1.21027e-05
1.2107e-05
1.21112e-05
1.21154e-05
1.21196e-05
1.21238e-05
1.21279e-05
1.21319e-05
1.2136e-05
1.21399e-05
1.21439e-05
1.21478e-05
1.21517e-05
1.21556e-05
1.21594e-05
1.21632e-05
1.21669e-05
1.21706e-05
1.21743e-05
1.2178e-05
1.21816e-05
1.21852e-05
1.21887e-05
1.21922e-05
1.21957e-05
1.21992e-05