/*--------------------------------*- C++ -*----------------------------------*\
| =========                 |                                                 |
| \\      /  F ield         | OpenFOAM: The Open Source CFD Toolbox           |
|  \\    /   O peration     | Version:                                        |
|   \\  /    A nd           | Website:  www.openfoam.com                      |
|    \\/     M anipulation  |                                                 |
\*---------------------------------------------------------------------------*/
FoamFile
{
    version     2.0;
    format      ascii;
    class       volVectorField;
    location    "563";
    object      U;
}
// * * * * * * * * * * * * * * * * * * * * * * * * * * * * * * * * * * * * * //

dimensions      [0 1 -1 0 0 0 0];


internalField   nonuniform List<vector> 
1250
(
(1.37651 -0.000703128 6.93437e-15)
(1.3783 -0.000700144 6.82701e-15)
(1.38009 -0.000697198 7.79668e-15)
(1.38187 -0.000694288 7.68625e-15)
(1.38364 -0.000691414 8.67446e-15)
(1.3854 -0.000688574 8.40145e-15)
(1.38716 -0.000685768 8.96838e-15)
(1.38891 -0.000682995 9.77073e-15)
(1.39065 -0.000680255 9.74384e-15)
(1.39238 -0.000677546 1.05727e-14)
(1.39411 -0.000674868 1.15208e-14)
(1.39583 -0.00067222 1.12766e-14)
(1.39755 -0.000669601 1.2014e-14)
(1.39925 -0.000667012 1.20159e-14)
(1.40095 -0.000664451 1.2687e-14)
(1.40265 -0.000661917 1.27099e-14)
(1.40434 -0.000659411 1.44704e-14)
(1.40602 -0.000656931 1.30026e-14)
(1.40769 -0.000654477 1.59502e-14)
(1.40936 -0.000652049 1.22966e-14)
(1.41102 -0.000649645 1.87535e-14)
(1.41268 -0.000647266 1.03223e-14)
(1.41433 -0.00064491 2.43949e-14)
(1.41597 -0.000642578 2.13176e-15)
(1.41761 -0.000640268 3.91981e-14)
(1.41924 -0.000637981 1.24596e-14)
(1.42087 -0.000635716 2.27323e-14)
(1.42249 -0.000633472 5.77382e-15)
(1.42411 -0.000631249 3.35136e-14)
(1.42571 -0.000629047 -1.05653e-14)
(1.42732 -0.000626864 2.86425e-14)
(1.42892 -0.000624702 -3.17311e-15)
(1.43051 -0.000622559 1.65309e-14)
(1.43209 -0.000620434 1.63737e-14)
(1.43368 -0.000618329 1.69699e-14)
(1.43525 -0.000616241 1.66171e-14)
(1.43682 -0.000614171 1.6238e-14)
(1.43839 -0.000612119 1.66792e-14)
(1.43995 -0.000610084 1.66716e-14)
(1.4415 -0.000608065 1.64386e-14)
(1.44305 -0.000606063 1.64684e-14)
(1.4446 -0.000604077 1.61772e-14)
(1.44614 -0.000602107 1.56834e-14)
(1.44767 -0.000600152 1.5976e-14)
(1.4492 -0.000598212 1.53578e-14)
(1.45072 -0.000596287 1.63346e-14)
(1.45224 -0.000594377 1.51433e-14)
(1.45376 -0.000592481 1.76466e-14)
(1.45527 -0.000590599 1.38584e-14)
(1.45677 -0.000588731 2.08548e-14)
(1.45827 -0.000586876 9.88643e-15)
(1.45977 -0.000585035 2.81087e-14)
(1.46126 -0.000583206 -1.09763e-15)
(1.46274 -0.00058139 1.61694e-14)
(1.46422 -0.000579587 1.77185e-14)
(1.4657 -0.000577795 1.71384e-14)
(1.46717 -0.000576016 1.8281e-14)
(1.46864 -0.000574249 1.78138e-14)
(1.4701 -0.000572493 1.85416e-14)
(1.47156 -0.000570749 1.84376e-14)
(1.47301 -0.000569015 1.83326e-14)
(1.47446 -0.000567293 1.90708e-14)
(1.47591 -0.000565581 1.9169e-14)
(1.47735 -0.00056388 1.98006e-14)
(1.47878 -0.000562189 1.96558e-14)
(1.48021 -0.000560508 1.95276e-14)
(1.48164 -0.000558838 1.9645e-14)
(1.48306 -0.000557177 1.99958e-14)
(1.48448 -0.000555525 2.00839e-14)
(1.4859 -0.000553883 2.02528e-14)
(1.48731 -0.000552251 2.03147e-14)
(1.48871 -0.000550627 2.08162e-14)
(1.49012 -0.000549013 2.02099e-14)
(1.49151 -0.000547407 2.12976e-14)
(1.49291 -0.00054581 2.07536e-14)
(1.4943 -0.000544221 2.18956e-14)
(1.49568 -0.000542641 1.94389e-14)
(1.49706 -0.000541069 2.36495e-14)
(1.49844 -0.000539505 1.7437e-14)
(1.49981 -0.000537949 2.77154e-14)
(1.50118 -0.0005364 1.0784e-14)
(1.50255 -0.000534859 3.74542e-14)
(1.50391 -0.000533326 2.14651e-14)
(1.50527 -0.000531801 2.02985e-14)
(1.50662 -0.000530282 2.01615e-14)
(1.50797 -0.000528771 2.02273e-14)
(1.50932 -0.000527266 2.04401e-14)
(1.51066 -0.000525769 2.00758e-14)
(1.512 -0.000524279 1.98599e-14)
(1.51333 -0.000522795 1.95653e-14)
(1.51466 -0.000521318 1.99738e-14)
(1.51599 -0.000519847 1.87279e-14)
(1.51731 -0.000518383 1.94067e-14)
(1.51863 -0.000516925 1.87533e-14)
(1.51994 -0.000515473 1.80875e-14)
(1.52126 -0.000514028 1.85724e-14)
(1.52256 -0.000512588 1.77549e-14)
(1.52387 -0.000511154 1.78801e-14)
(1.52517 -0.000509727 1.71919e-14)
(1.52646 -0.000508305 1.72493e-14)
(1.52776 -0.000506888 1.66035e-14)
(1.52905 -0.000505477 1.72732e-14)
(1.53033 -0.000504072 1.58422e-14)
(1.53161 -0.000502672 1.62292e-14)
(1.53289 -0.000501278 1.50183e-14)
(1.53417 -0.000499889 1.57611e-14)
(1.53544 -0.000498505 1.43977e-14)
(1.53671 -0.000497126 1.58991e-14)
(1.53797 -0.000495753 1.29839e-14)
(1.53923 -0.000494384 1.68299e-14)
(1.54049 -0.00049302 1.00681e-14)
(1.54174 -0.000491662 1.95847e-14)
(1.54299 -0.000490308 3.46138e-15)
(1.54424 -0.000488958 2.74588e-14)
(1.54548 -0.000487614 1.31475e-14)
(1.54672 -0.000486274 1.14714e-14)
(1.54796 -0.000484939 1.18647e-14)
(1.54919 -0.000483608 1.00925e-14)
(1.55042 -0.000482282 1.169e-14)
(1.55165 -0.00048096 7.90617e-15)
(1.55287 -0.000479642 1.2774e-14)
(1.55409 -0.000478329 4.48115e-15)
(1.5553 -0.00047702 1.59596e-14)
(1.55652 -0.000475716 2.05113e-14)
(1.55773 -0.000474415 1.31315e-14)
(1.37707 -0.00177794 2.17671e-14)
(1.37886 -0.00177032 2.00262e-14)
(1.38065 -0.0017628 2.43107e-14)
(1.38242 -0.00175537 2.37911e-14)
(1.38419 -0.00174803 2.57338e-14)
(1.38596 -0.00174078 2.707e-14)
(1.38771 -0.00173362 2.84542e-14)
(1.38946 -0.00172654 2.99454e-14)
(1.3912 -0.00171954 3.14065e-14)
(1.39294 -0.00171262 3.2714e-14)
(1.39467 -0.00170578 3.42841e-14)
(1.39639 -0.00169902 3.53122e-14)
(1.3981 -0.00169233 3.70267e-14)
(1.39981 -0.00168572 3.75767e-14)
(1.40151 -0.00167918 3.98964e-14)
(1.4032 -0.00167271 3.9371e-14)
(1.40489 -0.0016663 4.31992e-14)
(1.40657 -0.00165997 4.0727e-14)
(1.40825 -0.0016537 4.66372e-14)
(1.40992 -0.00164749 4.07239e-14)
(1.41158 -0.00164135 5.13908e-14)
(1.41323 -0.00163527 3.75176e-14)
(1.41488 -0.00162925 5.82233e-14)
(1.41653 -0.00162329 2.93484e-14)
(1.41816 -0.00161739 7.06471e-14)
(1.4198 -0.00161154 3.91307e-14)
(1.42142 -0.00160575 5.78012e-14)
(1.42304 -0.00160002 3.14007e-14)
(1.42465 -0.00159433 6.85716e-14)
(1.42626 -0.0015887 1.66447e-14)
(1.42786 -0.00158312 6.25532e-14)
(1.42946 -0.0015776 2.55682e-14)
(1.43105 -0.00157212 4.96908e-14)
(1.43264 -0.00156668 4.4352e-14)
(1.43422 -0.0015613 4.77348e-14)
(1.43579 -0.00155596 4.5299e-14)
(1.43736 -0.00155066 4.45217e-14)
(1.43892 -0.00154542 4.62699e-14)
(1.44048 -0.00154021 4.42992e-14)
(1.44204 -0.00153505 4.49672e-14)
(1.44358 -0.00152992 4.44362e-14)
(1.44513 -0.00152484 4.51359e-14)
(1.44666 -0.0015198 4.46116e-14)
(1.4482 -0.0015148 4.55153e-14)
(1.44972 -0.00150984 4.38235e-14)
(1.45125 -0.00150491 4.62711e-14)
(1.45276 -0.00150002 4.33108e-14)
(1.45427 -0.00149517 4.81989e-14)
(1.45578 -0.00149035 4.18017e-14)
(1.45728 -0.00148557 5.18921e-14)
(1.45878 -0.00148082 3.83812e-14)
(1.46027 -0.00147611 5.8874e-14)
(1.46176 -0.00147143 3.15527e-14)
(1.46324 -0.00146678 4.8242e-14)
(1.46472 -0.00146216 5.06142e-14)
(1.4662 -0.00145758 4.93203e-14)
(1.46766 -0.00145302 5.24606e-14)
(1.46913 -0.0014485 5.04734e-14)
(1.47059 -0.001444 5.38334e-14)
(1.47204 -0.00143954 5.20182e-14)
(1.47349 -0.0014351 5.43104e-14)
(1.47494 -0.00143069 5.44255e-14)
(1.47638 -0.0014263 5.52819e-14)
(1.47782 -0.00142195 5.56635e-14)
(1.47925 -0.00141762 5.63757e-14)
(1.48068 -0.00141331 5.68105e-14)
(1.4821 -0.00140903 5.73039e-14)
(1.48352 -0.00140478 5.77127e-14)
(1.48493 -0.00140055 5.79768e-14)
(1.48634 -0.00139634 5.8621e-14)
(1.48775 -0.00139216 5.83756e-14)
(1.48915 -0.001388 5.91778e-14)
(1.49055 -0.00138387 5.85146e-14)
(1.49194 -0.00137976 5.97051e-14)
(1.49333 -0.00137566 5.80903e-14)
(1.49472 -0.00137159 6.08659e-14)
(1.4961 -0.00136755 5.68376e-14)
(1.49747 -0.00136352 6.25991e-14)
(1.49885 -0.00135951 5.37658e-14)
(1.50021 -0.00135553 6.60996e-14)
(1.50158 -0.00135156 4.74161e-14)
(1.50294 -0.00134761 7.31556e-14)
(1.50429 -0.00134369 5.68766e-14)
(1.50565 -0.00133978 5.7356e-14)
(1.50699 -0.00133589 5.59812e-14)
(1.50834 -0.00133202 5.57957e-14)
(1.50968 -0.00132816 5.63765e-14)
(1.51101 -0.00132433 5.39244e-14)
(1.51234 -0.00132051 5.55345e-14)
(1.51367 -0.00131671 5.23475e-14)
(1.515 -0.00131293 5.49268e-14)
(1.51632 -0.00130916 5.09421e-14)
(1.51763 -0.00130541 5.35744e-14)
(1.51895 -0.00130167 4.97052e-14)
(1.52026 -0.00129796 5.11933e-14)
(1.52156 -0.00129425 4.98652e-14)
(1.52286 -0.00129057 4.84647e-14)
(1.52416 -0.0012869 4.80059e-14)
(1.52545 -0.00128324 4.76261e-14)
(1.52674 -0.0012796 4.6437e-14)
(1.52803 -0.00127597 4.47817e-14)
(1.52931 -0.00127236 4.5908e-14)
(1.53059 -0.00126876 4.21559e-14)
(1.53186 -0.00126518 4.42668e-14)
(1.53313 -0.00126161 4.00482e-14)
(1.5344 -0.00125805 4.19201e-14)
(1.53567 -0.00125451 3.84022e-14)
(1.53693 -0.00125098 4.04613e-14)
(1.53818 -0.00124746 3.51246e-14)
(1.53944 -0.00124396 4.03119e-14)
(1.54068 -0.00124047 3.03203e-14)
(1.54193 -0.00123699 4.18439e-14)
(1.54317 -0.00123352 2.33127e-14)
(1.54441 -0.00123007 4.57716e-14)
(1.54565 -0.00122663 3.14429e-14)
(1.54688 -0.0012232 2.90145e-14)
(1.54811 -0.00121978 2.94563e-14)
(1.54933 -0.00121638 2.61792e-14)
(1.55055 -0.00121298 2.79955e-14)
(1.55177 -0.0012096 2.26589e-14)
(1.55298 -0.00120623 2.73629e-14)
(1.55419 -0.00120287 1.81489e-14)
(1.5554 -0.00119952 2.76104e-14)
(1.5566 -0.00119619 2.98552e-14)
(1.5578 -0.00119286 2.36413e-14)
(1.37829 -0.00282444 5.8432e-14)
(1.38008 -0.00281229 4.39816e-14)
(1.38187 -0.0028003 7.11859e-14)
(1.38365 -0.00278845 4.06613e-14)
(1.38542 -0.00277674 6.08717e-14)
(1.38718 -0.00276517 6.4982e-14)
(1.38894 -0.00275374 6.66515e-14)
(1.39069 -0.00274243 6.9975e-14)
(1.39243 -0.00273125 7.10495e-14)
(1.39416 -0.0027202 7.44047e-14)
(1.39589 -0.00270927 7.50568e-14)
(1.39761 -0.00269846 7.85086e-14)
(1.39932 -0.00268777 7.83243e-14)
(1.40103 -0.0026772 8.16762e-14)
(1.40273 -0.00266673 8.163e-14)
(1.40442 -0.00265638 8.38644e-14)
(1.40611 -0.00264613 8.48745e-14)
(1.40779 -0.00263598 8.47829e-14)
(1.40946 -0.00262594 8.92928e-14)
(1.41113 -0.002616 8.33539e-14)
(1.41279 -0.00260616 8.53832e-14)
(1.41444 -0.00259642 7.95939e-14)
(1.41609 -0.00258676 8.4624e-14)
(1.41773 -0.0025772 7.81289e-14)
(1.41936 -0.00256773 8.53925e-14)
(1.42099 -0.00255835 7.85663e-14)
(1.42262 -0.00254906 8.74839e-14)
(1.42423 -0.00253985 6.81457e-14)
(1.42584 -0.00253072 8.17891e-14)
(1.42745 -0.00252167 5.87254e-14)
(1.42905 -0.00251271 8.32724e-14)
(1.43064 -0.00250382 5.12624e-14)
(1.43223 -0.002495 9.25497e-14)
(1.43381 -0.00248626 4.08485e-14)
(1.43539 -0.0024776 8.66718e-14)
(1.43696 -0.00246901 4.3634e-14)
(1.43852 -0.00246048 7.59275e-14)
(1.44008 -0.00245203 8.09851e-14)
(1.44163 -0.00244364 5.38321e-14)
(1.44318 -0.00243532 6.97377e-14)
(1.44472 -0.00242706 7.27953e-14)
(1.44626 -0.00241887 7.58789e-14)
(1.44779 -0.00241074 7.41801e-14)
(1.44932 -0.00240267 7.3987e-14)
(1.45084 -0.00239466 7.39826e-14)
(1.45236 -0.00238671 7.53405e-14)
(1.45387 -0.00237881 7.60017e-14)
(1.45537 -0.00237098 7.82208e-14)
(1.45687 -0.0023632 7.92764e-14)
(1.45837 -0.00235547 8.17811e-14)
(1.45986 -0.00234779 8.32567e-14)
(1.46134 -0.00234017 8.50537e-14)
(1.46282 -0.0023326 8.82424e-14)
(1.4643 -0.00232508 8.70177e-14)
(1.46577 -0.00231761 9.318e-14)
(1.46724 -0.00231019 8.87599e-14)
(1.4687 -0.00230282 9.84033e-14)
(1.47015 -0.00229549 8.85997e-14)
(1.4716 -0.00228821 1.04841e-13)
(1.47305 -0.00228097 8.5145e-14)
(1.47449 -0.00227378 1.13731e-13)
(1.47593 -0.00226663 9.97233e-14)
(1.47736 -0.00225952 9.96445e-14)
(1.47879 -0.00225246 1.00044e-13)
(1.48021 -0.00224544 1.0036e-13)
(1.48163 -0.00223846 1.00583e-13)
(1.48304 -0.00223151 1.00556e-13)
(1.48445 -0.00222461 1.0042e-13)
(1.48585 -0.00221775 1.00308e-13)
(1.48725 -0.00221092 9.99696e-14)
(1.48865 -0.00220413 9.98143e-14)
(1.49004 -0.00219738 9.89683e-14)
(1.49142 -0.00219066 9.87686e-14)
(1.4928 -0.00218398 9.76552e-14)
(1.49418 -0.00217733 9.76721e-14)
(1.49555 -0.00217072 9.56682e-14)
(1.49692 -0.00216414 9.62637e-14)
(1.49829 -0.00215759 9.31012e-14)
(1.49965 -0.00215108 9.53718e-14)
(1.501 -0.0021446 8.93173e-14)
(1.50235 -0.00213815 9.56751e-14)
(1.5037 -0.00213173 8.30377e-14)
(1.50504 -0.00212534 9.78131e-14)
(1.50638 -0.00211899 9.56204e-14)
(1.50771 -0.00211266 7.63192e-14)
(1.50904 -0.00210636 9.77663e-14)
(1.51037 -0.00210009 8.60628e-14)
(1.51169 -0.00209385 7.93398e-14)
(1.51301 -0.00208764 8.39883e-14)
(1.51432 -0.00208145 7.40311e-14)
(1.51563 -0.00207529 8.34068e-14)
(1.51694 -0.00206916 6.67114e-14)
(1.51824 -0.00206305 8.51415e-14)
(1.51953 -0.00205698 5.60404e-14)
(1.52083 -0.00205092 9.07949e-14)
(1.52212 -0.00204489 6.06973e-14)
(1.5234 -0.00203889 5.84878e-14)
(1.52468 -0.00203291 7.45008e-14)
(1.52596 -0.00202696 6.97993e-14)
(1.52723 -0.00202103 5.33334e-14)
(1.5285 -0.00201512 6.99847e-14)
(1.52977 -0.00200924 6.29718e-14)
(1.53103 -0.00200338 5.01228e-14)
(1.53228 -0.00199754 6.19847e-14)
(1.53354 -0.00199173 4.15151e-14)
(1.53479 -0.00198594 6.39338e-14)
(1.53603 -0.00198017 4.88277e-14)
(1.53727 -0.00197442 4.70199e-14)
(1.53851 -0.00196869 4.42511e-14)
(1.53975 -0.00196299 4.33731e-14)
(1.54098 -0.0019573 4.01181e-14)
(1.5422 -0.00195164 3.94122e-14)
(1.54343 -0.001946 3.6333e-14)
(1.54465 -0.00194037 3.48586e-14)
(1.54586 -0.00193477 3.29541e-14)
(1.54707 -0.00192919 3.06733e-14)
(1.54828 -0.00192362 2.9083e-14)
(1.54949 -0.00191808 2.65587e-14)
(1.55069 -0.00191256 2.52511e-14)
(1.55188 -0.00190705 2.26242e-14)
(1.55308 -0.00190156 2.11242e-14)
(1.55427 -0.0018961 1.86113e-14)
(1.55545 -0.00189065 1.70165e-14)
(1.55663 -0.00188521 1.46948e-14)
(1.55781 -0.0018798 1.35143e-14)
(1.38016 -0.00395553 1.32449e-13)
(1.38195 -0.00393838 1.19898e-13)
(1.38374 -0.00392142 1.46324e-13)
(1.38551 -0.00390467 1.17027e-13)
(1.38728 -0.00388811 1.36579e-13)
(1.38904 -0.00387173 1.40736e-13)
(1.3908 -0.00385554 1.39926e-13)
(1.39254 -0.00383953 1.43996e-13)
(1.39428 -0.00382369 1.40808e-13)
(1.39601 -0.00380803 1.46582e-13)
(1.39774 -0.00379253 1.4044e-13)
(1.39946 -0.0037772 1.48996e-13)
(1.40116 -0.00376202 1.38294e-13)
(1.40287 -0.00374701 1.51264e-13)
(1.40456 -0.00373214 1.34838e-13)
(1.40625 -0.00371743 1.53672e-13)
(1.40793 -0.00370286 1.30524e-13)
(1.40961 -0.00368843 1.55028e-13)
(1.41128 -0.00367414 1.27766e-13)
(1.41294 -0.00365999 7.90515e-14)
(1.41459 -0.00364598 9.60772e-14)
(1.41624 -0.00363209 9.78789e-14)
(1.41788 -0.00361833 1.14063e-13)
(1.41951 -0.0036047 1.0901e-13)
(1.42114 -0.00359119 1.26311e-13)
(1.42276 -0.0035778 1.15649e-13)
(1.42438 -0.00356453 6.17738e-14)
(1.42599 -0.00355137 1.2626e-14)
(1.42759 -0.00353833 6.1672e-14)
(1.42919 -0.0035254 4.70929e-14)
(1.43078 -0.00351257 1.05615e-13)
(1.43236 -0.00349985 6.38167e-14)
(1.43394 -0.00348723 1.43775e-13)
(1.43551 -0.00347472 6.58989e-14)
(1.43708 -0.0034623 8.54943e-14)
(1.43864 -0.00344999 5.24649e-14)
(1.44019 -0.00343777 1.10591e-13)
(1.44174 -0.00342564 1.11252e-13)
(1.44329 -0.0034136 1.11247e-13)
(1.44482 -0.00340166 1.12703e-13)
(1.44635 -0.0033898 1.46335e-13)
(1.44788 -0.00337803 1.23063e-13)
(1.4494 -0.00336634 8.53854e-14)
(1.45091 -0.00335474 1.0006e-13)
(1.45242 -0.00334322 1.12156e-13)
(1.45392 -0.00333178 1.22123e-13)
(1.45542 -0.00332041 1.30701e-13)
(1.45691 -0.00330913 1.37271e-13)
(1.4584 -0.00329792 1.43243e-13)
(1.45988 -0.00328679 1.46923e-13)
(1.46136 -0.00327572 1.51581e-13)
(1.46283 -0.00326473 1.52664e-13)
(1.46429 -0.00325382 1.56671e-13)
(1.46575 -0.00324297 1.55059e-13)
(1.46721 -0.00323218 1.59823e-13)
(1.46865 -0.00322147 1.54432e-13)
(1.4701 -0.00321082 1.61912e-13)
(1.47154 -0.00320023 1.50701e-13)
(1.47297 -0.00318971 1.64365e-13)
(1.4744 -0.00317925 1.43113e-13)
(1.47582 -0.00316885 1.68801e-13)
(1.47724 -0.00315852 1.51879e-13)
(1.47865 -0.00314824 1.49727e-13)
(1.48006 -0.00313802 1.47597e-13)
(1.48146 -0.00312785 1.45759e-13)
(1.48286 -0.00311775 1.43255e-13)
(1.48426 -0.0031077 1.41153e-13)
(1.48564 -0.0030977 1.38381e-13)
(1.48703 -0.00308775 1.36325e-13)
(1.48841 -0.00307786 1.33142e-13)
(1.48978 -0.00306803 1.31271e-13)
(1.49115 -0.00305824 1.27426e-13)
(1.49251 -0.0030485 1.25931e-13)
(1.49387 -0.00303881 1.21525e-13)
(1.49523 -0.00302917 1.20613e-13)
(1.49658 -0.00301958 1.15356e-13)
(1.49792 -0.00301004 1.15318e-13)
(1.49926 -0.00300054 1.0903e-13)
(1.5006 -0.00299109 1.09681e-13)
(1.50193 -0.00298169 1.02275e-13)
(1.50326 -0.00297233 1.05661e-13)
(1.50458 -0.00296301 9.27794e-14)
(1.5059 -0.00295374 1.04183e-13)
(1.50721 -0.00294451 1.00288e-13)
(1.50852 -0.00293532 7.93413e-14)
(1.50982 -0.00292618 9.93384e-14)
(1.51112 -0.00291707 8.54899e-14)
(1.51242 -0.00290801 7.69574e-14)
(1.51371 -0.00289899 8.14041e-14)
(1.51499 -0.00289 6.85548e-14)
(1.51628 -0.00288106 7.80253e-14)
(1.51755 -0.00287215 5.93485e-14)
(1.51883 -0.00286328 7.63978e-14)
(1.5201 -0.00285445 4.65338e-14)
(1.52136 -0.00284566 7.9179e-14)
(1.52262 -0.0028369 4.7966e-14)
(1.52388 -0.00282818 4.45141e-14)
(1.52513 -0.0028195 6.0539e-14)
(1.52637 -0.00281085 5.16831e-14)
(1.52762 -0.00280224 3.70791e-14)
(1.52886 -0.00279366 5.023e-14)
(1.53009 -0.00278511 4.29052e-14)
(1.53132 -0.0027766 2.84184e-14)
(1.53255 -0.00276813 4.01585e-14)
(1.53377 -0.00275968 1.8232e-14)
(1.53499 -0.00275127 3.95468e-14)
(1.5362 -0.00274289 2.34157e-14)
(1.53741 -0.00273454 2.01751e-14)
(1.53862 -0.00272623 1.71476e-14)
(1.53982 -0.00271795 1.4474e-14)
(1.54102 -0.00270969 1.15544e-14)
(1.54221 -0.00270147 8.8009e-15)
(1.5434 -0.00269328 5.88574e-15)
(1.54458 -0.00268512 3.01033e-15)
(1.54577 -0.00267699 3.06167e-16)
(1.54694 -0.00266889 -2.63673e-15)
(1.54812 -0.00266082 -5.30063e-15)
(1.54929 -0.00265278 -8.19246e-15)
(1.55045 -0.00264476 -1.0946e-14)
(1.55161 -0.00263678 -1.37829e-14)
(1.55277 -0.00262882 -1.65422e-14)
(1.55393 -0.00262089 -1.9303e-14)
(1.55508 -0.00261299 -2.2129e-14)
(1.55622 -0.00260512 -2.48684e-14)
(1.55736 -0.00259728 -2.76219e-14)
(1.38265 -0.00505999 2.63127e-13)
(1.38444 -0.00503764 2.54867e-13)
(1.38622 -0.00501555 2.48829e-13)
(1.38799 -0.0049937 2.43097e-13)
(1.38975 -0.00497208 2.35237e-13)
(1.3915 -0.00495071 2.33008e-13)
(1.39325 -0.00492955 2.2339e-13)
(1.39499 -0.00490863 2.24428e-13)
(1.39672 -0.00488791 2.11315e-13)
(1.39844 -0.00486741 2.18064e-13)
(1.40015 -0.00484712 1.97943e-13)
(1.40186 -0.00482703 2.14802e-13)
(1.40356 -0.00480714 1.81106e-13)
(1.40525 -0.00478744 2.16882e-13)
(1.40693 -0.00476793 1.57858e-13)
(1.40861 -0.00474861 2.28383e-13)
(1.41028 -0.00472947 1.22602e-13)
(1.41194 -0.0047105 2.56484e-13)
(1.4136 -0.00469171 3.13241e-13)
(1.41524 -0.00467308 5.15804e-13)
(1.41688 -0.00465462 2.99075e-13)
(1.41852 -0.00463633 2.60967e-13)
(1.42014 -0.00461819 2.71297e-13)
(1.42176 -0.00460021 2.19447e-13)
(1.42337 -0.00458238 2.58697e-13)
(1.42498 -0.0045647 3.99827e-13)
(1.42658 -0.00454716 6.59442e-13)
(1.42817 -0.00452977 6.20837e-13)
(1.42976 -0.00451251 4.46622e-13)
(1.43133 -0.0044954 3.5109e-13)
(1.43291 -0.00447842 4.10282e-13)
(1.43447 -0.00446157 2.72229e-13)
(1.43603 -0.00444485 4.04209e-13)
(1.43758 -0.00442825 3.77099e-13)
(1.43913 -0.00441178 5.96695e-13)
(1.44067 -0.00439543 3.71538e-13)
(1.4422 -0.0043792 3.86568e-13)
(1.44373 -0.00436309 3.14615e-13)
(1.44525 -0.00434709 3.69585e-13)
(1.44676 -0.00433121 2.56637e-13)
(1.44827 -0.00431544 3.7272e-13)
(1.44977 -0.00429977 3.44075e-13)
(1.45126 -0.00428421 5.41467e-13)
(1.45275 -0.00426876 3.77585e-13)
(1.45424 -0.00425341 3.54787e-13)
(1.45571 -0.00423816 3.37686e-13)
(1.45719 -0.00422301 3.21956e-13)
(1.45865 -0.00420795 3.06911e-13)
(1.46011 -0.004193 2.93236e-13)
(1.46156 -0.00417813 2.79902e-13)
(1.46301 -0.00416336 2.67928e-13)
(1.46445 -0.00414868 2.55898e-13)
(1.46589 -0.00413409 2.45539e-13)
(1.46732 -0.00411959 2.34297e-13)
(1.46874 -0.00410517 2.25453e-13)
(1.47016 -0.00409084 2.14801e-13)
(1.47157 -0.0040766 2.07165e-13)
(1.47298 -0.00406243 1.97009e-13)
(1.47438 -0.00404835 1.90369e-13)
(1.47578 -0.00403435 1.80956e-13)
(1.47717 -0.00402042 1.74342e-13)
(1.47856 -0.00400657 1.66601e-13)
(1.47993 -0.0039928 1.59571e-13)
(1.48131 -0.00397911 1.52499e-13)
(1.48268 -0.00396549 1.46166e-13)
(1.48404 -0.00395194 1.39309e-13)
(1.4854 -0.00393846 1.3346e-13)
(1.48675 -0.00392506 1.26644e-13)
(1.4881 -0.00391172 1.21539e-13)
(1.48944 -0.00389845 1.14469e-13)
(1.49078 -0.00388525 1.10235e-13)
(1.49211 -0.00387212 1.02321e-13)
(1.49344 -0.00385906 9.97198e-14)
(1.49476 -0.00384606 9.03485e-14)
(1.49607 -0.00383312 9.02736e-14)
(1.49738 -0.00382025 7.77008e-14)
(1.49869 -0.00380744 8.23369e-14)
(1.49999 -0.00379469 6.39927e-14)
(1.50128 -0.003782 7.61857e-14)
(1.50257 -0.00376938 6.87612e-14)
(1.50386 -0.00375681 4.81422e-14)
(1.50514 -0.0037443 6.43333e-14)
(1.50642 -0.00373185 3.10798e-14)
(1.50769 -0.00371946 4.52368e-14)
(1.50895 -0.00370712 3.37562e-14)
(1.51021 -0.00369484 3.83112e-14)
(1.51147 -0.00368262 2.22445e-14)
(1.51272 -0.00367045 3.2754e-14)
(1.51397 -0.00365834 2.78523e-14)
(1.51521 -0.00364628 6.30379e-15)
(1.51644 -0.00363427 2.4266e-14)
(1.51768 -0.00362231 -9.15325e-15)
(1.5189 -0.00361041 6.00487e-15)
(1.52013 -0.00359856 -5.70481e-15)
(1.52134 -0.00358676 -1.42314e-16)
(1.52256 -0.00357501 -1.57653e-14)
(1.52376 -0.00356331 -5.42671e-15)
(1.52497 -0.00355166 -1.00131e-14)
(1.52617 -0.00354006 -2.98903e-14)
(1.52736 -0.0035285 -1.28201e-14)
(1.52855 -0.003517 -4.5209e-14)
(1.52974 -0.00350554 -2.87964e-14)
(1.53092 -0.00349413 -4.28571e-14)
(1.53209 -0.00348276 -3.25523e-14)
(1.53327 -0.00347144 -5.46775e-14)
(1.53443 -0.00346017 -3.50899e-14)
(1.5356 -0.00344894 -5.1029e-14)
(1.53676 -0.00343776 -5.51102e-14)
(1.53791 -0.00342663 -5.88139e-14)
(1.53906 -0.00341553 -6.24975e-14)
(1.54021 -0.00340448 -6.60997e-14)
(1.54135 -0.00339348 -6.96732e-14)
(1.54248 -0.00338251 -7.32203e-14)
(1.54362 -0.00337159 -7.67788e-14)
(1.54474 -0.00336072 -8.02305e-14)
(1.54587 -0.00334988 -8.37817e-14)
(1.54699 -0.00333909 -8.73139e-14)
(1.5481 -0.00332834 -9.0753e-14)
(1.54921 -0.00331763 -9.4291e-14)
(1.55032 -0.00330696 -9.78477e-14)
(1.55143 -0.00329633 -1.01304e-13)
(1.55252 -0.00328574 -1.04802e-13)
(1.55362 -0.00327519 -1.08373e-13)
(1.55471 -0.00326468 -1.11831e-13)
(1.5558 -0.00325421 -1.1527e-13)
(1.38566 -0.00616739 2.34906e-13)
(1.38743 -0.00613932 2.30819e-13)
(1.38919 -0.00611154 2.25017e-13)
(1.39094 -0.00608405 2.20876e-13)
(1.39269 -0.00605684 2.1337e-13)
(1.39442 -0.0060299 2.10118e-13)
(1.39614 -0.00600323 2.00401e-13)
(1.39786 -0.00597683 1.99324e-13)
(1.39957 -0.00595068 1.85846e-13)
(1.40127 -0.00592478 1.89565e-13)
(1.40296 -0.00589913 1.68798e-13)
(1.40464 -0.00587371 1.82564e-13)
(1.40632 -0.00584853 1.47195e-13)
(1.40798 -0.00582358 1.81766e-13)
(1.40964 -0.00579885 1.1638e-13)
(1.41129 -0.00577434 1.94144e-13)
(1.41293 -0.00575004 6.61166e-14)
(1.41456 -0.00572596 2.34573e-13)
(1.41619 -0.00570208 2.29737e-13)
(1.41781 -0.00567839 2.40965e-13)
(1.41942 -0.00565491 6.08144e-14)
(1.42102 -0.00563162 6.60771e-14)
(1.42262 -0.00560851 9.00954e-14)
(1.4242 -0.0055856 7.18329e-14)
(1.42578 -0.00556286 1.18884e-13)
(1.42735 -0.0055403 2.17273e-13)
(1.42892 -0.00551791 2.702e-13)
(1.43047 -0.0054957 1.57945e-13)
(1.43202 -0.00547365 1.03673e-13)
(1.43357 -0.00545177 4.29396e-14)
(1.4351 -0.00543005 1.66702e-13)
(1.43663 -0.00540848 2.55237e-14)
(1.43815 -0.00538707 2.44403e-13)
(1.43966 -0.00536582 1.58642e-13)
(1.44117 -0.00534471 2.60341e-13)
(1.44267 -0.00532375 9.03718e-14)
(1.44416 -0.00530294 1.79625e-13)
(1.44564 -0.00528227 1.51147e-13)
(1.44712 -0.00526173 2.4116e-13)
(1.44859 -0.00524134 9.79264e-14)
(1.45006 -0.00522108 2.78598e-13)
(1.45151 -0.00520095 1.80079e-13)
(1.45296 -0.00518095 2.46271e-13)
(1.45441 -0.00516108 1.26396e-13)
(1.45585 -0.00514133 1.5704e-13)
(1.45728 -0.00512172 1.93742e-13)
(1.4587 -0.00510222 1.79995e-13)
(1.46012 -0.00508284 1.66941e-13)
(1.46153 -0.00506358 1.54832e-13)
(1.46293 -0.00504444 1.43155e-13)
(1.46433 -0.00502541 1.32522e-13)
(1.46572 -0.0050065 1.22e-13)
(1.46711 -0.0049877 1.12454e-13)
(1.46848 -0.004969 1.02896e-13)
(1.46986 -0.00495042 9.42465e-14)
(1.47122 -0.00493194 8.5407e-14)
(1.47258 -0.00491357 7.75215e-14)
(1.47394 -0.0048953 6.92869e-14)
(1.47528 -0.00487714 6.19657e-14)
(1.47662 -0.00485907 5.43761e-14)
(1.47796 -0.00484111 4.74642e-14)
(1.47929 -0.00482324 4.03511e-14)
(1.48061 -0.00480547 3.36506e-14)
(1.48193 -0.0047878 2.70096e-14)
(1.48324 -0.00477022 2.07233e-14)
(1.48454 -0.00475273 1.38332e-14)
(1.48584 -0.00473534 7.7055e-15)
(1.48714 -0.00471803 6.00993e-16)
(1.48842 -0.00470082 -5.03229e-15)
(1.4897 -0.0046837 -1.24015e-14)
(1.49098 -0.00466666 -1.72328e-14)
(1.49225 -0.00464972 -2.5286e-14)
(1.49351 -0.00463285 -2.87333e-14)
(1.49477 -0.00461608 -3.80697e-14)
(1.49603 -0.00459938 -3.90759e-14)
(1.49727 -0.00458277 -5.11428e-14)
(1.49852 -0.00456624 -4.77783e-14)
(1.49975 -0.0045498 -6.53509e-14)
(1.50098 -0.00453343 -5.4634e-14)
(1.50221 -0.00451714 -6.2203e-14)
(1.50343 -0.00450094 -8.25257e-14)
(1.50464 -0.00448481 -6.74299e-14)
(1.50585 -0.00446875 -9.92377e-14)
(1.50705 -0.00445278 -8.65137e-14)
(1.50825 -0.00443688 -9.70519e-14)
(1.50944 -0.00442105 -9.33512e-14)
(1.51063 -0.0044053 -1.09432e-13)
(1.51181 -0.00438962 -9.88837e-14)
(1.51299 -0.00437402 -1.05522e-13)
(1.51416 -0.00435849 -1.24824e-13)
(1.51533 -0.00434302 -1.09782e-13)
(1.51649 -0.00432763 -1.40069e-13)
(1.51765 -0.00431231 -1.27633e-13)
(1.5188 -0.00429706 -1.37297e-13)
(1.51994 -0.00428188 -1.33729e-13)
(1.52109 -0.00426677 -1.48659e-13)
(1.52222 -0.00425172 -1.38935e-13)
(1.52335 -0.00423675 -1.44327e-13)
(1.52448 -0.00422183 -1.63704e-13)
(1.5256 -0.00420699 -1.47754e-13)
(1.52672 -0.00419221 -1.78518e-13)
(1.52783 -0.0041775 -1.63859e-13)
(1.52893 -0.00416285 -1.76468e-13)
(1.53004 -0.00414826 -1.68421e-13)
(1.53113 -0.00413374 -1.88672e-13)
(1.53222 -0.00411928 -1.71268e-13)
(1.53331 -0.00410488 -1.86996e-13)
(1.5344 -0.00409055 -1.912e-13)
(1.53547 -0.00407628 -1.95193e-13)
(1.53655 -0.00406207 -1.99067e-13)
(1.53761 -0.00404792 -2.02785e-13)
(1.53868 -0.00403383 -2.06718e-13)
(1.53974 -0.0040198 -2.1031e-13)
(1.54079 -0.00400583 -2.14162e-13)
(1.54184 -0.00399191 -2.18297e-13)
(1.54289 -0.00397806 -2.22491e-13)
(1.54393 -0.00396427 -2.2671e-13)
(1.54497 -0.00395053 -2.31043e-13)
(1.546 -0.00393685 -2.35322e-13)
(1.54703 -0.00392323 -2.39605e-13)
(1.54805 -0.00390967 -2.43838e-13)
(1.54907 -0.00389616 -2.47987e-13)
(1.55008 -0.00388271 -2.52054e-13)
(1.55109 -0.00386931 -2.56082e-13)
(1.5521 -0.00385597 -2.60054e-13)
(1.3889 -0.00724449 1.36571e-13)
(1.39062 -0.00720987 1.25042e-13)
(1.39234 -0.0071756 1.13974e-13)
(1.39405 -0.00714165 1.03053e-13)
(1.39575 -0.00710802 9.27584e-14)
(1.39744 -0.00707472 8.20961e-14)
(1.39912 -0.00704172 7.26961e-14)
(1.40079 -0.00700902 6.18048e-14)
(1.40245 -0.00697662 5.37917e-14)
(1.40411 -0.0069445 4.18699e-14)
(1.40575 -0.00691267 3.63209e-14)
(1.40738 -0.00688111 2.1136e-14)
(1.40901 -0.00684983 2.12237e-14)
(1.41062 -0.00681881 -1.62849e-15)
(1.41223 -0.00678805 1.06733e-14)
(1.41382 -0.00675755 -3.01257e-14)
(1.41541 -0.00672729 9.50671e-15)
(1.41699 -0.00669728 -7.19869e-14)
(1.41856 -0.00666751 2.9528e-14)
(1.42012 -0.00663797 1.23347e-14)
(1.42167 -0.00660867 2.13052e-13)
(1.42321 -0.00657959 1.70257e-13)
(1.42475 -0.00655074 6.1551e-14)
(1.42627 -0.0065221 1.45486e-13)
(1.42779 -0.00649368 -9.17771e-15)
(1.4293 -0.00646546 2.34383e-13)
(1.4308 -0.00643746 2.47547e-13)
(1.43229 -0.00640966 2.48118e-13)
(1.43378 -0.00638206 2.27612e-13)
(1.43525 -0.00635465 1.64742e-13)
(1.43672 -0.00632744 1.66626e-13)
(1.43818 -0.00630042 1.00689e-13)
(1.43963 -0.00627358 1.22573e-13)
(1.44108 -0.00624693 5.3068e-14)
(1.44251 -0.00622046 1.76126e-13)
(1.44394 -0.00619417 4.26438e-14)
(1.44536 -0.00616805 2.46273e-13)
(1.44677 -0.00614211 -5.63203e-14)
(1.44818 -0.00611634 -6.40458e-14)
(1.44957 -0.00609073 -9.5462e-14)
(1.45096 -0.00606529 -6.34553e-14)
(1.45234 -0.00604001 -1.02233e-13)
(1.45372 -0.0060149 1.59143e-14)
(1.45508 -0.00598994 -8.56942e-14)
(1.45644 -0.00596514 1.61019e-13)
(1.4578 -0.00594049 -1.18513e-13)
(1.45914 -0.00591599 -1.95521e-13)
(1.46048 -0.00589165 -1.91254e-13)
(1.46181 -0.00586745 -1.87706e-13)
(1.46313 -0.0058434 -1.85357e-13)
(1.46444 -0.00581949 -1.83238e-13)
(1.46575 -0.00579573 -1.82408e-13)
(1.46705 -0.0057721 -1.81457e-13)
(1.46835 -0.00574862 -1.82117e-13)
(1.46964 -0.00572527 -1.81845e-13)
(1.47092 -0.00570205 -1.83866e-13)
(1.47219 -0.00567898 -1.84101e-13)
(1.47346 -0.00565603 -1.87401e-13)
(1.47472 -0.00563321 -1.87794e-13)
(1.47597 -0.00561053 -1.92214e-13)
(1.47722 -0.00558797 -1.92885e-13)
(1.47846 -0.00556554 -1.9774e-13)
(1.47969 -0.00554323 -1.99901e-13)
(1.48092 -0.00552105 -2.02464e-13)
(1.48214 -0.00549899 -2.1071e-13)
(1.48335 -0.00547705 -2.18139e-13)
(1.48456 -0.00545523 -2.24455e-13)
(1.48576 -0.00543353 -2.30476e-13)
(1.48695 -0.00541195 -2.35519e-13)
(1.48814 -0.00539049 -2.40685e-13)
(1.48932 -0.00536914 -2.44879e-13)
(1.4905 -0.0053479 -2.49519e-13)
(1.49167 -0.00532678 -2.53173e-13)
(1.49283 -0.00530577 -2.57548e-13)
(1.49399 -0.00528487 -2.60906e-13)
(1.49514 -0.00526407 -2.6505e-13)
(1.49628 -0.00524339 -2.68451e-13)
(1.49742 -0.00522282 -2.72005e-13)
(1.49855 -0.00520235 -2.76394e-13)
(1.49968 -0.00518199 -2.78619e-13)
(1.5008 -0.00516173 -2.84003e-13)
(1.50192 -0.00514158 -2.85994e-13)
(1.50303 -0.00512153 -2.90896e-13)
(1.50413 -0.00510159 -2.9385e-13)
(1.50523 -0.00508174 -2.97932e-13)
(1.50632 -0.005062 -3.01408e-13)
(1.50741 -0.00504235 -3.05069e-13)
(1.50849 -0.00502281 -3.09481e-13)
(1.50956 -0.00500336 -3.11992e-13)
(1.51063 -0.00498401 -3.17395e-13)
(1.5117 -0.00496475 -3.19692e-13)
(1.51276 -0.0049456 -3.24602e-13)
(1.51381 -0.00492653 -3.27923e-13)
(1.51486 -0.00490756 -3.31984e-13)
(1.5159 -0.00488869 -3.35797e-13)
(1.51694 -0.00486991 -3.39303e-13)
(1.51797 -0.00485122 -3.44122e-13)
(1.519 -0.00483262 -3.4628e-13)
(1.52002 -0.00481411 -3.52233e-13)
(1.52104 -0.00479569 -3.53962e-13)
(1.52205 -0.00477737 -3.59697e-13)
(1.52305 -0.00475913 -3.61925e-13)
(1.52405 -0.00474098 -3.67395e-13)
(1.52505 -0.00472291 -3.69409e-13)
(1.52604 -0.00470494 -3.74997e-13)
(1.52703 -0.00468705 -3.77109e-13)