/*--------------------------------*- C++ -*----------------------------------*\
| =========                 |                                                 |
| \\      /  F ield         | OpenFOAM: The Open Source CFD Toolbox           |
|  \\    /   O peration     | Version:                                        |
|   \\  /    A nd           | Website:  www.openfoam.com                      |
|    \\/     M anipulation  |                                                 |
\*---------------------------------------------------------------------------*/
FoamFile
{
    version     2.0;
    format      ascii;
    class       volVectorField;
    location    "98";
    object      U;
}
// * * * * * * * * * * * * * * * * * * * * * * * * * * * * * * * * * * * * * //

dimensions      [0 1 -1 0 0 0 0];


internalField   nonuniform List<vector> 
1153
(
(-0.080372 0.042022 1.95824e-19)
(-0.225301 0.101192 -2.86646e-19)
(-0.293434 0.20431 3.20788e-20)
(-0.451128 0.24148 -4.37118e-20)
(0.100209 0.141174 -3.63439e-19)
(0.821145 0.0134187 2.17255e-19)
(1.27878 -0.0880936 -7.78093e-21)
(1.49661 -0.159872 4.47694e-20)
(1.567 -0.2013 -3.02772e-19)
(1.56206 -0.224278 2.45269e-19)
(-0.113989 0.065633 -7.56242e-20)
(-0.229162 0.149716 -4.00469e-19)
(-0.312447 0.205988 2.92143e-19)
(-0.213492 0.160979 -1.20307e-19)
(0.667101 0.074733 1.0015e-19)
(1.23569 -0.017547 1.00552e-19)
(1.50256 -0.0848948 -1.23659e-19)
(1.5806 -0.126215 -3.30653e-19)
(1.57083 -0.154765 -2.60889e-19)
(1.5452 -0.175742 4.32764e-19)
(1.51577 -0.19131 -2.39386e-19)
(1.48412 -0.202345 -7.04434e-21)
(-0.12352 0.0630855 -2.64128e-19)
(-0.239508 0.150209 1.45718e-19)
(-0.431827 0.111896 -5.60478e-20)
(0.451059 0.0859141 3.82461e-20)
(1.13524 0.0346096 2.25736e-19)
(1.46584 -0.0120032 -3.33984e-19)
(1.57114 -0.0507936 1.08141e-19)
(1.57895 -0.0843716 9.78487e-20)
(1.56221 -0.109529 2.05577e-19)
(1.53008 -0.124377 -5.12324e-19)
(1.49414 -0.138659 2.16758e-19)
(1.46095 -0.149053 -1.06943e-19)
(1.43015 -0.164718 1.23539e-19)
(1.39858 -0.169424 -2.03606e-19)
(-0.140865 0.0996166 3.65526e-19)
(-0.347684 0.0967974 1.96058e-20)
(0.0605865 0.0437965 3.58587e-20)
(0.941874 0.072996 3.31334e-21)
(1.37628 0.046007 -1.60333e-20)
(1.5426 0.0127277 8.0085e-20)
(1.58654 -0.0194255 -3.54963e-19)
(1.57909 -0.0431619 1.88544e-19)
(1.54454 -0.0609755 -1.54857e-21)
(1.50988 -0.0801407 1.01169e-19)
(1.47964 -0.0933489 -7.10917e-20)
(1.44688 -0.10651 -1.87237e-20)
(1.41708 -0.112231 -5.45819e-20)
(1.38624 -0.125847 -2.05063e-20)
(1.35421 -0.130477 4.72636e-20)
(1.32471 -0.141345 -5.75007e-20)
(1.2925 -0.149541 -3.70416e-20)
(-0.222429 0.088318 -1.30482e-19)
(-0.409975 -0.00215699 -1.56185e-20)
(0.699729 0.0913267 -8.66906e-20)
(1.26623 0.0871104 -5.53396e-20)
(1.50929 0.0657302 -2.37797e-19)
(1.58266 0.0422847 3.66965e-20)
(1.57866 0.0218242 4.26374e-19)
(1.54798 0.00188234 -1.86393e-19)
(1.52048 -0.0182679 -1.17091e-19)
(1.49234 -0.032318 1.25321e-19)
(1.45903 -0.0460923 -7.52778e-20)
(1.43042 -0.0587917 2.82612e-19)
(1.40142 -0.0719682 -3.94947e-20)
(1.37353 -0.0812865 -9.08834e-20)
(1.3469 -0.0884676 4.41559e-20)
(1.31941 -0.0947433 -8.07274e-20)
(1.29565 -0.0954432 1.46342e-20)
(1.26832 -0.0997049 6.42077e-20)
(1.24524 -0.103564 3.1089e-21)
(1.22482 -0.107436 -3.9845e-20)
(-0.325652 0.0280171 -5.24562e-20)
(0.0957494 0.00373601 3.37999e-19)
(1.01993 0.120496 -1.19218e-19)
(1.42053 0.114369 -1.14633e-19)
(1.5545 0.0960525 2.78022e-20)
(1.57324 0.077802 -2.35502e-19)
(1.5578 0.0572964 1.60519e-19)
(1.53483 0.0393301 -8.977e-20)
(1.50417 0.0241277 4.97389e-20)
(1.47117 0.00716402 2.66955e-20)
(1.44405 -0.00838583 1.41786e-20)
(1.41601 -0.0187618 1.50383e-19)
(1.38917 -0.0300326 -2.38924e-20)
(1.36083 -0.0371143 -8.61488e-20)
(1.33639 -0.0504249 6.30375e-20)
(1.3128 -0.0561174 2.12684e-20)
(1.2841 -0.0674978 -1.89072e-20)
(1.26494 -0.073627 2.25732e-22)
(1.24124 -0.0762414 -5.14935e-20)
(1.21186 -0.0790069 1.02896e-19)
(-0.343796 -0.0734444 -6.87836e-20)
(0.669595 0.101403 -1.2535e-19)
(1.29204 0.14994 8.41216e-20)
(1.5244 0.151806 -1.87378e-19)
(1.57497 0.134323 8.69403e-20)
(1.56391 0.115648 1.13264e-19)
(1.5364 0.0985289 -5.87148e-20)
(1.50511 0.0819951 9.31708e-20)
(1.47814 0.0645986 -3.57537e-20)
(1.45281 0.0495117 -8.46135e-20)
(1.42296 0.0363825 -2.96974e-20)
(1.39608 0.0211344 7.94526e-20)
(1.37129 0.0105828 -1.95897e-20)
(1.34776 -0.00469731 -4.05875e-20)
(1.3229 -0.00780809 -1.41562e-21)
(1.29769 -0.0183281 5.03009e-21)
(1.2757 -0.0212808 -2.70653e-20)
(1.25628 -0.0278791 5.48043e-20)
(1.23761 -0.0398007 8.31702e-21)
(1.22094 -0.0408896 -3.34383e-21)
(-0.324468 -0.082814 -1.52869e-19)
(0.931458 0.174804 1.27641e-19)
(1.4082 0.213831 -7.53949e-21)
(1.54863 0.198078 1.42407e-19)
(1.56285 0.175431 -1.73023e-19)
(1.54042 0.156379 2.65588e-20)
(1.51416 0.136602 -1.98455e-20)
(1.48713 0.119296 -4.28157e-20)
(1.45955 0.103951 -1.39446e-20)
(1.43087 0.0882407 8.14589e-20)
(1.40527 0.0717333 -2.18805e-20)
(1.38092 0.0595955 7.42573e-21)
(1.35514 0.0466489 1.82775e-20)
(1.32869 0.0391404 -7.23659e-21)
(1.30786 0.023237 1.02044e-21)
(1.28794 0.0172403 -4.64921e-20)
(1.26398 0.00717049 -1.12162e-20)
(1.2457 0.000533269 -6.78079e-21)
(1.23057 -0.00323082 1.37997e-21)
(1.20744 -0.00638291 7.56447e-21)
(-0.0550464 0.0952444 4.84893e-20)
(1.12901 0.248965 -5.45411e-20)
(1.50339 0.279534 -3.73721e-21)
(1.5616 0.245706 5.83937e-20)
(1.54253 0.216859 -2.91602e-21)
(1.51342 0.195574 1.81227e-20)
(1.48435 0.176612 -4.35584e-21)
(1.45644 0.158416 1.98233e-20)
(1.43075 0.140658 5.15539e-20)
(1.40627 0.124575 5.57502e-21)
(1.38102 0.1113 -3.13958e-20)
(1.35685 0.0964432 1.25633e-20)
(1.33627 0.083105 -2.26717e-20)
(1.3155 0.0690283 2.12474e-20)
(1.29539 0.0616241 -1.28623e-20)
(1.27355 0.0492019 2.06812e-20)
(1.25256 0.0412166 8.75896e-21)
(1.23594 0.0329018 -6.29492e-21)
(1.21449 0.0261306 2.53258e-21)
(1.1959 0.0246472 -5.48207e-21)
(0.430099 0.169224 3.9564e-20)
(1.31299 0.260445 -2.56432e-21)
(1.51463 0.308091 7.82141e-21)
(1.54068 0.281692 3.1517e-20)
(1.52246 0.256049 -3.14818e-20)
(1.49208 0.234234 -1.28775e-20)
(1.46393 0.2136 6.07679e-21)
(1.43488 0.196779 4.9356e-21)
(1.40711 0.179611 -3.29019e-21)
(1.38108 0.161646 2.81122e-21)
(1.35664 0.143506 -1.24846e-20)
(1.3345 0.129453 7.42088e-21)
(1.31079 0.115606 -6.93556e-22)
(1.28835 0.103174 -4.04483e-21)
(1.26868 0.090326 4.64094e-21)
(1.25284 0.0803291 -2.25228e-21)
(1.2364 0.0697448 -1.89014e-21)
(1.22405 0.0606329 3.32825e-21)
(1.21616 0.0549607 1.86265e-21)
(1.19388 0.0523964 3.94581e-22)
(0.0557727 0.757548 5.65622e-21)
(-0.011905 0.997237 -2.95935e-20)
(-0.00699887 1.05853 -2.1331e-20)
(0.102145 0.744436 5.07352e-20)
(0.0398616 1.05698 5.38647e-20)
(0.06013 1.10623 -3.55678e-20)
(0.0726317 1.10067 1.54913e-20)
(0.151179 0.362972 4.3737e-21)
(0.135643 0.940049 1.24518e-19)
(0.159493 1.09768 -1.60374e-19)
(0.157029 1.10952 9.79955e-20)
(0.0137099 -0.0303614 1.59262e-20)
(0.142076 0.754883 -4.8522e-20)
(0.194902 1.04032 1.10274e-19)
(0.225283 1.09924 -4.27628e-20)
(0.00419071 -0.135879 -1.80898e-19)
(0.0601602 0.468687 3.07437e-19)
(0.139865 0.874687 -3.88831e-19)
(0.182492 1.01844 8.89957e-20)
(0.0741157 -0.183065 4.23666e-20)
(-0.0109522 0.153141 1.22095e-19)
(0.0200643 0.619837 -7.7206e-20)
(0.0688954 0.821336 3.29912e-19)
(0.103983 0.865292 -4.27458e-19)
(0.0864976 -0.179313 -3.06151e-19)
(-0.0455171 -0.000408704 8.7807e-20)
(-0.10027 0.385709 -2.84723e-19)
(-0.102547 0.592705 -8.18244e-20)
(-0.0555501 0.640728 -1.21662e-19)
(0.0437149 0.576052 6.79229e-20)
(0.0657324 -0.14542 -7.90389e-20)
(-0.0902443 -0.0320465 -5.25566e-20)
(-0.213939 0.23353 -6.36868e-21)
(-0.287975 0.392393 2.01443e-19)
(-0.270693 0.450283 2.57555e-19)
(-0.307157 0.431875 5.229e-20)
(-0.0827471 0.314377 -5.04811e-20)
(0.0157808 -0.0910772 -2.70965e-19)
(-0.16151 -0.00930501 1.29181e-19)
(-0.330636 0.16715 -5.92534e-20)
(-0.423817 0.292154 5.95662e-19)
(-0.467805 0.336484 -2.63598e-19)
(-0.227719 0.242037 3.0433e-19)
(0.339091 0.0657763 -3.89033e-20)
(0.906091 -0.104337 -1.40199e-19)
(-0.0396374 -0.0209343 4.90314e-19)
(-0.212331 0.048066 -1.68396e-19)
(-0.37602 0.163382 1.6927e-20)
(-0.406924 0.249734 1.60589e-19)
(-0.376015 0.23205 -2.72813e-19)
(0.2697 0.0865806 6.5988e-20)
(0.889807 -0.0588451 2.1144e-20)
(1.29299 -0.158524 -9.28372e-20)
(1.48468 -0.226947 5.23143e-19)
(1.17525 0.0380335 1.49799e-22)
(1.18306 0.0133169 1.05795e-20)
(1.1908 -0.0119088 -1.26584e-20)
(1.19414 -0.0465421 -2.27239e-20)
(1.19755 -0.0707903 -2.93856e-20)
(1.16902 0.0350842 -1.33711e-21)
(1.15668 0.00614318 -8.00052e-21)
(1.17562 -0.010562 2.59538e-22)
(1.15869 -0.0477569 1.29794e-20)
(1.17573 -0.0592036 -2.95282e-20)
(1.1653 0.0259447 1.382e-21)
(1.13469 -0.00958405 7.44144e-21)
(1.16307 -0.0127525 4.70187e-21)
(1.13791 -0.0555188 2.61313e-22)
(1.15646 -0.0520497 1.36795e-20)
(1.15223 0.0234389 -4.84887e-22)
(1.11837 -0.0147091 -3.42284e-21)
(1.14416 -0.00818107 -1.05368e-21)
(1.12195 -0.0548105 -1.64702e-21)
(1.13748 -0.0383729 2.9982e-21)
(1.13452 0.018639 -3.06547e-22)
(1.10783 -0.0192144 1.35421e-22)
(1.1253 -0.0069127 7.26978e-22)
(1.10766 -0.0538841 2.10779e-21)
(1.11901 -0.0320041 2.92399e-21)
(1.10758 -0.0856728 -7.69299e-21)
(1.11764 0.01396 9.1848e-23)
(1.09658 -0.0215409 1.4998e-22)
(1.10829 -0.00613276 -1.84974e-21)
(1.09345 -0.0501225 -1.81832e-21)
(1.10065 -0.0290943 -2.69177e-21)
(1.0934 -0.07376 -3.34907e-22)
(1.10329 0.011053 1.5944e-22)
(1.0841 -0.020661 2.03447e-22)
(1.09359 -0.00589916 -1.12088e-21)
(1.07996 -0.0434529 1.14009e-22)
(1.08524 -0.0272259 1.19359e-21)
(1.07849 -0.0618484 3.05436e-21)
(1.09133 0.00776318 -4.93202e-23)
(1.07295 -0.0187571 -4.02044e-23)
(1.08133 -0.00713013 2.16936e-22)
(1.06773 -0.0365588 -2.22365e-22)
(1.07418 -0.0251611 -5.79277e-22)
(1.06418 -0.0519813 -4.0224e-22)
(1.08108 0.0057766 3.39781e-23)
(1.06299 -0.015206 2.85906e-22)
(1.07172 -0.00735997 -1.44268e-23)
(1.05638 -0.0299428 6.96036e-22)
(1.06545 -0.021996 4.49078e-22)
(1.05209 -0.0436677 -1.26655e-21)
(1.07243 0.00491349 -1.40427e-22)
(1.05444 -0.0119138 -4.11798e-22)
(1.06393 -0.00662969 8.78695e-22)
(1.04724 -0.0240803 2.9778e-22)
(1.05708 -0.0189275 -8.75556e-22)
(1.04356 -0.0355767 -1.27943e-21)
(1.06379 0.00474792 5.71e-23)
(1.04828 -0.00873902 -2.28783e-23)
(1.05586 -0.00521405 -9.83981e-22)
(1.04182 -0.0185051 -1.01684e-21)
(1.0486 -0.0156835 9.52718e-22)
(1.03905 -0.0274819 1.56414e-21)
(1.05526 0.00479548 -4.99119e-23)
(1.04367 -0.00601238 -9.91255e-23)
(1.04783 -0.00373351 3.93424e-22)
(1.03863 -0.013434 2.22306e-21)
(1.04109 -0.0126135 -1.30679e-22)
(1.03648 -0.0200683 1.69064e-21)
(1.04706 0.00445411 2.6111e-22)
(1.04031 -0.00347109 1.6121e-22)
(1.04033 -0.0029543 5.65916e-22)
(1.03625 -0.0090584 -7.17986e-22)
(1.03482 -0.010329 -1.6861e-22)
(1.03408 -0.0140721 -4.6802e-21)
(1.03992 0.00444714 -3.29157e-22)
(1.03755 -0.00184666 -4.09873e-22)
(1.03399 -0.0017789 -1.2211e-21)
(1.03387 -0.00611703 -1.22649e-21)
(1.02966 -0.00769701 -7.4017e-22)
(1.0318 -0.00989037 2.6018e-21)
(1.03417 0.00437889 2.01607e-22)
(1.03487 -0.000300594 -3.60679e-22)
(1.02901 -0.000837568 1.41215e-22)
(1.03139 -0.00370538 1.42275e-21)
(1.02573 -0.00556891 1.69326e-22)
(1.0294 -0.00660665 2.71676e-23)
(1.02999 0.0047281 -1.54771e-22)
(1.03201 0.000649476 5.87644e-22)
(1.02551 0.000351437 9.54166e-23)
(1.02868 -0.00212611 -2.35777e-21)
(1.02286 -0.00353628 6.45825e-22)
(1.02685 -0.00440903 1.79795e-21)
(1.02688 0.00501963 7.17184e-23)
(1.02924 0.00170097 1.03803e-22)
(1.0231 0.00133676 1.4196e-21)
(1.0262 -0.000661141 -2.58968e-22)
(1.02078 -0.00197906 9.2841e-22)
(1.02444 -0.00260799 -2.25636e-21)
(1.02424 0.00505649 4.00057e-23)
(1.02661 0.00253628 -5.88625e-22)
(1.02147 0.00206545 -5.41637e-22)
(1.02426 0.000625851 4.94764e-23)
(1.01973 -0.000561378 2.3414e-23)
(1.02291 -0.000935394 1.33302e-21)
(1.02199 0.00422579 5.93204e-24)
(1.0241 0.00239467 8.47915e-22)
(1.02018 0.00184116 -1.21553e-22)
(1.0226 0.000901351 2.75474e-21)
(1.01932 2.76411e-06 -8.95164e-22)
(1.02208 -0.00015331 -3.51382e-22)
(1.02086 0.00350296 1.19647e-23)
(1.02224 0.00189069 1.4613e-23)
(1.01916 0.00134416 -8.92591e-23)
(1.02081 0.00043726 -2.01193e-21)
(1.01825 -0.000149589 -1.18265e-21)
(1.02025 -0.000389832 9.34549e-22)
(1.02076 0.00372207 1.76482e-23)
(1.02146 0.00229028 -5.04776e-22)
(1.01886 0.00166554 -4.06945e-22)
(1.01982 0.000756299 3.40229e-22)
(1.01765 0.000210582 1.01849e-21)
(1.01913 -0.000114059 -1.06881e-21)
(1.02066 0.00420423 9.09846e-23)
(1.0211 0.00314531 -3.1745e-22)
(1.01908 0.00255275 4.72162e-23)
(1.0197 0.00182798 3.49735e-22)
(1.01799 0.00127446 5.71421e-22)
(1.01894 0.000908377 -1.19162e-21)
(1.01962 0.00433379 -1.21499e-22)
(1.01996 0.00366606 1.44133e-22)
(1.01854 0.00317707 8.89218e-23)
(1.01897 0.00268696 7.2501e-22)
(1.01776 0.00219775 -5.10949e-22)
(1.01839 0.00188198 -5.73665e-22)
(1.01797 0.00402795 1.75382e-22)
(1.01827 0.0036641 -3.32728e-22)
(1.01732 0.00328836 9.1775e-22)
(1.01768 0.00302872 -1.05505e-21)
(1.01695 0.00265545 6.33043e-22)
(1.01752 0.00248516 -7.21891e-22)
(1.01641 0.00346992 4.77846e-23)
(1.0167 0.00328195 2.31263e-23)
(1.01607 0.00301551 -8.24683e-22)
(1.01641 0.00289333 -3.86546e-22)
(1.01595 0.00262756 5.55247e-22)
(1.01645 0.00254147 1.53882e-21)
(1.01519 0.00283202 -1.0787e-22)
(1.01548 0.00272418 1.43236e-22)
(1.01504 0.00254725 8.37817e-22)
(1.01535 0.00247732 5.10636e-22)
(1.01501 0.0023038 -6.62171e-22)
(1.01547 0.00224659 -1.10923e-22)
(1.01423 0.00225805 2.69641e-24)
(1.01455 0.00219686 -1.27059e-22)
(1.01423 0.00208958 8.8502e-23)
(1.01456 0.00205429 -3.454e-23)
(1.0143 0.00195575 4.86725e-22)
(1.01473 0.00192626 -2.68583e-22)
(1.01355 0.00139339 1.06418e-23)
(1.0139 0.00136741 -1.60927e-23)
(1.01367 0.00131027 2.24053e-22)
(1.01402 0.00129646 -7.55643e-22)
(1.01379 0.00124503 2.66995e-22)
(1.01419 0.00123188 -9.81862e-22)
(1.01312 0.000834313 -9.19421e-23)
(1.01346 0.000822815 2.23492e-22)
(1.01327 0.000795605 6.03807e-23)
(1.01362 0.000785467 1.46303e-23)
(1.01341 0.000760315 -9.82996e-23)
(1.01381 0.000748642 2.05663e-22)
(1.01288 0.000435215 2.11544e-22)
(1.01321 0.000430829 -1.65915e-22)
(1.01304 0.00042212 -3.21781e-22)
(1.0134 0.00041813 1.09991e-22)
(1.0132 0.000410416 6.65544e-22)
(1.01358 0.000405413 1.91828e-22)
(1.03072 0.184822 2.77936e-20)
(1.02421 0.193174 -3.71954e-20)
(1.01467 0.199197 -2.88479e-20)
(1.00813 0.212353 -2.30458e-20)
(1.00818 0.232893 7.62674e-23)
(1.0149 0.254045 -1.16665e-20)
(1.01409 0.275085 1.65485e-20)
(1.00732 0.296216 4.38539e-20)
(1.00352 0.321446 -3.62528e-20)
(1.00742 0.351781 2.18086e-20)
(1.00916 0.383911 -5.55096e-20)
(1.00757 0.41806 1.12122e-20)
(1.00625 0.457362 -1.97901e-20)
(1.0076 0.500408 -6.92901e-21)
(1.00691 0.551644 6.85674e-21)
(1.00895 0.609778 2.72799e-20)
(1.01157 0.679129 -4.5762e-20)
(1.01598 0.752404 1.74871e-19)
(1.03608 0.828655 -2.33831e-19)
(0.774047 0.79492 1.88918e-20)
(1.04116 0.173483 -5.88879e-22)
(1.0414 0.190775 -2.64897e-20)
(1.03761 0.20208 2.73133e-20)
(1.0321 0.210898 1.36116e-20)
(1.02986 0.226734 1.85247e-20)
(1.03724 0.250043 -7.77921e-22)
(1.04586 0.273802 -2.13749e-20)
(1.0448 0.295438 -8.73712e-21)
(1.04411 0.319551 6.23612e-21)
(1.04822 0.347616 7.22647e-21)
(1.05354 0.380206 3.30708e-21)
(1.06017 0.41543 -4.60031e-21)
(1.06589 0.455099 2.48236e-21)
(1.07191 0.498244 -1.5998e-20)
(1.07959 0.546428 -4.06835e-21)
(1.09327 0.598324 -7.00384e-20)
(1.10177 0.663926 5.46609e-20)
(1.11637 0.737022 5.7179e-20)
(1.1626 0.799421 -7.02842e-20)
(0.870879 0.766395 3.65008e-19)
(1.05594 0.168851 7.33689e-21)
(1.06242 0.192085 4.00638e-21)
(1.0666 0.205108 3.28719e-21)
(1.06733 0.216739 -2.12491e-20)
(1.06364 0.226449 3.20363e-21)
(1.06736 0.242785 7.34729e-21)
(1.07949 0.2663 6.85341e-21)
(1.08912 0.291131 -1.5357e-21)
(1.08988 0.315522 4.21168e-21)
(1.09563 0.342861 1.24014e-20)
(1.10344 0.372863 -3.66558e-20)
(1.11046 0.404964 2.03026e-20)
(1.12068 0.441772 -5.78467e-22)
(1.13479 0.482581 1.76721e-20)
(1.14595 0.530619 -9.82406e-20)
(1.16435 0.582577 8.24846e-20)
(1.18628 0.644303 8.98525e-20)
(1.2034 0.715421 6.85844e-21)
(1.25393 0.757539 -9.08718e-21)
(0.942302 0.719892 3.56872e-20)
(1.0696 0.152436 5.63365e-21)
(1.07058 0.175676 -5.65641e-21)
(1.08156 0.195265 -5.76042e-22)
(1.08996 0.207612 4.72523e-21)
(1.09375 0.222936 -1.7264e-21)
(1.09566 0.238364 9.89409e-21)
(1.10485 0.256793 -1.52306e-20)
(1.11675 0.27815 9.1972e-22)
(1.12738 0.302393 2.48706e-21)
(1.13636 0.328981 1.09364e-20)
(1.14759 0.359192 3.14389e-20)
(1.16121 0.391406 -6.46586e-21)
(1.17398 0.425941 4.47658e-20)
(1.19195 0.462752 -5.42946e-20)
(1.21231 0.503758 7.67558e-20)
(1.23521 0.54748 1.11628e-20)
(1.25978 0.604351 -1.29105e-19)
(1.29119 0.67608 -4.20467e-20)
(1.35128 0.699032 4.8015e-20)
(1.00089 0.655239 -3.93275e-19)
(1.09344 0.144028 -1.29567e-21)
(1.09727 0.162437 2.69256e-22)
(1.10585 0.178649 3.36963e-21)
(1.11797 0.194082 4.5286e-21)
(1.1242 0.205564 -3.30696e-21)
(1.12985 0.223478 -3.61414e-21)
(1.13882 0.244777 -1.63533e-20)
(1.15175 0.266024 -2.20652e-20)
(1.16148 0.287492 6.95575e-20)
(1.17556 0.311577 -6.07402e-20)
(1.19185 0.338445 -1.58633e-20)
(1.20658 0.367563 -8.46962e-21)
(1.22261 0.401138 -4.12544e-20)
(1.24325 0.436837 1.32705e-19)
(1.26592 0.476809 1.94065e-20)
(1.29679 0.516225 -2.08901e-19)
(1.32864 0.560622 6.44861e-20)
(1.35571 0.628297 -6.33542e-20)
(1.41777 0.63281 6.38412e-20)
(1.03452 0.579198 3.82387e-19)
(1.10745 0.1376 -2.1023e-21)
(1.10969 0.154531 -9.17687e-21)
(1.12338 0.168105 2.31422e-21)
(1.14094 0.179689 -7.88593e-22)
(1.15125 0.194497 -1.03091e-20)
(1.15963 0.207158 7.00473e-21)
(1.16994 0.225834 -3.04828e-20)
(1.18347 0.246889 -1.32961e-20)
(1.19636 0.268541 4.3897e-20)
(1.20801 0.291387 -1.32619e-20)
(1.22504 0.316857 4.18903e-20)
(1.24802 0.343195 1.01206e-20)
(1.2683 0.371448 -2.09429e-20)
(1.2911 0.402314 5.67237e-20)
(1.31713 0.437393 -5.9533e-20)
(1.34664 0.472952 1.24279e-19)
(1.38346 0.510028 -1.12246e-19)
(1.42243 0.568658 -1.15983e-19)
(1.47102 0.560343 1.31889e-19)
(1.03384 0.497579 -1.38886e-19)
(1.13694 0.118458 -8.23548e-21)
(1.13694 0.13591 2.59978e-21)
(1.13872 0.149164 1.28632e-20)
(1.15731 0.161934 -1.37344e-20)
(1.17335 0.173602 3.04034e-21)
(1.18037 0.190111 3.10493e-21)
(1.1955 0.206545 8.64413e-23)
(1.21328 0.225715 -2.13001e-20)
(1.23084 0.244828 3.86106e-20)
(1.24737 0.265813 -9.77408e-21)
(1.26488 0.289071 8.95227e-21)
(1.28351 0.314126 -7.57216e-21)
(1.30638 0.341685 -3.15403e-20)
(1.33272 0.369041 4.00345e-20)
(1.36105 0.399151 -2.42362e-20)
(1.39613 0.429315 1.01224e-20)
(1.43119 0.458098 -2.06905e-19)
(1.46032 0.505233 1.40154e-19)
(1.49956 0.481486 1.58677e-19)
(1.01328 0.414276 -3.49092e-20)
(1.15217 0.108295 -3.76357e-21)
(1.16269 0.118942 1.49586e-21)
(1.1697 0.130157 7.76728e-21)
(1.17964 0.140015 1.23226e-21)
(1.1972 0.153491 -6.80275e-21)
(1.2103 0.166944 8.61466e-21)
(1.21948 0.184419 -1.48946e-21)
(1.23753 0.201924 2.5752e-20)
(1.2552 0.220698 -3.03469e-21)
(1.27444 0.239973 5.16543e-21)
(1.29441 0.261217 4.27124e-21)
(1.31995 0.282287 -1.28826e-20)
(1.34355 0.305746 1.69598e-20)
(1.36866 0.331921 -3.76583e-20)
(1.39676 0.359591 9.13498e-20)
(1.42902 0.385053 -5.49382e-20)
(1.46825 0.408682 1.19788e-19)
(1.49974 0.445576 -1.01823e-19)
(1.49101 0.410041 5.17604e-21)
(0.937002 0.331445 9.9629e-20)
(1.16212 0.0936386 5.6203e-21)
(1.17845 0.104053 1.78931e-21)
(1.18716 0.111741 -7.46478e-21)
(1.20207 0.122813 -8.03922e-21)
(1.21866 0.131201 1.20655e-21)
(1.23073 0.143731 -4.62624e-21)
(1.2459 0.158466 4.55094e-21)
(1.26344 0.175004 -2.30738e-20)
(1.28443 0.190973 6.08829e-21)
(1.30461 0.208155 -1.77122e-20)
(1.32629 0.228354 -4.78985e-21)
(1.34773 0.249112 6.92893e-21)
(1.37479 0.27051 1.39806e-20)
(1.40478 0.291947 -1.05568e-20)
(1.43505 0.316526 -3.99874e-20)
(1.46895 0.340068 -6.68283e-20)
(1.49753 0.360707 5.17572e-20)
(1.51152 0.388118 1.88008e-20)
(1.47041 0.340096 -6.21563e-21)
(0.838995 0.257274 -5.46245e-20)
(1.17834 0.0691273 -3.4787e-22)
(1.18844 0.0767326 1.93853e-22)
(1.20106 0.0865814 -9.25243e-22)
(1.21413 0.096639 -2.17402e-21)
(1.23553 0.109218 3.41177e-21)
(1.25672 0.119822 1.74309e-21)
(1.27199 0.13249 -4.60628e-21)
(1.29078 0.147881 5.41848e-21)
(1.30901 0.16388 7.36563e-21)
(1.33112 0.180171 -6.89366e-21)
(1.35425 0.19699 6.81389e-22)
(1.37933 0.2146 1.90805e-20)
(1.40322 0.233285 -7.92577e-21)
(1.42928 0.254343 1.53039e-20)
(1.45884 0.277191 7.90281e-22)
(1.49125 0.29982 -6.96958e-21)
(1.52414 0.323578 3.51984e-20)
(1.52586 0.349089 6.91746e-21)
(1.3906 0.295405 -4.53485e-20)
(0.656406 0.194247 -3.17837e-20)
(0.822267 0.0406384 4.39295e-21)
(0.806113 0.0444919 3.60648e-21)
(0.787685 0.0484516 -7.01437e-21)
(0.766426 0.0524138 6.19854e-21)
(0.743042 0.0565755 5.42094e-22)
(0.716421 0.0607865 -1.03698e-20)
(0.687331 0.0655088 1.68065e-20)
(0.654414 0.0709232 -1.76399e-20)
(0.61794 0.0766731 3.50553e-20)
(0.576279 0.0836316 -2.28572e-20)
(0.530078 0.0911851 4.12069e-21)
(0.476006 0.09925 1.48841e-20)
(0.41576 0.10838 -1.08642e-20)
(0.345557 0.120766 -1.4472e-20)
(0.269936 0.131727 1.25283e-20)
(0.173081 0.145383 -1.80656e-20)
(0.0588122 0.127684 5.69528e-21)
(0.830222 0.0669732 -4.07767e-20)
(0.814446 0.073118 -9.76804e-21)
(0.796311 0.0800096 -2.90128e-20)
(0.775147 0.087049 -2.85365e-20)
(0.752008 0.0946058 2.98159e-20)
(0.726123 0.102873 -1.65117e-20)
(0.697613 0.111406 -9.763e-21)
(0.665834 0.121501 4.3346e-20)
(0.630637 0.132133 -5.98714e-20)
(0.59 0.143746 1.64216e-20)
(0.545594 0.158014 7.35724e-21)
(0.493496 0.173906 -6.47061e-20)
(0.43497 0.191331 -2.70182e-20)
(0.36338 0.211251 -7.47072e-21)
(0.287585 0.235348 4.17366e-20)
(0.191164 0.270762 5.47714e-21)
(0.0742102 0.244409 3.61007e-20)
(0.842127 0.0911213 -4.76584e-21)
(0.827134 0.0993151 1.85636e-22)
(0.80958 0.1087 -5.86339e-21)
(0.789093 0.118816 5.16235e-21)
(0.766648 0.129609 1.05336e-19)
(0.742058 0.141886 -8.0189e-20)
(0.715114 0.15514 2.22589e-20)
(0.684579 0.170158 -3.06509e-20)
(0.651341 0.187574 -4.0359e-20)
(0.612212 0.205652 4.2357e-20)
(0.56883 0.224753 1.98232e-20)
(0.520943 0.247982 2.65107e-20)
(0.467749 0.273542 -5.13196e-21)
(0.404303 0.304486 -5.96845e-20)
(0.330375 0.336416 1.45754e-19)
(0.239305 0.386644 -1.62502e-20)
(0.112593 0.357923 -3.90218e-20)
(0.867173 0.106862 5.03711e-20)
(0.856805 0.116034 5.28186e-21)
(0.842909 0.126219 1.27797e-20)
(0.826326 0.137352 -1.957e-20)
(0.807077 0.149677 2.00019e-20)
(0.785614 0.162302 -9.69981e-21)
(0.762384 0.176322 -7.03229e-21)
(0.737508 0.191946 -5.18234e-20)
(0.709392 0.209048 3.80275e-20)
(0.679741 0.230327 3.2944e-20)
(0.645925 0.256283 -2.08818e-20)
(0.6053 0.284427 -9.71099e-20)
(0.557024 0.315747 3.65392e-20)
(0.505155 0.350695 7.68006e-20)
(0.443487 0.390271 8.40936e-20)
(0.379944 0.433642 -1.26727e-19)
(0.289869 0.498068 -5.16792e-20)
(0.153932 0.462743 -1.16562e-20)
(0.884038 0.126218 -1.79862e-20)
(0.874683 0.137409 -9.75022e-21)
(0.861592 0.150703 -6.37335e-20)
(0.846059 0.165392 9.95411e-20)
(0.829181 0.182149 6.23903e-21)
(0.810607 0.199779 4.32199e-20)
(0.789799 0.218218 2.25884e-20)
(0.767053 0.238142 -5.05096e-20)
(0.739256 0.258271 2.16422e-20)
(0.708996 0.279028 6.64129e-20)
(0.678077 0.304598 1.97791e-20)
(0.646833 0.335052 -2.38199e-19)
(0.606884 0.371417 2.46899e-19)
(0.564442 0.413284 -1.41943e-19)
(0.510192 0.464084 -1.61691e-19)
(0.451805 0.51541 1.79949e-19)
(0.377347 0.591811 -1.46111e-19)
(0.224756 0.55554 1.46331e-20)
(0.908081 0.136026 4.78108e-20)
(0.903385 0.144777 -3.88834e-20)
(0.895834 0.15515 4.92854e-20)
(0.884144 0.167571 -2.20995e-20)
(0.867789 0.181123 -7.52134e-20)
(0.850277 0.19708 7.20876e-20)
(0.833333 0.216 -2.48985e-20)
(0.816777 0.237741 -8.03124e-21)
(0.802155 0.263452 -3.38683e-20)
(0.784069 0.293011 2.87102e-20)
(0.758986 0.323352 -4.80741e-20)
(0.726875 0.355583 1.45815e-20)
(0.695201 0.391027 3.25232e-20)
(0.65994 0.431299 -1.41174e-19)
(0.620707 0.476813 2.06405e-19)
(0.57687 0.532626 -4.70809e-20)
(0.53088 0.591579 4.35733e-20)
(0.465887 0.677896 1.06952e-20)
(0.298198 0.639988 8.58409e-20)
(0.926946 0.142618 8.42824e-20)
(0.925853 0.152066 1.8391e-20)
(0.923568 0.165419 -1.31526e-19)
(0.917425 0.180975 1.27386e-19)
(0.91068 0.198715 -7.08046e-21)
(0.900916 0.216714 -4.69627e-20)
(0.885384 0.233833 -6.29943e-20)
(0.866555 0.250956 7.40187e-20)
(0.844975 0.268989 6.27672e-20)
(0.826539 0.289834 4.39197e-20)
(0.812606 0.316816 1.04253e-19)
(0.798352 0.348707 -1.06911e-19)
(0.776677 0.385154 -5.55394e-20)
(0.750643 0.425442 1.70365e-19)
(0.721892 0.472037 -8.27264e-20)
(0.69392 0.522899 -4.05799e-20)
(0.653967 0.586293 -5.1871e-20)
(0.619358 0.652502 4.73647e-20)
(0.57101 0.744696 -1.47712e-20)
(0.385609 0.706053 -3.97649e-20)
(0.946287 0.154014 7.22336e-20)
(0.949859 0.15763 -1.99377e-20)
(0.945452 0.165996 1.94589e-20)
(0.936087 0.178956 -1.19433e-19)
(0.923733 0.196102 -1.56937e-20)
(0.916341 0.218223 4.8821e-20)
(0.913464 0.243308 8.40599e-20)
(0.908399 0.269436 -7.43326e-20)
(0.895836 0.294874 -3.11485e-20)
(0.877509 0.319847 1.16454e-21)
(0.859813 0.348075 1.1023e-20)
(0.846624 0.380309 -9.02294e-20)
(0.831657 0.417958 -4.28875e-20)
(0.814623 0.460282 2.87894e-20)
(0.788841 0.509448 6.03993e-20)
(0.764886 0.563221 -5.37725e-20)
(0.739419 0.628064 9.38347e-22)
(0.713988 0.697237 1.87819e-20)
(0.688836 0.794577 -7.23832e-21)
(0.484145 0.75918 -2.44127e-20)
(0.962647 0.171764 -2.54075e-20)
(0.973078 0.182308 -6.03361e-20)
(0.978616 0.195825 8.07512e-20)
(0.975075 0.208894 -5.76825e-20)
(0.963341 0.222706 -3.87702e-20)
(0.944748 0.237161 9.00682e-21)
(0.930825 0.255411 1.13846e-20)
(0.929523 0.279487 1.1613e-20)
(0.928753 0.307001 2.09289e-20)
(0.920489 0.334938 9.03262e-20)
(0.907059 0.365274 -9.40922e-21)
(0.89571 0.399785 -1.29364e-20)
(0.884371 0.438505 1.45222e-20)
(0.875354 0.482218 1.71248e-20)
(0.86535 0.53318 -7.05649e-20)
(0.849054 0.589673 7.01692e-20)
(0.826081 0.659237 -2.4949e-20)
(0.813321 0.732135 8.83983e-21)
(0.79868 0.825769 -1.76553e-20)
(0.577445 0.789816 4.61139e-20)
(0.985831 0.163096 -3.52335e-21)
(0.98414 0.168606 -1.51312e-20)
(0.984502 0.184049 1.08384e-20)
(0.986896 0.205892 5.77077e-20)
(0.990395 0.227221 2.0685e-21)
(0.987265 0.248165 1.20842e-20)
(0.97367 0.267316 -3.88537e-20)
(0.962933 0.288806 3.38867e-20)
(0.964059 0.31616 -5.20087e-20)
(0.964873 0.345749 2.38194e-20)
(0.95832 0.376752 5.34557e-20)
(0.951322 0.411987 -6.09089e-20)
(0.944804 0.452511 6.48598e-20)
(0.937485 0.49721 -6.61192e-21)
(0.930917 0.549698 -1.03576e-20)
(0.931077 0.605619 -7.32761e-21)
(0.921875 0.673221 -1.11395e-20)
(0.916129 0.746044 -4.3816e-20)
(0.930893 0.8353 -1.2149e-21)
(0.684829 0.802815 -8.65231e-20)
(0.941125 0.150695 -2.05403e-20)
(0.956198 0.164203 8.75941e-20)
(0.965985 0.132434 1.40635e-21)
(0.981633 0.160179 2.90921e-20)
(0.999434 0.127792 0)
(0.993853 0.169356 0)
(1.01105 0.124008 0)
(1.00404 0.15233 0)
(1.01243 0.116133 0)
(1.01298 0.134902 0)
(1.01663 0.108873 0)
(1.01904 0.119623 0)
(1.02483 0.1011 0)
(1.02462 0.106677 0)
(1.03336 0.0933631 0)
(1.03107 0.0948501 0)
(1.03964 0.0859303 0)
(1.03804 0.0842813 0)
(1.04254 0.0778704 0)
(1.0436 0.0753756 0)
(1.04236 0.0694298 0)
(1.04608 0.0666576 0)
(1.04083 0.0605821 0)
(1.04589 0.0581427 0)
(1.03926 0.052523 0)
(1.04396 0.049787 0)
(1.03754 0.0451378 0)
(1.04181 0.0423944 0)
(1.03562 0.0389825 0)
(1.0398 0.0361498 0)
(1.03361 0.0337043 0)
(1.03739 0.0313339 0)
(1.03158 0.0293354 0)
(1.03492 0.0272785 0)
(1.02919 0.0253807 0)
(1.03237 0.0238988 0)
(1.02695 0.0219366 0)
(1.02982 0.0207551 0)
(1.02468 0.0187376 0)
(1.02721 0.0177741 0)
(1.02296 0.0167954 0)
(1.02475 0.0159082 0)
(1.02238 0.0160467 0)
(1.02361 0.0152916 0)
(1.02168 0.0148894 0)
(1.02283 0.0144933 0)
(1.0202 0.0128504 0)
(1.0214 0.0127152 0)
(1.01832 0.0105544 0)
(1.01945 0.0105145 0)
(1.01639 0.00838397 0)
(1.01733 0.00835318 0)
(1.01481 0.00655771 0)
(1.01551 0.00652348 0)
(1.01362 0.00501696 0)
(1.01411 0.00499501 0)
(1.0127 0.00362871 0)
(1.01305 0.00364009 0)
(1.01206 0.001959 0)
(1.01234 0.00193876 0)
(1.01093 0.000904725 0)
(1.01139 0.00087094 0)
(1.01068 0.000421013 0)
(1.01114 0.000425614 0)
(1.02681 0.164491 -1.60294e-20)
(1.0404 0.146592 9.24766e-21)
(1.05888 0.142034 -1.52658e-20)
(1.07614 0.130049 -7.18013e-23)
(1.08998 0.122927 -5.08116e-23)
(1.1117 0.114255 4.28966e-21)
(1.12929 0.0957459 7.73536e-21)
(1.1416 0.0902286 6.24136e-21)
(1.15194 0.0726221 -7.30128e-21)
(1.17014 0.0537085 -1.25418e-22)
(1.03265 0.146487 1.31406e-20)
(1.04354 0.132671 6.25475e-21)
(1.0688 0.130438 7.55581e-21)
(1.07947 0.120524 -1.06512e-21)
(1.08971 0.116364 -1.94691e-22)
(1.11231 0.104303 5.60267e-21)
(1.12266 0.0913972 -4.65129e-21)
(1.13371 0.0831836 1.95965e-23)
(1.15036 0.0665303 2.14877e-21)
(1.15135 0.0456203 1.20353e-21)
(1.03531 0.131947 -1.25492e-20)
(1.04463 0.119821 -1.10486e-20)
(1.07318 0.119663 3.1502e-21)
(1.07721 0.104997 -2.29681e-21)
(1.09351 0.104851 7.65715e-23)
(1.10579 0.0854451 -2.60682e-21)
(1.1223 0.0817862 -2.26874e-22)
(1.12356 0.0616365 -3.12564e-21)
(1.15102 0.0546865 5.74731e-22)
(1.1319 0.0274345 -1.24315e-21)
(1.04083 0.120526 1.8789e-20)
(1.04916 0.107082 1.46419e-20)
(1.07838 0.1096 -1.59836e-21)
(1.07788 0.0892508 8.68077e-23)
(1.09897 0.0962149 -3.41135e-23)
(1.09827 0.0691733 -7.05231e-22)
(1.12244 0.0772415 8.03222e-22)
(1.11267 0.0452719 4.12481e-22)
(1.14542 0.0513775 2.67675e-22)
(1.11626 0.0174261 4.49051e-22)
(1.04762 0.109564 -1.21368e-20)
(1.05312 0.0940965 -1.52093e-21)
(1.0805 0.0992391 -3.95469e-21)
(1.07693 0.0767593 -8.94535e-22)
(1.09899 0.0872711 -1.03692e-22)
(1.09173 0.0570362 -6.60325e-22)
(1.11737 0.070368 -1.06065e-21)
(1.10466 0.033821 -8.13339e-22)
(1.13282 0.0455722 -7.57383e-23)
(1.10755 0.00973411 2.48378e-22)
(1.05379 0.0981741 -3.1187e-21)
(1.05594 0.0825471 -4.20176e-21)
(1.08131 0.0888595 4.33779e-21)
(1.07545 0.0661443 1.22959e-21)
(1.09684 0.0762859 -4.29121e-22)
(1.0864 0.0470697 5.65519e-22)
(1.10972 0.0599391 9.08329e-22)
(1.09678 0.0259364 1.40542e-21)
(1.11872 0.0372667 -6.53072e-23)
(1.09907 0.00488272 -9.04307e-23)
(1.0573 0.0877097 5.44838e-21)
(1.05846 0.0728292 2.96627e-21)
(1.08038 0.078436 -1.46615e-21)
(1.07321 0.057807 1.51639e-21)
(1.09218 0.0657573 9.6431e-22)
(1.0806 0.0409337 -2.57037e-23)
(1.1007 0.0503711 -8.6947e-23)