/*--------------------------------*- C++ -*----------------------------------*\
| =========                 |                                                 |
| \\      /  F ield         | OpenFOAM: The Open Source CFD Toolbox           |
|  \\    /   O peration     | Version:                                        |
|   \\  /    A nd           | Website:  www.openfoam.com                      |
|    \\/     M anipulation  |                                                 |
\*---------------------------------------------------------------------------*/
FoamFile
{
    version     2.0;
    format      ascii;
    class       volScalarField;
    location    "0.2";
    object      p;
}
// * * * * * * * * * * * * * * * * * * * * * * * * * * * * * * * * * * * * * //

dimensions      [0 2 -2 0 0 0 0];


internalField   nonuniform List<scalar> 
400
(
0.445007
0.435191
0.425526
0.416008
0.406635
0.397406
0.388318
0.379369
0.370559
0.361885
0.353343
0.344931
0.336646
0.328482
0.320436
0.312502
0.304676
0.29695
0.28932
0.281779
0.445566
0.435697
0.425984
0.416424
0.407014
0.397751
0.388633
0.379657
0.370821
0.362123
0.353559
0.345127
0.336822
0.328641
0.320578
0.312629
0.304788
0.297049
0.289407
0.281854
0.446079
0.436156
0.426397
0.416797
0.407351
0.398056
0.388908
0.379906
0.371046
0.362325
0.353741
0.345289
0.336967
0.328769
0.320692
0.312729
0.304875
0.297125
0.289472
0.28191
0.446555
0.436578
0.426773
0.417133
0.407651
0.398324
0.389148
0.38012
0.371237
0.362495
0.353891
0.345422
0.337084
0.328871
0.32078
0.312805
0.30494
0.29718
0.289519
0.281949
0.447067
0.437029
0.427171
0.417485
0.407963
0.398601
0.389394
0.380338
0.37143
0.362666
0.354041
0.345554
0.337199
0.328971
0.320866
0.312878
0.305003
0.297233
0.289562
0.281985
0.447652
0.437541
0.427621
0.417881
0.408313
0.39891
0.389668
0.380581
0.371644
0.362855
0.354208
0.3457
0.337327
0.329082
0.320962
0.312961
0.305073
0.297293
0.289612
0.282026
0.448328
0.438132
0.428139
0.418336
0.408714
0.399265
0.389982
0.38086
0.371892
0.363074
0.354403
0.345872
0.337478
0.329215
0.321078
0.313062
0.30516
0.297367
0.289675
0.28208
0.449101
0.438808
0.428732
0.418859
0.409176
0.399675
0.390346
0.381183
0.37218
0.363331
0.354631
0.346076
0.337659
0.329375
0.32122
0.313186
0.305269
0.297462
0.289757
0.28215
0.449961
0.439563
0.429397
0.419446
0.409697
0.400138
0.390759
0.381552
0.372511
0.363628
0.354897
0.346314
0.337872
0.329566
0.32139
0.313337
0.305402
0.297579
0.289861
0.28224
0.450885
0.440378
0.430118
0.420086
0.410267
0.400647
0.391215
0.381962
0.372879
0.36396
0.355197
0.346584
0.338116
0.329785
0.321586
0.313514
0.30556
0.29772
0.289985
0.28235
0.45184
0.441225
0.430871
0.420758
0.410868
0.401186
0.3917
0.382399
0.373275
0.364318
0.355522
0.346879
0.338383
0.330027
0.321805
0.313711
0.305738
0.297879
0.290127
0.282477
0.452789
0.442072
0.43163
0.421438
0.411479
0.401737
0.392198
0.382851
0.373684
0.364691
0.355861
0.347188
0.338664
0.330283
0.322038
0.313922
0.305929
0.298051
0.290282
0.282616
0.453697
0.442889
0.432364
0.4221
0.412077
0.402278
0.392689
0.383298
0.374092
0.365063
0.356201
0.347499
0.338949
0.330544
0.322276
0.314139
0.306126
0.298229
0.290444
0.282762
0.454537
0.443647
0.43305
0.422721
0.41264
0.40279
0.393156
0.383724
0.374482
0.36542
0.356529
0.3478
0.339225
0.330797
0.322508
0.314351
0.30632
0.298405
0.290603
0.282907
0.455283
0.444325
0.433666
0.423281
0.41315
0.403256
0.393582
0.384114
0.37484
0.365749
0.356832
0.348079
0.339482
0.331033
0.322725
0.31455
0.306502
0.298571
0.290755
0.283045
0.455921
0.444907
0.434196
0.423765
0.413593
0.403661
0.393953
0.384455
0.375154
0.366039
0.357099
0.348325
0.339709
0.331243
0.322918
0.314728
0.306666
0.29872
0.290892
0.28317
0.45644
0.445381
0.43463
0.424163
0.413957
0.403996
0.394261
0.384738
0.375415
0.36628
0.357322
0.348531
0.3399
0.331419
0.323081
0.314878
0.306803
0.298847
0.291008
0.283275
0.456833
0.445742
0.434961
0.424466
0.414236
0.404252
0.394497
0.384956
0.375617
0.366466
0.357494
0.348691
0.340048
0.331556
0.323207
0.314995
0.306911
0.298946
0.291099
0.283357
0.457096
0.445984
0.435183
0.42467
0.414424
0.404425
0.394656
0.385104
0.375753
0.366593
0.357612
0.3488
0.340148
0.331649
0.323293
0.315074
0.306984
0.299014
0.291162
0.283413
0.457228
0.446105
0.435294
0.424773
0.414518
0.404512
0.394737
0.385178
0.375822
0.366657
0.357671
0.348855
0.340199
0.331696
0.323337
0.315115
0.307021
0.299048
0.291194
0.283442
)
;

boundaryField
{
    fixedWalls
    {
        type            zeroGradient;
    }
    inlet
    {
        type            zeroGradient;
    }
    outlet
    {
        type            fixedValue;
        value           nonuniform 0();
    }
    frontAndBack
    {
        type            empty;
    }
    procBoundary1to0
    {
        type            processor;
        value           nonuniform List<scalar> 
20
(
0.454976
0.455599
0.456173
0.456711
0.457295
0.457967
0.458744
0.459631
0.460614
0.461663
0.46274
0.463804
0.464816
0.465744
0.466567
0.467266
0.467833
0.468261
0.468548
0.468691
)
;
    }
    procBoundary1to2
    {
        type            processor;
        value           nonuniform List<scalar> 
20
(
0.27432
0.274385
0.274433
0.274465
0.274495
0.274529
0.274573
0.274634
0.274712
0.274807
0.274919
0.275042
0.275172
0.275301
0.275425
0.275537
0.275632
0.275707
0.275758
0.275783
)
;
    }
    procBoundary1to5
    {
        type            processor;
        value           nonuniform List<scalar> 
20
(
0.457228
0.446105
0.435294
0.424772
0.414518
0.404512
0.394737
0.385178
0.375822
0.366657
0.357671
0.348855
0.340199
0.331696
0.323337
0.315115
0.307021
0.299048
0.291194
0.283442
)
;
    }
}


// ************************************************************************* //
