/*--------------------------------*- C++ -*----------------------------------*\
| =========                 |                                                 |
| \\      /  F ield         | OpenFOAM: The Open Source CFD Toolbox           |
|  \\    /   O peration     | Version:                                        |
|   \\  /    A nd           | Website:  www.openfoam.com                      |
|    \\/     M anipulation  |                                                 |
\*---------------------------------------------------------------------------*/
FoamFile
{
    version     2.0;
    format      ascii;
    class       surfaceScalarField;
    location    "0.2";
    object      phi;
}
// * * * * * * * * * * * * * * * * * * * * * * * * * * * * * * * * * * * * * //

dimensions      [0 3 -1 0 0 0 0];
oriented        oriented;


internalField   nonuniform List<scalar> 
760
(
2.46147e-06
3.2908e-08
2.43159e-06
2.98796e-08
2.40434e-06
2.7249e-08
2.37941e-06
2.49346e-08
2.35653e-06
2.28738e-08
2.33551e-06
2.10179e-08
2.31619e-06
1.93281e-08
2.29841e-06
1.77746e-08
2.28208e-06
1.63346e-08
2.26709e-06
1.49913e-08
2.25336e-06
1.37323e-08
2.24081e-06
1.25488e-08
2.22937e-06
1.14339e-08
2.21899e-06
1.03835e-08
2.20959e-06
9.39461e-09
2.20113e-06
8.4653e-09
2.19353e-06
7.59447e-09
2.18675e-06
6.78097e-09
2.18073e-06
6.02289e-09
5.31694e-09
7.07595e-06
1.26785e-07
6.99098e-06
1.14859e-07
6.91374e-06
1.04486e-07
6.84332e-06
9.53572e-08
6.77896e-06
8.72301e-08
6.72006e-06
7.99163e-08
6.66612e-06
7.32675e-08
6.61673e-06
6.71686e-08
6.57153e-06
6.15315e-08
6.53023e-06
5.62896e-08
6.49257e-06
5.1394e-08
6.45831e-06
4.68085e-08
6.42724e-06
4.25065e-08
6.39915e-06
3.847e-08
6.37386e-06
3.46861e-08
6.35118e-06
3.11453e-08
6.33093e-06
2.78408e-08
6.31295e-06
2.47672e-08
6.29705e-06
2.19196e-08
1.9282e-08
1.13622e-05
2.74737e-07
1.12284e-05
2.48677e-07
1.11069e-05
2.25974e-07
1.09963e-05
2.05974e-07
1.08954e-05
1.88162e-07
1.08031e-05
1.72136e-07
1.07188e-05
1.57578e-07
1.06418e-05
1.44239e-07
1.05714e-05
1.31929e-07
1.05072e-05
1.20502e-07
1.04487e-05
1.09851e-07
1.03956e-05
9.9893e-08
1.03475e-05
9.05703e-08
1.03042e-05
8.18405e-08
1.02652e-05
7.36733e-08
1.02303e-05
6.60462e-08
1.01992e-05
5.89423e-08
1.01716e-05
5.23464e-08
1.01473e-05
4.6254e-08
4.06242e-08
1.52893e-05
4.66386e-07
1.51158e-05
4.22216e-07
1.49581e-05
3.83633e-07
1.48145e-05
3.49581e-07
1.46834e-05
3.19219e-07
1.45637e-05
2.91885e-07
1.44542e-05
2.67052e-07
1.43542e-05
2.44307e-07
1.42628e-05
2.23329e-07
1.41794e-05
2.03873e-07
1.41035e-05
1.85752e-07
1.40346e-05
1.68828e-07
1.39721e-05
1.52997e-07
1.39158e-05
1.38186e-07
1.38651e-05
1.2434e-07
1.38197e-05
1.11419e-07
1.37793e-05
9.93917e-08
1.37434e-05
8.82291e-08
1.37117e-05
7.79306e-08
6.84274e-08
1.882e-05
6.87164e-07
1.86194e-05
6.22821e-07
1.84366e-05
5.66398e-07
1.82698e-05
5.16451e-07
1.81172e-05
4.71817e-07
1.79775e-05
4.3157e-07
1.78496e-05
3.94967e-07
1.77325e-05
3.6142e-07
1.76253e-05
3.30472e-07
1.75274e-05
3.01765e-07
1.74381e-05
2.75029e-07
1.73569e-05
2.50058e-07
1.72832e-05
2.26699e-07
1.72166e-05
2.04842e-07
1.71565e-05
1.84404e-07
1.71026e-05
1.65323e-07
1.70544e-05
1.47556e-07
1.70116e-05
1.31055e-07
1.69737e-05
1.15825e-07
1.01778e-07
2.19175e-05
9.18697e-07
2.17059e-05
8.34507e-07
2.1512e-05
7.60288e-07
2.13341e-05
6.94302e-07
2.11708e-05
6.35134e-07
2.10207e-05
5.81632e-07
2.08828e-05
5.32872e-07
2.07561e-05
4.8811e-07
2.06399e-05
4.46762e-07
2.05333e-05
4.08369e-07
2.04357e-05
3.72577e-07
2.03466e-05
3.39118e-07
2.02656e-05
3.07791e-07
2.01919e-05
2.78446e-07
2.01254e-05
2.50975e-07
2.00654e-05
2.25297e-07
2.00116e-05
2.01353e-07
1.99636e-05
1.7908e-07
1.99209e-05
1.58486e-07
1.39483e-07
2.45537e-05
1.14045e-06
2.4349e-05
1.03921e-06
2.416e-05
9.49356e-07
2.39852e-05
8.6902e-07
2.38237e-05
7.96641e-07
2.36744e-05
7.30938e-07
2.35364e-05
6.70861e-07
2.3409e-05
6.15561e-07
2.32914e-05
5.6436e-07
2.3183e-05
5.16722e-07
2.30834e-05
4.72229e-07
2.29919e-05
4.30563e-07
2.29083e-05
3.91482e-07
2.28319e-05
3.54806e-07
2.27625e-05
3.20403e-07
2.26996e-05
2.88178e-07
2.26429e-05
2.58062e-07
2.2592e-05
2.29986e-07
2.25465e-05
2.03951e-07
1.79885e-07
2.67166e-05
1.33232e-06
2.65369e-05
1.21888e-06
2.63689e-05
1.11741e-06
2.62118e-05
1.02605e-06
2.60652e-05
9.43246e-07
2.59285e-05
8.67699e-07
2.5801e-05
7.98319e-07
2.56824e-05
7.34215e-07
2.5572e-05
6.74665e-07
2.54697e-05
6.19094e-07
2.53749e-05
5.6705e-07
2.52872e-05
5.18184e-07
2.52065e-05
4.7223e-07
2.51323e-05
4.28992e-07
2.50644e-05
3.88323e-07
2.50024e-05
3.50123e-07
2.49462e-05
3.14315e-07
2.48953e-05
2.80841e-07
2.48496e-05
2.49679e-07
2.20792e-07
2.84154e-05
1.47747e-06
2.82764e-05
1.35793e-06
2.81438e-05
1.25004e-06
2.80177e-05
1.15213e-06
2.78982e-05
1.06277e-06
2.77851e-05
9.80744e-07
2.76784e-05
9.05005e-07
2.75779e-05
8.34692e-07
2.74835e-05
7.69096e-07
2.7395e-05
7.07647e-07
2.73121e-05
6.49892e-07
2.72348e-05
5.95478e-07
2.71629e-05
5.44136e-07
2.70962e-05
4.95668e-07
2.70346e-05
4.49925e-07
2.6978e-05
4.06814e-07
2.6926e-05
3.66255e-07
2.68786e-05
3.28215e-07
2.68357e-05
2.92646e-07
2.59545e-07
2.96822e-05
1.56451e-06
2.9595e-05
1.44521e-06
2.95085e-05
1.33649e-06
2.94237e-05
1.23697e-06
2.9341e-05
1.14544e-06
2.92609e-05
1.06083e-06
2.91837e-05
9.82213e-07
2.91096e-05
9.08822e-07
2.90387e-05
8.40009e-07
2.89711e-05
7.75246e-07
2.89069e-05
7.14112e-07
2.88461e-05
6.56278e-07
2.87887e-05
6.01492e-07
2.87348e-05
5.49568e-07
2.86843e-05
5.00372e-07
2.86373e-05
4.53824e-07
2.85937e-05
4.09848e-07
2.85535e-05
3.68453e-07
2.85166e-05
3.29561e-07
2.93198e-07
3.05684e-05
1.58857e-06
3.05384e-05
1.47515e-06
3.05041e-05
1.37076e-06
3.04668e-05
1.27434e-06
3.04273e-05
1.18492e-06
3.03865e-05
1.10164e-06
3.0345e-05
1.02373e-06
3.03033e-05
9.50536e-07
3.02617e-05
8.81518e-07
3.02208e-05
8.16219e-07
3.01806e-05
7.54275e-07
3.01415e-05
6.95399e-07
3.01036e-05
6.39373e-07
3.00671e-05
5.86039e-07
3.00322e-05
5.35285e-07
2.9999e-05
4.87053e-07
2.99676e-05
4.4128e-07
2.9938e-05
3.98019e-07
2.99104e-05
3.57173e-07
3.1879e-07
3.11382e-05
1.55093e-06
3.11657e-05
1.44773e-06
3.11846e-05
1.35182e-06
3.11965e-05
1.26241e-06
3.12027e-05
1.1788e-06
3.1204e-05
1.10031e-06
3.12014e-05
1.02635e-06
3.11955e-05
9.56412e-07
3.1187e-05
8.90053e-07
3.11763e-05
8.2691e-07
3.11639e-05
7.66688e-07
3.11501e-05
7.09155e-07
3.11353e-05
6.54139e-07
3.11199e-05
6.01514e-07
3.1104e-05
5.51198e-07
3.10878e-05
5.03161e-07
3.10718e-05
4.57354e-07
3.10559e-05
4.13875e-07
3.10405e-05
3.72617e-07
3.33653e-07
3.14617e-05
1.45769e-06
3.15419e-05
1.36749e-06
3.16109e-05
1.28287e-06
3.167e-05
1.20331e-06
3.17205e-05
1.12828e-06
3.17635e-05
1.0573e-06
3.17999e-05
9.89933e-07
3.18305e-05
9.25789e-07
3.1856e-05
8.64539e-07
3.1877e-05
8.05909e-07
3.18941e-05
7.49676e-07
3.19075e-05
6.95666e-07
3.19179e-05
6.43752e-07
3.19256e-05
5.93845e-07
3.19309e-05
5.45896e-07
3.19342e-05
4.99898e-07
3.19357e-05
4.55823e-07
3.19358e-05
4.13797e-07
3.19347e-05
3.73725e-07
3.35707e-07
3.16065e-05
1.31787e-06
3.1732e-05
1.24198e-06
3.18447e-05
1.1702e-06
3.19458e-05
1.10216e-06
3.20366e-05
1.0375e-06
3.21181e-05
9.75863e-07
3.21911e-05
9.16949e-07
3.22564e-05
8.60479e-07
3.23147e-05
8.06217e-07
3.23666e-05
7.53963e-07
3.24127e-05
7.03563e-07
3.24535e-05
6.54893e-07
3.24894e-05
6.07872e-07
3.25208e-05
5.62438e-07
3.25481e-05
5.18577e-07
3.25717e-05
4.76293e-07
3.2592e-05
4.35592e-07
3.26092e-05
3.96599e-07
3.26236e-05
3.59249e-07
3.23683e-07
3.16331e-05
1.14157e-06
3.1795e-05
1.08017e-06
3.19435e-05
1.02168e-06
3.20798e-05
9.65842e-07
3.22049e-05
9.12404e-07
3.23196e-05
8.61122e-07
3.24248e-05
8.1178e-07
3.25211e-05
7.64186e-07
3.26091e-05
7.18178e-07
3.26895e-05
6.7362e-07
3.27626e-05
6.30409e-07
3.28291e-05
5.88463e-07
3.28892e-05
5.47736e-07
3.29434e-05
5.08192e-07
3.29922e-05
4.69844e-07
3.30358e-05
4.32695e-07
3.30746e-05
3.96793e-07
3.31089e-05
3.62226e-07
3.31392e-05
3.28977e-07
2.97257e-07
3.15914e-05
9.38477e-07
3.17805e-05
8.90994e-07
3.19567e-05
8.45508e-07
3.21207e-05
8.01835e-07
3.22733e-05
7.59788e-07
3.24153e-05
7.19199e-07
3.25471e-05
6.79916e-07
3.26695e-05
6.41813e-07
3.27829e-05
6.04779e-07
3.28878e-05
5.68726e-07
3.29846e-05
5.33591e-07
3.30737e-05
4.99321e-07
3.31556e-05
4.65897e-07
3.32305e-05
4.33296e-07
3.32988e-05
4.01555e-07
3.33608e-05
3.70663e-07
3.34169e-05
3.40713e-07
3.34674e-05
3.11726e-07
3.35126e-05
2.83747e-07
2.57071e-07
3.15195e-05
7.16925e-07
3.17281e-05
6.8246e-07
3.19243e-05
6.49308e-07
3.21088e-05
6.17337e-07
3.22821e-05
5.86412e-07
3.24449e-05
5.56413e-07
3.25976e-05
5.27242e-07
3.27406e-05
4.98813e-07
3.28743e-05
4.71057e-07
3.29991e-05
4.43917e-07
3.31154e-05
4.17357e-07
3.32233e-05
3.91345e-07
3.33234e-05
3.65879e-07
3.34157e-05
3.40941e-07
3.35007e-05
3.16582e-07
3.35786e-05
2.92773e-07
3.36496e-05
2.69648e-07
3.37142e-05
2.47136e-07
3.37726e-05
2.25346e-07
2.04666e-07
3.14452e-05
4.83542e-07
3.16665e-05
4.61174e-07
3.18762e-05
4.396e-07
3.20748e-05
4.18732e-07
3.22627e-05
3.98477e-07
3.24404e-05
3.78761e-07
3.26081e-05
3.59519e-07
3.27662e-05
3.40702e-07
3.2915e-05
3.22266e-07
3.30547e-05
3.04178e-07
3.31857e-05
2.86421e-07
3.3308e-05
2.68975e-07
3.34221e-05
2.51846e-07
3.3528e-05
2.3502e-07
3.3626e-05
2.18547e-07
3.37164e-05
2.02387e-07
3.37994e-05
1.86683e-07
3.38752e-05
1.71309e-07
3.39442e-05
1.56368e-07
1.42331e-07
3.13866e-05
2.43317e-07
3.16155e-05
2.32329e-07
3.18334e-05
2.21714e-07
3.20407e-05
2.11428e-07
3.22377e-05
2.01424e-07
3.24248e-05
1.91666e-07
3.26022e-05
1.82122e-07
3.27702e-05
1.72769e-07
3.29288e-05
1.63586e-07
3.30785e-05
1.54557e-07
3.32192e-05
1.45674e-07
3.33512e-05
1.3693e-07
3.34748e-05
1.28329e-07
3.35899e-05
1.19864e-07
3.36969e-05
1.11564e-07
3.37959e-05
1.03401e-07
3.38871e-05
9.54725e-08
3.39707e-05
8.76833e-08
3.4047e-05
8.00863e-08
7.29625e-08
3.13548e-05
3.15872e-05
3.18089e-05
3.20203e-05
3.22217e-05
3.24134e-05
3.25955e-05
3.27682e-05
3.29318e-05
3.30863e-05
3.32319e-05
3.33688e-05
3.34971e-05
3.3617e-05
3.37285e-05
3.38318e-05
3.39273e-05
3.40149e-05
3.4095e-05
)
;

boundaryField
{
    fixedWalls
    {
        type            calculated;
        value           uniform 0;
    }
    inlet
    {
        type            calculated;
        value           nonuniform 0();
    }
    outlet
    {
        type            calculated;
        value           nonuniform 0();
    }
    frontAndBack
    {
        type            empty;
        value           nonuniform 0();
    }
    procBoundary1to0
    {
        type            processor;
        value           nonuniform List<scalar> 
20
(
-2.49438e-06
-7.16983e-06
-1.15102e-05
-1.5481e-05
-1.90408e-05
-2.21491e-05
-2.47755e-05
-2.69085e-05
-2.85606e-05
-2.97693e-05
-3.05924e-05
-3.11006e-05
-3.13684e-05
-3.14667e-05
-3.14568e-05
-3.13883e-05
-3.1298e-05
-3.12118e-05
-3.11464e-05
-3.11115e-05
)
;
    }
    procBoundary1to2
    {
        type            processor;
        value           nonuniform List<scalar> 
20
(
2.17541e-06
6.28308e-06
1.01259e-05
1.36839e-05
1.69404e-05
1.98832e-05
2.25061e-05
2.48087e-05
2.67969e-05
2.84829e-05
2.98848e-05
3.10256e-05
3.19326e-05
3.26357e-05
3.31656e-05
3.35528e-05
3.3825e-05
3.40065e-05
3.41164e-05
3.41679e-05
)
;
    }
    procBoundary1to5
    {
        type            processor;
        value           nonuniform List<scalar> 
20
(
4.37963e-13
4.16939e-12
7.24317e-12
7.48641e-12
7.85827e-12
1.06931e-11
1.52347e-11
1.99453e-11
2.41194e-11
2.78748e-11
3.19868e-11
3.45232e-11
3.63722e-11
3.87366e-11
3.88274e-11
3.97088e-11
4.26319e-11
4.14024e-11
4.40762e-11
1.90217e-11
)
;
    }
}


// ************************************************************************* //
