/*--------------------------------*- C++ -*----------------------------------*\
| =========                 |                                                 |
| \\      /  F ield         | OpenFOAM: The Open Source CFD Toolbox           |
|  \\    /   O peration     | Version:                                        |
|   \\  /    A nd           | Website:  www.openfoam.com                      |
|    \\/     M anipulation  |                                                 |
\*---------------------------------------------------------------------------*/
FoamFile
{
    version     2.0;
    format      ascii;
    class       volVectorField;
    location    "0.2";
    object      U;
}
// * * * * * * * * * * * * * * * * * * * * * * * * * * * * * * * * * * * * * //

dimensions      [0 1 -1 0 0 0 0];


internalField   nonuniform List<vector> 
400
(
(0.0990848 0.000208769 0)
(0.0978334 0.000190424 0)
(0.0966943 0.000174496 0)
(0.0956534 0.000160477 0)
(0.0946995 0.000147966 0)
(0.0938234 0.000136677 0)
(0.093018 0.000126354 0)
(0.0922773 0.000116823 0)
(0.0915962 0.000107936 0)
(0.0909706 9.95927e-05 0)
(0.090397 9.17237e-05 0)
(0.0898721 8.4276e-05 0)
(0.0893932 7.72103e-05 0)
(0.0889575 7.05055e-05 0)
(0.0885626 6.41443e-05 0)
(0.088206 5.81202e-05 0)
(0.0878854 5.24391e-05 0)
(0.0875985 4.70932e-05 0)
(0.087343 4.20621e-05 0)
(0.0871167 3.7344e-05 0)
(0.284821 0.00132431 0)
(0.281257 0.00120175 0)
(0.278022 0.00109521 0)
(0.275077 0.00100144 0)
(0.272388 0.000917919 0)
(0.269929 0.000842677 0)
(0.267677 0.000774178 0)
(0.265614 0.000711224 0)
(0.263725 0.000652905 0)
(0.261998 0.000598543 0)
(0.260421 0.000547641 0)
(0.258985 0.000499838 0)
(0.257681 0.000454869 0)
(0.2565 0.000412558 0)
(0.255434 0.000372786 0)
(0.254476 0.000335465 0)
(0.25362 0.000300542 0)
(0.252857 0.000267968 0)
(0.252181 0.000237685 0)
(0.251585 0.000209542 0)
(0.457297 0.00374189 0)
(0.451682 0.00338836 0)
(0.446592 0.00308071 0)
(0.441962 0.00280985 0)
(0.437742 0.00256867 0)
(0.433888 0.00235164 0)
(0.430364 0.00215438 0)
(0.427143 0.00197352 0)
(0.424199 0.00180645 0)
(0.421511 0.0016512 0)
(0.419062 0.00150633 0)
(0.416835 0.00137075 0)
(0.414815 0.00124368 0)
(0.41299 0.00112458 0)
(0.411346 0.00101304 0)
(0.409871 0.000908786 0)
(0.408554 0.000811596 0)
(0.407383 0.00072129 0)
(0.406347 0.000637756 0)
(0.405436 0.000560478 0)
(0.615213 0.00721107 0)
(0.607934 0.00652595 0)
(0.60133 0.00592862 0)
(0.595321 0.00540214 0)
(0.589841 0.00493315 0)
(0.584836 0.00451114 0)
(0.580261 0.00412782 0)
(0.576078 0.00377672 0)
(0.572255 0.00345282 0)
(0.568766 0.00315231 0)
(0.565586 0.00287234 0)
(0.562694 0.00261076 0)
(0.560071 0.002366 0)
(0.5577 0.00213695 0)
(0.555564 0.0019228 0)
(0.553647 0.00172292 0)
(0.551934 0.00153686 0)
(0.550411 0.00136419 0)
(0.549063 0.00120485 0)
(0.547877 0.00105773 0)
(0.757003 0.0114258 0)
(0.7486 0.0103458 0)
(0.740954 0.00940139 0)
(0.733979 0.00856707 0)
(0.727604 0.00782273 0)
(0.721771 0.00715233 0)
(0.716429 0.00654316 0)
(0.711537 0.0059852 0)
(0.70706 0.00547065 0)
(0.702966 0.0049935 0)
(0.699229 0.00454921 0)
(0.695824 0.00413436 0)
(0.69273 0.00374639 0)
(0.689928 0.00338348 0)
(0.687398 0.00304428 0)
(0.685123 0.00272777 0)
(0.683086 0.0024332 0)
(0.68127 0.00215981 0)
(0.679659 0.00190764 0)
(0.678238 0.00167507 0)
(0.881125 0.0160517 0)
(0.872282 0.0145584 0)
(0.864189 0.0132464 0)
(0.85677 0.0120833 0)
(0.849961 0.0110427 0)
(0.843705 0.0101036 0)
(0.837956 0.00924897 0)
(0.832672 0.0084654 0)
(0.82782 0.0077423 0)
(0.823369 0.00707144 0)
(0.819292 0.00644652 0)
(0.815565 0.00586278 0)
(0.812167 0.00531665 0)
(0.809078 0.0048055 0)
(0.806279 0.00432742 0)
(0.803753 0.00388096 0)
(0.801481 0.0034651 0)
(0.799449 0.0030787 0)
(0.797639 0.00272191 0)
(0.796036 0.00239287 0)
(0.986409 0.0206934 0)
(0.977894 0.0188186 0)
(0.970032 0.0171615 0)
(0.962768 0.015685 0)
(0.956054 0.0143587 0)
(0.949847 0.0131578 0)
(0.944109 0.012062 0)
(0.938808 0.0110551 0)
(0.933913 0.0101244 0)
(0.9294 0.00925958 0)
(0.925245 0.00845292 0)
(0.921428 0.00769841 0)
(0.917929 0.00699157 0)
(0.914733 0.00632906 0)
(0.911821 0.00570843 0)
(0.909178 0.00512788 0)
(0.90679 0.00458613 0)
(0.904642 0.00408178 0)
(0.902717 0.00361496 0)
(0.901005 0.00318401 0)
(1.07238 0.0249294 0)
(1.06495 0.022753 0)
(1.058 0.0208148 0)
(1.05151 0.019077 0)
(1.04544 0.0175074 0)
(1.03978 0.0160798 0)
(1.0345 0.0147721 0)
(1.02958 0.0135667 0)
(1.02501 0.0124492 0)
(1.02076 0.0114083 0)
(1.01682 0.0104351 0)
(1.01317 0.0095229 0)
(1.00981 0.00866641 0)
(1.00671 0.00786184 0)
(1.00387 0.00710633 0)
(1.00128 0.00639787 0)
(0.998918 0.005735 0)
(0.996779 0.00511634 0)
(0.994849 0.00454172 0)
(0.993121 0.00401003 0)
(1.13946 0.0283754 0)
(1.13378 0.026012 0)
(1.12834 0.0238891 0)
(1.12316 0.0219711 0)
(1.11825 0.0202275 0)
(1.1136 0.0186324 0)
(1.10921 0.0171642 0)
(1.10507 0.0158048 0)
(1.10117 0.0145398 0)
(1.09751 0.0133575 0)
(1.09409 0.0122485 0)
(1.09088 0.0112058 0)
(1.0879 0.0102239 0)
(1.08513 0.00929874 0)
(1.08257 0.0084273 0)
(1.0802 0.00760757 0)
(1.07803 0.00683798 0)
(1.07605 0.00611754 0)
(1.07424 0.00544556 0)
(1.07261 0.00482163 0)
(1.18904 0.0307399 0)
(1.18554 0.0283193 0)
(1.18206 0.0261243 0)
(1.17863 0.0241242 0)
(1.17527 0.0222922 0)
(1.17201 0.020605 0)
(1.16886 0.0190427 0)
(1.16584 0.0175887 0)
(1.16293 0.0162292 0)
(1.16016 0.014953 0)
(1.15753 0.0137512 0)
(1.15502 0.0126169 0)
(1.15266 0.0115448 0)
(1.15044 0.0105309 0)
(1.14835 0.00957229 0)
(1.1464 0.00866725 0)
(1.14459 0.00781418 0)
(1.14291 0.00701279 0)
(1.14137 0.0062618 0)
(1.13996 0.00556144 0)
(1.22329 0.0318588 0)
(1.22219 0.0295052 0)
(1.22089 0.0273493 0)
(1.21945 0.025367 0)
(1.2179 0.0235363 0)
(1.21629 0.0218378 0)
(1.21463 0.0202545 0)
(1.21297 0.018772 0)
(1.2113 0.0173782 0)
(1.20964 0.0160632 0)
(1.20802 0.0148191 0)
(1.20643 0.0136395 0)
(1.20489 0.0125197 0)
(1.2034 0.0114562 0)
(1.20197 0.0104466 0)
(1.20061 0.00948928 0)
(1.19931 0.00858295 0)
(1.19809 0.0077282 0)
(1.19695 0.00692323 0)
(1.19588 0.00616881 0)
(1.24489 0.0317013 0)
(1.24617 0.0295167 0)
(1.24708 0.0274954 0)
(1.24769 0.0256194 0)
(1.24804 0.0238721 0)
(1.24818 0.0222381 0)
(1.24814 0.020704 0)
(1.24797 0.0192581 0)
(1.24767 0.0178904 0)
(1.24729 0.0165928 0)
(1.24682 0.0153586 0)
(1.24629 0.0141826 0)
(1.24572 0.0130609 0)
(1.24511 0.0119905 0)
(1.24448 0.0109696 0)
(1.24384 0.00999724 0)
(1.24319 0.00907225 0)
(1.24255 0.00819619 0)
(1.24192 0.00736698 0)
(1.24132 0.00658583 0)
(1.25675 0.0303506 0)
(1.2602 0.0284064 0)
(1.26316 0.0265899 0)
(1.26571 0.0248887 0)
(1.26789 0.0232905 0)
(1.26975 0.021784 0)
(1.27133 0.0203591 0)
(1.27266 0.0190068 0)
(1.27378 0.0177195 0)
(1.27471 0.0164909 0)
(1.27546 0.0153156 0)
(1.27607 0.0141899 0)
(1.27654 0.0131105 0)
(1.2769 0.0120754 0)
(1.27715 0.0110833 0)
(1.27732 0.0101339 0)
(1.27741 0.00922624 0)
(1.27744 0.00836274 0)
(1.27742 0.00754133 0)
(1.27735 0.00676368 0)
(1.26162 0.0279683 0)
(1.26691 0.0263041 0)
(1.27166 0.0247354 0)
(1.27592 0.0232536 0)
(1.27975 0.02185 0)
(1.28318 0.0205167 0)
(1.28626 0.0192463 0)
(1.28902 0.0180323 0)
(1.29149 0.0168691 0)
(1.29369 0.0157522 0)
(1.29564 0.0146776 0)
(1.29738 0.0136426 0)
(1.29891 0.012645 0)
(1.30025 0.0116835 0)
(1.30142 0.0107573 0)
(1.30243 0.00986651 0)
(1.30331 0.00901087 0)
(1.30405 0.00819299 0)
(1.30468 0.00741125 0)
(1.30521 0.00666797 0)
(1.26195 0.0247546 0)
(1.2687 0.0233833 0)
(1.2749 0.0220805 0)
(1.28058 0.0208405 0)
(1.2858 0.0196571 0)
(1.29059 0.0185248 0)
(1.29498 0.0174383 0)
(1.299 0.0163931 0)
(1.30269 0.0153855 0)
(1.30605 0.014412 0)
(1.30911 0.0134703 0)
(1.3119 0.0125582 0)
(1.31443 0.0116746 0)
(1.31671 0.0108185 0)
(1.31877 0.00999002 0)
(1.32061 0.0091892 0)
(1.32226 0.00841659 0)
(1.32371 0.00767447 0)
(1.32501 0.00696193 0)
(1.32613 0.00628244 0)
(1.25974 0.0209136 0)
(1.26758 0.019829 0)
(1.27487 0.0187921 0)
(1.28167 0.0177986 0)
(1.28799 0.0168444 0)
(1.29388 0.0159253 0)
(1.29935 0.015038 0)
(1.30443 0.0141791 0)
(1.30914 0.0133463 0)
(1.3135 0.0125372 0)
(1.31753 0.0117503 0)
(1.32124 0.0109844 0)
(1.32466 0.0102388 0)
(1.32779 0.00951285 0)
(1.33065 0.00880723 0)
(1.33325 0.00812191 0)
(1.33561 0.00745827 0)
(1.33774 0.00681751 0)
(1.33966 0.00619991 0)
(1.34136 0.00561049 0)
(1.25649 0.0166287 0)
(1.26508 0.0158143 0)
(1.27317 0.0150319 0)
(1.28078 0.0142784 0)
(1.28793 0.0135508 0)
(1.29465 0.0128463 0)
(1.30095 0.0121623 0)
(1.30686 0.0114969 0)
(1.31239 0.0108483 0)
(1.31756 0.0102151 0)
(1.32238 0.00959647 0)
(1.32686 0.00899152 0)
(1.33101 0.0084001 0)
(1.33486 0.00782184 0)
(1.3384 0.00725766 0)
(1.34166 0.00670718 0)
(1.34463 0.00617273 0)
(1.34734 0.00565381 0)
(1.3498 0.00515214 0)
(1.35201 0.00467449 0)
(1.25327 0.0120501 0)
(1.26235 0.0114862 0)
(1.27097 0.0109427 0)
(1.27913 0.0104174 0)
(1.28686 0.00990801 0)
(1.29416 0.00941267 0)
(1.30107 0.00892981 0)
(1.30758 0.00845806 0)
(1.31372 0.00799635 0)
(1.31949 0.00754386 0)
(1.3249 0.00710006 0)
(1.32996 0.00666447 0)
(1.33469 0.00623715 0)
(1.33908 0.00581783 0)
(1.34316 0.0054076 0)
(1.34693 0.00500565 0)
(1.35039 0.00461496 0)
(1.35356 0.00423336 0)
(1.35646 0.00386318 0)
(1.35908 0.0035136 0)
(1.25078 0.00729247 0)
(1.26016 0.00696186 0)
(1.26909 0.00664255 0)
(1.27759 0.00633321 0)
(1.28567 0.00603247 0)
(1.29335 0.00573918 0)
(1.30064 0.00545242 0)
(1.30754 0.00517147 0)
(1.31407 0.00489574 0)
(1.32024 0.00462473 0)
(1.32604 0.00435821 0)
(1.3315 0.00409594 0)
(1.33661 0.00383802 0)
(1.34138 0.00358426 0)
(1.34582 0.00333551 0)
(1.34994 0.00309105 0)
(1.35374 0.00285344 0)
(1.35723 0.00262022 0)
(1.36043 0.002393 0)
(1.36333 0.00218012 0)
(1.24944 0.00244055 0)
(1.25895 0.00233174 0)
(1.26803 0.00222653 0)
(1.27669 0.00212448 0)
(1.28494 0.00202513 0)
(1.2928 0.00192812 0)
(1.30027 0.00183314 0)
(1.30737 0.00173996 0)
(1.31409 0.00164838 0)
(1.32045 0.00155823 0)
(1.32645 0.00146946 0)
(1.3321 0.00138197 0)
(1.33741 0.00129581 0)
(1.34237 0.00121093 0)
(1.34699 0.00112761 0)
(1.35129 0.0010456 0)
(1.35526 0.000965966 0)
(1.35892 0.000887552 0)
(1.36227 0.000810942 0)
(1.36532 0.000738996 0)
)
;

boundaryField
{
    fixedWalls
    {
        type            noSlip;
    }
    inlet
    {
        type            fixedValue;
        value           nonuniform 0();
    }
    outlet
    {
        type            zeroGradient;
    }
    frontAndBack
    {
        type            empty;
    }
    procBoundary1to0
    {
        type            processor;
        value           nonuniform List<vector> 
20
(
(0.100466 0.000230193 0)
(0.288767 0.00146705 0)
(0.463519 0.00415278 0)
(0.623267 0.00800518 0)
(0.766263 0.0126725 0)
(0.890806 0.0177662 0)
(0.995636 0.0228304 0)
(1.0803 0.0273889 0)
(1.14539 0.0310199 0)
(1.19251 0.0334197 0)
(1.22411 0.0344361 0)
(1.24316 0.0340677 0)
(1.25274 0.032435 0)
(1.25572 0.029736 0)
(1.2546 0.0261999 0)
(1.25133 0.0220495 0)
(1.24736 0.0174777 0)
(1.24368 0.012636 0)
(1.24094 0.00763529 0)
(1.23949 0.00255332 0)
)
;
    }
    procBoundary1to2
    {
        type            processor;
        value           nonuniform List<vector> 
20
(
(0.0869176 3.30055e-05 0)
(0.251064 0.000183699 0)
(0.40464 0.000489616 0)
(0.546839 0.000922723 0)
(0.676992 0.0014613 0)
(0.794623 0.00208998 0)
(0.899486 0.00278679 0)
(0.991577 0.00351936 0)
(1.07114 0.00424497 0)
(1.13868 0.00491283 0)
(1.1949 0.00546817 0)
(1.24073 0.00585776 0)
(1.27725 0.0060357 0)
(1.30564 0.00596858 0)
(1.32712 0.00563922 0)
(1.34287 0.0050484 0)
(1.35399 0.0042149 0)
(1.36144 0.00317385 0)
(1.36598 0.00197248 0)
(1.36811 0.000669435 0)
)
;
    }
    procBoundary1to5
    {
        type            processor;
        value           nonuniform List<vector> 
20
(
(1.24944 -0.00244055 0)
(1.25895 -0.00233158 0)
(1.26803 -0.00222625 0)
(1.27669 -0.00212417 0)
(1.28494 -0.00202479 0)
(1.2928 -0.00192768 0)
(1.30027 -0.00183253 0)
(1.30737 -0.00173918 0)
(1.31409 -0.00164743 0)
(1.32045 -0.00155713 0)
(1.32645 -0.00146819 0)
(1.3321 -0.0013806 0)
(1.33741 -0.00129437 0)
(1.34237 -0.00120939 0)
(1.34699 -0.00112606 0)
(1.35129 -0.00104402 0)
(1.35526 -0.000964267 0)
(1.35892 -0.000885864 0)
(1.36228 -0.000808944 0)
(1.36532 -0.00073815 0)
)
;
    }
}


// ************************************************************************* //
