/*--------------------------------*- C++ -*----------------------------------*\
| =========                 |                                                 |
| \\      /  F ield         | OpenFOAM: The Open Source CFD Toolbox           |
|  \\    /   O peration     | Version:                                        |
|   \\  /    A nd           | Website:  www.openfoam.com                      |
|    \\/     M anipulation  |                                                 |
\*---------------------------------------------------------------------------*/
FoamFile
{
    version     2.0;
    format      ascii;
    class       volScalarField;
    location    "7.8";
    object      p;
}
// * * * * * * * * * * * * * * * * * * * * * * * * * * * * * * * * * * * * * //

dimensions      [0 2 -2 0 0 0 0];


internalField   nonuniform List<scalar> 
1147
(
-0.321736
-0.316493
-0.303363
-0.298377
-0.302302
-0.306164
-0.310001
-0.315925
-0.34275
-0.355683
-0.320196
-0.320306
-0.308129
-0.301592
-0.303849
-0.305819
-0.310564
-0.307455
-0.316981
-0.343404
-0.320562
-0.320384
-0.31025
-0.304259
-0.306524
-0.304957
-0.301436
-0.308051
-0.312162
-0.315085
-0.313826
-0.306992
-0.303053
-0.30351
-0.305454
-0.304067
-0.300911
-0.299798
-0.297177
-0.290138
-0.301095
-0.281954
-0.285717
-0.294984
-0.300558
-0.298533
-0.294192
-0.288458
-0.280664
-0.269436
-0.290218
-0.261375
-0.269531
-0.283324
-0.290064
-0.288854
-0.284071
-0.276293
-0.265614
-0.252151
-0.287458
-0.257312
-0.263643
-0.274628
-0.279886
-0.278686
-0.273436
-0.264378
-0.252041
-0.237083
-0.297711
-0.271016
-0.268963
-0.273481
-0.274096
-0.270633
-0.263908
-0.253254
-0.239722
-0.223439
-0.3246
-0.296314
-0.285393
-0.280118
-0.273181
-0.265717
-0.255981
-0.243436
-0.228534
-0.211071
-0.36503
-0.329195
-0.308415
-0.29163
-0.276318
-0.263587
-0.249917
-0.235135
-0.218589
-0.2
-0.364452
-0.332234
-0.304389
-0.281447
-0.263268
-0.245398
-0.228305
-0.209867
-0.190188
-0.396186
-0.352857
-0.315151
-0.286878
-0.263269
-0.241861
-0.222464
-0.202178
-0.181549
-0.367414
-0.323032
-0.290566
-0.262577
-0.238706
-0.217026
-0.195437
-0.173806
-0.375265
-0.327427
-0.291686
-0.260738
-0.235163
-0.211831
-0.1892
-0.166919
-0.328542
-0.290291
-0.257408
-0.231054
-0.20627
-0.183327
-0.160468
-0.326233
-0.286004
-0.253029
-0.225898
-0.200417
-0.177563
-0.154355
-0.319796
-0.279589
-0.247562
-0.220014
-0.194497
-0.171815
-0.148655
-0.271262
-0.24101
-0.213237
-0.188479
-0.165987
-0.143295
-0.262159
-0.233634
-0.205708
-0.18263
-0.159754
-0.138548
-0.25418
-0.225463
-0.198346
-0.176005
-0.153334
-0.133868
-0.0941757
-0.142641
-0.213664
-0.284876
-0.336403
-0.358057
-0.351247
-0.335751
-0.330255
-0.328169
-0.127334
-0.169342
-0.231945
-0.293629
-0.338371
-0.361282
-0.359933
-0.344112
-0.331305
-0.323276
-0.178969
-0.214824
-0.269713
-0.324266
-0.366004
-0.387134
-0.386216
-0.367287
-0.343622
-0.326964
-0.27278
-0.320735
-0.368516
-0.405776
-0.42359
-0.420421
-0.397736
-0.364229
-0.332246
-0.467596
-0.459996
-0.431915
-0.388173
-0.338001
-0.50348
-0.468503
-0.414746
-0.346627
-0.507086
-0.443754
-0.36159
-0.475647
-0.383819
-0.412275
-0.129389
-0.125185
-0.119521
-0.112906
-0.105304
-0.0977274
-0.0900571
-0.0826459
-0.0755411
-0.0688167
-0.0625718
-0.056706
-0.0511876
-0.046019
-0.0412241
-0.0367735
-0.0327076
-0.0289921
-0.0255664
-0.0224747
-0.019731
-0.0172503
-0.0150987
-0.0132244
-0.0116051
-0.010262
-0.00917776
-0.00836758
-0.00781664
-0.00751979
-0.147909
-0.142303
-0.13338
-0.123853
-0.114037
-0.104999
-0.0961633
-0.0876461
-0.0794246
-0.0717251
-0.0647461
-0.0583049
-0.0523459
-0.0468355
-0.0417642
-0.0371015
-0.0329103
-0.0291325
-0.0256594
-0.0225803
-0.0198572
-0.0173811
-0.0152566
-0.0133833
-0.0117673
-0.0104206
-0.00932961
-0.00852386
-0.00799217
-0.00771637
-0.168773
-0.160052
-0.147439
-0.134667
-0.122447
-0.111893
-0.101991
-0.0924042
-0.0831709
-0.0746608
-0.0669639
-0.0598297
-0.0533546
-0.0474947
-0.0421714
-0.0373359
-0.0330531
-0.0291861
-0.0256541
-0.0226101
-0.019885
-0.0174257
-0.0153427
-0.0134735
-0.0118807
-0.0105413
-0.0094548
-0.0086627
-0.00815575
-0.00790596
-0.191784
-0.180034
-0.162536
-0.146213
-0.131957
-0.11999
-0.108635
-0.0974841
-0.0871291
-0.0779238
-0.0695461
-0.0616786
-0.0546264
-0.0483402
-0.0427038
-0.037694
-0.0333016
-0.029282
-0.0257066
-0.0226859
-0.0199073
-0.0174886
-0.0154356
-0.0135723
-0.0120178
-0.0106881
-0.00960844
-0.00882282
-0.00832764
-0.00809492
-0.216794
-0.201281
-0.179209
-0.158777
-0.142312
-0.129058
-0.11595
-0.102972
-0.0915435
-0.08166
-0.0725106
-0.0639266
-0.0563662
-0.0496399
-0.043655
-0.0384099
-0.0338064
-0.0295972
-0.0260085
-0.0229194
-0.020051
-0.017689
-0.0156171
-0.0137624
-0.0122435
-0.010915
-0.00983658
-0.00903903
-0.00853084
-0.00829531
-0.0755914
-0.0663371
-0.0583777
-0.0512357
-0.0448872
-0.0393459
-0.0344507
-0.0300885
-0.0264436
-0.0231654
-0.0202388
-0.0179116
-0.0157698
-0.013949
-0.0124623
-0.0111471
-0.0100877
-0.00928373
-0.00875614
-0.00850604
0.0653775
0.0490813
0.0336202
0.015949
-0.00424488
-0.0243592
-0.0470508
-0.0686786
-0.0920607
-0.112842
0.0693091
0.0523788
0.0360326
0.0175394
-0.0045735
-0.0261915
-0.0496898
-0.0729832
-0.0955819
-0.117265
0.0735791
0.0546147
0.0353855
0.0157051
-0.00723973
-0.0308686
-0.0541006
-0.0774615
-0.0995526
-0.122011
0.078145
0.056651
0.0342334
0.0122348
-0.0108884
-0.0352297
-0.0586385
-0.0819049
-0.104027
-0.126744
0.0820294
0.058328
0.0335157
0.00889177
-0.0150112
-0.0394528
-0.0632367
-0.0865416
-0.109087
-0.131759
0.0847236
0.0589352
0.0326815
0.00608109
-0.0193472
-0.0439795
-0.0683928
-0.0918533
-0.115035
-0.1375
0.0864908
0.0583943
0.0307144
0.00302492
-0.024062
-0.049447
-0.0743954
-0.0982504
-0.121716
-0.144154
0.0876428
0.0570748
0.0274886
-0.00123518
-0.0295228
-0.0561251
-0.0814816
-0.10574
-0.129135
-0.151579
0.0879522
0.0550798
0.0231746
-0.00706277
-0.0362689
-0.0639904
-0.0899012
-0.114348
-0.137653
-0.159843
0.0869526
0.0518572
0.0176884
-0.0144947
-0.0446933
-0.073275
-0.0997357
-0.124374
-0.147449
-0.16931
0.0843004
0.0467697
0.0104829
-0.0236711
-0.0551304
-0.084355
-0.111211
-0.135926
-0.158699
-0.180012
0.0797612
0.039422
0.000944727
-0.0350683
-0.0678594
-0.097694
-0.124653
-0.149216
-0.171469
-0.192047
0.0728905
0.0293667
-0.0115334
-0.0493643
-0.0833802
-0.113628
-0.140579
-0.164587
-0.185976
-0.205487
0.0628796
0.0159369
-0.0276699
-0.0672978
-0.102496
-0.133081
-0.159619
-0.182514
-0.202509
-0.220443
0.0486801
-0.00194055
-0.0483663
-0.0897925
-0.125934
-0.156583
-0.18233
-0.203655
-0.221544
-0.237312
0.0290541
-0.0256077
-0.0747897
-0.117741
-0.154281
-0.184603
-0.209101
-0.228442
-0.24387
-0.256891
0.0020714
-0.0573406
-0.109401
-0.153332
-0.189365
-0.218123
-0.239981
-0.256841
-0.269971
-0.280792
-0.0335951
-0.0982604
-0.154481
-0.200415
-0.234516
-0.25861
-0.274471
-0.286725
-0.298233
-0.309757
-0.0793048
-0.147185
-0.206036
-0.253698
-0.286729
-0.304109
-0.308678
-0.30837
-0.315134
-0.337496
-0.160967
-0.235326
-0.293825
-0.333452
-0.354584
-0.356811
-0.34374
-0.32117
-0.31164
-0.330526
0.148199
0.131111
0.111586
0.0889931
0.166746
0.150029
0.131014
0.110816
0.0887705
0.200813
0.188044
0.172686
0.15487
0.13478
0.114253
0.0934111
0.23277
0.22891
0.221543
0.210964
0.197269
0.180931
0.16246
0.141733
0.12064
0.0994988
0.246137
0.241926
0.234038
0.222796
0.208367
0.191084
0.171891
0.150442
0.128069
0.105383
0.260795
0.256321
0.247972
0.236087
0.220864
0.202453
0.182127
0.159553
0.135465
0.110483
0.276766
0.27204
0.263152
0.25046
0.234242
0.214423
0.192525
0.168294
0.142211
0.114802
0.293963
0.288918
0.27935
0.265602
0.248133
0.226633
0.202785
0.176388
0.148009
0.118334
0.312261
0.30679
0.296387
0.281318
0.262355
0.238902
0.212761
0.183863
0.152868
0.120857
0.331576
0.325569
0.31419
0.297532
0.276836
0.251184
0.222388
0.190854
0.156954
0.122248
0.351858
0.345221
0.332748
0.314234
0.291507
0.263441
0.231641
0.197288
0.160268
0.122421
0.373082
0.365705
0.352044
0.331448
0.306244
0.275573
0.240439
0.202892
0.16254
0.121149
0.395176
0.386927
0.371943
0.349123
0.320876
0.287321
0.248522
0.20718
0.163202
0.117906
0.417996
0.408742
0.392179
0.367062
0.335246
0.298258
0.255446
0.209564
0.161432
0.111914
0.441226
0.430925
0.412276
0.384749
0.349042
0.30779
0.260529
0.209445
0.156325
0.102165
0.464362
0.453089
0.431769
0.401352
0.361486
0.315166
0.262756
0.205975
0.14698
0.0874543
0.486526
0.474364
0.449962
0.415849
0.371268
0.319137
0.260655
0.197465
0.131907
0.0660638
0.50661
0.493347
0.465699
0.427018
0.377146
0.318269
0.252741
0.18206
0.109306
0.0364129
0.52275
0.507395
0.476442
0.432204
0.376056
0.309199
0.235072
0.155706
0.0750122
-0.00450101
0.533322
0.515134
0.481106
0.431244
0.367252
0.290215
0.203869
0.111703
0.0172823
-0.0748505
0.100088
0.132253
0.115223
0.0953585
0.0836006
0.0695129
0.0584643
0.0490079
0.0403307
0.0323242
0.0250935
0.0186335
0.0129014
0.00760013
0.0029443
-0.000984209
-0.00416549
-0.00670679
-0.00854302
-0.00974214
-0.0104481
-0.0107105
-0.0106201
-0.0102531
-0.00968277
-0.00897537
-0.00818775
-0.00737273
-0.0065716
-0.00581325
-0.00511658
-0.00449387
-0.0039778
-0.00367019
0.0744883
0.062036
0.0524294
0.0437295
0.0355894
0.0279413
0.0207946
0.014309
0.00855625
0.0034244
-0.00101268
-0.00474555
-0.00783581
-0.010245
-0.0118878
-0.0128755
-0.0132905
-0.0132363
-0.012826
-0.0121507
-0.011295
-0.0103273
-0.0093078
-0.00829067
-0.00731944
-0.0064257
-0.00562588
-0.00492891
-0.00436392
-0.00403034
0.0612574
0.0545644
0.0471431
0.0393496
0.0318228
0.0246174
0.0177209
0.011222
0.00525879
7.02116e-05
-0.00453544
-0.00842786
-0.0116055
-0.0139184
-0.0154268
-0.0162168
-0.0163534
-0.0159936
-0.0152493
-0.0142406
-0.013066
-0.0118014
-0.0105132
-0.00925871
-0.00808653
-0.00703309
-0.00611425
-0.00533602
-0.00472637
-0.00437702
0.0440727
0.0384273
0.0335036
0.0273836
0.0213912
0.0153925
0.00967924
0.00422332
-0.000911848
-0.00541996
-0.00968658
-0.0134207
-0.0164416
-0.0184008
-0.0195348
-0.0198985
-0.0196185
-0.0188633
-0.0177362
-0.0163709
-0.0148657
-0.0133005
-0.0117435
-0.0102513
-0.00887652
-0.00766056
-0.00662118
-0.00576134
-0.00510654
-0.00473938
0.0269032
0.0184061
0.0134087
0.00791337
0.00333112
-0.00138354
-0.00570041
-0.00960465
-0.0130471
-0.0158188
-0.0183897
-0.0206759
-0.0225167
-0.0234267
-0.023676
-0.0232594
-0.0223636
-0.0211201
-0.0196117
-0.017947
-0.0161991
-0.0144329
-0.0127042
-0.0110617
-0.009555
-0.00822823
-0.00710435
-0.00618648
-0.00549626
-0.0051089
0.0107125
0.00220808
-0.00398031
-0.0105826
-0.0151401
-0.0192912
-0.0226946
-0.0254626
-0.0276162
-0.0288235
-0.029369
-0.0293695
-0.0291892
-0.0285033
-0.0275247
-0.0261495
-0.0245407
-0.0227661
-0.0208842
-0.0189654
-0.0170455
-0.0151639
-0.0133538
-0.0116478
-0.0100847
-0.00870632
-0.0075406
-0.00659407
-0.00588385
-0.00547869
-0.00714321
-0.0139764
-0.0188457
-0.0254855
-0.0302436
-0.034296
-0.0370442
-0.0389004
-0.0399724
-0.0400685
-0.0392184
-0.037425
-0.0354039
-0.0331578
-0.0309589
-0.0286598
-0.0263695
-0.0240861
-0.0218445
-0.0196815
-0.0176066
-0.0156366
-0.0137812
-0.0120552
-0.0104811
-0.00909257
-0.00791856
-0.00696873
-0.00625519
-0.00583933
-0.0272421
-0.0325876
-0.0347623
-0.0395597
-0.0429514
-0.0461449
-0.0478481
-0.048552
-0.0483591
-0.0474086
-0.0457307
-0.0431478
-0.0401872
-0.0369643
-0.0338733
-0.0308428
-0.0279812
-0.0252547
-0.0226819
-0.0202787
-0.0180418
-0.0159744
-0.0140717
-0.0123344
-0.0107672
-0.00939243
-0.00823352
-0.00729968
-0.00659724
-0.0061822
-0.0484809
-0.0523219
-0.0525735
-0.0549732
-0.055744
-0.0568033
-0.0567789
-0.0560498
-0.0544552
-0.052284
-0.0497393
-0.0466936
-0.0433948
-0.0397831
-0.0362235
-0.0327201
-0.0294305
-0.0263435
-0.0234796
-0.0208475
-0.0184427
-0.0162619
-0.0142954
-0.0125366
-0.0109746
-0.00962121
-0.00848946
-0.00758429
-0.00690527
-0.00650392
-0.0691766
-0.0719818
-0.0710691
-0.0713292
-0.069385
-0.0678616
-0.0656951
-0.0632145
-0.0601503
-0.0566824
-0.0530528
-0.0493112
-0.0456316
-0.0417929
-0.0380034
-0.0342339
-0.0306632
-0.0273121
-0.0242114
-0.0213816
-0.0188233
-0.0165265
-0.0144872
-0.0126955
-0.0111283
-0.00979328
-0.00869094
-0.0078215
-0.00717677
-0.00680047
-0.090423
-0.090695
-0.0886877
-0.0869528
-0.0828689
-0.0788684
-0.0744872
-0.0702168
-0.0657473
-0.0611369
-0.0564818
-0.0518994
-0.0475865
-0.0433672
-0.0393232
-0.0353592
-0.0316109
-0.0280935
-0.0248312
-0.0218611
-0.0191925
-0.0168013
-0.0146992
-0.0128711
-0.0112868
-0.00995681
-0.00887129
-0.00802977
-0.00741832
-0.00706848
-0.11008
-0.108297
-0.104821
-0.100677
-0.095034
-0.0890624
-0.0828482
-0.0768096
-0.0709521
-0.0652802
-0.0597858
-0.0544974
-0.0495177
-0.0448036
-0.0403902
-0.0361975
-0.0322934
-0.0286668
-0.0253036
-0.0222485
-0.0195191
-0.0170633
-0.0149192
-0.013059
-0.0114515
-0.0101146
-0.0090325
-0.00820978
-0.00763047
-0.00730768
)
;

boundaryField
{
    outlet
    {
        type            fixedValue;
        value           nonuniform 0();
    }
    upperWall
    {
        type            symmetryPlane;
    }
    lowerWall
    {
        type            symmetryPlane;
    }
    inlet
    {
        type            zeroGradient;
    }
    cylinder
    {
        type            zeroGradient;
    }
    frontAndBack
    {
        type            empty;
    }
    procBoundary1to0
    {
        type            processor;
        value           nonuniform List<scalar> 
45
(
0.163002
0.163002
0.146506
0.192281
0.180825
0.180825
0.220543
0.217155
0.210524
0.210524
0.101144
0.129961
0.116536
0.116536
0.146506
0.088904
0.0760143
0.0641686
0.0540312
0.0452653
0.0372832
0.0299861
0.0232898
0.0172181
0.0115997
0.00668067
0.00257244
-0.000684634
-0.00328247
-0.00532474
-0.00677925
-0.00778361
-0.00836516
-0.00857436
-0.00848659
-0.00816804
-0.0076861
-0.00709687
-0.00645188
-0.00579238
-0.00514756
-0.00453969
-0.00398654
-0.00352789
-0.00325891
)
;
    }
    procBoundary1to2
    {
        type            processor;
        value           nonuniform List<scalar> 
63
(
-0.408144
-0.44558
-0.408144
-0.448234
-0.421119
-0.421119
-0.436704
-0.376222
-0.376222
-0.372747
-0.365853
-0.311094
-0.311094
-0.299327
-0.28685
-0.246221
-0.241354
-0.241354
-0.337901
-0.379716
-0.421903
-0.454241
-0.454241
-0.516866
-0.516866
-0.550159
-0.550159
-0.547752
-0.547752
-0.51072
-0.51072
-0.44558
-0.246221
-0.225022
-0.196197
-0.172076
-0.154455
-0.139631
-0.123755
-0.108762
-0.0964814
-0.0857613
-0.0857613
-0.0787369
-0.0689449
-0.0605815
-0.0529613
-0.046236
-0.0403886
-0.0352325
-0.0307682
-0.0269571
-0.0234586
-0.0205546
-0.0181835
-0.0159589
-0.0141942
-0.0127153
-0.011418
-0.0103791
-0.00956351
-0.00900376
-0.00872096
)
;
    }
    procBoundary1to5
    {
        type            processor;
        value           nonuniform List<scalar> 
20
(
-0.0941756
-0.127334
-0.178969
0.23277
0.246137
0.260795
0.276766
0.293963
0.312261
0.331576
0.351858
0.373082
0.395176
0.417996
0.441226
0.464362
0.486526
0.50661
0.52275
0.533322
)
;
    }
}


// ************************************************************************* //
