/*--------------------------------*- C++ -*----------------------------------*\
| =========                 |                                                 |
| \\      /  F ield         | OpenFOAM: The Open Source CFD Toolbox           |
|  \\    /   O peration     | Version:                                        |
|   \\  /    A nd           | Website:  www.openfoam.com                      |
|    \\/     M anipulation  |                                                 |
\*---------------------------------------------------------------------------*/
FoamFile
{
    version     2.0;
    format      ascii;
    class       volVectorField;
    location    "171";
    object      U;
}
// * * * * * * * * * * * * * * * * * * * * * * * * * * * * * * * * * * * * * //

dimensions      [0 1 -1 0 0 0 0];


internalField   nonuniform List<vector> 
1136
(
(0.610506 -0.858278 -2.97919e-22)
(0.597942 -0.83776 6.76976e-22)
(0.668815 -0.885288 -1.67483e-21)
(0.579203 -0.85543 -1.85928e-22)
(0.447684 -0.699583 2.4758e-21)
(0.368191 -0.570659 -1.27941e-21)
(0.463792 0.0246529 6.59935e-22)
(0.385761 0.299312 -2.18534e-21)
(0.625443 0.58798 1.36709e-21)
(0.592092 0.761387 3.82197e-22)
(0.568501 0.641478 -1.64751e-21)
(0.47358 0.799323 2.13132e-21)
(0.650031 0.300819 -1.17441e-21)
(0.57027 -0.0794424 1.27156e-21)
(0.756712 -0.277346 -9.30301e-22)
(0.755506 -0.757093 -1.57444e-24)
(0.705765 -0.594857 -1.88143e-22)
(0.679613 -0.543993 2.69851e-22)
(0.804909 -0.241988 4.46648e-22)
(0.870402 0.45036 -3.63006e-22)
(0.8817 0.494407 -1.84721e-22)
(0.845356 0.703965 -5.80611e-23)
(0.922006 0.459593 -3.28829e-22)
(0.999026 -0.359504 3.30284e-23)
(1.02035 -0.461342 -2.26279e-23)
(0.995928 -0.621625 -1.17659e-23)
(1.00809 -0.393222 -2.4992e-22)
(1.08928 0.640128 5.07584e-22)
(1.05913 0.563159 6.83094e-23)
(1.00442 -0.00419298 -2.87018e-24)
(0.730293 -0.894521 6.74046e-21)
(0.654265 -0.865524 -1.64821e-20)
(0.714751 -0.860373 3.9794e-21)
(0.570909 -0.782092 -2.39435e-21)
(0.456553 -0.638352 2.76063e-22)
(0.338675 -0.569561 8.76723e-21)
(0.388985 0.0187654 -1.03037e-20)
(0.362423 0.247944 3.53858e-22)
(0.589642 0.555071 5.88548e-21)
(0.595845 0.754738 -1.86817e-21)
(0.533449 0.643883 1.87076e-22)
(0.445854 0.7685 -2.34842e-22)
(0.670049 0.264249 -2.11672e-21)
(0.59667 -0.137519 -5.43715e-21)
(0.798035 -0.30823 4.89842e-21)
(0.820242 -0.737199 4.68918e-23)
(0.729545 -0.592249 -4.4899e-24)
(0.72176 -0.564646 1.06058e-21)
(0.79874 -0.271744 -3.10304e-21)
(0.84396 0.433742 1.21175e-21)
(0.85545 0.495021 3.71179e-22)
(0.809003 0.706493 1.10054e-22)
(0.914955 0.444412 -2.73985e-22)
(1.01707 -0.368262 -1.64174e-22)
(1.03445 -0.467862 1.48031e-21)
(1.02307 -0.623405 -6.5153e-22)
(1.02362 -0.397522 6.60549e-22)
(1.07939 0.634566 -4.56516e-23)
(1.03846 0.561878 1.24532e-22)
(1.0023 -0.00159163 -1.00825e-23)
(0.860903 -0.874727 -1.66467e-20)
(0.732168 -0.877242 1.4031e-20)
(0.764056 -0.851998 -2.17163e-21)
(0.579688 -0.752548 1.76477e-21)
(0.502209 -0.592414 8.98721e-21)
(0.341598 -0.556245 1.79495e-21)
(0.351008 -0.000732606 -1.97945e-20)
(0.393339 0.177102 1.47393e-21)
(0.570105 0.504804 -9.28317e-23)
(0.611315 0.7757 5.25691e-21)
(0.568588 0.701802 6.66808e-21)
(0.465931 0.777891 -1.71397e-21)
(0.705989 0.280799 -2.06353e-21)
(0.660423 -0.151311 -9.70826e-21)
(0.831963 -0.324355 3.25999e-21)
(0.859839 -0.735504 1.12711e-20)
(0.742537 -0.588523 -8.66238e-21)
(0.756085 -0.561779 1.37034e-21)
(0.78853 -0.276756 2.82262e-22)
(0.817597 0.433797 3.29445e-21)
(0.840321 0.487493 -3.17724e-21)
(0.785967 0.689486 1.38954e-21)
(0.912036 0.420092 1.28493e-21)
(1.0365 -0.372004 1.8305e-21)
(1.04655 -0.47439 -1.85555e-21)
(1.03989 -0.626441 -4.43408e-22)
(1.03718 -0.395792 -5.49911e-23)
(1.06671 0.635657 -1.81464e-21)
(1.0167 0.563932 7.60192e-23)
(0.999486 0.00379424 -3.1911e-23)
(1.00104 -0.832017 1.54741e-20)
(0.843146 -0.858519 2.79781e-20)
(0.830773 -0.804614 -5.37787e-21)
(0.629263 -0.706663 -6.07809e-21)
(0.560853 -0.545467 2.01514e-21)
(0.381793 -0.547485 -1.25212e-21)
(0.371553 -0.043059 1.04695e-20)
(0.438912 0.128652 -4.25828e-21)
(0.549628 0.449928 -1.11994e-21)
(0.646305 0.767635 -8.91726e-21)
(0.591799 0.722465 -6.84991e-21)
(0.46067 0.751083 3.38765e-20)
(0.73228 0.25212 -2.44751e-20)
(0.740546 -0.200997 3.61408e-21)
(0.887542 -0.343576 -1.31216e-21)
(0.931109 -0.705712 -1.83374e-21)
(0.779398 -0.59703 7.53927e-21)
(0.808426 -0.585183 -1.71358e-21)
(0.791075 -0.306982 -2.50979e-21)
(0.800707 0.408574 3.01369e-21)
(0.818832 0.48907 -4.35088e-21)
(0.756572 0.688874 6.07802e-21)
(0.906219 0.400964 -6.53987e-21)
(1.05607 -0.376539 1.28712e-22)
(1.06578 -0.478107 2.00179e-21)
(1.05688 -0.628534 -3.18183e-22)
(1.05188 -0.394839 2.24185e-21)
(1.0492 0.634456 1.50456e-21)
(0.989853 0.560292 -4.02599e-22)
(0.993637 0.00465558 2.75161e-23)
(1.13272 -0.736859 -2.95716e-20)
(0.972541 -0.810862 1.30469e-20)
(0.871833 -0.761483 -4.39555e-21)
(0.708451 -0.669569 -1.58484e-20)
(0.608786 -0.498011 5.32873e-21)
(0.456379 -0.515072 6.70024e-21)
(0.379993 -0.0877021 -1.98575e-21)
(0.504804 0.0754045 -3.95925e-21)
(0.565226 0.364431 -6.06348e-21)
(0.678391 0.779379 1.67865e-20)
(0.677167 0.775821 -1.52944e-20)
(0.548034 0.756248 -1.99961e-21)
(0.791029 0.261821 -1.01033e-20)
(0.845138 -0.219592 2.26118e-20)
(0.933093 -0.349305 -1.36442e-20)
(0.979409 -0.68595 -3.489e-21)
(0.808633 -0.581829 5.1563e-21)
(0.847497 -0.571557 4.16325e-21)
(0.782562 -0.303151 7.56416e-23)
(0.778221 0.413769 -4.64539e-24)
(0.810831 0.484696 3.32587e-21)
(0.744198 0.666492 -4.10928e-21)
(0.907696 0.370176 3.63585e-21)
(1.07297 -0.384121 3.84323e-21)
(1.08251 -0.482923 -3.09177e-21)
(1.06336 -0.632385 -2.81067e-22)
(1.0593 -0.384983 -3.59931e-21)
(1.02605 0.641183 -3.24444e-21)
(0.963298 0.559347 4.06769e-23)
(0.987658 0.00770365 -3.06799e-23)
(1.25594 -0.641661 -1.71286e-19)
(1.10602 -0.732449 4.23212e-20)
(0.930138 -0.701785 4.34436e-20)
(0.838415 -0.63067 -3.37253e-20)
(0.658489 -0.459586 1.40914e-20)
(0.569862 -0.478994 1.67416e-22)
(0.405154 -0.156817 8.53153e-22)
(0.607907 0.0248095 -3.85365e-21)
(0.574193 0.293309 -3.30459e-21)
(0.691604 0.72144 5.35865e-21)
(0.758623 0.779056 8.99892e-21)
(0.593156 0.782067 1.84251e-20)
(0.844516 0.26472 -2.43015e-20)
(0.963042 -0.255238 -1.20683e-20)
(1.00775 -0.359498 8.19222e-21)
(1.04751 -0.647838 -2.45783e-21)
(0.85987 -0.59172 -6.01115e-21)
(0.90123 -0.587468 8.47206e-21)
(0.794496 -0.33114 1.00393e-21)
(0.767292 0.381317 -7.75276e-21)
(0.793098 0.488601 -1.88581e-21)
(0.720766 0.667402 2.8713e-21)
(0.907342 0.350013 -1.62912e-21)
(1.09035 -0.384466 3.03591e-21)
(1.10595 -0.482888 -5.19425e-21)
(1.07217 -0.631648 4.0954e-21)
(1.06539 -0.379958 -1.17809e-21)
(0.997563 0.643352 4.68111e-21)
(0.933643 0.55245 -4.99099e-22)
(0.979858 0.00602411 1.16825e-22)
(1.21076 -0.617978 -2.12498e-20)
(0.996376 -0.639277 2.21649e-20)
(0.938159 -0.588564 -1.32354e-20)
(0.719882 -0.417171 -4.76652e-21)
(0.658067 -0.424122 -4.26555e-21)
(0.423061 -0.206467 4.2311e-21)
(0.645738 -0.030136 2.88101e-21)
(0.620628 0.21889 -3.08302e-21)
(0.724286 0.676799 -7.43878e-21)
(0.831801 0.809902 1.08084e-20)
(0.747221 0.777138 -7.0971e-21)
(0.954796 0.268277 -3.42195e-21)
(1.07453 -0.268892 -7.06109e-21)
(1.06793 -0.352524 1.90807e-22)
(1.08627 -0.606763 1.30546e-20)
(0.889455 -0.56531 -1.27448e-21)
(0.941354 -0.566552 6.02508e-21)
(0.793442 -0.319452 -7.38174e-21)
(0.749963 0.388803 7.72913e-21)
(0.793478 0.482842 -4.66043e-21)
(0.726465 0.640146 2.46945e-21)
(0.922633 0.316091 -3.19555e-21)
(1.10525 -0.39383 1.13803e-22)
(1.12064 -0.484205 2.5014e-21)
(1.07121 -0.632721 -2.02424e-21)
(1.05947 -0.364144 -1.81628e-21)
(0.959937 0.656279 2.15602e-21)
(0.90627 0.546606 2.37683e-23)
(0.972601 0.00631487 -1.85858e-22)
(1.29099 -0.52333 7.20078e-21)
(1.08185 -0.571699 3.09523e-21)
(0.992919 -0.550578 -1.00382e-20)
(0.805671 -0.374167 -5.27971e-22)
(0.704292 -0.357012 -4.22864e-21)
(0.489583 -0.237658 -2.82008e-22)
(0.667207 -0.105462 -2.96021e-21)
(0.71261 0.143168 1.28391e-21)
(0.720219 0.569909 -3.43878e-21)
(0.882495 0.758154 1.05398e-20)
(0.820112 0.821741 1.21368e-20)
(0.99465 0.346507 -8.41127e-21)
(1.16681 -0.263268 9.15451e-21)
(1.15752 -0.343809 -1.86896e-20)
(1.13648 -0.560079 -9.99796e-21)
(0.93757 -0.573432 6.99707e-21)
(0.980319 -0.577567 2.76232e-21)
(0.813777 -0.339323 7.30891e-22)
(0.745743 0.349712 -2.6261e-21)
(0.781567 0.485743 -6.35728e-21)
(0.716305 0.641921 5.27747e-21)
(0.937481 0.299045 1.07433e-21)
(1.12141 -0.389209 -1.44269e-22)
(1.13514 -0.477666 3.3268e-22)
(1.06972 -0.627859 2.9193e-21)
(1.05034 -0.353783 -3.93875e-21)
(0.919455 0.660596 -1.37598e-21)
(0.879181 0.53563 -3.79303e-22)
(0.964135 0.00267257 1.61997e-22)
(1.35521 -0.390512 -5.09349e-20)
(1.1585 -0.481186 1.82422e-20)
(1.03123 -0.517572 7.78076e-21)
(0.908216 -0.345542 -5.2403e-21)
(0.762481 -0.297809 -4.21157e-22)
(0.596708 -0.256878 -3.06577e-21)
(0.642165 -0.177859 9.85173e-22)
(0.755988 0.075306 3.48692e-22)
(0.751165 0.508522 -2.22047e-21)
(0.944482 0.735761 9.64844e-21)
(0.93248 0.787375 1.05346e-20)
(1.12412 0.318448 -2.10081e-20)
(1.25556 -0.281547 8.00655e-21)
(1.22712 -0.335255 1.46329e-20)
(1.16293 -0.50694 -1.32526e-20)
(0.967275 -0.537776 -1.91116e-21)
(1.00409 -0.567029 1.76836e-21)
(0.83799 -0.332324 3.71614e-21)
(0.738311 0.352544 -6.39976e-21)
(0.779262 0.47491 3.51576e-21)
(0.738131 0.61498 1.4363e-21)
(0.971652 0.264264 1.09409e-21)
(1.13832 -0.394915 -5.75835e-21)
(1.13876 -0.474877 2.23136e-21)
(1.05808 -0.624978 1.47114e-21)
(1.02655 -0.332133 -1.84236e-21)
(0.87163 0.675928 2.37446e-21)
(0.857187 0.522634 -2.24121e-22)
(0.956256 0.000174334 -4.53443e-24)
(1.33328 -0.264307 3.51027e-20)
(1.1797 -0.372098 -2.26298e-20)
(1.03042 -0.471206 1.02207e-20)
(0.958927 -0.332107 2.02455e-21)
(0.804375 -0.223789 8.21386e-23)
(0.660245 -0.225985 -1.66435e-21)
(0.630458 -0.226887 1.88793e-22)
(0.78344 -0.0449369 -8.33135e-22)
(0.775868 0.378925 3.95768e-21)
(0.930873 0.643827 -1.16777e-20)
(1.00768 0.814363 2.34239e-20)
(1.1302 0.454395 -5.26633e-20)
(1.29102 -0.193676 3.34031e-21)
(1.2985 -0.297619 3.46026e-21)
(1.21599 -0.454085 1.91622e-20)
(1.01435 -0.524439 4.77766e-21)
(1.02483 -0.551693 3.46736e-21)
(0.859494 -0.350304 -1.17547e-21)
(0.730682 0.309976 -2.76903e-21)
(0.774121 0.467871 8.37941e-22)
(0.745409 0.60412 -1.77777e-21)
(0.994912 0.260223 7.74829e-21)
(1.15479 -0.373832 -8.08234e-21)
(1.14303 -0.464535 5.85561e-21)
(1.04562 -0.617292 1.95021e-21)
(0.998195 -0.320514 -4.61167e-21)
(0.818628 0.682548 -2.12483e-22)
(0.834879 0.507276 7.97492e-22)
(0.947756 -0.00469154 -2.17308e-23)
(1.20973 -0.255481 0)
(1.04674 -0.382784 0)
(0.990147 -0.314693 0)
(0.881283 -0.179198 0)
(0.727386 -0.192724 0)
(0.644109 -0.241748 0)
(0.77641 -0.0965257 0)
(0.793526 0.311585 0)
(0.983352 0.561771 0)
(1.08272 0.737672 0)
(1.22575 0.382447 0)
(1.37765 -0.232342 0)
(1.35072 -0.259361 0)
(1.2449 -0.369967 0)
(1.04299 -0.464399 0)
(1.03692 -0.519789 0)
(0.882481 -0.314402 0)
(0.73475 0.31122 0)
(0.768667 0.460257 0)
(0.757595 0.579401 0)
(1.0448 0.215364 0)
(1.17401 -0.383266 0)
(1.14133 -0.45969 0)
(1.01845 -0.613135 0)
(0.961904 -0.291102 0)
(0.763816 0.695365 0)
(0.822869 0.488379 0)
(0.941994 -0.00990047 0)
(1.19624 -0.239646 0)
(1.04244 -0.365265 0)
(0.966654 -0.27506 0)
(0.896178 -0.103067 0)
(0.773461 -0.152048 0)
(0.646984 -0.219578 0)
(0.762033 -0.108667 0)
(0.790829 0.265172 0)
(1.03453 0.475161 0)
(1.14147 0.667278 0)
(1.33452 0.368353 0)
(1.43412 -0.227119 0)
(1.35422 -0.244337 0)
(1.24145 -0.362755 0)
(1.05271 -0.461869 0)
(1.04316 -0.503739 0)
(0.909928 -0.281819 0)
(0.734134 0.327218 0)
(0.760351 0.445601 0)
(0.787118 0.544723 0)
(1.08657 0.170526 0)
(1.18427 -0.384316 0)
(1.1351 -0.443373 0)
(0.984414 -0.59917 0)
(0.923117 -0.25672 0)
(0.710509 0.716656 0)
(0.815444 0.464771 0)
(0.935701 -0.0167433 0)
(1.23724 -0.144384 0)
(1.09604 -0.274409 0)
(0.992525 -0.276774 0)
(0.984116 -0.0737672 0)
(0.891796 -0.104211 0)
(0.727026 -0.21802 0)
(0.794884 -0.148611 0)
(0.793526 0.209595 0)
(1.03534 0.407679 0)
(1.20734 0.628882 0)
(1.43166 0.348268 0)
(1.45936 -0.237947 0)
(1.38436 -0.214065 0)
(1.26148 -0.280623 0)
(1.07756 -0.413299 0)
(1.05267 -0.481319 0)
(0.9435 -0.245503 0)
(0.739088 0.34634 0)
(0.75847 0.440644 0)
(0.839121 0.500511 0)
(1.13082 0.128237 0)
(1.19567 -0.380543 0)
(1.12233 -0.433591 0)
(0.94111 -0.582076 0)
(0.876843 -0.221748 0)
(0.65005 0.729505 0)
(0.812655 0.432963 0)
(0.931072 -0.0236243 0)
(1.16365 -0.146222 0)
(1.07035 -0.234524 0)
(0.927354 -0.251075 0)
(0.958459 -0.0394919 0)
(0.959249 -0.0568879 0)
(0.832902 -0.173399 0)
(0.837173 -0.155146 0)
(0.826716 0.164692 0)
(1.02487 0.329644 0)
(1.23509 0.575394 0)
(1.49744 0.311083 0)
(1.464 -0.216198 0)
(1.34414 -0.164992 0)
(1.21836 -0.276885 0)
(1.05174 -0.409715 0)
(1.03466 -0.462292 0)
(0.940139 -0.203566 0)
(0.726373 0.372589 0)
(0.767815 0.424704 0)
(0.894984 0.455816 0)
(1.16614 0.0863258 0)
(1.20287 -0.374509 0)
(1.10099 -0.400271 0)
(0.894954 -0.552224 0)
(0.823078 -0.174221 0)
(0.587905 0.739874 0)
(0.819654 0.393175 0)
(0.928527 -0.0317342 0)
(1.17137 -0.103993 0)
(1.17852 -0.145918 0)
(0.998957 -0.227085 0)
(0.992093 -0.0616553 0)
(1.03376 -0.0437257 0)
(0.931069 -0.141103 0)
(0.876324 -0.1513 0)
(0.836501 0.148852 0)
(0.919131 0.250144 0)
(1.22841 0.462617 0)
(1.49344 0.27649 0)
(1.39056 -0.194864 0)
(1.32247 -0.143991 0)
(1.25358 -0.200362 0)
(1.09454 -0.34636 0)
(1.03964 -0.436551 0)
(0.947424 -0.163205 0)
(0.726285 0.408211 0)
(0.785993 0.403272 0)
(0.948882 0.394865 0)
(1.1999 0.0480512 0)
(1.20532 -0.357163 0)
(1.07598 -0.373786 0)
(0.856488 -0.52441 0)
(0.759608 -0.135495 0)
(0.526138 0.732301 0)
(0.839844 0.345859 0)
(0.929991 -0.03868 0)
(1.1137 -0.123562 0)
(1.07263 -0.133759 0)
(0.946545 -0.184044 0)
(0.943354 -0.0498245 0)
(1.00345 -0.0353152 0)
(0.944742 -0.101668 0)
(0.881337 -0.112937 0)
(0.825086 0.143376 0)
(0.855515 0.147377 0)
(1.17131 0.330273 0)
(1.42835 0.220972 0)
(1.33731 -0.148385 0)
(1.26252 -0.0870565 0)
(1.18289 -0.200367 0)
(1.04031 -0.342343 0)
(0.96654 -0.415351 0)
(0.890501 -0.117082 0)
(0.705465 0.428631 0)
(0.817311 0.361943 0)
(0.996163 0.338492 0)
(1.22512 0.0164559 0)
(1.19882 -0.334523 0)
(1.04405 -0.325675 0)
(0.81593 -0.475065 0)
(0.68156 -0.0813323 0)
(0.476567 0.721041 0)
(0.873586 0.292396 0)
(0.934891 -0.0456964 0)
(1.113 -0.0703891 0)
(1.11274 -0.0596381 0)
(1.0286 -0.139471 0)
(0.966929 -0.0699349 0)
(1.02078 -0.0408064 0)
(0.968897 -0.0764556 0)
(0.894018 -0.100487 0)
(0.885447 0.140279 0)
(0.904022 0.0926113 0)
(1.11722 0.215883 0)
(1.33746 0.191101 0)
(1.23088 -0.123189 0)
(1.17844 -0.0845041 0)
(1.18928 -0.149259 0)
(1.0621 -0.258421 0)
(0.928462 -0.364495 0)
(0.846386 -0.0846356 0)
(0.714844 0.437928 0)
(0.876383 0.317414 0)
(1.03877 0.270542 0)
(1.24961 -0.0121264 0)
(1.18083 -0.301416 0)
(1.01462 -0.280261 0)
(0.803008 -0.429647 0)
(0.595051 -0.0337275 0)
(0.435653 0.688069 0)
(0.919889 0.231202 0)
(0.944431 -0.0505268 0)
(1.07578 -0.0754271 0)
(1.07317 -0.0751785 0)
(1.02195 -0.106514 0)
(0.977353 -0.0542668 0)
(1.00365 -0.0390425 0)
(0.978093 -0.0380247 0)
(0.921142 -0.0767881 0)
(0.920192 0.122306 0)
(0.976999 0.0560785 0)
(1.0607 0.147684 0)
(1.22726 0.146336 0)
(1.19247 -0.0777039 0)
(1.14706 -0.0434199 0)
(1.15411 -0.161259 0)
(1.00038 -0.237926 0)
(0.863319 -0.316604 0)
(0.746274 -0.0444287 0)
(0.69786 0.416611 0)
(0.937657 0.25874 0)
(1.05943 0.224903 0)
(1.25982 -0.034366 0)
(1.15137 -0.271641 0)
(0.978324 -0.222636 0)
(0.788989 -0.361544 0)
(0.51874 0.0334206 0)
(0.437143 0.637915 0)
(0.979604 0.164401 0)
(0.95629 -0.0528851 0)
(1.06967 -0.043026 0)
(1.06561 -0.0400938 0)
(1.02677 -0.0687539 0)
(0.989889 -0.0476573 0)
(1.00048 -0.0373111 0)
(0.983168 -0.0228757 0)
(0.950589 -0.0693036 0)
(0.938 0.100533 0)
(1.02096 0.0373515 0)
(1.00417 0.105701 0)
(1.17402 0.112859 0)
(1.14385 -0.0744147 0)
(1.07413 -0.0475621 0)
(1.14906 -0.123081 0)
(1.04242 -0.154258 0)
(0.912976 -0.248914 0)
(0.720053 -0.0180797 0)
(0.749858 0.372247 0)
(1.01992 0.197014 0)
(1.07871 0.163407 0)
(1.25404 -0.0476056 0)
(1.09105 -0.226805 0)
(0.963446 -0.172654 0)
(0.813908 -0.300999 0)
(0.469785 0.0793561 0)
(0.502798 0.554791 0)
(1.04538 0.0986249 0)
(0.967397 -0.0527012 0)
(1.04379 -0.0278028 0)
(1.05978 -0.0428172 0)
(1.01755 -0.0514545 0)
(1.00794 -0.0359351 0)
(0.999991 -0.0399352 0)
(0.990264 -0.00888783 0)
(0.980908 -0.0472984 0)
(0.944216 0.0697583 0)
(1.03668 0.0270366 0)
(0.996688 0.0821891 0)
(1.13857 0.0617418 0)
(1.09922 -0.0386474 0)
(1.07867 -0.0238227 0)
(1.0992 -0.14312 0)
(0.948703 -0.137936 0)
(0.907203 -0.180511 0)
(0.725735 0.0100271 0)
(0.825344 0.276539 0)
(1.0802 0.140673 0)
(1.08675 0.143324 0)
(1.2798 -0.0388038 0)
(1.0737 -0.169 0)
(0.925513 -0.117496 0)
(0.82608 -0.212152 0)
(0.427477 0.135161 0)
(0.639677 0.449086 0)
(1.09486 0.0496188 0)
(0.972842 -0.0325623 0)
(1.03042 -0.0166528 0)
(1.05665 -0.0313128 0)
(1.0126 -0.0306247 0)
(1.01733 -0.0314092 0)
(1.00704 -0.0265717 0)
(0.989219 -0.00835833 0)
(1.0039 -0.0372199 0)
(0.955234 0.0547354 0)
(1.04966 0.0119217 0)
(0.991969 0.0617334 0)
(1.1162 0.0398724 0)
(1.0758 -0.0375332 0)
(1.051 -0.0272456 0)
(1.10347 -0.0891247 0)
(0.947649 -0.077794 0)
(0.945403 -0.139073 0)
(0.785503 0.0226109 0)
(0.899963 0.203749 0)
(1.10159 0.0920125 0)
(1.02537 0.103233 0)
(1.20386 -0.054983 0)
(1.05886 -0.125862 0)
(0.955357 -0.0716417 0)
(0.937342 -0.145275 0)
(0.517668 0.151744 0)
(0.775854 0.327016 0)
(1.09017 0.00268091 0)
(0.956929 -0.028629 0)
(1.02618 -0.00325528 0)
(1.04778 -0.030109 0)
(1.01255 -0.0167069 0)
(1.02383 -0.028358 0)
(1.00589 -0.0203636 0)
(1.00512 -0.0093015 0)
(1.0065 -0.0223868 0)
(0.977617 0.0352615 0)
(1.04746 0.00331371 0)
(0.996402 0.0525927 0)
(1.09968 0.00748725 0)
(1.05101 -0.0104892 0)
(1.045 -0.02179 0)
(1.06124 -0.0876033 0)
(0.958453 -0.0556784 0)
(0.962201 -0.100677 0)
(0.833115 0.0335917 0)
(0.948819 0.124566 0)
(1.07207 0.0820288 0)
(1.03577 0.105758 0)
(1.16805 -0.0509206 0)
(0.974026 -0.0813518 0)
(0.909504 -0.051435 0)
(0.929369 -0.0791146 0)
(0.650572 0.180489 0)
(0.929912 0.241043 0)
(1.11457 0.003473 0)
(0.946653 0.00889458 0)
(1.02291 0.000769921 0)
(1.04367 -0.0249442 0)
(1.01234 -0.00793077 0)
(1.02769 -0.0272258 0)
(1.01107 -0.0106476 0)
(1.00877 -0.0114638 0)
(1.0156 -0.0162994 0)
(0.990186 0.025784 0)
(1.04498 -0.00594007 0)
(1.00313 0.0414797 0)
(1.0772 -0.00154429 0)
(1.03554 -0.00698262 0)
(1.03856 -0.0189564 0)
(1.04956 -0.0565146 0)
(0.959647 -0.0305641 0)
(0.979481 -0.0762126 0)
(0.884641 0.0403615 0)
(0.965631 0.0848089 0)
(1.0553 0.0523696 0)
(1.01278 0.0791133 0)
(1.14386 -0.0392908 0)
(1.00055 -0.0318726 0)
(0.938747 -0.0267483 0)
(0.967628 -0.0554352 0)
(0.787425 0.163041 0)
(0.999708 0.173659 0)
(1.12563 -0.000877986 0)
(1.00329 0.0247706 0)
(1.02517 0.00698174 0)
(1.03661 -0.0243646 0)
(1.01617 0.000845436 0)
(1.0289 -0.0273747 0)
(1.01088 -0.00386378 0)
(1.01923 -0.0138361 0)
(1.012 -0.00985402 0)
(1.00678 0.0168497 0)
(1.03335 -0.0114822 0)
(1.00963 0.0365913 0)
(1.0579 -0.0157422 0)
(1.0261 0.00897012 0)
(1.0326 -0.0190252 0)
(1.02757 -0.0426581 0)
(0.980354 -0.0144546 0)
(0.982689 -0.0611768 0)
(0.919099 0.0468375 0)
(0.99046 0.0398771 0)
(1.02806 0.0473561 0)
(1.0232 0.0735214 0)
(1.09037 -0.0448306 0)
(0.986666 -0.000318076 0)
(0.965371 -0.019428 0)
(0.959787 -0.0311358 0)
(0.873286 0.163019 0)
(1.04445 0.11706 0)
(1.072 -0.000533158 0)
(0.999063 0.0492673 0)
(1.02732 0.00767518 0)
(1.03245 -0.0197289 0)
(1.01755 0.00303623 0)
(1.03081 -0.0233992 0)
(1.00987 -0.00160854 0)
(1.02648 -0.0118171 0)
(1.0071 -0.0089665 0)
(1.01956 0.0130396 0)
(1.02109 -0.0133399 0)
(1.01725 0.0285648 0)
(1.04098 -0.0143585 0)
(1.01697 0.00829968 0)
(1.03493 -0.0139354 0)
(1.0115 -0.0278868 0)
(0.997502 -0.00391671 0)
(0.98823 -0.0460799 0)
(0.946507 0.0423877 0)
(1.01135 0.0261386 0)
(1.0019 0.0307759 0)
(1.03425 0.0601789 0)
(1.05936 -0.0306321 0)
(0.987737 0.0177976 0)
(0.998262 0.00191499 0)
(0.958553 -0.0175796 0)
(0.92303 0.131379 0)
(1.06763 0.0922479 0)
(1.04514 0.0147184 0)
(1.00904 0.0589241 0)
(1.02722 0.00778 0)
(1.02975 -0.0162522 0)
(1.01861 0.00435133 0)
(1.0309 -0.0194068 0)
(1.00965 -0.000108543 0)
(1.02956 -0.0106941 0)
(1.00514 -0.00637259 0)
(1.0249 0.00846856 0)
(1.01454 -0.0119365 0)
(1.0196 0.0223849 0)
(1.03075 -0.0147571 0)
(1.01414 0.011446 0)
(1.03214 -0.0116883 0)
(1.00583 -0.0177254 0)
(1.00758 0.00169853 0)
(0.996188 -0.0340221 0)
(0.963688 0.0371404 0)
(1.02247 0.0118798 0)
(0.991835 0.025823 0)
(1.03565 0.0505848 0)
(1.0387 -0.0227769 0)
(0.990512 0.02733 0)
(1.01206 0.00704744 0)
(0.972116 -0.00369226 0)
(0.956887 0.111099 0)
(1.06806 0.0692868 0)
(1.02838 0.0204037 0)
(1.02094 0.063048 0)
(1.02655 0.00602811 0)
(1.02752 -0.0112501 0)
(1.01885 0.00329573 0)
(1.02966 -0.0138887 0)
(1.01031 -0.000345673 0)
(1.02984 -0.00779378 0)
(1.00466 -0.00518887 0)
(1.02707 0.00558301 0)
(1.01055 -0.00916578 0)
(1.02176 0.0155923 0)
(1.02361 -0.0104779 0)
(1.01301 0.00899499 0)
(1.02978 -0.0078944 0)
(1.00443 -0.010298 0)
(1.01257 0.00420212 0)
(1.00281 -0.0226194 0)
(0.977189 0.0287869 0)
(1.02662 0.009674 0)
(0.988073 0.0193986 0)
(1.03403 0.0404113 0)
(1.02475 -0.0110733 0)
(0.99631 0.0282083 0)
(1.01922 0.0168358 0)
(0.984955 0.00817299 0)
(0.977183 0.0867689 0)
(1.06375 0.0574791 0)
(1.02164 0.0315498 0)
(1.0292 0.0649197 0)
(1.02477 0.00482845 0)
(1.02566 -0.00769025 0)
(1.01871 0.00294738 0)
(1.02776 -0.00988219 0)
(1.01166 0.000253717 0)
(1.02818 -0.00609727 0)
(1.00652 -0.00335255 0)
(1.02639 0.00326487 0)
(1.0102 -0.00671852 0)
(1.02172 0.0111366 0)
(1.01973 -0.00842334 0)
(1.01403 0.00826739 0)
(1.02559 -0.00552135 0)
(1.00729 -0.005175 0)
(1.0136 0.00598922 0)
(1.00863 -0.0142672 0)
(0.987363 0.0232694 0)
(1.02573 0.00741187 0)
(0.991394 0.0161639 0)
(1.02989 0.032829 0)
(1.01786 -0.00301116 0)
(1.00368 0.0289437 0)
(1.0193 0.0199489 0)
(0.998003 0.0144384 0)
(0.992929 0.0706424 0)
(1.05613 0.0492996 0)
(1.01988 0.0345506 0)
(1.03555 0.0609568 0)
(1.02292 0.00368277 0)
(1.02413 -0.00448217 0)
(1.01825 0.00245137 0)
(1.02596 -0.00634538 0)
(1.01281 0.000509209 0)
(1.02648 -0.00420499 0)
(1.00861 -0.00204967 0)
(1.0251 0.00184929 0)
(1.01103 -0.00455493 0)
(1.02122 0.00745376 0)
(1.01782 -0.00556452 0)
(1.01467 0.00648047 0)
(1.02244 -0.00272396 0)
(1.01013 -0.00172683 0)
(1.01344 0.00658473 0)
(1.01269 -0.00722263 0)
(0.995038 0.0180145 0)
(1.02431 0.0079469 0)
(0.996328 0.0140715 0)
(1.02633 0.0264336 0)
(1.01489 0.00412722 0)
(1.00903 0.0263445 0)
(1.01921 0.0222694 0)
(1.00882 0.0205419 0)
(1.00308 0.0572227 0)
(1.04921 0.0431861 0)
(1.02233 0.0372011 0)
(1.04045 0.0569961 0)
(1.02118 0.00325983 0)
(1.02275 -0.00250218 0)
(1.01782 0.00247142 0)
(1.02419 -0.0040035 0)
(1.01408 0.000977534 0)
(1.02452 -0.00276833 0)
(1.01093 -0.00117374 0)
(1.02347 0.00133403 0)
(1.01248 -0.00325468 0)
(1.02049 0.00550413 0)
(1.01665 -0.0038165 0)
(1.01571 0.00548075 0)
(1.01953 -0.000599791 0)
(1.01293 0.000365263 0)
(1.01316 0.00717528 0)
(1.01513 -0.00251664 0)
(1.00148 0.0147922 0)
(1.02246 0.00830532 0)
(1.00168 0.0124296 0)
(1.02404 0.0220987 0)
(1.0139 0.00805036 0)
(1.01407 0.02453 0)
(1.01922 0.0233643 0)
(1.01588 0.022613 0)
(1.011 0.0471017 0)
(1.04484 0.0394929 0)
(1.02558 0.0370425 0)
(1.0438 0.0512353 0)
(1.01968 0.00292243 0)
(1.02166 -0.000974636 0)
(1.01733 0.00232856 0)
(1.02277 -0.00211695 0)
(1.01492 0.00107955 0)
(1.02287 -0.00149204 0)
(1.01281 -0.000616743 0)
(1.02195 0.00115987 0)
(1.01389 -0.00204865 0)
(1.01973 0.00404441 0)
(1.01621 -0.00195745 0)
(1.01643 0.00452117 0)
(1.01764 0.00113459 0)
(1.01505 0.00194645 0)
(1.01308 0.00700973 0)
(1.01686 0.00114315 0)
(1.00622 0.0121151 0)
(1.02137 0.00871659 0)
(1.00654 0.0116397 0)
(1.02268 0.0186041 0)
(1.0147 0.0109385 0)
(1.01776 0.0226042 0)
(1.01932 0.0225929 0)
(1.02138 0.0236685 0)
(1.01722 0.0398827 0)
(1.04191 0.0357278 0)
(1.029 0.035259 0)
(1.04619 0.0454546 0)
(1.01861 0.00278928 0)
(1.02067 1.51878e-05 0)
(1.01706 0.00223443 0)
(1.02148 -0.000784816 0)
(1.0156 0.00106876 0)
(1.02145 -0.000439813 0)
(1.01414 -0.000337666 0)
(1.02074 0.00128507 0)
(1.0148 -0.00120417 0)
(1.01923 0.00324986 0)
(1.01588 -0.000521789 0)
(1.01712 0.00388762 0)
(1.01654 0.00246754 0)
(1.01652 0.00285612 0)
(1.01362 0.00687192 0)
(1.01785 0.00338754 0)
(1.00992 0.0102108 0)
(1.02094 0.00900697 0)
(1.01025 0.0107221 0)
(1.02242 0.0161732 0)
(1.01597 0.0122764 0)
(1.02051 0.0203546 0)
(1.02051 0.0216618 0)
(1.02525 0.0233676 0)
(1.02153 0.0336007 0)
(1.04045 0.0320964 0)
(1.03217 0.0327128 0)
(1.04773 0.0396901 0)
(1.01775 0.00253722 0)
(1.01985 0.000765468 0)
(1.01683 0.00206331 0)
(1.02045 0.000181698 0)
(1.01605 0.00109886 0)
(1.02029 0.000247627 0)
(1.01507 7.27843e-05 0)
(1.01973 0.00127854 0)
(1.01543 -0.000337676 0)
(1.01881 0.00265396 0)
(1.01574 0.000586479 0)
(1.01768 0.00354561 0)
(1.01599 0.00313971 0)
(1.0177 0.00363911 0)
(1.01431 0.00645408 0)
(1.01865 0.00473383 0)
(1.01276 0.00899806 0)
(1.02078 0.00871868 0)
(1.01332 0.0101293 0)
(1.02258 0.0141609 0)
(1.01746 0.0124588 0)
(1.02303 0.0185221 0)
(1.02186 0.0201087 0)
(1.02787 0.0218239 0)
(1.02498 0.0287016 0)
(1.03986 0.0285611 0)
(1.03462 0.0294304 0)
(1.04864 0.0341955 0)
(1.0171 0.00224071 0)
(1.01907 0.00120907 0)
(1.01661 0.00183947 0)
(1.01957 0.000806309 0)
(1.01624 0.00108178 0)
(1.01947 0.0007318 0)
(1.01557 0.000408534 0)
(1.0191 0.00129578 0)
(1.01576 0.000342892 0)
(1.01859 0.00222611 0)
(1.01575 0.00135297 0)
(1.01802 0.00321131 0)
(1.01596 0.00347032 0)
(1.0184 0.00398059 0)
(1.01515 0.00593419 0)
(1.01932 0.00539009 0)
(1.0148 0.0079244 0)
(1.02115 0.00825628 0)
(1.01566 0.0094013 0)
(1.02306 0.0122839 0)
(1.01912 0.0120289 0)
(1.02482 0.0163921 0)
(1.02326 0.0180454 0)
(1.03002 0.019906 0)
(1.02761 0.0244867 0)
(1.03969 0.0247791 0)
(1.03651 0.0257463 0)
(1.04909 0.0290505 0)
(1.01658 0.00197094 0)
(1.01834 0.00137597 0)
(1.01638 0.00168282 0)
(1.01876 0.00108744 0)
(1.01629 0.00114807 0)
(1.01878 0.000971384 0)
(1.01584 0.000724575 0)
(1.01865 0.00132481 0)
(1.01591 0.000804766 0)
(1.01851 0.00204396 0)
(1.01581 0.00172763 0)
(1.01834 0.00303739 0)
(1.01611 0.00347957 0)
(1.01887 0.00401086 0)
(1.01601 0.00544737 0)
(1.01981 0.00537702 0)
(1.01643 0.00706673 0)
(1.02165 0.00754428 0)
(1.01747 0.00845652 0)
(1.02382 0.0106809 0)
(1.02056 0.0109647 0)
(1.02623 0.0141927 0)
(1.02473 0.0158958 0)
(1.03149 0.0174895 0)
(1.0296 0.0205788 0)
(1.03995 0.0210965 0)
(1.03791 0.0219406 0)
(1.0492 0.0242198 0)
(1.01616 0.00162856 0)
(1.01776 0.00132671 0)
(1.01612 0.0014325 0)
(1.01814 0.00111716 0)
(1.01617 0.00108827 0)
(1.01826 0.000989617 0)
(1.01592 0.000866873 0)
(1.0183 0.00122399 0)
(1.01602 0.00104014 0)
(1.01841 0.00181066 0)
(1.01599 0.00182059 0)
(1.01854 0.0027599 0)
(1.01638 0.00319672 0)
(1.01925 0.00376528 0)
(1.01673 0.00473479 0)
(1.02031 0.00495063 0)
(1.01763 0.00608904 0)
(1.02219 0.0065274 0)
(1.01896 0.0073546 0)
(1.0245 0.00897185 0)
(1.02186 0.00949631 0)
(1.02739 0.0119408 0)
(1.02593 0.0133751 0)
(1.03259 0.0147021 0)
(1.03118 0.0168887 0)
(1.04027 0.0173846 0)
(1.0389 0.018028 0)
(1.04911 0.0196211 0)
(1.0158 0.00138536 0)
(1.01727 0.00121183 0)
(1.01587 0.00123933 0)
(1.01765 0.00106328 0)
(1.01598 0.000999835 0)
(1.01787 0.000962152 0)
(1.01589 0.000881194 0)
(1.01805 0.00113647 0)
(1.01604 0.00108221 0)
(1.01832 0.00159478 0)
(1.01617 0.00173413 0)
(1.01864 0.00238962 0)
(1.0167 0.00281201 0)
(1.01951 0.00326913 0)
(1.01736 0.00396385 0)
(1.02075 0.00424947 0)
(1.01851 0.00499429 0)
(1.02273 0.00540648 0)
(1.02008 0.00604232 0)
(1.0251 0.00722226 0)
(1.02297 0.00780053 0)
(1.02825 0.00954142 0)
(1.02697 0.0107096 0)
(1.03343 0.0117645 0)
(1.0323 0.0132431 0)
(1.04054 0.0136583 0)
(1.03961 0.014142 0)
(1.04893 0.0152297 0)
(1.01547 0.00103518 0)
(1.01687 0.00093548 0)
(1.01561 0.000951029 0)
(1.01724 0.000840921 0)
(1.01577 0.000805963 0)
(1.01753 0.000778368 0)
(1.01582 0.000750215 0)
(1.01782 0.000918313 0)
(1.01602 0.00091968 0)
(1.0182 0.00126828 0)
(1.01629 0.00140364 0)
(1.01871 0.00187405 0)
(1.01693 0.00218824 0)
(1.01969 0.0025369 0)
(1.01782 0.0030173 0)
(1.02107 0.00325205 0)
(1.01913 0.00376118 0)
(1.02311 0.00406277 0)
(1.02089 0.00452538 0)
(1.02556 0.00535598 0)
(1.02377 0.00581412 0)
(1.02888 0.00701362 0)
(1.02775 0.00787545 0)
(1.03397 0.0086078 0)
(1.03307 0.00958469 0)
(1.04073 0.00990433 0)
(1.04003 0.0102221 0)
(1.04869 0.0109283 0)
(1.01517 0.000631944 0)
(1.01653 0.000585163 0)
(1.01535 0.000587697 0)
(1.0169 0.00053335 0)
(1.01555 0.000511152 0)
(1.01725 0.000497911 0)
(1.01569 0.000491324 0)
(1.01759 0.000584367 0)
(1.01594 0.000606555 0)
(1.01804 0.000803002 0)
(1.01634 0.000906833 0)
(1.01867 0.00118558 0)
(1.01704 0.00138276 0)
(1.01974 0.00160771 0)
(1.01806 0.00188505 0)
(1.02124 0.00205036 0)
(1.01947 0.00234276 0)
(1.02332 0.00253034 0)
(1.02139 0.00281864 0)
(1.02582 0.00330346 0)
(1.02428 0.00360496 0)
(1.02925 0.004312 0)
(1.02822 0.00483204 0)
(1.03427 0.00527803 0)
(1.03351 0.00584137 0)
(1.04077 0.00603275 0)
(1.04022 0.00621262 0)
(1.04843 0.00661471 0)
(1.01501 0.000272719 0)
(1.01634 0.000253239 0)
(1.01522 0.000251092 0)
(1.01672 0.000230717 0)
(1.01543 0.000219815 0)
(1.01711 0.000215208 0)
(1.01562 0.00020883 0)
(1.01748 0.000241443 0)
(1.01591 0.000248501 0)
(1.01797 0.000316144 0)
(1.01636 0.000355931 0)
(1.01866 0.000447867 0)
(1.0171 0.00051868 0)
(1.01978 0.000591376 0)
(1.0182 0.000686429 0)
(1.02134 0.000740568 0)
(1.01966 0.000833474 0)
(1.02345 0.000898848 0)
(1.02166 0.00099134 0)
(1.02597 0.00115449 0)
(1.02455 0.00126024 0)
(1.02944 0.00149209 0)
(1.02848 0.00167135 0)
(1.03442 0.00181881 0)
(1.03373 0.0019989 0)
(1.04079 0.00206077 0)
(1.04031 0.00211911 0)
(1.04828 0.0022499 0)
)
;

boundaryField
{
    outlet
    {
        type            zeroGradient;
    }
    upperWall
    {
        type            symmetryPlane;
    }
    lowerWall
    {
        type            symmetryPlane;
    }
    inlet
    {
        type            fixedValue;
        value           nonuniform 0();
    }
    cylinder
    {
        type            fixedValue;
        value           nonuniform 0();
    }
    frontAndBack
    {
        type            empty;
    }