/*--------------------------------*- C++ -*----------------------------------*\
| =========                 |                                                 |
| \\      /  F ield         | OpenFOAM: The Open Source CFD Toolbox           |
|  \\    /   O peration     | Version:                                        |
|   \\  /    A nd           | Website:  www.openfoam.com                      |
|    \\/     M anipulation  |                                                 |
\*---------------------------------------------------------------------------*/
FoamFile
{
    version     2.0;
    format      ascii;
    class       surfaceScalarField;
    location    "174.7";
    object      phi;
}
// * * * * * * * * * * * * * * * * * * * * * * * * * * * * * * * * * * * * * //

dimensions      [0 3 -1 0 0 0 0];
oriented        oriented;


internalField   nonuniform List<scalar> 
2201
(
-0.00277934
-0.00320154
0.00598088
-0.000622155
-0.00215719
0.000185824
-0.000807978
0.000164306
2.15177e-05
0.00015172
1.25857e-05
0.000452054
-0.000300334
0.000990312
-0.000538258
0.00212242
-0.00113211
0.00173706
0.000385358
0.00157621
0.000160847
-0.00113739
-0.00618614
0.00412199
0.000900494
-0.00419507
0.00169986
-0.00160734
0.00149127
0.000230111
0.00138741
0.000116447
0.00200154
-0.000914469
0.000992589
0.000470694
-0.00344334
0.00330382
-0.00947705
0.00641908
0.00675989
-0.0146607
0.00267602
-0.00836564
-0.000496515
0.00379089
-0.00530995
0.0033211
-0.00113755
0.00241135
0.00113986
0.00179505
0.000732749
-0.00145625
0.00233683
-0.00822659
0.00724103
-0.0147273
0.00980449
-0.0180425
0.00973429
0.00951478
-0.0207974
0.00573368
-0.0100411
-0.00405827
0.00559507
-0.00517134
0.00442433
3.31849e-05
0.00255878
0.00300541
-0.00226443
0.00555596
-0.0105115
0.0105839
-0.01675
0.0134795
-0.0202492
0.0133037
-0.0222965
0.0117815
0.0104353
-0.023217
0.00658499
-0.0108599
-0.00576614
0.0056413
-0.00422765
0.00278959
0.00288489
-0.00291572
0.00871072
-0.0113798
0.0140201
-0.0180145
0.0172186
-0.0213651
0.01683
-0.0230213
0.0149599
-0.0240835
0.0128438
0.0106918
-0.02434
0.00415541
-0.00965544
-0.00535988
0.000384933
-0.00045717
-0.00565965
0.00892948
-0.0129353
0.0159864
-0.019112
0.0201968
-0.0223163
0.020423
-0.023705
0.0182187
-0.0245708
0.0158256
-0.025011
0.013284
0.0108092
-0.0251283
-0.00192541
-0.00540776
-0.00232226
-0.00798682
0.00560423
-0.0147649
0.0157076
-0.0206181
0.0218395
-0.0236223
0.023201
-0.0245937
0.0213944
-0.0252206
0.0188456
-0.0256225
0.0162275
-0.0258174
0.0134788
0.0108878
-0.0258959
-0.00754825
0.00074168
0.00139881
-0.0149086
0.0129646
-0.0212846
0.0220835
-0.0247171
0.025272
-0.0256556
0.0241395
-0.026026
0.0217648
-0.0263445
0.0191641
-0.026537
0.01642
-0.0266565
0.0135983
0.0109146
-0.0266833
-0.0129823
0.00853108
0.00519289
-0.0203828
0.0203652
-0.0249023
0.0266029
-0.026261
0.0266308
-0.026662
0.0245405
-0.0270495
0.0221523
-0.0272703
0.0193849
-0.0274459
0.0165956
-0.0275538
0.0137063
0.0108706
-0.0275098
-0.0174031
-0.0237418
0.0267039
-0.0262752
0.0291364
-0.0267859
0.0271415
-0.0274901
0.0252447
-0.0278148
0.022477
-0.0281683
0.0197384
-0.0283137
0.016741
-0.0284227
0.0138153
0.0107884
-0.0283405
-0.025333
0.0314244
-0.0265197
0.030323
-0.0273288
0.0279506
-0.0281817
0.0260977
-0.0285471
0.0228423
-0.0289839
0.0201752
-0.0291545
0.0169116
-0.029241
0.0139019
0.0107296
-0.0291823
-0.0258768
-0.0266098
0.0310561
-0.0280885
0.0294292
-0.0287052
0.0267144
-0.0293184
0.0234555
-0.0297593
0.020616
-0.0299977
0.01715
-0.0301334
0.0140375
0.0106673
-0.0300711
-0.0271163
0.0322988
-0.0288034
0.0311163
-0.0293073
0.0272184
-0.030228
0.0243762
-0.030615
0.021003
-0.0309689
0.0175039
-0.0310927
0.0141613
0.0106086
-0.031034
-0.0281694
-0.0293978
0.0323448
-0.0302623
0.0280828
-0.0311609
0.0252748
-0.0315444
0.0213865
-0.0319485
0.017908
-0.0319983
0.0142111
0.0105543
-0.0319439
-0.0301559
0.033233
-0.0312985
0.0292255
-0.0320143
0.0259907
-0.03247
0.0218422
-0.032819
0.018257
-0.032925
0.0143171
0.0104776
-0.0328484
-0.0310136
0.0340654
-0.0322716
0.0304834
-0.032896
0.026615
-0.0334704
0.0224167
-0.0338282
0.0186147
-0.0339782
0.0144671
0.0104534
-0.0339539
-0.032142
-0.033332
0.0316734
-0.0339358
0.0272188
-0.0346549
0.0231358
-0.0349298
0.0188896
-0.0351471
0.0146844
0.0104072
-0.0351009
-0.0344415
0.0326063
-0.0352149
0.0279921
-0.0358176
0.0237385
-0.0361017
0.0191738
-0.0362305
0.0148132
0.0103287
-0.0361521
-0.0356463
0.0335501
-0.0364527
0.0287985
-0.036917
0.0242028
-0.037294
0.0195507
-0.0373357
0.014855
0.0102594
-0.0372664
-0.0368893
-0.0375524
0.0294616
-0.0380343
0.0246848
-0.0383334
0.0198498
-0.0385242
0.0150458
0.0101791
-0.0384439
-0.0136877
0.00117507
-0.0142618
0.00057404
-0.0143844
0.000122604
-0.0140446
-0.000339732
-0.0132346
-0.00080999
-0.0121585
-0.00107609
-0.0110916
-0.00106694
-0.00967458
-0.00141703
-0.00817683
-0.00149774
-0.00219595
-0.0175227
0.00187528
-0.0174741
0.000525413
-0.0167452
-0.000606227
-0.015606
-0.00147899
-0.0140419
-0.00237409
-0.0120957
-0.00302228
-0.0102444
-0.00291824
-0.00832745
-0.00333398
-0.00648311
-0.00334208
-0.00455707
-0.0154901
-0.0151113
0.000146546
-0.0140959
-0.0016216
-0.0124279
-0.003147
-0.0102927
-0.00450925
-0.0078
-0.005515
-0.00547291
-0.00524532
-0.00328277
-0.00552412
-0.00177086
-0.004854
-0.00682444
-0.013069
-0.0123652
-0.0108697
-0.00845929
-0.00541096
-0.00856333
-0.00230419
-0.00835209
0.000407444
-0.00823576
0.00203312
-0.00647968
-0.00884959
-0.0047512
-0.00161038
-0.0114929
0.00134657
-0.0111927
0.00324653
-0.00837963
-0.0113692
-0.000550907
0.00137958
-0.0131232
0.00342533
-0.0104254
-0.0133038
0.00148345
0.00289435
-0.0118363
-0.0127317
0.00182019
-0.00951266
0.00925112
0.0512833
-0.0503554
0.00857535
0.0544563
-0.0537806
0.00805699
0.0577993
-0.057281
0.00752543
0.0616021
-0.0610705
0.00690862
0.0655756
-0.0649588
0.00626406
0.0697937
-0.0691492
0.00561241
0.0742833
-0.0736316
0.00495563
0.0790506
-0.0783938
0.00434621
0.084014
-0.0834046
0.00383566
0.0891865
-0.088676
0.00342103
0.0946462
-0.0942316
0.00309242
0.10047
-0.100141
0.00284051
0.106742
-0.10649
0.00262298
0.113567
-0.11335
0.00240726
0.120975
-0.120759
0.00219201
0.128964
-0.128748
0.00198141
0.137538
-0.137328
0.00178655
0.146703
-0.146508
0.0016074
0.156499
-0.15632
0.00144085
0.166979
-0.166813
0.00128448
0.178192
-0.178036
0.00113985
0.190193
-0.190048
0.00099635
0.203061
-0.202917
0.000855915
0.216843
-0.216703
0.000718522
0.231598
-0.231461
0.000578088
0.247416
-0.247275
0.000435224
0.264359
-0.264216
0.000292666
0.282521
-0.282379
0.000151176
0.302003
-0.301861
0.322891
-0.32274
0.0142109
0.0521182
0.0131018
0.0555655
0.0119347
0.0589664
0.010954
0.0625829
0.0102076
0.066322
0.0096714
0.0703299
0.00921082
0.0747439
0.00879206
0.0794693
0.00841684
0.0843893
0.0080365
0.0895669
0.00762454
0.0950581
0.00721767
0.100877
0.00682976
0.10713
0.0064459
0.113951
0.00606913
0.121352
0.00569481
0.129338
0.00531786
0.137915
0.00494589
0.147075
0.00457921
0.156866
0.00421495
0.167344
0.0038557
0.178552
0.00349676
0.190552
0.00312053
0.203437
0.00273449
0.217229
0.00233291
0.232
0.00190833
0.24784
0.00146617
0.264801
0.00100402
0.282983
0.000517134
0.30249
0.323408
0.0188949
0.0530731
0.0181621
0.0562983
0.0174802
0.0596483
0.0167444
0.0633186
0.0159787
0.0670877
0.0151497
0.0711589
0.0142678
0.0756257
0.0134456
0.0802915
0.0127544
0.0850804
0.0121422
0.090179
0.0115592
0.0956412
0.0110366
0.101399
0.0105481
0.107618
0.0100521
0.114447
0.00955039
0.121853
0.00904076
0.129848
0.00852279
0.138433
0.00800579
0.147592
0.00748111
0.15739
0.00693999
0.167885
0.00638853
0.179103
0.00581558
0.191125
0.00520799
0.204045
0.00458101
0.217856
0.00391884
0.232662
0.00322007
0.248539
0.00248349
0.265538
0.00170469
0.283762
0.000878957
0.303316
0.324287
0.0236856
0.0540722
0.0224346
0.0575493
0.0211843
0.0608985
0.0201731
0.0643298
0.0194142
0.0678466
0.0187785
0.0717946
0.018145
0.0762592
0.0175856
0.080851
0.0170492
0.0856169
0.0163811
0.0908471
0.0156881
0.0963341
0.0150529
0.102035
0.0144119
0.108259
0.0137788
0.11508
0.0131625
0.12247
0.0125152
0.130495
0.0118358
0.139113
0.0111362
0.148291
0.0104114
0.158115
0.00966459
0.168631
0.00891102
0.179857
0.00811592
0.19192
0.00727798
0.204883
0.00641178
0.218722
0.00549101
0.233583
0.00451924
0.249511
0.00349011
0.266567
0.00239635
0.284856
0.00123667
0.304475
0.325524
0.0284936
0.0276235
0.0265974
0.0255741
0.0245742
0.0233863
0.0222634
0.0214542
0.0207501
0.0199819
0.0192879
0.0970282
0.0186146
0.102708
0.0178696
0.109004
0.0171225
0.115827
0.0163706
0.123222
0.0155851
0.13128
0.0147956
0.139902
0.0139844
0.149103
0.0131227
0.158977
0.0122293
0.169525
0.0113061
0.18078
0.0103055
0.192921
0.00926689
0.205921
0.00817567
0.219814
0.00701064
0.234748
0.00577826
0.250743
0.00446679
0.267879
0.00306924
0.286253
0.00158479
0.30596
0.327109
0.0232522
0.0223895
0.0214968
0.0206705
0.0198152
0.0189038
0.0179634
0.0169616
0.0159016
0.0148248
0.0136942
0.0124866
0.0112383
0.009914
0.00850371
0.00701166
0.00542194
0.0037277
0.00192459
0.0289293
0.0307396
-0.0272256
-0.0324432
0.0306512
0.0270347
-0.0287566
0.0323055
0.0232992
-0.0249535
0.0339637
0.0193701
-0.0210283
0.0352509
0.0152764
-0.0165636
0.036338
0.0108168
-0.0119039
0.0371747
0.00656561
-0.00740238
0.0378518
0.00174409
-0.00242115
0.038391
-0.00281843
0.00227923
-0.00752433
0.00747141
0.0280561
0.0286427
-0.0259592
0.0298385
0.0252523
0.0314726
0.0216652
0.0330314
0.0178112
0.0342697
0.0140381
0.0352793
0.00980729
0.0360981
0.0057468
0.0366945
0.00114772
0.0371017
-0.00322573
-0.00768898
0.0270439
0.0265752
-0.0249765
0.0289068
0.0233894
0.0305556
0.0200165
0.0320303
0.0163365
0.0332968
0.0127716
0.0343267
0.00877742
0.0351536
0.00491988
0.0356424
0.000658879
0.0360126
-0.00359586
-0.00782847
0.0261611
0.0245599
-0.0241458
0.0279789
0.0215716
0.029579
0.0184164
0.0309981
0.0149175
0.0322258
0.0115439
0.0332577
0.00774552
0.0341113
0.00406628
0.0346387
0.00013142
0.034958
-0.00391508
-0.0079714
0.0253402
0.0226238
-0.023404
0.0270958
0.019816
0.0286236
0.0168885
0.0299676
0.0135735
0.0311389
0.0103726
0.0321098
0.00677462
0.0329201
0.0032559
0.0335027
-0.000451101
0.033802
-0.00421445
-0.00812327
0.0246262
0.0207504
-0.0227529
0.0263077
0.0181345
0.0277902
0.015406
0.0290653
0.0122985
0.0301782
0.00925971
0.031077
0.00587581
0.0318145
0.00251839
0.0323804
-0.00101701
0.0327135
-0.00454755
-0.00825816
0.0239342
0.0189105
-0.0220943
0.0255916
0.0164771
0.0270403
0.0139572
0.0282954
0.0110434
0.0293649
0.00819022
0.0302402
0.00500051
0.030932
0.00182658
0.0314571
-0.00154214
0.0317957
-0.00488617
-0.00840637
0.0232181
0.0171366
-0.0214441
0.024857
0.0148382
0.0262941
0.0125201
0.027535
0.00980253
0.0286071
0.00711815
0.0294407
0.00416688
0.0301344
0.00113283
0.0306048
-0.0020125
0.0309326
-0.005214
-0.00850773
0.022527
0.0154595
-0.02085
0.0240932
0.013272
0.0255009
0.0111124
0.0266912
0.00861223
0.0277582
0.00605112
0.0285757
0.00334948
0.0292248
0.000483658
0.0296875
-0.00247515
0.0299784
-0.00550495
-0.00860039
0.0219717
0.0138449
-0.0203571
0.0234341
0.0118097
0.0247867
0.00975973
0.02592
0.00747891
0.0269073
0.00506382
0.0277271
0.0025297
0.0283241
-0.000113363
0.0287913
-0.00294234
0.0290533
-0.00576696
-0.00872938
0.0215187
0.0122448
-0.0199186
0.022933
0.0103953
0.0242009
0.0084919
0.0253112
0.00636864
0.0262301
0.00414491
0.0269962
0.0017636
0.0275798
-0.000696951
0.0279951
-0.00335772
0.0282544
-0.00602617
-0.00881548
0.0210468
0.0106694
-0.0194714
0.0224629
0.00897924
0.0236992
0.00725554
0.0247387
0.00532916
0.0256451
0.00323854
0.0263298
0.00107889
0.0269016
-0.0012688
0.0272446
-0.00370071
0.0274822
-0.00626376
-0.00884312
0.0205594
0.00914448
-0.0190344
0.0219179
0.00762071
0.0231645
0.0060089
0.0241546
0.00433904
0.0250207
0.00237251
0.0256624
0.000437143
0.0261724
-0.00177876
0.0264906
-0.00401889
0.026658
-0.00643122
-0.00886839
0.0202065
0.00764769
-0.0187098
0.0214878
0.00633946
0.0226606
0.00483606
0.0236404
0.00335926
0.0244243
0.00158865
0.0250651
-0.000203656
0.0254957
-0.00220935
0.0257822
-0.00430544
0.0258935
-0.0065425
-0.00887081
0.0199448
0.00618242
-0.0184795
0.0212073
0.00507698
0.022288
0.00375531
0.0232302
0.00241711
0.0239388
0.000880039
0.0245281
-0.000793002
0.0249183
-0.00259952
0.0251135
-0.00450065
0.0251907
-0.00661972
-0.00880844
0.0197271
0.00476264
-0.0183073
0.0209762
0.0038279
0.021989
0.00274249
0.022894
0.00151214
0.023537
0.000237069
0.0240669
-0.00132292
0.0243918
-0.00292446
0.0245256
-0.00463448
0.0245018
-0.00659587
-0.00864659
0.019591
0.00341221
-0.0182406
0.0208375
0.00258139
0.0217427
0.00183729
0.0225579
0.000696956
0.0231703
-0.000375327
0.0235894
-0.00174205
0.0238189
-0.00315387
0.0238998
-0.00471544
0.0237067
-0.00640271
-0.00815696
0.0195701
0.00210493
-0.0182628
0.0207931
0.00135832
0.0217592
0.000871236
0.022377
7.91093e-05
0.0228265
-0.000824769
0.0230148
-0.00193041
0.0229985
-0.00313751
0.0227868
-0.00450372
0.0223067
-0.00592267
-0.0066476
0.019663
0.000852838
-0.0184109
0.0207033
0.000318026
0.0215656
8.91719e-06
0.0220282
-0.000383483
0.0220564
-0.000852956
0.0215641
-0.00143813
0.0206427
-0.0022161
0.0192153
-0.00307632
0.0176814
-0.00438879
-0.00362692
0.0154949
-0.0146421
0.0158129
0.0158218
0.0154384
0.0145854
0.0131473
0.0109312
0.00785485
0.00346607
0.019265
0.041143
0.0218574
0.0387632
-0.0413556
0.0244673
0.0360477
-0.0386576
0.0325809
-0.0353392
0.016003
0.0403129
0.0186946
0.0384514
0.0212283
0.0362294
0.0237404
0.0335357
0.0303621
0.0100868
0.0403652
0.0128158
0.0391775
0.0154833
0.0376455
0.0181259
0.0358088
0.0206282
0.0337271
0.0229413
0.0312226
0.028327
0.00145214
0.0393774
0.00423912
0.0390712
0.0070128
0.0384917
0.00975346
0.0376245
0.0124242
0.0365068
0.0149974
0.0350722
0.017549
0.0332572
0.0199529
0.0313231
0.0221443
0.0290312
0.0263255
0.00131635
0.03663
0.00404529
0.0363423
0.00675037
0.0357867
0.00942538
0.0349495
0.0120428
0.0338893
0.0145377
0.0325774
0.0169914
0.0308035
0.0193158
0.0289986
0.02144
0.0269071
0.0243614
0.00118681
0.0339418
0.00386208
0.033667
0.00650165
0.0331471
0.00910301
0.0323482
0.0116667
0.0313256
0.0140952
0.0301489
0.0164403
0.0284585
0.0187163
0.0267227
0.0208078
0.0248156
0.0224163
0.00106214
0.0313108
0.00368071
0.0310484
0.00626096
0.0305669
0.00878656
0.0298226
0.0112977
0.0288145
0.0136854
0.0277611
0.0159124
0.0262315
0.0181224
0.0245127
0.0202001
0.0227378
0.0205222
0.000939489
0.0287345
0.00350445
0.0284835
0.00603388
0.0280374
0.00848813
0.0273683
0.0109341
0.0263685
0.0133075
0.0253877
0.015464
0.024075
0.0175746
0.0224021
0.0196034
0.020709
0.0186815
0.000816579
0.0262072
0.00332917
0.0259709
0.00581567
0.0255509
0.00821543
0.0249686
0.0105762
0.0240077
0.0129306
0.0230333
0.0150882
0.0219174
0.0171127
0.0203775
0.0190627
0.018759
0.0168943
0.000696507
0.0237239
0.00315976
0.0235076
0.00560813
0.0231025
0.00797858
0.0225981
0.010246
0.0217402
0.0125477
0.0207316
0.0147318
0.0197333
0.0167267
0.0183826
0.0186079
0.0168778
0.0151451
0.000581068
0.021276
0.00300196
0.0210867
0.00541078
0.0206937
0.00777249
0.0202364
0.00997229
0.0195405
0.0121769
0.0185271
0.0143442
0.017566
0.0163538
0.016373
0.0182025
0.015029
0.013429
0.000468434
0.0188608
0.00285228
0.0187029
0.00521909
0.0183269
0.00758436
0.0178711
0.00976859
0.0173562
0.0118791
0.0164166
0.0139589
0.0154862
0.0159459
0.014386
0.0177817
0.0131933
0.0117393
0.000366795
0.0164659
0.00272595
0.0163437
0.00504276
0.0160101
0.00739497
0.0155189
0.00961171
0.0151395
0.0116872
0.0143411
0.0136789
0.0134945
0.0155959
0.0124689
0.0173793
0.0114098
0.0100842
0.000266499
0.014087
0.0026146
0.0139956
0.00489278
0.0137319
0.00720269
0.013209
0.00944465
0.0128975
0.0115472
0.0122386
0.0135145
0.0115272
0.0153777
0.0106057
0.0171105
0.00967702
0.00848503
0.000176743
0.011715
0.00252769
0.0116447
0.0047921
0.0114675
0.00704132
0.0109598
0.00926419
0.0106746
0.0113742
0.0101286
0.0133592
0.00954219
0.0152259
0.00873902
0.0169309
0.00797202
0.00693644
9.06908e-05
0.00933267
0.00245567
0.00927971
0.00474477
0.0091784
0.00695863
0.00874593
0.00915366
0.00847962
0.0112394
0.00804277
0.0132012
0.00758041
0.0150653
0.00687494
0.0167861
0.00625123
0.00541519
6.37629e-07
0.00694507
0.00238535
0.006895
0.0047292
0.00683456
0.00695538
0.00651975
0.00914663
0.00628837
0.0112165
0.00597287
0.0131877
0.00560927
0.0150071
0.00505549
0.0166938
0.00456456
0.0038684
-6.2439e-05
0.00453896
0.00231957
0.00451299
0.00468087
0.00447325
0.00693957
0.00426106
0.00916821
0.00405972
0.011222
0.00391907
0.0132099
0.00362142
0.0150712
0.00319411
0.0166847
0.00295109
0.00229033
-9.25721e-05
0.00206584
0.00235831
0.00206211
0.00478505
0.00204651
0.00710261
0.0019435
0.00935821
0.00180413
0.0114922
0.00178509
0.013486
0.00162758
0.0153363
0.00134385
0.0169703
0.00131709
0.000849699
-0.000137496
0.00192461
0.00397112
0.00591462
0.00771875
0.00950384
0.0111314
0.0124753
0.0137924
0.0363541
0.00550191
0.00507077
0.00609164
0.00710654
0.0055566
0.0453675
0.00557855
0.0493508
0.00530192
0.0531602
0.00496483
0.0570087
0.00461115
0.0612189
0.00419893
0.0658111
0.00376381
0.0707256
0.00337188
0.0760187
0.00304717
0.0817971
0.00277073
0.0880854
0.00251791
0.0948022
0.00227394
0.101865
0.00204312
0.109238
0.0018265
0.116927
0.00162608
0.124966
0.00144456
0.133478
0.00127537
0.142581
0.00111883
0.152368
0.000973707
0.162869
0.000841527
0.174111
0.000722897
0.186108
0.000614626
0.198908
0.000515253
0.212561
0.000423452
0.227134
0.000338543
0.242694
0.000260932
0.259328
0.000182688
0.277145
9.11926e-05
0.296264
4.90142e-05
0.316904
0.338847
0.00599608
0.0464779
0.00550199
0.0498449
0.00518226
0.05348
0.0048794
0.0573115
0.00457723
0.0615211
0.00425944
0.0661289
0.00389897
0.0710861
0.00351264
0.076405
0.00313086
0.0821789
0.0027778
0.0884385
0.00245149
0.0951285
0.00215373
0.102163
0.00188727
0.109504
0.00165634
0.117158
0.00146416
0.125158
0.00130159
0.13364
0.00116013
0.142723
0.00102705
0.152501
0.000899898
0.162996
0.000780849
0.17423
0.000669484
0.186219
0.000568269
0.199009
0.000476528
0.212653
0.000391839
0.227219
0.000313221
0.242772
0.000241921
0.2594
0.000168542
0.277218
8.36981e-05
0.296349
4.40073e-05
0.316943
0.338891
-0.0326068
0.0466415
-0.0329016
0.0501397
-0.0329323
0.0535107
-0.0329765
0.0573557
-0.0330568
0.0616014
-0.0331402
0.0662123
-0.0331557
0.0711015
-0.03307
0.0763194
-0.0328705
0.0819794
-0.0325381
0.0881061
-0.0320718
0.0946622
-0.0314652
0.101557
-0.0307163
0.108755
-0.0298321
0.116274
-0.0288311
0.124157
-0.0277379
0.132547
-0.0265674
0.141552
-0.0253153
0.151249
-0.0239673
0.161648
-0.0225077
0.17277
-0.0209251
0.184636
-0.0192121
0.197296
-0.0173636
0.210805
-0.0153745
0.22523
-0.0132383
0.240636
-0.0109482
0.257109
-0.00849008
0.27476
-0.00588086
0.29374
-0.0030259
0.314088
0.335865
-0.0287664
0.0466512
-0.0287878
0.0501612
-0.0289186
0.0536415
-0.0291213
0.0575584
-0.029296
0.0617761
-0.0294067
0.066323
-0.029449
0.0711438
-0.0294452
0.0763156
-0.0293906
0.0819248
-0.0292454
0.0879608
-0.028961
0.0943777
-0.0285062
0.101102
-0.027893
0.108142
-0.0271368
0.115518
-0.0262592
0.123279
-0.0252838
0.131572
-0.0242201
0.140489
-0.0230715
0.1501
-0.0218312
0.160408
-0.020491
0.17143
-0.0190423
0.183188
-0.0174781
0.195732
-0.0157925
0.209119
-0.0139803
0.223418
-0.0120358
0.238691
-0.00995277
0.255026
-0.00772133
0.272529
-0.00533833
0.291357
-0.00275547
0.311505
0.33311
-0.0251681
0.0468658
-0.0250978
0.0500908
-0.0249765
0.0535202
-0.0250035
0.0575854
-0.025144
0.0619166
-0.0253523
0.0665313
-0.0255639
0.0713555
-0.0257329
0.0764845
-0.025814
0.0820059
-0.0257596
0.0879064
-0.0255372
0.0941554
-0.0251422
0.100707
-0.0245949
0.107595
-0.0239225
0.114845
-0.023166
0.122523
-0.0223481
0.130754
-0.0214681
0.139609
-0.0205044
0.149137
-0.0194386
0.159342
-0.0182649
0.170256
-0.0169839
0.181907
-0.0155946
0.194342
-0.0140949
0.207619
-0.0124807
0.221803
-0.0107468
0.236958
-0.00888832
0.253168
-0.00689849
0.270539
-0.00476482
0.289223
-0.00246568
0.309206
0.330644
-0.0212938
0.0471313
-0.021579
0.050376
-0.0218929
0.0538341
-0.0221881
0.0578807
-0.0224089
0.0621374
-0.0225233
0.0666457
-0.0225499
0.0713821
-0.0225326
0.0764672
-0.02248
0.0819533
-0.0223783
0.0878048
-0.0221966
0.0939737
-0.0219034
0.100414
-0.0214961
0.107187
-0.0209806
0.11433
-0.0203701
0.121912
-0.0196763
0.13006
-0.0189025
0.138835
-0.018045
0.148279
-0.0170954
0.158393
-0.0160481
0.169209
-0.014904
0.180762
-0.0136687
0.193107
-0.0123421
0.206293
-0.0109205
0.220382
-0.00939921
0.235436
-0.00777204
0.251541
-0.0060323
0.268799
-0.004163
0.287354
-0.00215782
0.307201
0.328486
-0.0167415
0.0473092
-0.0170169
0.0506515
-0.0173036
0.0541207
-0.0175535
0.0581306
-0.0178163
0.0624002
-0.0181183
0.0669477
-0.0184375
0.0717012
-0.018704
0.0767338
-0.0188581
0.0821074
-0.0188626
0.0878092
-0.0187021
0.0938132
-0.0184067
0.100118
-0.0180073
0.106788
-0.0175338
0.113856
-0.0170202
0.121399
-0.0164666
0.129506
-0.015861
0.138229
-0.0151881
0.147606
-0.0144324
0.157637
-0.013585
0.168361
-0.0126442
0.179822
-0.0116103
0.192073
-0.0104849
0.205167
-0.00927544
0.219172
-0.00798244
0.234143
-0.00660095
0.250159
-0.00512387
0.267322
-0.00353354
0.285764
-0.00183284
0.3055
0.326653
-0.0123053
0.0477105
-0.0128187
0.0511649
-0.013496
0.0547981
-0.0141775
0.058812
-0.0146639
0.0628866
-0.014962
0.0672459
-0.0151152
0.0718544
-0.0151954
0.076814
-0.01522
0.082132
-0.0151726
0.0877617
-0.0150459
0.0936865
-0.0148361
0.0999086
-0.0145559
0.106508
-0.0142224
0.113523
-0.0138395
0.121016
-0.0134083
0.129075
-0.0129242
0.137745
-0.0123748
0.147057
-0.0117559
0.157018
-0.0110668
0.167672
-0.0103045
0.179059
-0.00946772
0.191236
-0.00855516
0.204255
-0.00756778
0.218185
-0.00651128
0.233087
-0.00538497
0.249033
-0.00418074
0.266118
-0.00288159
0.284465
-0.00149454
0.304113
0.325159
-0.00784941
0.0481575
-0.00818086
0.0514963
-0.00843644
0.0550537
-0.00871735
0.0590929
-0.00913529
0.0633045
-0.00964073
0.0677513
-0.0101418
0.0723555
-0.0105709
0.0772431
-0.0108792
0.0824403
-0.0110541
0.0879366
-0.0110797
0.093712
-0.0109775
0.0998064
-0.0107753
0.106305
-0.0105116
0.113259
-0.0102242
0.120729
-0.00992298
0.128774
-0.00960147
0.137424
-0.00924088
0.146696
-0.00882638
0.156604
-0.0083479
0.167194
-0.00780341
0.178515
-0.00719356
0.190627
-0.0065186
0.20358
-0.00577967
0.217446
-0.00498027
0.232287
-0.00412422
0.248177
-0.00320541
0.265199
-0.00220938
0.283469
-0.00114523
0.303049
0.324014
-0.00309406
0.0488304
-0.00385395
0.0522562
-0.00461542
0.0558151
-0.00529562
0.0597731
-0.00579913
0.063808
-0.00617848
0.0681306
-0.00649841
0.0726755
-0.00677042
0.0775151
-0.00697007
0.08264
-0.00708368
0.0880502
-0.00712594
0.0937543
-0.00711017
0.0997907
-0.00705093
0.106246
-0.00696267
0.113171
-0.00684397
0.12061
-0.00669094
0.128621
-0.0064988
0.137232
-0.00626489
0.146462
-0.00598952
0.156328
-0.00567217
0.166876
-0.0053107
0.178154
-0.00490196
0.190218
-0.0044483
0.203126
-0.00395113
0.216949
-0.00341135
0.231748
-0.00283114
0.247597
-0.0022051
0.264573
-0.00152138
0.282785
-0.000788075
0.302316
0.323226
0.00150276
0.0496069
0.000975904
0.0527831
0.00054072
0.0562503
0.000161598
0.0601523
-0.000325411
0.064295
-0.000852007
0.0686572
-0.00139542
0.0732189
-0.001909
0.0780287
-0.00236673
0.0830977
-0.00273915
0.0884226
-0.00299455
0.0940097
-0.00314354
0.0999396
-0.00320434
0.106307
-0.0032118
0.113178
-0.00320232
0.1206
-0.00318653
0.128605
-0.00315851
0.137204
-0.00310331
0.146407
-0.00301576
0.156241
-0.00289428
0.166755
-0.00273956
0.177999
-0.00255144
0.19003
-0.00233502
0.20291
-0.00209057
0.216704
-0.00181605
0.231473
-0.00151623
0.247297
-0.00118808
0.264245
-0.000822631
0.282419
-0.000425644
0.301919
0.3228
0.00672291
0.00572541
0.00469479
0.00377653
0.00311278
0.00262085
0.00220809
0.00184297
0.00153604
0.00128269
0.00106086
0.000859296
0.000676605
0.000505248
0.000346546
0.000203244
7.9046e-05
-2.17687e-05
-0.000100875
-0.000158588
-0.000195683
-0.000214342
-0.000221963
-0.000220301
-0.000207952
-0.000186457
-0.000158225
-0.000117327
-5.98917e-05
)
;

boundaryField
{
    outlet
    {
        type            calculated;
        value           nonuniform 0();
    }
    upperWall
    {
        type            symmetryPlane;
        value           nonuniform 0();
    }
    lowerWall
    {
        type            symmetryPlane;
        value           uniform 0;
    }
    inlet
    {
        type            calculated;
        value           nonuniform 0();
    }
    cylinder
    {
        type            calculated;
        value           uniform 0;
    }
    frontAndBack
    {
        type            empty;
        value           nonuniform 0();
    }
    procBoundary1to0
    {
        type            processor;
        value           nonuniform List<scalar> 
45
(
-0.0165853
-0.0430688
-0.0438227
-0.0431659
-0.0132471
-0.0419065
-0.0421845
-0.0418582
-0.00728607
-0.0412654
-0.0371447
-0.0422459
-0.00471132
-0.0396785
-0.00418049
-0.0454222
-0.0493728
-0.0528836
-0.0566716
-0.0608652
-0.0653988
-0.0702905
-0.0756267
-0.0814724
-0.087809
-0.0945494
-0.101622
-0.109007
-0.116711
-0.124765
-0.133296
-0.142412
-0.152212
-0.162724
-0.173978
-0.185989
-0.1988
-0.212462
-0.227042
-0.242609
-0.259251
-0.277066
-0.296173
-0.316861
-0.338798
)
;
    }
    procBoundary1to2
    {
        type            processor;
        value           nonuniform List<scalar> 
63
(
0.0168719
0.00906222
0.0206125
0.0226544
0.0346468
0.0258736
0.0259475
0.0345207
0.0292676
0.0301812
0.0309161
0.0352914
0.0335087
0.0347025
0.0361255
0.0343139
0.00200605
0.0132289
-1.33364e-05
-0.00232538
-0.00464251
-0.00691968
0.00703737
-0.0108495
0.00275196
-0.013694
-0.000915097
-0.0136916
-0.00190392
-0.0117525
-0.000229864
-0.00408991
0.0550402
0.0584195
0.0619246
0.0653531
0.0688466
0.0729825
0.077382
0.0816602
0.0863209
0.0916153
-0.0240832
0.0978591
0.103571
0.109897
0.116653
0.124077
0.132192
0.140843
0.150104
0.160037
0.170602
0.18191
0.194128
0.20717
0.221138
0.236158
0.252235
0.269468
0.287948
0.307763
0.329033
)
;
    }
    procBoundary1to5
    {
        type            processor;
        value           nonuniform List<scalar> 
20
(
0.0125126
0.0168225
0.0153594
0.00135491
0.00143105
0.00150146
0.00156879
0.00163685
0.00171072
0.00178681
0.00186683
0.00194674
0.00202814
0.00211242
0.00219523
0.00229163
0.00238696
0.00246855
0.0025657
0.00220333
)
;
    }
}


// ************************************************************************* //
