/*--------------------------------*- C++ -*----------------------------------*\
| =========                 |                                                 |
| \\      /  F ield         | OpenFOAM: The Open Source CFD Toolbox           |
|  \\    /   O peration     | Version:                                        |
|   \\  /    A nd           | Website:  www.openfoam.com                      |
|    \\/     M anipulation  |                                                 |
\*---------------------------------------------------------------------------*/
FoamFile
{
    version     2.0;
    format      ascii;
    class       surfaceScalarField;
    location    "112.6";
    object      phi;
}
// * * * * * * * * * * * * * * * * * * * * * * * * * * * * * * * * * * * * * //

dimensions      [0 3 -1 0 0 0 0];
oriented        oriented;


internalField   nonuniform List<scalar> 
2227
(
0.0480087
0.0018009
-0.0510468
0.0450781
0.00163532
0.00148759
0.0476272
0.00478534
-0.0506116
0.0447164
0.00454607
0.0043338
0.0469915
0.00776384
-0.04997
0.0441113
0.0074263
0.046047
0.0106979
-0.048981
0.0102767
0.0447621
0.0135751
-0.0476393
-0.0459498
0.0538597
-0.00058389
0.0537736
-0.0020819
0.0546345
-0.00305188
0.0544648
0.000606013
0.0551781
-0.000890755
0.0550456
-0.000527656
0.0556215
7.51683e-05
0.0555952
-0.000801242
0.0560319
-0.00195926
0.0559696
-0.000489521
0.0563093
-0.00179584
0.0562293
-0.00145383
0.0564523
-0.00120537
0.0563498
-0.000954442
0.0564325
-0.00107473
0.0562869
-0.000773624
0.056293
-0.000798229
0.0560991
-0.000619968
0.0560177
-0.000768007
0.0557646
-0.000631891
0.0555812
-0.000761856
0.0552462
-0.000666513
0.0549513
-0.000800593
0.0545193
-0.000728663
0.0541077
-0.000836012
0.0535716
-0.000771821
0.0530448
-0.000852925
0.0524047
-0.000792005
0.0517751
-0.000853879
-0.000800912
0.0537976
-0.00134852
0.0537971
-0.00208134
0.054631
-0.00388583
0.0543503
0.000886732
0.0550466
-0.00158706
0.0548578
-0.000338904
0.0554055
-0.000472451
0.0554557
-0.000851504
0.0558504
-0.00235396
0.0558283
-0.000467409
0.0562031
-0.00217063
0.0560639
-0.00131465
0.0562892
-0.00143066
0.0561602
-0.000825396
0.0561995
-0.00111401
0.0560192
-0.000593388
0.0560034
-0.00078238
0.0557918
-0.000408364
0.0556874
-0.000663622
0.0554209
-0.000365377
0.0552293
-0.000570261
0.0548893
-0.000326513
0.0545949
-0.000506246
0.0541601
-0.000293859
0.0537528
-0.000428645
0.0532198
-0.000238823
0.0527034
-0.000336592
0.0520551
-0.000143669
0.0514131
-0.000211867
5.42566e-07
0.0537021
-0.00201757
0.0537745
-0.00215383
0.0545315
-0.00464275
0.054126
0.00129224
0.0547742
-0.00223534
0.0545189
-8.35616e-05
0.0550258
-0.000979394
0.055135
-0.000960618
0.055467
-0.00268601
0.0554838
-0.0004842
0.0558564
-0.00254325
0.0556486
-0.00110684
0.0558594
-0.00164148
0.0556779
-0.000643825
0.0556603
-0.00109641
0.0554466
-0.000379772
0.0553975
-0.000733238
0.0551553
-0.000166156
0.0550378
-0.00054608
0.054746
-7.36203e-05
0.054557
-0.000381274
0.0542019
2.8635e-05
0.053914
-0.00021836
0.0534912
0.000128897
0.0530588
3.7667e-06
0.0525385
0.0002815
0.0519986
0.000203273
0.0513627
0.000492214
0.0507037
0.000447125
0.000734293
0.0535755
-0.00256003
0.0537086
-0.00228701
0.0543359
-0.00527005
0.0537859
0.00184225
0.0543639
-0.00281332
0.0540279
0.00025246
0.0544936
-0.00144513
0.054637
-0.00110402
0.0548969
-0.0029459
0.0549298
-0.00051712
0.0552735
-0.00288696
0.0549794
-0.000812667
0.0551745
-0.00183657
0.0548947
-0.000364035
0.0548343
-0.00103604
0.0545604
-0.000105845
0.0544698
-0.000642639
0.054201
0.000102566
0.0540511
-0.000396179
0.0537578
0.000219726
0.0535323
-0.000155766
0.0532116
0.000349361
0.0528898
0.000103411
0.0524698
0.000548883
0.0520902
0.000383346
0.0515598
0.000811918
0.0510477
0.000715341
0.0504047
0.00113524
0.0497583
0.00109352
0.00151158
0.053421
-0.00294799
0.0536001
-0.00246612
0.0540385
-0.00570851
0.0533359
0.00254487
0.0538108
-0.00328823
0.0533973
0.000665945
0.053816
-0.00186383
0.0539762
-0.00126422
0.0541396
-0.00310931
0.0541836
-0.000561095
0.0544362
-0.00313955
0.0540727
-0.000449148
0.0542084
-0.00197233
0.0538092
3.52585e-05
0.0536801
-0.000906993
0.0533867
0.000187585
0.0532194
-0.000475394
0.0529506
0.000371405
0.0527712
-0.000216795
0.0524697
0.000521234
0.052242
7.18938e-05
0.0518953
0.000696055
0.0516102
0.000388601
0.0511891
0.000969918
0.0507928
0.00077969
0.050269
0.00133572
0.0497523
0.00123198
0.049099
0.00178862
0.0484428
0.0017497
0.00231508
0.0532418
-0.00315681
0.0534483
-0.00267257
0.0536431
-0.00590338
0.0527681
0.00341995
0.0531302
-0.0036504
0.052632
0.00116419
0.053008
-0.00223988
0.0531581
-0.00141427
0.0532152
-0.00316645
0.0532298
-0.000575609
0.0533728
-0.00328261
0.0529145
9.16561e-06
0.0529874
-0.0020452
0.0524087
0.000613976
0.0522786
-0.000776976
0.0518636
0.000602597
0.0516815
-0.000293301
0.0513689
0.000684067
0.0511976
-4.54765e-05
0.0508478
0.000871034
0.0506453
0.000274394
0.0502737
0.00106758
0.0499616
0.000700735
0.0495222
0.0014093
0.0491297
0.00117223
0.0485765
0.0018889
0.0480698
0.00173864
0.0473971
0.00246133
0.046749
0.00239786
0.00311428
0.0530454
-0.00316919
0.0532542
-0.0028814
0.0531374
-0.00578653
0.0520972
0.00446009
0.0523163
-0.00386946
0.0517596
0.00172085
0.052074
-0.00255431
0.0522024
-0.00154264
0.0521188
-0.0030828
0.0520945
-0.000551301
0.0520174
-0.00320556
0.0515553
0.000471238
0.0514703
-0.0019602
0.0507242
0.00136007
0.0505546
-0.000607326
0.05012
0.00103721
0.0498278
-1.16927e-06
0.0495875
0.000924394
0.049318
0.000224006
0.0490289
0.00116013
0.0487742
0.000529124
0.0484087
0.00143306
0.0481036
0.00100585
0.0476351
0.00187775
0.0472593
0.00154811
0.0466938
0.00245438
0.0461768
0.00225565
0.045493
0.00314514
0.044809
0.00308177
0.0528374
-0.00297355
0.0530225
-0.00306653
0.0525183
-0.00528236
0.0513176
0.00566084
0.0513938
-0.00394569
0.0507777
0.00233696
0.0510399
-0.00281647
0.0511013
-0.00160409
0.0508615
-0.00284303
0.0507623
-0.000452111
0.0504716
-0.00291483
0.0499242
0.00101865
0.0497022
-0.00173817
0.0487277
0.00233451
0.0486451
-0.000524677
0.0479551
0.00172723
0.0478295
0.000124419
0.0474782
0.00127568
0.0472097
0.000492459
0.0468377
0.00153216
0.0466097
0.000757109
0.0461527
0.00189012
0.0458316
0.00132696
0.0453226
0.00238674
0.0448695
0.00200115
0.0442806
0.0030433
0.0437331
0.00280321
0.0430262
0.00385198
0.00373153
0.0526157
-0.00255627
0.0527678
-0.00321863
0.0517767
-0.00429128
0.0504399
0.00699766
0.0503476
-0.00385334
0.0496856
0.00299894
0.0498813
-0.00301218
0.0498507
-0.00157354
0.049396
-0.00238832
0.0492304
-0.00028646
0.0486715
-0.00235595
0.0480894
0.00160073
0.0475476
-0.00119639
0.0465549
0.00332719
0.0464133
-0.000383071
0.0456773
0.00246328
0.0455492
0.000252482
0.0452096
0.00161529
0.0448232
0.00087886
0.0445384
0.00181691
0.0441883
0.00110722
0.0438172
0.00226129
0.0434131
0.00173098
0.0429538
0.00284612
0.042503
0.00245195
0.0418689
0.00367736
0.0413588
0.00331335
0.0405572
0.00465355
0.05238
-0.00190327
0.0524874
-0.00332607
0.0509927
-0.00279655
0.0494697
0.0085207
0.049304
-0.00368769
0.0485236
0.00377934
0.0486201
-0.00310868
0.0485035
-0.00145689
0.0477567
-0.00164156
0.0475063
-3.60616e-05
0.0467018
-0.00155147
0.0461022
0.00220032
0.0452106
-0.000304699
0.0440794
0.0044583
0.0441141
-0.000417762
0.0430831
0.00349436
0.0432158
0.000119745
0.0426226
0.00220847
0.0421915
0.00130999
0.0418958
0.00211256
0.0414257
0.00157735
0.0408893
0.00279773
0.0404574
0.0021628
0.0398506
0.00345295
0.0393192
0.00298331
0.0386856
0.00431099
0.0380888
0.00391017
0.005317
0.047883
-0.00195768
0.0487798
-0.00422291
0.0478751
-0.00189179
0.0470933
0.00930248
0.0474587
-0.00405314
0.0473304
0.00390765
0.0477061
-0.0034843
0.0481385
-0.00188936
0.0478077
-0.00131068
0.0480306
-0.00025898
0.0477746
-0.00129549
0.0476373
0.00233766
0.0469949
0.000337684
0.0464734
0.0049798
0.0466975
-0.000641918
0.0460063
0.00418562
0.0465982
-0.000472199
0.0458955
0.00291123
0.0461304
0.00107503
0.0457589
0.00248405
0.045775
0.00156127
0.0455924
0.00298032
0.0453703
0.0023849
0.0454335
0.00338975
0.0450936
0.00332323
0.0452609
0.00414369
0.0449745
0.00419657
0.00505653
0.0511682
-0.0019779
0.0520063
-0.00506098
0.0509944
-0.000879843
0.0504899
0.00980697
0.050644
-0.00420723
0.050707
0.00384465
0.0509337
-0.00371106
0.0513057
-0.00226133
0.0508774
-0.000882341
0.051334
-0.000715592
0.0509258
-0.000887344
0.0507545
0.00250902
0.0498619
0.00123027
0.0499873
0.00485444
0.0496514
-0.000306076
0.0495477
0.00428935
0.0496285
-0.000553036
0.0492067
0.00333304
0.0493066
0.00097513
0.0490626
0.00272806
0.0487898
0.00183405
0.0490029
0.0027672
0.0484798
0.00290807
0.0488889
0.00298059
0.0484765
0.00373565
0.0488552
0.00376499
0.048652
0.00439978
0.00446084
0.0546759
-0.00195592
0.0551686
-0.00555377
0.0543605
-7.16815e-05
0.0542595
0.00990796
0.0541096
-0.00405734
0.0543891
0.00356512
0.0542983
-0.0036202
0.0545687
-0.00253173
0.0541392
-0.000452915
0.054618
-0.00119432
0.0540989
-0.00036831
0.0539472
0.00266077
0.0531418
0.00203558
0.0534658
0.00453044
0.0530359
0.000123874
0.0531836
0.00414168
0.0528517
-0.000221131
0.0528085
0.00337619
0.0525348
0.00124889
0.0526174
0.00264544
0.0520891
0.00236238
0.0524345
0.00242176
0.0520045
0.00333811
0.0522758
0.00270928
0.0522135
0.00379787
0.0524613
0.00351723
0.052539
0.00432211
0.00409837
0.0583895
-0.00185143
0.058464
-0.00562821
0.0580797
0.000312607
0.0584076
0.00957999
0.0579736
-0.00362333
0.0584186
0.00312016
0.0579395
-0.00314114
0.0581546
-0.00274682
0.0577411
-3.94102e-05
0.0579541
-0.00140731
0.0574879
9.78976e-05
0.0576336
0.00251504
0.0569703
0.00269896
0.0571515
0.00434919
0.056848
0.000427426
0.0570301
0.00395956
0.0566235
0.000185459
0.0568212
0.00317852
0.0562979
0.00177212
0.0565753
0.00236807
0.0560429
0.00289473
0.0561943
0.00227043
0.056004
0.00352841
0.0559919
0.00272134
0.0561616
0.00362815
0.0562872
0.00339164
0.0565149
0.00409442
0.00385507
0.0623331
-0.00163088
0.0620639
-0.00535898
0.0621571
0.000219402
0.0628827
0.0088544
0.0621931
-0.00293376
0.0627182
0.00259503
0.061942
-0.00236488
0.0620252
-0.00283004
0.0616729
0.000312912
0.061528
-0.0012625
0.0612797
0.000346225
0.0617703
0.00202442
0.061335
0.0031343
0.0612406
0.00444358
0.0610087
0.00065932
0.0611694
0.00379892
0.0608321
0.000522674
0.0611807
0.00283
0.060667
0.00228581
0.0608319
0.00220316
0.060501
0.00322558
0.0604135
0.00235794
0.0603926
0.00354935
0.0601881
0.00292587
0.0603433
0.00347289
0.0604011
0.00333389
0.0606524
0.00384311
0.00366456
0.0665411
-0.00127688
0.065999
-0.00481695
0.0665909
-0.000372496
0.0676285
0.00781682
0.0666835
-0.00198876
0.0672331
0.00204551
0.0662681
-0.00139991
0.066111
-0.00267297
0.0659274
0.000496525
0.0654591
-0.000794172
0.0654817
0.000323625
0.0661166
0.00138955
0.0661011
0.00314972
0.0657703
0.00477444
0.0655146
0.000915006
0.0656598
0.00365375
0.0652633
0.000919156
0.0657711
0.00232217
0.0654017
0.00265519
0.0654237
0.00218114
0.0652554
0.00339389
0.0649979
0.00261549
0.0650454
0.00350182
0.064764
0.00320724
0.0648439
0.003393
0.0648103
0.0033675
0.0650551
0.00359839
0.00353448
0.0710678
-0.00080694
0.0703309
-0.00407999
0.0713747
-0.00141636
0.0725698
0.00662178
0.0714597
-0.000878722
0.0719429
0.00156229
0.0709163
-0.000373244
0.0704781
-0.00223481
0.0705287
0.00044597
0.069881
-0.000146523
0.0700866
0.000118055
0.0705879
0.000888252
0.0710869
0.00265071
0.0707754
0.00508589
0.0703751
0.00131535
0.0705783
0.00345056
0.0700243
0.00147312
0.0704852
0.00186125
0.0703134
0.00282698
0.0702629
0.00223173
0.0701955
0.00346125
0.069883
0.002928
0.069947
0.00343785
0.0697051
0.00344913
0.0697273
0.0033708
0.0696426
0.00345219
0.0698336
0.00340734
0.00344485
0.0759692
-0.000273431
0.0751529
-0.00326366
0.0765065
-0.00277001
0.0776656
0.00546267
0.076556
0.000230922
0.0768595
0.00125873
0.0758723
0.000614002
0.0752432
-0.00160572
0.0754953
0.000193831
0.0748909
0.000457925
0.0751038
-9.48435e-05
0.0753077
0.000684305
0.0761823
0.00177617
0.0761992
0.005069
0.0756547
0.00185977
0.0758805
0.00322481
0.0752146
0.00213902
0.0753864
0.00168949
0.0753315
0.00288181
0.0752657
0.00229759
0.0753298
0.00339711
0.0750859
0.00317189
0.0751435
0.00338024
0.0750046
0.00358809
0.075016
0.0033594
0.0749681
0.00350008
0.075098
0.00327742
0.00334626
0.0812887
0.000250076
0.0805207
-0.0024957
0.0819698
-0.00421908
0.0829158
0.00451664
0.0820079
0.00113884
0.0820622
0.00120447
0.0811528
0.00152337
0.0805059
-0.000958847
0.0807695
-6.97002e-05
0.0804231
0.000804251
0.0805826
-0.000254346
0.0804442
0.000822739
0.081389
0.000831406
0.0818388
0.00461917
0.0813316
0.002367
0.0814943
0.00306208
0.0808823
0.00275105
0.0807024
0.00186936
0.0806315
0.00295264
0.0805176
0.0024115
0.0806527
0.00326202
0.0805584
0.00326624
0.0806222
0.00331643
0.0806571
0.00355321
0.0807011
0.00331536
0.0807616
0.00343955
0.0808668
0.00317224
0.00321505
0.0870587
0.000681577
0.086395
-0.00183204
0.0876165
-0.00544051
0.08837
0.0037631
0.0877809
0.0017279
0.0876847
0.00130065
0.0868703
0.00233786
0.0862936
-0.00038215
0.0863935
-0.000169624
0.0863161
0.00088167
0.0864778
-0.000416099
0.0861052
0.00119534
0.0867969
0.000139728
0.0875513
0.0038648
0.0872755
0.00264275
0.087354
0.00298364
0.0869455
0.00315951
0.0865451
0.0022698
0.0864057
0.00309202
0.08622
0.00259722
0.0863105
0.00317144
0.0863634
0.00321333
0.0864478
0.00323206
0.0866244
0.00337663
0.0867296
0.0032102
0.086901
0.00326813
0.087037
0.00303622
0.00303147
0.0932954
0.000948452
0.0927425
-0.00127922
0.0934436
-0.00614154
0.09407
0.00313665
0.0938471
0.0019508
0.0937461
0.00140168
0.0931145
0.00296945
0.0926422
9.01875e-05
0.0924992
-2.66601e-05
0.0925321
0.000848805
0.0926866
-0.000570659
0.0922933
0.00158871
0.0925793
-0.000146311
0.0933382
0.00310586
0.0933631
0.00261789
0.0933977
0.00294904
0.0932651
0.00329213
0.0928853
0.0026496
0.0927359
0.00324136
0.0925356
0.00279753
0.0925482
0.00315888
0.0926635
0.00309805
0.0927435
0.00315196
0.0929778
0.00314238
0.0931281
0.00305986
0.0933721
0.0030242
0.0935522
0.00285604
0.00280168
0.0999691
0.00103505
0.0995184
-0.000828461
0.0996447
-0.0062679
0.100155
0.00262603
0.100213
0.00189325
0.100208
0.00140622
0.099845
0.00333278
0.099499
0.000436206
0.099186
0.000286364
0.0991591
0.000875677
0.0992468
-0.000658368
0.0989615
0.00187408
0.0988638
-4.8648e-05
0.0994206
0.00254907
0.0996636
0.00237484
0.0997174
0.00289525
0.0998179
0.00319169
0.0996156
0.00285192
0.099557
0.00329997
0.0994411
0.00291342
0.0994175
0.00318248
0.099543
0.00297252
0.0996197
0.00307529
0.0998478
0.00291421
0.100009
0.00289841
0.100261
0.00277203
0.100458
0.00265993
0.0025601
0.107047
0.000988341
0.106776
-0.000558169
0.106403
-0.00589429
0.106743
0.00228612
0.106942
0.00169335
0.107008
0.0013407
0.106945
0.00339605
0.106776
0.000604684
0.106437
0.000625661
0.106315
0.000997686
0.106228
-0.000571348
0.106098
0.00200364
0.105815
0.000234518
0.10607
0.00229398
0.106371
0.00207438
0.106456
0.00280954
0.106671
0.00297723
0.106669
0.00285357
0.106751
0.00321836
0.106767
0.00289735
0.106802
0.00314755
0.106937
0.00283774
0.107038
0.00297346
0.107241
0.00271142
0.107399
0.00274049
0.10763
0.00254098
0.107817
0.00247351
0.0023269
0.114573
0.000841448
0.114451
-0.000435819
0.113718
-0.00516209
0.11395
0.00205466
0.114164
0.00147912
0.114252
0.00125311
0.114456
0.00319212
0.114396
0.000663798
0.114132
0.000890058
0.113968
0.00116218
0.113705
-0.000309094
0.113695
0.00201369
0.113373
0.000557166
0.113429
0.00223779
0.113666
0.00183696
0.113789
0.00268681
0.114019
0.00274709
0.114133
0.00273968
0.114323
0.00302828
0.114458
0.00276219
0.114587
0.00301903
0.114748
0.00267686
0.114895
0.00282593
0.11509
0.00251617
0.115261
0.0025698
0.11547
0.00233158
0.115652
0.00229209
0.00211687
0.122563
0.000646258
0.122524
-0.000397685
0.12162
-0.00425718
0.121822
0.00185185
0.122015
0.0012862
0.122077
0.00119154
0.122433
0.00283651
0.122385
0.000711017
0.122211
0.00106434
0.122075
0.00129818
0.121709
5.73758e-05
0.121778
0.00194472
0.121524
0.000810597
0.121523
0.00223884
0.121658
0.00170198
0.121805
0.00253941
0.122012
0.00254026
0.122165
0.00258705
0.122402
0.00279066
0.122592
0.00257257
0.1228
0.00281106
0.122984
0.002493
0.123175
0.00263455
0.123369
0.00232217
0.123562
0.00237668
0.123761
0.00213326
0.123948
0.00210451
0.00192301
0.131057
0.00044907
0.13109
-0.000430742
0.13013
-0.0032967
0.130317
0.00166482
0.130517
0.00108636
0.130522
0.00118653
0.130912
0.00244594
0.130851
0.000772505
0.130741
0.00117406
0.130685
0.0013542
0.130319
0.000423169
0.130412
0.00185187
0.130239
0.000983856
0.13026
0.00221803
0.130317
0.00164456
0.130477
0.00237916
0.130672
0.00234516
0.130821
0.00243882
0.131056
0.00255487
0.131256
0.00237338
0.131504
0.00256241
0.131708
0.00228953
0.131933
0.00240961
0.132132
0.00212238
0.132348
0.00216094
0.132548
0.00193303
0.132748
0.00190511
0.00173391
0.140116
0.000275003
0.140134
-0.000448462
0.139267
-0.00242952
0.139475
0.00145704
0.139651
0.000909509
0.139633
0.0012044
0.139967
0.00211292
0.139878
0.000861449
0.139835
0.00121636
0.139824
0.00136512
0.139552
0.000695226
0.139633
0.00177076
0.139514
0.00110304
0.139594
0.0021382
0.139604
0.00163461
0.139778
0.00220524
0.139956
0.00216687
0.140122
0.0022726
0.14034
0.00233764
0.140536
0.00217712
0.140796
0.00230186
0.141006
0.00207995
0.141255
0.00216099
0.141451
0.00192614
0.141681
0.00193042
0.141876
0.0017381
0.142088
0.00169339
0.00155054
0.149774
0.000155846
0.149784
-0.000458645
0.149094
-0.00173961
0.149278
0.00127295
0.149413
0.00077448
0.149373
0.00124462
0.149638
0.001848
0.149595
0.000904214
0.149575
0.00123597
0.149597
0.00134354
0.149416
0.00087643
0.149483
0.00170364
0.149404
0.00118175
0.149524
0.00201829
0.149541
0.00161761
0.149713
0.00203365
0.149896
0.00198349
0.150083
0.0020854
0.150293
0.00212773
0.150479
0.00199164
0.150724
0.00205619
0.150929
0.00187538
0.151172
0.00191749
0.151367
0.00173142
0.151589
0.00170879
0.151778
0.00154879
0.151983
0.00148837
0.00137013
0.160127
6.93559e-05
0.160101
-0.000432014
0.159551
-0.00118961
0.159749
0.00107517
0.159865
0.000658365
0.159797
0.00131236
0.160005
0.00164015
0.160014
0.000895445
0.160005
0.00124419
0.160054
0.00129458
0.159946
0.000985238
0.160027
0.00162236
0.159994
0.00121501
0.160123
0.00188925
0.160167
0.00157364
0.160319
0.00188094
0.160489
0.00181338
0.160679
0.00189556
0.160885
0.00192167
0.161069
0.0018078
0.161296
0.00182951
0.161499
0.00167201
0.161734
0.00168285
0.161934
0.00153117
0.162149
0.00149398
0.162338
0.00135963
0.162535
0.00129096
0.00119061
0.171207
1.07709e-05
0.171144
-0.000369224
0.170742
-0.00078742
0.17091
0.00090749
0.171007
0.000561227
0.170997
0.00132192
0.171114
0.00152282
0.171121
0.000888796
0.171153
0.00121264
0.171237
0.00121057
0.171223
0.000999009
0.171341
0.00150459
0.171355
0.00120033
0.17148
0.0017649
0.171524
0.00152906
0.171633
0.00177237
0.17176
0.00168664
0.171922
0.00173268
0.172112
0.00173225
0.172296
0.00162413
0.172513
0.00161175
0.172726
0.00145958
0.172967
0.0014414
0.17319
0.00130806
0.173421
0.00126348
0.17363
0.00115077
0.173837
0.00108375
0.00100038
0.183069
-3.18501e-05
0.182936
-0.000236236
0.182709
-0.000560006
0.182878
0.000738199
0.182863
0.000576269
0.182978
0.0012071
0.183069
0.00143119
0.182998
0.000959821
0.183094
0.00111706
0.183171
0.00113362
0.183232
0.000937891
0.183402
0.00133443
0.183452
0.00115
0.183612
0.00160581
0.183655
0.00148561
0.183758
0.00166927
0.183848
0.00159653
0.183979
0.00160235
0.184142
0.0015683
0.184307
0.00145919
0.184514
0.00140519
0.184712
0.00126166
0.184948
0.00120499
0.185168
0.00108797
0.185403
0.00102851
0.185616
0.000938466
0.185827
0.000872739
0.000809401
0.195762
-6.50178e-05
0.195601
-7.51956e-05
0.195477
-0.000435868
0.195658
0.000556704
0.195558
0.000676822
0.19571
0.00105455
0.195859
0.0012826
0.195764
0.00105504
0.195891
0.000989636
0.195962
0.00106279
0.196029
0.000871375
0.196215
0.00114812
0.196282
0.00108331
0.196478
0.00140946
0.196564
0.00139991
0.196701
0.00153177
0.196816
0.00148205
0.19695
0.001468
0.197117
0.00140103
0.197269
0.00130762
0.197458
0.00121552
0.197625
0.0010955
0.197825
0.00100477
0.198006
0.000906663
0.198203
0.000831551
0.198381
0.000760544
0.198557
0.000696254
0.000647458
0.209334
-8.58555e-05
0.209232
2.70382e-05
0.209096
-0.000300361
0.209234
0.000419086
0.20919
0.000720623
0.209307
0.000937285
0.209488
0.00110222
0.20947
0.00107268
0.209581
0.000878828
0.209663
0.000981048
0.209709
0.000825121
0.20986
0.000996634
0.209939
0.00100459
0.210139
0.00120992
0.210285
0.00125392
0.210472
0.00134474
0.210645
0.00130858
0.210819
0.0012942
0.211009
0.00121114
0.211173
0.0011438
0.21135
0.00103807
0.211496
0.000949391
0.211653
0.000848363
0.211788
0.00077141
0.211928
0.000691812
0.212053
0.000635004
0.212175
0.000574197
0.000534345
0.223835
-8.1324e-05
0.223817
4.53214e-05
0.223678
-0.00016091
0.223737
0.000360248
0.223786
0.000671641
0.223876
0.000847203
0.224033
0.000944509
0.22412
0.000986073
0.224204
0.000794833
0.224301
0.000884372
0.22435
0.000775728
0.224463
0.000883704
0.224564
0.000904013
0.224744
0.00102896
0.22493
0.00106881
0.225143
0.00113091
0.225352
0.00110023
0.225557
0.00108898
0.225757
0.00101155
0.225937
0.000963605
0.226103
0.000871839
0.226244
0.000808524
0.226371
0.00072095
0.226481
0.000661313
0.226583
0.000590412
0.226674
0.000543363
0.226759
0.000489453
0.000454203
0.239354
-6.06129e-05
0.239368
3.14027e-05
0.239264
-5.68524e-05
0.239281
0.000343357
0.239372
0.000580849
0.239467
0.000751944
0.239601
0.000810709
0.239739
0.000847711
0.239822
0.000712189
0.239933
0.000773354
0.240007
0.000702205
0.240113
0.000776875
0.240234
0.000783411
0.240399
0.000863538
0.240589
0.000879517
0.240799
0.000920876
0.241006
0.0008928
0.241213
0.000882181
0.241404
0.000820845
0.241584
0.00078349
0.241742
0.00071398
0.241883
0.000666731
0.242004
0.000600125
0.242112
0.000553834
0.242205
0.000497312
0.24229
0.000458508
0.242366
0.000413573
0.000383023
0.255967
-3.88396e-05
0.25597
2.77692e-05
0.255911
2.85318e-06
0.255932
0.000322249
0.256026
0.000486438
0.256135
0.000642853
0.256264
0.00068181
0.256409
0.000702844
0.25651
0.00061142
0.25663
0.000653187
0.25673
0.000602204
0.25685
0.000656796
0.256985
0.000648666
0.257146
0.000702578
0.257325
0.000700405
0.25752
0.00072517
0.257713
0.000699985
0.257905
0.000690517
0.258081
0.000644752
0.25825
0.000614733
0.2584
0.000563364
0.25854
0.000527579
0.258661
0.000478433
0.258772
0.000443438
0.258869
0.000399851
0.258958
0.000369236
0.25904
0.000332258
0.00030782
0.273737
-2.11796e-05
0.27373
3.49263e-05
0.273696
3.64924e-05
0.273734
0.000284136
0.273827
0.000394028
0.273949
0.000521048
0.274084
0.00054663
0.274226
0.000560144
0.274342
0.000495529
0.274471
0.000524418
0.274587
0.000486008
0.274721
0.000522884
0.274863
0.000507234
0.275023
0.000542218
0.275191
0.000532218
0.275372
0.000544686
0.27555
0.000521229
0.275731
0.000510216
0.2759
0.000475483
0.27606
0.000455124
0.276205
0.000417727
0.276342
0.000390777
0.276467
0.000353723
0.276583
0.000327201
0.276689
0.000293702
0.276788
0.000270784
0.276877
0.000242664
0.00022439
0.292739
-5.92038e-06
0.29274
3.39217e-05
0.292718
5.80999e-05
0.292775
0.000227715
0.292863
0.000305337
0.292992
0.000392722
0.293128
0.000410016
0.293275
0.000413272
0.2934
0.000370596
0.29354
0.000384672
0.293666
0.000359954
0.293811
0.000377899
0.293954
0.000364538
0.294112
0.000383606
0.294269
0.000375868
0.294434
0.000378877
0.294597
0.000358903
0.294761
0.000345788
0.294917
0.000319288
0.295074
0.000298804
0.295221
0.000270102
0.295365
0.000247152
0.2955
0.000218717
0.29563
0.000196568
0.295753
0.000171205
0.295871
0.000152962
0.295981
0.000132858
0.000119789
0.313063
3.56122e-06
0.313074
2.26096e-05
0.313085
4.72414e-05
0.313188
0.000123972
0.31333
0.000163583
0.313522
0.000200511
0.313723
0.000209675
0.31393
0.00020588
0.314115
0.00018552
0.31431
0.000189646
0.314488
0.000182076
0.314677
0.000188669
0.314859
0.000182466
0.315053
0.000189569
0.315242
0.000187275
0.315433
0.000187927
0.315612
0.000179472
0.315786
0.000172121
0.315943
0.000162182
0.31609
0.000152508
0.31622
0.00013994
0.316338
0.000128731
0.316441
0.000115478
0.316534
0.000104123
0.316613
9.17357e-05
0.316684
8.20685e-05
0.316745
7.19564e-05
6.46854e-05
0.334804
0.334826
0.334873
0.334997
0.335161
0.335362
0.335571
0.335777
0.335963
0.336152
0.336334
0.336523
0.336705
0.336895
0.337082
0.33727
0.33745
0.337622
0.337784
0.337937
0.338076
0.338205
0.338321
0.338425
0.338517
0.338599
0.338671
)
;

boundaryField
{
    outlet
    {
        type            calculated;
        value           nonuniform 0();
    }
    upperWall
    {
        type            symmetryPlane;
        value           uniform 0;
    }
    lowerWall
    {
        type            symmetryPlane;
        value           nonuniform 0();
    }
    inlet
    {
        type            calculated;
        value           nonuniform List<scalar> 
40
(
-0.053033
-0.053033
-0.053033
-0.053033
-0.053033
-0.053033
-0.053033
-0.053033
-0.053033
-0.053033
-0.0478286
-0.051148
-0.0546978
-0.058494
-0.0625537
-0.0668951
-0.0715378
-0.0765027
-0.0818122
-0.0874902
-0.0935622
-0.100056
-0.107
-0.114426
-0.122367
-0.13086
-0.139942
-0.149655
-0.160041
-0.171148
-0.183026
-0.195729
-0.209313
-0.22384
-0.239375
-0.255988
-0.273755
-0.292754
-0.313072
-0.3348
)
;
    }
    cylinder
    {
        type            calculated;
        value           nonuniform 0();
    }
    frontAndBack
    {
        type            empty;
        value           nonuniform 0();
    }
    procBoundary4to0
    {
        type            processor;
        value           nonuniform List<scalar> 
33
(
0.00123723
0.00129529
0.00137183
-0.000242832
0.00216804
0.00219099
-0.000436283
0.000177383
0.000660216
-0.00065109
0.000827524
0.00152252
0.0005519
0.00145614
0.0015338
0.000982311
0.00105699
0.000992037
0.000919223
0.000792117
0.000813838
0.000849435
0.000884998
0.000945277
0.00100148
0.00109546
0.00116074
0.00124756
0.0013079
0.00137976
0.00143213
0.00148344
0.00152923
)
;
    }
    procBoundary4to5
    {
        type            processor;
        value           nonuniform List<scalar> 
45
(
0.0422186
0.0418702
0.0412962
0.00714888
0.0431966
0.0419647
0.013074
0.0431451
0.0163797
0.0439485
0.00397481
0.0423765
0.039902
0.00438677
0.0374253
0.045235
0.0492477
0.0529014
0.0567582
0.0608429
0.0651851
0.0699233
0.0751966
0.080998
0.0872206
0.093782
0.100699
0.10805
0.115862
0.124142
0.132937
0.142271
0.152163
0.162715
0.174027
0.186018
0.198719
0.212288
0.226839
0.242437
0.259115
0.276961
0.296085
0.3168
0.338735
)
;
    }
}


// ************************************************************************* //
