/*--------------------------------*- C++ -*----------------------------------*\
| =========                 |                                                 |
| \\      /  F ield         | OpenFOAM: The Open Source CFD Toolbox           |
|  \\    /   O peration     | Version:                                        |
|   \\  /    A nd           | Website:  www.openfoam.com                      |
|    \\/     M anipulation  |                                                 |
\*---------------------------------------------------------------------------*/
FoamFile
{
    version     2.0;
    format      ascii;
    class       volScalarField;
    location    "0.2";
    object      p;
}
// * * * * * * * * * * * * * * * * * * * * * * * * * * * * * * * * * * * * * //

dimensions      [0 2 -2 0 0 0 0];


internalField   nonuniform List<scalar> 
400
(
0.133908
0.127034
0.120167
0.113296
0.106424
0.0995543
0.0926862
0.0858195
0.0789535
0.0720877
0.065222
0.0583567
0.0514916
0.0446263
0.0377607
0.0308952
0.02403
0.017165
0.0102998
0.00343355
0.13391
0.127033
0.120165
0.113296
0.106425
0.0995546
0.0926866
0.0858199
0.0789538
0.072088
0.0652223
0.058357
0.0514918
0.0446264
0.0377609
0.0308954
0.0240301
0.0171651
0.0102994
0.00343314
0.13391
0.127029
0.120163
0.113295
0.106424
0.0995547
0.0926868
0.0858202
0.0789541
0.0720882
0.0652226
0.0583572
0.051492
0.0446266
0.0377611
0.0308956
0.0240303
0.0171651
0.0102989
0.00343269
0.133908
0.127027
0.120161
0.113294
0.106424
0.0995544
0.0926868
0.0858203
0.0789543
0.0720885
0.0652228
0.0583575
0.0514922
0.0446268
0.0377613
0.0308958
0.0240304
0.0171652
0.0102988
0.00343253
0.133905
0.127024
0.120159
0.113292
0.106423
0.0995539
0.0926867
0.0858203
0.0789544
0.0720886
0.0652231
0.0583577
0.0514924
0.044627
0.0377616
0.030896
0.0240305
0.0171653
0.0102987
0.00343243
0.133902
0.127023
0.120156
0.11329
0.106421
0.0995533
0.0926864
0.0858203
0.0789544
0.0720888
0.0652233
0.0583579
0.0514926
0.0446273
0.0377618
0.0308962
0.0240306
0.0171654
0.0102987
0.00343236
0.133899
0.127021
0.120154
0.113288
0.10642
0.0995527
0.0926861
0.0858202
0.0789544
0.0720889
0.0652234
0.0583581
0.0514928
0.0446275
0.0377619
0.0308964
0.0240307
0.0171654
0.0102987
0.00343232
0.133896
0.127019
0.120152
0.113286
0.106419
0.099552
0.0926858
0.08582
0.0789544
0.0720889
0.0652236
0.0583584
0.051493
0.0446276
0.0377621
0.0308965
0.0240307
0.0171654
0.0102987
0.00343229
0.133894
0.127018
0.12015
0.113284
0.106418
0.0995514
0.0926855
0.0858199
0.0789544
0.072089
0.0652238
0.0583585
0.0514932
0.0446278
0.0377622
0.0308966
0.0240307
0.0171653
0.0102987
0.00343228
0.133891
0.127017
0.120148
0.113282
0.106417
0.0995508
0.0926852
0.0858197
0.0789544
0.0720891
0.0652239
0.0583587
0.0514934
0.0446279
0.0377623
0.0308966
0.0240308
0.0171654
0.0102987
0.00343228
0.133889
0.127016
0.120147
0.113281
0.106416
0.0995504
0.0926849
0.0858197
0.0789545
0.0720893
0.0652241
0.0583589
0.0514935
0.044628
0.0377623
0.0308967
0.0240309
0.0171654
0.0102988
0.0034323
0.133888
0.127016
0.120147
0.113281
0.106415
0.0995501
0.0926848
0.0858196
0.0789545
0.0720893
0.0652242
0.058359
0.0514936
0.0446281
0.0377624
0.0308967
0.024031
0.0171654
0.0102988
0.00343232
0.133887
0.127016
0.120147
0.11328
0.106415
0.0995499
0.0926847
0.0858196
0.0789545
0.0720894
0.0652243
0.0583591
0.0514937
0.0446281
0.0377624
0.0308968
0.024031
0.0171654
0.0102988
0.00343237
0.133887
0.127016
0.120147
0.113281
0.106415
0.0995498
0.0926846
0.0858195
0.0789545
0.0720895
0.0652244
0.0583591
0.0514937
0.0446281
0.0377625
0.0308969
0.0240311
0.0171654
0.0102989
0.00343242
0.133887
0.127016
0.120147
0.113281
0.106415
0.0995498
0.0926846
0.0858196
0.0789546
0.0720896
0.0652244
0.0583591
0.0514937
0.0446282
0.0377626
0.0308969
0.0240311
0.0171653
0.0102989
0.00343249
0.133887
0.127016
0.120148
0.113281
0.106415
0.0995498
0.0926846
0.0858196
0.0789546
0.0720896
0.0652245
0.0583592
0.0514937
0.0446282
0.0377626
0.0308969
0.024031
0.0171652
0.010299
0.00343255
0.133887
0.127017
0.120148
0.113281
0.106415
0.0995499
0.0926847
0.0858196
0.0789546
0.0720896
0.0652245
0.0583592
0.0514937
0.0446282
0.0377625
0.0308968
0.024031
0.0171651
0.010299
0.00343258
0.133887
0.127017
0.120149
0.113282
0.106415
0.0995499
0.0926847
0.0858196
0.0789546
0.0720896
0.0652245
0.0583592
0.0514937
0.0446281
0.0377625
0.0308967
0.0240309
0.017165
0.0102989
0.00343257
0.133887
0.127017
0.120149
0.113282
0.106415
0.0995499
0.0926847
0.0858197
0.0789547
0.0720896
0.0652245
0.0583592
0.0514937
0.0446281
0.0377624
0.0308966
0.0240308
0.0171648
0.0102987
0.00343247
0.133886
0.127016
0.120148
0.113281
0.106415
0.0995499
0.0926847
0.0858197
0.0789547
0.0720897
0.0652245
0.0583591
0.0514936
0.044628
0.0377623
0.0308966
0.0240307
0.0171647
0.0102984
0.00343224
)
;

boundaryField
{
    fixedWalls
    {
        type            zeroGradient;
    }
    inlet
    {
        type            zeroGradient;
    }
    outlet
    {
        type            fixedValue;
        value           uniform 0;
    }
    frontAndBack
    {
        type            empty;
    }
    procBoundary7to3
    {
        type            processor;
        value           nonuniform List<scalar> 
20
(
0.133908
0.127034
0.120167
0.113296
0.106424
0.0995538
0.0926857
0.085819
0.0789531
0.0720874
0.0652216
0.0583563
0.0514914
0.0446261
0.0377606
0.030895
0.0240298
0.0171649
0.0102999
0.00343368
)
;
    }
    procBoundary7to6
    {
        type            processor;
        value           nonuniform List<scalar> 
20
(
0.140801
0.140801
0.140802
0.1408
0.140796
0.14079
0.140784
0.140778
0.140772
0.140767
0.140763
0.14076
0.140759
0.140758
0.140758
0.140758
0.140759
0.140759
0.140758
0.140758
)
;
    }
}


// ************************************************************************* //
