/*--------------------------------*- C++ -*----------------------------------*\
| =========                 |                                                 |
| \\      /  F ield         | OpenFOAM: The Open Source CFD Toolbox           |
|  \\    /   O peration     | Version:                                        |
|   \\  /    A nd           | Website:  www.openfoam.com                      |
|    \\/     M anipulation  |                                                 |
\*---------------------------------------------------------------------------*/
FoamFile
{
    version     2.0;
    format      ascii;
    class       surfaceScalarField;
    location    "0.2";
    object      phi;
}
// * * * * * * * * * * * * * * * * * * * * * * * * * * * * * * * * * * * * * //

dimensions      [0 3 -1 0 0 0 0];
oriented        oriented;


internalField   nonuniform List<scalar> 
760
(
3.465e-05
-1.9961e-09
3.46513e-05
-1.0373e-09
3.4652e-05
-4.08643e-10
3.46526e-05
-2.82824e-10
3.46531e-05
-2.52195e-10
3.46534e-05
-2.2822e-10
3.46537e-05
-1.90209e-10
3.46538e-05
-1.46156e-10
3.4654e-05
-1.06016e-10
3.46541e-05
-7.37549e-11
3.46541e-05
-4.93488e-11
3.46542e-05
-3.27557e-11
3.46542e-05
-2.12784e-11
3.46542e-05
-1.43204e-11
3.46543e-05
-7.51971e-12
3.46543e-05
-5.02259e-12
3.46543e-05
3.23095e-12
3.46543e-05
7.32328e-13
3.46543e-05
4.11919e-11
6.13891e-11
3.45707e-05
-3.63044e-09
3.45719e-05
-2.19131e-09
3.45728e-05
-1.31833e-09
3.45734e-05
-9.01158e-10
3.45738e-05
-6.70271e-10
3.45741e-05
-5.19152e-10
3.45743e-05
-3.99555e-10
3.45745e-05
-2.98777e-10
3.45746e-05
-2.16409e-10
3.45747e-05
-1.52151e-10
3.45747e-05
-1.03725e-10
3.45748e-05
-7.06052e-11
3.45748e-05
-4.788e-11
3.45748e-05
-3.39311e-11
3.45748e-05
-2.11702e-11
3.45748e-05
-1.81881e-11
3.45749e-05
-3.9417e-12
3.45749e-05
-3.34699e-12
3.45749e-05
3.78644e-11
5.98173e-11
3.44073e-05
-4.85955e-09
3.44085e-05
-3.36438e-09
3.44094e-05
-2.22898e-09
3.441e-05
-1.4852e-09
3.44103e-05
-1.02579e-09
3.44105e-05
-7.38986e-10
3.44107e-05
-5.44859e-10
3.44108e-05
-4.00566e-10
3.44109e-05
-2.90007e-10
3.44109e-05
-2.05871e-10
3.4411e-05
-1.42398e-10
3.4411e-05
-9.8528e-11
3.4411e-05
-6.84261e-11
3.4411e-05
-4.95763e-11
3.4411e-05
-3.33717e-11
3.4411e-05
-2.97508e-11
3.4411e-05
-1.45892e-11
3.44111e-05
-1.59475e-11
3.44111e-05
5.63522e-12
2.84035e-11
3.41512e-05
-5.76074e-09
3.41521e-05
-4.27756e-09
3.41528e-05
-2.95481e-09
3.41533e-05
-1.9499e-09
3.41535e-05
-1.29423e-09
3.41537e-05
-8.89464e-10
3.41538e-05
-6.32121e-10
3.41538e-05
-4.55838e-10
3.41539e-05
-3.28456e-10
3.41539e-05
-2.34143e-10
3.41539e-05
-1.64147e-10
3.41539e-05
-1.15542e-10
3.41539e-05
-8.19297e-11
3.4154e-05
-6.09044e-11
3.4154e-05
-4.40548e-11
3.4154e-05
-3.97589e-11
3.4154e-05
-2.67564e-11
3.4154e-05
-2.80222e-11
3.4154e-05
-1.69044e-11
3.38224e-13
3.3789e-05
-6.27445e-09
3.37896e-05
-4.83509e-09
3.37901e-05
-3.41677e-09
3.37904e-05
-2.24852e-09
3.37905e-05
-1.45943e-09
3.37906e-05
-9.70334e-10
3.37906e-05
-6.68107e-10
3.37906e-05
-4.71735e-10
3.37907e-05
-3.36689e-10
3.37907e-05
-2.40183e-10
3.37907e-05
-1.70361e-10
3.37907e-05
-1.22071e-10
3.37907e-05
-8.89119e-11
3.37907e-05
-6.8386e-11
3.37907e-05
-5.28804e-11
3.37907e-05
-4.83588e-11
3.37907e-05
-3.91952e-11
3.37907e-05
-4.04196e-11
3.37908e-05
-3.6456e-11
-2.7094e-11
3.33042e-05
-6.40809e-09
3.33043e-05
-5.0297e-09
3.33045e-05
-3.59586e-09
3.33046e-05
-2.36281e-09
3.33047e-05
-1.51251e-09
3.33047e-05
-9.81822e-10
3.33047e-05
-6.57742e-10
3.33047e-05
-4.54099e-10
3.33047e-05
-3.20041e-10
3.33046e-05
-2.28191e-10
3.33046e-05
-1.63776e-10
3.33046e-05
-1.19653e-10
3.33046e-05
-9.00496e-11
3.33046e-05
-7.2294e-11
3.33046e-05
-5.98445e-11
3.33047e-05
-5.59262e-11
3.33047e-05
-5.10548e-11
3.33047e-05
-5.30568e-11
3.33047e-05
-5.45958e-11
-5.27868e-11
3.26764e-05
-6.2063e-09
3.26763e-05
-4.90043e-09
3.26762e-05
-3.51416e-09
3.26761e-05
-2.30588e-09
3.26761e-05
-1.46344e-09
3.2676e-05
-9.32091e-10
3.2676e-05
-6.08097e-10
3.26759e-05
-4.0963e-10
3.26759e-05
-2.84545e-10
3.26759e-05
-2.02593e-10
3.26758e-05
-1.4726e-10
3.26758e-05
-1.10303e-10
3.26758e-05
-8.66297e-11
3.26758e-05
-7.32025e-11
3.26758e-05
-6.4755e-11
3.26758e-05
-6.23257e-11
3.26759e-05
-6.1766e-11
3.26759e-05
-6.53021e-11
3.26759e-05
-7.15123e-11
-7.60918e-11
3.18829e-05
-5.73463e-09
3.18825e-05
-4.51372e-09
3.18822e-05
-3.22893e-09
3.1882e-05
-2.11602e-09
3.18819e-05
-1.33449e-09
3.18818e-05
-8.35609e-10
3.18817e-05
-5.30937e-10
3.18817e-05
-3.47795e-10
3.18816e-05
-2.36826e-10
3.18816e-05
-1.67896e-10
3.18816e-05
-1.24189e-10
3.18815e-05
-9.65087e-11
3.18815e-05
-7.99069e-11
3.18815e-05
-7.13424e-11
3.18815e-05
-6.74369e-11
3.18815e-05
-6.73848e-11
3.18815e-05
-7.08931e-11
3.18816e-05
-7.62331e-11
3.18816e-05
-8.68736e-11
-9.67875e-11
3.0899e-05
-5.07214e-09
3.08984e-05
-3.95025e-09
3.0898e-05
-2.81073e-09
3.08977e-05
-1.84248e-09
3.08975e-05
-1.1568e-09
3.08974e-05
-7.12099e-10
3.08973e-05
-4.39501e-10
3.08972e-05
-2.78175e-10
3.08972e-05
-1.84075e-10
3.08971e-05
-1.29431e-10
3.08971e-05
-9.81919e-11
3.08971e-05
-8.04354e-11
3.08971e-05
-7.11246e-11
3.08971e-05
-6.73982e-11
3.08971e-05
-6.80177e-11
3.08971e-05
-7.06945e-11
3.08971e-05
-7.78543e-11
3.08971e-05
-8.49565e-11
3.08971e-05
-1.00136e-10
-1.14666e-10
2.96991e-05
-4.29979e-09
2.96984e-05
-3.29348e-09
2.9698e-05
-2.33112e-09
2.96977e-05
-1.53472e-09
2.96975e-05
-9.61972e-10
2.96973e-05
-5.81322e-10
2.96972e-05
-3.4595e-10
2.96972e-05
-2.09055e-10
2.96971e-05
-1.32936e-10
2.96971e-05
-9.24109e-11
2.96971e-05
-7.26723e-11
2.9697e-05
-6.39469e-11
2.9697e-05
-6.13603e-11
2.9697e-05
-6.20955e-11
2.9697e-05
-6.66716e-11
2.9697e-05
-7.18015e-11
2.9697e-05
-8.20763e-11
2.9697e-05
-9.07682e-11
2.9697e-05
-1.10711e-10
-1.29363e-10
2.82582e-05
-3.49304e-09
2.82575e-05
-2.62091e-09
2.82571e-05
-1.8539e-09
2.82568e-05
-1.23404e-09
2.82566e-05
-7.74235e-10
2.82564e-05
-4.57963e-10
2.82564e-05
-2.5984e-10
2.82563e-05
-1.47028e-10
2.82562e-05
-8.82789e-11
2.82562e-05
-6.04593e-11
2.82562e-05
-5.00891e-11
2.82562e-05
-4.85552e-11
2.82562e-05
-5.15276e-11
2.82562e-05
-5.59889e-11
2.82562e-05
-6.3539e-11
2.82562e-05
-7.03939e-11
2.82562e-05
-8.31309e-11
2.82562e-05
-9.31557e-11
2.82562e-05
-1.18033e-10
-1.40363e-10
2.65529e-05
-2.71622e-09
2.65523e-05
-1.99641e-09
2.65518e-05
-1.4259e-09
2.65516e-05
-9.67167e-10
2.65514e-05
-6.07553e-10
2.65513e-05
-3.50104e-10
2.65512e-05
-1.86966e-10
2.65512e-05
-9.62332e-11
2.65511e-05
-5.26413e-11
2.65511e-05
-3.52282e-11
2.65511e-05
-3.18239e-11
2.65511e-05
-3.538e-11
2.65511e-05
-4.23122e-11
2.65511e-05
-4.9332e-11
2.65511e-05
-5.86413e-11
2.65511e-05
-6.63695e-11
2.65511e-05
-8.08134e-11
2.65511e-05
-9.17733e-11
2.65511e-05
-1.21569e-10
-1.47064e-10
2.4563e-05
-2.0182e-09
2.45625e-05
-1.46326e-09
2.45621e-05
-1.07141e-09
2.45619e-05
-7.44554e-10
2.45617e-05
-4.66685e-10
2.45617e-05
-2.60324e-10
2.45616e-05
-1.29177e-10
2.45616e-05
-5.79523e-11
2.45615e-05
-2.65393e-11
2.45615e-05
-1.69292e-11
2.45615e-05
-1.82999e-11
2.45615e-05
-2.48989e-11
2.45615e-05
-3.39581e-11
2.45615e-05
-4.21372e-11
2.45615e-05
-5.19845e-11
2.45615e-05
-5.9854e-11
2.45615e-05
-7.51431e-11
2.45614e-05
-8.64578e-11
2.45614e-05
-1.20794e-10
-1.48793e-10
2.22728e-05
-1.43055e-09
2.22724e-05
-1.04001e-09
2.22721e-05
-7.92728e-10
2.22719e-05
-5.63708e-10
2.22718e-05
-3.50116e-10
2.22717e-05
-1.87691e-10
2.22717e-05
-8.54062e-11
2.22716e-05
-3.12117e-11
2.22716e-05
-9.1637e-12
2.22716e-05
-4.91187e-12
2.22716e-05
-9.14367e-12
2.22716e-05
-1.69201e-11
2.22716e-05
-2.63193e-11
2.22716e-05
-3.4405e-11
2.22716e-05
-4.37827e-11
2.22716e-05
-5.11998e-11
2.22715e-05
-6.63028e-11
2.22715e-05
-7.72845e-11
2.22715e-05
-1.15182e-10
-1.44739e-10
1.96722e-05
-9.66026e-10
1.96719e-05
-7.21423e-10
1.96717e-05
-5.76404e-10
1.96716e-05
-4.15388e-10
1.96715e-05
-2.53529e-10
1.96714e-05
-1.29757e-10
1.96714e-05
-5.32932e-11
1.96714e-05
-1.39158e-11
1.96713e-05
9.60292e-13
1.96713e-05
1.93039e-12
1.96713e-05
-3.4606e-12
1.96713e-05
-1.09151e-11
1.96713e-05
-1.92271e-11
1.96713e-05
-2.63061e-11
1.96713e-05
-3.45054e-11
1.96713e-05
-4.0969e-11
1.96713e-05
-5.46854e-11
1.96713e-05
-6.46399e-11
1.96713e-05
-1.04156e-10
-1.33943e-10
1.6758e-05
-6.18052e-10
1.67578e-05
-4.85242e-10
1.67576e-05
-4.0325e-10
1.67575e-05
-2.90221e-10
1.67574e-05
-1.72843e-10
1.67574e-05
-8.40332e-11
1.67574e-05
-3.04821e-11
1.67574e-05
-3.84546e-12
1.67573e-05
5.4801e-12
1.67573e-05
4.84246e-12
1.67573e-05
-2.21297e-13
1.67573e-05
-6.33775e-12
1.67573e-05
-1.2757e-11
1.67573e-05
-1.82724e-11
1.67573e-05
-2.48074e-11
1.67573e-05
-2.98869e-11
1.67573e-05
-4.10272e-11
1.67573e-05
-4.93094e-11
1.67573e-05
-8.71665e-11
-1.15436e-10
1.3534e-05
-3.65199e-10
1.35338e-05
-3.04472e-10
1.35336e-05
-2.581e-10
1.35335e-05
-1.83093e-10
1.35335e-05
-1.05999e-10
1.35334e-05
-4.88254e-11
1.35334e-05
-1.5227e-11
1.35334e-05
8.77079e-13
1.35334e-05
6.08244e-12
1.35334e-05
5.01989e-12
1.35334e-05
1.31165e-12
1.35334e-05
-2.89419e-12
1.35334e-05
-7.20533e-12
1.35334e-05
-1.09443e-11
1.35334e-05
-1.5478e-11
1.35334e-05
-1.8859e-11
1.35334e-05
-2.661e-11
1.35333e-05
-3.25595e-11
1.35333e-05
-6.38908e-11
-8.86756e-11
1.0011e-05
-1.8192e-10
1.00109e-05
-1.60182e-10
1.00107e-05
-1.35836e-10
1.00107e-05
-9.42919e-11
1.00106e-05
-5.30232e-11
1.00106e-05
-2.31313e-11
1.00106e-05
-6.04921e-12
1.00106e-05
1.81324e-12
1.00106e-05
4.23554e-12
1.00106e-05
3.56668e-12
1.00106e-05
1.59474e-12
1.00106e-05
-6.41435e-13
1.00106e-05
-2.94443e-12
1.00106e-05
-4.94745e-12
1.00106e-05
-7.47716e-12
1.00105e-05
-9.10892e-12
1.00105e-05
-1.3215e-11
1.00105e-05
-1.62887e-11
1.00105e-05
-3.52052e-11
-5.43925e-11
6.20699e-06
-5.50044e-11
6.20688e-06
-5.10635e-11
6.20679e-06
-4.30291e-11
6.20672e-06
-2.9032e-11
6.20669e-06
-1.57885e-11
6.20667e-06
-6.58246e-12
6.20667e-06
-1.47176e-12
6.20667e-06
8.0463e-13
6.20667e-06
1.52285e-12
6.20667e-06
1.44394e-12
6.20667e-06
9.83375e-13
6.20667e-06
3.39519e-13
6.20667e-06
-4.03465e-13
6.20667e-06
-1.04006e-12
6.20666e-06
-1.89034e-12
6.20665e-06
-2.19147e-12
6.20664e-06
-3.30464e-12
6.20663e-06
-3.82738e-12
6.2066e-06
-8.41047e-12
-1.87049e-11
2.14556e-06
2.14551e-06
2.14547e-06
2.14544e-06
2.14543e-06
2.14542e-06
2.14542e-06
2.14542e-06
2.14542e-06
2.14542e-06
2.14542e-06
2.14542e-06
2.14542e-06
2.14542e-06
2.14542e-06
2.14542e-06
2.14541e-06
2.14541e-06
2.1454e-06
)
;

boundaryField
{
    fixedWalls
    {
        type            calculated;
        value           uniform 0;
    }
    inlet
    {
        type            calculated;
        value           nonuniform 0();
    }
    outlet
    {
        type            calculated;
        value           nonuniform List<scalar> 
20
(
3.46543e-05
3.45749e-05
3.44111e-05
3.41541e-05
3.37908e-05
3.33047e-05
3.26759e-05
3.18816e-05
3.08971e-05
2.96971e-05
2.82562e-05
2.65511e-05
2.45615e-05
2.22715e-05
1.96712e-05
1.67572e-05
1.35333e-05
1.00105e-05
6.20657e-06
2.14538e-06
)
;
    }
    frontAndBack
    {
        type            empty;
        value           nonuniform 0();
    }
    procBoundary7to3
    {
        type            processor;
        value           nonuniform List<scalar> 
20
(
-1.06324e-10
-2.39186e-10
-3.31635e-10
-2.84691e-10
-1.87199e-10
-1.13803e-10
-6.98402e-11
-4.49074e-11
-2.94688e-11
-2.11695e-11
-1.51735e-11
-1.07265e-11
-8.31092e-12
-7.17109e-12
-6.57698e-12
-8.04777e-12
-9.87439e-12
-1.41234e-11
-3.29073e-11
-3.43013e-11
)
;
    }
    procBoundary7to6
    {
        type            processor;
        value           nonuniform List<scalar> 
20
(
-3.46479e-05
-3.45691e-05
-3.44061e-05
-3.41503e-05
-3.37885e-05
-3.3304e-05
-3.26766e-05
-3.18834e-05
-3.08996e-05
-2.96999e-05
-2.8259e-05
-2.65537e-05
-2.45637e-05
-2.22734e-05
-1.96727e-05
-1.67584e-05
-1.35342e-05
-1.00112e-05
-6.20712e-06
-2.14562e-06
)
;
    }
}


// ************************************************************************* //
