/*--------------------------------*- C++ -*----------------------------------*\
| =========                 |                                                 |
| \\      /  F ield         | OpenFOAM: The Open Source CFD Toolbox           |
|  \\    /   O peration     | Version:                                        |
|   \\  /    A nd           | Website:  www.openfoam.com                      |
|    \\/     M anipulation  |                                                 |
\*---------------------------------------------------------------------------*/
FoamFile
{
    version     2.0;
    format      ascii;
    class       volVectorField;
    location    "0.2";
    object      U;
}
// * * * * * * * * * * * * * * * * * * * * * * * * * * * * * * * * * * * * * //

dimensions      [0 1 -1 0 0 0 0];


internalField   nonuniform List<vector> 
400
(
(1.38597 -1.99671e-05 0)
(1.38604 -8.3187e-06 0)
(1.38607 -2.46676e-07 0)
(1.38609 2.92615e-07 0)
(1.38611 -6.57623e-07 0)
(1.38613 -1.28507e-06 0)
(1.38614 -1.36403e-06 0)
(1.38615 -1.11833e-06 0)
(1.38616 -8.41322e-07 0)
(1.38616 -5.89245e-07 0)
(1.38616 -3.6006e-07 0)
(1.38617 -2.09787e-07 0)
(1.38617 -1.37371e-07 0)
(1.38617 -9.94618e-08 0)
(1.38617 -2.76172e-08 0)
(1.38617 2.40073e-08 0)
(1.38617 1.32649e-07 0)
(1.38617 1.19126e-07 0)
(1.38617 7.32846e-07 0)
(1.38617 1.03797e-06 0)
(1.3828 -5.84245e-05 0)
(1.38286 -3.27421e-05 0)
(1.3829 -1.69046e-05 0)
(1.38293 -1.17277e-05 0)
(1.38295 -9.38469e-06 0)
(1.38296 -7.77952e-06 0)
(1.38297 -6.17912e-06 0)
(1.38298 -4.68865e-06 0)
(1.38298 -3.3939e-06 0)
(1.38299 -2.36163e-06 0)
(1.38299 -1.59818e-06 0)
(1.38299 -1.08604e-06 0)
(1.38299 -7.40009e-07 0)
(1.38299 -5.17858e-07 0)
(1.38299 -2.91086e-07 0)
(1.38299 -2.29528e-07 0)
(1.38299 8.24793e-09 0)
(1.38299 -2.84427e-08 0)
(1.38299 8.25971e-07 0)
(1.38299 1.32311e-06 0)
(1.37626 -8.68043e-05 0)
(1.37632 -5.6361e-05 0)
(1.37636 -3.59812e-05 0)
(1.37639 -2.42325e-05 0)
(1.37641 -1.7357e-05 0)
(1.37642 -1.29485e-05 0)
(1.37643 -9.76851e-06 0)
(1.37643 -7.24327e-06 0)
(1.37643 -5.24685e-06 0)
(1.37644 -3.71605e-06 0)
(1.37644 -2.55047e-06 0)
(1.37644 -1.74669e-06 0)
(1.37644 -1.19366e-06 0)
(1.37644 -8.44551e-07 0)
(1.37644 -5.40324e-07 0)
(1.37644 -4.79687e-07 0)
(1.37644 -1.71664e-07 0)
(1.37644 -1.62866e-07 0)
(1.37644 4.71505e-07 0)
(1.37645 9.34073e-07 0)
(1.36602 -0.000108126 0)
(1.36607 -7.80309e-05 0)
(1.3661 -5.30051e-05 0)
(1.36612 -3.51329e-05 0)
(1.36614 -2.37218e-05 0)
(1.36615 -1.66634e-05 0)
(1.36615 -1.20612e-05 0)
(1.36615 -8.78754e-06 0)
(1.36615 -6.35482e-06 0)
(1.36616 -4.52215e-06 0)
(1.36616 -3.15125e-06 0)
(1.36616 -2.20241e-06 0)
(1.36616 -1.53918e-06 0)
(1.36616 -1.12087e-06 0)
(1.36616 -7.82388e-07 0)
(1.36616 -7.04609e-07 0)
(1.36616 -4.11735e-07 0)
(1.36616 -4.35881e-07 0)
(1.36616 -1.30379e-07 0)
(1.36616 2.92197e-07 0)
(1.35155 -0.000122348 0)
(1.35158 -9.2958e-05 0)
(1.3516 -6.51861e-05 0)
(1.35161 -4.2964e-05 0)
(1.35162 -2.81245e-05 0)
(1.35162 -1.896e-05 0)
(1.35163 -1.32589e-05 0)
(1.35163 -9.47611e-06 0)
(1.35163 -6.79766e-06 0)
(1.35163 -4.84273e-06 0)
(1.35163 -3.41733e-06 0)
(1.35163 -2.42796e-06 0)
(1.35163 -1.73796e-06 0)
(1.35163 -1.30659e-06 0)
(1.35163 -9.7613e-07 0)
(1.35163 -8.86526e-07 0)
(1.35163 -6.60712e-07 0)
(1.35163 -6.80093e-07 0)
(1.35163 -5.32465e-07 0)
(1.35163 -2.71422e-07 0)
(1.33216 -0.000128707 0)
(1.33217 -0.000100395 0)
(1.33218 -7.15706e-05 0)
(1.33218 -4.7089e-05 0)
(1.33219 -3.03034e-05 0)
(1.33219 -1.98699e-05 0)
(1.33219 -1.34831e-05 0)
(1.33219 -9.41701e-06 0)
(1.33219 -6.68347e-06 0)
(1.33219 -4.76815e-06 0)
(1.33219 -3.40019e-06 0)
(1.33219 -2.45397e-06 0)
(1.33219 -1.81089e-06 0)
(1.33219 -1.42104e-06 0)
(1.33219 -1.13721e-06 0)
(1.33219 -1.0487e-06 0)
(1.33219 -9.07517e-07 0)
(1.33219 -9.36241e-07 0)
(1.33219 -9.1411e-07 0)
(1.33219 -8.08846e-07 0)
(1.30706 -0.000127741 0)
(1.30705 -0.000100782 0)
(1.30705 -7.23022e-05 0)
(1.30705 -4.74996e-05 0)
(1.30704 -3.02638e-05 0)
(1.30704 -1.9442e-05 0)
(1.30704 -1.28338e-05 0)
(1.30704 -8.74532e-06 0)
(1.30704 -6.12838e-06 0)
(1.30703 -4.3741e-06 0)
(1.30703 -3.15324e-06 0)
(1.30703 -2.32159e-06 0)
(1.30703 -1.78185e-06 0)
(1.30703 -1.47116e-06 0)
(1.30703 -1.25936e-06 0)
(1.30703 -1.18908e-06 0)
(1.30703 -1.13597e-06 0)
(1.30704 -1.19041e-06 0)
(1.30703 -1.26756e-06 0)
(1.30704 -1.30043e-06 0)
(1.27532 -0.000120627 0)
(1.27531 -9.52286e-05 0)
(1.27529 -6.83089e-05 0)
(1.27528 -4.4808e-05 0)
(1.27528 -2.8326e-05 0)
(1.27527 -1.7873e-05 0)
(1.27527 -1.15031e-05 0)
(1.27527 -7.6421e-06 0)
(1.27527 -5.25914e-06 0)
(1.27526 -3.73801e-06 0)
(1.27526 -2.73684e-06 0)
(1.27526 -2.08209e-06 0)
(1.27526 -1.67781e-06 0)
(1.27526 -1.4592e-06 0)
(1.27526 -1.33509e-06 0)
(1.27526 -1.30708e-06 0)
(1.27526 -1.33796e-06 0)
(1.27526 -1.42655e-06 0)
(1.27526 -1.59312e-06 0)
(1.27526 -1.74124e-06 0)
(1.23597 -0.000108846 0)
(1.23595 -8.53109e-05 0)
(1.23593 -6.09048e-05 0)
(1.23591 -3.99017e-05 0)
(1.2359 -2.50785e-05 0)
(1.2359 -1.55594e-05 0)
(1.23589 -9.75175e-06 0)
(1.23589 -6.28505e-06 0)
(1.23589 -4.21494e-06 0)
(1.23589 -2.972e-06 0)
(1.23589 -2.22733e-06 0)
(1.23588 -1.77781e-06 0)
(1.23588 -1.51979e-06 0)
(1.23588 -1.39691e-06 0)
(1.23588 -1.36628e-06 0)
(1.23588 -1.39422e-06 0)
(1.23588 -1.5017e-06 0)
(1.23589 -1.62494e-06 0)
(1.23588 -1.88101e-06 0)
(1.23589 -2.12833e-06 0)
(1.18798 -9.4067e-05 0)
(1.18795 -7.27037e-05 0)
(1.18793 -5.15614e-05 0)
(1.18791 -3.38296e-05 0)
(1.1879 -2.12036e-05 0)
(1.1879 -1.29292e-05 0)
(1.18789 -7.84069e-06 0)
(1.18789 -4.85202e-06 0)
(1.18789 -3.1437e-06 0)
(1.18788 -2.19553e-06 0)
(1.18788 -1.69876e-06 0)
(1.18788 -1.44443e-06 0)
(1.18788 -1.32886e-06 0)
(1.18788 -1.30048e-06 0)
(1.18788 -1.35739e-06 0)
(1.18788 -1.43958e-06 0)
(1.18788 -1.61441e-06 0)
(1.18788 -1.77073e-06 0)
(1.18788 -2.12118e-06 0)
(1.18788 -2.45672e-06 0)
(1.13034 -7.79121e-05 0)
(1.13031 -5.9048e-05 0)
(1.13029 -4.16945e-05 0)
(1.13027 -2.75567e-05 0)
(1.13027 -1.72791e-05 0)
(1.13026 -1.03301e-05 0)
(1.13026 -5.99785e-06 0)
(1.13025 -3.50665e-06 0)
(1.13025 -2.16853e-06 0)
(1.13025 -1.49731e-06 0)
(1.13025 -1.20871e-06 0)
(1.13025 -1.11628e-06 0)
(1.13025 -1.1273e-06 0)
(1.13025 -1.18513e-06 0)
(1.13025 -1.31237e-06 0)
(1.13025 -1.43476e-06 0)
(1.13025 -1.66561e-06 0)
(1.13025 -1.85371e-06 0)
(1.13025 -2.30334e-06 0)
(1.13025 -2.71708e-06 0)
(1.06213 -6.17864e-05 0)
(1.0621 -4.57999e-05 0)
(1.06208 -3.24503e-05 0)
(1.06207 -2.17801e-05 0)
(1.06206 -1.36832e-05 0)
(1.06205 -7.98729e-06 0)
(1.06205 -4.38684e-06 0)
(1.06205 -2.36622e-06 0)
(1.06205 -1.36173e-06 0)
(1.06205 -9.22824e-07 0)
(1.06204 -7.94895e-07 0)
(1.06204 -8.25528e-07 0)
(1.06204 -9.3467e-07 0)
(1.06204 -1.05718e-06 0)
(1.06204 -1.23075e-06 0)
(1.06204 -1.37705e-06 0)
(1.06204 -1.6511e-06 0)
(1.06204 -1.86608e-06 0)
(1.06204 -2.41639e-06 0)
(1.06204 -2.89757e-06 0)
(0.982532 -4.68275e-05 0)
(0.982507 -3.40616e-05 0)
(0.98249 -2.45513e-05 0)
(0.982479 -1.68621e-05 0)
(0.982472 -1.05963e-05 0)
(0.982468 -6.00638e-06 0)
(0.982465 -3.08294e-06 0)
(0.982463 -1.47949e-06 0)
(0.982462 -7.46814e-07 0)
(0.982461 -4.87832e-07 0)
(0.98246 -4.7621e-07 0)
(0.98246 -5.89543e-07 0)
(0.982459 -7.60078e-07 0)
(0.982459 -9.17084e-07 0)
(0.982459 -1.11159e-06 0)
(0.982459 -1.26935e-06 0)
(0.982458 -1.57208e-06 0)
(0.982459 -1.8015e-06 0)
(0.982457 -2.44744e-06 0)
(0.982458 -2.98521e-06 0)
(0.890921 -3.38567e-05 0)
(0.8909 -2.44577e-05 0)
(0.890888 -1.8248e-05 0)
(0.890879 -1.28625e-05 0)
(0.890873 -8.04056e-06 0)
(0.890869 -4.39512e-06 0)
(0.890867 -2.0813e-06 0)
(0.890866 -8.38652e-07 0)
(0.890865 -3.16094e-07 0)
(0.890864 -1.89247e-07 0)
(0.890864 -2.54309e-07 0)
(0.890864 -4.07449e-07 0)
(0.890863 -6.00753e-07 0)
(0.890863 -7.66363e-07 0)
(0.890863 -9.59797e-07 0)
(0.890862 -1.11662e-06 0)
(0.890862 -1.4298e-06 0)
(0.890862 -1.65794e-06 0)
(0.890861 -2.38455e-06 0)
(0.890861 -2.96489e-06 0)
(0.786897 -2.33219e-05 0)
(0.786882 -1.71066e-05 0)
(0.786872 -1.33897e-05 0)
(0.786865 -9.6303e-06 0)
(0.78686 -5.9374e-06 0)
(0.786857 -3.10435e-06 0)
(0.786855 -1.33548e-06 0)
(0.786855 -4.09361e-07 0)
(0.786854 -4.75954e-08 0)
(0.786854 -7.09245e-09 0)
(0.786854 -1.14146e-07 0)
(0.786853 -2.7152e-07 0)
(0.786853 -4.51259e-07 0)
(0.786853 -6.05687e-07 0)
(0.786852 -7.8531e-07 0)
(0.786852 -9.28848e-07 0)
(0.786851 -1.22519e-06 0)
(0.786851 -1.43711e-06 0)
(0.78685 -2.21869e-06 0)
(0.78685 -2.82026e-06 0)
(0.670327 -1.52746e-05 0)
(0.670316 -1.16892e-05 0)
(0.670309 -9.59635e-06 0)
(0.670303 -6.94309e-06 0)
(0.670298 -4.18449e-06 0)
(0.670296 -2.07783e-06 0)
(0.670295 -7.92952e-07 0)
(0.670294 -1.45099e-07 0)
(0.670294 8.70259e-08 0)
(0.670294 8.17917e-08 0)
(0.670294 -2.87142e-08 0)
(0.670294 -1.66936e-07 0)
(0.670293 -3.1524e-07 0)
(0.670293 -4.43301e-07 0)
(0.670293 -5.95157e-07 0)
(0.670292 -7.1544e-07 0)
(0.670292 -9.68849e-07 0)
(0.670291 -1.15115e-06 0)
(0.67029 -1.9387e-06 0)
(0.67029 -2.5313e-06 0)
(0.541362 -9.3863e-06 0)
(0.541355 -7.6409e-06 0)
(0.541348 -6.47203e-06 0)
(0.541343 -4.63363e-06 0)
(0.54134 -2.71008e-06 0)
(0.541338 -1.27154e-06 0)
(0.541337 -4.20409e-07 0)
(0.541336 -7.59122e-09 0)
(0.541336 1.28872e-07 0)
(0.541336 1.0638e-07 0)
(0.541336 1.69329e-08 0)
(0.541336 -8.61661e-08 0)
(0.541336 -1.94004e-07 0)
(0.541336 -2.88868e-07 0)
(0.541335 -4.02656e-07 0)
(0.541335 -4.89161e-07 0)
(0.541334 -6.78522e-07 0)
(0.541334 -8.20804e-07 0)
(0.541333 -1.53033e-06 0)
(0.541332 -2.07478e-06 0)
(0.400444 -5.12393e-06 0)
(0.400437 -4.44958e-06 0)
(0.400432 -3.79587e-06 0)
(0.400428 -2.65599e-06 0)
(0.400425 -1.50515e-06 0)
(0.400423 -6.65892e-07 0)
(0.400423 -1.84158e-07 0)
(0.400423 4.01645e-08 0)
(0.400423 1.10404e-07 0)
(0.400423 9.08529e-08 0)
(0.400423 3.31477e-08 0)
(0.400423 -3.0612e-08 0)
(0.400423 -9.61644e-08 0)
(0.400423 -1.54509e-07 0)
(0.400422 -2.25188e-07 0)
(0.400422 -2.73157e-07 0)
(0.400421 -3.88319e-07 0)
(0.400421 -4.81065e-07 0)
(0.40042 -9.99677e-07 0)
(0.400418 -1.44668e-06 0)
(0.248282 -2.09534e-06 0)
(0.248277 -1.92874e-06 0)
(0.248273 -1.63021e-06 0)
(0.24827 -1.10515e-06 0)
(0.248268 -6.04854e-07 0)
(0.248267 -2.53528e-07 0)
(0.248267 -5.65608e-08 0)
(0.248267 3.12558e-08 0)
(0.248267 5.721e-08 0)
(0.248267 5.06674e-08 0)
(0.248267 2.94819e-08 0)
(0.248267 2.57358e-09 0)
(0.248267 -2.6077e-08 0)
(0.248267 -4.99625e-08 0)
(0.248267 -7.99836e-08 0)
(0.248266 -9.47815e-08 0)
(0.248266 -1.4174e-07 0)
(0.248266 -1.75145e-07 0)
(0.248265 -3.97714e-07 0)
(0.248263 -7.04379e-07 0)
(0.0858236 -4.72759e-07 0)
(0.0858215 -4.58212e-07 0)
(0.0858196 -3.73645e-07 0)
(0.0858181 -2.44182e-07 0)
(0.0858173 -1.28125e-07 0)
(0.0858168 -4.91549e-08 0)
(0.0858167 -7.74021e-09 0)
(0.0858167 1.12369e-08 0)
(0.0858168 1.91236e-08 0)
(0.0858168 1.77403e-08 0)
(0.0858169 1.09265e-08 0)
(0.0858169 2.96605e-09 0)
(0.0858169 -4.51975e-09 0)
(0.0858169 -9.97069e-09 0)
(0.0858168 -1.62498e-08 0)
(0.0858168 -1.63338e-08 0)
(0.0858166 -2.63131e-08 0)
(0.0858165 -3.60888e-08 0)
(0.0858162 -9.52741e-08 0)
(0.0858156 -1.91986e-07 0)
)
;

boundaryField
{
    fixedWalls
    {
        type            noSlip;
    }
    inlet
    {
        type            fixedValue;
        value           nonuniform 0();
    }
    outlet
    {
        type            zeroGradient;
    }
    frontAndBack
    {
        type            empty;
    }
    procBoundary7to3
    {
        type            processor;
        value           nonuniform List<vector> 
20
(
(1.38596 2.36862e-05 0)
(1.38603 1.76737e-05 0)
(1.38606 1.34883e-05 0)
(1.38608 1.106e-05 0)
(1.3861 8.16753e-06 0)
(1.38612 5.86868e-06 0)
(1.38613 4.16008e-06 0)
(1.38614 2.9366e-06 0)
(1.38615 2.02802e-06 0)
(1.38615 1.41105e-06 0)
(1.38615 9.80835e-07 0)
(1.38615 6.76135e-07 0)
(1.38616 4.82292e-07 0)
(1.38616 3.79307e-07 0)
(1.38616 2.85146e-07 0)
(1.38616 3.00033e-07 0)
(1.38616 2.6527e-07 0)
(1.38616 4.22225e-07 0)
(1.38616 5.10942e-07 0)
(1.38616 3.12692e-07 0)
)
;
    }
    procBoundary7to6
    {
        type            processor;
        value           nonuniform List<vector> 
20
(
(1.38586 -2.29787e-05 0)
(1.38272 -7.18848e-05 0)
(1.37622 -0.000111423 0)
(1.36599 -0.000138713 0)
(1.35153 -0.000156402 0)
(1.33216 -0.000164461 0)
(1.30707 -0.000163532 0)
(1.27534 -0.000154856 0)
(1.236 -0.000140377 0)
(1.18801 -0.000122232 0)
(1.13038 -0.00010248 0)
(1.06216 -8.28158e-05 0)
(0.982564 -6.4445e-05 0)
(0.890949 -4.81148e-05 0)
(0.78692 -3.4227e-05 0)
(0.670345 -2.29163e-05 0)
(0.541375 -1.4095e-05 0)
(0.400452 -7.49327e-06 0)
(0.248288 -2.93488e-06 0)
(0.085826 -5.94027e-07 0)
)
;
    }
}


// ************************************************************************* //
