/*--------------------------------*- C++ -*----------------------------------*\
| =========                 |                                                 |
| \\      /  F ield         | OpenFOAM: The Open Source CFD Toolbox           |
|  \\    /   O peration     | Version:                                        |
|   \\  /    A nd           | Website:  www.openfoam.com                      |
|    \\/     M anipulation  |                                                 |
\*---------------------------------------------------------------------------*/
FoamFile
{
    version     2.0;
    format      ascii;
    class       surfaceScalarField;
    location    "101.4";
    object      phi;
}
// * * * * * * * * * * * * * * * * * * * * * * * * * * * * * * * * * * * * * //

dimensions      [0 3 -1 0 0 0 0];
oriented        oriented;


internalField   nonuniform List<scalar> 
2227
(
0.00188901
0.0479945
-0.0510351
0.00489022
0.0476192
-0.0506204
0.00788989
0.0470176
-0.0500173
0.0108378
0.0460389
-0.0489867
0.0137334
0.0447356
-0.0476312
-0.0459266
0.00172418
0.0450534
0.00464018
0.0447032
0.00754743
0.0441103
0.0104113
0.00157556
0.00442196
-0.00114471
0.0538784
-0.00195467
0.053843
-0.00269715
0.0537755
-0.00334282
0.0536787
-0.00386405
0.0535542
-0.00423501
0.053404
-0.00443406
0.053232
-0.00444479
0.0530437
-0.00425214
0.0528404
0.052625
-0.00384412
-0.00151783
0.0537422
-0.00144201
0.0537671
-0.00140662
0.0537401
-0.00138942
0.0536615
-0.00136467
0.0535295
-0.00130246
0.0533418
-0.00116596
0.0530955
-0.000912484
0.0527903
-0.000514537
0.0524424
0.0520881
2.23756e-05
-0.0017162
0.0545895
-0.00248035
0.0545313
-0.00311384
0.0543736
-0.00356645
0.0541141
-0.00378503
0.0537481
-0.00372179
0.0532785
-0.00332184
0.0526956
-0.00252565
0.0519941
-0.00124823
0.051165
0.0503006
0.000539229
0.000837013
0.0544522
0.0010569
0.0543114
0.00136871
0.0540618
0.0017836
0.0536992
0.00230057
0.0532311
0.00292405
0.052655
0.00363075
0.0519889
0.00438676
0.0512381
0.00513105
0.0504207
0.0495576
0.00587408
-0.00107366
0.0551669
-0.00179188
0.0550296
-0.00248462
0.0547545
-0.00313357
0.0543481
-0.00371027
0.0538078
-0.00420988
0.0531546
-0.00460718
0.0523862
-0.00489678
0.0515277
-0.00504105
0.050565
0.0496014
-0.00508486
-7.12612e-05
0.0550598
8.53845e-05
0.054873
0.000296922
0.054543
0.000572599
0.0540724
0.000901247
0.0534791
0.00128834
0.0527675
0.00170506
0.0519695
0.00215776
0.051075
0.00263372
0.050089
0.0489974
0.00323772
-0.000260598
0.0556679
-0.000898288
0.0555107
-0.00154872
0.0551934
-0.00220566
0.0547294
-0.00284971
0.0541232
-0.00347431
0.0533922
-0.0040338
0.052529
-0.00451666
0.0515578
-0.00486924
0.0504416
0.0492312
-0.00510302
-0.00132062
0.055619
-0.00132565
0.0555157
-0.00136137
0.0552291
-0.00139359
0.0547616
-0.00139517
0.0541248
-0.00131775
0.0533147
-0.00114899
0.0523602
-0.000824644
0.0512335
-0.000319871
0.0499368
0.0485235
0.000387812
-0.00136892
0.0560396
-0.00173505
0.0558818
-0.00203205
0.0555261
-0.00225279
0.0549823
-0.00237144
0.0542434
-0.00238425
0.0533275
-0.00224441
0.0522204
-0.00195985
0.0509489
-0.00149218
0.0494692
0.0477834
-0.00075213
-0.000292063
0.0559925
-0.000303206
0.055893
-0.000358672
0.0555816
-0.000422051
0.0550457
-0.000480364
0.0543017
-0.000482894
0.0533301
-0.000407895
0.0521454
-0.000194263
0.0507353
0.000148653
0.0491262
0.04734
0.00059208
-0.00162875
0.0563174
-0.00193282
0.0561971
-0.00218026
0.055829
-0.0023435
0.055209
-0.00236574
0.054324
-0.00223817
0.0532025
-0.00189103
0.0517982
-0.00132899
0.0501732
-0.000470283
0.0482675
0.0462638
0.000605874
-0.000700858
0.0562179
-0.000532439
0.0560286
-0.000287694
0.0555843
3.52094e-05
0.0548861
0.000417857
0.0539413
0.000885884
0.0527345
0.00136699
0.0513171
0.00191803
0.0496222
0.00251748
0.0476681
0.0455355
0.00324586
-0.000626594
0.0564161
-0.000829398
0.0562314
-0.00101101
0.0557659
-0.00114721
0.0550223
-0.00118994
0.0539841
-0.00113364
0.0526782
-0.000860974
0.0510445
-0.000422465
0.0491837
0.000264816
0.0469808
0.0445703
0.00122999
-0.000465389
0.0562921
-0.000288347
0.0560544
-4.31815e-05
0.0555207
0.000291648
0.0546874
0.000726891
0.0535488
0.00129955
0.0521055
0.00192468
0.0504193
0.00265217
0.0484562
0.00325699
0.046376
0.0441146
0.00371271
-0.000608102
0.0563815
-0.000661438
0.0561077
-0.000671089
0.0555304
-0.000648501
0.0546649
-0.000597794
0.0534981
-0.000573055
0.0520808
-0.000539205
0.0503855
-0.000582247
0.0484992
-0.000529015
0.0463228
0.0440985
-0.000512922
-0.000333328
0.0562418
-0.000167142
0.0559416
2.39562e-05
0.0553393
0.000259676
0.0544291
0.000524979
0.0532328
0.000906087
0.0516997
0.0013176
0.049974
0.00193018
0.0478867
0.00250936
0.0457436
0.0432696
0.00333828
-0.000452214
0.0562561
-0.000460923
0.0559503
-0.000444839
0.0553232
-0.000400963
0.0543853
-0.000314755
0.0531466
-0.000266253
0.0516512
-0.000159585
0.0498673
-0.000220977
0.047948
-0.000218844
0.0457414
0.0434847
-0.000433968
-0.000371643
0.0560714
-0.000171041
0.0557497
4.30016e-05
0.0551092
0.000271998
0.0541563
0.000497366
0.0529212
0.000786372
0.0513622
0.00103629
0.0496174
0.00149468
0.0474897
0.00197373
0.0452624
0.0425988
0.00285956
-0.000548701
0.0559944
-0.000463531
0.0556645
-0.000363779
0.0550094
-0.000243149
0.0540356
-8.16823e-05
0.0527598
5.10962e-05
0.0512294
0.000275608
0.0493929
0.000419276
0.047346
0.000680733
0.0450009
0.0425239
0.000755631
-0.000462733
0.0557434
-0.000206566
0.0554083
5.53548e-05
0.0547475
0.000312169
0.0537788
0.000574328
0.0524976
0.000895284
0.0509084
0.00115274
0.0491354
0.00150569
0.046993
0.00179379
0.0447128
0.0420251
0.00229261
-0.000619048
0.0555642
-0.000445093
0.0552344
-0.000266841
0.0545692
-6.16675e-05
0.0535736
0.000134861
0.0523011
0.000317942
0.0507253
0.000591371
0.048862
0.000856344
0.0467281
0.00124026
0.0443289
0.0415175
0.0017479
-0.000558314
0.0552299
-0.000225555
0.0549016
0.000101034
0.0542426
0.000424515
0.0532502
0.000761192
0.0519644
0.00114321
0.0503433
0.00149693
0.0485083
0.00194909
0.0462759
0.00233676
0.0439412
0.041031
0.00282329
-0.000698445
0.0549351
-0.000414101
0.0546173
-0.000115253
0.0539438
0.000174975
0.0529599
0.000462016
0.0516774
0.000749374
0.050056
0.00108145
0.0481762
0.00142401
0.0459334
0.00185073
0.0435145
0.0405227
0.00235898
-0.000641168
0.0545039
-0.000210504
0.0541866
0.000203817
0.0535295
0.000624649
0.0525391
0.00105512
0.0512469
0.00149869
0.0496124
0.00194852
0.0477263
0.00249874
0.0453831
0.00299648
0.0430168
0.0398726
0.00364655
-0.00075155
0.0540958
-0.000351813
0.0537869
7.48961e-05
0.0531028
0.000469213
0.0521448
0.000866726
0.0508494
0.0012901
0.049189
0.0017084
0.047308
0.00215777
0.0449338
0.00268423
0.0424903
0.0393256
0.00323125
-0.000684343
0.0535587
-0.000150117
0.0532526
0.000367651
0.052585
0.000901284
0.0516112
0.00143591
0.0503147
0.00198622
0.0486387
0.00257543
0.0467188
0.00319767
0.0443115
0.00381747
0.0418705
0.0386124
0.00453073
-0.000765585
0.0530337
-0.000244025
0.0527311
0.000299194
0.0520418
0.000821872
0.0510885
0.00135437
0.0497823
0.0018919
0.0481012
0.00243076
0.04618
0.00301709
0.0437252
0.00362066
0.0412669
0.0379237
0.00430928
-0.000694657
0.0523933
-3.83597e-05
0.0520748
0.000588913
0.0514145
0.00124534
0.050432
0.00190635
0.0491212
0.00259259
0.0474149
0.00332279
0.0454498
0.00404586
0.0430021
0.00487888
0.0404339
0.00560115
-0.000753857
0.0517646
-8.92487e-05
0.0514102
0.00055555
0.0507697
0.00121641
0.0497712
0.00189275
0.0484449
0.00255496
0.0467527
0.00326773
0.044737
0.00397627
-0.000691003
9.87569e-05
0.000851203
0.00163565
0.00244934
0.00327545
-0.00413374
0.0481182
-0.00432753
0.0513418
-0.00433134
0.0547017
-0.00413031
0.058293
-0.00381509
0.0622385
-0.00348121
0.0665612
-0.00316274
0.0712193
-0.00285954
0.0761995
-0.00257133
0.081524
-0.00231049
0.0872293
-0.00205211
0.0933039
-0.00177075
0.0997744
-0.00144161
0.106671
-0.001087
0.114071
-0.00074837
0.122029
-0.000463529
0.130575
-0.000253757
0.139732
-0.000115376
0.149516
-5.41349e-05
0.15998
-5.46621e-05
0.171149
-8.5775e-05
0.183058
-0.00011433
0.195758
-0.000120203
0.209319
-0.000105474
0.223825
-7.85885e-05
0.239348
-5.2782e-05
0.255963
-3.25431e-05
0.273734
-1.54624e-05
0.292737
-3.53844e-06
0.31306
0.334797
-0.000233724
0.0483743
-0.000418462
0.0515265
-0.000400746
0.0546839
-0.000177278
0.0580695
0.000255909
0.0618053
0.000919324
0.0658978
0.00171279
0.0704258
0.00245925
0.075453
0.00303294
0.0809503
0.0034222
0.0868401
0.00361569
0.0931104
0.00362238
0.0997677
0.00346301
0.10683
0.00319964
0.114335
0.00291052
0.122318
0.00260081
0.130885
0.00220702
0.140126
0.00171319
0.15001
0.00121819
0.160475
0.000822686
0.171544
0.000543727
0.183336
0.000350577
0.195951
0.000216347
0.209453
0.000120427
0.223921
6.16979e-05
0.239407
3.95015e-05
0.255985
4.45619e-05
0.273729
4.62454e-05
0.292735
3.0385e-05
0.313076
0.334827
0.00170091
0.0472126
0.00278562
0.0504418
0.00339387
0.0540757
0.00340708
0.0580563
0.00298776
0.0622246
0.00233102
0.0665545
0.00158558
0.0711713
0.000835964
0.0762026
0.000127813
0.0816584
-0.0004989
0.0874668
-0.00103872
0.0936502
-0.00150087
0.10023
-0.00188335
0.107213
-0.00215125
0.114603
-0.00228698
0.122454
-0.00226173
0.13086
-0.00207256
0.139937
-0.00177797
0.149715
-0.00143581
0.160133
-0.00109722
0.171206
-0.000776262
0.183016
-0.000476699
0.195651
-0.000222673
0.209199
-3.64237e-05
0.223735
7.12492e-05
0.239299
0.000115507
0.255941
0.000119544
0.273725
0.000107992
0.292747
6.67611e-05
0.313117
0.334894
0.00588979
0.0471969
0.00563296
0.0506987
0.00513869
0.05457
0.00443944
0.0587556
0.00351688
0.0631472
0.00240093
0.0676705
0.00126082
0.0723114
0.000348255
0.0771152
-0.000206648
0.0822133
-0.000472527
0.0877327
-0.000554264
0.0937319
-0.000534571
0.10021
-0.000507906
0.107186
-0.000588812
0.114684
-0.000795462
0.12266
-0.000992616
0.131057
-0.000977017
0.139921
-0.000664145
0.149402
-0.000219176
0.159688
0.000162932
0.170824
0.000386745
0.182792
0.000475654
0.195562
0.000492149
0.209183
0.0004835
0.223744
0.000465037
0.239318
0.000436002
0.25597
0.000384832
0.273777
0.000304515
0.292827
0.000162539
0.313259
0.335056
-0.00562923
0.0477413
-0.00588665
0.0509561
-0.00576757
0.0544509
-0.00531764
0.0583056
-0.00462051
0.06245
-0.00377052
0.0668205
-0.00294918
0.07149
-0.00233597
0.076502
-0.00191201
0.0817894
-0.0015234
0.0873441
-0.00104797
0.0932565
-0.00045516
0.0996173
0.000157101
0.106574
0.000651576
0.114189
0.000883568
0.122428
0.000829465
0.131111
0.000658394
0.140092
0.000560638
0.1495
0.00058974
0.159658
0.000690577
0.170723
0.000788126
0.182694
0.000839913
0.19551
0.000829416
0.209193
0.000763838
0.223809
0.000665595
0.239416
0.000556044
0.256079
0.000446301
0.273886
0.00034558
0.292928
0.000187044
0.313418
0.335243
0.00326502
0.047714
0.00307658
0.0511445
0.00268279
0.0548447
0.00214759
0.0588408
0.00154548
0.0630521
0.000959358
0.0674066
0.000537847
0.0719116
0.000387306
0.0766525
0.000415891
0.0817608
0.00050062
0.0872593
0.000611031
0.0931461
0.000719593
0.0995088
0.000876523
0.106417
0.0011538
0.113912
0.00150223
0.12208
0.00173938
0.130874
0.00172768
0.140104
0.00150705
0.149721
0.00126253
0.159903
0.00110075
0.170885
0.00102657
0.182768
0.000992299
0.195545
0.000957823
0.209228
0.000903918
0.223863
0.00082181
0.239498
0.000707727
0.256193
0.000567352
0.274027
0.000414168
0.293081
0.00020809
0.313624
0.335451
-0.00568827
0.0482992
-0.00602873
0.051485
-0.00594793
0.0547639
-0.00545435
0.0583472
-0.00469081
0.0622886
-0.00377447
0.0664902
-0.00280332
0.0709404
-0.00186195
0.0757112
-0.000968219
0.0808671
-0.000204005
0.0864951
0.000299144
0.0926429
0.000512034
0.0992959
0.000529674
0.106399
0.00056325
0.113878
0.000823697
0.121819
0.00128137
0.130416
0.00169637
0.139689
0.00185901
0.149558
0.00179083
0.159971
0.00160546
0.17107
0.00140363
0.18297
0.00122172
0.195727
0.00106372
0.209386
0.000921238
0.224006
0.0007933
0.239626
0.000670128
0.256316
0.000543825
0.274153
0.000408
0.293217
0.000209854
0.313822
0.335661
0.000449842
0.0482372
0.000507236
0.0514276
0.000554025
0.0547171
0.000578556
0.0583227
0.000607874
0.0622593
0.000594087
0.066504
0.000518624
0.0710159
0.000410939
0.0758189
0.000245586
0.0810324
1.40162e-05
0.0867267
-0.000272526
0.0929295
-0.000568132
0.0995915
-0.000776058
0.106607
-0.000743387
0.113846
-0.000376056
0.121452
0.00027648
0.129764
0.000971861
0.138994
0.00144288
0.149087
0.00161086
0.159803
0.00155752
0.171123
0.00141563
0.183112
0.00125073
0.195891
0.00109603
0.20954
0.000955346
0.224146
0.000818451
0.239763
0.000680349
0.256454
0.000542314
0.274291
0.000397107
0.293362
0.000199907
0.314019
0.335861
-0.000453371
0.0479384
-0.000142204
0.0511164
0.000213485
0.0543614
0.000733183
0.057803
0.00134625
0.0616462
0.00188178
0.0659685
0.00216807
0.0707296
0.00215285
0.0758341
0.00198828
0.081197
0.00179293
0.086922
0.00164705
0.0930754
0.00156111
0.0996774
0.00150635
0.106662
0.00140786
0.113944
0.00130427
0.121556
0.00130735
0.129761
0.00139861
0.138903
0.00148766
0.148998
0.00148448
0.159806
0.00140614
0.171202
0.00129147
0.183227
0.00116448
0.196018
0.00103228
0.209673
0.000900594
0.224278
0.000772257
0.239891
0.000644202
0.256583
0.000513535
0.274422
0.000375759
0.2935
0.000190151
0.314205
0.336051
0.000485029
0.0480455
0.000251595
0.0513498
5.52982e-05
0.0545577
-1.44667e-05
0.0578728
7.33291e-05
0.0615584
0.000375542
0.0656663
0.000860299
0.0702448
0.0013546
0.0753398
0.00164159
0.08091
0.0017413
0.0868223
0.00180996
0.0930067
0.00196166
0.0995257
0.00219759
0.106426
0.00234641
0.113795
0.00226462
0.121638
0.00200508
0.13002
0.00175667
0.139151
0.00159877
0.149156
0.00150181
0.159903
0.00141154
0.171292
0.00131288
0.183325
0.0012084
0.196123
0.00109576
0.209785
0.000971045
0.224403
0.000831993
0.24003
0.000685618
0.256729
0.000539221
0.274568
0.000386369
0.293653
0.000192097
0.314399
0.336243
0.0011842
0.0474672
0.00210649
0.0504276
0.00310195
0.0535622
0.00374979
0.0572249
0.00387513
0.0614331
0.00356238
0.065979
0.0030799
0.0707273
0.00269076
0.0757289
0.00244141
0.0811593
0.00225159
0.0870122
0.00206487
0.0931934
0.0018978
0.0996928
0.00179444
0.106529
0.00172708
0.113863
0.00160765
0.121757
0.00141618
0.130212
0.00122698
0.13934
0.00113315
0.14925
0.00111216
0.159924
0.00111634
0.171288
0.00110228
0.183339
0.00105895
0.196166
0.000984986
0.209859
0.000890627
0.224497
0.000781062
0.24014
0.000656243
0.256854
0.000520616
0.274704
0.000374728
0.293799
0.000187691
0.314586
0.336431
0.00360072
0.0471123
0.00381665
0.0502116
0.00384751
0.0535314
0.00369256
0.0573799
0.00344675
0.0616789
0.00321548
0.0662103
0.0030771
0.0708657
0.00305121
0.0757548
0.00322141
0.0809891
0.00357281
0.0866608
0.00394548
0.0928207
0.00421264
0.0994256
0.00420404
0.106538
0.00388065
0.114186
0.00328762
0.12235
0.00259154
0.130908
0.00201133
0.13992
0.00166966
0.149592
0.00151828
0.160076
0.0014509
0.171355
0.00138467
0.183406
0.00129344
0.196257
0.00117233
0.20998
0.00102964
0.22464
0.000874086
0.240295
0.000715939
0.257012
0.000559908
0.27486
0.000398948
0.29396
0.000199188
0.314786
0.33663
0.00187335
0.0464689
0.00246011
0.0496249
0.00293715
0.0530543
0.00355884
0.0567582
0.00434032
0.0608974
0.004998
0.0655526
0.00519568
0.070668
0.0048185
0.076132
0.00404586
0.0817618
0.00318119
0.0875254
0.0025094
0.0934925
0.00213995
0.0997951
0.00202095
0.106657
0.00198702
0.11422
0.00186755
0.122469
0.001619
0.131156
0.00136551
0.140174
0.00123734
0.14972
0.00124019
0.160073
0.00128461
0.171311
0.0012892
0.183401
0.00123197
0.196315
0.00112894
0.210083
0.0010006
0.224768
0.000857902
0.240438
0.000705496
0.257164
0.000548503
0.275017
0.000391053
0.294117
0.000196414
0.31498
0.336827
0.00361687
0.0465648
0.00313932
0.0501024
0.00258159
0.0536121
0.00206747
0.0572723
0.0018145
0.0611504
0.00205345
0.0653137
0.00275336
0.0699681
0.00362643
0.0752589
0.00430471
0.0810835
0.00456656
0.0872636
0.00443393
0.0936252
0.00403078
0.100198
0.00356808
0.107119
0.00315865
0.114629
0.00285417
0.122774
0.00258426
0.131426
0.00230969
0.140448
0.00206831
0.149961
0.00188739
0.160254
0.00175401
0.171444
0.00162644
0.183529
0.00147844
0.196463
0.00130468
0.210257
0.00111745
0.224955
0.000929833
0.240626
0.000749174
0.257345
0.000575793
0.27519
0.000407971
0.294285
0.00020344
0.315185
0.33703
-0.000583397
0.0466353
-0.00010677
0.0496258
0.00041778
0.0530875
0.000728801
0.0569613
0.000761529
0.0611176
0.000572911
0.0655023
0.000360802
0.0701802
0.000382698
0.075237
0.00072709
0.0807391
0.00127063
0.08672
0.00175829
0.0931375
0.00203684
0.0999197
0.00211606
0.10704
0.00211965
0.114626
0.00212398
0.12277
0.00210718
0.131443
0.00204639
0.140509
0.00194979
0.150058
0.00183723
0.160366
0.00171431
0.171567
0.00157415
0.183669
0.00141748
0.196619
0.00125053
0.210424
0.00107791
0.225128
0.000902065
0.240802
0.000724599
0.257522
0.000550513
0.275364
0.000388812
0.294447
0.00019384
0.31538
0.337224
0.00371074
0.0462628
0.00347558
0.049861
0.00315626
0.0534068
0.00293296
0.0571846
0.00278987
0.0612607
0.00273307
0.0655591
0.00266806
0.0702452
0.00258729
0.0753178
0.00251435
0.080812
0.00251469
0.0867197
0.00260449
0.0930477
0.00270155
0.0998226
0.0027531
0.106989
0.00278368
0.114595
0.00284129
0.122712
0.00287546
0.131409
0.00280062
0.140584
0.00260644
0.150252
0.00234256
0.16063
0.00206781
0.171842
0.00180406
0.183933
0.00155868
0.196865
0.00132824
0.210654
0.00111485
0.225341
0.000916871
0.241
0.000730291
0.257709
0.000552398
0.275542
0.000387718
0.294611
0.000191579
0.315576
0.337416
-0.000941183
0.04677
-0.00077562
0.0496954
-0.000385475
0.0530167
-0.000146904
0.056946
-0.000156596
0.0612704
-0.000280885
0.0656834
-0.000216711
0.070181
0.000148939
0.0749522
0.000722196
0.0802388
0.00135417
0.0860877
0.00190599
0.0924959
0.00231667
0.0994119
0.00256602
0.106739
0.00272076
0.11444
0.00283054
0.122602
0.00288479
0.131354
0.00282366
0.140645
0.0026197
0.150456
0.00233207
0.160918
0.00202394
0.17215
0.00173871
0.184218
0.00148535
0.197118
0.00126113
0.210879
0.00105935
0.225543
0.000870798
0.241188
0.000690667
0.257889
0.00051615
0.275717
0.000360244
0.294767
0.000178643
0.315758
0.337594
0.00370269
0.0459269
0.0039403
0.0494578
0.00384593
0.053111
0.00371877
0.0570732
0.00361774
0.0613715
0.0033676
0.0659335
0.00292608
0.0706225
0.00244519
0.075433
0.002135
0.080549
0.00207769
0.086145
0.00222056
0.092353
0.00246284
0.0991697
0.00269779
0.106504
0.00288835
0.11425
0.00302592
0.122465
0.00309798
0.131282
0.00302896
0.140714
0.00280279
0.150682
0.00246918
0.161251
0.00211174
0.172507
0.00178295
0.184547
0.00149599
0.197405
0.00124857
0.211126
0.00103348
0.225758
0.000842951
0.241379
0.000668783
0.258063
0.000498937
0.275886
0.000342347
0.294924
0.000171013
0.315929
0.337765
0.000136489
0.046546
-1.03444e-05
0.0496046
0.00024112
0.0528596
0.000593475
0.0567208
0.000981963
0.060983
0.00146642
0.0654491
0.00197556
0.0701134
0.00238427
0.0750243
0.00265093
0.0802823
0.00281301
0.0859829
0.00294987
0.0922162
0.00308008
0.0990395
0.00317978
0.106405
0.00322263
0.114207
0.00321958
0.122468
0.00316396
0.131338
0.00301042
0.140868
0.00272643
0.150966
0.00236314
0.161615
0.00199407
0.172876
0.00166834
0.184872
0.00139547
0.197678
0.00116589
0.211356
0.000965564
0.225958
0.000784866
0.241559
0.000617633
0.258231
0.000455673
0.276048
0.000308747
0.295071
0.000157266
0.31608
0.337922
0.0029387
0.0458999
0.0033677
0.0491756
0.00343438
0.0527929
0.0033343
0.0568209
0.00320411
0.0611132
0.00305044
0.0656027
0.00293496
0.0702289
0.0028394
0.0751199
0.00277008
0.0803516
0.00274902
0.086004
0.00277162
0.0921936
0.00284162
0.0989695
0.00292198
0.106324
0.0029709
0.114158
0.00296201
0.122477
0.00290202
0.131398
0.00275967
0.14101
0.00251708
0.151209
0.00220147
0.16193
0.00187069
0.173207
0.00156907
0.185174
0.00131095
0.197936
0.00109235
0.211574
0.000903298
0.226148
0.000735164
0.241727
0.000580405
0.258385
0.000430561
0.276198
0.000285111
0.295216
0.000146431
0.316219
0.338069
0.00150641
0.0461414
0.00136239
0.0493196
0.00156988
0.0525854
0.00205168
0.0563391
0.0025762
0.0605886
0.00307584
0.0651031
0.00346488
0.0698398
0.00369831
0.0748865
0.00376395
0.080286
0.00367879
0.0860892
0.00353516
0.0923372
0.00340967
0.099095
0.00330877
0.106425
0.00319968
0.114267
0.00305861
0.122618
0.00288005
0.131577
0.00265376
0.141236
0.0023632
0.151499
0.00203801
0.162256
0.00171963
0.173525
0.00143943
0.185454
0.00120426
0.198171
0.0010053
0.211773
0.000831345
0.226321
0.000673751
0.241885
0.000527598
0.258531
0.000389258
0.276337
0.000251221
0.295354
0.000130923
0.316339
0.3382
0.00320585
0.0457589
0.00333786
0.0491876
0.00314763
0.0527756
0.00291036
0.0565764
0.0028673
0.0606317
0.00297042
0.065
0.00310466
0.0697056
0.00323318
0.074758
0.00331143
0.0802077
0.00328963
0.086111
0.00317328
0.0924536
0.00300547
0.0992628
0.00285
0.106581
0.00270645
0.114411
0.00255469
0.122769
0.00239428
0.131737
0.00221479
0.141416
0.00200001
0.151714
0.00175903
0.162497
0.0015134
0.173771
0.00128736
0.18568
0.00108793
0.198371
0.000914451
0.211947
0.000760663
0.226475
0.000620445
0.242025
0.000488721
0.258663
0.000361025
0.276464
0.000226814
0.295488
0.000118406
0.316448
0.338318
0.00231224
0.0458056
0.00250622
0.0489936
0.00284326
0.0524386
0.00317125
0.0562484
0.00344176
0.0603612
0.00364309
0.0647987
0.0037658
0.0695829
0.00379057
0.0747332
0.00371622
0.0802821
0.00358132
0.0862459
0.00340001
0.0926349
0.00319333
0.0994694
0.0029753
0.106799
0.00274822
0.114638
0.00251341
0.123004
0.00228013
0.13197
0.00205685
0.141639
0.00182948
0.151941
0.00159977
0.162726
0.00137679
0.173994
0.00117455
0.185882
0.000996216
0.198549
0.000838612
0.212104
0.000695763
0.226618
0.000564135
0.242157
0.000440862
0.258786
0.000322437
0.276583
0.000197097
0.295614
0.000104429
0.316541
0.338423
0.00381997
0.0456322
0.00359744
0.0492162
0.00324694
0.0527891
0.00303528
0.0564601
0.00301981
0.0603767
0.00316301
0.0646555
0.00334974
0.0693961
0.00345975
0.0746232
0.00343641
0.0803054
0.00328837
0.0863939
0.00305046
0.0928728
0.00276942
0.0997505
0.00250121
0.107067
0.00225186
0.114887
0.00201488
0.123241
0.00180187
0.132183
0.00162391
0.141817
0.00146639
0.152099
0.00131855
0.162874
0.00116895
0.174144
0.00102332
0.186028
0.000884081
0.198688
0.000754488
0.212234
0.000632595
0.22674
0.000517221
0.242272
0.000406697
0.258897
0.000296892
0.276693
0.000175602
0.295735
9.30994e-05
0.316623
0.338516
0.00340151
0.0454619
0.00381017
0.0488075
0.00408517
0.0525141
0.00409651
0.0564487
0.00394229
0.0605309
0.00375907
0.0648387
0.00361241
0.0695428
0.00348294
0.0747527
0.00335082
0.0804375
0.00319163
0.0865531
0.00298457
0.0930798
0.00273991
0.0999951
0.00247202
0.107335
0.00219855
0.115161
0.00192862
0.123511
0.00168271
0.132429
0.00148157
0.142018
0.00132282
0.152258
0.00118698
0.16301
0.00105694
0.174274
0.000929842
0.186155
0.000806967
0.198811
0.0006891
0.212352
0.000575875
0.226853
0.000468005
0.24238
0.000365544
0.258999
0.000263838
0.276794
0.00015093
0.295848
8.12161e-05
0.316693
0.338597
0.00445392
0.0455388
0.00407581
0.0491856
0.00383511
0.0527548
0.00379581
0.056488
0.00377963
0.0605471
0.00371725
0.0649011
0.0036136
0.0696465
0.00346286
0.0749034
0.00325472
0.0806457
0.00299495
0.0868129
0.00270053
0.0933743
0.00239006
0.100306
0.002093
0.107632
0.00181826
0.115435
0.00156188
0.123767
0.0013379
0.132653
0.00116889
0.142187
0.00105184
0.152375
0.000968153
0.163094
0.000888828
0.174353
0.000804165
0.18624
0.000712601
0.198903
0.000618234
0.212446
0.00052324
0.226948
0.000429212
0.242474
0.000337227
0.259091
0.000242448
0.276889
0.00013347
0.295957
7.16319e-05
0.316755
0.338669
0.00462592
0.0452221
0.00486866
0.0489429
0.00482441
0.052799
0.00461169
0.0567007
0.00433752
0.0608212
0.00401472
0.0652239
0.00367261
0.0699886
0.00335068
0.0752253
0.0030737
0.0809227
0.00281565
0.0870709
0.0025548
0.0936351
0.00227865
0.100582
0.00199476
0.107916
0.00171789
0.115712
0.00145808
0.124027
0.00123307
0.132878
0.00106356
0.142357
0.000954201
0.152484
0.000878607
0.163169
0.000809169
0.174422
0.000733563
0.186315
0.000651113
0.198985
0.000563891
0.212533
0.000473993
0.227038
0.000386572
0.242562
0.00030156
0.259176
0.000215087
0.276975
0.000114232
0.296058
6.20338e-05
0.316807
0.338731
0.00535625
0.00484836
0.00462528
0.00449011
0.00432085
0.00408963
0.00378411
0.00343603
0.00306612
0.00270298
0.00236376
0.00204325
0.00174699
0.00147779
0.00123261
0.00102188
0.000870385
0.000781076
0.000733243
0.000692905
0.000643516
0.00058198
0.000510827
0.000433304
0.000355823
0.000278367
0.000198123
0.00010162
5.46568e-05
)
;

boundaryField
{
    outlet
    {
        type            calculated;
        value           nonuniform 0();
    }
    upperWall
    {
        type            symmetryPlane;
        value           nonuniform 0();
    }
    lowerWall
    {
        type            symmetryPlane;
        value           uniform 0;
    }
    inlet
    {
        type            calculated;
        value           nonuniform List<scalar> 
40
(
-0.053033
-0.053033
-0.053033
-0.053033
-0.053033
-0.053033
-0.053033
-0.053033
-0.053033
-0.053033
-0.0478286
-0.051148
-0.0546978
-0.058494
-0.0625537
-0.0668951
-0.0715378
-0.0765027
-0.0818122
-0.0874902
-0.0935622
-0.100056
-0.107
-0.114426
-0.122367
-0.13086
-0.139942
-0.149655
-0.160041
-0.171148
-0.183026
-0.195729
-0.209313
-0.22384
-0.239375
-0.255988
-0.273755
-0.292754
-0.313072
-0.3348
)
;
    }
    cylinder
    {
        type            calculated;
        value           nonuniform 0();
    }
    frontAndBack
    {
        type            empty;
        value           nonuniform 0();
    }
    procBoundary0to1
    {
        type            processor;
        value           nonuniform List<scalar> 
45
(
0.0165637
0.0430963
0.0438641
0.043175
0.0132237
0.0419233
0.0421833
0.0418568
0.00726198
0.0412703
0.0372015
0.0422936
0.00467553
0.0397347
0.00414835
0.045467
0.0494508
0.0530221
0.0568359
0.0609905
0.0654551
0.0702941
0.0755734
0.0812926
0.0874341
0.0939743
0.100902
0.108212
0.115981
0.124272
0.133089
0.142508
0.152573
0.163217
0.174463
0.186365
0.199047
0.212605
0.227116
0.242639
0.259254
0.277056
0.296154
0.316854
0.338785
)
;
    }
    procBoundary0to4
    {
        type            processor;
        value           nonuniform List<scalar> 
33
(
0.00115155
0.00121697
0.00129452
0.000299343
0.00165394
0.000868928
-0.00069967
0.000358978
0.000178332
-0.000347564
0.00136954
0.000948347
0.000339172
0.0013038
0.000800387
0.000428404
0.000589402
0.000518668
0.000473
0.000437909
0.000556415
0.000625634
0.000713749
0.000798271
0.000892655
0.000993228
0.00107232
0.00115968
0.00122145
0.00129059
0.00133504
0.00138255
0.00142054
)
;
    }
}


// ************************************************************************* //
