/*--------------------------------*- C++ -*----------------------------------*\
| =========                 |                                                 |
| \\      /  F ield         | OpenFOAM: The Open Source CFD Toolbox           |
|  \\    /   O peration     | Version:                                        |
|   \\  /    A nd           | Website:  www.openfoam.com                      |
|    \\/     M anipulation  |                                                 |
\*---------------------------------------------------------------------------*/
FoamFile
{
    version     2.0;
    format      ascii;
    class       surfaceScalarField;
    location    "116.3";
    object      phi;
}
// * * * * * * * * * * * * * * * * * * * * * * * * * * * * * * * * * * * * * //

dimensions      [0 3 -1 0 0 0 0];
oriented        oriented;


internalField   nonuniform List<scalar> 
2227
(
0.00403051
0.0481417
-0.0511954
0.00707606
0.0479872
-0.0510328
0.0100967
0.0475436
-0.0505642
0.0130707
0.0466937
-0.0496677
0.0159456
0.0455631
-0.0484379
-0.0467666
0.00397975
0.0451962
0.0069279
0.0450391
0.00986125
0.0446102
0.0127487
0.003974
0.00684552
-0.000425528
0.0538727
-0.00122419
0.0538317
-0.0019387
0.0537475
-0.00252529
0.0536196
-0.0029397
0.0534474
-0.00314017
0.0532335
-0.00308243
0.0529753
-0.00271744
0.052668
-0.00199414
0.0523097
0.0519486
-0.000909784
0.00231908
0.0536969
0.00257845
0.0535723
0.00293173
0.0533942
0.00338784
0.0531635
0.00394854
0.0528867
0.00461527
0.0525667
0.00537194
0.0522186
0.00619263
0.0518473
0.00705403
0.0514483
0.0510152
0.00798752
-0.000836764
0.0546005
-0.00179871
0.0545342
-0.00279402
0.0543895
-0.00380372
0.0541732
-0.00480368
0.0538867
-0.00577712
0.0535402
-0.00669605
0.0531375
-0.0075464
0.0526977
-0.00830972
0.0522116
0.0517109
-0.00900542
-0.00142716
0.0545121
-0.00139385
0.0545009
-0.00139488
0.0543906
-0.00140552
0.0541838
-0.00140259
0.0538837
-0.00135445
0.053492
-0.00123159
0.0530147
-0.000978625
0.0524447
-0.000552711
0.0517857
0.0510427
0.000115428
-0.000513869
0.0552102
-0.00115498
0.055142
-0.00170606
0.0549416
-0.0021335
0.0546113
-0.00239831
0.0541486
-0.00246014
0.0535539
-0.00226992
0.0528244
-0.00178785
0.0519626
-0.000955154
0.050953
0.0498175
0.00027012
-3.20661e-05
0.055125
3.04307e-05
0.0550795
9.00913e-05
0.054882
0.000175343
0.054526
0.000310677
0.0540132
0.000529296
0.0533352
0.000854538
0.0524992
0.00131601
0.0515012
0.00191923
0.0503498
0.0491188
0.00261784
-0.000924094
0.0556714
-0.00137989
0.0555353
-0.00170973
0.0552118
-0.0018858
0.0547021
-0.00187105
0.0539985
-0.00165281
0.053117
-0.00119597
0.0520424
-0.000493838
0.050799
0.000491813
0.0493641
0.0478585
0.00175218
0.00158195
0.055568
0.00174839
0.0553689
0.00197799
0.0549822
0.00227972
0.0544003
0.00263591
0.0536423
0.00306319
0.0526897
0.00351903
0.0515865
0.00400598
0.0503121
0.00447225
0.0488979
0.0473812
0.0049495
0.000347308
0.0560175
-0.000115537
0.0558317
-0.000558795
0.0554255
-0.000969109
0.0548107
-0.00130304
0.0539762
-0.00156757
0.0529543
-0.00170143
0.0517204
-0.0017321
0.0503428
-0.00158862
0.0487544
0.0471153
-0.00132274
0.000391499
0.0559235
0.000551119
0.0556721
0.000778859
0.0551977
0.00109559
0.0544939
0.0014771
0.0535947
0.00193572
0.0524956
0.00241343
0.0512427
0.00290462
0.0498516
0.00328857
0.0483704
0.0467849
0.00361903
0.000787657
0.0562681
0.000427072
0.0560327
4.95459e-05
0.0555753
-0.000373981
0.0549175
-0.000831827
0.0540525
-0.00136082
0.0530246
-0.00192334
0.0518052
-0.00249379
0.050422
-0.0029214
0.048798
0.0471085
-0.00324507
0.000507972
0.0562234
0.000499416
0.0560413
0.000462844
0.0556118
0.000446424
0.0549339
0.000471943
0.054027
0.000623615
0.0528729
0.000901767
0.0515271
0.00138976
0.049934
0.00207194
0.0481158
0.0461354
0.00304511
-2.52831e-05
0.0564144
-0.000189684
0.0562057
-0.000319389
0.0557415
-0.000429071
0.0550436
-0.000490261
0.0540882
-0.000567353
0.05295
-0.000590374
0.0515501
-0.000672409
0.0500161
-0.0008068
0.0482502
0.0462164
-0.000887871
0.000378585
0.0563364
0.000424212
0.05616
0.000444172
0.0557216
0.000447195
0.0550405
0.00041428
0.0541211
0.000407548
0.0529568
0.000370142
0.0515875
0.000458692
0.0499275
0.000699229
0.0480097
0.0458646
0.00105109
9.51462e-05
0.0564708
-6.88403e-05
0.056324
-0.000250351
0.0559031
-0.00041873
0.0552089
-0.000532179
0.0542346
-0.000563039
0.0529876
-0.000415697
0.0514401
-0.000155468
0.0496673
0.000232396
0.0476218
0.0453564
0.000740567
0.000320352
0.0563525
0.000431354
0.056213
0.000557857
0.0557766
0.000703673
0.0550631
0.000880601
0.0540577
0.00108711
0.0527811
0.00128356
0.0512437
0.00156532
0.0493855
0.00186037
0.0473268
0.0448962
0.00232054
0.000189507
0.0563694
0.000168573
0.056234
0.000144546
0.0558006
0.000133081
0.0550746
0.000142673
0.0540481
0.000209941
0.0527139
0.000376824
0.0510768
0.000650712
0.0491116
0.00121848
0.046759
0.0442009
0.00191387
0.000521493
0.0562012
0.000684322
0.0560711
0.00085832
0.0556266
0.00105189
0.054881
0.00130263
0.0537973
0.00163488
0.0523816
0.00206963
0.0506421
0.00260717
0.0485741
0.00316527
0.0462009
0.0434359
0.0039302
0.000509455
0.0561263
0.000579159
0.0560014
0.000656077
0.0555497
0.00076711
0.05477
0.000920039
0.0536444
0.001128
0.0521736
0.00142918
0.0503409
0.00186333
0.0481399
0.0024498
0.0456144
0.0426904
0.00319532
0.000791745
0.0558741
0.00105309
0.0557401
0.00132723
0.0552755
0.00163426
0.0544629
0.00199386
0.0532848
0.00243658
0.0517309
0.00293692
0.0498406
0.0035328
0.0475441
0.00416977
0.0449775
0.0420836
0.00477659
0.000813561
0.0556908
0.000997633
0.055556
0.00119292
0.0550803
0.00141107
0.0542448
0.00165802
0.0530378
0.00195823
0.0514307
0.00230673
0.0494921
0.00268938
0.0471614
0.00314293
0.0445239
0.0415514
0.00367516
0.00107007
0.0553529
0.00141235
0.0552137
0.00176296
0.0547297
0.00214698
0.0538607
0.00256607
0.0526188
0.00303796
0.0509588
0.00355564
0.0489744
0.00414318
0.0465739
0.00471437
0.0439527
0.0409537
0.00531199
0.00112285
0.0550585
0.00141033
0.0549262
0.00169927
0.0544407
0.00200039
0.0535596
0.00232347
0.0522957
0.00267143
0.0506108
0.00303153
0.0486143
0.00338891
0.0462165
0.00378756
0.0435541
0.0406387
0.00410261
0.00133593
0.0546289
0.00176495
0.0544972
0.00219709
0.0540086
0.0026469
0.0531098
0.00311397
0.0518286
0.00361792
0.0501069
0.00413068
0.0481015
0.00467642
0.0456708
0.00517505
0.0430555
0.0400615
0.00575225
0.001389
0.0542242
0.00178196
0.0541043
0.0021697
0.0536208
0.00256661
0.0527129
0.00296085
0.0514344
0.00336127
0.0497065
0.00375901
0.0477038
0.00412973
0.0453
0.00451727
0.0426679
0.0397741
0.00480469
0.00156968
0.053693
0.00209581
0.0535781
0.0026192
0.0530974
0.00315127
0.0521809
0.00368692
0.0508987
0.00422559
0.0491678
0.00476386
0.0471655
0.00533014
0.0447338
0.00583452
0.0421636
0.0392485
0.00636006
0.00161518
0.0531749
0.00212541
0.0530679
0.00262494
0.0525979
0.00312345
0.0516824
0.0036067
0.0504155
0.0040854
0.0486891
0.00452667
0.0467242
0.00494824
0.0443122
0.00537845
0.0417333
0.0391707
0.00545624
0.0017682
0.0525404
0.00240554
0.0524306
0.00303816
0.0519653
0.00367083
0.0510497
0.00429661
0.0497897
0.00490737
0.0480783
0.00548819
0.0461434
0.00605379
0.0437466
0.00663997
0.0411472
0.0071493
0.0017989
0.0519163
0.00243441
0.051795
0.00306518
0.0513345
0.00368635
0.0504285
0.00428144
0.0491946
0.00485968
0.0475001
0.00538249
0.0456206
0.00584891
0.00192486
0.00268712
0.00345739
0.00421821
0.00497487
0.00570833
-0.000540878
0.0474597
-0.000129918
0.0507371
0.000164357
0.0544036
0.000248713
0.0584097
0.000124886
0.0626775
-0.000199559
0.0672195
-0.000698191
0.0720364
-0.00128843
0.0770929
-0.0018405
0.0823643
-0.00223459
0.0878843
-0.00241145
0.0937391
-0.00239093
0.100035
-0.00220103
0.10681
-0.00187319
0.114098
-0.00145761
0.121952
-0.00101925
0.130422
-0.000648391
0.139571
-0.000371701
0.149378
-0.000175081
0.159844
-3.23802e-05
0.171006
6.96534e-05
0.182924
0.000133123
0.195665
0.000167689
0.209279
0.000177859
0.22383
0.000171877
0.239381
0.00015212
0.256008
0.000124577
0.273782
9.35731e-05
0.292785
5.26652e-05
0.313113
0.334853
0.00806398
0.0473832
0.00794674
0.0508543
0.0076792
0.0546711
0.00734705
0.0587418
0.00700232
0.0630222
0.00668777
0.0675341
0.00643902
0.0722851
0.00625903
0.0772729
0.00613203
0.0824913
0.00603346
0.0879828
0.00594041
0.0938322
0.00580354
0.100172
0.00554348
0.10707
0.00504132
0.1146
0.00434595
0.122647
0.00364043
0.131127
0.00303897
0.140173
0.00256684
0.14985
0.00213618
0.160275
0.00174417
0.171398
0.00139673
0.183272
0.00112419
0.195938
0.000916502
0.209486
0.00075525
0.223991
0.00062125
0.239515
0.000507165
0.256122
0.00040302
0.273886
0.000291382
0.292897
0.000150389
0.313254
0.335003
-0.0101114
0.0484892
-0.0108795
0.0516223
-0.0109692
0.0547608
-0.0103008
0.0580734
-0.00895577
0.0616772
-0.0069953
0.0655736
-0.00459106
0.0698809
-0.00207767
0.0747595
7.06508e-05
0.0803429
0.00154606
0.0865074
0.00228736
0.0930909
0.00246548
0.099994
0.00228091
0.107255
0.00196694
0.114914
0.00162333
0.122991
0.00124383
0.131507
0.000935572
0.140481
0.000719372
0.150066
0.000626218
0.160368
0.000583336
0.17144
0.000553121
0.183302
0.000518497
0.195973
0.000486035
0.209519
0.000453699
0.224023
0.000411985
0.239557
0.000360758
0.256173
0.00030208
0.273945
0.000241315
0.292957
0.00013355
0.313362
0.335137
7.33051e-05
0.0485313
-2.21714e-05
0.0517178
-0.000204244
0.0549429
-0.00053891
0.0584081
-0.00103876
0.0621771
-0.00171569
0.0662505
-0.00248677
0.070652
-0.00318585
0.0754586
-0.00362052
0.0807776
-0.00377143
0.0866583
-0.00371915
0.0930386
-0.00352666
0.0998015
-0.00320083
0.106929
-0.00267738
0.114391
-0.00200111
0.122315
-0.00136531
0.130871
-0.000914884
0.140031
-0.000644653
0.149796
-0.000407631
0.160131
-0.000157515
0.17119
8.64545e-05
0.183058
0.000266876
0.195792
0.000375804
0.20941
0.000417189
0.223982
0.000413283
0.239561
0.000380871
0.256206
0.000326667
0.273999
0.000258768
0.293025
0.000133815
0.313487
0.335271
0.000933697
0.0478677
0.0016281
0.0510234
0.00220345
0.0543676
0.0025996
0.0580119
0.00272339
0.0620533
0.00248227
0.0664916
0.00185493
0.0712793
0.000933496
0.07638
-3.58717e-05
0.081747
-0.000744962
0.0873674
-0.00101564
0.0933092
-0.000909348
0.0996952
-0.000572853
0.106592
-0.000234602
0.114053
-2.05126e-05
0.1221
0.000143343
0.130707
0.000286462
0.139887
0.000423922
0.149658
0.000501224
0.160054
0.000529929
0.171162
0.000531548
0.183056
0.000521397
0.195802
0.000501727
0.209429
0.000469616
0.224014
0.000430992
0.239599
0.000381257
0.256256
0.000325256
0.274055
0.000266276
0.293084
0.000143249
0.31361
0.335414
0.00257814
0.0479074
0.00246232
0.0511392
0.00235073
0.0544792
0.00221947
0.0581432
0.00205982
0.0622129
0.00192182
0.0666296
0.00180941
0.0713917
0.00169124
0.0764982
0.00149731
0.0819409
0.00118789
0.0876768
0.000801069
0.0936961
0.000450939
0.100045
0.000209957
0.106833
0.000117683
0.114145
0.000144552
0.122074
0.000256306
0.130595
0.000478834
0.139665
0.000732806
0.149404
0.000912088
0.159875
0.000965084
0.171109
0.000924954
0.183097
0.000847453
0.19588
0.000759834
0.209517
0.000671278
0.224103
0.000581915
0.239689
0.000493111
0.256344
0.000403569
0.274145
0.000311235
0.293177
0.000159887
0.313761
0.335574
0.00246579
0.0471938
0.00320651
0.0503985
0.00371036
0.0539753
0.00384969
0.0580038
0.00365768
0.0624049
0.00317582
0.0671115
0.00247532
0.0720922
0.00166486
0.0773087
0.000932031
0.0826737
0.000405952
0.0882029
9.29655e-05
0.0940091
-7.14979e-05
0.10021
-7.24662e-05
0.106834
0.000104297
0.113968
0.000424073
0.121754
0.000775291
0.130244
0.000999579
0.139441
0.00109707
0.149307
0.00110524
0.159866
0.00107405
0.17114
0.00101911
0.183151
0.000952092
0.195947
0.000869806
0.209599
0.000777983
0.224195
0.000679146
0.239788
0.0005698
0.256454
0.000453373
0.274261
0.000337651
0.293292
0.000170381
0.313928
0.335744
0.0049397
0.0472036
0.00476135
0.0505769
0.00449547
0.0542412
0.00420917
0.0582902
0.00393357
0.0626805
0.00372527
0.0673198
0.00366057
0.0721569
0.00376649
0.0772028
0.00397748
0.0824627
0.00421019
0.0879702
0.00441498
0.0938043
0.0045273
0.100097
0.00446898
0.106893
0.00420755
0.114229
0.00381215
0.122149
0.0033987
0.130658
0.00300308
0.139836
0.00262855
0.149682
0.00226691
0.160228
0.00194432
0.171462
0.00166986
0.183426
0.00144242
0.196174
0.00124271
0.209799
0.0010663
0.224371
0.000901732
0.239952
0.000744265
0.256611
0.00058744
0.274418
0.000425178
0.293455
0.000211901
0.314142
0.335956
-0.00142581
0.0473067
-0.00140058
0.0505516
-0.00124734
0.0540879
-0.000885838
0.0579287
-0.000292263
0.062087
0.000458064
0.0665695
0.00119893
0.0714161
0.00179543
0.0766063
0.00217903
0.0820791
0.00233847
0.0878108
0.0023181
0.0938246
0.00221601
0.1002
0.00207672
0.107032
0.00192691
0.114379
0.00179683
0.122279
0.00167872
0.130776
0.0015757
0.139939
0.0014793
0.149778
0.00140706
0.1603
0.00134852
0.171521
0.00128497
0.18349
0.00119952
0.19626
0.00109296
0.209906
0.000971575
0.224492
0.000839659
0.240084
0.000700929
0.25675
0.000556081
0.274563
0.000406248
0.293605
0.000208533
0.314339
0.336164
0.00349415
0.0474316
0.00314252
0.0509033
0.00274727
0.0544832
0.00234887
0.0583271
0.00196441
0.0624714
0.00172754
0.0668063
0.00182608
0.0713175
0.00229306
0.0761393
0.00296471
0.0814075
0.00360709
0.0871684
0.00405298
0.0933787
0.0042058
0.100047
0.00411236
0.107125
0.00382622
0.114665
0.00344823
0.122657
0.00305219
0.131172
0.0026602
0.140331
0.00230659
0.150132
0.00201247
0.160594
0.00178766
0.171746
0.001608
0.183669
0.00144653
0.196421
0.00128421
0.210068
0.0011164
0.22466
0.000943444
0.240257
0.000770266
0.256923
0.000598358
0.274735
0.000423947
0.293779
0.000212092
0.314551
0.336377
-0.00371701
0.0479035
-0.00357329
0.0507596
-0.00301344
0.0539233
-0.00241092
0.0577245
-0.00188466
0.0619452
-0.00143334
0.066355
-0.00102525
0.0709095
-0.000526818
0.0756408
0.000125145
0.0807555
0.000869274
0.0864243
0.00154414
0.0927039
0.00205051
0.0995403
0.0022893
0.106886
0.00228707
0.114668
0.00211972
0.122825
0.00189418
0.131397
0.00172599
0.140499
0.00162244
0.150235
0.00155885
0.160658
0.00149001
0.171815
0.00139833
0.183761
0.00128239
0.196537
0.00115236
0.210198
0.00101351
0.224799
0.000867113
0.240403
0.000713434
0.257077
0.000554824
0.274893
0.000394751
0.293939
0.000198849
0.314747
0.336575
0.00357127
0.0473774
0.00369426
0.0506366
0.00346405
0.0541535
0.00318721
0.0580014
0.003053
0.0620794
0.00302558
0.0663824
0.00295309
0.070982
0.00262873
0.0759652
0.00211933
0.0812649
0.0016378
0.0869058
0.00135056
0.0929911
0.00131348
0.0995774
0.00143358
0.106766
0.00159684
0.114504
0.00170874
0.122713
0.00173839
0.131368
0.00169509
0.140543
0.00162322
0.150307
0.00154905
0.160732
0.00147428
0.171889
0.00138599
0.183849
0.00127625
0.196647
0.00114499
0.210329
0.00100053
0.224943
0.000850364
0.240554
0.000698284
0.257229
0.000544618
0.275047
0.000387113
0.294096
0.000193806
0.31494
0.336769
-0.00132583
0.0478153
-0.00169898
0.0510097
-0.00172014
0.0541747
-0.00121271
0.0574939
-0.00031037
0.061177
0.000757378
0.0653147
0.00176663
0.0699727
0.00255951
0.0751723
0.00297876
0.0808457
0.00300246
0.0868821
0.00276877
0.0932248
0.00243918
0.099907
0.00216723
0.107038
0.00197857
0.114693
0.00184253
0.122849
0.00174175
0.131468
0.00168868
0.140596
0.00164504
0.150351
0.00157307
0.160804
0.00145861
0.172004
0.00132294
0.183985
0.00118237
0.196787
0.00104283
0.210469
0.000904906
0.225081
0.000765711
0.240693
0.000625729
0.257369
0.000486652
0.275186
0.000350003
0.294233
0.000177359
0.315113
0.336947
0.0010965
0.0477699
0.00107212
0.0510341
0.000888866
0.054358
0.000548119
0.0578347
0.0002376
0.0614875
0.000103997
0.0654483
0.000154348
0.0699223
0.000372629
0.074954
0.000696448
0.0805219
0.0010206
0.0865579
0.00125522
0.0929902
0.00136138
0.0998009
0.00140157
0.106998
0.00143183
0.114663
0.00146128
0.122819
0.00146326
0.131466
0.00144562
0.140613
0.00142234
0.150374
0.00138915
0.160837
0.00132702
0.172066
0.00123263
0.184079
0.0011136
0.196907
0.000984849
0.210597
0.000852762
0.225213
0.000719759
0.240826
0.000586896
0.257502
0.00045534
0.275318
0.000326286
0.294362
0.000163076
0.315276
0.33711
0.000718621
0.0477919
0.000909515
0.0508432
0.00135543
0.053912
0.00184805
0.0573421
0.00210086
0.0612347
0.00205176
0.0654974
0.00186759
0.0701065
0.00166937
0.0751523
0.0015215
0.0806697
0.00146762
0.0866118
0.00150168
0.0929561
0.00160395
0.0996986
0.001725
0.106877
0.00184148
0.114546
0.00192067
0.12274
0.00192982
0.131457
0.00185735
0.140686
0.00172925
0.150502
0.0015687
0.160998
0.00140294
0.172232
0.00124332
0.184239
0.00109216
0.197058
0.000946945
0.210743
0.000807328
0.225353
0.000672538
0.240961
0.000540968
0.257633
0.000413839
0.275445
0.000295852
0.29448
0.000147686
0.315424
0.337257
0.00251175
0.0476007
0.00243444
0.0509205
0.00220363
0.0541429
0.00198903
0.0575567
0.00185749
0.0613663
0.00180147
0.0655534
0.00175956
0.0701484
0.00175967
0.0751522
0.00178856
0.0806408
0.00178885
0.0866115
0.00172908
0.0930159
0.00162304
0.0998046
0.00152198
0.106978
0.00148264
0.114586
0.00150201
0.122721
0.00152976
0.13143
0.00154132
0.140674
0.00150136
0.150542
0.00141623
0.161083
0.00129623
0.172352
0.00116407
0.184371
0.0010311
0.197191
0.000901665
0.210872
0.000773662
0.225481
0.000646755
0.241087
0.000520907
0.257759
0.000397648
0.275568
0.000281762
0.294596
0.0001385
0.315568
0.337396
0.00218748
0.0473271
0.00288782
0.0502202
0.00368511
0.0533456
0.00417813
0.0570637
0.00422444
0.06132
0.00385838
0.0659195
0.00325493
0.0707519
0.00260478
0.0758023
0.00211481
0.0811308
0.00188274
0.0868436
0.00186196
0.0930367
0.00192502
0.0997416
0.00197284
0.10693
0.00198066
0.114578
0.00194796
0.122753
0.00188206
0.131495
0.00176166
0.140795
0.00160948
0.150694
0.00144371
0.161249
0.00128024
0.172515
0.00112761
0.184524
0.000985575
0.197333
0.000852651
0.211005
0.000726279
0.225607
0.000604663
0.241209
0.00048441
0.257879
0.000367222
0.275685
0.000258343
0.294705
0.000128669
0.315697
0.337524
0.00418448
0.0470728
0.00405792
0.0503467
0.00382561
0.0535779
0.00372729
0.057162
0.00376438
0.0612829
0.00384677
0.0658371
0.00385526
0.0707434
0.00369521
0.0759624
0.00333723
0.0814888
0.00288767
0.0872932
0.00248314
0.0934412
0.00222044
0.100004
0.00206637
0.107084
0.00196695
0.114677
0.00187418
0.122846
0.00177441
0.131595
0.00166302
0.140906
0.00153018
0.150827
0.00138263
0.161396
0.00123142
0.172666
0.00108786
0.184667
0.000951722
0.197469
0.000824819
0.211132
0.000703084
0.225729
0.000585513
0.241327
0.000470553
0.257994
0.000355023
0.275801
0.000245541
0.294814
0.000122625
0.31582
0.337647
0.00368073
0.0465874
0.004312
0.0497155
0.00476677
0.0531231
0.00498995
0.0569388
0.00499169
0.0612812
0.00475555
0.0660732
0.00436351
0.0711354
0.00391925
0.0764066
0.00348069
0.0819274
0.00305265
0.0877212
0.00267081
0.0938231
0.00236308
0.100312
0.00216279
0.107285
0.00203846
0.114802
0.00194923
0.122935
0.00184779
0.131697
0.00169198
0.141062
0.00150751
0.151011
0.00132477
0.161579
0.00116591
0.172825
0.00102577
0.184807
0.000897459
0.197597
0.000775512
0.211254
0.000658222
0.225846
0.000546417
0.241438
0.000437214
0.258104
0.000326268
0.275912
0.000223066
0.294918
0.000113276
0.31593
0.33776
0.00483313
0.0465308
0.0045982
0.0499504
0.00429568
0.0534256
0.00406863
0.0571658
0.00407677
0.061273
0.00423259
0.0659174
0.00433562
0.0710324
0.00424227
0.0765
0.00396791
0.0822017
0.00358807
0.088101
0.00318117
0.09423
0.0028014
0.100692
0.00246841
0.107618
0.00219921
0.115071
0.00199688
0.123138
0.00183967
0.131854
0.00169587
0.141206
0.0015325
0.151175
0.00135609
0.161755
0.00118778
0.172994
0.00103713
0.184958
0.000901939
0.197732
0.000776189
0.21138
0.000656656
0.225966
0.000542076
0.241553
0.000431003
0.258215
0.000321522
0.276021
0.000211935
0.295027
0.000109133
0.316033
0.33787
0.00396514
0.0462408
0.00447689
0.0494387
0.00487398
0.0530285
0.00497486
0.057065
0.00481167
0.0614362
0.00459656
0.0661325
0.0044055
0.0712234
0.00418045
0.076725
0.0038618
0.0825204
0.00345766
0.0885052
0.00302128
0.0946663
0.00261046
0.101103
0.00227468
0.107953
0.00200974
0.115336
0.00180715
0.12334
0.00164338
0.132018
0.00149089
0.141358
0.00134189
0.151324
0.00120062
0.161897
0.00107117
0.173123
0.000949656
0.185079
0.000834111
0.197848
0.000721576
0.211492
0.000612182
0.226075
0.000506282
0.241659
0.000401775
0.258319
0.000298245
0.276125
0.000191024
0.295134
9.99858e-05
0.316124
0.33797
0.00526941
0.0462834
0.00483119
0.0498769
0.00441258
0.0534471
0.00420292
0.0572746
0.00408378
0.0615553
0.00396983
0.0662465
0.00389055
0.0713027
0.00384159
0.076774
0.00377025
0.0825917
0.00361462
0.0886608
0.00335914
0.0949218
0.00302729
0.101434
0.00265873
0.108322
0.00230982
0.115685
0.00201266
0.123638
0.00177327
0.132257
0.00157602
0.141556
0.00139814
0.151502
0.00123627
0.162059
0.00109081
0.173268
0.000960534
0.18521
0.000838892
0.19797
0.000722456
0.211609
0.000610369
0.226187
0.000502129
0.241767
0.000397009
0.258424
0.000292659
0.276229
0.000181068
0.295246
9.48138e-05
0.31621
0.338064
0.0041663
0.0462197
0.00452611
0.0495171
0.00475593
0.0532173
0.00471084
0.0573197
0.00447865
0.0617875
0.00419022
0.0665349
0.00388702
0.0716059
0.00359307
0.0770679
0.00331529
0.0828695
0.00303832
0.0889378
0.00275961
0.0952005
0.00247354
0.10172
0.00219341
0.108602
0.00192675
0.115951
0.00168591
0.123878
0.00148395
0.132459
0.00131627
0.141723
0.00117601
0.151642
0.00105687
0.162178
0.000952315
0.173373
0.000853439
0.185309
0.000755055
0.198068
0.000656619
0.211707
0.000558375
0.226286
0.000462103
0.241863
0.000366582
0.25852
0.000268832
0.276327
0.000161609
0.295353
8.60143e-05
0.316286
0.33815
0.00579679
0.0461752
0.00536718
0.0499467
0.00491406
0.0536704
0.00457742
0.0576563
0.00425695
0.062108
0.00394331
0.0668485
0.00368792
0.0718613
0.00353207
0.0772238
0.00341794
0.0829836
0.00328117
0.0890745
0.00308309
0.0953986
0.00280849
0.101995
0.00249361
0.108917
0.00217693
0.116268
0.00188882
0.124167
0.0016426
0.132705
0.00143557
0.14193
0.00125882
0.151819
0.00110799
0.162329
0.000978474
0.173503
0.000863469
0.185424
0.000755914
0.198175
0.000651537
0.211811
0.000550115
0.226387
0.00045217
0.241961
0.000357391
0.258615
0.000260538
0.276424
0.00015137
0.295462
8.07282e-05
0.316356
0.338231
0.00466588
0.046314
0.00485939
0.0497532
0.00493377
0.0535961
0.00475221
0.0578379
0.00438934
0.0624709
0.00390877
0.0673291
0.0034052
0.0723649
0.00300114
0.0776278
0.00273521
0.0832495
0.00256013
0.0892496
0.00239966
0.0955591
0.00221022
0.102185
0.00198425
0.109143
0.00173931
0.116513
0.00150674
0.124399
0.00131252
0.132899
0.00116161
0.142081
0.00104438
0.151936
0.000946375
0.162427
0.00085619
0.173593
0.000767365
0.185512
0.000678136
0.198265
0.00058853
0.211901
0.00049936
0.226476
0.000412049
0.242049
0.00032658
0.2587
0.000236549
0.276514
0.000133015
0.295566
7.21079e-05
0.316417
0.338303
0.00633597
0.0463381
0.0057464
0.0503427
0.00517372
0.0541687
0.00478843
0.0582232
0.0044814
0.0627779
0.00412678
0.0676837
0.00371049
0.0727812
0.00331659
0.0780217
0.00300982
0.0835563
0.00280059
0.0894589
0.00262418
0.0957355
0.00242282
0.102386
0.00218673
0.109379
0.00192643
0.116773
0.00167091
0.124655
0.00144443
0.133126
0.00125661
0.142269
0.00110657
0.152086
0.000982869
0.16255
0.000875098
0.173701
0.00077454
0.185613
0.000677704
0.198362
0.000582281
0.211996
0.000489539
0.226569
0.000400031
0.242138
0.000315306
0.258785
0.000226545
0.276603
0.000122987
0.29567
6.6615e-05
0.316474
0.33837
0.00512819
0.0466661
0.00507683
0.0503941
0.00488342
0.0543622
0.00449791
0.0586087
0.00403821
0.0632376
0.00356825
0.0681537
0.00312058
0.0732288
0.00271427
0.078428
0.00240079
0.0838698
0.00219243
0.0896672
0.00203962
0.0958883
0.00189975
0.102526
0.00172759
0.109551
0.00152458
0.116976
0.0013176
0.124862
0.00113885
0.133305
0.00100571
0.142402
0.000911526
0.15218
0.000835948
0.162626
0.000763152
0.173773
0.000686677
0.185689
0.000606833
0.198441
0.000525855
0.212077
0.000444046
0.226651
0.000363835
0.242218
0.000286245
0.258862
0.000204548
0.276684
0.000107217
0.295767
5.87067e-05
0.316522
0.338428
0.00690268
0.00603101
0.00541829
0.00494951
0.00451522
0.00406173
0.00357498
0.00310249
0.00270882
0.00241305
0.00219649
0.00201722
0.0018389
0.00164475
0.00143881
0.00124306
0.00107717
0.000950497
0.00085083
0.000764652
0.00068109
0.000598109
0.000514448
0.000430922
0.000350267
0.000273911
0.000194569
9.91182e-05
5.38048e-05
)
;

boundaryField
{
    outlet
    {
        type            calculated;
        value           nonuniform 0();
    }
    upperWall
    {
        type            symmetryPlane;
        value           nonuniform 0();
    }
    lowerWall
    {
        type            symmetryPlane;
        value           uniform 0;
    }
    inlet
    {
        type            calculated;
        value           nonuniform List<scalar> 
40
(
-0.053033
-0.053033
-0.053033
-0.053033
-0.053033
-0.053033
-0.053033
-0.053033
-0.053033
-0.053033
-0.0478286
-0.051148
-0.0546978
-0.058494
-0.0625537
-0.0668951
-0.0715378
-0.0765027
-0.0818122
-0.0874902
-0.0935622
-0.100056
-0.107
-0.114426
-0.122367
-0.13086
-0.139942
-0.149655
-0.160041
-0.171148
-0.183026
-0.195729
-0.209313
-0.22384
-0.239375
-0.255988
-0.273755
-0.292754
-0.313072
-0.3348
)
;
    }
    cylinder
    {
        type            calculated;
        value           nonuniform 0();
    }
    frontAndBack
    {
        type            empty;
        value           nonuniform 0();
    }
    procBoundary0to1
    {
        type            processor;
        value           nonuniform List<scalar> 
45
(
0.0187201
0.0439921
0.0448553
0.0438062
0.0155594
0.0427525
0.0423238
0.0421676
0.00970124
0.0417545
0.0386614
0.0432802
0.00639956
0.0405965
0.0064736
0.0469127
0.0512658
0.0549749
0.0590775
0.0636719
0.0686072
0.0737156
0.0789005
0.0842635
0.089963
0.0961049
0.102705
0.10973
0.11717
0.125068
0.1335
0.142568
0.152307
0.162725
0.173859
0.185773
0.198524
0.212161
0.226734
0.242299
0.258939
0.276764
0.295862
0.316567
0.338482
)
;
    }
    procBoundary0to4
    {
        type            processor;
        value           nonuniform List<scalar> 
33
(
-0.000976784
-0.00103425
-0.00110161
-0.000414168
-0.00214331
-6.67973e-05
0.00151559
-0.000184256
0.000117265
0.000377682
-0.00147856
-0.000796782
-0.000297488
-0.0011323
-0.000463251
-0.000165718
-0.000300532
-0.000229598
-0.000202016
-0.000206397
-0.000353273
-0.00043463
-0.000539548
-0.000630239
-0.000732151
-0.000828476
-0.000906283
-0.000984346
-0.00103844
-0.00109714
-0.0011337
-0.00117476
-0.001204
)
;
    }
}


// ************************************************************************* //
