/*--------------------------------*- C++ -*----------------------------------*\
| =========                 |                                                 |
| \\      /  F ield         | OpenFOAM: The Open Source CFD Toolbox           |
|  \\    /   O peration     | Version:                                        |
|   \\  /    A nd           | Website:  www.openfoam.com                      |
|    \\/     M anipulation  |                                                 |
\*---------------------------------------------------------------------------*/
FoamFile
{
    version     2.0;
    format      ascii;
    class       volScalarField;
    location    "123";
    object      p;
}
// * * * * * * * * * * * * * * * * * * * * * * * * * * * * * * * * * * * * * //

dimensions      [0 2 -2 0 0 0 0];


internalField   nonuniform List<scalar> 
1139
(
-0.195227
-0.115825
-0.0614449
-0.108976
-0.026446
-0.0739009
-0.00683046
-0.0465233
-0.0740577
0.00154386
-0.0286059
-0.0545297
0.0101759
-0.0200642
-0.0377448
0.01005
-0.0131819
-0.0242542
-0.0360986
0.0019757
-0.00650683
-0.0154184
-0.0237775
-0.00239026
-0.000601562
-0.00857065
-0.0128087
-1.21778
-1.25446
-1.21461
-1.1403
-1.03728
-0.907526
-1.28918
-1.24396
-1.16687
-1.06186
-0.928657
-0.778818
-1.31034
-1.25709
-1.17553
-1.0673
-0.931692
-0.77186
-0.622091
-1.3108
-1.2527
-1.16443
-1.05193
-0.916116
-0.741887
-0.576094
-0.469957
-1.2956
-1.2334
-1.13575
-1.01475
-0.869976
-0.687
-0.513837
-0.394993
-0.339884
-1.26077
-1.198
-1.09197
-0.959662
-0.803744
-0.609963
-0.427267
-0.300456
-0.241963
-0.24419
-1.19376
-1.13661
-1.02622
-0.883823
-0.718985
-0.5165
-0.325205
-0.193013
-0.138209
-0.143169
-1.09334
-1.04602
-0.938994
-0.791818
-0.618312
-0.413132
-0.222148
-0.0927537
-0.0407724
-0.0564155
-0.981584
-0.94461
-0.846836
-0.696567
-0.517497
-0.309687
-0.123779
-0.00742048
0.0340748
0.00606588
-0.876663
-0.847208
-0.757002
-0.605138
-0.430066
-0.233448
-0.0434671
0.077616
0.0921625
0.042898
-0.799742
-0.780385
-0.691778
-0.539178
-0.36636
-0.168289
0.0134377
0.108584
0.112672
0.0583655
-0.753125
-0.741831
-0.648681
-0.493175
-0.322094
-0.133199
0.0362064
0.117636
0.111847
0.0582579
-0.735494
-0.722595
-0.620905
-0.4676
-0.303616
-0.121742
0.0312406
0.0911538
0.083318
0.0441543
-0.744793
-0.728313
-0.619332
-0.466389
-0.310058
-0.14822
-0.0195746
0.0372289
0.0468068
0.0268958
-0.775182
-0.747986
-0.634144
-0.49511
-0.354826
-0.20439
-0.0852404
-0.0193284
0.0108546
0.0154459
-0.828655
-0.788875
-0.668814
-0.540059
-0.411845
-0.272968
-0.15398
-0.0695592
-0.0191021
0.00389954
-0.919938
-0.871558
-0.742188
-0.606652
-0.47
-0.32424
-0.190507
-0.0881737
-0.0257134
-0.00471354
-1.04756
-0.993796
-0.859661
-0.71
-0.556148
-0.390764
-0.234544
-0.113489
-0.0432688
-0.0195684
-1.08882
-1.05007
-0.938247
-0.796225
-0.638477
-0.463758
-0.295363
-0.161094
-0.0779519
-0.0404834
-1.00375
-0.993367
-0.908287
-0.781602
-0.632894
-0.468988
-0.313433
-0.186139
-0.103523
-0.0545396
-0.824548
-0.831759
-0.774277
-0.672776
-0.550163
-0.416993
-0.293407
-0.188747
-0.116754
-0.0646017
-0.633867
-0.643843
-0.606664
-0.535784
-0.447928
-0.35043
-0.260607
-0.180293
-0.121189
-0.0706167
-0.486943
-0.494315
-0.467938
-0.418533
-0.35745
-0.289112
-0.224648
-0.165547
-0.118282
-0.0745602
-0.391455
-0.390804
-0.369141
-0.331871
-0.28625
-0.237287
-0.187899
-0.145107
-0.107622
-0.0722924
-0.339479
-0.325504
-0.302457
-0.270358
-0.232402
-0.193678
-0.155207
-0.122897
-0.0947526
-0.0677636
-0.323068
-0.294987
-0.261551
-0.227076
-0.192304
-0.157839
-0.12552
-0.0981026
-0.0764878
-0.0560961
-0.339001
-0.294125
-0.246142
-0.202115
-0.163175
-0.128686
-0.0997575
-0.0771681
-0.0603618
-0.0437067
-0.399424
-0.331307
-0.259892
-0.197147
-0.14724
-0.108588
-0.0776127
-0.0551352
-0.0417246
-0.0285138
-0.508814
-0.404858
-0.302111
-0.217391
-0.148738
-0.0981957
-0.0632011
-0.0399677
-0.0270682
-0.0155358
-0.651044
-0.510334
-0.37175
-0.253866
-0.163947
-0.100244
-0.0563133
-0.0271536
-0.011729
-0.00339056
-0.775108
-0.606157
-0.440402
-0.301581
-0.193381
-0.112304
-0.0583082
-0.0236316
-0.00336486
0.00706611
-0.79746
-0.623221
-0.456071
-0.311099
-0.200237
-0.118159
-0.060855
-0.0197362
0.00651987
0.0201201
-0.695422
-0.552034
-0.418605
-0.30375
-0.207057
-0.128463
-0.0729268
-0.0344731
-0.00377765
0.0188339
-0.550151
-0.452874
-0.355295
-0.262154
-0.18181
-0.118689
-0.0722677
-0.0365327
-0.0111336
0.00675511
-0.418893
-0.364432
-0.30491
-0.239964
-0.174287
-0.114991
-0.0708653
-0.0384767
-0.0152212
0.000575512
-0.345719
-0.318539
-0.278365
-0.226154
-0.169804
-0.117149
-0.0742725
-0.042114
-0.0208121
-0.00700444
-0.0847007
-0.0435985
-0.0159441
-0.00125048
-0.00394117
-0.00264995
0.00680138
0.0105318
0.0180711
0.0274785
0.0303377
0.0339262
0.0408565
0.0449058
0.0455831
0.0489728
0.0513942
0.0526958
0.0539135
0.0549949
0.0556232
0.0561885
0.0566025
0.0568978
0.0569163
0.057086
0.0571067
0.056937
0.0568544
0.0566974
0.0565194
0.0563431
0.0561125
0.0560807
-0.0163661
-0.0157836
-0.00145092
0.00295593
0.0105083
0.0182861
0.0240767
0.0298785
0.0359387
0.0401884
0.0431483
0.0465679
0.0490579
0.0509261
0.052477
0.0536844
0.0545324
0.0552726
0.0558112
0.0561583
0.0563156
0.0565925
0.0566143
0.0565543
0.0565345
0.056394
0.0562626
0.0561126
0.0558754
0.0558558
-0.0321673
-0.0259602
-0.0138987
-0.00437848
0.0036898
0.0120654
0.0194728
0.0261115
0.0319778
0.0367564
0.0407793
0.0442259
0.0469033
0.0492235
0.0509033
0.0522721
0.0533423
0.0542062
0.0548634
0.0552624
0.0555955
0.0559197
0.0559929
0.0560664
0.0561057
0.0560175
0.0559522
0.0558405
0.0556183
0.0556122
-0.0417039
-0.0308042
-0.0177983
-0.00819917
0.000694831
0.00974668
0.0173751
0.023974
0.0299835
0.0349492
0.039093
0.0424568
0.0452656
0.0476159
0.0494107
0.0508497
0.0520783
0.0530082
0.0537483
0.0542472
0.054751
0.0550874
0.0552689
0.0554662
0.0555685
0.0555668
0.0555782
0.0555196
0.0553395
0.0553492
-0.0457342
-0.0299169
-0.0162485
-0.00709371
0.00248986
0.0112973
0.0181069
0.0245091
0.0301419
0.034717
0.0385113
0.0416659
0.044359
0.0465083
0.0482514
0.049687
0.0509576
0.0519019
0.0526715
0.0533155
0.0538969
0.0542454
0.0545532
0.054835
0.0550002
0.0550897
0.0551691
0.0551682
0.0550442
0.0550692
-0.0462295
-0.0253311
-0.0116337
-0.00186634
0.00813435
0.015523
0.0215967
0.027543
0.0323452
0.0361948
0.0393871
0.0421448
0.0443904
0.0462523
0.0477995
0.0491425
0.0502738
0.0511867
0.0519374
0.0526831
0.0532257
0.0536102
0.053998
0.0543027
0.0545109
0.0546574
0.054775
0.0548182
0.0547416
0.0547769
-0.0462652
-0.021971
-0.00769444
0.00351154
0.013826
0.0203861
0.0264033
0.0315877
0.0354164
0.0385716
0.0412529
0.0435064
0.0451947
0.0467523
0.0480541
0.0491838
0.0501501
0.0509731
0.0516787
0.0523902
0.0528443
0.0532689
0.0536594
0.0539403
0.0541595
0.0543119
0.0544299
0.0544911
0.054437
0.0544749
-0.0431288
-0.0186598
-0.00479931
0.00821163
0.018189
0.0247957
0.0309183
0.035372
0.0386554
0.0413198
0.0435004
0.0451469
0.0464429
0.0477006
0.0487071
0.0495793
0.0504288
0.0510614
0.0517294
0.0523077
0.0527019
0.0531321
0.0534627
0.0537064
0.0539079
0.054032
0.0541265
0.0541829
0.0541295
0.054164
-0.0392845
-0.0159829
-0.00320263
0.0119163
0.0209925
0.0279845
0.0340103
0.0382343
0.0412742
0.0435664
0.0452995
0.0464897
0.0475342
0.0484397
0.0491797
0.049908
0.050622
0.0511047
0.0517394
0.0521706
0.0525639
0.0529609
0.0532375
0.0534651
0.0536475
0.0537465
0.0538214
0.0538681
0.0538113
0.0538417
-0.0321301
-0.0126226
0.000166253
0.0149207
0.0229608
0.0300988
0.0359861
0.0400675
0.0427855
0.0448372
0.0462348
0.047247
0.0480673
0.0487388
0.0493069
0.0499286
0.0504351
0.0508956
0.0514594
0.0518268
0.0522404
0.0525992
0.0528648
0.0531035
0.0532885
0.0533923
0.0534724
0.0535221
0.0534755
0.0535061
-0.0210355
-0.00598951
0.00646305
0.0201255
0.0260962
0.0333691
0.038577
0.0417964
0.0441006
0.0456693
0.046681
0.0473523
0.0479184
0.0484025
0.0488881
0.0494129
0.049828
0.0503364
0.0508227
0.0512159
0.0516545
0.0520208
0.0523304
0.0526026
0.0528219
0.05296
0.0530696
0.0531399
0.0531195
0.0531559
-0.0084081
0.00412613
0.0145415
0.0261053
0.029815
0.0368488
0.0406604
0.0433051
0.0451843
0.0463195
0.046924
0.0473336
0.0476799
0.0479903
0.0483274
0.0487129
0.0491119
0.0496147
0.0500725
0.050528
0.050984
0.0513871
0.0517468
0.0520573
0.0523178
0.0524971
0.0526431
0.0527397
0.0527492
0.0527932
0.00358149
0.016138
0.024318
0.0340245
0.0372188
0.0429715
0.0446316
0.0461294
0.0471478
0.0474692
0.047517
0.0474936
0.0475548
0.0476468
0.0478764
0.0481785
0.0485728
0.0490193
0.0494763
0.0499607
0.0504333
0.0508681
0.0512607
0.0515952
0.0518727
0.0520728
0.0522349
0.052346
0.052372
0.0524199
0.0120399
0.0238675
0.031076
0.0388744
0.0424154
0.047327
0.0481808
0.0493094
0.0494537
0.0491451
0.0486966
0.0483384
0.0480314
0.0478493
0.0478677
0.0480468
0.048349
0.0487368
0.0491759
0.0496431
0.0500927
0.0505216
0.0509066
0.0512404
0.0515073
0.0517038
0.0518575
0.0519669
0.051992
0.0520383
0.019917
0.0312498
0.0397873
0.0442523
0.0484106
0.0510806
0.0512924
0.0515377
0.0508681
0.0500305
0.0492434
0.048587
0.0480885
0.0478058
0.0477795
0.0478937
0.048128
0.0484611
0.048876
0.0493118
0.0497546
0.0501778
0.0505593
0.0508864
0.0511439
0.0513355
0.051476
0.0515813
0.0516012
0.0516452
0.0298387
0.0391819
0.0481572
0.0488658
0.0534678
0.0539552
0.0533561
0.0526175
0.0514708
0.0503627
0.0492655
0.0483286
0.0476319
0.0472549
0.0471535
0.0472529
0.0475042
0.0478826
0.0483137
0.0487557
0.049214
0.0496551
0.0500587
0.0504019
0.0506884
0.0508972
0.0510478
0.0511642
0.051191
0.0512376
0.0347387
0.0436031
0.0536973
0.0543636
0.0579393
0.0559854
0.0541066
0.0519784
0.0502064
0.0488916
0.0477661
0.0469881
0.0464646
0.046198
0.0461461
0.0462832
0.0465743
0.0469863
0.047456
0.0479607
0.0484872
0.0489804
0.0494277
0.0498109
0.0501449
0.0503867
0.0505693
0.0507107
0.0507584
0.0508124
0.0269894
0.0341837
0.0424439
0.0456086
0.0494682
0.0505479
0.0508953
0.0500273
0.0487182
0.0472747
0.0460796
0.0453323
0.0449632
0.0447999
0.0448943
0.0451729
0.0455824
0.0460865
0.0466267
0.0472027
0.0477749
0.0483118
0.0488003
0.0492308
0.049601
0.0498701
0.0500832
0.0502459
0.050313
0.0503732
0.0147068
0.0238138
0.0312121
0.0355029
0.0390711
0.0411191
0.0425737
0.0436857
0.0441707
0.0446118
0.0437539
0.0438908
0.0438663
0.043907
0.0441269
0.0444536
0.0449046
0.0454514
0.04606
0.0466836
0.0472872
0.0478416
0.0483409
0.0487806
0.0491436
0.0494115
0.0496288
0.0497922
0.0498631
0.0499226
0.00297133
0.00897532
0.0127432
0.0182207
0.0261683
0.0323894
0.035919
0.038049
0.0393955
0.0403574
0.0409605
0.0416435
0.0420983
0.0426099
0.0431057
0.0436623
0.0443066
0.0449713
0.0456327
0.0462805
0.0468984
0.0474654
0.0479747
0.048403
0.0487525
0.0490018
0.0492007
0.0493493
0.0494096
0.0494628
0.00645551
0.00878081
0.00738737
0.0103888
0.0180027
0.0246399
0.0294126
0.0330524
0.0355784
0.0374049
0.0387699
0.0397281
0.0406117
0.0414143
0.0420506
0.0428111
0.0435849
0.0443644
0.0451225
0.0458415
0.0464919
0.0470719
0.0475747
0.0479879
0.0483306
0.0485665
0.0487522
0.0488897
0.0489419
0.0489904
0.00148386
0.00646001
-0.00643792
0.0043981
0.0150512
0.0260735
0.0344002
0.0372472
0.0405919
0.0472176
0.0513158
0.0519413
-0.00360664
0.00495382
0.0159515
0.0273618
0.0333577
0.0341986
0.0399084
0.047487
0.0493906
0.0501591
0.0538677
0.0557416
0.0561548
0.0574973
0.0584104
0.0587404
0.0591676
0.0593871
0.0594093
0.0593489
0.0592737
0.0589796
0.058771
0.0585856
0.0582316
0.0579409
0.0576639
0.0573479
0.0570827
0.0569815
-0.0024806
0.00469128
0.0154532
0.0268226
0.0301449
0.032048
0.0408697
0.0467227
0.0464664
0.0494666
0.053471
0.0541082
0.0550635
0.0567678
0.0573902
0.0578342
0.0583884
0.0586165
0.0587121
0.0587508
0.0587044
0.0584333
0.0583449
0.0581537
0.0578359
0.0576107
0.0573606
0.0570821
0.0568403
0.0567557
0.00382916
0.00805052
0.0180433
0.0254996
0.0257939
0.0320879
0.041102
0.0430652
0.0442761
0.0495451
0.0518681
0.0522654
0.0542949
0.0558081
0.0562709
0.0569804
0.0575602
0.0578153
0.0580049
0.0581523
0.0580994
0.0579286
0.057933
0.0577126
0.0574624
0.0572836
0.0570547
0.0568175
0.0565931
0.056529
-0.00345568
0.00243322
0.0141995
0.0188973
0.0226725
0.0320919
0.0372131
0.0384454
0.043363
0.0482397
0.048887
0.0507419
0.053248
0.054368
0.0551164
0.0560706
0.0566181
0.0569934
0.057298
0.0575325
0.0574875
0.057492
0.0575265
0.0573014
0.0571394
0.056979
0.0567712
0.056569
0.0563477
0.0563023
)
;

boundaryField
{
    outlet
    {
        type            fixedValue;
        value           nonuniform 0();
    }
    upperWall
    {
        type            symmetryPlane;
    }
    lowerWall
    {
        type            symmetryPlane;
    }
    inlet
    {
        type            zeroGradient;
    }
    cylinder
    {
        type            zeroGradient;
    }
    frontAndBack
    {
        type            empty;
    }
    procBoundary2to1
    {
        type            processor;
        value           nonuniform List<scalar> 
63
(
-0.29381
-0.29381
-0.229305
-0.15875
-0.15875
-0.131376
-0.0981973
-0.0981973
-0.0862001
-0.0650027
-0.0491016
-0.0491016
-0.0397085
-0.0272743
-0.0168618
-0.0168618
-1.19325
-1.17936
-1.17936
-1.10623
-1.0059
-0.880004
-0.766254
-0.766254
-0.641227
-0.641227
-0.521383
-0.521383
-0.418834
-0.418834
-0.345687
-0.345687
-0.00657128
0.00458934
0.0156504
0.0261624
0.0347147
0.0393769
0.0422109
0.0470912
0.0518459
0.0536774
0.0542606
0.0542606
0.0567305
0.0574436
0.0582689
0.059221
0.0595907
0.0598486
0.0600179
0.0599933
0.0598619
0.0597401
0.0594731
0.0591712
0.058956
0.0585927
0.058241
0.0579357
0.0575972
0.0573144
0.0572059
)
;
    }
    procBoundary2to3
    {
        type            processor;
        value           nonuniform List<scalar> 
43
(
-0.324973
-0.320573
-0.300121
-0.256718
-0.197814
-0.136936
-0.136936
-0.161391
-0.0967754
-0.049686
-0.0191076
-0.0191076
0.00838397
0.0112485
0.0167072
0.0213127
0.0253601
0.0280996
0.0309479
0.0333243
0.0354943
0.0370821
0.038527
0.0396192
0.0405369
0.041587
0.0425724
0.0435045
0.0443643
0.0451523
0.0458644
0.0464943
0.0470289
0.0474639
0.047824
0.0480697
0.0482584
0.0483975
0.0484536
0.0485017
-0.0277438
0.00838397
-0.00578509
)
;
    }
    procBoundary2to6
    {
        type            processor;
        value           nonuniform List<scalar> 
37
(
-1.21858
-1.25815
-1.29881
-1.32509
-1.32777
-1.31278
-1.27356
-1.19553
-1.08288
-0.963964
-0.860017
-0.781872
-0.728378
-0.700448
-0.696213
-0.720576
-0.765471
-0.84602
-0.972401
-1.00068
-0.914828
-0.747303
-0.578687
-0.456044
-0.380734
-0.342714
-0.338263
-0.368982
-0.447838
-0.586707
-0.763842
-0.917116
-0.950966
-0.823573
-0.640364
-0.467991
-0.362103
)
;
    }
}


// ************************************************************************* //
