/*--------------------------------*- C++ -*----------------------------------*\
| =========                 |                                                 |
| \\      /  F ield         | OpenFOAM: The Open Source CFD Toolbox           |
|  \\    /   O peration     | Version:                                        |
|   \\  /    A nd           | Website:  www.openfoam.com                      |
|    \\/     M anipulation  |                                                 |
\*---------------------------------------------------------------------------*/
FoamFile
{
    version     2.0;
    format      ascii;
    class       surfaceScalarField;
    location    "123";
    object      phi;
}
// * * * * * * * * * * * * * * * * * * * * * * * * * * * * * * * * * * * * * //

dimensions      [0 3 -1 0 0 0 0];
oriented        oriented;


internalField   nonuniform List<scalar> 
2194
(
0.0236019
0.013907
0.0303902
0.0164466
-0.0242766
0.0362458
0.018421
0.0350841
-0.0248372
0.0408362
0.0202467
0.0361963
-0.0250661
0.0443776
0.0215247
-0.0263146
0.0374447
0.0361261
-0.0253048
0.046043
0.0236394
-0.0274906
0.0396306
0.0385302
-0.0257083
0.0472709
0.0244804
-0.0290529
0.0429752
0.0400089
-0.0274323
0.0485391
0.0261641
-0.0304065
0.0459494
-0.0314861
0.0410884
0.0362424
-0.0290069
0.0512733
0.0262726
-0.0314033
0.0483458
-0.0326375
0.0423226
0.0378512
-0.0317757
0.0291609
0.0538881
-0.0328396
0.0494097
-0.0341995
0.0436826
0.0392975
0.00291413
-0.0111403
0.00337724
-0.0113681
0.000600403
-0.0111878
-0.00240435
-0.0104392
-0.00560739
-0.00924417
-0.0061321
0.00417955
-0.00670897
0.00117728
-0.0070205
-0.00209282
-0.00706301
-0.00556488
-0.00621458
-0.0100926
-0.0135256
-0.000450664
0.0052962
-0.00152707
0.00225369
-0.00247006
-0.00114984
-0.00324336
-0.00479158
-0.00345299
-0.00988297
-0.00250422
-0.0144744
-0.0174432
0.00459773
0.00671347
0.00331702
0.00353439
0.00200484
0.000162335
0.000721876
-0.00350861
-5.03552e-05
-0.00911073
-5.18213e-05
-0.0144729
0.000423816
-0.0179188
-0.0166025
0.00935429
0.00865208
0.00773441
0.00515428
0.00622541
0.00167133
0.00454488
-0.00182808
0.00299317
-0.00755902
0.00226396
-0.0137437
0.0018155
-0.0174703
0.000877215
-0.0156642
-0.0128617
0.0152424
0.0115394
0.0129209
0.00747574
0.0108118
0.00378047
0.00859715
0.000386543
0.00641675
-0.00537862
0.00475562
-0.0120826
0.0029531
-0.0156678
0.000619619
-0.0133307
-0.00356509
-0.00867694
0.00186047
0.0223445
0.0151421
0.0192349
0.0105853
0.0162198
0.00679565
0.0130693
0.00353702
0.0101055
-0.00241484
0.00725511
-0.00923218
0.00362414
-0.0120368
-0.000315045
-0.00939154
-0.00599798
-0.00299401
0.00976951
0.0290273
0.0186395
0.0254219
0.0141906
0.0215704
0.0106472
0.0175257
0.00758165
0.0134375
0.00167341
0.0097776
-0.0055723
0.00541969
-0.00767891
-0.000326783
-0.00364507
-0.00799422
0.00467343
0.0182219
0.034238
0.02118
0.0308819
0.0175467
0.0264746
0.0150546
0.0221519
0.0119043
0.0167997
0.00702558
0.00990127
0.00132618
0.00363759
-0.00141522
-0.00196259
0.00195511
-0.00967437
0.0123852
0.0269685
0.0368577
0.0226353
0.0338317
0.0205727
0.0291067
0.0197795
0.0244466
0.0165644
0.0200543
0.0114179
0.0150358
0.00634466
0.00769478
0.00592582
-0.00179659
0.0114465
-0.0118756
0.0224643
0.0353396
0.0382734
0.0235749
0.035441
0.0234051
0.0316851
0.0235354
0.0271117
0.0211379
0.0210942
0.0174354
0.0137257
0.0137131
0.005283
0.0143685
-0.00376419
0.0204937
-0.0134712
0.0321712
0.0433931
0.0386024
0.024353
0.0364001
0.0256074
0.0335478
0.0263877
0.029335
0.0253506
0.0242248
0.0225457
0.0171437
0.0207942
0.00686088
0.0246514
-0.00515661
0.0325112
-0.0163769
0.0433915
0.0506556
0.0372173
0.0257493
0.0353523
0.0274723
0.0338077
0.0279323
0.0312697
0.0278886
0.0256842
0.0281312
0.0150248
0.0314535
0.002116
0.0375602
-0.00948232
0.0441095
-0.0192275
0.0531367
0.0559085
0.0391293
0.0262176
0.0373328
0.0292688
0.0348659
0.0303992
0.0300389
0.0327156
0.0211865
0.0369836
0.0097425
0.0428976
-0.00133198
0.0486347
-0.0130085
0.055786
-0.0232703
0.0633985
0.0588024
0.0403054
0.0262826
0.0379311
0.0316431
0.0334362
0.0348941
0.0263192
0.0398326
0.0163979
0.0469049
0.00495435
0.0543411
-0.00769138
0.0612804
-0.0201903
0.0682849
-0.0266656
0.0698737
0.0584094
0.0402094
0.0285525
0.0344097
0.0374429
0.0258301
0.0434736
0.0160567
0.049606
0.00558699
0.0573746
-0.00562602
0.0655542
-0.0167059
0.0723603
-0.0252194
0.0767984
-0.0276672
0.0723215
0.0599031
0.0479205
0.032364
0.0416245
0.0437389
0.0331584
0.0519396
0.0249268
0.0578376
0.0177257
0.0645757
0.0113291
0.0719508
0.00585387
0.0778355
0.00301701
0.0796353
0.00311641
0.0722221
0.0605225
0.002497
0.0252231
0.0359824
0.0209015
0.0480605
0.0155592
0.0572819
0.00956611
0.0638307
0.00377378
0.0703681
-0.000734228
0.0764588
-0.00300018
0.0801015
-0.00194518
0.0785803
0.000490827
0.0697861
0.0601672
0.000846162
-0.00507884
0.0401642
-0.00763078
0.0506124
-0.00981849
0.0594696
-0.0123385
0.0663507
-0.0141582
0.0721877
-0.0140634
0.076364
-0.0115392
0.0775772
-0.00683275
0.0738739
-0.00319301
0.0661464
0.0588662
-0.00189204
-0.0335001
0.0432601
-0.0343386
0.0514509
-0.0337942
0.0589252
-0.032371
0.0649276
-0.0293944
0.0692111
-0.024483
0.0714526
-0.0179479
0.0710421
-0.0112769
0.0672029
-0.00696541
0.0618349
0.0565438
-0.00464297
-0.0522528
0.045528
-0.0520147
0.0512129
-0.0492675
0.0561779
-0.0446162
0.0602763
-0.0385582
0.063153
-0.0312595
0.064154
-0.0236507
0.0634333
-0.0168817
0.0604339
-0.0119088
0.0568619
0.05293
-0.00829506
-0.0602757
0.0466619
-0.0591963
0.0501335
-0.0555802
0.0525618
-0.0500209
0.054717
-0.0430628
0.056195
-0.035182
0.0562732
-0.027804
0.0560552
-0.0214357
0.0540656
-0.0163999
0.0518261
0.0487446
-0.0122144
-0.0621384
0.0469053
-0.0601142
0.0481094
-0.056035
0.0484826
-0.050702
0.0493839
-0.0445542
0.0500472
-0.0379372
0.0496562
-0.0314423
0.0495603
-0.0254449
0.0480683
-0.0202651
0.0466462
0.0444095
-0.01593
-0.0626015
0.0465878
-0.0597872
0.0452951
-0.0553587
0.0440541
-0.0500417
0.044067
-0.0446787
0.0446842
-0.0392271
0.0442046
-0.0336263
0.0439595
-0.0288584
0.0433004
-0.0240658
0.0418537
0.0402474
-0.0199037
-0.0601187
0.0458587
-0.0576245
0.0428009
-0.0545203
0.04095
-0.0500019
0.0395485
-0.0454348
0.0401171
-0.0406324
0.0394022
-0.0354371
0.0387642
-0.0311781
0.0390414
-0.0269494
0.037625
0.0361506
-0.0228527
-0.0622701
0.0436066
-0.0583034
0.0388343
-0.0541523
0.0367988
-0.0493254
0.0347217
-0.0452638
0.0360555
-0.0414887
0.0356272
-0.0373564
0.0346319
-0.0328933
0.0345782
-0.0288991
0.0336309
0.0328977
-0.0256462
-0.0666722
0.0399935
-0.0616238
0.0337859
-0.056095
0.03127
-0.0503445
0.0289711
-0.0448613
0.0305723
-0.0405745
0.0313403
-0.0375385
0.0315959
-0.0342705
0.0313102
-0.0303797
0.0297401
0.0292389
-0.0267209
-0.0697717
0.035745
-0.0645104
0.0285245
-0.0583913
0.0251509
-0.0521921
0.022772
-0.0456373
0.0240175
-0.0400174
0.0257205
-0.0358804
0.0274588
-0.0332359
0.0286658
-0.0313361
0.0278403
0.0268918
-0.0289891
-0.0680476
0.0305846
-0.0622769
0.0227538
-0.056153
0.019027
-0.0509816
0.0176006
-0.0456151
0.018651
-0.0402014
0.0203068
-0.0352821
0.0225395
-0.0312665
0.0246502
-0.0291101
0.0256839
0.0253832
-0.0276015
-0.0527248
0.02515
-0.0478172
0.0178463
-0.0432626
0.0144723
-0.0400119
0.0143499
-0.0375275
0.0161666
-0.0353733
0.0181526
-0.0330994
0.0202656
-0.0302379
0.0217886
-0.0277418
0.0231879
0.023729
-0.0260876
-0.0284731
0.0225152
-0.0275522
0.0169253
-0.0271697
0.0140899
-0.0270821
0.0142623
-0.0266766
0.0157611
-0.0268757
0.0183517
-0.0271405
0.0205304
-0.0268843
0.0215324
-0.0260815
0.0223852
0.0226519
-0.0250045
0.0102323
0.0221747
0.00881123
0.0183464
0.00548562
0.0174155
0.00037849
0.0193694
-0.00470939
0.020849
-0.0090543
0.0226966
-0.0123481
0.0238243
-0.0151405
0.0243247
-0.0180411
0.0252858
0.0247181
-0.0201073
0.0411964
0.0261751
0.0349427
0.0246001
0.0278388
0.0245194
0.0214784
0.0257299
0.0150216
0.0273058
0.00858744
0.0291307
0.00299288
0.0294188
-0.00152416
0.0288417
-0.00522018
0.0289818
0.027831
-0.00833309
0.0668093
0.0307999
0.0594131
0.0319963
0.049954
0.0339785
0.0403384
0.0353454
0.0314069
0.0362373
0.0246488
0.0358888
0.018159
0.0359086
0.0120952
0.0349055
0.00719547
0.0338816
0.031567
0.0034595
0.076291
0.0356506
0.0707462
0.0375411
0.0644476
0.0402771
0.0565202
0.0432728
0.0469113
0.0458462
0.0375665
0.0452336
0.0296157
0.0438594
0.0240136
0.0405076
0.0196862
0.0382089
0.0355743
0.0156789
0.080664
0.0751912
0.0683741
0.0613161
0.0538896
0.04461
0.035112
0.0533574
0.0265662
0.0490534
0.0209956
0.0437795
0.0380512
0.0185186
0.047889
0.0350989
0.0234164
0.0159392
0.00144717
0.06319
-0.0621402
0.000923295
0.0661428
-0.065619
0.000484033
0.0686466
-0.0682074
0.000125456
0.0716015
-0.0712429
-5.67491e-06
0.0753197
-0.0751886
2.65446e-05
0.079201
-0.0792332
-1.45651e-05
0.0831906
-0.0831495
-9.44606e-05
0.087646
-0.0875661
-3.58657e-05
0.0923618
-0.0924204
2.32364e-05
0.097263
-0.0973221
0.000106541
0.102607
-0.10269
0.000216142
0.108454
-0.108564
0.000296207
0.114727
-0.114807
0.000324196
0.121534
-0.121562
0.000340415
0.128917
-0.128933
0.000343351
0.136912
-0.136915
0.000335819
0.145645
-0.145638
0.000327308
0.155122
-0.155114
0.000319119
0.165339
-0.165331
0.000310716
0.176256
-0.176248
0.000288985
0.188007
-0.187985
0.000279442
0.200578
-0.200569
0.000257243
0.214038
-0.214015
0.000227004
0.228496
-0.228465
0.000197914
0.243977
-0.243948
0.000161411
0.260578
-0.260542
0.00012242
0.27837
-0.278331
8.0869e-05
0.297437
-0.297395
4.20637e-05
0.317922
-0.317883
0.339857
-0.339815
0.000306204
0.06373
0.00017431
0.0662747
-7.69817e-05
0.0688979
-0.000455115
0.0719796
-0.000682914
0.0755475
-0.000759135
0.0792772
-0.000874443
0.0833059
-0.000872582
0.0876442
-0.000666049
0.0921552
-0.000413934
0.0970109
-0.000160648
0.102354
0.000110029
0.108183
0.000318797
0.114518
0.000432402
0.12142
0.000475437
0.128874
0.000465056
0.136923
0.00042673
0.145683
0.000387041
0.155162
0.000362122
0.165364
0.000335934
0.176282
0.000310757
0.188032
0.000296999
0.200592
0.000266517
0.214068
0.000235983
0.228526
0.00020388
0.24401
0.000165182
0.260617
0.000125833
0.27841
8.34078e-05
0.297479
4.31399e-05
0.317962
0.3399
-0.00225554
0.0640935
-0.00237388
0.0663931
-0.00236809
0.0688921
-0.00223072
0.0718423
-0.00194238
0.0752592
-0.00164849
0.0789833
-0.00142146
0.0830789
-0.00118087
0.0874036
-0.000932616
0.091907
-0.000714808
0.0967931
-0.000482526
0.102122
-0.000266209
0.107967
-0.000100552
0.114352
1.21623e-05
0.121307
9.5121e-05
0.128791
0.000147837
0.13687
0.000187797
0.145644
0.000215691
0.155134
0.000241227
0.165338
0.000247805
0.176276
0.000256111
0.188024
0.000257849
0.20059
0.00024251
0.214083
0.000224687
0.228544
0.00019763
0.244037
0.000162835
0.260652
0.000125568
0.278447
8.40811e-05
0.297521
4.34774e-05
0.318003
0.339943
-0.00443926
0.0638898
-0.00417076
0.0661246
-0.00389915
0.0686205
-0.00374701
0.0716901
-0.00352566
0.0750378
-0.00329024
0.0787479
-0.00297957
0.0827682
-0.00253469
0.0869587
-0.00203983
0.0914121
-0.00152202
0.0962753
-0.00102129
0.101621
-0.000574047
0.10752
-0.000221235
0.114
2.67738e-05
0.121059
0.000165769
0.128652
0.000226692
0.136809
0.000247652
0.145623
0.000259237
0.155122
0.000267554
0.16533
0.000266755
0.176277
0.000273784
0.188017
0.000266572
0.200598
0.000249354
0.214101
0.000228892
0.228565
0.000199467
0.244066
0.000164532
0.260687
0.00012708
0.278485
8.5596e-05
0.297562
4.42188e-05
0.318044
0.339987
-0.00775308
0.0633478
-0.00697082
0.0653423
-0.00619626
0.0678459
-0.00544909
0.070943
-0.00453971
0.0741285
-0.00373539
0.0779436
-0.00305977
0.0820926
-0.00246119
0.0863601
-0.00197327
0.0909242
-0.00156073
0.0958627
-0.00118759
0.101248
-0.000867031
0.107199
-0.000599836
0.113732
-0.000383945
0.120843
-0.000216041
0.128484
-9.9947e-05
0.136693
1.74819e-07
0.145522
7.67458e-05
0.155046
0.000134498
0.165272
0.000175595
0.176236
0.000208524
0.187984
0.000220164
0.200586
0.000222397
0.214098
0.000212341
0.228575
0.000189593
0.244089
0.000160066
0.260716
0.000124803
0.27852
8.48098e-05
0.297602
4.40692e-05
0.318085
0.340031
-0.0109366
0.0620699
-0.00969684
0.0641026
-0.0088695
0.0670186
-0.0079165
0.0699899
-0.00711441
0.0733264
-0.00636282
0.077192
-0.0054669
0.0811967
-0.00453192
0.0854251
-0.00364157
0.0900339
-0.00279924
0.0950204
-0.00205814
0.100507
-0.00140744
0.106548
-0.000892818
0.113218
-0.000495526
0.120446
-0.000251487
0.12824
-9.73165e-05
0.136539
-7.64133e-07
0.145426
7.74547e-05
0.154968
0.000128973
0.165221
0.000179019
0.176186
0.000207182
0.187956
0.000219461
0.200574
0.000219793
0.214098
0.000207099
0.228587
0.000185379
0.24411
0.000157363
0.260744
0.000122885
0.278554
8.41216e-05
0.297641
4.38648e-05
0.318125
0.340075
-0.0141318
0.0602717
-0.0121433
0.0621141
-0.0105146
0.0653899
-0.00880177
0.0682771
-0.00728444
0.0718091
-0.00594859
0.0758561
-0.00476827
0.0800164
-0.00383621
0.0844931
-0.00305922
0.0892569
-0.00243361
0.0943948
-0.00190924
0.0999823
-0.00147854
0.106118
-0.00111349
0.112853
-0.000806712
0.120139
-0.000557846
0.127991
-0.000361041
0.136342
-0.00019677
0.145262
-7.80315e-05
0.154849
1.81292e-05
0.165125
9.26936e-05
0.176111
0.000143799
0.187905
0.000176651
0.200541
0.000191071
0.214084
0.000188416
0.22859
0.00017384
0.244125
0.000150393
0.260768
0.000118494
0.278586
8.18174e-05
0.297678
4.29074e-05
0.318164
0.340118
-0.0179682
0.0583362
-0.0156579
0.0598038
-0.0139602
0.0636922
-0.0123245
0.0666414
-0.010892
0.0703765
-0.0094314
0.0743956
-0.00795408
0.078539
-0.0065098
0.0830488
-0.00520401
0.0879511
-0.0040668
0.0932576
-0.00309084
0.0990063
-0.00227776
0.105305
-0.0016104
0.112185
-0.00110065
0.11963
-0.000740847
0.127631
-0.000480229
0.136082
-0.00028875
0.14507
-0.000147269
0.154707
-2.64784e-05
0.165004
6.47832e-05
0.17602
0.000123027
0.187847
0.000160496
0.200503
0.000175385
0.214069
0.000174638
0.228591
0.000163657
0.244136
0.00014287
0.260788
0.000113573
0.278615
7.9268e-05
0.297712
4.17061e-05
0.318202
0.34016
-0.0199683
0.0554518
-0.0168617
0.0566972
-0.014501
0.0613315
-0.0119443
0.0640848
-0.00994221
0.0683744
-0.00801537
0.0724687
-0.00643162
0.0769553
-0.00514134
0.0817585
-0.00411433
0.0869241
-0.00326092
0.0924042
-0.00258382
0.0983292
-0.00203586
0.104757
-0.00157494
0.111724
-0.00118409
0.119239
-0.00085073
0.127298
-0.00058238
0.135813
-0.000374011
0.144862
-0.000217455
0.154551
-8.19352e-05
0.164868
1.22349e-05
0.175926
8.32866e-05
0.187776
0.00013014
0.200457
0.000154027
0.214045
0.000161016
0.228584
0.000153929
0.244143
0.000136003
0.260806
0.00010913
0.278642
7.65602e-05
0.297744
4.04361e-05
0.318238
0.3402
-0.0232428
0.0530485
-0.0205453
0.0539997
-0.0186665
0.0594526
-0.0162961
0.0617144
-0.0141659
0.0662443
-0.0120289
0.0703317
-0.00996084
0.0748872
-0.00810263
0.0799003
-0.00645457
0.085276
-0.00509109
0.0910407
-0.00396336
0.0972015
-0.00304629
0.10384
-0.00229305
0.110971
-0.00170501
0.118651
-0.00124515
0.126838
-0.000882967
0.135451
-0.000610313
0.144589
-0.00037654
0.154317
-0.000191497
0.164683
-6.09571e-05
0.175795
3.30043e-05
0.187682
9.08405e-05
0.200399
0.000123292
0.214012
0.000137016
0.22857
0.000136873
0.244143
0.000124275
0.260819
0.000101796
0.278665
7.23872e-05
0.297774
3.85339e-05
0.318272
0.340239
-0.0233019
0.0496295
-0.0199043
0.0506021
-0.0171104
0.0566587
-0.0142042
0.0588082
-0.0119294
0.0639694
-0.00979672
0.068199
-0.00801625
0.0731068
-0.00649107
0.0783751
-0.00518194
0.0839669
-0.00407607
0.0899348
-0.00319573
0.0963212
-0.00248298
0.103127
-0.00191073
0.110399
-0.00142654
0.118167
-0.00102875
0.12644
-0.000720264
0.135143
-0.000488452
0.144357
-0.000300389
0.154129
-0.000160015
0.164543
-5.15235e-05
0.175687
3.01186e-05
0.1876
8.40218e-05
0.200345
0.000116061
0.21398
0.000130175
0.228556
0.000129793
0.244144
0.000117942
0.260831
9.72688e-05
0.278686
6.91077e-05
0.297802
3.70001e-05
0.318304
0.340276
-0.0260263
0.0466668
-0.0232863
0.0478621
-0.0211697
0.0545421
-0.0179432
0.0555818
-0.0157537
0.06178
-0.0130767
0.065522
-0.0107747
0.0708047
-0.00871293
0.0763134
-0.00698757
0.0822415
-0.00560405
0.0885513
-0.00447806
0.0951952
-0.00357818
0.102227
-0.00283024
0.109651
-0.00222532
0.117562
-0.00170088
0.125916
-0.00127135
0.134713
-0.000903003
0.143989
-0.000595305
0.153821
-0.000359903
0.164307
-0.000185211
0.175512
-6.49279e-05
0.18748
1.24921e-05
0.200267
6.32558e-05
0.21393
9.13839e-05
0.228528
0.00010277
0.244132
0.000100121
0.260833
8.58345e-05
0.2787
6.23616e-05
0.297825
3.39501e-05
0.318332
0.34031
-0.0237697
0.0428349
-0.0203177
0.0444101
-0.0182
0.0524244
-0.0150759
0.0524576
-0.0128231
0.0595272
-0.0108564
0.0635552
-0.00918023
0.0691286
-0.00754641
0.0746796
-0.00602518
0.0807203
-0.00468562
0.0872117
-0.00359082
0.0941004
-0.0027013
0.101337
-0.00201231
0.108962
-0.00145374
0.117003
-0.0010351
0.125497
-0.000726436
0.134404
-0.000502699
0.143765
-0.000333013
0.153652
-0.000201314
0.164176
-9.53225e-05
0.175406
-1.74348e-05
0.187402
3.75087e-05
0.200212
7.24355e-05
0.213895
9.25382e-05
0.228508
9.80993e-05
0.244127
9.37502e-05
0.260838
8.01005e-05
0.278713
5.81452e-05
0.297847
3.17759e-05
0.318358
0.340342
-0.0231611
0.0399084
-0.01996
0.041209
-0.0171711
0.0496355
-0.0154733
0.0507598
-0.0130213
0.0570752
-0.0109616
0.0614956
-0.00903083
0.0671978
-0.00744573
0.0730945
-0.00621065
0.0794852
-0.0051937
0.0861948
-0.00435544
0.0932621
-0.00366171
0.100644
-0.00306099
0.108361
-0.00253249
0.116475
-0.00201047
0.124975
-0.0015415
0.133935
-0.00111678
0.143341
-0.000769329
0.153304
-0.00049635
0.163903
-0.000300316
0.17521
-0.000162603
0.187264
-6.81206e-05
0.200118
-2.16358e-06
0.213829
4.0449e-05
0.228465
6.31857e-05
0.244104
7.14277e-05
0.26083
6.55567e-05
0.278719
4.9729e-05
0.297863
2.78324e-05
0.31838
0.340369
-0.0222738
0.0371777
-0.0197332
0.0386685
-0.015675
0.0455772
-0.0134835
0.0485684
-0.0110771
0.0546688
-0.0097167
0.0601352
-0.00837842
0.0658595
-0.00710588
0.0718219
-0.00575214
0.0781315
-0.00449028
0.0849329
-0.00337376
0.0921456
-0.00244943
0.0997194
-0.00173245
0.107644
-0.00117947
0.115922
-0.00081541
0.124611
-0.000566357
0.133686
-0.000410901
0.143185
-0.000292543
0.153186
-0.000196703
0.163807
-0.000115908
0.175129
-5.2586e-05
0.187201
-4.14908e-06
0.20007
2.99291e-05
0.213795
5.30886e-05
0.228442
6.50074e-05
0.244092
6.79002e-05
0.260827
6.11168e-05
0.278726
4.62898e-05
0.297878
2.58374e-05
0.318401
0.340395
-0.017812
0.0348825
-0.0167976
0.037654
-0.014291
0.0430706
-0.0123744
0.0466518
-0.00934114
0.0516355
-0.00677247
0.0575666
-0.00510776
0.0641948
-0.00421893
0.0709331
-0.00381192
0.0777244
-0.0035521
0.0846731
-0.00333565
0.0919291
-0.00308301
0.0994668
-0.00279609
0.107357
-0.00245359
0.115579
-0.00201705
0.124174
-0.00157801
0.133247
-0.00116114
0.142768
-0.000820482
0.152845
-0.000558358
0.163545
-0.000370964
0.174942
-0.000231856
0.187062
-0.000130982
0.199969
-5.42697e-05
0.213718
-2.53744e-06
0.22839
2.97299e-05
0.24406
4.62723e-05
0.26081
4.7776e-05
0.278725
3.85844e-05
0.297887
2.23093e-05
0.318417
0.340418
-0.00576524
0.0323146
-0.00407343
0.0359622
-0.00314115
0.0421384
-0.00313898
0.0466496
-0.00384034
0.0523368
-0.00437314
0.0580994
-0.00429216
0.0641138
-0.00395281
0.0705938
-0.00341462
0.0771863
-0.00282178
0.0840803
-0.00215129
0.0912587
-0.00155745
0.098873
-0.00103287
0.106833
-0.000643016
0.115189
-0.000425834
0.123957
-0.000299158
0.133121
-0.000247865
0.142717
-0.000202726
0.1528
-0.000162041
0.163504
-0.000115634
0.174895
-7.55494e-05
0.187022
-3.82591e-05
0.199931
-7.83135e-06
0.213688
1.68497e-05
0.228365
3.51684e-05
0.244041
4.42486e-05
0.260801
4.45425e-05
0.278724
3.58299e-05
0.297896
2.07017e-05
0.318432
0.340438
0.00551963
0.0302545
0.00706576
0.0344161
0.00802977
0.0411743
0.00751746
0.0471619
0.0064689
0.0533854
0.0048959
0.0596724
0.00308468
0.065925
0.00158403
0.0720944
0.000402483
0.0783678
-0.000531379
0.0850141
-0.0012581
0.0919854
-0.00166889
0.0992838
-0.00186817
0.107032
-0.00183582
0.115157
-0.00159554
0.123717
-0.00128903
0.132814
-0.000968429
0.142396
-0.000714605
0.152546
-0.000519482
0.163309
-0.000375448
0.174751
-0.000257548
0.186904
-0.000162848
0.199837
-8.69035e-05
0.213612
-3.12707e-05
0.22831
5.18495e-06
0.244005
2.69548e-05
0.260779
3.4264e-05
0.278717
2.97449e-05
0.297901
1.80361e-05
0.318444
0.340456
0.0146553
0.0312781
0.0138576
0.0352137
0.0122771
0.0427549
0.00884138
0.0505977
0.00571123
0.0565156
0.00355044
0.0618332
0.00202247
0.067453
0.00114812
0.0729688
0.000390204
0.0791257
-3.10204e-05
0.0854353
-0.000211759
0.0921661
-0.000255989
0.099328
-0.000156256
0.106932
-6.74418e-05
0.115068
-6.03003e-05
0.12371
-7.57346e-05
0.13283
-0.000117425
0.142438
-0.000137845
0.152567
-0.000142799
0.163314
-0.000125776
0.174734
-0.000103246
0.186881
-7.41587e-05
0.199808
-4.48825e-05
0.213582
-1.62475e-05
0.228281
8.05137e-06
0.243981
2.38791e-05
0.260763
3.06216e-05
0.27871
2.71732e-05
0.297904
1.65864e-05
0.318455
0.340473
0.0171165
0.0326802
0.0163533
0.0359769
0.0161915
0.0429167
0.0144149
0.0523743
0.0108651
0.0600653
0.00753299
0.0651653
0.00558975
0.0693962
0.00427605
0.0742825
0.0033514
0.0800504
0.00235678
0.08643
0.00131331
0.0932096
0.000458263
0.100183
-0.000235421
0.107626
-0.000591374
0.115424
-0.000682631
0.123801
-0.000624305
0.132771
-0.00051253
0.142326
-0.000429269
0.152483
-0.000357801
0.163242
-0.00029217
0.174669
-0.000217994
0.186807
-0.000145874
0.199735
-8.13909e-05
0.213518
-3.1973e-05
0.228232
9.07729e-07
0.243948
2.1787e-05
0.260743
3.01138e-05
0.278702
2.71049e-05
0.297907
1.6685e-05
0.318465
0.34049
0.0097907
0.0388288
0.00497216
0.0407954
0.0040154
0.00498073
0.0053252
0.0048066
0.0039648
0.00288356
0.00218518
0.0014891
0.00105415
0.000610668
0.000402611
0.00020238
4.44065e-05
-6.32061e-05
-0.000139864
-0.000166388
-0.000174813
-0.000160787
-0.000137939
-0.000104719
-6.76175e-05
-3.23714e-05
-1.84229e-06
1.90198e-05
2.86088e-05
2.69457e-05
1.66218e-05
0.0147926
0.0330409
0.0557093
0.0318235
0.0591195
0.0308168
0.0624666
0.0300632
0.0657203
0.0293286
0.069255
0.0282935
0.0738101
0.0272954
0.0784639
0.0264981
0.0828042
0.0255165
0.0877283
0.093144
0.0381157
0.0568911
0.0366576
0.0605776
0.0351769
0.0639473
0.0340065
0.0668906
0.0327608
0.0705007
0.031396
0.0751749
0.0304659
0.079394
0.0297814
0.0834887
0.028822
0.0886876
0.0279389
0.0940272
0.027086
0.0991973
0.0260167
0.104985
0.0249156
0.111226
0.0238513
0.117797
0.0227604
0.125067
0.0216981
0.133016
0.0206479
0.141593
0.0195366
0.150929
0.0183874
0.160964
0.0171927
0.171655
0.0158993
0.183123
0.0145302
0.195445
0.0130959
0.208571
0.0115582
0.22265
0.0099219
0.237772
0.00818575
0.253953
0.00633241
0.271302
0.00435675
0.289903
0.00224928
0.309862
0.331269
0.0425724
0.0580013
0.0414098
0.0617402
0.0403665
0.0649907
0.0394057
0.0678514
0.037894
0.0720124
0.036465
0.0766039
0.0353289
0.0805301
0.0339668
0.0848509
0.0326255
0.0900289
0.0316011
0.0950515
0.0305522
0.100246
0.0293943
0.106143
0.0283111
0.112309
0.027197
0.118911
0.0260198
0.126244
0.0248421
0.134194
0.0236036
0.142832
0.0223108
0.152222
0.0209826
0.162293
0.0195848
0.173053
0.0181056
0.184602
0.0165533
0.196997
0.0149151
0.210209
0.013161
0.224404
0.011301
0.239632
0.00932277
0.255931
0.00721243
0.273412
0.00496407
0.292151
0.00256179
0.312265
0.333831
0.0468357
0.0605752
0.0447918
0.0637841
0.0432827
0.0664998
0.0417605
0.0693735
0.0403297
0.0734432
0.0392404
0.0776932
0.0381947
0.0815758
0.0369999
0.0860457
0.0359339
0.0910948
0.0349172
0.0960683
0.0337212
0.101442
0.0325008
0.107363
0.0312526
0.113557
0.0299334
0.12023
0.0286214
0.127556
0.0273228
0.135492
0.0259964
0.144158
0.0246329
0.153585
0.023199
0.163726
0.0216864
0.174566
0.02008
0.186208
0.0183812
0.198696
0.0165719
0.212018
0.0146355
0.226341
0.0125779
0.24169
0.0103802
0.258129
0.00803376
0.275759
0.00553229
0.294653
0.0028542
0.314943
0.336685
0.0523232
0.0504883
0.0487808
0.0469114
0.045166
0.043626
0.0420523
0.0405319
0.0392063
0.0379525
0.0367042
0.0355038
0.0342542
0.0329224
0.0315458
0.0301226
0.0286432
0.0271146
0.0255103
0.0238281
0.022051
0.0201782
0.0181812
0.0160563
0.013798
0.0113848
0.00881181
0.00606947
0.00312924
)
;

boundaryField
{
    outlet
    {
        type            calculated;
        value           nonuniform 0();
    }
    upperWall
    {
        type            symmetryPlane;
        value           nonuniform 0();
    }
    lowerWall
    {
        type            symmetryPlane;
        value           uniform 0;
    }
    inlet
    {
        type            calculated;
        value           nonuniform 0();
    }
    cylinder
    {
        type            calculated;
        value           nonuniform 0();
    }
    frontAndBack
    {
        type            empty;
        value           nonuniform 0();
    }
    procBoundary2to1
    {
        type            processor;
        value           nonuniform List<scalar> 
63
(
-0.0160567
-0.0105186
-0.0214522
-0.0232349
-0.0332849
-0.0260757
-0.0259494
-0.0334233
-0.0290174
-0.0298948
-0.0305316
-0.0347
-0.0330285
-0.0342462
-0.0356458
-0.0342354
-0.0026444
-0.0147643
-0.000372636
0.00222409
0.00485877
0.00760573
-0.00880079
0.0118167
-0.00450565
0.0158333
-0.000894375
0.0162892
0.000737077
0.0149843
-0.0012454
0.00509301
-0.0545149
-0.057902
-0.0614599
-0.0649666
-0.0685204
-0.072775
-0.0774657
-0.082007
-0.0867466
-0.0920536
0.0244261
-0.0983444
-0.103916
-0.110125
-0.116732
-0.123976
-0.131954
-0.140543
-0.149818
-0.159815
-0.17046
-0.181829
-0.194076
-0.207137
-0.221112
-0.236136
-0.252216
-0.269448
-0.287927
-0.307755
-0.32902
)
;
    }
    procBoundary2to3
    {
        type            processor;
        value           nonuniform List<scalar> 
43
(
0.0396326
0.0430139
0.0470943
0.0503308
0.0532728
0.0545132
-0.0593786
0.064847
0.0618436
0.055462
0.0455285
-0.0242271
0.0438734
0.051409
0.0597209
0.0656839
0.070238
0.0753637
0.0807488
0.087126
0.0936445
0.100627
0.107834
0.115624
0.123959
0.132879
0.142403
0.15251
0.163251
0.174654
0.186784
0.199702
0.213481
0.228197
0.243917
0.260722
0.278692
0.297909
0.318475
0.340506
0.0482633
0.00652422
0.0490638
)
;
    }
    procBoundary2to6
    {
        type            processor;
        value           nonuniform List<scalar> 
37
(
0.0144945
0.0106772
0.00532979
-0.000665986
-0.00601499
-0.0112929
-0.0181297
-0.0259471
-0.0325246
-0.0367786
-0.0383129
-0.039213
-0.0393805
-0.0386135
-0.0395977
-0.0403704
-0.0424793
-0.051732
-0.0288415
0.000897126
0.0304042
0.0499848
0.0591418
0.0618949
0.0629189
0.0608478
0.0645222
0.0702853
0.0740202
0.0732081
0.0581594
0.0311079
-0.00989181
-0.0451967
-0.0714342
-0.0811417
-0.084646
)
;
    }
}


// ************************************************************************* //
