/*--------------------------------*- C++ -*----------------------------------*\
| =========                 |                                                 |
| \\      /  F ield         | OpenFOAM: The Open Source CFD Toolbox           |
|  \\    /   O peration     | Version:                                        |
|   \\  /    A nd           | Website:  www.openfoam.com                      |
|    \\/     M anipulation  |                                                 |
\*---------------------------------------------------------------------------*/
FoamFile
{
    version     2.0;
    format      ascii;
    class       volVectorField;
    location    "157";
    object      U;
}
// * * * * * * * * * * * * * * * * * * * * * * * * * * * * * * * * * * * * * //

dimensions      [0 1 -1 0 0 0 0];


internalField   nonuniform List<vector> 
1150
(
(0.856833 0.00788455 5.14267e-21)
(0.857978 -0.0126766 -1.08623e-20)
(0.861169 -0.0324221 -3.64683e-20)
(0.867055 -0.0527813 -2.35384e-21)
(0.875305 -0.0718869 -7.18792e-21)
(0.88708 -0.091444 3.52313e-20)
(0.844949 0.0091528 -1.20005e-20)
(0.845808 -0.0131853 -3.46119e-21)
(0.849666 -0.0344868 -4.88444e-20)
(0.856873 -0.0563522 -1.4208e-20)
(0.866814 -0.0767283 -1.29667e-19)
(0.83216 0.0105263 6.55074e-21)
(0.833237 -0.0139455 3.42058e-20)
(0.837758 -0.0371941 6.02803e-20)
(0.999581 0.00185762 2.23532e-22)
(0.998963 0.00320155 -9.63351e-22)
(0.998487 0.00462385 1.61119e-21)
(0.998201 0.00596169 -1.07041e-21)
(0.998115 0.00741945 -4.63849e-22)
(0.998275 0.00868437 2.42458e-21)
(0.998807 0.0101491 -1.21762e-21)
(0.999914 0.0112967 -3.63199e-23)
(1.00122 0.0127734 -1.05526e-21)
(1.002 0.0137495 1.11017e-21)
(1.0055 0.00423825 6.54653e-23)
(1.00656 0.00253425 1.54242e-22)
(1.00756 0.000955469 2.96645e-22)
(1.00848 -0.000330982 -7.38202e-22)
(1.00933 -0.00157479 4.50521e-22)
(1.01004 -0.00242687 -9.55594e-22)
(1.01054 -0.00341625 1.26735e-21)
(1.01074 -0.00399782 -1.01557e-21)
(1.01112 -0.00498136 5.11036e-22)
(1.01279 -0.00549026 -3.27367e-22)
(1.00244 -0.000325615 -4.2021e-23)
(1.00356 0.00104186 5.99063e-22)
(1.00453 0.0020577 2.0249e-22)
(1.00532 0.00256295 -3.47356e-22)
(1.00585 0.00266115 -6.77211e-22)
(1.00611 0.0020441 1.64021e-21)
(1.0059 0.00115826 1.99035e-21)
(1.00501 -0.000619641 -1.95605e-21)
(1.00305 -0.00258258 1.07173e-21)
(1.00064 -0.00578785 1.60479e-21)
(1.00129 -0.0069032 -1.33949e-22)
(0.999485 -0.00887361 5.61243e-23)
(0.9974 -0.0109294 -5.50171e-23)
(0.99493 -0.0128325 -1.15895e-21)
(0.992143 -0.0147873 1.13961e-21)
(0.98899 -0.0162109 -1.52238e-21)
(0.985729 -0.0177316 -1.27018e-21)
(0.982165 -0.018156 -1.33165e-21)
(0.978276 -0.0187191 -1.52699e-21)
(0.975311 -0.0172179 -2.82619e-22)
(0.999789 -0.000195065 -4.73752e-23)
(0.999305 0.00133096 4.50194e-22)
(0.998958 0.00305608 4.82715e-22)
(0.998813 0.00462336 -1.77805e-21)
(0.998879 0.00649093 -1.03536e-21)
(0.999271 0.00797998 1.98971e-21)
(0.999997 0.0100115 -8.35149e-22)
(1.00153 0.0113806 5.39995e-23)
(1.00399 0.0134286 -1.60002e-21)
(1.00665 0.0144233 -1.09868e-22)
(1.00016 -0.00376234 1.55207e-22)
(0.999702 -0.0056638 -1.0926e-21)
(0.999076 -0.0077543 1.68732e-21)
(0.998328 -0.00954219 9.26683e-22)
(0.997472 -0.0115891 6.94373e-22)
(0.996702 -0.0128458 -9.4366e-22)
(0.996085 -0.0145303 1.94306e-21)
(0.99531 -0.0147917 2.80033e-21)
(0.993731 -0.0156269 2.85026e-22)
(0.99441 -0.0148759 -1.92562e-22)
(0.998269 -0.00113239 1.85848e-22)
(0.997301 0.000404882 2.88644e-22)
(0.996564 0.00237924 -1.42748e-21)
(0.996095 0.00449212 7.85037e-22)
(0.996051 0.00719608 7.35517e-22)
(0.996341 0.00963624 -6.25336e-22)
(0.997214 0.012888 -1.77927e-21)
(0.99907 0.0150925 -1.84313e-21)
(1.00242 0.0182564 1.87006e-21)
(1.00235 0.0196093 6.22116e-22)
(0.998686 0.00478361 -1.14176e-23)
(0.999451 0.00306738 1.55983e-22)
(1.0003 0.00144359 4.78795e-22)
(1.00135 4.6747e-05 8.82036e-22)
(1.00252 -0.00165511 1.41012e-21)
(1.00404 -0.00288231 -1.13941e-21)
(1.00575 -0.0051281 -1.6306e-21)
(1.00724 -0.00650438 -7.73004e-22)
(1.00703 -0.0092334 -2.55794e-21)
(1.01199 -0.0108995 -8.57939e-22)
(0.996902 0.0017421 1.08841e-22)
(0.99794 0.0025381 -4.78334e-22)
(0.998941 0.00315925 -6.01094e-22)
(0.999909 0.00370463 -1.7125e-21)
(1.00074 0.00433913 -2.55881e-21)
(1.00125 0.00465229 -1.02665e-21)
(1.00161 0.00558835 5.29188e-21)
(1.00202 0.0052844 1.50375e-21)
(1.0028 0.00645922 1.20607e-21)
(0.997698 0.00530442 -3.44416e-21)
(0.995683 0.00050163 -1.71122e-22)
(0.996075 -0.000924341 8.65088e-22)
(0.99645 -0.00195817 1.84367e-21)
(0.996749 -0.00272108 9.94511e-22)
(0.997002 -0.00345581 -2.02554e-21)
(0.997177 -0.00383278 2.99461e-21)
(0.996985 -0.00482037 -1.91253e-21)
(0.996696 -0.00547087 1.94382e-21)
(0.996031 -0.00747278 -2.99861e-22)
(0.999851 -0.00960724 2.0803e-21)
(0.993968 0.00516995 1.15573e-22)
(0.994523 0.00542839 -4.04205e-22)
(0.995125 0.00529217 -1.65441e-21)
(0.995879 0.00484225 1.97888e-21)
(0.996792 0.00385654 3.4815e-21)
(0.997859 0.00230724 -1.09245e-21)
(0.998981 0.000593848 -5.21708e-21)
(0.999467 -0.00218585 7.59333e-22)
(0.999243 -0.0041614 -1.13261e-21)
(0.997507 -0.00904589 -6.21285e-21)
(0.99258 -0.00123862 -4.15545e-23)
(0.993594 -0.00353549 2.86814e-22)
(0.994364 -0.00594852 1.99234e-21)
(0.994615 -0.00858608 -1.27969e-21)
(0.994351 -0.0111651 8.61315e-22)
(0.993029 -0.0136876 -1.28995e-21)
(0.991383 -0.0160721 3.72344e-21)
(0.988637 -0.0180328 -1.13523e-20)
(0.983875 -0.0197903 6.27593e-21)
(0.982429 -0.0212726 6.55468e-21)
(0.989091 -0.000919734 3.97891e-22)
(0.988818 -0.000964102 -4.55764e-22)
(0.988342 -0.000831857 -3.60569e-21)
(0.987726 -0.00095035 -1.57033e-21)
(0.98662 -0.00102478 -4.25405e-21)
(0.985546 -0.00169471 -7.65139e-21)
(0.983853 -0.00202189 -7.12229e-21)
(0.98291 -0.00412047 2.22349e-21)
(0.98265 -0.00465036 -4.01212e-21)
(0.978608 -0.00849776 1.18214e-20)
(0.986265 -0.00147915 -3.23107e-22)
(0.985379 -0.00377439 2.73066e-22)
(0.984356 -0.00662982 6.41762e-22)
(0.983156 -0.00948536 3.60442e-21)
(0.981925 -0.0128671 2.77855e-21)
(0.980378 -0.0158417 7.55169e-21)
(0.97886 -0.019201 1.18163e-20)
(0.976618 -0.0206268 2.42577e-21)
(0.974846 -0.0223402 -1.42172e-21)
(0.976175 -0.0220275 -2.26021e-20)
(0.983744 -0.00168261 2.55726e-22)
(0.983601 -0.00239386 -2.42771e-21)
(0.983368 -0.00278854 1.25513e-21)
(0.98285 -0.00369232 -8.70828e-22)
(0.982308 -0.00365909 -1.028e-21)
(0.981374 -0.00442545 -3.49415e-21)
(0.981134 -0.00302785 -1.42286e-20)
(0.981117 -0.0043344 8.83645e-21)
(0.981251 -0.00096957 1.10098e-20)
(0.98388 -0.00454153 9.62176e-21)
(0.980405 -0.00305437 -5.58329e-22)
(0.979266 -0.0057299 3.74701e-21)
(0.977955 -0.00826069 -2.30476e-21)
(0.976612 -0.0108126 3.18834e-21)
(0.975134 -0.0135937 1.26237e-21)
(0.97391 -0.0161178 -5.1344e-21)
(0.972701 -0.0192933 5.97485e-21)
(0.972256 -0.0218071 7.60358e-21)
(0.971984 -0.0255165 -1.42397e-20)
(0.971502 -0.0275359 -1.02491e-21)
(0.976419 -0.00227878 -3.44119e-23)
(0.97564 -0.00357093 -3.34814e-21)
(0.974927 -0.00459474 8.02067e-21)
(0.974327 -0.00575643 -5.29902e-21)
(0.974147 -0.00627591 -1.07371e-21)
(0.974166 -0.00752493 5.09084e-21)
(0.97457 -0.00635099 1.1862e-20)
(0.974858 -0.00785259 -7.8763e-21)
(0.976685 -0.00356739 1.40054e-20)
(0.977929 -0.00738083 2.64757e-21)
(0.972322 -0.00182698 1.15556e-21)
(0.971005 -0.00521606 -2.63856e-21)
(0.969848 -0.00832936 -1.11418e-20)
(0.968775 -0.0116171 7.19471e-21)
(0.967911 -0.0145078 1.00634e-21)
(0.967529 -0.0175625 1.17764e-20)
(0.967863 -0.020869 7.14473e-21)
(0.968299 -0.023427 -1.1467e-20)
(0.967341 -0.0280079 -2.80046e-20)
(0.971066 -0.0310957 2.12018e-20)
(0.967834 -0.00067914 -1.2247e-21)
(0.967187 -0.00312101 3.33611e-21)
(0.966714 -0.00509874 1.66419e-21)
(0.966569 -0.0072791 -4.04144e-21)
(0.966795 -0.00867918 1.03487e-21)
(0.967184 -0.0109009 5.51265e-21)
(0.968486 -0.0106714 4.89456e-21)
(0.969442 -0.0142601 9.30959e-21)
(0.972927 -0.0092091 4.56099e-20)
(0.969564 -0.0153532 -1.43142e-20)
(0.962583 -0.000399414 3.63124e-22)
(0.961797 -0.00479737 -3.74428e-21)
(0.961155 -0.0086988 3.88078e-22)
(0.960645 -0.0127986 -8.69736e-21)
(0.960514 -0.016227 -1.58238e-20)
(0.960517 -0.0199858 -2.06324e-20)
(0.961422 -0.0231393 2.48114e-21)
(0.963688 -0.0262214 2.82778e-21)
(0.961897 -0.0305315 -4.24019e-20)
(0.970758 -0.0332355 -1.53097e-20)
(0.956564 0.00101565 -8.59861e-22)
(0.956003 -0.00275013 5.39347e-21)
(0.955881 -0.00596318 3.22082e-21)
(0.956177 -0.00939877 1.22547e-20)
(0.957047 -0.011963 1.38263e-20)
(0.9584 -0.0154173 -8.44256e-21)
(0.960186 -0.0162796 -3.66619e-20)
(0.961676 -0.0218973 -2.38764e-20)
(0.96945 -0.0186789 -1.35116e-21)
(0.961579 -0.0293363 -1.51462e-20)
(0.950221 0.00151341 2.16623e-21)
(0.949932 -0.00442483 1.85186e-21)
(0.949904 -0.00981072 -1.8501e-22)
(0.950208 -0.0153458 -1.57227e-20)
(0.951104 -0.0200159 1.40705e-20)
(0.95225 -0.0254187 4.67338e-21)
(0.954404 -0.0293526 3.97118e-20)
(0.957029 -0.0341376 9.42563e-21)
(0.955343 -0.0375044 4.73667e-20)
(0.968854 -0.0427483 3.84734e-20)
(0.943139 0.00305394 -2.88631e-22)
(0.942826 -0.00265743 1.37959e-21)
(0.943187 -0.00766632 6.97048e-21)
(0.944017 -0.0130765 1.7409e-20)
(0.945652 -0.0171946 2.93803e-21)
(0.947764 -0.0225134 -7.36191e-21)
(0.950743 -0.0248908 -4.37503e-22)
(0.953651 -0.0323374 -1.42262e-20)
(0.962384 -0.0310138 -1.36068e-20)
(0.956544 -0.0441784 2.97511e-20)
(0.935463 0.00342883 -1.35022e-21)
(0.93558 -0.00464163 2.32634e-21)
(0.936226 -0.0119705 -1.39886e-20)
(0.937521 -0.0197274 -7.08398e-21)
(0.939417 -0.0262699 -3.92003e-20)
(0.94192 -0.0340581 -6.45657e-21)
(0.945586 -0.0395807 -2.6173e-20)
(0.948797 -0.0478241 -9.67826e-21)
(0.950039 -0.0511315 -6.41634e-21)
(0.963071 -0.0613798 -8.46574e-20)
(0.926578 0.00480049 -3.65832e-22)
(0.926606 -0.00346964 -6.25932e-21)
(0.927433 -0.0108968 -1.69973e-21)
(0.928938 -0.0188364 -9.06646e-21)
(0.931632 -0.0253388 -2.2502e-20)
(0.934452 -0.0332293 2.71187e-20)
(0.938916 -0.0378942 2.32944e-20)
(0.944709 -0.0477625 7.57242e-20)
(0.951705 -0.0484617 -2.62812e-20)
(0.952703 -0.0635856 5.74604e-20)
(0.917423 0.00496884 3.72029e-21)
(0.917892 -0.0059381 -1.21359e-21)
(0.919302 -0.016112 1.03879e-20)
(0.921571 -0.0267367 -1.17083e-20)
(0.92461 -0.0360042 2.21542e-20)
(0.929031 -0.0468382 3.47958e-20)
(0.933549 -0.0543566 -1.44017e-20)
(0.938785 -0.0666206 -1.2987e-20)
(0.944911 -0.0715381 2.90417e-20)
(0.955723 -0.0862734 1.54509e-21)
(0.906901 0.00624231 -3.02057e-21)
(0.907136 -0.00529839 3.3539e-21)
(0.908422 -0.0160021 -4.04878e-21)
(0.910862 -0.0272778 3.97031e-20)
(0.914603 -0.0370631 -1.52249e-20)
(0.919129 -0.0482169 -1.67551e-20)
(0.92573 -0.056654 -5.62348e-20)
(0.933851 -0.0686552 1.16385e-20)
(0.941025 -0.0735518 3.1963e-21)
(0.949542 -0.0900872 2.60649e-20)
(0.896009 0.00621704 1.70276e-22)
(0.896859 -0.00835214 -7.67668e-21)
(0.898936 -0.0222452 4.80229e-22)
(0.902165 -0.0365469 -8.4891e-21)
(0.90677 -0.0495372 2.9688e-20)
(0.912949 -0.0640345 -8.27567e-20)
(0.919396 -0.0753714 2.65481e-20)
(0.928633 -0.0914937 -1.4545e-22)
(0.937436 -0.0996019 -4.00351e-20)
(0.950867 -0.116918 -1.02582e-19)
(0.883335 0.00733639 -6.09098e-22)
(0.883978 -0.00824035 -4.24579e-22)
(0.885935 -0.0231622 8.94931e-21)
(0.889628 -0.0386092 1.40717e-21)
(0.894533 -0.0527865 -1.66173e-20)
(0.902046 -0.0680345 1.18733e-19)
(0.91061 -0.0808539 2.72276e-21)
(0.922145 -0.0956539 -6.44191e-20)
(0.932505 -0.106602 -2.85618e-20)
(0.870239 0.00696793 -3.04476e-21)
(0.871617 -0.0119925 8.88099e-21)
(0.874399 -0.0303938 2.42762e-20)
(0.879188 -0.0493648 6.09337e-21)
(0.886094 -0.0674216 1.15269e-19)
(0.894766 -0.085993 -1.33869e-19)
(0.905495 -0.102835 -2.38149e-20)
(1.00704 0.0154746 0)
(1.01366 0.016215 0)
(1.01598 0.0165258 0)
(1.01306 0.0156577 0)
(1.0099 0.0140253 0)
(1.00913 0.011769 0)
(1.00876 0.0093848 0)
(1.00682 0.00719374 0)
(1.00355 0.00546943 0)
(1.00047 0.00425788 0)
(0.998504 0.00358242 0)
(0.998377 0.00351184 0)
(0.999153 0.00378479 0)
(1.00015 0.0043095 0)
(1.0011 0.00455057 0)
(1.0014 0.00449438 0)
(1.00115 0.0040475 0)
(1.00057 0.00343319 0)
(1.00009 0.0027215 0)
(0.999759 0.00208296 0)
(0.999605 0.00156468 0)
(0.999527 0.00118062 0)
(0.999516 0.00089043 0)
(0.999529 0.000666539 0)
(0.999563 0.000493174 0)
(0.999604 0.000346995 0)
(0.999645 0.000244009 0)
(0.999677 0.000135376 0)
(0.999708 4.81221e-05 0)
(0.999725 1.68219e-05 0)
(1.00831 -0.00634617 0)
(0.996465 -0.00626212 0)
(0.984374 -0.00627433 0)
(0.977806 -0.00552373 0)
(0.975311 -0.00422249 0)
(0.974363 -0.00269187 0)
(0.976279 -0.00151349 0)
(0.98168 -0.000550756 0)
(0.988741 0.000559305 0)
(0.995352 0.00230166 0)
(1.00084 0.00419626 0)
(1.00372 0.00579799 0)
(1.00469 0.00624896 0)
(1.00353 0.00607552 0)
(1.00086 0.00503477 0)
(0.998721 0.00371259 0)
(0.997538 0.0022962 0)
(0.997489 0.00128709 0)
(0.997929 0.000596544 0)
(0.998617 0.000215496 0)
(0.99923 -8.32731e-05 0)
(0.999692 -0.000277325 0)
(0.999969 -0.000419487 0)
(1.00011 -0.000479376 0)
(1.00019 -0.000498743 0)
(1.00022 -0.000477718 0)
(1.00022 -0.00046822 0)
(1.0002 -0.000453577 0)
(1.0002 -0.000303073 0)
(1.00019 -8.51282e-05 0)
(1.00294 -0.00903942 0)
(1.00726 -0.0126926 0)
(1.01009 -0.0149125 0)
(1.01087 -0.0151613 0)
(1.00954 -0.0136141 0)
(1.00656 -0.0106509 0)
(1.00377 -0.00702496 0)
(1.00315 -0.00391506 0)
(1.00531 -0.00179647 0)
(1.00724 -0.00114678 0)
(1.00651 -0.00198343 0)
(1.0026 -0.00440543 0)
(0.997938 -0.0069018 0)
(0.994575 -0.00989579 0)
(0.992714 -0.0111179 0)
(0.992637 -0.0111484 0)
(0.993791 -0.00973201 0)
(0.995471 -0.00803326 0)
(0.996787 -0.00618802 0)
(0.997716 -0.00471526 0)
(0.998261 -0.00356437 0)
(0.998704 -0.00282026 0)
(0.999021 -0.00231869 0)
(0.999308 -0.0019821 0)
(0.999501 -0.00170737 0)
(0.999667 -0.00145724 0)
(0.999769 -0.00122123 0)
(0.999824 -0.00103421 0)
(0.999855 -0.00071527 0)
(0.999875 -0.000229951 0)
(0.971286 -0.0159712 0)
(0.972859 -0.0140528 0)
(0.983626 -0.0123294 0)
(0.998437 -0.011661 0)
(1.01046 -0.0116516 0)
(1.01658 -0.0116497 0)
(1.01587 -0.0111048 0)
(1.01039 -0.0105722 0)
(1.00274 -0.0109361 0)
(0.995999 -0.0126005 0)
(0.991103 -0.0147211 0)
(0.989955 -0.0163367 0)
(0.99078 -0.0164582 0)
(0.99391 -0.0152892 0)
(0.99874 -0.0132938 0)
(1.00238 -0.0109929 0)
(1.00443 -0.00887662 0)
(1.00477 -0.0073556 0)
(1.00438 -0.00629855 0)
(1.00352 -0.00561078 0)
(1.00268 -0.00502277 0)
(1.00199 -0.00451524 0)
(1.00156 -0.00401439 0)
(1.0013 -0.00355755 0)
(1.00114 -0.00309257 0)
(1.00106 -0.00263647 0)
(1.00098 -0.00218315 0)
(1.00089 -0.00177413 0)
(1.0008 -0.00115061 0)
(1.00075 -0.000363955 0)
(1.01317 0.0167159 0)
(1.01549 0.016932 0)
(1.00978 0.0159886 0)
(1.00167 0.0139061 0)
(0.997691 0.0110574 0)
(0.99794 0.00715701 0)
(0.999674 0.00293865 0)
(0.999968 -0.000410991 0)
(0.998332 -0.00227281 0)
(0.996295 -0.00249489 0)
(0.995814 -0.0017879 0)
(0.997131 -0.000296622 0)
(0.999541 0.000798859 0)
(1.00116 0.00192303 0)
(1.00179 0.00189876 0)
(1.00162 0.00134627 0)
(1.00093 0.000259427 0)
(1.00021 -0.000756133 0)
(0.9999 -0.00181541 0)
(0.999887 -0.00263742 0)
(1.00009 -0.0032222 0)
(1.00028 -0.00348087 0)
(1.00048 -0.00351219 0)
(1.00061 -0.00335335 0)
(1.00076 -0.00308606 0)
(1.00085 -0.00272214 0)
(1.00092 -0.00226607 0)
(1.00091 -0.00186413 0)
(1.00084 -0.00125164 0)
(1.00081 -0.00039955 0)
(0.989019 -0.0149938 0)
(0.982266 -0.0143363 0)
(0.983729 -0.013244 0)
(0.990979 -0.0115468 0)
(0.996132 -0.0101487 0)
(0.997288 -0.00850008 0)
(0.996789 -0.00704604 0)
(0.996432 -0.00665176 0)
(0.996372 -0.0071347 0)
(0.996117 -0.00806078 0)
(0.995746 -0.00867752 0)
(0.995395 -0.00900403 0)
(0.995258 -0.00869468 0)
(0.995812 -0.00831837 0)
(0.997094 -0.00774661 0)
(0.998683 -0.00726355 0)
(1.00001 -0.00673458 0)
(1.00074 -0.00633944 0)
(1.00104 -0.0059913 0)
(1.00124 -0.00571241 0)
(1.00146 -0.00544458 0)
(1.00167 -0.00513953 0)
(1.00183 -0.0047762 0)
(1.00193 -0.00436373 0)
(1.00199 -0.00387603 0)
(1.00201 -0.00332481 0)
(1.00203 -0.002734 0)
(1.00195 -0.0021795 0)
(1.00181 -0.00140587 0)
(1.00174 -0.00043537 0)
(1.0075 0.0232325 0)
(1.01206 0.0238522 0)
(1.00751 0.0234511 0)
(0.999379 0.020559 0)
(0.99583 0.0165254 0)
(0.996992 0.0114236 0)
(0.998546 0.00636886 0)
(0.998289 0.0027141 0)
(0.99649 0.000739867 0)
(0.995476 8.70762e-05 0)
(0.996282 0.000365223 0)
(0.999275 0.00134334 0)
(1.00217 0.00215877 0)
(1.00368 0.00326427 0)
(1.00413 0.00330434 0)
(1.00367 0.00265337 0)
(1.00278 0.00108398 0)
(1.0018 -0.000498804 0)
(1.00121 -0.00196798 0)
(1.00105 -0.0029892 0)
(1.00121 -0.00362522 0)
(1.00146 -0.00387752 0)
(1.00173 -0.00390061 0)
(1.00192 -0.00372682 0)
(1.00206 -0.00340598 0)
(1.00215 -0.00301108 0)
(1.00217 -0.00248065 0)
(1.00212 -0.00199566 0)
(1.00198 -0.00132501 0)
(1.00192 -0.000407565 0)
(1.00746 -0.0133173 0)
(0.99212 -0.0141024 0)
(0.980817 -0.0140929 0)
(0.977539 -0.0122954 0)
(0.976044 -0.00995031 0)
(0.974234 -0.00774192 0)
(0.975691 -0.00658717 0)
(0.981282 -0.00640322 0)
(0.988778 -0.00595891 0)
(0.995223 -0.00436712 0)
(1.00025 -0.00222755 0)
(1.00236 -0.000337513 0)
(1.0032 0.000387652 0)
(1.00234 8.0563e-05 0)
(1.00004 -0.000938676 0)
(0.998349 -0.0022783 0)
(0.997655 -0.00362567 0)
(0.998142 -0.0046002 0)
(0.999036 -0.00518157 0)
(1.00008 -0.0053553 0)
(1.00098 -0.00533744 0)
(1.00173 -0.00517287 0)
(1.00226 -0.00488412 0)
(1.00262 -0.0044431 0)
(1.00287 -0.00394167 0)
(1.00301 -0.00337217 0)
(1.00305 -0.00273847 0)
(1.00301 -0.00216405 0)
(1.00285 -0.00138188 0)
(1.00279 -0.000418102 0)
(0.999975 0.00672597 0)
(1.00686 0.0062839 0)
(1.00765 0.00578595 0)
(1.00297 0.00390374 0)
(0.998874 0.00161338 0)
(0.997161 -0.000462545 0)
(0.996198 -0.00161789 0)
(0.996353 -0.00234167 0)
(0.997515 -0.00331332 0)
(0.998643 -0.00463907 0)
(0.998274 -0.00598908 0)
(0.997045 -0.00714127 0)
(0.995368 -0.00777947 0)
(0.99441 -0.00832838 0)
(0.994371 -0.00839379 0)
(0.994984 -0.0082231 0)
(0.996127 -0.00789035 0)
(0.99751 -0.0076449 0)
(0.998798 -0.00729426 0)
(0.999914 -0.00683533 0)
(1.00083 -0.00631284 0)
(1.00158 -0.00579692 0)
(1.00212 -0.00527247 0)
(1.00255 -0.00475595 0)
(1.00281 -0.0041861 0)
(1.00299 -0.00356082 0)
(1.00308 -0.00285838 0)
(1.00308 -0.00222381 0)
(1.00298 -0.0014308 0)
(1.00295 -0.000441072 0)
(0.998686 -0.0100014 0)
(0.989815 -0.0108035 0)
(0.979657 -0.0111515 0)
(0.974737 -0.0101452 0)
(0.974381 -0.00754762 0)
(0.974965 -0.00447642 0)
(0.977536 -0.00252098 0)
(0.982779 -0.00167779 0)
(0.989906 -0.00171164 0)
(0.997094 -0.00201539 0)
(1.00274 -0.00277659 0)
(1.00557 -0.00370186 0)
(1.00601 -0.00527908 0)
(1.00459 -0.00664278 0)
(1.00213 -0.0080083 0)
(1.0002 -0.00891228 0)
(0.999334 -0.00945149 0)
(0.999754 -0.00943873 0)
(1.00074 -0.00913341 0)
(1.00179 -0.00860202 0)
(1.0026 -0.00794239 0)
(1.00321 -0.00717469 0)
(1.00368 -0.00640914 0)
(1.004 -0.00563511 0)
(1.00416 -0.00485601 0)
(1.00421 -0.0040889 0)
(1.00416 -0.00327741 0)
(1.00405 -0.0025235 0)
(1.00388 -0.00158533 0)
(1.0038 -0.00048852 0)
(1.0002 -0.0112645 0)
(0.999809 -0.0150457 0)
(0.997292 -0.0200808 0)
(0.998626 -0.0234062 0)
(1.00115 -0.0239291 0)
(1.00079 -0.0219193 0)
(0.997173 -0.0178025 0)
(0.993316 -0.0135319 0)
(0.992486 -0.0100266 0)
(0.993719 -0.00879913 0)
(0.994913 -0.00877085 0)
(0.995047 -0.0104172 0)
(0.994876 -0.0119702 0)
(0.995228 -0.0141163 0)
(0.995832 -0.0150634 0)
(0.996683 -0.0152928 0)
(0.997792 -0.0144378 0)
(0.999211 -0.0133207 0)
(1.00057 -0.0119589 0)
(1.00166 -0.0106683 0)
(1.00237 -0.00943198 0)
(1.00294 -0.0083575 0)
(1.00339 -0.00734448 0)
(1.00376 -0.00636425 0)
(1.00403 -0.00541182 0)
(1.0042 -0.00449032 0)
(1.00426 -0.00353869 0)
(1.00423 -0.0026891 0)
(1.00411 -0.00170195 0)
(1.00406 -0.000533795 0)
(0.975945 -0.0217478 0)
(0.969567 -0.0226016 0)
(0.971775 -0.0197482 0)
(0.981318 -0.0166825 0)
(0.992093 -0.0161508 0)
(0.999768 -0.0176108 0)
(1.0022 -0.0192928 0)
(1.00088 -0.0199955 0)
(0.996991 -0.0197617 0)
(0.993167 -0.0193048 0)
(0.990692 -0.0193695 0)
(0.989877 -0.0195966 0)
(0.99057 -0.0196959 0)
(0.992632 -0.0191576 0)
(0.995916 -0.0182662 0)
(0.998905 -0.0167928 0)
(1.00121 -0.0152361 0)
(1.00273 -0.0138812 0)
(1.00382 -0.012752 0)
(1.0045 -0.0116889 0)
(1.00494 -0.0105952 0)
(1.00517 -0.00948669 0)
(1.00531 -0.00838784 0)
(1.00537 -0.00732152 0)
(1.00537 -0.00624183 0)
(1.00534 -0.00517766 0)
(1.00527 -0.00408405 0)
(1.00515 -0.0030734 0)
(1.00498 -0.00190808 0)
(1.0049 -0.000597832 0)
(0.985441 -0.00698108 0)
(0.994753 -0.00899407 0)
(0.994839 -0.0103088 0)
(0.98963 -0.0130568 0)
(0.986589 -0.0155674 0)
(0.987469 -0.0177291 0)
(0.992152 -0.0194021 0)
(0.998346 -0.019942 0)
(1.00379 -0.0199193 0)
(1.00599 -0.0186882 0)
(1.00515 -0.0180554 0)
(1.00201 -0.0178059 0)
(0.998938 -0.0184452 0)
(0.996854 -0.0195914 0)
(0.996315 -0.0203077 0)
(0.997227 -0.0201251 0)
(0.99885 -0.0186382 0)
(1.00069 -0.016597 0)
(1.00225 -0.0146188 0)
(1.00344 -0.0130007 0)
(1.00426 -0.0115763 0)
(1.00483 -0.0102528 0)
(1.00523 -0.00897543 0)
(1.00547 -0.00774675 0)
(1.00559 -0.00657385 0)
(1.0056 -0.00544058 0)
(1.00554 -0.00427171 0)
(1.00542 -0.00320944 0)
(1.00525 -0.00201179 0)
(1.00517 -0.000637154 0)
(0.975356 -0.0186111 0)
(0.975234 -0.0166683 0)
(0.979689 -0.0156215 0)
(0.986629 -0.0135929 0)
(0.992025 -0.0103249 0)
(0.993878 -0.00819415 0)
(0.992388 -0.00823595 0)
(0.989884 -0.0109654 0)
(0.988075 -0.0154366 0)
(0.988137 -0.0206465 0)
(0.988791 -0.0244387 0)
(0.991293 -0.0262413 0)
(0.993461 -0.0257719 0)
(0.996379 -0.0241809 0)
(1.00007 -0.0225154 0)
(1.00317 -0.0209698 0)
(1.00521 -0.0194148 0)
(1.00612 -0.0177538 0)
(1.00655 -0.0160009 0)
(1.00676 -0.0143648 0)
(1.00692 -0.0128348 0)
(1.00698 -0.0113997 0)
(1.00701 -0.00998683 0)
(1.00699 -0.00862739 0)
(1.00692 -0.00728133 0)
(1.00679 -0.0059804 0)
(1.00661 -0.00468897 0)
(1.00638 -0.00349864 0)
(1.00613 -0.00216348 0)
(1.006 -0.000682723 0)
(0.990607 -0.00236066 0)
(0.98899 -0.00748904 0)
(0.983803 -0.0121732 0)
(0.984161 -0.0171088 0)
(0.988749 -0.0208937 0)
(0.99295 -0.021308 0)
(0.995322 -0.0188424 0)
(0.995376 -0.0157767 0)
(0.994373 -0.0138434 0)
(0.993211 -0.0142 0)
(0.993362 -0.0161609 0)
(0.994514 -0.0186534 0)
(0.996884 -0.0202196 0)
(0.999195 -0.0204054 0)
(1.00142 -0.0195579 0)
(1.00359 -0.0184022 0)
(1.00518 -0.0172948 0)
(1.00595 -0.0161798 0)
(1.00631 -0.0150783 0)
(1.00657 -0.0139289 0)
(1.00685 -0.012673 0)
(1.00707 -0.0113288 0)
(1.00722 -0.00997469 0)
(1.00727 -0.00862352 0)
(1.00724 -0.00729015 0)
(1.00713 -0.00599771 0)
(1.00696 -0.0046795 0)
(1.00672 -0.00348714 0)
(1.00645 -0.00217473 0)
(1.00631 -0.000687505 0)
(0.968657 -0.0289348 0)
(0.969603 -0.0277065 0)
(0.974827 -0.0239963 0)
(0.982306 -0.0222533 0)
(0.989928 -0.0226541 0)
(0.994359 -0.0247725 0)
(0.99492 -0.0265465 0)
(0.993256 -0.0274963 0)
(0.991032 -0.0273761 0)
(0.989276 -0.0268938 0)
(0.988421 -0.0269267 0)
(0.989375 -0.0272986 0)
(0.991341 -0.0273947 0)
(0.994622 -0.0266995 0)
(0.999048 -0.0250379 0)
(1.00333 -0.0228963 0)
(1.00664 -0.0205377 0)
(1.00838 -0.0184548 0)
(1.009 -0.016683 0)
(1.00903 -0.0151288 0)
(1.00896 -0.0136546 0)
(1.00884 -0.0122006 0)
(1.0087 -0.0107111 0)
(1.00854 -0.00923156 0)
(1.00835 -0.00776341 0)
(1.00813 -0.00633697 0)
(1.00788 -0.00492583 0)
(1.00758 -0.0036447 0)
(1.00725 -0.00224146 0)
(1.00706 -0.000701562 0)
(0.985207 0.000631385 0)
(0.985453 -0.00388725 0)
(0.977662 -0.00972455 0)
(0.97584 -0.013688 0)
(0.981592 -0.0161839 0)
(0.988932 -0.0177363 0)
(0.993055 -0.0196589 0)
(0.992465 -0.0211619 0)
(0.989801 -0.0218915 0)
(0.988505 -0.0222837 0)
(0.990071 -0.0218148 0)
(0.994002 -0.0211512 0)
(0.998433 -0.0206744 0)
(1.00145 -0.0198329 0)
(1.00356 -0.0190474 0)
(1.00526 -0.018069 0)
(1.00663 -0.017207 0)
(1.00759 -0.0162137 0)
(1.00818 -0.0151908 0)
(1.00861 -0.0140722 0)
(1.00894 -0.0128862 0)
(1.00908 -0.0115859 0)
(1.00911 -0.0102566 0)
(1.00898 -0.00889229 0)
(1.00878 -0.00751693 0)
(1.00852 -0.0061647 0)
(1.00823 -0.00477425 0)
(1.00788 -0.00352742 0)
(1.00751 -0.00218334 0)
(1.00731 -0.000680738 0)
(0.965836 -0.0362167 0)
(0.961236 -0.0388043 0)
(0.968669 -0.0340468 0)
(0.978415 -0.0330699 0)
(0.984848 -0.0341759 0)
(0.989833 -0.0369495 0)
(0.993857 -0.0392884 0)
(0.996221 -0.0395799 0)
(0.995599 -0.0383229 0)
(0.993071 -0.0357501 0)
(0.991508 -0.0327959 0)
(0.992334 -0.0300025 0)
(0.995552 -0.0274691 0)
(0.999623 -0.02559 0)
(1.00342 -0.0239418 0)
(1.00625 -0.02239 0)
(1.00823 -0.0207572 0)
(1.00927 -0.0190664 0)
(1.0098 -0.0173212 0)
(1.01007 -0.0156197 0)
(1.01023 -0.0139576 0)
(1.01032 -0.012373 0)
(1.01026 -0.0108044 0)
(1.01007 -0.00925796 0)
(1.00981 -0.00775636 0)
(1.00947 -0.00630119 0)
(1.0091 -0.00485636 0)
(1.00867 -0.00356301 0)
(1.0082 -0.00217492 0)
(1.00796 -0.000670359 0)
(0.979558 -0.00208539 0)
(0.984772 -0.00169106 0)
(0.975299 -0.00540878 0)
(0.969603 -0.00932466 0)
(0.971918 -0.0126723 0)
(0.977286 -0.0169646 0)
(0.983567 -0.0223244 0)
(0.989412 -0.0280763 0)
(0.992862 -0.0321206 0)
(0.994377 -0.0331387 0)
(0.995517 -0.0319552 0)
(0.998095 -0.0288241 0)
(1.00151 -0.0254074 0)
(1.00499 -0.0216673 0)
(1.00791 -0.0191296 0)
(1.00985 -0.0174651 0)
(1.0107 -0.0167817 0)
(1.01077 -0.0161866 0)
(1.01066 -0.015482 0)
(1.0106 -0.0143756 0)
(1.0107 -0.0130879 0)
(1.01075 -0.0116846 0)
(1.01068 -0.0102619 0)
(1.01049 -0.00884034 0)
(1.0102 -0.00742308 0)
(1.00984 -0.00603934 0)
(1.00944 -0.0046243 0)
(1.00897 -0.0033689 0)
(1.00843 -0.0020621 0)
(1.00816 -0.000634062 0)
(0.96586 -0.0393206 0)
(0.955686 -0.0473949 0)
(0.960818 -0.0431158 0)
(0.969825 -0.0402099 0)
(0.97482 -0.0403142 0)
(0.977484 -0.0409255 0)
(0.980458 -0.0406935 0)
(0.985542 -0.0403544 0)
(0.991336 -0.0393465 0)
(0.995403 -0.0377867 0)
(0.998027 -0.0352214 0)
(0.99978 -0.0324688 0)
(1.00216 -0.0295522 0)
(1.00473 -0.0269247 0)
(1.00718 -0.0242741 0)
(1.00935 -0.0219938 0)
(1.01095 -0.020128 0)
(1.01186 -0.0185809 0)
(1.01214 -0.0170818 0)
(1.01214 -0.0155114 0)
(1.01206 -0.0138861 0)
(1.01194 -0.0122424 0)
(1.01175 -0.0106219 0)
(1.01145 -0.0090389 0)
(1.01109 -0.00752075 0)
(1.01067 -0.00606408 0)
(1.01021 -0.00461375 0)
(1.00969 -0.00331868 0)
(1.00902 -0.00199576 0)
(1.00873 -0.000609817 0)
(0.974501 -0.0163172 0)
(0.987717 -0.0122734 0)
(0.981934 -0.0138547 0)
(0.973208 -0.0164438 0)
(0.973035 -0.0197958 0)
(0.978006 -0.0251449 0)
(0.983823 -0.031717 0)
(0.988914 -0.037044 0)
(0.993075 -0.0405124 0)
(0.996843 -0.0406203 0)
(0.999825 -0.0384279 0)
(1.00281 -0.0339303 0)
(1.00538 -0.0294233 0)
(1.00754 -0.024971 0)
(1.00936 -0.021779 0)
(1.01081 -0.0193198 0)
(1.01186 -0.0178604 0)
(1.01243 -0.0166995 0)
(1.01271 -0.0156503 0)
(1.01275 -0.0143703 0)
(1.01268 -0.0129896 0)
(1.01249 -0.0115302 0)
(1.01219 -0.0100676 0)
(1.01182 -0.00861907 0)
(1.01138 -0.00718721 0)
(1.01093 -0.00579926 0)
(1.01045 -0.00437967 0)
(1.00992 -0.0030986 0)
(1.00916 -0.00185668 0)
(1.00888 -0.000572579 0)
(0.964465 -0.0432334 0)
(0.954944 -0.0514719 0)
(0.957664 -0.0498508 0)
(0.963781 -0.0467495 0)
(0.963876 -0.0432935 0)
(0.964482 -0.0396 0)
(0.970822 -0.0376155 0)
(0.980512 -0.0374335 0)
(0.990919 -0.0378388 0)
(0.999411 -0.0381702 0)
(1.00528 -0.0368775 0)
(1.00867 -0.0344582 0)
(1.01073 -0.0312903 0)
(1.01148 -0.0281382 0)
(1.0112 -0.0252508 0)
(1.01114 -0.022896 0)
(1.01152 -0.0208741 0)
(1.01234 -0.0190373 0)
(1.01303 -0.0172508 0)
(1.01346 -0.0154238 0)
(1.01357 -0.0136394 0)
(1.01346 -0.0119075 0)
(1.01316 -0.0102657 0)
(1.01272 -0.00868808 0)
(1.01221 -0.00719338 0)
(1.01166 -0.00576929 0)
(1.01111 -0.00433861 0)
(1.01054 -0.0030093 0)
(1.00964 -0.00176176 0)
(1.00935 -0.000548896 0)
(0.973051 -0.034569 0)
(0.983706 -0.0322032 0)
(0.981052 -0.0338939 0)
(0.9771 -0.0387716 0)
(0.977 -0.0419787 0)
(0.978737 -0.0443475 0)
(0.980389 -0.0455838 0)
(0.984374 -0.0455733 0)
(0.990651 -0.0452667 0)
(0.997339 -0.0435809 0)
(1.00307 -0.0407752 0)
(1.00778 -0.0366562 0)
(1.01101 -0.0321517 0)
(1.01309 -0.0276427 0)
(1.01404 -0.0241403 0)
(1.01404 -0.0214679 0)
(1.01377 -0.0196652 0)
(1.01373 -0.018086 0)
(1.0139 -0.0165156 0)
(1.01407 -0.0147863 0)
(1.01406 -0.0130664 0)
(1.01388 -0.011404 0)
(1.01351 -0.00982994 0)
(1.01302 -0.0083349 0)
(1.01246 -0.00689922 0)
(1.01188 -0.00552866 0)
(1.01131 -0.00413065 0)
(1.01075 -0.00278825 0)
(1.00973 -0.00161347 0)
(1.00945 -0.000519046 0)
(0.961663 -0.0589403 0)
(0.959005 -0.0631781 0)
(0.960456 -0.0618425 0)
(0.962965 -0.0571453 0)
(0.965065 -0.0530121 0)
(0.967584 -0.0491376 0)
(0.973167 -0.0455412 0)
(0.98183 -0.0436428 0)
(0.992301 -0.0429565 0)
(1.00225 -0.04201 0)
(1.01015 -0.040194 0)
(1.01478 -0.0372216 0)
(1.01722 -0.0337169 0)
(1.0177 -0.0299719 0)
(1.01677 -0.0264968 0)
(1.01576 -0.0236741 0)
(1.01496 -0.0214593 0)
(1.01481 -0.0195151 0)
(1.0149 -0.0175866 0)
(1.01505 -0.0155575 0)
(1.01501 -0.0135712 0)
(1.0148 -0.0116833 0)
(1.01439 -0.00995483 0)
(1.01385 -0.00835192 0)
(1.01322 -0.00686781 0)
(1.01256 -0.00547853 0)
(1.01192 -0.00408489 0)
(1.01131 -0.00268019 0)
(1.01015 -0.00150287 0)
(1.00986 -0.000500526 0)
(0.969814 -0.0540025 0)
(0.97756 -0.0563791 0)
(0.976053 -0.0596347 0)
(0.976939 -0.0644274 0)
(0.980651 -0.0666197 0)
(0.983975 -0.0648709 0)
(0.985361 -0.0600189 0)
(0.988253 -0.0548762 0)
(0.993536 -0.0501418 0)
(1.00062 -0.0465371 0)
(1.00722 -0.0429083 0)
(1.01246 -0.0391978 0)
(1.01568 -0.0350744 0)
(1.01744 -0.0309463 0)
(1.018 -0.0271599 0)
(1.01762 -0.0238639 0)
(1.01705 -0.0212628 0)
(1.01663 -0.0191034 0)
(1.01636 -0.0171084 0)
(1.0161 -0.0151047 0)
(1.01572 -0.0131599 0)
(1.01526 -0.0113294 0)
(1.01469 -0.00963707 0)
(1.01406 -0.00808193 0)
(1.01338 -0.00663143 0)
(1.0127 -0.00527746 0)
(1.01205 -0.00391353 0)
(1.01147 -0.00247111 0)
(1.01022 -0.00135484 0)
(1.00996 -0.000479347 0)
(0.962081 -0.0852035 0)
(0.965355 -0.0828222 0)
(0.965906 -0.0776469 0)
(0.966326 -0.0717498 0)
(0.970475 -0.0677431 0)
(0.976115 -0.0643723 0)
(0.98311 -0.0604718 0)
(0.990779 -0.0560913 0)
(0.99958 -0.0520924 0)
(1.00845 -0.0480121 0)
(1.01605 -0.044211 0)
(1.02044 -0.0400595 0)
(1.02238 -0.036153 0)
(1.02213 -0.0322102 0)
(1.02049 -0.0285318 0)
(1.01896 -0.0252208 0)
(1.01787 -0.0224233 0)
(1.01754 -0.0199453 0)
(1.01743 -0.0176873 0)
(1.01727 -0.0154882 0)
(1.01685 -0.0134021 0)
(1.01628 -0.0114441 0)
(1.01559 -0.00967409 0)
(1.01484 -0.00806117 0)
(1.01405 -0.00658774 0)
(1.01328 -0.00523091 0)
(1.01255 -0.00388262 0)
(1.01195 -0.00236747 0)
(1.01061 -0.00124537 0)
(1.01035 -0.000468018 0)