/*--------------------------------*- C++ -*----------------------------------*\
| =========                 |                                                 |
| \\      /  F ield         | OpenFOAM: The Open Source CFD Toolbox           |
|  \\    /   O peration     | Version:                                        |
|   \\  /    A nd           | Website:  www.openfoam.com                      |
|    \\/     M anipulation  |                                                 |
\*---------------------------------------------------------------------------*/
FoamFile
{
    version     2.0;
    format      ascii;
    class       surfaceScalarField;
    location    "28";
    object      phi;
}
// * * * * * * * * * * * * * * * * * * * * * * * * * * * * * * * * * * * * * //

dimensions      [0 3 -1 0 0 0 0];
oriented        oriented;


internalField   nonuniform List<scalar> 
2227
(
0.0441091
0.00298921
-0.047096
0.041238
0.00287359
0.00278543
0.043859
0.00597193
-0.0468418
0.0409886
0.005744
0.00556749
0.0432787
0.00891725
-0.046224
0.0404286
0.00859408
0.0422476
0.011827
-0.0451574
0.0114013
0.0409455
0.0146453
-0.0437638
-0.0418208
0.0539868
-0.000953233
0.0538166
0.000171413
0.0546327
-0.000814382
0.0544731
0.000161194
0.0551242
-0.000649354
0.054968
0.000157955
0.0554588
-0.000489188
0.0553421
0.000118351
0.0556484
-0.000304702
0.0554816
0.000168391
0.0556776
-0.000194373
0.0554811
0.000198175
0.0555669
-8.40602e-05
0.0553451
0.000223589
0.0553164
3.03349e-05
0.0550362
0.000282142
0.0549003
0.000137789
0.0545454
0.000356928
0.0542866
0.000260958
0.053841
0.000447791
0.0534601
0.000383225
0.052914
0.000548547
0.052411
0.000505477
0.0517613
0.000652342
0.0511419
0.000621993
0.0503913
0.000753382
0.049666
0.000728071
0.0488252
0.000843643
0.048011
0.000817098
0.00091795
0.0539616
-0.00188181
0.0537721
0.000360879
0.0545639
-0.00160614
0.0543895
0.000335587
0.0550205
-0.00128037
0.0548472
0.000331252
0.0553311
-0.000973113
0.0551898
0.000259628
0.0554868
-0.000601624
0.0553054
0.000349757
0.0554953
-0.00038424
0.0552903
0.000403091
0.0553718
-0.000165551
0.0551463
0.00044916
0.0551138
6.27963e-05
0.0548321
0.000563797
0.0546911
0.000278853
0.0543328
0.000715236
0.0540717
0.00052199
0.0536258
0.000893691
0.0532465
0.000762537
0.0527033
0.00109173
0.0522054
0.00100345
0.0515601
0.0012976
0.0509458
0.0012363
0.0501967
0.00150252
0.04947
0.00145475
0.0486192
0.00169442
0.047788
0.00164836
0.00186415
0.0539042
-0.00275297
0.0536724
0.000592607
0.0544054
-0.00233912
0.0542042
0.000536787
0.0547802
-0.00185632
0.054584
0.00052743
0.0550286
-0.00141768
0.0548569
0.000431333
0.0551088
-0.000853543
0.0549185
0.00054001
0.0550705
-0.000536252
0.0548682
0.000605449
0.0549145
-0.0002119
0.0546872
0.000676433
0.0546246
0.000125411
0.0543371
0.000851344
0.0541701
0.000445808
0.0538043
0.00108107
0.0535263
0.000799985
0.0530738
0.00134624
0.0526832
0.00115311
0.0521364
0.00163856
0.0516325
0.00150735
0.0509869
0.00194316
0.050371
0.00185225
0.0496232
0.00225022
0.0488954
0.00218257
0.0480402
0.00254963
0.0471964
0.00249222
0.00283648
0.0538166
-0.00353656
0.0535156
0.000893629
0.054167
-0.0029905
0.0539101
0.000793593
0.0544178
-0.00236394
0.0541651
0.000780112
0.0545725
-0.00182506
0.0543167
0.00068712
0.0545449
-0.00108182
0.0542872
0.000797784
0.0544323
-0.000681356
0.054163
0.00087476
0.0542123
-0.000261227
0.0539235
0.000965184
0.0538619
0.000187024
0.0535205
0.00119281
0.053349
0.000617235
0.0529361
0.00149399
0.0526527
0.00108344
0.0521602
0.00183868
0.0517622
0.0015511
0.051182
0.00221875
0.0506711
0.00201825
0.0499969
0.00261739
0.0493742
0.00247496
0.0486003
0.0030241
0.0478653
0.00291756
0.0469873
0.00342767
0.0461412
0.0033383
0.00382029
0.0536951
-0.00419865
0.0533039
0.00128479
0.0538389
-0.00352551
0.0535197
0.00111286
0.0539195
-0.00276381
0.0536199
0.00107978
0.053929
-0.00213419
0.0536188
0.000997321
0.0537576
-0.00122063
0.0534875
0.00106794
0.0535436
-0.000737513
0.0532818
0.00113661
0.0532324
-0.000211869
0.0529341
0.00126352
0.0527952
0.000325893
0.0524417
0.00154628
0.0522051
0.000853875
0.051778
0.00192113
0.0514438
0.00141759
0.0509358
0.00234673
0.0504998
0.0019871
0.0499064
0.00281207
0.0493696
0.0025551
0.0486886
0.00329841
0.0480499
0.00311367
0.047276
0.003798
0.0465295
0.00366401
0.0456487
0.0043085
0.0447786
0.00420843
0.00483508
0.0535406
-0.00470626
0.0530385
0.00178688
0.0534339
-0.00392088
0.0530262
0.00152053
0.0533058
-0.0030434
0.0529224
0.0014632
0.0531338
-0.00234555
0.0527104
0.00142065
0.052801
-0.00131124
0.0524229
0.00144607
0.0524544
-0.000768984
0.0520723
0.0015187
0.0520238
-0.000163407
0.0516096
0.00167778
0.0514701
0.000465401
0.0510129
0.0020034
0.05077
0.00109677
0.0502468
0.00244436
0.0499016
0.00176278
0.0493075
0.0029409
0.0488549
0.0024397
0.0481879
0.00347908
0.0476291
0.00311385
0.0468853
0.0040422
0.0462222
0.00377678
0.0453938
0.00462637
0.0446282
0.0044297
0.0437072
0.0052295
0.0428427
0.00507284
0.00585704
0.0533665
-0.00503972
0.0527232
0.00243012
0.0529602
-0.00415788
0.0524442
0.00203657
0.0525787
-0.00317792
0.0521094
0.00193249
0.052164
-0.00240019
0.0516721
0.0019126
0.05164
-0.00127914
0.0512289
0.00185713
0.0511271
-0.000667114
0.0507273
0.00191848
0.0505409
2.29244e-05
0.0501174
0.00210137
0.0498541
0.000728702
0.0493872
0.00247031
0.0490344
0.00144957
0.0485068
0.00297189
0.0480688
0.00220078
0.0474698
0.00353994
0.04695
0.00295944
0.0462771
0.00415205
0.0456797
0.00371116
0.0449275
0.00479439
0.0442509
0.00445342
0.0434096
0.00546764
0.0426401
0.00519925
0.0416918
0.00617781
0.0408037
0.00596087
0.0531546
-0.00516128
0.0523569
0.00322778
0.0524052
-0.00420616
0.0517657
0.00267606
0.0517246
-0.00313678
0.0511587
0.00249831
0.0510351
-0.00227652
0.0504595
0.00248812
0.0502959
-0.00111553
0.0497967
0.00235632
0.0495823
-0.000452713
0.0490565
0.00244429
0.0488376
0.00024187
0.0482793
0.00265968
0.0479728
0.00103515
0.0473748
0.00306834
0.0469871
0.0018373
0.0463185
0.0036404
0.0458562
0.00266311
0.0451107
0.00428543
0.0445752
0.00349499
0.0437611
0.0049661
0.0431466
0.00432569
0.0422717
0.00566931
0.0415703
0.00515483
0.0406408
0.00639709
0.039849
0.00599104
0.0388686
0.00715825
0.00684524
0.0529425
-0.00507076
0.0519437
0.00422656
0.0518183
-0.00408076
0.0510017
0.00349268
0.0508047
-0.00293981
0.0500792
0.00322383
0.0498192
-0.00201648
0.049089
0.00321824
0.0488287
-0.00085523
0.0482017
0.00298335
0.0478865
-0.000137464
0.0472936
0.00303719
0.0469453
0.000590154
0.0463135
0.00329142
0.04591
0.00143869
0.0452665
0.00371185
0.0447694
0.00233443
0.0440933
0.00431642
0.0435097
0.00324673
0.0427957
0.00499942
0.0421362
0.00415454
0.041379
0.0057233
0.0406491
0.00505561
0.0398366
0.00648175
0.0390398
0.00595166
0.0381437
0.00729317
0.0372772
0.00685753
0.0362444
0.00819108
0.052653
-0.00469073
0.0514971
0.00538242
0.0511284
-0.00371204
0.0501745
0.0044466
0.0497542
-0.00251953
0.0489341
0.00404393
0.0484093
-0.00149165
0.0477042
0.00392334
0.0471499
-0.000301009
0.0464721
0.00366119
0.0459809
0.00035376
0.0452991
0.00371899
0.0448022
0.00108707
0.0440856
0.00400797
0.0435182
0.00200614
0.0427876
0.0044424
0.0421268
0.00299525
0.041359
0.00508426
0.0406321
0.00397353
0.0398093
0.00582222
0.0390386
0.00492531
0.0381387
0.00662321
0.0373428
0.0058515
0.0363619
0.00746263
0.035557
0.00675653
0.0345087
0.00834144
0.0337218
0.00764447
0.00924432
0.0481668
-0.0050289
0.0477804
0.00576875
0.0480534
-0.00398497
0.0477444
0.00475559
0.0479061
-0.00268129
0.0475608
0.00438925
0.0476446
-0.00157548
0.0474123
0.00415566
0.0473947
-0.000283444
0.0470273
0.0040286
0.0471438
0.000237325
0.0466307
0.00423208
0.0467886
0.00092912
0.0461846
0.00461203
0.04631
0.00188073
0.0456391
0.00511332
0.0457686
0.00286573
0.0450535
0.00579935
0.0452023
0.00382478
0.0444624
0.00656206
0.044623
0.00476477
0.0438854
0.00736081
0.0440502
0.00568661
0.0433625
0.00815034
0.0435199
0.00659921
0.0429522
0.0089091
0.0430787
0.00751799
0.00960756
0.0516062
-0.00548704
0.0511171
0.00625778
0.0515302
-0.00439809
0.0511018
0.00518399
0.0513404
-0.00291981
0.0508524
0.00487721
0.0510956
-0.00181869
0.0507732
0.00447812
0.0507584
-0.000268661
0.0504412
0.00434577
0.050484
0.000194542
0.0500411
0.00467501
0.0500627
0.00090749
0.0495007
0.00517402
0.0494607
0.00192074
0.0488976
0.00567643
0.0488297
0.00293358
0.0483485
0.00628057
0.0482295
0.00394375
0.0478747
0.00691693
0.0476644
0.00497501
0.047465
0.00756024
0.0471492
0.00600236
0.0471156
0.00818402
0.0467235
0.00699128
0.0468992
0.00873342
0.0465409
0.00787629
0.0090685
0.0551773
-0.00596646
0.0546728
0.00676223
0.05514
-0.00486524
0.0546647
0.00565927
0.0548739
-0.00312903
0.0543803
0.00537079
0.0547085
-0.00214683
0.0543546
0.00483194
0.0541906
-0.000104651
0.0542339
0.00430247
0.0538569
0.00057156
0.0538839
0.00464803
0.0533264
0.00146498
0.0532113
0.00528915
0.052587
0.00254504
0.0525817
0.00568177
0.051952
0.00356328
0.0521234
0.00610914
0.0515016
0.00456556
0.0518024
0.00661614
0.0511522
0.00562519
0.0515239
0.00718855
0.0508615
0.00666471
0.0512729
0.00777263
0.0506858
0.00757839
0.0511539
0.00826537
0.0507859
0.00824424
0.00850712
0.0587664
-0.00623887
0.0583391
0.00718958
0.0586469
-0.0051731
0.0582128
0.00609337
0.0582707
-0.00318688
0.0579005
0.00574099
0.0581491
-0.00239546
0.0577389
0.00524211
0.0576042
3.00658e-05
0.0576731
0.00423359
0.0572909
0.000953731
0.0572913
0.00464769
0.0565719
0.00218429
0.0564825
0.00537863
0.0557807
0.00324677
0.0558312
0.00563131
0.0552211
0.00417336
0.0554487
0.00588149
0.0549421
0.00507219
0.0552266
0.00633162
0.0548106
0.00604123
0.0550352
0.00696394
0.0547755
0.00692445
0.0549371
0.00761095
0.0549184
0.00759709
0.0550783
0.0081055
0.0553279
0.00799461
0.00841657
0.0626515
-0.00633673
0.0622438
0.00759726
0.0624204
-0.00534962
0.0619727
0.00654105
0.0620136
-0.00322777
0.0617034
0.00605117
0.0618422
-0.0025343
0.0612676
0.00581671
0.0615085
-0.000210812
0.0611477
0.00459438
0.0612373
0.00086416
0.0606587
0.00522634
0.0604409
0.00240203
0.0598842
0.0059353
0.0598153
0.00331572
0.0593348
0.00611182
0.0594117
0.00409648
0.0590646
0.00622854
0.0592284
0.00490846
0.0589391
0.00662091
0.0591766
0.00580372
0.0588904
0.0072501
0.0592169
0.00659793
0.0589775
0.00785044
0.0594219
0.00715264
0.0592537
0.00827373
0.0597812
0.00746705
0.00845322
0.0669981
-0.00643977
0.0665884
0.00800695
0.0667839
-0.00554511
0.0662994
0.00702551
0.0664899
-0.00341827
0.0661889
0.00635225
0.0661938
-0.00253928
0.0655735
0.00643706
0.0661891
-0.000826416
0.0654294
0.00535409
0.0657334
0.000560152
0.0649256
0.00603412
0.0650231
0.00230459
0.0643693
0.00658909
0.064633
0.003052
0.0639872
0.00675761
0.0643444
0.00373925
0.0637656
0.00680738
0.0641208
0.00455318
0.0635944
0.00714732
0.0639618
0.00543634
0.0635592
0.00765267
0.0639372
0.00622
0.0637313
0.00805634
0.0641306
0.0067533
0.064116
0.00828834
0.0645255
0.0070575
0.008286
0.071682
-0.006584
0.0713378
0.00835115
0.0715554
-0.00576273
0.0711084
0.00747251
0.0714158
-0.00372562
0.0711295
0.00663856
0.0709862
-0.00239599
0.0705159
0.00690735
0.0712168
-0.00152731
0.0703568
0.00621405
0.0705123
0.000404679
0.069871
0.00667546
0.0700624
0.00211315
0.0696131
0.00703842
0.0698314
0.00283372
0.0693544
0.00723458
0.0695785
0.00351518
0.0691235
0.00726233
0.0692444
0.00443234
0.0688929
0.00749883
0.0690065
0.00532271
0.0688573
0.00780185
0.069031
0.00604635
0.0690993
0.00798799
0.0693172
0.00653544
0.0695649
0.00804064
0.0698193
0.00680308
0.00794252
0.0765657
-0.00664698
0.0764769
0.00843989
0.0764675
-0.00575328
0.0763025
0.0076375
0.0764047
-0.00382789
0.0762749
0.00676839
0.0759198
-0.00204087
0.0758118
0.00701539
0.076111
-0.00182659
0.075554
0.00677108
0.075359
0.000599702
0.0750995
0.0069349
0.0751043
0.00210837
0.075025
0.0071177
0.0749099
0.0029489
0.0748267
0.00731772
0.0746925
0.00364941
0.0745742
0.00738063
0.0744128
0.00459373
0.07435
0.0075616
0.0742753
0.00539743
0.0743834
0.00769375
0.0744268
0.00600297
0.0746717
0.00774309
0.0748116
0.00639554
0.0751581
0.00769414
0.0753842
0.006577
0.00752697
0.0816529
-0.00648769
0.0819721
0.00812073
0.0815318
-0.00531307
0.0817809
0.00738843
0.0814578
-0.0035048
0.0816539
0.00657235
0.0810819
-0.00146887
0.0813802
0.00671704
0.0809843
-0.00143065
0.080949
0.00680636
0.0805049
0.00104378
0.0805885
0.0068513
0.0803391
0.00235777
0.0805149
0.0069419
0.0801605
0.00330336
0.0803843
0.0070939
0.0800033
0.00403043
0.0801299
0.00725403
0.0798237
0.00489987
0.0799625
0.00742285
0.0798152
0.00554472
0.0800404
0.00746849
0.0800606
0.00598283
0.080364
0.00743964
0.080512
0.0062476
0.0808878
0.00731827
0.0811295
0.00633537
0.00709918
0.0871342
-0.00613173
0.0876794
0.00757551
0.0870299
-0.00466349
0.0875116
0.00690671
0.0869365
-0.00292974
0.0872611
0.00624773
0.0867051
-0.000912812
0.0871304
0.00629165
0.0863471
-0.000647268
0.0865929
0.00656052
0.0861524
0.00148427
0.0863634
0.00664036
0.0859696
0.00275158
0.0862179
0.00669361
0.0858083
0.00371293
0.0861311
0.00677108
0.0857075
0.00445406
0.0859327
0.00702884
0.08567
0.00516257
0.0858919
0.0072009
0.0857873
0.00564931
0.0860519
0.00720388
0.0860932
0.00594161
0.08642
0.00711282
0.0865847
0.00608289
0.0869682
0.00693475
0.0872287
0.0060749
0.00667197
0.093053
-0.00562251
0.0937504
0.00687815
0.0929749
-0.003888
0.0935914
0.00629026
0.0928727
-0.00221109
0.0932931
0.00582731
0.0927386
-0.000358322
0.0931893
0.00584096
0.092306
0.000236034
0.0926704
0.00619611
0.0922371
0.00191762
0.0925212
0.00635625
0.0920827
0.00319009
0.0923431
0.00643315
0.0919822
0.00407385
0.0922595
0.0064938
0.0919352
0.0047783
0.0921749
0.0067892
0.0920228
0.00531467
0.0922874
0.00693629
0.0922633
0.0056734
0.0925555
0.00691171
0.0926402
0.00585688
0.0929779
0.00677507
0.0931696
0.00589123
0.0935556
0.00654879
0.093837
0.00579345
0.00624503
0.0994367
-0.00500344
0.10023
0.0060846
0.0993951
-0.00305286
0.100064
0.00562176
0.0993055
-0.00145303
0.0997801
0.00535273
0.0992179
0.000203876
0.0996375
0.00542132
0.0988511
0.00102249
0.0992212
0.005826
0.0987884
0.00235043
0.0990843
0.00606033
0.0987078
0.00356656
0.0989471
0.00619386
0.0986827
0.00433826
0.098879
0.00629753
0.0986962
0.0049611
0.0989358
0.00654957
0.0988893
0.00536113
0.0991811
0.00664456
0.0992381
0.00561637
0.0995564
0.00659341
0.0997051
0.0057082
0.10006
0.00641986
0.100294
0.0056573
0.100689
0.00615401
0.100993
0.00548912
0.00581654
0.106315
-0.00431829
0.107149
0.00525053
0.106318
-0.00222197
0.10697
0.00496938
0.106253
-0.000735806
0.106722
0.00488372
0.10619
0.000736228
0.106546
0.00506548
0.105924
0.00164369
0.106248
0.00550258
0.105849
0.0027492
0.106113
0.00579602
0.105841
0.00383903
0.106055
0.00597968
0.105887
0.00450621
0.106054
0.00613061
0.105989
0.00502645
0.106245
0.00629361
0.106277
0.00532915
0.106584
0.00633723
0.106712
0.00548842
0.107056
0.00624909
0.107268
0.00549663
0.107649
0.00603911
0.107928
0.00537745
0.108339
0.00574318
0.108669
0.00515959
0.00538545
0.113719
-0.00361129
0.114537
0.00443286
0.11377
-0.00145571
0.114355
0.00438439
0.113728
-0.000108194
0.114142
0.00446953
0.113683
0.00119559
0.113969
0.00477888
0.1135
0.00211273
0.113771
0.0052318
0.11344
0.00307984
0.113673
0.00556365
0.113495
0.00401698
0.113696
0.00577881
0.113613
0.00458835
0.113808
0.00593561
0.113827
0.0050081
0.114092
0.00602809
0.114194
0.00522777
0.114517
0.00601439
0.114704
0.00530091
0.115071
0.00588182
0.115332
0.00523591
0.115735
0.00563645
0.116053
0.00505886
0.11648
0.00531643
0.116834
0.00480595
0.00495505
0.121681
-0.00292509
0.122432
0.00368235
0.12178
-0.000804448
0.122268
0.00389718
0.121746
0.000413439
0.122086
0.0041292
0.121715
0.00156719
0.121949
0.0045442
0.1216
0.002462
0.121833
0.00499881
0.121586
0.00332745
0.121801
0.00534775
0.121701
0.00411733
0.121911
0.0055692
0.121904
0.00459541
0.122137
0.00570239
0.122218
0.00492653
0.122502
0.00574452
0.122663
0.00506704
0.123004
0.00567328
0.123241
0.00506415
0.123625
0.00549745
0.123921
0.00493978
0.124334
0.00522381
0.124675
0.00471738
0.125106
0.00488573
0.125479
0.00443324
0.00452114
0.130231
-0.00229607
0.130876
0.00303692
0.130378
-0.00030589
0.130754
0.00352083
0.130331
0.000836553
0.130606
0.00385398
0.130312
0.00186161
0.130522
0.00433427
0.130264
0.00271996
0.130479
0.00478389
0.130315
0.00349123
0.130535
0.00512829
0.130501
0.00415131
0.130735
0.00533503
0.130789
0.00454142
0.131055
0.00543639
0.131193
0.00478837
0.131502
0.00543531
0.131712
0.00485747
0.132071
0.00531384
0.132347
0.00478822
0.132744
0.00510027
0.133067
0.00461683
0.133484
0.00480742
0.133838
0.00436264
0.134264
0.00446
0.134641
0.00405654
0.00409188
0.139396
-0.00174994
0.13992
0.00251311
0.13956
5.38634e-05
0.139856
0.00322474
0.139517
0.00117562
0.139744
0.00362692
0.139516
0.00209012
0.13972
0.00413026
0.139539
0.00290011
0.139752
0.00457124
0.139665
0.00357804
0.139901
0.00489298
0.139928
0.00412383
0.140186
0.00507685
0.140296
0.00443211
0.140593
0.00513868
0.140782
0.00459922
0.141119
0.00509884
0.14137
0.0046061
0.141746
0.00493773
0.142053
0.00448156
0.142459
0.00469419
0.142802
0.00427413
0.143219
0.00439071
0.14358
0.00400097
0.143996
0.00404411
0.144366
0.0036867
0.00368187
0.149199
-0.00129428
0.149606
0.00210566
0.149338
0.000322052
0.149604
0.00295874
0.149344
0.00143605
0.149537
0.00343365
0.14937
0.00225662
0.149574
0.00392688
0.149469
0.0030045
0.14969
0.00435025
0.149675
0.00359331
0.149931
0.00463668
0.150017
0.00403785
0.150298
0.00479609
0.150459
0.00427099
0.150784
0.00481365
0.151021
0.00436305
0.151382
0.00473775
0.151669
0.00431855
0.152058
0.00454926
0.152387
0.00415184
0.152797
0.00428414
0.153154
0.00391756
0.153568
0.00397673
0.153933
0.00363598
0.154338
0.00363869
0.154701
0.00332385
0.00329043
0.159673
-0.000926427
0.15998
0.00179836
0.159777
0.000525358
0.160029
0.00270676
0.159849
0.00161633
0.16003
0.0032529
0.159919
0.00236671
0.160128
0.00371881
0.160095
0.00303742
0.16033
0.0041144
0.160383
0.00354105
0.160659
0.00436026
0.160802
0.00389489
0.161108
0.00449045
0.161316
0.00406222
0.161664
0.00446662
0.16194
0.00408668
0.16232
0.00435759
0.162638
0.00400023
0.163036
0.00415179
0.163383
0.00380514
0.163792
0.00387463
0.164156
0.00355331
0.164564
0.00356896
0.164929
0.0032712
0.165323
0.00324486
0.165678
0.00296856
0.00291538
0.170856
-0.000634379
0.171094
0.00156069
0.170938
0.00068129
0.171178
0.00246706
0.171073
0.00172081
0.17126
0.00306643
0.171206
0.0024204
0.171425
0.0035001
0.171458
0.00300452
0.171713
0.00385885
0.171827
0.00342727
0.172125
0.00406239
0.172321
0.00369897
0.172653
0.00415838
0.172904
0.00381086
0.173269
0.00410187
0.173578
0.00377793
0.173972
0.00396318
0.174315
0.0036576
0.174718
0.00374859
0.175075
0.00344769
0.17548
0.00346981
0.175846
0.0031875
0.176245
0.00317032
0.176605
0.00291033
0.176986
0.00286413
0.177332
0.00262319
0.00255799
0.1828
-0.000407854
0.182992
0.00136849
0.182878
0.000795101
0.183103
0.00224219
0.183065
0.001759
0.18327
0.00286175
0.183277
0.00241285
0.183512
0.00326553
0.183605
0.00291101
0.183884
0.00357963
0.184053
0.00325878
0.184373
0.00374263
0.184615
0.00345658
0.184972
0.00380104
0.185262
0.00352112
0.185641
0.00372259
0.185974
0.00344518
0.186377
0.00356039
0.186736
0.00329849
0.187142
0.0033431
0.187505
0.00308415
0.187902
0.00307253
0.188264
0.00282564
0.18865
0.00278471
0.189002
0.0025585
0.189366
0.00249945
0.189698
0.00229112
0.0022199
0.195557
-0.000235639
0.195722
0.00120348
0.19565
0.000866843
0.195863
0.00202933
0.195883
0.00173856
0.19611
0.0026351
0.196181
0.00234229
0.196437
0.00300867
0.196588
0.00276031
0.196891
0.00327643
0.197109
0.00304105
0.19745
0.00340137
0.197732
0.00317483
0.19811
0.00342326
0.198433
0.00319789
0.198824
0.00333134
0.199174
0.00309499
0.19958
0.0031549
0.199949
0.00292979
0.200352
0.00293964
0.200717
0.00271894
0.201104
0.00268551
0.201458
0.00247197
0.201827
0.00241569
0.202166
0.0022198
0.202512
0.00215351
0.202828
0.00197499
0.0019026
0.209187
-0.000109893
0.209336
0.00105517
0.209309
0.000893928
0.209515
0.00182259
0.209587
0.00166697
0.209837
0.00238537
0.209969
0.00220998
0.210251
0.00272614
0.210455
0.00255674
0.210783
0.00294856
0.211046
0.00277836
0.211407
0.00303984
0.211722
0.00285976
0.212116
0.00302995
0.212466
0.00284755
0.212867
0.00293023
0.21323
0.00273213
0.213633
0.00275145
0.214005
0.00255839
0.214401
0.0025429
0.214764
0.00235652
0.215139
0.00231046
0.215482
0.00212897
0.215832
0.00206513
0.216155
0.00189735
0.21648
0.00182852
0.216778
0.0016771
0.00160702
0.223753
-2.27474e-05
0.223893
0.000915331
0.22391
0.000876666
0.22412
0.00161257
0.224238
0.00154881
0.22451
0.0021132
0.224701
0.00201942
0.22501
0.00241727
0.225261
0.00230544
0.225613
0.00259615
0.225918
0.00247421
0.226298
0.00265924
0.226642
0.00251633
0.227045
0.00262609
0.227415
0.00247774
0.227822
0.00252323
0.228194
0.0023603
0.228592
0.00235323
0.228962
0.00218921
0.229348
0.00215669
0.229704
0.00200062
0.230065
0.00194895
0.230396
0.00179779
0.230728
0.00173321
0.231033
0.00159212
0.231337
0.001525
0.231616
0.00139819
0.00133304
0.23932
3.22228e-05
0.239457
0.000778208
0.239517
0.000816468
0.239738
0.00139212
0.2399
0.00138676
0.240195
0.00181778
0.240436
0.00177921
0.240771
0.00208143
0.241066
0.00201065
0.241443
0.00221976
0.241784
0.00213314
0.242182
0.00226062
0.242549
0.00214938
0.242961
0.00221451
0.243344
0.00209418
0.243755
0.00211309
0.244133
0.00198221
0.244525
0.00196056
0.24489
0.00182494
0.245263
0.00178332
0.245609
0.00165446
0.245956
0.00160211
0.246275
0.00147914
0.246589
0.00141879
0.246878
0.00130338
0.247161
0.00124177
0.247421
0.00113786
0.00107964
0.25596
6.04928e-05
0.2561
0.000638754
0.256199
0.000716626
0.256437
0.00115499
0.256641
0.00118199
0.256958
0.00150157
0.257241
0.00149526
0.257605
0.0017179
0.25794
0.00167592
0.258338
0.00182179
0.25871
0.00176077
0.259125
0.00184535
0.259514
0.00176109
0.259932
0.00179595
0.260326
0.00170042
0.260737
0.00170242
0.261119
0.0016003
0.261506
0.00157322
0.261865
0.00146561
0.262226
0.00142245
0.262562
0.00131894
0.262894
0.00126997
0.2632
0.00117287
0.263499
0.00112024
0.263773
0.00102928
0.264038
0.000976312
0.264282
0.000894032
0.000844528
0.273749
6.67103e-05
0.273894
0.00049345
0.27403
0.000580793
0.274286
0.00089858
0.274531
0.000936769
0.274869
0.00116382
0.275192
0.00117211
0.275582
0.00132813
0.275952
0.00130557
0.276372
0.00140241
0.276772
0.00136048
0.277204
0.00141333
0.277612
0.00135335
0.278038
0.00136983
0.27844
0.0012982
0.278851
0.00129123
0.279236
0.00121521
0.279621
0.00118896
0.279977
0.00110899
0.280329
0.00107076
0.280655
0.000992406
0.280975
0.000950519
0.28127
0.000877498
0.281556
0.000834768
0.281818
0.00076693
0.28207
0.000724751
0.2823
0.000663213
0.000624025
0.292765
5.57481e-05
0.292919
0.000339485
0.293087
0.000413073
0.293365
0.000620464
0.293645
0.000656116
0.294007
0.00080203
0.294366
0.000813808
0.294781
0.000912594
0.295185
0.00090172
0.295627
0.000960461
0.296053
0.000934152
0.296502
0.000964362
0.29693
0.000925938
0.297367
0.000932467
0.297781
0.000884523
0.298196
0.000875766
0.298586
0.000825008
0.298971
0.000804641
0.299328
0.000751669
0.299676
0.000723186
0.299998
0.00067015
0.300309
0.000638874
0.300598
0.000589076
0.300875
0.000557991
0.30113
0.000512062
0.301372
0.000482047
0.301595
0.000440497
0.00041291
0.313096
3.19989e-05
0.31326
0.000175449
0.313455
0.000217816
0.313755
0.00032086
0.314068
0.000342698
0.314456
0.000414572
0.314847
0.00042243
0.315289
0.000470366
0.315724
0.000466483
0.31619
0.000494409
0.316643
0.000481355
0.317113
0.000494974
0.317562
0.000476933
0.318016
0.000478048
0.318447
0.000453182
0.318874
0.000449042
0.319276
0.000423592
0.319668
0.00041206
0.320034
0.000385958
0.320387
0.000369915
0.320714
0.000343061
0.321027
0.000325869
0.321316
0.000299842
0.321591
0.000283051
0.321845
0.000258843
0.322084
0.000242899
0.322303
0.000221176
0.000206666
0.334832
0.335008
0.335225
0.335546
0.335889
0.336303
0.336726
0.337196
0.337663
0.338157
0.338639
0.339133
0.33961
0.340088
0.340542
0.340991
0.341414
0.341826
0.342212
0.342582
0.342925
0.343251
0.343551
0.343834
0.344093
0.344336
0.344557
)
;

boundaryField
{
    outlet
    {
        type            calculated;
        value           nonuniform 0();
    }
    upperWall
    {
        type            symmetryPlane;
        value           uniform 0;
    }
    lowerWall
    {
        type            symmetryPlane;
        value           nonuniform 0();
    }
    inlet
    {
        type            calculated;
        value           nonuniform List<scalar> 
40
(
-0.053033
-0.053033
-0.053033
-0.053033
-0.053033
-0.053033
-0.053033
-0.053033
-0.053033
-0.053033
-0.0478286
-0.051148
-0.0546978
-0.058494
-0.0625537
-0.0668951
-0.0715378
-0.0765027
-0.0818122
-0.0874902
-0.0935622
-0.100056
-0.107
-0.114426
-0.122367
-0.13086
-0.139942
-0.149655
-0.160041
-0.171148
-0.183026
-0.195729
-0.209313
-0.22384
-0.239375
-0.255988
-0.273755
-0.292754
-0.313072
-0.3348
)
;
    }
    cylinder
    {
        type            calculated;
        value           nonuniform 0();
    }
    frontAndBack
    {
        type            empty;
        value           nonuniform 0();
    }
    procBoundary4to0
    {
        type            processor;
        value           nonuniform List<scalar> 
33
(
-2.36107e-06
-2.47012e-06
-2.58915e-06
-6.13963e-07
-1.18946e-06
-1.65631e-06
-1.64757e-06
-1.76912e-06
-1.6739e-06
-1.661e-06
-1.62326e-06
-1.60262e-06
-1.61501e-06
-1.63773e-06
-1.65955e-06
-1.74625e-06
-1.73823e-06
-1.70697e-06
-1.87008e-06
-1.94091e-06
-2.04779e-06
-2.13347e-06
-2.22227e-06
-2.32192e-06
-2.40381e-06
-2.50683e-06
-2.57864e-06
-2.67198e-06
-2.72983e-06
-2.80255e-06
-2.84176e-06
-2.89325e-06
-2.92835e-06
)
;
    }
    procBoundary4to5
    {
        type            processor;
        value           nonuniform List<scalar> 
45
(
0.0384552
0.0382066
0.037667
0.0083291
0.0394404
0.038211
0.0141357
0.039073
0.0173931
0.0397302
0.00693059
0.0379842
0.0352955
0.00779413
0.0326686
0.0427154
0.0470799
0.0513473
0.0554185
0.0597446
0.0646928
0.0701628
0.0757997
0.0815573
0.0876559
0.0942639
0.101422
0.1091
0.117264
0.125913
0.13507
0.144776
0.155093
0.166053
0.177689
0.190037
0.203145
0.217073
0.23189
0.247675
0.264517
0.282521
0.301806
0.322509
0.344764
)
;
    }
}


// ************************************************************************* //
