/*--------------------------------*- C++ -*----------------------------------*\
| =========                 |                                                 |
| \\      /  F ield         | OpenFOAM: The Open Source CFD Toolbox           |
|  \\    /   O peration     | Version:                                        |
|   \\  /    A nd           | Website:  www.openfoam.com                      |
|    \\/     M anipulation  |                                                 |
\*---------------------------------------------------------------------------*/
FoamFile
{
    version     2.0;
    format      ascii;
    class       volScalarField;
    location    "63";
    object      p;
}
// * * * * * * * * * * * * * * * * * * * * * * * * * * * * * * * * * * * * * //

dimensions      [0 2 -2 0 0 0 0];


internalField   nonuniform List<scalar> 
1153
(
-0.711216
-0.711624
-0.718013
-0.704059
-0.711781
-0.679032
-0.626816
-0.572734
-0.522623
-0.477682
-0.716403
-0.708271
-0.712224
-0.710776
-0.70113
-0.663019
-0.608992
-0.552456
-0.500242
-0.453308
-0.410717
-0.371405
-0.727297
-0.726525
-0.677415
-0.706503
-0.685647
-0.639849
-0.585482
-0.531167
-0.480498
-0.434086
-0.391349
-0.351602
-0.314587
-0.279765
-0.722231
-0.726433
-0.708755
-0.694761
-0.663106
-0.615988
-0.563382
-0.510991
-0.461667
-0.416822
-0.37578
-0.337535
-0.301627
-0.267768
-0.236191
-0.2059
-0.177903
-0.74721
-0.695187
-0.730025
-0.693857
-0.645009
-0.593811
-0.54226
-0.492084
-0.444743
-0.400733
-0.360441
-0.323705
-0.289696
-0.258061
-0.228245
-0.200722
-0.174351
-0.149378
-0.126556
-0.104502
-0.810323
-0.755342
-0.730554
-0.6846
-0.627869
-0.572659
-0.521518
-0.473778
-0.428691
-0.386414
-0.347047
-0.31066
-0.277214
-0.246189
-0.217424
-0.190486
-0.166104
-0.143503
-0.121792
-0.102189
-0.815903
-0.810723
-0.736143
-0.668266
-0.607255
-0.552067
-0.501732
-0.455116
-0.411921
-0.371814
-0.334308
-0.299231
-0.266729
-0.236942
-0.209447
-0.183707
-0.159506
-0.137339
-0.116942
-0.0967857
-0.741633
-0.776378
-0.720236
-0.649688
-0.58742
-0.532261
-0.482306
-0.436212
-0.393322
-0.35376
-0.317573
-0.284365
-0.253543
-0.224922
-0.198684
-0.174977
-0.152854
-0.132003
-0.112601
-0.0940219
-0.687751
-0.715569
-0.692237
-0.631352
-0.569528
-0.513109
-0.462321
-0.416211
-0.373737
-0.334596
-0.298653
-0.265849
-0.236017
-0.208705
-0.183489
-0.160134
-0.139513
-0.120742
-0.102544
-0.0852003
-0.714667
-0.70302
-0.670159
-0.61257
-0.550821
-0.492675
-0.440092
-0.393207
-0.351133
-0.312975
-0.278184
-0.246437
-0.217613
-0.19169
-0.168342
-0.146946
-0.126818
-0.108634
-0.0918075
-0.0761719
-0.908582
-0.901533
-0.925776
-0.860314
-0.870359
-0.899477
-0.928263
-0.840003
-0.8556
-0.867611
-0.875435
-0.862629
-0.86181
-0.840642
-0.814191
-0.861686
-0.848901
-0.81137
-0.758636
-0.828203
-0.819877
-0.783549
-0.714979
-0.650206
-0.785471
-0.786136
-0.756981
-0.692639
-0.622451
-0.57077
-0.746945
-0.750838
-0.73123
-0.683577
-0.633826
-0.591991
-0.581341
-0.713859
-0.720541
-0.715254
-0.694108
-0.661793
-0.640941
-0.616772
-0.593146
-0.707254
-0.709111
-0.707697
-0.710654
-0.697978
-0.67206
-0.632169
-0.588231
-0.546449
-0.0618277
-0.0676661
-0.07338
-0.0746259
-0.0804913
-0.0464759
-0.0489058
-0.0516936
-0.0514812
-0.0556892
-0.0310857
-0.0313225
-0.0326839
-0.0315535
-0.0350023
-0.0177012
-0.0165567
-0.0168904
-0.0158447
-0.0181947
-0.00567729
-0.00344918
-0.00275489
-0.00209955
-0.0031367
-0.00411485
0.00506649
0.00785153
0.0094229
0.0100125
0.010006
0.00942049
0.0149066
0.0178504
0.0200108
0.0207453
0.0211367
0.0207495
0.0239758
0.0268739
0.029242
0.0300499
0.0304192
0.0300856
0.0321311
0.0348733
0.037223
0.0380976
0.0384734
0.0383937
0.0394289
0.0420283
0.0442692
0.0452219
0.045616
0.0457066
0.0458918
0.0483504
0.0504443
0.0513954
0.0517277
0.0518251
0.0515944
0.0539075
0.0558171
0.0567039
0.0569935
0.0570897
0.0566293
0.0587735
0.0605094
0.0613534
0.0616556
0.0617926
0.0610775
0.0630259
0.0646169
0.0654292
0.0657284
0.0658653
0.0649951
0.0667212
0.0681798
0.0689592
0.0692653
0.0694037
0.0684527
0.0699584
0.0712717
0.0720212
0.0723136
0.0724121
0.0715312
0.0728099
0.0739611
0.0746733
0.0749729
0.0751266
0.074272
0.075349
0.0763506
0.0770093
0.0772988
0.0774046
0.076707
0.0776056
0.0784359
0.078979
0.0791985
0.0792741
0.0788771
0.07963
0.0803287
0.0808017
0.0810407
0.0811859
0.0808254
0.0814557
0.0820327
0.0824044
0.0825636
0.0826047
0.0825097
0.0830036
0.0834437
0.0837099
0.083808
0.0838337
0.0839643
0.0843514
0.0847017
0.0849221
0.0850119
0.0850387
0.0852211
0.0855198
0.0857893
0.0859516
0.0859967
0.0859765
0.0862608
0.0864742
0.0866636
0.0867698
0.0867844
0.0867517
0.0871064
0.0872456
0.0873731
0.0874444
0.0874497
0.0874163
0.0877928
0.0878625
0.08793
0.0879619
0.0879478
0.0879057
0.0882944
0.0882992
0.0883116
0.0883114
0.0882919
0.0882616
0.0886115
0.0885843
0.0885659
0.088547
0.0885227
0.0884938
0.0887468
0.0887188
0.0886904
0.0886604
0.0886295
0.0885998
0.0761466
0.0782646
0.0801429
0.0813961
0.081088
0.0788184
0.0745887
0.0686568
0.0611558
0.0518891
0.0402445
0.0252895
0.00602404
-0.0184799
-0.0496133
-0.0891538
-0.13985
-0.204142
-0.284835
-0.421672
0.0563153
0.0582468
0.0579903
0.0558897
0.0523439
0.0470164
0.039624
0.0301919
0.0189125
0.00566874
-0.0102125
-0.0295599
-0.0536257
-0.0836924
-0.121406
-0.168562
-0.228089
-0.302217
-0.391013
-0.545659
0.042416
0.041633
0.0375427
0.0314555
0.024202
0.0159765
0.00623876
-0.00552981
-0.0197128
-0.036709
-0.0569901
-0.0812053
-0.110322
-0.145479
-0.188658
-0.242362
-0.309823
-0.392382
-0.486973
-0.657818
0.0281167
0.0246294
0.0171791
0.00748379
-0.00312362
-0.0143551
-0.026639
-0.040743
-0.0572128
-0.076644
-0.0998721
-0.127676
-0.16104
-0.201046
-0.249113
-0.307585
-0.381236
-0.473263
-0.572075
-0.748891
0.0105375
0.00572559
-0.00346694
-0.0155419
-0.028597
-0.0422563
-0.0569331
-0.073518
-0.0927812
-0.115268
-0.141428
-0.172
-0.208097
-0.251038
-0.302509
-0.364227
-0.440248
-0.540622
-0.643894
-0.817913
-0.00757755
-0.0138248
-0.0239135
-0.036715
-0.0510727
-0.0665245
-0.083294
-0.101966
-0.123278
-0.148043
-0.176941
-0.210521
-0.249621
-0.295396
-0.349245
-0.41266
-0.488876
-0.591621
-0.699264
-0.860764
-0.025386
-0.0338778
-0.0457436
-0.0593088
-0.0740215
-0.090239
-0.108534
-0.129335
-0.152695
-0.17912
-0.209389
-0.244289
-0.284826
-0.332318
-0.38805
-0.451997
-0.52823
-0.62571
-0.734153
-0.877188
-0.0401404
-0.0507724
-0.0643899
-0.0792997
-0.0951656
-0.112229
-0.131388
-0.153522
-0.178951
-0.207529
-0.239608
-0.275857
-0.317164
-0.36481
-0.420229
-0.484075
-0.557303
-0.645933
-0.74607
-0.867386
-0.0536401
-0.0661828
-0.0805864
-0.0959162
-0.112956
-0.131714
-0.152389
-0.175451
-0.20144
-0.230985
-0.264451
-0.302361
-0.345152
-0.39339
-0.44811
-0.509659
-0.577993
-0.655509
-0.738862
-0.831024
-0.0666094
-0.0804952
-0.0964278
-0.113169
-0.130796
-0.150482
-0.172657
-0.197514
-0.224957
-0.255113
-0.288669
-0.326419
-0.369183
-0.417379
-0.471685
-0.531698
-0.595538
-0.660284
-0.719121
-0.776348
0.276557
0.289318
0.303607
0.319395
0.336585
0.355104
0.374909
0.395964
0.418256
0.441669
0.46605
0.491052
0.516037
0.539922
0.561483
0.578351
0.588477
0.269291
0.281503
0.295475
0.310927
0.327587
0.345299
0.364063
0.383915
0.40484
0.426803
0.449519
0.472578
0.495357
0.516709
0.535084
0.547938
0.553979
0.25835
0.269753
0.283031
0.297687
0.313337
0.329804
0.347114
0.365292
0.384253
0.403787
0.423719
0.443631
0.462787
0.480024
0.493648
0.500374
0.49955
0.235935
0.243978
0.254342
0.266595
0.280026
0.294114
0.308681
0.323796
0.339603
0.356135
0.372942
0.389445
0.405012
0.419065
0.430367
0.437412
0.43643
0.426713
0.219625
0.22639
0.235613
0.246636
0.258635
0.27098
0.283392
0.295803
0.308177
0.320667
0.333299
0.345639
0.356656
0.365279
0.369861
0.368821
0.358212
0.335742
0.197934
0.20034
0.205579
0.213413
0.222869
0.233047
0.243322
0.253365
0.263137
0.272579
0.281432
0.289372
0.296077
0.300841
0.302463
0.299203
0.288953
0.266882
0.228591
0.180398
0.178112
0.1789
0.182888
0.189395
0.197138
0.204982
0.212315
0.218911
0.224871
0.230409
0.235228
0.238596
0.239783
0.238036
0.232191
0.220056
0.199448
0.165118
0.109039
0.160316
0.155138
0.154429
0.157672
0.163234
0.169305
0.174827
0.179272
0.182554
0.184808
0.186043
0.185996
0.184036
0.179115
0.170009
0.155626
0.134001
0.102451
0.0558204
-0.0187252
0.138147
0.130827
0.12907
0.131622
0.135822
0.139874
0.142685
0.144017
0.143824
0.142056
0.138697
0.133553
0.126021
0.115007
0.0989523
0.076118
0.0444788
0.00171698
-0.057485
-0.153499
0.110032
0.103812
0.103788
0.105911
0.108023
0.109077
0.108564
0.106426
0.102719
0.0972343
0.0895141
0.0791368
0.065531
0.0476957
0.0242625
-0.00662053
-0.0476031
-0.101517
-0.172327
-0.288072
0.165855
0.148166
0.134919
0.123954
0.115923
0.0990553
0.104393
0.0908907
0.0969407
0.0847292
0.0907121
0.0793151
0.0854472
0.0747745
0.0811157
0.0711227
0.0775772
0.068439
0.0749893
0.0667192
0.0731853
0.0656903
0.0720148
0.0653154
0.0714976
0.0655475
0.0715411
0.0662514
0.0720141
0.0673471
0.072855
0.0687851
0.0739572
0.0704452
0.0752261
0.0722402
0.0765996
0.0740951
0.0780395
0.0759584
0.0795056
0.0777888
0.0809528
0.079558
0.0823606
0.081247
0.0836977
0.0828277
0.084942
0.0842802
0.0860805
0.0855906
0.0871178
0.0867715
0.0880218
0.0877992
0.0887332
0.0886017
0.0891778
0.0890924
0.0898484
0.0896223
0.0903589
0.0900645
0.0751536
0.0530432
0.039598
0.0277456
0.0114692
-0.00438924
-0.0199956
-0.0329159
-0.0447536
-0.0552898
0.0732611
0.0513185
0.0358108
0.0261874
0.0126754
-0.000996411
-0.0150633
-0.0255355
-0.0349154
-0.0428292
0.0695919
0.0498436
0.0342393
0.0261329
0.0155729
0.00437752
-0.00787297
-0.0165136
-0.0239467
-0.0296518
0.0659372
0.0486593
0.0343646
0.026479
0.0181912
0.00909206
-0.00104823
-0.00853623
-0.0139102
-0.0177668
0.0626603
0.0474926
0.0350122
0.027486
0.0212219
0.0139759
0.0062426
-0.000206255
-0.00384129
-0.00643667
0.0599825
0.046666
0.0362103
0.0295865
0.0248769
0.0191054
0.0133461
0.00797685
0.00548545
0.00396912
0.0581469
0.0463558
0.0378398
0.032398
0.0287819
0.0242305
0.0199717
0.015805
0.0140968
0.0135541
0.0571354
0.0466551
0.0398847
0.035734
0.0330567
0.029576
0.0264411
0.0233995
0.0222499
0.0224242
0.0569023
0.0476409
0.0422866
0.0394086
0.0375309
0.03495
0.0326357
0.0305034
0.029823
0.0304091
0.0573906
0.0492185
0.0449977
0.0432154
0.0420774
0.0402398
0.0385299
0.0370789
0.0367586
0.0375762
0.0584511
0.0512976
0.0479749
0.0470681
0.0465757
0.0453475
0.0440935
0.0431043
0.043049
0.0439878
0.0599581
0.05376
0.0511442
0.0508697
0.0509136
0.0502041
0.0493129
0.0486225
0.0487393
0.049732
0.0618136
0.0564824
0.0544194
0.0545732
0.0550275
0.0547578
0.0541575
0.0536861
0.0538825
0.0548775
0.0639286
0.0593472
0.0577071
0.0581341
0.0588766
0.0589633
0.0586289
0.058319
0.0585371
0.0594687
0.0662091
0.0622575
0.0609331
0.0615269
0.062455
0.062817
0.0627113
0.0625311
0.0627502
0.0635687
0.0685893
0.0651697
0.0640565
0.0647154
0.06576
0.0663215
0.0664062
0.0663416
0.0665506
0.0672366
0.0709921
0.0680401
0.067045
0.0676815
0.0687814
0.0694896
0.0697302
0.0697545
0.0699497
0.070515
0.0733603
0.0708321
0.0699066
0.0704502
0.0715327
0.0723415
0.0726982
0.0727905
0.0729636
0.0734318
0.075642
0.0735073
0.072637
0.0730427
0.0740359
0.0748874
0.0753316
0.0754808
0.0756301
0.076016
0.0778133
0.0760405
0.0752264
0.0754793
0.0763249
0.0771528
0.0776523
0.077851
0.0779868
0.0783019
0.079854
0.0784063
0.0776592
0.0777694
0.078434
0.0791765
0.0796867
0.0799267
0.0800695
0.0803385
0.0817433
0.0805878
0.079921
0.0799134
0.0803927
0.08101
0.0814877
0.0817456
0.0818963
0.0821216
0.0834618
0.0825655
0.0819897
0.0818965
0.0822062
0.0826795
0.0830865
0.0833304
0.0834756
0.0836606
0.0849938
0.0843204
0.0838411
0.0836964
0.0838641
0.0841913
0.0845034
0.0847075
0.0848349
0.0849851
0.0863562
0.085868
0.0854808
0.0853084
0.0853609
0.0855483
0.085751
0.0858926
0.0859841
0.0860921
0.087541
0.0872168
0.0869231
0.0867438
0.0867059
0.0867667
0.0868531
0.086913
0.0869493
0.0870039
0.0884671
0.0882866
0.0880965
0.0879459
0.0878606
0.0878278
0.0878123
0.087788
0.0877597
0.0877552
0.0890279
0.0889407
0.0888366
0.0887367
0.0886552
0.0885886
0.0885228
0.0884484
0.0883733
0.0883175
0.0894219
0.0892465
0.089108
0.0890077
0.088938
0.0888849
0.0888335
0.088775
0.088712
0.0886544
0.0897531
0.0894652
0.0892369
0.0890731
0.0889664
0.0889014
0.088861
0.088831
0.0888032
0.0887749
)
;

boundaryField
{
    outlet
    {
        type            fixedValue;
        value           nonuniform 0();
    }
    upperWall
    {
        type            symmetryPlane;
    }
    lowerWall
    {
        type            symmetryPlane;
    }
    inlet
    {
        type            zeroGradient;
    }
    cylinder
    {
        type            zeroGradient;
    }
    frontAndBack
    {
        type            empty;
    }
    procBoundary5to1
    {
        type            processor;
        value           nonuniform List<scalar> 
20
(
-0.930715
-0.901974
-0.92282
0.279873
0.29274
0.30698
0.32271
0.339996
0.358794
0.379006
0.40052
0.423252
0.44714
0.472079
0.497757
0.523648
0.548913
0.572151
0.590451
0.601759
)
;
    }
    procBoundary5to4
    {
        type            processor;
        value           nonuniform List<scalar> 
45
(
0.265229
0.258861
0.24905
0.24905
0.22995
0.215321
0.215321
0.197886
0.197886
0.182339
0.182339
0.167193
0.152266
0.152266
0.139712
0.12692
0.115671
0.107312
0.100305
0.0942019
0.0891761
0.0849945
0.0816953
0.0793284
0.077652
0.0765765
0.0760842
0.0760303
0.0763338
0.0769218
0.077734
0.078716
0.0798089
0.0809762
0.0821618
0.0833388
0.0844763
0.0855504
0.0865492
0.0874667
0.0882686
0.0889076
0.0893212
0.0901041
0.0906255
)
;
    }
    procBoundary5to6
    {
        type            processor;
        value           nonuniform List<scalar> 
63
(
-0.436492
-0.507726
-0.436492
-0.397527
-0.334171
-0.334171
-0.298659
-0.24677
-0.24677
-0.215464
-0.18546
-0.151424
-0.151424
-0.126713
-0.104426
-0.0789109
-0.959939
-0.959939
-0.962041
-0.888058
-0.798953
-0.71248
-0.71248
-0.606418
-0.606418
-0.556568
-0.556568
-0.582281
-0.582281
-0.568724
-0.568724
-0.507726
-0.0789109
-0.053851
-0.0341894
-0.0187528
-0.0187528
-0.00305389
0.0106474
0.0214223
0.0305041
0.038827
0.0460286
0.051991
0.0572512
0.061976
0.0660048
0.0695083
0.0724606
0.0752448
0.0774075
0.079338
0.0813007
0.0825969
0.0838676
0.0850548
0.0859456
0.0867218
0.0873788
0.0878636
0.0882347
0.0884656
0.0885745
)
;
    }
}


// ************************************************************************* //
