/*--------------------------------*- C++ -*----------------------------------*\
| =========                 |                                                 |
| \\      /  F ield         | OpenFOAM: The Open Source CFD Toolbox           |
|  \\    /   O peration     | Version:                                        |
|   \\  /    A nd           | Website:  www.openfoam.com                      |
|    \\/     M anipulation  |                                                 |
\*---------------------------------------------------------------------------*/
FoamFile
{
    version     2.0;
    format      ascii;
    class       surfaceScalarField;
    location    "59.8";
    object      phi;
}
// * * * * * * * * * * * * * * * * * * * * * * * * * * * * * * * * * * * * * //

dimensions      [0 3 -1 0 0 0 0];
oriented        oriented;


internalField   nonuniform List<scalar> 
2194
(
0.0216101
0.0318133
0.0217754
0.0319673
-0.0321073
0.0220379
0.0318447
0.0195025
-0.0319664
0.0221222
0.0318822
0.0198323
-0.0317104
0.0222928
0.0315398
-0.0324776
0.0205995
0.0207367
-0.0314991
0.0226243
0.0311677
-0.0325692
0.0216696
0.0216596
-0.0313442
0.023161
0.0308074
-0.0326094
0.0229348
0.0227605
-0.0313487
0.0246533
0.0298564
-0.0324528
0.0240388
-0.0340016
0.0243093
0.0212884
-0.0312979
0.0259691
0.0299821
-0.032605
0.0253459
-0.0343408
0.0260451
0.0223241
-0.030231
0.0291084
0.0270917
-0.0328644
0.0279793
-0.0344054
0.0275861
0.0236693
-0.0014119
0.00296239
-0.00127602
0.00207172
0.00311193
0.000908039
0.00666047
-0.000606464
0.00923952
0.0102554
-0.00185649
-0.000767482
-0.00313371
0.00438914
-0.00450855
0.00803531
-0.00571092
0.0104419
-0.00636503
0.0109095
0.0093354
-0.00683966
0.0001115
-0.00834485
0.00589432
-0.00954436
0.00923482
-0.0101409
0.0110385
-0.0102729
0.0110415
-0.011249
0.0103115
0.0115839
-0.0115804
0.00108211
-0.012945
0.00725898
-0.013744
0.0100338
-0.0138623
0.0111568
-0.0144909
0.0116701
-0.0172249
0.0130455
-0.0224542
0.0168131
0.0211384
-0.0158611
0.00176225
-0.0168845
0.00828235
-0.017418
0.0105673
-0.0177776
0.0115164
-0.0197264
0.0136188
-0.0237968
0.017116
-0.028356
0.0213723
-0.031038
0.0238204
0.0221133
-0.020093
0.00217616
-0.0207595
0.00894881
-0.0213616
0.0111694
-0.0225376
0.0126923
-0.025503
0.0165842
-0.029429
0.021042
-0.03207
0.0240134
-0.0324593
0.0242096
-0.0315541
0.0212081
0.0203428
-0.0247343
0.00257983
-0.0252325
0.00944704
-0.0261135
0.0120504
-0.0278543
0.0144331
-0.030623
0.0193529
-0.0331681
0.023587
-0.0336125
0.0244578
-0.0324179
0.0230151
-0.0314728
0.020263
0.0206833
-0.0296572
0.00308436
-0.0302399
0.0100297
-0.0312332
0.0130438
-0.0325348
0.0157346
-0.034027
0.0208452
-0.0347608
0.0243208
-0.0335639
0.0232609
-0.0318721
0.0213232
-0.0314509
0.0198419
0.0211997
-0.0340871
0.00365222
-0.0347961
0.0107386
-0.0353663
0.013614
-0.035503
0.0158713
-0.0353856
0.0207279
-0.0348042
0.0237393
-0.0328738
0.0213305
-0.03123
0.0196795
-0.0312602
0.0198721
0.0217842
-0.0376179
0.00434871
-0.0380923
0.0112129
-0.0378251
0.0133468
-0.0367918
0.0148381
-0.035352
0.019288
-0.0338298
0.0222172
-0.0317091
0.0192098
-0.0304838
0.0184542
-0.0310439
0.0204321
0.0226225
-0.0404108
0.00531778
-0.0402276
0.0110297
-0.0388865
0.0120057
-0.036759
0.0127105
-0.0341113
0.0166403
-0.0321394
0.0202454
-0.0306074
0.0176778
-0.0301099
0.0179566
-0.0311825
0.0215047
0.0229798
-0.0418943
0.00654742
-0.0401349
0.00927026
-0.037253
0.00912385
-0.0348481
0.0103056
-0.0321276
0.0139198
-0.0300108
0.0181286
-0.0298174
0.0174843
-0.0298181
0.0179574
-0.0304588
0.0221454
0.0236887
-0.0441229
0.0091366
-0.0410485
0.00619581
-0.0354142
0.00348955
-0.0319748
0.00686626
-0.0306765
0.0126215
-0.0289119
0.0163639
-0.028681
0.0172534
-0.0294088
0.0186852
-0.0299358
0.0226723
0.0245604
-0.0427484
0.0126477
-0.0397115
0.00315884
-0.0336533
-0.00256865
-0.0289672
0.00218019
-0.0278637
0.011518
-0.0275546
0.0160548
-0.0270377
0.0167365
-0.0282859
0.0199334
-0.0292118
0.0235982
0.025205
-0.0314199
0.0159703
-0.0307774
0.0025163
-0.0287108
-0.0046352
-0.0262526
-0.000278019
-0.023941
0.00920634
-0.0245832
0.0166971
-0.0262871
0.0184404
-0.0276204
0.0212667
-0.0289465
0.0249243
0.0262406
-0.0241169
0.0214114
-0.0280881
0.00648752
-0.0296175
-0.00310585
-0.0277623
-0.0021332
-0.024274
0.00571809
-0.0231382
0.0155613
-0.0248698
0.020172
-0.0264709
0.0228678
-0.0278464
0.0262998
0.0275026
-0.0147835
0.0280112
-0.0224801
0.0141841
-0.027079
0.00149301
-0.0269671
-0.00224504
-0.0218037
0.000554697
-0.016381
0.0101386
-0.0163368
0.0201278
-0.0155328
0.0220638
-0.012539
0.023306
0.0270197
-0.0120561
0.0123628
0.0340616
0.00501466
0.0215323
-0.00386287
0.0103705
-0.0116736
0.00556573
-0.0166649
0.00554593
-0.0149496
0.00842327
-0.0115979
0.0167761
-0.0126567
0.0231226
-0.0118116
0.022461
0.0253315
-0.0101234
0.0367334
0.038754
0.0275953
0.0306703
0.0153908
0.022575
0.00461786
0.0163387
-0.0041759
0.0143397
-0.00913151
0.0133789
-0.00749804
0.0151426
-0.00786684
0.0234914
-0.00931766
0.0239118
0.024052
-0.00803822
0.0507802
0.0418496
0.0434688
0.0379817
0.0322862
0.0337576
0.0201794
0.0284455
0.00994342
0.0245757
0.00136009
0.0219622
-0.00245706
0.0189598
-0.00293475
0.0239691
-0.00518125
0.0261583
0.0244151
-0.00554435
0.0554991
0.043739
0.0508262
0.0426546
0.0425925
0.0419914
0.0323932
0.0386448
0.0228261
0.0341428
0.0136592
0.0311291
0.00597452
0.0266445
0.00361252
0.0263311
-0.000911969
0.0306828
0.0267055
-0.00320237
0.0571285
0.0447188
0.0543038
0.0454793
0.0487747
0.0475205
0.0404253
0.0469942
0.0314317
0.0431363
0.0232795
0.0392813
0.014972
0.034952
0.0101746
0.0311286
0.00514908
0.0357083
0.0319414
-8.68146e-05
0.0578724
0.0454984
0.0555044
0.0478473
0.0514534
0.0515714
0.0447898
0.0536579
0.037022
0.0509041
0.0298847
0.0464186
0.0215161
0.0433206
0.0161836
0.036461
0.0119776
0.0399142
0.0379823
0.00593672
0.0571443
0.046555
0.0545824
0.0504091
0.051085
0.0550689
0.0453155
0.0594273
0.0380655
0.0581541
0.0315447
0.0529394
0.0240419
0.0508234
0.0190838
0.0414191
0.0177928
0.0412053
0.0415763
0.0141988
0.0596824
0.0474024
0.0563419
0.0537497
0.0517937
0.0596172
0.0454338
0.0657871
0.0376284
0.0659595
0.0309896
0.0595782
0.0243803
0.0574328
0.0189824
0.046817
0.0197415
0.0404461
0.0419669
0.0193509
0.0684458
0.0467462
0.0652983
0.0568972
0.0600081
0.0649073
0.053012
0.0727832
0.0436892
0.0752823
0.0344989
0.0687685
0.0266742
0.0652574
0.0193969
0.0540943
0.0176244
0.0422187
0.0415959
0.0179954
0.0760919
0.0446366
0.0751796
0.0578095
0.0711898
0.0688971
0.0650631
0.0789098
0.0559399
0.0844055
0.0452439
0.0794645
0.0357276
0.0747738
0.0250835
0.0647383
0.0167182
0.050584
0.0443575
0.0139566
0.0728097
0.0415325
0.0749771
0.0556421
0.0743444
0.0695298
0.0718658
0.0813884
0.0663949
0.0898765
0.0577971
0.0880623
0.0492268
0.0833441
0.0377539
0.0762112
0.0247997
0.0635382
0.0513213
0.0178358
0.0529136
0.0387755
0.0565803
0.0519754
0.0597653
0.0663448
0.0619601
0.0791937
0.0624587
0.0893779
0.0603889
0.0901321
0.0558361
0.0878969
0.0488616
0.0831857
0.0385382
0.0738616
0.0584523
0.0314072
0.0167171
0.0370876
0.0208482
0.0478442
0.0269553
0.0602377
0.033567
0.072582
0.0406291
0.0823157
0.0457838
0.0849774
0.0470912
0.0865895
0.0476787
0.0825982
0.0447399
0.0768004
0.0626774
0.0405148
-0.0235804
0.036209
-0.0202574
0.0445212
-0.0140196
0.054
-0.00516807
0.0637305
0.00514059
0.0720071
0.0149762
0.0751418
0.0235264
0.0780393
0.0303727
0.075752
0.0340783
0.0730947
0.0642195
0.0325363
-0.0574342
0.037462
-0.0557289
0.0428159
-0.0507382
0.0490092
-0.0420735
0.0550659
-0.0307369
0.0606704
-0.019276
0.0636809
-0.00822517
0.0669884
0.00097638
0.0665504
0.009394
0.0646771
0.0618311
0.0117824
-0.0760985
0.0405571
-0.0756245
0.0423418
-0.0717373
0.045122
-0.0645293
0.0478579
-0.0551804
0.0513215
-0.0452162
0.0537168
-0.0349602
0.0567323
-0.0251426
0.0567329
-0.0160249
0.0555593
0.0554095
-0.00960328
-0.0816238
0.0429876
-0.0814157
0.0421337
-0.0781774
0.0418838
-0.0723932
0.0420737
-0.0649997
0.043928
-0.0573366
0.0460536
-0.048256
0.0476518
-0.0398406
0.0483175
-0.0319943
0.047713
0.0479748
-0.0245596
-0.0808558
0.0434433
-0.0795957
0.0408736
-0.0767619
0.03905
-0.0724657
0.0377774
-0.0666149
0.0380772
-0.0603078
0.0397465
-0.0526874
0.0400314
-0.0454155
0.0410456
-0.0384728
0.0407703
0.0412578
-0.0317558
-0.0834039
-0.079862
-0.0751948
-0.0702881
-0.0647486
-0.0588166
-0.0530862
0.0343009
-0.0475937
0.0355532
-0.0419787
0.0351552
0.0355969
-0.0363177
-0.0508514
-0.0456723
-0.0414317
-0.0379074
-0.00967276
0.0422598
-0.0446431
-0.00802171
0.0463377
-0.0479888
-0.00602483
0.0512874
-0.0532843
-0.00426168
0.0562754
-0.0580386
-0.00303397
0.0610964
-0.0623241
-0.00211179
0.0663676
-0.0672898
-0.00129016
0.0718574
-0.072679
-0.000629534
0.0773899
-0.0780505
-9.94797e-05
0.0831343
-0.0836643
0.000283586
0.0892742
-0.0896572
0.000551586
0.0959172
-0.0961852
0.000745311
0.102803
-0.102997
0.000779401
0.110203
-0.110237
0.000867202
0.117995
-0.118083
0.000908693
0.126061
-0.126103
0.000850383
0.13484
-0.134782
0.000845468
0.144135
-0.14413
0.000798734
0.153995
-0.153948
0.000723572
0.1646
-0.164525
0.00067148
0.175869
-0.175817
0.000607694
0.187901
-0.187838
0.00053953
0.200751
-0.200683
0.000471503
0.214483
-0.214415
0.000407112
0.229139
-0.229075
0.000337423
0.244807
-0.244737
0.0002697
0.261566
-0.261498
0.000203142
0.279486
-0.279419
0.000135035
0.298682
-0.298614
6.8179e-05
0.319257
-0.31919
0.341322
-0.341253
-0.00870044
0.0408368
-0.00698742
0.0446247
-0.00538877
0.0496888
-0.00379194
0.0546786
-0.00254177
0.0598462
-0.00151575
0.0653416
-0.000711978
0.0710536
-0.000149465
0.0768274
0.00022625
0.0827585
0.00047176
0.0890287
0.000703745
0.0956852
0.000824365
0.102683
0.000865839
0.110161
0.000954094
0.117907
0.000930325
0.126085
0.00088881
0.134882
0.000877233
0.144146
0.000811336
0.154061
0.000748009
0.164663
0.000692298
0.175925
0.000624923
0.187969
0.000554932
0.200821
0.000486323
0.214552
0.000419024
0.229207
0.000347064
0.244879
0.00027831
0.261635
0.000209346
0.279555
0.000139356
0.298752
7.05556e-05
0.319326
0.341392
-0.00689015
0.0396887
-0.00558255
0.0433171
-0.00409735
0.0482036
-0.00286207
0.0534433
-0.00191885
0.058903
-0.00115972
0.0645824
-0.000526738
0.0704207
2.01666e-05
0.0762805
0.000449779
0.0823289
0.00072826
0.0887502
0.000889365
0.0955241
0.000931242
0.102641
0.000981083
0.110111
0.00101554
0.117872
0.000964888
0.126136
0.000942188
0.134905
0.000904212
0.144184
0.000828979
0.154136
0.000770389
0.164722
0.000704878
0.17599
0.00063521
0.188038
0.000564194
0.200892
0.000495448
0.214621
0.000425905
0.229276
0.000353242
0.244951
0.000283928
0.261704
0.000213192
0.279626
0.000142336
0.298823
7.21998e-05
0.319396
0.341464
-0.00410704
0.0382514
-0.00342212
0.0426322
-0.00262295
0.0474044
-0.00169507
0.0525154
-0.000879282
0.0580872
-0.000253444
0.0639566
0.000176481
0.0699907
0.000450136
0.0760068
0.000648865
0.0821302
0.000795534
0.0886035
0.000908999
0.0954107
0.000977082
0.102573
0.00104572
0.110043
0.00103639
0.117882
0.000995755
0.126176
0.000972879
0.134928
0.000914719
0.144243
0.000846056
0.154205
0.000789471
0.164779
0.000720725
0.176059
0.000651154
0.188108
0.000579023
0.200964
0.000509309
0.21469
0.000436786
0.229349
0.000363377
0.245025
0.000292389
0.261775
0.000219262
0.279699
0.000147005
0.298895
7.46499e-05
0.319469
0.341539
-0.00165555
0.0367046
-0.000771263
0.0417479
-0.000234827
0.046868
4.7383e-05
0.0522332
0.000385922
0.0577487
0.000707603
0.0636349
0.000978204
0.0697201
0.00120132
0.0757837
0.0013266
0.0820049
0.00134901
0.0885811
0.00128506
0.0954746
0.00122978
0.102628
0.00118959
0.110083
0.00112412
0.117947
0.00107661
0.126224
0.00102339
0.134981
0.00094196
0.144324
0.00087085
0.154276
0.000804298
0.164845
0.000730221
0.176133
0.000659638
0.188179
0.0005873
0.201037
0.000517136
0.214761
0.000442733
0.229423
0.000369584
0.245098
0.000297251
0.261848
0.000222842
0.279773
0.000149938
0.298968
7.61454e-05
0.319542
0.341615
0.000579529
0.0360382
0.0012992
0.0410282
0.00181796
0.0463492
0.0020721
0.0519791
0.00207393
0.0577468
0.00193763
0.0637712
0.00170497
0.0699528
0.00150715
0.0759815
0.00140062
0.0821115
0.0013313
0.0886504
0.0012857
0.0955202
0.00126682
0.102647
0.00121099
0.110139
0.00115225
0.118006
0.00110204
0.126274
0.00103401
0.135049
0.000958206
0.1444
0.000892694
0.154341
0.000824106
0.164914
0.000750306
0.176207
0.000678013
0.188251
0.000604809
0.20111
0.000532158
0.214833
0.000455405
0.2295
0.000381267
0.245172
0.00030623
0.261923
0.000229929
0.279849
0.000155086
0.299043
7.87503e-05
0.319619
0.341694
0.0059422
0.0360328
0.00566401
0.0413064
0.00482675
0.0471865
0.00413416
0.0526717
0.00374338
0.0581376
0.00347012
0.0640445
0.00318844
0.0702345
0.00288518
0.0762848
0.00255672
0.0824399
0.00219816
0.089009
0.00188463
0.0958337
0.00162307
0.102908
0.00143038
0.110331
0.00129939
0.118137
0.00119373
0.12638
0.00108676
0.135156
0.000993325
0.144493
0.000913615
0.154421
0.000834747
0.164993
0.000758488
0.176283
0.000684648
0.188325
0.000612505
0.201182
0.000538217
0.214907
0.000461264
0.229577
0.000386718
0.245246
0.00031009
0.261999
0.000233394
0.279926
0.000157482
0.299119
7.99906e-05
0.319696
0.341774
0.0131748
0.0370568
0.0113608
0.0431204
0.00942134
0.049126
0.00746157
0.0546314
0.00590738
0.0596918
0.00464643
0.0653054
0.00368749
0.0711934
0.00298543
0.0769869
0.00247603
0.0829493
0.00214672
0.0893383
0.0018989
0.0960815
0.0016757
0.103132
0.00148456
0.110522
0.00134019
0.118281
0.00121252
0.126507
0.0011038
0.135264
0.0010155
0.144582
0.000936985
0.1545
0.000857814
0.165072
0.000781484
0.176359
0.000705527
0.188401
0.000631405
0.201256
0.000553516
0.214985
0.000475612
0.229655
0.000398663
0.245323
0.000319468
0.262078
0.000241067
0.280005
0.000162504
0.299197
8.26273e-05
0.319776
0.341856
0.0169879
0.0394197
0.0137609
0.0463474
0.0113729
0.051514
0.00955002
0.0564543
0.00794899
0.0612928
0.00665186
0.0666026
0.00550244
0.0723428
0.0044832
0.0780061
0.00361353
0.083819
0.00290061
0.0900512
0.00234015
0.096642
0.00193334
0.103538
0.001662
0.110794
0.00145983
0.118483
0.00128983
0.126677
0.0011531
0.135401
0.00103963
0.144695
0.000945623
0.154594
0.000861361
0.165156
0.00078474
0.176436
0.000709987
0.188475
0.000635828
0.20133
0.000557485
0.215064
0.000480242
0.229732
0.000401905
0.245402
0.000322218
0.262158
0.0002435
0.280083
0.000163867
0.299277
8.34634e-05
0.319857
0.34194
0.0163671
0.0410481
0.0143528
0.0483617
0.0121884
0.0536784
0.0103285
0.0583142
0.00864325
0.0629781
0.0071147
0.0681311
0.00580108
0.0736565
0.00468559
0.0791216
0.00378062
0.084724
0.00311488
0.090717
0.00258067
0.0971762
0.00213415
0.103985
0.00178426
0.111144
0.00152451
0.118743
0.0013318
0.12687
0.00118695
0.135546
0.00107432
0.144808
0.000980162
0.154688
0.000893846
0.165242
0.00081324
0.176517
0.000735256
0.188553
0.000656555
0.201409
0.000576058
0.215144
0.000496894
0.229811
0.000415209
0.245483
0.000333447
0.26224
0.000252029
0.280165
0.000169466
0.299359
8.63915e-05
0.31994
0.342026
0.0147149
0.0402898
0.0154371
0.0476395
0.0146032
0.0545122
0.0127242
0.0601933
0.0106307
0.0650715
0.008588
0.0701739
0.00687641
0.0753681
0.00539175
0.0806062
0.00417942
0.0859363
0.00319453
0.0917019
0.00249302
0.0978777
0.00205007
0.104428
0.00175467
0.111439
0.00152358
0.118974
0.00133508
0.127059
0.00118735
0.135694
0.00106777
0.144927
0.000973086
0.154782
0.000889502
0.165326
0.000813723
0.176592
0.000738632
0.188629
0.000660355
0.201487
0.000580743
0.215224
0.000500822
0.229891
0.000418255
0.245566
0.00033646
0.262322
0.000254105
0.280247
0.00017096
0.299443
8.71751e-05
0.320023
0.342114
0.0190382
0.0390874
0.0189145
0.0477632
0.0167337
0.0566931
0.0140457
0.0628812
0.0113989
0.0677183
0.00920072
0.0723721
0.00735904
0.0772097
0.00588632
0.082079
0.00475487
0.0870677
0.00387498
0.0925817
0.00312628
0.0986264
0.00246808
0.105086
0.00197994
0.111927
0.00163741
0.119317
0.00141084
0.127285
0.00124347
0.135861
0.00112162
0.145049
0.00102208
0.154882
0.000932554
0.165415
0.000850431
0.176674
0.00076993
0.188709
0.000687912
0.201569
0.000605832
0.215306
0.000522137
0.229975
0.000436472
0.245652
0.000351477
0.262407
0.000265175
0.280333
0.000178676
0.299529
9.10095e-05
0.320111
0.342205
0.0295486
0.040946
0.0250913
0.0522205
0.0197709
0.0620135
0.0152165
0.0674357
0.0115762
0.0713586
0.00888111
0.0750671
0.00670316
0.0793877
0.00508254
0.0836996
0.00379357
0.0883567
0.00282705
0.0935483
0.0022228
0.0992307
0.00190619
0.105403
0.00166308
0.11217
0.00146311
0.119517
0.00129498
0.127453
0.00116854
0.135988
0.0010725
0.145145
0.000992166
0.154962
0.000920047
0.165488
0.000848533
0.176746
0.000772748
0.188785
0.00069242
0.20165
0.000610748
0.215388
0.000525895
0.23006
0.000440151
0.245737
0.000354528
0.262492
0.000267491
0.28042
0.000180539
0.299616
9.18895e-05
0.3202
0.342296
0.0326399
0.048821
0.0245926
0.0602677
0.0187213
0.0678849
0.014138
0.072019
0.010809
0.0746876
0.00824577
0.0776303
0.00650111
0.0811323
0.00517064
0.0850301
0.00423877
0.0892886
0.00352553
0.0942615
0.002846
0.0999102
0.00222057
0.106028
0.00180192
0.112589
0.00153532
0.119783
0.00135874
0.12763
0.0012296
0.136117
0.00113214
0.145243
0.00104615
0.155048
0.000967435
0.165566
0.000889481
0.176824
0.000809529
0.188865
0.00072662
0.201733
0.000641679
0.215473
0.000552562
0.230149
0.000463106
0.245827
0.000372665
0.262583
0.000281339
0.280512
0.000189986
0.299707
9.66297e-05
0.320293
0.342393
0.0220078
0.0593494
0.0148197
0.0674559
0.0108727
0.0718318
0.00856602
0.0743257
0.00716502
0.0760886
0.0053641
0.0794312
0.00393528
0.0825612
0.0030023
0.085963
0.00224318
0.0900477
0.00179042
0.0947143
0.00159844
0.100102
0.00153647
0.10609
0.0014139
0.112712
0.0012736
0.119924
0.00116848
0.127735
0.00110157
0.136184
0.00105294
0.145291
0.00100353
0.155098
0.000949882
0.16562
0.000885177
0.176889
0.00081022
0.18894
0.000728657
0.201814
0.00064302
0.215558
0.000553699
0.230238
0.000464381
0.245916
0.000373509
0.262674
0.000282445
0.280603
0.000190846
0.299799
9.70978e-05
0.320387
0.34249
0.00546175
0.0656701
0.00303652
0.0698811
0.00249376
0.0723746
0.00232019
0.0744992
0.0018967
0.0765121
0.00203446
0.0792935
0.00199236
0.0826033
0.00184475
0.0861106
0.00175756
0.0901349
0.00154926
0.0949225
0.00127446
0.100377
0.00112293
0.106242
0.00109207
0.112742
0.00112082
0.119895
0.0011299
0.127726
0.00112271
0.136191
0.00109255
0.145321
0.00105113
0.155139
0.000996468
0.165675
0.000930879
0.176954
0.000854776
0.189016
0.00077154
0.201897
0.000681265
0.215648
0.000587056
0.230332
0.00049197
0.246011
0.000395255
0.26277
0.000299021
0.280699
0.000201881
0.299896
0.000102761
0.320486
0.342593
-0.00955498
0.0656218
-0.00738295
0.0677091
-0.00536644
0.0703581
-0.00363929
0.0727721
-0.00312872
0.0760015
-0.00258778
0.0787525
-0.00150988
0.0815254
-0.000942237
0.085543
-0.000230719
0.0894234
0.000362864
0.094329
0.000889994
0.0998498
0.00106907
0.106063
0.00106184
0.11275
0.00100985
0.119947
0.00101576
0.12772
0.00103081
0.136176
0.00104361
0.145309
0.00102924
0.155154
0.0009912
0.165713
0.000930661
0.177015
0.000855166
0.189091
0.000770083
0.201983
0.00067871
0.21574
0.000584986
0.230426
0.000490101
0.246106
0.000394133
0.262866
0.000298621
0.280795
0.000201751
0.299993
0.000102833
0.320585
0.342696
-0.0207417
0.0618038
-0.0162918
0.0632592
-0.0134292
0.0674955
-0.010004
0.0693468
-0.00654556
0.0725431
-0.0047062
0.0769132
-0.00369591
0.0805151
-0.00244754
0.0842946
-0.00176257
0.0887384
-0.00142388
0.0939903
-0.000989574
0.0994155
-0.000378507
0.105452
0.000187951
0.112183
0.000608494
0.119526
0.000850191
0.127478
0.000996021
0.13603
0.00105749
0.145247
0.00107067
0.15514
0.00104531
0.165738
0.000991343
0.177069
0.000916858
0.189166
0.000827753
0.202072
0.000729955
0.215838
0.000628161
0.230528
0.000525018
0.246209
0.000421871
0.262969
0.000319321
0.280897
0.000215635
0.300097
0.000109991
0.32069
0.342806
-0.0273637
0.0574117
-0.0225304
0.0584259
-0.0192842
0.0642493
-0.0157509
0.0658136
-0.0133671
0.0701593
-0.0091925
0.0727386
-0.00666117
0.0779837
-0.00416683
0.0818003
-0.00242557
0.0869971
-0.000792894
0.0923576
0.000111022
0.0985116
0.000419081
0.105143
0.00056724
0.112035
0.00072571
0.119368
0.000895247
0.127309
0.00101618
0.135909
0.0010822
0.145181
0.00109358
0.155129
0.00105848
0.165773
0.000995091
0.177132
0.00091259
0.189248
0.000819942
0.202164
0.000721247
0.215936
0.000620557
0.230629
0.000518955
0.246311
0.000417756
0.263071
0.000316575
0.280998
0.000214228
0.300199
0.000109472
0.320795
0.342915
-0.0311255
0.0522195
-0.0254016
0.052702
-0.0206286
0.0594763
-0.0151516
0.0603365
-0.014488
0.0694957
-0.0114749
0.0697256
-0.00916832
0.0756771
-0.00691229
0.0795443
-0.00525754
0.0853424
-0.00385887
0.0909589
-0.00242008
0.0970728
-0.00104456
0.103768
-7.06021e-05
0.111061
0.000487266
0.11881
0.000825078
0.126971
0.00102621
0.135708
0.00113523
0.145072
0.00116838
0.155096
0.00114929
0.165792
0.00108972
0.177192
0.00100201
0.189336
0.000898323
0.202268
0.000786799
0.216048
0.000673793
0.230742
0.000561344
0.246423
0.000450808
0.263181
0.000341058
0.281108
0.000230704
0.300309
0.000117872
0.320908
0.343033
-0.0335998
0.0479119
-0.0282517
0.047354
-0.0232359
-0.0167714
-0.012211
-0.00853728
-0.00604637
-0.00428528
-0.00256009
-0.0014737
-0.000927981
-0.000545914
-5.08366e-05
0.000494221
0.000879764
0.00110255
0.00119999
0.00120846
0.00116127
0.00108079
0.000982609
0.000876363
0.00076589
0.000655648
0.00054687
0.000439792
0.000333487
0.000226111
0.000115823
-0.0295224
0.0220221
0.0511506
0.0226405
0.0538423
0.0227357
0.0571695
0.0225161
0.0608513
0.0224614
0.0644953
0.0226098
0.0682366
0.0227399
0.0724416
0.0227974
0.0772008
0.0227775
0.0823557
0.0878764
0.0244191
0.0504008
0.0257709
0.0524904
0.0270192
0.0559213
0.0276689
0.0602015
0.0278708
0.0642935
0.0277206
0.0683868
0.0273625
0.0727996
0.026973
0.0775903
0.0265796
0.0827491
0.0261787
0.0882773
0.0256842
0.0943482
0.0250865
0.100956
0.0244383
0.107724
0.0235832
0.115133
0.0227273
0.123119
0.0218938
0.13128
0.0208373
0.14041
0.019784
0.150067
0.0186736
0.160241
0.0174463
0.171277
0.016158
0.183001
0.0147846
0.195507
0.0133159
0.208889
0.0117523
0.223192
0.0100915
0.238463
0.00831988
0.254805
0.00643435
0.272292
0.00442635
0.29101
0.0022844
0.311078
0.332591
0.0279769
0.05001
0.0281437
0.0523236
0.028366
0.055699
0.0290189
0.0595486
0.0297944
0.063518
0.0301834
0.0679979
0.0302418
0.0727412
0.0302331
0.077599
0.0300686
0.0829136
0.029664
0.0886819
0.0290837
0.0949285
0.0284196
0.10162
0.0276796
0.108464
0.0267117
0.116101
0.0258312
0.123999
0.0247984
0.132313
0.0236065
0.141602
0.0224538
0.15122
0.0211726
0.161522
0.0197923
0.172658
0.0183398
0.184453
0.0167833
0.197063
0.0151201
0.210552
0.0133503
0.224961
0.011466
0.240347
0.00945499
0.256816
0.00731458
0.274432
0.00503277
0.293292
0.00259823
0.313513
0.335189
0.0309028
0.0470865
0.0329468
0.0502796
0.0334686
0.0551773
0.0338215
0.0591956
0.0342041
0.0631354
0.0343195
0.0678825
0.0340749
0.0729858
0.0337
0.0779738
0.0333263
0.0832874
0.032902
0.0891062
0.032278
0.0955524
0.0315642
0.102334
0.0306829
0.109345
0.0296826
0.117101
0.0286962
0.124986
0.0274829
0.133526
0.0262413
0.142843
0.0249546
0.152506
0.0235132
0.162964
0.0219983
0.174173
0.0203851
0.186066
0.0186571
0.198791
0.0168132
0.212396
0.0148503
0.226924
0.0127565
0.242441
0.0105221
0.259051
0.00814265
0.276812
0.00560352
0.295831
0.00289391
0.316222
0.338083
0.0295351
0.031826
0.0337189
0.034876
0.0356873
0.03628
0.0365868
0.0365101
0.0361332
0.0355821
0.0349494
0.0342865
0.033395
0.0324131
0.0312961
0.0300402
0.0287535
0.0273116
0.0257503
0.0241063
0.0223348
0.0204429
0.0184236
0.0162728
0.0139768
0.0115289
0.00892141
0.00613887
0.00317074
)
;

boundaryField
{
    outlet
    {
        type            calculated;
        value           nonuniform 0();
    }
    upperWall
    {
        type            symmetryPlane;
        value           nonuniform 0();
    }
    lowerWall
    {
        type            symmetryPlane;
        value           uniform 0;
    }
    inlet
    {
        type            calculated;
        value           nonuniform 0();
    }
    cylinder
    {
        type            calculated;
        value           nonuniform 0();
    }
    frontAndBack
    {
        type            empty;
        value           nonuniform 0();
    }
    procBoundary2to1
    {
        type            processor;
        value           nonuniform List<scalar> 
63
(
-0.0211746
-0.0314838
-0.0322488
-0.0321325
-0.0192973
-0.0323125
-0.0322962
-0.0197197
-0.0334947
-0.0334921
-0.0337102
-0.0204349
-0.0348551
-0.0353765
-0.0357506
-0.0212403
0.00119124
0.0072237
-0.00222126
-0.00549679
-0.00772501
-0.00877697
-0.00208486
-0.00902202
-0.00667841
-0.00762164
-0.0152112
-0.016147
-0.0274455
-0.0218495
-0.0313018
-0.0204131
-0.0519324
-0.0544607
-0.0572647
-0.0606317
-0.0644406
-0.068385
-0.0725716
-0.0772584
-0.0823357
-0.0876702
0.0225713
-0.0938538
-0.100358
-0.107076
-0.114278
-0.122263
-0.130446
-0.139353
-0.149014
-0.159131
-0.17005
-0.181712
-0.194133
-0.20742
-0.221628
-0.236802
-0.253034
-0.270406
-0.289002
-0.308936
-0.330306
)
;
    }
    procBoundary2to3
    {
        type            processor;
        value           nonuniform List<scalar> 
43
(
0.0414277
0.0373316
0.0343828
0.0328708
0.0325377
0.0338146
0.057207
0.0279454
0.0303741
0.0309146
0.0320726
0.0335801
0.0544605
0.053872
0.0649353
0.0660518
0.0731862
0.0777832
0.0836172
0.0898726
0.0965271
0.103386
0.110566
0.118265
0.126585
0.135485
0.144975
0.155087
0.165839
0.177272
0.189434
0.202374
0.216158
0.230852
0.246532
0.263288
0.281214
0.300417
0.321018
0.343149
0.0438541
-0.0262063
0.0440379
)
;
    }
    procBoundary2to6
    {
        type            processor;
        value           nonuniform List<scalar> 
37
(
-0.00700304
-0.00309827
0.00134796
0.00596068
0.0106098
0.015181
0.0196791
0.0243306
0.0291527
0.0335193
0.0369214
0.0394418
0.0406647
0.0415338
0.0392374
0.0280973
0.0186758
0.00818375
-0.0184132
-0.0414258
-0.0538757
-0.0573885
-0.0581083
-0.058652
-0.0582009
-0.0605298
-0.0677896
-0.0739823
-0.0697056
-0.0501566
-0.0150291
0.024459
0.0561812
0.0730034
0.0791933
0.0804001
0.0854196
)
;
    }
}


// ************************************************************************* //
