/*--------------------------------*- C++ -*----------------------------------*\
| =========                 |                                                 |
| \\      /  F ield         | OpenFOAM: The Open Source CFD Toolbox           |
|  \\    /   O peration     | Version:                                        |
|   \\  /    A nd           | Website:  www.openfoam.com                      |
|    \\/     M anipulation  |                                                 |
\*---------------------------------------------------------------------------*/
FoamFile
{
    version     2.0;
    format      ascii;
    class       volVectorField;
    location    "88";
    object      U;
}
// * * * * * * * * * * * * * * * * * * * * * * * * * * * * * * * * * * * * * //

dimensions      [0 1 -1 0 0 0 0];


internalField   nonuniform List<vector> 
1164
(
(0.573678 -0.86775 -2.93003e-22)
(0.639221 -0.92657 -1.31809e-20)
(0.73564 -0.959798 2.00661e-20)
(0.840508 -0.984154 3.37719e-21)
(0.953583 -0.972598 1.55145e-20)
(1.0551 -0.948887 1.29518e-19)
(0.500786 -0.590705 -1.91075e-21)
(0.63374 -0.639016 2.22567e-20)
(0.788926 -0.677073 -1.71946e-20)
(0.924394 -0.726432 -4.53918e-20)
(1.05391 -0.759121 -3.67321e-20)
(1.16789 -0.784774 -2.41219e-20)
(1.25665 -0.792134 2.3892e-20)
(1.3041 -0.762492 -2.0727e-20)
(1.34277 -0.732092 5.14205e-20)
(1.24669 -0.650534 -3.15134e-20)
(0.462146 -0.183023 3.28023e-21)
(0.602892 -0.190374 -9.77758e-21)
(0.764847 -0.220879 7.82839e-21)
(0.938076 -0.257017 1.01422e-20)
(1.09325 -0.313274 -7.62333e-21)
(1.22583 -0.364896 -1.47176e-19)
(1.34242 -0.434295 -8.80303e-20)
(1.37594 -0.456143 -3.78313e-20)
(1.44201 -0.511711 -3.32564e-20)
(1.38251 -0.551705 4.41817e-20)
(0.534588 0.33068 1.89554e-22)
(0.684271 0.337206 5.97151e-21)
(0.843616 0.308184 -6.36916e-21)
(1.01099 0.279741 2.23629e-20)
(1.16573 0.201647 6.64421e-20)
(1.30621 0.149143 1.5361e-19)
(1.42666 0.0353307 4.03256e-20)
(1.48646 -0.0249734 2.50735e-20)
(1.6003 -0.0988391 -5.94028e-20)
(1.51457 -0.193158 -3.05388e-20)
(0.501666 0.623371 -3.13332e-21)
(0.614655 0.659451 -9.69596e-22)
(0.759197 0.675849 -1.89638e-20)
(0.926901 0.653784 -9.25228e-21)
(1.09905 0.60464 -2.30786e-20)
(1.25446 0.524504 -7.48537e-20)
(1.38987 0.409551 3.14999e-20)
(1.49304 0.305262 1.48714e-21)
(1.58188 0.192173 2.21989e-20)
(1.51414 0.0281158 -2.82358e-20)
(0.641565 0.803999 1.61479e-21)
(0.725202 0.813511 -8.34673e-21)
(0.815535 0.840086 3.05336e-21)
(0.920716 0.813737 2.06376e-22)
(1.01242 0.79134 -1.32332e-20)
(1.10888 0.718581 4.77057e-21)
(1.20044 0.6419 2.15526e-20)
(1.27774 0.532977 3.14658e-20)
(1.33207 0.415676 1.10683e-20)
(1.32395 0.276034 -1.06742e-21)
(0.595235 0.766608 -3.77204e-22)
(0.643014 0.761808 9.10973e-21)
(0.69908 0.740063 2.10506e-20)
(0.787502 0.720874 -1.314e-20)
(0.877764 0.68922 1.00223e-20)
(0.975712 0.650738 1.99369e-21)
(1.05864 0.6037 -1.60425e-20)
(1.12534 0.549952 1.1236e-21)
(1.17653 0.490611 2.47387e-20)
(1.21158 0.42841 2.24998e-20)
(0.530915 0.748556 1.55235e-21)
(0.586127 0.739631 -1.86489e-22)
(0.642292 0.685692 -1.78968e-21)
(0.703642 0.649579 5.497e-21)
(0.76381 0.596389 7.31663e-21)
(0.820498 0.545447 8.16737e-21)
(0.872525 0.481752 -4.17466e-21)
(0.941304 0.428297 9.0524e-21)
(0.999355 0.372606 -5.32592e-21)
(1.06871 0.329762 -1.39226e-21)
(0.452788 0.689664 -1.08581e-21)
(0.464265 0.673834 -5.32908e-21)
(0.498853 0.651608 1.01343e-22)
(0.545458 0.61823 1.27174e-21)
(0.616398 0.596595 6.13945e-21)
(0.685633 0.559955 2.81904e-21)
(0.744246 0.513897 7.87233e-21)
(0.816809 0.46784 -7.07901e-21)
(0.871822 0.401592 2.68455e-21)
(0.95933 0.340619 6.01604e-21)
(0.41984 0.283815 -4.99841e-22)
(0.406692 0.282191 1.65178e-21)
(0.440702 0.305565 -4.83016e-21)
(0.470072 0.302141 6.15629e-21)
(0.527526 0.335974 -9.45688e-21)
(0.568741 0.347196 -4.14204e-21)
(0.58443 0.358005 4.07159e-21)
(0.627617 0.370409 -4.69461e-22)
(0.647163 0.359409 4.98616e-21)
(0.74226 0.331904 -3.22249e-23)
(0.485587 -0.0489595 5.5856e-22)
(0.473985 -0.0024892 1.42306e-22)
(0.49467 0.0427708 -4.92057e-21)
(0.520861 0.0713968 2.4164e-21)
(0.58568 0.12645 7.45432e-21)
(0.62297 0.150951 -2.03598e-21)
(0.667916 0.200191 -2.80738e-21)
(0.713301 0.242276 -3.28643e-21)
(0.701926 0.284078 -1.1851e-21)
(0.712649 0.328003 3.9307e-21)
(0.600564 -0.44482 -8.0582e-22)
(0.580212 -0.396602 4.47698e-21)
(0.553039 -0.401246 1.18372e-21)
(0.569131 -0.347113 -1.46208e-20)
(0.594038 -0.32572 3.49603e-22)
(0.605424 -0.265135 -3.79311e-21)
(0.653638 -0.214695 1.20848e-21)
(0.688396 -0.131653 -1.27386e-21)
(0.725644 -0.0709714 -5.07453e-22)
(0.77104 0.0639495 -1.16112e-21)
(0.601087 -0.609004 9.73417e-22)
(0.578645 -0.600129 -2.34215e-21)
(0.588296 -0.619392 1.29461e-21)
(0.618643 -0.60043 9.92228e-21)
(0.645675 -0.632663 5.07664e-21)
(0.699426 -0.586486 5.05672e-21)
(0.741929 -0.609393 1.2673e-21)
(0.781744 -0.538941 -6.74668e-22)
(0.837612 -0.525287 2.00655e-21)
(0.858031 -0.429725 7.44928e-21)
(0.578178 -0.71163 -1.03644e-21)
(0.534416 -0.719133 4.22627e-21)
(0.558678 -0.716359 7.56732e-21)
(0.549181 -0.734896 -2.38322e-21)
(0.598986 -0.727191 -1.12001e-20)
(0.624491 -0.7469 6.78044e-21)
(0.675036 -0.745547 6.67815e-21)
(0.735853 -0.755755 -1.02237e-20)
(0.780312 -0.757793 -2.51005e-21)
(0.842698 -0.746908 1.24815e-20)
(0.580619 -0.659373 7.80179e-22)
(0.570843 -0.641266 -3.8814e-21)
(0.593747 -0.636674 -1.31207e-21)
(0.597252 -0.634926 1.27139e-21)
(0.644955 -0.612631 1.24491e-20)
(0.651834 -0.639463 -6.14159e-21)
(0.717674 -0.596952 5.84359e-21)
(0.732739 -0.658505 1.07892e-20)
(0.813114 -0.603449 -1.79365e-20)
(0.840062 -0.679975 1.45999e-20)
(0.644107 -0.243746 2.86728e-23)
(0.657648 -0.203325 -6.18589e-23)
(0.690951 -0.193486 -1.29959e-20)
(0.732217 -0.166557 3.18064e-21)
(0.789181 -0.148581 8.05388e-21)
(0.845043 -0.141667 2.73314e-21)
(0.918022 -0.10462 -1.61058e-20)
(0.966301 -0.128678 1.60329e-20)
(1.04185 -0.0713808 1.5275e-20)
(1.06368 -0.140305 -1.98132e-20)
(0.730611 0.0688205 2.76618e-22)
(0.755388 0.101115 -9.91237e-23)
(0.788136 0.121449 1.20737e-20)
(0.833713 0.144618 -1.14327e-20)
(0.879493 0.166149 -5.2107e-21)
(0.942373 0.175922 1.10274e-20)
(1.00152 0.194507 1.50516e-21)
(1.07309 0.180089 -1.08116e-20)
(1.13648 0.201423 3.63383e-21)
(1.20361 0.160284 -7.69083e-21)
(0.788557 0.509541 -5.23148e-22)
(0.833556 0.504855 -1.11767e-21)
(0.867328 0.51747 -2.52272e-21)
(0.917216 0.502777 3.03198e-21)
(0.95443 0.507646 -7.71615e-21)
(1.00599 0.484262 -1.55515e-20)
(1.03986 0.480314 -1.14684e-20)
(1.0838 0.444154 -5.44863e-21)
(1.11133 0.435532 -3.48235e-21)
(1.15648 0.385701 -7.07816e-21)
(0.779331 0.70276 -4.82581e-22)
(0.818834 0.691854 3.49354e-21)
(0.848682 0.705663 -9.12166e-22)
(0.896199 0.693071 3.34094e-21)
(0.93614 0.696593 -7.23085e-22)
(0.986996 0.679946 8.9596e-22)
(1.02651 0.675472 1.3523e-20)
(1.06844 0.661093 -2.28396e-22)
(1.08677 0.646121 -6.11568e-21)
(1.10962 0.620151 2.71269e-21)
(0.754902 0.593638 3.07394e-22)
(0.783588 0.594464 -1.15479e-21)
(0.805135 0.601483 -3.11839e-21)
(0.834064 0.600231 -2.85838e-21)
(0.858557 0.591483 -3.69833e-22)
(0.896588 0.585865 8.94876e-21)
(0.928041 0.563708 -8.37307e-21)
(0.971449 0.560539 3.80267e-21)
(1.00216 0.536365 8.9272e-21)
(1.03416 0.519398 4.00087e-21)
(0.833409 0.344515 1.97715e-22)
(0.828109 0.364852 -3.40156e-22)
(0.815886 0.374223 3.19402e-21)
(0.811052 0.392853 4.79606e-21)
(0.80144 0.393057 -3.28285e-21)
(0.805717 0.407999 1.93862e-21)
(0.80752 0.398837 4.80006e-21)
(0.830928 0.407268 6.4085e-21)
(0.851165 0.3955 -4.18383e-21)
(0.877023 0.401875 -1.30176e-21)
(0.920329 -0.328049 9.2182e-23)
(0.900849 -0.31456 -1.20261e-22)
(0.875596 -0.31272 -1.6319e-21)
(0.851049 -0.291063 -6.84287e-21)
(0.819322 -0.292747 4.51731e-21)
(0.799656 -0.262692 -3.15912e-21)
(0.77848 -0.266576 -2.24823e-21)
(0.769924 -0.233606 -5.28543e-21)
(0.769431 -0.233844 -1.166e-21)
(0.770807 -0.201896 1.31642e-21)
(0.927527 -0.638024 3.6589e-22)
(0.897202 -0.638236 -7.07967e-22)
(0.873592 -0.63462 -4.58124e-22)
(0.843375 -0.630469 6.47984e-21)
(0.820872 -0.626767 -3.71943e-21)
(0.796338 -0.62183 1.33181e-21)
(0.784561 -0.61839 2.9488e-21)
(0.765922 -0.616578 -9.55211e-22)
(0.755474 -0.615185 -4.21604e-22)
(0.748518 -0.608603 -5.45998e-21)
(0.885711 -0.59177 -7.12884e-24)
(0.863118 -0.586069 1.54479e-22)
(0.845888 -0.570633 -1.46721e-21)
(0.821358 -0.560219 -2.24665e-22)
(0.804763 -0.540276 -1.32706e-21)
(0.783101 -0.527393 -3.60769e-21)
(0.77617 -0.503277 2.35731e-21)
(0.763934 -0.49411 1.04721e-22)
(0.772543 -0.462487 3.88961e-21)
(0.772112 -0.456898 5.51917e-21)
(0.97703 -0.398047 3.68226e-23)
(0.978353 -0.385359 -1.44934e-21)
(0.98233 -0.370086 1.58046e-21)
(0.980132 -0.355789 -1.56074e-21)
(0.981766 -0.335084 2.18907e-21)
(0.979255 -0.320465 3.80112e-21)
(0.982706 -0.295445 -4.31163e-21)
(0.983502 -0.284477 -1.75819e-22)
(0.996302 -0.256678 -1.43082e-21)
(1.00815 -0.249505 -4.12736e-21)
(1.00889 0.469263 9.82405e-24)
(1.02185 0.464838 6.84349e-22)
(1.02931 0.457139 3.97213e-22)
(1.03815 0.447123 2.27308e-22)
(1.04221 0.442334 5.95212e-22)
(1.04754 0.432029 -2.19062e-21)
(1.04908 0.42899 -9.56285e-23)
(1.05225 0.410921 -1.06266e-21)
(1.0558 0.404389 -1.36265e-22)
(1.06219 0.38326 -1.13002e-22)
(0.963771 0.876477 1.72822e-22)
(0.977798 0.867084 -5.32538e-22)
(0.983017 0.855687 -5.56111e-24)
(0.991661 0.841549 -1.3342e-21)
(0.992105 0.827678 1.94692e-21)
(0.996726 0.812807 3.5359e-22)
(0.995885 0.79746 1.96116e-21)
(1.00081 0.782634 3.69681e-22)
(1.00026 0.763904 2.25344e-22)
(1.00439 0.746251 1.70656e-21)
(0.890059 0.0725823 -2.50129e-22)
(0.895264 0.0642594 3.66122e-23)
(0.896406 0.0539346 8.66084e-22)
(0.89948 0.0452797 5.77905e-23)
(0.897813 0.0337107 5.51583e-22)
(0.897658 0.0251904 -1.73973e-21)
(0.892818 0.013431 -2.6986e-22)
(0.888594 0.00492004 4.03204e-22)
(0.883408 -0.00480873 -6.29104e-23)
(0.876824 -0.0176708 -2.83539e-22)
(0.873985 -0.396011 -4.40109e-23)
(0.868027 -0.403655 -7.50033e-23)
(0.861223 -0.410698 -1.03908e-22)
(0.85363 -0.419891 5.5399e-22)
(0.84529 -0.426805 -3.97297e-22)
(0.836847 -0.437092 3.95159e-22)
(0.828156 -0.442924 -5.83526e-22)
(0.819462 -0.453964 2.79951e-22)
(0.812074 -0.45897 -1.22108e-22)
(0.805521 -0.470434 2.45158e-22)
(0.797902 -0.146165 8.96748e-24)
(0.792679 -0.152264 -1.83681e-23)
(0.787587 -0.157847 1.42277e-23)
(0.782093 -0.164286 4.29693e-23)
(0.777052 -0.169183 -7.26471e-23)
(0.772279 -0.175782 4.464e-23)
(0.768217 -0.179548 -3.82207e-23)
(0.764811 -0.186132 9.11347e-23)
(0.762615 -0.188455 1.95487e-23)
(0.7616 -0.19449 -7.48182e-23)
(1.19159 -0.357338 0)
(1.12734 -0.244659 0)
(1.00858 -0.187024 0)
(0.969948 -0.143528 0)
(0.979928 -0.112371 0)
(0.996452 -0.0890563 0)
(1.01863 -0.0694942 0)
(1.02264 -0.0598327 0)
(1.02664 -0.0465902 0)
(1.02864 -0.0403892 0)
(1.02927 -0.0309068 0)
(1.02911 -0.0236693 0)
(1.02625 -0.0165746 0)
(1.02388 -0.0123728 0)
(1.02164 -0.00941311 0)
(1.02016 -0.00790446 0)
(1.0196 -0.00632385 0)
(1.01982 -0.00506991 0)
(1.02005 -0.00388786 0)
(1.02009 -0.0029351 0)
(1.01998 -0.00217974 0)
(1.01969 -0.00167151 0)
(1.01928 -0.00144709 0)
(1.0188 -0.00130982 0)
(1.01834 -0.00122646 0)
(1.01796 -0.000956533 0)
(1.0177 -0.000591074 0)
(1.01754 -0.00025403 0)
(1.3936 -0.454564 0)
(1.38655 -0.417584 0)
(1.36899 -0.364277 0)
(1.25016 -0.294508 0)
(1.13197 -0.275212 0)
(1.06251 -0.205051 0)
(1.05935 -0.174649 0)
(1.05099 -0.10924 0)
(1.04441 -0.085115 0)
(1.04096 -0.0482336 0)
(1.04007 -0.0330825 0)
(1.0332 -0.0159932 0)
(1.03109 -0.00991601 0)
(1.02601 -0.00537267 0)
(1.02463 -0.00374871 0)
(1.02314 -0.00213486 0)
(1.02272 -0.00101356 0)
(1.02247 0.000235124 0)
(1.02213 0.000638636 0)
(1.02126 0.000708806 0)
(1.02033 0.000320563 0)
(1.01948 -0.000255959 0)
(1.01876 -0.000838158 0)
(1.01822 -0.00123705 0)
(1.0178 -0.00134825 0)
(1.01748 -0.00120612 0)
(1.01717 -0.00106937 0)
(1.01685 -0.000829444 0)
(1.01658 -0.000535746 0)
(1.0164 -0.000239687 0)
(1.50154 -0.16916 0)
(1.45678 -0.17763 0)
(1.36604 -0.15156 0)
(1.24149 -0.159883 0)
(1.15111 -0.145745 0)
(1.12048 -0.127452 0)
(1.1168 -0.0883851 0)
(1.11666 -0.0822855 0)
(1.0935 -0.0615113 0)
(1.07947 -0.0534701 0)
(1.05794 -0.043148 0)
(1.04974 -0.0354597 0)
(1.03757 -0.0280392 0)
(1.03225 -0.0203109 0)
(1.02668 -0.0140566 0)
(1.02412 -0.00965791 0)
(1.02204 -0.00676285 0)
(1.02067 -0.00551715 0)
(1.0197 -0.00465314 0)
(1.01946 -0.00414392 0)
(1.01956 -0.0035969 0)
(1.01967 -0.00295499 0)
(1.01972 -0.00235885 0)
(1.01959 -0.00195002 0)
(1.01929 -0.00177629 0)
(1.01892 -0.00163177 0)
(1.01856 -0.00147528 0)
(1.01826 -0.00112161 0)
(1.01805 -0.000681227 0)
(1.01792 -0.000280711 0)
(1.54111 -0.0242428 0)
(1.48806 -0.0430818 0)
(1.40364 -0.0655256 0)
(1.29403 -0.0929557 0)
(1.20906 -0.0621132 0)
(1.18793 -0.061982 0)
(1.1295 -0.0144075 0)
(1.10671 -0.0264722 0)
(1.08687 0.000959522 0)
(1.07523 -0.00507886 0)
(1.06492 0.0052663 0)
(1.05334 0.00236919 0)
(1.04864 0.00378771 0)
(1.04185 0.000927851 0)
(1.03694 -0.000617332 0)
(1.03107 -0.00184206 0)
(1.02675 -0.00230053 0)
(1.02408 -0.00208565 0)
(1.02264 -0.00170178 0)
(1.02157 -0.00130074 0)
(1.02053 -0.0012196 0)
(1.01956 -0.00145159 0)
(1.01874 -0.00175758 0)
(1.01816 -0.0018907 0)
(1.01778 -0.00179703 0)
(1.01752 -0.00153011 0)
(1.01725 -0.00132354 0)
(1.01698 -0.00103502 0)
(1.01677 -0.000674525 0)
(1.01663 -0.000286357 0)
(1.3604 0.153703 0)
(1.31114 0.145439 0)
(1.28154 0.0462675 0)
(1.25118 0.0439825 0)
(1.22944 0.00966415 0)
(1.21226 0.00728267 0)
(1.18709 -0.0213118 0)
(1.14483 -0.00877753 0)
(1.12215 -0.0263042 0)
(1.08494 -0.0162549 0)
(1.06491 -0.0211377 0)
(1.04935 -0.016128 0)
(1.03383 -0.015075 0)
(1.02501 -0.0111692 0)
(1.02098 -0.0085555 0)
(1.0203 -0.00558633 0)
(1.02093 -0.00351203 0)
(1.0208 -0.00242713 0)
(1.02015 -0.0021245 0)
(1.01964 -0.0023827 0)
(1.01943 -0.00254864 0)
(1.01948 -0.00240265 0)
(1.01957 -0.00216747 0)
(1.01951 -0.00203117 0)
(1.01931 -0.00201796 0)
(1.01905 -0.00190303 0)
(1.0188 -0.00168785 0)
(1.01861 -0.00126966 0)
(1.01847 -0.000765407 0)
(1.01838 -0.0003035 0)
(1.24223 0.343288 0)
(1.19435 0.336225 0)
(1.19761 0.249788 0)
(1.16384 0.242809 0)
(1.15075 0.188105 0)
(1.09885 0.174985 0)
(1.11343 0.124036 0)
(1.0806 0.127993 0)
(1.09016 0.0803044 0)
(1.07599 0.0687825 0)
(1.06829 0.0484344 0)
(1.05964 0.0326176 0)
(1.05595 0.0236894 0)
(1.05318 0.0139426 0)
(1.04549 0.00831203 0)
(1.03749 0.00364807 0)
(1.02985 9.01793e-05 0)
(1.02493 -0.00182689 0)
(1.02246 -0.00270837 0)
(1.02122 -0.00268294 0)
(1.02035 -0.00257152 0)
(1.01951 -0.00265348 0)
(1.01877 -0.00269601 0)
(1.01827 -0.00253525 0)
(1.01796 -0.00222862 0)
(1.01771 -0.00185139 0)
(1.01747 -0.00159396 0)
(1.01722 -0.00125834 0)
(1.01703 -0.000819303 0)
(1.01692 -0.000333786 0)
(1.12089 0.271979 0)
(1.03622 0.238609 0)
(1.07734 0.191197 0)
(1.0499 0.161376 0)
(1.11671 0.120606 0)
(1.05845 0.0879461 0)
(1.09912 0.051117 0)
(1.05511 0.0522258 0)
(1.03734 0.0260298 0)
(1.02747 0.0299653 0)
(1.02278 0.0167669 0)
(1.01477 0.0143691 0)
(1.01015 0.00898457 0)
(1.00459 0.00429198 0)
(1.00808 0.00213333 0)
(1.0127 9.83058e-05 0)
(1.01741 0.000450045 0)
(1.02011 0.00035779 0)
(1.02085 0.000158143 0)
(1.02075 -0.000552016 0)
(1.02053 -0.00117144 0)
(1.02042 -0.00140415 0)
(1.02035 -0.00158083 0)
(1.02016 -0.00181411 0)
(1.01985 -0.00201849 0)
(1.01958 -0.00197296 0)
(1.01935 -0.00174477 0)
(1.01918 -0.00130868 0)
(1.01904 -0.000793946 0)
(1.01894 -0.000309351 0)
(1.04153 0.260634 0)
(1.02124 0.235575 0)
(1.07596 0.202962 0)
(1.01607 0.196239 0)
(1.02912 0.175594 0)
(0.970111 0.163039 0)
(1.05808 0.123392 0)
(1.04328 0.101969 0)
(1.05942 0.0676496 0)
(1.05298 0.0589413 0)
(1.04979 0.0348763 0)
(1.04792 0.0299503 0)
(1.04776 0.0180541 0)
(1.04861 0.0145217 0)
(1.04206 0.00825135 0)
(1.03484 0.00536054 0)
(1.02804 0.00113925 0)
(1.02315 -0.00123791 0)
(1.02049 -0.00270784 0)
(1.0194 -0.00320435 0)
(1.0188 -0.00332977 0)
(1.01838 -0.003407 0)
(1.01806 -0.00325858 0)
(1.01789 -0.00284133 0)
(1.01783 -0.0024029 0)
(1.01774 -0.00200854 0)
(1.01761 -0.00175423 0)
(1.01745 -0.0014017 0)
(1.01734 -0.000910474 0)
(1.01729 -0.000361693 0)
(0.838166 0.270137 0)
(0.881664 0.215939 0)
(0.984595 0.177704 0)
(0.99011 0.124306 0)
(1.04224 0.116761 0)
(0.980341 0.10728 0)
(0.98788 0.124267 0)
(0.968322 0.112841 0)
(0.971615 0.104357 0)
(0.982516 0.0765871 0)
(0.984207 0.0643851 0)
(0.986836 0.0437991 0)
(0.987851 0.0353377 0)
(0.989811 0.0218902 0)
(0.998646 0.0155557 0)
(1.00715 0.00792934 0)
(1.01348 0.00503499 0)
(1.01773 0.00274495 0)
(1.01998 0.00154735 0)
(1.02087 0.000605902 0)
(1.0211 -2.59892e-05 0)
(1.02107 -0.000466375 0)
(1.02085 -0.000975898 0)
(1.02052 -0.0015476 0)
(1.02019 -0.00192985 0)
(1.01996 -0.00192389 0)
(1.01983 -0.0016977 0)
(1.01973 -0.00128337 0)
(1.01963 -0.000795659 0)
(1.01955 -0.000310912 0)
(0.708197 0.302158 0)
(0.716293 0.275619 0)
(0.787999 0.243668 0)
(0.84436 0.196997 0)
(0.950726 0.152517 0)
(0.972215 0.0861814 0)
(1.03015 0.0415317 0)
(0.998063 0.00548115 0)
(0.978137 -0.00806562 0)
(0.983854 -0.00871534 0)
(0.996326 -0.0176488 0)
(1.01021 -0.0153577 0)
(1.01899 -0.0198773 0)
(1.02288 -0.0145903 0)
(1.02135 -0.0130036 0)
(1.01932 -0.00814844 0)
(1.01898 -0.00637074 0)
(1.01793 -0.00484299 0)
(1.01723 -0.00422346 0)
(1.0167 -0.00400645 0)
(1.01656 -0.00396644 0)
(1.01661 -0.00385844 0)
(1.01687 -0.0034672 0)
(1.0172 -0.00288522 0)
(1.01748 -0.00244001 0)
(1.01761 -0.00213063 0)
(1.01765 -0.00191201 0)
(1.01766 -0.00154042 0)
(1.01768 -0.000993772 0)
(1.01769 -0.000383654 0)
(0.766881 0.109633 0)
(0.767716 0.146641 0)
(0.79569 0.188956 0)
(0.834879 0.238811 0)
(0.810784 0.260256 0)
(0.740522 0.246341 0)
(0.799849 0.199233 0)
(0.869438 0.13255 0)
(0.933398 0.097097 0)
(0.953607 0.0695213 0)
(0.966829 0.0516004 0)
(0.977205 0.0429994 0)
(0.99073 0.0369992 0)
(1.00354 0.0285749 0)
(1.01319 0.0224054 0)
(1.01946 0.0146726 0)
(1.02047 0.00913995 0)
(1.02175 0.00500918 0)
(1.02239 0.00246924 0)
(1.02298 0.0013364 0)
(1.02303 0.000613343 0)
(1.02268 -3.76144e-05 0)
(1.02203 -0.000862423 0)
(1.0214 -0.00162154 0)
(1.02093 -0.002028 0)
(1.02067 -0.00197403 0)
(1.02055 -0.00172754 0)
(1.02043 -0.00133404 0)
(1.02031 -0.000854547 0)
(1.02023 -0.000334071 0)
(0.886977 -0.367906 0)
(0.927125 -0.340904 0)
(0.953878 -0.296131 0)
(0.984896 -0.268796 0)
(0.962884 -0.233685 0)
(0.874464 -0.208716 0)
(0.79737 -0.134266 0)
(0.82737 -0.0930798 0)
(0.885344 -0.0691314 0)
(0.933195 -0.0791828 0)
(0.964694 -0.0652097 0)
(0.990672 -0.0711876 0)
(0.994244 -0.0606484 0)
(0.995297 -0.050999 0)
(0.996614 -0.0379284 0)
(0.999875 -0.0271956 0)
(1.00626 -0.017541 0)
(1.01038 -0.0114054 0)
(1.01268 -0.00718233 0)
(1.01367 -0.00549095 0)
(1.01428 -0.00458082 0)
(1.01501 -0.00394667 0)
(1.01589 -0.00327938 0)
(1.01669 -0.00271891 0)
(1.01725 -0.0024527 0)
(1.01759 -0.00231462 0)
(1.01781 -0.00213385 0)
(1.01799 -0.00171135 0)
(1.01814 -0.0010906 0)
(1.01823 -0.000408471 0)
(0.905631 -0.724288 0)
(0.930403 -0.688593 0)
(0.974195 -0.682433 0)
(0.994415 -0.669937 0)
(1.02728 -0.630741 0)
(1.01079 -0.548364 0)
(0.98193 -0.408073 0)
(0.972827 -0.265605 0)
(0.958377 -0.174993 0)
(0.966941 -0.0961531 0)
(0.987181 -0.0535861 0)
(0.999848 -0.0141016 0)
(1.0316 0.0020784 0)
(1.04433 0.0126398 0)
(1.04958 0.012953 0)
(1.04623 0.0129446 0)
(1.03944 0.00893329 0)
(1.03347 0.00615505 0)
(1.02953 0.00315119 0)
(1.02699 0.00170739 0)
(1.02527 0.000466797 0)
(1.02377 -0.000700812 0)
(1.02252 -0.00178231 0)
(1.02167 -0.0024637 0)
(1.02128 -0.00265526 0)
(1.02116 -0.00242786 0)
(1.02115 -0.00209102 0)
(1.02111 -0.00164988 0)
(1.02107 -0.00108221 0)
(1.02103 -0.000414795 0)
(0.892042 -0.625872 0)
(0.98491 -0.577164 0)
(1.09042 -0.560707 0)
(1.1973 -0.499082 0)
(1.30716 -0.45697 0)
(1.3524 -0.378257 0)
(1.35782 -0.317842 0)
(1.28268 -0.236452 0)
(1.21582 -0.202239 0)
(1.1312 -0.141142 0)
(1.08924 -0.117473 0)
(1.0627 -0.0783839 0)
(1.02457 -0.0589137 0)
(1.00413 -0.0406811 0)
(0.994313 -0.0275103 0)
(0.994064 -0.0204471 0)
(0.997637 -0.0133635 0)
(1.00237 -0.00951386 0)
(1.00607 -0.00630375 0)
(1.00899 -0.00491061 0)
(1.01118 -0.00403394 0)
(1.01311 -0.0033569 0)
(1.01475 -0.00295165 0)
(1.01601 -0.00285175 0)
(1.01685 -0.00297633 0)
(1.01746 -0.00298124 0)
(1.01797 -0.00273342 0)
(1.01841 -0.00214644 0)
(1.01874 -0.00134856 0)
(1.01892 -0.000493832 0)
(1.15649 -0.0627731 0)
(1.23578 -0.0340768 0)
(1.30627 0.018404 0)
(1.36594 0.0467709 0)
(1.37616 0.0692133 0)
(1.38919 0.0619019 0)
(1.31709 0.0601924 0)
(1.26424 0.0288358 0)
(1.19202 0.0216789 0)
(1.15272 -0.00590942 0)
(1.11414 0.0109765 0)
(1.10314 -0.00979414 0)
(1.09286 -0.00259778 0)
(1.08912 -0.00450696 0)
(1.07593 -0.00310927 0)
(1.06417 0.00071748 0)
(1.05342 0.00116967 0)
(1.0441 0.00176607 0)
(1.03667 0.000442451 0)
(1.03093 -0.000878373 0)
(1.02692 -0.00234207 0)
(1.0242 -0.00366491 0)
(1.02259 -0.00442411 0)
(1.02188 -0.00452499 0)
(1.02176 -0.00420029 0)
(1.02186 -0.00366459 0)
(1.02197 -0.00312434 0)
(1.02202 -0.00246708 0)
(1.02205 -0.00161093 0)
(1.02207 -0.000599677 0)
(1.27319 0.166229 0)
(1.32273 0.17279 0)
(1.37524 0.182397 0)
(1.38912 0.166679 0)
(1.39809 0.172374 0)
(1.36179 0.126999 0)
(1.27896 0.132907 0)
(1.2336 0.0807922 0)
(1.14559 0.0977024 0)
(1.14268 0.058889 0)
(1.09301 0.0743068 0)
(1.06141 0.0587554 0)
(1.04326 0.061159 0)
(1.01352 0.046256 0)
(1.00719 0.0404317 0)
(1.00203 0.0260783 0)
(0.999193 0.0178962 0)
(0.999909 0.00956704 0)
(1.00254 0.00458989 0)
(1.00635 0.00132072 0)
(1.00989 -0.000641022 0)
(1.01271 -0.00180245 0)
(1.01475 -0.00283185 0)
(1.01612 -0.00372911 0)
(1.0171 -0.00429815 0)
(1.01794 -0.00427457 0)
(1.01872 -0.00377552 0)
(1.01936 -0.00289547 0)
(1.01981 -0.00180649 0)
(1.02003 -0.000649603 0)
(1.19117 0.340982 0)
(1.22157 0.330632 0)
(1.24545 0.274269 0)
(1.25348 0.253607 0)
(1.27073 0.186264 0)
(1.21625 0.162545 0)
(1.21665 0.0985938 0)
(1.17542 0.0965756 0)
(1.14514 0.0545713 0)
(1.10032 0.0575837 0)
(1.10145 0.00551905 0)
(1.07414 0.0117365 0)
(1.06157 -0.0203494 0)
(1.05332 -0.0154555 0)
(1.04184 -0.023018 0)
(1.03306 -0.0176838 0)
(1.03097 -0.015834 0)
(1.02842 -0.0124701 0)
(1.02601 -0.0105215 0)
(1.02343 -0.00978734 0)
(1.02151 -0.00940844 0)
(1.02063 -0.0091064 0)
(1.02063 -0.00841464 0)
(1.02122 -0.00743285 0)
(1.02194 -0.00647682 0)
(1.02253 -0.00559513 0)
(1.02296 -0.00475211 0)
(1.02326 -0.0036956 0)
(1.02349 -0.00236485 0)
(1.02363 -0.000853762 0)
(1.11694 0.583004 0)
(1.12421 0.583915 0)
(1.11588 0.53731 0)
(1.10429 0.53921 0)
(1.08959 0.468509 0)
(1.0681 0.463569 0)
(1.10058 0.38318 0)
(1.06064 0.375636 0)
(1.07905 0.303821 0)
(1.00514 0.287751 0)
(1.04216 0.220377 0)
(1.01361 0.194545 0)
(1.01552 0.152894 0)
(1.01151 0.117931 0)
(1.01282 0.0883623 0)
(1.0147 0.0628825 0)
(1.01094 0.0423351 0)
(1.00954 0.0266325 0)
(1.00929 0.0142924 0)
(1.01058 0.00632986 0)
(1.01245 0.000821803 0)
(1.01407 -0.00272979 0)
(1.0154 -0.00512229 0)
(1.01655 -0.0064857 0)
(1.01772 -0.00683441 0)
(1.01892 -0.00631834 0)
(1.02002 -0.00531101 0)
(1.02088 -0.00400151 0)
(1.02143 -0.00250393 0)
(1.0217 -0.000890253 0)
(1.04304 0.490813 0)
(1.04161 0.47071 0)
(1.04424 0.43617 0)
(1.02864 0.420597 0)
(1.01618 0.377764 0)
(0.972206 0.344078 0)
(0.987749 0.292767 0)
(0.914727 0.232215 0)
(0.920088 0.160366 0)
(0.846607 0.0912689 0)
(0.878404 0.0347439 0)
(0.896794 -8.05496e-05 0)
(0.908221 -0.0194744 0)
(0.922134 -0.0276011 0)
(0.939146 -0.0267848 0)
(0.953849 -0.0298182 0)
(0.970411 -0.0265767 0)
(0.984909 -0.0249482 0)
(0.996262 -0.0208089 0)
(1.00502 -0.0181193 0)
(1.01111 -0.0155546 0)
(1.0156 -0.0133983 0)
(1.01892 -0.0116074 0)
(1.02128 -0.0101197 0)
(1.02287 -0.00898888 0)
(1.0239 -0.00790404 0)
(1.02463 -0.006665 0)
(1.0252 -0.00507736 0)
(1.02563 -0.00317878 0)
(1.02587 -0.00111723 0)
(0.900844 0.361217 0)
(0.9109 0.336562 0)
(0.920664 0.300963 0)
(0.905252 0.267541 0)
(0.896326 0.232468 0)
(0.830963 0.192792 0)
(0.810077 0.150967 0)
(0.740379 0.106621 0)
(0.734895 0.0614117 0)
(0.743409 0.0332358 0)
(0.827736 0.0121561 0)
(0.902494 -0.000552162 0)
(0.962695 -0.0150575 0)
(0.994555 -0.0094179 0)
(1.01262 -0.0170065 0)
(1.01826 -0.0104602 0)
(1.02086 -0.0112657 0)
(1.01967 -0.00923816 0)
(1.01839 -0.0101094 0)
(1.0167 -0.0106604 0)
(1.01588 -0.0114174 0)
(1.0159 -0.012067 0)
(1.01662 -0.0121109 0)
(1.01795 -0.0115179 0)
(1.01954 -0.0103413 0)
(1.02112 -0.008771 0)
(1.02242 -0.00709566 0)
(1.02333 -0.00529623 0)
(1.02391 -0.00332034 0)
(1.02419 -0.00117086 0)
(0.778565 -0.203899 0)
(0.781611 -0.221124 0)
(0.794283 -0.233261 0)
(0.777375 -0.256475 0)
(0.764222 -0.276501 0)
(0.724111 -0.296248 0)
(0.711264 -0.294517 0)
(0.69795 -0.276138 0)
(0.728096 -0.23936 0)
(0.766801 -0.179211 0)
(0.83419 -0.117852 0)
(0.876586 -0.0646179 0)
(0.910753 -0.0301846 0)
(0.928084 -0.0181713 0)
(0.946519 -0.00580382 0)
(0.965369 -0.00704321 0)
(0.97759 -0.00714941 0)
(0.989417 -0.00975316 0)
(0.998667 -0.0118794 0)
(1.00665 -0.0129633 0)
(1.01304 -0.0134826 0)
(1.01768 -0.013201 0)
(1.02103 -0.012805 0)
(1.02326 -0.0122577 0)
(1.02483 -0.011434 0)
(1.02607 -0.0101583 0)
(1.02714 -0.00841363 0)
(1.02804 -0.00626183 0)
(1.02868 -0.00385736 0)
(1.02903 -0.00133103 0)
(0.741851 -0.612645 0)
(0.728786 -0.611634 0)
(0.728864 -0.606498 0)
(0.727097 -0.604523 0)
(0.742497 -0.591836 0)
(0.765692 -0.571414 0)
(0.816676 -0.526897 0)
(0.869907 -0.480916 0)
(0.930022 -0.416887 0)
(0.991572 -0.354918 0)
(1.05957 -0.294356 0)
(1.07657 -0.250738 0)
(1.04476 -0.199833 0)
(1.03783 -0.159791 0)
(1.02108 -0.123898 0)
(1.01138 -0.0975034 0)
(1.00701 -0.0745864 0)
(1.00652 -0.0577774 0)
(1.00798 -0.0442606 0)
(1.01018 -0.0349135 0)
(1.01229 -0.0282411 0)
(1.01475 -0.0235815 0)
(1.01733 -0.0199253 0)
(1.01992 -0.0167458 0)
(1.02227 -0.0140383 0)
(1.02412 -0.0115718 0)
(1.02546 -0.00927841 0)
(1.02639 -0.00690571 0)
(1.02701 -0.00430928 0)
(1.02734 -0.00150306 0)
(0.791048 -0.425741 0)
(0.818499 -0.390019 0)
(0.856202 -0.353207 0)
(0.889275 -0.304997 0)
(0.929115 -0.252152 0)
(0.96757 -0.19371 0)
(1.00756 -0.131315 0)
(1.0417 -0.077282 0)
(1.07546 -0.0234213 0)
(1.10643 0.00320937 0)
(1.07704 0.0414996 0)
(1.1233 0.0173378 0)
(1.11986 0.035604 0)
(1.09255 0.02586 0)
(1.08193 0.0218024 0)
(1.0684 0.015272 0)
(1.05586 0.00825519 0)
(1.04636 0.0013842 0)
(1.03858 -0.00532122 0)
(1.0331 -0.0102115 0)
(1.03008 -0.0137541 0)
(1.02862 -0.0157131 0)
(1.0282 -0.0163569 0)
(1.02858 -0.0160588 0)
(1.02938 -0.0147933 0)
(1.03044 -0.0127465 0)
(1.03153 -0.0102667 0)
(1.0324 -0.00751776 0)
(1.03299 -0.00461081 0)
(1.03327 -0.00158482 0)
(1.0454 -0.227949 0)
(1.07734 -0.197051 0)
(1.11946 -0.167203 0)
(1.15959 -0.14164 0)
(1.20016 -0.109245 0)
(1.23105 -0.0867779 0)
(1.25046 -0.0604861 0)
(1.24706 -0.0434143 0)
(1.21572 -0.0233577 0)
(1.19012 -0.0207452 0)
(1.10743 -0.00123057 0)
(1.07043 -0.00219629 0)
(1.03281 -0.0155435 0)
(0.992387 -0.0201515 0)
(0.98117 -0.0231379 0)
(0.972076 -0.0284975 0)
(0.972749 -0.0278368 0)
(0.979265 -0.0302426 0)
(0.987767 -0.0294983 0)
(0.997439 -0.0289669 0)
(1.00591 -0.0274771 0)
(1.01279 -0.0251165 0)
(1.0184 -0.0226663 0)
(1.02258 -0.0199995 0)
(1.0256 -0.0173319 0)
(1.02774 -0.0146552 0)
(1.02928 -0.0118191 0)
(1.03041 -0.00872015 0)
(1.0312 -0.00536832 0)
(1.03162 -0.00184183 0)
(1.07039 0.378981 0)
(1.07766 0.375879 0)
(1.08823 0.36665 0)
(1.09906 0.352747 0)
(1.10721 0.327967 0)
(1.11732 0.303601 0)
(1.11917 0.264613 0)
(1.12831 0.228758 0)
(1.13586 0.184835 0)
(1.1595 0.133893 0)
(1.15687 0.0982821 0)
(1.0963 0.0739418 0)
(1.10649 0.028987 0)
(1.08107 0.0199586 0)
(1.07571 -0.0117639 0)
(1.06017 -0.0200072 0)
(1.05026 -0.0327621 0)
(1.04183 -0.0360725 0)
(1.03721 -0.0365723 0)
(1.03468 -0.035627 0)
(1.03316 -0.0331122 0)
(1.0329 -0.0306058 0)
(1.03328 -0.0276772 0)
(1.03414 -0.0242607 0)
(1.03535 -0.0206911 0)
(1.03651 -0.0169798 0)
(1.03744 -0.0133159 0)
(1.03806 -0.00966876 0)
(1.03843 -0.00592312 0)
(1.03859 -0.00203522 0)
(1.00369 0.724109 0)
(1.00427 0.706468 0)
(1.00014 0.684551 0)
(0.994794 0.660533 0)
(0.985934 0.63354 0)
(0.971558 0.600118 0)
(0.95978 0.568457 0)
(0.935342 0.521222 0)
(0.919463 0.485411 0)
(0.905308 0.408821 0)
(0.929781 0.359082 0)
(0.895178 0.274855 0)
(0.939837 0.216515 0)
(0.91727 0.147979 0)
(0.929855 0.0977526 0)
(0.947927 0.0556471 0)
(0.965517 0.0229102 0)
(0.982731 0.00102258 0)
(0.997051 -0.014713 0)
(1.00738 -0.023079 0)
(1.01564 -0.0271764 0)
(1.02193 -0.0281551 0)
(1.02653 -0.0269612 0)
(1.02995 -0.024753 0)
(1.03238 -0.0218402 0)
(1.03419 -0.0183735 0)
(1.0356 -0.0145963 0)
(1.03664 -0.0105896 0)
(1.03733 -0.00644124 0)
(1.03767 -0.00219405 0)
(0.873036 -0.0252597 0)
(0.867126 -0.0506251 0)
(0.867279 -0.0676672 0)
(0.861124 -0.0974415 0)
(0.861238 -0.114522 0)
(0.849641 -0.146423 0)
(0.843797 -0.163601 0)
(0.813691 -0.198916 0)
(0.797002 -0.211159 0)
(0.741924 -0.243293 0)
(0.712962 -0.249284 0)
(0.676974 -0.268003 0)
(0.71262 -0.247183 0)
(0.774247 -0.236284 0)
(0.841417 -0.194036 0)
(0.899126 -0.161298 0)
(0.9406 -0.126848 0)
(0.973592 -0.101773 0)
(0.997349 -0.0824472 0)
(1.0141 -0.0674627 0)
(1.0256 -0.0563217 0)
(1.03296 -0.0469533 0)
(1.03788 -0.0392092 0)
(1.04111 -0.0325418 0)
(1.04311 -0.0266723 0)
(1.04432 -0.0214583 0)
(1.04499 -0.016647 0)
(1.04534 -0.0119691 0)
(1.04553 -0.00726964 0)
(1.04561 -0.00246936 0)
(0.800691 -0.476468 0)
(0.796028 -0.48997 0)
(0.793082 -0.4964 0)
(0.790021 -0.50971 0)
(0.788739 -0.514218 0)
(0.789341 -0.524767 0)
(0.793514 -0.5257 0)
(0.797601 -0.527742 0)
(0.813633 -0.515565 0)
(0.828463 -0.497081 0)
(0.853368 -0.457912 0)
(0.9082 -0.412953 0)
(0.980036 -0.344851 0)
(1.04265 -0.282151 0)
(1.06959 -0.224503 0)
(1.06773 -0.179072 0)
(1.05839 -0.141231 0)
(1.05087 -0.113266 0)
(1.04619 -0.0902657 0)
(1.04421 -0.072951 0)
(1.04333 -0.0595149 0)
(1.04309 -0.048941 0)
(1.04324 -0.0406683 0)
(1.04355 -0.0337062 0)
(1.04403 -0.027669 0)
(1.04455 -0.0221963 0)
(1.04498 -0.0171026 0)
(1.04528 -0.0122225 0)
(1.04544 -0.00739572 0)
(1.0455 -0.00250954 0)
(0.761873 -0.195897 0)
(0.763565 -0.199573 0)
(0.767545 -0.199971 0)
(0.775557 -0.203 0)
(0.788202 -0.201584 0)
(0.807852 -0.203025 0)
(0.833814 -0.197932 0)
(0.867517 -0.19476 0)
(0.904434 -0.18252 0)
(0.945135 -0.173073 0)
(0.983761 -0.150258 0)
(1.04437 -0.136924 0)
(1.09146 -0.11146 0)
(1.1074 -0.0990067 0)