/*--------------------------------*- C++ -*----------------------------------*\
| =========                 |                                                 |
| \\      /  F ield         | OpenFOAM: The Open Source CFD Toolbox           |
|  \\    /   O peration     | Version:                                        |
|   \\  /    A nd           | Website:  www.openfoam.com                      |
|    \\/     M anipulation  |                                                 |
\*---------------------------------------------------------------------------*/
FoamFile
{
    version     2.0;
    format      ascii;
    class       volScalarField;
    location    "174.1";
    object      p;
}
// * * * * * * * * * * * * * * * * * * * * * * * * * * * * * * * * * * * * * //

dimensions      [0 2 -2 0 0 0 0];


internalField   nonuniform List<scalar> 
1150
(
0.194798
0.204481
0.215022
0.185021
0.193213
0.202626
0.172762
0.178993
0.186769
0.15772
0.161623
0.139753
0.141075
0.11913
0.0629581
0.0581628
0.0610091
0.061008
0.0629124
0.0628742
0.0641452
0.0649358
0.066598
0.0676378
0.0696595
0.0715693
0.0735911
0.0761062
0.0791392
0.0823449
0.0860814
0.0901829
0.0948951
0.0999908
0.105599
0.111668
0.118395
0.125776
0.133822
0.142453
0.1518
0.161836
0.172643
0.184133
0.0624784
0.0578479
0.0606216
0.0605109
0.0624436
0.0624239
0.0633746
0.0643712
0.0660916
0.0665407
0.0687769
0.0708363
0.0722428
0.0747058
0.0778598
0.0807523
0.0842327
0.0882221
0.0927847
0.0974603
0.102699
0.108296
0.114613
0.121477
0.128999
0.137
0.145736
0.155112
0.165214
0.175787
0.0619365
0.0575794
0.0601998
0.0600198
0.0619606
0.0619596
0.0626064
0.0638107
0.065529
0.0654507
0.0679832
0.0700528
0.0709225
0.0733812
0.0765629
0.0791173
0.0824148
0.0860339
0.0903569
0.094688
0.0994779
0.104568
0.110419
0.116633
0.123509
0.130695
0.138635
0.147071
0.156182
0.165459
0.0613426
0.0573534
0.0597475
0.0595322
0.0614701
0.061471
0.0618547
0.0632608
0.0648996
0.0643616
0.0672678
0.0691271
0.0696067
0.0721186
0.0752012
0.0777158
0.0806315
0.0838729
0.0877853
0.0918035
0.0962633
0.100701
0.106053
0.111531
0.117616
0.123819
0.130755
0.137883
0.145574
0.152966
0.0607005
0.0571682
0.0592594
0.0590616
0.0609657
0.0609664
0.0611266
0.0627303
0.064184
0.063344
0.0665779
0.0681545
0.0683373
0.0709298
0.0736503
0.0758459
0.0786922
0.0815238
0.0852773
0.0887404
0.0927051
0.0964748
0.101164
0.105707
0.110836
0.115779
0.121428
0.126899
0.132809
0.137896
0.0600292
0.0570175
0.0587451
0.0585849
0.0604594
0.0604372
0.0604456
0.0622071
0.0633937
0.0623651
0.0659542
0.0669152
0.0672006
0.0697949
0.0721334
0.0743126
0.0769453
0.0793029
0.0827954
0.0857567
0.0892033
0.0922214
0.0962529
0.0996681
0.103729
0.107211
0.111301
0.114773
0.118463
0.120667
0.0593318
0.0568966
0.0582068
0.0581152
0.0599261
0.0599183
0.0597928
0.0617056
0.0625217
0.0615233
0.0652459
0.0656362
0.0661047
0.0685876
0.0702472
0.0727344
0.074894
0.076754
0.0801401
0.0823559
0.0852361
0.0873925
0.0905905
0.0928064
0.0955949
0.0973921
0.0996848
0.100746
0.101897
0.100872
0.0586305
0.0568
0.0576538
0.0576672
0.0593904
0.0593824
0.0592195
0.0611847
0.0616158
0.0607594
0.064536
0.0643242
0.0653412
0.0674447
0.0689168
0.0714034
0.0729569
0.0745236
0.0776101
0.0791714
0.0813519
0.082695
0.0850599
0.0857403
0.0872053
0.0869648
0.0872962
0.0856771
0.0838831
0.0579285
0.0567246
0.0570908
0.0572525
0.0588432
0.0588756
0.0586488
0.0606647
0.0606829
0.0601459
0.0635984
0.063065
0.0645564
0.0658094
0.0670302
0.0699411
0.0704086
0.0720748
0.0745482
0.0754777
0.0769128
0.0775187
0.0787546
0.0780769
0.0778672
0.0756698
0.0733028
0.0690604
0.0646366
0.0572468
0.0566531
0.0565285
0.0568261
0.0583139
0.0584155
0.0581639
0.0600929
0.0597742
0.0596429
0.0627022
0.0619275
0.063873
0.0647399
0.0660538
0.0683395
0.0683421
0.0701258
0.071833
0.0719796
0.072708
0.072297
0.0723414
0.0698166
0.0683268
0.0634564
0.05924
0.0507815
0.0566135
0.0566041
0.0560028
0.0563807
0.0576871
0.0579715
0.0576196
0.0594965
0.0589479
0.0591977
0.0615213
0.0608787
0.06267
0.0629993
0.064508
0.0661823
0.0656917
0.0676856
0.0679948
0.0682682
0.0675913
0.067191
0.0653752
0.0624084
0.0593845
0.0534853
0.046422
0.035774
0.0559982
0.0565602
0.0555188
0.0559634
0.0570035
0.0575538
0.0570317
0.0588791
0.0581325
0.0586682
0.0602483
0.0600005
0.0611663
0.0613434
0.062602
0.0640543
0.063168
0.0648616
0.064184
0.0641903
0.0627066
0.0618409
0.0583255
0.0553887
0.0503755
0.0438236
0.0349565
0.0238161
0.055373
0.0564484
0.0551132
0.0555652
0.0563259
0.0570882
0.0563791
0.0581828
0.0573289
0.0579956
0.0590481
0.0590889
0.0596758
0.0598446
0.0604173
0.0620154
0.0604865
0.0615098
0.0607983
0.0596311
0.057948
0.0560756
0.0518146
0.0481273
0.0420811
0.0347648
0.0255456
0.0146925
0.0547301
0.0562249
0.0547929
0.0552194
0.0556327
0.0565449
0.0557421
0.0573377
0.0565386
0.0572004
0.0578536
0.0580065
0.0582422
0.058256
0.0583132
0.0597192
0.0577679
0.05797
0.0573853
0.054817
0.0530767
0.0504993
0.0454593
0.040854
0.0346769
0.0267856
0.0176239
0.00738603
0.0540895
0.0558718
0.0545317
0.0548847
0.0549794
0.0558962
0.0551254
0.0563238
0.0558191
0.056218
0.0566459
0.0567481
0.0567331
0.0566125
0.0561732
0.057036
0.0552133
0.0542101
0.0536714
0.050313
0.0480794
0.0450864
0.0394658
0.0340387
0.0279957
0.0200914
0.011059
0.00156831
0.0534591
0.0553903
0.0542838
0.0545065
0.0543482
0.055121
0.0545315
0.0551781
0.0551235
0.0550945
0.0553771
0.0554136
0.0549668
0.0549231
0.0540169
0.0540283
0.052692
0.0505449
0.0497601
0.0460683
0.0430306
0.0399029
0.0340983
0.0279432
0.0219274
0.0145873
0.00587381
-0.00300926
0.0528509
0.0547727
0.0540075
0.0540349
0.0537219
0.0542299
0.0539199
0.0539375
0.0543112
0.0539604
0.0537293
0.0540627
0.0530112
0.0530282
0.0520001
0.0509002
0.0499511
0.0471613
0.0457777
0.0419884
0.0382214
0.0348785
0.029256
0.0227565
0.0166418
0.0100358
0.00187427
-0.00647329
0.0522718
0.0540139
0.0536424
0.0534134
0.0530653
0.0533128
0.0532203
0.0526573
0.053332
0.0528733
0.051979
0.0526425
0.051123
0.0507654
0.0500204
0.047908
0.0468793
0.0439643
0.0418676
0.0381272
0.0337632
0.0300657
0.0249488
0.0185739
0.0122969
0.00618093
-0.00117379
-0.00881442
0.0517164
0.0531436
0.0531261
0.0528264
0.0523286
0.0524153
0.0524233
0.0513538
0.0521635
0.0518306
0.0501043
0.051029
0.0494515
0.0482426
0.0478523
0.0452598
0.0436289
0.0407617
0.0381793
0.0345096
0.0298313
0.0257708
0.0210693
0.0151574
0.00891115
0.00313932
-0.00331389
-0.0101671
0.0511587
0.052233
0.0524501
0.0521843
0.051512
0.051495
0.0515643
0.0500433
0.050802
0.0507752
0.0482844
0.0491421
0.0479114
0.045747
0.045313
0.0428174
0.0404858
0.0375708
0.0346905
0.0311388
0.0264966
0.0221255
0.0176491
0.0123805
0.00653399
0.00103442
-0.00470596
-0.0108045
0.0505709
0.0513346
0.0516112
0.0514642
0.0506531
0.0505167
0.0506416
0.0487712
0.0492662
0.0496363
0.0466201
0.0469695
0.0463784
0.0436127
0.0424833
0.0403576
0.0377293
0.0345703
0.0314232
0.0279998
0.0236615
0.0192512
0.014903
0.010174
0.00489322
-0.000275067
-0.00541763
-0.0107505
0.0499294
0.0504625
0.0507013
0.0506534
0.0497412
0.0494893
0.0496455
0.047558
0.0476247
0.0483412
0.0451669
0.0446294
0.0446016
0.0418073
0.0396457
0.0376901
0.0352434
0.0319962
0.0285379
0.0251259
0.0212291
0.0170678
0.0128785
0.00851821
0.00381817
-0.000872543
-0.00543282
-0.010062
0.0492193
0.049608
0.0497632
0.0497502
0.0487841
0.0484101
0.0485513
0.0463985
0.0459675
0.0468483
0.0438552
0.042315
0.0424741
0.0401931
0.0371919
0.034946
0.0328757
0.0298697
0.0262274
0.0226665
0.019072
0.015355
0.0115404
0.00753434
0.00330677
-0.000919024
-0.00494816
-0.0089179
0.0484427
0.0487435
0.048804
0.0487725
0.0477756
0.0472908
0.0473571
0.0452572
0.0443777
0.0451485
0.0425766
0.0402347
0.0400928
0.0385365
0.0352318
0.0324149
0.0304963
0.028007
0.0244984
0.0207639
0.0172831
0.0140002
0.0107163
0.00716915
0.00335182
-0.000488429
-0.00406324
-0.00743052
0.047618
0.0478512
0.0478286
0.047735
0.0467353
0.0461424
0.0460757
0.0441008
0.0428756
0.0433071
0.0412228
0.0384621
0.0376929
0.0366959
0.0336469
0.0303195
0.0282178
0.0262158
0.0231898
0.0194893
0.016015
0.0129709
0.0102034
0.00724194
0.00390759
0.000433763
-0.00280331
-0.00570018
0.0467515
0.0469198
0.0468371
0.0466568
0.0456664
0.0449833
0.0447324
0.0428996
0.0414711
0.0414347
0.0397333
0.03696
0.0355342
0.0346948
0.0322008
0.0287463
0.0262945
0.0244922
0.022072
0.018718
0.0152968
0.012366
0.00995253
0.00756126
0.00480589
0.00175692
-0.00118321
-0.00374919
0.0458524
0.0459515
0.0458172
0.045546
0.0445704
0.0438095
0.0433582
0.0416456
0.040144
0.0396399
0.0381214
0.0356237
0.03374
0.0327053
0.0307311
0.0275639
0.0248693
0.0229849
0.0210175
0.0182181
0.0150634
0.012238
0.0100046
0.00802755
0.00582892
0.00330112
0.000716217
-0.00158258
0.0449224
0.0449521
0.0447664
0.0443964
0.043436
0.0426158
0.0419746
0.0403576
0.0388562
0.0379876
0.0365012
0.0343265
0.0322764
0.0309376
0.0292425
0.0265458
0.0238779
0.021871
0.0200895
0.0178214
0.0151276
0.0125151
0.0103968
0.00865612
0.00689925
0.00489942
0.00274782
0.000732376
0.0439664
0.0439299
0.0436813
0.0432242
0.0422721
0.0413944
0.0406024
0.0390629
0.0375811
0.0364858
0.0349864
0.0330491
0.031053
0.0294856
0.0278617
0.0256135
0.0231879
0.0211413
0.0194146
0.0175324
0.0153357
0.0130597
0.0110871
0.00949044
0.00802767
0.00645622
0.00474391
0.00305233
0.0429864
0.0428895
0.0425768
0.0420384
0.0410838
0.0401675
0.0392561
0.0377844
0.0363471
0.0351203
0.0336134
0.0318376
0.0299677
0.0283224
0.0267136
0.0247869
0.0226653
0.0207223
0.0190549
0.0174113
0.0156204
0.0137233
0.011972
0.0105036
0.00922877
0.00796566
0.00662742
0.00526796
0.0419867
0.0418383
0.0414623
0.0408581
0.0399037
0.0389589
0.0379596
0.0365511
0.0351776
0.0338734
0.032379
0.0307435
0.0290093
0.0273986
0.0258154
0.0241046
0.0222836
0.0205289
0.0189569
0.0174745
0.0159828
0.0144277
0.0129369
0.0116243
0.010494
0.00943982
0.00838137
0.00731308
0.0409723
0.040785
0.0403599
0.0397038
0.03875
0.0377878
0.036737
0.0353843
0.0340751
0.0327516
0.0312898
0.0297805
0.0281844
0.0266515
0.02514
0.023599
0.0220257
0.0204795
0.0190488
0.0177105
0.0164295
0.0151438
0.0139031
0.0127717
0.0117771
0.0108758
0.0100179
0.00918044
0.0399592
0.0397438
0.0392816
0.0385941
0.0376437
0.0366728
0.0356074
0.0342964
0.0330473
0.0317659
0.0303452
0.0289438
0.0274921
0.0260636
0.024654
0.023255
0.0218839
0.0205376
0.0192629
0.0180614
0.0169441
0.0158695
0.0148434
0.0138885
0.013027
0.0122526
0.0115439
0.0108832
0.0389646
0.0387308
0.0382484
0.0375409
0.0366017
0.0356329
0.034571
0.0333104
0.0321208
0.030903
0.029546
0.0282349
0.0269238
0.025617
0.024317
0.0230478
0.0218411
0.0206715
0.0195515
0.0184886
0.0175101
0.0165961
0.0157391
0.0149394
0.0142071
0.0135468
0.0129555
0.0124252
0.0380126
0.0377669
0.0372691
0.0365595
0.035645
0.0346792
0.0336412
0.0324491
0.0313011
0.0301532
0.0288904
0.0276612
0.0264699
0.0252845
0.0241006
0.022951
0.0218774
0.0208578
0.0198799
0.0189463
0.018085
0.0172969
0.0165741
0.0159065
0.015291
0.0147329
0.0142386
0.0138098
0.037125
0.0368717
0.0363714
0.0356692
0.0347808
0.0338339
0.0328333
0.0317084
0.0306047
0.0295253
0.0283647
0.0272165
0.02612
0.025049
0.0239834
0.0229459
0.0219807
0.0210788
0.0202206
0.0194007
0.0186408
0.0179508
0.0173285
0.016763
0.0162459
0.0157792
0.0153709
0.0150275
0.0363238
0.0360715
0.035575
0.0348863
0.0340389
0.0331194
0.0321481
0.0310917
0.0300398
0.0290137
0.027945
0.0268799
0.025866
0.0248941
0.023938
0.0230069
0.0221361
0.02133
0.020571
0.0198474
0.0191695
0.0185499
0.0179936
0.0174943
0.0170434
0.0166394
0.0162894
0.0160033
0.0356239
0.0353873
0.0349121
0.0342548
0.0334486
0.0325618
0.0316273
0.0306303
0.029618
0.02863
0.0276352
0.0266472
0.0257032
0.0248103
0.0239504
0.0231207
0.0223407
0.0216198
0.0209466
0.0203076
0.0197006
0.019133
0.0186111
0.0181359
0.0177036
0.0173142
0.0169742
0.0166941
0.0350425
0.0348012
0.0343612
0.033758
0.0330155
0.0321753
0.031272
0.0303133
0.029333
0.0283712
0.0274221
0.0264872
0.0255928
0.0247553
0.0239663
0.0232184
0.0225211
0.0218876
0.021317
0.0207999
0.0203297
0.0199054
0.0195267
0.0191881
0.0188773
0.01858
0.0182839
0.0179796
0.0347411
0.0345043
0.0340804
0.0335035
0.0327928
0.0319778
0.0310928
0.0301547
0.0291887
0.0282377
0.0273119
0.0264089
0.0255485
0.0247473
0.0240024
0.0233043
0.0226542
0.0220616
0.0215271
0.0210428
0.020597
0.0201856
0.019808
0.0194626
0.0191414
0.0188325
0.0185232
0.0182032
)
;

boundaryField
{
    outlet
    {
        type            fixedValue;
        value           nonuniform 0();
    }
    upperWall
    {
        type            symmetryPlane;
    }
    lowerWall
    {
        type            symmetryPlane;
    }
    inlet
    {
        type            zeroGradient;
    }
    cylinder
    {
        type            zeroGradient;
    }
    frontAndBack
    {
        type            empty;
    }
    procBoundary4to0
    {
        type            processor;
        value           nonuniform List<scalar> 
33
(
0.202349
0.212811
0.223762
0.0633725
0.0585241
0.0613667
0.0615067
0.063355
0.0633162
0.064904
0.0654795
0.0670754
0.0687033
0.0705312
0.0722599
0.0748898
0.0774799
0.0803428
0.0838278
0.087868
0.0921216
0.0969002
0.10229
0.108283
0.1146
0.121609
0.129348
0.137786
0.146874
0.156674
0.1672
0.178517
0.190683
)
;
    }
    procBoundary4to5
    {
        type            processor;
        value           nonuniform List<scalar> 
45
(
0.226775
0.213669
0.196583
0.16754
0.16754
0.145001
0.117716
0.117716
0.0960036
0.0960036
0.0791989
0.0791989
0.0566643
0.0422404
0.0422404
0.0206216
0.00894222
0.00126004
-0.00487845
-0.00964172
-0.0132434
-0.0157593
-0.0171999
-0.0177396
-0.0175224
-0.016597
-0.0151116
-0.0132005
-0.0109762
-0.00860392
-0.00615726
-0.00364367
-0.00107392
0.00149078
0.00396414
0.00626545
0.00836234
0.0102531
0.011939
0.0134362
0.014746
0.0157856
0.0164826
0.0176583
0.0178641
)
;
    }
}


// ************************************************************************* //
