/*--------------------------------*- C++ -*----------------------------------*\
| =========                 |                                                 |
| \\      /  F ield         | OpenFOAM: The Open Source CFD Toolbox           |
|  \\    /   O peration     | Version:                                        |
|   \\  /    A nd           | Website:  www.openfoam.com                      |
|    \\/     M anipulation  |                                                 |
\*---------------------------------------------------------------------------*/
FoamFile
{
    version     2.0;
    format      ascii;
    class       volScalarField;
    location    "97.1";
    object      p;
}
// * * * * * * * * * * * * * * * * * * * * * * * * * * * * * * * * * * * * * //

dimensions      [0 2 -2 0 0 0 0];


internalField   nonuniform List<scalar> 
1150
(
0.197427
0.202107
0.20414
0.203995
0.201381
0.196109
0.207879
0.212886
0.214563
0.213409
0.209341
0.218847
0.223842
0.225203
0.0605999
0.0609718
0.061277
0.0615221
0.0617073
0.0618442
0.0619321
0.0619829
0.0619972
0.0619863
0.0555275
0.0558801
0.0562779
0.0567161
0.0571908
0.0576933
0.0582215
0.0587663
0.0593229
0.0598743
0.0584555
0.0587029
0.0589268
0.0591386
0.0593436
0.0595606
0.0597833
0.0600305
0.0602928
0.060771
0.058853
0.0593698
0.0598916
0.0604047
0.0609157
0.0614053
0.0618729
0.062303
0.0626935
0.0630478
0.0604472
0.06087
0.0612448
0.0615701
0.0618335
0.0620451
0.0621976
0.0623023
0.0623843
0.0624159
0.060253
0.0605568
0.0608783
0.0611932
0.061548
0.0618958
0.0622989
0.0627113
0.0631527
0.0636737
0.0621461
0.0628306
0.0635078
0.0641874
0.0648405
0.0654793
0.0660345
0.0665262
0.0669095
0.0671884
0.0627621
0.0634138
0.0640131
0.0645373
0.0649887
0.0653626
0.0656879
0.0659736
0.0662628
0.0665644
0.0640754
0.0643234
0.0645926
0.0649027
0.0652611
0.0656935
0.0661672
0.0667546
0.0673053
0.0680862
0.0655974
0.0663734
0.0671456
0.0679471
0.0687572
0.0695795
0.0703631
0.071144
0.0715931
0.0725823
0.0676373
0.0686747
0.0696246
0.0704365
0.0711115
0.0716361
0.0720143
0.0723473
0.0725174
0.0727722
0.0692867
0.0697787
0.0702604
0.0707147
0.071181
0.0719156
0.0726417
0.0735686
0.0744038
0.0757772
0.0718693
0.0727369
0.0736271
0.0745747
0.0755343
0.0765413
0.0773702
0.0783324
0.078483
0.0804867
0.0747136
0.0759317
0.077042
0.0779591
0.07899
0.0797554
0.0804001
0.0811271
0.0815478
0.0825453
0.0776522
0.0786508
0.0795992
0.0805733
0.0814848
0.0825583
0.0834759
0.0847462
0.0855601
0.0867715
0.08093
0.0820031
0.082978
0.0839745
0.0849936
0.0861708
0.0869415
0.0879831
0.0882966
0.0894734
0.0848077
0.08607
0.087246
0.0884875
0.0894268
0.0906335
0.0912881
0.0927506
0.093305
0.095223
0.0890773
0.0905258
0.091678
0.0933859
0.0942704
0.0955664
0.0963932
0.0976275
0.0979305
0.0992433
0.0937272
0.0952306
0.0965539
0.0980474
0.0990722
0.100178
0.100968
0.102328
0.102419
0.104296
0.0988061
0.100413
0.1017
0.103424
0.104408
0.105799
0.106447
0.107988
0.108221
0.110184
0.104616
0.106394
0.107939
0.109621
0.110443
0.112101
0.112435
0.114112
0.113383
0.115454
0.110989
0.112975
0.114498
0.116396
0.117212
0.118673
0.118776
0.120204
0.119535
0.121182
0.117904
0.120091
0.121842
0.123539
0.12449
0.125899
0.125737
0.127189
0.125666
0.127421
0.125422
0.127785
0.129531
0.131544
0.132231
0.133508
0.132941
0.133958
0.132059
0.132795
0.133725
0.136277
0.138136
0.140262
0.140754
0.141863
0.140897
0.141433
0.138666
0.138764
0.142739
0.145475
0.147534
0.149477
0.149832
0.150534
0.148922
0.14873
0.144848
0.14352
0.152466
0.155387
0.157679
0.15948
0.159679
0.159916
0.15771
0.156298
0.15147
0.147839
0.162883
0.16609
0.168361
0.17
0.169974
0.169413
0.166269
0.16336
0.156561
0.150595
0.174024
0.177593
0.179934
0.181378
0.180991
0.179425
0.175294
0.170374
0.16224
0.185958
0.18999
0.192454
0.193265
0.192101
0.188957
0.183279
0.061944
0.0619095
0.0619245
0.0619907
0.0621136
0.0622928
0.0625398
0.0628538
0.0632219
0.0636166
0.064009
0.0643813
0.0647213
0.0650305
0.0653042
0.065541
0.0657375
0.0659016
0.0660464
0.0661916
0.0663236
0.0664338
0.0665121
0.0665611
0.066571
0.0665406
0.0664702
0.066368
0.0662636
0.0661862
0.0603694
0.0608374
0.0612608
0.0618536
0.0622542
0.0625773
0.0628246
0.0629999
0.0631548
0.0633364
0.063566
0.0638441
0.0641759
0.0645426
0.0649316
0.0653134
0.0656684
0.0659659
0.0662067
0.0663826
0.0665101
0.0665941
0.0666383
0.066641
0.0666089
0.0665571
0.0664835
0.0663847
0.0662688
0.0661791
0.061073
0.0613468
0.0616406
0.0619858
0.0623772
0.0628143
0.0632658
0.0637
0.0640805
0.064385
0.0646118
0.0647821
0.0649167
0.0650451
0.0651898
0.0653627
0.0655672
0.0658173
0.0660957
0.0663429
0.0665237
0.0666387
0.0667019
0.0666847
0.0666165
0.0665164
0.0664196
0.0663201
0.0662082
0.0661334
0.06337
0.0637097
0.0640886
0.0644691
0.064834
0.0651686
0.0654601
0.0657417
0.066038
0.066357
0.0666792
0.0669777
0.0672124
0.0673605
0.0674018
0.0673461
0.0671677
0.0670339
0.0669314
0.066871
0.0668363
0.066803
0.0667606
0.066708
0.0666326
0.0665174
0.0663846
0.0662477
0.0661087
0.0660422
0.0624013
0.0624154
0.0624863
0.0626478
0.0629205
0.0632652
0.0636678
0.06408
0.0644702
0.0648362
0.0652037
0.0655906
0.0660131
0.066462
0.0669003
0.067277
0.0675463
0.0676986
0.067724
0.0676341
0.0674728
0.0672627
0.0670311
0.0668184
0.0666372
0.0664829
0.0663356
0.0661895
0.0660308
0.0659669
0.064108
0.0645195
0.0649403
0.0653952
0.0658006
0.0661437
0.0664113
0.0666279
0.0668276
0.0670131
0.0671613
0.067246
0.0672665
0.0672417
0.067242
0.0673196
0.0674455
0.0675858
0.0676786
0.067696
0.0676162
0.0674495
0.067212
0.0669332
0.0666602
0.0664199
0.0662153
0.066055
0.0659026
0.065861
0.0673022
0.0673019
0.0673803
0.067526
0.067731
0.0679823
0.068228
0.0684303
0.0685843
0.0687158
0.0688502
0.0689684
0.0690285
0.068985
0.0688308
0.0685881
0.068333
0.0681223
0.0679557
0.0677945
0.0676161
0.06741
0.0671629
0.0668879
0.0666077
0.0663316
0.0660841
0.0658862
0.0657226
0.0656893
0.0668346
0.0672586
0.0676313
0.0680069
0.0683044
0.0684803
0.0685784
0.0687183
0.068866
0.0690025
0.0691095
0.0691812
0.0692651
0.0693647
0.069434
0.0694073
0.0692589
0.0690162
0.0687162
0.0683874
0.068044
0.0676812
0.0673223
0.0669715
0.0666216
0.066282
0.06598
0.0657301
0.0655363
0.0654853
0.0685636
0.0687985
0.0690764
0.0694315
0.0698288
0.0702507
0.0706652
0.0710359
0.0713395
0.0715638
0.071671
0.0714466
0.0712721
0.0710001
0.0707244
0.0704653
0.0702044
0.069883
0.0694873
0.0690318
0.0685184
0.0679918
0.0674979
0.0670484
0.0666328
0.0662507
0.0659006
0.0656027
0.0653718
0.0652844
0.0728679
0.0730433
0.073687
0.073661
0.0735256
0.0733273
0.0731041
0.072871
0.0726416
0.0724401
0.0722778
0.0721201
0.0719411
0.0716708
0.0713001
0.0708708
0.0704322
0.07
0.0695625
0.0691011
0.068581
0.0680253
0.06746
0.0669271
0.0664536
0.0660492
0.0657011
0.0654151
0.0651885
0.0650843
0.0735303
0.0736154
0.07373
0.0739493
0.0743442
0.0747525
0.075062
0.0751994
0.0751672
0.0749285
0.074524
0.0740242
0.073511
0.0729983
0.0724635
0.0718868
0.0712634
0.070595
0.069893
0.0692976
0.0686568
0.068049
0.0674463
0.0668594
0.0663127
0.0658351
0.0654464
0.0651529
0.0649362
0.0648339
0.0764651
0.0769219
0.0772094
0.077383
0.0773291
0.0770892
0.0768366
0.0766547
0.0765399
0.0764512
0.0762927
0.0759709
0.0754616
0.0747921
0.0740377
0.0732394
0.0724128
0.0715602
0.0706976
0.0698409
0.0689924
0.0682065
0.0674946
0.0668401
0.0662341
0.0656927
0.0652465
0.0649107
0.0646672
0.0645516
0.0802887
0.0800132
0.0798607
0.0798216
0.0798597
0.0798544
0.0796011
0.0790971
0.0783966
0.0776577
0.0769761
0.0763997
0.0758358
0.0752237
0.074516
0.0737073
0.0728276
0.0719332
0.0710382
0.0701317
0.0692078
0.0683091
0.067485
0.0667477
0.066094
0.0655217
0.0650477
0.0646875
0.0644129
0.0642765
0.0830159
0.0832722
0.0833547
0.0831934
0.0828311
0.0824833
0.0822238
0.0819256
0.0814613
0.0806995
0.0796649
0.0784677
0.0772332
0.0760578
0.0749402
0.0738776
0.0728578
0.071864
0.070907
0.0699764
0.0690667
0.0681772
0.0673231
0.0665351
0.0658434
0.0652581
0.0647857
0.0644377
0.0641555
0.0640122
0.0870659
0.0864637
0.0865639
0.0863475
0.0859657
0.0851838
0.0841556
0.0832097
0.0824296
0.0817271
0.0809509
0.0799105
0.0786177
0.0771764
0.0757058
0.0742967
0.0729653
0.0717431
0.0706275
0.0696008
0.0686638
0.0677946
0.0669767
0.0662063
0.0655092
0.064915
0.0644486
0.0641298
0.0638662
0.0637398
0.0892832
0.0892268
0.0892154
0.0888884
0.0884601
0.0879731
0.0872873
0.0862491
0.0849163
0.0834971
0.0821399
0.0808749
0.0796201
0.0782667
0.0768328
0.0753248
0.0737985
0.0723166
0.0709131
0.0696377
0.068498
0.0675
0.0666281
0.065853
0.0651607
0.064563
0.0640963
0.0637936
0.0635516
0.0634491
0.0956812
0.0947529
0.0939682
0.093134
0.0920957
0.0908259
0.0896804
0.0885314
0.0872157
0.0855551
0.0836849
0.0818531
0.0801825
0.0786609
0.077215
0.0757457
0.0742565
0.0727491
0.07127
0.0698535
0.0685336
0.0673678
0.0663669
0.0655246
0.0648092
0.0642067
0.0637422
0.0634523
0.0632363
0.063155
0.0982919
0.0973681
0.0967989
0.0960109
0.094873
0.0934741
0.0918697
0.0902427
0.0886053
0.086835
0.0849018
0.0828334
0.0807623
0.0788451
0.0771052
0.0755112
0.0740104
0.0725694
0.0711783
0.069807
0.0684854
0.0672559
0.0661616
0.0652365
0.0644721
0.0638518
0.0633856
0.0631081
0.0629319
0.0628683
0.104409
0.103
0.101531
0.0999729
0.0983651
0.0965612
0.0944853
0.092243
0.0899508
0.0877656
0.0856316
0.0834473
0.0812034
0.0789934
0.0769199
0.0750557
0.0733965
0.0719239
0.0705789
0.0693119
0.0681053
0.0669511
0.0658817
0.0649341
0.0641363
0.0634941
0.0630197
0.0627535
0.0626396
0.0625922
0.109246
0.107671
0.106096
0.104172
0.102048
0.0997015
0.0971623
0.0944234
0.0915758
0.088842
0.0862922
0.0838843
0.081553
0.0792379
0.0769731
0.0748624
0.0729672
0.0713097
0.0698656
0.0686026
0.0674671
0.066421
0.0654481
0.0645566
0.063779
0.0631354
0.0626515
0.06239
0.062357
0.0623222
0.113532
0.111178
0.108747
0.106169
0.103551
0.100891
0.0983026
0.0956065
0.0927445
0.0898264
0.0869492
0.0842693
0.0817997
0.0794536
0.0771845
0.0749988
0.0729439
0.0710889
0.0694619
0.068064
0.0668679
0.0658401
0.0649298
0.0641115
0.0633872
0.0627696
0.0622882
0.0620276
0.0620882
0.0620578
0.119829
0.117082
0.11394
0.110568
0.106857
0.103068
0.0994032
0.0959434
0.0928041
0.0897831
0.0868316
0.0840253
0.0814094
0.0790441
0.0768833
0.0748304
0.0728474
0.0709791
0.0692678
0.0677549
0.0664516
0.0653556
0.0644309
0.0636469
0.0629715
0.0623937
0.0619291
0.0616683
0.0618339
0.0618003
0.124196
0.12035
0.116811
0.113052
0.109209
0.105296
0.101152
0.097085
0.0932864
0.08976
0.0865585
0.0835638
0.0807767
0.0782606
0.076054
0.0740904
0.0722842
0.0705752
0.0689568
0.0674626
0.0661285
0.0649762
0.064008
0.0632134
0.0625576
0.0620132
0.0615721
0.0613114
0.0615904
0.061549
0.129624
0.125013
0.119897
0.114758
0.109984
0.105475
0.101229
0.0972267
0.0932881
0.0895598
0.0861542
0.0830237
0.0801407
0.0775033
0.0751597
0.0731113
0.0713456
0.0697744
0.0683274
0.0669749
0.0657262
0.0646013
0.0636309
0.0628256
0.0621733
0.0616483
0.0612246
0.0609589
0.0613511
0.0612992
0.133715
0.12795
0.122318
0.116634
0.110979
0.105621
0.100847
0.0965289
0.0925005
0.0888034
0.08541
0.0822968
0.0794472
0.076818
0.0744128
0.0722667
0.0704274
0.0688592
0.0675056
0.0662918
0.0651794
0.0641564
0.0632458
0.0624648
0.061825
0.061315
0.0609014
0.0606213
0.0611107
0.0610449
0.137583
0.130068
0.122916
0.116316
0.110294
0.104809
0.0998141
0.0951803
0.0909822
0.0872863
0.0839712
0.0810174
0.0783516
0.0759027
0.0736258
0.0715192
0.0696426
0.0680323
0.0666812
0.0655328
0.0645279
0.0636238
0.0628122
0.0620989
0.0615
0.0610164
0.0606135
0.060311
0.0608653
0.0607813
0.139563
0.131172
0.12324
0.115887
0.109388
0.103736
0.0985917
0.0937631
0.0894117
0.0855853
0.0822481
0.0793724
0.0768514
0.0746201
0.0725743
0.0706628
0.0688985
0.067318
0.0659649
0.0648301
0.0638788
0.0630617
0.0623447
0.061718
0.061184
0.0607464
0.0603656
0.0600394
0.0606104
0.0605033
0.14135
0.131249
0.122298
0.114672
0.108098
0.102317
0.0970699
0.0922254
0.0878542
0.0839601
0.0805847
0.0777104
0.0752535
0.0731464
0.0712809
0.0695896
0.0680226
0.0665821
0.0653021
0.064201
0.0632842
0.0625202
0.0618757
0.0613319
0.0608731
0.0604977
0.0601558
0.0598121
0.060338
0.0602051
)
;

boundaryField
{
    outlet
    {
        type            fixedValue;
        value           nonuniform 0();
    }
    upperWall
    {
        type            symmetryPlane;
    }
    lowerWall
    {
        type            symmetryPlane;
    }
    inlet
    {
        type            zeroGradient;
    }
    cylinder
    {
        type            zeroGradient;
    }
    frontAndBack
    {
        type            empty;
    }
    procBoundary0to1
    {
        type            processor;
        value           nonuniform List<scalar> 
45
(
0.188176
0.202237
0.188176
0.223171
0.202237
0.217908
0.23068
0.235495
0.223171
0.236536
0.152296
0.175636
0.152296
0.164421
0.175636
0.139583
0.128607
0.119931
0.112609
0.106183
0.100439
0.095205
0.0904625
0.0862415
0.0824632
0.0791538
0.076295
0.0738477
0.0717727
0.069992
0.0684442
0.067056
0.0657896
0.0646409
0.0636243
0.0627617
0.0620431
0.0614516
0.0609723
0.0605838
0.0602765
0.0599862
0.0596345
0.0600382
0.0598778
)
;
    }
    procBoundary0to4
    {
        type            processor;
        value           nonuniform List<scalar> 
33
(
0.190414
0.199794
0.209962
0.060161
0.0552232
0.0581803
0.0583368
0.0599913
0.0599465
0.0614543
0.0620836
0.0638115
0.0647769
0.0665523
0.0687323
0.0709741
0.0734006
0.0765433
0.0797532
0.0834006
0.0874244
0.0919894
0.0968953
0.102463
0.108515
0.115133
0.122333
0.130298
0.138892
0.14818
0.158082
0.168695
0.179978
)
;
    }
}


// ************************************************************************* //
