/*--------------------------------*- C++ -*----------------------------------*\
| =========                 |                                                 |
| \\      /  F ield         | OpenFOAM: The Open Source CFD Toolbox           |
|  \\    /   O peration     | Version:                                        |
|   \\  /    A nd           | Website:  www.openfoam.com                      |
|    \\/     M anipulation  |                                                 |
\*---------------------------------------------------------------------------*/
FoamFile
{
    version     2.0;
    format      ascii;
    class       volVectorField;
    location    "153";
    object      U;
}
// * * * * * * * * * * * * * * * * * * * * * * * * * * * * * * * * * * * * * //

dimensions      [0 1 -1 0 0 0 0];


internalField   nonuniform List<vector> 
1161
(
(1.29718 -0.518435 -1.86976e-19)
(1.24281 -0.495261 3.21853e-19)
(1.20424 -0.485644 -4.76482e-20)
(1.17077 -0.453492 1.78269e-21)
(1.10321 -0.43147 4.05321e-20)
(1.08512 -0.403899 6.13659e-21)
(1.04725 -0.384491 -5.76752e-20)
(1.00634 -0.356868 -3.4198e-20)
(0.990691 -0.327927 -4.37618e-20)
(0.921248 -0.281349 -6.55265e-20)
(1.26099 -0.399399 -2.15795e-19)
(1.19904 -0.391816 4.43598e-20)
(1.18005 -0.368806 9.37726e-20)
(1.13353 -0.338191 -1.92784e-19)
(1.10078 -0.31593 1.42418e-20)
(1.07986 -0.294926 6.20594e-20)
(1.0486 -0.272901 1.80609e-19)
(1.01822 -0.263077 -1.32811e-19)
(1.1812 -0.329596 -1.58962e-19)
(1.15446 -0.318989 4.99984e-20)
(1.12417 -0.29896 2.17624e-19)
(1.09196 -0.26611 -8.24277e-20)
(1.06594 -0.245087 3.03897e-20)
(1.05105 -0.210901 -5.57726e-21)
(1.12674 -0.229284 -1.68261e-19)
(1.11427 -0.214767 6.89743e-20)
(1.07391 -0.204105 4.74719e-20)
(0.097245 0.509924 5.03136e-20)
(0.134485 0.234219 -5.88463e-20)
(0.186322 -0.0627399 8.10842e-22)
(0.238697 -0.321807 2.38042e-20)
(0.261811 -0.525242 -3.56848e-20)
(0.293433 -0.734688 -1.98355e-20)
(0.358169 -0.977964 5.35721e-20)
(0.427566 -1.19825 -3.57869e-20)
(0.464241 -1.33233 3.9286e-20)
(0.468974 -1.38592 3.00108e-20)
(0.445035 -1.36103 -2.53149e-20)
(0.385983 -1.32008 -2.77641e-20)
(0.405082 -1.26671 2.14079e-20)
(0.285368 -1.21564 1.30141e-20)
(0.329531 -1.27536 4.99694e-20)
(0.253554 -1.12374 -4.85673e-22)
(0.295264 -0.92014 -2.3276e-20)
(0.206137 0.202774 -4.80589e-20)
(0.296422 -0.111477 5.71079e-21)
(0.356918 -0.373918 -4.87848e-20)
(0.380883 -0.584025 -7.95003e-22)
(0.450081 -0.810386 4.40662e-20)
(0.562506 -1.05257 -2.02188e-19)
(0.644877 -1.23378 7.15298e-20)
(0.66426 -1.32113 3.50922e-20)
(0.649267 -1.33158 -1.3268e-19)
(0.600993 -1.29065 2.53546e-20)
(0.522313 -1.2463 1.15254e-20)
(0.517156 -1.16683 -5.55948e-20)
(0.359925 -1.11962 -1.95261e-19)
(0.368257 -1.14766 1.21756e-20)
(0.177708 -1.05089 3.09838e-20)
(0.219617 -0.952897 5.23577e-20)
(0.279865 0.166151 2.96764e-19)
(0.401002 -0.12905 -1.0259e-19)
(0.456032 -0.361854 -1.61934e-19)
(0.503704 -0.584145 7.49855e-20)
(0.635176 -0.849351 1.24834e-19)
(0.771763 -1.09255 -1.74824e-19)
(0.835105 -1.2356 3.40556e-20)
(0.820231 -1.28573 2.08111e-19)
(0.77145 -1.25915 -2.32034e-19)
(0.691552 -1.19932 9.22553e-21)
(0.599578 -1.1498 8.13833e-20)
(0.576703 -1.06066 2.02519e-20)
(0.414553 -0.975941 5.24807e-21)
(0.400745 -0.944764 2.27207e-19)
(0.185407 -0.947088 -1.81114e-19)
(0.242471 -0.945308 8.29793e-20)
(0.337883 0.12909 7.84034e-20)
(0.461195 -0.134942 -2.34414e-19)
(0.511493 -0.365809 1.91406e-19)
(0.645061 -0.634619 6.51609e-20)
(0.843713 -0.910454 -3.88318e-20)
(0.967683 -1.10259 4.87323e-20)
(0.980657 -1.18989 1.9953e-19)
(0.923732 -1.20071 9.16063e-21)
(0.837899 -1.16324 -2.22063e-19)
(0.730013 -1.10031 -6.73091e-20)
(0.652216 -1.05873 -2.38922e-20)
(0.596531 -0.983808 7.6103e-20)
(0.463656 -0.882078 9.83145e-20)
(0.481661 -0.79511 3.48463e-20)
(0.322469 -0.798696 -1.28201e-19)
(0.350054 -0.828871 1.05124e-19)
(0.357092 0.0765546 7.76478e-20)
(0.447051 -0.150236 -5.27914e-19)
(0.583635 -0.413674 7.15124e-19)
(0.850578 -0.716345 -3.81228e-19)
(1.05433 -0.947708 -3.44409e-19)
(1.10919 -1.06353 2.77643e-19)
(1.05655 -1.09173 -2.02914e-19)
(0.964753 -1.06284 3.49804e-20)
(0.864626 -1.03076 -1.0514e-19)
(0.774522 -0.990661 1.1231e-19)
(0.725922 -0.938643 7.55496e-20)
(0.629575 -0.884692 1.64479e-19)
(0.557317 -0.850436 -8.88286e-20)
(0.567024 -0.762863 -3.10281e-20)
(0.477874 -0.676389 -8.94697e-20)
(0.481236 -0.630563 2.10885e-19)
(0.444029 -0.223704 -4.81069e-19)
(0.790507 -0.539121 2.52367e-21)
(1.09251 -0.791723 1.89501e-19)
(1.21037 -0.927141 1.00844e-19)
(1.18667 -0.973606 -2.97492e-19)
(1.10855 -0.973221 1.33594e-20)
(1.0188 -0.944829 -2.43238e-19)
(0.931901 -0.913179 4.13131e-19)
(0.874854 -0.892727 -1.44726e-19)
(0.826283 -0.837647 -1.64445e-19)
(0.726999 -0.772511 -3.66681e-21)
(0.715302 -0.740316 -9.24711e-20)
(0.661257 -0.709975 1.08046e-19)
(0.6153 -0.644684 5.27184e-20)
(0.595132 -0.507936 -8.2558e-20)
(1.08173 -0.672939 -5.56441e-20)
(1.26163 -0.81262 4.77396e-19)
(1.27059 -0.867627 7.19165e-19)
(1.21376 -0.878814 -1.50162e-19)
(1.15278 -0.862089 1.24761e-19)
(1.09202 -0.841927 1.63461e-19)
(1.03489 -0.805821 -3.59147e-19)
(0.986816 -0.758282 -1.36003e-21)
(0.906433 -0.727965 4.03266e-19)
(0.85444 -0.689568 -3.06788e-20)
(0.837725 -0.645786 -1.97333e-19)
(0.783799 -0.599447 1.54126e-19)
(0.724312 -0.570416 -6.99362e-20)
(0.705484 -0.533507 -3.9924e-21)
(1.32885 -0.754441 8.45603e-20)
(1.31151 -0.777822 3.58938e-19)
(1.27492 -0.781968 -6.01769e-19)
(1.22447 -0.773059 -2.76394e-19)
(1.16587 -0.752292 -1.59712e-19)
(1.11811 -0.730568 2.56768e-20)
(1.05924 -0.676884 -1.77186e-19)
(0.987411 -0.640965 -1.43317e-19)
(0.969109 -0.593511 2.14192e-20)
(0.8977 -0.573498 2.57336e-19)
(0.869703 -0.505865 -1.13204e-19)
(0.785689 -0.454968 -3.75773e-20)
(0.790931 -0.396264 3.00138e-20)
(1.37305 -0.718119 8.93377e-20)
(1.3308 -0.709517 1.29399e-19)
(1.27026 -0.69281 2.79872e-20)
(1.20714 -0.6659 -2.82305e-20)
(1.14527 -0.635372 1.07514e-19)
(1.07235 -0.626514 2.18305e-20)
(1.0518 -0.590256 -1.20671e-19)
(0.995287 -0.548848 5.05779e-20)
(0.959966 -0.513977 1.56067e-19)
(0.902448 -0.456269 -2.25739e-19)
(0.877417 -0.448293 1.99193e-19)
(0.861685 -0.370819 -1.51604e-19)
(1.32803 -0.62096 -1.14074e-19)
(1.26529 -0.60361 -1.28283e-19)
(1.21373 -0.587997 3.98078e-19)
(1.15263 -0.561843 -2.57581e-19)
(1.11529 -0.535401 8.05334e-20)
(1.07384 -0.513342 -1.37558e-19)
(1.01478 -0.492197 1.30254e-19)
(0.991135 -0.449122 -1.25114e-19)
(0.953863 -0.422457 1.45153e-19)
(0.948442 -0.389376 7.92591e-20)
(0.917959 -0.355344 2.6034e-20)
(0.356624 -0.493923 2.70088e-20)
(0.473098 0.112725 -6.85565e-21)
(0.556266 0.621033 6.20196e-21)
(0.628071 0.929332 2.60505e-21)
(0.684317 1.0244 -1.25567e-20)
(0.72457 1.03268 3.12439e-21)
(0.751269 0.985621 2.15811e-21)
(0.775715 0.956343 -3.72207e-21)
(0.783576 0.960233 2.79577e-21)
(0.763693 1.04576 -9.58189e-21)
(0.753417 1.06683 -7.69715e-22)
(0.677377 0.99437 -1.59468e-21)
(0.616206 0.771707 8.33072e-21)
(0.593895 0.355493 7.77858e-21)
(0.538853 -0.135219 -6.93667e-21)
(0.578612 -0.602139 -7.52554e-22)
(0.555244 -0.814361 -6.35326e-22)
(0.645091 -0.913286 -2.49734e-21)
(0.63768 -0.878004 4.46266e-21)
(0.67842 -0.876536 -1.91028e-21)
(0.157704 -0.594343 -1.47665e-20)
(0.249058 -0.0143246 -3.46173e-20)
(0.335505 0.461841 5.04022e-21)
(0.443832 0.781435 3.09226e-20)
(0.556117 0.920666 1.50531e-20)
(0.648662 0.98775 -7.61559e-21)
(0.71417 0.972532 -4.47802e-21)
(0.769118 0.961935 1.84698e-20)
(0.824463 0.977121 -1.94167e-20)
(0.830375 1.06525 -1.96363e-20)
(0.850784 1.11743 8.88899e-22)
(0.830582 1.06069 5.17625e-20)
(0.794949 0.835145 -4.44288e-20)
(0.802926 0.400703 -4.76856e-20)
(0.755351 -0.122649 7.71815e-20)
(0.764294 -0.61698 -2.93292e-20)
(0.698267 -0.880232 8.72918e-22)
(0.743976 -0.959874 2.34859e-20)
(0.692954 -0.896516 -2.71755e-20)
(0.702176 -0.866605 1.01059e-20)
(0.0411724 -0.665787 -8.89069e-20)
(0.123656 -0.155989 1.55138e-20)
(0.174546 0.271397 1.76775e-20)
(0.321262 0.616016 -2.17619e-20)
(0.459825 0.791276 1.29672e-20)
(0.575642 0.897769 -7.63709e-21)
(0.678813 0.895916 2.62018e-20)
(0.752606 0.888609 9.45004e-23)
(0.848061 0.925385 1.27114e-20)
(0.912454 1.03341 1.42881e-21)
(0.974474 1.12824 -5.06877e-20)
(1.01764 1.11898 1.72243e-21)
(1.00761 0.925874 -3.85137e-20)
(1.02542 0.504065 6.55762e-20)
(0.99199 -0.0304507 -4.00213e-20)
(0.967389 -0.541472 5.20839e-20)
(0.889299 -0.854261 3.27567e-20)
(0.845578 -0.948039 -4.46006e-20)
(0.772005 -0.892731 -2.20752e-20)
(0.75535 -0.844647 1.08609e-20)
(0.0830572 -0.679519 -8.33926e-20)
(0.134012 -0.339583 4.11764e-20)
(0.13838 0.045709 4.94768e-20)
(0.268696 0.408341 -3.44978e-20)
(0.400154 0.628459 2.42919e-20)
(0.5164 0.780563 -3.42635e-20)
(0.640037 0.822156 2.60152e-20)
(0.729004 0.816703 3.42563e-21)
(0.835323 0.833506 -3.09869e-20)
(0.949566 0.932346 1.11657e-20)
(1.03421 1.06215 3.05879e-20)
(1.12615 1.10567 -4.26934e-20)
(1.15547 0.974014 3.81182e-20)
(1.19638 0.602817 2.76884e-20)
(1.20452 0.0634893 3.82146e-20)
(1.15562 -0.467847 -1.12196e-19)
(1.09047 -0.812561 2.15007e-20)
(0.9742 -0.913344 -7.30651e-21)
(0.882908 -0.88603 3.13669e-20)
(0.802202 -0.811745 -8.02597e-21)
(0.286488 -0.623125 -1.41487e-19)
(0.223764 -0.489485 4.20402e-21)
(0.19481 -0.145764 1.05929e-19)
(0.258393 0.191883 -7.07156e-20)
(0.367359 0.434543 -3.37296e-21)
(0.466901 0.6135 1.82472e-20)
(0.586606 0.689412 1.71675e-21)
(0.701569 0.70616 -6.64686e-21)
(0.807072 0.712312 -3.67872e-20)
(0.946305 0.794253 1.30665e-20)
(1.07919 0.932349 2.36219e-20)
(1.2172 1.03932 -8.64502e-21)
(1.29278 0.99338 9.92366e-20)
(1.34478 0.695137 7.2318e-20)
(1.38085 0.221217 -1.32992e-19)
(1.33294 -0.287986 -6.23849e-20)
(1.26482 -0.677004 1.94239e-20)
(1.08798 -0.823736 -7.4425e-21)
(1.00592 -0.819762 3.72575e-20)
(0.845227 -0.760588 -2.59043e-20)
(0.508323 -0.466411 8.19656e-20)
(0.371433 -0.468683 -2.02437e-20)
(0.282608 -0.293498 2.13151e-20)
(0.291716 -0.00866777 -7.81697e-21)
(0.357507 0.24949 -2.60358e-20)
(0.44248 0.465426 1.59162e-20)
(0.543507 0.563702 -7.39623e-21)
(0.655998 0.590674 2.61971e-20)
(0.763844 0.574034 -3.83983e-20)
(0.903452 0.607002 1.4177e-20)
(1.04956 0.73799 -4.27925e-20)
(1.2007 0.89318 1.07348e-20)
(1.3429 0.944449 3.46059e-20)
(1.42306 0.740153 5.96895e-20)
(1.48295 0.318471 1.43227e-20)
(1.44488 -0.166994 -5.04858e-20)
(1.38152 -0.545316 9.16563e-21)
(1.20171 -0.737427 1.08048e-20)
(1.10719 -0.765495 -1.35675e-20)
(0.912664 -0.70977 -5.3793e-20)
(0.631055 -0.427576 -1.00316e-20)
(0.549787 -0.339024 -2.17657e-20)
(0.420121 -0.292838 3.89527e-22)
(0.354755 -0.13215 -6.67812e-21)
(0.357654 0.0808523 6.71073e-21)
(0.425195 0.300435 3.97699e-21)
(0.507283 0.441422 -1.12432e-21)
(0.611307 0.505178 8.11069e-22)
(0.733952 0.494385 1.86466e-21)
(0.849879 0.485596 1.08681e-21)
(1.00327 0.562349 6.63336e-21)
(1.15208 0.716158 -6.26252e-21)
(1.29145 0.840402 -4.63753e-20)
(1.40793 0.742261 5.67229e-20)
(1.51742 0.451524 -1.27684e-19)
(1.50422 0.0483649 4.20625e-20)
(1.45351 -0.348193 5.48526e-20)
(1.31039 -0.588658 6.02972e-20)
(1.18354 -0.65742 -3.54702e-20)
(1.00214 -0.629399 -4.4753e-20)
(0.895694 -0.616016 1.88814e-20)
(0.717122 -0.425011 -6.61935e-20)
(0.668021 -0.338342 2.82056e-20)
(0.600979 -0.249642 8.43287e-21)
(0.498355 -0.167928 -5.71148e-21)
(0.431692 -0.0231472 -5.05288e-21)
(0.423889 0.167927 -1.66391e-21)
(0.489006 0.309571 2.54079e-21)
(0.573489 0.365967 2.6078e-21)
(0.688138 0.368475 -4.85283e-22)
(0.794219 0.34395 -7.36196e-21)
(0.936145 0.380027 -1.28391e-20)
(1.08126 0.521613 -5.56921e-21)
(1.25924 0.690749 3.15652e-20)
(1.3874 0.694795 3.94012e-20)
(1.44805 0.496529 -3.67709e-20)
(1.45132 0.156856 4.87779e-20)
(1.44942 -0.209798 -4.55809e-20)
(1.35162 -0.469156 -3.78765e-21)
(1.22476 -0.577604 -3.06749e-22)
(1.08205 -0.559476 -4.29015e-21)
(0.917087 -0.569111 9.55656e-22)
(0.801225 -0.327583 2.81226e-20)
(0.738812 -0.312261 3.30617e-20)
(0.690037 -0.250426 -9.09278e-22)
(0.622622 -0.154242 -3.71823e-22)
(0.572626 -0.0665147 -6.55606e-21)
(0.532271 0.067911 7.11801e-21)
(0.559192 0.234147 -1.86465e-21)
(0.608844 0.337127 8.34624e-21)
(0.711523 0.338686 -7.6333e-21)
(0.771421 0.282346 3.78088e-22)
(0.83299 0.249897 -9.38313e-23)
(0.938687 0.321598 -4.2305e-21)
(1.08863 0.518273 -2.95181e-20)
(1.21906 0.638066 6.28262e-20)
(1.40224 0.560519 -4.62562e-20)
(1.49355 0.293056 1.97169e-20)
(1.49225 -0.0578332 1.67696e-20)
(1.39539 -0.327376 2.04246e-21)
(1.26116 -0.483757 -4.02523e-20)
(1.14012 -0.472379 2.10493e-20)
(0.964559 -0.509196 -1.25565e-20)
(0.882657 -0.348535 5.04105e-22)
(0.833526 -0.295252 1.35198e-22)
(0.776801 -0.251711 1.40361e-20)
(0.709359 -0.19421 -2.09854e-20)
(0.670189 -0.130996 -2.0936e-21)
(0.635564 -0.0620099 -4.63607e-21)
(0.652199 0.051533 1.25851e-20)
(0.686979 0.186152 -5.88538e-21)
(0.718759 0.279752 -4.47807e-21)
(0.725732 0.293761 2.49504e-21)
(0.764999 0.235322 -6.21203e-22)
(0.83225 0.214332 1.43439e-20)
(0.970266 0.333519 7.50802e-21)
(1.13321 0.455532 -1.61083e-20)
(1.24304 0.501715 -2.44945e-20)
(1.23509 0.388983 2.07288e-20)
(1.30648 0.124586 1.81671e-20)
(1.35278 -0.145228 -1.7251e-20)
(1.29919 -0.367897 -1.19433e-20)
(1.21458 -0.395906 1.98542e-20)
(1.05099 -0.438546 -1.71029e-21)
(0.903154 -0.267459 0)
(0.872112 -0.23258 0)
(0.841328 -0.188258 0)
(0.808803 -0.13301 0)
(0.779459 -0.078886 0)
(0.742787 -0.0469875 0)
(0.730858 0.0213826 0)
(0.732166 0.138755 0)
(0.764532 0.23676 0)
(0.81129 0.253447 0)
(0.860313 0.185991 0)
(0.871054 0.142748 0)
(0.936375 0.253545 0)
(0.978477 0.407898 0)
(1.06421 0.472685 0)
(1.16708 0.353475 0)
(1.3404 0.0764705 0)
(1.38457 -0.120806 0)
(1.30743 -0.292698 0)
(1.23193 -0.309456 0)
(1.07632 -0.325379 0)
(0.987801 -0.383525 0)
(0.935157 -0.217765 0)
(0.912269 -0.193184 0)
(0.865677 -0.166075 0)
(0.818763 -0.124869 0)
(0.803551 -0.0672208 0)
(0.784772 -0.0278946 0)
(0.77876 0.037958 0)
(0.76719 0.135179 0)
(0.815932 0.197856 0)
(0.880217 0.214587 0)
(0.939743 0.168244 0)
(0.904096 0.151138 0)
(0.906746 0.25301 0)
(0.899951 0.389227 0)
(1.05451 0.405619 0)
(1.21276 0.279442 0)
(1.35672 0.0296682 0)
(1.34294 -0.102606 0)
(1.2478 -0.267566 0)
(1.16732 -0.278618 0)
(1.03509 -0.302156 0)
(0.955636 -0.367724 0)
(0.95273 -0.171251 0)
(0.931709 -0.155965 0)
(0.901787 -0.128626 0)
(0.860447 -0.0970157 0)
(0.840477 -0.0488 0)
(0.824958 -0.0162772 0)
(0.81955 0.0299167 0)
(0.822938 0.120472 0)
(0.86607 0.154433 0)
(0.912865 0.172904 0)
(0.964556 0.163667 0)
(0.938624 0.173044 0)
(0.955713 0.25335 0)
(0.969931 0.344247 0)
(1.13926 0.300441 0)
(1.26799 0.189451 0)
(1.31987 -0.00276536 0)
(1.32375 -0.0664585 0)
(1.24637 -0.202566 0)
(1.19364 -0.2142 0)
(1.11543 -0.199772 0)
(1.00752 -0.321777 0)
(0.959697 -0.135764 0)
(0.944812 -0.123395 0)
(0.923447 -0.0999515 0)
(0.897059 -0.0723785 0)
(0.872672 -0.037834 0)
(0.865623 0.000269492 0)
(0.855728 0.0302207 0)
(0.869274 0.100469 0)
(0.901997 0.122239 0)
(0.93174 0.148409 0)
(0.970554 0.146733 0)
(0.962784 0.172542 0)
(1.00544 0.227826 0)
(1.05157 0.262059 0)
(1.17563 0.198534 0)
(1.27293 0.153008 0)
(1.2769 -0.001497 0)
(1.28179 -0.0449914 0)
(1.21571 -0.175111 0)
(1.11017 -0.199792 0)
(1.05438 -0.181241 0)
(0.967482 -0.281139 0)
(0.963157 -0.108116 0)
(0.9601 -0.0928149 0)
(0.93884 -0.0767914 0)
(0.926292 -0.0508549 0)
(0.898218 -0.0295242 0)
(0.899657 0.0097044 0)
(0.889067 0.0253646 0)
(0.902377 0.0827295 0)
(0.925753 0.0946358 0)
(0.94196 0.12175 0)
(0.979583 0.13121 0)
(0.977779 0.153315 0)
(1.02957 0.1753 0)
(1.09952 0.209675 0)
(1.15042 0.145845 0)
(1.23782 0.1237 0)
(1.2227 -0.0116148 0)
(1.22686 -0.0347579 0)
(1.20355 -0.115164 0)
(1.1216 -0.153863 0)
(1.14566 -0.105229 0)
(1.06647 -0.226661 0)
(0.971146 -0.0826737 0)
(0.971695 -0.0664805 0)
(0.953956 -0.0599663 0)
(0.946473 -0.0336663 0)
(0.924742 -0.022788 0)
(0.924563 0.0141148 0)
(0.9188 0.0240622 0)
(0.926789 0.0663632 0)
(0.948162 0.0771945 0)
(0.955501 0.103951 0)
(0.987835 0.10884 0)
(1.0009 0.137366 0)
(1.03741 0.133526 0)
(1.09625 0.165595 0)
(1.1301 0.102003 0)
(1.19605 0.0974746 0)
(1.18769 -0.000611559 0)
(1.19161 -0.0196582 0)
(1.17944 -0.0860617 0)
(1.08768 -0.150194 0)
(1.07256 -0.114632 0)
(0.980637 -0.214055 0)
(0.978892 -0.062867 0)
(0.980877 -0.0472703 0)
(0.970553 -0.0450358 0)
(0.962728 -0.0208136 0)
(0.951857 -0.0155462 0)
(0.943207 0.016008 0)
(0.948914 0.0224144 0)
(0.946981 0.0563701 0)
(0.969163 0.0624991 0)
(0.971772 0.0878813 0)
(0.997306 0.0881955 0)
(1.01448 0.114767 0)
(1.04133 0.099019 0)
(1.08908 0.12942 0)
(1.11423 0.0701284 0)
(1.15104 0.0803708 0)
(1.1662 -0.00401849 0)
(1.13941 -0.0305792 0)
(1.16203 -0.0565087 0)
(1.09504 -0.113828 0)
(1.09819 -0.0395659 0)
(1.03279 -0.155233 0)
(0.985642 -0.0468311 0)
(0.989478 -0.0326526 0)
(0.98459 -0.031901 0)
(0.977871 -0.0117638 0)
(0.972254 -0.00915688 0)
(0.963842 0.0166535 0)
(0.970485 0.0200334 0)
(0.967982 0.0475419 0)
(0.984344 0.0478222 0)
(0.987544 0.0741411 0)
(1.00721 0.0659734 0)
(1.02371 0.0949365 0)
(1.04577 0.0721527 0)
(1.07728 0.0982289 0)
(1.1018 0.0501436 0)
(1.11732 0.0554826 0)
(1.14612 -0.000379759 0)
(1.11297 -0.0154272 0)
(1.13811 -0.0359853 0)
(1.07101 -0.0981413 0)
(1.06522 -0.0457996 0)
(1.0348 -0.141516 0)
(0.992676 -0.033686 0)
(0.996957 -0.0228617 0)
(0.994805 -0.022539 0)
(0.989336 -0.00675183 0)
(0.98785 -0.00478509 0)
(0.980454 0.0153018 0)
(0.987369 0.0170633 0)
(0.984928 0.0391134 0)
(0.998873 0.0377035 0)
(1.00078 0.0603792 0)
(1.01807 0.050789 0)
(1.0265 0.0750172 0)
(1.05093 0.0518852 0)
(1.06167 0.0744475 0)
(1.09543 0.0325145 0)
(1.08811 0.0438829 0)
(1.1243 -0.00148531 0)
(1.0821 -0.0184146 0)
(1.11407 -0.0250335 0)
(1.06593 -0.0771081 0)
(1.06033 -0.0199753 0)
(1.04585 -0.0958998 0)
(0.998664 -0.0233632 0)
(1.00574 -0.0168864 0)
(1.00267 -0.0155553 0)
(1.00197 -0.00405967 0)
(0.998377 -0.00203503 0)
(0.995683 0.0134393 0)
(0.999621 0.0140877 0)
(0.999825 0.0324451 0)
(1.01017 0.0292403 0)
(1.01002 0.048637 0)
(1.0266 0.0381208 0)
(1.02719 0.0583964 0)
(1.05299 0.0375498 0)
(1.05008 0.0555976 0)
(1.08537 0.0232031 0)
(1.06403 0.0312802 0)
(1.10485 -0.00220779 0)
(1.06162 -0.00914044 0)
(1.09438 -0.0179993 0)
(1.05388 -0.0518152 0)
(1.04703 -0.0205357 0)
(1.04268 -0.074828 0)
(1.00661 -0.0144835 0)
(1.0153 -0.0115519 0)
(1.01136 -0.00876625 0)
(1.01287 -0.00267339 0)
(1.00837 0.00120677 0)
(1.00746 0.0100094 0)
(1.00995 0.0129912 0)
(1.00936 0.024098 0)
(1.01888 0.0235934 0)
(1.01572 0.0370553 0)
(1.03257 0.0293969 0)
(1.02595 0.0451377 0)
(1.05246 0.0267822 0)
(1.0396 0.0436278 0)
(1.07439 0.0140524 0)
(1.04828 0.0266314 0)
(1.08512 -0.00266108 0)
(1.04697 -0.00476801 0)
(1.07376 -0.0136119 0)
(1.04368 -0.0390175 0)
(1.04081 -0.0161067 0)
(1.04039 -0.0523777 0)
(1.01403 -0.00684964 0)
(1.02216 -0.00756716 0)
(1.01848 -0.00291034 0)
(1.02121 -0.00184858 0)
(1.01541 0.00366411 0)
(1.01669 0.00718139 0)
(1.01557 0.0117583 0)
(1.01803 0.0179638 0)
(1.0221 0.0193823 0)
(1.02197 0.028406 0)
(1.03146 0.0231357 0)
(1.02766 0.034888 0)
(1.04574 0.0205974 0)
(1.03521 0.0339765 0)
(1.06144 0.0107732 0)
(1.0386 0.0224562 0)
(1.06859 -0.00334878 0)
(1.03577 0.00136583 0)
(1.06093 -0.0145786 0)
(1.0347 -0.0214973 0)
(1.03857 -0.0181942 0)
(1.03245 -0.0353623 0)
(1.01906 -0.00176558 0)
(1.02668 -0.00439338 0)
(1.02275 0.00101735 0)
(1.02597 -0.000894929 0)
(1.0202 0.00586825 0)
(1.0223 0.00564697 0)
(1.02012 0.0119305 0)
(1.02263 0.0137545 0)
(1.02438 0.0170703 0)
(1.02395 0.0217605 0)
(1.03072 0.0192138 0)
(1.02663 0.0275468 0)
(1.04069 0.016491 0)
(1.03111 0.0278465 0)
(1.05122 0.00821437 0)
(1.03345 0.0199974 0)
(1.05516 -0.0030609 0)
(1.03179 0.00460483 0)
(1.04986 -0.0123799 0)
(1.03038 -0.0130724 0)
(1.0362 -0.017278 0)
(1.02822 -0.0247428 0)
(1.02123 0.00290846 0)
(1.02676 -0.00205784 0)
(1.02463 0.00514317 0)
(1.02805 0.000554484 0)
(1.0229 0.00887354 0)
(1.02553 0.00521103 0)
(1.02162 0.0128524 0)
(1.02559 0.0109406 0)
(1.02365 0.0158415 0)
(1.02664 0.0171757 0)
(1.02726 0.0167574 0)
(1.02835 0.0220996 0)
(1.03368 0.0137698 0)
(1.03154 0.0232087 0)
(1.04143 0.0064084 0)
(1.03286 0.0187314 0)
(1.04506 -0.00396409 0)
(1.03061 0.00883826 0)
(1.04282 -0.0137082 0)
(1.02826 -0.00397167 0)
(1.03515 -0.0186925 0)
(1.02475 -0.0156158 0)
(1.01997 0.0047591 0)
(1.02571 0.000336909 0)
(1.02457 0.00725599 0)
(1.028 0.00237397 0)
(1.02254 0.00976345 0)
(1.02627 0.00549697 0)
(1.02096 0.0123538 0)
(1.02722 0.00977276 0)
(1.02224 0.0142724 0)
(1.02867 0.0145374 0)
(1.02405 0.0143285 0)
(1.02997 0.0183478 0)
(1.02833 0.011423 0)
(1.03283 0.01957 0)
(1.03435 0.00523835 0)
(1.03393 0.0165848 0)
(1.03789 -0.00315817 0)
(1.03135 0.00919334 0)
(1.03833 -0.0110941 0)
(1.02742 -0.00111812 0)
(1.0358 -0.0153154 0)
(1.02181 -0.0115249 0)
(1.02027 0.00614563 0)
(1.02474 0.00196485 0)
(1.02316 0.00797544 0)
(1.02632 0.00323079 0)
(1.02149 0.00972593 0)
(1.02585 0.00564605 0)
(1.02052 0.0116752 0)
(1.02753 0.00893545 0)
(1.02136 0.012796 0)
(1.02908 0.0123462 0)
(1.0223 0.0123056 0)
(1.03047 0.0151681 0)
(1.02543 0.0096923 0)
(1.033 0.016152 0)
(1.03032 0.00445319 0)
(1.03384 0.0141842 0)
(1.03372 -0.00255016 0)
(1.03126 0.00898062 0)
(1.03521 -0.00927908 0)
(1.02755 0.0011796 0)
(1.0346 -0.0128137 0)
(1.02186 -0.00797488 0)
(1.01895 0.00654873 0)
(1.02243 0.0032563 0)
(1.02154 0.00761024 0)
(1.02491 0.0042741 0)
(1.02087 0.00896 0)
(1.02518 0.0060843 0)
(1.02016 0.0102488 0)
(1.02697 0.00830389 0)
(1.02086 0.0107933 0)
(1.02873 0.0105795 0)
(1.0215 0.0102603 0)
(1.03019 0.0124581 0)
(1.0237 0.00811344 0)
(1.03244 0.0129217 0)
(1.0276 0.00415058 0)
(1.0333 0.0112837 0)
(1.03041 -0.00105469 0)
(1.03095 0.00721604 0)
(1.03229 -0.00598941 0)
(1.02748 0.00114773 0)
(1.03282 -0.008845 0)
(1.02215 -0.00599308 0)
(1.01798 0.00626874 0)
(1.02162 0.00406456 0)
(1.02116 0.00729802 0)
(1.02404 0.00484952 0)
(1.02064 0.00811321 0)
(1.02426 0.00590505 0)
(1.0201 0.00881242 0)
(1.02598 0.0073097 0)
(1.02086 0.00907887 0)
(1.02768 0.00876801 0)
(1.02133 0.00856025 0)
(1.02878 0.00988448 0)
(1.02286 0.00687468 0)
(1.03083 0.0101301 0)
(1.02596 0.00392045 0)
(1.03156 0.00889154 0)
(1.02804 -1.72025e-05 0)
(1.02971 0.00600711 0)
(1.02952 -0.0037927 0)
(1.02709 0.00157361 0)
(1.03015 -0.00612725 0)
(1.02285 -0.00384515 0)
(1.01852 0.00618652 0)
(1.02145 0.00475057 0)
(1.02081 0.00672567 0)
(1.02316 0.0050307 0)
(1.02035 0.00707185 0)
(1.02343 0.00556444 0)
(1.02016 0.00745731 0)
(1.02506 0.00638982 0)
(1.02089 0.00755564 0)
(1.02642 0.00721012 0)
(1.02105 0.0070905 0)
(1.0272 0.00779757 0)
(1.0222 0.00592023 0)
(1.02883 0.00784259 0)
(1.02448 0.00380308 0)
(1.0294 0.00685926 0)
(1.02597 0.000997715 0)
(1.02793 0.00477544 0)
(1.02708 -0.00177836 0)
(1.02604 0.00163108 0)
(1.02774 -0.00369444 0)
(1.02284 -0.00226005 0)
(1.01832 0.00598016 0)
(1.02073 0.00484533 0)
(1.02031 0.0061396 0)
(1.02234 0.00487595 0)
(1.0202 0.0062733 0)
(1.02267 0.005124 0)
(1.02016 0.00643462 0)
(1.02396 0.00553327 0)
(1.02078 0.00636365 0)
(1.02495 0.00593391 0)
(1.0208 0.00592193 0)
(1.02544 0.00626878 0)
(1.02153 0.00504287 0)
(1.02666 0.00625032 0)
(1.02324 0.00350332 0)
(1.02715 0.00558341 0)
(1.02419 0.00147199 0)
(1.02606 0.00415788 0)
(1.0249 -0.000577641 0)
(1.02492 0.00196497 0)
(1.02538 -0.0020849 0)
(1.0227 -0.000910515 0)
(1.01799 0.00555939 0)
(1.0202 0.00476932 0)
(1.01985 0.00559561 0)
(1.02154 0.00467009 0)
(1.01979 0.00554494 0)
(1.02175 0.00467251 0)
(1.01982 0.0054986 0)
(1.02278 0.00479823 0)
(1.02038 0.00532394 0)
(1.02347 0.00495918 0)
(1.02035 0.00495593 0)
(1.02375 0.0051406 0)
(1.02086 0.00431854 0)
(1.02467 0.00511567 0)
(1.02214 0.00325364 0)
(1.02507 0.00465478 0)
(1.02272 0.00184573 0)
(1.02428 0.00366516 0)
(1.02316 0.000405777 0)
(1.02367 0.00210581 0)
(1.02347 -0.000771319 0)
(1.02224 -9.83394e-06 0)
(1.01774 0.00520927 0)
(1.01956 0.00458539 0)
(1.01926 0.00510425 0)
(1.02063 0.00436614 0)
(1.01928 0.00491189 0)
(1.02079 0.00424214 0)
(1.01938 0.00475291 0)
(1.02161 0.00424339 0)
(1.0199 0.00452266 0)
(1.02215 0.00430041 0)
(1.01985 0.0041864 0)
(1.02221 0.00439311 0)
(1.02008 0.00368838 0)
(1.02289 0.00438364 0)
(1.02103 0.00295232 0)
(1.02326 0.00407037 0)
(1.02131 0.00199403 0)
(1.02274 0.00335736 0)
(1.02156 0.00103437 0)
(1.02254 0.00217035 0)
(1.0218 0.000196695 0)
(1.02169 0.000517002 0)
(1.01727 0.00471933 0)
(1.01876 0.00423735 0)
(1.01851 0.00455011 0)
(1.01963 0.00399693 0)
(1.01861 0.00432828 0)
(1.01981 0.00384476 0)
(1.0188 0.00414639 0)
(1.02051 0.00379068 0)
(1.01927 0.00390745 0)
(1.02087 0.00376666 0)
(1.01913 0.00359668 0)
(1.02082 0.00379846 0)
(1.01931 0.00325072 0)
(1.0214 0.00380566 0)
(1.02001 0.00275409 0)
(1.0217 0.00356417 0)
(1.02012 0.00211251 0)
(1.02139 0.00303918 0)
(1.02027 0.00147301 0)
(1.02146 0.00213612 0)
(1.02046 0.00084934 0)
(1.02103 0.000857611 0)
(1.01662 0.00409366 0)
(1.01784 0.00376004 0)
(1.01766 0.00393441 0)
(1.01859 0.00356403 0)
(1.01782 0.00373647 0)
(1.0188 0.00343325 0)
(1.01802 0.00356595 0)
(1.01935 0.00336626 0)
(1.01839 0.00335793 0)
(1.01966 0.00333235 0)
(1.01834 0.00314305 0)
(1.01969 0.00337605 0)
(1.01849 0.00293508 0)
(1.02013 0.00336988 0)
(1.01901 0.00260561 0)
(1.02042 0.00315946 0)
(1.0191 0.00218551 0)
(1.02027 0.00272911 0)
(1.01921 0.00174652 0)
(1.02047 0.00200461 0)
(1.01941 0.00125461 0)
(1.02029 0.000999729 0)
(1.01603 0.00346045 0)
(1.01699 0.00324041 0)
(1.01682 0.00332513 0)
(1.01756 0.00307672 0)
(1.01696 0.00315543 0)
(1.01774 0.00296327 0)
(1.01715 0.00302158 0)
(1.01824 0.00291087 0)
(1.01753 0.0028821 0)
(1.01857 0.00289208 0)
(1.01754 0.00274695 0)
(1.01861 0.00291973 0)
(1.01764 0.00261642 0)
(1.01901 0.00291368 0)
(1.01809 0.00241213 0)
(1.01934 0.00275728 0)
(1.01819 0.00212664 0)
(1.01932 0.00243377 0)
(1.01832 0.00181185 0)
(1.01961 0.00189361 0)
(1.01851 0.00140816 0)
(1.01961 0.00114029 0)
(1.01543 0.00279851 0)
(1.01617 0.00266395 0)
(1.01598 0.0026758 0)
(1.01662 0.00252697 0)
(1.01614 0.00254274 0)
(1.01683 0.00243974 0)
(1.01637 0.00245417 0)
(1.01727 0.00239821 0)
(1.01669 0.0023604 0)
(1.01757 0.002366 0)
(1.01675 0.0022712 0)
(1.01768 0.00237629 0)
(1.0169 0.00221308 0)
(1.01807 0.00237934 0)
(1.01729 0.00209732 0)
(1.0184 0.00226318 0)
(1.01743 0.00190537 0)
(1.01851 0.00203693 0)
(1.01758 0.00167619 0)
(1.01883 0.00165873 0)
(1.01779 0.00134733 0)
(1.01896 0.00112955 0)
(1.01484 0.00226799 0)
(1.01545 0.00219215 0)
(1.01526 0.0021846 0)
(1.01582 0.00210085 0)
(1.01544 0.00209298 0)
(1.01605 0.00203729 0)
(1.01565 0.00202807 0)
(1.01642 0.00200002 0)
(1.01594 0.00196278 0)
(1.01672 0.00197269 0)
(1.01606 0.00191132 0)
(1.01691 0.00198058 0)
(1.01624 0.00188484 0)
(1.01726 0.00197986 0)
(1.01656 0.00181292 0)
(1.0176 0.00189378 0)
(1.01673 0.00168067 0)
(1.0178 0.00173023 0)
(1.01692 0.00151056 0)
(1.01814 0.00146036 0)
(1.01716 0.00125356 0)
(1.01834 0.00107602 0)
(1.0144 0.00149121 0)
(1.01489 0.00145734 0)
(1.01467 0.00145588 0)
(1.01516 0.00141446 0)
(1.01482 0.00141381 0)
(1.01538 0.00138984 0)
(1.01503 0.00139271 0)
(1.01571 0.00138364 0)
(1.01529 0.00137068 0)
(1.01601 0.00137845 0)
(1.01546 0.00135259 0)
(1.01624 0.00139363 0)
(1.01565 0.00135175 0)
(1.01658 0.00140672 0)
(1.01594 0.0013204 0)
(1.01692 0.00136308 0)
(1.01615 0.00124374 0)
(1.01719 0.00127105 0)
(1.01636 0.00113874 0)
(1.01753 0.00110716 0)
(1.0166 0.000964395 0)
(1.0178 0.000860054 0)
(1.01407 0.000875805 0)
(1.01449 0.00085746 0)
(1.01426 0.000851619 0)
(1.01472 0.00083172 0)
(1.01442 0.000829601 0)
(1.01495 0.000821241 0)
(1.01461 0.000822809 0)
(1.01522 0.000820827 0)
(1.01482 0.00081389 0)
(1.0155 0.000818562 0)
(1.01501 0.000807377 0)
(1.01576 0.000829751 0)
(1.01522 0.000813748 0)
(1.01608 0.000841351 0)
(1.01548 0.000801744 0)
(1.01641 0.000819475 0)
(1.01571 0.000761944 0)
(1.01672 0.000770831 0)
(1.01595 0.000704133 0)
(1.01706 0.00068153 0)
(1.01619 0.000602916 0)
(1.01736 0.000543745 0)
(1.0138 0.000430108 0)
(1.01419 0.000419725 0)
(1.01396 0.000413252 0)
(1.0144 0.000402314 0)
(1.01412 0.000396528 0)
(1.01463 0.000389211 0)
(1.0143 0.000384731 0)
(1.0149 0.000380723 0)
(1.01451 0.000374965 0)
(1.01517 0.00037482 0)
(1.01472 0.000368307 0)
(1.01546 0.000373762 0)
(1.01494 0.000364835 0)
(1.01577 0.000371387 0)
(1.01518 0.000354739 0)
(1.0161 0.000357749 0)
(1.01544 0.000335076 0)
(1.01644 0.000333836 0)
(1.01569 0.000308172 0)
(1.01678 0.000295814 0)
(1.01594 0.000267488 0)
(1.0171 0.000242968 0)
(1.09518 -0.141656 -9.46823e-20)
(1.05549 -0.184448 9.68903e-22)
(1.02028 -0.206473 -1.13829e-19)
(1.01633 -0.228597 4.50207e-20)
(0.923469 -0.27984 -3.82564e-20)
(1.07357 -0.122598 3.08757e-20)
(1.04752 -0.142619 -7.19648e-20)
(1.00002 -0.183185 5.52198e-20)
(1.01346 -0.176366 2.65718e-20)
(0.945635 -0.236361 3.01229e-20)
(1.05053 -0.112368 -1.75186e-20)
(1.04786 -0.106657 1.68663e-20)
(0.997258 -0.154606 2.59141e-20)
(1.01006 -0.136018 -4.3539e-20)
(0.966384 -0.185586 -2.90151e-20)
(1.03121 -0.0970724 -7.47297e-21)
(1.04178 -0.0769373 5.05433e-22)
(0.998259 -0.124159 -1.25279e-20)
(0.999325 -0.108063 5.55473e-20)
(0.968451 -0.1489 4.40316e-20)
(1.02817 -0.0631981 -1.23689e-20)
(0.998458 -0.10003 -2.76213e-20)
(0.993797 -0.0867066 -6.21565e-21)
(0.971709 -0.117729 -2.799e-20)
(1.01859 -0.0498758 1.96603e-20)
(0.997931 -0.0777 2.9315e-20)
(0.995755 -0.0652571 -1.45326e-20)
(0.978771 -0.0878883 1.92279e-20)
(1.01385 -0.0397683 1.4081e-20)
(0.999107 -0.0590907 -9.01647e-21)
(0.995481 -0.0509873 9.90407e-21)
(0.984743 -0.0640681 -1.20152e-20)
(1.01298 -0.030638 -2.01615e-20)
(1.00105 -0.0446702 1.13418e-20)
(0.995416 -0.0406367 -2.23077e-21)
(0.988043 -0.0473534 5.8409e-21)
(1.01394 -0.0236379 4.92246e-21)
(1.00639 -0.0320374 -1.00633e-20)
(0.99967 -0.0312449 7.81068e-21)
(0.993355 -0.034485 -1.41571e-20)
(1.01732 -0.0158897 1.25157e-20)
(1.01296 -0.022247 -2.72737e-21)
(1.00655 -0.021531 -3.93042e-21)
(1.00101 -0.0250824 1.21173e-20)
(1.01968 -0.00976072 -8.19393e-21)
(1.01873 -0.0142888 7.16923e-21)
(1.01239 -0.0131699 -9.95048e-21)
(1.00966 -0.0169606 -8.72849e-21)
(1.02141 -0.00445414 -6.65531e-21)
(1.022 -0.00931585 7.99369e-22)
(1.0175 -0.00620064 1.10015e-20)
(1.01663 -0.01119 7.23395e-21)
(1.02093 -0.00130474 9.42883e-21)
(1.02217 -0.00605343 -2.48767e-21)
(1.01873 -0.00208256 -5.87644e-21)
(1.02029 -0.00680536 -3.60698e-21)
(1.01966 0.00132755 -3.23976e-21)