/*--------------------------------*- C++ -*----------------------------------*\
| =========                 |                                                 |
| \\      /  F ield         | OpenFOAM: The Open Source CFD Toolbox           |
|  \\    /   O peration     | Version:                                        |
|   \\  /    A nd           | Website:  www.openfoam.com                      |
|    \\/     M anipulation  |                                                 |
\*---------------------------------------------------------------------------*/
FoamFile
{
    version     2.0;
    format      ascii;
    class       volScalarField;
    location    "133";
    object      p;
}
// * * * * * * * * * * * * * * * * * * * * * * * * * * * * * * * * * * * * * //

dimensions      [0 2 -2 0 0 0 0];


internalField   nonuniform List<scalar> 
1153
(
-0.324885
-0.333975
-0.342295
-0.338074
-0.310166
-0.258184
-0.1999
-0.168048
-0.158432
-0.165344
-0.29227
-0.296989
-0.301249
-0.298845
-0.290146
-0.273998
-0.235061
-0.203311
-0.181972
-0.169619
-0.165243
-0.163982
-0.282672
-0.285684
-0.285128
-0.288274
-0.285446
-0.277743
-0.250749
-0.218567
-0.191943
-0.172954
-0.159182
-0.148986
-0.141061
-0.132914
-0.277385
-0.280884
-0.284272
-0.277449
-0.280573
-0.269849
-0.246225
-0.218466
-0.192471
-0.170229
-0.152582
-0.138452
-0.126469
-0.1155
-0.104816
-0.0937658
-0.0824508
-0.282084
-0.281106
-0.277101
-0.280049
-0.273067
-0.256702
-0.234123
-0.209134
-0.185276
-0.164032
-0.145164
-0.129065
-0.115082
-0.10265
-0.0908989
-0.0792931
-0.0680145
-0.056997
-0.0466846
-0.0365395
-0.284866
-0.300145
-0.276137
-0.275927
-0.263269
-0.242642
-0.219769
-0.197005
-0.175043
-0.154364
-0.135821
-0.119406
-0.104874
-0.0914671
-0.079287
-0.0681267
-0.0570486
-0.04653
-0.0363955
-0.0265987
-0.28272
-0.270687
-0.288558
-0.273095
-0.251891
-0.228765
-0.205433
-0.182961
-0.162101
-0.142823
-0.124653
-0.108214
-0.0937584
-0.0807296
-0.0685915
-0.0571393
-0.0465089
-0.0363961
-0.0272158
-0.0182062
-0.315254
-0.266438
-0.283288
-0.267539
-0.240542
-0.213954
-0.190132
-0.168436
-0.148137
-0.129446
-0.112229
-0.0961463
-0.0814278
-0.0682847
-0.0566572
-0.0462375
-0.0362596
-0.026751
-0.0176185
-0.00857934
-0.329984
-0.313038
-0.281345
-0.252863
-0.224513
-0.197891
-0.17373
-0.151903
-0.132016
-0.113786
-0.0972257
-0.0820828
-0.0682065
-0.0554667
-0.0437599
-0.0332751
-0.0240946
-0.0159179
-0.00841929
-0.00112875
-0.287048
-0.30637
-0.274823
-0.239879
-0.209674
-0.18259
-0.15821
-0.136152
-0.115813
-0.0973891
-0.0808342
-0.0659977
-0.0526727
-0.0409678
-0.0306523
-0.0211092
-0.01201
-0.00372725
0.00331111
0.00926021
-0.786373
-0.804328
-0.84207
-0.661187
-0.668244
-0.68677
-0.715757
-0.56558
-0.561716
-0.571762
-0.590808
-0.505816
-0.497207
-0.497892
-0.510881
-0.478382
-0.46181
-0.461817
-0.469704
-0.460562
-0.443338
-0.45404
-0.455586
-0.451006
-0.458231
-0.457716
-0.466185
-0.460639
-0.4334
-0.394708
-0.460177
-0.470475
-0.48437
-0.470462
-0.412583
-0.338937
-0.27746
-0.436775
-0.456513
-0.484196
-0.461769
-0.39257
-0.293462
-0.200244
-0.148064
-0.381827
-0.401265
-0.419524
-0.40615
-0.348402
-0.264648
-0.183359
-0.139205
-0.135196
0.0145699
0.0070341
0.00032233
-0.00790262
-0.0165764
0.0202509
0.0150267
0.00879807
0.003757
-0.00473569
0.025932
0.0221576
0.0181031
0.0150919
0.00827082
0.0311747
0.0289233
0.026854
0.0243356
0.0193856
0.0360575
0.0347866
0.0336463
0.0311543
0.0270449
0.0221779
0.0402248
0.0395392
0.0389257
0.0366258
0.033209
0.029061
0.0437609
0.0436215
0.0434037
0.041717
0.0393154
0.0365068
0.0468507
0.0471955
0.0473229
0.0462936
0.0444522
0.0419963
0.0495166
0.0501375
0.0504048
0.0496837
0.0478983
0.0455126
0.0516757
0.0524041
0.0527293
0.0521791
0.0506601
0.0487667
0.0534191
0.0541827
0.0546228
0.0542936
0.0531667
0.0516223
0.0548267
0.055592
0.0561168
0.0559188
0.0549446
0.0534308
0.0559078
0.0566237
0.0571583
0.0570096
0.056141
0.0548178
0.0566763
0.0573276
0.057872
0.0578127
0.057147
0.0560534
0.0572157
0.0577969
0.0583301
0.0583687
0.0578309
0.0568384
0.0575929
0.0580578
0.0585374
0.0586323
0.0581995
0.0573484
0.0578501
0.0581882
0.0585859
0.0587153
0.0583948
0.057696
0.058024
0.0582362
0.0585295
0.0586569
0.0584172
0.057837
0.058092
0.0582054
0.0583983
0.0584756
0.058239
0.0576904
0.0580486
0.0580873
0.0581912
0.0582055
0.0579833
0.0575491
0.0579308
0.0579335
0.0580068
0.058011
0.0578153
0.057402
0.0577478
0.0577038
0.057714
0.0576472
0.0573882
0.0569388
0.0574614
0.0573624
0.0573148
0.0572221
0.0569987
0.056653
0.0571612
0.0570359
0.0569619
0.0568652
0.0566631
0.0563388
0.0568451
0.0566907
0.0565702
0.0564327
0.0562162
0.055912
0.0565127
0.0563321
0.0561778
0.0560209
0.055819
0.0555597
0.0562245
0.0560218
0.0558417
0.0556643
0.0554584
0.055212
0.0559395
0.0557165
0.0555108
0.0553109
0.0550991
0.0548685
0.0556342
0.0554328
0.0552341
0.0550335
0.0548236
0.0546019
0.0554879
0.0553011
0.0551065
0.0549042
0.0546943
0.0544792
0.126418
0.12974
0.133976
0.138995
0.143769
0.147531
0.150043
0.151256
0.151187
0.149865
0.147013
0.142076
0.134292
0.122782
0.106447
0.083772
0.0524595
0.0108151
-0.0435627
-0.140644
0.112629
0.116912
0.120347
0.123256
0.125429
0.126426
0.126253
0.125018
0.122616
0.118669
0.112735
0.104269
0.0926766
0.0770744
0.0560562
0.02808
-0.00948078
-0.0580478
-0.116839
-0.224191
0.102278
0.105737
0.107236
0.107637
0.107186
0.105844
0.103315
0.0996417
0.0947752
0.0884144
0.0799504
0.0686179
0.053771
0.034728
0.0101597
-0.021585
-0.0635025
-0.117749
-0.179858
-0.293685
0.092258
0.0936239
0.0927309
0.0904749
0.0878178
0.0847749
0.0809137
0.075665
0.0687787
0.0600859
0.0492443
0.0356377
0.0183426
-0.00341289
-0.0306095
-0.0645947
-0.10829
-0.166714
-0.23149
-0.340675
0.0811469
0.0812087
0.0785491
0.0742422
0.0694575
0.0646067
0.0593478
0.0528361
0.04461
0.0343207
0.0216069
0.00607791
-0.0128919
-0.0362657
-0.0650913
-0.10016
-0.143474
-0.20195
-0.268705
-0.365296
0.0679094
0.0673466
0.0639814
0.0588369
0.0530011
0.0466928
0.0398347
0.0319012
0.0222403
0.0106334
-0.00334539
-0.020054
-0.0403846
-0.0646269
-0.0937742
-0.12883
-0.170875
-0.224228
-0.286007
-0.36732
0.0538175
0.0520128
0.0478618
0.0425372
0.0365866
0.0298984
0.0221682
0.0130264
0.00229924
-0.0104655
-0.0256655
-0.0424557
-0.0637205
-0.0885458
-0.117413
-0.150971
-0.189944
-0.235422
-0.285755
-0.346079
0.0423197
0.0388934
0.0337044
0.0275872
0.0209738
0.013655
0.00534163
-0.0047263
-0.0164146
-0.0297372
-0.0452247
-0.0631574
-0.084188
-0.108874
-0.137338
-0.169211
-0.203875
-0.23947
-0.272556
-0.307789
0.0295939
0.025169
0.0199987
0.014055
0.0070959
-0.000946139
-0.0102393
-0.0210913
-0.0335291
-0.0476524
-0.0636145
-0.0816795
-0.10222
-0.125793
-0.152953
-0.183476
-0.216045
-0.245407
-0.259054
-0.26082
0.0188489
0.0133189
0.00683309
-8.62041e-05
-0.00737101
-0.0156073
-0.0253301
-0.0367441
-0.0497371
-0.0643157
-0.0807301
-0.0990912
-0.119265
-0.141719
-0.167043
-0.195412
-0.227005
-0.258253
-0.267242
-0.2425
0.230404
0.243628
0.258474
0.274952
0.292945
0.312348
0.333096
0.355188
0.378607
0.403267
0.429032
0.455516
0.482135
0.507876
0.531438
0.550523
0.562879
0.234182
0.247171
0.262009
0.278588
0.296606
0.315837
0.336197
0.357726
0.380448
0.404286
0.429094
0.454608
0.480307
0.505174
0.527528
0.5446
0.554517
0.234298
0.246781
0.261246
0.277485
0.295086
0.313713
0.333263
0.353748
0.37526
0.397738
0.420945
0.444372
0.467307
0.488864
0.507885
0.521171
0.527302
0.220723
0.23082
0.242754
0.256609
0.272019
0.288529
0.305831
0.323857
0.342611
0.362127
0.382328
0.402963
0.423458
0.443084
0.460483
0.474327
0.481871
0.482671
0.214577
0.22366
0.234923
0.248184
0.262774
0.278092
0.293799
0.309817
0.326235
0.343049
0.360065
0.377008
0.393409
0.408439
0.420769
0.428575
0.428695
0.419922
0.199585
0.205741
0.213701
0.223809
0.235916
0.249307
0.263197
0.277145
0.290966
0.304707
0.318447
0.331951
0.344754
0.356309
0.365748
0.371626
0.372205
0.362978
0.341555
0.185788
0.188737
0.193788
0.201218
0.210725
0.221572
0.233085
0.244747
0.256188
0.267274
0.277958
0.288252
0.297952
0.306411
0.312727
0.315919
0.314271
0.306139
0.287475
0.253627
0.175151
0.17574
0.179412
0.186285
0.195398
0.20531
0.215116
0.224436
0.233132
0.241118
0.248344
0.254752
0.260064
0.263592
0.264238
0.260909
0.251953
0.235231
0.206101
0.155539
0.16112
0.161036
0.164238
0.170318
0.17814
0.186435
0.194298
0.201169
0.207017
0.211944
0.215798
0.218353
0.21924
0.217722
0.212578
0.202512
0.185717
0.160174
0.121119
0.0551964
0.144646
0.144705
0.148695
0.154705
0.161248
0.16745
0.172695
0.176685
0.179506
0.181281
0.18179
0.180528
0.176886
0.1702
0.15932
0.142708
0.118362
0.0842448
0.0370779
-0.0448191
0.173949
0.162348
0.149976
0.148861
0.137731
0.132244
0.126595
0.121436
0.11771
0.113371
0.110495
0.106658
0.10412
0.100538
0.0982418
0.0949062
0.0929117
0.0897561
0.0881322
0.0850371
0.0839231
0.0808166
0.0802619
0.0771606
0.0769853
0.0740107
0.0740389
0.0713469
0.0714145
0.0690388
0.0691362
0.0670388
0.0672477
0.0653353
0.0657084
0.0639328
0.0644488
0.0628279
0.0633713
0.0619568
0.0624155
0.06124
0.0615751
0.0606254
0.0608556
0.0600951
0.0602565
0.0596496
0.0597621
0.0592784
0.0593612
0.058979
0.0590551
0.0587619
0.0588179
0.0586055
0.0585986
0.0584482
0.0583015
0.0581627
0.0587478
0.0583967
0.0585848
0.0582176
0.122898
0.108228
0.0964937
0.0881441
0.0781728
0.0658658
0.0531667
0.0428789
0.0320882
0.0230436
0.116378
0.104894
0.0909241
0.0823459
0.0746002
0.0639262
0.0518355
0.0427674
0.0330354
0.0268342
0.11014
0.101572
0.0875408
0.0778062
0.0714573
0.0631014
0.0521881
0.0441215
0.0356057
0.0308275
0.103846
0.0968224
0.0840528
0.0736157
0.0678347
0.0615342
0.0523874
0.0450376
0.0378916
0.0344457
0.0978052
0.0918034
0.0808306
0.0707876
0.0652693
0.0603191
0.0531932
0.0467026
0.0409108
0.0378926
0.0922509
0.0868652
0.0775294
0.0685093
0.0632601
0.0591277
0.053793
0.0483363
0.0437703
0.0411162
0.0871853
0.0822568
0.0743142
0.0666749
0.0620036
0.0584202
0.0544413
0.0499935
0.0464687
0.0441794
0.0825576
0.0781169
0.0713624
0.0651048
0.0611927
0.0581005
0.0550242
0.0514938
0.0488533
0.047008
0.0783891
0.0744697
0.0687941
0.0637383
0.0606406
0.0580854
0.0556301
0.0528502
0.0508618
0.0495304
0.0746837
0.0712495
0.0666068
0.06259
0.0602031
0.0582242
0.0562393
0.054034
0.0525075
0.0516176
0.0715133
0.0684655
0.06477
0.0616667
0.0598631
0.058407
0.0568166
0.0550733
0.0538474
0.0532704
0.0689039
0.0661349
0.063207
0.0609234
0.0596087
0.058576
0.0573286
0.0559471
0.0549326
0.0545689
0.0667739
0.0642828
0.0619369
0.0603194
0.0594202
0.0587234
0.0577614
0.0566641
0.0558208
0.0555759
0.0650348
0.0628679
0.0609616
0.0598159
0.0592645
0.0588409
0.058132
0.0572674
0.0565536
0.0563516
0.0635618
0.0617328
0.0601973
0.0593814
0.0591136
0.0589323
0.0584584
0.0577723
0.0571655
0.0569505
0.0623248
0.0607729
0.0595567
0.0589753
0.0589112
0.0589531
0.0587016
0.05819
0.0576703
0.057424
0.0613356
0.0599641
0.0589975
0.0586105
0.058695
0.0588889
0.0588283
0.0584854
0.0580578
0.0577979
0.0605856
0.0593284
0.0585118
0.0582705
0.0584613
0.0587523
0.0588298
0.0586342
0.0583064
0.0580559
0.0600304
0.0588733
0.0581219
0.0579455
0.058202
0.0585645
0.0587371
0.0586509
0.0584022
0.0581747
0.0596061
0.0585724
0.0578497
0.0576608
0.0579213
0.0583238
0.058568
0.0585649
0.0583771
0.0581654
0.0592679
0.0583821
0.0576942
0.0574499
0.0576485
0.0580397
0.0583293
0.0583928
0.0582584
0.0580614
0.0589967
0.0582665
0.0576343
0.0573304
0.0574215
0.0577452
0.0580408
0.0581529
0.0580694
0.0578928
0.0587728
0.0581893
0.0576314
0.0572884
0.0572645
0.0574816
0.0577345
0.057858
0.0578034
0.0576338
0.0585929
0.0581358
0.0576586
0.0573041
0.0571821
0.0572745
0.0574427
0.0575397
0.0574959
0.0573398
0.0584731
0.0581193
0.0577185
0.0573732
0.0571798
0.0571524
0.0572101
0.0572433
0.0571815
0.0570291
0.0584058
0.0581479
0.0578244
0.0575023
0.057259
0.0571244
0.0570606
0.0569989
0.0568847
0.0567111
0.0583197
0.0581481
0.0579074
0.0576314
0.0573722
0.0571624
0.0569945
0.0568357
0.0566544
0.0564443
0.0580501
0.0579109
0.0577256
0.0575071
0.0572789
0.0570595
0.0568495
0.0566383
0.0564141
0.0561771
0.0580134
0.057636
0.057303
0.0570231
0.0567911
0.0565932
0.0564111
0.0562292
0.0560383
0.055838
0.0578166
0.0574219
0.0570755
0.0567852
0.0565469
0.0563481
0.0561727
0.0560065
0.0558396
0.0556674
)
;

boundaryField
{
    outlet
    {
        type            fixedValue;
        value           nonuniform 0();
    }
    upperWall
    {
        type            symmetryPlane;
    }
    lowerWall
    {
        type            symmetryPlane;
    }
    inlet
    {
        type            zeroGradient;
    }
    cylinder
    {
        type            zeroGradient;
    }
    frontAndBack
    {
        type            empty;
    }
    procBoundary5to1
    {
        type            processor;
        value           nonuniform List<scalar> 
20
(
-0.937446
-0.968351
-1.02068
0.222503
0.235582
0.250086
0.266057
0.283558
0.302569
0.323037
0.344895
0.368047
0.392413
0.417838
0.443984
0.470312
0.495869
0.519275
0.538025
0.549814
)
;
    }
    procBoundary5to4
    {
        type            processor;
        value           nonuniform List<scalar> 
45
(
0.218572
0.222718
0.223472
0.223472
0.211936
0.20716
0.20716
0.194523
0.194523
0.181892
0.181892
0.16882
0.160335
0.160335
0.148389
0.139367
0.129657
0.120624
0.113264
0.106865
0.101036
0.0958262
0.0912425
0.0870844
0.0832603
0.0796732
0.0763901
0.0735215
0.0710986
0.0691099
0.0674285
0.0659466
0.0646091
0.0634095
0.0623816
0.0615282
0.0608234
0.0602394
0.0597595
0.059376
0.0590684
0.0587952
0.0584922
0.0590561
0.058909
)
;
    }
    procBoundary5to6
    {
        type            processor;
        value           nonuniform List<scalar> 
63
(
-0.175716
-0.155869
-0.175716
-0.18422
-0.161102
-0.161102
-0.156069
-0.123301
-0.123301
-0.112112
-0.0988727
-0.0704977
-0.0704977
-0.057614
-0.0460831
-0.0244419
-0.886822
-0.886822
-0.747058
-0.616435
-0.536651
-0.483127
-0.483127
-0.446449
-0.446449
-0.358832
-0.358832
-0.228609
-0.228609
-0.14077
-0.14077
-0.155869
-0.0244419
-0.0102378
0.00467208
0.0153383
0.0153383
0.0175323
0.0258154
0.0341454
0.0393261
0.0429871
0.046946
0.0499568
0.0518049
0.0534821
0.0548794
0.0557071
0.0563593
0.0568287
0.0570494
0.0569622
0.057018
0.0568368
0.0564148
0.0562551
0.055937
0.0555611
0.0552612
0.0549366
0.0546255
0.054371
0.0542623
)
;
    }
}


// ************************************************************************* //
