/*--------------------------------*- C++ -*----------------------------------*\
| =========                 |                                                 |
| \\      /  F ield         | OpenFOAM: The Open Source CFD Toolbox           |
|  \\    /   O peration     | Version:                                        |
|   \\  /    A nd           | Website:  www.openfoam.com                      |
|    \\/     M anipulation  |                                                 |
\*---------------------------------------------------------------------------*/
FoamFile
{
    version     2.0;
    format      ascii;
    class       volScalarField;
    location    "49.4";
    object      p;
}
// * * * * * * * * * * * * * * * * * * * * * * * * * * * * * * * * * * * * * //

dimensions      [0 2 -2 0 0 0 0];


internalField   nonuniform List<scalar> 
1139
(
-0.36147
-0.296803
-0.23528
-0.239563
-0.17637
-0.193333
-0.130559
-0.154537
-0.168717
-0.0919499
-0.123704
-0.141588
-0.0662204
-0.0997879
-0.118695
-0.0471415
-0.0812703
-0.100236
-0.112931
-0.0377965
-0.0683651
-0.0851283
-0.0982337
-0.0335885
-0.0582952
-0.0727343
-0.0855435
-0.691787
-0.69692
-0.673928
-0.642382
-0.606398
-0.569185
-0.70812
-0.682294
-0.647232
-0.607675
-0.567579
-0.530273
-0.725176
-0.695717
-0.655876
-0.611225
-0.566556
-0.525976
-0.493225
-0.747627
-0.713399
-0.667137
-0.615505
-0.564313
-0.518506
-0.482345
-0.460369
-0.775041
-0.734598
-0.68003
-0.619293
-0.559438
-0.506268
-0.464528
-0.438944
-0.4359
-0.806362
-0.758152
-0.693356
-0.621474
-0.550871
-0.488346
-0.439004
-0.407909
-0.3998
-0.412212
-0.839902
-0.782335
-0.705468
-0.620701
-0.537565
-0.463932
-0.405002
-0.366165
-0.350628
-0.354262
-0.873367
-0.805017
-0.714536
-0.615608
-0.519029
-0.433473
-0.364759
-0.316421
-0.291913
-0.290212
-0.903137
-0.823357
-0.718675
-0.605193
-0.494641
-0.39725
-0.320017
-0.266031
-0.232796
-0.224044
-0.926442
-0.835011
-0.716209
-0.589032
-0.464425
-0.355337
-0.265937
-0.203517
-0.167264
-0.160486
-0.937848
-0.836487
-0.7058
-0.56688
-0.432185
-0.313635
-0.220606
-0.151659
-0.108057
-0.102004
-0.933486
-0.82501
-0.687086
-0.539406
-0.396432
-0.267797
-0.163539
-0.0985316
-0.0640932
-0.0598446
-0.909921
-0.800168
-0.659588
-0.508827
-0.360817
-0.23167
-0.133207
-0.0579839
-0.0161944
-0.0231165
-0.862346
-0.759712
-0.62468
-0.475976
-0.32495
-0.185727
-0.0789567
-0.0239248
0.00222344
-0.00461468
-0.798744
-0.711177
-0.587613
-0.445077
-0.303083
-0.174486
-0.0651035
0.00161067
0.0275674
0.0104562
-0.725756
-0.660235
-0.552874
-0.416067
-0.269288
-0.140577
-0.0452332
0.00991839
0.0288192
0.0112774
-0.644171
-0.604668
-0.518398
-0.396954
-0.261452
-0.132353
-0.0366224
0.0136108
0.0265682
0.00629649
-0.583514
-0.569823
-0.510024
-0.413699
-0.301508
-0.187872
-0.0860085
-0.0190437
0.0120193
0.00867958
-0.556291
-0.554738
-0.511034
-0.431562
-0.33021
-0.22606
-0.130056
-0.0577309
-0.0112059
0.00576506
-0.55314
-0.557679
-0.523532
-0.464255
-0.385061
-0.294502
-0.200755
-0.11744
-0.0553151
-0.0166227
-0.570381
-0.58131
-0.557698
-0.510657
-0.444822
-0.366884
-0.283088
-0.196355
-0.124208
-0.0676506
-0.610386
-0.62321
-0.609775
-0.577008
-0.524857
-0.456696
-0.38014
-0.290905
-0.208066
-0.133227
-0.670518
-0.684887
-0.677213
-0.652341
-0.61139
-0.552305
-0.484862
-0.396817
-0.305127
-0.211557
-0.741963
-0.755405
-0.748267
-0.725468
-0.690676
-0.638555
-0.580089
-0.497823
-0.406698
-0.299846
-0.816797
-0.827454
-0.819626
-0.79722
-0.764654
-0.71671
-0.665002
-0.590015
-0.500906
-0.386794
-0.887689
-0.893312
-0.882656
-0.860187
-0.828501
-0.783662
-0.738329
-0.66763
-0.585899
-0.471024
-0.949793
-0.950771
-0.935103
-0.908971
-0.875729
-0.832119
-0.788751
-0.722044
-0.648898
-0.537856
-1.00858
-1.00541
-0.986758
-0.958639
-0.922823
-0.878953
-0.832572
-0.765235
-0.696704
-0.589962
-1.04266
-1.0365
-1.01571
-0.986015
-0.946861
-0.901266
-0.852232
-0.780091
-0.717741
-0.624597
-1.03498
-1.02501
-1.0042
-0.973335
-0.933418
-0.887453
-0.837512
-0.768911
-0.715812
-0.636518
-1.01753
-0.999911
-0.97451
-0.938516
-0.896619
-0.850205
-0.802111
-0.740722
-0.694821
-0.62621
-0.973824
-0.945194
-0.911513
-0.869864
-0.826538
-0.778477
-0.730971
-0.675635
-0.634423
-0.579252
-0.857135
-0.826427
-0.788468
-0.743289
-0.700566
-0.655978
-0.615762
-0.570693
-0.539651
-0.499647
-0.689226
-0.661757
-0.62528
-0.584876
-0.547115
-0.511206
-0.480947
-0.450333
-0.432862
-0.406356
-0.537342
-0.507737
-0.475727
-0.44415
-0.412393
-0.383547
-0.359875
-0.340128
-0.335318
-0.31874
-0.436348
-0.401639
-0.366279
-0.334349
-0.304964
-0.281246
-0.263778
-0.24779
-0.248648
-0.236023
-0.179771
-0.164611
-0.170181
-0.163662
-0.0205108
-0.0349095
-0.0431434
-0.0501758
-0.0543067
-0.0533735
-0.0506893
-0.0473546
-0.0425669
-0.0373306
-0.0323266
-0.026943
-0.0214575
-0.0164164
-0.0116459
-0.00711284
-0.00301232
0.000639922
0.00388582
0.0067104
0.00911709
0.0111351
0.0127947
0.0141243
0.0151534
0.0159112
0.0164228
0.016719
0.0168419
0.0168529
-0.00650373
-0.0204025
-0.0344513
-0.0470234
-0.0547861
-0.0573864
-0.0567084
-0.053848
-0.0495488
-0.0445064
-0.038974
-0.0330504
-0.0271459
-0.0214977
-0.016071
-0.010978
-0.00634878
-0.00219036
0.00150125
0.00471549
0.00746384
0.00977665
0.0116878
0.0132317
0.0144438
0.0153582
0.0160032
0.0164093
0.0166151
0.0166725
-0.000842803
-0.0163683
-0.0349742
-0.0499071
-0.0589416
-0.0628125
-0.0628558
-0.0604126
-0.0563916
-0.051187
-0.0451545
-0.0387419
-0.0323584
-0.0261281
-0.0201295
-0.0145308
-0.00942317
-0.0048222
-0.000741192
0.002815
0.00586305
0.00843602
0.0105715
0.0123094
0.013691
0.0147554
0.0155339
0.016057
0.0163581
0.0164738
-0.0115829
-0.0277321
-0.0479289
-0.062247
-0.0691715
-0.0713159
-0.0703447
-0.0674956
-0.0630525
-0.0572311
-0.0505681
-0.043618
-0.036703
-0.0299311
-0.0234479
-0.017425
-0.0119294
-0.00698179
-0.00259948
0.00121842
0.00449502
0.00726685
0.00957524
0.0114652
0.012983
0.0141716
0.0150651
0.015694
0.0160859
0.0162605
-0.0454476
-0.0567568
-0.0732824
-0.0826113
-0.0845545
-0.0826854
-0.0793608
-0.0750598
-0.0693216
-0.0623683
-0.0548981
-0.04733
-0.0398575
-0.0326103
-0.0257501
-0.0194116
-0.0136473
-0.00847635
-0.0039059
7.20776e-05
0.00348752
0.00638059
0.00879614
0.0107831
0.0123908
0.013665
0.0146417
0.0153511
0.0158156
0.0160395
-0.0977824
-0.100853
-0.109032
-0.109694
-0.103737
-0.0961905
-0.0896476
-0.0828951
-0.0750228
-0.0665384
-0.0580747
-0.0497845
-0.0417478
-0.0340866
-0.0269409
-0.0203964
-0.0144808
-0.00920316
-0.0045587
-0.000525234
0.00293396
0.00586349
0.00831193
0.0103311
0.0119722
0.0132827
0.0142997
0.0150531
0.0155614
0.0158174
-0.165721
-0.158279
-0.155338
-0.142663
-0.125942
-0.112037
-0.101406
-0.0911261
-0.0804793
-0.0701551
-0.060489
-0.0513446
-0.0426873
-0.0346253
-0.0272325
-0.0205388
-0.0145477
-0.00924589
-0.0046072
-0.000597662
0.00282887
0.0057235
0.00813895
0.01013
0.0117493
0.0130455
0.0140569
0.0148137
0.0153322
0.0155994
-0.244799
-0.225905
-0.208484
-0.179964
-0.151525
-0.130558
-0.114767
-0.100048
-0.086171
-0.073771
-0.0626993
-0.0525196
-0.0431694
-0.0346703
-0.0270173
-0.0201818
-0.0141338
-0.00883747
-0.00424265
-0.000297174
0.00305484
0.0058718
0.00821216
0.0101339
0.0116913
0.0129346
0.0139033
0.0146288
0.0151279
0.0153872
-0.325755
-0.297846
-0.265352
-0.219945
-0.179594
-0.151833
-0.129695
-0.109848
-0.0925714
-0.0779144
-0.0651656
-0.0537981
-0.0436437
-0.034636
-0.026673
-0.0196732
-0.0135601
-0.00826184
-0.0037091
0.000166281
0.00343472
0.00616229
0.00841365
0.0102503
0.0117287
0.0129004
0.0138069
0.014481
0.0149424
0.0151812
-0.403635
-0.369548
-0.320448
-0.258553
-0.209734
-0.174842
-0.145416
-0.120302
-0.0998446
-0.0826854
-0.0681459
-0.055444
-0.0443918
-0.0348032
-0.0264728
-0.0192635
-0.0130522
-0.00773408
-0.00320668
0.000614377
0.0038103
0.00645782
0.00862707
0.0103834
0.0117855
0.0128864
0.0137291
0.014348
0.0147666
0.0149807
-0.470706
-0.432449
-0.362282
-0.291879
-0.239175
-0.196242
-0.160103
-0.130808
-0.107381
-0.0877146
-0.071382
-0.0572766
-0.0453167
-0.0351277
-0.0264356
-0.0190216
-0.0126961
-0.00733362
-0.00281749
0.000962234
0.00410107
0.00668283
0.00878386
0.0104732
0.0118115
0.0128529
0.0136414
0.0142127
0.0145935
0.0147853
-0.524356
-0.476732
-0.395475
-0.321273
-0.261952
-0.212273
-0.172043
-0.138622
-0.114323
-0.0920758
-0.0743403
-0.0588008
-0.045998
-0.0353057
-0.0263073
-0.0187504
-0.0123609
-0.00699069
-0.00249263
0.00124062
0.0043193
0.00683771
0.00887673
0.0105079
0.0117928
0.0127863
0.0135324
0.0140672
0.0144192
0.014594
-0.559809
-0.498315
-0.413445
-0.337706
-0.275148
-0.223083
-0.180494
-0.145501
-0.117582
-0.0941197
-0.0751957
-0.0592367
-0.0460052
-0.0349944
-0.0258135
-0.018219
-0.0117984
-0.00650672
-0.00209685
0.00155386
0.00454569
0.00698183
0.0089475
0.0105153
0.0117469
0.0126962
0.0134063
0.0139124
0.014243
0.0144058
-0.567848
-0.49444
-0.407479
-0.335767
-0.276462
-0.224983
-0.182055
-0.147156
-0.117577
-0.0937782
-0.0743391
-0.0582266
-0.0448998
-0.0338523
-0.0247066
-0.0171426
-0.0108477
-0.00572231
-0.00146938
0.00201819
0.0048739
0.00718912
0.00905348
0.0105386
0.0117046
0.0126032
0.0132753
0.0137539
0.014066
0.0142192
-0.548509
-0.466053
-0.382912
-0.321393
-0.2651
-0.215772
-0.176784
-0.142358
-0.11345
-0.0901701
-0.0710138
-0.0553019
-0.0422907
-0.0315564
-0.0227089
-0.0154314
-0.0094323
-0.00452901
-0.000536161
0.00272085
0.00536699
0.00751306
0.00923828
0.0106125
0.0116924
0.0125262
0.0131517
0.0135984
0.0138902
0.0140338
-0.49612
-0.415502
-0.348744
-0.293677
-0.240635
-0.198742
-0.163492
-0.131198
-0.104753
-0.0829726
-0.0650881
-0.0502507
-0.038026
-0.0279643
-0.0197061
-0.0129552
-0.00744224
-0.0029458
0.000717587
0.00366964
0.00604868
0.00797151
0.00951858
0.0107519
0.0117228
0.0124751
0.0130423
0.0134497
0.0137173
0.0138497
-0.422442
-0.355676
-0.303945
-0.255639
-0.209765
-0.175804
-0.143458
-0.114876
-0.0918108
-0.072582
-0.0564345
-0.0431399
-0.0321842
-0.0231362
-0.0157447
-0.00973778
-0.00487395
-0.000937178
0.00225707
0.00484307
0.00690178
0.0085566
0.00989009
0.0109546
0.0117955
0.0124508
0.0129485
0.0133091
0.013548
0.013667
-0.342914
-0.293296
-0.25024
-0.209676
-0.175216
-0.146925
-0.118272
-0.0951411
-0.0760425
-0.0593093
-0.0455697
-0.0343112
-0.0248912
-0.0171719
-0.0109157
-0.00585633
-0.00179077
0.00147116
0.0040913
0.00620485
0.00790294
0.00925694
0.0103407
0.0112123
0.0119055
0.0124502
0.0128686
0.0131757
0.0133815
0.0134851
-0.269553
-0.230404
-0.194454
-0.163135
-0.137275
-0.113479
-0.089964
-0.0730068
-0.0570353
-0.043675
-0.032976
-0.023857
-0.0163017
-0.0102185
-0.00529567
-0.00135969
0.00176138
0.0042375
0.00620335
0.00777187
0.00903659
0.0100538
0.0108627
0.0115204
0.0120492
0.0124714
0.0128017
0.0130489
0.0132173
0.013303
-0.199138
-0.168977
-0.140892
-0.117594
-0.0985912
-0.0780781
-0.0621214
-0.0492299
-0.0364866
-0.0269519
-0.0188211
-0.0120072
-0.00664907
-0.00234788
0.00106665
0.00370959
0.00575778
0.00734486
0.00857547
0.00953935
0.0103097
0.0109412
0.0114526
0.0118775
0.0122258
0.0125138
0.0127476
0.0129289
0.0130555
0.0131209
-0.133427
-0.108165
-0.0886014
-0.0715184
-0.0581982
-0.0417679
-0.0329246
-0.0229579
-0.0150076
-0.00889242
-0.00349307
0.000615958
0.00380347
0.00625382
0.00801369
0.00926498
0.0101452
0.0107532
0.0111759
0.0114805
0.0117162
0.0119176
0.0121022
0.0122778
0.0124328
0.0125761
0.0127058
0.0128154
0.0128964
0.0129392
-0.077859
-0.0592294
-0.0807653
-0.0684628
-0.0609912
-0.0538367
-0.0458844
-0.0411019
-0.0368319
-0.030309
-0.0249955
-0.0211887
-0.0728075
-0.0630396
-0.0596
-0.0538246
-0.046771
-0.0433566
-0.0380727
-0.031172
-0.0269844
-0.0230691
-0.0178696
-0.0135306
-0.00981041
-0.00585092
-0.00222922
0.000932623
0.00389067
0.00655573
0.00886162
0.0108599
0.0125619
0.0139718
0.015114
0.0160116
0.0166855
0.0171547
0.0174362
0.0175584
0.017568
0.0175319
-0.0609487
-0.0563975
-0.0583864
-0.0527652
-0.0477626
-0.0455277
-0.0392345
-0.0332876
-0.029916
-0.024993
-0.0196003
-0.0156035
-0.0115309
-0.00724627
-0.00356313
-0.000225664
0.00293875
0.00573796
0.0081694
0.01029
0.0120912
0.0135828
0.0147922
0.0157426
0.0164557
0.0169525
0.0172526
0.0173864
0.0174007
0.0173637
-0.0503784
-0.0523513
-0.0563139
-0.0514025
-0.0496533
-0.0470574
-0.0407692
-0.0367064
-0.0330246
-0.0272696
-0.0223627
-0.0183179
-0.0136473
-0.00918962
-0.0053752
-0.00173809
0.00165335
0.0046186
0.00722459
0.00950115
0.0114312
0.0130345
0.0143393
0.0153688
0.0161457
0.0166929
0.0170322
0.0171946
0.0172264
0.0171954
-0.0355254
-0.0459617
-0.0515489
-0.0518157
-0.0530875
-0.0499604
-0.0450847
-0.0417491
-0.0369987
-0.0312905
-0.0266708
-0.0219632
-0.0167976
-0.0121773
-0.00798921
-0.00394097
-0.000261435
0.00297418
0.0058456
0.00834744
0.010471
0.0122436
0.0136935
0.0148452
0.015724
0.0163553
0.0167624
0.0169764
0.0170418
0.0170249
)
;

boundaryField
{
    outlet
    {
        type            fixedValue;
        value           nonuniform 0();
    }
    upperWall
    {
        type            symmetryPlane;
    }
    lowerWall
    {
        type            symmetryPlane;
    }
    inlet
    {
        type            zeroGradient;
    }
    cylinder
    {
        type            zeroGradient;
    }
    frontAndBack
    {
        type            empty;
    }
    procBoundary2to1
    {
        type            processor;
        value           nonuniform List<scalar> 
63
(
-0.423552
-0.423552
-0.354492
-0.294801
-0.294801
-0.240366
-0.201459
-0.201459
-0.176008
-0.151472
-0.13066
-0.13066
-0.1209
-0.106472
-0.093822
-0.093822
-0.694955
-0.670721
-0.670721
-0.641728
-0.608155
-0.572332
-0.533357
-0.533357
-0.498801
-0.498801
-0.472456
-0.472456
-0.457964
-0.457964
-0.454479
-0.454479
-0.0855427
-0.0732063
-0.062643
-0.0536763
-0.0457932
-0.0399211
-0.0354295
-0.0295408
-0.0237132
-0.0194974
-0.0165729
-0.0165729
-0.0120357
-0.00832161
-0.00468887
-0.00119966
0.00185494
0.00463339
0.00715916
0.00935803
0.0112546
0.0128753
0.0142256
0.0153244
0.0161926
0.0168492
0.0173107
0.0175909
0.0177153
0.0177307
0.0177016
)
;
    }
    procBoundary2to3
    {
        type            processor;
        value           nonuniform List<scalar> 
43
(
-0.368103
-0.329138
-0.292822
-0.258548
-0.228626
-0.200468
-0.200468
-0.124312
-0.106049
-0.104313
-0.0993445
-0.0993445
-0.0445386
-0.0321467
-0.0214973
-0.0105759
-0.00514865
0.00207528
0.00642716
0.00992056
0.0123954
0.0139287
0.0148998
0.0153234
0.015372
0.015169
0.0148065
0.0143742
0.0139388
0.0135436
0.0132151
0.0129652
0.0127938
0.0127102
0.0126593
0.0126515
0.012672
0.0127061
0.012739
0.0127576
-0.0269487
-0.0445386
-0.0124189
)
;
    }
    procBoundary2to6
    {
        type            processor;
        value           nonuniform List<scalar> 
37
(
-0.702225
-0.708664
-0.721349
-0.740135
-0.764884
-0.795334
-0.830585
-0.868789
-0.907426
-0.94204
-0.969268
-0.984666
-0.983316
-0.958814
-0.907023
-0.830902
-0.74231
-0.642788
-0.563349
-0.526778
-0.518387
-0.532719
-0.571226
-0.631759
-0.70902
-0.790175
-0.868192
-0.935943
-0.999126
-1.03506
-1.03368
-1.02421
-0.989214
-0.87455
-0.706339
-0.564659
-0.471411
)
;
    }
}


// ************************************************************************* //
