/*--------------------------------*- C++ -*----------------------------------*\
| =========                 |                                                 |
| \\      /  F ield         | OpenFOAM: The Open Source CFD Toolbox           |
|  \\    /   O peration     | Version:                                        |
|   \\  /    A nd           | Website:  www.openfoam.com                      |
|    \\/     M anipulation  |                                                 |
\*---------------------------------------------------------------------------*/
FoamFile
{
    version     2.0;
    format      ascii;
    class       surfaceScalarField;
    location    "140";
    object      phi;
}
// * * * * * * * * * * * * * * * * * * * * * * * * * * * * * * * * * * * * * //

dimensions      [0 3 -1 0 0 0 0];
oriented        oriented;


internalField   nonuniform List<scalar> 
2194
(
0.0296545
0.0112877
0.0373043
0.0152674
-0.0248826
0.0431876
0.0189992
0.0383812
-0.0258045
0.0463347
0.0226574
0.0393228
-0.0263991
0.0474158
0.0253181
-0.0282944
0.0412181
0.0385123
-0.0274699
0.0477135
0.0271722
-0.0299301
0.0436784
0.0396298
-0.0292117
0.0493159
0.0276093
-0.0312378
0.0457045
0.0404772
-0.0315559
0.0512864
0.0295854
-0.0324431
0.0465917
-0.0335069
0.041541
0.0370648
-0.0325176
0.0526049
0.0311991
-0.0335166
0.0475906
-0.0347745
0.0427989
0.0379589
-0.0344783
0.0343621
0.0527211
-0.0353734
0.0484857
-0.03612
0.0435455
0.0389533
0.000652142
-0.00407729
0.00123387
-0.00456857
-0.000662662
-0.00463209
-0.00342785
-0.0038977
-0.00616389
-0.00796339
0.00165361
0.00210355
0.000687191
0.000303756
0.000157863
-0.00289852
3.28789e-05
-0.0060389
0.00106256
-0.00899307
-0.0100074
0.00726892
0.00303837
0.00605404
0.00151863
0.00483957
-0.00168404
0.00409655
-0.00529589
0.00451541
-0.00941193
0.00487526
-0.0103673
-0.00936374
0.0121983
0.00395209
0.0110065
0.00271041
0.00951413
-0.000191642
0.00842623
-0.00420798
0.00795602
-0.00894172
0.00743321
-0.00984447
0.00698491
-0.00891544
-0.00498302
0.0169474
0.0051224
0.0156919
0.00396584
0.0140939
0.00140642
0.0127192
-0.00283329
0.0114346
-0.00765712
0.0101599
-0.00856981
0.0082662
-0.00702172
0.00528305
-0.00199987
-0.000963126
0.0222515
0.0067373
0.0206167
0.00560058
0.018695
0.00332813
0.0170117
-0.00114997
0.0150135
-0.00565892
0.0129006
-0.00645696
0.00954605
-0.00366712
0.00522403
0.00232214
0.000762715
0.00349819
0.00855396
0.0277617
0.00859154
0.0256097
0.00775266
0.0232508
0.00568696
0.0212808
0.000820047
0.0182505
-0.00262861
0.0138996
-0.00210606
0.00870528
0.00152721
0.00388106
0.00714636
-0.00213224
0.00951149
0.0177094
0.0323661
0.010542
0.0298873
0.0102314
0.0275665
0.00800776
0.024982
0.00340452
0.0209571
0.0013963
0.0157426
0.00310846
0.00879812
0.00847168
0.00215545
0.013789
-0.00564808
0.017315
0.0273288
0.0356323
0.012445
0.0334615
0.0124022
0.0315949
0.00987436
0.027511
0.00748842
0.0207735
0.00813384
0.0137066
0.0101754
0.00660597
0.0155723
-0.000204326
0.0205993
-0.00924116
0.0263519
0.0370868
0.0373999
0.0136133
0.0360146
0.0137875
0.0343393
0.0115497
0.0305423
0.0112854
0.0244627
0.0142134
0.0155699
0.0190682
0.00548393
0.0256582
-0.00368365
0.0297669
-0.0138608
0.036529
0.0458834
0.0397905
0.0134177
0.0387504
0.0148276
0.0353468
0.0149533
0.0293886
0.0172436
0.0211093
0.0224927
0.0105836
0.0295939
0.00103993
0.0352019
-0.00794342
0.0387503
-0.0183142
0.0468998
0.0528873
0.0404018
0.0129462
0.0391637
0.0160657
0.0349299
0.0191872
0.0274812
0.0246923
0.0171684
0.0328056
0.00634313
0.0404192
-0.00301543
0.0445604
-0.0136855
0.0494203
-0.0238355
0.0570497
0.056224
0.0379792
0.013861
0.0345871
0.0194579
0.0275992
0.026175
0.0178057
0.0344858
0.00739476
0.0432165
-0.00154159
0.0493555
-0.0104023
0.0534211
-0.0208501
0.0598681
-0.0273943
0.063594
0.0564391
0.034505
0.0189188
0.0270576
0.0269053
0.0181522
0.0350804
0.00915766
0.0434803
0.00126839
0.0511058
-0.0069327
0.0575566
-0.0173557
0.0638441
-0.0268895
0.0694019
-0.0298138
0.0665183
0.0562107
0.0269291
0.0253862
0.0184517
0.0353827
0.00978449
0.0437475
0.00154245
0.0517224
-0.00746087
0.0601091
-0.017648
0.0677437
-0.027425
0.0736212
-0.0319603
0.0739373
-0.0312994
0.0658573
0.0561104
0.0179718
0.032383
0.0096849
0.0436696
0.000736784
0.0526957
-0.00859662
0.0610558
-0.0182258
0.0697383
-0.0269988
0.0765167
-0.0322482
0.0788706
-0.0326587
0.0743478
-0.0322109
0.0654095
0.0582615
0.00659306
0.0382924
0.00105072
0.049212
-0.00437706
0.0581234
-0.00929902
0.0659777
-0.0125862
0.0730255
-0.0130573
0.0769877
-0.0104754
0.0762888
-0.00669598
0.0705683
-0.00444523
0.0631588
0.0572697
-0.00345341
-0.0216784
0.0430313
-0.0251025
0.0526361
-0.027368
0.060389
-0.0281177
0.0667275
-0.026395
0.0713028
-0.0220335
0.0726262
-0.0162717
0.070527
-0.0111213
0.0654178
-0.00790426
0.0599418
0.0549112
-0.00554581
-0.0441116
0.0464077
-0.044758
0.0532825
-0.0432975
0.0589285
-0.0397611
0.0631911
-0.0340883
0.06563
-0.0271417
0.0656795
-0.0203585
0.0637438
-0.0148903
0.0599497
-0.0111827
0.0562341
0.0520811
-0.00835254
-0.0559122
0.0477428
-0.0542588
0.0516291
-0.0504361
0.0551059
-0.0447214
0.0574764
-0.0380214
0.05893
-0.0308127
0.0584708
-0.0242251
0.0571563
-0.0187976
0.0545221
-0.0144144
0.0518509
0.0484337
-0.010767
-0.0584515
0.0475066
-0.0563314
0.049509
-0.0524492
0.0512236
-0.0468463
0.0518735
-0.0405141
0.0525978
-0.0337766
0.0517332
-0.0276983
0.051078
-0.0225173
0.0493411
-0.0181817
0.0475153
0.0446573
-0.0144053
-0.0591777
0.0465585
-0.0564962
0.0468275
-0.0523205
0.0470479
-0.0471419
0.0466949
-0.0416051
0.0470611
-0.0360972
0.0462253
-0.0304807
0.0454615
-0.0252285
0.0440889
-0.020668
0.0429547
0.0409273
-0.0169379
-0.0587448
0.0460346
-0.056411
0.0444937
-0.05254
0.0431769
-0.0474097
0.0415646
-0.0417573
0.0414086
-0.03706
0.041528
-0.0323388
0.0407403
-0.0282766
0.0400267
-0.0241151
0.0387932
0.0371181
-0.0203059
-0.0589999
0.0450235
-0.0558921
0.0413859
-0.0521598
0.0394446
-0.047662
0.0370668
-0.0427925
0.0365392
-0.0384031
0.0371386
-0.033657
0.0359941
-0.0297017
0.0360715
-0.0262438
0.0353353
0.0338182
-0.0229439
-0.0608527
0.0429123
-0.0563667
0.0369
-0.0517412
0.0348191
-0.0470647
0.0323903
-0.0427959
0.0322704
-0.0389832
0.0333259
-0.0355053
0.0325163
-0.0316951
0.0322613
-0.0279787
0.0316189
0.0305828
-0.0247432
-0.0677929
0.0399773
-0.062586
0.0316931
-0.0560799
0.0283129
-0.0492674
0.0255778
-0.0431365
0.0261395
-0.0381098
0.0282992
-0.0350177
0.0294242
-0.0323383
0.0295819
-0.0291692
0.0284497
0.0276149
-0.0262013
-0.068232
0.035231
-0.0627376
0.0261986
-0.0566088
0.0221842
-0.0506953
0.0196643
-0.0446401
0.0200843
-0.0385332
0.0221922
-0.0338452
0.0247362
-0.0311702
0.0269069
-0.029297
0.0265766
0.0253835
-0.0270657
-0.0618127
0.029684
-0.0565938
0.0209796
-0.0514347
0.0170251
-0.0470029
0.0152325
-0.042674
0.0157554
-0.0381531
0.0176713
-0.033418
0.0200011
-0.0292116
0.0227004
-0.0272174
0.0245824
0.0245493
-0.0263831
-0.0443082
0.0247225
-0.040828
0.0174995
-0.0375547
0.0137518
-0.0354709
0.0131486
-0.0342099
0.0144945
-0.0328645
0.0163259
-0.031172
0.0183086
-0.0283053
0.0198338
-0.0253979
0.021675
0.0228243
-0.0236729
-0.0133058
0.0222972
-0.0127732
0.016967
-0.0132116
0.0141903
-0.0147888
0.0147258
-0.0171509
0.0168566
-0.0196784
0.0188534
-0.0219074
0.0205376
-0.0233073
0.0212337
-0.0233627
0.0217304
0.0220385
-0.0225768
0.019932
0.0233172
0.0162438
0.0206551
0.010402
0.0200321
0.00429348
0.0208344
-0.000648083
0.0217981
-0.00541796
0.0236233
-0.00960702
0.0247267
-0.0130961
0.0247228
-0.0162128
0.024847
0.0239551
-0.0181294
0.0522057
0.0272009
0.0466031
0.0262578
0.0391732
0.027462
0.0303205
0.029687
0.021585
0.0305336
0.0139713
0.031237
0.00789168
0.0308063
0.00257334
0.0300411
-0.00278631
0.0302067
0.0283703
-0.00720148
0.0658825
0.0329927
0.0581175
0.0340227
0.0502386
0.0353409
0.0429021
0.0370236
0.0348764
0.0385592
0.0273665
0.0387469
0.020154
0.0380188
0.0143122
0.035883
0.0100019
0.0345169
0.032228
0.00614412
0.0774683
0.0373631
0.0713656
0.0401254
0.06347
0.0432364
0.0545766
0.045917
0.0458038
0.047332
0.0381726
0.0463781
0.0305733
0.0456182
0.0241337
0.0423226
0.0191764
0.0394742
0.035952
0.0154525
0.0786913
0.040025
0.0758262
0.0429905
0.0712352
0.0478274
0.0645421
0.0526102
0.0557258
0.0561482
0.0457332
0.0563707
0.0370734
0.054278
0.0298333
0.0495627
0.02455
0.0447575
0.0395122
0.0209897
0.0851835
0.082831
0.0789582
0.0740657
0.067044
0.0570814
0.0455937
0.0657657
0.0334453
0.0617111
0.0237943
0.0544086
0.0449516
0.0183549
0.0655207
0.0518852
0.035874
0.0219258
-0.00290201
0.0644128
-0.0649642
-0.00239393
0.066987
-0.0674951
-0.00221337
0.0693378
-0.0695184
-0.00231667
0.0721805
-0.0720772
-0.00210857
0.075578
-0.0757861
-0.0017392
0.0792351
-0.0796045
-0.00152434
0.0832197
-0.0834345
-0.0012992
0.0875446
-0.0877697
-0.000983153
0.0919399
-0.092256
-0.00075972
0.0965562
-0.0967796
-0.000584022
0.101661
-0.101836
-0.000366117
0.107327
-0.107545
-0.000197247
0.113654
-0.113823
-7.9259e-05
0.120676
-0.120794
3.11551e-05
0.128341
-0.128451
0.000114507
0.136616
-0.1367
0.000178771
0.145553
-0.145617
0.000223158
0.155117
-0.155161
0.000253908
0.165311
-0.165342
0.000262131
0.17617
-0.176179
0.000251966
0.187893
-0.187883
0.000249284
0.200445
-0.200443
0.000229945
0.213921
-0.213902
0.000206234
0.22839
-0.228366
0.000181289
0.243881
-0.243856
0.000148617
0.260496
-0.260463
0.000113791
0.278296
-0.278261
7.52075e-05
0.297369
-0.29733
3.93638e-05
0.317853
-0.317817
0.339787
-0.339748
-0.00476297
0.06363
-0.00392278
0.0661468
-0.0032815
0.0686965
-0.00290466
0.0718037
-0.00250888
0.0751822
-0.00215052
0.0788768
-0.0019062
0.0829753
-0.00160744
0.0872458
-0.00125321
0.0915857
-0.000940538
0.0962435
-0.000634497
0.101355
-0.000352629
0.107046
-0.000118693
0.11342
5.15391e-05
0.120506
0.000167017
0.128225
0.000230863
0.136553
0.000265341
0.145518
0.000281997
0.1551
0.000298619
0.165295
0.000288785
0.17618
0.000277067
0.187905
0.000266494
0.200456
0.000239721
0.213948
0.000215069
0.228415
0.000186511
0.24391
0.000151919
0.26053
0.000116719
0.278331
7.73881e-05
0.297408
4.02841e-05
0.31789
0.339828
-0.00767446
0.0629519
-0.0068619
0.0653342
-0.00608748
0.0679221
-0.00531537
0.0710316
-0.0044718
0.0743386
-0.00370297
0.0781079
-0.00301862
0.082291
-0.00237994
0.0866071
-0.00188266
0.0910884
-0.00150099
0.0958619
-0.00117375
0.101027
-0.000890161
0.106762
-0.000656733
0.113186
-0.000457154
0.120306
-0.000272227
0.12804
-0.000128562
0.136409
-7.98614e-06
0.145398
8.99452e-05
0.155002
0.000162338
0.165222
0.000192847
0.17615
0.000215617
0.187882
0.000221611
0.20045
0.000212776
0.213957
0.000200476
0.228427
0.000177974
0.243932
0.000148151
0.26056
0.000115277
0.278364
7.73197e-05
0.297446
4.02887e-05
0.317927
0.339868
-0.00969713
0.0618821
-0.00836638
0.0640035
-0.00723253
0.0667883
-0.00625437
0.0700534
-0.00538083
0.0734651
-0.00465101
0.0773781
-0.00393928
0.0815793
-0.00321804
0.0858859
-0.0025527
0.0904231
-0.00194605
0.0952552
-0.00141739
0.100499
-0.000974185
0.106319
-0.000616162
0.112828
-0.000324367
0.120014
-0.000129716
0.127846
-2.62784e-06
0.136282
8.49139e-05
0.14531
0.000157286
0.15493
0.000204944
0.165175
0.000224938
0.17613
0.000239651
0.187867
0.000233998
0.200456
0.000222052
0.213969
0.000205104
0.228444
0.0001798
0.243958
0.000149574
0.26059
0.000116166
0.278397
7.84062e-05
0.297484
4.08154e-05
0.317965
0.339909
-0.0130343
0.0605111
-0.011494
0.0624632
-0.0103075
0.0656018
-0.00879413
0.06854
-0.00730929
0.0719803
-0.00597138
0.0760402
-0.00473273
0.0803406
-0.00370728
0.0848604
-0.00291586
0.0896317
-0.00231296
0.0946523
-0.00184201
0.100028
-0.0014641
0.105941
-0.00115923
0.112523
-0.000879676
0.119735
-0.000635264
0.127601
-0.000424263
0.136071
-0.000232114
0.145118
-7.12665e-05
0.154769
3.72319e-05
0.165066
0.000110177
0.176057
0.000156773
0.187821
0.00017732
0.200435
0.00018719
0.213959
0.000182934
0.228448
0.000166467
0.243974
0.000142784
0.260614
0.000112199
0.278428
7.66041e-05
0.297519
4.01569e-05
0.318001
0.339949
-0.0150842
0.0586574
-0.0130304
0.0604093
-0.011379
0.0639504
-0.00987984
0.0670408
-0.00865563
0.070756
-0.00750239
0.074887
-0.00629584
0.0791341
-0.00513502
0.0836996
-0.00405935
0.088556
-0.00311029
0.0937033
-0.00232475
0.0992422
-0.00168798
0.105304
-0.00118092
0.112016
-0.000772829
0.119327
-0.000497497
0.127326
-0.000295876
0.135869
-0.00013965
0.144962
-1.24304e-05
0.154642
7.33532e-05
0.16498
0.000139484
0.175991
0.000170884
0.187789
0.000186806
0.200419
0.000189522
0.213956
0.000180518
0.228457
0.000163544
0.243991
0.000140276
0.260637
0.000110146
0.278458
7.57522e-05
0.297554
3.97965e-05
0.318037
0.339989
-0.018306
0.0566575
-0.0158798
0.0579832
-0.0138075
0.0618781
-0.0116968
0.0649301
-0.00969185
0.0687511
-0.00776437
0.0729595
-0.00614306
0.0775128
-0.00482635
0.0823829
-0.0037916
0.0875213
-0.00302363
0.0929353
-0.00243229
0.0986509
-0.00199497
0.104867
-0.00162229
0.111644
-0.001305
0.119009
-0.000997237
0.127018
-0.000716752
0.135589
-0.000456756
0.144702
-0.000259502
0.154445
-9.99437e-05
0.164821
9.85665e-06
0.175881
8.14463e-05
0.187718
0.000125941
0.200375
0.000149368
0.213933
0.00015495
0.228451
0.000147668
0.243998
0.000130601
0.260654
0.000104142
0.278484
7.25062e-05
0.297585
3.83653e-05
0.318071
0.340027
-0.0202738
0.0539873
-0.0174695
0.0551789
-0.0155562
0.0599648
-0.0134794
0.0628534
-0.0118458
0.0671174
-0.0102327
0.0713464
-0.00859199
0.0758721
-0.00696988
0.0807608
-0.00551653
0.0860679
-0.00424618
0.0916649
-0.00321765
0.0976223
-0.00239694
0.104046
-0.00174916
0.110996
-0.0012539
0.118514
-0.00089659
0.126661
-0.000614793
0.135307
-0.000395006
0.144482
-0.000221144
0.154271
-7.43674e-05
0.164674
2.53184e-05
0.175781
8.72731e-05
0.187656
0.000126124
0.200336
0.000143592
0.213915
0.000147177
0.228448
0.000140606
0.244005
0.000124514
0.26067
9.99697e-05
0.278509
7.02862e-05
0.297615
3.72747e-05
0.318104
0.340064
-0.0217957
0.0510398
-0.0188088
0.052192
-0.0164592
0.0576152
-0.0137055
0.0600997
-0.0112553
0.0646672
-0.00898767
0.0690788
-0.00706906
0.0739535
-0.00558784
0.0792795
-0.00441588
0.0848959
-0.00352116
0.0907702
-0.00285761
0.0969588
-0.00236706
0.103555
-0.00197013
0.110599
-0.00162436
0.118168
-0.00127482
0.126311
-0.000946346
0.134978
-0.000661292
0.144197
-0.000418831
0.154028
-0.000220199
0.164475
-8.72747e-05
0.175648
1.03201e-05
0.187558
7.19788e-05
0.200274
0.000108655
0.213879
0.000125255
0.228431
0.00012616
0.244004
0.000115014
0.260681
9.40816e-05
0.27853
6.67302e-05
0.297642
3.56422e-05
0.318135
0.3401
-0.0234467
0.0482852
-0.020734
0.0494792
-0.0186497
0.0555309
-0.01634
0.05779
-0.0144327
0.0627599
-0.0124186
0.0670647
-0.0104063
0.0719411
-0.00846109
0.0773344
-0.00667174
0.0831066
-0.00516416
0.0892626
-0.00394655
0.0957412
-0.0029869
0.102596
-0.00224689
0.109859
-0.00169226
0.117614
-0.00127176
0.125891
-0.000935896
0.134643
-0.000669853
0.143931
-0.000427184
0.153786
-0.000238591
0.164287
-0.00010139
0.175511
-5.06064e-06
0.187462
5.51424e-05
0.200214
9.16021e-05
0.213842
0.000109457
0.228413
0.000113834
0.244
0.000105729
0.26069
8.80377e-05
0.278547
6.31878e-05
0.297667
3.40063e-05
0.318165
0.340134
-0.0234486
0.0446681
-0.0199912
0.0460218
-0.0173195
0.0528593
-0.0139345
0.054405
-0.0116048
0.0604302
-0.00929482
0.0647547
-0.00748966
0.070136
-0.00599744
0.0758421
-0.00479397
0.0819031
-0.00382014
0.0882888
-0.00309546
0.0950165
-0.00255328
0.102054
-0.00213345
0.109439
-0.00176216
0.117242
-0.00139665
0.125525
-0.0010709
0.134317
-0.000774782
0.143635
-0.000518091
0.153529
-0.000317755
0.164086
-0.000163404
0.175357
-5.15937e-05
0.18735
2.2168e-05
0.20014
6.96699e-05
0.213795
9.45923e-05
0.228389
0.00010245
0.243992
9.73725e-05
0.260695
8.2398e-05
0.278562
5.92819e-05
0.29769
3.21984e-05
0.318192
0.340166
-0.0239086
0.0421936
-0.0211435
0.0432567
-0.0195669
0.0512826
-0.0172227
0.0520608
-0.0151126
0.0583201
-0.012885
0.0625271
-0.010797
0.068048
-0.00877391
0.073819
-0.00696635
0.0800956
-0.00547265
0.0867951
-0.00425536
0.0937992
-0.00330596
0.101104
-0.00257402
0.108707
-0.00202694
0.116695
-0.00159263
0.125091
-0.00123449
0.133959
-0.000913205
0.143313
-0.000632669
0.153248
-0.000406688
0.163861
-0.00023125
0.175181
-0.000107487
0.187226
-2.34288e-05
0.200056
3.22745e-05
0.213739
6.55844e-05
0.228355
8.12765e-05
0.243976
8.28974e-05
0.260693
7.28031e-05
0.278572
5.35991e-05
0.29771
2.95688e-05
0.318216
0.340196
-0.0204256
0.0389462
-0.016934
0.0397651
-0.0137478
0.0480964
-0.0117305
0.0500436
-0.00956168
0.0561512
-0.00815472
0.0611202
-0.00692562
0.0668189
-0.00579481
0.0726882
-0.00473415
0.0790349
-0.00377985
0.0858408
-0.00303708
0.0930564
-0.00245073
0.100518
-0.00201154
0.108268
-0.00162948
0.116313
-0.00129886
0.124761
-0.00101016
0.13367
-0.000756774
0.14306
-0.000541706
0.153033
-0.000358621
0.163677
-0.000209885
0.175033
-9.84752e-05
0.187115
-1.97941e-05
0.199977
3.12674e-05
0.213688
6.25673e-05
0.228324
7.52398e-05
0.243963
7.66839e-05
0.260692
6.7493e-05
0.278582
4.97652e-05
0.297727
2.75711e-05
0.318238
0.340223
-0.0203593
0.0367287
-0.0186668
0.0380726
-0.0152865
0.0447161
-0.0137533
0.0485103
-0.0115181
0.053916
-0.00969983
0.0593019
-0.00801593
0.065135
-0.00665373
0.071326
-0.00553866
0.0779198
-0.00460079
0.0849029
-0.00378215
0.0922378
-0.00312347
0.0998592
-0.00258482
0.107729
-0.00216761
0.115896
-0.00178526
0.124378
-0.00142832
0.133313
-0.00108972
0.142721
-0.00079327
0.152737
-0.000543709
0.163428
-0.000349041
0.174838
-0.000203724
0.186969
-9.9746e-05
0.199873
-2.66778e-05
0.213615
2.10814e-05
0.228276
4.76105e-05
0.243937
5.90238e-05
0.26068
5.59367e-05
0.278585
4.32117e-05
0.29774
2.44647e-05
0.318257
0.340248
-0.015617
0.0342162
-0.014495
0.0369506
-0.0118387
0.0420598
-0.0095934
0.046265
-0.00742089
0.0517435
-0.00605811
0.0579392
-0.00518112
0.064258
-0.00447861
0.0706235
-0.00373045
0.0771717
-0.00301441
0.0841869
-0.00239372
0.0916171
-0.00186749
0.099333
-0.00146683
0.107329
-0.00112872
0.115558
-0.000893135
0.124143
-0.000708466
0.133128
-0.000567268
0.14258
-0.000437872
0.152607
-0.000315088
0.163305
-0.00020297
0.174726
-0.000110108
0.186877
-4.08971e-05
0.199804
6.86589e-06
0.213567
3.76834e-05
0.228245
5.37279e-05
0.243921
5.92692e-05
0.260675
5.4457e-05
0.27859
4.16756e-05
0.297753
2.33969e-05
0.318275
0.340271
-0.00527776
0.0322925
-0.00437058
0.0360435
-0.00411288
0.0418021
-0.00396575
0.0461179
-0.003484
0.0512618
-0.00268466
0.0571398
-0.00214317
0.0637165
-0.00201573
0.0704961
-0.0021648
0.0773207
-0.00231305
0.0843352
-0.00234651
0.0916505
-0.00230277
0.0992893
-0.00217388
0.1072
-0.00201249
0.115396
-0.00174429
0.123874
-0.00143582
0.13282
-0.00111566
0.14226
-0.000834916
0.152327
-0.000599676
0.16307
-0.000411552
0.174538
-0.00026194
0.186727
-0.000149591
0.199692
-6.54445e-05
0.213483
-9.75318e-06
0.22819
2.45146e-05
0.243887
4.19606e-05
0.260657
4.41681e-05
0.278587
3.59426e-05
0.297761
2.08256e-05
0.31829
0.340292
0.00809311
0.0303435
0.00926233
0.0348742
0.00944973
0.0416147
0.00785035
0.0477173
0.00516035
0.0539518
0.0023863
0.0599139
0.000485434
0.0656174
-0.000582379
0.0715639
-0.000963744
0.0777021
-0.00102056
0.084392
-0.000870882
0.0915009
-0.000663487
0.0990819
-0.000456284
0.106993
-0.000279208
0.115219
-0.000218044
0.123813
-0.000200961
0.132803
-0.000218758
0.142278
-0.000213756
0.152322
-0.000186484
0.163043
-0.000135059
0.174486
-8.2583e-05
0.186675
-3.53611e-05
0.199645
-4.51104e-07
0.213448
2.46832e-05
0.228164
4.09714e-05
0.24387
4.77928e-05
0.26065
4.63821e-05
0.278589
3.65534e-05
0.297771
2.08211e-05
0.318306
0.340313
0.015198
0.030598
0.0150069
0.0350653
0.0140531
0.0425685
0.0117874
0.0499831
0.00956985
0.0561693
0.00754788
0.0619358
0.00539189
0.0677733
0.00362462
0.0733312
0.00201446
0.0793123
0.000762879
0.0856436
-0.000263814
0.0925276
-0.000927203
0.0997453
-0.00132749
0.107393
-0.00148091
0.115373
-0.00138558
0.123718
-0.00117626
0.132594
-0.000922673
0.142024
-0.000710488
0.152109
-0.000534224
0.162866
-0.000387388
0.174339
-0.00026014
0.186547
-0.000156419
0.199541
-7.66798e-05
0.213368
-2.04098e-05
0.228108
1.45848e-05
0.243835
3.38609e-05
0.260631
3.86669e-05
0.278584
3.22736e-05
0.297777
1.90659e-05
0.318319
0.340332
0.0181807
0.0334071
0.0160942
0.0371518
0.0140505
0.0446122
0.0105953
0.0534383
0.00691896
0.0598456
0.00429888
0.0645559
0.00299314
0.0690791
0.00222981
0.0740945
0.00164972
0.0798924
0.00122773
0.0860655
0.00100459
0.0927507
0.000834989
0.0999149
0.000762217
0.107466
0.000692689
0.115442
0.00052966
0.123881
0.000363363
0.13276
0.000190838
0.142197
6.65152e-05
0.152234
-7.81168e-06
0.162941
-2.97611e-05
0.174361
-2.67812e-05
0.186544
-1.04608e-05
0.199525
6.7304e-06
0.213351
2.3643e-05
0.228091
3.71432e-05
0.243822
4.39901e-05
0.260624
4.36836e-05
0.278584
3.50878e-05
0.297786
2.01351e-05
0.318334
0.340352
0.0138235
0.0379385
0.0108795
0.0400958
0.0106109
0.0448807
0.0106557
0.0533935
0.00935374
0.0611476
0.00765401
0.0662557
0.00639535
0.0703378
0.00512116
0.0753687
0.00414106
0.0808725
0.0029565
0.0872501
0.0017638
0.0939434
0.000756044
0.100923
-2.97847e-05
0.108252
-0.000482498
0.115895
-0.000605082
0.124004
-0.000559944
0.132715
-0.000453158
0.14209
-0.000372824
0.152153
-0.000304573
0.162872
-0.000239644
0.174296
-0.000166379
0.186471
-9.75297e-05
0.199456
-3.83328e-05
0.213292
4.39398e-06
0.228049
3.03356e-05
0.243796
4.37024e-05
0.260611
4.51567e-05
0.278583
3.65425e-05
0.297794
2.10706e-05
0.318349
0.340373
0.0127087
0.0471556
0.00503171
0.0477729
0.000792313
-8.73161e-05
0.00167303
0.00350093
0.00412119
0.00404352
0.00346272
0.00285639
0.00239859
0.00193608
0.00167209
0.00137575
0.00106049
0.000764445
0.000501328
0.000306172
0.000165885
8.5056e-05
4.34654e-05
3.18746e-05
3.3912e-05
4.19953e-05
5.25036e-05
5.66276e-05
5.38004e-05
4.25629e-05
2.3933e-05
0.036064
0.0325602
0.0573826
0.031013
0.0607137
0.0297644
0.0637701
0.0288739
0.0667624
0.0280043
0.0703509
0.0270155
0.0746527
0.026146
0.0787403
0.0254011
0.0827175
0.0245189
0.0874061
0.0924698
0.0376703
0.0586656
0.0362643
0.0621197
0.0349232
0.0651112
0.0338034
0.0678821
0.0324614
0.0716929
0.0310578
0.0760563
0.0299988
0.0797994
0.0290217
0.0836946
0.0279698
0.088458
0.027128
0.0933116
0.0263399
0.0984278
0.0254422
0.104313
0.0245481
0.110675
0.0236281
0.117505
0.0226366
0.125017
0.021639
0.133107
0.0206134
0.141764
0.0195043
0.151081
0.0183496
0.161031
0.0171589
0.171608
0.0158615
0.183036
0.0144988
0.195352
0.0130718
0.208474
0.0115375
0.222572
0.00990774
0.237701
0.00817535
0.253886
0.00632495
0.271245
0.00435241
0.289848
0.00224689
0.309804
0.331211
0.0416682
0.0605429
0.040095
0.063693
0.0390275
0.0661787
0.0380334
0.0688763
0.0367411
0.0729852
0.0356148
0.0771826
0.0345903
0.0808239
0.0332431
0.0850418
0.0319379
0.0897633
0.0308808
0.0943687
0.0298313
0.0994773
0.0288007
0.105344
0.0278473
0.111629
0.0268532
0.118499
0.0257978
0.126072
0.0247067
0.134198
0.0235126
0.142959
0.0222445
0.152349
0.0209308
0.162344
0.0195407
0.172999
0.0180613
0.184516
0.0165198
0.196893
0.0148874
0.210107
0.0131382
0.224321
0.0112853
0.239554
0.00931089
0.255861
0.0072044
0.273351
0.0049594
0.292093
0.00255915
0.312204
0.33377
0.0461279
0.0629007
0.0441189
0.065702
0.0425878
0.0677097
0.0410302
0.0704339
0.0396179
0.0743975
0.0385346
0.0782659
0.0374074
0.081951
0.0361426
0.0863067
0.035025
0.0908809
0.0339476
0.0954461
0.0328135
0.100611
0.0317449
0.106412
0.0306637
0.11271
0.0295157
0.119647
0.0283482
0.12724
0.0271474
0.135399
0.0258828
0.144223
0.0245547
0.153677
0.0231359
0.163763
0.021631
0.174503
0.0200312
0.186115
0.0183453
0.198579
0.0165414
0.211911
0.014612
0.22625
0.0125612
0.241605
0.0103673
0.258055
0.0080254
0.275693
0.0055273
0.294591
0.00285144
0.31488
0.336622
0.0506576
0.0488645
0.0470558
0.0454125
0.044024
0.0426854
0.0412019
0.0397388
0.0383637
0.0370301
0.0358052
0.0346723
0.0335596
0.0324131
0.0312014
0.0299001
0.0285063
0.0270221
0.0254433
0.023768
0.0220005
0.020137
0.0181459
0.01603
0.0137783
0.0113701
0.00880245
0.00606374
0.00312629
)
;

boundaryField
{
    outlet
    {
        type            calculated;
        value           nonuniform 0();
    }
    upperWall
    {
        type            symmetryPlane;
        value           nonuniform 0();
    }
    lowerWall
    {
        type            symmetryPlane;
        value           uniform 0;
    }
    inlet
    {
        type            calculated;
        value           nonuniform 0();
    }
    cylinder
    {
        type            calculated;
        value           nonuniform 0();
    }
    frontAndBack
    {
        type            empty;
        value           nonuniform 0();
    }
    procBoundary2to1
    {
        type            processor;
        value           nonuniform List<scalar> 
63
(
-0.0208297
-0.00712057
-0.0201124
-0.0229172
-0.0372612
-0.0260026
-0.0267461
-0.0367344
-0.0300724
-0.0310476
-0.0320852
-0.0360054
-0.0345664
-0.0356686
-0.0371144
-0.0340001
-0.000373671
-0.0092041
0.00115394
0.00349136
0.0054295
0.0063001
-0.00223441
0.00868805
0.00238195
0.0086962
0.0055428
0.00680615
0.00516179
0.0032868
0.00295937
-0.000670673
-0.0559426
-0.0591666
-0.0625215
-0.0658719
-0.0694813
-0.0736639
-0.0778709
-0.0819726
-0.0865239
-0.0916006
0.0236497
-0.0976397
-0.103416
-0.109781
-0.116585
-0.124025
-0.132109
-0.140739
-0.149972
-0.159876
-0.170418
-0.181739
-0.193989
-0.207047
-0.221037
-0.236071
-0.252154
-0.269394
-0.287876
-0.307698
-0.328964
)
;
    }
    procBoundary2to3
    {
        type            processor;
        value           nonuniform List<scalar> 
43
(
0.0405035
0.0453429
0.0517002
0.0575026
0.0631699
0.0663333
-0.0769475
0.0771924
0.0753466
0.0704197
0.0588997
-0.0447771
0.0491201
0.0542731
0.0593872
0.0644278
0.0697175
0.0754464
0.0814533
0.0878564
0.0944012
0.101385
0.108516
0.116191
0.124319
0.133011
0.142353
0.152349
0.163013
0.174377
0.186513
0.199467
0.21329
0.22804
0.243785
0.260607
0.278586
0.297806
0.318368
0.340397
0.0558687
0.0268232
0.0570137
)
;
    }
    procBoundary2to6
    {
        type            processor;
        value           nonuniform List<scalar> 
37
(
0.00892562
0.00349556
-0.00252329
-0.00820374
-0.013112
-0.0181177
-0.0238664
-0.029616
-0.0343166
-0.0375352
-0.0385683
-0.0395949
-0.0399304
-0.038894
-0.0395628
-0.0333965
-0.0249686
-0.0125025
0.0169396
0.0407351
0.0545772
0.0586877
0.0601257
0.0592688
0.060011
0.0629638
0.0707279
0.0729782
0.0673598
0.0492696
0.0157311
-0.020952
-0.0560895
-0.0716743
-0.0818387
-0.0813531
-0.085662
)
;
    }
}


// ************************************************************************* //
