/*--------------------------------*- C++ -*----------------------------------*\
| =========                 |                                                 |
| \\      /  F ield         | OpenFOAM: The Open Source CFD Toolbox           |
|  \\    /   O peration     | Version:                                        |
|   \\  /    A nd           | Website:  www.openfoam.com                      |
|    \\/     M anipulation  |                                                 |
\*---------------------------------------------------------------------------*/
FoamFile
{
    version     2.0;
    format      ascii;
    class       volScalarField;
    location    "147";
    object      p;
}
// * * * * * * * * * * * * * * * * * * * * * * * * * * * * * * * * * * * * * //

dimensions      [0 2 -2 0 0 0 0];


internalField   nonuniform List<scalar> 
1150
(
0.189153
0.182282
0.172722
0.160276
0.144965
0.127179
0.19846
0.190153
0.178703
0.164056
0.146354
0.20852
0.198845
0.185736
0.0616294
0.0612942
0.0608917
0.0604293
0.0599084
0.0593456
0.058747
0.0581365
0.0575257
0.0569494
0.0567852
0.0565714
0.0564078
0.0562879
0.056208
0.0561584
0.0561338
0.056123
0.0561141
0.0560917
0.0596082
0.0593783
0.0591233
0.058877
0.0585929
0.0582943
0.0579671
0.0576255
0.0572651
0.0568808
0.0596017
0.0593028
0.0589968
0.0586859
0.0585059
0.0582052
0.0579438
0.0576576
0.0573994
0.0571274
0.0613684
0.0609472
0.0605135
0.0600786
0.0596464
0.0592309
0.0588169
0.058431
0.0580432
0.0576889
0.0614024
0.0611718
0.0609349
0.0606857
0.0604331
0.0601594
0.0598916
0.0595922
0.0592856
0.0589861
0.0627909
0.0624059
0.0619933
0.0615562
0.0610815
0.0605843
0.0600573
0.0595413
0.0590309
0.0585574
0.0633117
0.0627226
0.0621722
0.0616516
0.061189
0.0607538
0.0603918
0.0600567
0.0597592
0.0595011
0.0650213
0.0648164
0.0645931
0.0644313
0.064179
0.0639291
0.0635525
0.063113
0.0625009
0.0617932
0.0660647
0.0655798
0.0650148
0.0643559
0.0636398
0.0628616
0.0621161
0.0613968
0.0608022
0.0602822
0.0676712
0.0667646
0.065909
0.0651541
0.0644712
0.063885
0.0633014
0.0633294
0.0630221
0.0629471
0.0697711
0.0693381
0.0689114
0.0684682
0.0680115
0.0674182
0.0667807
0.0660167
0.0651418
0.0644343
0.0720601
0.0715605
0.0709726
0.0702439
0.0693987
0.0684925
0.0675012
0.0666827
0.0658106
0.0652544
0.0742996
0.0733169
0.0723504
0.0714606
0.0706458
0.0700059
0.0694454
0.0689765
0.0684008
0.0677369
0.0772787
0.0764453
0.0756659
0.0749023
0.0741355
0.0732668
0.0721964
0.0711435
0.069681
0.0686632
0.0803682
0.0795153
0.0785729
0.0775575
0.0763538
0.0751907
0.0738926
0.0727813
0.0716392
0.0708031
0.0838486
0.0828576
0.0817766
0.080683
0.0794883
0.0783594
0.0771128
0.0759158
0.0742745
0.0729521
0.0877177
0.0864565
0.0851626
0.0838194
0.0823745
0.0808906
0.0791941
0.0774989
0.0756466
0.0738499
0.0921879
0.0908501
0.0894078
0.087931
0.0862201
0.0845284
0.0824551
0.0805982
0.0780677
0.0761301
0.0969672
0.0954503
0.0937487
0.0918894
0.0897874
0.0875711
0.0850991
0.0825394
0.0797525
0.0770105
0.102341
0.100625
0.0987132
0.0965932
0.0941737
0.0916731
0.0887294
0.0859411
0.0824657
0.0794045
0.108274
0.106231
0.103919
0.101351
0.0983761
0.0951658
0.0915613
0.0875802
0.0834547
0.0787246
0.11482
0.112483
0.109808
0.106768
0.10324
0.0994158
0.0950171
0.0905277
0.085248
0.0803013
0.121883
0.119188
0.116036
0.112372
0.10806
0.103298
0.0979534
0.0919131
0.0857965
0.0786036
0.12969
0.12663
0.122981
0.118662
0.113559
0.107825
0.101327
0.0943496
0.0864824
0.0785444
0.138147
0.134629
0.130341
0.125179
0.118995
0.111977
0.104025
0.0950403
0.0854124
0.0747975
0.14731
0.143344
0.138398
0.132306
0.124973
0.116548
0.106758
0.0963454
0.0843788
0.0726886
0.157085
0.152596
0.146854
0.13966
0.130848
0.1207
0.108847
0.095739
0.081964
0.0654621
0.16758
0.162574
0.155963
0.147506
0.137092
0.124919
0.110496
0.0950149
0.0786321
0.178768
0.173081
0.165314
0.155197
0.142618
0.12799
0.110521
0.0564176
0.0559223
0.0554472
0.0549676
0.0544846
0.0540169
0.053586
0.0531932
0.0528231
0.0524432
0.0520246
0.051552
0.0510191
0.0504419
0.0498316
0.0491926
0.0485245
0.0478247
0.0470944
0.0463374
0.045558
0.0447582
0.0439548
0.0431567
0.0423833
0.0416566
0.0409924
0.0404018
0.0399084
0.0396479
0.0560686
0.0560633
0.056051
0.0560187
0.0559345
0.0557555
0.0554333
0.0549348
0.054278
0.0535721
0.0528818
0.0522147
0.0515575
0.0508861
0.0501928
0.0494742
0.0487282
0.0479518
0.0471487
0.0463219
0.0454833
0.0446392
0.043803
0.0429809
0.0421936
0.0414558
0.0407912
0.0402124
0.0397126
0.0394548
0.0565049
0.0561187
0.0557618
0.0554639
0.0552334
0.0550245
0.0548368
0.054551
0.0541739
0.053674
0.0530517
0.052355
0.0516372
0.0509035
0.0501548
0.0493832
0.0485863
0.0477642
0.0469144
0.0460451
0.0451641
0.0442838
0.0434144
0.0425725
0.0417733
0.0410319
0.0403741
0.039818
0.0393464
0.0391061
0.0568883
0.0566536
0.0564067
0.0561429
0.0558465
0.0555003
0.0550972
0.0546461
0.0541938
0.0537212
0.0531848
0.0525564
0.0518185
0.0510338
0.0502134
0.049369
0.0484962
0.047594
0.0466602
0.0457139
0.0447611
0.0438225
0.0429075
0.0420352
0.0412133
0.0404673
0.0398093
0.039275
0.038847
0.0386301
0.0572714
0.056817
0.0563639
0.0559336
0.0555278
0.0551563
0.0548039
0.0544485
0.0539909
0.0534741
0.0529173
0.0522833
0.0515711
0.050772
0.0499275
0.0490387
0.0481119
0.0471433
0.0461501
0.0451342
0.0441222
0.0431337
0.0421906
0.0413022
0.0404873
0.0397535
0.0391164
0.0386118
0.038234
0.0380438
0.0586623
0.058337
0.0579654
0.0574957
0.056919
0.0562242
0.0554084
0.0545838
0.0537751
0.0529693
0.052166
0.0513501
0.0505283
0.0496874
0.04884
0.0479813
0.0471028
0.0461902
0.0452375
0.0442504
0.0432582
0.0422776
0.0413324
0.0404483
0.0396466
0.0389299
0.0383281
0.0378562
0.0375251
0.0373596
0.0581307
0.0577256
0.0572799
0.0568549
0.0564523
0.0560688
0.0556997
0.0552025
0.0545541
0.0538209
0.0529903
0.0520735
0.0510771
0.0500335
0.0489576
0.0478753
0.0467988
0.0457243
0.0446438
0.0435716
0.0425202
0.0415019
0.040539
0.039647
0.0388345
0.0381233
0.0375295
0.0370709
0.0367639
0.0366094
0.0591236
0.0587549
0.0583468
0.0578925
0.057323
0.0566345
0.0558627
0.0550751
0.054291
0.0535068
0.05271
0.0518671
0.0509462
0.0499228
0.0488085
0.0476167
0.0463773
0.0451246
0.043899
0.0427144
0.0415835
0.0405267
0.0395606
0.0386827
0.0379085
0.0372418
0.0366793
0.0362548
0.0359666
0.0358215
0.0610045
0.0601405
0.0593746
0.0585562
0.0577893
0.0570181
0.0561
0.0549945
0.0537457
0.0524248
0.0511069
0.0498619
0.048719
0.0476755
0.0466927
0.0457162
0.0446969
0.0436245
0.0425189
0.0414218
0.0403669
0.0393722
0.0384435
0.0376084
0.0368844
0.0362703
0.0357644
0.0353904
0.0351306
0.0350012
0.0598306
0.0594922
0.0591422
0.0587062
0.0581455
0.0574661
0.0567608
0.0560284
0.0551917
0.0541766
0.0529237
0.0514474
0.0498193
0.0481521
0.0465498
0.045092
0.0437867
0.0425784
0.0414199
0.0403175
0.0392823
0.038318
0.0374353
0.0366465
0.0359508
0.0353642
0.0348883
0.0345385
0.0342971
0.0341767
0.0622496
0.0612158
0.0602818
0.0594349
0.0585682
0.057585
0.0564178
0.0551915
0.0540462
0.0530117
0.0520553
0.0510699
0.0499247
0.0485344
0.0469246
0.0451843
0.043454
0.0418723
0.0404819
0.0392545
0.0381507
0.0371712
0.0363204
0.0355881
0.0349622
0.0344432
0.0340206
0.0337076
0.0334898
0.0333802
0.0635556
0.0626436
0.0617683
0.0607711
0.0596448
0.0584407
0.0571136
0.0555793
0.0538215
0.0519398
0.0500872
0.0484375
0.0470504
0.0458495
0.0446957
0.0434544
0.0420645
0.0406177
0.0392353
0.0379889
0.0368934
0.0359468
0.0351346
0.0344533
0.0338977
0.0334608
0.0331171
0.0328696
0.0326954
0.032609
0.0644445
0.0634112
0.062186
0.0609672
0.059726
0.0584267
0.0571405
0.0559169
0.0546219
0.0530799
0.0511594
0.0489526
0.0466353
0.0444466
0.0425947
0.0410933
0.0398513
0.0387049
0.0375701
0.0364818
0.0354989
0.0346526
0.0339364
0.0333394
0.0328608
0.0324942
0.0322211
0.0320408
0.031915
0.0318601
0.0666454
0.0654275
0.0642216
0.0627313
0.060968
0.0590264
0.0569269
0.0547836
0.052834
0.0511946
0.0497691
0.0483167
0.0465238
0.0444245
0.0422153
0.0401426
0.0384035
0.0370138
0.0358885
0.0349174
0.0340676
0.0333385
0.0327295
0.0322406
0.0318584
0.0315709
0.0313695
0.0312525
0.0311725
0.0311508
0.0670176
0.0653723
0.0637151
0.062048
0.060556
0.0591048
0.0574909
0.0554959
0.0531339
0.0505779
0.0482003
0.0461935
0.0445146
0.0429685
0.0413018
0.0394825
0.0376465
0.035986
0.0346246
0.0335541
0.0327301
0.032073
0.0315574
0.0311661
0.030878
0.0306793
0.0305575
0.0305092
0.0304805
0.0304935
0.0694872
0.0678208
0.0657591
0.0634659
0.0608958
0.0582529
0.0558775
0.0537851
0.0517785
0.049578
0.0470421
0.0444032
0.0420394
0.0401253
0.0386012
0.0372455
0.0358769
0.0345092
0.0332436
0.0321955
0.0313916
0.0307936
0.0303688
0.0300754
0.0298879
0.0297871
0.0297568
0.0297922
0.0298316
0.0298846
0.0705848
0.068143
0.0660561
0.0640481
0.0618008
0.0592001
0.0562887
0.0532009
0.0502765
0.0476524
0.0451514
0.0426232
0.0400655
0.0376964
0.0357514
0.0342819
0.0331802
0.03223
0.0313531
0.03059
0.029965
0.0295047
0.0291981
0.0290129
0.0289257
0.0289183
0.0289754
0.0290962
0.0292178
0.029313
0.0717528
0.0694831
0.0667311
0.0635592
0.0606016
0.0578988
0.0551656
0.0522373
0.0491178
0.0459923
0.0432011
0.0407084
0.0383668
0.0360663
0.033903
0.0321079
0.0308066
0.0299048
0.0292753
0.0287969
0.0284307
0.0281812
0.0280392
0.0279912
0.0280179
0.0281031
0.0282389
0.0284358
0.0286475
0.0287797
0.0727865
0.0694204
0.0662029
0.0629756
0.059591
0.0560603
0.0526796
0.0495097
0.0463733
0.0432971
0.0404489
0.0379796
0.0358979
0.034068
0.0323221
0.0306599
0.029245
0.0282112
0.0275519
0.0271695
0.0269827
0.0269138
0.0269342
0.0270269
0.0271703
0.0273489
0.0275587
0.027821
0.0281317
0.0282919
0.0737741
0.070643
0.0670702
0.0633393
0.0595164
0.0555499
0.0516405
0.0478212
0.0441972
0.040822
0.0377089
0.0349857
0.0327851
0.0311266
0.0298442
0.0287251
0.0276737
0.0267693
0.0261284
0.0257794
0.0256746
0.0257266
0.0258852
0.0261068
0.0263653
0.026639
0.0269233
0.0272457
0.0276714
0.0278516
0.0751945
0.0704533
0.0658004
0.0614403
0.0570665
0.0528501
0.0487613
0.0448461
0.041206
0.0378371
0.0347503
0.03197
0.0296301
0.0278538
0.0266459
0.0259014
0.0253641
0.0249166
0.0245814
0.0244181
0.0244361
0.0246063
0.0248847
0.0252246
0.0255922
0.0259597
0.0263197
0.0266969
0.0272562
0.0274514
0.0737482
0.0691617
0.0645334
0.0594099
0.0542888
0.0494591
0.0449492
0.0408935
0.0372856
0.0340992
0.0312967
0.0287966
0.0266286
0.0248564
0.0236195
0.0229353
0.022679
0.0226709
0.022766
0.0229352
0.0231826
0.0235238
0.0239385
0.0243979
0.0248689
0.0253238
0.0257524
0.0261736
0.0268772
0.0270812
0.0745148
0.0685912
0.0626132
0.0568946
0.0514455
0.0461381
0.0411258
0.0366571
0.0328149
0.0296819
0.0271514
0.0251117
0.0234314
0.0220352
0.0209948
0.020378
0.0202173
0.0204283
0.0208528
0.0213595
0.0218934
0.0224547
0.0230337
0.0236255
0.0242022
0.0247414
0.025231
0.025682
0.0265298
0.026735
0.072061
0.0656411
0.0591881
0.0529326
0.0471617
0.0418958
0.0371869
0.0328631
0.0289958
0.0257494
0.023178
0.0213386
0.0200785
0.0192122
0.0186264
0.0182946
0.0182747
0.0185841
0.0191549
0.0198771
0.0206534
0.0214288
0.0221832
0.0229126
0.0235971
0.0242193
0.0247638
0.0252319
0.0262121
0.0264109
0.0707481
0.0626111
0.0549127
0.047797
0.0413106
0.035804
0.0312964
0.0275217
0.0243143
0.0215284
0.0192414
0.017605
0.0166086
0.0161813
0.0161172
0.0162568
0.0165618
0.0170526
0.0177408
0.0185941
0.0195299
0.0204752
0.0213872
0.022248
0.023042
0.0237487
0.0243482
0.0248267
0.0259188
0.0261064
0.0654419
0.0566443
0.0486956
0.0414635
0.0350471
0.0295062
0.0248698
0.0211857
0.0184181
0.0163099
0.0147304
0.0136156
0.013001
0.0129457
0.0133254
0.013973
0.0147377
0.0155609
0.0164692
0.0174725
0.0185402
0.0196197
0.0206612
0.021638
0.0225352
0.0233254
0.0239806
0.0244678
0.0256394
0.0258144
0.0610691
0.0500401
0.0412103
0.0340284
0.0279852
0.0228671
0.0185088
0.0149977
0.0124192
0.0106829
0.0096993
0.00920526
0.00912745
0.00949184
0.0102571
0.0113462
0.0125894
0.0138586
0.0151173
0.0163649
0.0176066
0.0188262
0.0199892
0.0210748
0.0220708
0.022945
0.0236576
0.0241555
0.0253603
0.0255235
0.0507118
0.0393677
0.0313212
0.0246564
0.0191695
0.014766
0.0112302
0.00846459
0.00637147
0.00505658
0.0045352
0.00457696
0.00507658
0.00591609
0.00706971
0.00852421
0.0101734
0.0118857
0.0135585
0.0151398
0.0166313
0.0180363
0.0193433
0.0205468
0.0216441
0.022607
0.0233805
0.0238932
0.0250676
0.02522
)
;

boundaryField
{
    outlet
    {
        type            fixedValue;
        value           nonuniform 0();
    }
    upperWall
    {
        type            symmetryPlane;
    }
    lowerWall
    {
        type            symmetryPlane;
    }
    inlet
    {
        type            zeroGradient;
    }
    cylinder
    {
        type            zeroGradient;
    }
    frontAndBack
    {
        type            empty;
    }
    procBoundary0to1
    {
        type            processor;
        value           nonuniform List<scalar> 
45
(
0.107116
0.125886
0.107116
0.169309
0.125886
0.14977
0.219778
0.209072
0.169309
0.194683
0.0588353
0.0917108
0.0588353
0.0725726
0.0917108
0.0380837
0.0264517
0.0192028
0.0133216
0.00850335
0.00482597
0.00224047
0.000459486
-0.000690907
-0.0011661
-0.00103143
-0.000356987
0.000776553
0.00218689
0.00381347
0.00564581
0.00764676
0.00973766
0.0118031
0.0137502
0.0155473
0.0171919
0.0186851
0.0200333
0.0212469
0.0223107
0.0231541
0.0236874
0.0247503
0.0248924
)
;
    }
    procBoundary0to4
    {
        type            processor;
        value           nonuniform List<scalar> 
33
(
0.193881
0.2041
0.21486
0.0618987
0.0570507
0.0598085
0.0598991
0.0617665
0.0616214
0.0631568
0.0638886
0.0652039
0.0664896
0.0685473
0.0701715
0.0725084
0.0752002
0.0780529
0.0810914
0.0847024
0.0888019
0.0933224
0.0981875
0.103693
0.109835
0.11658
0.123855
0.131868
0.140571
0.149999
0.160077
0.170919
0.182631
)
;
    }
}


// ************************************************************************* //
