/*--------------------------------*- C++ -*----------------------------------*\
| =========                 |                                                 |
| \\      /  F ield         | OpenFOAM: The Open Source CFD Toolbox           |
|  \\    /   O peration     | Version:                                        |
|   \\  /    A nd           | Website:  www.openfoam.com                      |
|    \\/     M anipulation  |                                                 |
\*---------------------------------------------------------------------------*/
FoamFile
{
    version     2.0;
    format      ascii;
    class       volVectorField;
    location    "3.4";
    object      U;
}
// * * * * * * * * * * * * * * * * * * * * * * * * * * * * * * * * * * * * * //

dimensions      [0 1 -1 0 0 0 0];


internalField   nonuniform List<vector> 
400
(
(1.00026 -0.000486515 0)
(1.00396 -0.00143837 0)
(1.01142 -0.00227375 0)
(1.02209 -0.00292757 0)
(1.035 -0.00339427 0)
(1.04939 -0.00369558 0)
(1.06469 -0.00386037 0)
(1.08039 -0.00391962 0)
(1.09615 -0.0039024 0)
(1.1117 -0.00383278 0)
(1.12688 -0.00372931 0)
(1.14159 -0.0036057 0)
(1.15577 -0.00347173 0)
(1.1694 -0.00333402 0)
(1.18246 -0.00319694 0)
(1.19498 -0.00306315 0)
(1.20696 -0.00293422 0)
(1.21844 -0.00281091 0)
(1.22942 -0.00269349 0)
(1.23994 -0.00258191 0)
(1.00026 -0.00147198 0)
(1.00406 -0.0043508 0)
(1.0117 -0.00687084 0)
(1.02259 -0.00883611 0)
(1.03572 -0.0102341 0)
(1.05031 -0.0111331 0)
(1.06578 -0.0116215 0)
(1.08164 -0.0117935 0)
(1.09752 -0.0117366 0)
(1.11318 -0.011523 0)
(1.12846 -0.0112081 0)
(1.14323 -0.0108328 0)
(1.15747 -0.0104262 0)
(1.17112 -0.0100083 0)
(1.1842 -0.00959189 0)
(1.1967 -0.00918528 0)
(1.20865 -0.00879315 0)
(1.22006 -0.00841792 0)
(1.23097 -0.00806051 0)
(1.2414 -0.00772089 0)
(1.00027 -0.0024958 0)
(1.00427 -0.00737297 0)
(1.01228 -0.0116196 0)
(1.02362 -0.0149074 0)
(1.0372 -0.01723 0)
(1.05221 -0.0187117 0)
(1.06803 -0.0195057 0)
(1.0842 -0.0197725 0)
(1.10034 -0.0196595 0)
(1.11622 -0.0192866 0)
(1.13166 -0.0187456 0)
(1.14657 -0.0181039 0)
(1.16088 -0.0174096 0)
(1.17458 -0.0166956 0)
(1.18764 -0.0159838 0)
(1.20009 -0.0152878 0)
(1.21194 -0.014616 0)
(1.22321 -0.0139728 0)
(1.23393 -0.0133601 0)
(1.24413 -0.012778 0)
(1.00029 -0.00358716 0)
(1.0046 -0.0105872 0)
(1.01321 -0.0166309 0)
(1.02526 -0.0212585 0)
(1.03954 -0.0244935 0)
(1.05517 -0.0265318 0)
(1.07156 -0.0276 0)
(1.0882 -0.02793 0)
(1.10474 -0.0277307 0)
(1.12093 -0.0271696 0)
(1.13661 -0.0263739 0)
(1.15167 -0.0254369 0)
(1.16606 -0.0244254 0)
(1.17975 -0.0233855 0)
(1.19274 -0.0223482 0)
(1.20504 -0.0213334 0)
(1.21666 -0.0203535 0)
(1.22764 -0.0194153 0)
(1.23801 -0.0185222 0)
(1.2478 -0.0176748 0)
(1.00032 -0.00478141 0)
(1.00509 -0.0140909 0)
(1.01455 -0.0220318 0)
(1.02762 -0.0280203 0)
(1.04287 -0.032148 0)
(1.0594 -0.0347038 0)
(1.07656 -0.0359986 0)
(1.09385 -0.0363422 0)
(1.1109 -0.036007 0)
(1.12748 -0.0352083 0)
(1.14341 -0.0341082 0)
(1.1586 -0.0328261 0)
(1.17299 -0.0314479 0)
(1.18656 -0.0300336 0)
(1.1993 -0.0286241 0)
(1.21125 -0.0272464 0)
(1.22242 -0.0259175 0)
(1.23287 -0.0246474 0)
(1.24263 -0.0234408 0)
(1.25175 -0.0222993 0)
(1.00036 -0.0061241 0)
(1.00578 -0.0180054 0)
(1.01643 -0.0279738 0)
(1.03087 -0.0353452 0)
(1.04743 -0.0403351 0)
(1.06513 -0.0433514 0)
(1.0833 -0.0448017 0)
(1.1014 -0.0450818 0)
(1.11907 -0.0445312 0)
(1.13603 -0.0434137 0)
(1.15215 -0.0419281 0)
(1.16732 -0.0402215 0)
(1.1815 -0.0384004 0)
(1.19468 -0.0365405 0)
(1.20689 -0.0346937 0)
(1.21815 -0.0328949 0)
(1.22854 -0.0311661 0)
(1.2381 -0.0295203 0)
(1.24689 -0.0279639 0)
(1.25499 -0.0264985 0)
(1.00041 -0.00767712 0)
(1.00675 -0.0224882 0)
(1.01903 -0.0346447 0)
(1.03529 -0.043417 0)
(1.05355 -0.0492206 0)
(1.07275 -0.052611 0)
(1.09215 -0.0541071 0)
(1.11118 -0.0542016 0)
(1.12943 -0.0533077 0)
(1.14666 -0.0517428 0)
(1.16272 -0.0497466 0)
(1.17754 -0.0474979 0)
(1.19111 -0.0451273 0)
(1.20346 -0.0427275 0)
(1.21464 -0.0403626 0)
(1.22475 -0.0380753 0)
(1.23385 -0.0358921 0)
(1.24205 -0.0338281 0)
(1.24943 -0.0318897 0)
(1.25606 -0.0300777 0)
(1.00049 -0.00952863 0)
(1.00812 -0.0277519 0)
(1.02261 -0.0422853 0)
(1.04126 -0.0524614 0)
(1.06169 -0.0589962 0)
(1.08271 -0.0626205 0)
(1.1035 -0.0639846 0)
(1.12341 -0.0636973 0)
(1.14202 -0.0622592 0)
(1.15912 -0.0600523 0)
(1.17461 -0.0573662 0)
(1.18848 -0.0544172 0)
(1.20079 -0.0513627 0)
(1.21163 -0.0483135 0)
(1.22113 -0.0453448 0)
(1.22942 -0.0425049 0)
(1.23663 -0.0398222 0)
(1.24288 -0.0373109 0)
(1.24831 -0.0349748 0)
(1.25301 -0.0328113 0)
(1.0006 -0.0118095 0)
(1.01008 -0.0340912 0)
(1.02759 -0.0512098 0)
(1.04936 -0.0627551 0)
(1.07246 -0.0698671 0)
(1.09555 -0.0734831 0)
(1.11765 -0.0744203 0)
(1.13808 -0.0734406 0)
(1.15645 -0.0711579 0)
(1.17263 -0.0680369 0)
(1.18665 -0.0644282 0)
(1.19862 -0.0605907 0)
(1.20872 -0.056708 0)
(1.21714 -0.0529053 0)
(1.2241 -0.0492638 0)
(1.22979 -0.0458314 0)
(1.23441 -0.0426327 0)
(1.23811 -0.0396758 0)
(1.24105 -0.0369574 0)
(1.24334 -0.0344675 0)
(1.00075 -0.0147218 0)
(1.01294 -0.0419251 0)
(1.03463 -0.0618299 0)
(1.06036 -0.0746164 0)
(1.08655 -0.0820026 0)
(1.11163 -0.0851826 0)
(1.1345 -0.0852146 0)
(1.1545 -0.0830775 0)
(1.17143 -0.0795377 0)
(1.18538 -0.0751631 0)
(1.19658 -0.0703719 0)
(1.20535 -0.0654618 0)
(1.21203 -0.0606334 0)
(1.21695 -0.0560147 0)
(1.22042 -0.0516805 0)
(1.22272 -0.047668 0)
(1.22406 -0.0439886 0)
(1.22465 -0.0406367 0)
(1.22465 -0.0375964 0)
(1.22418 -0.0348457 0)
(1.00098 -0.0185905 0)
(1.01726 -0.0518567 0)
(1.04469 -0.0746639 0)
(1.07523 -0.0883463 0)
(1.10449 -0.0954131 0)
(1.13076 -0.0974271 0)
(1.15298 -0.0958275 0)
(1.17076 -0.0919026 0)
(1.18431 -0.0866103 0)
(1.1941 -0.0806286 0)
(1.20071 -0.0744313 0)
(1.20472 -0.0683323 0)
(1.20666 -0.062525 0)
(1.207 -0.057117 0)
(1.20612 -0.0521579 0)
(1.20435 -0.0476587 0)
(1.20192 -0.043606 0)
(1.19903 -0.0399728 0)
(1.19583 -0.0367243 0)
(1.19244 -0.0338234 0)
(1.00135 -0.0239564 0)
(1.02395 -0.0647454 0)
(1.05905 -0.0902867 0)
(1.09476 -0.104055 0)
(1.12601 -0.109706 0)
(1.15136 -0.109409 0)
(1.17022 -0.105195 0)
(1.18291 -0.098754 0)
(1.19036 -0.0912358 0)
(1.19363 -0.0833941 0)
(1.19371 -0.0757086 0)
(1.19143 -0.0684601 0)
(1.18748 -0.061792 0)
(1.18242 -0.0557592 0)
(1.17665 -0.0503619 0)
(1.17046 -0.0455687 0)
(1.16409 -0.0413314 0)
(1.15769 -0.0375948 0)
(1.15136 -0.0343026 0)
(1.14517 -0.0314009 0)
(1.00201 -0.0317307 0)
(1.03445 -0.0817392 0)
(1.07905 -0.109117 0)
(1.11877 -0.121293 0)
(1.14887 -0.123706 0)
(1.16918 -0.119526 0)
(1.18043 -0.111601 0)
(1.18423 -0.102016 0)
(1.1825 -0.092023 0)
(1.17691 -0.0823401 0)
(1.16881 -0.0733556 0)
(1.15919 -0.0652403 0)
(1.14877 -0.058034 0)
(1.13807 -0.0517042 0)
(1.12741 -0.0461816 0)
(1.11702 -0.0413814 0)
(1.10703 -0.0372163 0)
(1.0975 -0.0336024 0)
(1.08847 -0.0304632 0)
(1.07995 -0.0277309 0)
(1.00337 -0.0433958 0)
(1.05065 -0.104104 0)
(1.10502 -0.130866 0)
(1.14428 -0.138427 0)
(1.16687 -0.135013 0)
(1.1758 -0.125225 0)
(1.17408 -0.112753 0)
(1.165 -0.0998561 0)
(1.15145 -0.0876361 0)
(1.13551 -0.0765849 0)
(1.11858 -0.0668632 0)
(1.10158 -0.0584488 0)
(1.08506 -0.0512331 0)
(1.06934 -0.0450759 0)
(1.05456 -0.0398327 0)
(1.04079 -0.0353683 0)
(1.02802 -0.0315619 0)
(1.0162 -0.0283088 0)
(1.00527 -0.0255198 0)
(0.99516 -0.0231196 0)
(1.00624 -0.0612072 0)
(1.07386 -0.132544 0)
(1.13358 -0.153482 0)
(1.16248 -0.151877 0)
(1.16768 -0.139777 0)
(1.15755 -0.123222 0)
(1.13786 -0.10627 0)
(1.11327 -0.0907843 0)
(1.08704 -0.0773247 0)
(1.06106 -0.0659223 0)
(1.03634 -0.056392 0)
(1.01336 -0.0484725 0)
(0.992288 -0.0419009 0)
(0.973109 -0.036442 0)
(0.95572 -0.0318958 0)
(0.939973 -0.0280959 0)
(0.925708 -0.0249064 0)
(0.912764 -0.0222165 0)
(0.900991 -0.0199363 0)
(0.890255 -0.0179932 0)
(1.01166 -0.0884613 0)
(1.10136 -0.16568 0)
(1.15287 -0.171696 0)
(1.15515 -0.155634 0)
(1.13142 -0.133114 0)
(1.09615 -0.11041 0)
(1.05656 -0.0906661 0)
(1.01724 -0.0745052 0)
(0.980593 -0.0615453 0)
(0.947451 -0.0512204 0)
(0.917926 -0.0429897 0)
(0.891813 -0.0363973 0)
(0.868775 -0.0310837 0)
(0.848441 -0.0267716 0)
(0.830452 -0.0232476 0)
(0.814484 -0.0203478 0)
(0.800252 -0.0179451 0)
(0.787511 -0.0159408 0)
(0.776051 -0.0142574 0)
(0.765696 -0.012834 0)
(1.01855 -0.129115 0)
(1.11884 -0.197049 0)
(1.13606 -0.175803 0)
(1.09237 -0.141953 0)
(1.03231 -0.110799 0)
(0.97238 -0.0856298 0)
(0.917322 -0.0667213 0)
(0.869118 -0.0527525 0)
(0.827891 -0.0423549 0)
(0.79284 -0.034514 0)
(0.763009 -0.0285113 0)
(0.737524 -0.0238468 0)
(0.715637 -0.0201737 0)
(0.69672 -0.017247 0)
(0.680264 -0.0148902 0)
(0.665852 -0.0129739 0)
(0.653146 -0.0114019 0)
(0.64187 -0.0101014 0)
(0.631799 -0.00901678 0)
(0.622751 -0.00810498 0)
(1.01406 -0.179633 0)
(1.08773 -0.209491 0)
(1.03619 -0.152748 0)
(0.935772 -0.1053 0)
(0.845955 -0.0731912 0)
(0.773647 -0.052306 0)
(0.715413 -0.0387413 0)
(0.668721 -0.0296215 0)
(0.631132 -0.0232502 0)
(0.600499 -0.0186499 0)
(0.575216 -0.0152317 0)
(0.554107 -0.0126319 0)
(0.536291 -0.0106178 0)
(0.521101 -0.0090335 0)
(0.508025 -0.00777079 0)
(0.496668 -0.00675282 0)
(0.48672 -0.00592361 0)
(0.477936 -0.00524162 0)
(0.470121 -0.00467559 0)
(0.463119 -0.00420167 0)
(0.944133 -0.199658 0)
(0.92639 -0.172009 0)
(0.788094 -0.095829 0)
(0.652452 -0.0525342 0)
(0.563003 -0.0312787 0)
(0.502391 -0.0206027 0)
(0.457916 -0.014645 0)
(0.424263 -0.0109308 0)
(0.39818 -0.00845099 0)
(0.377456 -0.00671155 0)
(0.360653 -0.0054423 0)
(0.346808 -0.00448948 0)
(0.335239 -0.00375904 0)
(0.32545 -0.00318943 0)
(0.317071 -0.00273876 0)
(0.309825 -0.00237767 0)
(0.303496 -0.00208507 0)
(0.29792 -0.00184546 0)
(0.292965 -0.00164729 0)
(0.288528 -0.00148183 0)
(0.631186 -0.0956167 0)
(0.480541 -0.0650413 0)
(0.330266 -0.0272526 0)
(0.242735 -0.0114598 0)
(0.201749 -0.0056755 0)
(0.177691 -0.00346581 0)
(0.16082 -0.00239449 0)
(0.148406 -0.00175485 0)
(0.138965 -0.00134076 0)
(0.131554 -0.00105647 0)
(0.125597 -0.000851492 0)
(0.120721 -0.000699149 0)
(0.116666 -0.000583513 0)
(0.113248 -0.000494159 0)
(0.110329 -0.000424041 0)
(0.107808 -0.000368271 0)
(0.105608 -0.000323363 0)
(0.103669 -0.000286783 0)
(0.101944 -0.000256655 0)
(0.100398 -0.000231575 0)
)
;

boundaryField
{
    fixedWalls
    {
        type            noSlip;
    }
    inlet
    {
        type            fixedValue;
        value           uniform (1 0 0);
    }
    outlet
    {
        type            zeroGradient;
    }
    frontAndBack
    {
        type            empty;
    }
    procBoundary4to0
    {
        type            processor;
        value           nonuniform List<vector> 
20
(
(1.00026 0.000486515 0)
(1.00396 0.00143837 0)
(1.01142 0.00227375 0)
(1.02209 0.00292757 0)
(1.035 0.00339427 0)
(1.04939 0.00369558 0)
(1.06469 0.00386037 0)
(1.08039 0.00391962 0)
(1.09615 0.0039024 0)
(1.1117 0.00383278 0)
(1.12688 0.00372931 0)
(1.14159 0.0036057 0)
(1.15577 0.00347173 0)
(1.1694 0.00333402 0)
(1.18246 0.00319694 0)
(1.19498 0.00306315 0)
(1.20696 0.00293422 0)
(1.21844 0.00281091 0)
(1.22942 0.00269349 0)
(1.23994 0.00258191 0)
)
;
    }
    procBoundary4to5
    {
        type            processor;
        value           nonuniform List<vector> 
20
(
(1.25003 -0.00247595 0)
(1.25136 -0.00739844 0)
(1.25384 -0.0122258 0)
(1.25704 -0.0168724 0)
(1.26027 -0.0212222 0)
(1.26244 -0.025123 0)
(1.26204 -0.028389 0)
(1.25708 -0.030813 0)
(1.24511 -0.0321917 0)
(1.22335 -0.0323602 0)
(1.18894 -0.031233 0)
(1.13918 -0.02884 0)
(1.07192 -0.0253459 0)
(0.985807 -0.0210453 0)
(0.880433 -0.0163279 0)
(0.756295 -0.0116223 0)
(0.614574 -0.00733253 0)
(0.456805 -0.00380147 0)
(0.284528 -0.00134238 0)
(0.0990021 -0.000210479 0)
)
;
    }
}


// ************************************************************************* //
