/*--------------------------------*- C++ -*----------------------------------*\
| =========                 |                                                 |
| \\      /  F ield         | OpenFOAM: The Open Source CFD Toolbox           |
|  \\    /   O peration     | Version:                                        |
|   \\  /    A nd           | Website:  www.openfoam.com                      |
|    \\/     M anipulation  |                                                 |
\*---------------------------------------------------------------------------*/
FoamFile
{
    version     2.0;
    format      ascii;
    class       surfaceScalarField;
    location    "149.2";
    object      phi;
}
// * * * * * * * * * * * * * * * * * * * * * * * * * * * * * * * * * * * * * //

dimensions      [0 3 -1 0 0 0 0];
oriented        oriented;


internalField   nonuniform List<scalar> 
2257
(
0.0874275
0.0365048
0.082637
0.0394441
0.0751345
0.0444808
0.0647563
0.0485963
0.0534579
0.0508477
0.0508604
0.0850811
0.037604
0.0833354
0.0411899
0.0811115
0.0467047
0.0766249
0.0530828
0.0688774
0.0585952
0.0579551
0.0617827
0.0454883
0.0619285
0.032433
0.0591936
0.0204953
0.0534993
0.0441583
0.100007
0.0361366
0.0993682
0.041829
0.0971309
0.0489421
0.0939142
0.0562995
0.0889037
0.0636057
0.0815725
0.0691139
0.0708369
0.0726641
0.0579475
0.072083
0.0411526
0.0702942
0.0610185
0.0242924
0.0971424
0.0307406
0.100668
0.0383036
0.102294
0.047316
0.102193
0.0564
0.0992651
0.0665339
0.0958812
0.0724978
0.0902456
0.0782997
0.0836739
0.0786546
0.0738261
0.080142
0.0740315
0.0608131
0.069737
0.0264201
0.0738051
0.0342355
0.0776159
0.0435052
0.0800893
0.0539267
0.0816265
0.0649967
0.0825559
0.0715684
0.0814461
0.0794095
0.0803567
0.079744
0.0775736
0.0829252
0.0797676
0.0718375
0.0247452
0.0281219
0.0248999
0.0340808
0.0272395
0.0411657
0.0319812
0.049185
0.0382607
0.0587172
0.0434131
0.0664159
0.0484923
0.0743303
0.0526286
0.0756077
0.054455
0.0810988
0.0791681
0.0550546
-0.0477761
0.029333
-0.046816
0.0331207
-0.0434463
0.037796
-0.0376827
0.0434214
-0.0287688
0.0498032
-0.0189648
0.056612
-0.00811351
0.063479
0.000666746
0.0668274
0.0110304
0.0707352
0.0704766
0.0197218
-0.0721767
0.035028
-0.0762128
0.0371568
-0.077823
0.0394062
-0.0773959
0.0429944
-0.0739287
0.046336
-0.0672914
0.0499747
-0.0572147
0.0534023
-0.0458853
0.055498
-0.0326604
0.0575103
0.0583674
-0.0205512
-0.0988212
0.0346326
-0.0968998
0.0352355
-0.093172
0.0356783
-0.0879492
0.0377716
-0.082074
0.0404609
-0.0760077
0.0439083
-0.0694511
0.0468457
-0.0622635
0.0483104
-0.0532744
0.0485213
0.0483099
-0.043217
-0.10523
0.0312501
-0.101666
0.0316712
-0.097807
0.0318195
-0.0926189
0.0325835
-0.0861447
0.0339867
-0.0784796
0.0362432
-0.0711502
0.0395163
-0.0653453
0.0425056
-0.0609663
0.0441423
0.045059
-0.0577153
-0.0838628
0.027627
-0.0804989
0.0283072
-0.0776936
0.0290142
-0.0745428
0.0294326
-0.0706146
0.0300586
-0.0648062
0.0304348
-0.0572012
0.0319113
-0.0483926
0.0336969
-0.0401913
0.035941
0.0388693
-0.0340017
-0.0953168
0.0302895
-0.0972284
0.0302188
-0.0978016
0.0295875
-0.0972998
0.0289308
-0.0959443
0.0287031
-0.0930578
0.0275483
-0.0881371
0.0269906
-0.0801563
0.0257161
-0.0694234
0.0252082
0.02674
-0.0572942
-0.00303351
0.0332493
-0.00655048
0.0337357
-0.010636
0.033673
-0.0164059
0.0347007
-0.0236425
0.0359397
-0.0320609
0.0359666
-0.0416453
0.036575
-0.0510217
0.0350925
-0.0598308
0.0340173
0.0322446
-0.0653354
0.0341043
0.0378269
0.0307569
0.0370831
0.0277639
0.0366661
0.0254053
0.0370592
0.0233879
0.0379572
0.0198728
0.0394817
0.0149592
0.0414886
0.00722893
0.0428228
-0.00372179
0.044968
0.044284
-0.0157612
0.0754374
0.0393183
0.0742631
0.0382575
0.0718274
0.0391017
0.0697105
0.0391762
0.0675921
0.0400756
0.0654498
0.041624
0.0636718
0.0432666
0.0609379
0.0455567
0.0577407
0.0481652
0.0497496
0.0522751
0.145875
0.0382818
0.1459
0.0382327
0.145086
0.0399156
0.14355
0.0407114
0.14083
0.0427958
0.138302
0.0441526
0.135635
0.0459328
0.133674
0.0475182
0.132182
0.0496567
0.0511698
0.130762
0.0908878
0.038572
0.090466
0.0386544
0.0908245
0.0395571
0.0910502
0.0404858
0.0913475
0.0424985
0.091168
0.0443321
0.0903076
0.0467931
0.0891566
0.0486692
0.0878965
0.0509169
0.0523031
0.0867632
0.0696581
0.0432596
0.064286
0.0440265
0.0588379
0.0450052
0.0533274
0.0459962
0.0486031
0.0472228
0.0441555
0.0487797
0.0405828
0.0503659
0.0371157
0.0521363
0.0344536
0.0535789
0.0549736
0.0317832
-0.0136583
0.0473438
-0.0180151
0.0483833
-0.0219395
0.0489296
-0.0257256
0.0497824
-0.0284941
0.0499912
-0.0303082
0.0505939
-0.0306335
0.0506911
-0.0302834
0.0517862
-0.0290278
0.0523234
0.0533776
-0.0274319
-0.125287
0.0474584
-0.125211
0.0483075
-0.124705
0.0484234
-0.124074
0.0491508
-0.123122
0.0490391
-0.12198
0.0494521
-0.120286
0.0489972
-0.117564
0.049064
-0.113706
0.0484654
0.0485062
-0.108834
-0.112818
0.0476604
-0.112895
0.0483841
-0.112956
0.0484848
-0.112835
0.0490297
-0.112793
0.0489972
-0.112706
0.0493652
-0.112774
0.049065
-0.112574
0.0488638
-0.111851
0.0477427
0.0466023
-0.109947
-0.144657
0.0492605
-0.145575
0.0493024
-0.145974
0.0488831
-0.145683
0.0487388
-0.144859
0.0481734
-0.143437
0.0479432
-0.141633
0.0472613
-0.139388
0.0466186
-0.137008
0.0453623
0.0441463
-0.134552
-0.0441986
0.0526105
-0.0470216
0.0521254
-0.0495692
0.0514307
-0.0514024
0.050572
-0.0526665
0.0494375
-0.0529626
0.0482393
-0.0524463
0.046745
-0.0513378
0.0455102
-0.0500578
0.0440824
0.0426083
-0.0485199
0.127727
0.0534468
0.126574
0.0532784
0.124889
0.0531165
0.123011
0.0524498
0.120803
0.051645
0.118761
0.0502819
0.116615
0.0488907
0.11491
0.0472147
0.113352
0.045641
0.0437749
0.112185
0.119235
0.0535626
0.119485
0.053028
0.119877
0.052725
0.120253
0.0520737
0.12034
0.051558
0.120059
0.0505629
0.119178
0.0497716
0.117899
0.048494
0.115943
0.0475963
0.0463627
0.113356
0.145704
0.05377
0.145457
0.0532751
0.145087
0.053095
0.144251
0.0529102
0.142854
0.0529551
0.140622
0.0527947
0.137693
0.0527007
0.133882
0.052305
0.129329
0.0521493
0.0518106
0.123881
0.0269567
0.057278
0.0224548
0.0577771
0.0173956
0.0581542
0.0119598
0.058346
0.00650193
0.058413
0.00089856
0.0583981
-0.00463852
0.0582377
-0.0103086
0.057975
-0.0158351
0.0576758
0.0572801
-0.0213046
-0.215644
0.0569922
-0.215317
0.0574504
-0.214743
0.05758
-0.214053
0.0576566
-0.213047
0.0574063
-0.211786
0.0571374
-0.210114
0.0565661
-0.208128
0.0559885
-0.205597
0.0551453
0.0541836
-0.202501
-0.115835
0.0552099
-0.113524
0.0551386
-0.110682
0.0547382
-0.107365
0.0543395
-0.103612
0.0536538
-0.0994108
0.0529358
-0.0947164
0.0518717
-0.0895289
0.0508011
-0.0838108
0.0494272
0.0479559
-0.0775831
0.0347906
0.0369283
0.0390886
0.0413475
0.0436612
0.0460518
0.0484687
0.0509472
0.0533896
0.0557929
0.000754188
0.0421842
0.00313025
0.0489971
0.00569539
0.0576813
0.00672016
0.0648798
0.00676683
0.070272
0.00605378
0.0758206
0.00517371
0.0812655
0.00397275
0.0876332
0.0029528
0.0941322
0.0019394
0.101279
0.00128659
0.108571
0.000842376
0.116354
0.000576233
0.124546
0.000343305
0.133283
0.000156006
0.142581
1.01889e-05
0.152553
-7.15569e-05
0.163235
-9.51299e-05
0.174658
-8.05962e-05
0.186839
-4.97684e-05
0.199817
-1.96307e-05
0.213647
7.56874e-06
0.228396
2.72318e-05
0.244141
3.88145e-05
0.260962
4.22658e-05
0.278944
3.54434e-05
0.298173
2.07713e-05
0.318746
0.340796
0.0143501
0.0480617
0.00453747
0.0496276
-0.00311894
0.0498406
-0.00665976
0.0525379
-0.00647854
0.0575
-0.00489504
0.0632963
-0.00316414
0.0685411
-0.00142796
0.0740845
-0.000709243
0.0805468
-0.000266741
0.0871907
-0.000402174
0.0942676
-0.000462512
0.10134
-0.000670845
0.108779
-0.000783607
0.116466
-0.000806562
0.124569
-0.000727976
0.133204
-0.00061581
0.142469
-0.000494736
0.152432
-0.000392051
0.163132
-0.00031181
0.174577
-0.000240789
0.186768
-0.000172849
0.19975
-0.00010538
0.213579
-4.85501e-05
0.228339
-5.14522e-06
0.244097
2.3123e-05
0.260934
3.46211e-05
0.278933
3.2377e-05
0.298175
1.98302e-05
0.318759
0.340816
0.0539373
0.0549374
0.0456246
0.0579404
0.0364534
0.0590118
0.02705
0.0619414
0.018894
0.0656561
0.0147005
0.0674897
0.0120223
0.0712194
0.00986384
0.0762429
0.00773106
0.0826796
0.00607544
0.0888463
0.00475579
0.0955873
0.00367823
0.102417
0.00297071
0.109487
0.00246452
0.116973
0.00196787
0.125066
0.00145954
0.133712
0.0009769
0.142952
0.000588866
0.15282
0.000322034
0.163399
0.000174099
0.174725
9.92576e-05
0.186843
6.97408e-05
0.199779
5.71354e-05
0.213592
5.73863e-05
0.228339
6.15725e-05
0.244093
6.30792e-05
0.260932
5.99044e-05
0.278936
4.75986e-05
0.298188
2.69294e-05
0.318779
0.340843
0.0637878
0.0629872
0.0539445
0.0677836
0.0421879
0.0707684
0.0301746
0.0739547
0.0213434
0.0744872
0.0163892
0.0724439
0.0130499
0.0745587
0.00971496
0.0795779
0.0070992
0.0852953
0.00453931
0.0914062
0.00258096
0.0975456
0.00114989
0.103848
0.000109971
0.110527
-0.000502602
0.117585
-0.000688308
0.125252
-0.00065699
0.133681
-0.000528337
0.142823
-0.000424295
0.152716
-0.000340065
0.163315
-0.000278148
0.174663
-0.000209847
0.186775
-0.000138712
0.199708
-6.7657e-05
0.213521
-1.01976e-05
0.228281
2.9443e-05
0.244053
5.19925e-05
0.26091
5.70916e-05
0.278931
4.7824e-05
0.298197
2.79152e-05
0.318799
0.340871
0.0482277
0.069814
0.0410516
0.0749597
0.0331868
0.0786331
0.0265509
0.0805906
0.0218849
0.0791532
0.0166993
0.0776295
0.0121136
0.0791444
0.00815214
0.0835393
0.00586081
0.0875867
0.00430996
0.0929571
0.0036187
0.0982369
0.00324391
0.104223
0.00311054
0.11066
0.00290141
0.117794
0.00242502
0.125728
0.00187962
0.134226
0.00129961
0.143403
0.000854278
0.153162
0.000533716
0.163635
0.000345738
0.174851
0.000232553
0.186888
0.000170832
0.19977
0.000134521
0.213557
0.000117863
0.228298
0.00011204
0.244059
0.000104486
0.260917
9.21221e-05
0.278943
7.0309e-05
0.298219
3.86744e-05
0.318831
0.340909
0.0176033
0.0719326
0.0163135
0.0762494
0.016058
0.0788887
0.0172777
0.079371
0.0187605
0.0776704
0.0171717
0.0792183
0.0145562
0.0817599
0.011455
0.0866405
0.00799636
0.0910453
0.00542536
0.0955281
0.00316297
0.100499
0.00142455
0.105961
0.000275334
0.111809
-0.000437408
0.118507
-0.000568971
0.12586
-0.000533941
0.134191
-0.000391521
0.143261
-0.000306175
0.153076
-0.000235406
0.163564
-0.000178618
0.174795
-0.000106427
0.186816
-3.39857e-05
0.199697
3.19489e-05
0.213491
7.91131e-05
0.228251
0.000103738
0.244035
0.000111329
0.26091
0.000102271
0.278952
7.86336e-05
0.298242
4.37457e-05
0.318866
0.340953
-0.0176429
0.0690243
-0.0126876
0.0712941
-0.00889128
0.0750924
-0.00607942
0.0765591
-0.00603344
0.0776245
-0.00693542
0.0801203
-0.00797593
0.0828004
-0.00684505
0.0855097
-0.00602626
0.0902265
-0.00420303
0.0937049
-0.00265838
0.0989546
-0.000941556
0.104245
0.000158863
0.110709
0.000838584
0.117827
0.000936542
0.125762
0.000836031
0.134292
0.000625132
0.143472
0.00046472
0.153237
0.000340567
0.163689
0.000267288
0.174868
0.000214999
0.186868
0.000184769
0.199727
0.000168629
0.213507
0.000162493
0.228257
0.000161355
0.244036
0.000152551
0.260919
0.000132227
0.278973
9.96238e-05
0.298275
5.42538e-05
0.318911
0.341007
-0.0335236
0.0593309
-0.0234315
0.061202
-0.0150146
0.0666754
-0.00718954
0.068734
-0.00288818
0.0733231
0.000366904
0.0768652
0.000422778
0.0827445
0.000567589
0.0853648
0.000716818
0.0900773
0.000264511
0.0941572
-1.21716e-05
0.0992313
-0.000444238
0.104677
-0.00066535
0.11093
-0.000668594
0.117831
-0.000482799
0.125576
-0.00032558
0.134135
-0.000181846
0.143328
-0.00011762
0.153172
-5.64869e-05
0.163627
5.89812e-07
0.174811
6.91972e-05
0.186799
0.000127076
0.19967
0.00016635
0.213468
0.00018806
0.228235
0.000189642
0.244034
0.000177749
0.26093
0.000152622
0.278998
0.000113009
0.298315
6.14495e-05
0.318963
0.341069
-0.0533833
0.0549989
-0.0487569
0.0565755
-0.0448435
0.062762
-0.0390354
0.062926
-0.0335086
0.0677963
-0.0263451
0.0697017
-0.0214986
0.0778979
-0.0167133
0.0805795
-0.013211
0.0865751
-0.0101057
0.0910518
-0.0074977
0.0966233
-0.00549006
0.102669
-0.00394094
0.109381
-0.00288588
0.116776
-0.0021096
0.1248
-0.00146833
0.133493
-0.000962676
0.142822
-0.000566344
0.152776
-0.000296016
0.163357
-0.000120888
0.174636
-1.03703e-05
0.186689
6.58019e-05
0.199593
0.00012452
0.213409
0.000163449
0.228196
0.000185007
0.244013
0.000185386
0.26093
0.000163337
0.27902
0.000123271
0.298355
6.73155e-05
0.319019
0.341136
-0.0281105
0.0491078
-0.0234206
0.0518856
-0.0198679
0.0592093
-0.0175819
0.06064
-0.0179918
0.0682062
-0.0179405
0.0696504
-0.0167398
0.0766972
-0.0138162
0.077656
-0.00981868
0.0825775
-0.00697355
0.0882067
-0.00442754
0.0940773
-0.00248303
0.100725
-0.00120905
0.108107
-0.000272238
0.115839
0.000143443
0.124384
0.000295157
0.133342
0.000285418
0.142832
0.000269685
0.152792
0.000267039
0.16336
0.000287551
0.174615
0.000303427
0.186673
0.000309575
0.199587
0.000301358
0.213417
0.00028831
0.228209
0.000267938
0.244033
0.000238846
0.260959
0.000199882
0.279059
0.00014626
0.298408
7.87565e-05
0.319086
0.341215
-0.0471972
0.0390108
-0.0392035
0.0438919
-0.0299924
0.0499982
-0.0227342
0.0533818
-0.0162965
0.0617685
-0.0128822
0.0662361
-0.0117622
0.0755772
-0.010707
0.0766008
-0.0099034
0.0817739
-0.00886021
0.0871635
-0.00808587
0.093303
-0.00745641
0.100095
-0.00668462
0.107335
-0.00587468
0.115029
-0.00471242
0.123222
-0.00353374
0.132163
-0.00242621
0.141724
-0.00158265
0.151948
-0.000969218
0.162746
-0.000558842
0.174205
-0.000270388
0.186385
-6.86179e-05
0.199385
7.68024e-05
0.213272
0.000167248
0.228119
0.000211963
0.243988
0.00022072
0.26095
0.000197034
0.279083
0.000148786
0.298457
8.15736e-05
0.319153
0.341296
-0.0645494
0.0382248
-0.063575
0.0429175
-0.0612675
0.0476907
-0.0595812
0.0516955
-0.0536036
0.055791
-0.0450276
0.05766
-0.0329465
0.0634961
-0.0229747
0.066629
-0.0153257
0.0741249
-0.00943626
0.0812741
-0.00469474
0.0885614
-0.00166005
0.0970604
0.000480947
0.105194
0.00147324
0.114036
0.00159448
0.123101
0.00135154
0.132406
0.00102915
0.142047
0.00080837
0.152169
0.000666837
0.162888
0.000572657
0.174299
0.000491091
0.186466
0.000427094
0.199449
0.000379133
0.21332
0.00034565
0.228152
0.000319967
0.244014
0.000286395
0.260984
0.000240326
0.279129
0.000176835
0.29852
9.53149e-05
0.319235
0.341392
-0.0189602
0.0414238
-0.0219036
0.0458609
-0.0250007
0.0507878
-0.028582
0.0552767
-0.0306779
0.0578869
-0.0304911
0.0574732
-0.024056
0.057061
-0.0172629
0.059836
-0.0108923
0.0677543
-0.00726586
0.0776476
-0.00592413
0.0872197
-0.00472031
0.0958566
-0.00457443
0.105048
-0.00414229
0.113604
-0.00352712
0.122485
-0.00279563
0.131674
-0.00207854
0.14133
-0.00145708
0.151548
-0.000945123
0.162376
-0.000540356
0.173894
-0.000223979
0.18615
6.04061e-06
0.199219
0.000161583
0.213164
0.000252662
0.228061
0.000287828
0.243979
0.00028431
0.260988
0.000248801
0.279164
0.000185275
0.298584
0.000100795
0.319319
0.341493
0.0532611
0.0404378
0.054127
0.0449951
0.0545205
0.0503943
0.0547685
0.0550287
0.0522976
0.0603579
0.0460201
0.0637506
0.0361486
0.0669325
0.024675
0.0713096
0.0150294
0.0773999
0.00977881
0.0828982
0.00706221
0.0899363
0.00535477
0.097564
0.00442725
0.105976
0.00355676
0.114475
0.00265475
0.123387
0.00195057
0.132379
0.00136198
0.141918
0.000990883
0.151919
0.000730024
0.162637
0.000567077
0.174057
0.000458727
0.186258
0.000406399
0.199272
0.000391249
0.21318
0.000388639
0.228064
0.00038327
0.243984
0.000356694
0.261014
0.000303022
0.279218
0.000223961
0.298663
0.000120601
0.319423
0.341613
0.131366
0.0398339
0.130971
0.0453907
0.129931
0.0514341
0.126791
0.0581684
0.120186
0.0669634
0.107856
0.0760798
0.0897102
0.0850786
0.0694901
0.0915298
0.0509315
0.0959585
0.0364016
0.0974281
0.0255085
0.100829
0.0164975
0.106575
0.010416
0.112057
0.00594331
0.118948
0.00343132
0.125899
0.00176001
0.13405
0.000969029
0.142709
0.000540371
0.152347
0.000414871
0.162762
0.000413911
0.174058
0.00047269
0.186199
0.00052828
0.199216
0.000552773
0.213155
0.000552163
0.228064
0.000522858
0.244013
0.000466984
0.26107
0.00038723
0.279298
0.000280661
0.298769
0.000149688
0.319554
0.341763
0.0793088
0.0472883
0.0705385
0.054161
0.0605454
0.0614272
0.0495223
0.0691915
0.03879
0.0776957
0.0283762
0.0864936
0.0208886
0.0925662
0.0148814
0.0975369
0.0116762
0.0991638
0.00708007
0.102024
0.0041867
0.103723
0.00233079
0.108431
0.000721095
0.113667
9.12128e-05
0.119577
-0.000442055
0.126433
-0.000473815
0.134082
-0.000471343
0.142707
-0.000324849
0.152201
-0.000159328
0.162597
2.75473e-05
0.173871
0.000208162
0.186019
0.000365295
0.199059
0.000491016
0.213029
0.000562287
0.227993
0.0005766
0.243999
0.00054086
0.261106
0.000456339
0.279382
0.000333415
0.298892
0.000178343
0.319709
0.341941
0.0235222
0.0555493
0.0152965
0.0623866
0.00713591
0.0695878
7.78814e-05
0.0762495
-0.00511293
0.0828865
-0.00636219
0.0877429
-0.00459293
0.090797
-0.00148885
0.0944328
0.00267911
0.0949958
0.00423665
0.100467
0.00504488
0.102915
0.00570247
0.107773
0.00572897
0.11364
0.00568649
0.11962
0.00513196
0.126987
0.00432707
0.134887
0.00347234
0.143562
0.00272616
0.152947
0.0021464
0.163177
0.0017559
0.174262
0.00149085
0.186284
0.00131541
0.199234
0.00117566
0.213169
0.00105336
0.228115
0.000934281
0.244118
0.000798555
0.261241
0.000639946
0.279541
0.000454177
0.299078
0.000238739
0.319924
0.34218
-0.0295092
0.0576266
-0.0303633
0.0632407
-0.0302346
0.0694591
-0.0292999
0.0753148
-0.0269381
0.0805247
-0.023626
0.0844308
-0.0212165
0.0883874
-0.0181915
0.0914079
-0.0169922
0.0937965
-0.0135897
0.0970641
-0.0140981
0.103423
-0.0123695
0.106045
-0.0112397
0.112511
-0.00976932
0.11815
-0.00771088
0.124929
-0.00566867
0.132844
-0.0037121
0.141605
-0.00217265
0.151408
-0.000987833
0.161992
-0.000150506
0.173424
0.000433853
0.185699
0.000803411
0.198865
0.00100124
0.212971
0.00107213
0.228045
0.00103747
0.244153
0.000927204
0.261352
0.000758695
0.279709
0.000540889
0.299296
0.00028551
0.32018
0.342465
-0.105575
0.0543669
-0.10111
0.0587766
-0.0949619
0.0633105
-0.0874473
0.0678001
-0.0788731
0.0719505
-0.0704083
0.075966
-0.0620682
0.0800473
-0.0516753
0.081015
-0.0439516
0.0860728
-0.0319855
0.085098
-0.0228301
0.0942675
-0.0147225
0.0979371
-0.00755082
0.105339
-0.00251362
0.113112
0.00028361
0.122131
0.00178406
0.131344
0.00228249
0.141107
0.00239471
0.151295
0.00231176
0.162075
0.00219751
0.173539
0.00208161
0.185815
0.0019616
0.198985
0.00183663
0.213096
0.00168271
0.228198
0.00149732
0.244338
0.00127601
0.261573
0.00101208
0.279973
0.000709652
0.299598
0.000370899
0.320518
0.342836
-0.107489
0.0519083
-0.103804
0.0550923
-0.0984896
0.0579958
-0.0911327
0.0604433
-0.0822687
0.0630865
-0.0714752
0.0651726
-0.0601557
0.0687278
-0.0469986
0.0678579
-0.0350889
0.0741631
-0.0252637
0.0752728
-0.0172982
0.086302
-0.0124945
0.0931334
-0.0091572
0.102002
-0.00640205
0.110357
-0.00385341
0.119583
-0.00179757
0.129288
-0.000185956
0.139495
0.000924774
0.150185
0.00163613
0.161363
0.00202875
0.173146
0.00220367
0.18564
0.00223775
0.198951
0.00216314
0.213171
0.00201017
0.228351
0.00179564
0.244553
0.001523
0.261846
0.00120389
0.280292
0.000840784
0.299961
0.000438215
0.320921
0.343275
-0.128967
0.0463237
-0.122806
0.0489315
-0.116276
0.0514652
-0.108856
0.053023
-0.100532
0.0547633
-0.0900817
0.0547219
-0.0778616
0.0565078
-0.0649722
0.0549685
-0.0501291
0.05932
-0.0374523
0.0625961
-0.0258571
0.0747068
-0.0173544
0.0846307
-0.0114425
0.0960897
-0.00735497
0.10627
-0.00440477
0.116633
-0.00219446
0.127078
-0.000515441
0.137816
0.000756219
0.148913
0.00165058
0.160469
0.00221564
0.172581
0.00251989
0.185336
0.00260805
0.198863
0.00254652
0.213232
0.00237794
0.22852
0.0021189
0.244812
0.00179437
0.26217
0.00141333
0.280673
0.000983256
0.300391
0.000511455
0.321393
0.343786
-0.0404377
0.0382415
-0.0313645
0.0398584
-0.0213854
0.0414861
-0.0103932
0.0420308
0.00136947
0.0430006
0.0131261
0.0429653
0.0244488
0.0451851
0.0317583
0.047659
0.0364828
0.0545955
0.0359284
0.0631505
0.0337756
0.0768595
0.0287373
0.089669
0.0250901
0.0997368
0.0213369
0.110023
0.0175636
0.120406
0.0139552
0.130686
0.0109467
0.140824
0.00867765
0.151182
0.00700801
0.162139
0.00581979
0.173769
0.00492685
0.186229
0.00423381
0.199556
0.00367793
0.213788
0.00317664
0.229021
0.00269947
0.245289
0.00221659
0.262653
0.00171054
0.281179
0.00117664
0.300925
0.000607521
0.321962
0.344393
0.114667
0.0357596
0.117408
0.0371173
0.120166
0.0387283
0.121977
0.0402202
0.122299
0.042678
0.119174
0.046091
0.112075
0.0522835
0.0993298
0.0604044
0.0830681
0.0708572
0.0625785
0.0836401
0.0438926
0.0955454
0.0279996
0.105562
0.0159702
0.111766
0.00857346
0.11742
0.00501547
0.123964
0.00350952
0.132192
0.00327092
0.141063
0.0034083
0.151045
0.00371243
0.161834
0.00393658
0.173545
0.00400299
0.186163
0.0039205
0.199638
0.00368382
0.214025
0.003338
0.229367
0.002913
0.245714
0.00242123
0.263145
0.00188086
0.28172
0.00129641
0.30151
0.000669483
0.322589
0.345063
0.109671
0.0394441
0.104426
0.0423628
0.0973199
0.0458339
0.0878594
0.0496807
0.0762388
0.0542986
0.0626737
0.059656
0.0487017
0.0662555
0.0356304
0.0734757
0.0254787
0.0810089
0.0178122
0.0913066
0.0164024
0.0969552
0.0162235
0.105741
0.0156053
0.112384
0.0146554
0.11837
0.012585
0.126034
0.0110581
0.133719
0.00953975
0.142581
0.00838675
0.152198
0.00746788
0.162753
0.00667723
0.174336
0.00600248
0.186837
0.0053681
0.200273
0.00474746
0.214646
0.00413557
0.229979
0.00350756
0.246342
0.00286271
0.26379
0.00219601
0.282386
0.00150046
0.302205
0.00077148
0.323318
0.345834
0.115709
0.0476162
0.106052
0.0520199
0.0949089
0.0569767
0.0824727
0.0621169
0.06918
0.0675913
0.0557137
0.0731224
0.042877
0.0790922
0.0312175
0.0851352
0.0207303
0.0914961
0.012854
0.0991829
0.009383
0.100426
0.0104886
0.104635
0.0105154
0.112358
0.0114421
0.117443
0.0120119
0.125464
0.0119044
0.133827
0.0113411
0.143145
0.0104784
0.15306
0.00941775
0.163814
0.00840877
0.175345
0.00748848
0.187758
0.00662239
0.201139
0.00579865
0.215469
0.0049899
0.230788
0.00418601
0.247146
0.00338564
0.26459
0.00257567
0.283196
0.00175033
0.303031
0.000896379
0.324172
0.346731
-0.0287981
0.0551096
-0.0359643
0.0591861
-0.0424382
0.0634506
-0.0480094
0.0676881
-0.0524347
0.0720166
-0.0554422
0.0761298
-0.0565739
0.080224
-0.055743
0.0843042
-0.0528582
0.0886113
-0.0460495
0.0923741
-0.0414278
0.0958046
-0.0311411
0.0943485
-0.0239808
0.105197
-0.0169074
0.11037
-0.0100005
0.118558
-0.00423571
0.128062
0.000369086
0.13854
0.00354628
0.149883
0.00545336
0.161907
0.00637995
0.174418
0.00662307
0.187515
0.00643617
0.201326
0.0059711
0.215934
0.00531672
0.231442
0.00455303
0.24791
0.00372072
0.265422
0.00284586
0.284071
0.00193814
0.303938
0.000992883
0.325117
0.347724
-0.197974
0.0505826
-0.192146
0.0533579
-0.184667
0.0559722
-0.175365
0.0583856
-0.163845
0.0604969
-0.149807
0.0620913
-0.132493
0.0629106
-0.111369
0.0631805
-0.0853731
0.062615
-0.0549072
0.0619083
-0.0274401
0.0683375
-0.00570128
0.0726097
0.0102786
0.0892176
0.0181309
0.102517
0.0206907
0.115998
0.020059
0.128694
0.0182435
0.140355
0.0161693
0.151957
0.0143109
0.163765
0.0126359
0.176093
0.0110463
0.189104
0.00955569
0.202816
0.00816056
0.21733
0.00686705
0.232736
0.0056603
0.249116
0.00450988
0.266573
0.00339506
0.285186
0.00228815
0.305045
0.00116614
0.326239
0.34889
-0.0693778
0.0423773
-0.059913
0.0438931
-0.0490307
0.0450899
-0.036702
0.0460569
-0.0229341
0.046729
-0.00792396
0.0470812
0.00787718
0.0471094
0.0237395
0.0473181
0.0387094
0.0476451
0.050194
0.0504237
0.0588654
0.059666
0.0582203
0.0732548
0.0551103
0.0923275
0.0484619
0.109166
0.0408842
0.123575
0.0339103
0.135667
0.0277979
0.146468
0.0227601
0.156995
0.0187228
0.167803
0.0155051
0.179311
0.0129516
0.191658
0.0108727
0.204895
0.00911882
0.219083
0.00759634
0.234258
0.00622131
0.250491
0.00494065
0.267853
0.00371115
0.286416
0.00249818
0.306258
0.00127252
0.327465
0.350162
0.0584552
0.0613169
0.0642689
0.0672293
0.0699667
0.0721089
0.0730341
0.0719258
0.0677261
0.0594275
0.0500147
0.0407151
0.0333105
0.0283027
0.0249231
0.0224356
0.0202623
0.0181926
0.0161771
0.0142449
0.0124413
0.0107734
0.00923607
0.00780375
0.00644845
0.00514697
0.00387658
0.00261275
0.00133192
)
;

boundaryField
{
    outlet
    {
        type            calculated;
        value           nonuniform List<scalar> 
40
(
0.0532011
0.0530009
0.0525779
0.0520806
0.0513401
0.0505452
0.0494548
0.0483226
0.0469848
0.0455526
0.0397151
0.0410314
0.0421379
0.0430965
0.0439917
0.044939
0.0461843
0.0484264
0.0518447
0.0587224
0.0690789
0.0825543
0.0997322
0.114173
0.126955
0.138155
0.148641
0.159065
0.169818
0.181243
0.193461
0.206563
0.220621
0.23569
0.251847
0.269155
0.287686
0.307522
0.328745
0.351494
)
;
    }
    upperWall
    {
        type            symmetryPlane;
        value           nonuniform 0();
    }
    lowerWall
    {
        type            symmetryPlane;
        value           uniform 0;
    }
    inlet
    {
        type            calculated;
        value           nonuniform 0();
    }
    cylinder
    {
        type            calculated;
        value           nonuniform 0();
    }
    frontAndBack
    {
        type            empty;
        value           nonuniform 0();
    }
    procBoundary3to2
    {
        type            processor;
        value           nonuniform List<scalar> 
43
(
-0.0330701
-0.0346536
-0.0369783
-0.0382181
-0.0395493
-0.0399114
0.0425089
-0.0494616
-0.0461383
-0.0415617
-0.0360757
0.0124127
-0.0414298
-0.0513732
-0.0602464
-0.0659046
-0.0703187
-0.0751076
-0.0803854
-0.0864323
-0.0931123
-0.100266
-0.107918
-0.115909
-0.12428
-0.13305
-0.142394
-0.152408
-0.163153
-0.174634
-0.186854
-0.199848
-0.213677
-0.228423
-0.24416
-0.260974
-0.278948
-0.298166
-0.318731
-0.340775
-0.0381194
-0.00150859
-0.039815
)
;
    }
    procBoundary3to7
    {
        type            processor;
        value           nonuniform List<scalar> 
30
(
-0.0908622
-0.0861803
-0.09854
-0.0917464
-0.0654165
-0.026447
0.046565
0.0664816
0.0992166
0.108613
0.087486
0.0926543
7.3658e-05
-0.0386819
-0.0769288
-0.144838
-0.0911779
-0.0743458
0.00957416
0.125173
0.112616
0.143057
0.0408486
-0.128564
-0.119351
-0.145912
-0.0304648
0.21593
0.117618
-0.0327819
)
;
    }
}


// ************************************************************************* //
