/*--------------------------------*- C++ -*----------------------------------*\
| =========                 |                                                 |
| \\      /  F ield         | OpenFOAM: The Open Source CFD Toolbox           |
|  \\    /   O peration     | Version:                                        |
|   \\  /    A nd           | Website:  www.openfoam.com                      |
|    \\/     M anipulation  |                                                 |
\*---------------------------------------------------------------------------*/
FoamFile
{
    version     2.0;
    format      ascii;
    class       surfaceScalarField;
    location    "0.8";
    object      phi;
}
// * * * * * * * * * * * * * * * * * * * * * * * * * * * * * * * * * * * * * //

dimensions      [0 3 -1 0 0 0 0];
oriented        oriented;


internalField   nonuniform List<scalar> 
760
(
1.98652e-06
4.32792e-09
1.98235e-06
4.16666e-09
1.97834e-06
4.01194e-09
1.97448e-06
3.86343e-09
1.97076e-06
3.72095e-09
1.96717e-06
3.5842e-09
1.96372e-06
3.45317e-09
1.96039e-06
3.32738e-09
1.95718e-06
3.20715e-09
1.95409e-06
3.09192e-09
1.95111e-06
2.98227e-09
1.94823e-06
2.87831e-09
1.94545e-06
2.77925e-09
1.94276e-06
2.69106e-09
1.94016e-06
2.60074e-09
1.93761e-06
2.55123e-09
1.93515e-06
2.45638e-09
1.93256e-06
2.59207e-09
1.93011e-06
2.45366e-09
4.34851e-09
5.74257e-06
1.62322e-08
5.73111e-06
1.56237e-08
5.72008e-06
1.50403e-08
5.70946e-06
1.44805e-08
5.69924e-06
1.39436e-08
5.6894e-06
1.34283e-08
5.67992e-06
1.29345e-08
5.67078e-06
1.24608e-08
5.66198e-06
1.20077e-08
5.6535e-06
1.15737e-08
5.64532e-06
1.11605e-08
5.63743e-06
1.07677e-08
5.62982e-06
1.0395e-08
5.62245e-06
1.0055e-08
5.61533e-06
9.72394e-09
5.60839e-06
9.4931e-09
5.60165e-06
9.19514e-09
5.59484e-06
9.4018e-09
5.58813e-06
9.1645e-09
1.20855e-08
9.27994e-06
3.45631e-08
9.2623e-06
3.32614e-08
9.24533e-06
3.20135e-08
9.22899e-06
3.08167e-08
9.21327e-06
2.9669e-08
9.19813e-06
2.85678e-08
9.18355e-06
2.75125e-08
9.16951e-06
2.65003e-08
9.15599e-06
2.55319e-08
9.14296e-06
2.46044e-08
9.1304e-06
2.37208e-08
9.11828e-06
2.28794e-08
9.1066e-06
2.20826e-08
9.09531e-06
2.13455e-08
9.08439e-06
2.06424e-08
9.07379e-06
2.00957e-08
9.06349e-06
1.94945e-08
9.05332e-06
1.9571e-08
9.04329e-06
1.91887e-08
2.1943e-08
1.25959e-05
5.8056e-08
1.25733e-05
5.58603e-08
1.25516e-05
5.37558e-08
1.25307e-05
5.17378e-08
1.25105e-05
4.9803e-08
1.24912e-05
4.79472e-08
1.24725e-05
4.61686e-08
1.24545e-05
4.44627e-08
1.24372e-05
4.28307e-08
1.24206e-05
4.12671e-08
1.24045e-05
3.97774e-08
1.2389e-05
3.8356e-08
1.23741e-05
3.70118e-08
1.23597e-05
3.57551e-08
1.23458e-05
3.45702e-08
1.23323e-05
3.35812e-08
1.23192e-05
3.25861e-08
1.23065e-05
3.23042e-08
1.2294e-05
3.16907e-08
3.35916e-08
1.56873e-05
8.53049e-08
1.5661e-05
8.20662e-08
1.56358e-05
7.89626e-08
1.56116e-05
7.59871e-08
1.55883e-05
7.31349e-08
1.55658e-05
7.03992e-08
1.55442e-05
6.77778e-08
1.55234e-05
6.52634e-08
1.55034e-05
6.28582e-08
1.54841e-05
6.05524e-08
1.54655e-05
5.83561e-08
1.54476e-05
5.62562e-08
1.54303e-05
5.42733e-08
1.54137e-05
5.24009e-08
1.53976e-05
5.06542e-08
1.53821e-05
4.91104e-08
1.5367e-05
4.76615e-08
1.53525e-05
4.68042e-08
1.53383e-05
4.5935e-08
4.65741e-08
1.85505e-05
1.14756e-07
1.85222e-05
1.10384e-07
1.8495e-05
1.06196e-07
1.84688e-05
1.0218e-07
1.84436e-05
9.83318e-08
1.84194e-05
9.46408e-08
1.8396e-05
9.11044e-08
1.83736e-05
8.77121e-08
1.8352e-05
8.44675e-08
1.83312e-05
8.13551e-08
1.83111e-05
7.83919e-08
1.82918e-05
7.55516e-08
1.82732e-05
7.28758e-08
1.82553e-05
7.03229e-08
1.8238e-05
6.79698e-08
1.82213e-05
6.57814e-08
1.82051e-05
6.38579e-08
1.81897e-05
6.22471e-08
1.81745e-05
6.11483e-08
6.03222e-08
2.11829e-05
1.44724e-07
2.11541e-05
1.39195e-07
2.11264e-05
1.33898e-07
2.10998e-05
1.2882e-07
2.10741e-05
1.23953e-07
2.10495e-05
1.19286e-07
2.10258e-05
1.14815e-07
2.1003e-05
1.10525e-07
2.0981e-05
1.06423e-07
2.09599e-05
1.02486e-07
2.09395e-05
9.87393e-08
2.092e-05
9.5138e-08
2.09011e-05
9.17562e-08
2.08829e-05
8.84938e-08
2.08653e-05
8.55295e-08
2.08485e-05
8.26386e-08
2.08321e-05
8.02585e-08
2.08166e-05
7.77726e-08
2.08012e-05
7.64972e-08
7.416e-08
2.35825e-05
1.73433e-07
2.35549e-05
1.66792e-07
2.35284e-05
1.60429e-07
2.35029e-05
1.5433e-07
2.34783e-05
1.48486e-07
2.34547e-05
1.4288e-07
2.3432e-05
1.37511e-07
2.34102e-05
1.32357e-07
2.33892e-05
1.27431e-07
2.3369e-05
1.22698e-07
2.33495e-05
1.18199e-07
2.33308e-05
1.13861e-07
2.33128e-05
1.09803e-07
2.32954e-05
1.05843e-07
2.32786e-05
1.02303e-07
2.32626e-05
9.86921e-08
2.32469e-05
9.59071e-08
2.32322e-05
9.24936e-08
2.32176e-05
9.11015e-08
8.73255e-08
2.5749e-05
1.9908e-07
2.57243e-05
1.91444e-07
2.57006e-05
1.84128e-07
2.56778e-05
1.77115e-07
2.56559e-05
1.70394e-07
2.56349e-05
1.63948e-07
2.56146e-05
1.57773e-07
2.55951e-05
1.51845e-07
2.55764e-05
1.4618e-07
2.55583e-05
1.40731e-07
2.5541e-05
1.3556e-07
2.55243e-05
1.30554e-07
2.55082e-05
1.25896e-07
2.54927e-05
1.21291e-07
2.54778e-05
1.1725e-07
2.54635e-05
1.1295e-07
2.54496e-05
1.09838e-07
2.54366e-05
1.05519e-07
2.54236e-05
1.04067e-07
9.90123e-08
2.76841e-05
2.19918e-07
2.76641e-05
2.11475e-07
2.76448e-05
2.03385e-07
2.76263e-05
1.95628e-07
2.76085e-05
1.88194e-07
2.75914e-05
1.81062e-07
2.75749e-05
1.74231e-07
2.75591e-05
1.67671e-07
2.75439e-05
1.61404e-07
2.75292e-05
1.55368e-07
2.75151e-05
1.4965e-07
2.75016e-05
1.44092e-07
2.74885e-05
1.38949e-07
2.7476e-05
1.33801e-07
2.74639e-05
1.29367e-07
2.74524e-05
1.24461e-07
2.74411e-05
1.21117e-07
2.74307e-05
1.15991e-07
2.74202e-05
1.14526e-07
1.08421e-07
2.93919e-05
2.34359e-07
2.9378e-05
2.25358e-07
2.93647e-05
2.16732e-07
2.93518e-05
2.08459e-07
2.93395e-05
2.00531e-07
2.93276e-05
1.92922e-07
2.93162e-05
1.85635e-07
2.93053e-05
1.78633e-07
2.92947e-05
1.71948e-07
2.92846e-05
1.65501e-07
2.92748e-05
1.59402e-07
2.92655e-05
1.53451e-07
2.92564e-05
1.47978e-07
2.92478e-05
1.42427e-07
2.92394e-05
1.3774e-07
2.92315e-05
1.32361e-07
2.92238e-05
1.28894e-07
2.92166e-05
1.23128e-07
2.92095e-05
1.21691e-07
1.14812e-07
3.08789e-05
2.41069e-07
3.08725e-05
2.31813e-07
3.08663e-05
2.22939e-07
3.08603e-05
2.14428e-07
3.08546e-05
2.06269e-07
3.08491e-05
1.98437e-07
3.08438e-05
1.90936e-07
3.08387e-05
1.83725e-07
3.08338e-05
1.76843e-07
3.08291e-05
1.70197e-07
3.08246e-05
1.63921e-07
3.08202e-05
1.57773e-07
3.08161e-05
1.52152e-07
3.08121e-05
1.46381e-07
3.08082e-05
1.41599e-07
3.08047e-05
1.3593e-07
3.08011e-05
1.32454e-07
3.0798e-05
1.26272e-07
3.07948e-05
1.24898e-07
1.17562e-07
3.21543e-05
2.39076e-07
3.21562e-05
2.29903e-07
3.2158e-05
2.21106e-07
3.21598e-05
2.12666e-07
3.21615e-05
2.04574e-07
3.21631e-05
1.96804e-07
3.21647e-05
1.89362e-07
3.21662e-05
1.82204e-07
3.21676e-05
1.75376e-07
3.21691e-05
1.68772e-07
3.21704e-05
1.62549e-07
3.21718e-05
1.56426e-07
3.21731e-05
1.50862e-07
3.21744e-05
1.45084e-07
3.21756e-05
1.40378e-07
3.21769e-05
1.34639e-07
3.21781e-05
1.31271e-07
3.21794e-05
1.24942e-07
3.21806e-05
1.23663e-07
1.16207e-07
3.32289e-05
2.27849e-07
3.32397e-05
2.19115e-07
3.325e-05
2.10738e-07
3.326e-05
2.02698e-07
3.32696e-05
1.94987e-07
3.32788e-05
1.87581e-07
3.32877e-05
1.80488e-07
3.32962e-05
1.73662e-07
3.33045e-05
1.67153e-07
3.33124e-05
1.60849e-07
3.332e-05
1.54919e-07
3.33274e-05
1.49061e-07
3.33345e-05
1.4377e-07
3.33413e-05
1.38216e-07
3.33479e-05
1.33765e-07
3.33544e-05
1.282e-07
3.33606e-05
1.25055e-07
3.33667e-05
1.18873e-07
3.33726e-05
1.17717e-07
1.1049e-07
3.41154e-05
2.07354e-07
3.41351e-05
1.99416e-07
3.41541e-05
1.91799e-07
3.41723e-05
1.84487e-07
3.41898e-05
1.77473e-07
3.42066e-05
1.70734e-07
3.42228e-05
1.6428e-07
3.42384e-05
1.58064e-07
3.42534e-05
1.5214e-07
3.42679e-05
1.46396e-07
3.42818e-05
1.41001e-07
3.42952e-05
1.35653e-07
3.43081e-05
1.30848e-07
3.43206e-05
1.25756e-07
3.43326e-05
1.21732e-07
3.43442e-05
1.16595e-07
3.43555e-05
1.13783e-07
3.43663e-05
1.0805e-07
3.4377e-05
1.07043e-07
1.00387e-07
3.48272e-05
1.78087e-07
3.48553e-05
1.71278e-07
3.48824e-05
1.64744e-07
3.49084e-05
1.58468e-07
3.49334e-05
1.52447e-07
3.49575e-05
1.46661e-07
3.49807e-05
1.41119e-07
3.50029e-05
1.35779e-07
3.50244e-05
1.30691e-07
3.5045e-05
1.25752e-07
3.50649e-05
1.21121e-07
3.50841e-05
1.16515e-07
3.51025e-05
1.12396e-07
3.51203e-05
1.07996e-07
3.51374e-05
1.0456e-07
3.51539e-05
1.00098e-07
3.517e-05
9.77172e-08
3.51853e-05
9.27228e-08
3.52005e-05
9.18876e-08
8.61228e-08
3.53774e-05
1.41059e-07
3.5413e-05
1.35672e-07
3.54472e-05
1.30501e-07
3.54801e-05
1.25534e-07
3.55118e-05
1.20768e-07
3.55423e-05
1.16185e-07
3.55716e-05
1.11797e-07
3.55998e-05
1.07567e-07
3.5627e-05
1.03538e-07
3.56531e-05
9.96222e-08
3.56783e-05
9.59553e-08
3.57025e-05
9.22998e-08
3.57258e-05
8.90418e-08
3.57483e-05
8.55406e-08
3.577e-05
8.28314e-08
3.57909e-05
7.92671e-08
3.58112e-05
7.74021e-08
3.58305e-05
7.34049e-08
3.58496e-05
7.27608e-08
6.81679e-08
3.5778e-05
9.77476e-08
3.58196e-05
9.40184e-08
3.58597e-05
9.04379e-08
3.58982e-05
8.69979e-08
3.59353e-05
8.3697e-08
3.5971e-05
8.05227e-08
3.60053e-05
7.74822e-08
3.60383e-05
7.45508e-08
3.60701e-05
7.17597e-08
3.61006e-05
6.9045e-08
3.61301e-05
6.65049e-08
3.61584e-05
6.39681e-08
3.61858e-05
6.17133e-08
3.6212e-05
5.92791e-08
3.62374e-05
5.7408e-08
3.62618e-05
5.49234e-08
3.62855e-05
5.36415e-08
3.63081e-05
5.08521e-08
3.63304e-05
5.04143e-08
4.72197e-08
3.6039e-05
5.00172e-08
3.6085e-05
4.81104e-08
3.61291e-05
4.62792e-08
3.61716e-05
4.45198e-08
3.62125e-05
4.28316e-08
3.62518e-05
4.1208e-08
3.62896e-05
3.96527e-08
3.6326e-05
3.81529e-08
3.6361e-05
3.67251e-08
3.63947e-05
3.53359e-08
3.64272e-05
3.40367e-08
3.64584e-05
3.27377e-08
3.64886e-05
3.1585e-08
3.65175e-05
3.03373e-08
3.65455e-05
2.93821e-08
3.65724e-05
2.81066e-08
3.65985e-05
2.74542e-08
3.66234e-05
2.60215e-08
3.6648e-05
2.58003e-08
2.41628e-08
3.61677e-05
3.62158e-05
3.62621e-05
3.63066e-05
3.63494e-05
3.63906e-05
3.64303e-05
3.64684e-05
3.65051e-05
3.65405e-05
3.65745e-05
3.66072e-05
3.66388e-05
3.66691e-05
3.66985e-05
3.67266e-05
3.6754e-05
3.678e-05
3.68058e-05
)
;

boundaryField
{
    fixedWalls
    {
        type            calculated;
        value           uniform 0;
    }
    inlet
    {
        type            calculated;
        value           nonuniform 0();
    }
    outlet
    {
        type            calculated;
        value           nonuniform List<scalar> 
20
(
1.92576e-06
5.58039e-06
9.03344e-06
1.22823e-05
1.53253e-05
1.81607e-05
2.07874e-05
2.32044e-05
2.54119e-05
2.74108e-05
2.92031e-05
3.0792e-05
3.2182e-05
3.33783e-05
3.43871e-05
3.52147e-05
3.58676e-05
3.63514e-05
3.6671e-05
3.683e-05
)
;
    }
    frontAndBack
    {
        type            empty;
        value           nonuniform 0();
    }
    procBoundary3to2
    {
        type            processor;
        value           nonuniform List<scalar> 
20
(
-1.99085e-06
-5.75447e-06
-9.29827e-06
-1.26194e-05
-1.57145e-05
-1.858e-05
-2.12129e-05
-2.36112e-05
-2.57746e-05
-2.77049e-05
-2.94063e-05
-3.08857e-05
-3.21523e-05
-3.32177e-05
-3.40949e-05
-3.47979e-05
-3.53403e-05
-3.57347e-05
-3.59913e-05
-3.61177e-05
)
;
    }
    procBoundary3to7
    {
        type            processor;
        value           nonuniform List<scalar> 
20
(
4.97346e-12
7.32535e-12
7.73634e-12
7.43355e-12
7.63137e-12
8.45144e-12
8.8695e-12
8.46697e-12
8.36838e-12
8.70217e-12
8.89174e-12
9.58331e-12
1.17708e-11
1.42871e-11
1.48726e-11
1.39686e-11
1.4023e-11
1.48071e-11
1.48521e-11
1.60591e-11
)
;
    }
}


// ************************************************************************* //
