/*--------------------------------*- C++ -*----------------------------------*\
| =========                 |                                                 |
| \\      /  F ield         | OpenFOAM: The Open Source CFD Toolbox           |
|  \\    /   O peration     | Version:                                        |
|   \\  /    A nd           | Website:  www.openfoam.com                      |
|    \\/     M anipulation  |                                                 |
\*---------------------------------------------------------------------------*/
FoamFile
{
    version     2.0;
    format      ascii;
    class       volVectorField;
    location    "0.8";
    object      U;
}
// * * * * * * * * * * * * * * * * * * * * * * * * * * * * * * * * * * * * * //

dimensions      [0 1 -1 0 0 0 0];


internalField   nonuniform List<vector> 
400
(
(0.0795458 2.88678e-05 0)
(0.079376 2.78021e-05 0)
(0.0792125 2.67792e-05 0)
(0.079055 2.57966e-05 0)
(0.0789034 2.48535e-05 0)
(0.0787573 2.3948e-05 0)
(0.0786166 2.30805e-05 0)
(0.0784811 2.22472e-05 0)
(0.0783504 2.14515e-05 0)
(0.0782245 2.06886e-05 0)
(0.0781031 1.9964e-05 0)
(0.0779859 1.92792e-05 0)
(0.0778728 1.86249e-05 0)
(0.0777634 1.80613e-05 0)
(0.0776579 1.74538e-05 0)
(0.0775545 1.72342e-05 0)
(0.0774558 1.65334e-05 0)
(0.0773526 1.81838e-05 0)
(0.0772619 1.72916e-05 0)
(0.0770874 3.84099e-05 0)
(0.229936 0.000173434 0)
(0.229469 0.000166963 0)
(0.22902 0.000160756 0)
(0.228587 0.000154799 0)
(0.22817 0.000149084 0)
(0.227769 0.000143599 0)
(0.227383 0.000138342 0)
(0.227011 0.000133298 0)
(0.226652 0.000128475 0)
(0.226307 0.000123856 0)
(0.225974 0.00011946 0)
(0.225652 0.00011529 0)
(0.225342 0.000111329 0)
(0.225043 0.000107766 0)
(0.224754 0.000104223 0)
(0.224471 0.000102057 0)
(0.224202 9.87021e-05 0)
(0.223923 0.000102817 0)
(0.223685 9.97081e-05 0)
(0.223286 0.000151858 0)
(0.371557 0.000476365 0)
(0.370838 0.000458481 0)
(0.370146 0.000441333 0)
(0.36948 0.000424883 0)
(0.368839 0.000409106 0)
(0.368222 0.000393968 0)
(0.367628 0.000379459 0)
(0.367056 0.000365541 0)
(0.366505 0.000352229 0)
(0.365974 0.000339479 0)
(0.365463 0.000327337 0)
(0.364969 0.000315789 0)
(0.364494 0.000304848 0)
(0.364034 0.000294805 0)
(0.363591 0.000285141 0)
(0.363158 0.000278053 0)
(0.362748 0.000269652 0)
(0.362321 0.00027338 0)
(0.361972 0.000267584 0)
(0.361407 0.000327813 0)
(0.504298 0.000902679 0)
(0.503377 0.000868628 0)
(0.50249 0.000835987 0)
(0.501637 0.000804684 0)
(0.500816 0.000774668 0)
(0.500027 0.000745873 0)
(0.499266 0.000718277 0)
(0.498534 0.000691808 0)
(0.497829 0.000666486 0)
(0.49715 0.000642229 0)
(0.496496 0.000619121 0)
(0.495866 0.000597101 0)
(0.495258 0.000576262 0)
(0.494671 0.000556898 0)
(0.494106 0.000538533 0)
(0.493554 0.000523778 0)
(0.493034 0.000508235 0)
(0.49249 0.000507158 0)
(0.492062 0.000497347 0)
(0.491363 0.000546521 0)
(0.628025 0.00141817 0)
(0.626956 0.00136445 0)
(0.625928 0.00131296 0)
(0.624939 0.0012636 0)
(0.623988 0.00121627 0)
(0.623073 0.00117087 0)
(0.622192 0.00112737 0)
(0.621344 0.00108565 0)
(0.620528 0.00104573 0)
(0.619742 0.00100748 0)
(0.618985 0.000971039 0)
(0.618256 0.000936241 0)
(0.617553 0.000903351 0)
(0.616874 0.000872472 0)
(0.616223 0.000843488 0)
(0.615584 0.000818651 0)
(0.614989 0.000794429 0)
(0.614358 0.000783914 0)
(0.613882 0.000769062 0)
(0.613083 0.000795902 0)
(0.7426 0.00199329 0)
(0.741445 0.0019175 0)
(0.740334 0.00184487 0)
(0.739266 0.00177524 0)
(0.738239 0.0017085 0)
(0.73725 0.0016445 0)
(0.736299 0.00158317 0)
(0.735384 0.00152434 0)
(0.734503 0.00146806 0)
(0.733655 0.00141411 0)
(0.732839 0.00136272 0)
(0.732053 0.00131353 0)
(0.731296 0.00126713 0)
(0.730564 0.00122312 0)
(0.729863 0.00118226 0)
(0.729175 0.00114529 0)
(0.728539 0.00111158 0)
(0.727856 0.00108756 0)
(0.727361 0.00106772 0)
(0.7265 0.00106642 0)
(0.847904 0.00259621 0)
(0.846729 0.00249717 0)
(0.8456 0.00240228 0)
(0.844513 0.00231131 0)
(0.843468 0.00222414 0)
(0.842463 0.00214053 0)
(0.841497 0.00206043 0)
(0.840567 0.00198358 0)
(0.839672 0.00191009 0)
(0.83881 0.00183957 0)
(0.837981 0.00177245 0)
(0.837182 0.00170804 0)
(0.836414 0.00164743 0)
(0.835672 0.00158932 0)
(0.834962 0.00153608 0)
(0.834263 0.00148546 0)
(0.833624 0.00144226 0)
(0.832927 0.00140166 0)
(0.83244 0.0013777 0)
(0.831563 0.00134602 0)
(0.943863 0.00319213 0)
(0.942737 0.00307003 0)
(0.941655 0.00295305 0)
(0.940615 0.00284092 0)
(0.939614 0.00273347 0)
(0.938652 0.00263041 0)
(0.937727 0.00253169 0)
(0.936837 0.00243696 0)
(0.93598 0.00234638 0)
(0.935156 0.0022594 0)
(0.934363 0.00217668 0)
(0.933599 0.00209705 0)
(0.932865 0.0020224 0)
(0.932155 0.00195001 0)
(0.931479 0.00188469 0)
(0.93081 0.00181962 0)
(0.930204 0.00176765 0)
(0.929534 0.0017087 0)
(0.929082 0.00168179 0)
(0.928239 0.00162016 0)
(1.03046 0.00374482 0)
(1.02946 0.00360129 0)
(1.02849 0.00346378 0)
(1.02756 0.00333196 0)
(1.02667 0.00320564 0)
(1.02581 0.00308448 0)
(1.02498 0.00296843 0)
(1.02419 0.00285704 0)
(1.02342 0.00275057 0)
(1.02269 0.00264822 0)
(1.02198 0.00255101 0)
(1.0213 0.0024571 0)
(1.02064 0.00236946 0)
(1.02001 0.00228342 0)
(1.01941 0.00220714 0)
(1.01881 0.00212774 0)
(1.01828 0.00206833 0)
(1.01768 0.0019907 0)
(1.01728 0.00196201 0)
(1.01653 0.00187287 0)
(1.10777 0.00421829 0)
(1.10695 0.0040564 0)
(1.10617 0.00390128 0)
(1.10541 0.00375257 0)
(1.10469 0.00361005 0)
(1.10399 0.00347334 0)
(1.10332 0.0033424 0)
(1.10267 0.00321668 0)
(1.10205 0.00309655 0)
(1.10146 0.00298094 0)
(1.10088 0.00287129 0)
(1.10033 0.00276496 0)
(1.0998 0.00266626 0)
(1.09929 0.00256811 0)
(1.0988 0.00248273 0)
(1.09831 0.00239012 0)
(1.09788 0.00232503 0)
(1.0974 0.00222994 0)
(1.09708 0.00220051 0)
(1.09647 0.00208782 0)
(1.17596 0.00457866 0)
(1.17539 0.00440282 0)
(1.17485 0.0042343 0)
(1.17432 0.00407273 0)
(1.17382 0.00391787 0)
(1.17334 0.00376929 0)
(1.17287 0.00362699 0)
(1.17243 0.00349029 0)
(1.172 0.00335973 0)
(1.17158 0.00323392 0)
(1.17118 0.0031148 0)
(1.1708 0.00299882 0)
(1.17043 0.00289179 0)
(1.17008 0.00278397 0)
(1.16974 0.00269199 0)
(1.16941 0.00258835 0)
(1.16911 0.00251964 0)
(1.16878 0.00240978 0)
(1.16857 0.00238049 0)
(1.16815 0.00224936 0)
(1.23529 0.00479618 0)
(1.23503 0.00461197 0)
(1.23477 0.00443541 0)
(1.23453 0.00426607 0)
(1.2343 0.00410375 0)
(1.23407 0.00394797 0)
(1.23385 0.00379878 0)
(1.23365 0.00365539 0)
(1.23345 0.00351851 0)
(1.23326 0.00338641 0)
(1.23307 0.00326157 0)
(1.2329 0.0031395 0)
(1.23272 0.00302756 0)
(1.23256 0.00291335 0)
(1.2324 0.00281778 0)
(1.23226 0.0027063 0)
(1.23212 0.00263623 0)
(1.23197 0.00251558 0)
(1.23187 0.00248717 0)
(1.23169 0.00234359 0)
(1.28613 0.00484732 0)
(1.28621 0.00466123 0)
(1.28628 0.00448283 0)
(1.28636 0.00431168 0)
(1.28642 0.00414759 0)
(1.28649 0.00399007 0)
(1.28656 0.0038392 0)
(1.28662 0.00369413 0)
(1.28668 0.0035557 0)
(1.28674 0.00342193 0)
(1.28679 0.00329573 0)
(1.28685 0.00317182 0)
(1.2869 0.0030589 0)
(1.28695 0.00294228 0)
(1.287 0.00284648 0)
(1.28706 0.00273124 0)
(1.28709 0.00266215 0)
(1.28716 0.0025357 0)
(1.28718 0.00250885 0)
(1.28728 0.00235941 0)
(1.32894 0.00471665 0)
(1.32938 0.00453574 0)
(1.3298 0.00436225 0)
(1.33021 0.00419577 0)
(1.3306 0.00403613 0)
(1.33097 0.00388281 0)
(1.33133 0.00373598 0)
(1.33168 0.0035947 0)
(1.33202 0.00345997 0)
(1.33234 0.00332956 0)
(1.33265 0.00320679 0)
(1.33295 0.00308574 0)
(1.33324 0.00297609 0)
(1.33352 0.00286156 0)
(1.33378 0.00276908 0)
(1.33406 0.00265478 0)
(1.33428 0.00258901 0)
(1.33458 0.00246249 0)
(1.33473 0.0024378 0)
(1.33511 0.00228945 0)
(1.36421 0.0043983 0)
(1.36502 0.00422981 0)
(1.36579 0.00406818 0)
(1.36653 0.00391302 0)
(1.36725 0.00376421 0)
(1.36793 0.00362124 0)
(1.3686 0.00348432 0)
(1.36923 0.00335251 0)
(1.36984 0.00322684 0)
(1.37043 0.00310506 0)
(1.371 0.0029906 0)
(1.37155 0.00287733 0)
(1.37207 0.00277529 0)
(1.37259 0.00266764 0)
(1.37306 0.00258201 0)
(1.37356 0.00247373 0)
(1.37396 0.00241356 0)
(1.3745 0.00229302 0)
(1.37477 0.00227105 0)
(1.37545 0.00213076 0)
(1.39251 0.00389687 0)
(1.39366 0.00374779 0)
(1.39476 0.00360473 0)
(1.39583 0.00346736 0)
(1.39685 0.00333558 0)
(1.39783 0.00320894 0)
(1.39877 0.00308765 0)
(1.39968 0.00297082 0)
(1.40055 0.00285949 0)
(1.4014 0.00275145 0)
(1.4022 0.00265008 0)
(1.40299 0.00254942 0)
(1.40373 0.0024592 0)
(1.40447 0.00236317 0)
(1.40514 0.00228778 0)
(1.40586 0.00219062 0)
(1.40643 0.00213815 0)
(1.4072 0.00202958 0)
(1.40758 0.00201084 0)
(1.40854 0.00188531 0)
(1.41437 0.00322755 0)
(1.41582 0.00310424 0)
(1.41722 0.00298588 0)
(1.41856 0.00287218 0)
(1.41985 0.0027631 0)
(1.42109 0.00265824 0)
(1.42229 0.00255781 0)
(1.42344 0.00246103 0)
(1.42455 0.00236883 0)
(1.42561 0.00227926 0)
(1.42663 0.00219534 0)
(1.42763 0.00211177 0)
(1.42857 0.00203717 0)
(1.4295 0.00195721 0)
(1.43035 0.00189509 0)
(1.43126 0.00181382 0)
(1.43198 0.0017709 0)
(1.43295 0.00167988 0)
(1.43343 0.00166482 0)
(1.43464 0.00156012 0)
(1.43027 0.00241558 0)
(1.43197 0.00232339 0)
(1.4336 0.00223489 0)
(1.43517 0.00214986 0)
(1.43668 0.00206827 0)
(1.43814 0.00198981 0)
(1.43954 0.00191467 0)
(1.44088 0.00184222 0)
(1.44218 0.00177324 0)
(1.44343 0.00170616 0)
(1.44462 0.00164338 0)
(1.44579 0.00158071 0)
(1.44688 0.00152496 0)
(1.44798 0.00146487 0)
(1.44897 0.00141856 0)
(1.45004 0.0013573 0)
(1.45088 0.00132549 0)
(1.45201 0.00125677 0)
(1.45257 0.00124575 0)
(1.45398 0.00116702 0)
(1.44063 0.00149488 0)
(1.4425 0.00143788 0)
(1.4443 0.00138314 0)
(1.44603 0.00133055 0)
(1.4477 0.00128009 0)
(1.4493 0.00123155 0)
(1.45084 0.00118506 0)
(1.45233 0.00114023 0)
(1.45375 0.00109755 0)
(1.45513 0.00105602 0)
(1.45645 0.00101719 0)
(1.45773 0.000978363 0)
(1.45894 0.000943901 0)
(1.46015 0.000906619 0)
(1.46124 0.000878039 0)
(1.46242 0.00083995 0)
(1.46334 0.000820394 0)
(1.46458 0.000777641 0)
(1.46521 0.000770921 0)
(1.46676 0.000722066 0)
(1.44573 0.000506086 0)
(1.44769 0.000486826 0)
(1.44958 0.000468309 0)
(1.45139 0.000450509 0)
(1.45314 0.000433433 0)
(1.45482 0.000417016 0)
(1.45643 0.000401287 0)
(1.45799 0.000386108 0)
(1.45948 0.000371662 0)
(1.46093 0.000357608 0)
(1.46231 0.000344466 0)
(1.46365 0.000331323 0)
(1.46492 0.000319686 0)
(1.46619 0.000307077 0)
(1.46733 0.000297425 0)
(1.46856 0.000284495 0)
(1.46954 0.000277898 0)
(1.47083 0.000263398 0)
(1.47149 0.000261141 0)
(1.47312 0.000244596 0)
)
;

boundaryField
{
    fixedWalls
    {
        type            noSlip;
    }
    inlet
    {
        type            fixedValue;
        value           nonuniform 0();
    }
    outlet
    {
        type            zeroGradient;
    }
    frontAndBack
    {
        type            empty;
    }
    procBoundary3to2
    {
        type            processor;
        value           nonuniform List<vector> 
20
(
(0.0797222 2.99782e-05 0)
(0.230422 0.000180181 0)
(0.372305 0.00049502 0)
(0.505256 0.000938208 0)
(0.629136 0.00147424 0)
(0.743801 0.00207241 0)
(0.849127 0.00269961 0)
(0.945034 0.00331961 0)
(1.03151 0.00389467 0)
(1.10862 0.00438729 0)
(1.17655 0.00476219 0)
(1.23556 0.00498839 0)
(1.28605 0.00504142 0)
(1.32848 0.00490527 0)
(1.36338 0.00457392 0)
(1.39132 0.0040522 0)
(1.41286 0.00335599 0)
(1.4285 0.00251156 0)
(1.43868 0.00155419 0)
(1.44369 0.000526143 0)
)
;
    }
    procBoundary3to7
    {
        type            processor;
        value           nonuniform List<vector> 
20
(
(1.44573 -0.000505867 0)
(1.44769 -0.000486557 0)
(1.44958 -0.00046803 0)
(1.45139 -0.000450229 0)
(1.45314 -0.000433139 0)
(1.45482 -0.000416695 0)
(1.45643 -0.00040095 0)
(1.45799 -0.000385772 0)
(1.45948 -0.000371317 0)
(1.46093 -0.000357244 0)
(1.46231 -0.000344089 0)
(1.46365 -0.000330926 0)
(1.46492 -0.000319237 0)
(1.46619 -0.000306564 0)
(1.46733 -0.000296882 0)
(1.46856 -0.000283952 0)
(1.46954 -0.00027734 0)
(1.47083 -0.000262807 0)
(1.47149 -0.00026054 0)
(1.47312 -0.000243947 0)
)
;
    }
}


// ************************************************************************* //
