/*--------------------------------*- C++ -*----------------------------------*\
| =========                 |                                                 |
| \\      /  F ield         | OpenFOAM: The Open Source CFD Toolbox           |
|  \\    /   O peration     | Version:                                        |
|   \\  /    A nd           | Website:  www.openfoam.com                      |
|    \\/     M anipulation  |                                                 |
\*---------------------------------------------------------------------------*/
FoamFile
{
    version     2.0;
    format      ascii;
    class       volScalarField;
    location    "175";
    object      p;
}
// * * * * * * * * * * * * * * * * * * * * * * * * * * * * * * * * * * * * * //

dimensions      [0 2 -2 0 0 0 0];


internalField   nonuniform List<scalar> 
1136
(
-0.355239
-0.30932
-0.328382
-0.388595
-0.495507
-0.533025
-0.456235
-0.340845
-0.299981
-0.270229
-0.309689
-0.352679
-0.345934
-0.289762
-0.283351
-0.236287
-0.192635
-0.214536
-0.241843
-0.223135
-0.173444
-0.174135
-0.193585
-0.201768
-0.145752
-0.137564
-0.160452
-0.137274
-0.0435491
-0.00877599
-0.365135
-0.290083
-0.285352
-0.311463
-0.401383
-0.418928
-0.370598
-0.296519
-0.279861
-0.280707
-0.341366
-0.402236
-0.395827
-0.313322
-0.297015
-0.238606
-0.179264
-0.200654
-0.224697
-0.212686
-0.170389
-0.172743
-0.193359
-0.203489
-0.149034
-0.143741
-0.177533
-0.139443
-0.0329581
-0.00495472
-0.363175
-0.267334
-0.241647
-0.237887
-0.310966
-0.312463
-0.288348
-0.250314
-0.252325
-0.291706
-0.373814
-0.450333
-0.447002
-0.335
-0.304888
-0.239443
-0.167091
-0.186049
-0.206271
-0.200448
-0.166671
-0.170621
-0.192935
-0.203968
-0.151575
-0.150617
-0.192771
-0.142162
-0.0232394
-0.00185579
-0.346135
-0.24107
-0.19998
-0.178843
-0.231398
-0.226368
-0.209164
-0.201474
-0.216629
-0.296252
-0.396309
-0.493508
-0.496387
-0.354506
-0.307477
-0.237955
-0.156534
-0.171968
-0.187533
-0.187295
-0.162361
-0.168443
-0.192219
-0.203169
-0.153319
-0.158085
-0.207878
-0.145215
-0.0146921
0.000461021
-0.314718
-0.211514
-0.158286
-0.131548
-0.163558
-0.162245
-0.132693
-0.152789
-0.173141
-0.285139
-0.409278
-0.525798
-0.536822
-0.370304
-0.303704
-0.233145
-0.146624
-0.157755
-0.168483
-0.173668
-0.157369
-0.166238
-0.191959
-0.201416
-0.154248
-0.166045
-0.222161
-0.148783
-0.00775628
0.00198373
-0.280812
-0.183762
-0.123146
-0.0928353
-0.108231
-0.116252
-0.0674995
-0.105133
-0.127413
-0.260077
-0.399052
-0.536332
-0.562359
-0.384226
-0.296949
-0.226395
-0.138383
-0.14348
-0.15023
-0.160376
-0.151415
-0.163432
-0.190697
-0.197861
-0.154037
-0.173912
-0.240048
-0.153136
-0.00250418
0.00280627
-0.15304
-0.0967486
-0.0621722
-0.0678004
-0.0819534
-0.0228986
-0.0656846
-0.0872236
-0.214186
-0.369324
-0.527773
-0.563878
-0.389507
-0.284979
-0.216336
-0.13154
-0.129623
-0.133211
-0.146723
-0.143988
-0.160065
-0.187975
-0.192121
-0.152182
-0.180963
-0.262622
-0.157446
0.000998963
0.00301993
-0.129534
-0.0777915
-0.0384779
-0.0384524
-0.056841
-0.0274401
-0.0350765
-0.0504207
-0.158484
-0.319747
-0.484198
-0.531475
-0.382375
-0.268957
-0.205121
-0.12681
-0.117168
-0.117111
-0.131561
-0.134187
-0.155326
-0.182415
-0.183897
-0.148059
-0.186187
-0.274124
-0.161309
0.00282732
0.00275088
-0.108369
-0.0661967
-0.0251882
-0.016592
-0.0386369
-0.014433
-0.0131007
-0.0233432
-0.104367
-0.257747
-0.429745
-0.50007
-0.369131
-0.254349
-0.19171
-0.122581
-0.108288
-0.10383
-0.113786
-0.122678
-0.148723
-0.173562
-0.172927
-0.14191
-0.189498
-0.280046
-0.163517
0.00272604
0.0020352
-0.0813293
-0.052605
-0.0205811
-0.00223063
-0.0219933
-0.00723295
-0.00605251
-0.00549707
-0.0552695
-0.192205
-0.362847
-0.423212
-0.331638
-0.237257
-0.171366
-0.111641
-0.0970204
-0.0968731
-0.0952397
-0.110851
-0.141078
-0.161848
-0.15821
-0.134672
-0.190288
-0.281318
-0.163355
0.00101066
0.00102658
-0.0285979
-0.00928801
0.00705784
-0.00963231
-0.00231204
0.00121532
0.0128371
-0.0145316
-0.125901
-0.294011
-0.377001
-0.292844
-0.207958
-0.146169
-0.0991023
-0.0820583
-0.0589579
-0.0774689
-0.0963174
-0.13055
-0.151377
-0.143433
-0.126315
-0.18765
-0.275466
-0.163019
-0.00247545
-0.000202872
-0.012802
0.00113673
0.0144225
-0.00370844
0.000828904
0.0111256
0.0261293
0.0146039
-0.0762765
-0.236253
-0.323529
-0.25362
-0.179943
-0.12469
-0.085852
-0.0683806
-0.0495338
-0.0637519
-0.0830411
-0.117761
-0.137806
-0.128022
-0.115581
-0.182089
-0.265822
-0.161301
-0.00706067
-0.00148806
-0.00142861
0.00689152
0.0193529
0.000605853
0.00317182
0.0207238
0.0379545
0.0299871
-0.0487718
-0.182148
-0.246321
-0.207162
-0.155514
-0.104243
-0.0731981
-0.0583462
-0.04135
-0.0534
-0.0729043
-0.103571
-0.120256
-0.109168
-0.102197
-0.172426
-0.251061
-0.153393
-0.0127065
-0.00300654
0.00964342
0.0127933
0.0210383
0.000842404
0.00664091
0.0260117
0.039523
0.0350019
-0.0219911
-0.11827
-0.167798
-0.158253
-0.129014
-0.083091
-0.0599399
-0.051093
-0.0363817
-0.0478007
-0.0631855
-0.0879271
-0.0998275
-0.0873819
-0.0858056
-0.157556
-0.229158
-0.137432
-0.0194152
-0.00473552
0.01199
0.0208669
0.025319
0.0112856
0.0154508
0.0310639
0.0420769
0.0435112
0.00626736
-0.0620145
-0.0970552
-0.113022
-0.107849
-0.0623306
-0.044985
-0.0443634
-0.0318761
-0.0411315
-0.0519251
-0.07116
-0.0777449
-0.0636724
-0.0667248
-0.137182
-0.198703
-0.114545
-0.0267594
-0.0064978
0.0208003
0.0260586
0.0228515
0.0162116
0.0226114
0.0352862
0.0493961
0.0537498
0.0229424
-0.0257065
-0.0489707
-0.0749992
-0.0786442
-0.0386648
-0.028854
-0.0376594
-0.0268059
-0.0298086
-0.0399816
-0.0542598
-0.0543521
-0.0383713
-0.0457931
-0.109858
-0.160147
-0.0863268
-0.0334883
-0.0078759
0.0203624
0.0286351
0.0280392
0.0263338
0.0288229
0.0388941
0.0507207
0.0553542
0.0256774
-0.00620463
-0.0164099
-0.0437511
-0.0579665
-0.0204958
-0.00950066
-0.0238664
-0.0167452
-0.0132942
-0.0262644
-0.0376832
-0.0315771
-0.0129555
-0.0237661
-0.0754893
-0.113546
-0.0533838
-0.0378502
-0.00844865
0.0249988
0.0305469
0.0286281
0.0276119
0.0315826
0.0389568
0.0472786
0.0516191
0.0279023
0.00558294
-7.96828e-05
-0.0210708
-0.0351718
-0.00344744
0.0108413
-0.00208165
0.00238851
0.00780154
-0.0109982
-0.0204129
-0.0115357
0.00883392
-0.00232311
-0.0369255
-0.0635059
-0.0190303
-0.0370142
-0.00795809
0.0242726
0.0294697
0.0300283
0.0296057
0.033236
0.0385568
0.0420912
0.0471139
0.030393
0.0130547
0.0111239
-0.00220369
-0.017477
0.00495178
0.024467
0.023764
0.0299922
0.0315584
0.00632364
-0.00400183
0.00637697
0.0268041
0.0159038
0.00176196
-0.016546
0.0110392
-0.0294968
-0.00636827
0.0262031
0.0298127
0.0306631
0.0299596
0.033167
0.0372528
0.0407669
0.043267
0.0317915
0.0183657
0.0146133
0.0078145
-0.00144229
0.0176719
0.0354914
0.0405035
0.046922
0.048206
0.0233791
0.0104284
0.0207778
0.0426522
0.032349
0.0368066
0.0215991
0.0306805
-0.0143153
-0.00246139
0.0261869
0.0286713
0.0299179
0.0299778
0.0325677
0.0359854
0.0375668
0.0391223
0.0324953
0.022456
0.0177063
0.0165824
0.00923687
0.0214139
0.039458
0.0501921
0.054039
0.0540894
0.035947
0.0247656
0.0294898
0.0493426
0.043003
0.0617046
0.0474199
0.0383291
-0.0055867
-0.000708746
0.0259784
0.0280663
0.0292779
0.0297592
0.0318519
0.0345592
0.0371701
0.0361548
0.0323722
0.0250552
0.0214778
0.0212978
0.017562
0.0277758
0.0420083
0.0527073
0.0548566
0.0538421
0.0420348
0.0320118
0.0365299
0.0533062
0.048123
0.0691504
0.0549833
0.0349741
0.00361547
0.00255801
0.0257103
0.0273509
0.0284667
0.0290655
0.0308569
0.0328341
0.0347222
0.0337046
0.0315355
0.027266
0.0239666
0.0251205
0.0231449
0.0299915
0.0417655
0.051741
0.0534635
0.05068
0.0458541
0.0381
0.0391828
0.0532612
0.0515376
0.068935
0.0566077
0.0328696
0.01125
0.00491508
0.0250914
0.0265546
0.0275801
0.0282435
0.0297858
0.0311094
0.0326776
0.0319533
0.0307648
0.0284217
0.026078
0.0268025
0.0269519
0.0322647
0.0408591
0.0495545
0.0507072
0.0477867
0.0456536
0.0403127
0.0421081
0.0519351
0.0504632
0.0566573
0.0522427
0.0316684
0.0156401
0.00485267
0.0245325
0.0258105
0.0268358
0.027411
0.0287518
0.0298357
0.0310488
0.0306557
0.0299692
0.029093
0.0276836
0.0284973
0.0293501
0.0332948
0.0394665
0.0466073
0.0478609
0.0447364
0.0450933
0.0415951
0.0421824
0.049066
0.0483819
0.0540002
0.0486333
0.029698
0.0173726
0.00624762
0.0239211
0.0251081
0.0260445
0.0266828
0.0278006
0.0288113
0.0297235
0.0297296
0.029442
0.029213
0.0289126
0.0293203
0.0306788
0.0339324
0.037979
0.0436633
0.0450951
0.0428239
0.043444
0.0410801
0.0420686
0.0465951
0.0463526
0.048391
0.0437209
0.0281448
0.0179914
0.00653793
0.0232967
0.0244636
0.0253277
0.0259984
0.0269315
0.0279411
0.0287426
0.0289173
0.0289704
0.0291143
0.0294978
0.0299933
0.031226
0.0340097
0.0365485
0.0408888
0.0425194
0.0406877
0.0417139
0.0403251
0.0408795
0.0437523
0.0427264
0.043373
0.0391204
0.025861
0.0170285
0.0064567
0.0227934
0.0239069
0.0246305
0.0253416
0.026178
0.0271466
0.0279088
0.0282274
0.0285507
0.0288529
0.0296477
0.0302202
0.0312167
0.0336361
0.0354162
0.0384
0.0400048
0.0389248
0.0396877
0.038876
0.0391114
0.0406916
0.0396386
0.0388853
0.0343992
0.0235895
0.0159329
0.00622269
0.0222865
0.023344
0.0240267
0.024713
0.0255068
0.0263691
0.027143
0.0273308
0.0279916
0.0285004
0.0293549
0.0301254
0.0308173
0.0328701
0.0341794
0.0361525
0.0376433
0.0369794
0.0375739
0.0371195
0.0369672
0.0376985
0.0360842
0.0345241
0.0303667
0.0214307
0.0142289
0.00561188
0.0218821
0.0228596
0.0235067
0.0241299
0.0249107
0.0257132
0.0265037
0.0268054
0.0274462
0.0280631
0.0288794
0.0296894
0.0302422
0.0318491
0.0329271
0.0341677
0.0353575
0.0351081
0.0354254
0.0350863
0.0347005
0.0345736
0.0327803
0.0308357
0.0267575
0.0191977
0.0126467
0.00500118
0.021586
0.0224454
0.0230696
0.0236275
0.024393
0.0251374
0.0258969
0.0262685
0.0268481
0.0275517
0.0282531
0.0290412
0.0294987
0.0307005
0.0316476
0.0323608
0.0332529
0.0331958
0.033261
0.03293
0.0322786
0.0316698
0.0298138
0.0274351
0.0235446
0.0172944
0.0112474
0.00435311
0.0213751
0.0221267
0.0227055
0.0232116
0.0239177
0.0246251
0.0253132
0.0257239
0.026247
0.0269456
0.0275755
0.0282364
0.0286628
0.0295305
0.0303
0.0307397
0.0312721
0.0312882
0.0311823
0.0307052
0.0299455
0.0289927
0.0269736
0.0244944
0.0209057
0.0155327
0.00998099
0.00376996
0.0212491
0.0218959
0.0224121
0.0228706
0.0235016
0.0241635
0.0247599
0.0251877
0.02564
0.0262896
0.026846
0.0273702
0.0277608
0.0283515
0.0289589
0.0291974
0.0294413
0.0294556
0.0291666
0.0285738
0.0277023
0.0264723
0.0244831
0.0220012
0.0185977
0.0139402
0.00892849
0.00328575
0.0211742
0.0217253
0.0221779
0.0225946
0.0231393
0.0237296
0.0242512
0.0246495
0.0250505
0.0256074
0.0260932
0.0264989
0.0268099
0.0272228
0.0276405
0.0277437
0.0277818
0.0276842
0.0272906
0.0265771
0.025586
0.0242647
0.0222848
0.0198055
0.0166571
0.0125727
0.00801085
0.00287954
0.0211438
0.0216126
0.0220004
0.0223695
0.0228244
0.0233388
0.0237839
0.0241399
0.0244875
0.0249363
0.0253514
0.0256456
0.025882
0.0261496
0.0263935
0.0264019
0.0262639
0.0260572
0.0255745
0.0247478
0.0237049
0.0223082
0.0203462
0.0179754
0.0150423
0.0113651
0.00722042
0.00255646
0.0211372
0.0215289
0.02186
0.0221789
0.0225583
0.0229875
0.0233627
0.0236692
0.0239582
0.0243128
0.0246399
0.0248546
0.0250095
0.0251556
0.0252659
0.025176
0.0249254
0.0246063
0.0240357
0.0231532
0.0220481
0.0206167
0.0187252
0.0164408
0.0136831
0.0103495
0.0065626
0.00229613
0.0211541
0.0214721
0.0217509
0.0220256
0.0223381
0.0226845
0.0229963
0.0232512
0.0234913
0.0237577
0.0240023
0.0241511
0.0242306
0.0242854
0.024278
0.0241124
0.0237826
0.023356
0.0227273
0.0218
0.0206515
0.0192223
0.0173808
0.015184
0.0125938
0.00951602
0.0060151
0.00208788
0.0211862
0.0214439
0.0216805
0.0219157
0.0221698
0.0224447
0.0226978
0.0229117
0.0231066
0.0233002
0.0234726
0.0235663
0.0235918
0.0235696
0.0234737
0.0232502
0.0228615
0.0223581
0.0216782
0.0207269
0.0195553
0.0181244
0.0163368
0.0142226
0.0117528
0.00886626
0.00559487
0.00193341
0.0211926
0.0214075
0.0216164
0.0218248
0.0220393
0.0222617
0.0224736
0.0226578
0.0228182
0.0229602
0.0230774
0.0231346
0.0231196
0.0230422
0.0228856
0.0226185
0.022195
0.021635
0.0209192
0.0199584
0.0187692
0.0173457
0.0156015
0.0135425
0.0111627
0.0084116
0.00529794
0.00182405
0.021216
0.0214058
0.0215964
0.0217873
0.0219776
0.0221702
0.0223573
0.0225228
0.0226636
0.0227764
0.0228637
0.0228994
0.0228622
0.0227558
0.0225665
0.0222775
0.0218346
0.0212459
0.0205127
0.0195466
0.0183511
0.0169318
0.0152099
0.0131844
0.0108525
0.00817051
0.00514172
0.00176825
)
;

boundaryField
{
    outlet
    {
        type            fixedValue;
        value           uniform 0;
    }
    upperWall
    {
        type            symmetryPlane;
    }
    lowerWall
    {
        type            symmetryPlane;
    }
    inlet
    {
        type            zeroGradient;
    }
    cylinder
    {
        type            zeroGradient;
    }
    frontAndBack
    {
        type            empty;
    }
    procBoundary7to3
    {
        type            processor;
        value           nonuniform List<scalar> 
30
(
-0.338815
-0.319114
-0.36138
-0.459607
-0.586099
-0.640567
-0.539878
-0.384374
-0.316591
-0.257681
-0.279131
-0.304652
-0.294055
-0.262815
-0.265324
-0.233966
-0.206231
-0.227884
-0.257469
-0.232581
-0.176055
-0.174732
-0.193628
-0.198827
-0.141582
-0.13212
-0.147571
-0.135115
-0.054584
-0.0131966
)
;
    }
    procBoundary7to6
    {
        type            processor;
        value           nonuniform List<scalar> 
42
(
-0.459196
-0.497848
-0.513512
-0.504278
-0.468206
-0.417888
-0.236668
-0.236668
-0.201469
-0.164231
-0.116769
-0.0541765
-0.0541765
-0.0346219
-0.0194799
-0.00387893
-2.34598e-05
0.0132063
0.0144419
0.0224923
0.0230417
0.0250041
0.0253951
0.0249312
0.0244973
0.0238582
0.0231168
0.022494
0.0219315
0.0214927
0.0211189
0.0208374
0.0206422
0.0205348
0.0205089
0.0205486
0.020632
0.0207221
0.0208261
0.0209305
0.0209854
0.0210372
)
;
    }
}


// ************************************************************************* //
