/*--------------------------------*- C++ -*----------------------------------*\
| =========                 |                                                 |
| \\      /  F ield         | OpenFOAM: The Open Source CFD Toolbox           |
|  \\    /   O peration     | Version:                                        |
|   \\  /    A nd           | Website:  www.openfoam.com                      |
|    \\/     M anipulation  |                                                 |
\*---------------------------------------------------------------------------*/
FoamFile
{
    version     2.0;
    format      ascii;
    class       volScalarField;
    location    "31";
    object      p;
}
// * * * * * * * * * * * * * * * * * * * * * * * * * * * * * * * * * * * * * //

dimensions      [0 2 -2 0 0 0 0];


internalField   nonuniform List<scalar> 
1150
(
0.223268
0.234094
0.245423
0.221329
0.231582
0.24237
0.217204
0.226455
0.23638
0.210854
0.218744
0.201995
0.208356
0.19085
0.0314896
0.024544
0.0277659
0.0290599
0.0318383
0.0330723
0.0357638
0.0376627
0.0408404
0.0440948
0.0478054
0.0517047
0.0564531
0.0614013
0.06682
0.0727106
0.0792429
0.086096
0.0935039
0.101438
0.110034
0.119106
0.128773
0.138968
0.149783
0.161091
0.172918
0.185168
0.197912
0.211118
0.03144
0.0245448
0.0277439
0.0290431
0.0318165
0.0330472
0.0357425
0.0376261
0.0408181
0.0440536
0.0477597
0.0516588
0.0564098
0.0613288
0.0667505
0.0726008
0.0791209
0.0859043
0.0932872
0.101138
0.109681
0.118648
0.128246
0.138315
0.149036
0.160202
0.171934
0.184048
0.196675
0.209657
0.0313373
0.0245468
0.0276945
0.029034
0.0317659
0.0330264
0.0356948
0.0375894
0.0407779
0.0440094
0.0476853
0.0515979
0.0563383
0.0612174
0.0666434
0.0724259
0.078894
0.0855858
0.0929115
0.100635
0.109066
0.117856
0.127291
0.137121
0.147608
0.158466
0.169912
0.181676
0.193964
0.20644
0.0311932
0.0245439
0.0276318
0.0289925
0.0317075
0.0329648
0.0356475
0.0375005
0.0407551
0.0439226
0.0476288
0.0515375
0.0563384
0.0611164
0.0665794
0.0722449
0.0786992
0.0852427
0.0925407
0.100084
0.10841
0.116952
0.126212
0.135714
0.145926
0.156346
0.167393
0.178559
0.190193
0.201616
0.031
0.0245396
0.0275432
0.0289716
0.031609
0.0329273
0.035551
0.0374378
0.0406773
0.0438398
0.0474984
0.051412
0.0561864
0.0608987
0.066311
0.0718953
0.0782333
0.0846378
0.0917845
0.0991097
0.107188
0.115392
0.124287
0.133302
0.142982
0.152733
0.163069
0.173394
0.184146
0.194413
0.0307773
0.024526
0.027451
0.0289164
0.0315086
0.0328503
0.0354692
0.0373213
0.0406592
0.0437326
0.0474751
0.05139
0.0562727
0.0607854
0.0662829
0.0716698
0.0780546
0.0842184
0.091376
0.0983988
0.10637
0.114164
0.1228
0.131256
0.140455
0.149397
0.158929
0.168023
0.177409
0.185623
0.0305179
0.0245043
0.0273475
0.0288674
0.0313735
0.0327871
0.0353397
0.0372264
0.0405532
0.0435951
0.0472743
0.0511715
0.0559502
0.0604399
0.0658034
0.0711195
0.077272
0.0832959
0.0901419
0.096898
0.104426
0.111746
0.11978
0.127488
0.135868
0.143719
0.15218
0.159831
0.167855
0.174151
0.030232
0.0244674
0.0272545
0.0288045
0.0312278
0.0327212
0.0352101
0.0371428
0.0405471
0.0435463
0.0473888
0.0512677
0.056107
0.0603527
0.0658676
0.0709883
0.0772446
0.0829558
0.0898937
0.0961812
0.103694
0.11032
0.118136
0.12486
0.132629
0.139064
0.14625
0.151825
0.157661
0.0299237
0.0244086
0.0271737
0.0287134
0.0310792
0.0326126
0.0350669
0.0369763
0.0404183
0.0432632
0.0470282
0.0509291
0.055626
0.0597595
0.0651316
0.0701231
0.0760613
0.081592
0.0880279
0.0940588
0.1008
0.106998
0.113759
0.119773
0.126189
0.131449
0.137053
0.140772
0.14486
0.0296145
0.0243324
0.0270948
0.0286245
0.0309316
0.0325571
0.0349475
0.0369874
0.040495
0.0433731
0.0473081
0.051097
0.0558391
0.0599718
0.0654029
0.0703583
0.0762574
0.081662
0.0880159
0.0936729
0.100213
0.105598
0.112005
0.116529
0.122225
0.125025
0.129087
0.12904
0.0292882
0.0242731
0.0270291
0.0284749
0.0307612
0.0323586
0.0346854
0.0367454
0.0402525
0.0429139
0.0468351
0.0504032
0.0550972
0.0589265
0.0643631
0.0688198
0.0746079
0.0794217
0.0854624
0.0904478
0.0962458
0.100955
0.106085
0.109978
0.113687
0.115931
0.11725
0.116559
0.0289109
0.0242253
0.0269379
0.0282973
0.030531
0.0320899
0.0343073
0.0364098
0.0397
0.0423236
0.0459946
0.0495565
0.0538036
0.0576372
0.0624911
0.0668753
0.0718789
0.0765804
0.0816425
0.08636
0.090956
0.0951875
0.098917
0.102044
0.104137
0.105339
0.104858
0.10305
0.0284673
0.0241712
0.0267975
0.0280746
0.0302211
0.0317881
0.0337639
0.0360614
0.0389723
0.041817
0.0449311
0.048799
0.0522595
0.0564033
0.060348
0.0649243
0.068904
0.0735892
0.0775657
0.0819813
0.0853974
0.0890553
0.0915099
0.093729
0.0944613
0.0944866
0.0928999
0.090354
0.0280016
0.0241233
0.0266355
0.0277913
0.0299188
0.0314109
0.033275
0.0355558
0.0382711
0.0411773
0.0439594
0.0478454
0.0507943
0.0549155
0.0582866
0.0626318
0.0659952
0.0701825
0.0735291
0.0771506
0.0798378
0.0824408
0.0840249
0.0850138
0.0848227
0.083704
0.081559
0.0786786
0.0275332
0.0241171
0.0264666
0.0274458
0.0296381
0.0309033
0.032939
0.0347893
0.0378056
0.0401654
0.0431098
0.0464264
0.0494915
0.0528687
0.0563163
0.0597693
0.0630271
0.0662373
0.0692481
0.071805
0.0739344
0.0753903
0.0762465
0.0761236
0.0752408
0.0733427
0.0708609
0.067741
0.026994
0.0241831
0.0262535
0.0270633
0.0292205
0.0303381
0.0325197
0.0339218
0.0371695
0.0389366
0.0421443
0.044705
0.0480144
0.05047
0.0540399
0.0565809
0.0596565
0.0620121
0.0645711
0.0662051
0.0676772
0.0682105
0.068279
0.0673648
0.0658659
0.0635344
0.0607539
0.0575187
0.0263103
0.0243405
0.0259885
0.0266654
0.0286263
0.0297658
0.0319135
0.0330879
0.0361436
0.0377598
0.0407653
0.0430485
0.0460705
0.0480883
0.0512673
0.0533456
0.0557694
0.057654
0.0594453
0.0604767
0.0611158
0.0609993
0.060311
0.0588512
0.0568138
0.0542055
0.0512182
0.0479326
0.0254229
0.0246218
0.0256632
0.0263117
0.0278496
0.0292053
0.0310932
0.0323059
0.034847
0.0366023
0.0390278
0.0413882
0.0437749
0.0456807
0.0481822
0.0499885
0.0516559
0.0530921
0.0541373
0.0546032
0.0544704
0.0537916
0.0524971
0.05061
0.0481788
0.0453249
0.042165
0.0388255
0.0244134
0.0249664
0.0253276
0.0260451
0.0270686
0.0286621
0.0302064
0.0315457
0.033567
0.0353849
0.0373088
0.0395452
0.0414338
0.0431215
0.0449869
0.0464339
0.0474715
0.048336
0.048753
0.0486539
0.0478952
0.0466799
0.0449305
0.0426736
0.039946
0.0368812
0.0335787
0.0301821
0.0234265
0.0252377
0.0249759
0.0258258
0.026326
0.028133
0.0292554
0.0307811
0.0322946
0.0340957
0.0355262
0.0375349
0.0389902
0.0403869
0.0416543
0.0427157
0.0432077
0.0434699
0.0433181
0.0426897
0.0414355
0.0397484
0.0376042
0.0350489
0.0321107
0.0288883
0.025496
0.0220689
0.0225125
0.0253131
0.0246268
0.0255168
0.0256427
0.0274682
0.0282871
0.0298475
0.0310183
0.0326253
0.0336878
0.035341
0.0364207
0.0374383
0.0381991
0.0388217
0.038828
0.0385237
0.0378491
0.036759
0.0350892
0.0330023
0.0305351
0.0277616
0.0246843
0.0213782
0.0179579
0.0145419
0.0216746
0.0251667
0.024274
0.0250833
0.0249885
0.0266457
0.0273026
0.02869
0.0296492
0.0309433
0.0317487
0.0329557
0.0336984
0.0343128
0.0346249
0.0347582
0.0343337
0.0335449
0.0324031
0.0309117
0.0289021
0.0265102
0.0238026
0.0208715
0.0177171
0.0143944
0.0109991
0.00763464
0.0209206
0.0247702
0.0239025
0.0245153
0.0243159
0.0256594
0.0262317
0.0273385
0.0281323
0.0290912
0.0296671
0.0304251
0.0308312
0.0310435
0.0309245
0.0305966
0.0297866
0.0285973
0.0270591
0.025232
0.0229688
0.0203635
0.0174858
0.014448
0.0112633
0.00797038
0.00464141
0.00136082
0.0202427
0.0241139
0.0234761
0.0238286
0.0235797
0.0245359
0.0250399
0.0258439
0.026465
0.0271031
0.0274258
0.0277754
0.0278229
0.0276535
0.0271505
0.0264163
0.0252576
0.0237398
0.0218974
0.0198167
0.0173787
0.0146343
0.0116487
0.00854661
0.00535766
0.0021201
-0.00111356
-0.00428507
0.0196235
0.0232208
0.022933
0.0230527
0.0227521
0.0233151
0.0237043
0.0242308
0.0246467
0.0249929
0.0250399
0.025017
0.0247163
0.0242035
0.0233731
0.0222806
0.0208094
0.0190393
0.0169917
0.0147392
0.0121878
0.00936368
0.00632836
0.003204
3.7862e-05
-0.00313099
-0.00626645
-0.00932204
0.0190345
0.0221503
0.0222151
0.0221935
0.0218203
0.0220299
0.0222374
0.0225083
0.0226913
0.0227713
0.0225404
0.0221792
0.0215679
0.0207498
0.0196366
0.0182519
0.0165297
0.0145651
0.0123788
0.0100193
0.00741264
0.0045698
0.00154353
-0.00155415
-0.00466541
-0.00775229
-0.0107936
-0.0137473
0.0184429
0.0209763
0.0212901
0.0212311
0.0207849
0.0206948
0.0206742
0.0206903
0.0206202
0.0204525
0.0199682
0.0193063
0.0184161
0.0173293
0.0159877
0.0143964
0.0124862
0.010361
0.00807418
0.00566772
0.00307169
0.000270675
-0.00269637
-0.00572825
-0.00875545
-0.0117318
-0.0146491
-0.0174899
0.0178118
0.0197692
0.0201931
0.0201275
0.0196352
0.0193117
0.0190499
0.0188
0.0184643
0.018063
0.0173615
0.016442
0.0153033
0.0139904
0.0124735
0.0107437
0.0087113
0.00646985
0.00411642
0.00170486
-0.00083264
-0.00353998
-0.00640059
-0.00932861
-0.0122424
-0.015083
-0.0178435
-0.0205291
0.0171096
0.0185581
0.0189638
0.0188699
0.0183623
0.0178699
0.0173846
0.01687
0.0162726
0.0156415
0.0147517
0.0136245
0.0122812
0.010783
0.00912968
0.00731377
0.00522783
0.00292961
0.000540463
-0.00185697
-0.0043078
-0.00687722
-0.00958299
-0.0123666
-0.0151438
-0.0178401
-0.020435
-0.0229404
0.0163237
0.0173527
0.0176493
0.0174946
0.0169721
0.0163575
0.0156841
0.0149308
0.0140883
0.0132315
0.0121754
0.0108904
0.00939387
0.00775189
0.0059953
0.00412988
0.00204584
-0.000246003
-0.00262949
-0.00499534
-0.0073501
-0.00976067
-0.0122764
-0.0148777
-0.0174927
-0.0200354
-0.022463
-0.0247794
0.015451
0.016142
0.016291
0.0160512
0.0154878
0.0147714
0.0139496
0.0130041
0.0119494
0.01088
0.0096738
0.00827492
0.00667532
0.00493242
0.00310414
0.00121633
-0.000827454
-0.00305374
-0.0053795
-0.00769146
-0.00995366
-0.0122098
-0.0145223
-0.0169104
-0.0193308
-0.0217006
-0.0239566
-0.0260841
0.0144975
0.0149219
0.0149171
0.0145769
0.0139455
0.0131323
0.0121928
0.0111075
0.00988819
0.00863354
0.00729256
0.00580923
0.00414956
0.00234911
0.000483843
-0.00140023
-0.00337885
-0.00549967
-0.00772091
-0.00994933
-0.0121198
-0.0142376
-0.0163547
-0.0185159
-0.0207133
-0.0228837
-0.0249563
-0.0268967
0.0134808
0.0136984
0.013548
0.013102
0.0123893
0.011484
0.0104455
0.00926167
0.00792887
0.00653088
0.00507308
0.00352329
0.00183735
2.27055e-05
-0.00184313
-0.00370087
-0.00560379
-0.00760116
-0.00968504
-0.0117966
-0.0138624
-0.0158546
-0.017799
-0.0197444
-0.0217094
-0.0236587
-0.0255305
-0.0272804
0.0124237
0.0124828
0.0122053
0.0116574
0.0108642
0.00987664
0.00875271
0.00749405
0.00608892
0.00459573
0.00304926
0.00144834
-0.000241464
-0.00203481
-0.00386843
-0.00568116
-0.00750372
-0.0093755
-0.0113074
-0.0132734
-0.0152141
-0.0170848
-0.0188812
-0.0206384
-0.0223841
-0.0241072
-0.0257651
-0.0273177
0.011358
0.0112974
0.0109161
0.0102779
0.00941175
0.00835563
0.00716092
0.00584142
0.00439119
0.002846
0.00124565
-0.000388184
-0.00206912
-0.00381954
-0.00559565
-0.00734575
-0.0090852
-0.010838
-0.012619
-0.0144269
-0.0162246
-0.0179672
-0.0196315
-0.0212319
-0.0227896
-0.0243042
-0.0257516
-0.0271049
0.0103233
0.0101749
0.0097133
0.00900042
0.00807221
0.00696183
0.00571257
0.00434658
0.00286837
0.00130123
-0.000320644
-0.00196691
-0.00363175
-0.00533105
-0.00703552
-0.00870956
-0.0103626
-0.0120059
-0.0136504
-0.015305
-0.0169513
-0.0185576
-0.0200964
-0.0215657
-0.0229712
-0.0243105
-0.0255699
-0.0267364
0.00937164
0.00915761
0.00863636
0.0078666
0.00688898
0.00573841
0.00445295
0.00305476
0.00155783
-1.52796e-05
-0.00163569
-0.00327586
-0.00491928
-0.00656887
-0.00820118
-0.0097946
-0.0113599
-0.0129039
-0.0144307
-0.0159479
-0.0174486
-0.0189166
-0.0203322
-0.0216864
-0.0229711
-0.0241743
-0.0252829
-0.0262912
0.00855642
0.00829678
0.00773398
0.00692455
0.00591202
0.00473441
0.00342608
0.00200726
0.000499072
-0.00107193
-0.00268011
-0.00430518
-0.00592659
-0.00753431
-0.00910498
-0.0106239
-0.0121068
-0.0135629
-0.0149909
-0.0163918
-0.0177624
-0.0190999
-0.0203972
-0.0216467
-0.0228332
-0.0239352
-0.024934
-0.0258249
0.00794159
0.00765277
0.0070638
0.00623025
0.00519577
0.00400086
0.00267941
0.00125076
-0.000262321
-0.00183029
-0.0034272
-0.0050377
-0.00663982
-0.00821618
-0.00974411
-0.0112088
-0.0126282
-0.0140173
-0.015371
-0.0166826
-0.0179483
-0.0191726
-0.0203601
-0.0215104
-0.0226096
-0.0236328
-0.0245567
-0.0253734
0.0075966
0.00729289
0.00669138
0.0058464
0.004801
0.00359814
0.00227164
0.000839316
-0.000676543
-0.00224325
-0.00383297
-0.00543346
-0.00702382
-0.00858394
-0.010092
-0.0115296
-0.0129143
-0.0142664
-0.0155792
-0.0168415
-0.0180472
-0.0192022
-0.0203138
-0.0213853
-0.0224092
-0.0233668
-0.024238
-0.0250149
)
;

boundaryField
{
    outlet
    {
        type            fixedValue;
        value           nonuniform 0();
    }
    upperWall
    {
        type            symmetryPlane;
    }
    lowerWall
    {
        type            symmetryPlane;
    }
    inlet
    {
        type            zeroGradient;
    }
    cylinder
    {
        type            zeroGradient;
    }
    frontAndBack
    {
        type            empty;
    }
    procBoundary4to0
    {
        type            processor;
        value           nonuniform List<scalar> 
33
(
0.223258
0.234084
0.245413
0.0314894
0.0245439
0.0277657
0.0290597
0.0318381
0.0330721
0.0357634
0.0376624
0.0408399
0.0440943
0.0478049
0.0517039
0.0564524
0.0613998
0.0668179
0.0727087
0.0792411
0.0860939
0.0935014
0.101436
0.110031
0.119103
0.128769
0.138964
0.149778
0.161085
0.172911
0.18516
0.197903
0.211109
)
;
    }
    procBoundary4to5
    {
        type            processor;
        value           nonuniform List<scalar> 
45
(
0.257548
0.254076
0.247448
0.22765
0.22765
0.216158
0.195579
0.195579
0.177279
0.177279
0.161118
0.161118
0.145216
0.130194
0.130194
0.114008
0.0992408
0.0867988
0.0754908
0.0646276
0.0543086
0.0445963
0.0354257
0.0267703
0.0186781
0.0111996
0.00436559
-0.00181198
-0.00734271
-0.012251
-0.0165598
-0.0202235
-0.0231492
-0.0253941
-0.0270339
-0.0281269
-0.0287308
-0.0289145
-0.0287582
-0.0283564
-0.0278082
-0.0272051
-0.026618
-0.0260947
-0.0257097
)
;
    }
}


// ************************************************************************* //
