/*--------------------------------*- C++ -*----------------------------------*\
| =========                 |                                                 |
| \\      /  F ield         | OpenFOAM: The Open Source CFD Toolbox           |
|  \\    /   O peration     | Version:                                        |
|   \\  /    A nd           | Website:  www.openfoam.com                      |
|    \\/     M anipulation  |                                                 |
\*---------------------------------------------------------------------------*/
FoamFile
{
    version     2.0;
    format      ascii;
    class       volScalarField;
    location    "154";
    object      p;
}
// * * * * * * * * * * * * * * * * * * * * * * * * * * * * * * * * * * * * * //

dimensions      [0 2 -2 0 0 0 0];


internalField   nonuniform List<scalar> 
1150
(
0.185528
0.195111
0.205307
0.184378
0.193134
0.202426
0.180658
0.188077
0.196112
0.174105
0.179804
0.164752
0.168342
0.152886
0.0574275
0.0525374
0.05534
0.0553895
0.0571034
0.0570396
0.0584329
0.0588241
0.0604302
0.0616076
0.0630931
0.0650067
0.0674057
0.0694665
0.0722097
0.0753557
0.0788296
0.0825859
0.0870252
0.0919072
0.0972862
0.103207
0.109884
0.117124
0.125015
0.133577
0.142867
0.152785
0.163418
0.174801
0.0574023
0.0525964
0.0553749
0.0554669
0.0570306
0.0571337
0.0586158
0.0586699
0.0605744
0.0619162
0.0628707
0.0650842
0.0678853
0.0695007
0.0722754
0.0756092
0.0791647
0.0827896
0.0872395
0.0921515
0.0975571
0.103421
0.110041
0.117197
0.125048
0.133497
0.142708
0.15251
0.163047
0.174222
0.057309
0.0527065
0.0553864
0.0555399
0.0569353
0.0572313
0.0587654
0.0585643
0.0607462
0.062135
0.0626683
0.0652125
0.0682954
0.0694975
0.0724025
0.0758298
0.0793798
0.0829219
0.0873896
0.092225
0.0976085
0.103358
0.109854
0.116822
0.124497
0.132683
0.14161
0.151053
0.161152
0.171675
0.0571531
0.0528627
0.0553817
0.0556051
0.0568265
0.0573255
0.0588746
0.0584448
0.0609465
0.0622326
0.0624941
0.0654035
0.0685285
0.0694906
0.0725902
0.0759422
0.0795405
0.0829708
0.0874604
0.0921434
0.0974235
0.102995
0.109277
0.11593
0.123254
0.130982
0.139383
0.148156
0.157483
0.166868
0.0569346
0.0530633
0.055376
0.0556687
0.0567044
0.0574311
0.0589191
0.0583698
0.0611438
0.0622407
0.0623408
0.0656648
0.0686305
0.0694686
0.0728343
0.0759344
0.0795082
0.0829061
0.0873332
0.0917947
0.0969091
0.102225
0.108213
0.11442
0.121262
0.128334
0.136005
0.143786
0.151956
0.15978
0.0566661
0.0532961
0.0553692
0.0557219
0.0565864
0.0575232
0.0589047
0.0582955
0.0614081
0.0621198
0.0622867
0.0659335
0.068567
0.069548
0.0730874
0.0758477
0.0795599
0.0827619
0.0872348
0.0913132
0.0963329
0.101234
0.10688
0.112463
0.118666
0.124834
0.131481
0.138048
0.14468
0.150537
0.0563507
0.0535592
0.0553422
0.0557769
0.0564627
0.0576286
0.058811
0.0583031
0.0615816
0.0619404
0.0622749
0.0662146
0.0683064
0.0696677
0.0732
0.0756212
0.0793384
0.082475
0.0867241
0.0905537
0.0952105
0.0998556
0.104882
0.10994
0.115195
0.120466
0.125735
0.130571
0.135324
0.138521
0.0560077
0.05384
0.0553264
0.0558163
0.056361
0.0577088
0.058665
0.0583267
0.061761
0.0616992
0.0624179
0.0663829
0.0681271
0.0699276
0.0733256
0.075462
0.0794254
0.0821114
0.0865503
0.0896408
0.0944945
0.0981518
0.103023
0.10679
0.11139
0.114933
0.118975
0.121731
0.124304
0.0556466
0.054128
0.0553339
0.0558587
0.0562702
0.0577737
0.0584773
0.0583856
0.0617698
0.0614981
0.0625926
0.0663993
0.0677394
0.0701527
0.0729436
0.0752035
0.078834
0.0815555
0.0855593
0.08834
0.0926946
0.0961031
0.0999761
0.103202
0.106396
0.109008
0.110566
0.111348
0.111459
0.0552976
0.0544083
0.0552639
0.0558729
0.0562133
0.0578324
0.0582779
0.0585025
0.0617295
0.0613937
0.0628861
0.0664147
0.0677332
0.0705036
0.0729391
0.0753291
0.0789922
0.081235
0.0853854
0.0873185
0.0921142
0.09396
0.0978626
0.0991595
0.101625
0.101707
0.101957
0.0995613
0.0549613
0.0546603
0.0552055
0.0559002
0.0561136
0.057831
0.0580859
0.0584618
0.0613805
0.0612696
0.062932
0.0661191
0.0673154
0.0703047
0.0720105
0.0748886
0.0777402
0.0801646
0.0834636
0.0848467
0.0895428
0.0902052
0.0934802
0.0937093
0.0954378
0.0945818
0.0926868
0.0889618
0.0546606
0.0549042
0.0551298
0.0559363
0.0559964
0.0578198
0.0579151
0.0584794
0.0609179
0.0612429
0.0626869
0.0657226
0.0667777
0.069835
0.0710059
0.0741315
0.0759942
0.0789221
0.0809053
0.0826604
0.0861813
0.0865209
0.088671
0.0884389
0.0888857
0.0870056
0.0831675
0.0781445
0.0544199
0.0551484
0.0550586
0.0559657
0.0559035
0.0577853
0.05778
0.0585276
0.060551
0.0612467
0.0623182
0.0653703
0.0661514
0.0692027
0.0701641
0.0729101
0.0745969
0.0773585
0.0785005
0.0804017
0.0825909
0.0828609
0.0839163
0.0832578
0.0821776
0.0796927
0.075013
0.0698149
0.0542202
0.0553918
0.0550187
0.0559792
0.0558501
0.0576754
0.0576632
0.0586045
0.0601362
0.0612017
0.0620277
0.0648063
0.0655584
0.0683723
0.0693567
0.0713347
0.0733339
0.0753755
0.0760487
0.0776103
0.0792203
0.0790863
0.0790862
0.0780456
0.0759999
0.0730535
0.0682673
0.0631167
0.0540531
0.0556007
0.0550357
0.0559694
0.0558368
0.0574705
0.0575948
0.0586344
0.059811
0.0610634
0.0617778
0.0640584
0.0650406
0.0671969
0.0686042
0.0696806
0.0717479
0.07344
0.0734876
0.0746706
0.0758278
0.0751467
0.0741921
0.0730437
0.0705568
0.0670541
0.0623482
0.0572633
0.0539225
0.0557246
0.0551014
0.0559182
0.0558705
0.0571763
0.0575582
0.0585649
0.0594836
0.0608155
0.0614678
0.0632526
0.0645352
0.0658146
0.0677713
0.068156
0.0697079
0.0715218
0.0710092
0.071581
0.0722016
0.0712844
0.0696122
0.0682488
0.0656562
0.0618171
0.0570902
0.0521291
0.0538377
0.0557179
0.0551924
0.0558198
0.055946
0.0567849
0.057517
0.0584258
0.0590156
0.0605084
0.0610908
0.0623695
0.0640094
0.0643945
0.0665885
0.0668333
0.067516
0.0693434
0.0685558
0.0684964
0.0685721
0.0676234
0.0653894
0.0635968
0.0612188
0.0573779
0.0526094
0.0476785
0.0537931
0.0555566
0.0552789
0.0556958
0.0560101
0.0563866
0.0573499
0.0582876
0.0583882
0.0601369
0.0607269
0.061319
0.0633802
0.063136
0.0649997
0.0655877
0.0653836
0.0667722
0.0660759
0.0655564
0.065054
0.0640323
0.0615813
0.0593435
0.0571024
0.0535626
0.0488863
0.0439411
0.0537741
0.0552616
0.0553053
0.0555885
0.0560002
0.0560309
0.0570499
0.0581387
0.057705
0.0596168
0.0604238
0.0601936
0.062501
0.0621403
0.0631622
0.0641293
0.063442
0.0640929
0.063484
0.0626642
0.0617227
0.0605936
0.0582071
0.0555754
0.0532787
0.0501701
0.0458683
0.0410532
0.0537559
0.0549514
0.0552292
0.05548
0.0559333
0.0557086
0.0566708
0.0579523
0.0570312
0.0589027
0.0601295
0.0591086
0.061248
0.0613254
0.0613505
0.0622511
0.0616184
0.0615598
0.0608282
0.0598345
0.0586461
0.0573634
0.0551243
0.0523585
0.04991
0.0471356
0.0433765
0.0388721
0.0537182
0.0546839
0.0550426
0.0553318
0.0558214
0.0554133
0.0562159
0.0576935
0.0564322
0.0579946
0.0597339
0.05821
0.059683
0.0604405
0.05986
0.0601464
0.059654
0.0592528
0.0583649
0.0571658
0.0557623
0.0543498
0.0523172
0.049666
0.0470807
0.0444633
0.0412229
0.037232
0.0536479
0.0544628
0.0547931
0.0551273
0.0556497
0.0551238
0.0557244
0.0573346
0.0559241
0.0569669
0.0591219
0.0575294
0.0579602
0.0592023
0.0586472
0.0580962
0.0574922
0.0570564
0.0561641
0.0547789
0.0531297
0.0515804
0.0497364
0.0473728
0.044843
0.0423034
0.0394407
0.0359907
0.0535391
0.0542692
0.0545365
0.0548654
0.0554109
0.0548394
0.0552217
0.0568527
0.0554845
0.0559168
0.0582289
0.056964
0.0563414
0.0575404
0.0574847
0.056414
0.0553524
0.0548356
0.0541281
0.0527428
0.0508645
0.0491202
0.0473885
0.0454006
0.0431297
0.0407044
0.0380682
0.0350461
0.0534069
0.0540723
0.0542784
0.0545707
0.055111
0.0545359
0.0547324
0.0562473
0.0550649
0.0549503
0.0570682
0.0563663
0.0549851
0.0556505
0.056143
0.0550574
0.0534655
0.0526177
0.052111
0.0509911
0.0490576
0.0470803
0.0453229
0.0436387
0.041756
0.0395928
0.0371699
0.0344686
0.0532632
0.0538546
0.0540196
0.0542554
0.0547506
0.0542069
0.0542593
0.0555463
0.0546112
0.0540975
0.0557382
0.0555742
0.0539283
0.0538289
0.0545211
0.0537968
0.05197
0.0506273
0.0500835
0.0493625
0.0476362
0.0455219
0.0436453
0.0421202
0.0406141
0.0388313
0.0366931
0.0342492
0.0531099
0.0536136
0.0537443
0.0539419
0.0543451
0.0538432
0.0537959
0.0547833
0.0540662
0.0533564
0.0543847
0.0545351
0.0530673
0.0522821
0.0527633
0.0524397
0.0507518
0.0490334
0.048217
0.0477213
0.0464113
0.0444224
0.0424466
0.0409219
0.0396531
0.0382492
0.0364778
0.0343364
0.0529405
0.0533506
0.0534448
0.053587
0.053896
0.053438
0.0533242
0.0539949
0.0534115
0.0526845
0.0531453
0.0533077
0.0522157
0.051058
0.051094
0.0509509
0.0496188
0.047844
0.0466963
0.0461621
0.0452182
0.0435701
0.0416699
0.0401072
0.0389249
0.0377939
0.0363977
0.0346174
0.0527469
0.0530648
0.0531167
0.0532077
0.0534087
0.0529841
0.0528235
0.0532039
0.0526809
0.0520169
0.052061
0.0520476
0.0512601
0.0500788
0.0496681
0.0494491
0.0484681
0.0468796
0.0455529
0.0448404
0.0440656
0.0428021
0.0411749
0.0396586
0.0384857
0.0374907
0.0363832
0.0349692
0.0525236
0.0527582
0.0527637
0.052794
0.052892
0.052488
0.0522741
0.0524276
0.0519204
0.0513059
0.0511016
0.05089
0.0502396
0.0491943
0.0485095
0.0480984
0.0473131
0.04601
0.0447093
0.0438301
0.0430808
0.0420963
0.0407982
0.0394516
0.0383093
0.03737
0.0364485
0.0353448
0.0522711
0.0524282
0.0523864
0.0523567
0.0523486
0.0519493
0.051694
0.0516673
0.0511578
0.0505834
0.050232
0.0498625
0.049244
0.0483383
0.0475587
0.0469671
0.0462601
0.0452095
0.0440417
0.0430986
0.0423253
0.0414977
0.0404772
0.0393579
0.0383184
0.0374338
0.0366237
0.0357399
0.0519871
0.0520778
0.0519909
0.0518965
0.0517924
0.0513937
0.0511039
0.0509288
0.0504123
0.0498808
0.0494257
0.0489458
0.0483332
0.0475245
0.0467542
0.0460649
0.0453648
0.0444765
0.0434792
0.0425789
0.0417969
0.0410461
0.0402114
0.0393099
0.0384237
0.0376248
0.0368984
0.0361649
0.0516731
0.0517079
0.0515799
0.0514287
0.0512416
0.0508334
0.0505111
0.0502283
0.0497029
0.0492001
0.0486865
0.0481338
0.0475265
0.046789
0.0460545
0.0453335
0.0446298
0.0438519
0.0430072
0.0421925
0.0414382
0.0407384
0.0400292
0.0392994
0.0385675
0.0378775
0.0372386
0.0366189
0.0513334
0.0513247
0.0511615
0.050959
0.0507088
0.0502824
0.0499295
0.0495852
0.049037
0.0485452
0.0480244
0.0474242
0.0468194
0.0461385
0.0454483
0.0447426
0.0440517
0.0433485
0.0426175
0.0419009
0.0412067
0.0405597
0.0399353
0.0393266
0.0387261
0.0381482
0.0376013
0.0370777
0.0509786
0.0509293
0.0507403
0.0505001
0.0502
0.049758
0.0493797
0.0489911
0.04843
0.0479416
0.0474331
0.0468189
0.0462096
0.0455768
0.0449387
0.0442698
0.0436031
0.0429539
0.0423122
0.0416857
0.0410631
0.040473
0.0399172
0.0393984
0.0389015
0.0384226
0.0379642
0.0375283
0.0505757
0.0505299
0.050328
0.0500548
0.0497229
0.049279
0.0488678
0.048454
0.0479049
0.047402
0.0469042
0.0463077
0.0457032
0.0451077
0.044516
0.0438949
0.0432646
0.0426611
0.0420856
0.0415332
0.0409827
0.0404527
0.0399561
0.0395031
0.0390843
0.0386895
0.0383159
0.0379649
0.0502208
0.0501474
0.0499313
0.0496395
0.0492899
0.0488427
0.0484098
0.0479856
0.0474543
0.0469401
0.0464495
0.045888
0.0453029
0.0447317
0.0441778
0.0436073
0.0430235
0.042461
0.0419337
0.0414377
0.0409493
0.0404754
0.0400297
0.039627
0.0392651
0.0389352
0.0386322
0.0383566
0.0498754
0.0497898
0.0495713
0.0492671
0.0489046
0.0484697
0.0480287
0.0475867
0.0470741
0.046562
0.0460731
0.045545
0.0449895
0.0444454
0.0439256
0.0434041
0.0428716
0.0423506
0.0418605
0.0414034
0.0409621
0.0405344
0.0401287
0.0397593
0.0394309
0.0391399
0.0388828
0.0386601
0.0495439
0.04946
0.0492537
0.0489585
0.0486016
0.0481801
0.047733
0.0472836
0.0467919
0.0462846
0.0457926
0.0452891
0.0447687
0.0442567
0.0437693
0.0432948
0.0428183
0.042347
0.0418955
0.0414689
0.0410565
0.0406534
0.0402631
0.0398973
0.039565
0.0392701
0.0390141
0.0387994
0.0492381
0.0491456
0.0489561
0.0486891
0.0483606
0.0479681
0.0475331
0.0470796
0.0465929
0.0460865
0.0455915
0.0451033
0.0446091
0.0441221
0.0436607
0.043227
0.0428111
0.0424142
0.042047
0.0417181
0.0414217
0.0411482
0.0408904
0.0406465
0.040414
0.0401863
0.0399523
0.039699
0.049075
0.0489804
0.0488079
0.0485644
0.0482559
0.0478794
0.0474456
0.0469833
0.0464955
0.0459879
0.0454895
0.0450078
0.0445312
0.0440663
0.0436273
0.0432197
0.0428341
0.0424651
0.0421174
0.0417974
0.0415051
0.0412328
0.0409722
0.0407195
0.040473
0.0402292
0.0399796
0.0397126
)
;

boundaryField
{
    outlet
    {
        type            fixedValue;
        value           nonuniform 0();
    }
    upperWall
    {
        type            symmetryPlane;
    }
    lowerWall
    {
        type            symmetryPlane;
    }
    inlet
    {
        type            zeroGradient;
    }
    cylinder
    {
        type            zeroGradient;
    }
    frontAndBack
    {
        type            empty;
    }
    procBoundary4to0
    {
        type            processor;
        value           nonuniform List<scalar> 
33
(
0.184402
0.194268
0.204828
0.0573874
0.0525291
0.0552751
0.0553112
0.0571536
0.056938
0.0582354
0.0589598
0.0602659
0.0612501
0.0632791
0.0649043
0.0669041
0.0693382
0.0720791
0.0749913
0.07836
0.082211
0.086628
0.0914003
0.0966751
0.102552
0.109182
0.116375
0.124155
0.132648
0.141876
0.151698
0.162233
0.173556
)
;
    }
    procBoundary4to5
    {
        type            processor;
        value           nonuniform List<scalar> 
45
(
0.216636
0.21302
0.205678
0.186415
0.186415
0.173393
0.154186
0.154186
0.138174
0.138174
0.124787
0.124787
0.109318
0.0969446
0.0969446
0.0801866
0.0688925
0.061605
0.0555963
0.0503483
0.0458482
0.0419825
0.0387395
0.0361467
0.0341844
0.0328817
0.0320834
0.0316308
0.0314715
0.0315704
0.0319388
0.0325261
0.0332306
0.0339601
0.0346559
0.0353147
0.0359438
0.0365385
0.0370996
0.0376321
0.0381098
0.0384756
0.0386309
0.0394142
0.0394159
)
;
    }
}


// ************************************************************************* //
