/*--------------------------------*- C++ -*----------------------------------*\
| =========                 |                                                 |
| \\      /  F ield         | OpenFOAM: The Open Source CFD Toolbox           |
|  \\    /   O peration     | Version:                                        |
|   \\  /    A nd           | Website:  www.openfoam.com                      |
|    \\/     M anipulation  |                                                 |
\*---------------------------------------------------------------------------*/
FoamFile
{
    version     2.0;
    format      ascii;
    class       surfaceScalarField;
    location    "154";
    object      phi;
}
// * * * * * * * * * * * * * * * * * * * * * * * * * * * * * * * * * * * * * //

dimensions      [0 3 -1 0 0 0 0];
oriented        oriented;


internalField   nonuniform List<scalar> 
2227
(
0.0481827
0.00395345
-0.0512543
0.0452236
0.00387641
0.00384797
0.0480633
0.00702937
-0.0511392
0.0450832
0.00685651
0.00674868
0.0475989
0.0100826
-0.0506522
0.044634
0.0098214
0.0467261
0.0130969
-0.0497404
0.012749
0.0455399
0.0160169
-0.0484599
-0.0467116
0.0538988
-0.00121133
0.0537409
0.00073266
0.0545641
0.00169384
0.0544764
0.00134597
0.0551891
-0.000399931
0.0551021
0.00102863
0.0556947
-0.000918166
0.055603
-3.68941e-05
0.0560598
0.000647081
0.0559837
0.000463579
0.0562464
0.000686308
0.0561905
0.00160762
0.0564165
0.000923362
0.0563252
0.00128868
0.056447
0.00105861
0.0563271
0.00122609
0.056355
0.000916097
0.0561741
0.00103472
0.0561121
0.000890502
0.0558779
0.00101446
0.0557128
0.000946643
0.0553914
0.00108738
0.0551139
0.00108512
0.054694
0.00125046
0.0542969
0.00127789
0.0537705
0.00144448
0.0532536
0.00148253
0.0526184
0.00163937
0.0519859
0.00167259
0.00180935
0.0539074
-0.00208576
0.0536899
0.000950142
0.0544143
0.000969499
0.054377
0.00138329
0.0550812
-0.00110414
0.0550119
0.00109786
0.0556414
-0.00154767
0.0554824
0.000122116
0.0559326
0.000196938
0.0558428
0.000553333
0.0560125
0.000516582
0.0559797
0.00164041
0.0561846
0.000718482
0.0560627
0.00141062
0.0562043
0.000916989
0.0561025
0.00132795
0.0561502
0.000868365
0.0559805
0.00120441
0.055943
0.000928027
0.0557263
0.00123109
0.0555835
0.00108949
0.0552784
0.00139249
0.0550179
0.00134559
0.0546116
0.00165678
0.0542291
0.00166043
0.0537099
0.00196362
0.0531984
0.00199403
0.0525566
0.00228118
0.0519094
0.0023198
0.00257956
0.0538789
-0.00293165
0.0535757
0.00125334
0.0541739
0.000371251
0.05418
0.00137727
0.0548449
-0.00176907
0.0547852
0.00115759
0.055412
-0.00217447
0.0551712
0.00036288
0.0555957
-0.000227573
0.0554629
0.000686123
0.0555344
0.000445147
0.0555066
0.00166813
0.0556826
0.000542536
0.0555265
0.00156674
0.0556807
0.000762723
0.0555778
0.00143086
0.0556353
0.000810895
0.0554744
0.00136533
0.0554489
0.000953525
0.0552363
0.0014437
0.0551039
0.0012218
0.0547997
0.00169674
0.0545459
0.00159943
0.0541393
0.00206338
0.0537579
0.00204183
0.0532369
0.00248459
0.052723
0.00250794
0.0520812
0.00292293
0.051431
0.00296999
0.00335843
0.0538135
-0.00371214
0.0533953
0.00167151
0.0538458
-7.92401e-05
0.0538889
0.00133415
0.0544884
-0.00236849
0.0544223
0.00122367
0.0550139
-0.00276612
0.0546606
0.000716223
0.0550533
-0.00062027
0.0548258
0.000913571
0.0548176
0.000453403
0.0547808
0.00170489
0.0549118
0.000411605
0.0547389
0.00173962
0.0548879
0.000613693
0.0547691
0.00154963
0.0548278
0.000752264
0.0546561
0.00153695
0.0546358
0.000973909
0.05441
0.00166945
0.0542723
0.00135953
0.0539578
0.00201121
0.0536934
0.00186388
0.0532769
0.00247985
0.0528831
0.00243565
0.052351
0.00301669
0.05183
0.00302892
0.0511775
0.00357545
0.0505282
0.00361924
0.00414624
0.0537098
-0.0043889
0.0531504
0.00223083
0.0534324
-0.000361172
0.0535115
0.00125499
0.0540115
-0.00286851
0.0539346
0.00130058
0.0544348
-0.0032663
0.0539707
0.00118031
0.0542958
-0.000945334
0.0539459
0.00126341
0.0538474
0.000551914
0.0538152
0.00173713
0.0538736
0.000353149
0.0536959
0.00191733
0.0538245
0.000485176
0.0536735
0.00170059
0.053727
0.000698742
0.0535416
0.00172241
0.0535077
0.0010078
0.0532626
0.00191451
0.0531105
0.00151166
0.0527683
0.00235343
0.0524875
0.00214468
0.052042
0.00292528
0.0516369
0.00284078
0.0510807
0.0035729
0.0505558
0.00355385
0.0498932
0.004238
0.0492422
0.00427024
0.00492859
0.0535682
-0.00492414
0.0528426
0.00295649
0.0529428
-0.000461346
0.0530519
0.00114587
0.0534284
-0.00324502
0.0533111
0.00141787
0.0536906
-0.00364576
0.0530814
0.00178943
0.0533374
-0.00120133
0.0528016
0.00179925
0.052669
0.00068452
0.0526133
0.00179281
0.0526028
0.000363682
0.0524258
0.00209434
0.0525139
0.000397014
0.0523013
0.00191318
0.0523476
0.000652481
0.0521198
0.00195019
0.0520779
0.00104968
0.0517665
0.00222598
0.0515991
0.00167899
0.0512089
0.00274366
0.0509017
0.00245186
0.0504142
0.00341279
0.0499793
0.00327568
0.0494041
0.00414807
0.0488557
0.00410227
0.0481775
0.00491621
0.0475184
0.00492937
0.00573533
0.0533847
-0.00527587
0.0524742
0.00386697
0.0523851
-0.000372187
0.0525257
0.00100524
0.0527358
-0.00345509
0.0525752
0.00157841
0.052755
-0.00382556
0.0520309
0.00251359
0.0521592
-0.00132964
0.0514533
0.00250517
0.0512443
0.000893538
0.0511999
0.00183719
0.0510847
0.000478873
0.0509462
0.00223281
0.050931
0.000412207
0.0507226
0.00212162
0.0506978
0.000677257
0.0504339
0.00221416
0.0503533
0.00113024
0.0500155
0.0025638
0.0497745
0.00192001
0.0493434
0.00317473
0.0489681
0.00282715
0.0484534
0.00392752
0.0479536
0.00377544
0.0473557
0.00474593
0.0467965
0.0046615
0.0461247
0.00558798
0.0454934
0.00556072
0.053158
-0.00540086
0.0520388
0.0049862
0.051773
-0.000106451
0.051937
0.000841299
0.0519452
-0.0034633
0.0517027
0.00182087
0.0516614
-0.00378427
0.0507929
0.00338209
0.0507755
-0.00131221
0.049872
0.00340865
0.0496787
0.00108683
0.0495662
0.00194968
0.0493897
0.000655458
0.0492315
0.00239098
0.0491155
0.000528225
0.0488605
0.00237659
0.0488132
0.000724531
0.0484251
0.00260231
0.0483381
0.00121725
0.0478567
0.00304519
0.0476392
0.00213745
0.0470411
0.00377283
0.0466922
0.00317607
0.046033
0.00458671
0.0455723
0.00423618
0.0449002
0.00541801
0.0443364
0.00522535
0.0436428
0.00628151
0.00620436
0.0528914
-0.00525926
0.0515332
0.00634439
0.0510913
0.000335455
0.0513017
0.000630946
0.0510301
-0.00319173
0.0507117
0.00213923
0.0503593
-0.00343182
0.0494154
0.004326
0.0491497
-0.0010466
0.0480825
0.00447588
0.0479216
0.00124772
0.0477578
0.0021135
0.0474526
0.000960719
0.0473195
0.00252401
0.0470131
0.00083466
0.0468018
0.0025879
0.046626
0.000900301
0.0462578
0.00297051
0.0460136
0.00146141
0.0455192
0.0035396
0.0451242
0.00253247
0.0445412
0.00435578
0.0439889
0.00372847
0.0433582
0.00521738
0.0427299
0.00486442
0.0421097
0.00603825
0.0415323
0.00580271
0.0408052
0.0070087
0.0526255
-0.00485171
0.0510223
0.00794756
0.0503737
0.000984052
0.0506468
0.000357825
0.0500175
-0.00256242
0.0495626
0.00259415
0.0489713
-0.00284053
0.0478445
0.00545276
0.0474548
-0.000656849
0.0462444
0.00568629
0.0460031
0.00148897
0.0458608
0.00225579
0.045458
0.00136358
0.0451236
0.00285841
0.0447046
0.00125366
0.0444942
0.0027983
0.0441327
0.00126174
0.0436991
0.00340414
0.0434514
0.00170907
0.0426775
0.00431349
0.0423532
0.00285677
0.0414128
0.00529618
0.0410354
0.00410591
0.0400746
0.00617821
0.0396878
0.00525118
0.0389068
0.00681926
0.0384949
0.00621459
0.00756134
0.048078
-0.00510115
0.0474607
0.00856487
0.047326
0.00111871
0.048174
-0.000490169
0.0479868
-0.00237522
0.048166
0.002415
0.0480891
-0.00276365
0.0476388
0.00590308
0.0477124
-0.000730498
0.0470897
0.00630902
0.047232
0.00134673
0.0474042
0.00208358
0.0473427
0.00142506
0.047233
0.00296813
0.0471378
0.00134883
0.0473542
0.00258186
0.0471975
0.00141844
0.0472931
0.00330863
0.0473333
0.00166887
0.0471228
0.00452397
0.0473458
0.00263374
0.0467426
0.00589935
0.0471448
0.0037038
0.0464454
0.00687759
0.0469117
0.00478489
0.0464367
0.00729422
0.0468564
0.00579485
0.00753977
0.0512009
-0.00515406
0.0508984
0.00886744
0.0507432
0.00127392
0.0514294
-0.00117637
0.0510763
-0.00202215
0.0514066
0.00208473
0.0511112
-0.00246832
0.0509954
0.00601895
0.0507373
-0.000472392
0.0504707
0.00657557
0.0506271
0.00119038
0.05083
0.00188063
0.0503258
0.00192928
0.0505607
0.00273318
0.0502519
0.00165772
0.050627
0.00220676
0.0503139
0.00173151
0.0507863
0.0028362
0.0503588
0.00209637
0.0506177
0.00426511
0.0502972
0.00295426
0.0503659
0.00583065
0.0501692
0.00390047
0.0501143
0.00693245
0.0501089
0.0047903
0.0502554
0.00714774
0.0505242
0.00552604
0.00702284
0.0545108
-0.00496705
0.0547242
0.00865403
0.0545122
0.00148597
0.0547446
-0.00140874
0.0543821
-0.0016597
0.0546998
0.00176701
0.0542849
-0.00205342
0.054518
0.00578583
0.0540363
9.30903e-06
0.0542229
0.00638898
0.0541581
0.00125522
0.054359
0.00167971
0.0536822
0.00260607
0.0540221
0.00239334
0.053596
0.00208374
0.0539953
0.00180752
0.0536297
0.00209708
0.0541219
0.00234396
0.0536646
0.00255375
0.0539339
0.00399572
0.0535119
0.00337628
0.053804
0.00553857
0.0535392
0.00416531
0.0538302
0.00664138
0.0537226
0.00489798
0.0542212
0.00664907
0.0543468
0.00540042
0.00640913
0.058118
-0.00459104
0.0589036
0.00786847
0.0585869
0.0018026
0.0583249
-0.00114673
0.0579967
-0.00133147
0.0582202
0.00154353
0.0577651
-0.00159836
0.0583554
0.00519554
0.0578818
0.000482925
0.0583765
0.00589421
0.0579434
0.00168837
0.0582111
0.00141201
0.0577474
0.0030698
0.057862
0.00227874
0.0573774
0.00256832
0.0576451
0.00153983
0.057266
0.00247617
0.057535
0.00207498
0.0573173
0.00277144
0.05747
0.00384301
0.0572151
0.00363117
0.0573913
0.00536231
0.0573965
0.00416014
0.0577158
0.0063221
0.057798
0.00481579
0.0582949
0.0061521
0.0585191
0.00517627
0.00577509
0.0620264
-0.00406379
0.0632627
0.00663222
0.0629541
0.00211113
0.0622962
-0.000488773
0.0619371
-0.000972407
0.0621019
0.00137871
0.0615962
-0.00109266
0.062492
0.00429976
0.0621634
0.000811526
0.0627742
0.00528338
0.062139
0.00232366
0.062387
0.00116393
0.0623145
0.00314238
0.062124
0.00246916
0.0616194
0.00307294
0.0615688
0.00159045
0.0612869
0.00275805
0.0612463
0.00211561
0.061262
0.00275571
0.061384
0.00372102
0.0614532
0.003562
0.0615644
0.00525109
0.0617223
0.00400225
0.0621397
0.00590474
0.0622693
0.00468619
0.0627978
0.00562359
0.0630592
0.00491483
0.00515093
0.0662333
-0.00340204
0.0676993
0.00516628
0.0675519
0.00225847
0.0666595
0.00040363
0.066225
-0.000537841
0.0663532
0.00125051
0.065785
-0.000524501
0.0668013
0.0032835
0.0666703
0.000942533
0.0673047
0.00464897
0.0667129
0.0029154
0.0667627
0.00111414
0.0670502
0.00285487
0.0666801
0.00283928
0.0662767
0.00347636
0.0658177
0.00204939
0.0656758
0.00290004
0.0654593
0.00233209
0.06553
0.00268497
0.0656791
0.00357191
0.065978
0.00326317
0.0662232
0.00500584
0.0664114
0.00381408
0.0669551
0.00536106
0.0671115
0.00452976
0.0676602
0.00507489
0.0679284
0.00464665
0.00457112
0.0708374
-0.00270167
0.0722498
0.00375389
0.0722524
0.00225586
0.0713756
0.00128042
0.0709263
-8.85339e-05
0.070954
0.0012228
0.0704616
-3.21197e-05
0.071285
0.00246012
0.0713646
0.000862917
0.0719529
0.00406069
0.0715742
0.00329411
0.071379
0.00130931
0.0717816
0.00245228
0.0714642
0.00315672
0.0712557
0.00368482
0.0705859
0.00271916
0.0704692
0.0030168
0.0701783
0.00262293
0.0702341
0.00262919
0.0703632
0.00344283
0.0706954
0.00293091
0.0711553
0.00454599
0.0713491
0.00362025
0.0719767
0.00473347
0.0722218
0.0042847
0.0727624
0.00453426
0.0730832
0.00432588
0.00406443
0.0759241
-0.00212307
0.0770542
0.00262373
0.0770197
0.00229042
0.0763557
0.00194437
0.076069
0.000198224
0.0759466
0.00134517
0.0757204
0.00019407
0.0761331
0.00204741
0.0762836
0.000712384
0.0768712
0.00347317
0.0766327
0.00353252
0.0762732
0.00166889
0.07656
0.00216545
0.0764146
0.00330213
0.0764535
0.00364589
0.0758653
0.0033074
0.0757511
0.00313102
0.0754227
0.0029513
0.0754634
0.00258853
0.0755579
0.00334827
0.0758053
0.00268358
0.0763544
0.00399683
0.0765795
0.00339521
0.0772108
0.00410214
0.0775681
0.00392743
0.0781119
0.00399036
0.0785059
0.00393194
0.00360224
0.0814935
-0.00180443
0.082237
0.00188028
0.081979
0.00254845
0.0815909
0.00233244
0.081604
0.000185135
0.0813753
0.00157391
0.0814615
0.00010786
0.0815592
0.00194967
0.0815268
0.000744835
0.0820918
0.00290812
0.081899
0.00372531
0.081479
0.00208893
0.0815513
0.00209309
0.0815548
0.00329871
0.0818042
0.0033965
0.0815011
0.00361046
0.081483
0.00314909
0.0812116
0.00322273
0.0812469
0.00255322
0.0813379
0.00325728
0.0814885
0.00253298
0.081987
0.00349835
0.0822606
0.00312158
0.0828211
0.00354165
0.0832471
0.0035015
0.0837623
0.00347516
0.084204
0.00349019
0.00317205
0.0874473
-0.0017615
0.0877887
0.00153878
0.0872286
0.00310857
0.0871762
0.00238482
0.0874421
-8.06872e-05
0.0872687
0.00174729
0.0875758
-0.00019926
0.0874796
0.00204591
0.0872028
0.00102163
0.0876119
0.00249893
0.0874483
0.003889
0.0870472
0.00249001
0.0869275
0.00221275
0.087018
0.00320826
0.0873704
0.00304405
0.0874088
0.00357211
0.0875499
0.00300796
0.0874529
0.00331973
0.0875259
0.00248019
0.0876471
0.00313615
0.0877555
0.00242456
0.0881489
0.00310495
0.0884354
0.00283505
0.0888834
0.00309362
0.0893136
0.00307132
0.0897616
0.00302714
0.0902108
0.00304099
0.00278697
0.0937146
-0.00191382
0.0936753
0.00157807
0.092959
0.00382481
0.093266
0.0020779
0.0936099
-0.000424617
0.0935641
0.00179308
0.093962
-0.000597128
0.0937416
0.00226628
0.0933201
0.00144317
0.0934798
0.00233917
0.0933655
0.0040033
0.0930495
0.00280606
0.092837
0.00242526
0.0930026
0.00304267
0.093303
0.00274359
0.0936238
0.00325132
0.0939267
0.00270502
0.0940416
0.00320489
0.0941811
0.00234064
0.0943523
0.00296498
0.0944813
0.0022956
0.094768
0.0028182
0.0950441
0.00255898
0.0953765
0.00276124
0.0957633
0.00268448
0.0961218
0.00266865
0.0965255
0.00263724
0.00246867
0.100233
-0.0020906
0.0999437
0.00186686
0.099399
0.00436957
0.0999143
0.00156252
0.100154
-0.000663785
0.100236
0.00171036
0.100516
-0.000877051
0.100283
0.00249939
0.099853
0.00187321
0.0997737
0.00241851
0.0997979
0.0039791
0.0996128
0.00299113
0.0994026
0.00263541
0.0996144
0.00283095
0.0998311
0.00252683
0.100261
0.00282163
0.100637
0.00232907
0.100933
0.00290855
0.10111
0.00216376
0.101337
0.00273761
0.101484
0.00214891
0.10171
0.00259211
0.101959
0.00231
0.102197
0.0025236
0.102519
0.00236214
0.102787
0.00240113
0.103132
0.00229153
0.00221124
0.107101
-0.00219136
0.106673
0.00229482
0.106462
0.00457982
0.107107
0.00091792
0.107132
-0.000688288
0.107293
0.00154889
0.107355
-0.000939412
0.107126
0.00272872
0.106825
0.0021744
0.106603
0.00264069
0.10676
0.00382175
0.106725
0.00302654
0.106599
0.00276087
0.106891
0.0025394
0.107021
0.00239669
0.107431
0.00241189
0.10775
0.00200942
0.108137
0.00252221
0.10833
0.00197072
0.108574
0.00249271
0.108743
0.00198057
0.108933
0.00240183
0.109157
0.00208648
0.109339
0.00234105
0.109599
0.00210188
0.109806
0.00219479
0.110089
0.00200834
0.00199819
0.114392
-0.0021576
0.113995
0.00269204
0.114139
0.00443618
0.114733
0.00032401
0.114563
-0.000518517
0.114725
0.00138692
0.114574
-0.000788299
0.114412
0.00288998
0.114273
0.00231412
0.114052
0.00286136
0.114307
0.00356639
0.114404
0.00293029
0.114377
0.00278791
0.114687
0.002229
0.1148
0.00228339
0.115114
0.00209765
0.115328
0.00179624
0.115693
0.00215687
0.115885
0.00177825
0.116122
0.00225663
0.116289
0.00181321
0.116472
0.00221925
0.116679
0.00187926
0.116851
0.00216889
0.11707
0.00188261
0.117247
0.00201764
0.117478
0.0017778
0.00180937
0.122165
-0.0019553
0.121981
0.00287623
0.12244
0.00397733
0.122766
-2.5816e-06
0.122469
-0.000220875
0.122578
0.00127806
0.122258
-0.000468729
0.122254
0.00289403
0.122261
0.00230664
0.122171
0.0029514
0.122497
0.00324088
0.122654
0.00277319
0.122723
0.00271863
0.122964
0.0019886
0.123095
0.00215172
0.123296
0.00189708
0.123409
0.00168304
0.123681
0.00188546
0.123848
0.00161082
0.124069
0.0020353
0.124218
0.00166416
0.124414
0.00202409
0.1246
0.00169241
0.124798
0.00197089
0.124996
0.00168522
0.125186
0.00182719
0.125386
0.0015778
0.00161822
0.130542
-0.00163677
0.130612
0.00280613
0.131218
0.00337134
0.131259
-4.41296e-05
0.130922
0.00011659
0.130967
0.0012323
0.130586
-8.71756e-05
0.130729
0.00275047
0.130838
0.00219779
0.130906
0.00288334
0.131258
0.00288974
0.131452
0.00257868
0.131579
0.00259206
0.131719
0.00184837
0.131865
0.00200602
0.131994
0.00176767
0.13205
0.00162684
0.132223
0.00171309
0.132348
0.00148558
0.132557
0.00182638
0.132686
0.00153451
0.132886
0.0018243
0.133056
0.00152225
0.133278
0.00174882
0.133472
0.00149172
0.133683
0.0016158
0.133874
0.00138739
0.00142096
0.13957
-0.00126435
0.139857
0.00251881
0.140477
0.00275173
0.140284
0.000148342
0.139979
0.000421963
0.139977
0.00123412
0.139615
0.000274882
0.139867
0.00249835
0.140025
0.00203935
0.140223
0.00268597
0.140553
0.00255984
0.140763
0.00236815
0.140942
0.00241311
0.140995
0.00179557
0.141139
0.00186172
0.141224
0.00168258
0.141269
0.00158236
0.141374
0.00160819
0.141461
0.00139802
0.141655
0.00163224
0.14178
0.0014101
0.141985
0.00161896
0.142141
0.00136643
0.142372
0.00151794
0.14256
0.00130343
0.142785
0.00139101
0.142971
0.00120144
0.00121902
0.149304
-0.000914274
0.149689
0.00213435
0.150212
0.00222867
0.149931
0.000428976
0.149695
0.000658473
0.149681
0.00124807
0.149399
0.00055663
0.149684
0.00221347
0.149853
0.00187014
0.15011
0.00242868
0.150394
0.00227602
0.1506
0.00216228
0.150806
0.00220718
0.150833
0.00176895
0.150957
0.00173779
0.151036
0.0016033
0.151102
0.00151659
0.151194
0.00151546
0.151271
0.00132134
0.15145
0.00145342
0.151581
0.00127893
0.151784
0.00141615
0.151935
0.00121548
0.152151
0.00130156
0.15233
0.00112453
0.152545
0.00117576
0.152724
0.00102322
0.00102811
0.159745
-0.000618047
0.160134
0.00174505
0.160545
0.00181805
0.160271
0.000702818
0.160104
0.000824808
0.160105
0.00124714
0.15991
0.000751837
0.160194
0.00192976
0.160368
0.00169627
0.160641
0.00215589
0.160886
0.00203101
0.161066
0.00198174
0.161278
0.00199506
0.161328
0.00171953
0.161434
0.00163158
0.161525
0.00151262
0.161617
0.00142418
0.161724
0.0014083
0.161809
0.00123695
0.16197
0.00129199
0.162105
0.00114402
0.162298
0.00122301
0.162447
0.00106649
0.16264
0.00110837
0.162802
0.000962938
0.162993
0.00098486
0.163153
0.000863369
0.000859051
0.170926
-0.000395569
0.171255
0.00141595
0.171548
0.00152487
0.171344
0.00090667
0.171263
0.000905842
0.171295
0.00121525
0.171182
0.000865237
0.17143
0.00168178
0.171592
0.00153428
0.17184
0.00190709
0.17206
0.00181184
0.172232
0.00180962
0.172438
0.0017888
0.172537
0.00162001
0.172653
0.0015163
0.172759
0.00140674
0.172872
0.001311
0.172996
0.001284
0.173097
0.00113597
0.173243
0.00114626
0.173373
0.00101394
0.173543
0.00105295
0.173683
0.000926282
0.173848
0.000943509
0.173988
0.000823058
0.174146
0.00082638
0.174283
0.000726948
0.000717
0.182866
-0.000234816
0.183128
0.00115312
0.183347
0.00130605
0.183219
0.00103508
0.183203
0.000921461
0.183272
0.00114619
0.183219
0.000919054
0.183427
0.00147343
0.183575
0.00138605
0.183793
0.00168883
0.183996
0.00160915
0.18417
0.00163524
0.184369
0.00159004
0.184507
0.00148234
0.184642
0.00138111
0.184764
0.00128515
0.184892
0.00118259
0.185026
0.00114985
0.185139
0.00102272
0.185273
0.00101244
0.185394
0.000893285
0.185541
0.000905534
0.185668
0.000799855
0.185808
0.000802941
0.185927
0.000703997
0.186058
0.00069627
0.18617
0.000614052
0.000600365
0.195617
-0.00012255
0.195822
0.00094764
0.195995
0.00113324
0.195939
0.00109062
0.19596
0.000900753
0.196057
0.00104899
0.19606
0.000916008
0.196241
0.00129302
0.196385
0.00124191
0.196582
0.00149191
0.196767
0.00142375
0.196941
0.00146126
0.197127
0.00140404
0.197281
0.0013289
0.197429
0.00123264
0.197565
0.00114961
0.197699
0.00104783
0.197839
0.00101016
0.197962
0.000900177
0.198094
0.000880522
0.198211
0.000776321
0.198343
0.000773209
0.198458
0.000684299
0.198582
0.000679204
0.198687
0.000598718
0.198797
0.000586246
0.198893
0.000518999
0.000504034
0.209237
-4.60882e-05
0.20939
0.000794182
0.209546
0.00097716
0.209568
0.0010685
0.2096
0.000868581
0.209701
0.00094804
0.20975
0.000867334
0.209917
0.00112588
0.210065
0.00109417
0.210258
0.00129872
0.210433
0.00124923
0.210605
0.00128922
0.21078
0.00122893
0.210934
0.00117438
0.211084
0.00108293
0.211222
0.00101143
0.211356
0.000913722
0.211495
0.000871294
0.21162
0.000775518
0.21175
0.00075013
0.211865
0.000661966
0.211989
0.000649063
0.212098
0.000575316
0.212212
0.000565015
0.212309
0.000501276
0.212408
0.000487364
0.212493
0.000434416
0.000419143
0.223796
-2.18379e-06
0.223916
0.000674723
0.224048
0.000845148
0.224135
0.000980927
0.22419
0.000813679
0.224287
0.000851372
0.22437
0.00078427
0.224526
0.000970082
0.224669
0.000950598
0.224859
0.00110908
0.225026
0.00108181
0.2252
0.00111575
0.22537
0.00105867
0.225527
0.00101717
0.225677
0.00093271
0.225817
0.000871771
0.22595
0.000780498
0.226084
0.000737757
0.226206
0.00065375
0.226329
0.000626252
0.226439
0.000552526
0.226553
0.00053522
0.226653
0.000475081
0.226756
0.000461984
0.226845
0.000411995
0.226935
0.000397914
0.227013
0.000356085
0.00034155
0.239354
1.92368e-05
0.239455
0.000573789
0.239572
0.000727491
0.239698
0.000855424
0.239779
0.000732628
0.239879
0.000751274
0.239979
0.00068459
0.240127
0.000821402
0.240266
0.000812273
0.240448
0.000926348
0.240616
0.000914547
0.240791
0.000940441
0.24096
0.000889088
0.241122
0.000855548
0.241274
0.0007806
0.241416
0.000729903
0.241547
0.00064922
0.241676
0.000609315
0.241791
0.000538132
0.241906
0.000511188
0.242008
0.000451387
0.24211
0.000432701
0.242201
0.000384639
0.242292
0.000370411
0.242372
0.000331671
0.242452
0.000318336
0.242522
0.000286159
0.000272589
0.255981
2.69907e-05
0.256076
0.000478263
0.256189
0.000615109
0.256323
0.000721442
0.256431
0.000624517
0.256543
0.000639416
0.256651
0.000575957
0.256796
0.000676889
0.256934
0.000674281
0.257107
0.000753185
0.257275
0.000746535
0.257449
0.00076605
0.257619
0.000719613
0.257782
0.000692339
0.257936
0.000626804
0.258079
0.000586945
0.25821
0.000518318
0.258334
0.000484836
0.258445
0.00042739
0.258553
0.000403292
0.258648
0.000355701
0.258743
0.000338149
0.258827
0.000300575
0.25891
0.00028732
0.258984
0.000257894
0.259056
0.000246525
0.25912
0.000221488
0.000210261
0.273752
2.96575e-05
0.273844
0.000385973
0.273961
0.000498021
0.274103
0.000579585
0.274223
0.000505259
0.274343
0.00051946
0.274457
0.000461261
0.274602
0.000532146
0.274746
0.000530402
0.274915
0.000584367
0.275084
0.000577473
0.275258
0.000591683
0.275425
0.000552674
0.275586
0.000531302
0.275736
0.000477187
0.275876
0.000446872
0.276003
0.000391422
0.276124
0.000363482
0.276235
0.000316502
0.276339
0.000299462
0.276432
0.000262794
0.276522
0.000247725
0.276604
0.000218111
0.276686
0.000206074
0.276761
0.000182745
0.276835
0.000172911
0.276902
0.000154281
0.000145704
0.292752
3.21142e-05
0.292851
0.00028654
0.292968
0.000380713
0.293112
0.000435574
0.293231
0.000386393
0.293363
0.000387454
0.29348
0.00034435
0.293629
0.000383273
0.293777
0.000382306
0.293949
0.000412738
0.294118
0.000408045
0.294294
0.000415818
0.294456
0.000390851
0.294613
0.000374408
0.294753
0.000337039
0.294886
0.000313641
0.295005
0.000272261
0.29512
0.000248437
0.295224
0.000213251
0.295329
0.000193925
0.295426
0.000165542
0.295524
0.000150044
0.295615
0.000127201
0.295706
0.00011463
0.295792
9.68041e-05
0.295878
8.7198e-05
0.295958
7.39407e-05
6.7205e-05
0.313084
2.05171e-05
0.313226
0.000144156
0.313406
0.000200564
0.313619
0.000222895
0.313803
0.000201892
0.313993
0.000197288
0.31416
0.000178112
0.31435
0.000192733
0.314537
0.000195704
0.314741
0.000208282
0.314941
0.00020823
0.315147
0.000209538
0.315341
0.00019772
0.315528
0.000186947
0.315696
0.000168567
0.315855
0.000155216
0.315991
0.000136592
0.316115
0.000124146
0.316219
0.000108795
0.316313
9.99078e-05
0.316392
8.69281e-05
0.316463
7.88371e-05
0.316522
6.81352e-05
0.316576
6.13329e-05
0.31662
5.27308e-05
0.31666
4.72856e-05
0.316693
4.06643e-05
3.65443e-05
0.334821
0.334965
0.335165
0.335388
0.33559
0.335787
0.335966
0.336158
0.336354
0.336562
0.33677
0.33698
0.337178
0.337365
0.337533
0.337688
0.337825
0.337949
0.338058
0.338158
0.338245
0.338324
0.338392
0.338453
0.338506
0.338553
0.338594
)
;

boundaryField
{
    outlet
    {
        type            calculated;
        value           nonuniform 0();
    }
    upperWall
    {
        type            symmetryPlane;
        value           uniform 0;
    }
    lowerWall
    {
        type            symmetryPlane;
        value           nonuniform 0();
    }
    inlet
    {
        type            calculated;
        value           nonuniform List<scalar> 
40
(
-0.053033
-0.053033
-0.053033
-0.053033
-0.053033
-0.053033
-0.053033
-0.053033
-0.053033
-0.053033
-0.0478286
-0.051148
-0.0546978
-0.058494
-0.0625537
-0.0668951
-0.0715378
-0.0765027
-0.0818122
-0.0874902
-0.0935622
-0.100056
-0.107
-0.114426
-0.122367
-0.13086
-0.139942
-0.149655
-0.160041
-0.171148
-0.183026
-0.195729
-0.209313
-0.22384
-0.239375
-0.255988
-0.273755
-0.292754
-0.313072
-0.3348
)
;
    }
    cylinder
    {
        type            calculated;
        value           nonuniform 0();
    }
    frontAndBack
    {
        type            empty;
        value           nonuniform 0();
    }
    procBoundary4to0
    {
        type            processor;
        value           nonuniform List<scalar> 
33
(
-0.000881895
-0.000917311
-0.000963137
0.000345564
-0.00057483
-0.00251698
-0.00125825
-0.00031283
-0.000941635
0.000325602
0.000128582
-0.00110392
-0.000387416
-0.00094902
-0.00155168
-0.00114944
-0.00119731
-0.00118048
-0.00110616
-0.000944016
-0.000853775
-0.000828519
-0.000780319
-0.00078151
-0.000765995
-0.000807535
-0.000830652
-0.000880706
-0.0009181
-0.000965644
-0.00100418
-0.00104008
-0.00107774
)
;
    }
    procBoundary4to5
    {
        type            processor;
        value           nonuniform List<scalar> 
45
(
0.0423388
0.0421824
0.0417502
0.00963253
0.0437985
0.0426766
0.0156123
0.0438897
0.0188388
0.0446749
0.00655383
0.0429992
0.0401488
0.00686071
0.0379423
0.046878
0.0510412
0.0549605
0.0591531
0.0636834
0.0685082
0.0735899
0.0789681
0.0846342
0.0905959
0.0968438
0.10339
0.110302
0.117667
0.125577
0.134071
0.143173
0.152915
0.163322
0.174425
0.186287
0.198989
0.212578
0.227091
0.242591
0.259183
0.276966
0.296037
0.316723
0.33863
)
;
    }
}


// ************************************************************************* //
