/*--------------------------------*- C++ -*----------------------------------*\
| =========                 |                                                 |
| \\      /  F ield         | OpenFOAM: The Open Source CFD Toolbox           |
|  \\    /   O peration     | Version:                                        |
|   \\  /    A nd           | Website:  www.openfoam.com                      |
|    \\/     M anipulation  |                                                 |
\*---------------------------------------------------------------------------*/
FoamFile
{
    version     2.0;
    format      ascii;
    class       volVectorField;
    location    "187";
    object      U;
}
// * * * * * * * * * * * * * * * * * * * * * * * * * * * * * * * * * * * * * //

dimensions      [0 1 -1 0 0 0 0];


internalField   nonuniform List<vector> 
1139
(
(1.46529 -0.0733968 5.93754e-20)
(1.49016 -0.0535451 -9.42734e-20)
(1.4804 -0.0218714 1.65581e-20)
(1.44614 -0.0327264 6.84327e-20)
(1.47722 0.0127422 5.26866e-21)
(1.43483 -0.0101583 -1.6526e-20)
(1.4635 0.045026 -2.01142e-20)
(1.42155 0.013837 -4.11247e-20)
(1.38432 -0.0132243 -3.73851e-20)
(1.44248 0.0716705 -3.42183e-20)
(1.39943 0.040502 7.24386e-20)
(1.36395 0.00786343 6.35836e-20)
(1.41686 0.0994705 3.20591e-20)
(1.37512 0.0648765 -7.63858e-21)
(1.34926 0.0222325 -6.71636e-20)
(1.38337 0.139578 1.34621e-20)
(1.35459 0.0788998 -2.94686e-20)
(1.3198 0.0503058 2.76954e-20)
(1.30223 0.00727244 4.12138e-20)
(1.35451 0.126459 2.73246e-20)
(1.32209 0.100424 -7.63412e-20)
(1.29938 0.0524091 -8.56512e-21)
(1.27983 0.0182389 -1.47384e-20)
(1.30846 0.205342 4.08409e-20)
(1.29396 0.124443 5.34635e-20)
(1.27947 0.0700783 4.66757e-21)
(1.25708 0.0491864 -6.77969e-21)
(-0.374679 -0.280105 -3.72862e-20)
(-0.43976 -0.504052 4.23458e-20)
(-0.459235 -0.537203 2.32954e-20)
(-0.405345 -0.584204 -1.56581e-19)
(-0.289477 -0.660522 -3.12547e-20)
(-0.157493 -0.684972 -3.21656e-20)
(-0.478509 -0.718679 1.00041e-21)
(-0.500504 -0.724926 -6.54662e-21)
(-0.459904 -0.740538 4.63685e-20)
(-0.312166 -0.784439 1.04593e-19)
(-0.176601 -0.780295 2.24109e-19)
(-0.0668353 -0.804501 1.95235e-19)
(-0.496868 -0.907508 -1.74528e-20)
(-0.533572 -0.89759 1.21352e-19)
(-0.477538 -0.889397 8.6026e-20)
(-0.301425 -0.87002 -9.34628e-20)
(-0.16664 -0.850656 -3.17375e-19)
(8.92013e-05 -0.809249 -8.37244e-21)
(0.0452447 -0.792829 -1.26711e-19)
(-0.510587 -1.08084 2.42617e-20)
(-0.5484 -1.05977 -8.67049e-20)
(-0.437289 -0.987264 -3.87954e-20)
(-0.25141 -0.914127 -3.03348e-20)
(-0.105007 -0.90101 3.62637e-19)
(0.074603 -0.799226 -7.71195e-20)
(0.102726 -0.777063 -2.15906e-20)
(0.186148 -0.629249 -1.06964e-20)
(-0.511261 -1.23839 1.90415e-20)
(-0.501419 -1.15384 -3.01936e-20)
(-0.36092 -1.03051 -7.47829e-20)
(-0.188149 -0.956067 1.73061e-20)
(0.0118791 -0.875734 -7.76301e-21)
(0.168177 -0.757837 -5.62237e-20)
(0.249736 -0.726042 -2.70761e-19)
(0.267467 -0.540262 -8.49487e-20)
(0.0478928 -0.376781 -1.28766e-20)
(-0.467734 -1.33529 -4.29999e-20)
(-0.420964 -1.18693 4.48016e-21)
(-0.269569 -1.04327 1.06723e-19)
(-0.0501653 -0.929225 6.92739e-20)
(0.182942 -0.778247 -2.46636e-19)
(0.292549 -0.700125 1.50448e-19)
(0.428779 -0.598437 5.06841e-20)
(0.333414 -0.468094 1.5067e-19)
(0.331582 -0.300996 6.33949e-20)
(0.820045 -0.115263 2.76468e-20)
(-0.40247 -1.36607 3.08162e-20)
(-0.315042 -1.16967 6.75962e-20)
(-0.105424 -0.983412 -2.37778e-20)
(0.135813 -0.817851 -1.42022e-19)
(0.309862 -0.680324 1.36102e-19)
(0.461054 -0.59623 -1.99917e-20)
(0.574675 -0.467374 -8.7493e-20)
(0.460451 -0.396882 8.68505e-20)
(0.710791 -0.20404 -1.06539e-19)
(1.22054 -0.0770271 4.8916e-20)
(-0.291581 -1.31553 -3.45323e-20)
(-0.160108 -1.06822 -3.70227e-20)
(0.0649258 -0.897968 -2.01791e-19)
(0.277639 -0.758483 -2.36796e-20)
(0.468759 -0.595532 -2.87388e-20)
(0.657592 -0.443247 1.79985e-19)
(0.654849 -0.372919 -1.24651e-19)
(0.704718 -0.277774 8.36034e-20)
(1.12727 -0.100237 1.82373e-20)
(1.48522 -0.0435669 -1.3141e-19)
(-0.137136 -1.17809 -3.19135e-20)
(0.0233849 -0.872618 1.34068e-19)
(0.253982 -0.696918 2.35074e-19)
(0.485176 -0.546932 2.30831e-19)
(0.695923 -0.38468 1.15712e-19)
(0.784552 -0.308958 -3.94275e-19)
(0.792376 -0.281144 3.03295e-19)
(1.06555 -0.132502 -2.56463e-20)
(1.46606 -0.00607953 -5.14072e-20)
(1.56188 -0.00885284 1.0711e-19)
(0.0250294 -0.967978 2.74702e-20)
(0.222091 -0.648723 -2.54034e-20)
(0.477479 -0.460997 4.35058e-21)
(0.7061 -0.324243 9.67218e-20)
(0.838163 -0.239126 -1.18935e-19)
(0.878131 -0.213644 1.56832e-19)
(1.06053 -0.112769 -8.7351e-20)
(1.42135 0.04111 4.62066e-20)
(1.61799 0.0693837 -4.64026e-21)
(1.54171 0.0286063 -3.75817e-20)
(0.226867 -0.63658 3.64818e-20)
(0.417313 -0.344032 -1.55636e-20)
(0.637047 -0.193564 -1.07338e-19)
(0.810173 -0.122957 5.00089e-20)
(0.916156 -0.0964475 -8.73314e-20)
(1.08336 -0.0259391 2.35578e-19)
(1.39392 0.100594 -2.9838e-19)
(1.63437 0.159803 1.7466e-19)
(1.61476 0.111606 1.07858e-19)
(1.51656 0.0744544 8.019e-20)
(0.389647 -0.415229 -2.97445e-20)
(0.569156 -0.186242 7.82519e-20)
(0.742566 -0.0795295 -2.86175e-20)
(0.909601 -0.00983516 -1.23613e-19)
(1.10434 0.0740914 -2.73108e-19)
(1.37556 0.195007 9.19809e-21)
(1.61243 0.272887 2.52259e-20)
(1.65165 0.244868 -6.44304e-21)
(1.5583 0.174387 -4.36541e-20)
(1.49217 0.122842 -5.17837e-20)
(0.521706 -0.136063 -2.0957e-20)
(0.6883 0.0329217 3.10143e-19)
(0.869813 0.148596 -1.49099e-21)
(1.08967 0.261225 -1.85953e-19)
(1.33695 0.36945 1.68915e-19)
(1.5612 0.436038 1.71289e-19)
(1.64864 0.396746 3.11021e-19)
(1.59732 0.293768 -3.14223e-19)
(1.52132 0.202241 -1.44638e-19)
(1.46425 0.14202 9.71359e-20)
(0.658766 0.157844 -6.85705e-20)
(0.857197 0.30147 -1.96349e-20)
(1.07168 0.424217 -4.08576e-19)
(1.30334 0.524999 -7.4492e-20)
(1.50754 0.568694 6.32147e-20)
(1.6153 0.524008 -2.0666e-19)
(1.60241 0.417867 -2.59842e-19)
(1.53446 0.316951 1.31498e-19)
(1.47246 0.250577 2.08723e-19)
(1.42345 0.197357 -1.12778e-19)
(0.750423 0.532596 -2.72891e-24)
(0.97822 0.669294 -5.47852e-20)
(1.20031 0.748926 3.1581e-19)
(1.39277 0.775349 2.54045e-19)
(1.51095 0.720952 1.93927e-19)
(1.53963 0.611982 -1.083e-19)
(1.50867 0.485749 1.27094e-19)
(1.46934 0.379232 4.99266e-20)
(1.4304 0.287374 -2.20905e-19)
(1.39378 0.199529 -5.31126e-20)
(0.856479 0.846277 2.13449e-20)
(1.08507 0.926173 -1.01491e-20)
(1.27132 0.914504 1.52878e-20)
(1.40069 0.852408 -2.00462e-19)
(1.46359 0.724898 -4.49577e-19)
(1.47123 0.587232 1.84521e-19)
(1.44947 0.458687 7.96592e-21)
(1.42011 0.358884 -4.68951e-20)
(1.38841 0.277489 1.92646e-19)
(1.35101 0.220509 -1.89939e-20)
(0.876739 1.05752 -2.2951e-20)
(1.05446 1.07842 1.5367e-20)
(1.19154 1.00879 -2.50432e-20)
(1.2807 0.912341 1.30818e-19)
(1.32572 0.775927 2.92773e-19)
(1.33707 0.651046 -1.8868e-19)
(1.34152 0.531315 1.18268e-20)
(1.33625 0.438503 1.19043e-19)
(1.32875 0.35315 -2.74941e-20)
(1.30751 0.293341 -2.12875e-21)
(0.850427 1.11644 5.13668e-21)
(0.982608 1.10627 2.31574e-20)
(1.08616 1.019 -1.84632e-20)
(1.15851 0.919529 -6.01113e-20)
(1.20376 0.778946 -1.68758e-20)
(1.24056 0.679934 4.85008e-20)
(1.26093 0.572551 5.22476e-20)
(1.27166 0.4887 -5.35733e-20)
(1.27916 0.39132 -5.16911e-20)
(1.2749 0.321463 -3.97935e-21)
(0.837791 1.07183 6.33943e-21)
(0.927704 1.05149 -4.30066e-21)
(1.00982 0.971343 -1.49821e-20)
(1.06801 0.895943 -5.68376e-20)
(1.12172 0.783082 -1.87567e-19)
(1.17602 0.690114 -6.21044e-20)
(1.20379 0.582123 7.66048e-20)
(1.21866 0.505582 -5.12726e-20)
(1.23198 0.414621 1.34798e-21)
(1.24088 0.353546 -3.73398e-20)
(0.8097 1.02125 -1.13455e-20)
(0.869128 1.00167 -2.01953e-20)
(0.935697 0.928918 -4.05791e-20)
(0.987719 0.856365 3.99574e-20)
(1.03858 0.775587 1.19497e-19)
(1.07902 0.694551 2.5789e-20)
(1.11996 0.59807 -2.09759e-20)
(1.14386 0.525515 6.42821e-20)
(1.16543 0.436294 -1.20908e-20)
(1.18157 0.381544 3.96676e-20)
(0.792942 0.979881 7.82552e-21)
(0.809655 0.958015 -1.15385e-20)
(0.841019 0.899694 4.57661e-20)
(0.901505 0.841005 -2.51033e-20)
(0.95428 0.764984 3.06613e-21)
(0.996684 0.676257 6.76134e-20)
(1.03777 0.592833 -5.54957e-20)
(1.06416 0.524856 -4.35573e-20)
(1.10153 0.456974 -7.77944e-21)
(1.13719 0.402934 3.3654e-20)
(0.769039 0.964371 -2.48546e-21)
(0.761356 0.928266 4.97432e-21)
(0.775181 0.874255 6.90811e-21)
(0.834069 0.817364 3.54456e-20)
(0.851131 0.7559 -2.55932e-20)
(0.896007 0.672325 -3.58606e-20)
(0.952459 0.599616 -2.32448e-20)
(0.997058 0.524424 -2.33857e-21)
(1.04002 0.469238 2.12285e-20)
(1.07361 0.422556 -3.49853e-20)
(0.732202 1.00834 -2.81155e-21)
(0.700556 0.942247 3.54142e-21)
(0.689809 0.870944 -2.49102e-20)
(0.742724 0.777752 -2.63474e-20)
(0.761553 0.709498 -1.68098e-21)
(0.813968 0.638713 1.47973e-20)
(0.86749 0.581594 1.39301e-20)
(0.918877 0.520987 5.59607e-21)
(0.982734 0.466125 -3.06907e-21)
(1.0294 0.427907 2.27573e-20)
(0.669374 1.07915 4.46113e-21)
(0.610091 0.987797 -2.33565e-20)
(0.577218 0.914361 -1.63408e-21)
(0.618569 0.811211 -3.08677e-21)
(0.659293 0.706014 7.64569e-21)
(0.716903 0.615075 -3.36073e-20)
(0.780711 0.54492 3.36995e-21)
(0.840447 0.504578 2.61449e-20)
(0.906519 0.465036 1.46353e-20)
(0.962175 0.422461 -8.42554e-21)
(0.583602 1.00632 -4.75722e-21)
(0.507744 0.907063 2.38999e-20)
(0.467926 0.831492 -1.55212e-20)
(0.469482 0.763016 3.08175e-20)
(0.509747 0.693622 3.43407e-20)
(0.597983 0.611874 4.3819e-20)
(0.6998 0.519344 1.62623e-21)
(0.779491 0.450568 -5.23341e-21)
(0.844209 0.430042 -1.79853e-20)
(0.892153 0.415378 -4.45545e-21)
(0.485164 0.766089 1.73006e-20)
(0.38471 0.697525 2.72793e-20)
(0.345985 0.649299 2.79108e-22)
(0.361609 0.619153 -1.05736e-20)
(0.413836 0.591644 -1.61737e-20)
(0.46468 0.557038 -1.29357e-20)
(0.544662 0.510281 1.96604e-21)
(0.663957 0.429867 1.77853e-21)
(0.772922 0.375689 5.23697e-21)
(0.833423 0.354408 1.93502e-21)
(0.439843 0.338555 -5.78322e-22)
(0.316552 0.308881 -5.54558e-21)
(0.269811 0.288391 4.99088e-20)
(0.263642 0.292456 2.47961e-20)
(0.290358 0.324958 -1.84274e-20)
(0.365756 0.350009 2.15267e-20)
(0.45952 0.379883 -1.21223e-21)
(0.553341 0.377972 -1.25692e-22)
(0.661562 0.342342 -9.4255e-23)
(0.756906 0.325284 -1.53247e-22)
(0.396661 -0.134751 -1.05502e-21)
(0.261204 -0.0977739 -4.90257e-20)
(0.203386 -0.0448869 -5.9406e-21)
(0.22863 0.00188734 -1.60887e-20)
(0.290288 0.0621443 3.74335e-21)
(0.341066 0.130777 -4.41496e-20)
(0.397772 0.19304 2.00708e-20)
(0.475806 0.247227 -2.17e-22)
(0.575531 0.255933 -8.55951e-22)
(0.684297 0.269422 8.66594e-21)
(0.429551 -0.564094 -9.61941e-21)
(0.330298 -0.493651 9.62385e-23)
(0.281172 -0.41365 1.4145e-20)
(0.265863 -0.304027 2.35068e-20)
(0.291733 -0.196616 -3.01462e-20)
(0.351855 -0.0952216 2.14743e-20)
(0.420356 -0.0227556 -6.87669e-21)
(0.465412 0.0698769 -3.0051e-21)
(0.507658 0.133297 -4.12767e-21)
(0.602401 0.194561 1.53047e-21)
(0.463221 -0.813731 -4.46007e-21)
(0.390513 -0.710323 5.20288e-20)
(0.360849 -0.623036 -2.80012e-20)
(0.384321 -0.515156 -4.24071e-20)
(0.396182 -0.420491 -1.07919e-20)
(0.417117 -0.283492 1.89482e-20)
(0.444461 -0.199319 -1.05646e-20)
(0.493888 -0.110145 -4.02534e-21)
(0.541557 -0.0485762 6.3451e-21)
(0.586792 0.0526464 -7.82023e-21)
(0.571538 -0.894385 3.88521e-21)
(0.53241 -0.807033 -3.20423e-20)
(0.497367 -0.732592 1.26238e-20)
(0.490537 -0.607447 -7.95529e-21)
(0.502822 -0.531276 3.07979e-20)
(0.543082 -0.4111 -2.29115e-21)
(0.525283 -0.338618 1.8694e-20)
(0.533598 -0.23298 3.66329e-21)
(0.557665 -0.188571 -1.11646e-21)
(0.573254 -0.118147 -5.10611e-21)
(0.635842 -0.901453 3.41328e-22)
(0.627151 -0.852863 1.1254e-20)
(0.62594 -0.823671 -1.65768e-20)
(0.616297 -0.721285 2.85118e-20)
(0.601171 -0.629859 -5.77357e-21)
(0.605083 -0.50946 -1.92203e-20)
(0.605811 -0.435385 -5.47683e-21)
(0.618069 -0.32529 -5.35023e-21)
(0.620983 -0.274217 -5.24842e-22)
(0.597912 -0.227168 3.82787e-21)
(0.69594 -0.86145 3.58067e-22)
(0.687519 -0.842179 1.01662e-21)
(0.717172 -0.820261 -1.86472e-20)
(0.752084 -0.761608 -5.48232e-21)
(0.761075 -0.691603 1.68261e-20)
(0.746581 -0.578037 -4.02178e-21)
(0.740214 -0.473709 -8.16828e-21)
(0.683682 -0.377014 4.85903e-21)
(0.672955 -0.291995 -1.16059e-21)
(0.63234 -0.272256 3.96138e-22)
(0.689243 -0.932254 2.15855e-21)
(0.707714 -0.937903 -1.6125e-20)
(0.754476 -0.920188 1.77035e-20)
(0.786179 -0.884993 6.64593e-21)
(0.840127 -0.7958 8.39056e-21)
(0.871493 -0.698638 -1.12745e-20)
(0.878206 -0.566033 -2.27129e-20)
(0.827768 -0.459523 2.89285e-22)
(0.803468 -0.303279 4.05724e-21)
(0.716968 -0.254024 -4.5655e-22)
(0.658857 -0.900744 -4.44191e-21)
(0.739122 -0.945765 3.03053e-20)
(0.812426 -0.98856 2.53731e-20)
(0.880273 -0.989859 -3.77636e-20)
(0.952776 -0.924892 -3.52201e-20)
(0.973826 -0.84971 -7.68294e-21)
(1.00301 -0.702298 2.66108e-21)
(0.995851 -0.582179 -4.86746e-22)
(0.950386 -0.407728 4.67463e-21)
(0.856932 -0.290905 2.10384e-21)
(0.534272 -0.876012 2.60046e-21)
(0.619955 -0.934808 -1.08352e-20)
(0.748407 -0.970661 -1.41301e-20)
(0.894985 -0.994021 -4.20378e-21)
(1.02503 -0.986037 4.96215e-20)
(1.12478 -0.942296 1.10911e-19)
(1.17653 -0.847156 7.93428e-20)
(1.16359 -0.732989 6.30198e-21)
(1.13023 -0.588604 -1.156e-20)
(1.02413 -0.39981 -1.04954e-20)
(1.28179 -0.819472 -2.74472e-20)
(1.33795 -0.771515 2.91969e-21)
(1.34871 -0.715957 4.18065e-20)
(1.24104 -0.591651 -1.38985e-20)
(1.28491 0.209999 0)
(1.2484 0.182209 0)
(1.21174 0.162216 0)
(1.18339 0.136418 0)
(1.15699 0.119235 0)
(1.13579 0.104874 0)
(1.1212 0.0869799 0)
(1.10642 0.0708671 0)
(1.09195 0.0571875 0)
(1.07853 0.0451902 0)
(1.06644 0.0357215 0)
(1.05547 0.0278981 0)
(1.04799 0.0216995 0)
(1.04165 0.0166475 0)
(1.03681 0.0125344 0)
(1.03357 0.00904009 0)
(1.03061 0.00591582 0)
(1.02808 0.00307805 0)
(1.02535 0.000821505 0)
(1.02342 -0.000789905 0)
(1.02169 -0.00202664 0)
(1.01992 -0.00262639 0)
(1.01876 -0.00294891 0)
(1.01767 -0.00304756 0)
(1.01665 -0.00283887 0)
(1.01588 -0.00247923 0)
(1.01517 -0.0021375 0)
(1.01461 -0.00142001 0)
(1.01423 -0.000860144 0)
(1.01395 -0.00043297 0)
(1.26465 0.240125 0)
(1.22557 0.222835 0)
(1.20013 0.184955 0)
(1.17475 0.158379 0)
(1.15302 0.132881 0)
(1.13539 0.110038 0)
(1.11863 0.0877491 0)
(1.10128 0.069851 0)
(1.08349 0.0547293 0)
(1.06817 0.0425909 0)
(1.05541 0.0323322 0)
(1.04722 0.0250429 0)
(1.04164 0.0189924 0)
(1.03908 0.0142471 0)
(1.03737 0.0104306 0)
(1.03569 0.00727013 0)
(1.03342 0.00465289 0)
(1.03077 0.00234228 0)
(1.02778 0.000494412 0)
(1.02555 -0.00097482 0)
(1.02321 -0.00202849 0)
(1.02124 -0.00264997 0)
(1.01979 -0.0029664 0)
(1.01845 -0.00302351 0)
(1.01732 -0.00280585 0)
(1.01645 -0.00243374 0)
(1.01566 -0.00209356 0)
(1.01505 -0.00140024 0)
(1.01464 -0.000846639 0)
(1.01434 -0.000421528 0)
(1.25227 0.26349 0)
(1.21222 0.254444 0)
(1.18895 0.217265 0)
(1.1635 0.186057 0)
(1.13692 0.163975 0)
(1.12045 0.139946 0)
(1.10804 0.115431 0)
(1.09607 0.0932285 0)
(1.0859 0.0742168 0)
(1.07521 0.0577916 0)
(1.06499 0.0458401 0)
(1.05552 0.03626 0)
(1.04869 0.0288165 0)
(1.04238 0.0230872 0)
(1.03765 0.0180353 0)
(1.03432 0.0135054 0)
(1.03121 0.00937795 0)
(1.02852 0.0057722 0)
(1.02601 0.00277719 0)
(1.02412 0.000631018 0)
(1.02218 -0.000849613 0)
(1.0207 -0.00177881 0)
(1.01943 -0.00232895 0)
(1.01819 -0.00254971 0)
(1.01713 -0.00248251 0)
(1.01626 -0.00222223 0)
(1.01544 -0.00194846 0)
(1.01483 -0.00132421 0)
(1.01441 -0.000805357 0)
(1.0141 -0.000399781 0)
(1.19426 0.286661 0)
(1.16265 0.278424 0)
(1.15025 0.231399 0)
(1.13256 0.197518 0)
(1.12047 0.167486 0)
(1.10762 0.137088 0)
(1.09313 0.110438 0)
(1.07976 0.0896666 0)
(1.06693 0.0702963 0)
(1.056 0.0548404 0)
(1.04744 0.0417122 0)
(1.04177 0.0323497 0)
(1.03866 0.0247792 0)
(1.03696 0.0187897 0)
(1.03641 0.0140296 0)
(1.03493 0.0100837 0)
(1.0332 0.00692576 0)
(1.0306 0.00412218 0)
(1.02831 0.00185797 0)
(1.02597 0.000106868 0)
(1.02385 -0.00111737 0)
(1.02215 -0.00197034 0)
(1.02057 -0.00238873 0)
(1.01916 -0.00253289 0)
(1.01798 -0.0024349 0)
(1.01697 -0.0021436 0)
(1.01606 -0.00187544 0)
(1.01537 -0.00128482 0)
(1.01488 -0.000779128 0)
(1.01455 -0.000384017 0)
(1.16294 0.308329 0)
(1.12644 0.310584 0)
(1.11795 0.252974 0)
(1.09875 0.22916 0)
(1.08288 0.200029 0)
(1.07576 0.167802 0)
(1.07124 0.139315 0)
(1.06771 0.111194 0)
(1.06491 0.0878804 0)
(1.06084 0.0682797 0)
(1.05514 0.0543314 0)
(1.04952 0.0434665 0)
(1.04489 0.0349692 0)
(1.03989 0.0287641 0)
(1.03607 0.0228052 0)
(1.0332 0.0175697 0)
(1.03052 0.012573 0)
(1.02798 0.00825824 0)
(1.02611 0.00463389 0)
(1.02409 0.00215714 0)
(1.02264 0.000321939 0)
(1.02127 -0.000860789 0)
(1.01995 -0.00156807 0)
(1.01873 -0.00195011 0)
(1.01763 -0.00202596 0)
(1.01666 -0.00186757 0)
(1.01578 -0.00168598 0)
(1.01508 -0.00117547 0)
(1.01459 -0.000718483 0)
(1.01427 -0.000356979 0)
(1.10235 0.325623 0)
(1.05821 0.312165 0)
(1.06395 0.249156 0)
(1.05753 0.221267 0)
(1.05812 0.183376 0)
(1.05139 0.15371 0)
(1.04332 0.127008 0)
(1.03808 0.104583 0)
(1.03442 0.0829243 0)
(1.03148 0.0648204 0)
(1.02951 0.049714 0)
(1.0292 0.0379737 0)
(1.02974 0.0291854 0)
(1.03038 0.0220484 0)
(1.03098 0.0166029 0)
(1.03073 0.0121316 0)
(1.02955 0.00870583 0)
(1.02816 0.00548772 0)
(1.02653 0.00302472 0)
(1.02472 0.00113402 0)
(1.02333 -0.000311814 0)
(1.02187 -0.00123131 0)
(1.02053 -0.0017314 0)
(1.01932 -0.00196956 0)
(1.0182 -0.00197342 0)
(1.01722 -0.00177137 0)
(1.01633 -0.00159239 0)
(1.01561 -0.00111675 0)
(1.01509 -0.000680561 0)
(1.01476 -0.000338444 0)
(1.05365 0.341938 0)
(1.00837 0.331893 0)
(1.03876 0.27059 0)
(1.01871 0.25058 0)
(1.01518 0.213084 0)
(1.01597 0.178862 0)
(1.02181 0.146312 0)
(1.02754 0.116103 0)
(1.03279 0.0909792 0)
(1.0358 0.0718134 0)
(1.03621 0.0570164 0)
(1.03641 0.0461191 0)
(1.03476 0.037605 0)
(1.03253 0.0317232 0)
(1.03046 0.0253864 0)
(1.02865 0.0200727 0)
(1.02661 0.0146194 0)
(1.02525 0.00985489 0)
(1.02364 0.00606802 0)
(1.02244 0.00334782 0)
(1.0215 0.00128633 0)
(1.02041 7.19173e-06 0)
(1.01943 -0.000851765 0)
(1.01844 -0.00135928 0)
(1.01747 -0.00154496 0)
(1.01663 -0.00148597 0)
(1.01585 -0.00139441 0)
(1.01519 -0.000995656 0)
(1.01472 -0.000613686 0)
(1.01442 -0.000310188 0)
(0.993327 0.324707 0)
(0.945703 0.317165 0)
(0.987516 0.241559 0)
(0.978073 0.216087 0)
(0.985971 0.181448 0)
(0.989282 0.155861 0)
(0.987942 0.133736 0)
(0.991443 0.111352 0)
(0.996965 0.0907197 0)
(1.00243 0.0709428 0)
(1.00872 0.0546325 0)
(1.01344 0.0409469 0)
(1.01795 0.0315035 0)
(1.02109 0.023073 0)
(1.02306 0.0173949 0)
(1.02347 0.012867 0)
(1.02373 0.00930658 0)
(1.02353 0.00604046 0)
(1.02275 0.00372973 0)
(1.0222 0.00171826 0)
(1.02141 0.000291796 0)
(1.02055 -0.000614932 0)
(1.01969 -0.00117386 0)
(1.0188 -0.00145112 0)
(1.01793 -0.00153249 0)
(1.01713 -0.00141446 0)
(1.01638 -0.00131105 0)
(1.01573 -0.000941504 0)
(1.01525 -0.000578582 0)
(1.01496 -0.000292472 0)
(0.930227 0.341111 0)
(0.903049 0.324826 0)
(0.952417 0.261341 0)
(0.935726 0.242261 0)
(0.9552 0.19782 0)
(0.96372 0.161737 0)
(0.976561 0.129031 0)
(0.988962 0.102823 0)
(0.999325 0.0802025 0)
(1.00854 0.0650046 0)
(1.01486 0.0517337 0)
(1.02043 0.0432537 0)
(1.02298 0.0356683 0)
(1.02414 0.0308385 0)
(1.02406 0.025095 0)
(1.02347 0.0202215 0)
(1.02283 0.0146765 0)
(1.02184 0.0102251 0)
(1.02112 0.00656996 0)
(1.02065 0.00386058 0)
(1.02012 0.00188337 0)
(1.01948 0.000571758 0)
(1.01878 -0.000337376 0)
(1.01801 -0.000895064 0)
(1.01722 -0.00115205 0)
(1.01652 -0.00116381 0)
(1.01585 -0.00113668 0)
(1.01527 -0.00083201 0)
(1.01482 -0.000517783 0)
(1.01455 -0.000266619 0)
(0.883613 0.305721 0)
(0.837658 0.27756 0)
(0.914696 0.216676 0)
(0.896722 0.20022 0)
(0.920263 0.163512 0)
(0.927558 0.145485 0)
(0.938085 0.130556 0)
(0.951379 0.109044 0)
(0.966221 0.091347 0)
(0.979906 0.0711475 0)
(0.992628 0.0554347 0)
(1.00174 0.0405859 0)
(1.00929 0.0307665 0)
(1.01404 0.0217481 0)
(1.0163 0.0164045 0)
(1.01775 0.0119247 0)
(1.0188 0.00871624 0)
(1.01948 0.00585445 0)
(1.01997 0.00370703 0)
(1.02025 0.00186964 0)
(1.02014 0.000625989 0)
(1.01983 -0.000208536 0)
(1.0193 -0.000742443 0)
(1.01865 -0.00101824 0)
(1.01792 -0.00115394 0)
(1.01722 -0.00110429 0)
(1.01653 -0.00105916 0)
(1.01592 -0.000781636 0)
(1.01543 -0.000484343 0)
(1.01515 -0.000249785 0)
(0.82968 0.26218 0)
(0.774051 0.246239 0)
(0.861642 0.189859 0)
(0.853053 0.183291 0)
(0.898624 0.136278 0)
(0.920332 0.112384 0)
(0.940509 0.0829384 0)
(0.955377 0.0671578 0)
(0.968614 0.053205 0)
(0.981772 0.0459785 0)
(0.993832 0.0377608 0)
(1.00502 0.0336324 0)
(1.01228 0.0286711 0)
(1.01706 0.025776 0)
(1.01964 0.0212453 0)
(1.02053 0.0173301 0)
(1.02054 0.0126694 0)
(1.02021 0.00901279 0)
(1.02011 0.00591335 0)
(1.01995 0.00367155 0)
(1.01975 0.00198897 0)
(1.01933 0.000803644 0)
(1.01873 -2.91744e-05 0)
(1.01805 -0.000563281 0)
(1.01731 -0.000840315 0)
(1.01664 -0.000891629 0)
(1.01598 -0.000909267 0)
(1.01541 -0.000682528 0)
(1.01494 -0.000426806 0)
(1.01468 -0.000226626 0)
(0.782031 0.216953 0)
(0.75464 0.19901 0)
(0.831103 0.157847 0)
(0.840732 0.146269 0)
(0.856891 0.12626 0)
(0.874198 0.117301 0)
(0.900173 0.106828 0)
(0.925473 0.0915803 0)
(0.948536 0.0777399 0)
(0.967872 0.0612835 0)
(0.984187 0.0483493 0)
(0.995216 0.0352719 0)
(1.00408 0.0263894 0)
(1.00939 0.0180794 0)
(1.01152 0.0135204 0)
(1.01337 0.00974355 0)
(1.01482 0.00725812 0)
(1.0165 0.00493232 0)
(1.01778 0.00320319 0)
(1.01879 0.00174423 0)
(1.01925 0.000752551 0)
(1.01934 8.45372e-05 0)
(1.01909 -0.000379373 0)
(1.01859 -0.000635405 0)
(1.01799 -0.000807434 0)
(1.01734 -0.000814358 0)
(1.01668 -0.000822355 0)
(1.0161 -0.000627078 0)
(1.0156 -0.000390452 0)
(1.01533 -0.000209817 0)
(0.710116 0.170469 0)
(0.703952 0.13417 0)
(0.753183 0.118785 0)
(0.800859 0.0789762 0)
(0.845865 0.0507964 0)
(0.885792 0.0322003 0)
(0.908675 0.0178243 0)
(0.925697 0.0137879 0)
(0.939971 0.013737 0)
(0.9563 0.0158245 0)
(0.972462 0.016294 0)
(0.988511 0.0176026 0)
(1.00036 0.0168794 0)
(1.0089 0.0163277 0)
(1.01453 0.0137667 0)
(1.01675 0.0114099 0)
(1.0178 0.0083791 0)
(1.01809 0.00608038 0)
(1.01852 0.00412903 0)
(1.01874 0.00269221 0)
(1.01883 0.00155597 0)
(1.01863 0.000669187 0)
(1.0182 3.59246e-05 0)
(1.01765 -0.000396572 0)
(1.01708 -0.000642748 0)
(1.0165 -0.000688025 0)
(1.01595 -0.000730617 0)
(1.01544 -0.000560739 0)
(1.01501 -0.000349446 0)
(1.01477 -0.000193568 0)
(0.68375 0.0801186 0)
(0.716958 0.0411182 0)
(0.752958 0.0753125 0)
(0.783487 0.0656827 0)
(0.810494 0.068226 0)
(0.840762 0.0613274 0)
(0.881754 0.0543432 0)
(0.918162 0.0485637 0)
(0.947951 0.041126 0)
(0.968231 0.0351247 0)
(0.984144 0.029005 0)
(0.993653 0.0225514 0)
(1.00144 0.0170785 0)
(1.00585 0.0119085 0)
(1.00721 0.00905628 0)
(1.00916 0.00664485 0)
(1.01097 0.00501428 0)
(1.01337 0.00344865 0)
(1.01531 0.00226725 0)
(1.01694 0.00131601 0)
(1.01792 0.000637413 0)
(1.01839 0.000186135 0)
(1.01843 -0.00017239 0)
(1.01814 -0.000400933 0)
(1.01773 -0.000589784 0)
(1.0172 -0.000622482 0)
(1.01667 -0.000665145 0)
(1.01616 -0.000523232 0)
(1.01572 -0.00032677 0)
(1.01548 -0.000181421 0)
(0.654123 -0.0859969 0)
(0.696479 -0.125949 0)
(0.748306 -0.114535 0)
(0.779901 -0.112738 0)
(0.822728 -0.0916022 0)
(0.868319 -0.0740553 0)
(0.893942 -0.0544637 0)
(0.914553 -0.0410807 0)
(0.928529 -0.0264937 0)
(0.946289 -0.0168937 0)
(0.961916 -0.00778856 0)
(0.979593 -0.00223218 0)
(0.992718 0.0016356 0)
(1.00315 0.00317243 0)
(1.01063 0.00309761 0)
(1.01385 0.00261536 0)
(1.0157 0.00190392 0)
(1.01647 0.00151077 0)
(1.01726 0.00118603 0)
(1.01779 0.000835075 0)
(1.01803 0.000473632 0)
(1.01798 5.56066e-05 0)
(1.01767 -0.000252575 0)
(1.01728 -0.000503871 0)
(1.01681 -0.000650727 0)
(1.01633 -0.000637205 0)
(1.01588 -0.000670213 0)
(1.01544 -0.000517385 0)
(1.01505 -0.000319535 0)
(1.01484 -0.000177041 0)
(0.632373 -0.198677 0)
(0.705321 -0.199125 0)
(0.784658 -0.190038 0)
(0.831677 -0.151756 0)
(0.864878 -0.101587 0)
(0.888837 -0.0602859 0)
(0.923535 -0.0382679 0)
(0.949171 -0.0213464 0)
(0.972203 -0.0130864 0)
(0.985657 -0.00405784 0)
(0.997336 -0.000194209 0)
(1.0019 0.00362416 0)
(1.0062 0.00419288 0)
(1.00781 0.00446973 0)
(1.00777 0.00396443 0)
(1.00919 0.00333222 0)
(1.01079 0.00251003 0)
(1.01317 0.00175955 0)
(1.01524 0.00108533 0)
(1.01693 0.000671204 0)
(1.01797 0.000337126 0)
(1.01846 0.000109122 0)
(1.01853 -0.000154177 0)
(1.01828 -0.000354207 0)
(1.01783 -0.000522388 0)
(1.01732 -0.000567451 0)
(1.0168 -0.000618784 0)
(1.01631 -0.00049354 0)
(1.01588 -0.000309479 0)
(1.01564 -0.0001697 0)
(0.66599 -0.221885 0)
(0.731822 -0.206021 0)
(0.826698 -0.199433 0)
(0.901274 -0.175785 0)
(0.937639 -0.134966 0)
(0.95039 -0.105886 0)
(0.944393 -0.0773355 0)
(0.946249 -0.0597494 0)
(0.951245 -0.0439229 0)
(0.962296 -0.0363113 0)
(0.971591 -0.0258101 0)
(0.984763 -0.020267 0)
(0.993949 -0.0138825 0)
(1.00305 -0.0115088 0)
(1.00992 -0.00909325 0)
(1.01321 -0.00752418 0)
(1.01532 -0.00551956 0)
(1.0164 -0.00383265 0)
(1.01735 -0.0023735 0)
(1.01787 -0.00151108 0)
(1.01805 -0.000998055 0)
(1.018 -0.000864394 0)
(1.0177 -0.000792357 0)
(1.01732 -0.000787761 0)
(1.01687 -0.000791245 0)
(1.01641 -0.000704235 0)
(1.01596 -0.000697447 0)
(1.01552 -0.000534929 0)
(1.01513 -0.000327196 0)
(1.01492 -0.00017518 0)
(0.738288 -0.175816 0)
(0.78157 -0.127743 0)
(0.867546 -0.110471 0)
(0.941049 -0.0888316 0)
(0.965716 -0.0709767 0)
(0.970751 -0.0619929 0)
(0.981929 -0.063686 0)
(0.985386 -0.0558658 0)
(0.995201 -0.0484414 0)
(1.00339 -0.0343613 0)
(1.01292 -0.0251133 0)
(1.0138 -0.0136011 0)
(1.0155 -0.00789975 0)
(1.01368 -0.00221305 0)
(1.0122 -0.000425857 0)
(1.01264 0.00061834 0)
(1.01362 0.000360001 0)
(1.01538 0.000260472 0)
(1.01688 3.35027e-05 0)
(1.01804 9.66474e-05 0)
(1.01875 7.15879e-06 0)
(1.01899 -7.23132e-05 0)
(1.01889 -0.000257018 0)
(1.01851 -0.000431567 0)
(1.01803 -0.000577601 0)
(1.0175 -0.000613896 0)
(1.01697 -0.000650891 0)
(1.01649 -0.000517421 0)
(1.01605 -0.000324011 0)
(1.01583 -0.00017222 0)
(0.86554 -0.181403 0)
(0.844101 -0.122375 0)
(0.889479 -0.0930849 0)
(0.958426 -0.0883058 0)
(0.973784 -0.0768591 0)
(0.966089 -0.0656262 0)
(0.958119 -0.0595247 0)
(0.968372 -0.0515473 0)
(0.978369 -0.0466953 0)
(0.986098 -0.0435163 0)
(0.990344 -0.0370849 0)
(0.997765 -0.0333835 0)
(1.00114 -0.0271583 0)
(1.00612 -0.0244282 0)
(1.01011 -0.0200465 0)
(1.01244 -0.0165446 0)
(1.01437 -0.0120783 0)
(1.01567 -0.00857683 0)
(1.01665 -0.00560331 0)
(1.01723 -0.00377934 0)
(1.01739 -0.0025357 0)
(1.01738 -0.00187763 0)
(1.01717 -0.00143257 0)
(1.01692 -0.00118154 0)
(1.01662 -0.00104887 0)
(1.01625 -0.000867555 0)
(1.0159 -0.000803943 0)
(1.01553 -0.000610868 0)
(1.01518 -0.000370797 0)
(1.01501 -0.000188565 0)
(1.00969 -0.27412 0)
(0.945644 -0.182188 0)
(0.934433 -0.114274 0)
(0.956159 -0.0806922 0)
(0.975021 -0.0815788 0)
(0.984146 -0.109552 0)
(0.98767 -0.102772 0)
(0.997132 -0.0927754 0)
(1.00192 -0.073666 0)
(1.01692 -0.056248 0)
(1.02526 -0.0401152 0)
(1.02719 -0.0253741 0)
(1.0261 -0.015851 0)
(1.02201 -0.00684404 0)
(1.01963 -0.00365783 0)
(1.01884 -0.00136959 0)
(1.01879 -0.00126039 0)
(1.01925 -0.000859112 0)
(1.01967 -0.00079174 0)
(1.0198 -0.000440237 0)
(1.01977 -0.000382925 0)
(1.01947 -0.000406806 0)
(1.01906 -0.000561078 0)
(1.01857 -0.00073385 0)
(1.01801 -0.000828909 0)
(1.01752 -0.000815462 0)
(1.01705 -0.000808879 0)
(1.01662 -0.000629003 0)
(1.01624 -0.000391411 0)
(1.01604 -0.000194755 0)
(1.20441 -0.458611 0)
(1.15596 -0.363615 0)
(1.129 -0.263318 0)
(1.03022 -0.172569 0)
(0.936096 -0.128502 0)
(0.947457 -0.112848 0)
(0.992673 -0.0917196 0)
(1.00735 -0.0796603 0)
(1.02285 -0.0635517 0)
(1.01876 -0.0526073 0)
(1.01908 -0.0439333 0)
(1.01743 -0.0391044 0)
(1.01449 -0.0330514 0)
(1.0139 -0.0308127 0)
(1.01286 -0.0253918 0)
(1.01313 -0.020798 0)
(1.01419 -0.015158 0)
(1.01543 -0.0109443 0)
(1.01624 -0.00740094 0)
(1.01674 -0.00519942 0)
(1.01686 -0.0036306 0)
(1.0169 -0.00267781 0)
(1.01682 -0.00202646 0)
(1.01667 -0.00160544 0)
(1.01645 -0.00137385 0)
(1.01618 -0.00112925 0)
(1.01589 -0.000999028 0)
(1.01558 -0.000756056 0)
(1.01527 -0.000460085 0)
(1.01511 -0.000217767 0)
(1.37896 -0.479584 0)
(1.37751 -0.439707 0)
(1.22479 0.00366005 9.44064e-21)
(1.19444 0.0130677 -1.26835e-21)
(1.17179 0.0249296 -1.60751e-21)
(1.15685 0.02666 -2.67515e-21)
(1.14423 0.0228523 3.40683e-22)
(1.12792 0.0211866 -4.29501e-21)
(1.10832 0.0197187 1.15368e-20)
(1.09191 0.015757 -8.13008e-21)
(1.07852 0.0107642 1.19068e-20)
(1.06679 0.00645895 3.68231e-21)
(1.23824 0.0320493 2.02312e-21)
(1.20958 0.0253562 4.51805e-21)
(1.18102 0.0280762 -4.05519e-22)
(1.16268 0.0234392 -9.99896e-22)
(1.14868 0.0185129 -4.72881e-21)
(1.13218 0.019247 5.53988e-21)
(1.11356 0.0181931 8.44254e-21)
(1.09656 0.0161042 -1.35646e-20)
(1.08158 0.013779 3.10503e-21)
(1.06825 0.0118365 1.48591e-21)
(1.05936 0.00892368 2.17217e-21)
(1.05211 0.00570015 -4.36546e-22)
(1.04638 0.00330317 9.10308e-21)
(1.04129 0.00129395 -7.69034e-21)
(1.03702 -0.000219309 -8.56685e-21)
(1.0332 -0.00128635 9.30761e-21)
(1.02986 -0.00210402 -1.04543e-20)
(1.02703 -0.00294708 6.85451e-21)
(1.02478 -0.00363744 2.23104e-21)
(1.02249 -0.0039439 -1.87697e-21)
(1.02072 -0.00418992 5.29818e-22)
(1.01946 -0.00427199 1.26399e-21)
(1.01805 -0.00403029 -2.13807e-22)
(1.017 -0.00373915 -2.3436e-21)
(1.01615 -0.00332207 1.63256e-21)
(1.01533 -0.00278469 -5.47812e-22)
(1.01472 -0.0023122 3.97294e-22)
(1.01424 -0.0014899 -7.2386e-22)
(1.01382 -0.00090478 -7.51235e-22)
(1.01361 -0.00046599 -2.03666e-21)
(1.25083 0.0762055 2.40651e-20)
(1.21516 0.0793206 -1.11263e-20)
(1.18597 0.0790535 4.86607e-22)
(1.16768 0.0670095 -2.34907e-22)
(1.15216 0.0542293 -6.79761e-21)
(1.13303 0.0468338 8.87575e-21)
(1.11464 0.0395101 -4.19235e-21)
(1.10002 0.0301112 8.28334e-21)
(1.08405 0.0231218 -8.01265e-21)
(1.06854 0.0180799 -3.7718e-21)
(1.05653 0.0129383 9.84188e-21)
(1.04899 0.00858975 2.72915e-21)
(1.0427 0.00566757 -4.32565e-21)
(1.03918 0.00352803 -1.69299e-21)
(1.03758 0.00167074 -4.14463e-21)
(1.03562 0.00038113 3.16338e-21)
(1.03329 -0.000768634 2.07925e-21)
(1.03047 -0.00187955 6.02641e-21)
(1.02783 -0.00273568 -1.51209e-20)
(1.0248 -0.00317783 5.72581e-21)
(1.0227 -0.00367994 2.98524e-22)
(1.02089 -0.00395486 3.87303e-22)
(1.01909 -0.00383313 2.58063e-23)
(1.01789 -0.00367998 -9.15423e-22)
(1.01683 -0.00330372 2.02169e-21)
(1.01591 -0.00277462 -2.57019e-23)
(1.01523 -0.00232501 4.31622e-22)
(1.01467 -0.00150843 -8.18311e-22)