/*--------------------------------*- C++ -*----------------------------------*\
| =========                 |                                                 |
| \\      /  F ield         | OpenFOAM: The Open Source CFD Toolbox           |
|  \\    /   O peration     | Version:                                        |
|   \\  /    A nd           | Website:  www.openfoam.com                      |
|    \\/     M anipulation  |                                                 |
\*---------------------------------------------------------------------------*/
FoamFile
{
    version     2.0;
    format      ascii;
    class       volScalarField;
    location    "0.2";
    object      p;
}
// * * * * * * * * * * * * * * * * * * * * * * * * * * * * * * * * * * * * * //

dimensions      [0 2 -2 0 0 0 0];


internalField   nonuniform List<scalar> 
400
(
0.716373
0.713439
0.706808
0.696809
0.684386
0.670282
0.655063
0.639212
0.623112
0.607047
0.59121
0.575731
0.560691
0.546131
0.532065
0.518491
0.505392
0.492743
0.48052
0.468691
0.71733
0.714323
0.707537
0.697342
0.684729
0.670461
0.655111
0.63916
0.62299
0.606878
0.591013
0.575521
0.560477
0.54592
0.531862
0.518298
0.505211
0.492575
0.480364
0.468547
0.719267
0.71611
0.709003
0.698405
0.685407
0.67081
0.655196
0.639047
0.622738
0.606535
0.590616
0.575097
0.560047
0.545497
0.531455
0.517912
0.504849
0.492238
0.480052
0.46826
0.722233
0.718834
0.711219
0.699994
0.686406
0.67131
0.655299
0.638854
0.622339
0.606002
0.590006
0.57445
0.559393
0.544855
0.530839
0.51733
0.504305
0.491734
0.479587
0.467832
0.726307
0.722554
0.714207
0.702102
0.687702
0.67193
0.655388
0.638552
0.621769
0.605261
0.589167
0.573568
0.558506
0.54399
0.530012
0.516551
0.503578
0.491062
0.478968
0.467265
0.731601
0.72735
0.717992
0.704712
0.68926
0.672628
0.65542
0.638102
0.620994
0.604283
0.588078
0.572436
0.557376
0.542894
0.52897
0.515574
0.502672
0.490226
0.478202
0.466565
0.738276
0.733327
0.7226
0.707797
0.691029
0.673343
0.655335
0.637452
0.61997
0.603035
0.586715
0.571035
0.555993
0.541563
0.527713
0.514403
0.501591
0.489235
0.477298
0.465742
0.746552
0.740622
0.728054
0.711313
0.692936
0.673997
0.655059
0.636536
0.618648
0.601479
0.58505
0.569351
0.554349
0.539997
0.526246
0.513046
0.500347
0.488103
0.476271
0.464813
0.756736
0.749406
0.734365
0.715187
0.694883
0.674484
0.654497
0.635279
0.616969
0.599575
0.583062
0.567374
0.552445
0.538204
0.524585
0.511524
0.498964
0.486853
0.475145
0.463801
0.769259
0.759888
0.741516
0.719306
0.696733
0.674672
0.653536
0.633596
0.614877
0.597292
0.580739
0.56511
0.5503
0.536212
0.52276
0.50987
0.497475
0.485518
0.473953
0.462737
0.784731
0.772313
0.749436
0.723501
0.698304
0.674395
0.652047
0.631399
0.612324
0.594617
0.578093
0.562587
0.547953
0.534066
0.520822
0.508133
0.495928
0.484145
0.472736
0.46166
0.804042
0.786949
0.757965
0.727519
0.699356
0.673458
0.649899
0.628624
0.609297
0.591572
0.575172
0.55987
0.545476
0.531839
0.518839
0.506379
0.494382
0.482786
0.471542
0.46061
0.828516
0.804058
0.766788
0.730998
0.699593
0.671655
0.646989
0.625253
0.605838
0.588236
0.572074
0.557061
0.542968
0.529624
0.516895
0.50468
0.492901
0.481495
0.470417
0.459627
0.860186
0.823828
0.775358
0.733442
0.698673
0.668807
0.643287
0.621353
0.602069
0.584753
0.568942
0.554292
0.540547
0.527519
0.515073
0.503105
0.491539
0.480318
0.469396
0.45874
0.902098
0.846228
0.782802
0.734236
0.696279
0.664844
0.638894
0.617108
0.59819
0.581312
0.565942
0.551702
0.538321
0.525611
0.513438
0.501703
0.490334
0.47928
0.468499
0.457962
0.958381
0.870671
0.78786
0.732797
0.692291
0.659928
0.634091
0.612803
0.594447
0.578107
0.563217
0.549391
0.536361
0.523946
0.51202
0.500491
0.489296
0.478385
0.467726
0.457291
1.03458
0.895769
0.788964
0.728816
0.686959
0.654482
0.629267
0.608724
0.591034
0.575258
0.560837
0.547394
0.534679
0.522522
0.510808
0.499454
0.488404
0.477615
0.467056
0.456707
1.14266
0.920303
0.7844
0.721894
0.68038
0.648703
0.624527
0.604883
0.587906
0.572694
0.558716
0.545625
0.53319
0.52126
0.50973
0.498528
0.487602
0.476916
0.466445
0.456169
1.30927
0.943785
0.77176
0.709851
0.671094
0.641685
0.619194
0.600733
0.584613
0.570036
0.556538
0.543814
0.531668
0.519968
0.508622
0.49757
0.486768
0.476184
0.465798
0.455594
1.52887
0.959634
0.750438
0.691639
0.658528
0.633169
0.613089
0.596127
0.581026
0.567174
0.554208
0.541887
0.530052
0.518596
0.507446
0.496551
0.485876
0.475399
0.465101
0.454971
)
;

boundaryField
{
    fixedWalls
    {
        type            zeroGradient;
    }
    inlet
    {
        type            zeroGradient;
    }
    outlet
    {
        type            fixedValue;
        value           nonuniform 0();
    }
    frontAndBack
    {
        type            empty;
    }
    procBoundary4to0
    {
        type            processor;
        value           nonuniform List<scalar> 
20
(
0.716373
0.713439
0.706808
0.696809
0.684386
0.670282
0.655063
0.639212
0.623112
0.607046
0.59121
0.575731
0.560691
0.546131
0.532065
0.518491
0.505392
0.492744
0.48052
0.468691
)
;
    }
    procBoundary4to5
    {
        type            processor;
        value           nonuniform List<scalar> 
20
(
0.457228
0.457096
0.456832
0.456439
0.45592
0.455281
0.454534
0.453695
0.452786
0.451837
0.450882
0.449958
0.449097
0.448324
0.447647
0.447062
0.44655
0.446074
0.445562
0.445002
)
;
    }
}


// ************************************************************************* //
