/*--------------------------------*- C++ -*----------------------------------*\
| =========                 |                                                 |
| \\      /  F ield         | OpenFOAM: The Open Source CFD Toolbox           |
|  \\    /   O peration     | Version:                                        |
|   \\  /    A nd           | Website:  www.openfoam.com                      |
|    \\/     M anipulation  |                                                 |
\*---------------------------------------------------------------------------*/
FoamFile
{
    version     2.0;
    format      ascii;
    class       surfaceScalarField;
    location    "0.2";
    object      phi;
}
// * * * * * * * * * * * * * * * * * * * * * * * * * * * * * * * * * * * * * //

dimensions      [0 3 -1 0 0 0 0];
oriented        oriented;


internalField   nonuniform List<scalar> 
760
(
2.50487e-05
-4.87436e-08
2.51932e-05
-1.44496e-07
2.54217e-05
-2.28504e-07
2.57158e-05
-2.94086e-07
2.60566e-05
-3.40754e-07
2.64274e-05
-3.70773e-07
2.68144e-05
-3.87085e-07
2.72073e-05
-3.92825e-07
2.75982e-05
-3.90914e-07
2.79819e-05
-3.83758e-07
2.83551e-05
-3.73207e-07
2.87158e-05
-3.60623e-07
2.90627e-05
-3.46972e-07
2.93956e-05
-3.3291e-07
2.97145e-05
-3.18865e-07
3.00196e-05
-3.05096e-07
3.03114e-05
-2.91753e-07
3.05903e-05
-2.78899e-07
3.08568e-05
-2.66551e-07
-2.54708e-07
2.505e-05
-9.87395e-08
2.51981e-05
-2.92619e-07
2.54317e-05
-4.62045e-07
2.57312e-05
-5.93586e-07
2.60771e-05
-6.86703e-07
2.64526e-05
-7.4624e-07
2.68438e-05
-7.78262e-07
2.72401e-05
-7.89147e-07
2.76339e-05
-7.8478e-07
2.80202e-05
-7.69968e-07
2.83953e-05
-7.48386e-07
2.87574e-05
-7.22738e-07
2.91054e-05
-6.94941e-07
2.94388e-05
-6.66303e-07
2.97576e-05
-6.3768e-07
3.00621e-05
-6.096e-07
3.03527e-05
-5.8237e-07
3.063e-05
-5.56131e-07
3.08944e-05
-5.3093e-07
-5.06766e-07
2.50526e-05
-1.51347e-07
2.52083e-05
-4.48266e-07
2.54522e-05
-7.05954e-07
2.57628e-05
-9.04173e-07
2.61193e-05
-1.04326e-06
2.65044e-05
-1.13129e-06
2.69039e-05
-1.17778e-06
2.73073e-05
-1.19257e-06
2.77071e-05
-1.18458e-06
2.80981e-05
-1.161e-06
2.84771e-05
-1.1273e-06
2.88418e-05
-1.0875e-06
2.91913e-05
-1.04444e-06
2.95251e-05
-1.00009e-06
2.98432e-05
-9.55733e-07
3.01458e-05
-9.12195e-07
3.04333e-05
-8.6996e-07
3.07065e-05
-8.29269e-07
3.09658e-05
-7.90215e-07
-7.52804e-07
2.50568e-05
-2.08156e-07
2.52245e-05
-6.1592e-07
2.54847e-05
-9.66188e-07
2.58126e-05
-1.23206e-06
2.61856e-05
-1.41632e-06
2.65856e-05
-1.5312e-06
2.6998e-05
-1.59018e-06
2.74122e-05
-1.60684e-06
2.78209e-05
-1.59322e-06
2.82188e-05
-1.55892e-06
2.86026e-05
-1.51114e-06
2.89703e-05
-1.45521e-06
2.93208e-05
-1.39492e-06
2.96536e-05
-1.33289e-06
2.99688e-05
-1.27089e-06
3.02666e-05
-1.21006e-06
3.05478e-05
-1.1511e-06
3.08129e-05
-1.09437e-06
3.10627e-05
-1.04003e-06
-9.88107e-07
2.5063e-05
-2.71154e-07
2.52481e-05
-8.01038e-07
2.55317e-05
-1.24973e-06
2.58839e-05
-1.58435e-06
2.62801e-05
-1.81252e-06
2.67008e-05
-1.95184e-06
2.71309e-05
-2.02033e-06
2.75598e-05
-2.03567e-06
2.79797e-05
-2.0132e-06
2.83857e-05
-1.96489e-06
2.87743e-05
-1.89977e-06
2.91436e-05
-1.82447e-06
2.94925e-05
-1.7438e-06
2.98207e-05
-1.66111e-06
3.01285e-05
-1.57868e-06
3.04164e-05
-1.49802e-06
3.06854e-05
-1.42006e-06
3.09363e-05
-1.3453e-06
3.11703e-05
-1.27397e-06
-1.20611e-06
2.50718e-05
-3.42977e-07
2.52814e-05
-1.01059e-06
2.55967e-05
-1.56508e-06
2.59818e-05
-1.96947e-06
2.64089e-05
-2.23956e-06
2.68568e-05
-2.39971e-06
2.73096e-05
-2.47318e-06
2.77561e-05
-2.48221e-06
2.81886e-05
-2.44567e-06
2.86018e-05
-2.37811e-06
2.89925e-05
-2.29048e-06
2.9359e-05
-2.1909e-06
2.97005e-05
-2.08529e-06
3.00172e-05
-1.9778e-06
3.03098e-05
-1.87131e-06
3.05795e-05
-1.7677e-06
3.08275e-05
-1.66813e-06
3.10555e-05
-1.57323e-06
3.12647e-05
-1.48325e-06
-1.3982e-06
2.50843e-05
-4.27298e-07
2.53275e-05
-1.25381e-06
2.56855e-05
-1.92302e-06
2.61137e-05
-2.39769e-06
2.65805e-05
-2.7064e-06
2.70625e-05
-2.8817e-06
2.75423e-05
-2.95291e-06
2.80077e-05
-2.94765e-06
2.84508e-05
-2.88881e-06
2.88666e-05
-2.7939e-06
2.92523e-05
-2.67614e-06
2.96068e-05
-2.54539e-06
2.99303e-05
-2.40882e-06
3.0224e-05
-2.27147e-06
3.04895e-05
-2.13679e-06
3.07287e-05
-2.00698e-06
3.0944e-05
-1.88336e-06
3.11373e-05
-1.76659e-06
3.13109e-05
-1.65683e-06
-1.55398e-06
2.51022e-05
-5.2947e-07
2.53918e-05
-1.54341e-06
2.58062e-05
-2.33748e-06
2.62902e-05
-2.88163e-06
2.68068e-05
-3.22299e-06
2.73289e-05
-3.40382e-06
2.78369e-05
-3.46092e-06
2.83179e-05
-3.42864e-06
2.8764e-05
-3.33494e-06
2.91711e-05
-3.201e-06
2.95378e-05
-3.04282e-06
2.98646e-05
-2.87225e-06
3.01536e-05
-2.69779e-06
3.04074e-05
-2.52528e-06
3.06292e-05
-2.35858e-06
3.08223e-05
-2.20004e-06
3.09898e-05
-2.0509e-06
3.11349e-05
-1.91165e-06
3.12603e-05
-1.7822e-06
-1.66218e-06
2.51282e-05
-6.57622e-07
2.5482e-05
-1.89728e-06
2.59713e-05
-2.82673e-06
2.65259e-05
-3.43621e-06
2.71016e-05
-3.79871e-06
2.7666e-05
-3.96824e-06
2.81969e-05
-3.9918e-06
2.86813e-05
-3.91306e-06
2.9113e-05
-3.76665e-06
2.94904e-05
-3.57839e-06
2.98151e-05
-3.3675e-06
3.00907e-05
-3.14785e-06
3.03219e-05
-2.929e-06
3.05138e-05
-2.71723e-06
3.06716e-05
-2.51637e-06
3.08001e-05
-2.32848e-06
3.09035e-05
-2.15438e-06
3.09859e-05
-1.99405e-06
3.10507e-05
-1.84692e-06
-1.71212e-06
2.5167e-05
-8.24598e-07
2.56108e-05
-2.34112e-06
2.61983e-05
-3.41422e-06
2.68391e-05
-4.07699e-06
2.74784e-05
-4.43803e-06
2.80773e-05
-4.56716e-06
2.86125e-05
-4.52695e-06
2.90737e-05
-4.37432e-06
2.94596e-05
-4.15249e-06
2.97738e-05
-3.89264e-06
3.00233e-05
-3.61701e-06
3.02163e-05
-3.34084e-06
3.03613e-05
-3.07392e-06
3.04661e-05
-2.82208e-06
3.05381e-05
-2.58834e-06
3.05834e-05
-2.37383e-06
3.06075e-05
-2.17843e-06
3.06147e-05
-2.00124e-06
3.06087e-05
-1.84091e-06
-1.69588e-06
2.52268e-05
-1.05143e-06
2.57974e-05
-2.91173e-06
2.65108e-05
-4.12755e-06
2.72481e-05
-4.81433e-06
2.79414e-05
-5.13133e-06
2.85472e-05
-5.17294e-06
2.90463e-05
-5.0261e-06
2.94376e-05
-4.76558e-06
2.97293e-05
-4.44421e-06
2.99344e-05
-4.0977e-06
3.00672e-05
-3.74981e-06
3.01416e-05
-3.41532e-06
3.01703e-05
-3.10255e-06
3.01637e-05
-2.8155e-06
3.01307e-05
-2.55532e-06
3.00783e-05
-2.32144e-06
3.00121e-05
-2.11224e-06
2.99364e-05
-1.92558e-06
2.98547e-05
-1.75912e-06
-1.6105e-06
2.5322e-05
-1.37345e-06
2.607e-05
-3.65968e-06
2.69342e-05
-4.99179e-06
2.77596e-05
-5.63967e-06
2.84674e-05
-5.83919e-06
2.90195e-05
-5.72505e-06
2.9413e-05
-5.41953e-06
2.96647e-05
-5.01736e-06
2.97991e-05
-4.57856e-06
2.98411e-05
-4.13974e-06
2.98137e-05
-3.72243e-06
2.97362e-05
-3.33779e-06
2.96239e-05
-2.99028e-06
2.94888e-05
-2.68039e-06
2.93398e-05
-2.40633e-06
2.91835e-05
-2.16512e-06
2.90246e-05
-1.95332e-06
2.88664e-05
-1.76739e-06
2.87112e-05
-1.60394e-06
-1.45985e-06
2.54766e-05
-1.85008e-06
2.64633e-05
-4.64638e-06
2.74819e-05
-6.01032e-06
2.83426e-05
-6.50042e-06
2.8975e-05
-6.47157e-06
2.93691e-05
-6.11913e-06
2.95564e-05
-5.60685e-06
2.95826e-05
-5.04355e-06
2.94917e-05
-4.48765e-06
2.9321e-05
-3.96905e-06
2.90998e-05
-3.50123e-06
2.88498e-05
-3.08775e-06
2.85863e-05
-2.72681e-06
2.83199e-05
-2.41404e-06
2.80576e-05
-2.14403e-06
2.78038e-05
-1.91127e-06
2.75609e-05
-1.71049e-06
2.73305e-05
-1.53694e-06
2.7113e-05
-1.38643e-06
-1.25531e-06
2.5727e-05
-2.57705e-06
2.70041e-05
-5.92348e-06
2.8118e-05
-7.12429e-06
2.88823e-05
-7.26466e-06
2.92816e-05
-6.87087e-06
2.93711e-05
-6.20868e-06
2.92357e-05
-5.47141e-06
2.89537e-05
-4.76157e-06
2.85859e-05
-4.11983e-06
2.81757e-05
-3.55882e-06
2.77522e-05
-3.07773e-06
2.73338e-05
-2.6694e-06
2.69315e-05
-2.32451e-06
2.65511e-05
-2.03367e-06
2.61954e-05
-1.78825e-06
2.58648e-05
-1.58071e-06
2.55589e-05
-1.40459e-06
2.52764e-05
-1.25447e-06
2.50158e-05
-1.12584e-06
-1.01496e-06
2.61136e-05
-3.69065e-06
2.7663e-05
-7.47285e-06
2.86875e-05
-8.14886e-06
2.91143e-05
-7.69141e-06
2.90623e-05
-6.81885e-06
2.86887e-05
-5.8351e-06
2.81353e-05
-4.918e-06
2.75017e-05
-4.12795e-06
2.68503e-05
-3.46843e-06
2.62173e-05
-2.9259e-06
2.56218e-05
-2.48222e-06
2.50719e-05
-2.11949e-06
2.45696e-05
-1.82219e-06
2.41135e-05
-1.57755e-06
2.37005e-05
-1.37523e-06
2.33267e-05
-1.20698e-06
2.29884e-05
-1.06622e-06
2.26816e-05
-9.47666e-07
2.24028e-05
-8.47123e-07
-7.612e-07
2.66387e-05
-5.32931e-06
2.82492e-05
-9.08337e-06
2.88091e-05
-8.70876e-06
2.85622e-05
-7.4445e-06
2.78397e-05
-6.09641e-06
2.69029e-05
-4.89823e-06
2.59178e-05
-3.93298e-06
2.49707e-05
-3.18079e-06
2.40996e-05
-2.59739e-06
2.33172e-05
-2.14345e-06
2.26225e-05
-1.78757e-06
2.2009e-05
-1.50593e-06
2.14677e-05
-1.28093e-06
2.09897e-05
-1.09951e-06
2.05664e-05
-9.5196e-07
2.01903e-05
-8.30925e-07
1.98549e-05
-7.30814e-07
1.95546e-05
-6.47313e-07
1.92845e-05
-5.77073e-07
-5.17458e-07
2.71457e-05
-7.47504e-06
2.82319e-05
-1.01696e-05
2.77669e-05
-8.24375e-06
2.65308e-05
-6.20841e-06
2.50522e-05
-4.61779e-06
2.36135e-05
-3.4595e-06
2.23253e-05
-2.64477e-06
2.12103e-05
-2.06586e-06
2.02583e-05
-1.64536e-06
1.94482e-05
-1.33332e-06
1.87575e-05
-1.09693e-06
1.81662e-05
-9.14558e-07
1.76569e-05
-7.7169e-07
1.72157e-05
-6.58279e-07
1.68309e-05
-5.67189e-07
1.64932e-05
-4.9324e-07
1.6195e-05
-4.32603e-07
1.59301e-05
-3.82394e-07
1.56934e-05
-3.40418e-07
-3.04974e-07
2.70584e-05
-9.53347e-06
2.65082e-05
-9.61936e-06
2.44864e-05
-6.22192e-06
2.22369e-05
-3.95888e-06
2.02379e-05
-2.61882e-06
1.86043e-05
-1.82586e-06
1.72963e-05
-1.33678e-06
1.62459e-05
-1.01551e-06
1.53945e-05
-7.93965e-07
1.46964e-05
-6.35203e-07
1.41172e-05
-5.17732e-07
1.36313e-05
-4.28645e-07
1.32194e-05
-3.59778e-07
1.28668e-05
-3.05691e-07
1.25623e-05
-2.62628e-07
1.22969e-05
-2.27925e-07
1.2064e-05
-1.99645e-07
1.18579e-05
-1.76352e-07
1.16745e-05
-1.56966e-07
-1.40656e-07
2.48076e-05
-9.34109e-06
2.11722e-05
-5.98395e-06
1.77372e-05
-2.78689e-06
1.51502e-05
-1.37192e-06
1.331e-05
-7.78605e-07
1.1995e-05
-5.10907e-07
1.10223e-05
-3.64013e-07
1.02785e-05
-2.71707e-07
9.69456e-06
-2.10049e-07
9.22614e-06
-1.66783e-07
8.84358e-06
-1.35174e-07
8.52637e-06
-1.11437e-07
8.25983e-06
-9.32414e-08
8.0332e-06
-7.90548e-08
7.8384e-06
-6.78309e-08
7.66931e-06
-5.88359e-08
7.52121e-06
-5.15414e-08
7.39042e-06
-4.55591e-08
7.27405e-06
-4.05986e-08
-3.6438e-08
1.56589e-05
9.67496e-06
6.88808e-06
5.51615e-06
4.73755e-06
4.22664e-06
3.86263e-06
3.59092e-06
3.38087e-06
3.21409e-06
3.07891e-06
2.96748e-06
2.87424e-06
2.79518e-06
2.72735e-06
2.66851e-06
2.61697e-06
2.57141e-06
2.53082e-06
)
;

boundaryField
{
    fixedWalls
    {
        type            calculated;
        value           uniform 0;
    }
    inlet
    {
        type            calculated;
        value           nonuniform List<scalar> 
20
(
-2.5e-05
-2.5e-05
-2.5e-05
-2.5e-05
-2.5e-05
-2.5e-05
-2.5e-05
-2.5e-05
-2.5e-05
-2.5e-05
-2.5e-05
-2.5e-05
-2.5e-05
-2.5e-05
-2.5e-05
-2.5e-05
-2.5e-05
-2.5e-05
-2.5e-05
-2.5e-05
)
;
    }
    outlet
    {
        type            calculated;
        value           nonuniform 0();
    }
    frontAndBack
    {
        type            empty;
        value           nonuniform 0();
    }
    procBoundary4to0
    {
        type            processor;
        value           nonuniform List<scalar> 
20
(
7.27165e-13
-1.30396e-12
-1.173e-12
-7.64704e-13
-4.18521e-13
-3.49014e-14
4.35252e-13
8.57924e-13
1.26568e-12
1.4945e-12
1.50367e-12
1.59073e-12
1.52147e-12
1.19073e-12
9.35961e-13
6.72366e-13
-4.76592e-14
3.19927e-13
-2.70413e-13
-3.49876e-13
)
;
    }
    procBoundary4to5
    {
        type            processor;
        value           nonuniform List<scalar> 
20
(
3.11115e-05
3.11464e-05
3.12118e-05
3.1298e-05
3.13883e-05
3.14568e-05
3.14667e-05
3.13684e-05
3.11006e-05
3.05924e-05
2.97693e-05
2.85606e-05
2.69084e-05
2.47755e-05
2.21491e-05
1.90408e-05
1.5481e-05
1.15102e-05
7.16983e-06
2.49438e-06
)
;
    }
}


// ************************************************************************* //
