/*--------------------------------*- C++ -*----------------------------------*\
| =========                 |                                                 |
| \\      /  F ield         | OpenFOAM: The Open Source CFD Toolbox           |
|  \\    /   O peration     | Version:                                        |
|   \\  /    A nd           | Website:  www.openfoam.com                      |
|    \\/     M anipulation  |                                                 |
\*---------------------------------------------------------------------------*/
FoamFile
{
    version     2.0;
    format      ascii;
    class       surfaceScalarField;
    location    "0.6";
    object      phi;
}
// * * * * * * * * * * * * * * * * * * * * * * * * * * * * * * * * * * * * * //

dimensions      [0 3 -1 0 0 0 0];
oriented        oriented;


internalField   nonuniform List<scalar> 
760
(
2.11585e-06
9.74881e-09
2.10653e-06
9.32262e-09
2.0976e-06
8.92104e-09
2.08906e-06
8.54203e-09
2.08088e-06
8.18372e-09
2.07303e-06
7.84449e-09
2.06551e-06
7.52292e-09
2.05829e-06
7.21773e-09
2.05137e-06
6.92771e-09
2.04471e-06
6.65177e-09
2.03833e-06
6.38893e-09
2.03219e-06
6.13836e-09
2.02629e-06
5.89935e-09
2.02062e-06
5.67118e-09
2.01516e-06
5.45312e-09
2.00992e-06
5.24456e-09
2.00487e-06
5.0449e-09
2.00002e-06
4.85382e-09
1.99535e-06
4.67072e-09
4.49526e-09
6.09991e-06
3.68264e-08
6.07404e-06
3.51971e-08
6.0493e-06
3.36636e-08
6.02562e-06
3.22176e-08
6.00295e-06
3.08519e-08
5.98124e-06
2.95601e-08
5.96042e-06
2.83365e-08
5.94047e-06
2.71761e-08
5.92132e-06
2.60741e-08
5.90295e-06
2.50263e-08
5.88531e-06
2.40291e-08
5.86836e-06
2.30792e-08
5.85209e-06
2.21735e-08
5.83645e-06
2.13091e-08
5.82142e-06
2.04836e-08
5.80697e-06
1.96945e-08
5.79308e-06
1.89397e-08
5.77971e-06
1.82174e-08
5.76686e-06
1.75256e-08
1.68628e-08
9.83222e-06
7.88421e-08
9.7921e-06
7.53239e-08
9.75375e-06
7.20148e-08
9.71707e-06
6.88966e-08
9.68196e-06
6.59535e-08
9.64835e-06
6.31713e-08
9.61615e-06
6.05375e-08
9.58529e-06
5.80408e-08
9.55569e-06
5.56711e-08
9.5273e-06
5.34192e-08
9.50005e-06
5.12771e-08
9.47389e-06
4.92374e-08
9.44877e-06
4.72934e-08
9.42464e-06
4.54389e-08
9.40146e-06
4.36683e-08
9.37918e-06
4.19767e-08
9.35776e-06
4.03592e-08
9.33716e-06
3.88118e-08
9.31736e-06
3.73303e-08
3.59112e-08
1.3306e-05
1.33039e-07
1.32543e-05
1.27063e-07
1.32049e-05
1.21444e-07
1.31576e-05
1.16152e-07
1.31124e-05
1.1116e-07
1.30691e-05
1.06442e-07
1.30277e-05
1.01978e-07
1.2988e-05
9.77481e-08
1.29499e-05
9.37346e-08
1.29134e-05
8.99222e-08
1.28784e-05
8.62969e-08
1.28448e-05
8.2846e-08
1.28125e-05
7.9558e-08
1.27815e-05
7.64225e-08
1.27518e-05
7.34298e-08
1.27232e-05
7.05714e-08
1.26957e-05
6.7839e-08
1.26693e-05
6.52258e-08
1.26439e-05
6.27245e-08
6.03293e-08
1.6513e-05
1.962e-07
1.64528e-05
1.87346e-07
1.63952e-05
1.79024e-07
1.63401e-05
1.71188e-07
1.62875e-05
1.63796e-07
1.62371e-05
1.56814e-07
1.61889e-05
1.50207e-07
1.61427e-05
1.43949e-07
1.60984e-05
1.38012e-07
1.6056e-05
1.32374e-07
1.60153e-05
1.27013e-07
1.59762e-05
1.21912e-07
1.59387e-05
1.17053e-07
1.59027e-05
1.1242e-07
1.58681e-05
1.07999e-07
1.58349e-05
1.03777e-07
1.5803e-05
9.97422e-08
1.57724e-05
9.58842e-08
1.57429e-05
9.21923e-08
8.86577e-08
1.94446e-05
2.64625e-07
1.93793e-05
2.52658e-07
1.93169e-05
2.41409e-07
1.92573e-05
2.30816e-07
1.92002e-05
2.20824e-07
1.91457e-05
2.11383e-07
1.90934e-05
2.02452e-07
1.90434e-05
1.93992e-07
1.89954e-05
1.85966e-07
1.89495e-05
1.78345e-07
1.89054e-05
1.711e-07
1.88631e-05
1.64205e-07
1.88225e-05
1.57638e-07
1.87835e-05
1.51378e-07
1.87461e-05
1.45404e-07
1.87102e-05
1.39701e-07
1.86757e-05
1.34251e-07
1.86425e-05
1.2904e-07
1.86107e-05
1.24054e-07
1.19282e-07
2.20931e-05
3.3419e-07
2.20267e-05
3.19087e-07
2.19632e-05
3.04883e-07
2.19025e-05
2.91502e-07
2.18445e-05
2.78877e-07
2.17889e-05
2.66946e-07
2.17357e-05
2.55655e-07
2.16848e-05
2.44957e-07
2.16359e-05
2.34808e-07
2.15891e-05
2.25168e-07
2.15442e-05
2.16004e-07
2.15011e-05
2.07282e-07
2.14598e-05
1.98974e-07
2.14201e-05
1.91053e-07
2.1382e-05
1.83496e-07
2.13454e-05
1.7628e-07
2.13103e-05
1.69385e-07
2.12765e-05
1.62793e-07
2.12441e-05
1.56486e-07
1.50449e-07
2.44535e-05
4.00491e-07
2.43902e-05
3.82456e-07
2.43296e-05
3.65482e-07
2.42716e-05
3.4948e-07
2.42161e-05
3.34372e-07
2.4163e-05
3.20087e-07
2.41121e-05
3.06562e-07
2.40633e-05
2.93741e-07
2.40165e-05
2.81573e-07
2.39717e-05
2.70012e-07
2.39287e-05
2.59018e-07
2.38874e-05
2.48552e-07
2.38478e-05
2.3858e-07
2.38098e-05
2.29071e-07
2.37733e-05
2.19998e-07
2.37382e-05
2.11333e-07
2.37045e-05
2.03053e-07
2.36722e-05
1.95136e-07
2.36411e-05
1.87561e-07
1.8031e-07
2.65247e-05
4.59074e-07
2.64686e-05
4.38538e-07
2.64149e-05
4.19189e-07
2.63634e-05
4.00928e-07
2.63141e-05
3.83671e-07
2.62669e-05
3.6734e-07
2.62216e-05
3.51866e-07
2.61781e-05
3.37187e-07
2.61365e-05
3.23247e-07
2.60965e-05
3.09996e-07
2.60581e-05
2.97387e-07
2.60213e-05
2.85379e-07
2.59859e-05
2.73934e-07
2.5952e-05
2.63016e-07
2.59194e-05
2.52595e-07
2.58881e-05
2.42641e-07
2.5858e-05
2.33127e-07
2.58291e-05
2.24029e-07
2.58013e-05
2.15323e-07
2.06988e-07
2.83103e-05
5.05719e-07
2.82656e-05
4.83316e-07
2.82226e-05
4.62174e-07
2.81813e-05
4.42195e-07
2.81417e-05
4.2329e-07
2.81037e-05
4.05379e-07
2.80671e-05
3.8839e-07
2.80321e-05
3.72258e-07
2.79984e-05
3.56926e-07
2.7966e-05
3.42341e-07
2.7935e-05
3.28452e-07
2.79051e-05
3.15218e-07
2.78765e-05
3.02597e-07
2.78489e-05
2.90552e-07
2.78225e-05
2.7905e-07
2.77971e-05
2.68059e-07
2.77726e-05
2.5755e-07
2.77492e-05
2.47498e-07
2.77266e-05
2.37877e-07
2.28664e-07
2.98202e-05
5.3675e-07
2.97903e-05
5.13268e-07
2.97614e-05
4.91067e-07
2.97335e-05
4.70051e-07
2.97067e-05
4.50135e-07
2.96808e-05
4.31238e-07
2.96559e-05
4.13292e-07
2.96319e-05
3.96233e-07
2.96089e-05
3.80001e-07
2.95867e-05
3.64545e-07
2.95653e-05
3.49815e-07
2.95447e-05
3.35768e-07
2.9525e-05
3.22362e-07
2.9506e-05
3.09561e-07
2.94877e-05
2.97329e-07
2.94701e-05
2.85636e-07
2.94532e-05
2.74451e-07
2.9437e-05
2.63747e-07
2.94213e-05
2.53499e-07
2.43683e-07
3.10698e-05
5.49312e-07
3.10574e-05
5.25634e-07
3.10453e-05
5.03202e-07
3.10334e-05
4.81925e-07
3.10218e-05
4.61726e-07
3.10105e-05
4.4253e-07
3.09996e-05
4.24273e-07
3.09889e-05
4.06894e-07
3.09786e-05
3.90338e-07
3.09686e-05
3.74556e-07
3.09589e-05
3.595e-07
3.09495e-05
3.45129e-07
3.09405e-05
3.31403e-07
3.09317e-05
3.18286e-07
3.09233e-05
3.05745e-07
3.09152e-05
2.93749e-07
3.09074e-05
2.82267e-07
3.08999e-05
2.71276e-07
3.08926e-05
2.60747e-07
2.50658e-07
3.208e-05
5.41593e-07
3.2087e-05
5.18631e-07
3.20934e-05
4.96827e-07
3.20992e-05
4.76102e-07
3.21046e-05
4.56389e-07
3.21095e-05
4.37622e-07
3.2114e-05
4.19743e-07
3.21182e-05
4.027e-07
3.21221e-05
3.86443e-07
3.21257e-05
3.70925e-07
3.21291e-05
3.56107e-07
3.21323e-05
3.41947e-07
3.21353e-05
3.28411e-07
3.21381e-05
3.15466e-07
3.21408e-05
3.03079e-07
3.21433e-05
2.91223e-07
3.21457e-05
2.79868e-07
3.2148e-05
2.68993e-07
3.21502e-05
2.58571e-07
2.4858e-07
3.28761e-05
5.12944e-07
3.29032e-05
4.91573e-07
3.29288e-05
4.7123e-07
3.29531e-05
4.51853e-07
3.29761e-05
4.33383e-07
3.29979e-05
4.15769e-07
3.30187e-05
3.9896e-07
3.30385e-05
3.82911e-07
3.30573e-05
3.67582e-07
3.30753e-05
3.52932e-07
3.30925e-05
3.38925e-07
3.31089e-05
3.25527e-07
3.31246e-05
3.12708e-07
3.31397e-05
3.00437e-07
3.31541e-05
2.88687e-07
3.31679e-05
2.77432e-07
3.31811e-05
2.66647e-07
3.31938e-05
2.56311e-07
3.32059e-05
2.46401e-07
2.36896e-07
3.34862e-05
4.63902e-07
3.35328e-05
4.44907e-07
3.35773e-05
4.26783e-07
3.36197e-05
4.09481e-07
3.36601e-05
3.92958e-07
3.36987e-05
3.77171e-07
3.37356e-05
3.62082e-07
3.37708e-05
3.47653e-07
3.38045e-05
3.33852e-07
3.38368e-05
3.20646e-07
3.38677e-05
3.08006e-07
3.38974e-05
2.95903e-07
3.39258e-05
2.84311e-07
3.3953e-05
2.73206e-07
3.39791e-05
2.62565e-07
3.40042e-05
2.52364e-07
3.40282e-05
2.42584e-07
3.40514e-05
2.33206e-07
3.40735e-05
2.2421e-07
2.15578e-07
3.39389e-05
3.96114e-07
3.40037e-05
3.80154e-07
3.40656e-05
3.64894e-07
3.41248e-05
3.50298e-07
3.41814e-05
3.36332e-07
3.42356e-05
3.22966e-07
3.42875e-05
3.10172e-07
3.43372e-05
2.9792e-07
3.43849e-05
2.86187e-07
3.44306e-05
2.74946e-07
3.44744e-05
2.64176e-07
3.45165e-05
2.53854e-07
3.45568e-05
2.43959e-07
3.45956e-05
2.34473e-07
3.46328e-05
2.25375e-07
3.46685e-05
2.1665e-07
3.47028e-05
2.08279e-07
3.47357e-05
2.00248e-07
3.47674e-05
1.92541e-07
1.85143e-07
3.42622e-05
3.12186e-07
3.43426e-05
2.99783e-07
3.44196e-05
2.87901e-07
3.44934e-05
2.76516e-07
3.45641e-05
2.65606e-07
3.46319e-05
2.5515e-07
3.4697e-05
2.45127e-07
3.47594e-05
2.35519e-07
3.48192e-05
2.26307e-07
3.48767e-05
2.17473e-07
3.49319e-05
2.09e-07
3.49849e-05
2.00874e-07
3.50357e-05
1.93079e-07
3.50846e-05
1.85601e-07
3.51316e-05
1.78424e-07
3.51767e-05
1.71538e-07
3.522e-05
1.64928e-07
3.52617e-05
1.58583e-07
3.53017e-05
1.52492e-07
1.46643e-07
3.44807e-05
2.15498e-07
3.45735e-05
2.07029e-07
3.46625e-05
1.98903e-07
3.47479e-05
1.91108e-07
3.48299e-05
1.83628e-07
3.49086e-05
1.76452e-07
3.49841e-05
1.69566e-07
3.50567e-05
1.62959e-07
3.51264e-05
1.56619e-07
3.51933e-05
1.50534e-07
3.52576e-05
1.44695e-07
3.53194e-05
1.39091e-07
3.53788e-05
1.33712e-07
3.54358e-05
1.28549e-07
3.54907e-05
1.23593e-07
3.55434e-05
1.18834e-07
3.5594e-05
1.14265e-07
3.56427e-05
1.09877e-07
3.56896e-05
1.05664e-07
1.01618e-07
3.46146e-05
1.1e-07
3.47159e-05
1.05706e-07
3.48132e-05
1.01583e-07
3.49067e-05
9.76244e-08
3.49965e-05
9.38232e-08
3.50828e-05
9.01738e-08
3.51657e-05
8.66702e-08
3.52453e-05
8.33062e-08
3.53219e-05
8.00762e-08
3.53954e-05
7.69752e-08
3.54661e-05
7.39982e-08
3.55341e-05
7.11399e-08
3.55994e-05
6.83953e-08
3.56622e-05
6.57602e-08
3.57225e-05
6.32298e-08
3.57806e-05
6.07999e-08
3.58364e-05
5.84656e-08
3.589e-05
5.62244e-08
3.59416e-05
5.40716e-08
5.20031e-08
3.46778e-05
3.47835e-05
3.48851e-05
3.49827e-05
3.50765e-05
3.51667e-05
3.52534e-05
3.53367e-05
3.54167e-05
3.54937e-05
3.55677e-05
3.56388e-05
3.57072e-05
3.57729e-05
3.58361e-05
3.58969e-05
3.59554e-05
3.60116e-05
3.60656e-05
)
;

boundaryField
{
    fixedWalls
    {
        type            calculated;
        value           uniform 0;
    }
    inlet
    {
        type            calculated;
        value           nonuniform 0();
    }
    outlet
    {
        type            calculated;
        value           nonuniform 0();
    }
    frontAndBack
    {
        type            empty;
        value           nonuniform 0();
    }
    procBoundary2to1
    {
        type            processor;
        value           nonuniform List<scalar> 
20
(
-2.1256e-06
-6.12699e-06
-9.87424e-06
-1.33602e-05
-1.65762e-05
-1.9513e-05
-2.21627e-05
-2.45199e-05
-2.65832e-05
-2.8357e-05
-2.98512e-05
-3.10824e-05
-3.20723e-05
-3.28475e-05
-3.34371e-05
-3.38712e-05
-3.41783e-05
-3.4384e-05
-3.45091e-05
-3.45678e-05
)
;
    }
    procBoundary2to3
    {
        type            processor;
        value           nonuniform List<scalar> 
20
(
1.99085e-06
5.75449e-06
9.29831e-06
1.26195e-05
1.57146e-05
1.85801e-05
2.12129e-05
2.36113e-05
2.57747e-05
2.77049e-05
2.94063e-05
3.08856e-05
3.21522e-05
3.32176e-05
3.40949e-05
3.47978e-05
3.53402e-05
3.57346e-05
3.59912e-05
3.61176e-05
)
;
    }
    procBoundary2to6
    {
        type            processor;
        value           nonuniform List<scalar> 
20
(
4.0709e-12
4.99614e-12
5.86543e-12
6.5359e-12
7.00863e-12
7.12358e-12
7.34215e-12
8.1205e-12
9.33722e-12
1.0201e-11
1.06849e-11
1.17401e-11
1.3497e-11
1.30377e-11
1.36865e-11
1.45048e-11
1.70292e-11
1.89743e-11
1.93083e-11
2.01157e-11
)
;
    }
}


// ************************************************************************* //
