/*--------------------------------*- C++ -*----------------------------------*\
| =========                 |                                                 |
| \\      /  F ield         | OpenFOAM: The Open Source CFD Toolbox           |
|  \\    /   O peration     | Version:                                        |
|   \\  /    A nd           | Website:  www.openfoam.com                      |
|    \\/     M anipulation  |                                                 |
\*---------------------------------------------------------------------------*/
FoamFile
{
    version     2.0;
    format      ascii;
    class       volScalarField;
    location    "183.6";
    object      p;
}
// * * * * * * * * * * * * * * * * * * * * * * * * * * * * * * * * * * * * * //

dimensions      [0 2 -2 0 0 0 0];


internalField   nonuniform List<scalar> 
1139
(
-0.3383
-0.215263
-0.121494
-0.16465
-0.0566099
-0.107545
-0.0129072
-0.0667516
-0.0982359
0.0135419
-0.0346642
-0.0696331
0.0275635
-0.0123791
-0.0474702
0.0392001
-0.000419987
-0.0286667
-0.047264
0.0412757
0.00741584
-0.0136677
-0.0328179
0.0337873
0.0155221
-0.00305288
-0.0187218
-1.17745
-1.2192
-1.19485
-1.13055
-1.032
-0.906189
-1.26359
-1.23644
-1.16864
-1.06717
-0.939893
-0.800958
-1.30012
-1.26554
-1.19158
-1.08559
-0.95634
-0.811431
-0.683158
-1.3186
-1.27721
-1.19689
-1.08245
-0.947566
-0.793938
-0.656579
-0.580466
-1.32061
-1.27401
-1.18725
-1.05616
-0.912722
-0.745762
-0.594786
-0.510161
-0.503497
-1.30635
-1.25551
-1.15776
-1.0174
-0.857493
-0.669226
-0.500988
-0.403351
-0.385597
-0.43177
-1.26059
-1.21059
-1.10556
-0.953309
-0.773887
-0.576018
-0.386144
-0.276672
-0.247038
-0.285628
-1.16719
-1.12445
-1.01752
-0.854393
-0.668392
-0.463321
-0.267773
-0.149894
-0.112965
-0.153598
-1.04302
-1.0095
-0.908762
-0.745904
-0.552616
-0.34806
-0.153222
-0.0275242
0.00543397
-0.0477611
-0.919278
-0.885172
-0.789043
-0.627311
-0.435835
-0.243469
-0.0543775
0.0777498
0.0981678
0.0247025
-0.819338
-0.784707
-0.692872
-0.533199
-0.346338
-0.158224
0.022877
0.127752
0.142734
0.0693226
-0.745596
-0.713005
-0.627362
-0.469151
-0.28638
-0.11109
0.0655903
0.174643
0.171457
0.0899161
-0.701416
-0.67366
-0.58354
-0.42405
-0.251707
-0.0811647
0.0944152
0.191095
0.174035
0.0966669
-0.68019
-0.659227
-0.565449
-0.408698
-0.237351
-0.0640084
0.0970794
0.171276
0.151522
0.090385
-0.687292
-0.670015
-0.570216
-0.412228
-0.244488
-0.07741
0.0746811
0.138882
0.124497
0.0765447
-0.714827
-0.700839
-0.589163
-0.423177
-0.256469
-0.0987035
0.0261248
0.0801212
0.0843004
0.0604092
-0.777789
-0.759509
-0.623542
-0.447576
-0.289578
-0.144561
-0.0307176
0.0290797
0.0509761
0.052357
-0.920877
-0.894103
-0.739294
-0.553961
-0.393043
-0.244301
-0.113268
-0.0211343
0.0280651
0.0421365
-1.05421
-1.0295
-0.887108
-0.706924
-0.540664
-0.379417
-0.225372
-0.0966372
-0.0111394
0.0208631
-1.11589
-1.10478
-0.989168
-0.823802
-0.65785
-0.485542
-0.3156
-0.164338
-0.0556442
-0.00400749
-1.0367
-1.05217
-0.972533
-0.834298
-0.678685
-0.511845
-0.346449
-0.197461
-0.0887296
-0.0263746
-0.858448
-0.883958
-0.83603
-0.732393
-0.605295
-0.465569
-0.328536
-0.203562
-0.111026
-0.0442141
-0.661
-0.681904
-0.651077
-0.58237
-0.491075
-0.388558
-0.289171
-0.194594
-0.122479
-0.0590092
-0.502404
-0.514929
-0.492229
-0.446667
-0.383923
-0.312725
-0.242797
-0.175414
-0.12027
-0.06646
-0.396723
-0.399327
-0.380911
-0.347117
-0.300603
-0.249734
-0.199429
-0.152503
-0.111284
-0.0692855
-0.339244
-0.327324
-0.305629
-0.276088
-0.24009
-0.199319
-0.159852
-0.124784
-0.0946575
-0.063594
-0.317302
-0.291614
-0.26031
-0.227889
-0.194322
-0.159097
-0.126869
-0.0995573
-0.0766164
-0.0536683
-0.329897
-0.287936
-0.241008
-0.198148
-0.161548
-0.128673
-0.0978189
-0.0748402
-0.0576811
-0.0396113
-0.383771
-0.316533
-0.249887
-0.191267
-0.143052
-0.105689
-0.0757073
-0.0546269
-0.0406598
-0.0255619
-0.48639
-0.385573
-0.288308
-0.204762
-0.142384
-0.0962562
-0.0612553
-0.0373464
-0.0238247
-0.0121435
-0.62901
-0.486847
-0.354426
-0.244371
-0.158075
-0.0954056
-0.0542875
-0.027708
-0.0126167
-0.00253081
-0.742265
-0.571822
-0.408278
-0.271887
-0.171814
-0.100308
-0.0502365
-0.0155907
0.00278623
0.0107857
-0.751474
-0.584844
-0.428369
-0.298509
-0.205015
-0.119821
-0.0621719
-0.0227912
0.00119978
0.0190466
-0.665056
-0.524651
-0.391292
-0.273701
-0.181328
-0.112081
-0.0615933
-0.0193845
-0.0114247
0.0123682
-0.514444
-0.422617
-0.334995
-0.252175
-0.176415
-0.112081
-0.0645192
-0.0312072
-0.00869502
0.00948567
-0.395124
-0.342978
-0.284367
-0.221293
-0.160977
-0.108792
-0.0687056
-0.0385386
-0.0175292
-0.00336846
-0.0634489
-0.0317174
-0.0112805
-0.000250313
0.0339975
0.023738
0.0223314
0.0225981
0.0236941
0.0280106
0.0313639
0.0338215
0.038689
0.041316
0.0426813
0.0452303
0.0475766
0.0486944
0.049842
0.0510354
0.051803
0.0524691
0.0530196
0.05345
0.0536305
0.0538935
0.0540907
0.0540576
0.054089
0.054057
0.0539694
0.0538632
0.0536892
0.0536808
0.0327254
0.0234913
0.0204192
0.019716
0.0208216
0.0235657
0.027174
0.0311138
0.0362421
0.0375716
0.0405999
0.0436052
0.0457498
0.0472814
0.0488007
0.0500299
0.050937
0.0517797
0.0524158
0.0529039
0.0531753
0.0535424
0.0537162
0.0537566
0.053843
0.053812
0.0537599
0.053678
0.0534954
0.0534974
0.0195267
0.0138682
0.0139483
0.0155867
0.0171445
0.019885
0.0243817
0.029051
0.0331065
0.0350967
0.038948
0.0418927
0.0441155
0.0460443
0.0476923
0.0489623
0.0500537
0.0509953
0.0517118
0.0522336
0.0526345
0.0530562
0.05324
0.0533877
0.0535191
0.0535132
0.0535118
0.0534594
0.0532839
0.0532973
0.00330758
0.00319105
0.00834187
0.0116979
0.0143698
0.0183448
0.0231999
0.0274302
0.0312905
0.0344352
0.0378796
0.0405858
0.0429147
0.0449156
0.0465598
0.0478711
0.049114
0.0500765
0.0508511
0.051422
0.0519689
0.0524029
0.0526536
0.0529143
0.0530914
0.0531465
0.0532077
0.0531961
0.0530525
0.0530794
-0.0118908
-0.00339029
0.0054572
0.00983599
0.0141658
0.019396
0.0237421
0.0276599
0.0315343
0.0346966
0.0376167
0.0400623
0.0422923
0.0441097
0.0456506
0.046909
0.0482461
0.0491665
0.0499569
0.0506157
0.0512511
0.0516772
0.0520331
0.0523806
0.0526071
0.0527417
0.0528639
0.0529002
0.0528055
0.0528457
-0.0210353
-0.00608288
0.00558449
0.011434
0.0173951
0.0225546
0.0262306
0.0300808
0.0335396
0.0361866
0.0385177
0.0405869
0.042462
0.0439621
0.0453134
0.0464993
0.0476544
0.048544
0.0493113
0.0500457
0.0506603
0.0510886
0.0515268
0.0519031
0.052167
0.0523621
0.0525241
0.0526009
0.0525521
0.0526015
-0.029843
-0.0085194
0.00536005
0.0133591
0.0212498
0.0260321
0.0297918
0.0336436
0.0363681
0.0384639
0.0403244
0.0419921
0.0433325
0.0445198
0.0456335
0.0466452
0.0475712
0.0484034
0.0490939
0.0498154
0.0503291
0.0507762
0.0512285
0.051577
0.0518511
0.0520602
0.052227
0.0523226
0.0522985
0.0523499
-0.0356931
-0.0111351
0.00399657
0.0143273
0.0238523
0.0288705
0.0334461
0.0370033
0.0392288
0.041016
0.0425196
0.0437426
0.0446366
0.045598
0.0464379
0.0471923
0.0479485
0.048629
0.0492355
0.0498493
0.0502673
0.0507169
0.0511059
0.0514003
0.0516538
0.0518343
0.0519771
0.0520683
0.0520454
0.0520924
-0.0377959
-0.0126722
0.00158022
0.0151577
0.0248727
0.0307336
0.0360708
0.0394792
0.0416927
0.0432738
0.0444698
0.0452297
0.0458763
0.0465727
0.0471524
0.0477287
0.0483893
0.0488661
0.0494233
0.0498901
0.0502754
0.0506917
0.0510035
0.0512603
0.0514831
0.0516256
0.0517391
0.0518161
0.0517856
0.0518266
-0.0356916
-0.0125503
0.000838149
0.0160911
0.0248191
0.0313331
0.0370504
0.0406866
0.0429174
0.044505
0.0455211
0.0461612
0.0466906
0.0471653
0.0475468
0.0480207
0.0485059
0.0488698
0.0493898
0.0497507
0.0501382
0.0505047
0.0507768
0.0510277
0.0512351
0.0513638
0.0514684
0.05154
0.0515116
0.0515505
-0.0285304
-0.00907457
0.00408565
0.0189476
0.0263
0.0331693
0.0387102
0.0417925
0.0438247
0.0451802
0.0459549
0.0463897
0.0467552
0.0470718
0.047397
0.0478115
0.0481558
0.0485404
0.048996
0.0493294
0.0497352
0.0500869
0.0503816
0.0506534
0.0508774
0.0510247
0.0511462
0.0512292
0.0512196
0.051262
-0.0173051
-0.00235625
0.0102688
0.0234172
0.02799
0.035573
0.0400786
0.042706
0.0445482
0.0456676
0.0461693
0.0464395
0.0466384
0.0468172
0.0470206
0.0473148
0.0475985
0.0480118
0.0484096
0.0487828
0.0491944
0.049563
0.0499001
0.0502019
0.0504605
0.050642
0.0507941
0.0508979
0.0509146
0.0509634
-0.00466801
0.00859246
0.0194003
0.0308431
0.0338826
0.0407558
0.0429998
0.0447092
0.0460045
0.0464611
0.0465311
0.0464751
0.0464861
0.0465136
0.0466459
0.046861
0.0471482
0.0475164
0.0478892
0.048297
0.0487188
0.0491135
0.0494819
0.0498034
0.0500808
0.0502833
0.0504532
0.0505702
0.0506039
0.050656
0.0057613
0.0178839
0.0260784
0.035598
0.0391074
0.0454274
0.0463635
0.0477813
0.0482944
0.0481179
0.0477206
0.0473264
0.0469907
0.0467378
0.046679
0.0467841
0.0470096
0.0473189
0.0476707
0.0480644
0.0484601
0.0488458
0.0492029
0.0495208
0.0497868
0.0499843
0.0501471
0.0502606
0.0502935
0.0503428
0.0135995
0.0253224
0.0327759
0.0403717
0.044069
0.0486006
0.0491053
0.0501347
0.0498772
0.0492432
0.0485513
0.0479437
0.047409
0.0470223
0.0468789
0.0468846
0.0470109
0.0472392
0.0475521
0.0479107
0.0482835
0.0486489
0.0489852
0.0492853
0.0495253
0.0497089
0.0498509
0.0499537
0.0499773
0.0500214
0.0216041
0.0323343
0.0405748
0.0436708
0.0486078
0.0507799
0.0510618
0.0515496
0.0509182
0.0500133
0.0490266
0.0480902
0.0473245
0.0468267
0.0466106
0.04658
0.0466977
0.0469376
0.0472478
0.0475858
0.0479468
0.0483098
0.0486495
0.0489483
0.049195
0.0493828
0.0495194
0.0496237
0.0496462
0.049689
0.0315867
0.0422679
0.051616
0.0502709
0.0552001
0.0539729
0.0528545
0.0517107
0.0503355
0.0492679
0.0482117
0.0473399
0.0466288
0.0461699
0.0459313
0.0458876
0.0460101
0.046273
0.0466116
0.046984
0.0473966
0.0477962
0.0481654
0.0484864
0.0487686
0.0489794
0.0491354
0.0492574
0.0492943
0.049342
0.0303108
0.0410731
0.0538673
0.0389631
0.0547851
0.0527541
0.0530067
0.051562
0.0498479
0.0481699
0.0469085
0.0459601
0.0453576
0.0449833
0.0448552
0.0449384
0.045173
0.0455166
0.0459021
0.0463342
0.0467924
0.0472298
0.0476373
0.0479997
0.0483191
0.0485528
0.0487346
0.0488753
0.0489295
0.0489825
0.0254638
0.0343319
0.0422866
0.0429595
0.0463987
0.046718
0.0473921
0.047365
0.0469786
0.0464034
0.0457051
0.0450597
0.0445802
0.0442657
0.0442129
0.0443217
0.0445795
0.0449599
0.045413
0.0459043
0.0463875
0.046839
0.0472555
0.0476287
0.047941
0.0481744
0.0483615
0.0485027
0.0485613
0.0486136
0.00947124
0.0177398
0.024241
0.0293987
0.0355451
0.0394009
0.0412212
0.0420247
0.0424746
0.0428162
0.0430233
0.0431869
0.0432227
0.043293
0.0434851
0.0437685
0.0441713
0.0446361
0.0451273
0.0456265
0.0461168
0.046581
0.0470021
0.0473583
0.0476475
0.0478607
0.0480244
0.0481471
0.0481931
0.0482375
0.00648756
0.0100255
0.00938853
0.0126155
0.0215249
0.0292999
0.033951
0.0369691
0.038723
0.0399518
0.0407331
0.0413427
0.0417975
0.0422566
0.0426341
0.043111
0.0436607
0.0442349
0.0448085
0.0453645
0.0458799
0.0463434
0.0467443
0.0470763
0.0473496
0.0475381
0.0476796
0.0477841
0.0478158
0.0478521
0.0072235
0.00837471
-0.0150298
-0.00111864
0.00904749
0.018157
0.0266947
0.0308704
0.0335449
0.0398171
0.0448468
0.0455623
-0.00399444
0.00758085
0.0145004
0.0223324
0.028623
0.0299027
0.0337986
0.0413512
0.0440923
0.0440867
0.0477236
0.0502371
0.0506248
0.0520841
0.0533709
0.0538857
0.0545153
0.0549984
0.0552508
0.0554239
0.0555745
0.0555323
0.0554889
0.0554732
0.0552628
0.0550782
0.0549085
0.0546809
0.0544783
0.0544172
0.00533572
0.0104341
0.0147108
0.0228863
0.0279694
0.0289683
0.0357367
0.0422218
0.0419077
0.043754
0.0482212
0.0491489
0.0497773
0.0517509
0.0526471
0.0531747
0.0539579
0.0544141
0.0546987
0.0549259
0.0551046
0.0550595
0.0551276
0.0551244
0.0549405
0.0548197
0.0546702
0.054467
0.0542816
0.0542316
0.0210358
0.019639
0.0198922
0.0253549
0.0267887
0.0294687
0.037435
0.0401668
0.0399854
0.0445462
0.0475889
0.0475794
0.0493843
0.0512171
0.051738
0.0525215
0.0533481
0.0537755
0.0541282
0.0544254
0.0545945
0.0545989
0.0547652
0.0547385
0.054614
0.0545499
0.0544198
0.0542515
0.0540809
0.0540462
0.0274361
0.0202379
0.0212651
0.0249401
0.0255953
0.0305182
0.0357979
0.0365815
0.0397245
0.0441368
0.0452391
0.0463487
0.0488883
0.050107
0.0507742
0.0518496
0.0526147
0.0531071
0.0535651
0.0539333
0.0540882
0.054214
0.0544234
0.0543716
0.0543278
0.0542926
0.0541813
0.0540476
0.0538811
0.0538614
)
;

boundaryField
{
    outlet
    {
        type            fixedValue;
        value           nonuniform 0();
    }
    upperWall
    {
        type            symmetryPlane;
    }
    lowerWall
    {
        type            symmetryPlane;
    }
    inlet
    {
        type            zeroGradient;
    }
    cylinder
    {
        type            zeroGradient;
    }
    frontAndBack
    {
        type            empty;
    }
    procBoundary2to1
    {
        type            processor;
        value           nonuniform List<scalar> 
63
(
-0.48026
-0.48026
-0.346044
-0.242401
-0.242401
-0.184903
-0.136606
-0.136606
-0.118432
-0.0890745
-0.0647963
-0.0647963
-0.0584885
-0.0421009
-0.0284955
-0.0284955
-1.15133
-1.15119
-1.15119
-1.08766
-0.988887
-0.863544
-0.772107
-0.772107
-0.678577
-0.678577
-0.611112
-0.611112
-0.581866
-0.581866
-0.561115
-0.561115
-0.0196275
-0.00471306
0.00764541
0.0175431
0.025885
0.0314596
0.0343581
0.0388684
0.0441919
0.0466428
0.047554
0.047554
0.0505566
0.0516065
0.0525341
0.0538301
0.0544967
0.0549783
0.055435
0.0556866
0.0558276
0.0559359
0.0559167
0.0557949
0.0557371
0.0555305
0.055302
0.055117
0.0548819
0.0546677
0.0546023
)
;
    }
    procBoundary2to3
    {
        type            processor;
        value           nonuniform List<scalar> 
43
(
-0.333541
-0.311111
-0.275775
-0.224126
-0.163935
-0.108212
-0.108212
-0.105775
-0.0564095
-0.022937
-0.00396214
-0.00396214
0.00626534
0.00939746
0.0188207
0.0245424
0.0287416
0.0318535
0.0343466
0.0364288
0.0380634
0.039153
0.0400454
0.0406499
0.0413619
0.0421302
0.042864
0.0435615
0.0442283
0.0448536
0.045425
0.0459261
0.046353
0.0466958
0.0469745
0.047158
0.0472933
0.0473914
0.0474201
0.0474528
-0.00525693
0.00626534
0.00526307
)
;
    }
    procBoundary2to6
    {
        type            processor;
        value           nonuniform List<scalar> 
37
(
-1.16382
-1.20199
-1.2491
-1.29209
-1.31724
-1.32176
-1.30897
-1.25835
-1.15508
-1.02163
-0.89511
-0.793845
-0.721648
-0.675021
-0.64654
-0.642951
-0.657357
-0.701478
-0.821202
-0.941786
-0.998685
-0.92202
-0.762822
-0.593372
-0.463702
-0.379827
-0.338815
-0.330355
-0.358963
-0.435885
-0.567984
-0.746095
-0.89191
-0.901031
-0.792239
-0.601718
-0.440323
)
;
    }
}


// ************************************************************************* //
