/*--------------------------------*- C++ -*----------------------------------*\
| =========                 |                                                 |
| \\      /  F ield         | OpenFOAM: The Open Source CFD Toolbox           |
|  \\    /   O peration     | Version:                                        |
|   \\  /    A nd           | Website:  www.openfoam.com                      |
|    \\/     M anipulation  |                                                 |
\*---------------------------------------------------------------------------*/
FoamFile
{
    version     2.0;
    format      ascii;
    class       volVectorField;
    location    "169.8";
    object      U;
}
// * * * * * * * * * * * * * * * * * * * * * * * * * * * * * * * * * * * * * //

dimensions      [0 1 -1 0 0 0 0];


internalField   nonuniform List<vector> 
1150
(
(0.858921 0.0177035 -4.89755e-21)
(0.847746 0.0194974 1.11328e-20)
(0.835057 0.0218921 -6.37611e-21)
(0.862065 0.0378885 -3.04942e-21)
(0.852567 0.0409822 2.25575e-21)
(0.841013 0.0452065 -2.95867e-20)
(0.867553 0.055989 -5.33688e-21)
(0.860061 0.060086 3.83041e-20)
(0.850061 0.0657128 -4.79961e-20)
(0.875759 0.0759365 1.04562e-21)
(0.870675 0.081217 1.17841e-20)
(0.887005 0.0915033 5.52368e-21)
(0.884544 0.0971395 8.50418e-20)
(0.900507 0.108931 -2.33243e-20)
(1.00028 0.000634697 -2.14256e-22)
(1.00416 0.00532493 -6.24748e-23)
(1.00154 -0.00407503 3.99348e-23)
(1.00304 -0.00562504 -1.67509e-22)
(1.00027 -0.00187014 4.51656e-23)
(1.00056 -0.00255805 1.95023e-22)
(0.999189 -0.00194687 -1.78896e-22)
(0.997785 0.00624723 1.1708e-23)
(0.995885 -0.000691866 -1.04075e-22)
(0.995307 0.0016105 1.62735e-22)
(0.993551 0.00277572 -1.12671e-22)
(0.991494 -0.00151535 4.12018e-23)
(0.989343 -0.00267031 -3.79505e-22)
(0.987195 -0.00138838 3.08333e-22)
(0.984212 -0.00314585 -2.45705e-22)
(0.981616 -0.00242119 5.34498e-22)
(0.977399 -0.00275318 3.48236e-23)
(0.973861 -0.000458995 -1.10052e-21)
(0.968635 -0.000430944 1.17073e-21)
(0.963519 0.00155766 -3.45351e-22)
(0.95725 0.00203558 8.17745e-22)
(0.950996 0.00425395 -2.0702e-21)
(0.94381 0.00504966 2.7539e-22)
(0.935882 0.00719164 1.28622e-21)
(0.927234 0.00807926 3.5148e-22)
(0.917795 0.0101412 -3.54123e-21)
(0.907652 0.0111907 2.87973e-21)
(0.896446 0.0132606 -1.62573e-22)
(0.884415 0.0143283 5.75571e-22)
(0.871193 0.0165025 2.89289e-21)
(1.001 -0.000574316 9.14181e-22)
(1.00252 0.00726926 -1.44524e-22)
(1.00092 -0.00604806 -5.69108e-22)
(1.00477 -0.0038416 2.41643e-22)
(1.00064 -0.00323249 -4.2709e-22)
(1.00082 -0.000767759 6.92843e-22)
(0.999949 -0.00278611 -2.6623e-22)
(0.996587 0.00809412 -5.45304e-22)
(0.994862 -0.0016386 4.54081e-22)
(0.994755 0.00354434 -8.07816e-22)
(0.993077 0.00197421 3.77729e-22)
(0.990636 0.00030829 -2.64677e-22)
(0.989859 -0.00254767 4.29005e-22)
(0.987986 0.000412447 -2.52923e-22)
(0.984561 -0.00272225 2.24327e-21)
(0.982767 0.000197324 -3.4622e-21)
(0.978275 -0.00125079 3.07271e-21)
(0.975189 0.00273181 2.41381e-21)
(0.969216 0.00221712 -3.05528e-21)
(0.964335 0.00615094 3.09348e-21)
(0.957859 0.00611481 -4.90707e-21)
(0.951653 0.0105261 -1.67087e-21)
(0.944439 0.0110687 -1.24162e-21)
(0.936378 0.0155682 -2.07926e-21)
(0.928063 0.0167099 5.62752e-21)
(0.918393 0.021398 1.0889e-21)
(0.908822 0.0230096 -2.97861e-21)
(0.897287 0.0280791 6.82704e-21)
(0.885983 0.0300667 3.56892e-22)
(0.872729 0.0356335 -7.83549e-21)
(1.00177 -0.00170543 -1.51358e-21)
(1.00057 0.00931772 -2.72661e-22)
(1.00061 -0.00843992 -1.84023e-22)
(1.00646 -0.0020585 -1.11674e-21)
(1.00099 -0.00444038 1.90578e-22)
(1.001 0.000900505 -1.57791e-21)
(1.00054 -0.00318649 1.3089e-21)
(0.995129 0.00995461 1.55137e-21)
(0.993927 -0.00277348 -1.14529e-21)
(0.994068 0.00587449 -1.6748e-21)
(0.992698 0.000642906 1.49952e-21)
(0.989935 0.00190773 -1.80684e-21)
(0.990493 -0.00236401 3.26041e-21)
(0.988651 0.00168812 -5.69393e-22)
(0.985186 -0.00242785 -1.12489e-21)
(0.983993 0.00250852 2.03069e-21)
(0.97901 -0.000137875 -7.05864e-21)
(0.97653 0.00579651 9.7673e-21)
(0.969985 0.00428397 -1.46982e-21)
(0.965204 0.0104787 -4.3292e-23)
(0.958603 0.00955369 -2.79978e-21)
(0.952498 0.0161003 1.42068e-22)
(0.945324 0.0160214 -5.93014e-21)
(0.93725 0.0228623 1.18337e-20)
(0.929443 0.0236743 1.34858e-21)
(0.919791 0.0310951 -8.7232e-21)
(0.91103 0.0327615 3.33802e-21)
(0.899432 0.0409342 -2.75765e-23)
(0.889179 0.0435703 -6.92313e-21)
(0.876193 0.0528389 1.4272e-20)
(1.00261 -0.00257636 9.95759e-22)
(0.998283 0.0111739 6.8848e-22)
(1.00071 -0.0109334 3.33809e-22)
(1.00815 -0.000535906 2.81156e-21)
(1.00127 -0.00541093 3.73872e-22)
(1.00101 0.00246239 -8.43652e-22)
(1.00097 -0.00315465 1.84089e-23)
(0.993246 0.0115898 -8.15622e-22)
(0.993193 -0.00372356 1.58083e-21)
(0.993322 0.00793511 -8.5492e-22)
(0.99237 -0.000923356 -1.7881e-21)
(0.989577 0.00336935 1.1691e-21)
(0.9913 -0.00235486 1.3905e-21)
(0.989244 0.00265403 -3.11451e-21)
(0.9861 -0.00219985 6.69404e-21)
(0.985156 0.0051173 -9.02991e-21)
(0.979903 0.00110188 4.52179e-21)
(0.977568 0.00939868 -6.52955e-21)
(0.970597 0.00715722 3.42274e-21)
(0.965956 0.0153235 7.22323e-21)
(0.959012 0.0137676 -1.00354e-20)
(0.953152 0.022243 1.2754e-20)
(0.946263 0.0218955 -1.3972e-20)
(0.938058 0.0309353 5.6882e-21)
(0.931046 0.0316732 7.11279e-21)
(0.921532 0.0417932 9.05055e-21)
(0.913801 0.0438731 -3.06512e-20)
(0.902555 0.0552494 6.21567e-21)
(0.893802 0.058769 -1.38231e-21)
(0.881608 0.0718883 -4.30473e-21)
(1.00345 -0.00334261 4.1698e-22)
(0.995724 0.0130743 -4.0916e-22)
(1.00126 -0.0139161 6.23352e-22)
(1.00978 0.0011658 -1.03545e-21)
(1.00146 -0.00626323 9.32426e-22)
(1.00087 0.00407171 -6.21394e-22)
(1.00111 -0.00273891 9.14909e-23)
(0.991031 0.0131868 -2.8382e-21)
(0.992628 -0.00490108 2.26877e-21)
(0.992543 0.0104653 1.72912e-21)
(0.992424 -0.0033511 -3.02238e-21)
(0.989431 0.00515665 -7.37045e-22)
(0.992182 -0.00263424 3.56025e-21)
(0.989833 0.0033643 -2.32453e-21)
(0.98756 -0.00200065 8.60233e-22)
(0.986291 0.00741206 -1.02831e-21)
(0.98076 0.00200835 9.01071e-22)
(0.978856 0.0124019 -3.09732e-22)
(0.971059 0.00950027 -7.87016e-22)
(0.966488 0.0193565 1.24813e-20)
(0.959641 0.0167939 -1.08286e-20)
(0.95385 0.0273953 -1.07035e-20)
(0.947395 0.0258654 -2.03382e-21)
(0.939656 0.0373996 2.92643e-20)
(0.933542 0.0373619 1.61663e-20)
(0.924423 0.0501439 -1.63932e-20)
(0.918186 0.0520038 1.04743e-20)
(0.907537 0.0665667 -2.112e-20)
(0.9008 0.0703863 1.11684e-20)
(0.889713 0.0872341 -7.71059e-20)
(1.00429 -0.0036778 -2.18687e-21)
(0.992966 0.0144598 8.66105e-22)
(1.00225 -0.0167721 -1.48354e-21)
(1.01142 0.00241381 1.37254e-21)
(1.00147 -0.00659133 -1.78871e-21)
(1.00043 0.00542156 8.6846e-22)
(1.0011 -0.00177277 5.26069e-22)
(0.988317 0.014235 9.86e-22)
(0.99251 -0.00559091 6.12403e-23)
(0.991842 0.011959 -3.44565e-21)
(0.992701 -0.00554757 8.9639e-22)
(0.989965 0.00678043 1.22193e-21)
(0.992896 -0.00304053 6.27159e-21)
(0.990577 0.00358816 -6.14805e-21)
(0.989122 -0.000856655 2.82158e-21)
(0.987151 0.0100886 4.03855e-21)
(0.981338 0.0034563 -4.06565e-21)
(0.97938 0.0168142 -9.07669e-21)
(0.971544 0.0124598 -4.07838e-21)
(0.966089 0.0246518 1.56091e-20)
(0.959751 0.0210208 6.13065e-21)
(0.954237 0.0337757 -3.52118e-21)
(0.948004 0.0315369 5.07872e-21)
(0.940831 0.045309 4.23214e-21)
(0.936113 0.0449976 -1.86031e-20)
(0.927551 0.0605115 -2.27716e-20)
(0.92301 0.0622233 1.14158e-20)
(0.913443 0.0801577 5.22567e-20)
(0.90898 0.0842261 -7.3269e-20)
(0.8997 0.104879 7.96004e-20)
(1.00503 -0.00397104 1.09594e-21)
(0.990153 0.0159049 -1.13099e-21)
(1.00393 -0.0201914 -1.76568e-21)
(1.01285 0.00410976 1.12405e-21)
(1.00136 -0.00695421 7.40558e-22)
(0.999633 0.00713309 -1.69122e-21)
(1.00074 -0.000750438 1.53801e-21)
(0.985593 0.0153573 1.42326e-21)
(0.99266 -0.0068676 -2.45857e-22)
(0.99117 0.0141429 -1.14048e-21)
(0.993812 -0.00912027 4.37465e-21)
(0.991129 0.00983933 -3.14649e-21)
(0.993341 -0.00518265 5.61081e-21)
(0.99177 0.00455827 -9.33055e-21)
(0.991348 -0.00110418 1.10906e-20)
(0.98739 0.0118624 -4.72997e-21)
(0.982699 0.00453298 -8.99175e-21)
(0.979557 0.0198593 -5.19876e-21)
(0.971184 0.0149606 -3.38553e-21)
(0.96653 0.0284648 -1.45706e-21)
(0.959828 0.0231192 2.56958e-20)
(0.954908 0.0383385 -2.70287e-20)
(0.950036 0.0342521 7.16799e-22)
(0.942785 0.0504937 1.71844e-20)
(0.939941 0.0487095 -1.43972e-20)
(0.932271 0.067145 9.15122e-21)
(0.930161 0.0679807 3.25865e-20)
(0.921746 0.0887934 -5.50018e-20)
(0.920365 0.0926314 4.00107e-20)
(0.912923 0.116288 1.10017e-20)
(1.00573 -0.00365223 3.48716e-23)
(0.98702 0.0163989 8.99585e-22)
(1.00686 -0.0231458 1.72646e-21)
(1.01379 0.00530772 1.14954e-21)
(1.00116 -0.00636702 -4.81262e-23)
(0.998393 0.00821239 -2.41273e-21)
(0.999991 0.00104317 -1.37526e-21)
(0.982558 0.0153754 3.81469e-21)
(0.9939 -0.00695514 -4.73187e-21)
(0.990414 0.0140636 2.06512e-21)
(0.995169 -0.0112432 -6.51049e-22)
(0.992661 0.0122861 8.9654e-21)
(0.994027 -0.00624214 -1.82506e-21)
(0.993093 0.00450021 -1.91551e-21)
(0.993024 0.00241019 -6.68672e-21)
(0.986836 0.0132562 -5.52804e-21)
(0.983923 0.00839521 1.97617e-20)
(0.979187 0.0250247 -7.16408e-21)
(0.969813 0.017928 -6.50823e-21)
(0.96545 0.0344782 -1.81245e-21)
(0.960614 0.0274483 1.55803e-20)
(0.954611 0.0446648 -6.27848e-21)
(0.95162 0.0396806 8.39187e-21)
(0.945251 0.0581099 5.00801e-21)
(0.943693 0.0553361 -4.30907e-20)
(0.937236 0.0762684 7.95856e-21)
(0.937331 0.0764191 -4.95921e-21)
(0.931009 0.100841 1.46005e-21)
(0.932621 0.103172 2.97971e-20)
(1.00625 -0.00335916 9.15638e-22)
(0.983505 0.016894 -4.48819e-22)
(1.01097 -0.0266472 -9.39007e-22)
(1.01417 0.00737352 1.31245e-21)
(1.00042 -0.00601161 1.38136e-21)
(0.996913 0.00998448 -2.95763e-22)
(0.998493 0.00226391 -1.56614e-21)
(0.979334 0.0155791 2.13712e-21)
(0.995726 -0.00833454 -1.01643e-21)
(0.989442 0.0151177 2.68148e-22)
(0.998011 -0.015366 8.78377e-22)
(0.991153 0.0163341 -4.93178e-21)
(0.997582 -0.0108327 3.03896e-21)
(0.992638 0.00745698 1.33911e-21)
(0.99653 0.00110553 -8.07315e-21)
(0.984507 0.0153036 1.02491e-20)
(0.984726 0.00993519 -9.36992e-21)
(0.976831 0.0286759 1.89651e-20)
(0.970314 0.0200561 -1.30108e-20)
(0.962273 0.0366514 8.79424e-21)
(0.962544 0.0289042 3.37414e-22)
(0.9547 0.0480486 -2.83248e-20)
(0.954265 0.0401036 8.30499e-21)
(0.948455 0.0623686 3.78705e-21)
(0.949443 0.0564669 1.32715e-20)
(0.943622 0.0811056 -1.4233e-20)
(0.946939 0.0782748 -1.09592e-21)
(0.941803 0.106127 1.58078e-20)
(0.946826 0.108503 8.33206e-21)
(1.0067 -0.00222738 -9.59955e-22)
(0.980684 0.0158431 2.83437e-22)
(1.01397 -0.0292407 -1.36729e-21)
(1.01702 0.00881495 2.39271e-22)
(0.996733 -0.00437781 9.15364e-23)
(0.998312 0.0108999 1.60977e-22)
(0.996578 0.00477694 -5.10276e-22)
(0.977921 0.0138882 6.94557e-22)
(0.997734 -0.00774073 -4.33552e-21)
(0.990107 0.0130654 5.90536e-21)
(0.999995 -0.0150559 4.76153e-21)
(0.993939 0.0181332 -5.1322e-21)
(0.991649 -0.0127784 -8.67215e-21)
(1.00251 0.010684 1.59284e-20)
(0.991323 0.00461171 -1.9137e-20)
(0.988654 0.0174285 1.37578e-20)
(0.983009 0.017599 -1.8657e-21)
(0.976291 0.031949 -1.36497e-20)
(0.964992 0.0256159 9.31539e-21)
(0.967737 0.0410039 9.19532e-21)
(0.958281 0.0332783 8.2312e-21)
(0.960005 0.052776 -2.13587e-20)
(0.955567 0.0448584 -1.45549e-20)
(0.953944 0.0668534 4.11174e-20)
(0.955002 0.0612448 -2.6253e-20)
(0.951873 0.0828818 1.03035e-22)
(0.957696 0.0804307 -7.79242e-21)
(0.955018 0.103292 3.14595e-20)
(1.0107 -0.00133443 0)
(0.97567 0.0152403 0)
(1.01976 -0.0327866 0)
(1.01166 0.0110104 0)
(0.999107 -0.00366755 0)
(0.995014 0.0115924 0)
(1.00008 0.00656215 0)
(0.974143 0.0124124 0)
(1.00501 -0.0091376 0)
(0.985805 0.0119154 0)
(1.00577 -0.0187376 0)
(0.985671 0.0223312 0)
(0.999378 -0.0209948 0)
(1.00081 0.0139098 0)
(0.994398 0.00341431 0)
(0.986721 0.0191272 0)
(0.987368 0.0188301 0)
(0.970703 0.0337383 0)
(0.973369 0.0222917 0)
(0.96261 0.0407437 0)
(0.971845 0.0312898 0)
(0.957878 0.0519474 0)
(0.967175 0.0412803 0)
(0.957158 0.0697787 0)
(0.966433 0.0552207 0)
(0.959205 0.0899964 0)
(0.970872 0.0754812 0)
(0.967968 0.115045 0)
(1.01461 7.08831e-06 0)
(0.975307 0.0135781 0)
(1.02219 -0.0343547 0)
(0.997177 0.0120951 0)
(1.00578 -0.00169173 0)
(0.986935 0.0109848 0)
(1.00389 0.00944235 0)
(0.973734 0.0107277 0)
(1.00801 -0.00851949 0)
(0.982311 0.0103976 0)
(1.00374 -0.0163024 0)
(0.975063 0.022035 0)
(1.01021 -0.0227111 0)
(0.98514 0.0173956 0)
(0.998176 0.00317549 0)
(0.977491 0.0244279 0)
(0.986812 0.0216014 0)
(0.965875 0.0351742 0)
(0.981825 0.0295353 0)
(0.958149 0.0373873 0)
(0.979608 0.0385577 0)
(0.95833 0.0476042 0)
(0.974323 0.0505206 0)
(0.961686 0.0620625 0)
(0.97227 0.0632527 0)
(0.968368 0.0810864 0)
(0.976474 0.0820022 0)
(0.980841 0.100298 0)
(1.01437 0.000796446 0)
(0.984062 0.0121115 0)
(1.01523 -0.0342568 0)
(0.984346 0.0127549 0)
(1.0094 -0.000456666 0)
(0.981367 0.0105606 0)
(1.00541 0.0117102 0)
(0.981017 0.0081717 0)
(1.00292 -0.00718248 0)
(0.985661 0.00979664 0)
(0.994097 -0.0137364 0)
(0.976552 0.0183961 0)
(1.0037 -0.0223969 0)
(0.975804 0.0192611 0)
(0.994769 0.00498458 0)
(0.967952 0.0251274 0)
(0.984458 0.0259876 0)
(0.964891 0.0316708 0)
(0.981157 0.0352745 0)
(0.964069 0.0325351 0)
(0.977139 0.0427533 0)
(0.965298 0.0434732 0)
(0.97566 0.0546463 0)
(0.968209 0.0558795 0)
(0.974631 0.0670952 0)
(0.976337 0.0729241 0)
(0.97994 0.082169 0)
(0.987979 0.0880942 0)
(1.01031 0.000952909 0)
(0.997001 0.0112301 0)
(1.00311 -0.0317716 0)
(0.978609 0.0113979 0)
(1.00939 0.000836076 0)
(0.981987 0.00950813 0)
(1.00669 0.0127609 0)
(0.992587 0.0068059 0)
(0.995933 -0.00462112 0)
(0.992951 0.00852894 0)
(0.988901 -0.00993668 0)
(0.982375 0.0153383 0)
(0.988635 -0.0193958 0)
(0.974692 0.0179899 0)
(0.991368 0.00936899 0)
(0.964986 0.0230802 0)
(0.986808 0.0312949 0)
(0.968193 0.0267965 0)
(0.979298 0.0386077 0)
(0.974554 0.0314311 0)
(0.977314 0.0449824 0)
(0.9732 0.0411281 0)
(0.979502 0.0568762 0)
(0.977778 0.0531318 0)
(0.979019 0.0672535 0)
(0.984981 0.0682262 0)
(0.987037 0.0788335 0)
(0.994468 0.0806754 0)
(1.00593 0.000392606 0)
(1.00685 0.0110235 0)
(0.995123 -0.0276815 0)
(0.975585 0.00883428 0)
(1.00876 0.00148255 0)
(0.985454 0.00782528 0)
(1.00769 0.012835 0)
(1.00288 0.00650928 0)
(0.992613 -0.0018612 0)
(0.998514 0.00685595 0)
(0.990171 -0.00551797 0)
(0.984725 0.0146296 0)
(0.979498 -0.0161731 0)
(0.972646 0.0150512 0)
(0.992111 0.0127323 0)
(0.967472 0.0206411 0)
(0.990986 0.0344576 0)
(0.975912 0.0254456 0)
(0.980473 0.0390609 0)
(0.981672 0.0313941 0)
(0.982207 0.0443596 0)
(0.981126 0.0410944 0)
(0.986171 0.0557179 0)
(0.988697 0.0522138 0)
(0.987627 0.0645535 0)
(0.993672 0.0647886 0)
(0.997638 0.07387 0)
(1.00243 0.0747321 0)
(1.00333 -0.000522986 0)
(1.01121 0.0108623 0)
(0.99359 -0.021978 0)
(0.972985 0.00533314 0)
(1.00829 0.0014627 0)
(0.987726 0.006012 0)
(1.00741 0.0119895 0)
(1.0088 0.00694871 0)
(0.992689 0.0012784 0)
(1.00007 0.00521975 0)
(0.993151 -0.00127818 0)
(0.985693 0.0165014 0)
(0.978472 -0.012323 0)
(0.96867 0.0106998 0)
(0.993424 0.0148755 0)
(0.971102 0.0178861 0)
(0.993104 0.0347573 0)
(0.983921 0.0271557 0)
(0.984562 0.0372462 0)
(0.985739 0.0328903 0)
(0.987864 0.0416488 0)
(0.986934 0.040895 0)
(0.992271 0.0527321 0)
(0.996909 0.0508627 0)
(0.998089 0.0611217 0)
(1.00098 0.0612398 0)
(1.00733 0.068365 0)
(1.01047 0.069706 0)
(1.0026 -0.00151571 0)
(1.0104 0.0104413 0)
(0.994732 -0.015622 0)
(0.974481 0.00196137 0)
(1.00683 0.000861324 0)
(0.989174 0.00441072 0)
(1.00607 0.0100978 0)
(1.0092 0.00790578 0)
(0.994801 0.00403625 0)
(0.998313 0.00460528 0)
(0.994567 0.00147489 0)
(0.987858 0.0198515 0)
(0.982254 -0.00741513 0)
(0.968365 0.00590909 0)
(0.991153 0.0156198 0)
(0.976596 0.0153678 0)
(0.991861 0.0319269 0)
(0.989551 0.0299173 0)
(0.989458 0.0348838 0)
(0.9889 0.0352527 0)
(0.993453 0.037879 0)
(0.989769 0.0399072 0)
(0.997656 0.048638 0)
(0.999938 0.0482067 0)
(1.0063 0.0567989 0)
(1.00555 0.0575009 0)
(1.0132 0.0629128 0)
(1.01631 0.0653378 0)
(1.0029 -0.00225852 0)
(1.00662 0.00997243 0)
(0.994862 -0.0101661 0)
(0.980993 -0.000660005 0)
(1.00533 0.000229819 0)
(0.991157 0.00339937 0)
(1.00449 0.00785456 0)
(1.00604 0.00936275 0)
(0.996604 0.00561458 0)
(0.995106 0.0060001 0)
(0.993654 0.00223335 0)
(0.991331 0.0221001 0)
(0.987917 -0.00119313 0)
(0.97352 0.0023713 0)
(0.987893 0.0153326 0)
(0.982925 0.0137901 0)
(0.990388 0.0277236 0)
(0.993039 0.0315085 0)
(0.994211 0.0325044 0)
(0.992143 0.037034 0)
(0.999048 0.0356313 0)
(0.992183 0.0386895 0)
(1.0012 0.0443024 0)
(0.999729 0.0452862 0)
(1.00931 0.0511429 0)
(1.00759 0.0539757 0)
(1.01474 0.0569162 0)
(1.01859 0.0613133 0)
(1.00373 -0.0026624 0)
(1.00186 0.00996473 0)
(0.993637 -0.00684395 0)
(0.989466 -0.00269099 0)
(1.0048 -0.000193443 0)
(0.993855 0.00309989 0)
(1.00339 0.00606518 0)
(1.00129 0.0110586 0)
(0.997525 0.00644568 0)
(0.991665 0.00854678 0)
(0.991885 0.00157055 0)
(0.993668 0.0216704 0)
(0.992795 0.00568225 0)
(0.98289 0.000654674 0)
(0.986647 0.0141009 0)
(0.989159 0.0134201 0)
(0.99089 0.0228558 0)
(0.995813 0.0315858 0)
(0.998571 0.0307469 0)
(0.994756 0.0374784 0)
(1.00411 0.0350944 0)
(0.99493 0.0377041 0)
(1.00394 0.0408946 0)
(0.999502 0.0430199 0)
(1.00921 0.0457592 0)
(1.00746 0.0501534 0)
(1.01336 0.0507582 0)
(1.01692 0.0564981 0)
(1.00418 -0.00271773 0)
(0.997656 0.0107248 0)
(0.993663 -0.00596338 0)
(0.996346 -0.00453895 0)
(1.00428 1.21958e-05 0)
(0.997 0.00298011 0)
(1.00165 0.0056745 0)
(0.997253 0.012921 0)
(0.997943 0.00641892 0)
(0.988787 0.0117012 0)
(0.991742 0.000895946 0)
(0.994106 0.0182106 0)
(0.996016 0.0103901 0)
(0.992532 0.00140355 0)
(0.988307 0.0125704 0)
(0.994581 0.0135778 0)
(0.992763 0.0198518 0)
(0.998138 0.0293848 0)
(1.00149 0.0294948 0)
(0.99754 0.0366117 0)
(1.0065 0.0350849 0)
(0.998548 0.0378029 0)
(1.00577 0.0386458 0)
(1.0005 0.0420399 0)
(1.00812 0.0416666 0)
(1.00643 0.0467886 0)
(1.01149 0.0453525 0)
(1.0137 0.0514572 0)
(1.00384 -0.00236977 0)
(0.994179 0.0115937 0)
(0.996279 -0.00665791 0)
(1.00163 -0.00600265 0)
(1.00205 0.000590602 0)
(0.999715 0.00315499 0)
(0.998977 0.0064963 0)
(0.99398 0.0145538 0)
(0.999142 0.00627256 0)
(0.986859 0.0141228 0)
(0.994154 0.000554893 0)
(0.994797 0.0137139 0)
(0.996956 0.0125063 0)
(0.999938 0.00323163 0)
(0.991501 0.0108769 0)
(0.99931 0.0140636 0)
(0.994082 0.018174 0)
(1.00013 0.0268334 0)
(1.00222 0.0285313 0)
(0.999671 0.0349561 0)
(1.00652 0.0352777 0)
(1.00101 0.0378379 0)
(1.00672 0.0375631 0)
(1.00176 0.0411285 0)
(1.00806 0.039266 0)
(1.00576 0.0440592 0)
(1.01115 0.0412661 0)
(1.0109 0.0468568 0)
(1.0025 -0.00150654 0)
(0.992783 0.0120892 0)
(1.00064 -0.00877012 0)
(1.00392 -0.00651042 0)
(0.999115 0.00184702 0)
(1.00084 0.00315732 0)
(0.995637 0.00850218 0)
(0.992804 0.0153781 0)
(1.00056 0.00575406 0)
(0.987436 0.0154214 0)
(0.997807 0.000776935 0)
(0.996126 0.00977497 0)
(0.997751 0.0112031 0)
(1.00329 0.00615585 0)
(0.9949 0.0100629 0)
(1.002 0.0140253 0)
(0.994968 0.0186488 0)
(1.00044 0.0244206 0)
(1.0013 0.0279854 0)
(1.00095 0.0327234 0)
(1.00493 0.034873 0)
(1.00265 0.0373482 0)
(1.00667 0.0368969 0)
(1.00388 0.0400674 0)
(1.00864 0.0377275 0)
(1.00687 0.0416292 0)
(1.01187 0.0382685 0)
(1.01065 0.0426485 0)
(1.00097 -0.000393896 0)
(0.992888 0.0114515 0)
(1.00441 -0.010681 0)
(1.00451 -0.00568318 0)
(0.996371 0.00309685 0)
(1.00075 0.00333799 0)
(0.993017 0.0102913 0)
(0.992831 0.0151366 0)
(1.00195 0.00536508 0)
(0.989358 0.0149815 0)
(1.00109 0.00146656 0)
(0.998697 0.00765213 0)
(0.998555 0.00883204 0)
(1.00364 0.00878442 0)
(0.99723 0.0101534 0)
(1.0034 0.0141663 0)
(0.995628 0.0193166 0)
(1.00016 0.0231353 0)
(0.999609 0.027528 0)
(1.00149 0.0303794 0)
(1.00335 0.0337294 0)
(1.00341 0.0357104 0)
(1.00637 0.035917 0)
(1.00538 0.0380418 0)
(1.0098 0.0360561 0)
(1.00863 0.0387646 0)
(1.01378 0.0356171 0)
(1.01214 0.0387728 0)
(0.999463 0.00100652 0)
(0.995223 0.0100513 0)
(1.00576 -0.0129106 0)
(1.00273 -0.00387315 0)
(0.995315 0.00482273 0)
(1.00008 0.00332701 0)
(0.991877 0.0121973 0)
(0.994795 0.0138805 0)
(1.00224 0.00479027 0)
(0.992658 0.0135785 0)
(1.00237 0.00159959 0)
(1.00078 0.00736485 0)
(0.999804 0.00595961 0)
(1.00199 0.010735 0)
(0.998536 0.0111304 0)
(1.0033 0.0143493 0)
(0.996966 0.020243 0)
(0.999823 0.0223013 0)
(0.998691 0.027601 0)
(1.00209 0.0281283 0)
(1.00276 0.0323192 0)
(1.00455 0.0329427 0)
(1.00613 0.0342829 0)
(1.00711 0.0350792 0)
(1.01046 0.0338751 0)
(1.01112 0.0352975 0)
(1.01516 0.0326824 0)
(1.01477 0.03478 0)
(0.998051 0.00191906 0)
(0.999217 0.00820162 0)
(1.00535 -0.0132504 0)
(0.998876 -0.00195644 0)
(0.995621 0.00576581 0)
(0.999546 0.0036244 0)
(0.992121 0.012666 0)
(0.998572 0.0124502 0)
(1.00196 0.00465124 0)
(0.996581 0.0117107 0)
(1.00228 0.00205632 0)
(1.00155 0.0079263 0)
(1.00116 0.00460592 0)
(0.99951 0.0115341 0)
(0.999001 0.0122198 0)
(1.00211 0.0148003 0)
(0.998851 0.0202463 0)
(1.00025 0.0217204 0)
(0.998986 0.0269974 0)
(1.00335 0.0263936 0)
(1.00339 0.0302109 0)
(1.00683 0.0299496 0)
(1.00687 0.0316403 0)
(1.00944 0.0317332 0)
(1.01116 0.0309978 0)
(1.01374 0.0315889 0)
(1.01623 0.0293796 0)
(1.01756 0.0307678 0)
(0.997278 0.00242151 0)
(1.00245 0.00634494 0)
(1.00393 -0.0123168 0)
(0.995916 -0.000267598 0)
(0.996391 0.00600996 0)
(0.999466 0.00387539 0)
(0.993443 0.0122692 0)
(1.00181 0.010896 0)
(1.00177 0.00488932 0)
(0.999789 0.0100707 0)
(1.00174 0.0025522 0)
(1.00145 0.00877585 0)
(1.00204 0.00434647 0)
(0.998391 0.0116912 0)
(0.999092 0.0128444 0)
(1.00124 0.0152213 0)
(1.0006 0.0196107 0)
(1.00158 0.0206048 0)
(1.00041 0.0256995 0)
(1.00486 0.0245878 0)
(1.00504 0.0279122 0)
(1.00929 0.0269387 0)
(1.0086 0.0285848 0)
(1.01179 0.0282507 0)
(1.01213 0.0278845 0)
(1.01569 0.0279768 0)
(1.01699 0.02616 0)
(1.01945 0.0269776 0)
(0.997113 0.00236012 0)
(1.00432 0.00472117 0)
(1.00218 -0.009917 0)
(0.994578 0.000854071 0)
(0.997302 0.00537619 0)
(0.999642 0.00412788 0)
(0.995214 0.0108327 0)
(1.00384 0.00960618 0)
(1.00158 0.00542511 0)
(1.00195 0.00897006 0)
(1.0013 0.0035606 0)
(1.00122 0.00930571 0)
(1.00229 0.00526263 0)
(0.998679 0.0113928 0)
(0.999566 0.0127769 0)
(1.00096 0.0152125 0)
(1.00212 0.0182754 0)
(1.00332 0.0191883 0)
(1.00249 0.0232494 0)
(1.00637 0.0226919 0)
(1.00677 0.0251109 0)
(1.0112 0.0241738 0)
(1.01048 0.0253266 0)
(1.01368 0.0249728 0)
(1.0132 0.0247714 0)
(1.0168 0.0247395 0)
(1.01729 0.0232968 0)
(1.02026 0.0237188 0)
(0.997444 0.00206874 0)
(1.00457 0.00359589 0)
(1.0007 -0.0073747 0)
(0.995127 0.00143177 0)
(0.998097 0.0045099 0)
(1.00002 0.00415942 0)
(0.996903 0.00932854 0)
(1.00433 0.00862652 0)
(1.00146 0.00589918 0)
(1.00295 0.00849241 0)
(1.0012 0.00455326 0)
(1.00142 0.00941619 0)
(1.00231 0.00632681 0)
(1.00006 0.0109315 0)
(1.00057 0.0121683 0)
(1.00172 0.0146207 0)
(1.0034 0.016742 0)
(1.00492 0.0175397 0)
(1.00459 0.0204751 0)
(1.00764 0.0204928 0)
(1.00811 0.0222267 0)
(1.01214 0.0216072 0)
(1.01176 0.0222812 0)
(1.01466 0.0220323 0)
(1.01395 0.0218904 0)
(1.01697 0.0218774 0)
(1.01709 0.0208185 0)
(1.0199 0.0209992 0)
(0.997908 0.0016672 0)
(1.00401 0.00282555 0)
(0.999859 -0.00488865 0)
(0.996407 0.00163619 0)
(0.998711 0.00358605 0)
(1.00041 0.00409597 0)
(0.998166 0.00785099 0)
(1.00408 0.00790649 0)
(1.00145 0.0062915 0)
(1.00331 0.00823114 0)
(1.00145 0.00555326 0)
(1.002 0.00921536 0)
(1.00248 0.00720412 0)
(1.00159 0.0104616 0)
(1.00192 0.0113107 0)
(1.00289 0.0136027 0)
(1.00441 0.0149906 0)
(1.00618 0.0158581 0)
(1.00623 0.0177492 0)
(1.00863 0.018147 0)
(1.00896 0.0193807 0)
(1.01233 0.0191525 0)
(1.0123 0.0195163 0)
(1.01485 0.0193999 0)
(1.01422 0.0192706 0)
(1.01664 0.0193274 0)
(1.01656 0.0186011 0)
(1.01899 0.0186926 0)
(0.998392 0.00133349 0)
(1.00311 0.00239078 0)
(0.999498 -0.00304669 0)
(0.997895 0.00161547 0)
(0.999231 0.00294348 0)
(1.00073 0.00395076 0)
(0.999066 0.00670618 0)
(1.00354 0.00735245 0)
(1.00153 0.00643044 0)
(1.00337 0.00794579 0)
(1.0019 0.00618175 0)
(1.00273 0.0088457 0)
(1.00293 0.00754876 0)
(1.00298 0.00992907 0)
(1.00318 0.0103821 0)
(1.00417 0.0123295 0)
(1.00527 0.0133172 0)
(1.00707 0.0141697 0)
(1.00728 0.0153766 0)
(1.00929 0.0158829 0)
(1.00949 0.0167931 0)
(1.01215 0.0168344 0)
(1.01231 0.017082 0)
(1.0145 0.017045 0)
(1.01414 0.0169479 0)
(1.01601 0.017029 0)
(1.01592 0.0165482 0)
(1.01783 0.0166266 0)
(0.998752 0.00106464 0)
(1.00234 0.00210752 0)
(0.999527 -0.0016807 0)
(0.999016 0.00155349 0)
(0.999597 0.00247863 0)
(1.00097 0.00377713 0)
(0.999683 0.00577496 0)
(1.00315 0.00679666 0)
(1.00169 0.00632546 0)
(1.00343 0.00757031 0)
(1.00248 0.00646118 0)
(1.00337 0.00837426 0)
(1.00349 0.00753899 0)
(1.004 0.00927245 0)
(1.00418 0.0094855 0)
(1.00524 0.0110222 0)
(1.0059 0.0117108 0)
(1.00762 0.0125054 0)
(1.00787 0.0132748 0)
(1.00967 0.0138025 0)
(1.00977 0.0144321 0)
(1.01189 0.0146678 0)
(1.01209 0.01484 0)
(1.01396 0.014923 0)
(1.01383 0.0148178 0)
(1.01534 0.0149466 0)
(1.0153 0.0146024 0)
(1.01678 0.014712 0)
(0.999031 0.000879287 0)
(1.00175 0.00191449 0)
(0.999649 -0.000793443 0)
(0.999806 0.00146188 0)
(0.999906 0.00218539 0)
(1.00116 0.00357168 0)
(1.00017 0.00507596 0)
(1.00287 0.00619399 0)
(1.00188 0.00601022 0)
(1.00346 0.00711963 0)
(1.00298 0.00634081 0)
(1.0039 0.00780683 0)
(1.00399 0.00724047 0)
(1.00479 0.00850534 0)
(1.00493 0.0086301 0)
(1.00604 0.00973156 0)
(1.00641 0.0102474 0)
(1.00795 0.0109074 0)
(1.00819 0.0114425 0)
(1.00978 0.0119043 0)
(1.0099 0.0123423 0)
(1.01157 0.0126574 0)
(1.01178 0.0127818 0)
(1.01332 0.0129638 0)
(1.01337 0.012844 0)
(1.01461 0.0130308 0)
(1.01466 0.0127386 0)
(1.01581 0.0129049 0)
(0.999231 0.000747035 0)
(1.00134 0.00171561 0)
(0.999811 -0.000194701 0)
(1.00028 0.00138621 0)
(1.00014 0.00197494 0)
(1.00133 0.00333546 0)
(1.00055 0.00448712 0)
(1.00275 0.00557522 0)
(1.00211 0.00555998 0)
(1.00346 0.00653898 0)
(1.00335 0.00599587 0)
(1.00428 0.00711661 0)
(1.00437 0.00676586 0)
(1.00532 0.00767053 0)
(1.00546 0.00775222 0)
(1.0066 0.00852727 0)
(1.00681 0.00889632 0)
(1.00816 0.00943163 0)
(1.00836 0.00979158 0)
(1.00976 0.0102002 0)
(1.0099 0.0104768 0)
(1.01124 0.0108115 0)
(1.01143 0.0108807 0)
(1.01267 0.0111174 0)
(1.01282 0.0109973 0)
(1.01386 0.0112047 0)
(1.01397 0.0109579 0)
(1.01488 0.0111346 0)
(0.99939 0.000645714 0)
(1.00107 0.00153908 0)
(0.999918 0.00016491 0)
(1.00056 0.00128146 0)
(1.00034 0.00181277 0)
(1.00145 0.00304149 0)
(1.00088 0.00398497 0)
(1.00272 0.00500442 0)
(1.00228 0.00500151 0)
(1.00345 0.00588106 0)
(1.00356 0.00548946 0)
(1.00452 0.00629023 0)
(1.00464 0.00611091 0)
(1.00562 0.00672483 0)
(1.00582 0.00682321 0)
(1.00693 0.00735815 0)
(1.00709 0.00763439 0)
(1.00826 0.00807366 0)
(1.00845 0.00831594 0)
(1.00965 0.00868544 0)
(1.0098 0.00883208 0)
(1.0109 0.00916314 0)
(1.01107 0.00916741 0)
(1.01208 0.00942796 0)
(1.01225 0.00929193 0)
(1.01312 0.00950084 0)
(1.01326 0.00927317 0)
(1.01399 0.00943845 0)
(0.999503 0.000559784 0)
(1.00087 0.00134467 0)
(1.00004 0.000378145 0)
(1.00072 0.00117428 0)
(1.00045 0.00162377 0)
(1.00154 0.00270766 0)
(1.00114 0.00349997 0)
(1.00269 0.00439836 0)
(1.00248 0.00442233 0)
(1.0035 0.00515684 0)
(1.00369 0.00487685 0)
(1.00466 0.00541053 0)
(1.00479 0.0053039 0)
(1.00575 0.00573423 0)
(1.00597 0.00582024 0)
(1.00704 0.00620669 0)
(1.00721 0.00640722 0)
(1.00823 0.00677303 0)
(1.00841 0.00694601 0)
(1.00945 0.00726839 0)
(1.00963 0.00735327 0)
(1.01056 0.0076414 0)
(1.01073 0.00762339 0)
(1.01155 0.00785271 0)
(1.01172 0.00773086 0)
(1.01246 0.00790145 0)
(1.0126 0.00770779 0)
(1.0132 0.00782977 0)
(0.999589 0.000478469 0)
(1.00075 0.0011501 0)
(1.00012 0.00049703 0)
(1.00081 0.00105718 0)
(1.00056 0.00143734 0)
(1.00157 0.0023374 0)
(1.0013 0.00297837 0)
(1.00264 0.00376626 0)
(1.00261 0.00381679 0)
(1.00354 0.00436831 0)
(1.00376 0.00419248 0)
(1.00472 0.00451912 0)
(1.00488 0.00444284 0)
(1.00578 0.00474014 0)
(1.00599 0.00479904 0)
(1.00699 0.00508781 0)
(1.00718 0.00521786 0)
(1.00809 0.00551859 0)
(1.00827 0.00563832 0)
(1.00918 0.00590851 0)
(1.00939 0.00595788 0)
(1.0102 0.00618759 0)
(1.01037 0.00616602 0)
(1.01108 0.0063458 0)
(1.01123 0.0062545 0)
(1.01186 0.00637922 0)
(1.01199 0.00623421 0)
(1.01249 0.00631265 0)
(0.999652 0.000387557 0)
(1.00065 0.00096815 0)
(1.00018 0.000506193 0)
(1.00086 0.000942614 0)
(1.00061 0.00120809 0)
(1.00154 0.00193041 0)
(1.0014 0.00241506 0)
(1.00257 0.00307243 0)
(1.00267 0.00309916 0)
(1.00357 0.00351799 0)
(1.00379 0.00338476 0)
(1.00472 0.00360578 0)
(1.00491 0.0035138 0)
(1.00573 0.00372769 0)
(1.00593 0.00374516 0)
(1.00682 0.0039648 0)
(1.00703 0.0040261 0)
(1.00784 0.0042576 0)
(1.00804 0.00431631 0)
(1.00884 0.00452377 0)
(1.00906 0.00452839 0)
(1.0098 0.00469682 0)
(1.01 0.004653 0)
(1.01063 0.00478688 0)
(1.01079 0.00470359 0)
(1.01135 0.00480184 0)
(1.01147 0.00468831 0)
(1.01191 0.00475668 0)
(0.999703 0.000305079 0)
(1.00057 0.000804258 0)
(1.00018 0.000558625 0)
(1.00084 0.000887884 0)
(1.00062 0.00107223 0)
(1.00148 0.00159871 0)
(1.00141 0.00192924 0)
(1.00245 0.00239827 0)
(1.00263 0.00242349 0)
(1.00354 0.00270379 0)
(1.00375 0.00261252 0)
(1.00464 0.00275565 0)
(1.00484 0.00267271 0)
(1.00561 0.00281849 0)
(1.0058 0.00281774 0)
(1.00658 0.0029715 0)
(1.00679 0.00299397 0)
(1.00752 0.0031443 0)
(1.00771 0.00315912 0)
(1.00841 0.0032777 0)
(1.00864 0.00323882 0)
(1.00932 0.003303 0)
(1.00954 0.00320741 0)
(1.01015 0.00322524 0)
(1.01034 0.00308811 0)
(1.01088 0.00307167 0)
(1.01102 0.00291226 0)
(1.01146 0.00288334 0)
(0.999737 0.000216107 0)
(1.00053 0.000515131 0)
(1.00019 0.000446644 0)
(1.00077 0.000622101 0)
(1.00055 0.000765936 0)
(1.00132 0.00104557 0)
(1.00132 0.00126226 0)
(1.00229 0.00151812 0)
(1.00251 0.00156266 0)
(1.00341 0.00169657 0)
(1.00364 0.00166866 0)
(1.00448 0.00172756 0)
(1.00471 0.00169567 0)
(1.00544 0.00175637 0)
(1.00562 0.00176929 0)
(1.00631 0.00183814 0)
(1.0065 0.00185857 0)
(1.00714 0.00192128 0)
(1.00729 0.00193133 0)
(1.00787 0.00197182 0)
(1.00801 0.00194376 0)
(1.00854 0.00194462 0)
(1.00867 0.00187456 0)
(1.00914 0.00184142 0)
(1.00924 0.00174127 0)
(1.00968 0.0016855 0)
(1.00981 0.00157146 0)
(1.01026 0.00151247 0)
(0.999758 7.72834e-05 0)
(1.0005 0.000154875 0)
(1.00019 0.000125304 0)
(1.00074 0.000169424 0)
(1.00052 0.000223959 0)
(1.00125 0.000313893 0)
(1.00129 0.000395873 0)