/*--------------------------------*- C++ -*----------------------------------*\
| =========                 |                                                 |
| \\      /  F ield         | OpenFOAM: The Open Source CFD Toolbox           |
|  \\    /   O peration     | Version:                                        |
|   \\  /    A nd           | Website:  www.openfoam.com                      |
|    \\/     M anipulation  |                                                 |
\*---------------------------------------------------------------------------*/
FoamFile
{
    version     2.0;
    format      ascii;
    class       volScalarField;
    location    "43";
    object      p;
}
// * * * * * * * * * * * * * * * * * * * * * * * * * * * * * * * * * * * * * //

dimensions      [0 2 -2 0 0 0 0];


internalField   nonuniform List<scalar> 
1147
(
-0.17174
-0.168693
-0.166108
-0.163867
-0.164993
-0.16832
-0.171662
-0.175214
-0.182887
-0.202385
-0.170002
-0.168377
-0.166703
-0.16492
-0.16604
-0.168911
-0.172179
-0.175959
-0.173713
-0.184961
-0.168923
-0.166881
-0.165407
-0.164708
-0.166607
-0.169883
-0.169277
-0.171013
-0.175007
-0.176993
-0.167144
-0.163007
-0.161105
-0.162126
-0.165578
-0.167948
-0.168069
-0.167162
-0.16715
-0.164377
-0.165369
-0.156963
-0.153814
-0.156846
-0.161759
-0.16395
-0.163055
-0.160679
-0.157232
-0.151339
-0.164996
-0.151474
-0.147367
-0.151385
-0.15605
-0.157513
-0.156192
-0.152982
-0.147717
-0.139804
-0.167329
-0.1493
-0.14542
-0.147629
-0.150695
-0.15136
-0.149558
-0.145649
-0.139109
-0.129896
-0.172863
-0.152745
-0.147348
-0.146982
-0.148003
-0.147129
-0.144339
-0.13932
-0.131634
-0.12136
-0.180865
-0.161414
-0.153226
-0.150149
-0.148322
-0.14527
-0.14079
-0.134278
-0.12534
-0.114044
-0.191962
-0.173239
-0.162431
-0.156304
-0.151276
-0.145361
-0.138819
-0.130484
-0.120226
-0.107866
-0.1864
-0.173457
-0.164393
-0.155564
-0.146858
-0.138004
-0.127791
-0.116222
-0.102776
-0.199761
-0.184978
-0.172529
-0.160301
-0.149117
-0.137951
-0.126008
-0.113162
-0.0987148
-0.195699
-0.180079
-0.164933
-0.151572
-0.138348
-0.124897
-0.110865
-0.0954802
-0.205222
-0.18643
-0.169148
-0.153924
-0.138927
-0.124268
-0.109082
-0.0929453
-0.191666
-0.173016
-0.156042
-0.139576
-0.123844
-0.107716
-0.0909447
-0.196047
-0.176259
-0.157827
-0.140203
-0.123593
-0.106634
-0.0893904
-0.199601
-0.179076
-0.159458
-0.141043
-0.123466
-0.105798
-0.0882324
-0.181649
-0.161049
-0.141908
-0.123402
-0.105257
-0.087355
-0.184189
-0.162852
-0.143159
-0.123853
-0.105151
-0.0868834
-0.187753
-0.16577
-0.145434
-0.124727
-0.105226
-0.0864893
-0.061903
-0.0915181
-0.121756
-0.148411
-0.167716
-0.178667
-0.182133
-0.181272
-0.178914
-0.175565
-0.0697072
-0.0971375
-0.124687
-0.148832
-0.1671
-0.178589
-0.182573
-0.181142
-0.177215
-0.172994
-0.0831136
-0.108474
-0.133624
-0.156361
-0.173996
-0.184295
-0.187806
-0.185415
-0.179547
-0.173308
-0.124227
-0.147083
-0.168037
-0.184089
-0.193578
-0.196398
-0.19301
-0.185
-0.175192
-0.205209
-0.206996
-0.20233
-0.192227
-0.178678
-0.218866
-0.212805
-0.200491
-0.183423
-0.224038
-0.210149
-0.190065
-0.219891
-0.198313
-0.207705
-0.0872551
-0.0901129
-0.0927944
-0.0939818
-0.0930862
-0.0922771
-0.0915429
-0.0904476
-0.0886768
-0.0867505
-0.0847816
-0.0826296
-0.0803781
-0.0780311
-0.0755286
-0.0728694
-0.0700707
-0.0671753
-0.0642468
-0.0613129
-0.0583995
-0.0555606
-0.0528641
-0.0503718
-0.0481322
-0.0461834
-0.0445569
-0.0432742
-0.0423635
-0.0418818
-0.106714
-0.11026
-0.111813
-0.110602
-0.107775
-0.105753
-0.103964
-0.101541
-0.0985497
-0.0956353
-0.0926116
-0.089335
-0.0859937
-0.0826363
-0.0792569
-0.0758844
-0.0724946
-0.0691146
-0.0658048
-0.0625907
-0.0594845
-0.0565114
-0.0537117
-0.0511344
-0.0488266
-0.0468282
-0.0451739
-0.0438881
-0.0429916
-0.0425224
-0.126979
-0.131113
-0.131013
-0.126353
-0.121171
-0.118227
-0.115616
-0.111636
-0.107541
-0.103785
-0.0997685
-0.0955023
-0.091262
-0.0870339
-0.0828691
-0.0788435
-0.074903
-0.0710596
-0.0673781
-0.0638732
-0.0605495
-0.0574223
-0.054513
-0.051855
-0.0494877
-0.047448
-0.0457699
-0.0444796
-0.0435944
-0.0431385
-0.149663
-0.152715
-0.148233
-0.140102
-0.134011
-0.130679
-0.126422
-0.12072
-0.115846
-0.111319
-0.1063
-0.101212
-0.0962661
-0.0913114
-0.0864876
-0.0818914
-0.0774397
-0.0731553
-0.0691052
-0.0652877
-0.0617107
-0.0583929
-0.0553455
-0.0525888
-0.0501524
-0.0480659
-0.0463596
-0.0450582
-0.0441767
-0.0437297
-0.171522
-0.174638
-0.165024
-0.153093
-0.146559
-0.143148
-0.136672
-0.129576
-0.124174
-0.118743
-0.112701
-0.106945
-0.10137
-0.0957361
-0.0903241
-0.0851876
-0.0802251
-0.0754991
-0.0710644
-0.0669034
-0.0630365
-0.0594889
-0.0562663
-0.0533803
-0.0508518
-0.048702
-0.0469553
-0.0456319
-0.0447436
-0.0442983
-0.119323
-0.113003
-0.106722
-0.100396
-0.0944216
-0.088727
-0.0832363
-0.0780603
-0.0732206
-0.0686946
-0.0645177
-0.0607153
-0.0572883
-0.0542448
-0.0515995
-0.0493664
-0.0475633
-0.046205
-0.0452989
-0.0448474
0.0967849
0.0819706
0.067258
0.0508027
0.0323563
0.0127444
-0.00772485
-0.0285341
-0.049048
-0.0680239
0.101317
0.0861043
0.0705389
0.0530061
0.0332203
0.0123291
-0.00907133
-0.029741
-0.0496451
-0.0684782
0.106108
0.0891842
0.0715775
0.0525137
0.0317918
0.01053
-0.0106927
-0.0308657
-0.050359
-0.0689947
0.111274
0.0919268
0.0721283
0.0516303
0.0303478
0.00900043
-0.0119085
-0.0319764
-0.0513437
-0.0699386
0.116039
0.0944409
0.0727023
0.0508592
0.0290958
0.00757257
-0.0132914
-0.033471
-0.0527953
-0.0714044
0.119908
0.096416
0.0730512
0.0500151
0.0275759
0.00570684
-0.0153452
-0.0356126
-0.0549037
-0.0733532
0.122812
0.0976719
0.0728712
0.0486667
0.0254173
0.00305273
-0.0182344
-0.0385534
-0.0576934
-0.0758628
0.124794
0.0980871
0.0719191
0.0465669
0.0224267
-0.000485793
-0.0220148
-0.0423113
-0.061236
-0.0790041
0.125848
0.0974801
0.0699179
0.0434549
0.018435
-0.0050156
-0.0267714
-0.0469827
-0.0656452
-0.0828748
0.125994
0.0957148
0.0666399
0.039035
0.0132237
-0.0106617
-0.0326463
-0.052742
-0.0710354
-0.087679
0.125045
0.0926449
0.0618495
0.0330481
0.00643502
-0.0178373
-0.039889
-0.0597446
-0.0775965
-0.0935632
0.122522
0.0878627
0.0552254
0.0251476
-0.00222892
-0.0267894
-0.0487314
-0.0681933
-0.0854352
-0.100641
0.117798
0.0807624
0.0462536
0.0149005
-0.0131583
-0.0378346
-0.0594567
-0.0782567
-0.0946516
-0.108924
0.110338
0.0707439
0.0343615
0.00179743
-0.0267554
-0.0513876
-0.0724018
-0.0901792
-0.105373
-0.118489
0.0994125
0.0570668
0.0187607
-0.0149449
-0.043784
-0.0680913
-0.08809
-0.104372
-0.117884
-0.129564
0.0839997
0.0387552
-0.00144513
-0.0360865
-0.0649465
-0.0884924
-0.107018
-0.121375
-0.132735
-0.142576
0.062466
0.0139685
-0.0279389
-0.0628704
-0.0911576
-0.113075
-0.129383
-0.14162
-0.150859
-0.15842
0.0336768
-0.0185075
-0.0629528
-0.097904
-0.123879
-0.141945
-0.154482
-0.164198
-0.172538
-0.177755
-0.0029539
-0.0574455
-0.103694
-0.139003
-0.161459
-0.172143
-0.176355
-0.180673
-0.192532
-0.199489
-0.066501
-0.123408
-0.165668
-0.19282
-0.204738
-0.203176
-0.192182
-0.183895
-0.190796
-0.207515
0.173438
0.156764
0.138085
0.117306
0.192262
0.176048
0.158046
0.138917
0.118718
0.226375
0.213629
0.198649
0.181541
0.162756
0.143598
0.124208
0.260301
0.255309
0.247235
0.236437
0.222879
0.207176
0.189534
0.170167
0.150594
0.130946
0.273149
0.267864
0.259302
0.247944
0.233711
0.21728
0.199012
0.178904
0.158225
0.137422
0.287008
0.281481
0.272486
0.260574
0.245614
0.228213
0.208973
0.187826
0.165623
0.14305
0.301851
0.296062
0.286561
0.273958
0.2581
0.239465
0.218877
0.196344
0.172346
0.147749
0.317599
0.311481
0.30134
0.287844
0.270864
0.250763
0.228535
0.20425
0.178293
0.151583
0.334157
0.327634
0.316705
0.302113
0.283777
0.261975
0.237877
0.211614
0.183575
0.15466
0.351454
0.344454
0.332601
0.316728
0.296823
0.27307
0.246844
0.218435
0.188249
0.15704
0.369442
0.361904
0.348995
0.331654
0.31
0.284065
0.255386
0.22454
0.192048
0.158495
0.388084
0.379955
0.365855
0.346816
0.32322
0.29492
0.263463
0.229759
0.194582
0.158512
0.407309
0.398539
0.383114
0.362076
0.336267
0.305407
0.270878
0.233901
0.195517
0.156547
0.426991
0.41752
0.400639
0.377246
0.348822
0.315119
0.277202
0.236566
0.194481
0.152111
0.446869
0.436608
0.418144
0.392048
0.360453
0.323423
0.281764
0.23703
0.190818
0.144525
0.46656
0.455346
0.435134
0.40608
0.370695
0.329617
0.283701
0.234373
0.183545
0.132861
0.485421
0.472939
0.450713
0.418479
0.378759
0.332786
0.281823
0.227288
0.171258
0.115661
0.502659
0.488382
0.463682
0.428042
0.383506
0.33188
0.274881
0.214392
0.152522
0.0916031
0.516581
0.499951
0.471913
0.432232
0.382151
0.32388
0.259645
0.1922
0.124113
0.0583815
0.525676
0.506746
0.475206
0.430934
0.374226
0.307337
0.233298
0.155277
0.0768605
0.00153234
0.125265
0.157023
0.140216
0.121319
0.109042
0.0943432
0.0822138
0.0715377
0.0610454
0.0507299
0.0408588
0.0316727
0.0232519
0.0154433
0.00819965
0.00154219
-0.00449949
-0.00991887
-0.0147551
-0.0190595
-0.0228612
-0.0261637
-0.0289178
-0.0310452
-0.0325777
-0.0336116
-0.0342214
-0.0344785
-0.0344594
-0.0342469
-0.0339326
-0.0335863
-0.0331829
-0.0326761
0.102049
0.0890315
0.0782483
0.0679864
0.0576246
0.0473639
0.0375899
0.0285583
0.0202219
0.0124321
0.00519736
-0.00142775
-0.00740304
-0.0127259
-0.0174378
-0.0215876
-0.0252081
-0.0283384
-0.030995
-0.0330618
-0.0344968
-0.0353928
-0.0358312
-0.0359003
-0.0356951
-0.0353088
-0.0348447
-0.0344021
-0.0339932
-0.0335479
0.0916826
0.083541
0.0749555
0.0659506
0.0561289
0.045851
0.0358962
0.0267538
0.0183055
0.0103719
0.00299638
-0.00374606
-0.00980047
-0.0151672
-0.0198804
-0.023975
-0.0274705
-0.0304127
-0.0329233
-0.0349569
-0.0363543
-0.0371549
-0.0374424
-0.0373285
-0.0369319
-0.0363607
-0.0357316
-0.0351747
-0.0347535
-0.0344025
0.0765117
0.0687078
0.0625472
0.0549483
0.0458748
0.0366886
0.0280829
0.0200125
0.0122085
0.00473087
-0.00223383
-0.00860295
-0.014307
-0.0193571
-0.0237736
-0.0275681
-0.0307319
-0.0332721
-0.0353759
-0.0371701
-0.0384414
-0.039096
-0.0392
-0.0388807
-0.0382749
-0.037504
-0.0366928
-0.0359955
-0.0355298
-0.0352557
0.0606441
0.0505387
0.0432709
0.0351767
0.0274174
0.0199399
0.0125627
0.00550693
-0.00112141
-0.0072819
-0.0129348
-0.0180685
-0.0226187
-0.0266367
-0.0301421
-0.0331298
-0.0355755
-0.0374217
-0.0387995
-0.039981
-0.0408497
-0.0411911
-0.0410272
-0.0404706
-0.0396523
-0.0386916
-0.0377088
-0.0368645
-0.0363209
-0.0360776
0.0444653
0.0339141
0.0267474
0.0180525
0.00974261
0.00208725
-0.00437731
-0.0101538
-0.0155903
-0.0205992
-0.0250939
-0.0290703
-0.0324547
-0.0353537
-0.0378052
-0.0398153
-0.0413932
-0.0424571
-0.0430128
-0.0433663
-0.0435607
-0.0434006
-0.0428682
-0.0420358
-0.0410041
-0.0398727
-0.0387439
-0.0377661
-0.0371261
-0.0368705
0.0272572
0.0181675
0.011989
0.00320752
-0.00404998
-0.0110739
-0.0173151
-0.0228979
-0.0279179
-0.0322698
-0.0360247
-0.0392457
-0.0418312
-0.0439048
-0.0455049
-0.0466512
-0.0474142
-0.0477445
-0.0475485
-0.047055
-0.046444
-0.0456605
-0.0446832
-0.0435409
-0.0422922
-0.0410067
-0.0397606
-0.0386751
-0.0379382
-0.0376396
0.00868575
-3.53574e-05
-0.00400412
-0.010961
-0.0167449
-0.0231974
-0.0286123
-0.0334191
-0.0378746
-0.0416874
-0.0449474
-0.0477133
-0.0498516
-0.0514214
-0.0524317
-0.0529073
-0.0529744
-0.0526447
-0.051827
-0.0506265
-0.0492692
-0.047862
-0.0464241
-0.0449606
-0.0434949
-0.0420671
-0.0407276
-0.0395641
-0.0387447
-0.038389
-0.0105036
-0.0176052
-0.0206505
-0.0272049
-0.0309244
-0.03535
-0.0393762
-0.0433216
-0.0471196
-0.0501226
-0.0527086
-0.0549274
-0.0566354
-0.0577574
-0.0582708
-0.0581937
-0.0576799
-0.0567723
-0.0554552
-0.0537418
-0.0518214
-0.0498969
-0.0480462
-0.0462797
-0.0446051
-0.0430436
-0.0416268
-0.0404115
-0.0395326
-0.0391211
-0.0301616
-0.0358535
-0.0381231
-0.0429741
-0.0458641
-0.0495147
-0.0520624
-0.0543481
-0.0568373
-0.0586088
-0.0602442
-0.0616476
-0.0626962
-0.063214
-0.06316
-0.0625366
-0.0615034
-0.0600794
-0.05834
-0.0562637
-0.0539746
-0.0516833
-0.0495081
-0.047483
-0.04562
-0.0439356
-0.0424522
-0.0412049
-0.0402915
-0.0398369
-0.0497885
-0.0531749
-0.0557718
-0.0598601
-0.0618812
-0.063652
-0.0649938
-0.0662205
-0.0672119
-0.0677659
-0.0681961
-0.068483
-0.0685842
-0.0682933
-0.0675253
-0.0662793
-0.0647065
-0.0627846
-0.0606454
-0.0582716
-0.0557367
-0.0532034
-0.0507937
-0.0485644
-0.0465425
-0.0447498
-0.0432087
-0.0419423
-0.0410162
-0.0405365
-0.0688639
-0.0715598
-0.0738839
-0.0764649
-0.0776819
-0.0783697
-0.0785627
-0.0785051
-0.0779933
-0.0772659
-0.0764697
-0.0755405
-0.0744979
-0.0732196
-0.0716121
-0.0696782
-0.0674957
-0.0650924
-0.0625572
-0.0599041
-0.0571768
-0.0544766
-0.0519029
-0.0495221
-0.0473757
-0.0454947
-0.0439056
-0.0426287
-0.041706
-0.0412188
)
;

boundaryField
{
    outlet
    {
        type            fixedValue;
        value           nonuniform 0();
    }
    upperWall
    {
        type            symmetryPlane;
    }
    lowerWall
    {
        type            symmetryPlane;
    }
    inlet
    {
        type            zeroGradient;
    }
    cylinder
    {
        type            zeroGradient;
    }
    frontAndBack
    {
        type            empty;
    }
    procBoundary1to0
    {
        type            processor;
        value           nonuniform List<scalar> 
45
(
0.188061
0.188061
0.171026
0.217809
0.206203
0.206203
0.248322
0.243812
0.236423
0.236423
0.125168
0.154408
0.140865
0.140865
0.171026
0.112429
0.0988461
0.0864035
0.0753301
0.0645999
0.0542632
0.0444613
0.0353032
0.0268149
0.0189282
0.011607
0.00485009
-0.00132368
-0.00690421
-0.0119198
-0.0164112
-0.0203924
-0.0238288
-0.0266645
-0.0288862
-0.030552
-0.0317451
-0.0325325
-0.0329744
-0.0331337
-0.0330852
-0.0329096
-0.0326495
-0.0322585
-0.0317477
)
;
    }
    procBoundary1to2
    {
        type            processor;
        value           nonuniform List<scalar> 
63
(
-0.204893
-0.218763
-0.204893
-0.218788
-0.212623
-0.212623
-0.224393
-0.212995
-0.212995
-0.219323
-0.224096
-0.203099
-0.203099
-0.20632
-0.210646
-0.19405
-0.10085
-0.10085
-0.142687
-0.163354
-0.182439
-0.196878
-0.196878
-0.218425
-0.218425
-0.231602
-0.231602
-0.23571
-0.23571
-0.231393
-0.231393
-0.218763
-0.19405
-0.195154
-0.180249
-0.167142
-0.160551
-0.155884
-0.146802
-0.138877
-0.13302
-0.126331
-0.126331
-0.126679
-0.119684
-0.112492
-0.105434
-0.0988504
-0.0925242
-0.0864721
-0.0808204
-0.075546
-0.0706376
-0.0661379
-0.0620629
-0.0584098
-0.0551859
-0.0524013
-0.0500644
-0.0481876
-0.0467803
-0.0458453
-0.0453802
)
;
    }
    procBoundary1to5
    {
        type            processor;
        value           nonuniform List<scalar> 
20
(
-0.0396246
-0.0484018
-0.0622625
0.261738
0.274691
0.288634
0.303561
0.319389
0.336017
0.353372
0.37141
0.390103
0.40939
0.429141
0.449092
0.468854
0.487782
0.505088
0.519127
0.528389
)
;
    }
}


// ************************************************************************* //
