/*--------------------------------*- C++ -*----------------------------------*\
| =========                 |                                                 |
| \\      /  F ield         | OpenFOAM: The Open Source CFD Toolbox           |
|  \\    /   O peration     | Version:                                        |
|   \\  /    A nd           | Website:  www.openfoam.com                      |
|    \\/     M anipulation  |                                                 |
\*---------------------------------------------------------------------------*/
FoamFile
{
    version     2.0;
    format      ascii;
    class       volScalarField;
    location    "65.5";
    object      p;
}
// * * * * * * * * * * * * * * * * * * * * * * * * * * * * * * * * * * * * * //

dimensions      [0 2 -2 0 0 0 0];


internalField   nonuniform List<scalar> 
1139
(
-0.401081
-0.372908
-0.344549
-0.316876
-0.315991
-0.288711
-0.28688
-0.260177
-0.241971
-0.257903
-0.232603
-0.216197
-0.228808
-0.205149
-0.191323
-0.200319
-0.179371
-0.167352
-0.158176
-0.169906
-0.153779
-0.144387
-0.137293
-0.138278
-0.130517
-0.121633
-0.11785
-0.833328
-0.889664
-0.877222
-0.83574
-0.770101
-0.700061
-0.952092
-0.926953
-0.868406
-0.77939
-0.674808
-0.574184
-1.01368
-0.98082
-0.906929
-0.797886
-0.661467
-0.5457
-0.463637
-1.07392
-1.03263
-0.946722
-0.82214
-0.67242
-0.538761
-0.462318
-0.458773
-1.13119
-1.08503
-0.989277
-0.851285
-0.69749
-0.557721
-0.498998
-0.481729
-0.485224
-1.18508
-1.13672
-1.02971
-0.886562
-0.726786
-0.610198
-0.545328
-0.509449
-0.484148
-0.456644
-1.22128
-1.16965
-1.06006
-0.915995
-0.772077
-0.665581
-0.585098
-0.526162
-0.476264
-0.434506
-1.23953
-1.18232
-1.07623
-0.942769
-0.812905
-0.700733
-0.602979
-0.522848
-0.460159
-0.410799
-1.25345
-1.19185
-1.08721
-0.958867
-0.825982
-0.700051
-0.589074
-0.500613
-0.435841
-0.384741
-1.25507
-1.18895
-1.07682
-0.938276
-0.794181
-0.661983
-0.552163
-0.4676
-0.404123
-0.355336
-1.21065
-1.13921
-1.01733
-0.871311
-0.727029
-0.603202
-0.504587
-0.428103
-0.368217
-0.324027
-1.10164
-1.02768
-0.907927
-0.771831
-0.643539
-0.53794
-0.453762
-0.387202
-0.332709
-0.290503
-0.952742
-0.885439
-0.781473
-0.666222
-0.561538
-0.47581
-0.405742
-0.345969
-0.297657
-0.257986
-0.802659
-0.748242
-0.663697
-0.571806
-0.488593
-0.416425
-0.358686
-0.307122
-0.263965
-0.226435
-0.676315
-0.63688
-0.567842
-0.491802
-0.423424
-0.362605
-0.314037
-0.271156
-0.233606
-0.197395
-0.582418
-0.551265
-0.494231
-0.426754
-0.36523
-0.312353
-0.27039
-0.23473
-0.201054
-0.168722
-0.50413
-0.475097
-0.425411
-0.361979
-0.30421
-0.257441
-0.219458
-0.192668
-0.166623
-0.148261
-0.452475
-0.420683
-0.378257
-0.320625
-0.263506
-0.219149
-0.184747
-0.164328
-0.147327
-0.138685
-0.445039
-0.400693
-0.351738
-0.297644
-0.240017
-0.193264
-0.158997
-0.13977
-0.127574
-0.122614
-0.477634
-0.413491
-0.34357
-0.282204
-0.22019
-0.168416
-0.132908
-0.110985
-0.101068
-0.0986403
-0.555722
-0.46272
-0.361276
-0.279779
-0.207965
-0.148251
-0.108982
-0.0846769
-0.074336
-0.0736795
-0.69371
-0.560905
-0.417255
-0.300001
-0.208524
-0.137169
-0.0893652
-0.0612977
-0.0491141
-0.0507435
-0.859396
-0.688626
-0.502574
-0.344985
-0.224662
-0.136813
-0.0771979
-0.0417511
-0.0255993
-0.0276565
-0.970336
-0.782046
-0.576238
-0.392506
-0.246617
-0.142356
-0.0714087
-0.0263308
-0.00459732
-0.00519433
-0.953242
-0.772601
-0.582236
-0.406336
-0.263378
-0.152121
-0.073569
-0.0175267
0.0140827
0.015538
-0.815482
-0.670979
-0.521106
-0.376658
-0.247895
-0.147328
-0.0738682
-0.0157584
0.0253625
0.0344309
-0.634412
-0.536534
-0.430631
-0.322317
-0.219774
-0.134949
-0.0666156
-0.0155408
0.0269326
0.0483178
-0.478344
-0.421166
-0.351358
-0.273282
-0.192803
-0.121834
-0.0632265
-0.017837
0.0206291
0.049208
-0.376473
-0.346068
-0.301533
-0.241329
-0.173692
-0.113047
-0.0619149
-0.0225163
0.0101226
0.0374266
-0.32328
-0.31051
-0.28017
-0.228275
-0.16726
-0.108506
-0.0614734
-0.0263791
0.000373507
0.021158
-0.306283
-0.307647
-0.287524
-0.241796
-0.179324
-0.116397
-0.0654967
-0.0266307
-0.00377706
0.0128498
-0.32748
-0.344615
-0.339255
-0.295324
-0.227666
-0.154125
-0.0895575
-0.0402218
-0.0119213
0.00756429
-0.397837
-0.440961
-0.447832
-0.40535
-0.331461
-0.235899
-0.152227
-0.0824476
-0.0381226
-0.0131571
-0.532011
-0.600191
-0.622307
-0.59449
-0.504315
-0.381439
-0.265577
-0.162781
-0.0883515
-0.0456045
-0.680521
-0.769282
-0.812191
-0.795379
-0.702525
-0.570343
-0.418429
-0.275325
-0.164737
-0.0970795
-0.758936
-0.859423
-0.91546
-0.904203
-0.830958
-0.706354
-0.545255
-0.385398
-0.256726
-0.156007
-0.590904
-0.446699
-0.313659
-0.181849
-0.116319
-0.0903472
-0.0720325
-0.0550309
-0.0391417
-0.0268412
-0.0166726
-0.00763827
-0.000104277
0.00600047
0.0112574
0.0158775
0.0195621
0.0229034
0.0256992
0.0281833
0.0298006
0.0316358
0.033352
0.0339845
0.0350444
0.0359576
0.0364536
0.0369448
0.0373536
0.0376253
0.0378431
0.0379862
0.0380437
0.0380818
-0.118773
-0.0963622
-0.0773216
-0.059202
-0.0438153
-0.0314529
-0.0208154
-0.0115506
-0.00380502
0.00262845
0.00819642
0.0130354
0.0169472
0.0205464
0.0235559
0.0262026
0.0280301
0.0302833
0.0318729
0.0328365
0.0341987
0.0351325
0.035829
0.0364758
0.036981
0.037339
0.0376327
0.037819
0.0379088
0.0379632
-0.105531
-0.086044
-0.0700411
-0.0538329
-0.0405214
-0.0293057
-0.0195815
-0.0111431
-0.00407975
0.00182582
0.00716064
0.0116765
0.0155383
0.0190478
0.0220829
0.0246318
0.0267846
0.0290915
0.0305533
0.0319046
0.0333612
0.0343451
0.0352294
0.0359941
0.0365908
0.0370396
0.0374065
0.0376392
0.0377668
0.0378382
-0.0813049
-0.0633532
-0.0510027
-0.0385796
-0.0287991
-0.0200027
-0.0123658
-0.00568327
-0.000257872
0.00443761
0.00883138
0.0124933
0.0159181
0.0189864
0.021688
0.0240468
0.0263556
0.0283797
0.0298432
0.0314223
0.0328094
0.0338495
0.0348319
0.0356484
0.0362951
0.0368026
0.0372094
0.0374706
0.0376246
0.037706
-0.0545366
-0.0388722
-0.0284632
-0.0201022
-0.0125195
-0.00632177
-0.00111856
0.0031233
0.00650653
0.00972999
0.0126848
0.0152997
0.017961
0.0203573
0.0225223
0.0246936
0.0267914
0.0284329
0.0299223
0.0314775
0.0327076
0.033754
0.0347222
0.0355187
0.0361549
0.0366697
0.0370688
0.037329
0.0374875
0.0375677
-0.0302882
-0.0154922
-0.00807751
-0.00175263
0.00377246
0.00752731
0.0107685
0.0129476
0.0146501
0.0162817
0.0177516
0.0193462
0.0210692
0.0226771
0.0242971
0.0261431
0.0277692
0.0291275
0.030546
0.0319087
0.032974
0.0339573
0.0348317
0.0355573
0.0361357
0.0366158
0.0369712
0.0372081
0.0373525
0.037423
-0.0103533
0.00380097
0.00891432
0.0158629
0.018676
0.0203708
0.0215097
0.0219348
0.0222516
0.0225043
0.0228153
0.0234769
0.024302
0.0252236
0.026385
0.0277859
0.028932
0.0300742
0.031304
0.0324144
0.0333351
0.0342164
0.0349773
0.0356199
0.0361335
0.0365662
0.0368729
0.0370851
0.0372115
0.037272
0.00785964
0.0186702
0.0229811
0.0290995
0.0300817
0.0310393
0.0309254
0.0299427
0.0287698
0.0277373
0.0271111
0.0269277
0.0270101
0.0273596
0.0280889
0.0290013
0.0297982
0.0307699
0.0317854
0.032693
0.0335106
0.034297
0.0349766
0.0355596
0.0360409
0.0364436
0.0367271
0.0369344
0.0370548
0.0371136
0.0267288
0.0335417
0.0366581
0.0394498
0.0388072
0.0387296
0.0375594
0.0357614
0.0337505
0.0318905
0.0304106
0.0294421
0.0289693
0.0288856
0.029237
0.0297196
0.0302842
0.0310635
0.0318811
0.0326518
0.0334111
0.0341372
0.0347842
0.0353431
0.0358346
0.0362325
0.0365259
0.0367509
0.0368819
0.0369491
0.0456736
0.0486871
0.0512487
0.0507939
0.04835
0.0463006
0.0434249
0.0404308
0.0375413
0.0350297
0.0329309
0.0314336
0.0304905
0.0299701
0.030021
0.0301835
0.0305798
0.0311903
0.0318537
0.032525
0.0332354
0.0339114
0.0345358
0.0350834
0.035592
0.0359911
0.0363074
0.036554
0.0367017
0.036781
0.0617481
0.0613979
0.0633171
0.0612594
0.0578619
0.0539501
0.0495588
0.0453601
0.0415176
0.0382018
0.0354851
0.0335628
0.0321941
0.0313957
0.0310612
0.0309546
0.0311607
0.0315588
0.0320482
0.0326221
0.033247
0.033853
0.0344242
0.034943
0.035428
0.0358073
0.0361284
0.0363756
0.0365291
0.036614
0.0737163
0.0661007
0.0702663
0.0668
0.0633871
0.0587145
0.0535993
0.0486667
0.0444063
0.0407768
0.0378683
0.0356365
0.0339746
0.032913
0.0322785
0.0320075
0.0320463
0.0322494
0.0325876
0.0330376
0.0335245
0.0340267
0.0345029
0.0349665
0.0353791
0.0357147
0.0360088
0.0362289
0.0363704
0.0364496
0.0638319
0.0653741
0.067489
0.0656353
0.0626376
0.0584766
0.0540125
0.0496403
0.0456006
0.0420324
0.0392827
0.0371075
0.0354714
0.0342668
0.033474
0.0330533
0.0329018
0.0329438
0.0331711
0.0335003
0.0338771
0.0342776
0.0346625
0.0350592
0.0353865
0.0356746
0.0359211
0.0361022
0.0362212
0.0362874
0.0412559
0.0470726
0.0504533
0.0531905
0.0538918
0.0523676
0.0497472
0.0469929
0.0442819
0.0417337
0.0394852
0.0375489
0.0360396
0.0349045
0.0341441
0.0337039
0.0334714
0.0334368
0.0335732
0.033787
0.0340844
0.034403
0.0347389
0.0350771
0.0353525
0.0356103
0.0358158
0.0359685
0.0360684
0.0361231
0.0228942
0.0250254
0.0276542
0.0339038
0.0394531
0.0422069
0.0424601
0.0419478
0.0410179
0.0398645
0.0385608
0.0372474
0.0360592
0.0350478
0.0343312
0.0338477
0.0335697
0.0335253
0.0336174
0.0337998
0.034064
0.0343459
0.0346699
0.0349686
0.0352347
0.0354792
0.0356676
0.0358117
0.0359043
0.0359544
0.0142172
0.013783
0.0157795
0.021496
0.0283571
0.0332456
0.0360962
0.0377605
0.0382515
0.0380051
0.0372865
0.0364855
0.0356454
0.0349197
0.0343618
0.0339348
0.0336743
0.0335705
0.0335858
0.0337272
0.033945
0.0342146
0.0345234
0.0348
0.0350719
0.0353058
0.0354932
0.035637
0.0357298
0.0357799
0.00250093
0.0076893
0.0115995
0.0170832
0.0238511
0.0288807
0.0325216
0.0351332
0.0365708
0.0369992
0.0367618
0.0362393
0.0354929
0.0348546
0.0343573
0.0339926
0.0337654
0.0336768
0.0336906
0.0337988
0.033977
0.0342085
0.0344601
0.0347038
0.0349512
0.0351585
0.0353347
0.0354669
0.0355545
0.0356013
-0.0162317
-0.00291007
0.000841026
0.00853774
0.0189325
0.0258326
0.0303613
0.0333853
0.0351524
0.035861
0.036215
0.0360213
0.0355936
0.0352147
0.0348347
0.0344821
0.0342204
0.0340633
0.0339937
0.0340451
0.0341696
0.0343351
0.0345186
0.0347126
0.0349028
0.0350668
0.035208
0.0353124
0.0353828
0.0354194
-0.0478709
-0.0278229
-0.0219961
-0.00579521
0.0117443
0.0215209
0.0283271
0.032387
0.0344352
0.0353348
0.0357694
0.0355849
0.0354369
0.0351977
0.0349253
0.0347145
0.0345632
0.034444
0.0343795
0.0343845
0.0344234
0.0345028
0.0346139
0.0347451
0.0348726
0.0349913
0.035088
0.0351626
0.0352102
0.0352347
-0.0874998
-0.0623537
-0.0417904
-0.0132418
0.00666845
0.0183876
0.0253731
0.030032
0.0326135
0.0344468
0.0351373
0.0354022
0.0354926
0.0352708
0.0350732
0.0348524
0.0346721
0.0345258
0.0344645
0.0344529
0.0344719
0.0345218
0.0346012
0.0346899
0.0347811
0.0348692
0.0349374
0.0349951
0.0350269
0.0350447
-0.121564
-0.0825157
-0.0431612
-0.0143602
0.00265176
0.014931
0.0215796
0.0267488
0.0294001
0.0318823
0.0330267
0.0340786
0.0343856
0.0345743
0.0346471
0.0346649
0.0346115
0.0345372
0.0344601
0.0344018
0.0343771
0.0344034
0.0344648
0.034535
0.0346156
0.03469
0.0347517
0.0348035
0.0348301
0.0348467
-0.138287
-0.0890598
-0.091509
-0.0684032
-0.0510148
-0.038214
-0.0264557
-0.0151399
-0.00547448
0.00209639
0.00852872
0.0141691
-0.0972725
-0.0726927
-0.0533206
-0.0400155
-0.0274037
-0.015305
-0.00584074
0.00153243
0.00821653
0.0139237
0.0183104
0.021983
0.0252572
0.0278637
0.0300042
0.0317853
0.0333495
0.0344663
0.0351072
0.0362492
0.0367245
0.0370611
0.0376239
0.0378956
0.0381169
0.0383277
0.0384534
0.0385307
0.0385606
0.0385793
-0.096234
-0.0694339
-0.0528573
-0.0413082
-0.0280665
-0.0156289
-0.00659856
0.000878046
0.00785726
0.013445
0.0177305
0.0215275
0.02488
0.027463
0.0296541
0.0314501
0.033092
0.0340551
0.0349279
0.0361377
0.0363889
0.0369193
0.037459
0.0376907
0.037944
0.038162
0.0382959
0.0383916
0.0384284
0.0384504
-0.101846
-0.0715331
-0.0550493
-0.0425292
-0.028501
-0.0164528
-0.00784762
-6.63471e-05
0.00700875
0.0123994
0.0166976
0.0206537
0.0240107
0.0266303
0.0289594
0.0308892
0.0325362
0.0334848
0.034815
0.0357945
0.0360507
0.03681
0.0372604
0.0375059
0.0377966
0.0380111
0.0381538
0.0382609
0.0382997
0.0383245
-0.104772
-0.0768835
-0.0609725
-0.0472081
-0.0318989
-0.0199813
-0.0111362
-0.00282878
0.00435792
0.00985393
0.0144986
0.0187338
0.0221638
0.0250813
0.0276519
0.0298264
0.0314173
0.03271
0.0343731
0.0350352
0.0356425
0.0365341
0.0369382
0.0372811
0.0376204
0.0378447
0.0380115
0.03813
0.0381722
0.0382008
)
;

boundaryField
{
    outlet
    {
        type            fixedValue;
        value           nonuniform 0();
    }
    upperWall
    {
        type            symmetryPlane;
    }
    lowerWall
    {
        type            symmetryPlane;
    }
    inlet
    {
        type            zeroGradient;
    }
    cylinder
    {
        type            zeroGradient;
    }
    frontAndBack
    {
        type            empty;
    }
    procBoundary2to1
    {
        type            processor;
        value           nonuniform List<scalar> 
63
(
-0.431415
-0.431415
-0.375059
-0.345515
-0.345515
-0.295654
-0.268087
-0.268087
-0.226846
-0.202827
-0.180138
-0.180138
-0.149926
-0.131041
-0.113053
-0.113053
-0.786553
-0.830995
-0.830995
-0.804142
-0.769797
-0.734608
-0.631327
-0.631327
-0.513069
-0.513069
-0.457599
-0.457599
-0.484961
-0.484961
-0.480504
-0.480504
-0.0901794
-0.0691303
-0.0506639
-0.0368112
-0.0247278
-0.0138467
-0.00448336
0.00307874
0.00925822
0.0146441
0.0186552
0.0186552
0.0223028
0.0255062
0.0281703
0.0303315
0.0321358
0.0336127
0.0348056
0.0354522
0.0363723
0.0370509
0.0373157
0.0378169
0.0381292
0.0383238
0.0385097
0.0386211
0.0386751
0.0386943
0.0387104
)
;
    }
    procBoundary2to3
    {
        type            processor;
        value           nonuniform List<scalar> 
43
(
-0.700466
-0.795058
-0.853196
-0.860131
-0.812002
-0.72447
-0.72447
-0.505369
-0.413416
-0.320663
-0.194613
-0.194613
-0.0496914
-0.0266713
-0.00624211
0.00713252
0.0185107
0.0240693
0.0281433
0.0303253
0.0321299
0.033267
0.0336951
0.0340513
0.0342117
0.0342575
0.0342759
0.0342881
0.0342748
0.0342741
0.0342761
0.0343039
0.034344
0.0343943
0.0344569
0.0345134
0.0345654
0.0346054
0.034627
0.0346401
-0.13856
-0.0496914
-0.0927505
)
;
    }
    procBoundary2to6
    {
        type            processor;
        value           nonuniform List<scalar> 
37
(
-0.811766
-0.877196
-0.947773
-1.01516
-1.0787
-1.13672
-1.18662
-1.22283
-1.24661
-1.26333
-1.2615
-1.21409
-1.10298
-0.952075
-0.799306
-0.67074
-0.577797
-0.502029
-0.457476
-0.462691
-0.510576
-0.609431
-0.774327
-0.963867
-1.08846
-1.07189
-0.919846
-0.709874
-0.520757
-0.392306
-0.322365
-0.291227
-0.29689
-0.343554
-0.439996
-0.557671
-0.624339
)
;
    }
}


// ************************************************************************* //
