/*--------------------------------*- C++ -*----------------------------------*\
| =========                 |                                                 |
| \\      /  F ield         | OpenFOAM: The Open Source CFD Toolbox           |
|  \\    /   O peration     | Version:                                        |
|   \\  /    A nd           | Website:  www.openfoam.com                      |
|    \\/     M anipulation  |                                                 |
\*---------------------------------------------------------------------------*/
FoamFile
{
    version     2.0;
    format      ascii;
    class       volScalarField;
    location    "0.4";
    object      p;
}
// * * * * * * * * * * * * * * * * * * * * * * * * * * * * * * * * * * * * * //

dimensions      [0 2 -2 0 0 0 0];


internalField   nonuniform List<scalar> 
400
(
0.453386
0.443507
0.433763
0.424148
0.414657
0.405286
0.39603
0.386887
0.377851
0.368921
0.360092
0.351361
0.342724
0.334179
0.325722
0.317351
0.309062
0.300853
0.29272
0.284662
0.453956
0.444026
0.434237
0.424583
0.415058
0.405658
0.396376
0.38721
0.378154
0.369205
0.360359
0.351612
0.342962
0.334404
0.325935
0.317553
0.309254
0.301036
0.292895
0.284829
0.454481
0.4445
0.434668
0.424977
0.41542
0.405992
0.396685
0.387497
0.378422
0.369455
0.360594
0.351833
0.34317
0.3346
0.326121
0.317729
0.309421
0.301194
0.293045
0.284972
0.454969
0.444937
0.435062
0.425334
0.415745
0.406288
0.396958
0.387748
0.378654
0.369672
0.360795
0.352022
0.343346
0.334766
0.326277
0.317876
0.30956
0.301326
0.29317
0.28509
0.455491
0.4454
0.435474
0.425703
0.416078
0.40659
0.397233
0.388
0.378886
0.369885
0.360992
0.352205
0.343517
0.334925
0.326426
0.318016
0.309691
0.301449
0.293287
0.2852
0.456081
0.445919
0.435934
0.426112
0.416443
0.406918
0.397529
0.388269
0.37913
0.370109
0.361198
0.352394
0.343692
0.335088
0.326578
0.318157
0.309824
0.301573
0.293403
0.28531
0.456758
0.446511
0.436454
0.426572
0.416852
0.407283
0.397856
0.388563
0.379397
0.370351
0.36142
0.352597
0.343879
0.335261
0.326737
0.318306
0.309962
0.301702
0.293524
0.285423
0.457526
0.447182
0.437043
0.427091
0.417312
0.407692
0.398222
0.388891
0.379693
0.370619
0.361663
0.35282
0.344083
0.335448
0.32691
0.318465
0.31011
0.30184
0.293652
0.285543
0.458376
0.447927
0.437698
0.427668
0.417823
0.408146
0.398627
0.389255
0.38002
0.370915
0.361931
0.353064
0.344306
0.335653
0.327098
0.318639
0.310271
0.301989
0.293791
0.285673
0.459287
0.448728
0.438404
0.428293
0.418376
0.408639
0.399068
0.38965
0.380376
0.371236
0.362223
0.353329
0.344549
0.335875
0.327303
0.318828
0.310445
0.302151
0.293941
0.285813
0.460227
0.44956
0.43914
0.428946
0.418958
0.409159
0.399533
0.390068
0.380753
0.371578
0.362533
0.353612
0.344807
0.336112
0.327521
0.319029
0.310632
0.302324
0.294102
0.285962
0.461162
0.450391
0.439881
0.429607
0.419549
0.409688
0.400009
0.390497
0.381141
0.37193
0.362854
0.353905
0.345076
0.336359
0.327748
0.319239
0.310826
0.302504
0.29427
0.286119
0.462058
0.451193
0.440599
0.430251
0.420127
0.410209
0.400479
0.390923
0.381527
0.372281
0.363175
0.354199
0.345345
0.336607
0.327977
0.319451
0.311023
0.302687
0.29444
0.286278
0.462886
0.451938
0.44127
0.430856
0.420673
0.410703
0.400926
0.391329
0.381897
0.372619
0.363484
0.354483
0.345607
0.336848
0.328201
0.319658
0.311215
0.302867
0.294608
0.286434
0.463623
0.452606
0.441874
0.431403
0.421169
0.411153
0.401336
0.391703
0.382239
0.372932
0.363772
0.354747
0.345851
0.337074
0.32841
0.319853
0.311396
0.303036
0.294766
0.286583
0.464254
0.453179
0.442395
0.431877
0.4216
0.411546
0.401695
0.392031
0.38254
0.373209
0.364026
0.354983
0.346068
0.337276
0.328598
0.320028
0.31156
0.303188
0.294909
0.286717
0.464768
0.453648
0.442822
0.432266
0.421956
0.411871
0.401992
0.392304
0.382791
0.37344
0.36424
0.35518
0.346252
0.337447
0.328757
0.320176
0.311698
0.303318
0.29503
0.286831
0.465157
0.454004
0.443148
0.432564
0.422228
0.412121
0.402222
0.392515
0.382985
0.37362
0.364406
0.355334
0.346395
0.33758
0.328881
0.320292
0.311807
0.30342
0.295126
0.286921
0.465418
0.454243
0.443367
0.432765
0.422413
0.41229
0.402377
0.392658
0.383118
0.373742
0.36452
0.35544
0.346493
0.337671
0.328966
0.320372
0.311882
0.30349
0.295192
0.286983
0.465549
0.454363
0.443477
0.432866
0.422505
0.412375
0.402456
0.392731
0.383184
0.373804
0.364577
0.355493
0.346543
0.337718
0.32901
0.320413
0.31192
0.303526
0.295226
0.287015
)
;

boundaryField
{
    fixedWalls
    {
        type            zeroGradient;
    }
    inlet
    {
        type            zeroGradient;
    }
    outlet
    {
        type            fixedValue;
        value           nonuniform 0();
    }
    frontAndBack
    {
        type            empty;
    }
    procBoundary1to0
    {
        type            processor;
        value           nonuniform List<scalar> 
20
(
0.463405
0.464037
0.464621
0.465169
0.465761
0.466436
0.467213
0.468094
0.469068
0.470105
0.47117
0.472221
0.473221
0.47414
0.474955
0.475648
0.47621
0.476635
0.47692
0.477062
)
;
    }
    procBoundary1to2
    {
        type            processor;
        value           nonuniform List<scalar> 
20
(
0.276676
0.276835
0.276971
0.277083
0.277188
0.277291
0.277397
0.27751
0.277631
0.277761
0.277901
0.278047
0.278196
0.278343
0.278482
0.278608
0.278716
0.2788
0.278859
0.278889
)
;
    }
    procBoundary1to5
    {
        type            processor;
        value           nonuniform List<scalar> 
20
(
0.465549
0.454363
0.443477
0.432866
0.422505
0.412375
0.402456
0.392731
0.383184
0.373804
0.364577
0.355493
0.346543
0.337718
0.32901
0.320413
0.31192
0.303526
0.295226
0.287015
)
;
    }
}


// ************************************************************************* //
