/*--------------------------------*- C++ -*----------------------------------*\
| =========                 |                                                 |
| \\      /  F ield         | OpenFOAM: The Open Source CFD Toolbox           |
|  \\    /   O peration     | Version:                                        |
|   \\  /    A nd           | Website:  www.openfoam.com                      |
|    \\/     M anipulation  |                                                 |
\*---------------------------------------------------------------------------*/
FoamFile
{
    version     2.0;
    format      ascii;
    class       surfaceScalarField;
    location    "0.4";
    object      phi;
}
// * * * * * * * * * * * * * * * * * * * * * * * * * * * * * * * * * * * * * //

dimensions      [0 3 -1 0 0 0 0];
oriented        oriented;


internalField   nonuniform List<scalar> 
760
(
2.45917e-06
3.33177e-08
2.42879e-06
3.03814e-08
2.40093e-06
2.78632e-08
2.37524e-06
2.56851e-08
2.35145e-06
2.37858e-08
2.32934e-06
2.21166e-08
2.3087e-06
2.06388e-08
2.28938e-06
1.93211e-08
2.27124e-06
1.81388e-08
2.25417e-06
1.70716e-08
2.23806e-06
1.61033e-08
2.22284e-06
1.52201e-08
2.20843e-06
1.44108e-08
2.19477e-06
1.36663e-08
2.18179e-06
1.29788e-08
2.16945e-06
1.23417e-08
2.1577e-06
1.17495e-08
2.1465e-06
1.11975e-08
2.13582e-06
1.06814e-08
1.01979e-08
7.06779e-06
1.287e-07
6.98098e-06
1.1719e-07
6.90153e-06
1.07313e-07
6.82844e-06
9.87704e-08
6.76091e-06
9.13242e-08
6.69824e-06
8.47856e-08
6.63987e-06
7.90031e-08
6.58534e-06
7.3855e-08
6.53423e-06
6.92432e-08
6.48622e-06
6.50878e-08
6.441e-06
6.13235e-08
6.39832e-06
5.78964e-08
6.35797e-06
5.47619e-08
6.31975e-06
5.18833e-08
6.2835e-06
4.92293e-08
6.24907e-06
4.67739e-08
6.21633e-06
4.44947e-08
6.18515e-06
4.23732e-08
6.15544e-06
4.03924e-08
3.85388e-08
1.13485e-05
2.79236e-07
1.12115e-05
2.54137e-07
1.10863e-05
2.32566e-07
1.09712e-05
2.1389e-07
1.08649e-05
1.97601e-07
1.07664e-05
1.83296e-07
1.06747e-05
1.70646e-07
1.05892e-05
1.59389e-07
1.05091e-05
1.49311e-07
1.0434e-05
1.40238e-07
1.03633e-05
1.32026e-07
1.02966e-05
1.24556e-07
1.02336e-05
1.17732e-07
1.01741e-05
1.1147e-07
1.01176e-05
1.05703e-07
1.0064e-05
1.00373e-07
1.0013e-05
9.543e-08
9.96459e-06
9.08328e-08
9.91844e-06
8.65444e-08
8.25342e-08
1.52715e-05
4.74306e-07
1.50938e-05
4.31809e-07
1.49312e-05
3.95188e-07
1.47816e-05
3.63413e-07
1.46436e-05
3.35654e-07
1.45156e-05
3.11246e-07
1.43966e-05
2.89647e-07
1.42856e-05
2.70418e-07
1.41817e-05
2.53199e-07
1.40843e-05
2.37697e-07
1.39926e-05
2.2367e-07
1.39063e-05
2.10915e-07
1.38247e-05
1.99266e-07
1.37476e-05
1.88584e-07
1.36746e-05
1.78751e-07
1.36053e-05
1.69667e-07
1.35395e-05
1.61247e-07
1.34769e-05
1.53421e-07
1.34173e-05
1.46124e-07
1.39303e-07
1.88002e-05
6.98959e-07
1.85949e-05
6.37096e-07
1.84065e-05
5.83568e-07
1.8233e-05
5.36965e-07
1.80725e-05
4.9614e-07
1.79236e-05
4.60161e-07
1.7785e-05
4.28266e-07
1.76555e-05
3.9983e-07
1.75344e-05
3.74342e-07
1.74207e-05
3.51377e-07
1.73138e-05
3.30584e-07
1.72131e-05
3.11672e-07
1.71179e-05
2.94396e-07
1.7028e-05
2.78551e-07
1.69427e-05
2.63966e-07
1.68619e-05
2.50493e-07
1.67852e-05
2.38006e-07
1.67122e-05
2.26401e-07
1.66427e-05
2.15584e-07
2.05474e-07
2.18981e-05
9.34391e-07
2.16817e-05
8.53497e-07
2.14822e-05
7.83115e-07
2.12976e-05
7.21548e-07
2.11263e-05
6.67398e-07
2.0967e-05
6.19513e-07
2.08183e-05
5.76942e-07
2.06792e-05
5.38897e-07
2.05488e-05
5.04728e-07
2.04263e-05
4.7389e-07
2.0311e-05
4.45931e-07
2.02022e-05
4.20472e-07
2.00994e-05
3.97196e-07
2.00021e-05
3.75832e-07
1.99099e-05
3.56154e-07
1.98224e-05
3.37967e-07
1.97393e-05
3.21106e-07
1.96603e-05
3.0543e-07
1.95851e-05
2.90814e-07
2.77152e-07
2.45367e-05
1.15967e-06
2.43278e-05
1.06247e-06
2.41336e-05
9.77313e-07
2.39528e-05
9.02377e-07
2.3784e-05
8.36123e-07
2.36263e-05
7.77269e-07
2.34785e-05
7.24738e-07
2.33397e-05
6.77633e-07
2.32093e-05
6.35199e-07
2.30864e-05
5.96805e-07
2.29704e-05
5.61919e-07
2.28607e-05
5.30091e-07
2.2757e-05
5.00943e-07
2.26587e-05
4.74152e-07
2.25654e-05
4.49444e-07
2.24768e-05
4.26584e-07
2.23925e-05
4.05371e-07
2.23123e-05
3.85632e-07
2.22359e-05
3.67215e-07
3.49988e-07
2.67036e-05
1.35436e-06
2.65204e-05
1.24558e-06
2.63483e-05
1.14951e-06
2.61863e-05
1.06436e-06
2.60338e-05
9.88596e-07
2.58902e-05
9.20916e-07
2.57547e-05
8.60207e-07
2.56268e-05
8.05529e-07
2.55059e-05
7.56081e-07
2.53915e-05
7.11185e-07
2.52832e-05
6.70266e-07
2.51804e-05
6.32833e-07
2.50829e-05
5.98468e-07
2.49902e-05
5.66815e-07
2.49021e-05
5.37568e-07
2.48182e-05
5.10462e-07
2.47383e-05
4.8527e-07
2.46622e-05
4.61797e-07
2.45895e-05
4.3987e-07
4.19338e-07
2.84073e-05
1.50143e-06
2.82659e-05
1.38698e-06
2.81304e-05
1.285e-06
2.80009e-05
1.19388e-06
2.78772e-05
1.11222e-06
2.77594e-05
1.03879e-06
2.7647e-05
9.72537e-07
2.754e-05
9.1255e-07
2.74381e-05
8.58042e-07
2.73409e-05
8.08341e-07
2.72483e-05
7.62866e-07
2.716e-05
7.21121e-07
2.70758e-05
6.82677e-07
2.69955e-05
6.47166e-07
2.69187e-05
6.1427e-07
2.68455e-05
5.83712e-07
2.67755e-05
5.55253e-07
2.67086e-05
5.28684e-07
2.66447e-05
5.03823e-07
4.80507e-07
2.96792e-05
1.58938e-06
2.95907e-05
1.47541e-06
2.95029e-05
1.37288e-06
2.94163e-05
1.28047e-06
2.93315e-05
1.19699e-06
2.92489e-05
1.12139e-06
2.91687e-05
1.05272e-06
2.90911e-05
9.90178e-07
2.90161e-05
9.33034e-07
2.89438e-05
8.80667e-07
2.88741e-05
8.32534e-07
2.8807e-05
7.88164e-07
2.87426e-05
7.47148e-07
2.86806e-05
7.09129e-07
2.86211e-05
6.73798e-07
2.85639e-05
6.40883e-07
2.8509e-05
6.10148e-07
2.84563e-05
5.81386e-07
2.84057e-05
5.54413e-07
5.29066e-07
3.05701e-05
1.61337e-06
3.05402e-05
1.50531e-06
3.05059e-05
1.40715e-06
3.04685e-05
1.31789e-06
3.04289e-05
1.23658e-06
3.03879e-05
1.16238e-06
3.03461e-05
1.09451e-06
3.0304e-05
1.03228e-06
3.0262e-05
9.75086e-07
3.02203e-05
9.22378e-07
3.01791e-05
8.73684e-07
3.01387e-05
8.28583e-07
3.00991e-05
7.86709e-07
3.00605e-05
7.47739e-07
3.00229e-05
7.1139e-07
2.99864e-05
6.77412e-07
2.9951e-05
6.45585e-07
2.99167e-05
6.15715e-07
2.98834e-05
5.8763e-07
5.61176e-07
3.11442e-05
1.57475e-06
3.11727e-05
1.47675e-06
3.1193e-05
1.38688e-06
3.12065e-05
1.30442e-06
3.12144e-05
1.22869e-06
3.12177e-05
1.15903e-06
3.12174e-05
1.09486e-06
3.1214e-05
1.03561e-06
3.12083e-05
9.80806e-07
3.12007e-05
9.30002e-07
3.11916e-05
8.82805e-07
3.11813e-05
8.38865e-07
3.11701e-05
7.97874e-07
3.11583e-05
7.59556e-07
3.1146e-05
7.23669e-07
3.11334e-05
6.89994e-07
3.11207e-05
6.58342e-07
3.11079e-05
6.28539e-07
3.1095e-05
6.00434e-07
5.73889e-07
3.1471e-05
1.47976e-06
3.15533e-05
1.39443e-06
3.16247e-05
1.31548e-06
3.16867e-05
1.24242e-06
3.17406e-05
1.17479e-06
3.17876e-05
1.1121e-06
3.18285e-05
1.05392e-06
3.18643e-05
9.99842e-07
3.18956e-05
9.49491e-07
3.19231e-05
9.02528e-07
3.19472e-05
8.58649e-07
3.19685e-05
8.17577e-07
3.19873e-05
7.79068e-07
3.2004e-05
7.42901e-07
3.20188e-05
7.0888e-07
3.20319e-05
6.76827e-07
3.20437e-05
6.46585e-07
3.20542e-05
6.18011e-07
3.20637e-05
5.90978e-07
5.6537e-07
3.16184e-05
1.33759e-06
3.17467e-05
1.26609e-06
3.18628e-05
1.19942e-06
3.1968e-05
1.13726e-06
3.20635e-05
1.07927e-06
3.21504e-05
1.02514e-06
3.22298e-05
9.74553e-07
3.23024e-05
9.27214e-07
3.2369e-05
8.82856e-07
3.24303e-05
8.41232e-07
3.24869e-05
8.02116e-07
3.25392e-05
7.65304e-07
3.25876e-05
7.30612e-07
3.26326e-05
6.97874e-07
3.26746e-05
6.66941e-07
3.27137e-05
6.37676e-07
3.27504e-05
6.09957e-07
3.27847e-05
5.83674e-07
3.28169e-05
5.58726e-07
5.3502e-07
3.16469e-05
1.15849e-06
3.18121e-05
1.10089e-06
3.19647e-05
1.04682e-06
3.21059e-05
9.96072e-07
3.22367e-05
9.48424e-07
3.23582e-05
9.03652e-07
3.24712e-05
8.61542e-07
3.25765e-05
8.21891e-07
3.26749e-05
7.84514e-07
3.27669e-05
7.49236e-07
3.28531e-05
7.15902e-07
3.2934e-05
6.84367e-07
3.30101e-05
6.54501e-07
3.30818e-05
6.26185e-07
3.31494e-05
5.99314e-07
3.32133e-05
5.73788e-07
3.32738e-05
5.4952e-07
3.3331e-05
5.26427e-07
3.33853e-05
5.04436e-07
4.83476e-07
3.16063e-05
9.52278e-07
3.17993e-05
9.07921e-07
3.198e-05
8.66072e-07
3.21495e-05
8.26584e-07
3.23086e-05
7.89303e-07
3.24582e-05
7.54076e-07
3.2599e-05
7.20758e-07
3.27317e-05
6.89213e-07
3.28569e-05
6.59315e-07
3.29752e-05
6.3095e-07
3.30871e-05
6.04013e-07
3.3193e-05
5.78408e-07
3.32935e-05
5.54047e-07
3.33888e-05
5.30852e-07
3.34794e-05
5.08751e-07
3.35655e-05
4.87677e-07
3.36474e-05
4.67572e-07
3.37255e-05
4.48378e-07
3.37999e-05
4.30044e-07
4.12522e-07
3.15353e-05
7.27406e-07
3.17479e-05
6.95333e-07
3.1949e-05
6.64963e-07
3.21394e-05
6.3619e-07
3.23198e-05
6.08908e-07
3.24908e-05
5.83014e-07
3.26532e-05
5.58412e-07
3.28074e-05
5.35013e-07
3.2954e-05
5.12735e-07
3.30934e-05
4.91506e-07
3.32262e-05
4.7126e-07
3.33526e-05
4.51936e-07
3.34732e-05
4.3348e-07
3.35882e-05
4.15842e-07
3.3698e-05
3.98977e-07
3.38028e-05
3.82845e-07
3.3903e-05
3.67407e-07
3.39987e-05
3.52627e-07
3.40903e-05
3.38474e-07
3.24914e-07
3.14614e-05
4.90581e-07
3.16869e-05
4.6983e-07
3.19017e-05
4.50134e-07
3.21065e-05
4.31423e-07
3.23018e-05
4.13628e-07
3.24881e-05
3.96683e-07
3.2666e-05
3.8053e-07
3.28359e-05
3.65113e-07
3.29982e-05
3.50385e-07
3.31534e-05
3.36304e-07
3.33019e-05
3.22831e-07
3.34439e-05
3.09931e-07
3.35798e-05
2.97574e-07
3.37099e-05
2.8573e-07
3.38345e-05
2.74375e-07
3.39539e-05
2.63487e-07
3.40682e-05
2.53044e-07
3.41778e-05
2.43023e-07
3.42829e-05
2.33408e-07
2.2418e-07
3.14031e-05
2.4685e-07
3.16363e-05
2.36676e-07
3.18594e-05
2.27006e-07
3.2073e-05
2.17805e-07
3.22776e-05
2.0904e-07
3.24736e-05
2.00677e-07
3.26614e-05
1.92687e-07
3.28415e-05
1.85046e-07
3.30142e-05
1.77731e-07
3.31797e-05
1.70722e-07
3.33386e-05
1.64003e-07
3.34909e-05
1.57557e-07
3.36371e-05
1.5137e-07
3.37774e-05
1.45429e-07
3.39121e-05
1.39725e-07
3.40413e-05
1.34246e-07
3.41654e-05
1.28984e-07
3.42845e-05
1.23927e-07
3.43988e-05
1.19069e-07
1.14401e-07
3.13714e-05
3.16081e-05
3.18351e-05
3.20529e-05
3.22619e-05
3.24626e-05
3.26553e-05
3.28403e-05
3.3018e-05
3.31888e-05
3.33528e-05
3.35103e-05
3.36617e-05
3.38071e-05
3.39468e-05
3.4081e-05
3.421e-05
3.43339e-05
3.4453e-05
)
;

boundaryField
{
    fixedWalls
    {
        type            calculated;
        value           uniform 0;
    }
    inlet
    {
        type            calculated;
        value           nonuniform 0();
    }
    outlet
    {
        type            calculated;
        value           nonuniform 0();
    }
    frontAndBack
    {
        type            empty;
        value           nonuniform 0();
    }
    procBoundary1to0
    {
        type            processor;
        value           nonuniform List<scalar> 
20
(
-2.49249e-06
-7.16317e-06
-1.1499e-05
-1.54665e-05
-1.90248e-05
-2.21335e-05
-2.4762e-05
-2.68983e-05
-2.85543e-05
-2.97671e-05
-3.05941e-05
-3.11055e-05
-3.1376e-05
-3.14762e-05
-3.14678e-05
-3.14001e-05
-3.13104e-05
-3.12246e-05
-3.11594e-05
-3.11246e-05
)
;
    }
    procBoundary1to2
    {
        type            processor;
        value           nonuniform List<scalar> 
20
(
2.12562e-06
6.1271e-06
9.87444e-06
1.33605e-05
1.65765e-05
1.95134e-05
2.21631e-05
2.45202e-05
2.65835e-05
2.83572e-05
2.98513e-05
3.10823e-05
3.20722e-05
3.28473e-05
3.34368e-05
3.38708e-05
3.41779e-05
3.43836e-05
3.45086e-05
3.45674e-05
)
;
    }
    procBoundary1to5
    {
        type            processor;
        value           nonuniform List<scalar> 
20
(
2.28682e-12
2.56071e-12
2.84863e-12
3.13533e-12
3.36859e-12
3.53254e-12
3.75161e-12
4.12778e-12
4.69825e-12
5.34282e-12
5.91066e-12
6.48065e-12
7.16084e-12
7.92707e-12
8.80231e-12
9.98519e-12
1.12378e-11
1.26806e-11
1.44951e-11
1.61265e-11
)
;
    }
}


// ************************************************************************* //
