/*--------------------------------*- C++ -*----------------------------------*\
| =========                 |                                                 |
| \\      /  F ield         | OpenFOAM: The Open Source CFD Toolbox           |
|  \\    /   O peration     | Version:                                        |
|   \\  /    A nd           | Website:  www.openfoam.com                      |
|    \\/     M anipulation  |                                                 |
\*---------------------------------------------------------------------------*/
FoamFile
{
    version     2.0;
    format      ascii;
    class       volVectorField;
    location    "0.4";
    object      U;
}
// * * * * * * * * * * * * * * * * * * * * * * * * * * * * * * * * * * * * * //

dimensions      [0 1 -1 0 0 0 0];


internalField   nonuniform List<vector> 
400
(
(0.0990021 0.000210479 0)
(0.0977326 0.000192555 0)
(0.0965714 0.000177175 0)
(0.0955035 0.000163855 0)
(0.0945165 0.000152217 0)
(0.0936005 0.000141962 0)
(0.0927472 0.000132854 0)
(0.0919494 0.000124705 0)
(0.0912015 0.000117366 0)
(0.0904983 0.000110717 0)
(0.0898357 0.000104661 0)
(0.08921 9.91171e-05 0)
(0.0886181 9.40194e-05 0)
(0.0880572 8.93131e-05 0)
(0.0875248 8.49529e-05 0)
(0.0870188 8.09009e-05 0)
(0.0865374 7.71233e-05 0)
(0.0860789 7.35935e-05 0)
(0.0856416 7.02842e-05 0)
(0.0852243 6.71785e-05 0)
(0.284528 0.00134238 0)
(0.280897 0.00122381 0)
(0.277583 0.0011221 0)
(0.274541 0.00103412 0)
(0.271736 0.000957398 0)
(0.269138 0.000889978 0)
(0.266722 0.000830293 0)
(0.264469 0.000777091 0)
(0.262359 0.000729365 0)
(0.26038 0.0006863 0)
(0.258518 0.000647231 0)
(0.256763 0.000611608 0)
(0.255104 0.00057898 0)
(0.253534 0.00054897 0)
(0.252047 0.000521265 0)
(0.250634 0.0004956 0)
(0.249292 0.000471748 0)
(0.248015 0.000449522 0)
(0.246798 0.000428745 0)
(0.245638 0.000409285 0)
(0.456805 0.00380145 0)
(0.451076 0.0034607 0)
(0.445849 0.00316821 0)
(0.441055 0.00291517 0)
(0.436639 0.00269459 0)
(0.432553 0.00250089 0)
(0.428758 0.00232962 0)
(0.425221 0.00217717 0)
(0.421915 0.00204064 0)
(0.418816 0.00191765 0)
(0.415903 0.00180627 0)
(0.41316 0.00170491 0)
(0.41057 0.00161223 0)
(0.408122 0.00152715 0)
(0.405803 0.00144873 0)
(0.403604 0.00137621 0)
(0.401515 0.00130891 0)
(0.399529 0.00124629 0)
(0.397639 0.00118783 0)
(0.395837 0.00113314 0)
(0.614574 0.00733248 0)
(0.607145 0.00667311 0)
(0.60036 0.00610604 0)
(0.594135 0.00561479 0)
(0.588398 0.00518619 0)
(0.58309 0.00480967 0)
(0.578162 0.00447671 0)
(0.57357 0.00418042 0)
(0.56928 0.00391518 0)
(0.565259 0.0036764 0)
(0.561483 0.00346034 0)
(0.557928 0.00326386 0)
(0.554574 0.00308439 0)
(0.551405 0.00291978 0)
(0.548405 0.0027682 0)
(0.545561 0.00262814 0)
(0.542861 0.00249829 0)
(0.540295 0.00237755 0)
(0.537854 0.00226495 0)
(0.535529 0.00215968 0)
(0.756296 0.0116222 0)
(0.747723 0.0105836 0)
(0.739872 0.00968755 0)
(0.732652 0.00890921 0)
(0.725988 0.00822873 0)
(0.719813 0.00763 0)
(0.714074 0.00709994 0)
(0.708724 0.00662787 0)
(0.703721 0.00620509 0)
(0.699032 0.00582441 0)
(0.694627 0.00547991 0)
(0.690479 0.00516669 0)
(0.686566 0.00488065 0)
(0.682869 0.00461836 0)
(0.679369 0.00437694 0)
(0.676051 0.00415394 0)
(0.672903 0.00394729 0)
(0.669911 0.00375522 0)
(0.667064 0.00357618 0)
(0.664354 0.00340885 0)
(0.880433 0.0163278 0)
(0.87142 0.0148924 0)
(0.863121 0.013648 0)
(0.855455 0.0125627 0)
(0.848354 0.0116108 0)
(0.841754 0.0107709 0)
(0.835605 0.0100256 0)
(0.82986 0.00936065 0)
(0.82448 0.00876428 0)
(0.819429 0.00822669 0)
(0.814679 0.00773978 0)
(0.810201 0.00729679 0)
(0.805974 0.00689204 0)
(0.801977 0.00652078 0)
(0.798192 0.00617898 0)
(0.794602 0.00586322 0)
(0.791194 0.00557058 0)
(0.787954 0.00529859 0)
(0.784872 0.00504505 0)
(0.781936 0.0048081 0)
(0.985807 0.0210452 0)
(0.977138 0.0192443 0)
(0.969089 0.0176731 0)
(0.961601 0.0162955 0)
(0.954622 0.0150815 0)
(0.948103 0.0140061 0)
(0.942001 0.0130486 0)
(0.936279 0.0121919 0)
(0.930902 0.0114216 0)
(0.925841 0.0107258 0)
(0.921069 0.0100946 0)
(0.916562 0.00951935 0)
(0.912299 0.00899316 0)
(0.908262 0.00851001 0)
(0.904433 0.00806481 0)
(0.900799 0.00765322 0)
(0.897344 0.00727154 0)
(0.894057 0.00691659 0)
(0.890928 0.00658559 0)
(0.887945 0.00627612 0)
(1.07192 0.0253458 0)
(1.06437 0.0232571 0)
(1.05727 0.0214209 0)
(1.05059 0.0198001 0)
(1.04431 0.0183634 0)
(1.0384 0.0170841 0)
(1.03282 0.01594 0)
(1.02756 0.0149123 0)
(1.02259 0.0139851 0)
(1.01789 0.013145 0)
(1.01344 0.0123807 0)
(1.00922 0.0116828 0)
(1.00522 0.011043 0)
(1.00142 0.0104546 0)
(0.997804 0.00991146 0)
(0.994367 0.00940868 0)
(0.991094 0.00894187 0)
(0.987975 0.00850728 0)
(0.985001 0.00810165 0)
(0.982162 0.00772208 0)
(1.13918 0.0288398 0)
(1.13341 0.0265748 0)
(1.12787 0.0245662 0)
(1.12257 0.0227794 0)
(1.11751 0.0211845 0)
(1.11268 0.0197556 0)
(1.10807 0.0184706 0)
(1.10369 0.0173106 0)
(1.09951 0.0162594 0)
(1.09553 0.0153033 0)
(1.09174 0.0144304 0)
(1.08812 0.0136308 0)
(1.08468 0.0128958 0)
(1.08139 0.012218 0)
(1.07825 0.0115911 0)
(1.07525 0.0110095 0)
(1.07239 0.0104686 0)
(1.06965 0.00996422 0)
(1.06704 0.00949273 0)
(1.06454 0.00905097 0)
(1.18894 0.0312328 0)
(1.1854 0.0289175 0)
(1.18186 0.0268446 0)
(1.17837 0.0249848 0)
(1.17494 0.0233117 0)
(1.17159 0.0218022 0)
(1.16833 0.0204361 0)
(1.16517 0.0191957 0)
(1.16212 0.0180659 0)
(1.15917 0.0170334 0)
(1.15633 0.0160867 0)
(1.1536 0.0152161 0)
(1.15097 0.014413 0)
(1.14844 0.0136701 0)
(1.14601 0.0129809 0)
(1.14368 0.0123399 0)
(1.14144 0.0117423 0)
(1.13929 0.0111838 0)
(1.13722 0.0106608 0)
(1.13524 0.0101698 0)
(1.22335 0.03236 0)
(1.22226 0.0301142 0)
(1.22096 0.0280837 0)
(1.21952 0.0262452 0)
(1.21797 0.0245777 0)
(1.21635 0.0230617 0)
(1.21469 0.0216801 0)
(1.21301 0.0204176 0)
(1.21132 0.0192609 0)
(1.20964 0.018198 0)
(1.20798 0.0172187 0)
(1.20635 0.016314 0)
(1.20475 0.015476 0)
(1.20318 0.0146978 0)
(1.20166 0.0139734 0)
(1.20018 0.0132975 0)
(1.19874 0.0126655 0)
(1.19734 0.0120733 0)
(1.19599 0.0115173 0)
(1.19468 0.0109942 0)
(1.24511 0.0321915 0)
(1.24643 0.0301133 0)
(1.24739 0.0282158 0)
(1.24805 0.0264821 0)
(1.24847 0.024896 0)
(1.24868 0.0234427 0)
(1.24874 0.0221085 0)
(1.24866 0.020881 0)
(1.24847 0.0197491 0)
(1.2482 0.0187029 0)
(1.24786 0.0177338 0)
(1.24747 0.0168339 0)
(1.24704 0.0159965 0)
(1.24657 0.0152154 0)
(1.24609 0.0144855 0)
(1.24559 0.013802 0)
(1.24508 0.0131607 0)
(1.24457 0.0125578 0)
(1.24406 0.0119902 0)
(1.24355 0.0114549 0)
(1.25708 0.0308128 0)
(1.26061 0.02897 0)
(1.26366 0.0272716 0)
(1.26632 0.025706 0)
(1.26862 0.0242617 0)
(1.27063 0.0229278 0)
(1.27238 0.0216941 0)
(1.2739 0.020551 0)
(1.27524 0.01949 0)
(1.27641 0.0185034 0)
(1.27744 0.0175841 0)
(1.27834 0.0167258 0)
(1.27914 0.0159232 0)
(1.27985 0.0151711 0)
(1.28047 0.0144651 0)
(1.28103 0.0138014 0)
(1.28153 0.0131763 0)
(1.28197 0.0125868 0)
(1.28237 0.0120299 0)
(1.28273 0.0115032 0)
(1.26204 0.0283888 0)
(1.26744 0.0268178 0)
(1.27231 0.0253576 0)
(1.27672 0.0240005 0)
(1.28072 0.0227386 0)
(1.28436 0.0215644 0)
(1.28768 0.0204703 0)
(1.29071 0.0194497 0)
(1.29349 0.0184961 0)
(1.29604 0.0176038 0)
(1.29839 0.0167674 0)
(1.30056 0.0159824 0)
(1.30257 0.0152443 0)
(1.30444 0.0145494 0)
(1.30617 0.0138941 0)
(1.30779 0.0132755 0)
(1.30931 0.0126906 0)
(1.31072 0.0121369 0)
(1.31205 0.0116123 0)
(1.3133 0.0111145 0)
(1.26244 0.0251229 0)
(1.26931 0.0238339 0)
(1.27566 0.0226271 0)
(1.28152 0.0214974 0)
(1.28695 0.0204395 0)
(1.29199 0.0194481 0)
(1.29667 0.0185182 0)
(1.30103 0.0176449 0)
(1.3051 0.0168239 0)
(1.3089 0.0160509 0)
(1.31246 0.0153222 0)
(1.31579 0.0146345 0)
(1.31893 0.0139846 0)
(1.32188 0.0133698 0)
(1.32466 0.0127874 0)
(1.32729 0.0122352 0)
(1.32978 0.0117112 0)
(1.33213 0.0112133 0)
(1.33436 0.0107398 0)
(1.33647 0.0102892 0)
(1.26027 0.0212221 0)
(1.26824 0.0202071 0)
(1.27571 0.0192512 0)
(1.2827 0.018351 0)
(1.28927 0.0175029 0)
(1.29543 0.0167032 0)
(1.30123 0.0159486 0)
(1.30669 0.0152356 0)
(1.31184 0.0145614 0)
(1.31671 0.0139231 0)
(1.32131 0.0133181 0)
(1.32566 0.0127442 0)
(1.32978 0.0121993 0)
(1.3337 0.0116813 0)
(1.33741 0.0111886 0)
(1.34094 0.0107196 0)
(1.3443 0.0102728 0)
(1.3475 0.00984679 0)
(1.35054 0.00944044 0)
(1.35345 0.00905252 0)
(1.25704 0.0168724 0)
(1.26579 0.0161134 0)
(1.27405 0.0153954 0)
(1.28187 0.0147162 0)
(1.28928 0.0140731 0)
(1.2963 0.0134636 0)
(1.30297 0.0128855 0)
(1.30929 0.0123366 0)
(1.3153 0.0118148 0)
(1.32102 0.0113185 0)
(1.32646 0.0108458 0)
(1.33164 0.0103953 0)
(1.33657 0.00996575 0)
(1.34128 0.00955577 0)
(1.34578 0.0091643 0)
(1.35006 0.00879027 0)
(1.35416 0.00843277 0)
(1.35808 0.00809086 0)
(1.36182 0.00776378 0)
(1.3654 0.00745069 0)
(1.25384 0.0122258 0)
(1.26308 0.0117021 0)
(1.27188 0.0112054 0)
(1.28027 0.0107339 0)
(1.28826 0.0102858 0)
(1.29589 0.00985953 0)
(1.30317 0.00945356 0)
(1.31012 0.0090665 0)
(1.31676 0.00869713 0)
(1.3231 0.00834432 0)
(1.32917 0.00800709 0)
(1.33498 0.00768452 0)
(1.34053 0.00737579 0)
(1.34585 0.00708017 0)
(1.35094 0.00679699 0)
(1.35582 0.00652565 0)
(1.36049 0.00626558 0)
(1.36497 0.00601622 0)
(1.36926 0.0057771 0)
(1.37337 0.0055477 0)
(1.25136 0.00739844 0)
(1.26089 0.00709224 0)
(1.27001 0.00680127 0)
(1.27874 0.00652449 0)
(1.2871 0.00626084 0)
(1.29511 0.00600939 0)
(1.30278 0.00576924 0)
(1.31014 0.00553964 0)
(1.31719 0.00531991 0)
(1.32395 0.00510946 0)
(1.33043 0.00490775 0)
(1.33665 0.00471432 0)
(1.34262 0.00452871 0)
(1.34835 0.00435054 0)
(1.35385 0.0041795 0)
(1.35912 0.00401528 0)
(1.36419 0.00385757 0)
(1.36905 0.00370607 0)
(1.37371 0.00356055 0)
(1.37819 0.00342074 0)
(1.25003 0.00247598 0)
(1.25969 0.0023753 0)
(1.26896 0.00227955 0)
(1.27785 0.00218838 0)
(1.28638 0.00210144 0)
(1.29457 0.00201841 0)
(1.30244 0.00193901 0)
(1.30999 0.00186298 0)
(1.31724 0.00179012 0)
(1.32421 0.00172023 0)
(1.3309 0.00165316 0)
(1.33733 0.00158875 0)
(1.3435 0.00152687 0)
(1.34943 0.00146739 0)
(1.35513 0.00141023 0)
(1.36061 0.00135529 0)
(1.36587 0.00130249 0)
(1.37093 0.00125171 0)
(1.37579 0.00120289 0)
(1.38045 0.00115596 0)
)
;

boundaryField
{
    fixedWalls
    {
        type            noSlip;
    }
    inlet
    {
        type            fixedValue;
        value           nonuniform 0();
    }
    outlet
    {
        type            zeroGradient;
    }
    frontAndBack
    {
        type            empty;
    }
    procBoundary1to0
    {
        type            processor;
        value           nonuniform List<vector> 
20
(
(0.100398 0.000231574 0)
(0.288528 0.00148182 0)
(0.463119 0.00420165 0)
(0.622751 0.00810494 0)
(0.765696 0.0128339 0)
(0.890255 0.0179931 0)
(0.995161 0.0231195 0)
(1.07995 0.0277307 0)
(1.14517 0.0314008 0)
(1.19244 0.0338233 0)
(1.22418 0.0348456 0)
(1.24334 0.0344673 0)
(1.25301 0.0328111 0)
(1.25606 0.0300776 0)
(1.25499 0.0264984 0)
(1.25175 0.0222993 0)
(1.2478 0.0176747 0)
(1.24413 0.012778 0)
(1.2414 0.0077209 0)
(1.23994 0.00258195 0)
)
;
    }
    procBoundary1to2
    {
        type            processor;
        value           nonuniform List<vector> 
20
(
(0.0848258 6.42611e-05 0)
(0.244531 0.000391034 0)
(0.394119 0.00108189 0)
(0.533313 0.00206106 0)
(0.661771 0.00325214 0)
(0.779137 0.00458618 0)
(0.885101 0.00598617 0)
(0.979453 0.00736616 0)
(1.06214 0.00863622 0)
(1.13334 0.0097081 0)
(1.19342 0.0105013 0)
(1.24304 0.0109493 0)
(1.28305 0.0110044 0)
(1.31448 0.0106416 0)
(1.33848 0.00986004 0)
(1.35622 0.00868201 0)
(1.36883 0.00715091 0)
(1.37732 0.0053276 0)
(1.3825 0.0032864 0)
(1.38494 0.00111083 0)
)
;
    }
    procBoundary1to5
    {
        type            processor;
        value           nonuniform List<vector> 
20
(
(1.25003 -0.00247589 0)
(1.25969 -0.0023752 0)
(1.26896 -0.00227944 0)
(1.27785 -0.00218826 0)
(1.28638 -0.00210131 0)
(1.29457 -0.00201827 0)
(1.30244 -0.00193886 0)
(1.30999 -0.00186281 0)
(1.31724 -0.00178993 0)
(1.32421 -0.00172002 0)
(1.3309 -0.00165292 0)
(1.33733 -0.00158849 0)
(1.3435 -0.00152658 0)
(1.34943 -0.00146708 0)
(1.35513 -0.00140988 0)
(1.36061 -0.00135489 0)
(1.36587 -0.00130204 0)
(1.37093 -0.0012512 0)
(1.37579 -0.00120231 0)
(1.38045 -0.00115531 0)
)
;
    }
}


// ************************************************************************* //
