/*--------------------------------*- C++ -*----------------------------------*\
| =========                 |                                                 |
| \\      /  F ield         | OpenFOAM: The Open Source CFD Toolbox           |
|  \\    /   O peration     | Version:                                        |
|   \\  /    A nd           | Website:  www.openfoam.com                      |
|    \\/     M anipulation  |                                                 |
\*---------------------------------------------------------------------------*/
FoamFile
{
    version     2.0;
    format      ascii;
    class       surfaceScalarField;
    location    "93.4";
    object      phi;
}
// * * * * * * * * * * * * * * * * * * * * * * * * * * * * * * * * * * * * * //

dimensions      [0 3 -1 0 0 0 0];
oriented        oriented;


internalField   nonuniform List<scalar> 
2257
(
0.0733347
0.0316167
0.0667141
0.0322949
0.058695
0.0347608
0.0491642
0.0372885
0.0389674
0.0391482
0.0390324
0.0826863
0.0362013
0.0763678
0.0386135
0.0690553
0.0420733
0.0609191
0.0454247
0.0515883
0.048479
0.0407329
0.0498879
0.0299999
0.0489927
0.0196141
0.0460985
0.0123166
0.0410113
0.0346476
0.0943305
0.0370116
0.0918526
0.0410914
0.087344
0.0465819
0.0804008
0.0523679
0.0717748
0.057105
0.0615598
0.0601029
0.0494461
0.0611064
0.0360095
0.0595351
0.0214232
0.0555976
0.0468564
0.00921439
0.0978167
0.0338081
0.0998465
0.0390616
0.0998571
0.0465713
0.0978429
0.0543821
0.0929396
0.0620083
0.085766
0.0672765
0.0758921
0.0709803
0.0649391
0.070488
0.050557
0.0699797
0.0623537
0.0350598
0.0992161
0.0293874
0.10204
0.0362375
0.103633
0.0449785
0.104181
0.053834
0.102025
0.0641645
0.0988527
0.0704486
0.0928304
0.0770026
0.085719
0.0775995
0.0764437
0.079255
0.074334
0.0644634
0.0728884
0.0261997
0.0754626
0.0336633
0.0782536
0.0421875
0.0810256
0.0510621
0.0835514
0.0616387
0.0851689
0.0688311
0.0847837
0.0773878
0.084194
0.0781891
0.0819183
0.0815307
0.0794745
0.0767777
0.0130849
0.0265615
0.0146643
0.0320839
0.017804
0.0390477
0.0224659
0.0464002
0.0294496
0.054655
0.0360821
0.0621986
0.0427052
0.0707648
0.0481154
0.0727789
0.0514731
0.078173
0.0769841
0.0539635
-0.0429355
0.0310685
-0.044918
0.0340664
-0.0441229
0.0382526
-0.0411745
0.0434518
-0.0353632
0.0488436
-0.0274241
0.0542595
-0.0167422
0.0600829
-0.00722095
0.0632576
0.00344576
0.0675063
0.0682996
0.0121302
-0.082716
0.0344841
-0.084836
0.0361864
-0.0849829
0.0383995
-0.0833485
0.0418175
-0.0793956
0.0448908
-0.0731144
0.0479782
-0.0637235
0.050692
-0.0528208
0.0523549
-0.0393566
0.0540422
0.0551466
-0.0262036
-0.092601
0.0345148
-0.0919117
0.0354971
-0.0896989
0.0361867
-0.0864331
0.0385516
-0.0826139
0.0410716
-0.0786101
0.0439744
-0.0745194
0.0466012
-0.0700686
0.0479041
-0.0642782
0.0482519
0.0479409
-0.0570725
-0.108807
0.0311666
-0.104641
0.0313312
-0.0992481
0.0307942
-0.0921978
0.0315013
-0.0838125
0.0326863
-0.0746176
0.0347796
-0.0657142
0.0376978
-0.0581627
0.0403526
-0.0527493
0.0428384
0.0441268
-0.0489352
-0.0989829
0.02854
-0.0967201
0.0290684
-0.0947416
0.0288157
-0.0922376
0.0289974
-0.0886033
0.0290519
-0.0828185
0.0289949
-0.0751697
0.0300489
-0.0656379
0.0308208
-0.0551821
0.0323827
0.0343525
-0.0454078
-0.0581704
0.0314342
-0.0604619
0.03136
-0.062517
0.0308707
-0.0646428
0.0311231
-0.0669726
0.0313818
-0.068803
0.0308253
-0.070074
0.0313199
-0.0696111
0.030358
-0.0671037
0.0298752
0.0292971
-0.0620482
-0.0100406
0.0364028
-0.0151596
0.036479
-0.0200257
0.0357368
-0.0251967
0.0362942
-0.0303355
0.0365205
-0.0363337
0.0368235
-0.0430592
0.0380454
-0.0504538
0.0377525
-0.0589904
0.0384119
0.036691
-0.0663843
0.0644896
0.0383406
0.062969
0.0379995
0.0608405
0.0378654
0.0583923
0.0387424
0.0550053
0.0399075
0.0502177
0.0416111
0.044461
0.0438021
0.037041
0.0451725
0.0282839
0.047169
0.0473638
0.0176111
0.0970705
0.0383347
0.0975361
0.0375338
0.0974084
0.0379932
0.0979577
0.038193
0.0983241
0.0395412
0.0991767
0.0407585
0.0999701
0.0430087
0.100082
0.0450606
0.0994894
0.0477617
0.0497729
0.0970802
0.127354
0.0387708
0.125836
0.0390523
0.123511
0.0403178
0.120755
0.0409486
0.117661
0.0426357
0.114736
0.0436834
0.111839
0.045906
0.109297
0.0476018
0.107225
0.0498339
0.051245
0.105753
0.11329
0.0416621
0.109881
0.0424623
0.106508
0.04369
0.102782
0.0446755
0.0993839
0.0460334
0.0957516
0.0473158
0.0923754
0.0492821
0.0888049
0.0511723
0.0855019
0.0531369
0.054091
0.082656
0.00573501
0.0446628
0.00268455
0.0455127
0.000257032
0.0461175
-0.00194861
0.0468811
-0.00324051
0.0473253
-0.0042034
0.0482786
-0.00398105
0.0490597
-0.00341093
0.0506022
-0.00233172
0.0520576
0.0536394
-0.00188019
-0.0562726
0.0478049
-0.0598177
0.0490579
-0.0632419
0.0495416
-0.0665972
0.0502365
-0.069351
0.0500791
-0.0714857
0.0504133
-0.0725812
0.0501553
-0.0725467
0.0505677
-0.0707907
0.0503016
0.050785
-0.0679362
-0.129236
0.0472904
-0.128285
0.0481066
-0.126997
0.0482535
-0.125526
0.0487653
-0.123914
0.0484676
-0.122037
0.048536
-0.119685
0.0478029
-0.116668
0.0475512
-0.113045
0.0466782
0.04619
-0.10845
-0.177567
0.047379
-0.176718
0.0472576
-0.175228
0.0467627
-0.173142
0.0466801
-0.170841
0.0461659
-0.168349
0.0460439
-0.165885
0.0453398
-0.163206
0.0448719
-0.16061
0.0440817
0.0433423
-0.157762
-0.0481102
0.0490458
-0.0495243
0.0486716
-0.0508843
0.0481227
-0.051819
0.0476148
-0.0526352
0.0469821
-0.0531127
0.0465215
-0.0535375
0.0457645
-0.053757
0.0450915
-0.0540198
0.0443445
0.043361
-0.0540385
0.050732
0.051674
0.0485345
0.0508691
0.0465473
0.0501099
0.0451378
0.0490243
0.0441056
0.0480143
0.0438339
0.0467932
0.0441313
0.0454671
0.0451729
0.0440499
0.0467087
0.0428088
0.0414575
0.0486121
0.112503
0.0530893
0.111071
0.0523017
0.109538
0.0516422
0.108028
0.0505351
0.106382
0.0496597
0.104767
0.0484081
0.10279
0.047444
0.10074
0.0461006
0.0982565
0.045292
0.0442174
0.0954965
0.205983
0.0537506
0.204687
0.0535972
0.20285
0.05348
0.200372
0.0530128
0.197344
0.0526874
0.193677
0.0520758
0.189391
0.0517297
0.184449
0.0510425
0.178926
0.0508147
0.0503289
0.172815
0.0407412
0.0541707
0.0400805
0.054258
0.0392609
0.0542995
0.0379068
0.0543669
0.0361562
0.054438
0.0338352
0.0543968
0.0312637
0.0543012
0.0281377
0.0541685
0.0248476
0.0541048
0.0539931
0.0211835
-0.205304
0.0521626
-0.203344
0.0522979
-0.201247
0.0522027
-0.199094
0.052214
-0.196694
0.052038
-0.194289
0.0519909
-0.191765
0.051778
-0.189307
0.0517098
-0.186695
0.0514934
0.0513806
-0.184083
-0.112979
0.0499928
-0.110657
0.0499759
-0.108157
0.0497024
-0.105441
0.0494987
-0.102499
0.0490955
-0.0992847
0.0487766
-0.0957773
0.0482706
-0.0919559
0.0478884
-0.0877963
0.0473338
0.0468732
-0.0832889
0.022523
0.0248344
0.0271265
0.029444
0.0317398
0.0340781
0.0364245
0.0388414
0.0412713
0.0437799
0.0102841
0.0396259
0.012514
0.0488551
0.01284
0.0583261
0.0116708
0.0648642
0.0100686
0.0700647
0.008127
0.0754441
0.00658842
0.0809555
0.00506459
0.0871556
0.00390402
0.093582
0.00282516
0.100593
0.00211069
0.107997
0.00150166
0.116002
0.00111103
0.124478
0.000788225
0.133502
0.000494367
0.143041
0.000238868
0.1531
5.95092e-05
0.163749
-2.15092e-05
0.175069
-4.37371e-05
0.187157
-3.66441e-05
0.200063
-2.82651e-05
0.213845
-1.81513e-05
0.228559
-2.03131e-06
0.244273
1.80787e-05
0.261069
3.15991e-05
0.279036
3.19809e-05
0.298258
2.02454e-05
0.318843
0.340897
0.00066079
0.040315
-0.00695247
0.0420781
-0.0110892
0.0437626
-0.0106925
0.0484583
-0.00788914
0.0555228
-0.00604835
0.0630234
-0.00461679
0.0686331
-0.00345766
0.074285
-0.00253992
0.0800378
-0.00210829
0.086724
-0.00195777
0.0934315
-0.00194651
0.100581
-0.00201063
0.108061
-0.00196673
0.115958
-0.0018382
0.124349
-0.00160763
0.133271
-0.001308
0.142741
-0.0010135
0.152806
-0.000756025
0.163491
-0.000571339
0.174885
-0.000419983
0.187006
-0.000292013
0.199935
-0.00017609
0.213729
-8.44307e-05
0.228467
-2.50003e-05
0.244214
4.21097e-06
0.26104
1.60473e-05
0.279024
1.67063e-05
0.298257
1.14173e-05
0.318849
0.340909
0.0273578
0.048017
0.019225
0.0502109
0.0124611
0.0505265
0.00903305
0.0518864
0.00758448
0.0569713
0.0072864
0.0633215
0.00689191
0.0690276
0.00668602
0.0744908
0.00563789
0.0810859
0.00477253
0.0875893
0.00361642
0.0945876
0.00260576
0.101592
0.00176905
0.108898
0.00114217
0.116585
0.000721335
0.12477
0.000461592
0.133531
0.000249462
0.142953
9.55167e-05
0.15296
-1.92628e-05
0.163606
-5.74354e-05
0.174923
-6.89615e-05
0.187017
-6.5303e-05
0.199931
-5.93389e-05
0.213723
-4.36735e-05
0.228452
-1.59069e-05
0.244186
1.39628e-05
0.26101
3.24686e-05
0.279006
3.36669e-05
0.298256
2.1013e-05
0.318861
0.34093
0.0567889
0.0556915
0.0471326
0.0598672
0.036045
0.0616141
0.0249008
0.0630306
0.0156025
0.0662696
0.0108195
0.0681045
0.00884962
0.0709975
0.00739915
0.0759413
0.00579575
0.0826893
0.00432392
0.0890612
0.00304506
0.0958665
0.00193793
0.102699
0.000976384
0.10986
0.000257192
0.117304
-0.000192331
0.125219
-0.000465506
0.133804
-0.000514584
0.143002
-0.000506501
0.152952
-0.000438471
0.163538
-0.000376624
0.174861
-0.000291183
0.186932
-0.000195432
0.199835
-0.000103058
0.213631
-3.33315e-05
0.228382
5.07237e-06
0.244148
2.09967e-05
0.260994
2.59961e-05
0.279001
2.40451e-05
0.298258
1.56985e-05
0.31887
0.340945
0.0698107
0.0626585
0.0613212
0.0683567
0.0508459
0.0720893
0.0382271
0.0756494
0.0264317
0.078065
0.0181651
0.0763711
0.0125079
0.0766547
0.00791053
0.0805387
0.00541889
0.0851809
0.00327558
0.0912045
0.0018952
0.0972468
0.000881311
0.103713
0.000182484
0.110558
-0.000236184
0.117723
-0.00052428
0.125508
-0.000557962
0.133838
-0.000546914
0.142991
-0.000434561
0.152839
-0.000338753
0.163442
-0.000237835
0.17476
-0.000172372
0.186866
-0.00012984
0.199793
-9.37989e-05
0.213595
-5.17371e-05
0.22834
-4.23187e-06
0.2441
3.5313e-05
0.260954
5.29322e-05
0.278983
4.79314e-05
0.298263
2.78784e-05
0.31889
0.340973
0.0475347
0.0690874
0.0408293
0.0750621
0.0340591
0.0788595
0.0285143
0.0811942
0.0261369
0.0804425
0.0236871
0.0788209
0.0201604
0.0801813
0.0160268
0.0846724
0.0123586
0.0888491
0.00954104
0.094022
0.00750109
0.0992868
0.0057386
0.105475
0.00437783
0.111919
0.00316986
0.118931
0.00224053
0.126437
0.00142984
0.134649
0.000867436
0.143554
0.000436404
0.15327
0.000182464
0.163696
4.16255e-05
0.174901
5.31247e-06
0.186903
2.77591e-05
0.19977
6.14603e-05
0.213561
8.1362e-05
0.22832
8.21557e-05
0.244099
7.34144e-05
0.260963
6.44179e-05
0.278992
5.18416e-05
0.298275
3.07468e-05
0.318911
0.341004
0.00899775
0.0722198
0.0071923
0.0768676
0.00581038
0.0802414
0.005278
0.0817265
0.00501544
0.0807051
0.00281098
0.0810254
0.000873211
0.0821191
-0.000502953
0.0860485
-0.00223463
0.0905808
-0.00285521
0.0946426
-0.00339211
0.0998237
-0.00341289
0.105496
-0.0032229
0.111729
-0.00291531
0.118623
-0.0026041
0.126126
-0.00217566
0.13422
-0.00173295
0.143111
-0.00124605
0.152783
-0.000844182
0.163294
-0.000538935
0.174596
-0.000340147
0.186704
-0.00021239
0.199642
-0.000112653
0.213461
-2.44423e-05
0.228232
4.80635e-05
0.244027
9.04814e-05
0.260921
9.78032e-05
0.278985
7.80572e-05
0.298295
4.27191e-05
0.318946
0.341047
-0.0200608
0.066077
-0.0119324
0.0687392
-0.00493745
0.0732465
0.00139868
0.0753904
0.0047923
0.0773114
0.0053343
0.0804834
0.00416025
0.0832931
0.00386317
0.0863456
0.00399088
0.090453
0.00418316
0.0944503
0.00420245
0.0998044
0.00428111
0.105418
0.00405119
0.111959
0.00368007
0.118994
0.00315501
0.126651
0.00246542
0.13491
0.0017935
0.143783
0.00119187
0.153385
0.00075573
0.16373
0.000488478
0.174863
0.000350111
0.186842
0.000290548
0.199702
0.000249437
0.213502
0.000208138
0.228273
0.000169269
0.244066
0.000139854
0.26095
0.000117903
0.279007
9.20156e-05
0.298321
5.26051e-05
0.318986
0.341099
-0.0500882
0.0590927
-0.0425299
0.0611809
-0.0358667
0.0665832
-0.0276447
0.0671685
-0.0212885
0.0709553
-0.0152317
0.0744265
-0.0132525
0.0813139
-0.0111164
0.0842096
-0.0106002
0.0899368
-0.00976405
0.0936142
-0.00901784
0.0990582
-0.00825988
0.10466
-0.00723183
0.110931
-0.00604509
0.117807
-0.00485813
0.125464
-0.00374782
0.1338
-0.00274805
0.142783
-0.00191837
0.152555
-0.00125636
0.163068
-0.000794686
0.174401
-0.000472257
0.18652
-0.000253579
0.199483
-8.41086e-05
0.213333
4.72056e-05
0.228142
0.000130986
0.243982
0.000163027
0.260918
0.000150978
0.279019
0.00011199
0.29836
5.94307e-05
0.319038
0.341159
-0.0430227
0.0531802
-0.037859
0.0560171
-0.0340652
0.0627894
-0.0299594
0.0630627
-0.0282548
0.0692507
-0.0243134
0.0704852
-0.0198538
0.0768543
-0.0144333
0.0787891
-0.00928239
0.0847858
-0.00571183
0.0900436
-0.00276514
0.0961115
-0.00072275
0.102617
0.000531521
0.109677
0.00114936
0.11719
0.00135835
0.125255
0.00135566
0.133802
0.00115727
0.142981
0.000948461
0.152764
0.000733987
0.163283
0.000590971
0.174544
0.000487252
0.186624
0.000411815
0.199559
0.000340043
0.213405
0.000273653
0.228208
0.000226222
0.244029
0.000197438
0.260947
0.000172795
0.279043
0.000135134
0.298398
7.60851e-05
0.319097
0.341235
-0.0370219
0.0447943
-0.0300832
0.0490784
-0.0229172
0.0556234
-0.0177615
0.0579069
-0.0157307
0.06722
-0.0155468
0.0703012
-0.0172604
0.078568
-0.0169411
0.0784697
-0.0154581
0.0833029
-0.0137544
0.0883399
-0.0116451
0.0940022
-0.00955735
0.100529
-0.00779251
0.107912
-0.00596023
0.115357
-0.00437974
0.123674
-0.00311153
0.132534
-0.00210946
0.141979
-0.00142517
0.15208
-0.000913661
0.162771
-0.000554526
0.174185
-0.000281555
0.186351
-7.14992e-05
0.199349
9.42731e-05
0.213239
0.00020993
0.228092
0.000262209
0.243977
0.000257427
0.260952
0.000214654
0.279086
0.000152379
0.29846
8.02035e-05
0.319169
0.341315
-0.0561217
0.0388678
-0.0510107
0.0439674
-0.0442604
0.0488731
-0.0387865
0.0524331
-0.0305371
0.0589705
-0.0230019
0.062766
-0.016629
0.072195
-0.0121697
0.0740105
-0.00962209
0.0807553
-0.00718978
0.0859076
-0.00527567
0.0920881
-0.00429777
0.0995516
-0.0030603
0.106675
-0.0024596
0.114757
-0.00185957
0.123074
-0.00128064
0.131955
-0.000783288
0.141482
-0.000325556
0.151622
-3.79294e-05
0.162484
0.000146788
0.174
0.000229719
0.186268
0.000253933
0.199325
0.000247245
0.213246
0.000234507
0.228105
0.000235087
0.243977
0.000238402
0.260948
0.000223034
0.279101
0.00017618
0.298507
9.84582e-05
0.319247
0.341413
-0.0670511
0.0395346
-0.0677605
0.0446768
-0.0686645
0.0497771
-0.070601
0.0543696
-0.0688263
0.0571957
-0.0637378
0.0576776
-0.0506941
0.0591512
-0.0368296
0.060146
-0.0232581
0.0671838
-0.0137906
0.0764401
-0.00729852
0.085596
-0.0026778
0.0949309
-0.000251148
0.104248
0.00117215
0.113333
0.00167707
0.122569
0.00158231
0.13205
0.0013147
0.14175
0.000920672
0.152016
0.000656052
0.162748
0.000487252
0.174169
0.00042773
0.186327
0.000430603
0.199322
0.000449215
0.213227
0.000452664
0.228102
0.000418552
0.244011
0.000354502
0.261012
0.000278041
0.279178
0.000194819
0.29859
0.000103365
0.319339
0.341517
0.0157895
0.0413561
0.0146853
0.045781
0.0132244
0.051238
0.0113486
0.0562454
0.00794988
0.0605944
0.00351017
0.0621173
0.00049097
0.0621704
-0.00325398
0.0638909
-0.00588539
0.0698152
-0.00700686
0.0775615
-0.00726418
0.0858533
-0.00672579
0.0943925
-0.00615374
0.103676
-0.00522119
0.112401
-0.0043688
0.121717
-0.00332631
0.131007
-0.00246773
0.140891
-0.00164919
0.151198
-0.00104519
0.162144
-0.000593287
0.173717
-0.000285407
0.186019
-8.17312e-05
0.199118
6.46135e-05
0.213081
0.000174921
0.227991
0.000257268
0.243928
0.000299379
0.26097
0.000286678
0.279191
0.000222703
0.298654
0.000122015
0.319439
0.341639
0.0997401
0.0386962
0.10249
0.0430313
0.105462
0.0482662
0.10809
0.0536175
0.108833
0.0598507
0.105126
0.0658245
0.0944246
0.0728721
0.0782302
0.0800853
0.0601222
0.0879233
0.0457459
0.0919379
0.0344623
0.0971369
0.0256532
0.103202
0.0193193
0.11001
0.0140674
0.117653
0.0102247
0.12556
0.00718301
0.134049
0.00504775
0.143026
0.00348903
0.152756
0.00244356
0.16319
0.00175145
0.17441
0.00131323
0.186458
0.00104649
0.199385
0.000867686
0.213259
0.000727591
0.228132
0.000602361
0.244054
0.000487174
0.261085
0.000382059
0.279296
0.000272869
0.298763
0.000146625
0.319566
0.341785
0.102112
0.0423373
0.0971705
0.0479727
0.0908137
0.054623
0.0825813
0.0618499
0.0727951
0.0696369
0.0601246
0.078495
0.0460567
0.0869399
0.032171
0.0939709
0.0213867
0.0987076
0.0125251
0.100799
0.00658572
0.103076
0.00190589
0.107881
-0.00101974
0.112935
-0.00235163
0.118985
-0.00278011
0.125988
-0.00262369
0.133893
-0.00222916
0.142632
-0.00175537
0.152282
-0.00125276
0.162687
-0.000783674
0.17394
-0.00037106
0.186045
-4.33683e-05
0.199057
0.000207941
0.213008
0.000387185
0.227952
0.000486886
0.243954
0.00050451
0.261068
0.000444157
0.279356
0.000325927
0.298881
0.000173111
0.319718
0.341959
0.0742233
0.05077
0.0644036
0.0577924
0.0535873
0.0654393
0.0424864
0.0729509
0.0316305
0.0804927
0.0228043
0.0873212
0.017838
0.0919063
0.0151727
0.0966363
0.015791
0.0980893
0.0141096
0.102481
0.0131288
0.104057
0.0114548
0.109555
0.00941535
0.114975
0.00748831
0.120912
0.00566756
0.127809
0.00428672
0.135274
0.00318911
0.143729
0.00249608
0.152976
0.00198193
0.163201
0.00163078
0.174292
0.00136943
0.186306
0.00118995
0.199236
0.00105124
0.213147
0.000925957
0.228078
0.000809999
0.24407
0.00069631
0.261182
0.000571045
0.279481
0.000418821
0.299033
0.000226486
0.319911
0.342185
-0.0070308
0.0559206
-0.0113429
0.0621045
-0.0147015
0.068798
-0.0168473
0.0750967
-0.0175524
0.0811978
-0.0162328
0.0860016
-0.0142776
0.0899511
-0.0115361
0.0938948
-0.0089081
0.0954613
-0.00680735
0.10038
-0.00668267
0.103932
-0.00481306
0.107686
-0.00403776
0.114199
-0.00285851
0.119732
-0.00188432
0.126835
-0.00121398
0.134603
-0.000518556
0.143034
-0.000109559
0.152567
0.000285153
0.162807
0.000576836
0.174
0.000820312
0.186063
0.000987311
0.19907
0.00108409
0.21305
0.00111482
0.228047
0.00106821
0.244116
0.00094299
0.261307
0.000756899
0.279667
0.00052967
0.299261
0.000275327
0.320165
0.34246
-0.0679388
0.0559232
-0.0668794
0.0610451
-0.0643845
0.066303
-0.0607654
0.0714776
-0.0559842
0.0764165
-0.0508939
0.0809113
-0.0458231
0.0848803
-0.0392902
0.0873619
-0.0354249
0.091596
-0.0283369
0.0932921
-0.0255338
0.101129
-0.0215443
0.103696
-0.0173045
0.10996
-0.0134271
0.115855
-0.010045
0.123452
-0.0069492
0.131507
-0.00458005
0.140665
-0.00264694
0.150633
-0.00123925
0.161399
-0.000216578
0.172977
0.000476726
0.18537
0.000914896
0.198631
0.00115403
0.212811
0.00123883
0.227962
0.00121474
0.24414
0.00111025
0.261411
0.000930636
0.279847
0.000678125
0.299513
0.000362424
0.320481
0.342823
-0.104892
0.0523652
-0.0999684
0.0561217
-0.0935788
0.0599134
-0.0858172
0.063716
-0.0767442
0.0673435
-0.0665685
0.0707356
-0.0554075
0.0737192
-0.0419774
0.0739318
-0.0308169
0.0804355
-0.0186109
0.0810861
-0.00973667
0.0922551
-0.00332151
0.0972812
0.00125159
0.105387
0.00361063
0.113496
0.00468402
0.122379
0.0047805
0.131411
0.0045404
0.140905
0.0041617
0.151012
0.00376951
0.161791
0.00340911
0.173338
0.00307344
0.185705
0.0027702
0.198935
0.00249173
0.213089
0.00221581
0.228238
0.00191908
0.244437
0.00158905
0.261741
0.00123165
0.280204
0.000850636
0.299894
0.000441398
0.32089
0.343264
-0.152165
0.0467679
-0.145975
0.0499325
-0.139258
0.0531956
-0.131397
0.0558555
-0.122908
0.0588543
-0.112861
0.0606886
-0.102294
0.0631527
-0.0906918
0.0623293
-0.077563
0.0673067
-0.064694
0.0682172
-0.0505789
0.07814
-0.0394161
0.0861184
-0.0304671
0.0964375
-0.0223178
0.105347
-0.01555
0.115611
-0.0100778
0.125939
-0.00593552
0.136763
-0.00297518
0.148052
-0.000930103
0.159746
0.000447013
0.17196
0.00135049
0.184802
0.00188616
0.198399
0.00213528
0.21284
0.00216963
0.228204
0.00204476
0.244562
0.00180139
0.261985
0.00145728
0.280548
0.0010279
0.300324
0.000536995
0.321381
0.343801
-0.048155
0.0408844
-0.0413183
0.0430958
-0.0337866
0.0456639
-0.0252029
0.0472718
-0.0157221
0.0493735
-0.00516708
0.0501336
0.00554256
0.0524431
0.0138798
0.053992
0.021237
0.0599494
0.0243922
0.065062
0.0255515
0.0769807
0.0229396
0.0887303
0.0203912
0.0989859
0.0167378
0.109
0.0135821
0.118767
0.0108004
0.12872
0.00857021
0.138993
0.00700987
0.149612
0.00592713
0.160829
0.00517218
0.172715
0.00458105
0.185393
0.00408655
0.198893
0.00364318
0.213284
0.00320398
0.228643
0.00275229
0.245014
0.00227599
0.262461
0.00176933
0.281055
0.00122753
0.300865
0.00063925
0.321969
0.34444
0.0541309
0.0353656
0.0601056
0.0371211
0.0664733
0.0392962
0.0724884
0.0412567
0.0780891
0.0437728
0.0821753
0.0460473
0.0847448
0.0498736
0.0833351
0.0554017
0.078603
0.0646815
0.0683464
0.0753186
0.0568318
0.0884953
0.0440704
0.101492
0.0331445
0.109912
0.0245288
0.117616
0.0184267
0.124869
0.0136836
0.133464
0.0108314
0.141845
0.00872696
0.151717
0.00733049
0.162225
0.00633611
0.17371
0.0055977
0.186131
0.0050013
0.19949
0.0044476
0.213837
0.00390524
0.229185
0.00334993
0.245569
0.00275781
0.263053
0.00212395
0.281689
0.00145185
0.301538
0.000744926
0.322676
0.345185
0.0939856
0.0368765
0.0915873
0.0395194
0.0877558
0.0431277
0.0815078
0.0475047
0.0726058
0.0526748
0.0606469
0.0580063
0.0464741
0.0640464
0.0314275
0.0704484
0.0182935
0.0778154
0.00712999
0.0864822
0.00196443
0.0936609
-0.00107692
0.104533
-0.00253254
0.111367
-0.00190413
0.116987
-0.00126376
0.124229
0.000458824
0.131741
0.00173007
0.140574
0.00293447
0.150512
0.00381514
0.161344
0.00434399
0.173181
0.0045957
0.18588
0.00459058
0.199495
0.00438757
0.21404
0.00403173
0.229541
0.00354813
0.246053
0.00297336
0.263628
0.00232699
0.282335
0.00161345
0.302251
0.000836936
0.323453
0.346022
0.164806
0.0448852
0.15544
0.0488851
0.144676
0.0538921
0.132579
0.0596014
0.119229
0.0660245
0.104594
0.0726412
0.0891127
0.0795281
0.0733346
0.0862265
0.0591075
0.0920425
0.0468941
0.0986956
0.0392562
0.101299
0.0352387
0.10855
0.0319694
0.114637
0.0289399
0.120017
0.0249893
0.128179
0.0213515
0.135379
0.0177921
0.144133
0.0149293
0.153375
0.012547
0.163727
0.0106656
0.175062
0.00913887
0.187406
0.00784465
0.200789
0.0067184
0.215167
0.00569092
0.230569
0.00472243
0.247021
0.00378594
0.264564
0.00286099
0.28326
0.00193529
0.303177
0.000989335
0.324399
0.347012
0.0143929
0.0516758
0.00743903
0.055839
0.000902275
0.0604289
-0.00485405
0.0653578
-0.00961794
0.0707884
-0.0135034
0.0765267
-0.0166674
0.0826921
-0.0196156
0.0891747
-0.0228153
0.0952422
-0.024814
0.100694
-0.0259475
0.102432
-0.0223403
0.104943
-0.0205012
0.112798
-0.0150965
0.114612
-0.00922304
0.122306
-0.00395968
0.130115
0.000730456
0.139443
0.00399364
0.150112
0.00603548
0.161685
0.00707949
0.174018
0.00736296
0.187123
0.00714925
0.201003
0.00661767
0.215698
0.00588697
0.231299
0.00504101
0.247867
0.00412372
0.265482
0.00315642
0.284228
0.00214834
0.304185
0.00109954
0.325447
0.348111
-0.181094
0.0486866
-0.177433
0.052179
-0.172876
0.0558712
-0.167196
0.0596785
-0.160104
0.0636956
-0.151342
0.0677646
-0.140935
0.0722851
-0.128046
0.0762863
-0.113404
0.0805999
-0.0958308
0.083121
-0.0790441
0.0856457
-0.0589625
0.0848617
-0.0394426
0.0932776
-0.0234163
0.098586
-0.0110275
0.109917
-0.00240465
0.121493
0.00332753
0.133711
0.00680293
0.146636
0.00868614
0.159802
0.00949592
0.173209
0.00952578
0.187093
0.00901773
0.201511
0.00816575
0.21655
0.00712762
0.232337
0.00600328
0.248991
0.00484414
0.266641
0.00367345
0.285398
0.00248826
0.30537
0.00127202
0.326664
0.349383
-0.0770308
0.0424285
-0.0698466
0.0449948
-0.0616408
0.0476655
-0.0523531
0.0503907
-0.0418595
0.053202
-0.0300282
0.0559333
-0.0167246
0.0589815
-0.0018793
0.061441
0.0136907
0.0650299
0.0289798
0.0678319
0.0428219
0.0718036
0.0524243
0.0752593
0.0596773
0.0860246
0.0585721
0.0996912
0.053101
0.115388
0.0452093
0.129384
0.0372308
0.141689
0.0302594
0.153608
0.0245425
0.165519
0.0199077
0.177843
0.0162244
0.190776
0.0133141
0.204421
0.0109488
0.218915
0.00896677
0.234319
0.00724083
0.250717
0.00568251
0.268199
0.00422819
0.286853
0.00282677
0.306771
0.00143361
0.328057
0.350817
0.0466537
0.0498402
0.0533451
0.0571111
0.0610976
0.0651135
0.0690897
0.0725002
0.0753386
0.0762383
0.0753855
0.0704081
0.0633785
0.055119
0.047051
0.0398711
0.0336086
0.0282981
0.0237657
0.0198878
0.0165962
0.0138076
0.0114484
0.00942305
0.00763696
0.00601155
0.00448426
0.00300272
0.00152459
)
;

boundaryField
{
    outlet
    {
        type            calculated;
        value           nonuniform List<scalar> 
40
(
0.047754
0.0476645
0.0474103
0.0471813
0.0467997
0.0464383
0.0459242
0.0454714
0.044904
0.0443646
0.0395547
0.0418083
0.0441606
0.0466247
0.0492154
0.0519174
0.0550054
0.0580305
0.0621915
0.0669322
0.0726565
0.0802366
0.0930543
0.107951
0.123456
0.136564
0.147952
0.158918
0.170051
0.181721
0.194068
0.20721
0.221275
0.236345
0.252503
0.269824
0.28838
0.308253
0.329535
0.352341
)
;
    }
    upperWall
    {
        type            symmetryPlane;
        value           nonuniform 0();
    }
    lowerWall
    {
        type            symmetryPlane;
        value           uniform 0;
    }
    inlet
    {
        type            calculated;
        value           nonuniform 0();
    }
    cylinder
    {
        type            calculated;
        value           nonuniform 0();
    }
    frontAndBack
    {
        type            empty;
        value           nonuniform 0();
    }
    procBoundary3to2
    {
        type            processor;
        value           nonuniform List<scalar> 
43
(
-0.0263612
-0.0256743
-0.0267417
-0.0277578
-0.0289513
-0.0294448
0.0293798
-0.0382598
-0.0357126
-0.0337138
-0.032247
0.00991607
-0.0415906
-0.051085
-0.0586521
-0.063695
-0.0684625
-0.0735025
-0.0794169
-0.0856318
-0.0924214
-0.0995137
-0.107283
-0.115393
-0.124087
-0.133179
-0.142747
-0.152845
-0.163569
-0.174988
-0.187135
-0.20007
-0.213853
-0.228569
-0.244289
-0.261089
-0.279049
-0.298258
-0.318832
-0.340877
-0.0317614
-0.0083193
-0.0344648
)
;
    }
    procBoundary3to7
    {
        type            processor;
        value           nonuniform List<scalar> 
30
(
-0.0785903
-0.0872709
-0.0951408
-0.0946132
-0.0947954
-0.0697008
-0.0134467
0.0384285
0.0793004
0.0925703
0.112155
0.101609
0.0552762
0.00507201
-0.0664274
-0.0970645
-0.12779
-0.116182
-0.00873567
0.0531305
0.129751
0.177479
0.0464434
-0.0533602
-0.113919
-0.206644
-0.0411613
0.207312
0.115149
-0.0202842
)
;
    }
}


// ************************************************************************* //
