/*--------------------------------*- C++ -*----------------------------------*\
| =========                 |                                                 |
| \\      /  F ield         | OpenFOAM: The Open Source CFD Toolbox           |
|  \\    /   O peration     | Version:                                        |
|   \\  /    A nd           | Website:  www.openfoam.com                      |
|    \\/     M anipulation  |                                                 |
\*---------------------------------------------------------------------------*/
FoamFile
{
    version     2.0;
    format      ascii;
    class       surfaceScalarField;
    location    "71";
    object      phi;
}
// * * * * * * * * * * * * * * * * * * * * * * * * * * * * * * * * * * * * * //

dimensions      [0 3 -1 0 0 0 0];
oriented        oriented;


internalField   nonuniform List<scalar> 
2365
(
1.32158e-05
2.46791e-11
1.32158e-05
1.62465e-11
1.32158e-05
8.70197e-12
1.32158e-05
2.13196e-12
1.32158e-05
-3.0254e-12
1.32158e-05
-7.44944e-12
1.32158e-05
-1.06763e-11
1.32158e-05
-1.34128e-11
1.32158e-05
-1.51907e-11
1.32158e-05
-1.67124e-11
1.32158e-05
-1.74761e-11
1.32158e-05
-1.81611e-11
1.32158e-05
-1.82366e-11
1.32158e-05
-1.83633e-11
1.32158e-05
-1.79874e-11
1.32158e-05
-1.7753e-11
1.32158e-05
-1.70918e-11
1.32158e-05
-1.66376e-11
1.32158e-05
-1.58111e-11
1.32158e-05
-1.52358e-11
1.32158e-05
-1.43269e-11
1.32158e-05
-1.37011e-11
1.32158e-05
-1.27688e-11
1.32158e-05
-1.21393e-11
1.32158e-05
-1.12216e-11
1.32158e-05
-1.06206e-11
1.32158e-05
-9.74339e-12
1.32158e-05
-9.18922e-12
1.32158e-05
-8.36628e-12
1.32158e-05
-7.87061e-12
1.32158e-05
-7.1104e-12
1.32158e-05
-6.6769e-12
1.32158e-05
-5.98071e-12
1.32158e-05
-5.61086e-12
1.32158e-05
-4.97877e-12
1.32158e-05
-4.6698e-12
1.32158e-05
-4.09777e-12
1.32158e-05
-3.8469e-12
1.32158e-05
-3.33177e-12
1.32158e-05
-3.13343e-12
1.32158e-05
-2.66926e-12
1.32158e-05
-2.51933e-12
1.32158e-05
-2.102e-12
1.32158e-05
-1.99471e-12
1.32158e-05
-1.61819e-12
1.32158e-05
-1.54958e-12
1.32158e-05
-1.21006e-12
1.32158e-05
-1.17453e-12
1.32158e-05
-8.66467e-13
1.32158e-05
-8.60561e-13
1.32158e-05
-5.80807e-13
1.32158e-05
-5.99924e-13
1.32158e-05
-3.43702e-13
1.32158e-05
-3.85249e-13
1.32158e-05
-1.50176e-13
1.32158e-05
-2.1006e-13
1.32158e-05
7.90611e-15
1.32158e-05
-6.83392e-14
1.32158e-05
1.34133e-13
1.32158e-05
4.47566e-14
1.32158e-05
2.35033e-13
1.32158e-05
1.33626e-13
1.32158e-05
3.12731e-13
1.32158e-05
2.02009e-13
1.32158e-05
3.7271e-13
1.32158e-05
2.53334e-13
1.32158e-05
4.15967e-13
1.32158e-05
2.89986e-13
1.32158e-05
4.46712e-13
1.32158e-05
3.14209e-13
1.32158e-05
4.65036e-13
1.32158e-05
3.27819e-13
1.32158e-05
4.74745e-13
1.32158e-05
3.32741e-13
1.32158e-05
4.75562e-13
1.32158e-05
3.30308e-13
1.32158e-05
4.70871e-13
1.32158e-05
3.22237e-13
1.32158e-05
4.60371e-13
1.32158e-05
3.10228e-13
1.32158e-05
4.48097e-13
1.32158e-05
2.96579e-13
1.32158e-05
4.34335e-13
1.32158e-05
2.8354e-13
1.32158e-05
4.23567e-13
1.32158e-05
2.74121e-13
1.32158e-05
4.17132e-13
1.32158e-05
2.7187e-13
1.32158e-05
4.21204e-13
1.32158e-05
2.81822e-13
1.32158e-05
4.39211e-13
1.32158e-05
3.09981e-13
1.32158e-05
4.80358e-13
1.32158e-05
3.65222e-13
1.32158e-05
5.53248e-13
1.32158e-05
4.60357e-13
1.32158e-05
6.7581e-13
1.32158e-05
6.15332e-13
1.32158e-05
8.70555e-13
1.32158e-05
8.60277e-13
1.32158e-05
1.17696e-12
1.32158e-05
1.24192e-12
1.32158e-05
1.65056e-12
1.32158e-05
1.83048e-12
1.32158e-05
2.37874e-12
1.32158e-05
2.72921e-12
1.32158e-05
3.48239e-12
1.32158e-05
4.08152e-12
1.32158e-05
5.12606e-12
1.32158e-05
6.06508e-12
1.32158e-05
7.49343e-12
1.32158e-05
8.86273e-12
1.32158e-05
1.07592e-11
1.32158e-05
1.26377e-11
1.32158e-05
1.50858e-11
1.32158e-05
1.75579e-11
1.32158e-05
2.06206e-11
1.32158e-05
2.36913e-11
1.32158e-05
2.7235e-11
1.32158e-05
3.05301e-11
1.32158e-05
3.38146e-11
1.32158e-05
3.60691e-11
1.32158e-05
3.70611e-11
1.32158e-05
3.56951e-11
3.15643e-11
1.33792e-05
2.27606e-11
1.33792e-05
1.51582e-11
1.33792e-05
8.24061e-12
1.33792e-05
2.3228e-12
1.33792e-05
-2.57741e-12
1.33792e-05
-6.65109e-12
1.33792e-05
-9.86514e-12
1.33792e-05
-1.24257e-11
1.33792e-05
-1.43138e-11
1.33792e-05
-1.57334e-11
1.33792e-05
-1.66503e-11
1.33792e-05
-1.7252e-11
1.33792e-05
-1.74868e-11
1.33792e-05
-1.75269e-11
1.33792e-05
-1.73043e-11
1.33792e-05
-1.69764e-11
1.33792e-05
-1.64623e-11
1.33792e-05
-1.59092e-11
1.33792e-05
-1.52259e-11
1.33792e-05
-1.45499e-11
1.33792e-05
-1.37828e-11
1.33792e-05
-1.3056e-11
1.33792e-05
-1.22654e-11
1.33792e-05
-1.1536e-11
1.33792e-05
-1.07602e-11
1.33792e-05
-1.00601e-11
1.33792e-05
-9.32491e-12
1.33791e-05
-8.67273e-12
1.33791e-05
-7.9915e-12
1.33791e-05
-7.39789e-12
1.33791e-05
-6.77849e-12
1.33791e-05
-6.24724e-12
1.33791e-05
-5.69066e-12
1.33791e-05
-5.22234e-12
1.33791e-05
-4.72834e-12
1.33791e-05
-4.32037e-12
1.33791e-05
-3.8848e-12
1.33791e-05
-3.53359e-12
1.33791e-05
-3.153e-12
1.33791e-05
-2.85349e-12
1.33791e-05
-2.52198e-12
1.33791e-05
-2.26946e-12
1.33791e-05
-1.98294e-12
1.33791e-05
-1.77213e-12
1.33791e-05
-1.5247e-12
1.33791e-05
-1.35108e-12
1.33791e-05
-1.13894e-12
1.33791e-05
-9.97553e-13
1.33791e-05
-8.15319e-13
1.33791e-05
-7.02297e-13
1.33791e-05
-5.46945e-13
1.33791e-05
-4.58225e-13
1.33791e-05
-3.25181e-13
1.33791e-05
-2.57646e-13
1.33791e-05
-1.44554e-13
1.33791e-05
-9.4763e-14
1.33791e-05
2.23046e-15
1.33791e-05
3.66389e-14
1.33791e-05
1.19066e-13
1.33791e-05
1.40694e-13
1.33791e-05
2.11637e-13
1.33791e-05
2.22145e-13
1.33791e-05
2.82554e-13
1.33791e-05
2.84017e-13
1.33791e-05
3.36437e-13
1.33791e-05
3.29926e-13
1.33791e-05
3.74661e-13
1.33791e-05
3.61611e-13
1.33791e-05
4.00647e-13
1.33791e-05
3.81729e-13
1.33791e-05
4.15075e-13
1.33791e-05
3.91507e-13
1.33791e-05
4.2098e-13
1.33791e-05
3.93177e-13
1.33791e-05
4.18532e-13
1.33791e-05
3.87511e-13
1.33791e-05
4.1046e-13
1.33791e-05
3.76701e-13
1.33791e-05
3.97177e-13
1.33791e-05
3.6198e-13
1.33791e-05
3.81996e-13
1.33791e-05
3.46101e-13
1.33791e-05
3.65848e-13
1.33791e-05
3.30833e-13
1.33791e-05
3.52679e-13
1.33791e-05
3.19805e-13
1.33791e-05
3.44557e-13
1.33791e-05
3.16128e-13
1.33791e-05
3.46955e-13
1.33791e-05
3.25078e-13
1.33791e-05
3.63714e-13
1.33791e-05
3.51884e-13
1.33791e-05
4.0301e-13
1.33791e-05
4.05405e-13
1.33791e-05
4.73499e-13
1.33791e-05
4.97199e-13
1.33791e-05
5.91544e-13
1.33791e-05
6.46631e-13
1.33791e-05
7.79251e-13
1.33791e-05
8.82402e-13
1.33791e-05
1.07467e-12
1.33791e-05
1.25104e-12
1.33791e-05
1.53344e-12
1.33791e-05
1.82188e-12
1.33791e-05
2.24199e-12
1.33791e-05
2.69802e-12
1.33791e-05
3.32051e-12
1.33791e-05
4.01935e-12
1.33791e-05
4.92691e-12
1.33791e-05
5.95489e-12
1.33791e-05
7.2328e-12
1.33791e-05
8.67256e-12
1.33791e-05
1.0403e-11
1.33791e-05
1.23362e-11
1.33791e-05
1.45965e-11
1.33791e-05
1.70843e-11
1.33791e-05
1.99055e-11
1.33791e-05
2.2901e-11
1.33791e-05
2.60694e-11
1.33792e-05
2.91547e-11
1.33792e-05
3.19528e-11
1.33792e-05
3.401e-11
1.33792e-05
3.46545e-11
1.33792e-05
3.33511e-11
2.9056e-11
1.32425e-05
1.99307e-11
1.32425e-05
1.36826e-11
1.32426e-05
7.82035e-12
1.32426e-05
2.67578e-12
1.32425e-05
-1.72175e-12
1.32425e-05
-5.42811e-12
1.32425e-05
-8.4418e-12
1.32425e-05
-1.08562e-11
1.32425e-05
-1.2699e-11
1.32425e-05
-1.40759e-11
1.32425e-05
-1.50144e-11
1.32425e-05
-1.56154e-11
1.32425e-05
-1.58985e-11
1.32425e-05
-1.59548e-11
1.32425e-05
-1.57913e-11
1.32425e-05
-1.54868e-11
1.32425e-05
-1.5038e-11
1.32425e-05
-1.45135e-11
1.32425e-05
-1.38995e-11
1.32425e-05
-1.32555e-11
1.32425e-05
-1.25608e-11
1.32425e-05
-1.18687e-11
1.32425e-05
-1.11519e-11
1.32425e-05
-1.0458e-11
1.32425e-05
-9.75648e-12
1.32425e-05
-9.09167e-12
1.32425e-05
-8.42935e-12
1.32425e-05
-7.81061e-12
1.32425e-05
-7.2001e-12
1.32425e-05
-6.6376e-12
1.32425e-05
-6.08545e-12
1.32425e-05
-5.58175e-12
1.32425e-05
-5.08897e-12
1.32425e-05
-4.64479e-12
1.32425e-05
-4.21034e-12
1.32425e-05
-3.82239e-12
1.32425e-05
-3.44256e-12
1.32425e-05
-3.10772e-12
1.32425e-05
-2.77858e-12
1.32425e-05
-2.49136e-12
1.32425e-05
-2.20774e-12
1.32425e-05
-1.96419e-12
1.32425e-05
-1.72172e-12
1.32425e-05
-1.51635e-12
1.32425e-05
-1.30984e-12
1.32425e-05
-1.13884e-12
1.32425e-05
-9.64298e-13
1.32425e-05
-8.22489e-13
1.32425e-05
-6.75455e-13
1.32425e-05
-5.59727e-13
1.32425e-05
-4.36919e-13
1.32425e-05
-3.42994e-13
1.32425e-05
-2.40543e-13
1.32425e-05
-1.66106e-13
1.32425e-05
-8.1398e-14
1.32425e-05
-2.27037e-14
1.32425e-05
4.73184e-14
1.32425e-05
9.18698e-14
1.32425e-05
1.49004e-13
1.32425e-05
1.82313e-13
1.32425e-05
2.28944e-13
1.32425e-05
2.52002e-13
1.32425e-05
2.89366e-13
1.32425e-05
3.04578e-13
1.32425e-05
3.34534e-13
1.32425e-05
3.42244e-13
1.32425e-05
3.65471e-13
1.32425e-05
3.67489e-13
1.32425e-05
3.85279e-13
1.32425e-05
3.81783e-13
1.32425e-05
3.94573e-13
1.32425e-05
3.8713e-13
1.32425e-05
3.96154e-13
1.32425e-05
3.8452e-13
1.32425e-05
3.89963e-13
1.32425e-05
3.75683e-13
1.32425e-05
3.78689e-13
1.32425e-05
3.61726e-13
1.32425e-05
3.6273e-13
1.32425e-05
3.44862e-13
1.32425e-05
3.45309e-13
1.32425e-05
3.26759e-13
1.32425e-05
3.27351e-13
1.32425e-05
3.10229e-13
1.32425e-05
3.12842e-13
1.32425e-05
2.97911e-13
1.32425e-05
3.03855e-13
1.32425e-05
2.93862e-13
1.32425e-05
3.05633e-13
1.32425e-05
3.01985e-13
1.32425e-05
3.21619e-13
1.32425e-05
3.28e-13
1.32425e-05
3.59272e-13
1.32425e-05
3.78833e-13
1.32425e-05
4.26115e-13
1.32425e-05
4.65623e-13
1.32425e-05
5.36742e-13
1.32425e-05
6.0468e-13
1.32425e-05
7.10991e-13
1.32425e-05
8.23173e-13
1.32425e-05
9.84112e-13
1.32425e-05
1.16351e-12
1.32425e-05
1.40818e-12
1.32425e-05
1.69192e-12
1.32425e-05
2.06479e-12
1.32425e-05
2.50461e-12
1.32425e-05
3.06606e-12
1.32425e-05
3.7315e-12
1.32425e-05
4.55688e-12
1.32425e-05
5.52323e-12
1.32425e-05
6.68695e-12
1.32425e-05
8.03027e-12
1.32425e-05
9.60715e-12
1.32425e-05
1.13967e-11
1.32425e-05
1.34471e-11
1.32425e-05
1.57204e-11
1.32425e-05
1.82225e-11
1.32425e-05
2.08615e-11
1.32425e-05
2.35723e-11
1.32425e-05
2.61424e-11
1.32425e-05
2.83901e-11
1.32425e-05
2.99331e-11
1.32425e-05
3.04299e-11
1.32425e-05
2.8977e-11
2.54169e-11
1.27796e-05
1.67251e-11
1.27796e-05
1.19692e-11
1.27796e-05
7.33036e-12
1.27796e-05
3.08156e-12
1.27796e-05
-6.95641e-13
1.27796e-05
-3.9493e-12
1.27796e-05
-6.66886e-12
1.27796e-05
-8.869e-12
1.27796e-05
-1.05903e-11
1.27796e-05
-1.18762e-11
1.27796e-05
-1.27821e-11
1.27796e-05
-1.33582e-11
1.27796e-05
-1.36602e-11
1.27796e-05
-1.37303e-11
1.27796e-05
-1.36165e-11
1.27796e-05
-1.33519e-11
1.27796e-05
-1.29739e-11
1.27796e-05
-1.25064e-11
1.27796e-05
-1.19766e-11
1.27796e-05
-1.14e-11
1.27796e-05
-1.07976e-11
1.27796e-05
-1.01792e-11
1.27796e-05
-9.55778e-12
1.27796e-05
-8.93876e-12
1.27796e-05
-8.33317e-12
1.27796e-05
-7.74224e-12
1.27796e-05
-7.17192e-12
1.27796e-05
-6.62319e-12
1.27796e-05
-6.10123e-12
1.27796e-05
-5.60322e-12
1.27796e-05
-5.13326e-12
1.27796e-05
-4.68825e-12
1.27796e-05
-4.27149e-12
1.27796e-05
-3.87932e-12
1.27796e-05
-3.51436e-12
1.27796e-05
-3.17176e-12
1.27796e-05
-2.85533e-12
1.27796e-05
-2.5596e-12
1.27796e-05
-2.28727e-12
1.27796e-05
-2.03318e-12
1.27796e-05
-1.80055e-12
1.27796e-05
-1.58498e-12
1.27796e-05
-1.38804e-12
1.27796e-05
-1.2051e-12
1.27796e-05
-1.04023e-12
1.27796e-05
-8.86616e-13
1.27796e-05
-7.48787e-13
1.27796e-05
-6.20769e-13
1.27796e-05
-5.06762e-13
1.27796e-05
-4.01723e-13
1.27796e-05
-3.07396e-13
1.27796e-05
-2.20844e-13
1.27796e-05
-1.45022e-13
1.27796e-05
-7.48915e-14
1.27796e-05
-1.36596e-14
1.27796e-05
4.32357e-14
1.27796e-05
9.14746e-14
1.27796e-05
1.36192e-13
1.27796e-05
1.74018e-13
1.27796e-05
2.09372e-13
1.27796e-05
2.3779e-13
1.27796e-05
2.64314e-13
1.27796e-05
2.85433e-13
1.27796e-05
3.051e-13
1.27796e-05
3.19595e-13
1.27796e-05
3.33292e-13
1.27796e-05
3.41964e-13
1.27796e-05
3.50706e-13
1.27796e-05
3.54549e-13
1.27796e-05
3.57979e-13
1.27796e-05
3.58599e-13
1.27796e-05
3.58795e-13
1.27796e-05
3.55003e-13
1.27796e-05
3.51738e-13
1.27796e-05
3.45341e-13
1.27796e-05
3.39946e-13
1.27796e-05
3.30939e-13
1.27796e-05
3.2314e-13
1.27796e-05
3.13029e-13
1.27796e-05
3.04769e-13
1.27796e-05
2.93845e-13
1.27796e-05
2.85111e-13
1.27796e-05
2.75179e-13
1.27796e-05
2.68295e-13
1.27796e-05
2.60108e-13
1.27796e-05
2.55595e-13
1.27796e-05
2.515e-13
1.27796e-05
2.52185e-13
1.27796e-05
2.53377e-13
1.27796e-05
2.60204e-13
1.27796e-05
2.6951e-13
1.27796e-05
2.85949e-13
1.27796e-05
3.05475e-13
1.27796e-05
3.3375e-13
1.27796e-05
3.68078e-13
1.27796e-05
4.14044e-13
1.27796e-05
4.6855e-13
1.27796e-05
5.38875e-13
1.27796e-05
6.24169e-13
1.27796e-05
7.32693e-13
1.27796e-05
8.64529e-13
1.27796e-05
1.03103e-12
1.27796e-05
1.23613e-12
1.27796e-05
1.49371e-12
1.27796e-05
1.81035e-12
1.27796e-05
2.20435e-12
1.27796e-05
2.68702e-12
1.27796e-05
3.2783e-12
1.27796e-05
3.98915e-12
1.27796e-05
4.84105e-12
1.27796e-05
5.84601e-12
1.27796e-05
7.02159e-12
1.27796e-05
8.37719e-12
1.27796e-05
9.92832e-12
1.27796e-05
1.16716e-11
1.27796e-05
1.35974e-11
1.27796e-05
1.56635e-11
1.27796e-05
1.78097e-11
1.27796e-05
1.99261e-11
1.27796e-05
2.18872e-11
1.27796e-05
2.34983e-11
1.27796e-05
2.45768e-11
1.27796e-05
2.46672e-11
1.27796e-05
2.35493e-11
2.06688e-11
1.19641e-05
1.3105e-11
1.19641e-05
9.9573e-12
1.19641e-05
6.68887e-12
1.19641e-05
3.34854e-12
1.19641e-05
2.81773e-13
1.19641e-05
-2.47704e-12
1.19641e-05
-4.7869e-12
1.19641e-05
-6.72182e-12
1.19641e-05
-8.20909e-12
1.19641e-05
-9.36704e-12
1.19641e-05
-1.01512e-11
1.19641e-05
-1.0693e-11
1.19641e-05
-1.09043e-11
1.19641e-05
-1.10958e-11
1.19641e-05
-1.09455e-11
1.19641e-05
-1.07562e-11
1.19641e-05
-1.04244e-11
1.19641e-05
-1.00606e-11
1.19641e-05
-9.55436e-12
1.19641e-05
-9.14646e-12
1.19641e-05
-8.67241e-12
1.19641e-05
-8.13805e-12
1.19641e-05
-7.60417e-12
1.19641e-05
-7.11846e-12
1.19641e-05
-6.59958e-12
1.19641e-05
-6.09207e-12
1.19641e-05
-5.69636e-12
1.19641e-05
-5.2265e-12
1.19641e-05
-4.78007e-12
1.19641e-05
-4.39819e-12
1.19641e-05
-3.99579e-12
1.19641e-05
-3.61355e-12
1.19641e-05
-3.32456e-12
1.19641e-05
-3.03126e-12
1.19641e-05
-2.69337e-12
1.19641e-05
-2.44211e-12
1.19641e-05
-2.16709e-12
1.19641e-05
-1.95329e-12
1.19641e-05
-1.69153e-12
1.19641e-05
-1.51289e-12
1.19641e-05
-1.37541e-12
1.19641e-05
-1.18107e-12
1.19641e-05
-1.00365e-12
1.19641e-05
-8.82785e-13
1.19641e-05
-6.85219e-13
1.19641e-05
-6.7895e-13
1.19641e-05
-5.03287e-13
1.19641e-05
-4.26642e-13
1.19641e-05
-3.15927e-13
1.19641e-05
-2.10674e-13
1.19641e-05
-2.07788e-13
1.19641e-05
-1.18354e-13
1.19641e-05
-3.80627e-14
1.19641e-05
-6.56204e-15
1.19641e-05
6.20441e-14
1.19641e-05
8.20209e-14
1.19641e-05
1.40459e-13
1.19641e-05
1.5187e-13
1.19641e-05
2.01988e-13
1.19641e-05
2.04961e-13
1.19641e-05
2.47768e-13
1.19641e-05
2.4483e-13
1.19641e-05
2.8178e-13
1.19641e-05
3.18331e-13
1.19641e-05
3.04084e-13
1.19641e-05
2.44912e-13
1.19641e-05
3.17894e-13
1.19641e-05
2.99738e-13
1.19641e-05
3.22962e-13
1.19641e-05
3.4754e-13
1.19641e-05
2.76038e-13
1.19641e-05
2.96879e-13
1.19641e-05
3.13897e-13
1.19641e-05
2.8703e-13
1.19641e-05
3.0179e-13
1.19641e-05
2.72142e-13
1.19641e-05
2.84938e-13
1.19641e-05
2.54511e-13
1.19641e-05
2.66439e-13
1.19641e-05
2.34765e-13
1.19641e-05
2.46402e-13
1.19641e-05
2.15781e-13
1.19641e-05
2.28551e-13
1.19641e-05
1.9892e-13
1.19641e-05
2.13871e-13
1.19641e-05
1.88014e-13
1.19641e-05
2.07016e-13
1.19641e-05
1.8523e-13
1.19641e-05
2.09585e-13
1.19641e-05
1.9486e-13
1.19641e-05
2.26665e-13
1.19641e-05
2.19595e-13
1.19641e-05
2.60636e-13
1.19641e-05
2.64954e-13
1.19641e-05
3.18413e-13
1.19641e-05
3.36282e-13
1.19641e-05
4.06255e-13
1.19641e-05
4.44716e-13
1.19641e-05
5.39081e-13
1.19641e-05
6.06762e-13
1.19641e-05
7.38229e-13
1.19641e-05
8.53089e-13
1.19641e-05
1.04305e-12
1.19641e-05
1.23012e-12
1.19641e-05
1.51047e-12
1.19641e-05
1.80948e-12
1.19641e-05
2.22459e-12
1.19641e-05
2.68264e-12
1.19641e-05
3.28381e-12
1.19641e-05
3.9541e-12
1.19641e-05
4.79105e-12
1.19641e-05
5.71889e-12
1.19641e-05
6.83286e-12
1.19641e-05
8.04753e-12
1.19641e-05
9.48868e-12
1.19641e-05
1.08673e-11
1.19641e-05
1.25019e-11
1.19641e-05
1.40582e-11
1.19641e-05
1.55813e-11
1.19641e-05
1.68678e-11
1.19641e-05
1.789e-11
1.19641e-05
1.8457e-11
1.19641e-05
1.83282e-11
1.19641e-05
1.74181e-11
1.56443e-11
1.07698e-05
9.59919e-12
1.07698e-05
7.9509e-12
1.07698e-05
5.8016e-12
1.07698e-05
3.32808e-12
1.07698e-05
9.69063e-13
1.07698e-05
-1.23052e-12
1.07698e-05
-3.06212e-12
1.07698e-05
-4.63373e-12
1.07698e-05
-5.81251e-12
1.07698e-05
-6.76257e-12
1.07698e-05
-7.37517e-12
1.07698e-05
-7.8284e-12
1.07698e-05
-8.0173e-12
1.07698e-05
-8.12084e-12
1.07698e-05
-8.02491e-12
1.07698e-05
-7.89972e-12
1.07698e-05
-7.62674e-12
1.07698e-05
-7.36883e-12
1.07698e-05
-6.99916e-12
1.07698e-05
-6.67231e-12
1.07698e-05
-6.25924e-12
1.07698e-05
-5.90929e-12
1.07698e-05
-5.4886e-12
1.07698e-05
-5.14183e-12
1.07698e-05
-4.7343e-12
1.07698e-05
-4.40802e-12
1.07698e-05
-4.0277e-12
1.07698e-05
-3.73012e-12
1.07698e-05
-3.38063e-12
1.07698e-05
-3.11744e-12
1.07698e-05
-2.80344e-12
1.07698e-05
-2.57294e-12
1.07698e-05
-2.29249e-12
1.07698e-05
-2.09662e-12
1.07698e-05
-1.84936e-12
1.07698e-05
-1.68348e-12
1.07698e-05
-1.46594e-12
1.07698e-05
-1.32931e-12
1.07698e-05
-1.13979e-12
1.07698e-05
-1.02762e-12
1.07698e-05
-8.62363e-13
1.07698e-05
-7.73476e-13
1.07698e-05
-6.30293e-13
1.07698e-05
-5.60666e-13
1.07698e-05
-4.35337e-13
1.07698e-05
-3.84256e-13
1.07698e-05
-2.76073e-13
1.07698e-05
-2.38498e-13
1.07698e-05
-1.44046e-13
1.07698e-05
-1.19778e-13
1.07698e-05
-3.85834e-14
1.07698e-05
-2.43189e-14
1.07698e-05
4.78236e-14
1.07698e-05
5.17466e-14
1.07698e-05
1.14545e-13
1.07698e-05
1.11667e-13
1.07698e-05
1.67909e-13
1.07698e-05
1.57623e-13
1.07698e-05
2.0698e-13
1.07698e-05
1.92065e-13
1.07698e-05
2.36947e-13
1.07698e-05
2.16462e-13
1.07698e-05
2.56168e-13
1.07698e-05
2.32868e-13
1.07698e-05
2.69378e-13
1.07698e-05
2.41199e-13
1.07698e-05
2.74119e-13
1.07698e-05
2.43911e-13
1.07698e-05
2.74382e-13
1.07698e-05
2.40955e-13
1.07698e-05
2.67806e-13
1.07698e-05
2.32879e-13
1.07698e-05
2.58835e-13
1.07698e-05
2.20667e-13
1.07698e-05
2.44189e-13
1.07698e-05
2.05284e-13
1.07698e-05
2.28362e-13
1.07698e-05
1.87488e-13
1.07698e-05
2.09353e-13
1.07698e-05
1.69024e-13
1.07698e-05
1.91977e-13
1.07698e-05
1.51286e-13
1.07698e-05
1.74898e-13
1.07698e-05
1.36778e-13
1.07698e-05
1.63782e-13
1.07698e-05
1.27778e-13
1.07698e-05
1.58055e-13
1.07698e-05
1.27331e-13
1.07698e-05
1.63678e-13
1.07698e-05
1.37821e-13
1.07698e-05
1.80065e-13
1.07698e-05
1.62282e-13
1.07698e-05
2.13255e-13
1.07698e-05
2.03384e-13
1.07698e-05
2.63331e-13
1.07698e-05
2.65345e-13
1.07698e-05
3.3835e-13
1.07698e-05
3.54135e-13
1.07698e-05
4.43657e-13
1.07698e-05
4.81785e-13
1.07698e-05
5.98223e-13
1.07698e-05
6.68776e-13
1.07698e-05
8.26133e-13
1.07698e-05
9.50425e-13
1.07698e-05
1.17449e-12
1.07698e-05
1.37993e-12
1.07698e-05
1.70301e-12
1.07698e-05
2.02823e-12
1.07698e-05
2.48964e-12
1.07698e-05
2.9705e-12
1.07698e-05
3.60427e-12
1.07698e-05
4.27265e-12
1.07698e-05
5.09974e-12
1.07698e-05
5.96091e-12
1.07698e-05
6.96771e-12
1.07698e-05
7.9756e-12
1.07698e-05
9.06975e-12
1.07698e-05
1.00707e-11
1.07698e-05
1.1024e-11
1.07698e-05
1.17302e-11
1.07698e-05
1.22335e-11
1.07698e-05
1.23118e-11
1.07698e-05
1.20856e-11
1.07698e-05
1.14552e-11
1.06319e-11
9.17056e-06
6.17674e-12
9.17056e-06
6.09597e-12
9.17056e-06
4.46023e-12
9.17057e-06
3.15198e-12
9.17057e-06
1.02512e-12
9.17056e-06
-1.28039e-13
9.17056e-06
-1.88093e-12
9.17056e-06
-2.55721e-12
9.17056e-06
-3.83193e-12
9.17056e-06
-4.04882e-12
9.17055e-06
-4.91543e-12
9.17055e-06
-4.77984e-12
9.17055e-06
-5.35221e-12
9.17054e-06
-4.97324e-12
9.17054e-06
-5.34916e-12
9.17054e-06
-4.81779e-12
9.17053e-06
-5.0765e-12
9.17053e-06
-4.45749e-12
9.17053e-06
-4.63485e-12
9.17053e-06
-4.00749e-12
9.17052e-06
-4.15848e-12
9.17052e-06
-3.48551e-12
9.17052e-06
-3.64732e-12
9.17052e-06
-2.98087e-12
9.17052e-06
-3.13673e-12
9.17051e-06
-2.51937e-12
9.17051e-06
-2.69086e-12
9.17051e-06
-2.06329e-12
9.17051e-06
-2.27288e-12
9.17051e-06
-1.66915e-12
9.17051e-06
-1.88273e-12
9.17051e-06
-1.32082e-12
9.1705e-06
-1.58958e-12
9.1705e-06
-1.01803e-12
9.1705e-06
-1.2892e-12
9.1705e-06
-7.568e-13
9.1705e-06
-1.04735e-12
9.1705e-06
-5.347e-13
9.1705e-06
-8.40455e-13
9.1705e-06
-3.46507e-13
9.1705e-06
-6.67765e-13
9.1705e-06
-1.89465e-13
9.1705e-06
-5.22252e-13
9.1705e-06
-5.85169e-14
9.1705e-06
-4.03432e-13
9.1705e-06
4.8631e-14
9.1705e-06
-3.0451e-13
9.1705e-06
1.36397e-13
9.1705e-06
-2.25742e-13
9.1705e-06
2.06522e-13
9.17049e-06
-1.61161e-13
9.17049e-06
2.62879e-13
9.17049e-06
-1.11664e-13
9.17049e-06
3.06484e-13
9.17049e-06
-7.16841e-14
9.17049e-06
3.40523e-13
9.17049e-06
-4.27408e-14
9.17049e-06
3.65401e-13
9.17049e-06
-2.01117e-14
9.17049e-06
3.83678e-13
9.17049e-06
-5.84608e-15
9.17049e-06
3.95235e-13
9.17049e-06
4.35548e-15
9.17049e-06
4.0218e-13
9.17049e-06
7.93316e-15
9.17049e-06
4.04017e-13
9.17049e-06
8.72117e-15
9.17049e-06
4.02341e-13
9.17049e-06
4.02659e-15
9.17049e-06
3.96468e-13
9.17049e-06
-2.47077e-15
9.17049e-06
3.88182e-13
9.17049e-06
-1.37227e-14
9.17049e-06
3.76598e-13
9.17049e-06
-2.5836e-14
9.17049e-06
3.63506e-13
9.17049e-06
-4.1446e-14
9.17049e-06
3.48543e-13
9.17049e-06
-5.62385e-14
9.17049e-06
3.34127e-13
9.17049e-06
-7.22129e-14
9.17049e-06
3.20344e-13
9.17049e-06
-8.44812e-14
9.1705e-06
3.10279e-13
9.17049e-06
-9.42446e-14
9.1705e-06
3.04857e-13
9.1705e-06
-9.59574e-14
9.1705e-06
3.07345e-13
9.1705e-06
-9.08189e-14
9.1705e-06
3.18564e-13
9.1705e-06
-7.36034e-14
9.1705e-06
3.4147e-13
9.1705e-06
-4.58698e-14
9.1705e-06
3.76467e-13
9.1705e-06
-2.45767e-15
9.1705e-06
4.26652e-13
9.1705e-06
5.53935e-14
9.1705e-06
4.93681e-13
9.1705e-06
1.35269e-13
9.1705e-06
5.85104e-13
9.1705e-06
2.42582e-13
9.1705e-06
7.1193e-13
9.1705e-06
3.97035e-13
9.1705e-06
8.97703e-13
9.1705e-06
6.24223e-13
9.1705e-06
1.17715e-12
9.1705e-06
9.69796e-13
9.1705e-06
1.5982e-12
9.1705e-06
1.48025e-12
9.1705e-06
2.20751e-12
9.1705e-06
2.20179e-12
9.1705e-06
3.04025e-12
9.1705e-06
3.15143e-12
9.17051e-06
4.09767e-12
9.17051e-06
4.30404e-12
9.17051e-06
5.31784e-12
9.17051e-06
5.54198e-12
9.17052e-06
6.5088e-12
9.17052e-06
6.58722e-12
9.17053e-06
7.27932e-12
9.17053e-06
6.94658e-12
9.17054e-06
7.13783e-12
9.17054e-06
6.41342e-12
9.17054e-06
6.23822e-12
6.40078e-12
7.14017e-06
4.70532e-12
7.14018e-06
4.05242e-12
7.14018e-06
3.96876e-12
7.14018e-06
2.03905e-12
7.14018e-06
1.63149e-12
7.14018e-06
-1.38693e-13
7.14018e-06
-2.01869e-13
7.14018e-06
-1.62094e-12
7.14018e-06
-1.34661e-12
7.14017e-06
-2.4733e-12
7.14017e-06
-1.95074e-12
7.14017e-06
-2.87215e-12
7.14017e-06
-2.18224e-12
7.14016e-06
-2.96973e-12
7.14016e-06
-2.17658e-12
7.14016e-06
-2.88229e-12
7.14016e-06
-2.02832e-12
7.14015e-06
-2.68787e-12
7.14015e-06
-1.80456e-12
7.14015e-06
-2.44195e-12
7.14015e-06
-1.54731e-12
7.14014e-06
-2.17666e-12
7.14014e-06
-1.28474e-12
7.14014e-06
-1.91535e-12
7.14014e-06
-1.03116e-12
7.14014e-06
-1.66812e-12
7.14014e-06
-7.97412e-13
7.14014e-06
-1.44273e-12
7.14013e-06
-5.85793e-13
7.14013e-06
-1.24053e-12
7.14013e-06
-3.99062e-13
7.14013e-06
-1.06347e-12
7.14013e-06
-2.35945e-13
7.14013e-06
-9.08973e-13
7.14013e-06
-9.5877e-14
7.14013e-06
-7.77394e-13
7.14013e-06
2.39619e-14
7.14013e-06
-6.6477e-13
7.14013e-06
1.24352e-13
7.14013e-06
-5.70837e-13
7.14013e-06
2.0895e-13
7.14012e-06
-4.91696e-13
7.14013e-06
2.78225e-13
7.14012e-06
-4.27208e-13
7.14012e-06
3.35657e-13
7.14012e-06
-3.73653e-13
7.14012e-06
3.81548e-13
7.14012e-06
-3.31187e-13
7.14012e-06
4.18971e-13
7.14012e-06
-2.96474e-13
7.14012e-06
4.47844e-13
7.14012e-06
-2.69988e-13
7.14012e-06
4.709e-13
7.14012e-06
-2.4873e-13
7.14012e-06
4.87785e-13
7.14012e-06
-2.33478e-13
7.14012e-06
5.00912e-13
7.14012e-06
-2.21605e-13
7.14012e-06
5.09493e-13
7.14012e-06
-2.14275e-13
7.14012e-06
5.15636e-13
7.14012e-06
-2.09118e-13
7.14012e-06
5.1833e-13
7.14012e-06
-2.07532e-13
7.14012e-06
5.19456e-13
7.14012e-06
-2.07372e-13
7.14012e-06
5.17737e-13
7.14012e-06
-2.10297e-13
7.14012e-06
5.14934e-13
7.14012e-06
-2.14211e-13
7.14012e-06
5.09801e-13
7.14012e-06
-2.20701e-13
7.14012e-06
5.04039e-13
7.14012e-06
-2.27752e-13
7.14012e-06
4.96414e-13
7.14012e-06
-2.36873e-13
7.14012e-06
4.8884e-13
7.14012e-06
-2.45724e-13
7.14012e-06
4.80365e-13
7.14012e-06
-2.55429e-13
7.14012e-06
4.73578e-13
7.14012e-06
-2.63233e-13
7.14012e-06
4.66799e-13
7.14012e-06
-2.69872e-13
7.14012e-06
4.64288e-13
7.14012e-06
-2.72145e-13
7.14012e-06
4.64777e-13
7.14012e-06
-2.69867e-13
7.14012e-06
4.70831e-13
7.14012e-06
-2.60863e-13
7.14012e-06
4.8367e-13
7.14012e-06
-2.45778e-13
7.14012e-06
5.03573e-13
7.14012e-06
-2.20843e-13
7.14012e-06
5.32049e-13
7.14012e-06
-1.87489e-13
7.14012e-06
5.70094e-13
7.14012e-06
-1.42573e-13
7.14012e-06
6.18721e-13
7.14012e-06
-8.53525e-14
7.14012e-06
6.83733e-13
7.14012e-06
-8.64574e-15
7.14012e-06
7.706e-13
7.14012e-06
9.64821e-14
7.14012e-06
8.96867e-13
7.14012e-06
2.50104e-13
7.14013e-06
1.08089e-12
7.14013e-06
4.72282e-13
7.14013e-06
1.34368e-12
7.14013e-06
7.84278e-13
7.14013e-06
1.69854e-12
7.14013e-06
1.19378e-12
7.14013e-06
2.15356e-12
7.14013e-06
1.69764e-12
7.14013e-06
2.69854e-12
7.14014e-06
2.27019e-12
7.14014e-06
3.28545e-12
7.14014e-06
2.82315e-12
7.14015e-06
3.71766e-12
7.14015e-06
3.04181e-12
7.14016e-06
3.50066e-12
7.14016e-06
2.42545e-12
7.14015e-06
2.17627e-12
7.14016e-06
2.25144e-12
2.59386e-12
4.65263e-06
2.35562e-12
4.65263e-06
2.9917e-12
4.65263e-06
2.21795e-12
4.65264e-06
1.78783e-12
4.65264e-06
8.28797e-13
4.65264e-06
6.30527e-13
4.65264e-06
-6.19511e-14
4.65264e-06
-3.07547e-14
4.65263e-06
-5.38923e-13
4.65263e-06
-3.66194e-13
4.65263e-06
-7.6665e-13
4.65263e-06
-5.13607e-13
4.65262e-06
-8.53192e-13
4.65262e-06
-5.54769e-13
4.65262e-06
-8.59089e-13
4.65262e-06
-5.35019e-13
4.65262e-06
-8.19538e-13
4.65262e-06
-4.8217e-13
4.65261e-06
-7.55922e-13
4.65261e-06
-4.12629e-13
4.65261e-06
-6.81618e-13
4.65261e-06
-3.37425e-13
4.65261e-06
-6.04753e-13
4.65261e-06
-2.62232e-13
4.65261e-06
-5.30283e-13
4.65261e-06
-1.91186e-13
4.6526e-06
-4.60695e-13
4.6526e-06
-1.25727e-13
4.6526e-06
-3.9744e-13
4.6526e-06
-6.70745e-14
4.6526e-06
-3.40931e-13
4.6526e-06
-1.49717e-14
4.6526e-06
-2.91178e-13
4.6526e-06
3.02564e-14
4.6526e-06
-2.47926e-13
4.6526e-06
6.95344e-14
4.6526e-06
-2.10737e-13
4.6526e-06
1.02871e-13
4.6526e-06
-1.78944e-13
4.6526e-06
1.3138e-13
4.6526e-06
-1.52064e-13
4.6526e-06
1.55113e-13
4.65259e-06
-1.2948e-13
4.6526e-06
1.75099e-13
4.65259e-06
-1.10738e-13
4.6526e-06
1.91391e-13
4.65259e-06
-9.5227e-14
4.6526e-06
2.04956e-13
4.65259e-06
-8.26025e-14
4.6526e-06
2.15713e-13
4.65259e-06
-7.23648e-14
4.6526e-06
2.24545e-13
4.65259e-06
-6.42222e-14
4.65259e-06
2.31344e-13
4.65259e-06
-5.77057e-14
4.65259e-06
2.36944e-13
4.65259e-06
-5.26135e-14
4.65259e-06
2.41098e-13
4.65259e-06
-4.8634e-14
4.65259e-06
2.44508e-13
4.65259e-06
-4.56587e-14
4.65259e-06
2.46875e-13
4.65259e-06
-4.34179e-14
4.65259e-06
2.48846e-13
4.65259e-06
-4.18772e-14
4.65259e-06
2.5003e-13
4.65259e-06
-4.08687e-14
4.65259e-06
2.51007e-13
4.65259e-06
-4.03789e-14
4.65259e-06
2.51428e-13
4.65259e-06
-4.01683e-14
4.65259e-06
2.51904e-13
4.65259e-06
-4.02579e-14
4.65259e-06
2.51998e-13
4.65259e-06
-4.04998e-14
4.6526e-06
2.52268e-13
4.65259e-06
-4.09192e-14
4.6526e-06
2.52278e-13
4.65259e-06
-4.13658e-14
4.6526e-06
2.52598e-13
4.65259e-06
-4.8148e-14
4.6526e-06
2.52791e-13
4.65259e-06
-3.56379e-14
4.6526e-06
2.53379e-13
4.65259e-06
-4.20291e-14
4.6526e-06
2.54047e-13
4.65259e-06
-4.13492e-14
4.6526e-06
2.42936e-13
4.65259e-06
-2.68033e-14
4.6526e-06
2.45648e-13
4.65259e-06
-3.5865e-14
4.6526e-06
2.63398e-13
4.65259e-06
-1.687e-14
4.6526e-06
2.71038e-13
4.65259e-06
-1.9453e-14
4.6526e-06
2.83262e-13
4.65259e-06
-3.94591e-15
4.6526e-06
3.01339e-13
4.65259e-06
1.88022e-14
4.6526e-06
3.27759e-13
4.65259e-06
4.43331e-14
4.6526e-06
3.6443e-13
4.65259e-06
1.00783e-13
4.6526e-06
4.14814e-13
4.65259e-06
1.52704e-13
4.6526e-06
4.80151e-13
4.6526e-06
2.12546e-13
4.6526e-06
5.69222e-13
4.6526e-06
2.92342e-13
4.6526e-06
6.47332e-13
4.6526e-06
3.85558e-13
4.6526e-06
7.16074e-13
4.6526e-06
4.77954e-13
4.6526e-06
8.27572e-13
4.6526e-06
6.20627e-13
4.6526e-06
1.01234e-12
4.65261e-06
8.40143e-13
4.65261e-06
1.23047e-12
4.65261e-06
9.85492e-13
4.65262e-06
1.08947e-12
4.65262e-06
3.93763e-13
4.65262e-06
-2.86178e-13
4.65261e-06
-7.16986e-13
4.65261e-06
-1.25618e-13
1.82175e-12
1.68193e-06
1.68193e-06
1.68193e-06
1.68193e-06
1.68193e-06
1.68194e-06
1.68193e-06
1.68193e-06
1.68193e-06
1.68193e-06
1.68193e-06
1.68193e-06
1.68193e-06
1.68193e-06
1.68193e-06
1.68193e-06
1.68193e-06
1.68193e-06
1.68193e-06
1.68193e-06
1.68192e-06
1.68192e-06
1.68192e-06
1.68192e-06
1.68192e-06
1.68192e-06
1.68192e-06
1.68192e-06
1.68192e-06
1.68192e-06
1.68192e-06
1.68192e-06
1.68192e-06
1.68192e-06
1.68192e-06
1.68192e-06
1.68192e-06
1.68192e-06
1.68192e-06
1.68192e-06
1.68192e-06
1.68192e-06
1.68192e-06
1.68192e-06
1.68192e-06
1.68192e-06
1.68192e-06
1.68192e-06
1.68192e-06
1.68192e-06
1.68192e-06
1.68192e-06
1.68192e-06
1.68192e-06
1.68192e-06
1.68192e-06
1.68192e-06
1.68192e-06
1.68192e-06
1.68192e-06
1.68192e-06
1.68192e-06
1.68192e-06
1.68192e-06
1.68192e-06
1.68192e-06
1.68192e-06
1.68192e-06
1.68192e-06
1.68192e-06
1.68192e-06
1.68192e-06
1.68192e-06
1.68192e-06
1.68192e-06
1.68192e-06
1.68192e-06
1.68192e-06
1.68192e-06
1.68192e-06
1.68192e-06
1.68192e-06
1.68192e-06
1.68192e-06
1.68192e-06
1.68192e-06
1.68192e-06
1.68192e-06
1.68192e-06
1.68192e-06
1.68192e-06
1.68192e-06
1.68192e-06
1.68192e-06
1.68192e-06
1.68192e-06
1.68192e-06
1.68192e-06
1.68192e-06
1.68192e-06
1.68192e-06
1.68192e-06
1.68192e-06
1.68192e-06
1.68192e-06
1.68192e-06
1.68192e-06
1.68192e-06
1.68192e-06
1.68192e-06
1.68192e-06
1.68192e-06
1.68192e-06
1.68192e-06
1.68192e-06
1.68192e-06
1.68192e-06
1.68192e-06
1.68192e-06
1.68193e-06
1.68193e-06
1.68192e-06
1.68192e-06
1.68192e-06
)
;

boundaryField
{
    inlet
    {
        type            calculated;
        value           nonuniform 0();
    }
    outlet
    {
        type            calculated;
        value           nonuniform 0();
    }
    wall
    {
        type            calculated;
        value           uniform 0;
    }
    back
    {
        type            wedge;
        value           nonuniform List<scalar> 
1250
(
-1.05459e-17
-9.20234e-18
-8.01596e-18
-6.92005e-18
-5.86459e-18