/*--------------------------------*- C++ -*----------------------------------*\
| =========                 |                                                 |
| \\      /  F ield         | OpenFOAM: The Open Source CFD Toolbox           |
|  \\    /   O peration     | Version:                                        |
|   \\  /    A nd           | Website:  www.openfoam.com                      |
|    \\/     M anipulation  |                                                 |
\*---------------------------------------------------------------------------*/
FoamFile
{
    version     2.0;
    format      ascii;
    class       volVectorField;
    location    "71";
    object      U;
}
// * * * * * * * * * * * * * * * * * * * * * * * * * * * * * * * * * * * * * //

dimensions      [0 1 -1 0 0 0 0];


internalField   nonuniform List<vector> 
1250
(
(1.447 3.41629e-06 2.10881e-12)
(1.447 2.2536e-06 2.03136e-12)
(1.447 1.18052e-06 1.94436e-12)
(1.447 2.91406e-07 1.85114e-12)
(1.447 -4.49619e-07 1.75328e-12)
(1.447 -1.03632e-06 1.65074e-12)
(1.447 -1.50653e-06 1.54124e-12)
(1.447 -1.85496e-06 1.41918e-12)
(1.447 -2.12217e-06 1.27389e-12)
(1.447 -2.30062e-06 1.0878e-12)
(1.447 -2.42754e-06 8.32506e-13)
(1.447 -2.49102e-06 4.64417e-13)
(1.447 -2.52452e-06 -8.29177e-14)
(1.447 -2.51239e-06 -9.05363e-13)
(1.447 -2.48522e-06 -2.13654e-12)
(1.447 -2.42485e-06 -3.94955e-12)
(1.447 -2.35981e-06 -6.54387e-12)
(1.447 -2.27013e-06 -1.00857e-11)
(1.447 -2.18303e-06 -1.45163e-11)
(1.447 -2.07741e-06 -1.88449e-11)
(1.447 -1.97942e-06 -1.81026e-11)
(1.447 -1.86712e-06 -1.19609e-11)
(1.447 -1.76591e-06 -9.26724e-12)
(1.447 -1.65335e-06 -1.2763e-11)
(1.447 -1.55417e-06 -1.8069e-11)
(1.447 -1.44549e-06 -1.80496e-11)
(1.447 -1.35164e-06 -6.53599e-12)
(1.447 -1.24953e-06 9.05552e-12)
(1.447 -1.16305e-06 1.77984e-11)
(1.447 -1.06891e-06 2.02292e-11)
(1.447 -9.90757e-07 2.05093e-11)
(1.447 -9.05302e-07 1.98672e-11)
(1.447 -8.35864e-07 1.86666e-11)
(1.447 -7.59111e-07 1.71505e-11)
(1.447 -6.98232e-07 1.5553e-11)
(1.447 -6.29958e-07 1.38328e-11)
(1.447 -5.77304e-07 1.1565e-11)
(1.447 -5.16977e-07 8.40774e-12)
(1.447 -4.71923e-07 4.4449e-12)
(1.447 -4.18973e-07 -1.09655e-13)
(1.447 -3.80905e-07 -5.01676e-12)
(1.447 -3.34596e-07 -9.31566e-12)
(1.447 -3.02788e-07 -7.96265e-12)
(1.447 -2.62475e-07 -2.71708e-13)
(1.447 -2.36302e-07 5.09151e-12)
(1.447 -2.01273e-07 5.3428e-12)
(1.447 -1.80029e-07 4.09128e-12)
(1.447 -1.49697e-07 2.73311e-12)
(1.447 -1.32807e-07 1.65689e-12)
(1.447 -1.06528e-07 8.89033e-13)
(1.447 -9.33901e-08 3.56939e-13)
(1.447 -7.06683e-08 -2.10436e-14)
(1.447 -6.08302e-08 -3.12745e-13)
(1.447 -4.11391e-08 -5.72871e-13)
(1.447 -3.40955e-08 -8.49118e-13)
(1.447 -1.70508e-08 -1.19077e-12)
(1.447 -1.24314e-08 -1.65684e-12)
(1.447 2.4079e-09 -2.32897e-12)
(1.447 5.01245e-09 -3.32481e-12)
(1.447 1.79283e-08 -4.81354e-12)
(1.447 1.87663e-08 -7.00752e-12)
(1.447 3.01055e-08 -1.0019e-11)
(1.447 2.94978e-08 -1.30917e-11)
(1.447 3.94609e-08 -1.11169e-11)
(1.447 3.75889e-08 -3.06028e-12)
(1.447 4.64409e-08 2.92294e-12)
(1.447 4.35538e-08 4.24569e-12)
(1.447 5.14173e-08 4.17773e-12)
(1.447 4.76087e-08 3.75699e-12)
(1.447 5.46752e-08 3.30113e-12)
(1.447 5.01296e-08 2.89621e-12)
(1.447 5.648e-08 2.55565e-12)
(1.447 5.12669e-08 2.27193e-12)
(1.447 5.70704e-08 2.03247e-12)
(1.447 5.13517e-08 1.82397e-12)
(1.447 5.667e-08 1.63305e-12)
(1.447 5.04903e-08 1.44332e-12)
(1.447 5.54789e-08 1.22995e-12)
(1.447 4.90199e-08 9.38906e-13)
(1.447 5.37647e-08 1.35552e-12)
(1.447 4.71111e-08 1.18876e-12)
(1.447 5.18261e-08 1.1057e-12)
(1.447 4.51992e-08 1.1405e-12)
(1.447 5.00131e-08 5.02166e-13)
(1.447 4.35571e-08 4.8378e-13)
(1.447 4.87362e-08 4.29216e-13)
(1.447 4.27468e-08 3.35748e-13)
(1.447 4.85337e-08 1.58023e-13)
(1.447 4.32783e-08 6.83368e-13)
(1.447 5.00815e-08 6.17675e-13)
(1.447 4.60335e-08 6.23044e-13)
(1.447 5.42792e-08 7.28522e-13)
(1.447 5.19442e-08 1.40433e-13)
(1.447 6.2348e-08 1.53447e-13)
(1.447 6.25934e-08 1.15341e-13)
(1.447 7.60904e-08 2.89926e-14)
(1.447 8.00802e-08 -1.45676e-13)
(1.447 9.82101e-08 3.8238e-13)
(1.447 1.07847e-07 3.19778e-13)
(1.447 1.32829e-07 3.24169e-13)
(1.447 1.5088e-07 4.14931e-13)
(1.447 1.86224e-07 -2.17114e-13)
(1.447 2.17004e-07 -2.98482e-13)
(1.447 2.67843e-07 -5.07709e-13)
(1.447 3.17597e-07 -8.76515e-13)
(1.447 3.91508e-07 -1.49372e-12)
(1.447 4.69201e-07 -1.64296e-12)
(1.447 5.76472e-07 -2.73359e-12)
(1.447 6.93754e-07 -4.28482e-12)
(1.447 8.47089e-07 -6.52594e-12)
(1.447 1.01708e-06 -9.57569e-12)
(1.447 1.2293e-06 -1.26802e-11)
(1.447 1.46416e-06 -1.07325e-11)
(1.447 1.74665e-06 -2.69957e-12)
(1.447 2.05719e-06 3.26284e-12)
(1.447 2.42036e-06 4.56692e-12)
(1.447 2.81409e-06 4.48182e-12)
(1.447 3.25733e-06 4.0447e-12)
(1.447 3.71904e-06 3.57311e-12)
(1.447 4.19958e-06 3.15308e-12)
(1.447 4.6415e-06 2.79848e-12)
(1.447 5.0065e-06 2.50263e-12)
(1.447 5.17764e-06 2.25466e-12)
(1.447 5.01428e-06 2.04479e-12)
(1.447 4.39677e-06 1.86472e-12)
(1.33751 2.97606e-06 1.84046e-12)
(1.33751 1.9701e-06 1.78243e-12)
(1.33751 1.05798e-06 1.71823e-12)
(1.33751 2.75958e-07 1.65026e-12)
(1.33751 -3.57821e-07 1.58038e-12)
(1.33751 -8.87492e-07 1.50968e-12)
(1.33751 -1.29365e-06 1.4377e-12)
(1.33751 -1.62238e-06 1.36203e-12)
(1.33751 -1.85482e-06 1.27767e-12)
(1.33751 -2.03616e-06 1.17508e-12)
(1.33751 -2.14448e-06 1.03752e-12)
(1.33751 -2.2223e-06 8.38379e-13)
(1.33751 -2.24485e-06 5.35725e-13)
(1.33751 -2.2525e-06 6.74614e-14)
(1.33751 -2.21805e-06 -6.527e-13)
(1.33751 -2.17991e-06 -1.73297e-12)
(1.33751 -2.10925e-06 -3.27999e-12)
(1.33751 -2.04313e-06 -5.33244e-12)
(1.33751 -1.95142e-06 -7.70784e-12)
(1.33751 -1.86994e-06 -9.74358e-12)
(1.33751 -1.76774e-06 -1.01515e-11)
(1.33751 -1.67988e-06 -8.91409e-12)
(1.33751 -1.57469e-06 -8.03664e-12)
(1.33751 -1.48642e-06 -8.50495e-12)
(1.33751 -1.38305e-06 -9.18652e-12)
(1.3375 -1.29839e-06 -7.76966e-12)
(1.3375 -1.20009e-06 -2.61525e-12)
(1.3375 -1.12139e-06 4.56901e-12)
(1.3375 -1.02986e-06 1.06564e-11)
(1.3375 -9.58511e-07 1.45762e-11)
(1.3375 -8.74783e-07 1.66627e-11)
(1.3375 -8.11266e-07 1.71284e-11)
(1.3375 -7.35487e-07 1.60375e-11)
(1.3375 -6.79923e-07 1.38667e-11)
(1.3375 -6.12085e-07 1.15753e-11)
(1.3375 -5.64137e-07 9.71341e-12)
(1.3375 -5.03739e-07 8.06093e-12)
(1.3375 -4.63007e-07 6.04253e-12)
(1.3375 -4.0962e-07 3.11815e-12)
(1.3375 -3.75448e-07 -6.26131e-13)
(1.3375 -3.28329e-07 -4.28741e-12)
(1.3375 -3.00156e-07 -6.72249e-12)
(1.3375 -2.58792e-07 -6.67356e-12)
(1.3375 -2.35922e-07 -4.28128e-12)
(1.3375 -1.99577e-07 -1.7531e-12)
(1.3375 -1.81472e-07 -4.24207e-13)
(1.3375 -1.49657e-07 7.57e-15)
(1.3375 -1.35667e-07 -4.06114e-15)
(1.3375 -1.07693e-07 -1.72138e-13)
(1.3375 -9.73546e-08 -3.6255e-13)
(1.3375 -7.28389e-08 -5.29893e-13)
(1.3375 -6.56023e-08 -6.71154e-13)
(1.3375 -4.39696e-08 -8.00852e-13)
(1.3375 -3.94693e-08 -9.40917e-13)
(1.3375 -2.04152e-08 -1.11669e-12)
(1.3375 -1.81871e-08 -1.35863e-12)
(1.3375 -1.21424e-09 -1.70407e-12)
(1.3375 -9.82787e-10 -2.19966e-12)
(1.3375 1.41123e-08 -2.90083e-12)
(1.3375 1.27076e-08 -3.86094e-12)
(1.3375 2.63137e-08 -5.08759e-12)
(1.3375 2.3461e-08 -6.42235e-12)
(1.3375 3.57051e-08 -7.27809e-12)
(1.3375 3.16986e-08 -6.38421e-12)
(1.3375 4.29091e-08 -3.60128e-12)
(1.3375 3.78624e-08 -8.13888e-13)
(1.3375 4.8089e-08 8.30206e-13)
(1.3375 4.22135e-08 1.62477e-12)
(1.3375 5.17074e-08 1.93814e-12)
(1.3375 4.50583e-08 2.0074e-12)
(1.3375 5.38266e-08 1.96206e-12)
(1.3375 4.65897e-08 1.86767e-12)
(1.3375 5.48649e-08 1.75573e-12)
(1.3375 4.70695e-08 1.63935e-12)
(1.3375 5.48278e-08 1.52212e-12)
(1.3375 4.66307e-08 1.40228e-12)
(1.3375 5.40835e-08 1.27542e-12)
(1.3375 4.55097e-08 1.14016e-12)
(1.3375 5.26552e-08 1.01513e-12)
(1.3375 4.3894e-08 1.00659e-12)
(1.3375 5.09821e-08 9.22503e-13)
(1.3375 4.20972e-08 8.28544e-13)
(1.3375 4.91515e-08 7.32776e-13)
(1.3375 4.03631e-08 5.40806e-13)
(1.3375 4.76742e-08 4.50227e-13)
(1.3375 3.91006e-08 3.96799e-13)
(1.3375 4.67638e-08 3.57419e-13)
(1.3375 3.87259e-08 3.41067e-13)
(1.3375 4.71363e-08 4.47286e-13)
(1.3375 3.98721e-08 4.74163e-13)
(1.3375 4.92547e-08 4.7445e-13)
(1.3375 4.32398e-08 4.45167e-13)
(1.3375 5.41895e-08 2.87973e-13)
(1.3375 4.99374e-08 2.04982e-13)
(1.3375 6.30365e-08 1.42002e-13)
(1.3375 6.14965e-08 8.64763e-14)
(1.3375 7.79399e-08 5.73042e-14)
(1.3375 8.03919e-08 1.60872e-13)
(1.3375 1.01724e-07 1.96848e-13)
(1.3375 1.10329e-07 2.13158e-13)
(1.3375 1.39259e-07 1.93149e-13)
(1.3375 1.57183e-07 1.673e-14)
(1.3375 1.97564e-07 -1.38661e-13)
(1.3375 2.29748e-07 -3.52071e-13)
(1.3375 2.8758e-07 -6.59845e-13)
(1.3375 3.41035e-07 -1.0725e-12)
(1.3375 4.24524e-07 -1.52304e-12)
(1.3375 5.08903e-07 -2.26004e-12)
(1.3375 6.28711e-07 -3.27565e-12)
(1.3375 7.55174e-07 -4.55768e-12)
(1.3375 9.22423e-07 -5.94176e-12)
(1.3375 1.10177e-06 -6.83961e-12)
(1.3375 1.32687e-06 -5.9815e-12)
(1.3375 1.56925e-06 -3.22903e-12)
(1.3375 1.86255e-06 -4.67894e-13)
(1.3375 2.17769e-06 1.15286e-12)
(1.3375 2.5458e-06 1.92614e-12)
(1.3375 2.93136e-06 2.21923e-12)
(1.3375 3.35237e-06 2.26876e-12)
(1.3375 3.75721e-06 2.20417e-12)
(1.33751 4.13662e-06 2.09122e-12)
(1.33751 4.40688e-06 1.96183e-12)
(1.33751 4.50648e-06 1.83118e-12)
(1.33751 4.3361e-06 1.7056e-12)
(1.33751 3.80554e-06 1.58783e-12)
(1.21794 2.45699e-06 1.6028e-12)
(1.21794 1.65586e-06 1.55484e-12)
(1.21794 9.19983e-07 1.50548e-12)
(1.21794 2.82613e-07 1.45643e-12)
(1.21794 -2.5082e-07 1.40992e-12)
(1.21794 -6.98904e-07 1.36773e-12)
(1.21794 -1.05599e-06 1.33189e-12)
(1.21794 -1.34327e-06 1.30352e-12)
(1.21794 -1.55721e-06 1.28333e-12)
(1.21794 -1.71954e-06 1.27029e-12)
(1.21794 -1.82576e-06 1.26005e-12)
(1.21794 -1.89641e-06 1.24332e-12)
(1.21794 -1.92556e-06 1.20104e-12)
(1.21794 -1.93239e-06 1.09904e-12)
(1.21794 -1.90932e-06 8.80266e-13)
(1.21794 -1.874e-06 4.58083e-13)
(1.21794 -1.81755e-06 -2.77035e-13)
(1.21794 -1.75645e-06 -1.41459e-12)
(1.21794 -1.68063e-06 -2.90313e-12)
(1.21794 -1.60547e-06 -4.37268e-12)
(1.21794 -1.5201e-06 -5.21618e-12)
(1.21794 -1.4392e-06 -5.23736e-12)
(1.21794 -1.35117e-06 -4.89619e-12)
(1.21794 -1.26999e-06 -4.58142e-12)
(1.21794 -1.1837e-06 -4.08318e-12)
(1.21794 -1.10589e-06 -2.64861e-12)
(1.21794 -1.0242e-06 3.90107e-13)
(1.21794 -9.5181e-07 4.74076e-12)
(1.21794 -8.76237e-07 9.37829e-12)
(1.21794 -8.10478e-07 1.34027e-11)
(1.21794 -7.41854e-07 1.61606e-11)
(1.21794 -6.83093e-07 1.69206e-11)
(1.21794 -6.21524e-07 1.46923e-11)
(1.21794 -5.69834e-07 1.02445e-11)
(1.21794 -5.15264e-07 6.54515e-12)
(1.21794 -4.70298e-07 4.99404e-12)
(1.21794 -4.22257e-07 4.71721e-12)
(1.21794 -3.83637e-07 4.27805e-12)
(1.21794 -3.41707e-07 1.8152e-12)
(1.21794 -3.08816e-07 -2.69951e-12)
(1.21794 -2.7234e-07 -6.68056e-12)
(1.21794 -2.44688e-07 -8.55367e-12)
(1.21794 -2.13195e-07 -8.53286e-12)
(1.21794 -1.90143e-07 -7.21436e-12)
(1.21794 -1.6299e-07 -5.49659e-12)
(1.21794 -1.44062e-07 -4.03416e-12)
(1.21794 -1.20795e-07 -2.99386e-12)
(1.21794 -1.05414e-07 -2.31496e-12)
(1.21794 -8.54525e-08 -1.88554e-12)
(1.21794 -7.32237e-08 -1.61439e-12)
(1.21794 -5.62068e-08 -1.44255e-12)
(1.21794 -4.66331e-08 -1.33829e-12)
(1.21794 -3.20863e-08 -1.28788e-12)
(1.21794 -2.48553e-08 -1.28954e-12)
(1.21794 -1.24876e-08 -1.34961e-12)
(1.21794 -7.18315e-09 -1.48008e-12)
(1.21794 3.41059e-09 -1.69812e-12)
(1.21794 7.00867e-09 -2.02336e-12)
(1.21794 1.60161e-08 -2.4729e-12)
(1.21794 1.82331e-08 -3.04792e-12)
(1.21794 2.59743e-08 -3.70565e-12)
(1.21794 2.69557e-08 -4.30999e-12)
(1.21794 3.35539e-08 -4.58173e-12)
(1.21794 3.35607e-08 -4.15726e-12)
(1.21794 3.9276e-08 -3.01865e-12)
(1.21794 3.83951e-08 -1.66472e-12)
(1.21794 4.32681e-08 -5.45236e-13)
(1.21794 4.16831e-08 2.35651e-13)
(1.21794 4.59231e-08 7.2846e-13)
(1.21794 4.36696e-08 1.01638e-12)
(1.21794 4.73004e-08 1.1706e-12)
(1.21794 4.45547e-08 1.24183e-12)
(1.21794 4.77399e-08 1.26234e-12)
(1.21794 4.45094e-08 1.25152e-12)
(1.21794 4.72482e-08 1.21883e-12)
(1.21794 4.36814e-08 1.1675e-12)
(1.21794 4.61442e-08 1.09637e-12)
(1.21794 4.22582e-08 1.00437e-12)
(1.21794 4.44619e-08 8.9747e-13)
(1.21794 4.04414e-08 7.92029e-13)
(1.21794 4.25895e-08 6.68256e-13)
(1.21794 3.84807e-08 5.49211e-13)
(1.21794 4.0619e-08 4.53808e-13)
(1.21794 3.66413e-08 3.76885e-13)
(1.21794 3.90183e-08 3.42046e-13)
(1.21794 3.52791e-08 3.33742e-13)
(1.21794 3.80116e-08 3.3708e-13)
(1.21794 3.48099e-08 3.49923e-13)
(1.21794 3.8228e-08 3.80718e-13)
(1.21794 3.57572e-08 3.92625e-13)
(1.21794 4.00723e-08 3.81529e-13)
(1.21794 3.87541e-08 3.43449e-13)
(1.21794 4.44583e-08 2.68932e-13)
(1.21794 4.47084e-08 1.96911e-13)
(1.21794 5.23078e-08 1.3374e-13)
(1.21794 5.49356e-08 8.47307e-14)
(1.21794 6.54239e-08 6.31322e-14)
(1.21794 7.14964e-08 8.76468e-14)
(1.21794 8.62216e-08 1.25542e-13)
(1.21794 9.76294e-08 1.66544e-13)
(1.21794 1.18958e-07 1.8475e-13)
(1.21794 1.38483e-07 1.35038e-13)
(1.21794 1.69862e-07 2.01349e-14)
(1.21794 2.01912e-07 -1.75122e-13)
(1.21794 2.48675e-07 -4.53561e-13)
(1.21794 2.99452e-07 -8.08899e-13)
(1.21794 3.68831e-07 -1.23503e-12)
(1.21794 4.46719e-07 -1.77707e-12)
(1.21794 5.47834e-07 -2.43528e-12)
(1.21794 6.62138e-07 -3.16404e-12)
(1.21794 8.04186e-07 -3.82747e-12)
(1.21794 9.6406e-07 -4.1477e-12)
(1.21794 1.15613e-06 -3.76308e-12)
(1.21794 1.37039e-06 -2.65768e-12)
(1.21794 1.62059e-06 -1.33227e-12)
(1.21794 1.89508e-06 -2.38018e-13)
(1.21794 2.20401e-06 5.19545e-13)
(1.21794 2.52911e-06 9.89663e-13)
(1.21794 2.86999e-06 1.25492e-12)
(1.21794 3.19579e-06 1.38597e-12)
(1.21794 3.4875e-06 1.43338e-12)
(1.21794 3.69315e-06 1.43017e-12)
(1.21794 3.75618e-06 1.39701e-12)
(1.21794 3.5941e-06 1.34694e-12)
(1.21794 3.13856e-06 1.2878e-12)
(1.0883 1.9454e-06 1.38399e-12)
(1.0883 1.36016e-06 1.34196e-12)
(1.0883 8.03857e-07 1.3029e-12)
(1.0883 3.05817e-07 1.26872e-12)
(1.0883 -1.27415e-07 1.24174e-12)
(1.0883 -4.97495e-07 1.22503e-12)
(1.0883 -8.02264e-07 1.22256e-12)
(1.0883 -1.04866e-06 1.23969e-12)
(1.0883 -1.23871e-06 1.28282e-12)
(1.0883 -1.3816e-06 1.36005e-12)
(1.0883 -1.4802e-06 1.48075e-12)
(1.0883 -1.54389e-06 1.65434e-12)
(1.0883 -1.57524e-06 1.88731e-12)
(1.0883 -1.58274e-06 2.17539e-12)
(1.0883 -1.56789e-06 2.48801e-12)
(1.0883 -1.5381e-06 2.73993e-12)
(1.0883 -1.49378e-06 2.75259e-12)
(1.0883 -1.44129e-06 2.23879e-12)
(1.0883 -1.37994e-06 9.47369e-13)
(1.0883 -1.31517e-06 -7.96919e-13)
(1.0883 -1.2456e-06 -2.0778e-12)
(1.0883 -1.17598e-06 -2.36203e-12)
(1.0883 -1.10419e-06 -1.87437e-12)
(1.0883 -1.03444e-06 -1.1194e-12)
(1.0883 -9.64309e-07 -4.47568e-13)
(1.0883 -8.97607e-07 4.78663e-13)
(1.0883 -8.31467e-07 2.54697e-12)
(1.0883 -7.69489e-07 6.12464e-12)
(1.0883 -7.08697e-07 1.07344e-11)
(1.0883 -6.52445e-07 1.5513e-11)
(1.0883 -5.97556e-07 1.94057e-11)
(1.0883 -5.47276e-07 2.10134e-11)
(1.0883 -4.98413e-07 1.56314e-11)
(1.0883 -4.5414e-07 4.3646e-12)
(1.0883 -4.11152e-07 -2.21611e-12)
(1.0883 -3.72538e-07 -1.56625e-12)
(1.0883 -3.35064e-07 1.7684e-12)
(1.0883 -3.01786e-07 5.16168e-12)
(1.0883 -2.69373e-07 2.41276e-12)
(1.0883 -2.4086e-07 -6.96866e-12)
(1.0883 -2.13008e-07 -1.31349e-11)
(1.0883 -1.88872e-07 -1.34551e-11)
(1.0883 -1.65116e-07 -1.1992e-11)
(1.0883 -1.44771e-07 -1.001e-11)
(1.0883 -1.24635e-07 -8.028e-12)
(1.0883 -1.07695e-07 -6.30683e-12)
(1.0883 -9.07067e-08 -4.9319e-12)
(1.0883 -7.66807e-08 -3.8867e-12)
(1.0883 -6.24406e-08 -3.11283e-12)
(1.0883 -5.1018e-08 -2.5477e-12)
(1.0883 -3.91295e-08 -2.13912e-12)
(1.0883 -2.98571e-08 -1.84939e-12)
(1.0883 -2.00298e-08 -1.65393e-12)
(1.0883 -1.26763e-08 -1.53853e-12)
(1.0883 -4.5708e-09 -1.49694e-12)
(1.0883 1.23675e-09 -1.52855e-12)
(1.0883 7.86727e-09 -1.63597e-12)
(1.0883 1.22758e-08 -1.82228e-12)
(1.0883 1.76647e-08 -2.08571e-12)
(1.0883 2.09729e-08 -2.41068e-12)
(1.0883 2.53013e-08 -2.75487e-12)
(1.0883 2.7596e-08 -3.03439e-12)
(1.0883 3.10406e-08 -3.1237e-12)
(1.0883 3.25562e-08 -2.90077e-12)
(1.0883 3.52508e-08 -2.3615e-12)
(1.0883 3.60415e-08 -1.65665e-12)
(1.0883 3.80781e-08 -9.63253e-13)
(1.0883 3.83002e-08 -3.79148e-13)
(1.0883 3.97816e-08 6.90722e-14)
(1.0883 3.94397e-08 3.93064e-13)
(1.0883 4.04733e-08 6.18035e-13)
(1.0883 3.97461e-08 7.69726e-13)
(1.0883 4.03546e-08 8.69146e-13)
(1.0883 3.92137e-08 9.3135e-13)
(1.0883 3.94937e-08 9.64575e-13)
(1.0883 3.80949e-08 9.7054e-13)
(1.0883 3.81061e-08 9.44381e-13)
(1.0883 3.64384e-08 8.76582e-13)
(1.0883 3.62841e-08 7.57877e-13)
(1.0883 3.45398e-08 5.88889e-13)
(1.0883 3.43122e-08 3.9098e-13)
(1.0883 3.25078e-08 2.24373e-13)
(1.0883 3.23405e-08 1.44066e-13)
(1.0883 3.07062e-08 1.48234e-13)
(1.0883 3.07394e-08 2.0055e-13)
(1.0883 2.93501e-08 2.62519e-13)
(1.0883 2.97788e-08 3.12154e-13)
(1.0883 2.89254e-08 3.44157e-13)
(1.0883 2.99465e-08 3.60173e-13)
(1.0883 2.97601e-08 3.56305e-13)
(1.0883 3.16324e-08 3.31987e-13)
(1.0883 3.24887e-08 2.87404e-13)
(1.0883 3.55261e-08 2.24625e-13)
(1.0883 3.77183e-08 1.54905e-13)
(1.0883 4.23986e-08 8.72687e-14)
(1.0883 4.65952e-08 3.15637e-14)
(1.0883 5.36239e-08 1.82564e-15)
(1.0883 6.06413e-08 1.3451e-14)
(1.0883 7.11938e-08 7.14727e-14)
(1.0883 8.26139e-08 1.7021e-13)
(1.0883 9.85749e-08 2.74359e-13)
(1.0883 1.16694e-07 3.13289e-13)
(1.0883 1.41054e-07 2.31196e-13)
(1.0883 1.69626e-07 2.54177e-14)
(1.0883 2.06811e-07 -2.65905e-13)
(1.0883 2.51031e-07 -6.06786e-13)
(1.0883 3.07176e-07 -9.79879e-13)
(1.0883 3.73991e-07 -1.38717e-12)
(1.0883 4.5641e-07 -1.82118e-12)
(1.0883 5.53202e-07 -2.2474e-12)
(1.0883 6.69365e-07 -2.58932e-12)
(1.0883 8.03557e-07 -2.72664e-12)
(1.0883 9.60534e-07 -2.5418e-12)
(1.0883 1.13866e-06 -2.03369e-12)
(1.0883 1.34166e-06 -1.35564e-12)
(1.0883 1.56551e-06 -6.86525e-13)
(1.0883 1.80956e-06 -1.25749e-13)
(1.0883 2.06413e-06 2.98842e-13)
(1.0883 2.32106e-06 5.98036e-13)
(1.0883 2.56109e-06 7.96204e-13)
(1.0883 2.7655e-06 9.18343e-13)
(1.0883 2.90342e-06 9.85863e-13)
(1.0883 2.93286e-06 1.01506e-12)
(1.0883 2.79393e-06 1.01784e-12)
(1.0883 2.44813e-06 1.00285e-12)
(0.948588 1.46676e-06 1.17292e-12)
(0.948589 1.08297e-06 1.13557e-12)
(0.948589 6.94285e-07 1.105e-12)
(0.948589 3.22171e-07 1.08295e-12)
(0.948589 -1.45611e-08 1.07214e-12)
(0.948589 -3.11563e-07 1.07693e-12)
(0.948589 -5.60667e-07 1.10327e-12)
(0.948589 -7.66178e-07 1.16014e-12)
(0.948588 -9.25915e-07 1.25996e-12)
(0.948588 -1.048e-06 1.42003e-12)
(0.948588 -1.13253e-06 1.66411e-12)
(0.948588 -1.18874e-06 2.02387e-12)
(0.948587 -1.21695e-06 2.5381e-12)
(0.948587 -1.22594e-06 3.24785e-12)
(0.948587 -1.21535e-06 4.17652e-12)
(0.948587 -1.19316e-06 5.27395e-12)
(0.948587 -1.15803e-06 6.28475e-12)
(0.948586 -1.11699e-06 6.5097e-12)
(0.948586 -1.06786e-06 4.7087e-12)
(0.948586 -1.01688e-06 1.33096e-12)
(0.948586 -9.61166e-07 -9.229e-13)
(0.948586 -9.06344e-07 -8.30173e-13)
(0.948585 -8.48983e-07 7.19007e-13)
(0.948585 -7.9428e-07 2.44031e-12)
(0.948585 -7.38454e-07 2.79968e-12)
(0.948585 -6.86332e-07 2.1588e-12)
(0.948585 -6.33857e-07 3.21891e-12)
(0.948585 -5.85709e-07 7.22467e-12)
(0.948585 -5.37652e-07 1.33192e-11)
(0.948584 -4.9414e-07 2.02835e-11)
(0.948584 -4.50865e-07 2.6827e-11)
(0.948584 -4.12227e-07 3.47553e-11)
(0.948584 -3.73821e-07 2.26695e-11)
(0.948584 -3.39967e-07 -1.09862e-11)
(0.948584 -3.0624e-07 -2.21424e-11)
(0.948584 -2.76928e-07 -1.10358e-11)
(0.948584 -2.47596e-07 4.30407e-14)
(0.948584 -2.2247e-07 1.52943e-11)
(0.948584 -1.97117e-07 1.09197e-11)
(0.948584 -1.75789e-07 -1.83075e-11)
(0.948584 -1.54041e-07 -2.89945e-11)
(0.948584 -1.36107e-07 -2.0559e-11)
(0.948584 -1.17544e-07 -1.54836e-11)
(0.948584 -1.02607e-07 -1.20134e-11)
(0.948584 -8.68855e-08 -9.42796e-12)
(0.948584 -7.45593e-08 -7.42784e-12)
(0.948584 -6.12629e-08 -5.86967e-12)
(0.948583 -5.12313e-08 -4.66286e-12)
(0.948583 -4.00762e-08 -3.73664e-12)
(0.948583 -3.20197e-08 -3.03235e-12)
(0.948583 -2.2661e-08 -2.50234e-12)
(0.948583 -1.62961e-08 -2.10986e-12)
(0.948583 -8.53483e-09 -1.82784e-12)
(0.948583 -3.59823e-09 -1.63736e-12)
(0.948583 2.86474e-09 -1.52603e-12)
(0.948583 6.58311e-09 -1.48599e-12)
(0.948583 1.19031e-08 -1.51192e-12)
(0.948583 1.45929e-08 -1.59821e-12)
(0.948583 1.89853e-08 -1.73558e-12)
(0.948583 2.08005e-08 -1.9064e-12)
(0.948583 2.43689e-08 -2.07899e-12)
(0.948583 2.54521e-08 -2.20514e-12)
(0.948583 2.83659e-08 -2.2259e-12)
(0.948583 2.88134e-08 -2.09304e-12)
(0.948583 3.11299e-08 -1.80354e-12)
(0.948583 3.1057e-08 -1.40838e-12)
(0.948583 3.2886e-08 -9.80018e-13)
(0.948583 3.23401e-08 -5.75763e-13)
(0.948583 3.37234e-08 -2.26416e-13)
(0.948583 3.27754e-08 5.90411e-14)
(0.948583 3.38254e-08 2.84202e-13)
(0.948583 3.25367e-08 4.59363e-13)
(0.948583 3.3236e-08 5.95584e-13)
(0.948583 3.16638e-08 7.02496e-13)
(0.948583 3.21233e-08 7.85184e-13)
(0.948583 3.03123e-08 8.41691e-13)
(0.948583 3.05479e-08 8.59627e-13)
(0.948583 2.85749e-08 8.12664e-13)
(0.948583 2.87118e-08 6.6466e-13)
(0.948583 2.66581e-08 3.90543e-13)
(0.948583 2.67433e-08 3.28468e-14)
(0.948583 2.47142e-08 -2.41813e-13)
(0.948583 2.49043e-08 -2.78343e-13)
(0.948583 2.30202e-08 -1.23188e-13)
(0.948583 2.34087e-08 7.73696e-14)
(0.948583 2.18257e-08 2.36813e-13)
(0.948583 2.26181e-08 3.3284e-13)
(0.948583 2.14993e-08 3.7412e-13)
(0.948583 2.28234e-08 3.76636e-13)
(0.948583 2.23554e-08 3.52306e-13)
(0.948583 2.44502e-08 3.0805e-13)
(0.948583 2.48428e-08 2.4783e-13)
(0.948583 2.79044e-08 1.74463e-13)
(0.948583 2.94432e-08 9.23098e-14)
(0.948583 3.38508e-08 7.52375e-15)
(0.948583 3.69414e-08 -6.91728e-14)
(0.948583 4.31675e-08 -1.19018e-13)
(0.948583 4.84811e-08 -1.12473e-13)
(0.948583 5.74389e-08 -1.3374e-14)
(0.948583 6.61003e-08 1.9989e-13)
(0.948583 7.92084e-08 4.79936e-13)
(0.948583 9.30856e-08 6.54833e-13)
(0.948583 1.12732e-07 5.66404e-13)
(0.948584 1.34721e-07 2.59026e-13)
(0.948584 1.64393e-07 -1.2182e-13)
(0.948584 1.98704e-07 -4.90313e-13)
(0.948584 2.43292e-07 -8.24179e-13)
(0.948584 2.9527e-07 -1.12986e-12)
(0.948584 3.60383e-07 -1.41243e-12)
(0.948584 4.35774e-07 -1.65979e-12)
(0.948584 5.27124e-07 -1.83751e-12)
(0.948584 6.31309e-07 -1.89574e-12)
(0.948584 7.5373e-07 -1.79204e-12)
(0.948584 8.90658e-07 -1.52671e-12)
(0.948584 1.04606e-06 -1.15318e-12)
(0.948584 1.21383e-06 -7.45739e-13)
(0.948585 1.39413e-06 -3.62784e-13)
(0.948585 1.5761e-06 -3.65164e-14)
(0.948585 1.75444e-06 2.22733e-13)
(0.948586 1.91265e-06 4.17742e-13)
(0.948586 2.04047e-06 5.5699e-13)
(0.948587 2.11686e-06 6.51157e-13)
(0.948587 2.11846e-06 7.09978e-13)
(0.948587 2.01422e-06 7.42041e-13)
(0.948587 1.78527e-06 7.542e-13)
(0.798807 1.03471e-06 9.6214e-13)
(0.798808 8.25093e-07 9.30178e-13)
(0.798808 5.77314e-07 9.07198e-13)
(0.798808 3.15833e-07 8.95088e-13)
(0.798808 6.48629e-08 8.9685e-13)
(0.798808 -1.60981e-07 9.17642e-13)
(0.798808 -3.55317e-07 9.65159e-13)
(0.798808 -5.15505e-07 1.05114e-12)
(0.798807 -6.42353e-07 1.19281e-12)
(0.798807 -7.3803e-07 1.4157e-12)
(0.798807 -8.06071e-07 1.75708e-12)
(0.798807 -8.5002e-07 2.27166e-12)
(0.798806 -8.73817e-07 3.0386e-12)
(0.798806 -8.80869e-07 4.16899e-12)
(0.798806 -8.74534e-07 5.80693e-12)
(0.798806 -8.57466e-07 8.09193e-12)
(0.798806 -8.32282e-07 1.09628e-11)
(0.798805 -8.00916e-07 1.33373e-11)
(0.798805 -7.65252e-07 9.86509e-12)
(0.798805 -7.26522e-07 8.34182e-13)
(0.798805 -6.86079e-07 -3.67862e-12)
(0.798805 -6.44687e-07 -1.35886e-12)
(0.798804 -6.03249e-07 3.3454e-12)
(0.798804 -5.62154e-07 8.10671e-12)
(0.798804 -5.22032e-07 7.2974e-12)
(0.798804 -4.83042e-07 1.24017e-12)
(0.798804 -4.45632e-07 1.59671e-13)
(0.798804 -4.09734e-07 6.58396e-12)
(0.798804 -3.75668e-07 1.63411e-11)
(0.798803 -3.43321e-07 2.73758e-11)
(0.798803 -3.12923e-07 3.38548e-11)
(0.798803 -2.84221e-07 3.31378e-11)
(0.798803 -2.5744e-07 1.19976e-11)
(0.798803 -2.32334e-07 -2.23003e-11)
(0.798803 -2.09059e-07 -3.0218e-11)
(0.798803 -1.87293e-07 -1.6732e-11)
(0.798803 -1.67229e-07 -4.07955e-12)
(0.798803 -1.48551e-07 1.17776e-11)
(0.798803 -1.31439e-07 8.21591e-12)
(0.798803 -1.15527e-07 -1.92764e-11)
(0.798803 -1.01026e-07 -2.89082e-11)
(0.798803 -8.7589e-08 -2.0327e-11)
(0.798803 -7.54239e-08 -1.51919e-11)
(0.798803 -6.41463e-08 -1.17505e-11)
(0.798803 -5.39962e-08 -9.24772e-12)
(0.798803 -4.46244e-08 -7.33847e-12)
(0.798802 -3.62606e-08 -5.84984e-12)
(0.798802 -2.85068e-08 -4.68256e-12)
(0.798802 -2.16407e-08 -3.76917e-12)
(0.798802 -1.53063e-08 -3.05909e-12)
(0.798802 -9.77403e-09 -2.5125e-12)
(0.798802 -4.63325e-09 -2.09782e-12)
(0.798802 -1.8157e-10 -1.79036e-12)
(0.798802 3.93618e-09 -1.57166e-12)
(0.798802 7.42886e-09 -1.42769e-12)
(0.798802 1.06995e-08 -1.34803e-12)
(0.798802 1.3423e-08 -1.32401e-12)
(0.798802 1.59597e-08 -1.34703e-12)
(0.798802 1.79932e-08 -1.40619e-12)
(0.798802 1.99264e-08 -1.48623e-12)
(0.798802 2.14165e-08 -1.56538e-12)
(0.798802 2.28238e-08 -1.61576e-12)
(0.798802 2.38169e-08 -1.60775e-12)
(0.798802 2.47938e-08 -1.51917e-12)
(0.798802 2.53896e-08 -1.3474e-12)
(0.798802 2.59663e-08 -1.11098e-12)
(0.798802 2.61887e-08 -8.41097e-13)
(0.798802 2.64499e-08 -5.67855e-13)
(0.798802 2.63835e-08 -3.12384e-13)
(0.798802 2.63444e-08 -8.54935e-14)
(0.798802 2.59827e-08 1.10245e-13)
(0.798802 2.57017e-08 2.78455e-13)
(0.798802 2.51373e-08 4.25761e-13)
(0.798802 2.46346e-08 5.59441e-13)
(0.798802 2.38537e-08 6.84282e-13)
(0.798802 2.31899e-08 7.9775e-13)
(0.798802 2.22896e-08 8.80983e-13)
(0.798802 2.15061e-08 8.84028e-13)
(0.798802 2.05115e-08 7.12389e-13)
(0.798802 1.97001e-08 2.4606e-13)
(0.798802 1.87344e-08 -5.12926e-13)
(0.798802 1.79655e-08 -1.0768e-12)
(0.798802 1.70855e-08 -9.41942e-13)
(0.798802 1.64893e-08 -3.92142e-13)
(0.798802 1.58605e-08 7.78953e-14)
(0.798802 1.55496e-08 3.4772e-13)
(0.798802 1.52648e-08 4.56976e-13)
(0.798802 1.5396e-08 4.69681e-13)
(0.798802 1.56352e-08 4.32536e-13)
(0.798802 1.633e-08 3.715e-13)
(0.798802 1.71936e-08 2.9764e-13)
(0.798802 1.86203e-08 2.141e-13)
(0.798802 2.03115e-08 1.20428e-13)
(0.798802 2.26334e-08 1.52707e-14)
(0.798802 2.53183e-08 -1.00994e-13)
(0.798802 2.88082e-08 -2.2108e-13)
(0.798802 3.28525e-08 -3.22523e-13)
(0.798802 3.79198e-08 -3.53443e-13)
(0.798802 4.38544e-08 -2.19089e-13)
(0.798802 5.12838e-08 1.99137e-13)
(0.798802 6.01647e-08 8.96877e-13)
(0.798802 7.12543e-08 1.38378e-12)
(0.798802 8.47251e-08 1.15419e-12)
(0.798802 1.01613e-07 4.90493e-13)
(0.798803 1.22327e-07 -1.13096e-13)
(0.798803 1.48118e-07 -5.35964e-13)
(0.798803 1.79626e-07 -8.16256e-13)
(0.798803 2.1827e-07 -1.01375e-12)
(0.798803 2.64745e-07 -1.16616e-12)
(0.798803 3.20345e-07 -1.28418e-12)
(0.798803 3.85653e-07 -1.3577e-12)
(0.798803 4.61721e-07 -1.36596e-12)
(0.798803 5.48626e-07 -1.29122e-12)
(0.798803 6.46587e-07 -1.13264e-12)
(0.798803 7.54351e-07 -9.10167e-13)
(0.798803 8.70225e-07 -6.55817e-13)
(0.798804 9.89963e-07 -4.00457e-13)
(0.798804 1.10825e-06 -1.66456e-13)
(0.798804 1.21713e-06 3.4035e-14)
(0.798805 1.30828e-06 1.96773e-13)
(0.798805 1.37283e-06 3.22685e-13)
(0.798806 1.40076e-06 4.15827e-13)
(0.798806 1.38495e-06 4.81116e-13)
(0.798806 1.31308e-06 5.23753e-13)
(0.798806 1.19592e-06 5.48443e-13)
(0.638964 6.68471e-07 7.4813e-13)
(0.638964 5.97006e-07 7.22663e-13)
(0.638965 4.46309e-07 7.06773e-13)
(0.638965 2.82347e-07 7.02124e-13)
(0.638965 9.63571e-08 7.11929e-13)
(0.638965 -5.3225e-08 7.41549e-13)
(0.638965 -2.02504e-07 7.99449e-13)
(0.638964 -3.05555e-07 8.98477e-13)
(0.638964 -4.06381e-07 1.05816e-12)
(0.638964 -4.62802e-07 1.30832e-12)
(0.638964 -5.2141e-07 1.69469e-12)
(0.638964 -5.40963e-07 2.28833e-12)
(0.638963 -5.68388e-07 3.20168e-12)
(0.638963 -5.62176e-07 4.61902e-12)
(0.638963 -5.68726e-07 6.8573e-12)
(0.638963 -5.45998e-07 1.05046e-11)
(0.638963 -5.39819e-07 1.67673e-11)
(0.638962 -5.0757e-07 2.8445e-11)
(0.638962 -4.94445e-07 2.1589e-11)
(0.638962 -4.57469e-07 -8.04725e-12)
(0.638962 -4.41376e-07 -1.68119e-11)
(0.638962 -4.02878e-07 -4.60418e-12)
(0.638962 -3.86279e-07 6.86782e-12)
(0.638961 -3.48219e-07 2.22936e-11)
(0.638961 -3.32682e-07 1.86012e-11)
(0.638961 -2.96227e-07 -7.95744e-12)
(0.638961 -2.82578e-07 -1.33497e-11)
(0.638961 -2.48336e-07 2.93895e-12)
(0.638961 -2.36992e-07 1.98113e-11)
(0.638961 -2.05247e-07 4.30801e-11)
(0.638961 -1.96339e-07 5.20807e-11)
(0.63896 -1.6709e-07 1.76144e-11)
(0.63896 -1.6061e-07 -2.62073e-11)
(0.63896 -1.33826e-07 -3.63534e-11)
(0.63896 -1.29611e-07 -2.72073e-11)
(0.63896 -1.0508e-07 -1.77513e-11)
(0.63896 -1.02986e-07 -9.35603e-12)
(0.63896 -8.0541e-08 -3.01806e-12)
(0.63896 -8.03219e-08 -3.41385e-12)
(0.63896 -5.97158e-08 -1.02004e-11)
(0.63896 -6.12078e-08 -1.42373e-11)
(0.63896 -4.22564e-08 -1.3365e-11)
(0.63896 -4.52053e-08 -1.14045e-11)
(0.63896 -2.76833e-08 -9.42608e-12)
(0.63896 -3.193e-08 -7.69343e-12)
(0.63896 -1.56811e-08 -6.2429e-12)
(0.63896 -2.10251e-08 -5.05197e-12)
(0.63896 -5.82437e-09 -4.08637e-12)
(0.63896 -1.21381e-08 -3.31193e-12)
(0.63896 2.13112e-09 -2.69744e-12)
(0.63896 -4.98966e-09 -2.21591e-12)
(0.63896 8.51006e-09 -1.84409e-12)
(0.63896 7.02608e-10 -1.56295e-12)
(0.63896 1.35252e-08 -1.35708e-12)
(0.63896 5.1562e-09 -1.21416e-12)
(0.63896 1.74417e-08 -1.12428e-12)
(0.63896 8.57519e-09 -1.07862e-12)
(0.63896 2.03795e-08 -1.06866e-12)
(0.63896 1.11185e-08 -1.08466e-12)
(0.63896 2.25438e-08 -1.11495e-12)
(0.63896 1.29217e-08 -1.14512e-12)
(0.63896 2.39993e-08 -1.1587e-12)
(0.63896 1.40968e-08 -1.14006e-12)
(0.63896 2.49132e-08 -1.07778e-12)
(0.63896 1.47329e-08 -9.69548e-13)
(0.63896 2.52735e-08 -8.22534e-13)
(0.63896 1.48872e-08 -6.50463e-13)
(0.63896 2.52338e-08 -4.68715e-13)
(0.63896 1.46223e-08 -2.89454e-13)
(0.63896 2.4773e-08 -1.20401e-13)
(0.63896 1.39842e-08 3.63135e-14)
(0.63896 2.39884e-08 1.82998e-13)
(0.63896 1.30351e-08 3.26091e-13)
(0.63896 2.28872e-08 4.75234e-13)
(0.63896 1.18077e-08 6.41336e-13)
(0.63896 2.15784e-08 8.321e-13)
(0.63896 1.03823e-08 1.0384e-12)
(0.63896 2.00916e-08 1.19958e-12)
(0.63896 8.85888e-09 1.12861e-12)
(0.63896 1.85999e-08 4.06579e-13)
(0.63896 7.36742e-09 -1.47618e-12)
(0.63896 1.71839e-08 -2.96317e-12)
(0.63896 6.05553e-09 -2.10713e-12)
(0.63896 1.60808e-08 -4.01367e-13)
(0.63896 5.13721e-09 4.701e-13)
(0.63896 1.54416e-08 7.41606e-13)
(0.63896 4.81919e-09 7.36617e-13)
(0.63896 1.55446e-08 6.34656e-13)
(0.63896 5.31179e-09 5.12393e-13)
(0.63896 1.65255e-08 3.94974e-13)
(0.63896 6.8279e-09 2.85562e-13)
(0.63896 1.86328e-08 1.78426e-13)
(0.63896 9.53516e-09 6.46542e-14)
(0.63896 2.20058e-08 -6.62353e-14)
(0.63896 1.36574e-08 -2.24944e-13)
(0.63896 2.69257e-08 -4.18247e-13)
(0.63896 1.94574e-08 -6.35953e-13)