/*--------------------------------*- C++ -*----------------------------------*\
| =========                 |                                                 |
| \\      /  F ield         | OpenFOAM: The Open Source CFD Toolbox           |
|  \\    /   O peration     | Version:                                        |
|   \\  /    A nd           | Website:  www.openfoam.com                      |
|    \\/     M anipulation  |                                                 |
\*---------------------------------------------------------------------------*/
FoamFile
{
    version     2.0;
    format      ascii;
    class       volScalarField;
    location    "48";
    object      p;
}
// * * * * * * * * * * * * * * * * * * * * * * * * * * * * * * * * * * * * * //

dimensions      [0 2 -2 0 0 0 0];


internalField   nonuniform List<scalar> 
1147
(
-0.218226
-0.185711
-0.180907
-0.192238
-0.199012
-0.201572
-0.203067
-0.205823
-0.212953
-0.236658
-0.229779
-0.200025
-0.189431
-0.19792
-0.201203
-0.200874
-0.202135
-0.207315
-0.203131
-0.213965
-0.241911
-0.214744
-0.201078
-0.205901
-0.204821
-0.200007
-0.196995
-0.198892
-0.20524
-0.207514
-0.2463
-0.223152
-0.212818
-0.215159
-0.20999
-0.199993
-0.196671
-0.195396
-0.195498
-0.192547
-0.238472
-0.222467
-0.220802
-0.225239
-0.214795
-0.203793
-0.195596
-0.18942
-0.183673
-0.176409
-0.216953
-0.210631
-0.220546
-0.227073
-0.217194
-0.203566
-0.19176
-0.181537
-0.172216
-0.161865
-0.18195
-0.187093
-0.209739
-0.216678
-0.209617
-0.197011
-0.184239
-0.172419
-0.161212
-0.149027
-0.147686
-0.158732
-0.185547
-0.195549
-0.192846
-0.184142
-0.173437
-0.162251
-0.150442
-0.1374
-0.114445
-0.128489
-0.155011
-0.169598
-0.172185
-0.168389
-0.160966
-0.151384
-0.139835
-0.126611
-0.0920134
-0.10773
-0.131715
-0.147108
-0.153386
-0.153272
-0.148627
-0.140536
-0.129641
-0.1166
-0.0948167
-0.117316
-0.132075
-0.139385
-0.141022
-0.137724
-0.130565
-0.120277
-0.107457
-0.0933665
-0.112686
-0.125012
-0.131253
-0.132452
-0.129037
-0.122126
-0.112014
-0.0993195
-0.116369
-0.124784
-0.128184
-0.127297
-0.12282
-0.115408
-0.105044
-0.0922887
-0.125856
-0.128656
-0.128386
-0.124837
-0.118682
-0.110306
-0.099381
-0.0864376
-0.134779
-0.13064
-0.124079
-0.11612
-0.106472
-0.0949229
-0.0815945
-0.141994
-0.13367
-0.12425
-0.114519
-0.103649
-0.0913287
-0.0776865
-0.149432
-0.137265
-0.125039
-0.113693
-0.101414
-0.0885096
-0.0745176
-0.141142
-0.126304
-0.113136
-0.0996287
-0.0862758
-0.0720176
-0.145168
-0.128115
-0.113292
-0.0985289
-0.084621
-0.0700716
-0.149711
-0.131424
-0.114371
-0.0979394
-0.0833908
-0.0683509
-0.351733
-0.330026
-0.31017
-0.293495
-0.278527
-0.264888
-0.255674
-0.250507
-0.245975
-0.238263
-0.351637
-0.329448
-0.308861
-0.29017
-0.273581
-0.260172
-0.251751
-0.247258
-0.245969
-0.24353
-0.35271
-0.329797
-0.308625
-0.289337
-0.2725
-0.258694
-0.249191
-0.245914
-0.248666
-0.25178
-0.331459
-0.309636
-0.289943
-0.272761
-0.258826
-0.249542
-0.246915
-0.251482
-0.25727
-0.259221
-0.249365
-0.245869
-0.247919
-0.251745
-0.245976
-0.237731
-0.232536
-0.230729
-0.223264
-0.208232
-0.194063
-0.179946
-0.158441
-0.127455
-0.0681008
-0.0698544
-0.0707749
-0.0701732
-0.0679274
-0.0656221
-0.0630146
-0.0599705
-0.0566508
-0.0533407
-0.0500883
-0.0467856
-0.0434125
-0.0400168
-0.0366391
-0.0332935
-0.0300019
-0.0268145
-0.0237806
-0.0209283
-0.0182779
-0.0158533
-0.0136795
-0.011779
-0.0101646
-0.00884071
-0.00780406
-0.00703529
-0.00651729
-0.00626264
-0.0831069
-0.0845817
-0.0847956
-0.0828158
-0.0787503
-0.0750084
-0.0712991
-0.0670847
-0.0626322
-0.0583758
-0.0542481
-0.0500761
-0.0459265
-0.0419012
-0.0380125
-0.0342609
-0.0306651
-0.0272557
-0.0240648
-0.0211093
-0.0183988
-0.0159458
-0.0137665
-0.0118768
-0.0102836
-0.00898783
-0.00798655
-0.0072624
-0.00678774
-0.00655324
-0.0992054
-0.101773
-0.0996516
-0.093547
-0.0875184
-0.0835848
-0.079615
-0.074387
-0.0688276
-0.0636855
-0.0586504
-0.0535476
-0.0485945
-0.0439031
-0.0394457
-0.0352352
-0.031294
-0.0276342
-0.0242691
-0.0212042
-0.0184384
-0.0159699
-0.0138029
-0.0119415
-0.0103837
-0.00912555
-0.00816324
-0.00748118
-0.00704697
-0.00683577
-0.116627
-0.119322
-0.115184
-0.106602
-0.0987117
-0.0936815
-0.0882147
-0.0814108
-0.07499
-0.0691934
-0.0632355
-0.057232
-0.051561
-0.0462214
-0.0411714
-0.036474
-0.0321482
-0.0281925
-0.0246089
-0.0213977
-0.018547
-0.0160409
-0.0138706
-0.0120262
-0.0104958
-0.00926986
-0.00834194
-0.00769582
-0.00729691
-0.00710938
-0.137701
-0.140388
-0.129895
-0.11685
-0.109666
-0.105408
-0.098239
-0.0895282
-0.0822657
-0.0756011
-0.0684696
-0.0615463
-0.055155
-0.0490917
-0.0433944
-0.0381734
-0.0334162
-0.029106
-0.0252475
-0.0218368
-0.0188493
-0.016259
-0.0140448
-0.0121835
-0.0106539
-0.00944085
-0.00853338
-0.00791201
-0.00754007
-0.00737344
-0.0738647
-0.0661749
-0.0590781
-0.0522588
-0.0459393
-0.0402126
-0.0350129
-0.030328
-0.0261731
-0.0225305
-0.0193662
-0.0166503
-0.0143517
-0.0124366
-0.0108772
-0.0096527
-0.0087468
-0.00813528
-0.00777916
-0.00762763
0.0869171
0.0735502
0.0609341
0.047507
0.0326139
0.0155351
-0.00179407
-0.0204704
-0.0375013
-0.0539529
0.0904506
0.076906
0.0637031
0.0488681
0.0326875
0.0145051
-0.00388959
-0.022255
-0.0393764
-0.0553371
0.0943661
0.0794643
0.0643738
0.0477253
0.0301071
0.0115728
-0.00690039
-0.0245945
-0.0413855
-0.0571554
0.0988259
0.0817536
0.0643449
0.046059
0.0272709
0.00861075
-0.00974629
-0.0271254
-0.0438178
-0.0595235
0.102898
0.0837341
0.0640776
0.0443619
0.0246205
0.00565531
-0.0127461
-0.0301955
-0.0469484
-0.0626875
0.105888
0.0848705
0.0634277
0.0424157
0.0218679
0.00229299
-0.0164092
-0.0341161
-0.0509564
-0.0667608
0.107753
0.0849264
0.061995
0.0398007
0.018393
-0.00182441
-0.0210056
-0.0389753
-0.0559557
-0.0717193
0.10881
0.0840606
0.0596527
0.0362643
0.0139599
-0.00694889
-0.026571
-0.0448591
-0.0619132
-0.0777136
0.109134
0.0823535
0.0563382
0.0316444
0.0083972
-0.0132224
-0.0332558
-0.0518148
-0.0689574
-0.0847797
0.108338
0.0794771
0.0517618
0.0256725
0.0014645
-0.0208318
-0.0412167
-0.0599569
-0.0771134
-0.0929162
0.106054
0.0750021
0.0455251
0.0180211
-0.00711832
-0.0299997
-0.0506175
-0.0693848
-0.0864066
-0.102087
0.102047
0.0686054
0.0372361
0.00833801
-0.0176912
-0.0410024
-0.0616955
-0.0802671
-0.0969452
-0.112325
0.0957944
0.0597677
0.0263486
-0.00390773
-0.0307606
-0.0542691
-0.0748052
-0.0928382
-0.108894
-0.123623
0.0866287
0.0478096
0.0122783
-0.0192884
-0.0467607
-0.0702619
-0.0902979
-0.107356
-0.122392
-0.136083
0.0737012
0.0318929
-0.00574619
-0.0385509
-0.0663834
-0.0895841
-0.108657
-0.124249
-0.13773
-0.150053
0.0558424
0.0109328
-0.0286519
-0.0624124
-0.090193
-0.112665
-0.130291
-0.144117
-0.155527
-0.166193
0.0311318
-0.0171725
-0.0583685
-0.0921564
-0.119093
-0.139728
-0.155244
-0.167294
-0.176924
-0.185485
-0.00160915
-0.0538054
-0.0976774
-0.13101
-0.154801
-0.17058
-0.182047
-0.192218
-0.202365
-0.208631
-0.04256
-0.0970627
-0.142601
-0.176059
-0.195482
-0.202074
-0.202875
-0.207226
-0.225381
-0.235137
-0.114942
-0.171877
-0.212435
-0.23621
-0.242841
-0.234727
-0.216538
-0.205572
-0.218213
-0.24507
0.15226
0.138742
0.12288
0.105274
0.167639
0.15446
0.139433
0.123
0.105734
0.194383
0.185015
0.17324
0.159072
0.143175
0.126632
0.109939
0.215917
0.214982
0.210775
0.203535
0.193345
0.180829
0.166105
0.149653
0.132762
0.115641
0.227946
0.226741
0.222086
0.214322
0.203455
0.190169
0.174892
0.15774
0.139779
0.121407
0.241213
0.239871
0.234832
0.226556
0.214965
0.20061
0.184446
0.166246
0.146723
0.126464
0.255678
0.254231
0.248735
0.239777
0.227315
0.211581
0.194021
0.174428
0.153098
0.130613
0.271228
0.269611
0.263502
0.253578
0.240057
0.222777
0.203256
0.181877
0.158647
0.134005
0.287765
0.285846
0.278972
0.267748
0.252939
0.234046
0.212157
0.188466
0.163138
0.136503
0.305236
0.302867
0.295111
0.282297
0.26584
0.24524
0.22093
0.194514
0.166613
0.137796
0.323621
0.320647
0.31193
0.297363
0.278734
0.25614
0.229491
0.200211
0.169355
0.137829
0.342922
0.339168
0.329378
0.313041
0.291724
0.266593
0.237418
0.205203
0.171211
0.136545
0.363107
0.358387
0.347291
0.329156
0.304894
0.276532
0.244288
0.208824
0.171485
0.133433
0.384073
0.378233
0.365406
0.345274
0.318038
0.285857
0.249799
0.210538
0.169389
0.127688
0.405507
0.398497
0.383412
0.360765
0.330423
0.294085
0.253493
0.209756
0.16421
0.118398
0.426906
0.418737
0.400989
0.375082
0.341092
0.300265
0.254573
0.205595
0.155033
0.104499
0.447414
0.438046
0.417442
0.387479
0.349022
0.30301
0.251639
0.196658
0.140341
0.0844387
0.466005
0.455142
0.431579
0.396944
0.353087
0.301038
0.243081
0.181447
0.118564
0.0568761
0.480786
0.467947
0.440823
0.400955
0.350387
0.291038
0.225184
0.156044
0.0863491
0.0195149
0.490155
0.475339
0.444577
0.399096
0.340257
0.271069
0.194185
0.113244
0.0319775
-0.0456075
0.111798
0.138612
0.12491
0.108972
0.0984336
0.0861289
0.0759574
0.0673192
0.0591356
0.0512548
0.043771
0.0368656
0.0305655
0.0247618
0.0194417
0.0146301
0.0103643
0.00667359
0.00350098
0.000774321
-0.00146475
-0.00316013
-0.00430632
-0.00496382
-0.0052234
-0.00517242
-0.00489413
-0.00446201
-0.00393631
-0.00337922
-0.00286908
-0.00242658
-0.00196808
-0.00137429
0.0923635
0.0813241
0.0721715
0.0640879
0.0562449
0.0485216
0.0411102
0.0342475
0.0279451
0.0220895
0.0166953
0.0117959
0.00742716
0.00363124
0.000393618
-0.00227743
-0.00434033
-0.00578329
-0.0066398
-0.00700371
-0.00697962
-0.00666091
-0.00613636
-0.00548347
-0.00476298
-0.0040344
-0.00338509
-0.00286907
-0.00243749
-0.00192348
0.0829545
0.0765234
0.0694459
0.0621687
0.0545933
0.0468295
0.0393992
0.0325331
0.0261343
0.0201105
0.0145221
0.00939653
0.00476251
0.000673507
-0.00279696
-0.00550699
-0.00743149
-0.00862792
-0.00918569
-0.00923574
-0.00890044
-0.00828383
-0.00748181
-0.00657774
-0.00563507
-0.00470976
-0.00389383
-0.00327919
-0.00286183
-0.00247151
0.0693596
0.0638178
0.0589353
0.0530227
0.046515
0.0397585
0.033228
0.0270295
0.0210803
0.0153845
0.0100579
0.00512242
0.000595203
-0.00348802
-0.00692296
-0.00944606
-0.0110503
-0.0118605
-0.01202
-0.0116857
-0.0109919
-0.0100478
-0.008949
-0.00777936
-0.00660346
-0.00547156
-0.00447172
-0.00372751
-0.00328705
-0.00300588
0.05532
0.0476648
0.0427165
0.0370165
0.0311691
0.0252863
0.0198544
0.0147989
0.00999442
0.00542327
0.00117342
-0.00275761
-0.00634556
-0.0095711
-0.0121314
-0.0138411
-0.0147264
-0.0149214
-0.0145727
-0.013823
-0.0127912
-0.0115712
-0.0102412
-0.00887233
-0.00752291
-0.0062356
-0.00508578
-0.00421166
-0.00371304
-0.00349385
0.0429283
0.0347225
0.0284974
0.0214999
0.0154626
0.00999891
0.00530406
0.00101754
-0.0029255
-0.00651118
-0.00967493
-0.0124349
-0.0147223
-0.0164546
-0.0175532
-0.0180399
-0.0179727
-0.0174453
-0.0165597
-0.0154148
-0.0140966
-0.0126725
-0.0111955
-0.00971452
-0.00827465
-0.00690906
-0.00567455
-0.0047028
-0.00413324
-0.00393206
0.0286386
0.0214351
0.0166894
0.00997523
0.00384887
-0.00205501
-0.00701318
-0.0112336
-0.0147695
-0.0176567
-0.0198775
-0.0214652
-0.0223651
-0.0225806
-0.0222692
-0.0215872
-0.0206196
-0.0194221
-0.0180454
-0.0165461
-0.0149802
-0.0133935
-0.0118182
-0.0102822
-0.00881432
-0.00743695
-0.00618615
-0.00516813
-0.00453899
-0.00432614
0.012852
0.00715522
0.00396698
-0.00207443
-0.00706508
-0.0122133
-0.0168391
-0.0207032
-0.0237468
-0.0259825
-0.0273928
-0.0280314
-0.0279077
-0.0271132
-0.0258764
-0.0243868
-0.0227547
-0.0210323
-0.019249
-0.0174388
-0.015643
-0.0138983
-0.0122282
-0.0106482
-0.00917414
-0.00781857
-0.00659882
-0.00558509
-0.00492331
-0.00468622
-0.00376665
-0.00934257
-0.0108269
-0.0147748
-0.0179298
-0.0218829
-0.025677
-0.0287512
-0.0309374
-0.0322719
-0.0328032
-0.0326286
-0.0318
-0.0304206
-0.0286638
-0.0266866
-0.0246044
-0.022487
-0.0203694
-0.0182819
-0.0162624
-0.0143476
-0.0125619
-0.0109185
-0.00942699
-0.00809373
-0.00692257
-0.00594762
-0.00528345
-0.00502325
-0.0210086
-0.024692
-0.0259635
-0.0293897
-0.0313839
-0.0331212
-0.0348205
-0.0362254
-0.0370894
-0.0373751
-0.0370563
-0.0361995
-0.0348428
-0.033069
-0.0309756
-0.0286763
-0.026272
-0.0238467
-0.0214507
-0.0191194
-0.0168913
-0.0148054
-0.0128906
-0.0111642
-0.00963575
-0.00830983
-0.00718337
-0.0062623
-0.00562007
-0.00534575
-0.0374509
-0.0403287
-0.0416119
-0.0435477
-0.0440229
-0.0443113
-0.0444339
-0.0442685
-0.0437034
-0.0427496
-0.0414282
-0.0397835
-0.0378104
-0.0355758
-0.0331078
-0.0304882
-0.0277885
-0.0250877
-0.0224461
-0.019902
-0.0174915
-0.0152524
-0.0132162
-0.0114051
-0.00983144
-0.00850058
-0.00740767
-0.00654153
-0.00593595
-0.00565888
-0.0535619
-0.0547475
-0.0560992
-0.0575766
-0.0572098
-0.0557894
-0.0539972
-0.0521194
-0.0501323
-0.0480171
-0.0457536
-0.043313
-0.0406829
-0.0378955
-0.0349997
-0.0320354
-0.0290446
-0.0260931
-0.0232409
-0.020524
-0.0179722
-0.0156182
-0.0134921
-0.0116184
-0.0100116
-0.00867739
-0.00761183
-0.00679643
-0.00623404
-0.00596443
)
;

boundaryField
{
    outlet
    {
        type            fixedValue;
        value           nonuniform 0();
    }
    upperWall
    {
        type            symmetryPlane;
    }
    lowerWall
    {
        type            symmetryPlane;
    }
    inlet
    {
        type            zeroGradient;
    }
    cylinder
    {
        type            zeroGradient;
    }
    frontAndBack
    {
        type            empty;
    }
    procBoundary1to0
    {
        type            processor;
        value           nonuniform List<scalar> 
45
(
0.16374
0.16374
0.149772
0.186616
0.178371
0.178371
0.205014
0.204486
0.200901
0.200901
0.11145
0.13554
0.124795
0.124795
0.149772
0.101184
0.0898106
0.079339
0.0703952
0.0621163
0.0541997
0.04673
0.0398388
0.0335265
0.027712
0.0223886
0.0175758
0.0133052
0.00959126
0.00636913
0.00355455
0.00116203
-0.000741604
-0.00213199
-0.00304221
-0.00354772
-0.00373027
-0.003668
-0.00343018
-0.00307664
-0.00267109
-0.00227933
-0.00189526
-0.00141338
-0.000811126
)
;
    }
    procBoundary1to2
    {
        type            processor;
        value           nonuniform List<scalar> 
63
(
-0.0795522
-0.103092
-0.0795522
-0.0814048
-0.101739
-0.101739
-0.117549
-0.138045
-0.138045
-0.151238
-0.163903
-0.157183
-0.157183
-0.164779
-0.173595
-0.157613
-0.355352
-0.355352
-0.334656
-0.311969
-0.291632
-0.273806
-0.273806
-0.258887
-0.258887
-0.23942
-0.23942
-0.206463
-0.206463
-0.15915
-0.15915
-0.103092
-0.157613
-0.163109
-0.149395
-0.132609
-0.124503
-0.118486
-0.108019
-0.0978667
-0.0901422
-0.0822654
-0.0822654
-0.0798868
-0.0714257
-0.0634154
-0.0557532
-0.0488119
-0.042554
-0.0368797
-0.0318076
-0.0273441
-0.0234467
-0.0200784
-0.0172067
-0.0147915
-0.0127918
-0.011175
-0.00991517
-0.00899017
-0.00837139
-0.00801747
-0.00787295
)
;
    }
    procBoundary1to5
    {
        type            processor;
        value           nonuniform List<scalar> 
20
(
-0.374722
-0.375456
-0.377482
0.213359
0.225351
0.238461
0.252698
0.268045
0.284459
0.301901
0.32033
0.339708
0.359947
0.380892
0.402271
0.423674
0.444344
0.463304
0.478535
0.488249
)
;
    }
}


// ************************************************************************* //
