/*--------------------------------*- C++ -*----------------------------------*\
| =========                 |                                                 |
| \\      /  F ield         | OpenFOAM: The Open Source CFD Toolbox           |
|  \\    /   O peration     | Version:                                        |
|   \\  /    A nd           | Website:  www.openfoam.com                      |
|    \\/     M anipulation  |                                                 |
\*---------------------------------------------------------------------------*/
FoamFile
{
    version     2.0;
    format      ascii;
    class       volScalarField;
    location    "180.1";
    object      p;
}
// * * * * * * * * * * * * * * * * * * * * * * * * * * * * * * * * * * * * * //

dimensions      [0 2 -2 0 0 0 0];


internalField   nonuniform List<scalar> 
1153
(
-0.488409
-0.489568
-0.488248
-0.480097
-0.467921
-0.463475
-0.446209
-0.419482
-0.391351
-0.366889
-0.472677
-0.473752
-0.461034
-0.457252
-0.457582
-0.457936
-0.439451
-0.408379
-0.374917
-0.344042
-0.318153
-0.295517
-0.464179
-0.461131
-0.454953
-0.429606
-0.444167
-0.441425
-0.420743
-0.389501
-0.355801
-0.324758
-0.297275
-0.272765
-0.25001
-0.227741
-0.465869
-0.458585
-0.434236
-0.436353
-0.434206
-0.421795
-0.398114
-0.368333
-0.337167
-0.307063
-0.279504
-0.254849
-0.231911
-0.210554
-0.189454
-0.168794
-0.148987
-0.467069
-0.483748
-0.446706
-0.441245
-0.427248
-0.405613
-0.379455
-0.350205
-0.320109
-0.291065
-0.264319
-0.239859
-0.21734
-0.195846
-0.175892
-0.156963
-0.138729
-0.121405
-0.105076
-0.0895169
-0.47565
-0.45565
-0.475113
-0.449428
-0.42011
-0.390721
-0.361443
-0.332487
-0.304036
-0.276384
-0.2499
-0.225701
-0.203751
-0.183388
-0.164214
-0.14594
-0.128726
-0.112528
-0.0970972
-0.0823343
-0.527359
-0.469002
-0.47671
-0.450734
-0.41312
-0.377434
-0.345515
-0.315758
-0.287656
-0.261291
-0.236453
-0.212957
-0.191002
-0.170858
-0.152154
-0.135102
-0.119172
-0.104317
-0.0902238
-0.0760423
-0.549587
-0.529779
-0.481756
-0.438727
-0.398075
-0.361301
-0.328614
-0.298879
-0.271014
-0.24491
-0.220806
-0.19852
-0.177925
-0.158723
-0.140903
-0.124062
-0.108522
-0.0943357
-0.0810593
-0.0682379
-0.502083
-0.524439
-0.477168
-0.426391
-0.383325
-0.345597
-0.312034
-0.28175
-0.253717
-0.227627
-0.203637
-0.18182
-0.16166
-0.143391
-0.126893
-0.111767
-0.0978342
-0.0846922
-0.0719946
-0.0596441
-0.432417
-0.46886
-0.455373
-0.411738
-0.368364
-0.329451
-0.294461
-0.263261
-0.235243
-0.209443
-0.185703
-0.16424
-0.144907
-0.127162
-0.111147
-0.0967428
-0.0836678
-0.0722178
-0.0616796
-0.0517696
-0.642045
-0.644312
-0.679232
-0.633903
-0.647199
-0.683345
-0.727309
-0.607296
-0.629228
-0.670228
-0.709217
-0.615673
-0.640853
-0.663041
-0.685415
-0.664471
-0.664566
-0.668496
-0.664642
-0.673214
-0.673719
-0.678756
-0.647222
-0.595601
-0.663937
-0.676667
-0.677003
-0.623528
-0.545063
-0.472587
-0.632205
-0.65246
-0.651442
-0.600004
-0.514109
-0.427394
-0.370362
-0.580926
-0.598198
-0.595423
-0.561832
-0.495865
-0.425602
-0.389092
-0.388817
-0.525074
-0.5327
-0.531939
-0.512392
-0.484242
-0.445581
-0.42613
-0.412289
-0.402424
-0.0422947
-0.0472493
-0.0549303
-0.0596264
-0.0670572
-0.032573
-0.0352078
-0.0400322
-0.0425117
-0.0492177
-0.0229543
-0.023368
-0.025877
-0.0275662
-0.0322255
-0.0139934
-0.0132556
-0.0143404
-0.0158981
-0.0194361
-0.0058396
-0.00480967
-0.00463981
-0.00635564
-0.0089362
-0.0118056
0.00134037
0.00250135
0.00356277
0.00217077
0.000585937
-0.00164194
0.00769096
0.009026
0.0105601
0.00978266
0.00879143
0.0070317
0.0133534
0.0148183
0.0164632
0.0161339
0.0152581
0.0136264
0.0181631
0.019706
0.021241
0.0211964
0.0203698
0.0190424
0.0222711
0.023856
0.0252452
0.0254648
0.0248274
0.0238605
0.0257961
0.0273878
0.0286835
0.0290766
0.0285798
0.0276915
0.0288186
0.0303533
0.0315713
0.0319822
0.0315274
0.0306928
0.0313853
0.0328103
0.0339542
0.0343416
0.0339895
0.0333026
0.0335343
0.034844
0.0359168
0.036328
0.0360784
0.0354789
0.0353361
0.03649
0.0374972
0.0379179
0.0377175
0.0371642
0.0368418
0.0378225
0.0387468
0.0391765
0.0390488
0.0385727
0.0381418
0.0389402
0.0397368
0.0401633
0.0400991
0.0397243
0.0392653
0.0398825
0.0405386
0.0409319
0.0409123
0.0405938
0.040203
0.0406723
0.0411695
0.0414523
0.0413742
0.0410394
0.0409522
0.0413125
0.0416891
0.0419007
0.0418549
0.0416611
0.0415724
0.0418757
0.0421926
0.0423532
0.0422727
0.0420122
0.0420366
0.0422552
0.0424731
0.0425342
0.0423784
0.0420886
0.0423507
0.042489
0.0426416
0.0426832
0.0425645
0.0423451
0.0425994
0.0426767
0.0427775
0.0427957
0.0426737
0.042443
0.0427629
0.0427717
0.0427995
0.0427703
0.0426393
0.0424322
0.0428555
0.0428086
0.0427824
0.0427275
0.0426083
0.0424327
0.0429232
0.0428274
0.0427519
0.042663
0.0425334
0.0423648
0.0429142
0.0427784
0.042661
0.0425431
0.0424084
0.0422567
0.0428159
0.0426875
0.0425635
0.0424363
0.0422989
0.0421513
0.0427738
0.0426519
0.0425247
0.0423921
0.0422546
0.0421146
0.076361
0.07921
0.0826089
0.0861209
0.0886858
0.0897381
0.0892749
0.087403
0.084113
0.0791637
0.072174
0.0625654
0.0495004
0.0320672
0.00867784
-0.0223859
-0.0633702
-0.116388
-0.183453
-0.30029
0.0609494
0.0644527
0.0665628
0.0675164
0.0672523
0.0654128
0.0619646
0.0571269
0.0508307
0.0427446
0.03222
0.0185567
0.000913093
-0.0215103
-0.0501416
-0.0871528
-0.135424
-0.19629
-0.269352
-0.402742
0.0496061
0.0511251
0.0503374
0.0480098
0.0447473
0.0405407
0.0349342
0.027598
0.0185817
0.00759418
-0.00596118
-0.0228023
-0.0440452
-0.0707931
-0.104316
-0.146313
-0.200458
-0.268622
-0.345562
-0.487005
0.0387575
0.0381085
0.0343846
0.0289183
0.0227035
0.016219
0.00889339
-0.000120208
-0.0113125
-0.0248898
-0.0413392
-0.0612668
-0.085405
-0.114942
-0.151538
-0.196921
-0.254649
-0.329819
-0.409652
-0.552015
0.0253863
0.0236743
0.0184485
0.0110049
0.00275782
-0.00601825
-0.0154032
-0.0261466
-0.0389948
-0.0544608
-0.0730549
-0.0953947
-0.122244
-0.154392
-0.19306
-0.239846
-0.297582
-0.376344
-0.459215
-0.59199
0.0100498
0.00696611
0.000740086
-0.00763369
-0.0167134
-0.0265491
-0.0374061
-0.0498466
-0.0642927
-0.0813461
-0.101511
-0.125374
-0.153573
-0.18706
-0.227228
-0.274643
-0.331285
-0.406385
-0.491159
-0.607014
-0.0038467
-0.00832117
-0.0156153
-0.0247297
-0.034798
-0.0455311
-0.0575749
-0.071484
-0.0875154
-0.105805
-0.127106
-0.152046
-0.181166
-0.21496
-0.255015
-0.301829
-0.356207
-0.423356
-0.500536
-0.596801
-0.0175387
-0.0236736
-0.031925
-0.0411319
-0.0514057
-0.062879
-0.0758246
-0.0908218
-0.108144
-0.127777
-0.149983
-0.17548
-0.20504
-0.239058
-0.278016
-0.322581
-0.37296
-0.429797
-0.490981
-0.56124
-0.0296285
-0.0380627
-0.0476098
-0.057377
-0.0680095
-0.0798275
-0.0934252
-0.109103
-0.126996
-0.147331
-0.170258
-0.19626
-0.225866
-0.259694
-0.297908
-0.340417
-0.385806
-0.430551
-0.469526
-0.508644
-0.0404111
-0.0490344
-0.0593384
-0.070823
-0.0831164
-0.0964279
-0.111061
-0.127458
-0.145997
-0.16677
-0.189809
-0.215381
-0.244351
-0.277122
-0.313953
-0.354896
-0.398547
-0.437224
-0.452547
-0.450606
0.219096
0.232031
0.246595
0.262753
0.280392
0.299414
0.319775
0.341462
0.36444
0.388678
0.413987
0.439993
0.466119
0.491287
0.514186
0.532605
0.54424
0.218396
0.230987
0.245422
0.261478
0.278871
0.29742
0.317085
0.337882
0.359818
0.382831
0.406833
0.431433
0.456014
0.479354
0.499964
0.515212
0.523357
0.214001
0.225939
0.239881
0.255438
0.272152
0.289781
0.308283
0.327713
0.348116
0.369274
0.390863
0.412387
0.433382
0.452914
0.469462
0.479991
0.483698
0.197085
0.206109
0.217224
0.230319
0.244865
0.260316
0.276385
0.293023
0.31031
0.328322
0.346974
0.365807
0.384129
0.401055
0.415383
0.425677
0.42885
0.423839
0.186751
0.194743
0.20508
0.217313
0.230704
0.244655
0.258857
0.273261
0.287885
0.302629
0.31741
0.33208
0.345934
0.357921
0.36644
0.369785
0.363716
0.346659
0.169337
0.173611
0.180211
0.189315
0.200313
0.212245
0.224435
0.236485
0.248272
0.259879
0.271254
0.28208
0.291955
0.300234
0.30579
0.306849
0.301585
0.285913
0.256336
0.154184
0.154838
0.158004
0.163823
0.171894
0.181358
0.191311
0.201105
0.210401
0.219113
0.227314
0.234992
0.241684
0.246472
0.248554
0.247068
0.24025
0.225887
0.198869
0.152234
0.139833
0.13782
0.139562
0.144849
0.15235
0.160467
0.168295
0.175409
0.181587
0.18682
0.191168
0.194529
0.196464
0.196056
0.191936
0.182968
0.167375
0.142951
0.104599
0.0418
0.122952
0.119617
0.120405
0.124856
0.131111
0.137567
0.143171
0.147443
0.150502
0.15238
0.15288
0.151745
0.148454
0.142199
0.131755
0.115456
0.0912411
0.0568245
0.00761303
-0.0741361
0.101987
0.0991886
0.101345
0.105669
0.110314
0.114306
0.116998
0.118187
0.117934
0.116362
0.113141
0.107656
0.0992709
0.0870706
0.0699015
0.0462279
0.0136311
-0.0303225
-0.0898308
-0.189871
0.14156
0.127524
0.115264
0.110173
0.100502
0.0899833
0.0891571
0.080691
0.0814746
0.0738485
0.0751032
0.0679502
0.0694119
0.0626304
0.0643477
0.0580333
0.0598632
0.0541095
0.0559557
0.0507669
0.0527362
0.0479765
0.0501707
0.0456986
0.048168
0.0439997
0.0466156
0.0428093
0.0453614
0.0419937
0.0444047
0.0414721
0.0437488
0.041162
0.0433929
0.0410768
0.043285
0.041215
0.0433186
0.0415249
0.0434127
0.0419255
0.0435245
0.0423356
0.0436574
0.0427287
0.0438188
0.0431001
0.0439993
0.0434484
0.0441958
0.0437787
0.0444113
0.0441032
0.0446182
0.0444067
0.044763
0.0446235
0.0447459
0.0446271
0.0454008
0.0450712
0.0453401
0.0449972
0.0744632
0.0568578
0.0452699
0.0362496
0.0241284
0.0103207
-0.00225631
-0.0141195
-0.0248287
-0.0336793
0.0702353
0.054185
0.0404812
0.0325613
0.0228949
0.0105307
-0.000950504
-0.0111763
-0.019977
-0.0261971
0.0654012
0.0516731
0.0376788
0.0298186
0.0224981
0.0122699
0.00200929
-0.00672175
-0.0138718
-0.0183826
0.0602997
0.0484565
0.0356272
0.0275288
0.0217379
0.0135412
0.00485377
-0.00268198
-0.00848078
-0.0112979
0.0555311
0.0452402
0.0341614
0.026257
0.0214614
0.0150599
0.00819891
0.00184724
-0.00263971
-0.00445113
0.0513314
0.0422001
0.0328682
0.025779
0.0217244
0.0167615
0.0115646
0.00641736
0.00296696
0.00172336
0.0477814
0.0395161
0.0318172
0.0259416
0.0225332
0.0186424
0.0147467
0.0107207
0.00815311
0.0072967
0.0448855
0.0373909
0.0310663
0.0265197
0.0237746
0.0207319
0.017796
0.0147697
0.0129564
0.0124622
0.0425782
0.035887
0.0306809
0.0273478
0.0253223
0.0229851
0.0207348
0.0184901
0.0172892
0.0170809
0.0407913
0.0349601
0.0306889
0.0283466
0.0270088
0.0253059
0.0235452
0.0218861
0.0211183
0.0211383
0.0395209
0.0344775
0.0310411
0.0294629
0.0287193
0.0275667
0.0262045
0.0249566
0.0244586
0.0246825
0.0387084
0.0343516
0.0316444
0.030676
0.0303874
0.0296984
0.028666
0.0277133
0.0273706
0.0277398
0.0383306
0.0345641
0.0324295
0.0319151
0.031971
0.0316575
0.0309034
0.0301822
0.029922
0.0303563
0.0382655
0.0350353
0.0333172
0.0331166
0.0334432
0.0334382
0.0329438
0.0323949
0.0321761
0.0325921
0.0383893
0.0356686
0.0342787
0.0342655
0.0347824
0.0350317
0.0347792
0.0343764
0.0341796
0.0345093
0.0386566
0.036369
0.035252
0.0353348
0.0359587
0.0364147
0.0363958
0.036142
0.0359637
0.0361827
0.039062
0.0370966
0.0361989
0.0363482
0.0370175
0.0375962
0.0377692
0.0376593
0.0375275
0.0376506
0.0396084
0.0378689
0.0371062
0.0372965
0.0379733
0.0386031
0.0388993
0.0389134
0.0388392
0.0389131
0.0402603
0.0386995
0.0379865
0.0381636
0.0388216
0.0394686
0.039831
0.0399236
0.0398941
0.0399485
0.0409455
0.0395717
0.0388659
0.0389655
0.0395624
0.0402049
0.0406051
0.0407437
0.0407343
0.0407659
0.0416141
0.0404486
0.0397547
0.0397386
0.0402197
0.0408183
0.0412354
0.0414039
0.0414068
0.0414218
0.0422363
0.0412879
0.0406362
0.0405059
0.040833
0.0413404
0.0417443
0.0419324
0.0419473
0.0419403
0.0428004
0.0420599
0.0414813
0.0412672
0.0414346
0.0418097
0.0421562
0.0423368
0.042352
0.0423159
0.043304
0.0427434
0.0422535
0.0419961
0.0420265
0.0422531
0.0425045
0.0426492
0.0426578
0.0426066
0.0437642
0.0433492
0.042947
0.0426767
0.0426029
0.0426879
0.0428215
0.0428999
0.0428826
0.0428122
0.0441863
0.0439
0.0435852
0.0433224
0.0431708
0.0431271
0.043132
0.0431173
0.043048
0.0429448
0.0444949
0.0443201
0.0440984
0.0438729
0.0436865
0.0435519
0.0434465
0.0433363
0.0432011
0.0430537
0.0445303
0.0444057
0.0442465
0.044071
0.0438998
0.0437414
0.0435884
0.0434278
0.0432536
0.0430763
0.0447108
0.0443601
0.0440602
0.0438211
0.043636
0.0434884
0.043358
0.0432286
0.0430924
0.0429524
0.0446246
0.0442628
0.0439525
0.0437012
0.0435046
0.0433511
0.043225
0.0431125
0.0430029
0.0428908
)
;

boundaryField
{
    outlet
    {
        type            fixedValue;
        value           nonuniform 0();
    }
    upperWall
    {
        type            symmetryPlane;
    }
    lowerWall
    {
        type            symmetryPlane;
    }
    inlet
    {
        type            zeroGradient;
    }
    cylinder
    {
        type            zeroGradient;
    }
    frontAndBack
    {
        type            empty;
    }
    procBoundary5to1
    {
        type            processor;
        value           nonuniform List<scalar> 
20
(
-0.627121
-0.639888
-0.680886
0.215851
0.228761
0.24306
0.258869
0.27624
0.295165
0.315584
0.337393
0.360526
0.384877
0.410299
0.436519
0.463027
0.488871
0.512702
0.531726
0.543526
)
;
    }
    procBoundary5to4
    {
        type            processor;
        value           nonuniform List<scalar> 
45
(
0.207618
0.207515
0.204
0.204
0.189682
0.180848
0.180848
0.166652
0.166652
0.153006
0.153006
0.13931
0.1282
0.1282
0.115952
0.106477
0.0961859
0.0875593
0.0806749
0.0745917
0.0691207
0.0643584
0.0603012
0.0570001
0.0543091
0.0519959
0.0500076
0.0483226
0.0470265
0.046128
0.0455415
0.0451576
0.0448675
0.0446408
0.0444914
0.0444283
0.0444433
0.0445081
0.0446069
0.0447335
0.0448603
0.0449463
0.0449169
0.0456897
0.0456425
)
;
    }
    procBoundary5to6
    {
        type            processor;
        value           nonuniform List<scalar> 
63
(
-0.346143
-0.392403
-0.346143
-0.32701
-0.274265
-0.274265
-0.252521
-0.206002
-0.206002
-0.184996
-0.164471
-0.130615
-0.130615
-0.112594
-0.0961867
-0.0713309
-0.732218
-0.732218
-0.780978
-0.75197
-0.707801
-0.654219
-0.654219
-0.547818
-0.547818
-0.417801
-0.417801
-0.362814
-0.362814
-0.400166
-0.400166
-0.392403
-0.0713309
-0.0503817
-0.0337834
-0.0221516
-0.0221516
-0.0136438
-0.00264686
0.0060247
0.0123541
0.0179767
0.022995
0.0267839
0.0298566
0.0326437
0.0348529
0.0365659
0.0380248
0.0392699
0.0401269
0.0406261
0.0414244
0.0416588
0.0417958
0.0421081
0.0421756
0.0422066
0.0422318
0.0421791
0.0420983
0.0419977
0.0419749
)
;
    }
}


// ************************************************************************* //
