/*--------------------------------*- C++ -*----------------------------------*\
| =========                 |                                                 |
| \\      /  F ield         | OpenFOAM: The Open Source CFD Toolbox           |
|  \\    /   O peration     | Version:                                        |
|   \\  /    A nd           | Website:  www.openfoam.com                      |
|    \\/     M anipulation  |                                                 |
\*---------------------------------------------------------------------------*/
FoamFile
{
    version     2.0;
    format      ascii;
    class       volScalarField;
    location    "105.3";
    object      p;
}
// * * * * * * * * * * * * * * * * * * * * * * * * * * * * * * * * * * * * * //

dimensions      [0 2 -2 0 0 0 0];


internalField   nonuniform List<scalar> 
1147
(
-0.299018
-0.24971
-0.233964
-0.2295
-0.223851
-0.220935
-0.209524
-0.209315
-0.241084
-0.237604
-0.314605
-0.257705
-0.240062
-0.235321
-0.226074
-0.218644
-0.215844
-0.184223
-0.207674
-0.233437
-0.335063
-0.273987
-0.255167
-0.244736
-0.234421
-0.209077
-0.20286
-0.205049
-0.201023
-0.199535
-0.340131
-0.29417
-0.280074
-0.265158
-0.240333
-0.222422
-0.205207
-0.196334
-0.186275
-0.171838
-0.316263
-0.307742
-0.307218
-0.287182
-0.255209
-0.226159
-0.201585
-0.183142
-0.167056
-0.14867
-0.263142
-0.288827
-0.309522
-0.288072
-0.251603
-0.217056
-0.189398
-0.167392
-0.147833
-0.128248
-0.189745
-0.237709
-0.263128
-0.253796
-0.226502
-0.196905
-0.171101
-0.149344
-0.12912
-0.10927
-0.124304
-0.174633
-0.204776
-0.205622
-0.191609
-0.170976
-0.150071
-0.13006
-0.111051
-0.0912523
-0.0807546
-0.126364
-0.15528
-0.161837
-0.157788
-0.144294
-0.128801
-0.111009
-0.0935662
-0.074619
-0.0606104
-0.0988035
-0.120017
-0.12985
-0.128503
-0.120577
-0.108117
-0.0931296
-0.0767358
-0.0591924
-0.0877121
-0.099161
-0.107819
-0.105369
-0.100162
-0.0894625
-0.0764871
-0.0611528
-0.0447423
-0.0826059
-0.0895677
-0.0911121
-0.088367
-0.0824207
-0.0734467
-0.061409
-0.047128
-0.0314766
-0.0831022
-0.0788505
-0.0747301
-0.0676569
-0.0591199
-0.0480972
-0.0345528
-0.0194695
-0.0766208
-0.0696513
-0.0631303
-0.0552855
-0.0463727
-0.0360082
-0.0234213
-0.008761
-0.0613743
-0.0528403
-0.0445363
-0.0353624
-0.0249564
-0.0136734
0.000405076
-0.0529059
-0.0434225
-0.0347538
-0.0256663
-0.015255
-0.00454201
0.0079583
-0.0441795
-0.0348321
-0.0254644
-0.0167998
-0.00668026
0.00400823
0.0148946
-0.0256873
-0.0169803
-0.00812044
0.000980737
0.01183
0.0216121
-0.0168589
-0.00900818
3.23581e-05
0.00805813
0.0184593
0.02799
-0.00973461
-0.00106374
0.00711686
0.0152876
0.02396
0.0335953
-1.14848
-1.03687
-0.909248
-0.78448
-0.676166
-0.594421
-0.540436
-0.499318
-0.451783
-0.381253
-1.1382
-1.02884
-0.898828
-0.765819
-0.650792
-0.568042
-0.515556
-0.485093
-0.454102
-0.398324
-1.1722
-1.05325
-0.910816
-0.762624
-0.635268
-0.542162
-0.491206
-0.476393
-0.466837
-0.42285
-1.09185
-0.938644
-0.770786
-0.626858
-0.523055
-0.472136
-0.454894
-0.449368
-0.41267
-0.505446
-0.440652
-0.406909
-0.389623
-0.35861
-0.403094
-0.348687
-0.309179
-0.270783
-0.288329
-0.225552
-0.182018
-0.148895
-0.110076
-0.0604208
0.0379459
0.0417122
0.045704
0.0493549
0.0526038
0.0554497
0.0579084
0.0600105
0.0619822
0.0636314
0.0648271
0.0656793
0.0662648
0.0665983
0.0667441
0.066748
0.0666334
0.0664521
0.066212
0.0659131
0.0655571
0.0651586
0.0646666
0.0641566
0.0636621
0.063168
0.0627418
0.0623535
0.0619675
0.0617825
0.0294776
0.0356482
0.0414666
0.0463894
0.0509656
0.0546247
0.0573807
0.0597436
0.0619805
0.0636919
0.0648824
0.0658096
0.0664494
0.0667613
0.0668817
0.0668374
0.0666423
0.0663848
0.0660743
0.0657188
0.0653388
0.0649322
0.0644168
0.063907
0.0634091
0.0629047
0.0624703
0.0620728
0.0617149
0.0615502
0.0225823
0.0293269
0.0360859
0.042891
0.0490079
0.0532345
0.0562746
0.0591555
0.0617924
0.0635773
0.0648405
0.0659258
0.0666139
0.0669319
0.067077
0.067005
0.0667552
0.0664335
0.0660545
0.0656265
0.0652159
0.0647768
0.0642209
0.0637099
0.0631917
0.062668
0.0622236
0.0618115
0.0614668
0.061311
0.0147541
0.023411
0.0322805
0.0405522
0.046844
0.0507744
0.0540719
0.0577661
0.0608503
0.0626247
0.0640863
0.0654387
0.0662036
0.0666173
0.0668879
0.0668689
0.0666598
0.0663601
0.0659682
0.0654927
0.0650819
0.0645991
0.0640169
0.063524
0.0629816
0.0624464
0.0619941
0.0615648
0.0612228
0.0610672
0.00645355
0.0147186
0.0256066
0.0360212
0.043162
0.0470213
0.051042
0.0558082
0.0589716
0.0606749
0.0626474
0.0643233
0.0651434
0.0657586
0.0662225
0.0662914
0.0661976
0.0659894
0.0656396
0.0651745
0.0648132
0.0642821
0.0637216
0.0632705
0.0627164
0.0621981
0.0617497
0.0613137
0.0609754
0.060819
0.0609584
0.0626862
0.0635615
0.0645133
0.0651161
0.0652904
0.0653789
0.0652913
0.0650076
0.0646323
0.0643435
0.0637711
0.0633094
0.0629036
0.0623632
0.0618958
0.0614667
0.0610437
0.0607172
0.0605661
0.149986
0.137171
0.125693
0.115657
0.104021
0.0918619
0.0779857
0.0652863
0.0539842
0.0421292
0.153527
0.141338
0.129701
0.118034
0.104656
0.0916573
0.0770786
0.0628635
0.0507806
0.038101
0.157809
0.144974
0.131832
0.118238
0.103127
0.0890418
0.0741638
0.0589245
0.0464582
0.0334495
0.163184
0.148416
0.133123
0.11733
0.100454
0.0849698
0.0700848
0.0544006
0.0411044
0.028314
0.168712
0.151571
0.133841
0.116013
0.0975604
0.080572
0.0652543
0.0495891
0.0350285
0.0220699
0.173601
0.153961
0.133831
0.114237
0.094514
0.0760421
0.0597683
0.0439462
0.0284247
0.0144705
0.177472
0.155379
0.132984
0.111661
0.0909147
0.0711499
0.0535449
0.0370804
0.0208762
0.00574065
0.180197
0.155845
0.131253
0.108088
0.0861866
0.0652457
0.0463022
0.0289003
0.0120026
-0.00415135
0.181801
0.155183
0.128564
0.103297
0.0800101
0.0579391
0.0377066
0.019391
0.00174639
-0.0152049
0.182394
0.153218
0.124562
0.0971561
0.0720825
0.0489791
0.0275738
0.00836449
-0.00993515
-0.0274949
0.181856
0.149674
0.118659
0.0892572
0.062224
0.0379978
0.01563
-0.00439743
-0.0232307
-0.041186
0.179609
0.144193
0.11034
0.0788692
0.0500443
0.0245664
0.00146426
-0.0191044
-0.0382665
-0.0564582
0.174874
0.136032
0.0991432
0.0654163
0.0349086
0.00826117
-0.0153038
-0.0360124
-0.0550783
-0.0733925
0.167041
0.124394
0.0843548
0.0482265
0.0162778
-0.0112867
-0.0352243
-0.0554832
-0.0739313
-0.0916384
0.155094
0.108168
0.06492
0.0263479
-0.00696157
-0.0347486
-0.0587842
-0.0781204
-0.0951847
-0.111464
0.137697
0.0859295
0.0393939
-0.00117922
-0.0355799
-0.0628531
-0.0860299
-0.104107
-0.11931
-0.133518
0.112734
0.0555662
0.00505101
-0.0367024
-0.070676
-0.0966831
-0.117031
-0.132627
-0.146218
-0.158775
0.0785916
0.0157287
-0.0399714
-0.0847503
-0.11726
-0.138924
-0.151698
-0.16072
-0.17185
-0.187131
0.0336059
-0.0334332
-0.0915751
-0.138613
-0.170999
-0.187779
-0.188097
-0.181939
-0.180739
-0.206099
-0.0477246
-0.125216
-0.185226
-0.227448
-0.248164
-0.248579
-0.229723
-0.198094
-0.171814
-0.187343
0.201314
0.192034
0.179146
0.16447
0.214714
0.205478
0.194142
0.180772
0.165765
0.233454
0.229145
0.221989
0.211527
0.198853
0.185306
0.17067
0.238131
0.243794
0.245817
0.244124
0.238824
0.230786
0.219756
0.206316
0.19222
0.177345
0.251413
0.25689
0.258538
0.256417
0.250364
0.241358
0.229918
0.21596
0.200623
0.184578
0.266257
0.271728
0.27307
0.270562
0.263933
0.253763
0.241367
0.22657
0.209641
0.191672
0.282759
0.28839
0.289432
0.286303
0.279018
0.267637
0.253513
0.237272
0.218513
0.198107
0.300819
0.30662
0.30732
0.303251
0.295002
0.282329
0.266005
0.247625
0.226683
0.203589
0.320288
0.326129
0.326387
0.321104
0.311482
0.29727
0.278546
0.257534
0.234006
0.208114
0.341085
0.346766
0.346446
0.33978
0.328334
0.31221
0.29094
0.267003
0.240547
0.211783
0.363168
0.368523
0.367469
0.359321
0.345627
0.327113
0.303105
0.275963
0.246244
0.214394
0.386552
0.391471
0.389469
0.379723
0.363487
0.342118
0.314972
0.284252
0.25087
0.215513
0.411158
0.415596
0.41248
0.40089
0.381792
0.357155
0.326451
0.291658
0.254126
0.214677
0.43683
0.440726
0.436321
0.422583
0.400251
0.371799
0.33708
0.297668
0.255438
0.21133
0.463229
0.466534
0.460668
0.444346
0.418282
0.385331
0.346058
0.301404
0.253738
0.204429
0.489794
0.492502
0.48482
0.465539
0.435315
0.397052
0.352356
0.301736
0.247868
0.192583
0.515512
0.517716
0.507624
0.484912
0.449995
0.405883
0.354685
0.296927
0.236211
0.173965
0.539059
0.540859
0.527805
0.500969
0.460797
0.410131
0.351395
0.285364
0.216798
0.146908
0.558116
0.559209
0.542907
0.510815
0.464593
0.406273
0.338018
0.263014
0.185375
0.107487
0.57045
0.570516
0.550971
0.513732
0.46104
0.392426
0.311176
0.22383
0.130681
0.0388512
0.166502
0.189351
0.178776
0.167074
0.15446
0.143583
0.134104
0.126241
0.119488
0.113333
0.107699
0.102695
0.0982096
0.0941383
0.0903986
0.0869505
0.0838607
0.0811373
0.0787681
0.0766854
0.0748288
0.0731791
0.071728
0.0704711
0.0693856
0.0684452
0.0676355
0.0669496
0.0663901
0.0659388
0.0655403
0.0651042
0.0654452
0.065238
0.151898
0.140778
0.131936
0.124576
0.11797
0.111734
0.105964
0.10074
0.0960713
0.0919853
0.0883591
0.0851105
0.0822141
0.0796428
0.0773929
0.0754087
0.0736554
0.0721195
0.0707915
0.0696602
0.0686982
0.0678786
0.0671755
0.0665791
0.0661017
0.0657246
0.0653859
0.0649566
0.0650853
0.0648563
0.145587
0.13837
0.131602
0.124961
0.118381
0.112064
0.106116
0.100576
0.0955314
0.0910643
0.0871595
0.0838094
0.0809316
0.0784593
0.076315
0.0744196
0.0727375
0.0712647
0.0700079
0.0689546
0.0680802
0.0673575
0.0667483
0.0662354
0.0658332
0.0655285
0.0652522
0.0648325
0.0646912
0.0644407
0.13294
0.129176
0.125715
0.120693
0.11522
0.109688
0.104244
0.0990082
0.0941014
0.0896195
0.0856397
0.0822428
0.0794027
0.0770752
0.0751182
0.073392
0.071831
0.0704476
0.0692621
0.0682715
0.0674621
0.0668126
0.0662818
0.0658455
0.0655123
0.0652784
0.0650724
0.0646765
0.064295
0.064025
0.119413
0.113942
0.110923
0.107215
0.103589
0.0997316
0.0957813
0.0919217
0.0883206
0.0849981
0.0819782
0.0792852
0.07696
0.0750559
0.0734692
0.0720527
0.0707353
0.0695313
0.0684752
0.0675747
0.0668324
0.0662389
0.0657651
0.0653895
0.0651148
0.0649436
0.0648091
0.0644633
0.0639322
0.0636491
0.110554
0.103721
0.0986672
0.0940029
0.0907756
0.0879761
0.0854291
0.0830826
0.0809557
0.0790508
0.0773483
0.0757743
0.0743231
0.0730432
0.0719081
0.0708321
0.0697736
0.0687731
0.0678641
0.0670571
0.0663654
0.0657928
0.0653304
0.0649711
0.064719
0.0645786
0.0644921
0.0642058
0.0636139
0.0633224
0.100783
0.0958725
0.0913884
0.0864353
0.0830744
0.0804284
0.0785711
0.0771633
0.0759826
0.0749286
0.0739912
0.0731339
0.0723209
0.0715462
0.0708122
0.0700476
0.0692376
0.0684159
0.067626
0.0668873
0.0662152
0.0656222
0.0651208
0.0647191
0.0644322
0.0642668
0.0641792
0.0639334
0.0633414
0.063046
0.0893462
0.0867154
0.0848016
0.0815857
0.0790309
0.0765635
0.074888
0.07378
0.0730504
0.0724902
0.0720028
0.0715246
0.0710464
0.0705636
0.070086
0.0695839
0.0690034
0.0683463
0.067666
0.0669854
0.0663237
0.0657022
0.0651462
0.0646678
0.0642998
0.0640568
0.0639143
0.0636719
0.0631067
0.0628121
0.0763875
0.0743997
0.0740053
0.073011
0.0727115
0.0719468
0.0714382
0.0710092
0.0707246
0.0705326
0.0703664
0.0701646
0.0699261
0.0696471
0.069376
0.0690802
0.0687016
0.0682269
0.0676803
0.0670841
0.0664646
0.0658486
0.0652651
0.0647254
0.0642715
0.0639284
0.0636982
0.0634257
0.062893
0.062606
0.0655818
0.064852
0.0653726
0.0647589
0.0655176
0.0660453
0.0667641
0.0672967
0.0677623
0.0681463
0.0684386
0.0686005
0.068639
0.0685915
0.0684974
0.0683608
0.0681538
0.0678523
0.0674602
0.0669851
0.0664488
0.0658818
0.0653114
0.0647509
0.0642441
0.0638171
0.0634994
0.0631823
0.0626819
0.0624111
0.0553356
0.0558185
0.0575971
0.0568261
0.0591343
0.0608081
0.0625499
0.0639401
0.0650713
0.0659408
0.0666075
0.0670669
0.0673646
0.0675303
0.0675953
0.0675773
0.0674763
0.0672946
0.0670239
0.0666631
0.0662241
0.0657322
0.0652001
0.064653
0.0641336
0.0636589
0.0632784
0.0629231
0.0624584
0.0622132
0.0452966
0.0481361
0.050814
0.0528381
0.055119
0.0572031
0.0593671
0.0613118
0.0630252
0.0644054
0.0653936
0.0660604
0.0665123
0.0667924
0.0669433
0.0669657
0.066902
0.0667661
0.06655
0.0662545
0.0658819
0.0654534
0.0649546
0.0644314
0.0639247
0.0634345
0.0630214
0.0626436
0.0622185
0.0620043
)
;

boundaryField
{
    outlet
    {
        type            fixedValue;
        value           nonuniform 0();
    }
    upperWall
    {
        type            symmetryPlane;
    }
    lowerWall
    {
        type            symmetryPlane;
    }
    inlet
    {
        type            zeroGradient;
    }
    cylinder
    {
        type            zeroGradient;
    }
    frontAndBack
    {
        type            empty;
    }
    procBoundary1to0
    {
        type            processor;
        value           nonuniform List<scalar> 
45
(
0.208411
0.208411
0.196032
0.223839
0.22076
0.22076
0.22616
0.232017
0.234469
0.234469
0.164233
0.183136
0.175941
0.175941
0.196032
0.155209
0.145113
0.135882
0.128063
0.12139
0.115417
0.109975
0.105058
0.100495
0.0962025
0.0922259
0.0886155
0.0854305
0.0826408
0.0801901
0.078002
0.0760155
0.0742309
0.0726462
0.0712595
0.0700536
0.0690029
0.0680984
0.0673351
0.0667033
0.0661869
0.0657377
0.0653036
0.0657661
0.0655822
)
;
    }
    procBoundary1to2
    {
        type            processor;
        value           nonuniform List<scalar> 
63
(
-0.0609691
-0.0380696
-0.0609691
-0.0742393
-0.0822929
-0.0822929
-0.0852799
-0.070476
-0.070476
-0.0647836
-0.0579197
-0.0359891
-0.0359891
-0.0276584
-0.0197691
-0.00245021
-1.21469
-1.21469
-1.12706
-0.966002
-0.783283
-0.623866
-0.623866
-0.483862
-0.483862
-0.356832
-0.356832
-0.232256
-0.232256
-0.0932948
-0.0932948
-0.0380696
-0.00245021
0.00777063
0.0203078
0.0321004
0.0386141
0.0421174
0.0479284
0.0537086
0.0563101
0.0582348
0.0582348
0.0593032
0.060785
0.0619399
0.0632036
0.0638096
0.0641349
0.0643849
0.0643819
0.0641766
0.0639683
0.0637101
0.0631463
0.0628307
0.0624413
0.0619434
0.0615438
0.061144
0.0607543
0.0604466
0.0603095
)
;
    }
    procBoundary1to5
    {
        type            processor;
        value           nonuniform List<scalar> 
20
(
-1.22775
-1.21922
-1.25879
0.228172
0.241269
0.25581
0.271804
0.289234
0.308105
0.328378
0.349997
0.372884
0.396915
0.421904
0.447524
0.473155
0.497842
0.520326
0.538231
0.54941
)
;
    }
}


// ************************************************************************* //
