/*--------------------------------*- C++ -*----------------------------------*\
| =========                 |                                                 |
| \\      /  F ield         | OpenFOAM: The Open Source CFD Toolbox           |
|  \\    /   O peration     | Version:                                        |
|   \\  /    A nd           | Website:  www.openfoam.com                      |
|    \\/     M anipulation  |                                                 |
\*---------------------------------------------------------------------------*/
FoamFile
{
    version     2.0;
    format      ascii;
    class       volScalarField;
    location    "563";
    object      p;
}
// * * * * * * * * * * * * * * * * * * * * * * * * * * * * * * * * * * * * * //

dimensions      [0 2 -2 0 0 0 0];


internalField   nonuniform List<scalar> 
1250
(
0.675865
0.673481
0.671104
0.668735
0.666372
0.664017
0.661668
0.659326
0.656991
0.654663
0.652341
0.650026
0.647717
0.645415
0.643119
0.640829
0.638545
0.636267
0.633995
0.63173
0.62947
0.627215
0.624967
0.622724
0.620487
0.618256
0.61603
0.613809
0.611594
0.609384
0.60718
0.60498
0.602786
0.600597
0.598413
0.596234
0.59406
0.591891
0.589727
0.587567
0.585412
0.583263
0.581117
0.578977
0.57684
0.574709
0.572582
0.570459
0.568341
0.566227
0.564118
0.562013
0.559912
0.557815
0.555723
0.553634
0.55155
0.54947
0.547394
0.545322
0.543254
0.541189
0.539129
0.537073
0.53502
0.532971
0.530926
0.528885
0.526847
0.524813
0.522783
0.520756
0.518733
0.516713
0.514697
0.512684
0.510675
0.50867
0.506667
0.504668
0.502673
0.500681
0.498692
0.496706
0.494724
0.492745
0.490769
0.488796
0.486826
0.48486
0.482896
0.480936
0.478979
0.477025
0.475074
0.473125
0.47118
0.469238
0.467299
0.465362
0.463429
0.461498
0.45957
0.457645
0.455723
0.453803
0.451887
0.449973
0.448062
0.446153
0.444247
0.442344
0.440444
0.438546
0.436651
0.434758
0.432868
0.43098
0.429095
0.427213
0.425333
0.423456
0.421581
0.419708
0.417838
0.675774
0.673391
0.671016
0.668647
0.666286
0.663932
0.661584
0.659244
0.65691
0.654583
0.652262
0.649948
0.64764
0.645339
0.643044
0.640755
0.638472
0.636195
0.633925
0.63166
0.629401
0.627147
0.6249
0.622658
0.620422
0.618191
0.615966
0.613746
0.611532
0.609323
0.607119
0.604921
0.602727
0.600539
0.598356
0.596177
0.594004
0.591836
0.589672
0.587513
0.585359
0.58321
0.581065
0.578925
0.57679
0.574659
0.572532
0.57041
0.568293
0.56618
0.564071
0.561966
0.559866
0.55777
0.555678
0.55359
0.551506
0.549426
0.547351
0.545279
0.543212
0.541148
0.539088
0.537032
0.53498
0.532931
0.530887
0.528846
0.526808
0.524775
0.522745
0.520719
0.518696
0.516677
0.514661
0.512649
0.51064
0.508635
0.506633
0.504634
0.502639
0.500647
0.498659
0.496673
0.494691
0.492713
0.490737
0.488764
0.486795
0.484829
0.482866
0.480906
0.478949
0.476995
0.475044
0.473096
0.471151
0.469209
0.46727
0.465334
0.463401
0.461471
0.459543
0.457618
0.455696
0.453777
0.451861
0.449947
0.448036
0.446128
0.444222
0.442319
0.440419
0.438521
0.436626
0.434734
0.432844
0.430957
0.429072
0.42719
0.42531
0.423433
0.421558
0.419686
0.417816
0.675684
0.673303
0.670929
0.668562
0.666202
0.663849
0.661503
0.659164
0.656831
0.654505
0.652185
0.649872
0.647566
0.645266
0.642972
0.640684
0.638402
0.636126
0.633856
0.631593
0.629334
0.627082
0.624836
0.622595
0.620359
0.61813
0.615905
0.613686
0.611473
0.609265
0.607062
0.604864
0.602671
0.600484
0.598301
0.596123
0.593951
0.591783
0.58962
0.587462
0.585309
0.58316
0.581016
0.578877
0.576742
0.574612
0.572486
0.570364
0.568247
0.566135
0.564026
0.561922
0.559823
0.557727
0.555635
0.553548
0.551465
0.549386
0.547311
0.545239
0.543172
0.541109
0.53905
0.536994
0.534942
0.532894
0.53085
0.52881
0.526773
0.52474
0.52271
0.520684
0.518662
0.516643
0.514628
0.512616
0.510607
0.508602
0.506601
0.504603
0.502608
0.500616
0.498628
0.496643
0.494662
0.492683
0.490708
0.488736
0.486767
0.484801
0.482838
0.480878
0.478922
0.476968
0.475018
0.47307
0.471125
0.469184
0.467245
0.465309
0.463376
0.461446
0.459518
0.457594
0.455672
0.453753
0.451837
0.449924
0.448013
0.446105
0.4442
0.442297
0.440397
0.438499
0.436605
0.434712
0.432823
0.430936
0.429051
0.427169
0.42529
0.423413
0.421538
0.419666
0.417796
0.675601
0.673221
0.670849
0.668483
0.666124
0.663773
0.661428
0.65909
0.656758
0.654433
0.652115
0.649803
0.647498
0.645198
0.642905
0.640619
0.638338
0.636063
0.633794
0.631531
0.629274
0.627023
0.624777
0.622537
0.620303
0.618074
0.61585
0.613632
0.611419
0.609212
0.60701
0.604813
0.602621
0.600434
0.598252
0.596075
0.593903
0.591736
0.589574
0.587416
0.585263
0.583115
0.580972
0.578833
0.576699
0.574569
0.572444
0.570323
0.568207
0.566095
0.563987
0.561883
0.559784
0.557689
0.555598
0.553511
0.551428
0.54935
0.547275
0.545204
0.543137
0.541075
0.539016
0.53696
0.534909
0.532861
0.530818
0.528778
0.526741
0.524708
0.522679
0.520654
0.518632
0.516613
0.514598
0.512587
0.510579
0.508574
0.506573
0.504575
0.50258
0.500589
0.498601
0.496617
0.494635
0.492657
0.490682
0.48871
0.486742
0.484776
0.482813
0.480854
0.478898
0.476944
0.474994
0.473047
0.471102
0.469161
0.467222
0.465287
0.463354
0.461424
0.459497
0.457572
0.455651
0.453732
0.451816
0.449903
0.447993
0.446085
0.44418
0.442277
0.440377
0.43848
0.436586
0.434694
0.432804
0.430917
0.429033
0.427151
0.425272
0.423395
0.42152
0.419649
0.417779
0.675528
0.67315
0.670778
0.668414
0.666056
0.663706
0.661362
0.659025
0.656695
0.654371
0.652054
0.649743
0.647438
0.64514
0.642848
0.640562
0.638282
0.636008
0.63374
0.631478
0.629222
0.626971
0.624727
0.622487
0.620254
0.618025
0.615803
0.613585
0.611373
0.609166
0.606965
0.604768
0.602577
0.600391
0.59821
0.596033
0.593862
0.591695
0.589534
0.587377
0.585225
0.583077
0.580934
0.578796
0.576662
0.574533
0.572408
0.570288
0.568172
0.56606
0.563953
0.56185
0.559751
0.557656
0.555566
0.553479
0.551397
0.549319
0.547244
0.545174
0.543108
0.541045
0.538986
0.536932
0.534881
0.532833
0.53079
0.52875
0.526714
0.524682
0.522653
0.520628
0.518606
0.516588
0.514573
0.512562
0.510554
0.50855
0.506549
0.504551
0.502557
0.500566
0.498578
0.496594
0.494613
0.492635
0.49066
0.488688
0.48672
0.484755
0.482792
0.480833
0.478877
0.476924
0.474974
0.473027
0.471083
0.469141
0.467203
0.465267
0.463335
0.461405
0.459478
0.457554
0.455633
0.453714
0.451799
0.449886
0.447975
0.446068
0.444163
0.44226
0.440361
0.438464
0.436569
0.434677
0.432788
0.430901
0.429017
0.427135
0.425256
0.42338
0.421505
0.419634
0.417764
0.675468
0.67309
0.67072
0.668357
0.666
0.663651
0.661308
0.658972
0.656642
0.654319
0.652003
0.649693
0.647389
0.645092
0.6428
0.640515
0.638236
0.635963
0.633696
0.631434
0.629179
0.626929
0.624685
0.622446
0.620213
0.617985
0.615763
0.613546
0.611335
0.609128
0.606927
0.604732
0.602541
0.600355
0.598174
0.595999
0.593828
0.591662
0.5895
0.587344
0.585192
0.583045
0.580903
0.578765
0.576631
0.574503
0.572378
0.570258
0.568143
0.566031
0.563924
0.561822
0.559723
0.557629
0.555539
0.553453
0.551371
0.549293
0.547219
0.545149
0.543082
0.54102
0.538962
0.536907
0.534857
0.53281
0.530767
0.528727
0.526691
0.524659
0.52263
0.520605
0.518584
0.516566
0.514552
0.512541
0.510533
0.508529
0.506528
0.504531
0.502537
0.500546
0.498559
0.496575
0.494594
0.492616
0.490641
0.48867
0.486702
0.484737
0.482774
0.480815
0.47886
0.476907
0.474957
0.47301
0.471066
0.469125
0.467186
0.465251
0.463319
0.461389
0.459462
0.457538
0.455617
0.453699
0.451783
0.44987
0.44796
0.446053
0.444148
0.442246
0.440346
0.438449
0.436555
0.434663
0.432774
0.430887
0.429003
0.427122
0.425243
0.423366
0.421492
0.41962
0.417751
0.675418
0.673041
0.670672
0.668309
0.665953
0.663605
0.661263
0.658927
0.656598
0.654276
0.65196
0.649651
0.647348
0.645051
0.642761
0.640476
0.638197
0.635925
0.633658
0.631397
0.629142
0.626893
0.624649
0.622411
0.620178
0.617951
0.61573
0.613513
0.611302
0.609096
0.606896
0.6047
0.60251
0.600325
0.598144
0.595969
0.593798
0.591633
0.589472
0.587316
0.585164
0.583018
0.580875
0.578738
0.576605
0.574476
0.572352
0.570233
0.568117
0.566006
0.5639
0.561797
0.559699
0.557605
0.555515
0.553429
0.551348
0.54927
0.547196
0.545126
0.54306
0.540999
0.53894
0.536886
0.534836
0.532789
0.530746
0.528707
0.526671
0.524639
0.522611
0.520586
0.518565
0.516547
0.514533
0.512522
0.510515
0.508511
0.50651
0.504513
0.502519
0.500529
0.498541
0.496557
0.494577
0.492599
0.490625
0.488653
0.486685
0.48472
0.482758
0.480799
0.478844
0.476891
0.474941
0.472994
0.47105
0.469109
0.467171
0.465236
0.463304
0.461374
0.459448
0.457524
0.455603
0.453685
0.451769
0.449857
0.447946
0.446039
0.444134
0.442232
0.440333
0.438436
0.436542
0.43465
0.432761
0.430875
0.428991
0.427109
0.42523
0.423354
0.42148
0.419608
0.417739
0.675376
0.673
0.670631
0.668269
0.665914
0.663565
0.661224
0.658889
0.656561
0.654239
0.651924
0.649615
0.647312
0.645016
0.642726
0.640442
0.638164
0.635892
0.633625
0.631365
0.62911
0.626861
0.624618
0.62238
0.620148
0.617921
0.6157
0.613484
0.611273
0.609068
0.606867
0.604672
0.602482
0.600297
0.598117
0.595942
0.593772
0.591607
0.589446
0.58729
0.585139
0.582993
0.580851
0.578714
0.576581
0.574453
0.572329
0.570209
0.568094
0.565984
0.563877
0.561775
0.559677
0.557583
0.555493
0.553408
0.551326
0.549249
0.547175
0.545106
0.54304
0.540978
0.53892
0.536866
0.534816
0.53277
0.530727
0.528688
0.526652
0.52462
0.522592
0.520568
0.518546
0.516529
0.514515
0.512504
0.510497
0.508493
0.506493
0.504496
0.502502
0.500512
0.498525
0.496541
0.49456
0.492583
0.490609
0.488637
0.486669
0.484705
0.482743
0.480784
0.478828
0.476876
0.474926
0.472979
0.471036
0.469095
0.467157
0.465222
0.46329
0.46136
0.459434
0.45751
0.455589
0.453671
0.451756
0.449843
0.447933
0.446026
0.444121
0.442219
0.44032
0.438423
0.436529
0.434638
0.432749
0.430862
0.428978
0.427097
0.425218
0.423342
0.421468
0.419596
0.417727
0.675329
0.672954
0.670586
0.668224
0.66587
0.663522
0.661181
0.658847
0.656519
0.654198
0.651883
0.649575
0.647273
0.644977
0.642687
0.640404
0.638126
0.635854
0.633588
0.631328
0.629074
0.626826
0.624583
0.622345
0.620113
0.617887
0.615666
0.613451
0.61124
0.609035
0.606835
0.60464
0.602451
0.600266
0.598086
0.595912
0.593742
0.591577
0.589416
0.587261
0.58511
0.582964
0.580822
0.578685
0.576553
0.574425
0.572301
0.570182
0.568067
0.565957
0.563851
0.561749
0.559651
0.557557
0.555468
0.553383
0.551301
0.549224
0.547151
0.545081
0.543016
0.540954
0.538897
0.536843
0.534793
0.532746
0.530704
0.528665
0.52663
0.524598
0.52257
0.520546
0.518525
0.516507
0.514493
0.512483
0.510476
0.508472
0.506472
0.504475
0.502482
0.500492
0.498505
0.496521
0.49454
0.492563
0.490589
0.488618
0.48665
0.484686
0.482724
0.480765
0.47881
0.476857
0.474908
0.472961
0.471018
0.469077
0.467139
0.465204
0.463272
0.461343
0.459417
0.457493
0.455572
0.453654
0.451739
0.449826
0.447917
0.446009
0.444105
0.442203
0.440304
0.438407
0.436513
0.434622
0.432733
0.430847
0.428963
0.427082
0.425203
0.423327
0.421453
0.419582
0.417713
0.675284
0.672909
0.670541
0.668181
0.665827
0.663479
0.661139
0.658805
0.656478
0.654157
0.651843
0.649535
0.647234
0.644938
0.642649
0.640366
0.638088
0.635817
0.633552
0.631292
0.629038
0.62679
0.624548
0.622311
0.620079
0.617853
0.615633
0.613417
0.611207
0.609003
0.606803
0.604608
0.602419
0.600235
0.598055
0.595881
0.593711
0.591547
0.589387
0.587231
0.585081
0.582935
0.580794
0.578657
0.576525
0.574397
0.572274
0.570155
0.56804
0.56593
0.563824
0.561722
0.559625
0.557532
0.555442
0.553357
0.551276
0.549199
0.547126
0.545057
0.542992
0.54093
0.538873
0.536819
0.534769
0.532723
0.530681
0.528642
0.526607
0.524575
0.522548
0.520523
0.518503
0.516486
0.514472
0.512462
0.510455
0.508451
0.506451
0.504455
0.502461
0.500471
0.498484
0.496501
0.49452
0.492543
0.490569
0.488599
0.486631
0.484666
0.482705
0.480746
0.478791
0.476839
0.474889
0.472943
0.470999
0.469059
0.467121
0.465186
0.463254
0.461325
0.459399
0.457476
0.455555
0.453637
0.451722
0.44981
0.4479
0.445993
0.444088
0.442187
0.440288
0.438391
0.436497
0.434606
0.432717
0.430831
0.428947
0.427066
0.425188
0.423311
0.421438
0.419566
0.417697
)
;

boundaryField
{
    inlet
    {
        type            zeroGradient;
    }
    outlet
    {
        type            fixedValue;
        value           nonuniform 0();
    }
    wall
    {
        type            zeroGradient;
    }
    back
    {
        type            wedge;
    }
    front
    {
        type            wedge;
    }
    axis
    {
        type            empty;
    }
    procBoundary5to1
    {
        type            processor;
        value           nonuniform List<scalar> 
125
(
0.675954
0.673569
0.671191
0.66882
0.666456
0.6641
0.66175
0.659407
0.657071
0.654742
0.652419
0.650103
0.647793
0.645489
0.643192
0.640901
0.638617
0.636338
0.634065
0.631799
0.629538
0.627283
0.625034
0.62279
0.620552
0.61832
0.616093
0.613872
0.611656
0.609446
0.60724
0.60504
0.602845
0.600656
0.598471
0.596291
0.594116
0.591947
0.589782
0.587622
0.585466
0.583316
0.58117
0.579029
0.576892
0.57476
0.572632
0.570509
0.56839
0.566276
0.564166
0.562061
0.559959
0.557862
0.555769
0.55368
0.551595
0.549515
0.547438
0.545366
0.543297
0.541232
0.539171
0.537114
0.535061
0.533012
0.530967
0.528925
0.526887
0.524852
0.522822
0.520794
0.518771
0.516751
0.514734
0.512721
0.510712
0.508706
0.506703
0.504704
0.502708
0.500716
0.498726
0.49674
0.494758
0.492778
0.490802
0.488829
0.486859
0.484892
0.482928
0.480968
0.47901
0.477056
0.475104
0.473156
0.47121
0.469268
0.467328
0.465391
0.463458
0.461527
0.459598
0.457673
0.455751
0.453831
0.451914
0.45
0.448088
0.44618
0.444274
0.44237
0.44047
0.438571
0.436676
0.434783
0.432893
0.431005
0.42912
0.427237
0.425357
0.423479
0.421604
0.419732
0.417861
)
;
    }
    procBoundary5to4
    {
        type            processor;
        value           nonuniform List<scalar> 10(0.678256 0.678164 0.678073 0.677988 0.677914 0.677853 0.677802 0.677759 0.677712 0.677666);
    }
    procBoundary5to6
    {
        type            processor;
        value           nonuniform List<scalar> 10(0.41597 0.415949 0.415929 0.415912 0.415897 0.415884 0.415873 0.415861 0.415846 0.415831);
    }
}


// ************************************************************************* //
