/*--------------------------------*- C++ -*----------------------------------*\
| =========                 |                                                 |
| \\      /  F ield         | OpenFOAM: The Open Source CFD Toolbox           |
|  \\    /   O peration     | Version:                                        |
|   \\  /    A nd           | Website:  www.openfoam.com                      |
|    \\/     M anipulation  |                                                 |
\*---------------------------------------------------------------------------*/
FoamFile
{
    version     2.0;
    format      ascii;
    class       surfaceScalarField;
    location    "563";
    object      phi;
}
// * * * * * * * * * * * * * * * * * * * * * * * * * * * * * * * * * * * * * //

dimensions      [0 3 -1 0 0 0 0];
oriented        oriented;


internalField   nonuniform List<scalar> 
2365
(
1.25988e-05
-7.92148e-08
1.26074e-05
-7.86145e-08
1.26159e-05
-7.80208e-08
1.26242e-05
-7.74337e-08
1.26325e-05
-7.68531e-08
1.26406e-05
-7.62788e-08
1.26486e-05
-7.57108e-08
1.26565e-05
-7.51491e-08
1.26643e-05
-7.45934e-08
1.26719e-05
-7.40438e-08
1.26795e-05
-7.35e-08
1.26869e-05
-7.29622e-08
1.26942e-05
-7.24301e-08
1.27015e-05
-7.19036e-08
1.27086e-05
-7.13828e-08
1.27156e-05
-7.08674e-08
1.27225e-05
-7.03576e-08
1.27293e-05
-6.98531e-08
1.2736e-05
-6.93538e-08
1.27427e-05
-6.88598e-08
1.27492e-05
-6.8371e-08
1.27556e-05
-6.78872e-08
1.2762e-05
-6.74084e-08
1.27682e-05
-6.69345e-08
1.27744e-05
-6.64656e-08
1.27805e-05
-6.60014e-08
1.27864e-05
-6.5542e-08
1.27923e-05
-6.50872e-08
1.27982e-05
-6.46371e-08
1.28039e-05
-6.41915e-08
1.28096e-05
-6.37504e-08
1.28151e-05
-6.33138e-08
1.28206e-05
-6.28815e-08
1.28261e-05
-6.24535e-08
1.28314e-05
-6.20298e-08
1.28367e-05
-6.16104e-08
1.28419e-05
-6.1195e-08
1.2847e-05
-6.07838e-08
1.2852e-05
-6.03766e-08
1.2857e-05
-5.99734e-08
1.28619e-05
-5.95741e-08
1.28668e-05
-5.91787e-08
1.28716e-05
-5.87872e-08
1.28763e-05
-5.83994e-08
1.28809e-05
-5.80154e-08
1.28855e-05
-5.76351e-08
1.289e-05
-5.72585e-08
1.28945e-05
-5.68854e-08
1.28989e-05
-5.65159e-08
1.29032e-05
-5.61499e-08
1.29075e-05
-5.57874e-08
1.29117e-05
-5.54283e-08
1.29158e-05
-5.50726e-08
1.29199e-05
-5.47203e-08
1.2924e-05
-5.43712e-08
1.2928e-05
-5.40254e-08
1.29319e-05
-5.36829e-08
1.29358e-05
-5.33435e-08
1.29396e-05
-5.30072e-08
1.29434e-05
-5.26741e-08
1.29471e-05
-5.2344e-08
1.29508e-05
-5.2017e-08
1.29544e-05
-5.16929e-08
1.2958e-05
-5.13718e-08
1.29615e-05
-5.10536e-08
1.2965e-05
-5.07384e-08
1.29685e-05
-5.04259e-08
1.29718e-05
-5.01163e-08
1.29752e-05
-4.98095e-08
1.29785e-05
-4.95054e-08
1.29817e-05
-4.9204e-08
1.2985e-05
-4.89053e-08
1.29881e-05
-4.86093e-08
1.29913e-05
-4.83159e-08
1.29943e-05
-4.80251e-08
1.29974e-05
-4.77369e-08
1.30004e-05
-4.74512e-08
1.30033e-05
-4.7168e-08
1.30063e-05
-4.68873e-08
1.30092e-05
-4.6609e-08
1.3012e-05
-4.63331e-08
1.30148e-05
-4.60596e-08
1.30176e-05
-4.57885e-08
1.30203e-05
-4.55198e-08
1.3023e-05
-4.52533e-08
1.30257e-05
-4.49891e-08
1.30283e-05
-4.47272e-08
1.30309e-05
-4.44675e-08
1.30335e-05
-4.421e-08
1.3036e-05
-4.39547e-08
1.30385e-05
-4.37016e-08
1.3041e-05
-4.34505e-08
1.30434e-05
-4.32016e-08
1.30458e-05
-4.29548e-08
1.30482e-05
-4.27101e-08
1.30505e-05
-4.24673e-08
1.30528e-05
-4.22266e-08
1.30551e-05
-4.19879e-08
1.30574e-05
-4.17512e-08
1.30596e-05
-4.15164e-08
1.30618e-05
-4.12836e-08
1.30639e-05
-4.10526e-08
1.30661e-05
-4.08236e-08
1.30682e-05
-4.05964e-08
1.30703e-05
-4.0371e-08
1.30723e-05
-4.01475e-08
1.30743e-05
-3.99258e-08
1.30763e-05
-3.97059e-08
1.30783e-05
-3.94877e-08
1.30803e-05
-3.92713e-08
1.30822e-05
-3.90566e-08
1.30841e-05
-3.88437e-08
1.3086e-05
-3.86324e-08
1.30878e-05
-3.84228e-08
1.30897e-05
-3.82149e-08
1.30915e-05
-3.80086e-08
1.30933e-05
-3.78039e-08
1.3095e-05
-3.76008e-08
1.30968e-05
-3.73994e-08
1.30985e-05
-3.71994e-08
1.31002e-05
-3.70011e-08
1.31018e-05
-3.68043e-08
1.31035e-05
-3.6609e-08
1.31051e-05
-3.64152e-08
-3.62229e-08
1.3562e-05
-8.44154e-08
1.35671e-05
-8.36938e-08
1.3572e-05
-8.29815e-08
1.35769e-05
-8.22782e-08
1.35816e-05
-8.15838e-08
1.35862e-05
-8.08981e-08
1.35907e-05
-8.02211e-08
1.35951e-05
-7.95525e-08
1.35994e-05
-7.88922e-08
1.36036e-05
-7.82402e-08
1.36077e-05
-7.75962e-08
1.36117e-05
-7.69601e-08
1.36156e-05
-7.63318e-08
1.36194e-05
-7.57112e-08
1.36232e-05
-7.50982e-08
1.36268e-05
-7.44925e-08
1.36303e-05
-7.38942e-08
1.36338e-05
-7.33031e-08
1.36371e-05
-7.2719e-08
1.36404e-05
-7.2142e-08
1.36436e-05
-7.15717e-08
1.36467e-05
-7.10083e-08
1.36498e-05
-7.04514e-08
1.36527e-05
-6.99012e-08
1.36556e-05
-6.93573e-08
1.36585e-05
-6.88198e-08
1.36612e-05
-6.82885e-08
1.36639e-05
-6.77634e-08
1.36665e-05
-6.72444e-08
1.3669e-05
-6.67313e-08
1.36715e-05
-6.6224e-08
1.36739e-05
-6.57226e-08
1.36763e-05
-6.52268e-08
1.36785e-05
-6.47367e-08
1.36808e-05
-6.42521e-08
1.36829e-05
-6.37729e-08
1.3685e-05
-6.32991e-08
1.36871e-05
-6.28305e-08
1.36891e-05
-6.23672e-08
1.3691e-05
-6.1909e-08
1.36929e-05
-6.14558e-08
1.36947e-05
-6.10077e-08
1.36965e-05
-6.05644e-08
1.36982e-05
-6.0126e-08
1.36999e-05
-5.96923e-08
1.37015e-05
-5.92633e-08
1.37031e-05
-5.8839e-08
1.37046e-05
-5.84192e-08
1.37061e-05
-5.80039e-08
1.37076e-05
-5.75931e-08
1.3709e-05
-5.71866e-08
1.37103e-05
-5.67844e-08
1.37116e-05
-5.63864e-08
1.37129e-05
-5.59927e-08
1.37141e-05
-5.56031e-08
1.37153e-05
-5.52175e-08
1.37165e-05
-5.4836e-08
1.37176e-05
-5.44584e-08
1.37187e-05
-5.40847e-08
1.37197e-05
-5.37149e-08
1.37207e-05
-5.33489e-08
1.37217e-05
-5.29866e-08
1.37226e-05
-5.2628e-08
1.37235e-05
-5.2273e-08
1.37244e-05
-5.19217e-08
1.37252e-05
-5.15739e-08
1.3726e-05
-5.12296e-08
1.37268e-05
-5.08887e-08
1.37275e-05
-5.05512e-08
1.37283e-05
-5.02171e-08
1.37289e-05
-4.98863e-08
1.37296e-05
-4.95588e-08
1.37302e-05
-4.92345e-08
1.37308e-05
-4.89134e-08
1.37314e-05
-4.85954e-08
1.37319e-05
-4.82805e-08
1.37325e-05
-4.79687e-08
1.37329e-05
-4.76599e-08
1.37334e-05
-4.73541e-08
1.37339e-05
-4.70512e-08
1.37343e-05
-4.67512e-08
1.37347e-05
-4.64541e-08
1.3735e-05
-4.61598e-08
1.37354e-05
-4.58683e-08
1.37357e-05
-4.55796e-08
1.3736e-05
-4.52936e-08
1.37363e-05
-4.50102e-08
1.37366e-05
-4.47296e-08
1.37368e-05
-4.44515e-08
1.3737e-05
-4.41761e-08
1.37372e-05
-4.39031e-08
1.37374e-05
-4.36328e-08
1.37376e-05
-4.33649e-08
1.37377e-05
-4.30994e-08
1.37378e-05
-4.28364e-08
1.37379e-05
-4.25758e-08
1.3738e-05
-4.23176e-08
1.37381e-05
-4.20617e-08
1.37382e-05
-4.18081e-08
1.37382e-05
-4.15568e-08
1.37382e-05
-4.13078e-08
1.37382e-05
-4.10609e-08
1.37382e-05
-4.08163e-08
1.37382e-05
-4.05739e-08
1.37382e-05
-4.03336e-08
1.37381e-05
-4.00954e-08
1.37381e-05
-3.98594e-08
1.3738e-05
-3.96254e-08
1.37379e-05
-3.93934e-08
1.37378e-05
-3.91635e-08
1.37377e-05
-3.89356e-08
1.37375e-05
-3.87097e-08
1.37374e-05
-3.84857e-08
1.37372e-05
-3.82636e-08
1.3737e-05
-3.80435e-08
1.37369e-05
-3.78252e-08
1.37367e-05
-3.76088e-08
1.37365e-05
-3.73942e-08
1.37362e-05
-3.71815e-08
1.3736e-05
-3.69706e-08
1.37358e-05
-3.67614e-08
1.37355e-05
-3.6554e-08
1.37353e-05
-3.63484e-08
1.3735e-05
-3.61444e-08
-3.59422e-08
1.42767e-05
-8.45155e-08
1.42767e-05
-8.37097e-08
1.42766e-05
-8.29157e-08
1.42765e-05
-8.21331e-08
1.42762e-05
-8.13618e-08
1.42759e-05
-8.06017e-08
1.42756e-05
-7.98523e-08
1.42751e-05
-7.91137e-08
1.42746e-05
-7.83855e-08
1.42741e-05
-7.76675e-08
1.42734e-05
-7.69597e-08
1.42727e-05
-7.62616e-08
1.4272e-05
-7.55733e-08
1.42711e-05
-7.48945e-08
1.42703e-05
-7.42251e-08
1.42693e-05
-7.35648e-08
1.42684e-05
-7.29135e-08
1.42673e-05
-7.2271e-08
1.42663e-05
-7.16372e-08
1.42651e-05
-7.1012e-08
1.42639e-05
-7.0395e-08
1.42627e-05
-6.97864e-08
1.42615e-05
-6.91857e-08
1.42602e-05
-6.8593e-08
1.42588e-05
-6.80081e-08
1.42574e-05
-6.74308e-08
1.4256e-05
-6.68611e-08
1.42545e-05
-6.62987e-08
1.4253e-05
-6.57436e-08
1.42515e-05
-6.51956e-08
1.42499e-05
-6.46546e-08
1.42483e-05
-6.41205e-08
1.42467e-05
-6.35931e-08
1.4245e-05
-6.30724e-08
1.42433e-05
-6.25583e-08
1.42416e-05
-6.20505e-08
1.42398e-05
-6.15491e-08
1.42381e-05
-6.10539e-08
1.42363e-05
-6.05649e-08
1.42344e-05
-6.00818e-08
1.42326e-05
-5.96046e-08
1.42307e-05
-5.91332e-08
1.42288e-05
-5.86676e-08
1.42269e-05
-5.82076e-08
1.4225e-05
-5.77531e-08
1.4223e-05
-5.7304e-08
1.4221e-05
-5.68603e-08
1.4219e-05
-5.64219e-08
1.4217e-05
-5.59886e-08
1.4215e-05
-5.55605e-08
1.42129e-05
-5.51373e-08
1.42109e-05
-5.47191e-08
1.42088e-05
-5.43058e-08
1.42067e-05
-5.38972e-08
1.42046e-05
-5.34934e-08
1.42025e-05
-5.30942e-08
1.42003e-05
-5.26995e-08
1.41982e-05
-5.23094e-08
1.4196e-05
-5.19236e-08
1.41938e-05
-5.15422e-08
1.41917e-05
-5.11652e-08
1.41895e-05
-5.07923e-08
1.41873e-05
-5.04236e-08
1.4185e-05
-5.0059e-08
1.41828e-05
-4.96984e-08
1.41806e-05
-4.93418e-08
1.41783e-05
-4.89891e-08
1.41761e-05
-4.86402e-08
1.41738e-05
-4.82952e-08
1.41716e-05
-4.79539e-08
1.41693e-05
-4.76163e-08
1.4167e-05
-4.72823e-08
1.41647e-05
-4.69519e-08
1.41625e-05
-4.6625e-08
1.41602e-05
-4.63016e-08
1.41579e-05
-4.59817e-08
1.41556e-05
-4.56651e-08
1.41533e-05
-4.53518e-08
1.41509e-05
-4.50418e-08
1.41486e-05
-4.47351e-08
1.41463e-05
-4.44315e-08
1.4144e-05
-4.41311e-08
1.41417e-05
-4.38337e-08
1.41393e-05
-4.35395e-08
1.4137e-05
-4.32482e-08
1.41347e-05
-4.29599e-08
1.41323e-05
-4.26746e-08
1.413e-05
-4.23921e-08
1.41277e-05
-4.21125e-08
1.41253e-05
-4.18357e-08
1.4123e-05
-4.15616e-08
1.41206e-05
-4.12903e-08
1.41183e-05
-4.10217e-08
1.41159e-05
-4.07557e-08
1.41136e-05
-4.04924e-08
1.41113e-05
-4.02317e-08
1.41089e-05
-3.99735e-08
1.41066e-05
-3.97178e-08
1.41042e-05
-3.94646e-08
1.41019e-05
-3.92139e-08
1.40995e-05
-3.89655e-08
1.40972e-05
-3.87196e-08
1.40949e-05
-3.8476e-08
1.40925e-05
-3.82348e-08
1.40902e-05
-3.79958e-08
1.40878e-05
-3.77591e-08
1.40855e-05
-3.75247e-08
1.40832e-05
-3.72925e-08
1.40808e-05
-3.70624e-08
1.40785e-05
-3.68345e-08
1.40762e-05
-3.66087e-08
1.40739e-05
-3.6385e-08
1.40715e-05
-3.61634e-08
1.40692e-05
-3.59438e-08
1.40669e-05
-3.57262e-08
1.40646e-05
-3.55106e-08
1.40623e-05
-3.5297e-08
1.406e-05
-3.50854e-08
1.40577e-05
-3.48756e-08
1.40554e-05
-3.46678e-08
1.40531e-05
-3.44618e-08
1.40508e-05
-3.42577e-08
1.40485e-05
-3.40554e-08
1.40462e-05
-3.38549e-08
-3.36561e-08
1.46143e-05
-7.85593e-08
1.46084e-05
-7.77382e-08
1.46024e-05
-7.69305e-08
1.45964e-05
-7.61359e-08
1.45904e-05
-7.53541e-08
1.45844e-05
-7.45848e-08
1.45783e-05
-7.38278e-08
1.45723e-05
-7.30828e-08
1.45663e-05
-7.23496e-08
1.45602e-05
-7.16278e-08
1.45542e-05
-7.09172e-08
1.45481e-05
-7.02177e-08
1.45421e-05
-6.9529e-08
1.4536e-05
-6.88508e-08
1.453e-05
-6.81829e-08
1.4524e-05
-6.75252e-08
1.45179e-05
-6.68773e-08
1.45119e-05
-6.62392e-08
1.45059e-05
-6.56105e-08
1.44998e-05
-6.49912e-08
1.44938e-05
-6.43811e-08
1.44878e-05
-6.37798e-08
1.44818e-05
-6.31873e-08
1.44758e-05
-6.26035e-08
1.44699e-05
-6.2028e-08
1.44639e-05
-6.14608e-08
1.44579e-05
-6.09017e-08
1.4452e-05
-6.03505e-08
1.4446e-05
-5.98072e-08
1.44401e-05
-5.92714e-08
1.44342e-05
-5.87432e-08
1.44283e-05
-5.82222e-08
1.44224e-05
-5.77085e-08
1.44166e-05
-5.72019e-08
1.44107e-05
-5.67022e-08
1.44049e-05
-5.62093e-08
1.4399e-05
-5.57231e-08
1.43932e-05
-5.52435e-08
1.43874e-05
-5.47703e-08
1.43816e-05
-5.43034e-08
1.43759e-05
-5.38427e-08
1.43701e-05
-5.33881e-08
1.43644e-05
-5.29395e-08
1.43587e-05
-5.24967e-08
1.4353e-05
-5.20597e-08
1.43473e-05
-5.16284e-08
1.43417e-05
-5.12027e-08
1.4336e-05
-5.07824e-08
1.43304e-05
-5.03675e-08
1.43248e-05
-4.99578e-08
1.43192e-05
-4.95534e-08
1.43137e-05
-4.9154e-08
1.43081e-05
-4.87597e-08
1.43026e-05
-4.83703e-08
1.42971e-05
-4.79857e-08
1.42916e-05
-4.76058e-08
1.42861e-05
-4.72307e-08
1.42807e-05
-4.68601e-08
1.42752e-05
-4.6494e-08
1.42698e-05
-4.61324e-08
1.42644e-05
-4.57752e-08
1.42591e-05
-4.54222e-08
1.42537e-05
-4.50735e-08
1.42484e-05
-4.4729e-08
1.42431e-05
-4.43885e-08
1.42378e-05
-4.4052e-08
1.42325e-05
-4.37195e-08
1.42273e-05
-4.33909e-08
1.42221e-05
-4.30661e-08
1.42168e-05
-4.27451e-08
1.42117e-05
-4.24278e-08
1.42065e-05
-4.21142e-08
1.42013e-05
-4.18041e-08
1.41962e-05
-4.14976e-08
1.41911e-05
-4.11945e-08
1.4186e-05
-4.08949e-08
1.41809e-05
-4.05987e-08
1.41759e-05
-4.03058e-08
1.41709e-05
-4.00161e-08
1.41659e-05
-3.97297e-08
1.41609e-05
-3.94464e-08
1.41559e-05
-3.91662e-08
1.4151e-05
-3.88892e-08
1.41461e-05
-3.86151e-08
1.41411e-05
-3.83441e-08
1.41363e-05
-3.80759e-08
1.41314e-05
-3.78107e-08
1.41266e-05
-3.75483e-08
1.41217e-05
-3.72888e-08
1.41169e-05
-3.7032e-08
1.41121e-05
-3.67779e-08
1.41074e-05
-3.65265e-08
1.41026e-05
-3.62777e-08
1.40979e-05
-3.60316e-08
1.40932e-05
-3.57881e-08
1.40885e-05
-3.5547e-08
1.40839e-05
-3.53085e-08
1.40792e-05
-3.50724e-08
1.40746e-05
-3.48388e-08
1.407e-05
-3.46076e-08
1.40654e-05
-3.43787e-08
1.40608e-05
-3.41521e-08
1.40563e-05
-3.39279e-08
1.40518e-05
-3.37059e-08
1.40472e-05
-3.34861e-08
1.40428e-05
-3.32685e-08
1.40383e-05
-3.30531e-08
1.40338e-05
-3.28399e-08
1.40294e-05
-3.26287e-08
1.4025e-05
-3.24196e-08
1.40206e-05
-3.22126e-08
1.40162e-05
-3.20076e-08
1.40118e-05
-3.18046e-08
1.40075e-05
-3.16036e-08
1.40032e-05
-3.14045e-08
1.39989e-05
-3.12074e-08
1.39946e-05
-3.10121e-08
1.39903e-05
-3.08187e-08
1.39861e-05
-3.06272e-08
1.39819e-05
-3.04374e-08
1.39776e-05
-3.02495e-08
1.39734e-05
-3.00633e-08
1.39693e-05
-2.98789e-08
1.39651e-05
-2.96962e-08
-2.95152e-08
1.44343e-05
-6.67257e-08
1.44226e-05
-6.59771e-08
1.44109e-05
-6.52418e-08
1.43993e-05
-6.45195e-08
1.43877e-05
-6.38099e-08
1.43763e-05
-6.31127e-08
1.43649e-05
-6.24275e-08
1.43535e-05
-6.17541e-08
1.43423e-05
-6.10923e-08
1.43311e-05
-6.04417e-08
1.432e-05
-5.9802e-08
1.43089e-05
-5.91731e-08
1.4298e-05
-5.85546e-08
1.4287e-05
-5.79465e-08
1.42762e-05
-5.73483e-08
1.42654e-05
-5.67599e-08
1.42548e-05
-5.6181e-08
1.42441e-05
-5.56115e-08
1.42336e-05
-5.50511e-08
1.42231e-05
-5.44997e-08
1.42126e-05
-5.39571e-08
1.42023e-05
-5.34229e-08
1.4192e-05
-5.28971e-08
1.41818e-05
-5.23795e-08
1.41716e-05
-5.18699e-08
1.41615e-05
-5.13681e-08
1.41515e-05
-5.08741e-08
1.41415e-05
-5.03875e-08
1.41316e-05
-4.99083e-08
1.41218e-05
-4.94363e-08
1.4112e-05
-4.89713e-08
1.41023e-05
-4.85132e-08
1.40927e-05
-4.8062e-08
1.40831e-05
-4.76173e-08
1.40736e-05
-4.71791e-08
1.40641e-05
-4.67473e-08
1.40547e-05
-4.63217e-08
1.40454e-05
-4.59023e-08
1.40361e-05
-4.54888e-08
1.40269e-05
-4.50812e-08
1.40177e-05
-4.46794e-08
1.40086e-05
-4.42832e-08
1.39995e-05
-4.38925e-08
1.39906e-05
-4.35073e-08
1.39816e-05
-4.31273e-08
1.39727e-05
-4.27527e-08
1.39639e-05
-4.23831e-08
1.39552e-05
-4.20186e-08
1.39465e-05
-4.1659e-08
1.39378e-05
-4.13042e-08
1.39292e-05
-4.09543e-08
1.39207e-05
-4.06089e-08
1.39122e-05
-4.02681e-08
1.39037e-05
-3.99318e-08
1.38953e-05
-3.96e-08
1.3887e-05
-3.92724e-08
1.38787e-05
-3.89492e-08
1.38705e-05
-3.86301e-08
1.38623e-05
-3.83151e-08
1.38542e-05
-3.80041e-08
1.38461e-05
-3.76971e-08
1.38381e-05
-3.7394e-08
1.38301e-05
-3.70947e-08
1.38222e-05
-3.67991e-08
1.38143e-05
-3.65073e-08
1.38065e-05
-3.62191e-08
1.37987e-05
-3.59344e-08
1.37909e-05
-3.56533e-08
1.37832e-05
-3.53755e-08
1.37756e-05
-3.51012e-08
1.3768e-05
-3.48303e-08
1.37605e-05
-3.45625e-08
1.37529e-05
-3.4298e-08
1.37455e-05
-3.40366e-08
1.37381e-05
-3.37784e-08
1.37307e-05
-3.35232e-08
1.37234e-05
-3.32711e-08
1.37161e-05
-3.30219e-08
1.37088e-05
-3.27756e-08
1.37016e-05
-3.25321e-08
1.36945e-05
-3.22915e-08
1.36874e-05
-3.20537e-08
1.36803e-05
-3.18186e-08
1.36733e-05
-3.15862e-08
1.36663e-05
-3.13564e-08
1.36593e-05
-3.11293e-08
1.36524e-05
-3.09047e-08
1.36456e-05
-3.06826e-08
1.36387e-05
-3.0463e-08
1.3632e-05
-3.02459e-08
1.36252e-05
-3.00311e-08
1.36185e-05
-2.98188e-08
1.36118e-05
-2.96087e-08
1.36052e-05
-2.9401e-08
1.35986e-05
-2.91955e-08
1.35921e-05
-2.89923e-08
1.35855e-05
-2.87912e-08
1.35791e-05
-2.85923e-08
1.35726e-05
-2.83956e-08
1.35662e-05
-2.82009e-08
1.35598e-05
-2.80083e-08
1.35535e-05
-2.78178e-08
1.35472e-05
-2.76293e-08
1.35409e-05
-2.74427e-08
1.35347e-05
-2.72581e-08
1.35285e-05
-2.70754e-08
1.35224e-05
-2.68946e-08
1.35162e-05
-2.67157e-08
1.35102e-05
-2.65386e-08
1.35041e-05
-2.63633e-08
1.34981e-05
-2.61898e-08
1.34921e-05
-2.60181e-08
1.34861e-05
-2.58481e-08
1.34802e-05
-2.56799e-08
1.34743e-05
-2.55132e-08
1.34685e-05
-2.53484e-08
1.34626e-05
-2.51851e-08
1.34568e-05
-2.50234e-08
1.34511e-05
-2.48634e-08
1.34453e-05
-2.47049e-08
1.34396e-05
-2.4548e-08
1.3434e-05
-2.43926e-08
1.34283e-05
-2.42388e-08
1.34227e-05
-2.40864e-08
-2.39355e-08
1.36061e-05
-5.05614e-08
1.35901e-05
-4.99658e-08
1.35743e-05
-4.93815e-08
1.35586e-05
-4.88081e-08
1.3543e-05
-4.82454e-08
1.35276e-05
-4.7693e-08
1.35123e-05
-4.71508e-08
1.34972e-05
-4.66184e-08
1.34822e-05
-4.60956e-08
1.34673e-05
-4.55822e-08
1.34526e-05
-4.5078e-08
1.3438e-05
-4.45827e-08
1.34235e-05
-4.4096e-08
1.34092e-05
-4.36179e-08
1.3395e-05
-4.3148e-08
1.33809e-05
-4.26863e-08
1.3367e-05
-4.22324e-08
1.33532e-05
-4.17862e-08
1.33395e-05
-4.13475e-08
1.33259e-05
-4.09162e-08
1.33124e-05
-4.04921e-08
1.32991e-05
-4.0075e-08
1.32858e-05
-3.96647e-08
1.32727e-05
-3.92611e-08
1.32597e-05
-3.88641e-08
1.32468e-05
-3.84734e-08
1.3234e-05
-3.80891e-08
1.32213e-05
-3.77108e-08
1.32088e-05
-3.73385e-08
1.31963e-05
-3.69721e-08
1.31839e-05
-3.66114e-08
1.31717e-05
-3.62563e-08
1.31595e-05
-3.59066e-08
1.31475e-05
-3.55624e-08
1.31355e-05
-3.52233e-08
1.31237e-05
-3.48895e-08
1.31119e-05
-3.45606e-08
1.31002e-05
-3.42367e-08
1.30887e-05
-3.39176e-08
1.30772e-05
-3.36032e-08
1.30658e-05
-3.32934e-08
1.30545e-05
-3.29882e-08
1.30433e-05
-3.26874e-08
1.30322e-05
-3.23909e-08
1.30212e-05
-3.20988e-08
1.30102e-05
-3.18108e-08
1.29994e-05
-3.15268e-08
1.29886e-05
-3.1247e-08
1.29779e-05
-3.0971e-08
1.29673e-05
-3.06989e-08
1.29568e-05
-3.04306e-08
1.29463e-05
-3.0166e-08
1.2936e-05
-2.9905e-08
1.29257e-05
-2.96476e-08
1.29155e-05
-2.93937e-08
1.29053e-05
-2.91433e-08
1.28953e-05
-2.88962e-08
1.28853e-05
-2.86524e-08
1.28754e-05
-2.84119e-08
1.28656e-05
-2.81746e-08
1.28558e-05
-2.79404e-08
1.28461e-05
-2.77092e-08
1.28365e-05
-2.74811e-08
1.2827e-05
-2.72559e-08
1.28175e-05
-2.70337e-08
1.28081e-05
-2.68143e-08
1.27988e-05
-2.65977e-08
1.27895e-05
-2.63839e-08
1.27803e-05
-2.61728e-08
1.27712e-05
-2.59643e-08
1.27621e-05
-2.57584e-08
1.27531e-05
-2.55551e-08
1.27441e-05
-2.53544e-08
1.27353e-05
-2.51561e-08
1.27264e-05
-2.49602e-08
1.27177e-05
-2.47668e-08
1.2709e-05
-2.45757e-08
1.27004e-05
-2.43869e-08
1.26918e-05
-2.42004e-08
1.26833e-05
-2.40161e-08
1.26748e-05
-2.38341e-08
1.26664e-05
-2.36542e-08
1.26581e-05
-2.34764e-08
1.26498e-05
-2.33007e-08
1.26415e-05
-2.31271e-08
1.26334e-05
-2.29555e-08
1.26253e-05
-2.27859e-08
1.26172e-05
-2.26183e-08
1.26092e-05
-2.24526e-08
1.26012e-05
-2.22888e-08
1.25933e-05
-2.21268e-08
1.25855e-05
-2.19667e-08
1.25777e-05
-2.18084e-08
1.25699e-05
-2.16519e-08
1.25622e-05
-2.14971e-08
1.25546e-05
-2.13441e-08
1.2547e-05
-2.11928e-08
1.25394e-05
-2.10431e-08
1.25319e-05
-2.08951e-08
1.25245e-05
-2.07487e-08
1.25171e-05
-2.06039e-08
1.25097e-05
-2.04607e-08
1.25024e-05
-2.03191e-08
1.24951e-05
-2.01789e-08
1.24879e-05
-2.00403e-08
1.24807e-05
-1.99031e-08
1.24736e-05
-1.97674e-08
1.24665e-05
-1.96332e-08
1.24595e-05
-1.95004e-08
1.24525e-05
-1.93689e-08
1.24456e-05
-1.92388e-08
1.24386e-05
-1.91101e-08
1.24318e-05
-1.89828e-08
1.2425e-05
-1.88567e-08
1.24182e-05
-1.8732e-08
1.24114e-05
-1.86085e-08
1.24047e-05
-1.84863e-08
1.23981e-05
-1.83653e-08
1.23915e-05
-1.82455e-08
1.23849e-05
-1.8127e-08
1.23783e-05
-1.80096e-08
1.23718e-05
-1.78935e-08
1.23654e-05
-1.77785e-08
1.2359e-05
-1.76646e-08
-1.75518e-08
1.20304e-05
-3.27295e-08
1.20128e-05
-3.23329e-08
1.19954e-05
-3.1944e-08
1.19781e-05
-3.15626e-08
1.19611e-05
-3.11885e-08
1.19442e-05
-3.08216e-08
1.19275e-05
-3.04616e-08
1.1911e-05
-3.01084e-08
1.18946e-05
-2.97617e-08
1.18785e-05
-2.94215e-08
1.18625e-05
-2.90875e-08
1.18467e-05
-2.87596e-08
1.1831e-05
-2.84376e-08
1.18155e-05
-2.81214e-08
1.18002e-05
-2.78108e-08
1.1785e-05
-2.75058e-08
1.177e-05
-2.72061e-08
1.17551e-05
-2.69116e-08
1.17404e-05
-2.66222e-08
1.17258e-05
-2.63379e-08
1.17114e-05
-2.60584e-08
1.16971e-05
-2.57836e-08
1.16829e-05
-2.55135e-08
1.16689e-05
-2.52479e-08
1.1655e-05
-2.49868e-08
1.16413e-05
-2.473e-08
1.16277e-05
-2.44773e-08
1.16142e-05
-2.42288e-08
1.16008e-05
-2.39844e-08
1.15876e-05
-2.37438e-08
1.15745e-05
-2.35071e-08
1.15615e-05
-2.32743e-08
1.15487e-05
-2.30451e-08
1.15359e-05
-2.28194e-08
1.15233e-05
-2.25973e-08
1.15108e-05
-2.23787e-08
1.14984e-05
-2.21634e-08
1.14861e-05
-2.19515e-08
1.14739e-05
-2.17427e-08
1.14619e-05
-2.15371e-08
1.14499e-05
-2.13347e-08
1.1438e-05
-2.11352e-08
1.14263e-05
-2.09387e-08
1.14147e-05
-2.07452e-08
1.14031e-05
-2.05544e-08
1.13917e-05
-2.03665e-08
1.13803e-05
-2.01813e-08
1.13691e-05
-1.99988e-08
1.13579e-05
-1.98189e-08
1.13469e-05
-1.96415e-08
1.13359e-05
-1.94667e-08
1.1325e-05
-1.92944e-08
1.13142e-05
-1.91245e-08
1.13036e-05
-1.89569e-08
1.1293e-05
-1.87917e-08
1.12824e-05
-1.86288e-08
1.1272e-05
-1.84681e-08
1.12617e-05
-1.83096e-08
1.12514e-05
-1.81532e-08
1.12412e-05
-1.7999e-08
1.12311e-05
-1.78468e-08
1.12211e-05
-1.76967e-08
1.12112e-05
-1.75486e-08
1.12013e-05
-1.74024e-08
1.11916e-05
-1.72582e-08
1.11819e-05
-1.71159e-08
1.11722e-05
-1.69754e-08
1.11627e-05
-1.68367e-08
1.11532e-05
-1.66998e-08
1.11438e-05
-1.65647e-08
1.11345e-05
-1.64313e-08
1.11252e-05
-1.62996e-08
1.11161e-05
-1.61696e-08
1.11069e-05
-1.60412e-08
1.10979e-05
-1.59144e-08
1.10889e-05
-1.57892e-08
1.108e-05
-1.56655e-08
1.10712e-05
-1.55434e-08
1.10624e-05
-1.54228e-08
1.10537e-05
-1.53036e-08
1.1045e-05
-1.51859e-08
1.10364e-05
-1.50696e-08
1.10279e-05
-1.49547e-08
1.10195e-05
-1.48412e-08
1.10111e-05
-1.4729e-08
1.10027e-05
-1.46182e-08
1.09945e-05
-1.45087e-08
1.09862e-05
-1.44005e-08
1.09781e-05
-1.42935e-08
1.097e-05
-1.41878e-08
1.09619e-05
-1.40833e-08
1.09539e-05
-1.398e-08
1.0946e-05
-1.38779e-08
1.09381e-05
-1.3777e-08
1.09303e-05
-1.36772e-08
1.09226e-05
-1.35786e-08
1.09148e-05
-1.3481e-08
1.09072e-05
-1.33846e-08
1.08996e-05
-1.32892e-08
1.0892e-05
-1.31949e-08
1.08845e-05
-1.31017e-08
1.08771e-05
-1.30095e-08
1.08697e-05
-1.29183e-08
1.08623e-05
-1.2828e-08
1.0855e-05
-1.27388e-08
1.08478e-05
-1.26506e-08
1.08406e-05
-1.25633e-08
1.08334e-05
-1.24769e-08
1.08263e-05
-1.23914e-08
1.08192e-05
-1.23069e-08
1.08122e-05
-1.22233e-08
1.08052e-05
-1.21405e-08
1.07983e-05
-1.20587e-08
1.07914e-05
-1.19776e-08
1.07846e-05
-1.18975e-08
1.07778e-05
-1.18181e-08
1.07711e-05
-1.17396e-08
1.07644e-05
-1.16619e-08
1.07577e-05
-1.1585e-08
1.07511e-05
-1.15089e-08
1.07445e-05
-1.14336e-08
1.0738e-05
-1.1359e-08
1.07315e-05
-1.12852e-08
1.0725e-05
-1.12121e-08
-1.11397e-08
9.64843e-06
-1.63933e-08
9.63229e-06
-1.61922e-08
9.61634e-06
-1.59952e-08
9.60058e-06
-1.5802e-08
9.58501e-06
-1.56125e-08
9.56961e-06
-1.54267e-08
9.55439e-06
-1.52444e-08
9.53935e-06
-1.50657e-08
9.52448e-06
-1.48903e-08
9.50978e-06
-1.47181e-08
9.49524e-06
-1.45492e-08
9.48086e-06
-1.43834e-08
9.46664e-06
-1.42206e-08
9.45258e-06
-1.40608e-08
9.43868e-06
-1.39039e-08
9.42492e-06
-1.37497e-08
9.41131e-06
-1.35983e-08
9.39785e-06
-1.34496e-08
9.38453e-06
-1.33035e-08
9.37135e-06
-1.316e-08
9.35832e-06
-1.30189e-08
9.34541e-06
-1.28803e-08
9.33264e-06
-1.2744e-08
9.32e-06
-1.261e-08
9.3075e-06
-1.24783e-08
9.29511e-06
-1.23488e-08
9.28286e-06
-1.22214e-08
9.27073e-06
-1.20962e-08
9.25871e-06
-1.1973e-08
9.24682e-06
-1.18518e-08
9.23505e-06
-1.17325e-08
9.22339e-06
-1.16152e-08
9.21184e-06
-1.14998e-08
9.20041e-06
-1.13862e-08
9.18909e-06
-1.12744e-08
9.17787e-06
-1.11643e-08
9.16677e-06
-1.10559e-08
9.15576e-06
-1.09493e-08
9.14487e-06
-1.08442e-08
9.13407e-06
-1.07408e-08
9.12337e-06
-1.0639e-08
9.11278e-06
-1.05387e-08
9.10228e-06
-1.04399e-08
9.09188e-06
-1.03425e-08
9.08157e-06
-1.02466e-08
9.07135e-06
-1.01522e-08
9.06123e-06
-1.00591e-08
9.0512e-06
-9.96738e-09
9.04126e-06
-9.87699e-09
9.0314e-06
-9.7879e-09
9.02164e-06
-9.70009e-09
9.01196e-06
-9.61353e-09
9.00236e-06
-9.5282e-09
8.99285e-06
-9.44407e-09
8.98342e-06
-9.36112e-09
8.97407e-06
-9.27933e-09
8.9648e-06
-9.19867e-09
8.95561e-06
-9.11913e-09
8.94649e-06
-9.04067e-09
8.93746e-06
-8.96329e-09
8.9285e-06
-8.88696e-09
8.91961e-06
-8.81165e-09
8.9108e-06
-8.73736e-09
8.90206e-06
-8.66406e-09
8.8934e-06
-8.59173e-09
8.8848e-06
-8.52036e-09
8.87628e-06
-8.44992e-09
8.86782e-06
-8.38041e-09
8.85943e-06
-8.3118e-09
8.85111e-06
-8.24408e-09
8.84286e-06
-8.17723e-09
8.83467e-06
-8.11124e-09
8.82655e-06
-8.04609e-09
8.81849e-06
-7.98176e-09
8.81049e-06
-7.91825e-09
8.80256e-06
-7.85553e-09
8.79469e-06
-7.7936e-09
8.78687e-06
-7.73244e-09
8.77912e-06
-7.67203e-09
8.77143e-06
-7.61237e-09
8.7638e-06
-7.55343e-09
8.75623e-06
-7.49522e-09
8.74871e-06
-7.43771e-09
8.74125e-06
-7.3809e-09
8.73384e-06
-7.32477e-09
8.72649e-06
-7.26931e-09
8.7192e-06
-7.21451e-09
8.71196e-06
-7.16036e-09
8.70477e-06
-7.10685e-09
8.69764e-06
-7.05397e-09
8.69056e-06
-7.0017e-09
8.68353e-06
-6.95004e-09
8.67655e-06
-6.89899e-09
8.66962e-06
-6.84851e-09
8.66274e-06
-6.79862e-09
8.65591e-06
-6.7493e-09
8.64913e-06
-6.70054e-09
8.6424e-06
-6.65233e-09
8.63572e-06
-6.60466e-09
8.62908e-06
-6.55753e-09
8.62249e-06
-6.51092e-09
8.61594e-06
-6.46483e-09
8.60944e-06
-6.41926e-09
8.60299e-06
-6.37418e-09
8.59658e-06
-6.3296e-09
8.59022e-06
-6.28551e-09
8.58389e-06
-6.24189e-09
8.57762e-06
-6.19875e-09
8.57138e-06
-6.15607e-09
8.56519e-06
-6.11385e-09
8.55904e-06
-6.07209e-09
8.55293e-06
-6.03077e-09
8.54686e-06
-5.98988e-09
8.54083e-06
-5.94943e-09
8.53484e-06
-5.9094e-09
8.52889e-06
-5.86979e-09
8.52298e-06
-5.8306e-09
8.51711e-06
-5.79181e-09
8.51128e-06
-5.75343e-09
8.50549e-06
-5.71544e-09
8.49973e-06
-5.67783e-09
8.49402e-06
-5.64062e-09
8.48833e-06
-5.60378e-09
8.48269e-06
-5.56731e-09
-5.53122e-09
6.43468e-06
-4.60319e-09
6.42304e-06
-4.54675e-09
6.41153e-06
-4.49143e-09
6.40017e-06
-4.43719e-09
6.38894e-06
-4.384e-09
6.37784e-06
-4.33184e-09
6.36688e-06
-4.28067e-09
6.35605e-06
-4.23047e-09
6.34534e-06
-4.18122e-09
6.33475e-06
-4.13289e-09
6.32429e-06
-4.08545e-09
6.31394e-06
-4.03889e-09
6.30372e-06
-3.99319e-09
6.2936e-06
-3.94831e-09
6.2836e-06
-3.90424e-09
6.27371e-06
-3.86095e-09
6.26393e-06
-3.81844e-09
6.25426e-06
-3.77668e-09
6.24469e-06
-3.73565e-09
6.23523e-06
-3.69533e-09
6.22587e-06
-3.65571e-09
6.2166e-06
-3.61677e-09
6.20744e-06
-3.5785e-09
6.19837e-06
-3.54087e-09
6.18939e-06
-3.50387e-09
6.18051e-06
-3.4675e-09
6.17172e-06
-3.43172e-09
6.16302e-06
-3.39654e-09
6.15441e-06
-3.36194e-09
6.14589e-06
-3.32789e-09
6.13745e-06
-3.2944e-09
6.1291e-06
-3.26145e-09
6.12082e-06
-3.22902e-09
6.11264e-06
-3.19711e-09
6.10453e-06
-3.1657e-09
6.0965e-06
-3.13478e-09
6.08855e-06
-3.10435e-09
6.08067e-06
-3.07438e-09
6.07287e-06
-3.04488e-09
6.06515e-06
-3.01583e-09
6.05749e-06
-2.98722e-09
6.04992e-06
-2.95904e-09
6.04241e-06
-2.93129e-09
6.03497e-06
-2.90395e-09
6.0276e-06
-2.87701e-09
6.0203e-06
-2.85048e-09
6.01306e-06
-2.82433e-09
6.00589e-06
-2.79856e-09
5.99879e-06
-2.77317e-09
5.99175e-06
-2.74815e-09
5.98477e-06
-2.72348e-09
5.97786e-06
-2.69916e-09
5.97101e-06
-2.67519e-09
5.96421e-06
-2.65156e-09
5.95748e-06
-2.62826e-09
5.95081e-06
-2.60528e-09
5.94419e-06
-2.58263e-09
5.93763e-06
-2.56028e-09
5.93113e-06
-2.53824e-09
5.92468e-06
-2.5165e-09
5.91829e-06
-2.49506e-09
5.91195e-06
-2.47391e-09
5.90567e-06
-2.45304e-09
5.89944e-06
-2.43245e-09
5.89326e-06
-2.41213e-09
5.88713e-06
-2.39208e-09
5.88105e-06
-2.3723e-09
5.87502e-06
-2.35277e-09
5.86905e-06
-2.3335e-09
5.86312e-06
-2.31448e-09
5.85723e-06
-2.2957e-09
5.8514e-06
-2.27716e-09
5.84561e-06
-2.25886e-09
5.83987e-06
-2.24079e-09
5.83418e-06
-2.22295e-09
5.82853e-06
-2.20533e-09
5.82292e-06
-2.18794e-09
5.81736e-06
-2.17076e-09
5.81184e-06
-2.15379e-09
5.80637e-06
-2.13703e-09
5.80093e-06
-2.12049e-09
5.79554e-06
-2.10413e-09
5.79019e-06
-2.08797e-09
5.78488e-06
-2.07202e-09
5.77961e-06
-2.05625e-09
5.77439e-06
-2.04067e-09
5.7692e-06
-2.02528e-09
5.76405e-06
-2.01009e-09
5.75893e-06
-1.99503e-09
5.75386e-06
-1.98021e-09
5.74882e-06
-1.96551e-09
5.74383e-06
-1.951e-09
5.73886e-06
-1.93664e-09
5.73394e-06
-1.92248e-09
5.72905e-06
-1.90847e-09
5.72419e-06
-1.89462e-09
5.71937e-06
-1.88092e-09
5.71459e-06
-1.86738e-09
5.70984e-06
-1.854e-09
5.70512e-06
-1.84076e-09
5.70044e-06
-1.82768e-09
5.69579e-06
-1.81473e-09
5.69117e-06
-1.80192e-09
5.68658e-06
-1.78927e-09
5.68203e-06
-1.77675e-09
5.67751e-06
-1.76436e-09
5.67302e-06
-1.75213e-09
5.66856e-06
-1.73998e-09
5.66413e-06
-1.72803e-09
5.65974e-06
-1.71614e-09
5.65537e-06
-1.70443e-09
5.65103e-06
-1.69282e-09
5.64672e-06
-1.68134e-09
5.64244e-06
-1.66998e-09
5.63819e-06
-1.65874e-09
5.63397e-06
-1.64762e-09
5.62978e-06
-1.63661e-09
5.62561e-06
-1.62572e-09
5.62147e-06
-1.61494e-09
5.61736e-06
-1.60427e-09
5.61328e-06
-1.59371e-09
5.60922e-06
-1.58326e-09
5.60519e-06
-1.57292e-09
5.60118e-06
-1.56268e-09
-1.55254e-09
2.37789e-06
2.37334e-06
2.36885e-06
2.36441e-06
2.36003e-06
2.3557e-06
2.35142e-06
2.34719e-06
2.34301e-06
2.33887e-06
2.33479e-06
2.33075e-06
2.32676e-06
2.32281e-06
2.3189e-06
2.31504e-06
2.31122e-06
2.30745e-06
2.30371e-06
2.30002e-06
2.29636e-06
2.29274e-06
2.28916e-06
2.28562e-06
2.28212e-06
2.27865e-06
2.27522e-06
2.27182e-06
2.26846e-06
2.26513e-06
2.26184e-06
2.25858e-06
2.25535e-06
2.25215e-06
2.24899e-06
2.24585e-06
2.24275e-06
2.23967e-06
2.23663e-06
2.23361e-06
2.23063e-06
2.22767e-06
2.22473e-06
2.22183e-06
2.21895e-06
2.2161e-06
2.21328e-06
2.21048e-06
2.20771e-06
2.20496e-06
2.20224e-06
2.19954e-06
2.19686e-06
2.19421e-06
2.19158e-06
2.18898e-06
2.18639e-06
2.18383e-06
2.1813e-06
2.17878e-06
2.17628e-06
2.17381e-06
2.17136e-06
2.16892e-06
2.16651e-06
2.16412e-06
2.16175e-06
2.15939e-06
2.15706e-06
2.15475e-06
2.15245e-06
2.15017e-06
2.14792e-06
2.14567e-06
2.14345e-06
2.14125e-06
2.13906e-06
2.13689e-06
2.13473e-06
2.1326e-06
2.13048e-06
2.12837e-06
2.12628e-06
2.12421e-06
2.12216e-06
2.12012e-06
2.11809e-06
2.11608e-06
2.11408e-06
2.1121e-06
2.11014e-06
2.10819e-06
2.10625e-06
2.10433e-06
2.10242e-06
2.10053e-06
2.09864e-06
2.09678e-06
2.09492e-06
2.09308e-06
2.09126e-06
2.08944e-06
2.08764e-06
2.08585e-06
2.08407e-06
2.08231e-06
2.08056e-06
2.07882e-06
2.07709e-06
2.07537e-06
2.07367e-06