/*--------------------------------*- C++ -*----------------------------------*\
| =========                 |                                                 |
| \\      /  F ield         | OpenFOAM: The Open Source CFD Toolbox           |
|  \\    /   O peration     | Version:                                        |
|   \\  /    A nd           | Website:  www.openfoam.com                      |
|    \\/     M anipulation  |                                                 |
\*---------------------------------------------------------------------------*/
FoamFile
{
    version     2.0;
    format      ascii;
    class       volVectorField;
    location    "563";
    object      U;
}
// * * * * * * * * * * * * * * * * * * * * * * * * * * * * * * * * * * * * * //

dimensions      [0 1 -1 0 0 0 0];


internalField   nonuniform List<vector> 
1250
(
(1.37897 -0.0103184 -1.62153e-12)
(1.37992 -0.010245 -1.62499e-12)
(1.38085 -0.0101724 -1.62874e-12)
(1.38178 -0.0101005 -1.63192e-12)
(1.38268 -0.0100294 -1.63563e-12)
(1.38358 -0.00995897 -1.63836e-12)
(1.38446 -0.00988928 -1.64214e-12)
(1.38533 -0.0098203 -1.64435e-12)
(1.38619 -0.00975201 -1.6484e-12)
(1.38703 -0.00968441 -1.64982e-12)
(1.38787 -0.00961749 -1.65448e-12)
(1.38869 -0.00955123 -1.65466e-12)
(1.3895 -0.00948563 -1.66037e-12)
(1.39029 -0.00942068 -1.6588e-12)
(1.39108 -0.00935638 -1.66621e-12)
(1.39185 -0.0092927 -1.66229e-12)
(1.39261 -0.00922965 -1.67177e-12)
(1.39337 -0.00916722 -1.66551e-12)
(1.39411 -0.00910539 -1.67642e-12)
(1.39484 -0.00904417 -1.66991e-12)
(1.39556 -0.00898353 -1.6775e-12)
(1.39627 -0.00892349 -1.67412e-12)
(1.39697 -0.00886402 -1.67379e-12)
(1.39766 -0.00880512 -1.67538e-12)
(1.39833 -0.00874678 -1.67575e-12)
(1.399 -0.008689 -1.67424e-12)
(1.39967 -0.00863177 -1.68187e-12)
(1.40032 -0.00857508 -1.67922e-12)
(1.40096 -0.00851892 -1.6769e-12)
(1.40159 -0.0084633 -1.67348e-12)
(1.40221 -0.00840819 -1.67121e-12)
(1.40283 -0.00835361 -1.66709e-12)
(1.40344 -0.00829953 -1.66541e-12)
(1.40403 -0.00824595 -1.66051e-12)
(1.40462 -0.00819288 -1.65996e-12)
(1.4052 -0.00814029 -1.65354e-12)
(1.40578 -0.00808819 -1.65479e-12)
(1.40634 -0.00803657 -1.64594e-12)
(1.4069 -0.00798542 -1.64995e-12)
(1.40745 -0.00793474 -1.63776e-12)
(1.40799 -0.00788453 -1.6457e-12)
(1.40852 -0.00783477 -1.6289e-12)
(1.40905 -0.00778546 -1.64114e-12)
(1.40957 -0.0077366 -1.64945e-12)
(1.41008 -0.00768818 -1.64264e-12)
(1.41059 -0.00764019 -1.63618e-12)
(1.41109 -0.00759264 -1.62963e-12)
(1.41158 -0.00754551 -1.62356e-12)
(1.41206 -0.00749881 -1.61726e-12)
(1.41254 -0.00745252 -1.61168e-12)
(1.41301 -0.00740664 -1.60556e-12)
(1.41347 -0.00736117 -1.60062e-12)
(1.41393 -0.0073161 -1.59457e-12)
(1.41438 -0.00727142 -1.59052e-12)
(1.41483 -0.00722714 -1.58421e-12)
(1.41527 -0.00718325 -1.58148e-12)
(1.4157 -0.00713974 -1.57431e-12)
(1.41613 -0.00709661 -1.57374e-12)
(1.41655 -0.00705386 -1.5646e-12)
(1.41697 -0.00701148 -1.5677e-12)
(1.41738 -0.00696946 -1.55446e-12)
(1.41779 -0.00692781 -1.56398e-12)
(1.41819 -0.00688651 -1.54282e-12)
(1.41858 -0.00684557 -1.56394e-12)
(1.41897 -0.00680498 -1.58722e-12)
(1.41935 -0.00676474 -1.58043e-12)
(1.41973 -0.00672484 -1.57101e-12)
(1.42011 -0.00668528 -1.56657e-12)
(1.42047 -0.00664605 -1.55673e-12)
(1.42084 -0.00660716 -1.55545e-12)
(1.4212 -0.00656859 -1.54359e-12)
(1.42155 -0.00653035 -1.54721e-12)
(1.4219 -0.00649243 -1.53074e-12)
(1.42225 -0.00645483 -1.54251e-12)
(1.42259 -0.00641754 -1.51645e-12)
(1.42292 -0.00638056 -1.54293e-12)
(1.42325 -0.00634389 -1.49808e-12)
(1.42358 -0.00630752 -1.55168e-12)
(1.4239 -0.00627145 -1.47554e-12)
(1.42422 -0.00623568 -1.48119e-12)
(1.42453 -0.0062002 -1.54732e-12)
(1.42484 -0.00616502 -1.45598e-12)
(1.42515 -0.00613012 -1.57076e-12)
(1.42545 -0.00609551 -1.49593e-12)
(1.42575 -0.00606118 -1.51743e-12)
(1.42604 -0.00602712 -1.47857e-12)
(1.42633 -0.00599335 -1.52735e-12)
(1.42662 -0.00595984 -1.46095e-12)
(1.4269 -0.00592661 -1.46606e-12)
(1.42718 -0.00589364 -1.5259e-12)
(1.42745 -0.00586094 -1.44549e-12)
(1.42773 -0.0058285 -1.54743e-12)
(1.42799 -0.00579631 -1.48265e-12)
(1.42826 -0.00576439 -1.50137e-12)
(1.42852 -0.00573271 -1.46817e-12)
(1.42878 -0.00570129 -1.51046e-12)
(1.42903 -0.00567012 -1.45407e-12)
(1.42928 -0.00563919 -1.45584e-12)
(1.42953 -0.0056085 -1.51222e-12)
(1.42978 -0.00557806 -1.43724e-12)
(1.43002 -0.00554785 -1.53254e-12)
(1.43026 -0.00551788 -1.46863e-12)
(1.43049 -0.00548814 -1.49534e-12)
(1.43072 -0.00545863 -1.45194e-12)
(1.43095 -0.00542935 -1.50859e-12)
(1.43118 -0.0054003 -1.43272e-12)
(1.4314 -0.00537147 -1.4703e-12)
(1.43162 -0.00534286 -1.46901e-12)
(1.43184 -0.00531447 -1.47367e-12)
(1.43206 -0.0052863 -1.46312e-12)
(1.43227 -0.00525834 -1.47755e-12)
(1.43248 -0.0052306 -1.45171e-12)
(1.43268 -0.00520307 -1.48981e-12)
(1.43289 -0.00517574 -1.54628e-12)
(1.43309 -0.00514862 -1.53529e-12)
(1.43329 -0.00512171 -1.52538e-12)
(1.43349 -0.005095 -1.51645e-12)
(1.43368 -0.00506849 -1.50828e-12)
(1.43387 -0.00504217 -1.50094e-12)
(1.43406 -0.00501606 -1.49418e-12)
(1.43425 -0.00499013 -1.48804e-12)
(1.43443 -0.0049644 -1.48238e-12)
(1.43462 -0.00493886 -1.47725e-12)
(1.4348 -0.00491351 -1.47246e-12)
(1.43497 -0.00488835 -1.46803e-12)
(1.35553 -0.01033 -2.11323e-12)
(1.35604 -0.0102467 -2.11309e-12)
(1.35654 -0.0101644 -2.11291e-12)
(1.35703 -0.0100831 -2.11249e-12)
(1.35751 -0.0100027 -2.11215e-12)
(1.35798 -0.00992333 -2.11144e-12)
(1.35843 -0.00984483 -2.11092e-12)
(1.35888 -0.00976725 -2.10991e-12)
(1.35932 -0.00969057 -2.10927e-12)
(1.35974 -0.00961477 -2.10794e-12)
(1.36015 -0.00953984 -2.10725e-12)
(1.36056 -0.00946577 -2.10553e-12)
(1.36095 -0.00939254 -2.10476e-12)
(1.36134 -0.00932015 -2.10268e-12)
(1.36171 -0.00924858 -2.10187e-12)
(1.36208 -0.00917782 -2.09944e-12)
(1.36244 -0.00910786 -2.09859e-12)
(1.36279 -0.00903868 -2.09586e-12)
(1.36313 -0.00897027 -2.09467e-12)
(1.36346 -0.00890262 -2.09207e-12)
(1.36379 -0.00883573 -2.09031e-12)
(1.3641 -0.00876958 -2.08783e-12)
(1.36441 -0.00870415 -2.08549e-12)
(1.36471 -0.00863945 -2.08261e-12)
(1.365 -0.00857546 -2.08005e-12)
(1.36529 -0.00851216 -2.07682e-12)
(1.36557 -0.00844955 -2.07384e-12)
(1.36584 -0.00838762 -2.07087e-12)
(1.3661 -0.00832637 -2.06726e-12)
(1.36636 -0.00826577 -2.06362e-12)
(1.36661 -0.00820582 -2.05969e-12)
(1.36685 -0.00814651 -2.0549e-12)
(1.36709 -0.00808784 -2.05121e-12)
(1.36732 -0.00802979 -2.0456e-12)
(1.36755 -0.00797236 -2.03902e-12)
(1.36777 -0.00791553 -2.031e-12)
(1.36798 -0.0078593 -2.02343e-12)
(1.36819 -0.00780366 -2.0135e-12)
(1.36839 -0.0077486 -2.00623e-12)
(1.36858 -0.00769412 -1.9956e-12)
(1.36878 -0.0076402 -1.9856e-12)
(1.36896 -0.00758685 -1.97375e-12)
(1.36914 -0.00753404 -1.96208e-12)
(1.36932 -0.00748177 -1.95139e-12)
(1.36949 -0.00743005 -1.94056e-12)
(1.36965 -0.00737885 -1.92998e-12)
(1.36981 -0.00732817 -1.91948e-12)
(1.36997 -0.00727801 -1.90948e-12)
(1.37012 -0.00722836 -1.89969e-12)
(1.37027 -0.0071792 -1.89055e-12)
(1.37041 -0.00713055 -1.88154e-12)
(1.37055 -0.00708238 -1.8734e-12)
(1.37068 -0.00703469 -1.86521e-12)
(1.37081 -0.00698748 -1.85804e-12)
(1.37093 -0.00694073 -1.85057e-12)
(1.37105 -0.00689445 -1.84444e-12)
(1.37117 -0.00684863 -1.83755e-12)
(1.37128 -0.00680326 -1.83239e-12)
(1.37139 -0.00675833 -1.82594e-12)
(1.3715 -0.00671384 -1.82173e-12)
(1.3716 -0.00666978 -1.8157e-12)
(1.3717 -0.00662616 -1.81209e-12)
(1.3718 -0.00658295 -1.80689e-12)
(1.37189 -0.00654017 -1.80272e-12)
(1.37198 -0.00649779 -1.80021e-12)
(1.37206 -0.00645582 -1.79834e-12)
(1.37214 -0.00641426 -1.7952e-12)
(1.37222 -0.00637309 -1.79337e-12)
(1.3723 -0.00633231 -1.7897e-12)
(1.37237 -0.00629192 -1.78815e-12)
(1.37244 -0.0062519 -1.78381e-12)
(1.37251 -0.00621227 -1.78286e-12)
(1.37257 -0.00617301 -1.77781e-12)
(1.37263 -0.00613411 -1.77746e-12)
(1.37269 -0.00609558 -1.77196e-12)
(1.37275 -0.00605741 -1.77169e-12)
(1.3728 -0.00601959 -1.76691e-12)
(1.37285 -0.00598212 -1.76445e-12)
(1.3729 -0.005945 -1.7645e-12)
(1.37294 -0.00590821 -1.75622e-12)
(1.37299 -0.00587177 -1.76112e-12)
(1.37303 -0.00583566 -1.75079e-12)
(1.37306 -0.00579987 -1.75356e-12)
(1.3731 -0.00576441 -1.74668e-12)
(1.37313 -0.00572927 -1.74634e-12)
(1.37317 -0.00569445 -1.74195e-12)
(1.3732 -0.00565994 -1.73969e-12)
(1.37322 -0.00562574 -1.73957e-12)
(1.37325 -0.00559185 -1.73219e-12)
(1.37327 -0.00555826 -1.73627e-12)
(1.37329 -0.00552497 -1.72706e-12)
(1.37331 -0.00549197 -1.72905e-12)
(1.37333 -0.00545926 -1.72291e-12)
(1.37334 -0.00542685 -1.72209e-12)
(1.37336 -0.00539471 -1.71837e-12)
(1.37337 -0.00536286 -1.7155e-12)
(1.37338 -0.00533129 -1.71587e-12)
(1.37339 -0.00529999 -1.70834e-12)
(1.37339 -0.00526896 -1.71272e-12)
(1.3734 -0.0052382 -1.70289e-12)
(1.3734 -0.00520771 -1.70612e-12)
(1.3734 -0.00517748 -1.69786e-12)
(1.3734 -0.0051475 -1.69976e-12)
(1.3734 -0.00511779 -1.69246e-12)
(1.3734 -0.00508833 -1.69415e-12)
(1.37339 -0.00505911 -1.68871e-12)
(1.37339 -0.00503015 -1.68819e-12)
(1.37338 -0.00500143 -1.68456e-12)
(1.37337 -0.00497295 -1.68281e-12)
(1.37336 -0.00494471 -1.6789e-12)
(1.37335 -0.00491671 -1.67721e-12)
(1.37334 -0.00488894 -1.67385e-12)
(1.37332 -0.00486141 -1.67029e-12)
(1.37331 -0.0048341 -1.67111e-12)
(1.37329 -0.00480702 -1.67118e-12)
(1.37327 -0.00478016 -1.67063e-12)
(1.37326 -0.00475352 -1.66952e-12)
(1.37324 -0.0047271 -1.66796e-12)
(1.37321 -0.0047009 -1.66605e-12)
(1.37319 -0.00467491 -1.66382e-12)
(1.37317 -0.00464913 -1.66129e-12)
(1.37314 -0.00462357 -1.65856e-12)
(1.37312 -0.00459821 -1.65565e-12)
(1.37309 -0.00457305 -1.65265e-12)
(1.37306 -0.0045481 -1.64945e-12)
(1.31305 -0.00983344 -2.50242e-12)
(1.31305 -0.00974421 -2.49767e-12)
(1.31305 -0.00965619 -2.49285e-12)
(1.31304 -0.00956937 -2.48781e-12)
(1.31302 -0.00948373 -2.48275e-12)
(1.313 -0.00939924 -2.47742e-12)
(1.31297 -0.00931588 -2.47212e-12)
(1.31293 -0.00923364 -2.46654e-12)
(1.31289 -0.00915249 -2.46101e-12)
(1.31284 -0.00907242 -2.45515e-12)
(1.31278 -0.0089934 -2.44943e-12)
(1.31272 -0.00891543 -2.44332e-12)
(1.31265 -0.00883847 -2.43743e-12)
(1.31258 -0.00876251 -2.43103e-12)
(1.3125 -0.00868754 -2.42511e-12)
(1.31242 -0.00861354 -2.4183e-12)
(1.31233 -0.00854049 -2.41243e-12)
(1.31224 -0.00846838 -2.40524e-12)
(1.31214 -0.00839719 -2.39945e-12)
(1.31204 -0.0083269 -2.39196e-12)
(1.31194 -0.0082575 -2.38613e-12)
(1.31183 -0.00818897 -2.37768e-12)
(1.31171 -0.00812131 -2.37162e-12)
(1.31159 -0.00805449 -2.36215e-12)
(1.31147 -0.0079885 -2.35549e-12)
(1.31134 -0.00792334 -2.346e-12)
(1.31122 -0.00785897 -2.33771e-12)
(1.31108 -0.0077954 -2.32915e-12)
(1.31095 -0.0077326 -2.31747e-12)
(1.31081 -0.00767058 -2.31157e-12)
(1.31066 -0.0076093 -2.29588e-12)
(1.31052 -0.00754877 -2.29035e-12)
(1.31037 -0.00748896 -2.28207e-12)
(1.31022 -0.00742988 -2.24674e-12)
(1.31006 -0.0073715 -2.21247e-12)
(1.30991 -0.00731381 -2.19098e-12)
(1.30975 -0.00725681 -2.16192e-12)
(1.30958 -0.00720049 -2.14729e-12)
(1.30942 -0.00714482 -2.13273e-12)
(1.30925 -0.00708981 -2.09146e-12)
(1.30908 -0.00703544 -2.05826e-12)
(1.30891 -0.0069817 -2.03164e-12)
(1.30874 -0.00692858 -2.01029e-12)
(1.30856 -0.00687608 -1.99342e-12)
(1.30839 -0.00682418 -1.98007e-12)
(1.30821 -0.00677287 -1.96976e-12)
(1.30802 -0.00672215 -1.96156e-12)
(1.30784 -0.00667201 -1.95538e-12)
(1.30766 -0.00662243 -1.95066e-12)
(1.30747 -0.00657341 -1.94719e-12)
(1.30728 -0.00652494 -1.94457e-12)
(1.30709 -0.00647701 -1.94273e-12)
(1.3069 -0.00642962 -1.94136e-12)
(1.30671 -0.00638275 -1.94053e-12)
(1.30652 -0.0063364 -1.93986e-12)
(1.30632 -0.00629056 -1.93957e-12)
(1.30613 -0.00624523 -1.93922e-12)
(1.30593 -0.00620038 -1.93912e-12)
(1.30573 -0.00615603 -1.93891e-12)
(1.30553 -0.00611216 -1.93885e-12)
(1.30533 -0.00606876 -1.93857e-12)
(1.30513 -0.00602583 -1.9384e-12)
(1.30493 -0.00598336 -1.938e-12)
(1.30473 -0.00594134 -1.93759e-12)
(1.30452 -0.00589977 -1.937e-12)
(1.30432 -0.00585864 -1.93654e-12)
(1.30411 -0.00581795 -1.93579e-12)
(1.3039 -0.00577768 -1.93516e-12)
(1.3037 -0.00573784 -1.93417e-12)
(1.30349 -0.00569841 -1.93337e-12)
(1.30328 -0.00565939 -1.93209e-12)
(1.30307 -0.00562078 -1.93107e-12)
(1.30286 -0.00558256 -1.9295e-12)
(1.30265 -0.00554474 -1.92817e-12)
(1.30244 -0.00550731 -1.92642e-12)
(1.30223 -0.00547026 -1.92463e-12)
(1.30202 -0.00543359 -1.92291e-12)
(1.30181 -0.00539728 -1.92045e-12)
(1.30159 -0.00536135 -1.91885e-12)
(1.30138 -0.00532578 -1.91591e-12)
(1.30117 -0.00529056 -1.91413e-12)
(1.30095 -0.0052557 -1.91122e-12)
(1.30074 -0.00522119 -1.90883e-12)
(1.30053 -0.00518701 -1.906e-12)
(1.30031 -0.00515318 -1.90309e-12)
(1.3001 -0.00511968 -1.90026e-12)
(1.29988 -0.00508651 -1.89682e-12)
(1.29967 -0.00505366 -1.89414e-12)
(1.29945 -0.00502113 -1.89032e-12)
(1.29924 -0.00498892 -1.8875e-12)
(1.29902 -0.00495703 -1.88377e-12)
(1.29881 -0.00492544 -1.88042e-12)
(1.29859 -0.00489415 -1.87684e-12)
(1.29838 -0.00486316 -1.87304e-12)
(1.29816 -0.00483247 -1.86964e-12)
(1.29795 -0.00480208 -1.8654e-12)
(1.29773 -0.00477197 -1.86224e-12)
(1.29751 -0.00474214 -1.85771e-12)
(1.2973 -0.0047126 -1.85452e-12)
(1.29708 -0.00468333 -1.85002e-12)
(1.29687 -0.00465434 -1.84659e-12)
(1.29665 -0.00462562 -1.84211e-12)
(1.29644 -0.00459716 -1.83848e-12)
(1.29622 -0.00456897 -1.83403e-12)
(1.29601 -0.00454104 -1.83017e-12)
(1.29579 -0.00451337 -1.82586e-12)
(1.29558 -0.00448595 -1.82188e-12)
(1.29536 -0.00445878 -1.81764e-12)
(1.29515 -0.00443186 -1.81357e-12)
(1.29493 -0.00440518 -1.80929e-12)
(1.29472 -0.00437875 -1.80508e-12)
(1.29451 -0.00435255 -1.80089e-12)
(1.29429 -0.00432659 -1.79653e-12)
(1.29408 -0.00430086 -1.79229e-12)
(1.29386 -0.00427536 -1.78813e-12)
(1.29365 -0.00425009 -1.78407e-12)
(1.29344 -0.00422504 -1.78002e-12)
(1.29323 -0.00420022 -1.776e-12)
(1.29301 -0.00417561 -1.77196e-12)
(1.2928 -0.00415122 -1.76786e-12)
(1.29259 -0.00412704 -1.76372e-12)
(1.29238 -0.00410308 -1.75955e-12)
(1.29217 -0.00407932 -1.75537e-12)
(1.29196 -0.00405577 -1.75112e-12)
(1.29175 -0.00403242 -1.74683e-12)
(1.2448 -0.0087941 -2.72627e-12)
(1.24429 -0.0087056 -2.71571e-12)
(1.24378 -0.00861847 -2.70521e-12)
(1.24327 -0.00853268 -2.69432e-12)
(1.24276 -0.00844822 -2.68363e-12)
(1.24225 -0.00836504 -2.67237e-12)
(1.24173 -0.00828313 -2.66153e-12)
(1.24122 -0.00820246 -2.64998e-12)
(1.24071 -0.008123 -2.63905e-12)
(1.24019 -0.00804473 -2.62731e-12)
(1.23968 -0.00796763 -2.61629e-12)
(1.23916 -0.00789167 -2.6045e-12)
(1.23865 -0.00781683 -2.59325e-12)
(1.23813 -0.00774308 -2.58158e-12)
(1.23762 -0.00767041 -2.57021e-12)
(1.2371 -0.0075988 -2.55839e-12)
(1.23659 -0.00752822 -2.54785e-12)
(1.23608 -0.00745865 -2.53415e-12)
(1.23556 -0.00739008 -2.52671e-12)
(1.23505 -0.00732248 -2.51038e-12)
(1.23454 -0.00725584 -2.49864e-12)
(1.23403 -0.00719014 -2.47609e-12)
(1.23351 -0.00712535 -2.46619e-12)
(1.233 -0.00706148 -2.43733e-12)
(1.23249 -0.00699848 -2.43503e-12)
(1.23199 -0.00693636 -2.39967e-12)
(1.23148 -0.00687509 -2.39779e-12)
(1.23097 -0.00681465 -2.35698e-12)
(1.23046 -0.00675504 -2.35122e-12)
(1.22996 -0.00669624 -2.32864e-12)
(1.22946 -0.00663823 -2.27813e-12)
(1.22895 -0.00658099 -2.35998e-12)
(1.22845 -0.00652452 -2.10402e-12)
(1.22795 -0.0064688 -1.76054e-12)
(1.22745 -0.00641381 -1.81589e-12)
(1.22695 -0.00635955 -1.86077e-12)
(1.22646 -0.006306 -1.8462e-12)
(1.22596 -0.00625315 -1.9845e-12)
(1.22547 -0.00620098 -1.75283e-12)
(1.22497 -0.00614948 -1.46088e-12)
(1.22448 -0.00609865 -1.54765e-12)
(1.22399 -0.00604846 -1.62172e-12)
(1.2235 -0.00599892 -1.68499e-12)
(1.22302 -0.00595 -1.73919e-12)
(1.22253 -0.0059017 -1.78556e-12)
(1.22205 -0.005854 -1.82545e-12)
(1.22156 -0.0058069 -1.85956e-12)
(1.22108 -0.00576039 -1.88893e-12)
(1.2206 -0.00571445 -1.91417e-12)
(1.22013 -0.00566908 -1.93587e-12)
(1.21965 -0.00562427 -1.9545e-12)
(1.21917 -0.00558 -1.97052e-12)
(1.2187 -0.00553627 -1.98421e-12)
(1.21823 -0.00549307 -1.99595e-12)
(1.21776 -0.00545039 -2.0059e-12)
(1.21729 -0.00540823 -2.01435e-12)
(1.21683 -0.00536656 -2.02146e-12)
(1.21636 -0.00532539 -2.02734e-12)
(1.2159 -0.00528471 -2.03219e-12)
(1.21544 -0.00524451 -2.03612e-12)
(1.21498 -0.00520479 -2.03917e-12)
(1.21452 -0.00516552 -2.04147e-12)
(1.21406 -0.00512671 -2.04313e-12)
(1.21361 -0.00508836 -2.04414e-12)
(1.21315 -0.00505044 -2.04458e-12)
(1.2127 -0.00501296 -2.04457e-12)
(1.21225 -0.00497591 -2.04405e-12)
(1.2118 -0.00493928 -2.04315e-12)
(1.21136 -0.00490307 -2.04183e-12)
(1.21091 -0.00486727 -2.04019e-12)
(1.21047 -0.00483187 -2.03819e-12)
(1.21003 -0.00479686 -2.03594e-12)
(1.20959 -0.00476225 -2.03338e-12)
(1.20915 -0.00472802 -2.03059e-12)
(1.20872 -0.00469417 -2.02754e-12)
(1.20828 -0.00466069 -2.02426e-12)
(1.20785 -0.00462758 -2.02076e-12)
(1.20742 -0.00459483 -2.01706e-12)
(1.20699 -0.00456244 -2.01324e-12)
(1.20657 -0.0045304 -2.00914e-12)
(1.20614 -0.0044987 -2.00504e-12)
(1.20572 -0.00446735 -2.0007e-12)
(1.20529 -0.00443633 -1.9961e-12)
(1.20487 -0.00440564 -1.99139e-12)
(1.20446 -0.00437528 -1.9864e-12)
(1.20404 -0.00434524 -1.98133e-12)
(1.20362 -0.00431552 -1.97611e-12)
(1.20321 -0.00428611 -1.97084e-12)
(1.2028 -0.00425701 -1.96546e-12)
(1.20239 -0.0042282 -1.96007e-12)
(1.20198 -0.0041997 -1.95464e-12)
(1.20157 -0.0041715 -1.94914e-12)
(1.20117 -0.00414358 -1.94367e-12)
(1.20077 -0.00411595 -1.93809e-12)
(1.20036 -0.0040886 -1.93261e-12)
(1.19996 -0.00406153 -1.92689e-12)
(1.19957 -0.00403474 -1.92137e-12)
(1.19917 -0.00400821 -1.91563e-12)
(1.19878 -0.00398195 -1.91001e-12)
(1.19838 -0.00395596 -1.90426e-12)
(1.19799 -0.00393022 -1.89852e-12)
(1.1976 -0.00390474 -1.89266e-12)
(1.19721 -0.00387952 -1.88696e-12)
(1.19683 -0.00385454 -1.88119e-12)
(1.19644 -0.00382981 -1.87554e-12)
(1.19606 -0.00380532 -1.86981e-12)
(1.19568 -0.00378107 -1.86411e-12)
(1.1953 -0.00375706 -1.85832e-12)
(1.19492 -0.00373327 -1.85252e-12)
(1.19454 -0.00370972 -1.84665e-12)
(1.19417 -0.0036864 -1.84068e-12)
(1.19379 -0.0036633 -1.83464e-12)
(1.19342 -0.00364042 -1.82859e-12)
(1.19305 -0.00361775 -1.82243e-12)
(1.19268 -0.0035953 -1.81628e-12)
(1.19231 -0.00357307 -1.8101e-12)
(1.19195 -0.00355104 -1.80389e-12)
(1.19158 -0.00352922 -1.79766e-12)
(1.19122 -0.00350761 -1.79143e-12)
(1.19086 -0.00348619 -1.78525e-12)
(1.1905 -0.00346498 -1.77908e-12)
(1.19014 -0.00344396 -1.77287e-12)
(1.18979 -0.00342313 -1.76673e-12)
(1.18943 -0.0034025 -1.76056e-12)
(1.18908 -0.00338205 -1.75445e-12)
(1.14491 -0.00727717 -2.72222e-12)
(1.14397 -0.00719759 -2.7044e-12)
(1.14304 -0.00711938 -2.68717e-12)
(1.14212 -0.00704251 -2.66906e-12)
(1.1412 -0.00696695 -2.65216e-12)
(1.14029 -0.00689267 -2.63373e-12)
(1.13938 -0.00681963 -2.61758e-12)
(1.13848 -0.00674781 -2.59871e-12)
(1.13759 -0.00667718 -2.58376e-12)
(1.1367 -0.00660772 -2.56426e-12)
(1.13581 -0.00653939 -2.55068e-12)
(1.13493 -0.00647218 -2.53088e-12)
(1.13406 -0.00640605 -2.51784e-12)
(1.13319 -0.00634099 -2.49971e-12)
(1.13233 -0.00627697 -2.48378e-12)
(1.13148 -0.00621396 -2.47246e-12)
(1.13063 -0.00615195 -2.44837e-12)
(1.12978 -0.00609092 -2.44347e-12)
(1.12894 -0.00603084 -2.43343e-12)
(1.12811 -0.00597169 -2.3523e-12)
(1.12728 -0.00591345 -2.30276e-12)
(1.12645 -0.00585611 -2.25142e-12)
(1.12563 -0.00579964 -2.22764e-12)
(1.12482 -0.00574403 -2.18437e-12)
(1.12401 -0.00568926 -2.21432e-12)
(1.12321 -0.00563531 -2.06456e-12)
(1.12241 -0.00558216 -2.12463e-12)
(1.12162 -0.0055298 -1.91546e-12)
(1.12083 -0.00547821 -2.15117e-12)
(1.12005 -0.00542738 -1.73427e-12)
(1.11927 -0.0053773 -2.34838e-12)
(1.1185 -0.00532793 -1.36326e-12)
(1.11773 -0.00527928 3.41733e-12)
(1.11697 -0.00523133 1.96797e-12)
(1.11621 -0.00518406 -2.37797e-12)
(1.11546 -0.00513747 -1.931e-12)
(1.11471 -0.00509153 -2.44884e-12)
(1.11397 -0.00504623 -1.55202e-12)
(1.11323 -0.00500157 3.29907e-12)
(1.1125 -0.00495753 1.62099e-12)
(1.11177 -0.0049141 -2.54954e-12)
(1.11105 -0.00487126 -2.49966e-12)
(1.11033 -0.00482901 -2.4572e-12)
(1.10961 -0.00478734 -2.42111e-12)
(1.1089 -0.00474623 -2.39016e-12)
(1.10819 -0.00470567 -2.36361e-12)
(1.10749 -0.00466565 -2.3407e-12)
(1.1068 -0.00462617 -2.32072e-12)
(1.1061 -0.00458722 -2.3032e-12)
(1.10541 -0.00454877 -2.2876e-12)
(1.10473 -0.00451083 -2.27367e-12)
(1.10405 -0.00447339 -2.26109e-12)
(1.10338 -0.00443643 -2.24952e-12)
(1.1027 -0.00439995 -2.23884e-12)
(1.10204 -0.00436394 -2.22884e-12)
(1.10138 -0.0043284 -2.21937e-12)
(1.10072 -0.0042933 -2.21032e-12)
(1.10006 -0.00425865 -2.20157e-12)
(1.09941 -0.00422444 -2.19307e-12)
(1.09876 -0.00419065 -2.18475e-12)
(1.09812 -0.00415729 -2.17657e-12)
(1.09748 -0.00412434 -2.16845e-12)
(1.09685 -0.00409181 -2.16043e-12)
(1.09622 -0.00405967 -2.15237e-12)
(1.09559 -0.00402793 -2.14436e-12)
(1.09497 -0.00399657 -2.13633e-12)
(1.09435 -0.00396559 -2.12833e-12)
(1.09373 -0.00393499 -2.12018e-12)
(1.09312 -0.00390476 -2.11218e-12)
(1.09251 -0.00387489 -2.10394e-12)
(1.09191 -0.00384538 -2.09587e-12)
(1.09131 -0.00381621 -2.08759e-12)
(1.09071 -0.00378739 -2.07947e-12)
(1.09012 -0.00375891 -2.07116e-12)
(1.08953 -0.00373077 -2.06282e-12)
(1.08894 -0.00370295 -2.05463e-12)
(1.08836 -0.00367545 -2.04604e-12)
(1.08778 -0.00364828 -2.03803e-12)
(1.08721 -0.00362141 -2.02926e-12)
(1.08663 -0.00359485 -2.02083e-12)
(1.08606 -0.0035686 -2.0131e-12)
(1.0855 -0.00354264 -2.00376e-12)
(1.08494 -0.00351698 -1.99381e-12)
(1.08438 -0.0034916 -1.98392e-12)
(1.08382 -0.00346651 -1.97427e-12)
(1.08327 -0.0034417 -1.96511e-12)
(1.08272 -0.00341717 -1.95629e-12)
(1.08217 -0.00339291 -1.94792e-12)
(1.08163 -0.00336891 -1.93977e-12)
(1.08109 -0.00334518 -1.93192e-12)
(1.08056 -0.0033217 -1.9241e-12)
(1.08002 -0.00329848 -1.9165e-12)
(1.07949 -0.00327552 -1.9088e-12)
(1.07897 -0.0032528 -1.90122e-12)
(1.07844 -0.00323032 -1.89354e-12)
(1.07792 -0.00320809 -1.88575e-12)
(1.0774 -0.00318609 -1.87825e-12)
(1.07689 -0.00316433 -1.87008e-12)
(1.07637 -0.00314279 -1.86261e-12)
(1.07586 -0.00312148 -1.8547e-12)
(1.07536 -0.0031004 -1.84615e-12)
(1.07485 -0.00307953 -1.83913e-12)
(1.07435 -0.00305888 -1.83275e-12)
(1.07386 -0.00303845 -1.82627e-12)
(1.07336 -0.00301823 -1.81946e-12)
(1.07287 -0.00299821 -1.81223e-12)
(1.07238 -0.0029784 -1.80454e-12)
(1.07189 -0.00295879 -1.79647e-12)
(1.07141 -0.00293938 -1.78817e-12)
(1.07093 -0.00292017 -1.77969e-12)
(1.07045 -0.00290115 -1.77109e-12)
(1.06997 -0.00288232 -1.76248e-12)
(1.0695 -0.00286368 -1.75388e-12)
(1.06903 -0.00284522 -1.74538e-12)
(1.06856 -0.00282695 -1.73687e-12)
(1.06809 -0.00280885 -1.72849e-12)
(1.06763 -0.00279094 -1.72025e-12)
(1.06717 -0.0027732 -1.71213e-12)
(1.06671 -0.00275563 -1.70412e-12)
(1.06625 -0.00273824 -1.69623e-12)
(1.0658 -0.00272101 -1.68852e-12)
(1.06535 -0.00270395 -1.68083e-12)
(1.0649 -0.00268706 -1.67326e-12)
(1.06446 -0.00267032 -1.66582e-12)
(1.06401 -0.00265375 -1.65846e-12)
(1.00977 -0.00545658 -2.42596e-12)
(1.00858 -0.00539324 -2.40089e-12)
(1.0074 -0.00533107 -2.37761e-12)
(1.00623 -0.00527004 -2.35371e-12)
(1.00507 -0.00521013 -2.33302e-12)
(1.00392 -0.00515131 -2.30961e-12)
(1.00278 -0.00509354 -2.29255e-12)
(1.00165 -0.00503681 -2.2678e-12)
(1.00054 -0.00498108 -2.25674e-12)
(0.999429 -0.00492634 -2.22703e-12)
(0.998332 -0.00487256 -2.22668e-12)
(0.997245 -0.00481971 -2.18554e-12)
(0.996168 -0.00476778 -2.20279e-12)
(0.9951 -0.00471674 -2.14443e-12)
(0.994042 -0.00466657 -2.17711e-12)
(0.992994 -0.00461725 -2.12569e-12)
(0.991955 -0.00456876 -2.09538e-12)
(0.990925 -0.00452108 -2.24845e-12)
(0.989904 -0.00447419 -1.70843e-12)
(0.988892 -0.00442808 -1.09773e-12)
(0.987889 -0.00438272 -1.30812e-12)
(0.986894 -0.0043381 -1.40064e-12)
(0.985909 -0.0042942 -1.49996e-12)
(0.984931 -0.00425101 -1.74838e-12)
(0.983963 -0.00420851 -1.30432e-12)
(0.983002 -0.00416669 -7.34345e-13)
(0.98205 -0.00412553 -1.06115e-12)
(0.981106 -0.00408501 -1.09812e-12)
(0.980169 -0.00404512 -1.45035e-12)
(0.979241 -0.00400586 -1.31994e-12)
(0.97832 -0.0039672 -1.71942e-12)
(0.977407 -0.00392913 4.3981e-13)
(0.976502 -0.00389164 5.7022e-12)
(0.975604 -0.00385472 3.62983e-12)
(0.974714 -0.00381835 -1.36858e-12)
(0.973831 -0.00378253 -1.15932e-12)
(0.972955 -0.00374724 -1.96361e-12)
(0.972086 -0.00371247 -1.01912e-12)
(0.971224 -0.00367821 3.96662e-12)
(0.97037 -0.00364446 2.01034e-12)
(0.969522 -0.00361119 -2.53473e-12)
(0.968681 -0.00357841 -2.51213e-12)
(0.967846 -0.0035461 -2.49108e-12)
(0.967018 -0.00351425 -2.47116e-12)
(0.966197 -0.00348285 -2.45171e-12)
(0.965382 -0.00345189 -2.4328e-12)
(0.964574 -0.00342137 -2.41408e-12)
(0.963772 -0.00339128 -2.39553e-12)
(0.962976 -0.00336161 -2.37718e-12)
(0.962187 -0.00333234 -2.35891e-12)
(0.961403 -0.00330348 -2.34078e-12)
(0.960625 -0.00327501 -2.32287e-12)
(0.959854 -0.00324693 -2.30502e-12)
(0.959088 -0.00321923 -2.28741e-12)
(0.958328 -0.00319191 -2.26994e-12)
(0.957574 -0.00316495 -2.25269e-12)
(0.956826 -0.00313835 -2.23561e-12)
(0.956083 -0.0031121 -2.21874e-12)
(0.955346 -0.00308619 -2.2021e-12)
(0.954614 -0.00306063 -2.18563e-12)
(0.953888 -0.0030354 -2.1694e-12)
(0.953167 -0.0030105 -2.1534e-12)
(0.952451 -0.00298592 -2.13762e-12)
(0.95174 -0.00296165 -2.12202e-12)
(0.951035 -0.0029377 -2.10666e-12)
(0.950335 -0.00291405 -2.09148e-12)
(0.94964 -0.0028907 -2.07664e-12)
(0.94895 -0.00286764 -2.0618e-12)
(0.948265 -0.00284488 -2.04747e-12)
(0.947585 -0.0028224 -2.03282e-12)
(0.94691 -0.00280019 -2.01909e-12)
(0.946239 -0.00277826 -2.00463e-12)
(0.945573 -0.0027566 -1.99166e-12)
(0.944912 -0.00273521 -1.97711e-12)
(0.944256 -0.00271407 -1.96487e-12)
(0.943604 -0.0026932 -1.95075e-12)
(0.942957 -0.00267257 -1.93782e-12)
(0.942315 -0.00265219 -1.92689e-12)
(0.941676 -0.00263206 -1.90909e-12)
(0.941042 -0.00261216 -1.90425e-12)
(0.940413 -0.0025925 -1.88941e-12)
(0.939788 -0.00257307 -1.85662e-12)
(0.939167 -0.00255387 -1.83644e-12)
(0.93855 -0.00253489 -1.82409e-12)
(0.937938 -0.00251614 -1.81599e-12)
(0.93733 -0.0024976 -1.80993e-12)
(0.936725 -0.00247927 -1.80435e-12)
(0.936125 -0.00246116 -1.79872e-12)
(0.935529 -0.00244325 -1.79221e-12)
(0.934937 -0.00242554 -1.78534e-12)
(0.934349 -0.00240804 -1.7771e-12)
(0.933764 -0.00239073 -1.76906e-12)
(0.933184 -0.00237362 -1.75918e-12)
(0.932607 -0.0023567 -1.75056e-12)
(0.932034 -0.00233996 -1.73947e-12)
(0.931465 -0.00232341 -1.73035e-12)
(0.9309 -0.00230705 -1.71983e-12)
(0.930338 -0.00229086 -1.7077e-12)
(0.92978 -0.00227485 -1.70236e-12)
(0.929226 -0.00225901 -1.68407e-12)
(0.928675 -0.00224335 -1.67676e-12)
(0.928127 -0.00222785 -1.68763e-12)
(0.927583 -0.00221252 -1.68562e-12)
(0.927043 -0.00219735 -1.67587e-12)
(0.926506 -0.00218235 -1.66208e-12)
(0.925972 -0.00216751 -1.64658e-12)
(0.925442 -0.00215282 -1.63084e-12)
(0.924915 -0.00213828 -1.61566e-12)
(0.924391 -0.0021239 -1.60145e-12)
(0.923871 -0.00210967 -1.58834e-12)
(0.923354 -0.00209559 -1.57624e-12)
(0.92284 -0.00208165 -1.56513e-12)
(0.922329 -0.00206786 -1.55487e-12)
(0.921821 -0.0020542 -1.5453e-12)
(0.921317 -0.00204069 -1.53623e-12)
(0.920815 -0.00202731 -1.5277e-12)
(0.920317 -0.00201407 -1.5195e-12)
(0.919822 -0.00200097 -1.5116e-12)
(0.919329 -0.00198799 -1.50395e-12)
(0.91884 -0.00197515 -1.49644e-12)
(0.918353 -0.00196243 -1.48909e-12)
(0.91787 -0.00194984 -1.4818e-12)
(0.917389 -0.00193738 -1.47465e-12)
(0.916912 -0.00192504 -1.46754e-12)
(0.916437 -0.00191282 -1.4605e-12)
(0.838845 -0.00358377 -1.79428e-12)
(0.83761 -0.0035406 -1.77526e-12)
(0.836388 -0.00349826 -1.75918e-12)
(0.83518 -0.00345674 -1.74373e-12)
(0.833985 -0.00341601 -1.73196e-12)
(0.832803 -0.00337605 -1.71777e-12)
(0.831634 -0.00333684 -1.71109e-12)
(0.830477 -0.00329836 -1.69405e-12)
(0.829333 -0.00326059 -1.69739e-12)
(0.828201 -0.00322352 -1.66681e-12)
(0.827081 -0.00318712 -1.69758e-12)
(0.825973 -0.00315139 -1.62067e-12)
(0.824876 -0.00311629 -1.73644e-12)
(0.823791 -0.00308183 -1.50949e-12)
(0.822716 -0.00304797 -1.89392e-12)
(0.821653 -0.00301471 -1.19258e-12)
(0.820601 -0.00298203 -2.40789e-12)
(0.819559 -0.00294992 -2.81078e-13)
(0.818528 -0.00291836 7.39253e-12)
(0.817507 -0.00288735 4.32619e-12)
(0.816497 -0.00285686 -2.79914e-12)
(0.815496 -0.00282688 -2.028e-12)
(0.814505 -0.00279741 -3.15571e-12)
(0.813524 -0.00276843 -9.6613e-13)
(0.812552 -0.00273993 6.84216e-12)
(0.81159 -0.0027119 3.7121e-12)
(0.810637 -0.00268433 -3.17192e-12)
(0.809693 -0.0026572 -2.71619e-12)
(0.808759 -0.00263052 -3.14008e-12)
(0.807833 -0.00260426 -2.10992e-12)
(0.806915 -0.00257842 7.91582e-12)
(0.806006 -0.00255299 1.23729e-11)
(0.805106 -0.00252795 2.75259e-12)
(0.804214 -0.00250331 -3.42565e-12)
(0.80333 -0.00247906 -3.36057e-12)
(0.802455 -0.00245518 -3.24463e-12)
(0.801587 -0.00243166 -3.11059e-12)
(0.800727 -0.0024085 -3.14293e-12)
(0.799875 -0.0023857 -2.63302e-12)
(0.799031 -0.00236324 -2.12446e-12)
(0.798194 -0.00234111 -2.17857e-12)
(0.797364 -0.00231932 -2.21191e-12)
(0.796542 -0.00229784 -2.23013e-12)
(0.795727 -0.00227669 -2.23726e-12)
(0.794919 -0.00225584 -2.23621e-12)
(0.794118 -0.0022353 -2.22923e-12)
(0.793324 -0.00221505 -2.21785e-12)
(0.792537 -0.0021951 -2.20326e-12)
(0.791757 -0.00217543 -2.18634e-12)
(0.790983 -0.00215604 -2.16782e-12)
(0.790216 -0.00213692 -2.14809e-12)
(0.789455 -0.00211808 -2.12762e-12)
(0.788701 -0.00209949 -2.10663e-12)
(0.787953 -0.00208117 -2.08538e-12)
(0.787211 -0.0020631 -2.06397e-12)
(0.786476 -0.00204528 -2.04259e-12)
(0.785746 -0.0020277 -2.02136e-12)
(0.785022 -0.00201036 -2.00025e-12)
(0.784305 -0.00199326 -1.97939e-12)
(0.783593 -0.00197638 -1.95885e-12)
(0.782887 -0.00195974 -1.93863e-12)
(0.782186 -0.00194331 -1.9187e-12)
(0.781491 -0.0019271 -1.89917e-12)
(0.780802 -0.00191111 -1.87997e-12)
(0.780118 -0.00189533 -1.86114e-12)
(0.77944 -0.00187975 -1.84265e-12)
(0.778767 -0.00186437 -1.82462e-12)
(0.778099 -0.00184919 -1.80674e-12)
(0.777436 -0.00183421 -1.78969e-12)
(0.776779 -0.00181942 -1.77219e-12)
(0.776127 -0.00180482 -1.75643e-12)
(0.775479 -0.0017904 -1.73847e-12)
(0.774837 -0.00177616 -1.72542e-12)
(0.774199 -0.0017621 -1.70467e-12)
(0.773567 -0.00174822 -1.69795e-12)
(0.772939 -0.00173451 -1.6693e-12)
(0.772316 -0.00172097 -1.67376e-12)
(0.771697 -0.0017076 -1.63908e-12)
(0.771083 -0.00169438 -1.62657e-12)
(0.770474 -0.00168133 -1.6796e-12)
(0.769869 -0.00166844 -1.47506e-12)
(0.769269 -0.0016557 -1.3388e-12)
(0.768673 -0.00164312 -1.45892e-12)
(0.768081 -0.00163069 -1.53392e-12)
(0.767494 -0.0016184 -1.57446e-12)
(0.766911 -0.00160626 -1.59115e-12)