/*--------------------------------*- C++ -*----------------------------------*\
| =========                 |                                                 |
| \\      /  F ield         | OpenFOAM: The Open Source CFD Toolbox           |
|  \\    /   O peration     | Version:                                        |
|   \\  /    A nd           | Website:  www.openfoam.com                      |
|    \\/     M anipulation  |                                                 |
\*---------------------------------------------------------------------------*/
FoamFile
{
    version     2.0;
    format      ascii;
    class       volScalarField;
    location    "197.2";
    object      p;
}
// * * * * * * * * * * * * * * * * * * * * * * * * * * * * * * * * * * * * * //

dimensions      [0 2 -2 0 0 0 0];


internalField   nonuniform List<scalar> 
1136
(
-0.714598
-0.533532
-0.392452
-0.312226
-0.298112
-0.355285
-0.420424
-0.447276
-0.406539
-0.322373
-0.27309
-0.28444
-0.283838
-0.299439
-0.302764
-0.289613
-0.224544
-0.201951
-0.205621
-0.220451
-0.212211
-0.190682
-0.175771
-0.172248
-0.176087
-0.149637
-0.156048
-0.131849
-0.0754532
-0.00670379
-0.804294
-0.59578
-0.420138
-0.309411
-0.267743
-0.296162
-0.32691
-0.358662
-0.323035
-0.277642
-0.259467
-0.287041
-0.318561
-0.334652
-0.331693
-0.310918
-0.233154
-0.200447
-0.195131
-0.206956
-0.203944
-0.18639
-0.170583
-0.171157
-0.176203
-0.150523
-0.166217
-0.144694
-0.0737553
-0.0027064
-0.854861
-0.63261
-0.431741
-0.301123
-0.23488
-0.242178
-0.240689
-0.279696
-0.244171
-0.234284
-0.240022
-0.28439
-0.352461
-0.368866
-0.356335
-0.327794
-0.240738
-0.198649
-0.184066
-0.192272
-0.194118
-0.18041
-0.164352
-0.169589
-0.175309
-0.150559
-0.177217
-0.158795
-0.0723367
0.000961492
-0.858455
-0.636873
-0.425869
-0.28418
-0.200464
-0.192554
-0.171279
-0.212924
-0.17389
-0.191917
-0.215582
-0.273041
-0.381201
-0.401322
-0.376569
-0.338673
-0.246559
-0.195862
-0.173162
-0.177151
-0.182916
-0.17261
-0.157647
-0.167565
-0.173242
-0.149693
-0.18922
-0.174501
-0.0712698
0.00421676
-0.803959
-0.604556
-0.403787
-0.260691
-0.166866
-0.148258
-0.120039
-0.156653
-0.118768
-0.148294
-0.182024
-0.254079
-0.406818
-0.431644
-0.389575
-0.341877
-0.249133
-0.191318
-0.162167
-0.161243
-0.170503
-0.163693
-0.150893
-0.165597
-0.170178
-0.147899
-0.201945
-0.190928
-0.0702369
0.00685005
-0.698578
-0.545015
-0.369377
-0.235334
-0.138553
-0.110643
-0.0861036
-0.112258
-0.0808774
-0.101494
-0.145592
-0.234622
-0.420875
-0.455026
-0.396161
-0.338505
-0.24862
-0.18558
-0.151332
-0.145023
-0.157258
-0.154284
-0.144472
-0.16345
-0.165824
-0.144961
-0.214544
-0.207512
-0.0691428
0.00873954
-0.453292
-0.314137
-0.203551
-0.114001
-0.0810005
-0.0628362
-0.0784223
-0.0546902
-0.0576123
-0.110828
-0.206151
-0.424083
-0.470962
-0.397669
-0.328468
-0.243042
-0.17912
-0.140681
-0.128406
-0.143593
-0.143625
-0.138593
-0.161389
-0.160064
-0.140805
-0.226406
-0.223136
-0.0680369
0.0097101
-0.367976
-0.265635
-0.177725
-0.0953696
-0.059992
-0.043886
-0.055322
-0.0376126
-0.0248089
-0.0754897
-0.173549
-0.407967
-0.466578
-0.388043
-0.31352
-0.233283
-0.173346
-0.133012
-0.111398
-0.129538
-0.133337
-0.133113
-0.158788
-0.152999
-0.134963
-0.23688
-0.236197
-0.0663882
0.00973248
-0.266285
-0.205825
-0.147279
-0.0822924
-0.0481642
-0.0309968
-0.0419481
-0.0267655
-0.00640088
-0.0440627
-0.132821
-0.374618
-0.44818
-0.380718
-0.298894
-0.220142
-0.164641
-0.127167
-0.0972013
-0.1151
-0.122155
-0.127253
-0.153976
-0.144611
-0.1278
-0.245169
-0.246278
-0.0641379
0.00874285
-0.148145
-0.146338
-0.115117
-0.068731
-0.0373158
-0.019809
-0.0287149
-0.0210921
0.00330103
-0.0175283
-0.0883949
-0.324263
-0.399075
-0.350678
-0.276364
-0.201424
-0.147349
-0.114078
-0.0828216
-0.101445
-0.109981
-0.121008
-0.146098
-0.134256
-0.12085
-0.250032
-0.251661
-0.0615972
0.00689217
-0.114123
-0.083043
-0.0471474
-0.0222971
-0.0109946
-0.0166742
-0.0104439
0.015606
0.00899655
-0.0394822
-0.263503
-0.355945
-0.317323
-0.243816
-0.174665
-0.128722
-0.0970377
-0.0680601
-0.0862674
-0.0971128
-0.111399
-0.139865
-0.12273
-0.115073
-0.249677
-0.253644
-0.0591417
0.00422212
-0.0769443
-0.0580907
-0.0315554
-0.010633
-0.00553201
-0.00857392
0.00292586
0.0220339
0.0265072
-0.00290109
-0.21106
-0.322952
-0.280389
-0.211181
-0.149259
-0.111703
-0.0844405
-0.0626931
-0.0723265
-0.0841595
-0.0986641
-0.132131
-0.110306
-0.106723
-0.244594
-0.254648
-0.0558214
0.00136302
-0.0556017
-0.0406645
-0.018881
-0.00276765
-0.000912763
-0.00168562
0.0152831
0.0489179
0.039906
0.0144477
-0.17102
-0.271465
-0.237049
-0.177955
-0.123264
-0.0940345
-0.0747474
-0.0587196
-0.0594324
-0.0702076
-0.0853279
-0.119735
-0.0959856
-0.095205
-0.233866
-0.252049
-0.0500339
-0.00162095
-0.032104
-0.0204323
-0.00452347
0.00538894
0.00501745
0.00546932
0.0240773
0.0498289
0.0434704
0.0205098
-0.120451
-0.204027
-0.189134
-0.144007
-0.096234
-0.0757187
-0.0654733
-0.0559452
-0.0481737
-0.0555058
-0.0706937
-0.103286
-0.0794767
-0.0809465
-0.216797
-0.243193
-0.0422528
-0.0047299
-0.0165339
-0.0144909
0.00300125
0.0122172
0.0122762
0.0151362
0.0318799
0.0492668
0.0448199
0.0291817
-0.0564122
-0.121703
-0.138294
-0.113477
-0.0706438
-0.0564056
-0.0577082
-0.0536717
-0.0365081
-0.0388246
-0.0541229
-0.0831217
-0.0612782
-0.063279
-0.192166
-0.226321
-0.0340843
-0.00771768
-0.00212666
0.0069698
0.0155694
0.0173951
0.0165753
0.0211026
0.0358603
0.0519355
0.050465
0.0437886
0.000159765
-0.0548522
-0.0926458
-0.081473
-0.0451558
-0.0361586
-0.0475216
-0.048403
-0.0233035
-0.0210013
-0.0369213
-0.0600596
-0.0417039
-0.0425881
-0.157361
-0.201378
-0.0270894
-0.00996482
0.00812235
0.0071595
0.0170109
0.0225835
0.0246337
0.0271027
0.0388206
0.0540478
0.0568303
0.0520467
0.0327604
-0.00651905
-0.052844
-0.0564657
-0.02627
-0.0149253
-0.0308745
-0.0362659
-0.00771309
-0.00372049
-0.0201965
-0.036139
-0.0209994
-0.0198546
-0.112389
-0.168084
-0.0219508
-0.0110877
0.0152843
0.0192505
0.0253449
0.0263047
0.026612
0.0298296
0.0397146
0.0523665
0.0569307
0.0503435
0.0452283
0.0202556
-0.0253522
-0.0341163
-0.00732936
0.00637133
-0.00710517
-0.0171253
0.00818041
0.0113335
-0.00421107
-0.0135264
-0.00138481
0.00349152
-0.058389
-0.125463
-0.0196758
-0.0111606
0.0212099
0.0208477
0.0252483
0.0276904
0.0295207
0.0343789
0.0413091
0.050868
0.0556295
0.0491167
0.0475419
0.0322155
-0.00067879
-0.0142934
0.00440138
0.0212465
0.0197337
0.0121039
0.0244579
0.024629
0.00976635
0.00752238
0.0161775
0.0263035
-0.00148657
-0.0750055
-0.0205434
-0.0114427
0.0243827
0.0253643
0.0292315
0.0305608
0.0318172
0.0360238
0.0417095
0.0486222
0.0536161
0.0477855
0.0471269
0.0372987
0.00863455
0.000629367
0.0198355
0.0359457
0.0401692
0.0341764
0.0370667
0.0352797
0.0210651
0.027158
0.0320434
0.0489232
0.0484346
-0.0230525
-0.0220588
-0.00586114
0.0273979
0.0276762
0.0299698
0.0315309
0.0330997
0.0370157
0.04208
0.0462704
0.0503211
0.0472498
0.0452738
0.0432193
0.0266741
0.0140082
0.0247491
0.0417841
0.053269
0.0501736
0.0446926
0.0422489
0.0322222
0.0403212
0.0411241
0.0630928
0.0803406
0.0202338
-0.0210031
-0.00688346
0.0287447
0.0293652
0.0313114
0.0327751
0.0345065
0.0374227
0.0416451
0.0440699
0.0474268
0.0456115
0.0424889
0.0391424
0.0280171
0.0226488
0.0327318
0.0470519
0.0572016
0.0554285
0.0494842
0.0451359
0.037365
0.0485476
0.0487586
0.0688808
0.0793067
0.039166
-0.0159053
-0.00532071
0.0300512
0.0308136
0.0323262
0.0334256
0.0350942
0.0372353
0.0406993
0.0424745
0.0441
0.0439033
0.0409135
0.0391882
0.0358251
0.0295235
0.0354515
0.0472905
0.056677
0.0552122
0.050838
0.0481511
0.0411484
0.0519489
0.0521342
0.0684948
0.0772422
0.0471436
-0.00465846
-0.00250969
0.0307985
0.0315932
0.0328918
0.0337394
0.0353818
0.036995
0.039636
0.0409922
0.0418322
0.0420947
0.039761
0.0383438
0.0337057
0.033499
0.0379325
0.0470706
0.0542455
0.0532651
0.0510657
0.0485504
0.0438011
0.0533811
0.0535672
0.064005
0.0670007
0.046927
0.00564348
-0.000131049
0.0314013
0.0322269
0.0333676
0.0340655
0.0353399
0.0366863
0.03863
0.0398806
0.0401034
0.0405299
0.0390737
0.0381027
0.0364106
0.0363482
0.0389886
0.0457477
0.0516556
0.0504601
0.0497282
0.0485296
0.0440071
0.0501378
0.0518248
0.058675
0.0599837
0.0435704
0.0119771
0.00236231
0.0318993
0.0327469
0.0336521
0.0342359
0.0351982
0.0364051
0.0378218
0.0387985
0.0390606
0.0392648
0.0387558
0.0381622
0.0373473
0.0381091
0.0397812
0.0445156
0.0490221
0.0481501
0.048172
0.0474696
0.0443697
0.0489482
0.0501613
0.0536924
0.0527383
0.0388158
0.0160846
0.00419751
0.0322625
0.0330877
0.0338167
0.034338
0.035049
0.0360208
0.0371818
0.0379288
0.0382029
0.0383498
0.0382945
0.0382191
0.037775
0.0389288
0.0401182
0.0430907
0.0466955
0.0459024
0.0461283
0.0461655
0.0438757
0.046694
0.0469059
0.0481875
0.0463725
0.0344198
0.0169496
0.00511049
0.0325158
0.0333249
0.0339174
0.0343225
0.0348844
0.0356598
0.0366666
0.0371407
0.0374967
0.0376511
0.0378574
0.0381417
0.037782
0.038983
0.0399619
0.041732
0.0444046
0.0439735
0.0441843
0.0443276
0.0426385
0.0439781
0.0436556
0.0434474
0.0405785
0.0300513
0.0166998
0.00560372
0.0327314
0.0334411
0.0339452
0.0342436
0.0347332
0.0353052
0.036163
0.0365315
0.0368288
0.0370904
0.0372941
0.0378262
0.0375883
0.0385308
0.0394723
0.0403861
0.0423042
0.0420985
0.0421111
0.0422434
0.0408475
0.0412632
0.0403213
0.0386513
0.0354272
0.0264994
0.0154952
0.0054299
0.0328934
0.0334871
0.0339391
0.0341461
0.0345459
0.0349955
0.0357125
0.0360142
0.0362275
0.036546
0.0367652
0.0373141
0.0371939
0.0378378
0.0386709
0.0391296
0.0402934
0.0402377
0.0401085
0.0399862
0.0388192
0.0384095
0.0368732
0.0346398
0.03112
0.0233178
0.0140234
0.00506576
0.0330314
0.0335103
0.0338986
0.0340341
0.0343514
0.0347339
0.0352794
0.0355625
0.0356671
0.0360022
0.0362085
0.0366605
0.0366461
0.0369817
0.0376799
0.0378455
0.0384348
0.0384179
0.0380783
0.037723
0.0365356
0.0355701
0.0337755
0.0310708
0.027295
0.0206269
0.0126525
0.00458343
0.0331456
0.0335279
0.0338346
0.0339317
0.0341532
0.0344743
0.0348831
0.0351167
0.0351635
0.0354347
0.0356387
0.0359416
0.035952
0.0360961
0.0365509
0.0365806
0.0367182
0.036574
0.0361259
0.0354715
0.0342326
0.0329654
0.0308567
0.0278972
0.0241853
0.0183715
0.0113578
0.00407568
0.033242
0.0335407
0.0337596
0.0338217
0.0339555
0.0342226
0.0345072
0.0346839
0.0346843
0.0348623
0.0350429
0.0351885
0.0351828
0.0351597
0.0353824
0.035302
0.0350967
0.0348179
0.034227
0.0333327
0.0320381
0.0304773
0.0282121
0.0252605
0.0215747
0.0163893
0.0102256
0.00363244
0.033325
0.0335413
0.0336823
0.033708
0.0337762
0.0339637
0.0341551
0.0342562
0.0342185
0.0343005
0.0344116
0.0344488
0.0343564
0.0342237
0.0342383
0.0340225
0.0336145
0.0331445
0.0324223
0.0313707
0.0299436
0.0282373
0.0259309
0.0229586
0.0193786
0.0147425
0.0092487
0.00324564
0.0333958
0.0335349
0.0336071
0.0336004
0.0336066
0.0337119
0.0338212
0.0338463
0.0337756
0.0337564
0.0337887
0.0337222
0.0335402
0.0333179
0.0331401
0.0328113
0.0322443
0.0315996
0.0307744
0.0295748
0.0280638
0.0262725
0.0239169
0.0210152
0.0175987
0.0133544
0.00839161
0.00292178
0.0334433
0.0335111
0.033529
0.0334861
0.0334443
0.0334743
0.0335046
0.033466
0.0333485
0.0332512
0.033189
0.0330356
0.0327758
0.0324573
0.0321382
0.0316912
0.03101
0.0302342
0.029288
0.0280021
0.0264248
0.0245585
0.0222254
0.0194123
0.0161258
0.0122022
0.00767851
0.00265833
0.033484
0.033487
0.0334533
0.0333765
0.0332979
0.0332576
0.0332185
0.0331201
0.0329622
0.0327992
0.0326457
0.0324203
0.0320869
0.0316927
0.0312569
0.0307038
0.0299492
0.0290577
0.0280168
0.0266734
0.0250378
0.023144
0.0208389
0.0180987
0.0149523
0.0112836
0.00709175
0.00244314
0.0335195
0.0334666
0.0333916
0.0332887
0.0331766
0.0330792
0.0329779
0.0328317
0.0326395
0.0324216
0.0321932
0.0319023
0.0315162
0.0310599
0.0305322
0.0299003
0.0290873
0.0281165
0.0269998
0.0256144
0.0239514
0.0220359
0.0197592
0.0170977
0.0140616
0.0105776
0.0066401
0.00228208
0.0335174
0.0334268
0.0333246
0.0332043
0.0330715
0.0329346
0.0327889
0.032611
0.0323926
0.0321374
0.0318524
0.0315158
0.0310933
0.0305897
0.03
0.0293085
0.0284589
0.0274358
0.0262623
0.024856
0.0231746
0.0212483
0.0190027
0.0163949
0.0134387
0.0100885
0.00632499
0.00216842
0.0335339
0.0334211
0.0333017
0.0331693
0.0330224
0.0328622
0.0326911
0.0324932
0.0322593
0.0319823
0.031667
0.0313048
0.0308613
0.0303333
0.0297102
0.0289883
0.0281193
0.0270685
0.0258674
0.0244496
0.0227607
0.0208312
0.0186006
0.0160243
0.0131136
0.00983171
0.00615904
0.0021099
)
;

boundaryField
{
    outlet
    {
        type            fixedValue;
        value           uniform 0;
    }
    upperWall
    {
        type            symmetryPlane;
    }
    lowerWall
    {
        type            symmetryPlane;
    }
    inlet
    {
        type            zeroGradient;
    }
    cylinder
    {
        type            zeroGradient;
    }
    frontAndBack
    {
        type            empty;
    }
    procBoundary7to3
    {
        type            processor;
        value           nonuniform List<scalar> 
30
(
-0.599869
-0.456996
-0.356994
-0.30979
-0.321643
-0.407272
-0.511163
-0.534932
-0.4853
-0.3658
-0.282192
-0.277569
-0.249977
-0.264008
-0.271073
-0.264011
-0.215173
-0.203159
-0.214598
-0.233314
-0.219052
-0.193133
-0.17949
-0.172821
-0.174913
-0.148182
-0.146339
-0.120181
-0.0769022
-0.0108306
)
;
    }
    procBoundary7to6
    {
        type            processor;
        value           nonuniform List<scalar> 
42
(
-0.805625
-0.90564
-0.963087
-0.983678
-0.889404
-0.740394
-0.555404
-0.555404
-0.4409
-0.296165
-0.165196
-0.149461
-0.149461
-0.0831313
-0.053633
-0.0308333
-0.0110615
0.000616291
0.011632
0.0171808
0.022219
0.024502
0.0268143
0.0281028
0.0291936
0.0298876
0.0305493
0.0311099
0.0315765
0.0319424
0.0322148
0.0324397
0.0326314
0.0328165
0.0329862
0.0331484
0.0332987
0.0334132
0.0335064
0.0335875
0.033614
0.0336483
)
;
    }
}


// ************************************************************************* //
