/*--------------------------------*- C++ -*----------------------------------*\
| =========                 |                                                 |
| \\      /  F ield         | OpenFOAM: The Open Source CFD Toolbox           |
|  \\    /   O peration     | Version:                                        |
|   \\  /    A nd           | Website:  www.openfoam.com                      |
|    \\/     M anipulation  |                                                 |
\*---------------------------------------------------------------------------*/
FoamFile
{
    version     2.0;
    format      ascii;
    class       volScalarField;
    location    "0.1";
    object      p;
}
// * * * * * * * * * * * * * * * * * * * * * * * * * * * * * * * * * * * * * //

dimensions      [0 2 -2 0 0 0 0];


internalField   nonuniform List<scalar> 
400
(
0.161856
0.153557
0.145256
0.136959
0.128662
0.120363
0.112062
0.103762
0.0954608
0.0871597
0.0788582
0.0705567
0.062255
0.0539539
0.0456526
0.0373524
0.0290515
0.0207531
0.0124501
0.0041495
0.161857
0.153556
0.145256
0.136959
0.128662
0.120363
0.112062
0.103762
0.095461
0.0871599
0.0788585
0.070557
0.0622553
0.0539542
0.045653
0.0373528
0.029052
0.0207536
0.0124503
0.0041495
0.161859
0.153556
0.145255
0.136958
0.128662
0.120363
0.112063
0.103762
0.0954613
0.0871603
0.078859
0.0705576
0.062256
0.0539549
0.0456537
0.0373536
0.0290528
0.0207544
0.0124506
0.00414943
0.16186
0.153556
0.145254
0.136958
0.128662
0.120363
0.112063
0.103762
0.0954617
0.0871608
0.0788596
0.0705583
0.0622568
0.0539558
0.0456547
0.0373546
0.0290539
0.0207553
0.0124512
0.00414953
0.16186
0.153556
0.145254
0.136958
0.128662
0.120363
0.112063
0.103763
0.0954621
0.0871614
0.0788603
0.0705591
0.0622577
0.0539568
0.0456558
0.0373557
0.0290551
0.0207564
0.012452
0.00414969
0.16186
0.153556
0.145254
0.136958
0.128661
0.120363
0.112063
0.103763
0.0954627
0.0871621
0.078861
0.0705599
0.0622587
0.0539579
0.045657
0.037357
0.0290563
0.0207574
0.0124528
0.00414987
0.16186
0.153556
0.145254
0.136958
0.128661
0.120363
0.112063
0.103763
0.0954632
0.0871628
0.0788619
0.0705608
0.0622597
0.053959
0.0456583
0.0373583
0.0290575
0.0207584
0.0124536
0.00415007
0.16186
0.153556
0.145255
0.136958
0.128661
0.120363
0.112064
0.103764
0.0954638
0.0871635
0.0788627
0.0705618
0.0622609
0.0539603
0.0456597
0.0373596
0.0290588
0.0207594
0.0124544
0.00415025
0.161859
0.153557
0.145256
0.136959
0.128661
0.120363
0.112064
0.103764
0.0954645
0.0871642
0.0788635
0.0705628
0.062262
0.0539616
0.0456611
0.0373609
0.0290601
0.0207603
0.0124552
0.00415042
0.161858
0.153557
0.145257
0.136959
0.128661
0.120363
0.112064
0.103765
0.0954651
0.0871649
0.0788644
0.0705638
0.0622633
0.0539629
0.0456624
0.0373622
0.0290614
0.0207612
0.0124561
0.00415058
0.161857
0.153557
0.145257
0.136959
0.128661
0.120363
0.112065
0.103765
0.0954657
0.0871656
0.0788652
0.0705648
0.0622644
0.0539641
0.0456637
0.0373634
0.0290626
0.0207621
0.012457
0.00415073
0.161857
0.153558
0.145258
0.136959
0.128662
0.120364
0.112065
0.103766
0.0954662
0.0871662
0.078866
0.0705658
0.0622655
0.0539652
0.0456649
0.0373645
0.0290637
0.0207628
0.0124578
0.00415087
0.161856
0.153558
0.145258
0.13696
0.128662
0.120364
0.112065
0.103766
0.0954666
0.0871668
0.0788668
0.0705667
0.0622665
0.0539662
0.0456659
0.0373654
0.0290646
0.0207633
0.0124586
0.00415098
0.161856
0.153558
0.145259
0.13696
0.128662
0.120364
0.112065
0.103766
0.095467
0.0871674
0.0788675
0.0705674
0.0622672
0.053967
0.0456667
0.0373661
0.0290653
0.0207637
0.0124592
0.00415102
0.161856
0.153558
0.145259
0.13696
0.128662
0.120364
0.112065
0.103767
0.0954673
0.0871678
0.078868
0.070568
0.0622678
0.0539676
0.0456672
0.0373666
0.0290656
0.0207637
0.0124596
0.00415097
0.161856
0.153558
0.145259
0.136961
0.128662
0.120364
0.112066
0.103767
0.0954676
0.0871681
0.0788684
0.0705684
0.0622682
0.0539679
0.0456675
0.0373667
0.0290656
0.0207633
0.0124596
0.00415078
0.161856
0.153558
0.145259
0.136961
0.128662
0.120364
0.112066
0.103767
0.0954677
0.0871683
0.0788686
0.0705687
0.0622685
0.0539681
0.0456675
0.0373666
0.0290653
0.0207627
0.0124591
0.00415042
0.161856
0.153558
0.145259
0.136961
0.128662
0.120364
0.112066
0.103767
0.0954678
0.0871684
0.0788687
0.0705688
0.0622685
0.053968
0.0456673
0.0373662
0.0290647
0.0207617
0.0124581
0.00414986
0.161856
0.153558
0.145259
0.136961
0.128662
0.120364
0.112065
0.103767
0.0954678
0.0871684
0.0788687
0.0705687
0.0622684
0.0539678
0.045667
0.0373657
0.0290639
0.0207605
0.0124565
0.00414885
0.161856
0.153558
0.145259
0.136961
0.128662
0.120364
0.112065
0.103767
0.0954677
0.0871684
0.0788686
0.0705685
0.0622682
0.0539675
0.0456666
0.0373652
0.029063
0.0207592
0.0124542
0.0041471
)
;

boundaryField
{
    fixedWalls
    {
        type            zeroGradient;
    }
    inlet
    {
        type            zeroGradient;
    }
    outlet
    {
        type            fixedValue;
        value           uniform 0;
    }
    frontAndBack
    {
        type            empty;
    }
    procBoundary7to3
    {
        type            processor;
        value           nonuniform List<scalar> 
20
(
0.161856
0.153557
0.145257
0.13696
0.128662
0.120362
0.112062
0.103762
0.0954608
0.0871596
0.0788582
0.0705567
0.0622551
0.053954
0.0456528
0.0373524
0.0290516
0.0207532
0.0124503
0.00414965
)
;
    }
    procBoundary7to6
    {
        type            processor;
        value           nonuniform List<scalar> 
20
(
0.170152
0.170152
0.170153
0.170154
0.170155
0.170155
0.170155
0.170154
0.170154
0.170154
0.170153
0.170153
0.170153
0.170153
0.170153
0.170153
0.170153
0.170153
0.170153
0.170153
)
;
    }
}


// ************************************************************************* //
