/*--------------------------------*- C++ -*----------------------------------*\
| =========                 |                                                 |
| \\      /  F ield         | OpenFOAM: The Open Source CFD Toolbox           |
|  \\    /   O peration     | Version:                                        |
|   \\  /    A nd           | Website:  www.openfoam.com                      |
|    \\/     M anipulation  |                                                 |
\*---------------------------------------------------------------------------*/
FoamFile
{
    version     2.0;
    format      ascii;
    class       volScalarField;
    location    "563";
    object      p;
}
// * * * * * * * * * * * * * * * * * * * * * * * * * * * * * * * * * * * * * //

dimensions      [0 2 -2 0 0 0 0];


internalField   nonuniform List<scalar> 
1250
(
0.1976
0.195949
0.194299
0.19265
0.191003
0.189357
0.187712
0.186068
0.184426
0.182784
0.181144
0.179505
0.177867
0.176231
0.174595
0.172961
0.171327
0.169695
0.168064
0.166435
0.164806
0.163178
0.161552
0.159927
0.158302
0.156679
0.155057
0.153436
0.151816
0.150198
0.14858
0.146963
0.145348
0.143733
0.14212
0.140508
0.138896
0.137286
0.135677
0.134069
0.132462
0.130855
0.12925
0.127646
0.126043
0.124441
0.12284
0.12124
0.119641
0.118043
0.116446
0.11485
0.113255
0.111661
0.110068
0.108476
0.106885
0.105295
0.103705
0.102117
0.10053
0.0989433
0.0973579
0.0957734
0.0941899
0.0926072
0.0910255
0.0894448
0.0878649
0.086286
0.084708
0.0831309
0.0815546
0.0799793
0.0784049
0.0768314
0.0752588
0.0736871
0.0721162
0.0705463
0.0689772
0.067409
0.0658417
0.0642753
0.0627097
0.061145
0.0595812
0.0580182
0.0564561
0.0548949
0.0533345
0.051775
0.0502164
0.0486587
0.0471018
0.0455458
0.0439906
0.0424364
0.040883
0.0393305
0.0377789
0.0362281
0.0346783
0.0331292
0.0315812
0.0300339
0.0284876
0.026942
0.0253974
0.0238534
0.0223106
0.0207682
0.0192271
0.0176861
0.0161466
0.0146067
0.0130686
0.0115293
0.00999171
0.00845342
0.00691501
0.00538199
0.00384292
0.00231011
0.000773584
0.197592
0.195941
0.194291
0.192642
0.190995
0.189349
0.187704
0.186061
0.184418
0.182777
0.181137
0.179498
0.17786
0.176223
0.174588
0.172953
0.17132
0.169688
0.168057
0.166428
0.164799
0.163171
0.161545
0.15992
0.158296
0.156672
0.15505
0.15343
0.15181
0.150191
0.148573
0.146957
0.145341
0.143727
0.142114
0.140501
0.13889
0.13728
0.135671
0.134063
0.132455
0.130849
0.129244
0.12764
0.126037
0.124435
0.122834
0.121234
0.119635
0.118037
0.116441
0.114845
0.113249
0.111655
0.110062
0.10847
0.106879
0.105289
0.1037
0.102112
0.100524
0.098938
0.0973526
0.0957681
0.0941846
0.092602
0.0910204
0.0894396
0.0878598
0.0862809
0.0847029
0.0831258
0.0815496
0.0799744
0.0784
0.0768265
0.0752539
0.0736822
0.0721114
0.0705415
0.0689724
0.0674042
0.0658369
0.0642705
0.062705
0.0611403
0.0595764
0.0580135
0.0564514
0.0548902
0.0533298
0.0517703
0.0502117
0.0486539
0.047097
0.045541
0.0439858
0.0424315
0.0408781
0.0393256
0.0377739
0.0362231
0.0346732
0.0331242
0.0315761
0.0300288
0.0284825
0.0269369
0.0253923
0.0238485
0.0223057
0.0207634
0.0192223
0.0176815
0.016142
0.0146025
0.0130642
0.0115256
0.00998748
0.00845031
0.00691088
0.00537862
0.00383683
0.00230609
0.000764997
0.197585
0.195934
0.194284
0.192636
0.190988
0.189342
0.187697
0.186054
0.184411
0.18277
0.18113
0.179491
0.177853
0.176217
0.174581
0.172947
0.171314
0.169682
0.168051
0.166421
0.164793
0.163165
0.161539
0.159914
0.158289
0.156666
0.155045
0.153424
0.151804
0.150185
0.148568
0.146951
0.145336
0.143721
0.142108
0.140496
0.138884
0.137274
0.135665
0.134057
0.13245
0.130844
0.129239
0.127635
0.126032
0.12443
0.122829
0.121229
0.11963
0.118032
0.116435
0.114839
0.113244
0.11165
0.110057
0.108465
0.106874
0.105284
0.103695
0.102107
0.10052
0.0989332
0.0973479
0.0957634
0.0941799
0.0925974
0.0910158
0.089435
0.0878553
0.0862764
0.0846984
0.0831214
0.0815452
0.07997
0.0783956
0.0768222
0.0752496
0.0736779
0.0721071
0.0705372
0.0689682
0.0674
0.0658327
0.0642663
0.0627008
0.0611361
0.0595723
0.0580093
0.0564472
0.054886
0.0533256
0.0517661
0.0502075
0.0486497
0.0470928
0.0455367
0.0439815
0.0424272
0.0408738
0.0393212
0.0377695
0.0362186
0.0346687
0.0331196
0.0315715
0.0300242
0.0284778
0.0269322
0.0253876
0.0238437
0.0223009
0.0207587
0.0192176
0.017677
0.0161374
0.0145983
0.0130598
0.0115219
0.00998358
0.00844727
0.00690761
0.00537538
0.00383232
0.00230298
0.000758487
0.197578
0.195927
0.194278
0.192629
0.190982
0.189336
0.187691
0.186048
0.184405
0.182764
0.181124
0.179485
0.177848
0.176211
0.174576
0.172941
0.171308
0.169676
0.168045
0.166416
0.164787
0.16316
0.161533
0.159908
0.158284
0.156661
0.155039
0.153418
0.151799
0.15018
0.148563
0.146946
0.145331
0.143716
0.142103
0.140491
0.13888
0.137269
0.13566
0.134052
0.132445
0.130839
0.129234
0.12763
0.126027
0.124425
0.122825
0.121225
0.119626
0.118028
0.116431
0.114835
0.11324
0.111646
0.110053
0.108461
0.10687
0.10528
0.103691
0.102103
0.100515
0.098929
0.0973437
0.0957593
0.0941758
0.0925933
0.0910117
0.089431
0.0878512
0.0862724
0.0846944
0.0831174
0.0815413
0.0799661
0.0783918
0.0768183
0.0752458
0.0736741
0.0721034
0.0705335
0.0689645
0.0673963
0.065829
0.0642626
0.0626971
0.0611325
0.0595686
0.0580057
0.0564436
0.0548824
0.053322
0.0517625
0.0502039
0.0486461
0.0470891
0.045533
0.0439778
0.0424235
0.04087
0.0393174
0.0377656
0.0362147
0.0346647
0.0331156
0.0315674
0.03002
0.0284735
0.0269279
0.0253832
0.0238394
0.0222965
0.0207543
0.0192131
0.0176726
0.0161329
0.0145941
0.0130556
0.0115181
0.00997996
0.00844428
0.00690503
0.0053725
0.00382991
0.00230117
0.00075511
0.197573
0.195922
0.194272
0.192624
0.190977
0.189331
0.187686
0.186043
0.1844
0.182759
0.181119
0.17948
0.177842
0.176206
0.174571
0.172936
0.171303
0.169671
0.168041
0.166411
0.164782
0.163155
0.161529
0.159903
0.158279
0.156656
0.155035
0.153414
0.151794
0.150175
0.148558
0.146941
0.145326
0.143712
0.142098
0.140486
0.138875
0.137265
0.135656
0.134048
0.132441
0.130835
0.12923
0.127626
0.126023
0.124421
0.12282
0.12122
0.119622
0.118024
0.116427
0.114831
0.113236
0.111642
0.110049
0.108457
0.106866
0.105276
0.103687
0.102099
0.100511
0.0989252
0.0973399
0.0957555
0.0941721
0.0925896
0.091008
0.0894273
0.0878476
0.0862687
0.0846908
0.0831138
0.0815377
0.0799625
0.0783882
0.0768148
0.0752423
0.0736707
0.0720999
0.07053
0.068961
0.0673929
0.0658257
0.0642593
0.0626938
0.0611291
0.0595653
0.0580024
0.0564403
0.0548791
0.0533188
0.0517592
0.0502006
0.0486428
0.0470858
0.0455298
0.0439745
0.0424201
0.0408666
0.039314
0.0377622
0.0362113
0.0346612
0.033112
0.0315638
0.0300163
0.0284698
0.0269241
0.0253794
0.0238355
0.0222924
0.0207503
0.019209
0.0176685
0.0161288
0.0145901
0.0130516
0.0115145
0.00997669
0.00844141
0.006903
0.00537028
0.00382912
0.00230053
0.000754752
0.197568
0.195917
0.194267
0.192619
0.190972
0.189326
0.187681
0.186038
0.184395
0.182754
0.181114
0.179475
0.177838
0.176201
0.174566
0.172932
0.171299
0.169667
0.168036
0.166406
0.164778
0.16315
0.161524
0.159899
0.158275
0.156652
0.15503
0.153409
0.15179
0.150171
0.148554
0.146937
0.145322
0.143707
0.142094
0.140482
0.138871
0.137261
0.135652
0.134044
0.132437
0.130831
0.129226
0.127622
0.126019
0.124417
0.122816
0.121217
0.119618
0.11802
0.116423
0.114827
0.113232
0.111638
0.110045
0.108453
0.106862
0.105272
0.103683
0.102095
0.100508
0.0989215
0.0973362
0.0957519
0.0941684
0.0925859
0.0910044
0.0894237
0.087844
0.0862652
0.0846873
0.0831103
0.0815342
0.0799591
0.0783848
0.0768114
0.0752389
0.0736673
0.0720966
0.0705267
0.0689577
0.0673896
0.0658224
0.064256
0.0626906
0.0611259
0.0595621
0.0579992
0.0564372
0.054876
0.0533156
0.0517561
0.0501975
0.0486397
0.0470827
0.0455267
0.0439714
0.042417
0.0408635
0.0393108
0.037759
0.0362081
0.034658
0.0331088
0.0315605
0.030013
0.0284664
0.0269207
0.0253759
0.0238319
0.0222888
0.0207466
0.0192053
0.0176648
0.0161251
0.0145864
0.0130481
0.0115111
0.00997373
0.0084386
0.0069013
0.00536844
0.00382922
0.00230044
0.000756394
0.197562
0.195912
0.194262
0.192614
0.190967
0.189321
0.187676
0.186032
0.18439
0.182749
0.181109
0.17947
0.177833
0.176196
0.174561
0.172927
0.171294
0.169662
0.168031
0.166401
0.164773
0.163146
0.161519
0.159894
0.15827
0.156647
0.155026
0.153405
0.151785
0.150167
0.148549
0.146933
0.145317
0.143703
0.14209
0.140478
0.138867
0.137256
0.135647
0.134039
0.132432
0.130827
0.129222
0.127618
0.126015
0.124413
0.122812
0.121212
0.119614
0.118016
0.116419
0.114823
0.113228
0.111634
0.110041
0.108449
0.106858
0.105268
0.103679
0.102091
0.100504
0.0989177
0.0973324
0.095748
0.0941646
0.0925822
0.0910006
0.08942
0.0878403
0.0862615
0.0846836
0.0831066
0.0815306
0.0799554
0.0783812
0.0768078
0.0752353
0.0736637
0.072093
0.0705232
0.0689542
0.0673861
0.0658189
0.0642526
0.0626871
0.0611225
0.0595588
0.0579959
0.0564338
0.0548726
0.0533123
0.0517528
0.0501942
0.0486364
0.0470795
0.0455234
0.0439682
0.0424138
0.0408603
0.0393076
0.0377558
0.0362049
0.0346548
0.0331055
0.0315572
0.0300097
0.0284631
0.0269173
0.0253725
0.0238285
0.0222854
0.0207432
0.0192018
0.0176613
0.0161216
0.0145829
0.0130447
0.0115078
0.00997088
0.00843576
0.00689954
0.00536652
0.00382946
0.00229998
0.000758717
0.197557
0.195906
0.194256
0.192608
0.190961
0.189315
0.187671
0.186027
0.184385
0.182744
0.181104
0.179465
0.177827
0.176191
0.174556
0.172921
0.171288
0.169657
0.168026
0.166396
0.164768
0.163141
0.161514
0.159889
0.158265
0.156642
0.155021
0.1534
0.15178
0.150162
0.148544
0.146928
0.145312
0.143698
0.142085
0.140473
0.138862
0.137252
0.135643
0.134035
0.132428
0.130822
0.129217
0.127613
0.12601
0.124408
0.122808
0.121208
0.119609
0.118011
0.116414
0.114819
0.113224
0.11163
0.110037
0.108445
0.106854
0.105264
0.103675
0.102087
0.1005
0.0989134
0.0973281
0.0957438
0.0941604
0.092578
0.0909964
0.0894158
0.0878361
0.0862574
0.0846795
0.0831026
0.0815265
0.0799514
0.0783771
0.0768038
0.0752313
0.0736597
0.072089
0.0705192
0.0689503
0.0673822
0.0658151
0.0642487
0.0626833
0.0611187
0.059555
0.0579921
0.0564301
0.0548689
0.0533086
0.0517491
0.0501905
0.0486328
0.0470758
0.0455198
0.0439646
0.0424102
0.0408567
0.0393041
0.0377523
0.0362013
0.0346513
0.033102
0.0315537
0.0300062
0.0284596
0.0269139
0.025369
0.023825
0.0222819
0.0207396
0.0191983
0.0176578
0.0161181
0.0145794
0.0130414
0.0115044
0.00996791
0.00843269
0.00689741
0.00536415
0.00382907
0.00229873
0.000760749
0.197549
0.195899
0.194249
0.192601
0.190954
0.189308
0.187663
0.18602
0.184378
0.182737
0.181097
0.179458
0.17782
0.176184
0.174549
0.172915
0.171282
0.16965
0.168019
0.16639
0.164761
0.163134
0.161508
0.159883
0.158259
0.156636
0.155014
0.153393
0.151774
0.150155
0.148538
0.146921
0.145306
0.143692
0.142079
0.140467
0.138856
0.137246
0.135637
0.134029
0.132422
0.130816
0.129211
0.127607
0.126004
0.124402
0.122802
0.121202
0.119603
0.118005
0.116408
0.114813
0.113218
0.111624
0.110031
0.108439
0.106848
0.105258
0.103669
0.102081
0.100494
0.0989078
0.0973225
0.0957382
0.0941549
0.0925724
0.0909909
0.0894103
0.0878307
0.0862519
0.0846741
0.0830972
0.0815212
0.079946
0.0783718
0.0767985
0.075226
0.0736545
0.0720838
0.070514
0.0689451
0.0673771
0.0658099
0.0642436
0.0626782
0.0611136
0.0595499
0.057987
0.056425
0.0548639
0.0533036
0.0517442
0.0501856
0.0486279
0.047071
0.0455149
0.0439598
0.0424054
0.040852
0.0392993
0.0377476
0.0361967
0.0346466
0.0330974
0.0315491
0.0300016
0.0284551
0.0269093
0.0253645
0.0238205
0.0222774
0.0207352
0.0191939
0.0176534
0.0161138
0.0145751
0.0130372
0.0115002
0.00996393
0.00842864
0.00689393
0.00536043
0.00382691
0.00229581
0.000761658
0.197542
0.195891
0.194242
0.192593
0.190946
0.189301
0.187656
0.186013
0.18437
0.182729
0.181089
0.179451
0.177813
0.176177
0.174542
0.172907
0.171275
0.169643
0.168012
0.166383
0.164754
0.163127
0.161501
0.159876
0.158252
0.156629
0.155007
0.153387
0.151767
0.150149
0.148531
0.146915
0.145299
0.143685
0.142072
0.14046
0.138849
0.137239
0.13563
0.134022
0.132415
0.130809
0.129205
0.127601
0.125998
0.124396
0.122795
0.121196
0.119597
0.117999
0.116402
0.114807
0.113212
0.111618
0.110025
0.108433
0.106842
0.105252
0.103663
0.102075
0.100488
0.0989019
0.0973167
0.0957324
0.0941491
0.0925667
0.0909852
0.0894046
0.087825
0.0862463
0.0846685
0.0830915
0.0815155
0.0799404
0.0783662
0.0767929
0.0752205
0.073649
0.0720783
0.0705086
0.0689397
0.0673717
0.0658045
0.0642382
0.0626728
0.0611083
0.0595446
0.0579818
0.0564198
0.0548587
0.0532984
0.051739
0.0501804
0.0486227
0.0470658
0.0455098
0.0439547
0.0424004
0.0408469
0.0392943
0.0377426
0.0361917
0.0346416
0.0330925
0.0315442
0.0299968
0.0284502
0.0269045
0.0253597
0.0238158
0.0222727
0.0207305
0.0191892
0.0176488
0.0161092
0.0145706
0.0130327
0.0114957
0.00995956
0.00842432
0.00688979
0.0053563
0.00382339
0.00229187
0.00076105
)
;

boundaryField
{
    inlet
    {
        type            zeroGradient;
    }
    outlet
    {
        type            fixedValue;
        value           uniform 0;
    }
    wall
    {
        type            zeroGradient;
    }
    back
    {
        type            wedge;
    }
    front
    {
        type            wedge;
    }
    axis
    {
        type            empty;
    }
    procBoundary7to3
    {
        type            processor;
        value           nonuniform List<scalar> 
125
(
0.197608
0.195957
0.194308
0.192659
0.191012
0.189365
0.18772
0.186077
0.184434
0.182793
0.181152
0.179513
0.177875
0.176239
0.174603
0.172969
0.171335
0.169703
0.168072
0.166442
0.164814
0.163186
0.161559
0.159934
0.15831
0.156687
0.155065
0.153444
0.151824
0.150205
0.148587
0.146971
0.145355
0.14374
0.142127
0.140515
0.138903
0.137293
0.135684
0.134076
0.132468
0.130862
0.129257
0.127653
0.12605
0.124448
0.122847
0.121247
0.119648
0.11805
0.116453
0.114857
0.113261
0.111667
0.110074
0.108482
0.106891
0.105301
0.103711
0.102123
0.100536
0.0989493
0.0973638
0.0957793
0.0941957
0.092613
0.0910313
0.0894505
0.0878706
0.0862916
0.0847136
0.0831364
0.0815602
0.0799849
0.0784104
0.0768369
0.0752643
0.0736925
0.0721216
0.0705517
0.0689826
0.0674144
0.065847
0.0642806
0.062715
0.0611503
0.0595864
0.0580235
0.0564614
0.0549001
0.0533398
0.0517803
0.0502217
0.048664
0.0471071
0.0455511
0.043996
0.0424417
0.0408884
0.0393359
0.0377843
0.0362335
0.0346837
0.0331346
0.0315865
0.0300392
0.0284929
0.0269472
0.0254026
0.0238585
0.0223157
0.020773
0.0192319
0.0176904
0.0161511
0.0146106
0.0130729
0.0115326
0.00999595
0.00845655
0.00692018
0.00538532
0.00385062
0.0023141
0.000782871
)
;
    }
    procBoundary7to6
    {
        type            processor;
        value           nonuniform List<scalar> 10(0.199252 0.199244 0.199237 0.19923 0.199225 0.19922 0.199214 0.199209 0.199201 0.199194);
    }
}


// ************************************************************************* //
