/*--------------------------------*- C++ -*----------------------------------*\
| =========                 |                                                 |
| \\      /  F ield         | OpenFOAM: The Open Source CFD Toolbox           |
|  \\    /   O peration     | Version:                                        |
|   \\  /    A nd           | Website:  www.openfoam.com                      |
|    \\/     M anipulation  |                                                 |
\*---------------------------------------------------------------------------*/
FoamFile
{
    version     2.0;
    format      ascii;
    class       surfaceScalarField;
    location    "563";
    object      phi;
}
// * * * * * * * * * * * * * * * * * * * * * * * * * * * * * * * * * * * * * //

dimensions      [0 3 -1 0 0 0 0];
oriented        oriented;


internalField   nonuniform List<scalar> 
2365
(
1.32087e-05
-2.01976e-08
1.32091e-05
-2.01148e-08
1.32094e-05
-2.00325e-08
1.32097e-05
-1.99506e-08
1.32101e-05
-1.98692e-08
1.32104e-05
-1.97882e-08
1.32107e-05
-1.97077e-08
1.3211e-05
-1.96276e-08
1.32113e-05
-1.9548e-08
1.32116e-05
-1.94689e-08
1.32119e-05
-1.93902e-08
1.32122e-05
-1.93119e-08
1.32125e-05
-1.92341e-08
1.32128e-05
-1.91567e-08
1.32131e-05
-1.90797e-08
1.32133e-05
-1.90032e-08
1.32136e-05
-1.89271e-08
1.32139e-05
-1.88514e-08
1.32141e-05
-1.87761e-08
1.32144e-05
-1.87012e-08
1.32147e-05
-1.86268e-08
1.32149e-05
-1.85527e-08
1.32152e-05
-1.84791e-08
1.32154e-05
-1.84059e-08
1.32157e-05
-1.8333e-08
1.32159e-05
-1.82606e-08
1.32162e-05
-1.81885e-08
1.32164e-05
-1.81169e-08
1.32166e-05
-1.80456e-08
1.32169e-05
-1.79747e-08
1.32171e-05
-1.79042e-08
1.32173e-05
-1.78341e-08
1.32176e-05
-1.77643e-08
1.32178e-05
-1.7695e-08
1.3218e-05
-1.7626e-08
1.32182e-05
-1.75573e-08
1.32184e-05
-1.7489e-08
1.32186e-05
-1.74211e-08
1.32188e-05
-1.73536e-08
1.3219e-05
-1.72864e-08
1.32192e-05
-1.72196e-08
1.32194e-05
-1.71531e-08
1.32196e-05
-1.7087e-08
1.32198e-05
-1.70212e-08
1.322e-05
-1.69558e-08
1.32202e-05
-1.68907e-08
1.32204e-05
-1.68259e-08
1.32206e-05
-1.67615e-08
1.32208e-05
-1.66975e-08
1.32209e-05
-1.66337e-08
1.32211e-05
-1.65703e-08
1.32213e-05
-1.65073e-08
1.32215e-05
-1.64445e-08
1.32216e-05
-1.63821e-08
1.32218e-05
-1.63201e-08
1.32219e-05
-1.62583e-08
1.32221e-05
-1.61969e-08
1.32223e-05
-1.61357e-08
1.32224e-05
-1.60749e-08
1.32226e-05
-1.60144e-08
1.32227e-05
-1.59542e-08
1.32229e-05
-1.58944e-08
1.3223e-05
-1.58348e-08
1.32232e-05
-1.57755e-08
1.32233e-05
-1.57165e-08
1.32235e-05
-1.56578e-08
1.32236e-05
-1.55994e-08
1.32237e-05
-1.55413e-08
1.32239e-05
-1.54834e-08
1.3224e-05
-1.54258e-08
1.32242e-05
-1.53685e-08
1.32243e-05
-1.53114e-08
1.32244e-05
-1.52545e-08
1.32245e-05
-1.51979e-08
1.32247e-05
-1.51415e-08
1.32248e-05
-1.50852e-08
1.32249e-05
-1.50292e-08
1.3225e-05
-1.49733e-08
1.32252e-05
-1.49176e-08
1.32253e-05
-1.4862e-08
1.32254e-05
-1.48064e-08
1.32255e-05
-1.4751e-08
1.32256e-05
-1.46956e-08
1.32257e-05
-1.46403e-08
1.32258e-05
-1.45849e-08
1.32259e-05
-1.45295e-08
1.3226e-05
-1.44741e-08
1.32262e-05
-1.44186e-08
1.32263e-05
-1.43629e-08
1.32264e-05
-1.43072e-08
1.32265e-05
-1.42512e-08
1.32266e-05
-1.41952e-08
1.32267e-05
-1.41389e-08
1.32267e-05
-1.40825e-08
1.32268e-05
-1.40258e-08
1.32269e-05
-1.3969e-08
1.3227e-05
-1.39119e-08
1.32271e-05
-1.3855e-08
1.32272e-05
-1.37976e-08
1.32272e-05
-1.37406e-08
1.32273e-05
-1.36832e-08
1.32274e-05
-1.36267e-08
1.32274e-05
-1.35695e-08
1.32275e-05
-1.35142e-08
1.32275e-05
-1.34576e-08
1.32276e-05
-1.34046e-08
1.32276e-05
-1.3349e-08
1.32277e-05
-1.32998e-08
1.32277e-05
-1.32455e-08
1.32277e-05
-1.32025e-08
1.32277e-05
-1.31495e-08
1.32277e-05
-1.31158e-08
1.32277e-05
-1.30636e-08
1.32277e-05
-1.30434e-08
1.32276e-05
-1.29909e-08
1.32276e-05
-1.29891e-08
1.32276e-05
-1.29345e-08
1.32275e-05
-1.29557e-08
1.32274e-05
-1.28987e-08
1.32274e-05
-1.2945e-08
1.32273e-05
-1.28856e-08
1.32272e-05
-1.29566e-08
1.32271e-05
-1.28797e-08
1.32271e-05
-1.29809e-08
-1.28776e-08
1.36625e-05
-1.95317e-08
1.36619e-05
-1.94492e-08
1.36612e-05
-1.93671e-08
1.36605e-05
-1.92855e-08
1.36599e-05
-1.92044e-08
1.36592e-05
-1.91238e-08
1.36585e-05
-1.90436e-08
1.36579e-05
-1.8964e-08
1.36572e-05
-1.88848e-08
1.36566e-05
-1.8806e-08
1.36559e-05
-1.87278e-08
1.36552e-05
-1.86499e-08
1.36546e-05
-1.85726e-08
1.36539e-05
-1.84957e-08
1.36532e-05
-1.84192e-08
1.36526e-05
-1.83432e-08
1.36519e-05
-1.82676e-08
1.36513e-05
-1.81925e-08
1.36506e-05
-1.81178e-08
1.365e-05
-1.80435e-08
1.36493e-05
-1.79696e-08
1.36486e-05
-1.78962e-08
1.3648e-05
-1.78232e-08
1.36473e-05
-1.77506e-08
1.36467e-05
-1.76784e-08
1.3646e-05
-1.76066e-08
1.36454e-05
-1.75353e-08
1.36447e-05
-1.74643e-08
1.36441e-05
-1.73938e-08
1.36434e-05
-1.73236e-08
1.36428e-05
-1.72538e-08
1.36421e-05
-1.71844e-08
1.36415e-05
-1.71154e-08
1.36408e-05
-1.70468e-08
1.36402e-05
-1.69786e-08
1.36395e-05
-1.69108e-08
1.36389e-05
-1.68433e-08
1.36382e-05
-1.67762e-08
1.36376e-05
-1.67095e-08
1.36369e-05
-1.66432e-08
1.36363e-05
-1.65772e-08
1.36357e-05
-1.65116e-08
1.3635e-05
-1.64463e-08
1.36344e-05
-1.63814e-08
1.36337e-05
-1.63169e-08
1.36331e-05
-1.62527e-08
1.36325e-05
-1.61888e-08
1.36318e-05
-1.61253e-08
1.36312e-05
-1.60622e-08
1.36306e-05
-1.59994e-08
1.36299e-05
-1.59369e-08
1.36293e-05
-1.58748e-08
1.36287e-05
-1.58131e-08
1.3628e-05
-1.57516e-08
1.36274e-05
-1.56905e-08
1.36268e-05
-1.56297e-08
1.36261e-05
-1.55693e-08
1.36255e-05
-1.55092e-08
1.36249e-05
-1.54494e-08
1.36243e-05
-1.53899e-08
1.36236e-05
-1.53308e-08
1.3623e-05
-1.5272e-08
1.36224e-05
-1.52134e-08
1.36218e-05
-1.51552e-08
1.36212e-05
-1.50973e-08
1.36205e-05
-1.50398e-08
1.36199e-05
-1.49825e-08
1.36193e-05
-1.49255e-08
1.36187e-05
-1.48688e-08
1.36181e-05
-1.48123e-08
1.36175e-05
-1.47562e-08
1.36169e-05
-1.47003e-08
1.36163e-05
-1.46447e-08
1.36156e-05
-1.45893e-08
1.3615e-05
-1.45342e-08
1.36144e-05
-1.44792e-08
1.36138e-05
-1.44245e-08
1.36132e-05
-1.437e-08
1.36126e-05
-1.43156e-08
1.3612e-05
-1.42614e-08
1.36114e-05
-1.42073e-08
1.36108e-05
-1.41533e-08
1.36102e-05
-1.40994e-08
1.36096e-05
-1.40455e-08
1.3609e-05
-1.39916e-08
1.36084e-05
-1.39377e-08
1.36079e-05
-1.38837e-08
1.36073e-05
-1.38296e-08
1.36067e-05
-1.37753e-08
1.36061e-05
-1.37209e-08
1.36055e-05
-1.36663e-08
1.36049e-05
-1.36114e-08
1.36043e-05
-1.35562e-08
1.36038e-05
-1.35008e-08
1.36032e-05
-1.34449e-08
1.36026e-05
-1.33887e-08
1.3602e-05
-1.3332e-08
1.36014e-05
-1.32751e-08
1.36009e-05
-1.32177e-08
1.36003e-05
-1.31601e-08
1.35997e-05
-1.31019e-08
1.35991e-05
-1.30439e-08
1.35985e-05
-1.29851e-08
1.35979e-05
-1.29273e-08
1.35974e-05
-1.28681e-08
1.35968e-05
-1.28112e-08
1.35962e-05
-1.27519e-08
1.35956e-05
-1.26973e-08
1.3595e-05
-1.26383e-08
1.35943e-05
-1.25879e-08
1.35937e-05
-1.25293e-08
1.35931e-05
-1.2486e-08
1.35925e-05
-1.24277e-08
1.35918e-05
-1.23952e-08
1.35912e-05
-1.23367e-08
1.35905e-05
-1.23196e-08
1.35898e-05
-1.22608e-08
1.35891e-05
-1.2263e-08
1.35884e-05
-1.22068e-08
1.35877e-05
-1.22275e-08
1.3587e-05
-1.21792e-08
1.35863e-05
-1.22171e-08
1.35855e-05
-1.2156e-08
1.35849e-05
-1.22332e-08
-1.21448e-08
1.37956e-05
-1.78918e-08
1.37939e-05
-1.78143e-08
1.37923e-05
-1.77373e-08
1.37907e-05
-1.76607e-08
1.37891e-05
-1.75846e-08
1.37875e-05
-1.7509e-08
1.37858e-05
-1.74338e-08
1.37842e-05
-1.73591e-08
1.37826e-05
-1.72848e-08
1.3781e-05
-1.7211e-08
1.37795e-05
-1.71377e-08
1.37779e-05
-1.70648e-08
1.37763e-05
-1.69923e-08
1.37747e-05
-1.69203e-08
1.37731e-05
-1.68487e-08
1.37716e-05
-1.67775e-08
1.377e-05
-1.67068e-08
1.37685e-05
-1.66365e-08
1.37669e-05
-1.65666e-08
1.37654e-05
-1.64971e-08
1.37638e-05
-1.64281e-08
1.37623e-05
-1.63594e-08
1.37608e-05
-1.62912e-08
1.37592e-05
-1.62233e-08
1.37577e-05
-1.61559e-08
1.37562e-05
-1.60888e-08
1.37547e-05
-1.60222e-08
1.37532e-05
-1.59559e-08
1.37517e-05
-1.589e-08
1.37502e-05
-1.58245e-08
1.37487e-05
-1.57594e-08
1.37472e-05
-1.56947e-08
1.37457e-05
-1.56303e-08
1.37442e-05
-1.55663e-08
1.37427e-05
-1.55027e-08
1.37413e-05
-1.54394e-08
1.37398e-05
-1.53765e-08
1.37383e-05
-1.5314e-08
1.37369e-05
-1.52518e-08
1.37354e-05
-1.519e-08
1.3734e-05
-1.51285e-08
1.37325e-05
-1.50674e-08
1.37311e-05
-1.50067e-08
1.37297e-05
-1.49462e-08
1.37282e-05
-1.48862e-08
1.37268e-05
-1.48264e-08
1.37254e-05
-1.4767e-08
1.3724e-05
-1.47079e-08
1.37226e-05
-1.46492e-08
1.37211e-05
-1.45908e-08
1.37197e-05
-1.45327e-08
1.37183e-05
-1.4475e-08
1.37169e-05
-1.44176e-08
1.37156e-05
-1.43605e-08
1.37142e-05
-1.43037e-08
1.37128e-05
-1.42472e-08
1.37114e-05
-1.41911e-08
1.371e-05
-1.41353e-08
1.37087e-05
-1.40798e-08
1.37073e-05
-1.40246e-08
1.37059e-05
-1.39697e-08
1.37046e-05
-1.39151e-08
1.37032e-05
-1.38609e-08
1.37019e-05
-1.38069e-08
1.37005e-05
-1.37532e-08
1.36992e-05
-1.36999e-08
1.36979e-05
-1.36468e-08
1.36965e-05
-1.3594e-08
1.36952e-05
-1.35416e-08
1.36939e-05
-1.34894e-08
1.36926e-05
-1.34374e-08
1.36912e-05
-1.33858e-08
1.36899e-05
-1.33344e-08
1.36886e-05
-1.32833e-08
1.36873e-05
-1.32324e-08
1.3686e-05
-1.31817e-08
1.36847e-05
-1.31313e-08
1.36834e-05
-1.30811e-08
1.36822e-05
-1.30311e-08
1.36809e-05
-1.29812e-08
1.36796e-05
-1.29315e-08
1.36783e-05
-1.28819e-08
1.36771e-05
-1.28324e-08
1.36758e-05
-1.2783e-08
1.36745e-05
-1.27336e-08
1.36733e-05
-1.26842e-08
1.3672e-05
-1.26347e-08
1.36708e-05
-1.25851e-08
1.36696e-05
-1.25355e-08
1.36683e-05
-1.24856e-08
1.36671e-05
-1.24355e-08
1.36659e-05
-1.23851e-08
1.36646e-05
-1.23344e-08
1.36634e-05
-1.22833e-08
1.36622e-05
-1.22317e-08
1.3661e-05
-1.21797e-08
1.36598e-05
-1.21271e-08
1.36586e-05
-1.20739e-08
1.36574e-05
-1.20201e-08
1.36562e-05
-1.19658e-08
1.3655e-05
-1.19107e-08
1.36538e-05
-1.18553e-08
1.36526e-05
-1.17988e-08
1.36515e-05
-1.17424e-08
1.36503e-05
-1.16846e-08
1.36491e-05
-1.16277e-08
1.36479e-05
-1.15688e-08
1.36467e-05
-1.15124e-08
1.36455e-05
-1.14525e-08
1.36444e-05
-1.1398e-08
1.36432e-05
-1.13374e-08
1.3642e-05
-1.12869e-08
1.36408e-05
-1.1226e-08
1.36395e-05
-1.11825e-08
1.36383e-05
-1.11214e-08
1.36371e-05
-1.10887e-08
1.36359e-05
-1.10286e-08
1.36346e-05
-1.10096e-08
1.36334e-05
-1.09563e-08
1.36321e-05
-1.09491e-08
1.36308e-05
-1.09115e-08
1.36295e-05
-1.09146e-08
1.36282e-05
-1.08752e-08
1.3627e-05
-1.09206e-08
-1.08637e-08
1.35559e-05
-1.54154e-08
1.35534e-05
-1.53473e-08
1.3551e-05
-1.52797e-08
1.35485e-05
-1.52124e-08
1.35461e-05
-1.51456e-08
1.35437e-05
-1.50793e-08
1.35412e-05
-1.50133e-08
1.35388e-05
-1.49478e-08
1.35364e-05
-1.48826e-08
1.3534e-05
-1.48179e-08
1.35316e-05
-1.47536e-08
1.35293e-05
-1.46897e-08
1.35269e-05
-1.46262e-08
1.35245e-05
-1.4563e-08
1.35222e-05
-1.45003e-08
1.35199e-05
-1.4438e-08
1.35175e-05
-1.4376e-08
1.35152e-05
-1.43144e-08
1.35129e-05
-1.42532e-08
1.35106e-05
-1.41924e-08
1.35083e-05
-1.41319e-08
1.3506e-05
-1.40718e-08
1.35037e-05
-1.40121e-08
1.35015e-05
-1.39527e-08
1.34992e-05
-1.38937e-08
1.34969e-05
-1.38351e-08
1.34947e-05
-1.37768e-08
1.34925e-05
-1.37189e-08
1.34902e-05
-1.36613e-08
1.3488e-05
-1.3604e-08
1.34858e-05
-1.35471e-08
1.34836e-05
-1.34905e-08
1.34814e-05
-1.34343e-08
1.34792e-05
-1.33784e-08
1.3477e-05
-1.33228e-08
1.34749e-05
-1.32675e-08
1.34727e-05
-1.32126e-08
1.34705e-05
-1.3158e-08
1.34684e-05
-1.31037e-08
1.34662e-05
-1.30498e-08
1.34641e-05
-1.29961e-08
1.3462e-05
-1.29428e-08
1.34599e-05
-1.28898e-08
1.34578e-05
-1.28371e-08
1.34557e-05
-1.27847e-08
1.34536e-05
-1.27326e-08
1.34515e-05
-1.26808e-08
1.34494e-05
-1.26293e-08
1.34473e-05
-1.25781e-08
1.34453e-05
-1.25272e-08
1.34432e-05
-1.24765e-08
1.34412e-05
-1.24262e-08
1.34391e-05
-1.23762e-08
1.34371e-05
-1.23264e-08
1.34351e-05
-1.2277e-08
1.3433e-05
-1.22278e-08
1.3431e-05
-1.21789e-08
1.3429e-05
-1.21303e-08
1.3427e-05
-1.2082e-08
1.3425e-05
-1.2034e-08
1.34231e-05
-1.19862e-08
1.34211e-05
-1.19388e-08
1.34191e-05
-1.18916e-08
1.34171e-05
-1.18447e-08
1.34152e-05
-1.1798e-08
1.34132e-05
-1.17516e-08
1.34113e-05
-1.17055e-08
1.34094e-05
-1.16597e-08
1.34074e-05
-1.16141e-08
1.34055e-05
-1.15688e-08
1.34036e-05
-1.15238e-08
1.34017e-05
-1.1479e-08
1.33998e-05
-1.14345e-08
1.33979e-05
-1.13902e-08
1.3396e-05
-1.13462e-08
1.33941e-05
-1.13024e-08
1.33923e-05
-1.12589e-08
1.33904e-05
-1.12155e-08
1.33885e-05
-1.11723e-08
1.33867e-05
-1.11294e-08
1.33848e-05
-1.10866e-08
1.3383e-05
-1.10439e-08
1.33812e-05
-1.10014e-08
1.33794e-05
-1.0959e-08
1.33775e-05
-1.09166e-08
1.33757e-05
-1.08743e-08
1.33739e-05
-1.0832e-08
1.33721e-05
-1.07896e-08
1.33703e-05
-1.07471e-08
1.33686e-05
-1.07045e-08
1.33668e-05
-1.06618e-08
1.3365e-05
-1.06187e-08
1.33633e-05
-1.05754e-08
1.33615e-05
-1.05317e-08
1.33598e-05
-1.04875e-08
1.3358e-05
-1.04428e-08
1.33563e-05
-1.03976e-08
1.33546e-05
-1.03517e-08
1.33529e-05
-1.03051e-08
1.33512e-05
-1.02578e-08
1.33495e-05
-1.02096e-08
1.33478e-05
-1.01607e-08
1.33461e-05
-1.01107e-08
1.33444e-05
-1.00601e-08
1.33427e-05
-1.00081e-08
1.3341e-05
-9.95596e-09
1.33394e-05
-9.90193e-09
1.33377e-05
-9.84867e-09
1.33361e-05
-9.79272e-09
1.33344e-05
-9.73912e-09
1.33327e-05
-9.68155e-09
1.33311e-05
-9.62889e-09
1.33294e-05
-9.57024e-09
1.33278e-05
-9.5204e-09
1.33261e-05
-9.46163e-09
1.33244e-05
-9.41708e-09
1.33228e-05
-9.36053e-09
1.33211e-05
-9.32344e-09
1.33194e-05
-9.27619e-09
1.33177e-05
-9.2451e-09
1.3316e-05
-9.21761e-09
1.33143e-05
-9.19271e-09
1.33126e-05
-9.17579e-09
1.33109e-05
-9.18857e-09
-9.17322e-09
1.2895e-05
-1.23368e-08
1.28919e-05
-1.22815e-08
1.28888e-05
-1.22266e-08
1.28858e-05
-1.2172e-08
1.28828e-05
-1.21178e-08
1.28798e-05
-1.2064e-08
1.28768e-05
-1.20106e-08
1.28738e-05
-1.19574e-08
1.28708e-05
-1.19046e-08
1.28678e-05
-1.18521e-08
1.28649e-05
-1.18e-08
1.28619e-05
-1.17482e-08
1.2859e-05
-1.16967e-08
1.28561e-05
-1.16456e-08
1.28532e-05
-1.15948e-08
1.28503e-05
-1.15443e-08
1.28474e-05
-1.14941e-08
1.28445e-05
-1.14442e-08
1.28417e-05
-1.13946e-08
1.28388e-05
-1.13454e-08
1.2836e-05
-1.12965e-08
1.28332e-05
-1.12478e-08
1.28304e-05
-1.11995e-08
1.28276e-05
-1.11515e-08
1.28248e-05
-1.11037e-08
1.2822e-05
-1.10562e-08
1.28192e-05
-1.10092e-08
1.28165e-05
-1.09622e-08
1.28137e-05
-1.09157e-08
1.2811e-05
-1.08694e-08
1.28083e-05
-1.08233e-08
1.28055e-05
-1.07776e-08
1.28028e-05
-1.07321e-08
1.28001e-05
-1.06869e-08
1.27975e-05
-1.0642e-08
1.27948e-05
-1.05974e-08
1.27921e-05
-1.0553e-08
1.27895e-05
-1.05089e-08
1.27868e-05
-1.0465e-08
1.27842e-05
-1.04214e-08
1.27816e-05
-1.03781e-08
1.2779e-05
-1.0335e-08
1.27764e-05
-1.02922e-08
1.27738e-05
-1.02496e-08
1.27712e-05
-1.02074e-08
1.27687e-05
-1.01653e-08
1.27661e-05
-1.01235e-08
1.27636e-05
-1.00819e-08
1.2761e-05
-1.00406e-08
1.27585e-05
-9.99944e-09
1.2756e-05
-9.95865e-09
1.27535e-05
-9.9181e-09
1.2751e-05
-9.87769e-09
1.27485e-05
-9.83756e-09
1.2746e-05
-9.79768e-09
1.27435e-05
-9.75802e-09
1.27411e-05
-9.71861e-09
1.27386e-05
-9.67942e-09
1.27362e-05
-9.64047e-09
1.27337e-05
-9.60175e-09
1.27313e-05
-9.56326e-09
1.27289e-05
-9.525e-09
1.27265e-05
-9.48697e-09
1.27241e-05
-9.44912e-09
1.27217e-05
-9.41165e-09
1.27193e-05
-9.37426e-09
1.2717e-05
-9.33715e-09
1.27146e-05
-9.30027e-09
1.27123e-05
-9.26362e-09
1.27099e-05
-9.22715e-09
1.27076e-05
-9.19105e-09
1.27053e-05
-9.15502e-09
1.2703e-05
-9.11928e-09
1.27006e-05
-9.08375e-09
1.26984e-05
-9.04844e-09
1.26961e-05
-9.0133e-09
1.26938e-05
-8.97852e-09
1.26915e-05
-8.94379e-09
1.26892e-05
-8.90931e-09
1.2687e-05
-8.87501e-09
1.26847e-05
-8.8409e-09
1.26825e-05
-8.80694e-09
1.26803e-05
-8.77314e-09
1.26781e-05
-8.73941e-09
1.26759e-05
-8.70594e-09
1.26736e-05
-8.6724e-09
1.26715e-05
-8.63896e-09
1.26693e-05
-8.60554e-09
1.26671e-05
-8.5721e-09
1.26649e-05
-8.53854e-09
1.26628e-05
-8.50503e-09
1.26606e-05
-8.47121e-09
1.26585e-05
-8.43722e-09
1.26564e-05
-8.40294e-09
1.26542e-05
-8.36827e-09
1.26521e-05
-8.33333e-09
1.265e-05
-8.29775e-09
1.26479e-05
-8.26166e-09
1.26459e-05
-8.2249e-09
1.26438e-05
-8.18739e-09
1.26417e-05
-8.14918e-09
1.26397e-05
-8.11001e-09
1.26376e-05
-8.06981e-09
1.26356e-05
-8.02878e-09
1.26336e-05
-7.9864e-09
1.26316e-05
-7.94329e-09
1.26296e-05
-7.89854e-09
1.26276e-05
-7.8533e-09
1.26256e-05
-7.8062e-09
1.26236e-05
-7.75908e-09
1.26216e-05
-7.70967e-09
1.26197e-05
-7.6612e-09
1.26177e-05
-7.61022e-09
1.26158e-05
-7.56116e-09
1.26138e-05
-7.50999e-09
1.26119e-05
-7.46156e-09
1.26099e-05
-7.41344e-09
1.2608e-05
-7.36651e-09
1.2606e-05
-7.32894e-09
1.2604e-05
-7.28308e-09
1.26021e-05
-7.26689e-09
1.26001e-05
-7.22458e-09
1.25982e-05
-7.23064e-09
1.25963e-05
-7.21624e-09
-7.24398e-09
1.17692e-05
-8.96542e-09
1.17658e-05
-8.92489e-09
1.17625e-05
-8.88464e-09
1.17591e-05
-8.84465e-09
1.17558e-05
-8.80493e-09
1.17525e-05
-8.76546e-09
1.17492e-05
-8.72625e-09
1.1746e-05
-8.6873e-09
1.17427e-05
-8.6486e-09
1.17395e-05
-8.61015e-09
1.17362e-05
-8.57195e-09
1.1733e-05
-8.53399e-09
1.17298e-05
-8.49628e-09
1.17266e-05
-8.45881e-09
1.17235e-05
-8.42159e-09
1.17203e-05
-8.38459e-09
1.17172e-05
-8.34784e-09
1.1714e-05
-8.31132e-09
1.17109e-05
-8.27502e-09
1.17078e-05
-8.23896e-09
1.17047e-05
-8.20313e-09
1.17016e-05
-8.16752e-09
1.16986e-05
-8.13213e-09
1.16955e-05
-8.09697e-09
1.16925e-05
-8.06202e-09
1.16894e-05
-8.02729e-09
1.16864e-05
-7.99278e-09
1.16834e-05
-7.95848e-09
1.16804e-05
-7.9244e-09
1.16774e-05
-7.89052e-09
1.16745e-05
-7.85685e-09
1.16715e-05
-7.82339e-09
1.16686e-05
-7.79013e-09
1.16657e-05
-7.75707e-09
1.16627e-05
-7.72422e-09
1.16598e-05
-7.69157e-09
1.16569e-05
-7.65911e-09
1.16541e-05
-7.62685e-09
1.16512e-05
-7.59479e-09
1.16483e-05
-7.56292e-09
1.16455e-05
-7.53124e-09
1.16426e-05
-7.49975e-09
1.16398e-05
-7.46845e-09
1.1637e-05
-7.43733e-09
1.16342e-05
-7.40641e-09
1.16314e-05
-7.37566e-09
1.16286e-05
-7.3451e-09
1.16259e-05
-7.31472e-09
1.16231e-05
-7.28453e-09
1.16204e-05
-7.25451e-09
1.16176e-05
-7.22467e-09
1.16149e-05
-7.195e-09
1.16122e-05
-7.16552e-09
1.16095e-05
-7.1362e-09
1.16068e-05
-7.10707e-09
1.16041e-05
-7.0781e-09
1.16015e-05
-7.04931e-09
1.15988e-05
-7.02069e-09
1.15962e-05
-6.99225e-09
1.15935e-05
-6.96397e-09
1.15909e-05
-6.93587e-09
1.15883e-05
-6.90794e-09
1.15857e-05
-6.88018e-09
1.15831e-05
-6.85258e-09
1.15805e-05
-6.82517e-09
1.15779e-05
-6.79792e-09
1.15753e-05
-6.77085e-09
1.15728e-05
-6.74395e-09
1.15702e-05
-6.71722e-09
1.15677e-05
-6.69067e-09
1.15652e-05
-6.66429e-09
1.15627e-05
-6.63809e-09
1.15602e-05
-6.61207e-09
1.15577e-05
-6.58622e-09
1.15552e-05
-6.56055e-09
1.15527e-05
-6.53505e-09
1.15502e-05
-6.50974e-09
1.15478e-05
-6.48459e-09
1.15453e-05
-6.45961e-09
1.15429e-05
-6.4348e-09
1.15404e-05
-6.41016e-09
1.1538e-05
-6.38567e-09
1.15356e-05
-6.36133e-09
1.15332e-05
-6.33712e-09
1.15308e-05
-6.31304e-09
1.15284e-05
-6.28907e-09
1.15261e-05
-6.2652e-09
1.15237e-05
-6.24139e-09
1.15213e-05
-6.21762e-09
1.1519e-05
-6.19387e-09
1.15167e-05
-6.1701e-09
1.15143e-05
-6.14627e-09
1.1512e-05
-6.12234e-09
1.15097e-05
-6.09825e-09
1.15074e-05
-6.07396e-09
1.15051e-05
-6.0494e-09
1.15029e-05
-6.02451e-09
1.15006e-05
-5.99922e-09
1.14983e-05
-5.97345e-09
1.14961e-05
-5.94712e-09
1.14939e-05
-5.92015e-09
1.14917e-05
-5.89248e-09
1.14895e-05
-5.86395e-09
1.14873e-05
-5.8346e-09
1.14851e-05
-5.80417e-09
1.14829e-05
-5.77284e-09
1.14808e-05
-5.74021e-09
1.14786e-05
-5.70664e-09
1.14765e-05
-5.67163e-09
1.14743e-05
-5.63567e-09
1.14722e-05
-5.59834e-09
1.14701e-05
-5.55993e-09
1.1468e-05
-5.52084e-09
1.1466e-05
-5.48005e-09
1.14639e-05
-5.44069e-09
1.14618e-05
-5.39763e-09
1.14598e-05
-5.36144e-09
1.14577e-05
-5.3161e-09
1.14557e-05
-5.2904e-09
1.14537e-05
-5.24247e-09
1.14516e-05
-5.23858e-09
1.14496e-05
-5.19047e-09
1.14476e-05
-5.21981e-09
1.14456e-05
-5.18635e-09
-5.25412e-09
1.01402e-05
-5.6602e-09
1.01369e-05
-5.63449e-09
1.01336e-05
-5.60894e-09
1.01304e-05
-5.58357e-09
1.01271e-05
-5.55836e-09
1.01239e-05
-5.53332e-09
1.01207e-05
-5.50845e-09
1.01175e-05
-5.48374e-09
1.01143e-05
-5.45919e-09
1.01111e-05
-5.4348e-09
1.01079e-05
-5.41057e-09
1.01048e-05
-5.38649e-09
1.01017e-05
-5.36258e-09
1.00985e-05
-5.33881e-09
1.00954e-05
-5.3152e-09
1.00923e-05
-5.29175e-09
1.00893e-05
-5.26844e-09
1.00862e-05
-5.24528e-09
1.00831e-05
-5.22227e-09
1.00801e-05
-5.19941e-09
1.00771e-05
-5.17669e-09
1.00741e-05
-5.15411e-09
1.00711e-05
-5.13168e-09
1.00681e-05
-5.10939e-09
1.00651e-05
-5.08724e-09
1.00621e-05
-5.06523e-09
1.00592e-05
-5.04336e-09
1.00562e-05
-5.02162e-09
1.00533e-05
-5.00002e-09
1.00504e-05
-4.97855e-09
1.00475e-05
-4.95721e-09
1.00446e-05
-4.93601e-09
1.00417e-05
-4.91493e-09
1.00389e-05
-4.89399e-09
1.0036e-05
-4.87318e-09
1.00332e-05
-4.85249e-09
1.00304e-05
-4.83193e-09
1.00275e-05
-4.81149e-09
1.00247e-05
-4.79118e-09
1.0022e-05
-4.77099e-09
1.00192e-05
-4.75092e-09
1.00164e-05
-4.73097e-09
1.00136e-05
-4.71115e-09
1.00109e-05
-4.69144e-09
1.00082e-05
-4.67185e-09
1.00054e-05
-4.65238e-09
1.00027e-05
-4.63303e-09
1e-05
-4.61379e-09
9.99734e-06
-4.59467e-09
9.99466e-06
-4.57566e-09
9.99199e-06
-4.55676e-09
9.98934e-06
-4.53798e-09
9.98669e-06
-4.51931e-09
9.98406e-06
-4.50075e-09
9.98143e-06
-4.4823e-09
9.97882e-06
-4.46396e-09
9.97621e-06
-4.44573e-09
9.97362e-06
-4.42761e-09
9.97104e-06
-4.4096e-09
9.96847e-06
-4.3917e-09
9.9659e-06
-4.3739e-09
9.96335e-06
-4.35622e-09
9.96081e-06
-4.33864e-09
9.95828e-06
-4.32118e-09
9.95576e-06
-4.30383e-09
9.95325e-06
-4.28658e-09
9.95075e-06
-4.26945e-09
9.94825e-06
-4.25243e-09
9.94577e-06
-4.23552e-09
9.9433e-06
-4.21873e-09
9.94084e-06
-4.20205e-09
9.93839e-06
-4.1855e-09
9.93594e-06
-4.16905e-09
9.93351e-06
-4.15273e-09
9.93108e-06
-4.13653e-09
9.92867e-06
-4.12046e-09
9.92627e-06
-4.1045e-09
9.92387e-06
-4.08868e-09
9.92148e-06
-4.07297e-09
9.91911e-06
-4.0574e-09
9.91674e-06
-4.04194e-09
9.91438e-06
-4.02662e-09
9.91203e-06
-4.01141e-09
9.90969e-06
-3.99633e-09
9.90736e-06
-3.98136e-09
9.90503e-06
-3.9665e-09
9.90272e-06
-3.95174e-09
9.90042e-06
-3.93707e-09
9.89812e-06
-3.92247e-09
9.89584e-06
-3.90795e-09
9.89356e-06
-3.89345e-09
9.89129e-06
-3.87898e-09
9.88903e-06
-3.86449e-09
9.88679e-06
-3.84999e-09
9.88455e-06
-3.83538e-09
9.88232e-06
-3.82069e-09
9.8801e-06
-3.80582e-09
9.87789e-06
-3.79076e-09
9.87569e-06
-3.7754e-09
9.87351e-06
-3.75976e-09
9.87133e-06
-3.74369e-09
9.86916e-06
-3.7272e-09
9.86701e-06
-3.71013e-09
9.86487e-06
-3.69251e-09
9.86274e-06
-3.67415e-09
9.86062e-06
-3.65508e-09
9.85852e-06
-3.63509e-09
9.85643e-06
-3.61434e-09
9.85435e-06
-3.59254e-09
9.85228e-06
-3.56968e-09
9.85023e-06
-3.54604e-09
9.84819e-06
-3.5209e-09
9.84617e-06
-3.4957e-09
9.84416e-06
-3.46803e-09
9.84216e-06
-3.44243e-09
9.84018e-06
-3.41195e-09
9.83821e-06
-3.38887e-09
9.83625e-06
-3.35502e-09
9.8343e-06
-3.34094e-09
9.83236e-06
-3.30274e-09
9.83044e-06
-3.30972e-09
9.82851e-06
-3.26742e-09
9.82662e-06
-3.31469e-09
9.82475e-06
-3.27464e-09
-3.37869e-09
7.97442e-06
-2.80406e-09
7.97158e-06
-2.79129e-09
7.96875e-06
-2.77862e-09
7.96593e-06
-2.76602e-09
7.96313e-06
-2.75351e-09
7.96033e-06
-2.74108e-09
7.95756e-06
-2.72873e-09
7.95479e-06
-2.71647e-09
7.95203e-06
-2.70429e-09
7.94929e-06
-2.69218e-09
7.94656e-06
-2.68016e-09
7.94384e-06
-2.66821e-09
7.94114e-06
-2.65634e-09
7.93844e-06
-2.64455e-09
7.93576e-06
-2.63283e-09
7.93309e-06
-2.62119e-09
7.93043e-06
-2.60962e-09
7.92778e-06
-2.59813e-09
7.92515e-06
-2.58672e-09
7.92252e-06
-2.57537e-09
7.91991e-06
-2.5641e-09
7.91731e-06
-2.5529e-09
7.91472e-06
-2.54177e-09
7.91214e-06
-2.53071e-09
7.90957e-06
-2.51972e-09
7.90702e-06
-2.5088e-09
7.90447e-06
-2.49795e-09
7.90194e-06
-2.48716e-09
7.89941e-06
-2.47645e-09
7.8969e-06
-2.4658e-09
7.8944e-06
-2.45521e-09
7.89191e-06
-2.44469e-09
7.88943e-06
-2.43424e-09
7.88696e-06
-2.42385e-09
7.8845e-06
-2.41353e-09
7.88205e-06
-2.40327e-09
7.87961e-06
-2.39307e-09
7.87718e-06
-2.38293e-09
7.87476e-06
-2.37285e-09
7.87235e-06
-2.36284e-09
7.86996e-06
-2.35289e-09
7.86757e-06
-2.34299e-09
7.86519e-06
-2.33316e-09
7.86282e-06
-2.32339e-09
7.86046e-06
-2.31367e-09
7.85811e-06
-2.30401e-09
7.85578e-06
-2.29442e-09
7.85345e-06
-2.28487e-09
7.85113e-06
-2.27539e-09
7.84882e-06
-2.26596e-09
7.84652e-06
-2.25659e-09
7.84423e-06
-2.24727e-09
7.84195e-06
-2.23801e-09
7.83967e-06
-2.22881e-09
7.83741e-06
-2.21965e-09
7.83516e-06
-2.21056e-09
7.83291e-06
-2.20151e-09
7.83068e-06
-2.19253e-09
7.82845e-06
-2.18359e-09
7.82624e-06
-2.17471e-09
7.82403e-06
-2.16588e-09
7.82183e-06
-2.15711e-09
7.81964e-06
-2.14839e-09
7.81746e-06
-2.13973e-09
7.81528e-06
-2.13112e-09
7.81312e-06
-2.12257e-09
7.81097e-06
-2.11406e-09
7.80882e-06
-2.10562e-09
7.80668e-06
-2.09724e-09
7.80455e-06
-2.08891e-09
7.80243e-06
-2.08064e-09
7.80032e-06
-2.07243e-09
7.79821e-06
-2.06428e-09
7.79612e-06
-2.0562e-09
7.79403e-06
-2.04818e-09
7.79195e-06
-2.04023e-09
7.78988e-06
-2.03234e-09
7.78781e-06
-2.02453e-09
7.78576e-06
-2.01678e-09
7.78371e-06
-2.00912e-09
7.78167e-06
-2.00152e-09
7.77963e-06
-1.994e-09
7.77761e-06
-1.98655e-09
7.77559e-06
-1.9792e-09
7.77358e-06
-1.9719e-09
7.77158e-06
-1.9647e-09
7.76959e-06
-1.95756e-09
7.7676e-06
-1.95051e-09
7.76562e-06
-1.94351e-09
7.76365e-06
-1.93659e-09
7.76169e-06
-1.92971e-09
7.75973e-06
-1.92291e-09
7.75778e-06
-1.91611e-09
7.75584e-06
-1.90937e-09
7.75391e-06
-1.90261e-09
7.75199e-06
-1.89587e-09
7.75007e-06
-1.88905e-09
7.74816e-06
-1.88223e-09
7.74626e-06
-1.87526e-09
7.74437e-06
-1.86822e-09
7.74249e-06
-1.86098e-09
7.74061e-06
-1.85358e-09
7.73875e-06
-1.84589e-09
7.7369e-06
-1.83795e-09
7.73505e-06
-1.82963e-09
7.73322e-06
-1.82095e-09
7.7314e-06
-1.81179e-09
7.72958e-06
-1.80215e-09
7.72779e-06
-1.79198e-09
7.726e-06
-1.78113e-09
7.72422e-06
-1.76986e-09
7.72246e-06
-1.75759e-09
7.72071e-06
-1.74533e-09
7.71898e-06
-1.73143e-09
7.71725e-06
-1.7188e-09
7.71555e-06
-1.70304e-09
7.71385e-06
-1.69184e-09
7.71217e-06
-1.67379e-09
7.7105e-06
-1.66838e-09
7.70885e-06
-1.64713e-09
7.7072e-06
-1.65765e-09
7.70557e-06
-1.63132e-09
7.70394e-06
-1.68403e-09
7.70237e-06
-1.64981e-09
-1.78908e-09
5.24149e-06
-7.87036e-10
5.23949e-06
-7.83456e-10
5.23749e-06
-7.79913e-10
5.2355e-06
-7.76351e-10
5.23352e-06
-7.72855e-10
5.23154e-06
-7.69368e-10
5.22958e-06
-7.65918e-10
5.22763e-06
-7.62448e-10
5.22568e-06
-7.59044e-10
5.22375e-06
-7.55649e-10
5.22182e-06
-7.52274e-10
5.2199e-06
-7.48923e-10
5.21799e-06
-7.45592e-10
5.21609e-06
-7.42284e-10
5.21419e-06
-7.38997e-10
5.21231e-06
-7.35731e-10
5.21043e-06
-7.32486e-10
5.20856e-06
-7.29262e-10
5.2067e-06
-7.26059e-10
5.20485e-06
-7.22876e-10
5.203e-06
-7.19714e-10
5.20117e-06
-7.16572e-10
5.19934e-06
-7.13449e-10
5.19752e-06
-7.10361e-10
5.19571e-06
-7.07249e-10
5.1939e-06
-7.042e-10
5.1921e-06
-7.01156e-10
5.19031e-06
-6.98144e-10
5.18853e-06
-6.95109e-10
5.18676e-06
-6.92136e-10
5.18499e-06
-6.89167e-10
5.18324e-06
-6.86216e-10
5.18148e-06
-6.83283e-10
5.17974e-06
-6.80368e-10
5.178e-06
-6.77472e-10
5.17628e-06
-6.74592e-10
5.17455e-06
-6.71731e-10
5.17284e-06
-6.68887e-10
5.17113e-06
-6.66061e-10
5.16943e-06
-6.63251e-10
5.16774e-06
-6.60459e-10
5.16606e-06
-6.57697e-10
5.16438e-06
-6.5491e-10
5.16271e-06
-6.52181e-10
5.16104e-06
-6.49457e-10
5.15939e-06
-6.4676e-10
5.15774e-06
-6.44039e-10
5.15609e-06
-6.41375e-10
5.15446e-06
-6.38715e-10
5.15283e-06
-6.36081e-10
5.1512e-06
-6.33424e-10
5.14959e-06
-6.30822e-10
5.14798e-06
-6.28225e-10
5.14637e-06
-6.25639e-10
5.14478e-06
-6.23073e-10
5.14319e-06
-6.20516e-10
5.1416e-06
-6.17982e-10
5.14003e-06
-6.15454e-10
5.13846e-06
-6.1295e-10
5.13689e-06
-6.10452e-10
5.13533e-06
-6.07979e-10
5.13378e-06
-6.05509e-10
5.13224e-06
-6.03081e-10
5.1307e-06
-6.00612e-10
5.12916e-06
-5.98216e-10
5.12764e-06
-5.95804e-10
5.12612e-06
-5.9344e-10
5.1246e-06
-5.91029e-10
5.12309e-06
-5.88699e-10
5.12159e-06
-5.86348e-10
5.1201e-06
-5.84038e-10
5.11861e-06
-5.81719e-10
5.11712e-06
-5.79447e-10
5.11564e-06
-5.77162e-10
5.11417e-06
-5.7493e-10
5.1127e-06
-5.72681e-10
5.11124e-06
-5.70494e-10
5.10978e-06
-5.68284e-10
5.10833e-06
-5.66146e-10
5.10689e-06
-5.63978e-10
5.10545e-06
-5.61893e-10
5.10401e-06
-5.59771e-10
5.10259e-06
-5.57744e-10
5.10116e-06
-5.55686e-10
5.09975e-06
-5.53693e-10
5.09833e-06
-5.51689e-10
5.09692e-06
-5.49791e-10
5.09552e-06
-5.47842e-10
5.09413e-06
-5.45983e-10
5.09273e-06
-5.44091e-10
5.09135e-06
-5.42327e-10
5.08996e-06
-5.40474e-10
5.08859e-06
-5.3877e-10
5.08722e-06
-5.36964e-10
5.08585e-06
-5.35306e-10
5.08449e-06
-5.33535e-10
5.08313e-06
-5.31915e-10
5.08178e-06
-5.30132e-10
5.08043e-06
-5.28503e-10
5.07909e-06
-5.26738e-10
5.07776e-06
-5.2504e-10
5.07643e-06
-5.23227e-10
5.07511e-06
-5.21414e-10
5.07379e-06
-5.19506e-10
5.07248e-06
-5.17504e-10
5.07118e-06
-5.15458e-10
5.06988e-06
-5.13154e-10
5.06859e-06
-5.10891e-10
5.06731e-06
-5.08254e-10
5.06604e-06
-5.05702e-10
5.06477e-06
-5.02606e-10
5.06352e-06
-4.99698e-10
5.06227e-06
-4.96202e-10
5.06104e-06
-4.92861e-10
5.05981e-06
-4.89117e-10
5.0586e-06
-4.85299e-10
5.05739e-06
-4.81937e-10
5.0562e-06
-4.77539e-10
5.05502e-06
-4.7634e-10
5.05384e-06
-4.71111e-10
5.05267e-06
-4.7719e-10
5.05151e-06
-4.7048e-10
5.05033e-06
-4.99856e-10
5.04922e-06
-4.80665e-10
-6.22522e-10
1.91218e-06
1.91139e-06
1.91061e-06
1.90984e-06
1.90907e-06
1.9083e-06
1.90753e-06
1.90677e-06
1.90601e-06
1.90525e-06
1.9045e-06
1.90375e-06
1.90301e-06
1.90226e-06
1.90152e-06
1.90079e-06
1.90006e-06
1.89933e-06
1.8986e-06
1.89788e-06
1.89716e-06
1.89644e-06
1.89573e-06
1.89502e-06
1.89431e-06
1.89361e-06
1.89291e-06
1.89221e-06
1.89151e-06
1.89082e-06
1.89013e-06
1.88944e-06
1.88876e-06
1.88808e-06
1.8874e-06
1.88673e-06
1.88606e-06
1.88539e-06
1.88472e-06
1.88406e-06
1.8834e-06
1.88274e-06
1.88209e-06
1.88143e-06
1.88078e-06
1.88014e-06
1.87949e-06
1.87885e-06
1.87821e-06
1.87758e-06
1.87694e-06
1.87631e-06
1.87569e-06
1.87506e-06
1.87444e-06
1.87382e-06
1.8732e-06
1.87258e-06
1.87197e-06
1.87136e-06
1.87075e-06
1.87015e-06
1.86954e-06
1.86894e-06
1.86834e-06
1.86775e-06
1.86715e-06
1.86656e-06
1.86598e-06
1.86539e-06
1.86481e-06
1.86422e-06
1.86364e-06
1.86307e-06
1.86249e-06
1.86192e-06
1.86135e-06
1.86078e-06
1.86022e-06
1.85965e-06
1.85909e-06
1.85853e-06
1.85797e-06
1.85742e-06
1.85686e-06
1.85631e-06
1.85576e-06
1.85521e-06
1.85467e-06
1.85412e-06
1.85358e-06
1.85304e-06
1.8525e-06
1.85197e-06
1.85143e-06
1.8509e-06
1.85037e-06
1.84984e-06
1.84931e-06
1.84878e-06
1.84826e-06
1.84774e-06
1.84722e-06
1.8467e-06
1.84618e-06
1.84567e-06
1.84516e-06
1.84465e-06
1.84414e-06
1.84364e-06
1.84314e-06
1.84264e-06