/*--------------------------------*- C++ -*----------------------------------*\
| =========                 |                                                 |
| \\      /  F ield         | OpenFOAM: The Open Source CFD Toolbox           |
|  \\    /   O peration     | Version:                                        |
|   \\  /    A nd           | Website:  www.openfoam.com                      |
|    \\/     M anipulation  |                                                 |
\*---------------------------------------------------------------------------*/
FoamFile
{
    version     2.0;
    format      ascii;
    class       volVectorField;
    location    "563";
    object      U;
}
// * * * * * * * * * * * * * * * * * * * * * * * * * * * * * * * * * * * * * //

dimensions      [0 1 -1 0 0 0 0];


internalField   nonuniform List<vector> 
1250
(
(1.44621 -0.00276139 -1.21783e-12)
(1.44625 -0.00275024 -1.21287e-12)
(1.44628 -0.00273916 -1.20822e-12)
(1.44632 -0.00272814 -1.20386e-12)
(1.44635 -0.00271717 -1.19972e-12)
(1.44639 -0.00270627 -1.19578e-12)
(1.44642 -0.00269543 -1.19205e-12)
(1.44646 -0.00268465 -1.18848e-12)
(1.44649 -0.00267392 -1.18507e-12)
(1.44652 -0.00266326 -1.18178e-12)
(1.44656 -0.00265265 -1.17863e-12)
(1.44659 -0.00264211 -1.17556e-12)
(1.44662 -0.00263161 -1.17265e-12)
(1.44665 -0.00262118 -1.1697e-12)
(1.44668 -0.0026108 -1.16706e-12)
(1.44672 -0.00260048 -1.16411e-12)
(1.44675 -0.00259022 -1.16183e-12)
(1.44678 -0.00258001 -1.15872e-12)
(1.44681 -0.00256985 -1.15686e-12)
(1.44683 -0.00255975 -1.15359e-12)
(1.44686 -0.00254971 -1.15187e-12)
(1.44689 -0.00253972 -1.14801e-12)
(1.44692 -0.00252978 -1.14674e-12)
(1.44695 -0.00251989 -1.14221e-12)
(1.44697 -0.00251006 -1.1417e-12)
(1.447 -0.00250028 -1.13635e-12)
(1.44703 -0.00249055 -1.13678e-12)
(1.44705 -0.00248087 -1.13064e-12)
(1.44708 -0.00247124 -1.13184e-12)
(1.44711 -0.00246167 -1.12555e-12)
(1.44713 -0.00245214 -1.12617e-12)
(1.44716 -0.00244267 -1.12225e-12)
(1.44718 -0.00243324 -1.11794e-12)
(1.44721 -0.00242387 -1.12363e-12)
(1.44723 -0.00241454 -1.10141e-12)
(1.44725 -0.00240526 -1.13761e-12)
(1.44728 -0.00239603 -1.06431e-12)
(1.4473 -0.00238685 -9.36405e-13)
(1.44732 -0.00237772 -9.58172e-13)
(1.44734 -0.00236863 -9.69505e-13)
(1.44737 -0.00235959 -9.86072e-13)
(1.44739 -0.0023506 -9.9599e-13)
(1.44741 -0.00234165 -1.00373e-12)
(1.44743 -0.00233275 -1.02099e-12)
(1.44745 -0.0023239 -1.00673e-12)
(1.44747 -0.00231509 -1.05455e-12)
(1.44749 -0.00230633 -9.83181e-13)
(1.44751 -0.00229761 -8.66666e-13)
(1.44753 -0.00228894 -8.83197e-13)
(1.44755 -0.00228031 -9.18828e-13)
(1.44757 -0.00227172 -9.10818e-13)
(1.44759 -0.00226318 -9.71774e-13)
(1.44761 -0.00225469 -9.10831e-13)
(1.44763 -0.00224623 -7.89244e-13)
(1.44765 -0.00223782 -8.40486e-13)
(1.44767 -0.00222945 -8.27103e-13)
(1.44768 -0.00222113 -9.25277e-13)
(1.4477 -0.00221284 -1.07339e-12)
(1.44772 -0.0022046 -1.07122e-12)
(1.44774 -0.0021964 -1.06328e-12)
(1.44775 -0.00218824 -1.07207e-12)
(1.44777 -0.00218012 -1.04578e-12)
(1.44778 -0.00217204 -1.08579e-12)
(1.4478 -0.002164 -1.00908e-12)
(1.44782 -0.002156 -8.70475e-13)
(1.44783 -0.00214803 -9.06063e-13)
(1.44785 -0.00214011 -8.92318e-13)
(1.44786 -0.00213221 -9.59146e-13)
(1.44788 -0.00212436 -1.14596e-12)
(1.44789 -0.00211654 -1.05706e-12)
(1.44791 -0.00210875 -9.13601e-13)
(1.44792 -0.002101 -9.38491e-13)
(1.44794 -0.00209327 -9.24173e-13)
(1.44795 -0.00208557 -9.8065e-13)
(1.44796 -0.0020779 -9.0637e-13)
(1.44798 -0.00207026 -7.87134e-13)
(1.44799 -0.00206264 -8.09694e-13)
(1.44801 -0.00205504 -8.39057e-13)
(1.44802 -0.00204745 -8.54197e-13)
(1.44803 -0.00203989 -8.77288e-13)
(1.44804 -0.00203233 -8.89006e-13)
(1.44806 -0.00202479 -9.0253e-13)
(1.44807 -0.00201725 -9.20774e-13)
(1.44808 -0.00200971 -9.11435e-13)
(1.44809 -0.00200218 -9.60958e-13)
(1.44811 -0.00199464 -8.91234e-13)
(1.44812 -0.0019871 -7.64179e-13)
(1.44813 -0.00197955 -7.88951e-13)
(1.44814 -0.00197198 -8.236e-13)
(1.44815 -0.00196441 -8.21611e-13)
(1.44816 -0.00195682 -8.85328e-13)
(1.44817 -0.00194922 -8.20857e-13)
(1.44818 -0.00194158 -7.01576e-13)
(1.44819 -0.00193395 -7.3659e-13)
(1.4482 -0.00192628 -7.67362e-13)
(1.44821 -0.00191864 -7.94396e-13)
(1.44822 -0.00191094 -8.18163e-13)
(1.44823 -0.0019033 -8.3907e-13)
(1.44824 -0.00189561 -8.57457e-13)
(1.44825 -0.00188801 -8.73632e-13)
(1.44826 -0.00188035 -8.87848e-13)
(1.44827 -0.00187287 -9.00349e-13)
(1.44827 -0.0018653 -9.11327e-13)
(1.44828 -0.00185804 -9.20959e-13)
(1.44828 -0.00185061 -9.29395e-13)
(1.44829 -0.00184374 -9.36772e-13)
(1.44829 -0.0018365 -9.43207e-13)
(1.4483 -0.00183026 -9.48804e-13)
(1.4483 -0.00182325 -9.53646e-13)
(1.4483 -0.00181794 -9.57819e-13)
(1.4483 -0.00181116 -9.61382e-13)
(1.4483 -0.00180723 -9.64413e-13)
(1.4483 -0.00180059 -9.66944e-13)
(1.4483 -0.00179861 -9.69055e-13)
(1.4483 -0.00179191 -9.70738e-13)
(1.44829 -0.00179256 -9.72096e-13)
(1.44829 -0.00178551 -9.73078e-13)
(1.44828 -0.00178948 -9.73824e-13)
(1.44828 -0.00178175 -9.74221e-13)
(1.44827 -0.00178946 -9.74451e-13)
(1.44826 -0.00178064 -9.74364e-13)
(1.44826 -0.00179228 -9.74157e-13)
(1.44824 -0.0017809 -9.73692e-13)
(1.44824 -0.00179615 -9.73058e-13)
(1.44824 -0.0017818 -9.72374e-13)
(1.36587 -0.00249912 -1.27259e-12)
(1.3658 -0.00248869 -1.2683e-12)
(1.36573 -0.00247832 -1.26406e-12)
(1.36567 -0.00246801 -1.25983e-12)
(1.3656 -0.00245776 -1.25565e-12)
(1.36554 -0.00244757 -1.25149e-12)
(1.36547 -0.00243744 -1.24741e-12)
(1.3654 -0.00242737 -1.24335e-12)
(1.36534 -0.00241736 -1.23937e-12)
(1.36527 -0.0024074 -1.23541e-12)
(1.3652 -0.0023975 -1.23153e-12)
(1.36514 -0.00238766 -1.22766e-12)
(1.36507 -0.00237788 -1.22391e-12)
(1.36501 -0.00236815 -1.22012e-12)
(1.36494 -0.00235847 -1.21649e-12)
(1.36487 -0.00234886 -1.21277e-12)
(1.36481 -0.00233929 -1.20927e-12)
(1.36474 -0.00232978 -1.2056e-12)
(1.36468 -0.00232033 -1.20223e-12)
(1.36461 -0.00231092 -1.19862e-12)
(1.36454 -0.00230157 -1.19538e-12)
(1.36448 -0.00229228 -1.19177e-12)
(1.36441 -0.00228303 -1.18865e-12)
(1.36435 -0.00227384 -1.18505e-12)
(1.36428 -0.00226469 -1.182e-12)
(1.36422 -0.0022556 -1.17842e-12)
(1.36415 -0.00224656 -1.1754e-12)
(1.36409 -0.00223757 -1.17197e-12)
(1.36402 -0.00222863 -1.1688e-12)
(1.36396 -0.00221974 -1.16571e-12)
(1.36389 -0.0022109 -1.16216e-12)
(1.36383 -0.00220211 -1.15969e-12)
(1.36376 -0.00219336 -1.15549e-12)
(1.3637 -0.00218466 -1.15373e-12)
(1.36363 -0.00217602 -1.1493e-12)
(1.36357 -0.00216741 -1.14673e-12)
(1.3635 -0.00215886 -1.14562e-12)
(1.36344 -0.00215035 -1.13477e-12)
(1.36337 -0.00214189 -1.12564e-12)
(1.36331 -0.00213347 -1.11807e-12)
(1.36324 -0.0021251 -1.11083e-12)
(1.36318 -0.00211678 -1.10601e-12)
(1.36312 -0.0021085 -1.0996e-12)
(1.36305 -0.00210026 -1.09708e-12)
(1.36299 -0.00209207 -1.09123e-12)
(1.36292 -0.00208393 -1.08918e-12)
(1.36286 -0.00207583 -1.08705e-12)
(1.3628 -0.00206777 -1.07759e-12)
(1.36273 -0.00205975 -1.0674e-12)
(1.36267 -0.00205178 -1.06169e-12)
(1.36261 -0.00204385 -1.05447e-12)
(1.36254 -0.00203596 -1.04955e-12)
(1.36248 -0.00202812 -1.04848e-12)
(1.36242 -0.00202031 -1.03563e-12)
(1.36235 -0.00201255 -1.0282e-12)
(1.36229 -0.00200483 -1.01996e-12)
(1.36223 -0.00199715 -1.01273e-12)
(1.36217 -0.00198951 -1.01548e-12)
(1.3621 -0.00198192 -1.01919e-12)
(1.36204 -0.00197436 -1.0201e-12)
(1.36198 -0.00196684 -1.0233e-12)
(1.36192 -0.00195936 -1.02321e-12)
(1.36185 -0.00195192 -1.02444e-12)
(1.36179 -0.00194452 -1.02745e-12)
(1.36173 -0.00193716 -1.01902e-12)
(1.36167 -0.00192984 -1.01296e-12)
(1.36161 -0.00192255 -1.00841e-12)
(1.36154 -0.0019153 -1.00102e-12)
(1.36148 -0.00190808 -1.00573e-12)
(1.36142 -0.0019009 -1.01236e-12)
(1.36136 -0.00189375 -1.00529e-12)
(1.3613 -0.00188663 -1.0028e-12)
(1.36124 -0.00187955 -9.96998e-13)
(1.36118 -0.00187249 -9.95099e-13)
(1.36112 -0.00186546 -9.9395e-13)
(1.36106 -0.00185846 -9.83925e-13)
(1.361 -0.00185149 -9.75165e-13)
(1.36093 -0.00184453 -9.68636e-13)
(1.36087 -0.00183759 -9.63243e-13)
(1.36081 -0.00183068 -9.58691e-13)
(1.36075 -0.00182377 -9.56019e-13)
(1.36069 -0.00181688 -9.52244e-13)
(1.36064 -0.00180999 -9.51789e-13)
(1.36058 -0.0018031 -9.48499e-13)
(1.36052 -0.00179622 -9.48378e-13)
(1.36046 -0.00178933 -9.48837e-13)
(1.3604 -0.00178243 -9.40729e-13)
(1.36034 -0.00177553 -9.32215e-13)
(1.36028 -0.0017686 -9.28352e-13)
(1.36022 -0.00176165 -9.22341e-13)
(1.36016 -0.00175468 -9.19938e-13)
(1.3601 -0.00174768 -9.19493e-13)
(1.36005 -0.00174065 -9.09364e-13)
(1.35999 -0.00173359 -9.01536e-13)
(1.35993 -0.00172648 -8.95604e-13)
(1.35987 -0.00171935 -8.91236e-13)
(1.35981 -0.00171217 -8.88136e-13)
(1.35976 -0.00170498 -8.86076e-13)
(1.3597 -0.00169772 -8.84846e-13)
(1.35964 -0.00169049 -8.84287e-13)
(1.35958 -0.00168318 -8.84252e-13)
(1.35952 -0.00167595 -8.84631e-13)
(1.35947 -0.00166862 -8.85321e-13)
(1.35941 -0.00166146 -8.86239e-13)
(1.35935 -0.00165414 -8.87328e-13)
(1.35929 -0.00164719 -8.88526e-13)
(1.35923 -0.00163993 -8.89786e-13)
(1.35917 -0.00163336 -8.91074e-13)
(1.35911 -0.0016262 -8.92362e-13)
(1.35905 -0.0016203 -8.93616e-13)
(1.35899 -0.00161325 -8.9482e-13)
(1.35892 -0.00160839 -8.95959e-13)
(1.35886 -0.00160142 -8.97019e-13)
(1.3588 -0.00159811 -8.9799e-13)
(1.35873 -0.00159111 -8.98874e-13)
(1.35867 -0.00158995 -8.99648e-13)
(1.3586 -0.00158281 -9.00319e-13)
(1.35853 -0.00158433 -9.00881e-13)
(1.35846 -0.00157722 -9.01339e-13)
(1.3584 -0.00158146 -9.01674e-13)
(1.35831 -0.00157481 -9.01931e-13)
(1.35826 -0.00158166 -9.0201e-13)
(1.35815 -0.00157303 -9.02107e-13)
(1.35813 -0.0015843 -9.01876e-13)
(1.35801 -0.0015721 -9.01961e-13)
(1.26888 -0.00216286 -1.24133e-12)
(1.26873 -0.00215358 -1.23801e-12)
(1.26858 -0.00214436 -1.23468e-12)
(1.26843 -0.00213519 -1.23126e-12)
(1.26828 -0.00212608 -1.22784e-12)
(1.26813 -0.00211702 -1.22438e-12)
(1.26798 -0.00210802 -1.22093e-12)
(1.26784 -0.00209907 -1.21743e-12)
(1.26769 -0.00209017 -1.21394e-12)
(1.26754 -0.00208133 -1.21042e-12)
(1.26739 -0.00207255 -1.20692e-12)
(1.26725 -0.00206381 -1.20339e-12)
(1.2671 -0.00205513 -1.19987e-12)
(1.26696 -0.0020465 -1.19634e-12)
(1.26681 -0.00203792 -1.19285e-12)
(1.26667 -0.00202939 -1.18932e-12)
(1.26653 -0.00202091 -1.18584e-12)
(1.26638 -0.00201248 -1.18231e-12)
(1.26624 -0.0020041 -1.17887e-12)
(1.2661 -0.00199577 -1.17537e-12)
(1.26595 -0.00198749 -1.17194e-12)
(1.26581 -0.00197926 -1.16846e-12)
(1.26567 -0.00197107 -1.16506e-12)
(1.26553 -0.00196293 -1.16161e-12)
(1.26539 -0.00195484 -1.15822e-12)
(1.26525 -0.0019468 -1.15482e-12)
(1.26511 -0.00193881 -1.15146e-12)
(1.26497 -0.00193086 -1.1481e-12)
(1.26483 -0.00192295 -1.14471e-12)
(1.2647 -0.00191509 -1.14142e-12)
(1.26456 -0.00190728 -1.13804e-12)
(1.26442 -0.00189951 -1.1348e-12)
(1.26428 -0.00189178 -1.13144e-12)
(1.26415 -0.0018841 -1.12818e-12)
(1.26401 -0.00187647 -1.12497e-12)
(1.26388 -0.00186887 -1.12157e-12)
(1.26374 -0.00186132 -1.11856e-12)
(1.26361 -0.00185381 -1.11522e-12)
(1.26347 -0.00184635 -1.11151e-12)
(1.26334 -0.00183892 -1.10776e-12)
(1.26321 -0.00183154 -1.10368e-12)
(1.26307 -0.0018242 -1.09981e-12)
(1.26294 -0.0018169 -1.09565e-12)
(1.26281 -0.00180965 -1.09174e-12)
(1.26268 -0.00180243 -1.08774e-12)
(1.26254 -0.00179525 -1.08376e-12)
(1.26241 -0.00178811 -1.08006e-12)
(1.26228 -0.00178102 -1.0762e-12)
(1.26215 -0.00177396 -1.07201e-12)
(1.26202 -0.00176694 -1.0677e-12)
(1.26189 -0.00175996 -1.06351e-12)
(1.26176 -0.00175302 -1.05893e-12)
(1.26164 -0.00174612 -1.055e-12)
(1.26151 -0.00173926 -1.05057e-12)
(1.26138 -0.00173243 -1.04601e-12)
(1.26125 -0.00172565 -1.04145e-12)
(1.26113 -0.0017189 -1.03661e-12)
(1.261 -0.00171218 -1.03206e-12)
(1.26087 -0.00170551 -1.02807e-12)
(1.26075 -0.00169887 -1.02427e-12)
(1.26062 -0.00169227 -1.02081e-12)
(1.2605 -0.0016857 -1.01765e-12)
(1.26037 -0.00167918 -1.01441e-12)
(1.26025 -0.00167268 -1.01177e-12)
(1.26012 -0.00166623 -1.00887e-12)
(1.26 -0.0016598 -1.00566e-12)
(1.25988 -0.00165342 -1.00253e-12)
(1.25976 -0.00164706 -9.99122e-13)
(1.25963 -0.00164074 -9.95681e-13)
(1.25951 -0.00163446 -9.93253e-13)
(1.25939 -0.0016282 -9.90391e-13)
(1.25927 -0.00162198 -9.87617e-13)
(1.25915 -0.00161579 -9.84717e-13)
(1.25903 -0.00160962 -9.81646e-13)
(1.25891 -0.00160349 -9.7895e-13)
(1.25879 -0.00159738 -9.75872e-13)
(1.25867 -0.00159129 -9.72536e-13)
(1.25855 -0.00158523 -9.68983e-13)
(1.25843 -0.00157919 -9.65457e-13)
(1.25831 -0.00157317 -9.61758e-13)
(1.2582 -0.00156716 -9.58274e-13)
(1.25808 -0.00156116 -9.54654e-13)
(1.25796 -0.00155518 -9.5129e-13)
(1.25785 -0.0015492 -9.47943e-13)
(1.25773 -0.00154322 -9.44629e-13)
(1.25761 -0.00153724 -9.41682e-13)
(1.2575 -0.00153125 -9.38617e-13)
(1.25739 -0.00152525 -9.35149e-13)
(1.25727 -0.00151923 -9.31719e-13)
(1.25716 -0.00151319 -9.28252e-13)
(1.25704 -0.00150712 -9.24591e-13)
(1.25693 -0.00150102 -9.21428e-13)
(1.25682 -0.00149488 -9.17927e-13)
(1.25671 -0.0014887 -9.14208e-13)
(1.25659 -0.00148247 -9.10379e-13)
(1.25648 -0.00147619 -9.06559e-13)
(1.25637 -0.00146985 -9.02782e-13)
(1.25626 -0.00146345 -8.99109e-13)
(1.25615 -0.00145699 -8.95561e-13)
(1.25604 -0.00145049 -8.92176e-13)
(1.25593 -0.0014439 -8.88945e-13)
(1.25582 -0.0014373 -8.85883e-13)
(1.25571 -0.00143059 -8.82988e-13)
(1.2556 -0.00142393 -8.80274e-13)
(1.25549 -0.00141712 -8.77708e-13)
(1.25539 -0.00141048 -8.75295e-13)
(1.25528 -0.00140359 -8.73022e-13)
(1.25517 -0.00139711 -8.70893e-13)
(1.25506 -0.00139017 -8.68882e-13)
(1.25495 -0.00138404 -8.66981e-13)
(1.25484 -0.00137708 -8.65177e-13)
(1.25473 -0.00137159 -8.63473e-13)
(1.25462 -0.00136463 -8.6184e-13)
(1.25451 -0.00136016 -8.60289e-13)
(1.2544 -0.00135319 -8.5877e-13)
(1.25429 -0.00135024 -8.57355e-13)
(1.25417 -0.00134331 -8.55921e-13)
(1.25406 -0.00134227 -8.54604e-13)
(1.25394 -0.00133594 -8.5319e-13)
(1.25384 -0.0013366 -8.51987e-13)
(1.2537 -0.00133172 -8.50542e-13)
(1.25361 -0.00133395 -8.49469e-13)
(1.25344 -0.00132812 -8.47871e-13)
(1.25339 -0.00133521 -8.47035e-13)
(1.25319 -0.00132671 -8.45161e-13)
(1.15451 -0.00177817 -1.15641e-12)
(1.1543 -0.00177037 -1.15316e-12)
(1.15409 -0.00176262 -1.14993e-12)
(1.15388 -0.00175492 -1.14668e-12)
(1.15368 -0.00174727 -1.14343e-12)
(1.15347 -0.00173966 -1.14018e-12)
(1.15326 -0.00173211 -1.13692e-12)
(1.15306 -0.0017246 -1.13367e-12)
(1.15285 -0.00171713 -1.1304e-12)
(1.15265 -0.00170972 -1.12713e-12)
(1.15244 -0.00170234 -1.12386e-12)
(1.15224 -0.00169502 -1.12059e-12)
(1.15204 -0.00168774 -1.11732e-12)
(1.15184 -0.0016805 -1.11404e-12)
(1.15164 -0.00167331 -1.11077e-12)
(1.15144 -0.00166616 -1.10749e-12)
(1.15124 -0.00165906 -1.10422e-12)
(1.15104 -0.001652 -1.10094e-12)
(1.15084 -0.00164498 -1.09769e-12)
(1.15065 -0.001638 -1.09443e-12)
(1.15045 -0.00163107 -1.09117e-12)
(1.15026 -0.00162418 -1.08792e-12)
(1.15006 -0.00161733 -1.08467e-12)
(1.14987 -0.00161052 -1.08143e-12)
(1.14967 -0.00160375 -1.07819e-12)
(1.14948 -0.00159702 -1.07497e-12)
(1.14929 -0.00159034 -1.07175e-12)
(1.1491 -0.00158369 -1.06854e-12)
(1.14891 -0.00157708 -1.06533e-12)
(1.14872 -0.00157051 -1.06213e-12)
(1.14853 -0.00156398 -1.05896e-12)
(1.14834 -0.00155749 -1.05578e-12)
(1.14816 -0.00155103 -1.05261e-12)
(1.14797 -0.00154462 -1.04945e-12)
(1.14778 -0.00153824 -1.04631e-12)
(1.1476 -0.0015319 -1.04317e-12)
(1.14741 -0.00152559 -1.04005e-12)
(1.14723 -0.00151933 -1.03695e-12)
(1.14705 -0.00151309 -1.03383e-12)
(1.14686 -0.0015069 -1.0307e-12)
(1.14668 -0.00150074 -1.02753e-12)
(1.1465 -0.00149462 -1.02436e-12)
(1.14632 -0.00148853 -1.02116e-12)
(1.14614 -0.00148248 -1.01794e-12)
(1.14596 -0.00147646 -1.01472e-12)
(1.14578 -0.00147047 -1.01145e-12)
(1.1456 -0.00146453 -1.00821e-12)
(1.14543 -0.00145861 -1.00496e-12)
(1.14525 -0.00145273 -1.0017e-12)
(1.14507 -0.00144688 -9.98409e-13)
(1.1449 -0.00144107 -9.95104e-13)
(1.14472 -0.00143529 -9.91743e-13)
(1.14455 -0.00142954 -9.88405e-13)
(1.14438 -0.00142383 -9.85044e-13)
(1.1442 -0.00141814 -9.81645e-13)
(1.14403 -0.00141249 -9.78234e-13)
(1.14386 -0.00140688 -9.74788e-13)
(1.14369 -0.00140129 -9.71302e-13)
(1.14352 -0.00139574 -9.67827e-13)
(1.14335 -0.00139022 -9.64364e-13)
(1.14318 -0.00138473 -9.60927e-13)
(1.14301 -0.00137927 -9.57548e-13)
(1.14284 -0.00137385 -9.54183e-13)
(1.14267 -0.00136845 -9.50895e-13)
(1.14251 -0.00136309 -9.47649e-13)
(1.14234 -0.00135776 -9.44432e-13)
(1.14218 -0.00135246 -9.41243e-13)
(1.14201 -0.00134718 -9.38091e-13)
(1.14185 -0.00134194 -9.34905e-13)
(1.14168 -0.00133673 -9.31787e-13)
(1.14152 -0.00133155 -9.28712e-13)
(1.14136 -0.00132639 -9.25661e-13)
(1.1412 -0.00132127 -9.22654e-13)
(1.14103 -0.00131617 -9.19637e-13)
(1.14087 -0.0013111 -9.16668e-13)
(1.14071 -0.00130605 -9.1371e-13)
(1.14055 -0.00130103 -9.10761e-13)
(1.14039 -0.00129603 -9.07787e-13)
(1.14023 -0.00129105 -9.04818e-13)
(1.14008 -0.00128609 -9.0182e-13)
(1.13992 -0.00128114 -8.98822e-13)
(1.13976 -0.00127621 -8.9581e-13)
(1.13961 -0.0012713 -8.92803e-13)
(1.13945 -0.00126639 -8.89794e-13)
(1.1393 -0.00126149 -8.86788e-13)
(1.13914 -0.00125659 -8.83806e-13)
(1.13899 -0.00125168 -8.8085e-13)
(1.13883 -0.00124677 -8.77895e-13)
(1.13868 -0.00124184 -8.74928e-13)
(1.13853 -0.0012369 -8.71977e-13)
(1.13838 -0.00123193 -8.68979e-13)
(1.13823 -0.00122694 -8.66016e-13)
(1.13808 -0.0012219 -8.63047e-13)
(1.13793 -0.00121683 -8.60067e-13)
(1.13778 -0.0012117 -8.5707e-13)
(1.13763 -0.00120652 -8.54054e-13)
(1.13748 -0.00120128 -8.51025e-13)
(1.13734 -0.00119597 -8.4799e-13)
(1.13719 -0.00119058 -8.44949e-13)
(1.13704 -0.00118513 -8.41913e-13)
(1.1369 -0.00117958 -8.38889e-13)
(1.13675 -0.00117396 -8.3589e-13)
(1.13661 -0.00116823 -8.32917e-13)
(1.13647 -0.00116246 -8.29974e-13)
(1.13632 -0.00115654 -8.27072e-13)
(1.13618 -0.00115066 -8.24211e-13)
(1.13604 -0.00114456 -8.2139e-13)
(1.1359 -0.00113862 -8.18621e-13)
(1.13576 -0.00113236 -8.15901e-13)
(1.13562 -0.00112648 -8.13233e-13)
(1.13547 -0.00112009 -8.10608e-13)
(1.13533 -0.00111446 -8.08046e-13)
(1.13519 -0.00110798 -8.05518e-13)
(1.13505 -0.00110286 -8.03063e-13)
(1.13491 -0.00109636 -8.0062e-13)
(1.13477 -0.00109207 -7.9828e-13)
(1.13462 -0.00108576 -7.95895e-13)
(1.13449 -0.00108257 -7.93684e-13)
(1.13433 -0.00107716 -7.91316e-13)
(1.13421 -0.00107486 -7.89279e-13)
(1.13404 -0.00107142 -7.86845e-13)
(1.13393 -0.00106994 -7.8508e-13)
(1.13373 -0.00106694 -7.82397e-13)
(1.13366 -0.0010699 -7.81136e-13)
(1.13341 -0.00106599 -7.77872e-13)
(1.02251 -0.00137392 -1.02809e-12)
(1.02227 -0.0013678 -1.0249e-12)
(1.02203 -0.00136171 -1.02169e-12)
(1.02178 -0.00135566 -1.01852e-12)
(1.02154 -0.00134966 -1.01536e-12)
(1.0213 -0.00134369 -1.01221e-12)
(1.02107 -0.00133776 -1.00907e-12)
(1.02083 -0.00133186 -1.00596e-12)
(1.02059 -0.00132601 -1.00283e-12)
(1.02036 -0.00132019 -9.99737e-13)
(1.02012 -0.00131441 -9.96642e-13)
(1.01989 -0.00130867 -9.93574e-13)
(1.01965 -0.00130296 -9.90501e-13)
(1.01942 -0.00129728 -9.87442e-13)
(1.01919 -0.00129165 -9.84383e-13)
(1.01896 -0.00128605 -9.81343e-13)
(1.01873 -0.00128048 -9.78305e-13)
(1.01851 -0.00127495 -9.753e-13)
(1.01828 -0.00126945 -9.72274e-13)
(1.01805 -0.00126399 -9.69269e-13)
(1.01783 -0.00125856 -9.66264e-13)
(1.0176 -0.00125316 -9.63278e-13)
(1.01738 -0.0012478 -9.60297e-13)
(1.01716 -0.00124247 -9.57326e-13)
(1.01693 -0.00123717 -9.54363e-13)
(1.01671 -0.0012319 -9.51416e-13)
(1.01649 -0.00122667 -9.48468e-13)
(1.01628 -0.00122147 -9.45538e-13)
(1.01606 -0.0012163 -9.42615e-13)
(1.01584 -0.00121116 -9.39689e-13)
(1.01562 -0.00120605 -9.36786e-13)
(1.01541 -0.00120097 -9.33891e-13)
(1.01519 -0.00119593 -9.31002e-13)
(1.01498 -0.00119091 -9.28123e-13)
(1.01477 -0.00118593 -9.25261e-13)
(1.01455 -0.00118097 -9.22392e-13)
(1.01434 -0.00117604 -9.19547e-13)
(1.01413 -0.00117114 -9.16708e-13)
(1.01392 -0.00116628 -9.13889e-13)
(1.01371 -0.00116144 -9.11054e-13)
(1.01351 -0.00115663 -9.08246e-13)
(1.0133 -0.00115184 -9.05435e-13)
(1.01309 -0.00114709 -9.02641e-13)
(1.01289 -0.00114236 -8.99827e-13)
(1.01268 -0.00113766 -8.97024e-13)
(1.01248 -0.00113299 -8.94208e-13)
(1.01228 -0.00112835 -8.9142e-13)
(1.01207 -0.00112373 -8.88614e-13)
(1.01187 -0.00111914 -8.85835e-13)
(1.01167 -0.00111458 -8.83032e-13)
(1.01147 -0.00111004 -8.80233e-13)
(1.01127 -0.00110553 -8.77439e-13)
(1.01107 -0.00110105 -8.74643e-13)
(1.01088 -0.00109659 -8.71848e-13)
(1.01068 -0.00109216 -8.69036e-13)
(1.01048 -0.00108776 -8.66232e-13)
(1.01029 -0.00108338 -8.63422e-13)
(1.01009 -0.00107903 -8.60604e-13)
(1.0099 -0.0010747 -8.57787e-13)
(1.0097 -0.0010704 -8.54953e-13)
(1.00951 -0.00106612 -8.52124e-13)
(1.00932 -0.00106187 -8.4929e-13)
(1.00913 -0.00105764 -8.46467e-13)
(1.00894 -0.00105344 -8.43638e-13)
(1.00875 -0.00104927 -8.40817e-13)
(1.00856 -0.00104512 -8.3801e-13)
(1.00837 -0.00104099 -8.35217e-13)
(1.00819 -0.00103689 -8.32429e-13)
(1.008 -0.00103282 -8.29665e-13)
(1.00781 -0.00102877 -8.26893e-13)
(1.00763 -0.00102474 -8.24139e-13)
(1.00744 -0.00102074 -8.21404e-13)
(1.00726 -0.00101676 -8.18685e-13)
(1.00708 -0.00101281 -8.15965e-13)
(1.00689 -0.00100888 -8.1328e-13)
(1.00671 -0.00100497 -8.10586e-13)
(1.00653 -0.00100108 -8.07911e-13)
(1.00635 -0.000997218 -8.05251e-13)
(1.00617 -0.000993374 -8.02601e-13)
(1.00599 -0.000989548 -7.99964e-13)
(1.00581 -0.000985739 -7.97338e-13)
(1.00563 -0.000981947 -7.94706e-13)
(1.00546 -0.000978168 -7.92094e-13)
(1.00528 -0.000974401 -7.89472e-13)
(1.00511 -0.000970643 -7.86855e-13)
(1.00493 -0.000966891 -7.84251e-13)
(1.00476 -0.000963142 -7.81657e-13)
(1.00458 -0.000959391 -7.79063e-13)
(1.00441 -0.000955635 -7.76485e-13)
(1.00424 -0.000951869 -7.73909e-13)
(1.00407 -0.000948088 -7.71331e-13)
(1.0039 -0.000944286 -7.68769e-13)
(1.00373 -0.000940457 -7.66197e-13)
(1.00356 -0.000936594 -7.63636e-13)
(1.00339 -0.000932691 -7.61089e-13)
(1.00322 -0.000928741 -7.58536e-13)
(1.00305 -0.000924735 -7.55985e-13)
(1.00289 -0.000920668 -7.5343e-13)
(1.00272 -0.000916529 -7.50888e-13)
(1.00256 -0.000912316 -7.48331e-13)
(1.00239 -0.000908013 -7.45777e-13)
(1.00223 -0.000903628 -7.43236e-13)
(1.00207 -0.000899131 -7.40697e-13)
(1.00191 -0.000894556 -7.38153e-13)
(1.00175 -0.000889842 -7.35631e-13)
(1.00159 -0.000885072 -7.33099e-13)
(1.00143 -0.000880126 -7.30592e-13)
(1.00127 -0.000875176 -7.2809e-13)
(1.00111 -0.000870001 -7.25596e-13)
(1.00095 -0.000864914 -7.23128e-13)
(1.0008 -0.000859537 -7.20668e-13)
(1.00064 -0.000854394 -7.1823e-13)
(1.00049 -0.000848879 -7.158e-13)
(1.00033 -0.000843804 -7.13407e-13)
(1.00018 -0.000838276 -7.11002e-13)
(1.00002 -0.000833442 -7.08662e-13)
(0.999865 -0.000828182 -7.06279e-13)
(0.999716 -0.000823751 -7.04016e-13)
(0.999552 -0.000819483 -7.01612e-13)
(0.999411 -0.000815374 -6.99483e-13)
(0.999235 -0.000813157 -6.96976e-13)
(0.999112 -0.000809505 -6.95095e-13)
(0.998909 -0.00080896 -6.92301e-13)
(0.998824 -0.000808597 -6.90948e-13)
(0.998562 -0.000809221 -6.87453e-13)
(0.873053 -0.000979606 -8.64839e-13)
(0.872803 -0.00097519 -8.61938e-13)
(0.872555 -0.000970803 -8.59022e-13)
(0.872308 -0.000966445 -8.56141e-13)
(0.872061 -0.000962115 -8.53254e-13)
(0.871816 -0.000957813 -8.50404e-13)
(0.871572 -0.00095354 -8.47563e-13)
(0.871329 -0.000949294 -8.44771e-13)
(0.871087 -0.000945075 -8.4193e-13)
(0.870846 -0.000940884 -8.39165e-13)
(0.870606 -0.00093672 -8.36382e-13)
(0.870367 -0.000932582 -8.33657e-13)
(0.870129 -0.000928471 -8.3088e-13)
(0.869892 -0.000924387 -8.28188e-13)
(0.869657 -0.000920328 -8.25469e-13)
(0.869422 -0.000916295 -8.22789e-13)
(0.869188 -0.000912288 -8.20073e-13)
(0.868955 -0.000908306 -8.17425e-13)
(0.868723 -0.000904349 -8.14771e-13)
(0.868492 -0.000900417 -8.12117e-13)
(0.868262 -0.00089651 -8.09473e-13)
(0.868033 -0.000892627 -8.06881e-13)
(0.867805 -0.000888769 -8.04273e-13)
(0.867578 -0.000884934 -8.01692e-13)
(0.867352 -0.000881123 -7.99094e-13)
(0.867127 -0.000877336 -7.96518e-13)
(0.866903 -0.000873573 -7.93959e-13)
(0.86668 -0.000869832 -7.91434e-13)
(0.866457 -0.000866115 -7.8886e-13)
(0.866236 -0.00086242 -7.86349e-13)
(0.866016 -0.000858749 -7.83839e-13)
(0.865796 -0.000855099 -7.81336e-13)
(0.865577 -0.000851472 -7.78837e-13)
(0.86536 -0.000847867 -7.76353e-13)
(0.865143 -0.000844283 -7.73878e-13)
(0.864927 -0.000840722 -7.71414e-13)
(0.864712 -0.000837182 -7.68957e-13)
(0.864497 -0.000833663 -7.66509e-13)
(0.864284 -0.000830166 -7.64083e-13)
(0.864072 -0.000826689 -7.61664e-13)
(0.86386 -0.000823233 -7.59252e-13)
(0.863649 -0.000819798 -7.56844e-13)
(0.863439 -0.000816384 -7.54457e-13)
(0.86323 -0.00081299 -7.52054e-13)
(0.863022 -0.000809616 -7.49679e-13)
(0.862815 -0.000806262 -7.47299e-13)
(0.862608 -0.000802928 -7.44937e-13)
(0.862403 -0.000799614 -7.42579e-13)
(0.862198 -0.00079632 -7.40241e-13)
(0.861994 -0.000793045 -7.3789e-13)
(0.861791 -0.000789789 -7.35534e-13)
(0.861588 -0.000786553 -7.33206e-13)
(0.861387 -0.000783336 -7.30876e-13)
(0.861186 -0.000780138 -7.28562e-13)
(0.860986 -0.000776959 -7.2624e-13)
(0.860787 -0.000773798 -7.23927e-13)
(0.860589 -0.000770657 -7.21611e-13)
(0.860391 -0.000767534 -7.19314e-13)
(0.860194 -0.000764431 -7.17012e-13)
(0.859998 -0.000761345 -7.14705e-13)
(0.859803 -0.000758279 -7.12407e-13)
(0.859608 -0.000755231 -7.10094e-13)
(0.859415 -0.000752201 -7.07811e-13)
(0.859222 -0.000749191 -7.05517e-13)
(0.85903 -0.000746199 -7.0322e-13)
(0.858838 -0.000743225 -7.00926e-13)
(0.858647 -0.00074027 -6.98644e-13)
(0.858457 -0.000737334 -6.96359e-13)
(0.858268 -0.000734416 -6.94097e-13)
(0.85808 -0.000731518 -6.91818e-13)
(0.857892 -0.000728638 -6.89555e-13)
(0.857705 -0.000725776 -6.87291e-13)
(0.857519 -0.000722934 -6.8504e-13)
(0.857333 -0.00072011 -6.8279e-13)
(0.857148 -0.000717305 -6.80561e-13)
(0.856964 -0.000714518 -6.78317e-13)
(0.85678 -0.000711749 -6.76091e-13)
(0.856598 -0.000708998 -6.7387e-13)
(0.856416 -0.000706265 -6.71663e-13)
(0.856234 -0.000703548 -6.6946e-13)
(0.856054 -0.000700847 -6.67266e-13)
(0.855874 -0.000698162 -6.65074e-13)
(0.855694 -0.000695491 -6.62898e-13)
(0.855516 -0.000692833 -6.60719e-13)
(0.855338 -0.000690187 -6.58541e-13)
(0.855161 -0.000687549 -6.5638e-13)
(0.854985 -0.000684919 -6.54223e-13)
(0.854809 -0.000682294 -6.52062e-13)
(0.854634 -0.00067967 -6.49929e-13)
(0.85446 -0.000677045 -6.47785e-13)
(0.854286 -0.000674414 -6.45645e-13)
(0.854113 -0.000671773 -6.43522e-13)
(0.853941 -0.000669118 -6.41404e-13)
(0.85377 -0.000666443 -6.39279e-13)
(0.853599 -0.000663742 -6.37166e-13)
(0.853429 -0.000661009 -6.35055e-13)
(0.85326 -0.000658237 -6.32968e-13)
(0.853092 -0.00065542 -6.30861e-13)
(0.852925 -0.000652549 -6.28768e-13)
(0.852758 -0.000649617 -6.26683e-13)
(0.852593 -0.000646614 -6.24599e-13)
(0.852428 -0.000643537 -6.22506e-13)
(0.852264 -0.000640369 -6.20431e-13)
(0.8521 -0.000637118 -6.18353e-13)
(0.851938 -0.000633753 -6.16294e-13)
(0.851777 -0.000630301 -6.14217e-13)
(0.851616 -0.000626713 -6.12154e-13)
(0.851457 -0.000623045 -6.10101e-13)
(0.851298 -0.000619221 -6.08049e-13)
(0.85114 -0.00061533 -6.05991e-13)
(0.850983 -0.000611284 -6.03944e-13)
(0.850827 -0.000607183 -6.0191e-13)
(0.850671 -0.000602974 -5.99882e-13)
(0.850517 -0.00059869 -5.97863e-13)
(0.850363 -0.000594461 -5.95831e-13)
(0.850211 -0.000590037 -5.93834e-13)
(0.850056 -0.000586109 -5.91818e-13)
(0.849908 -0.000581587 -5.89858e-13)
(0.84975 -0.000578643 -5.87808e-13)
(0.84961 -0.000574012 -5.85938e-13)
(0.849442 -0.000573056 -5.83809e-13)
(0.849318 -0.000568574 -5.82091e-13)
(0.849128 -0.000570228 -5.79722e-13)
(0.849039 -0.000567737 -5.78464e-13)
(0.848792 -0.000572162 -5.75413e-13)
(0.706639 -0.000623085 -6.78069e-13)
(0.706409 -0.000620257 -6.75648e-13)
(0.70618 -0.000617448 -6.73252e-13)
(0.705952 -0.000614658 -6.70884e-13)
(0.705726 -0.000611886 -6.68504e-13)
(0.7055 -0.000609132 -6.66157e-13)
(0.705275 -0.000606397 -6.63818e-13)
(0.705051 -0.000603679 -6.61499e-13)
(0.704829 -0.000600979 -6.59192e-13)
(0.704607 -0.000598297 -6.56916e-13)
(0.704386 -0.000595632 -6.54642e-13)
(0.704166 -0.000592984 -6.52395e-13)
(0.703948 -0.000590354 -6.50144e-13)
(0.70373 -0.00058774 -6.47928e-13)
(0.703513 -0.000585143 -6.45716e-13)
(0.703297 -0.000582563 -6.43519e-13)
(0.703082 -0.00058 -6.41334e-13)
(0.702868 -0.000577453 -6.39153e-13)
(0.702655 -0.000574922 -6.37006e-13)
(0.702442 -0.000572407 -6.34854e-13)
(0.702231 -0.000569908 -6.32727e-13)
(0.702021 -0.000567425 -6.30604e-13)
(0.701811 -0.000564958 -6.28493e-13)
(0.701603 -0.000562506 -6.26398e-13)
(0.701395 -0.000560069 -6.24308e-13)
(0.701188 -0.000557648 -6.22235e-13)
(0.700982 -0.000555242 -6.20174e-13)
(0.700777 -0.000552851 -6.18116e-13)
(0.700573 -0.000550474 -6.16078e-13)
(0.700369 -0.000548113 -6.14053e-13)
(0.700167 -0.000545766 -6.12026e-13)
(0.699965 -0.000543433 -6.10021e-13)
(0.699765 -0.000541115 -6.08016e-13)
(0.699565 -0.000538811 -6.06021e-13)
(0.699366 -0.000536521 -6.04041e-13)
(0.699167 -0.000534246 -6.02076e-13)
(0.69897 -0.000531984 -6.00105e-13)
(0.698773 -0.000529735 -5.98162e-13)
(0.698578 -0.000527501 -5.96213e-13)
(0.698383 -0.00052528 -5.94289e-13)
(0.698189 -0.000523072 -5.92364e-13)
(0.697995 -0.000520878 -5.90443e-13)
(0.697803 -0.000518697 -5.88538e-13)
(0.697611 -0.000516529 -5.86639e-13)
(0.69742 -0.000514374 -5.84755e-13)
(0.69723 -0.000512232 -5.8286e-13)
(0.697041 -0.000510102 -5.80991e-13)
(0.696852 -0.000507986 -5.79126e-13)
(0.696664 -0.000505882 -5.77266e-13)
(0.696477 -0.000503791 -5.75409e-13)
(0.696291 -0.000501712 -5.73566e-13)
(0.696105 -0.000499645 -5.71728e-13)
(0.695921 -0.000497591 -5.69888e-13)
(0.695737 -0.000495549 -5.68077e-13)
(0.695553 -0.000493519 -5.66251e-13)
(0.695371 -0.000491502 -5.64445e-13)
(0.695189 -0.000489496 -5.62642e-13)
(0.695008 -0.000487503 -5.60844e-13)
(0.694828 -0.000485521 -5.5905e-13)
(0.694648 -0.000483552 -5.57262e-13)
(0.694469 -0.000481594 -5.55474e-13)
(0.694291 -0.000479649 -5.53675e-13)
(0.694114 -0.000477716 -5.51901e-13)
(0.693937 -0.000475794 -5.5012e-13)
(0.693761 -0.000473885 -5.48352e-13)
(0.693586 -0.000471988 -5.46591e-13)
(0.693411 -0.000470103 -5.44829e-13)
(0.693237 -0.00046823 -5.4307e-13)
(0.693064 -0.00046637 -5.41313e-13)
(0.692891 -0.000464522 -5.39565e-13)
(0.692719 -0.000462687 -5.37817e-13)
(0.692548 -0.000460864 -5.36067e-13)
(0.692378 -0.000459054 -5.34329e-13)
(0.692208 -0.000457258 -5.3259e-13)
(0.692039 -0.000455474 -5.30862e-13)
(0.69187 -0.000453703 -5.29128e-13)