/*--------------------------------*- C++ -*----------------------------------*\
| =========                 |                                                 |
| \\      /  F ield         | OpenFOAM: The Open Source CFD Toolbox           |
|  \\    /   O peration     | Version:                                        |
|   \\  /    A nd           | Website:  www.openfoam.com                      |
|    \\/     M anipulation  |                                                 |
\*---------------------------------------------------------------------------*/
FoamFile
{
    version     2.0;
    format      ascii;
    class       surfaceScalarField;
    location    "92";
    object      phi;
}
// * * * * * * * * * * * * * * * * * * * * * * * * * * * * * * * * * * * * * //

dimensions      [0 3 -1 0 0 0 0];
oriented        oriented;


internalField   nonuniform List<scalar> 
2194
(
0.0394515
0.0248466
0.0406617
0.0277293
-0.0303461
0.0415529
0.029455
0.0375105
-0.0316867
0.0422637
0.0309759
0.038155
-0.0329433
0.0428034
0.0324036
-0.0334533
0.038665
0.0347848
-0.0340861
0.0431394
0.0337502
-0.0345212
0.0391001
0.0352357
-0.0351335
0.0434791
0.0347938
-0.0356027
0.0395693
0.0356327
-0.0362983
0.0436697
0.0361077
-0.036436
0.039707
-0.036958
0.0361547
0.0322296
-0.0366953
0.0435271
0.0368379
-0.0371601
0.0401718
-0.0379405
0.0369351
0.0325181
-0.037686
0.0385242
0.0426888
-0.0386068
0.0410926
-0.038777
0.0371052
0.0332693
-0.0111319
0.0146208
-0.0133267
0.0161158
-0.00999074
0.0168321
-0.00484604
0.016417
0.00130154
0.00607232
0.0187277
-0.0149471
0.0196402
-0.0109032
0.0196734
-0.00487929
0.0185772
0.00239779
0.0172899
0.0073596
0.0124558
0.0224877
-0.0160151
0.0228172
-0.0112327
0.021596
-0.00365809
0.0197381
0.00425564
0.0171613
0.00993645
0.0148635
0.0147536
0.0162379
0.0259598
-0.0164849
0.0248515
-0.0101244
0.0224954
-0.00130207
0.0201258
0.00662531
0.016642
0.0134202
0.0138598
0.0175358
0.0103307
0.0197671
0.0158205
0.0281775
-0.0155722
0.0256959
-0.0076428
0.0225297
0.00186412
0.0185269
0.0106281
0.0145347
0.0174125
0.0110344
0.0210361
0.00750964
0.0232918
0.00582714
0.017503
0.0148615
0.0289891
-0.0131537
0.0252961
-0.00394981
0.0205723
0.00658791
0.015499
0.0157013
0.0115516
0.0213599
0.00700822
0.0255795
0.00433151
0.0259686
0.000570091
0.0212644
-0.0091746
0.0246062
0.0331817
0.0282555
-0.00918588
0.0230706
0.00123504
0.017414
0.0122445
0.012503
0.0206124
0.00751705
0.0263458
0.00294279
0.0301537
0.000378592
0.0285328
-0.00648951
0.0281326
-0.0174276
0.0355443
0.0406007
0.0257002
-0.0038547
0.0201002
0.00683497
0.0143387
0.018006
0.00833708
0.026614
0.00246725
0.0322156
-0.00095414
0.0335751
-0.0054219
0.0330005
-0.0153031
0.0380137
-0.024237
0.0444783
0.044093
0.0203675
0.00329463
0.0135569
0.0136456
0.00716176
0.0244012
0.00144493
0.0323308
-0.0024879
0.0361485
-0.0059611
0.0370483
-0.0139756
0.041015
-0.0235563
0.0475944
-0.0283914
0.0493134
0.0451565
0.0142094
0.0113369
0.00669309
0.021162
0.000828233
0.030266
-0.00341357
0.0365726
-0.0070971
0.039832
-0.0140214
0.0439726
-0.0233891
0.0503828
-0.0293523
0.0535576
-0.0306173
0.0505784
0.0455151
0.00666854
0.0192452
7.61509e-05
0.0277544
-0.00478278
0.0351249
-0.0090651
0.0408549
-0.015413
0.0461799
-0.0239903
0.0525499
-0.0303946
0.056787
-0.0321856
0.0553485
-0.0321295
0.0505224
0.0457892
0.00185895
0.0261139
-0.00430495
0.0339183
-0.0101376
0.0409576
-0.0170757
0.047793
-0.0252205
0.0543246
-0.031758
0.0590875
-0.034141
0.05917
-0.0339517
0.0551592
-0.0336996
0.0502703
0.0458398
-0.00707515
0.0324882
-0.0138526
0.0406957
-0.0211436
0.0482486
-0.0284466
0.055096
-0.0342217
0.0600997
-0.0365235
0.0613893
-0.0360517
0.0586981
-0.0352083
0.0543158
-0.0348096
0.0498716
0.045824
-0.0180944
0.0387516
-0.0248608
0.0474621
-0.0313623
0.0547501
-0.0362137
0.0599474
-0.0382556
0.0621416
-0.0377554
0.0608892
-0.0367258
0.0576686
-0.0362897
0.0538796
-0.0362395
0.0498215
0.0456921
-0.0304084
0.0452054
-0.0359769
0.0530307
-0.0398736
0.0586468
-0.0413417
0.0614155
-0.0407772
0.0615772
-0.0393948
0.0595067
-0.0383291
0.0566029
-0.0376113
0.0531618
-0.0373307
0.0495409
0.0451993
-0.0385747
0.0499205
-0.0415814
0.0560373
-0.0426684
0.0597338
-0.0420242
0.0607712
-0.0404977
0.0600507
-0.0389358
0.0579448
-0.0380118
0.0556789
-0.0375238
0.0526738
-0.0378059
0.049823
0.0459176
-0.0528521
0.049186
-0.0495096
0.0526949
-0.044366
0.0545901
-0.0382939
0.0546992
-0.0323313
0.0540881
-0.0271267
0.0527402
-0.0227022
0.0512544
-0.0187568
0.0487284
-0.0156561
0.0467224
0.0433926
-0.0131311
-0.0545375
0.0482401
-0.0509872
0.0491445
-0.0460802
0.0496832
-0.0403977
0.0490166
-0.0347295
0.0484199
-0.0298823
0.047893
-0.0257455
0.0471176
-0.0218118
0.0447947
-0.0181582
0.0430688
0.0403303
-0.0150959
-0.0540323
0.0467797
-0.0506157
0.045728
-0.0460505
0.045118
-0.0414113
0.0443774
-0.0367268
0.0437354
-0.031752
0.0429183
-0.0272087
0.0425743
-0.0232268
0.0408128
-0.0197102
0.0395522
0.0373752
-0.0167551
-0.0542987
0.0453265
-0.05126
0.0426892
-0.0464514
0.0403094
-0.0419457
0.0398717
-0.0375845
0.0393742
-0.0331846
0.0385183
-0.0289016
0.0382913
-0.025059
0.0369702
-0.0214778
0.0359709
0.0346047
-0.0187072
-0.0543271
0.0438556
-0.0515933
0.0399555
-0.0474395
0.0361556
-0.0434418
0.035874
-0.0385417
0.0344741
-0.0339456
0.0339223
-0.0296702
0.0340159
-0.0262805
0.0335804
-0.0231385
0.0328289
0.0318333
-0.0203671
-0.0571179
0.0415801
-0.0534296
0.0362671
-0.0487044
0.0314304
-0.0441452
0.0313147
-0.0395269
0.0298558
-0.035295
0.0296904
-0.0311948
0.0299157
-0.0276075
0.0299931
-0.0247601
0.0299815
0.0293717
-0.0222984
-0.0619613
0.0381113
-0.0570081
0.031314
-0.0510671
0.0254894
-0.0443366
0.0245842
-0.0388378
0.024357
-0.034559
0.0254116
-0.0312688
0.0266255
-0.0282187
0.026943
-0.025432
0.0271948
0.0271264
-0.0231867
-0.0661748
0.0338231
-0.0607484
0.0258876
-0.0551235
0.0198646
-0.0478892
0.0173498
-0.0407235
0.0171914
-0.0345905
0.0192786
-0.0304882
0.0225233
-0.028244
0.0246988
-0.0261707
0.0251215
0.0246638
-0.0237081
-0.0583427
0.0289436
-0.0531336
0.0206785
-0.0487716
0.0155025
-0.0445133
0.0130915
-0.0402365
0.0129146
-0.0351821
0.0142242
-0.0296959
0.0170371
-0.0261092
0.021112
-0.0247132
0.0237256
0.0236969
-0.0237464
-0.0387544
0.0249948
-0.0359796
0.0179036
-0.0343151
0.013838
-0.0335594
0.0123359
-0.0329774
0.0123325
-0.0318993
0.0131461
-0.0292473
0.0143851
-0.0252915
0.0171563
-0.0223292
0.0207633
0.0223221
-0.0209544
-0.00738437
0.023588
-0.00754129
0.0180606
-0.00910158
0.0153983
-0.0119943
0.0152285
-0.0154315
0.0157698
-0.0187911
0.0165056
-0.0216159
0.0172098
-0.0219547
0.0174951
-0.0205334
0.019342
0.0208569
-0.0190682
0.0237186
0.025254
0.0196512
0.022128
0.0144227
0.0206268
0.00863044
0.0210208
0.00220254
0.0221977
-0.0039878
0.022696
-0.00965769
0.0228797
-0.0138308
0.0216682
-0.0156797
0.021191
0.0211277
-0.0159505
0.0513675
0.0288848
0.045107
0.0283886
0.0369217
0.0288121
0.0280026
0.0299398
0.0197596
0.0304408
0.0121878
0.0302677
0.00516972
0.0298978
-0.00161553
0.0284534
-0.0073337
0.0269091
0.0245321
-0.0107381
0.0643037
0.0345085
0.0573342
0.035358
0.0496062
0.0365402
0.0415129
0.0380331
0.0330863
0.0388674
0.0247112
0.0386428
0.0178947
0.0367143
0.0116126
0.0347356
0.00496733
0.0335543
0.0301836
-0.000684206
0.0706262
0.0389858
0.0646348
0.0413495
0.057143
0.044032
0.0496142
0.0455618
0.0420941
0.0463876
0.0349141
0.0458227
0.0279135
0.043715
0.0221181
0.040531
0.0171886
0.0384839
0.035077
0.0122952
0.0727663
0.0413799
0.0697298
0.0443859
0.064445
0.0493167
0.0572898
0.0527171
0.0493682
0.0543092
0.0416709
0.0535199
0.0337861
0.0515998
0.0278194
0.0464977
0.0238101
0.0424932
0.0382367
0.0206504
0.0760319
0.0417179
0.0739186
0.0464992
0.0701969
0.0530384
0.0647013
0.0582128
0.056954
0.0620564
0.0478949
0.0625791
0.0389806
0.0605142
0.0306496
0.0548286
0.024781
0.0483618
0.041878
0.0211397
0.084396
0.0395081
0.0840744
0.0468209
0.0820644
0.0550484
0.0771187
0.0631584
0.0693844
0.0697907
0.059658
0.0723055
0.0487788
0.0713934
0.0367532
0.0668542
0.0266893
0.0584257
0.0487124
0.0198548
0.0868453
0.0354021
0.0899211
0.0437451
0.0908716
0.0540979
0.0885057
0.0655243
0.0831481
0.0751484
0.0741923
0.0812612
0.0626014
0.0829844
0.0494582
0.0799973
0.0353065
0.0725774
0.0603422
0.0236767
0.0824441
0.0857974
0.0877414
0.0887525
0.0874285
0.0833666
0.0764878
0.0898632
0.0666378
0.0898473
0.0528465
0.0863687
0.0749874
0.0382012
0.0712642
0.0702364
0.0651044
0.0562973
-0.0109863
0.0604758
-0.0626206
-0.00922318
0.0629827
-0.0647458
-0.00811733
0.0658316
-0.0669374
-0.00715281
0.0689241
-0.0698886
-0.00612829
0.0721575
-0.073182
-0.00526865
0.0757598
-0.0766194
-0.0045081
0.0797982
-0.0805588
-0.00373229
0.0841646
-0.0849404
-0.00302972
0.0888768
-0.0895793
-0.00247454
0.0940079
-0.0945631
-0.00200077
0.0995345
-0.100008
-0.00156263
0.105503
-0.105941
-0.00119457
0.112042
-0.112411
-0.000887684
0.119177
-0.119484
-0.000637057
0.12685
-0.127101
-0.000418048
0.13513
-0.135349
-0.000242987
0.144098
-0.144273
-0.000105101
0.153823
-0.153961
2.13726e-06
0.164171
-0.164278
6.91287e-05
0.175271
-0.175338
0.000114671
0.187168
-0.187213
0.000143076
0.199851
-0.199879
0.000148395
0.213444
-0.213449
0.000146084
0.227984
-0.227982
0.00013235
0.243534
-0.24352
0.000110501
0.260194
-0.260172
8.66492e-05
0.278019
-0.277995
5.75099e-05
0.297115
-0.297086
3.05738e-05
0.317619
-0.317592
0.339557
-0.339526
-0.0133922
0.0587721
-0.0114812
0.0610717
-0.00993302
0.0642834
-0.00852776
0.0675188
-0.00713424
0.0707639
-0.00592329
0.0745488
-0.00483978
0.0787147
-0.00386264
0.0831875
-0.00306715
0.0880813
-0.00242245
0.0933632
-0.0018905
0.0990026
-0.00145686
0.105069
-0.00111629
0.111702
-0.000846531
0.118907
-0.000627958
0.126632
-0.000432234
0.134934
-0.000277551
0.143943
-0.000131636
0.153677
-1.66726e-05
0.164056
5.58868e-05
0.175198
0.000109743
0.187114
0.00013529
0.199825
0.00014201
0.213437
0.00014234
0.227984
0.000131423
0.243545
0.000112262
0.260213
8.88574e-05
0.278043
5.89057e-05
0.297145
3.09044e-05
0.317647
0.339587
-0.014849
0.056866
-0.0130473
0.05927
-0.0113832
0.0626193
-0.00977396
0.0659096
-0.00848889
0.0694789
-0.00730797
0.0733679
-0.00612083
0.0775276
-0.00501338
0.08208
-0.00404033
0.0871082
-0.00321793
0.0925408
-0.00253471
0.0983194
-0.00195166
0.104486
-0.00148661
0.111237
-0.00107947
0.1185
-0.00076391
0.126316
-0.000513136
0.134683
-0.000323291
0.143753
-0.000147216
0.153501
-3.16928e-05
0.16394
4.12205e-05
0.175125
9.70796e-05
0.187058
0.000126219
0.199796
0.000140111
0.213423
0.000140631
0.227983
0.000127984
0.243557
0.000108946
0.260232
8.63732e-05
0.278065
5.82861e-05
0.297173
3.09597e-05
0.317675
0.339618
-0.0168898
0.0550486
-0.0147777
0.0571579
-0.0128751
0.0607167
-0.0109575
0.063992
-0.00915438
0.0676758
-0.00751644
0.07173
-0.00608055
0.0760917
-0.00487527
0.0808748
-0.00386668
0.0860996
-0.00303174
0.0917059
-0.00233383
0.0976215
-0.00180431
0.103956
-0.00137046
0.110803
-0.00101628
0.118146
-0.000736809
0.126037
-0.000533632
0.13448
-0.000355033
0.143575
-0.00019022
0.153336
-7.89069e-05
0.163829
1.11137e-05
0.175035
7.26227e-05
0.186996
0.000104996
0.199764
0.000123441
0.213405
0.000128697
0.227978
0.000122204
0.243564
0.000107893
0.260247
8.55852e-05
0.278087
5.78729e-05
0.297201
3.04008e-05
0.317702
0.339649
-0.0184262
0.0531077
-0.0160612
0.0547929
-0.0141688
0.0588243
-0.0124034
0.0622266
-0.0108137
0.0660861
-0.00923261
0.0701488
-0.00768866
0.0745477
-0.00623678
0.0794229
-0.00496437
0.0848272
-0.003875
0.0906165
-0.00298149
0.0967279
-0.00226485
0.10324
-0.0016709
0.110209
-0.00119997
0.117675
-0.000850726
0.125688
-0.000594434
0.134224
-0.000364165
0.143345
-0.000194845
0.153167
-7.55734e-05
0.16371
1.06549e-05
0.174949
6.79916e-05
0.186939
0.000103868
0.199728
0.000123073
0.213386
0.000125737
0.227975
0.000116566
0.243573
0.000101969
0.260261
8.10408e-05
0.278108
5.62089e-05
0.297225
3.01092e-05
0.317728
0.339679
-0.0197416
0.0505509
-0.0168069
0.0518582
-0.0147201
0.0567375
-0.0123764
0.0598828
-0.0102559
0.0639657
-0.00842223
0.0683152
-0.0068837
0.0730092
-0.0055879
0.0781271
-0.00444833
0.0836877
-0.00346872
0.0896369
-0.00266269
0.0959219
-0.00204351
0.102621
-0.00152456
0.10969
-0.00111713
0.117268
-0.000814308
0.125385
-0.000580255
0.13399
-0.000392133
0.143156
-0.000256198
0.153031
-0.000133839
0.163587
-3.93738e-05
0.174854
2.55732e-05
0.186874
6.82942e-05
0.199685
9.40042e-05
0.21336
0.000105893
0.227963
0.000106387
0.243572
9.73589e-05
0.26027
7.78857e-05
0.278128
5.37721e-05
0.297249
2.84363e-05
0.317754
0.339707
-0.0207005
0.0480647
-0.0180357
0.0491933
-0.0160463
0.0547482
-0.0139979
0.0578344
-0.0121047
0.0620725
-0.0102877
0.0664981
-0.00847959
0.0712011
-0.00681316
0.0764607
-0.00536561
0.0822401
-0.0041257
0.088397
-0.00311734
0.0949136
-0.00229061
0.101794
-0.00165239
0.109052
-0.00118218
0.116797
-0.00084421
0.125047
-0.000574697
0.13372
-0.000373106
0.142955
-0.000218958
0.152877
-9.62333e-05
0.163465
-1.57535e-05
0.174774
4.17378e-05
0.186817
8.05166e-05
0.199646
0.000101427
0.213339
0.000106393
0.227958
0.000101532
0.243577
9.07829e-05
0.260281
7.34562e-05
0.278145
5.22814e-05
0.297271
2.82761e-05
0.317778
0.339736
-0.0204608
0.0448173
-0.0175078
0.0462404
-0.0148587
0.052099
-0.012176
0.0551517
-0.0101651
0.0600616
-0.00842021
0.0647532
-0.00699923
0.0697802
-0.00579795
0.0752594
-0.0046847
0.0811269
-0.00368258
0.0873949
-0.00284137
0.0940723
-0.00215965
0.101112
-0.00160308
0.108495
-0.00115982
0.116354
-0.000817035
0.124704
-0.000564273
0.133468
-0.000411432
0.142802
-0.000280272
0.152746
-0.00017164
0.163356
-8.47423e-05
0.174687
-1.6249e-05
0.186748
3.06794e-05
0.199599
6.28566e-05
0.213307
8.19018e-05
0.227939
8.91902e-05
0.24357
8.43671e-05
0.260286
6.90851e-05
0.27816
4.85465e-05
0.297291
2.58718e-05
0.3178
0.339762
-0.0214852
0.0425562
-0.0185878
0.043343
-0.0165684
0.0500796
-0.0141748
0.0527582
-0.0119801
0.0578669
-0.00979072
0.0625638
-0.00788785
0.0678773
-0.00624519
0.0736167
-0.00486796
0.0797496
-0.00371842
0.0862453
-0.00274518
0.0930991
-0.0019628
0.10033
-0.00138451
0.107917
-0.000988623
0.115958
-0.000688918
0.124404
-0.000486053
0.133265
-0.000326241
0.142642
-0.000193458
0.152613
-9.71301e-05
0.16326
-2.67773e-05
0.174617
2.63505e-05
0.186695
6.30438e-05
0.199563
8.31457e-05
0.213287
8.93809e-05
0.227933
8.7318e-05
0.243572
7.93925e-05
0.260294
6.63577e-05
0.278173
4.82372e-05
0.297309
2.64068e-05
0.317822
0.339788
-0.0185987
0.0402004
-0.0156415
0.0403858
-0.0130651
0.0475031
-0.0107748
0.0504679
-0.00897618
0.0560682
-0.00761594
0.0612036
-0.00651195
0.0667733
-0.00549811
0.0726029
-0.00454922
0.0788007
-0.00364203
0.0853381
-0.00286659
0.0923237
-0.00219351
0.0996568
-0.00163824
0.107362
-0.00115547
0.115475
-0.000783916
0.124033
-0.000541244
0.133022
-0.000391933
0.142493
-0.00028137
0.152502
-0.00019442
0.163173
-0.000114224
0.174537
-5.01583e-05
0.186631
-2.35312e-06
0.199515
3.45651e-05
0.21325
6.03053e-05
0.227907
7.25314e-05
0.24356
7.14389e-05
0.260295
6.02651e-05
0.278185
4.2754e-05
0.297327
2.31465e-05
0.317842
0.339811
-0.0164372
0.0375694
-0.0146674
0.038616
-0.0124092
0.0452449
-0.0109541
0.0490128
-0.00891571
0.0540298
-0.00693772
0.0592256
-0.00528849
0.0651241
-0.00406757
0.071382
-0.00313712
0.0778703
-0.00240467
0.0846057
-0.00174453
0.0916635
-0.00121917
0.0991314
-0.000839747
0.106982
-0.000604494
0.11524
-0.000435532
0.123864
-0.000323417
0.13291
-0.00021799
0.142388
-0.000139857
0.152424
-7.52345e-05
0.163108
-2.27926e-05
0.174484
1.94003e-05
0.186589
5.04797e-05
0.199484
6.71422e-05
0.213233
7.36411e-05
0.227901
7.23969e-05
0.243561
6.80955e-05
0.260299
5.89519e-05
0.278194
4.35261e-05
0.297342
2.42281e-05
0.317861
0.339835
-0.0131936
0.0348125
-0.011633
0.0370554
-0.0089369
0.0425488
-0.00759838
0.0476743
-0.00647675
0.0529082
-0.00581013
0.058559
-0.00517027
0.0644842
-0.00450282
0.0707145
-0.00384547
0.0772129
-0.00321504
0.0839753
-0.0026575
0.091106
-0.00211506
0.098589
-0.00162459
0.106492
-0.00115112
0.114767
-0.000788261
0.123501
-0.000531269
0.132653
-0.000382956
0.142239
-0.000283536
0.152325
-0.000205452
0.16303
-0.000135896
0.174415
-7.84731e-05
0.186531
-3.0878e-05
0.199436
8.73488e-06
0.213193
4.00183e-05
0.227869
5.52711e-05
0.243546
5.82723e-05
0.260296
5.03232e-05
0.278202
3.6154e-05
0.297356
1.99729e-05
0.317877
0.339855
-0.00866398
0.0327384
-0.00793216
0.0363236
-0.00630929
0.0409259
-0.004526
0.045891
-0.00291045
0.0512926
-0.00159183
0.0572404
-0.00069801
0.0635904
-0.000291095
0.0703076
-0.000164814
0.0770866
-0.000146431
0.0839569
-8.70026e-05
0.0910466
-4.58843e-05
0.0985478
-2.76827e-05
0.106474
-6.42846e-05
0.114803
-7.90168e-05
0.123516
-8.33867e-05
0.132657
-6.57431e-05
0.142222
-5.23836e-05
0.152312
-3.07724e-05
0.163009
-4.16537e-06
0.174388
2.30728e-05
0.186504
4.47959e-05
0.199414
5.64245e-05
0.213182
5.97997e-05
0.227866
5.92331e-05
0.243546
5.87232e-05
0.260297
5.22434e-05
0.278208
3.95378e-05
0.297369
2.21386e-05
0.317895
0.339877
4.66599e-05
0.0320076
-5.47723e-05
0.036425
-0.000852162
0.0417233
-0.00130772
0.0463466
-0.00169367
0.0516786
-0.00197531
0.057522
-0.00214452
0.0637596
-0.00214278
0.0703059
-0.00204634
0.0769902
-0.00197756
0.0838881
-0.00187755
0.0909465
-0.00169996
0.0983703
-0.00142988
0.106204
-0.0010953
0.114469
-0.000795152
0.123215
-0.000549766
0.132412
-0.000392207
0.142064
-0.000281567
0.152201
-0.000200159
0.162927
-0.000139235
0.174327
-8.78647e-05
0.186453
-4.44259e-05
0.199371
-3.11482e-06
0.213141
2.92769e-05
0.227834
4.65059e-05
0.243529
5.06281e-05
0.260293
4.39869e-05
0.278215
3.2352e-05
0.297381
1.80482e-05
0.317909
0.339895
0.0135249
0.0307778
0.0135012
0.0364487
0.0124289
0.0427956
0.010525
0.0482505
0.0084456
0.053758
0.00662615
0.0593415
0.00518508
0.0652007
0.00412134
0.0713696
0.0032232
0.0778883
0.00249428
0.084617
0.00187571
0.0915651
0.00138655
0.0988594
0.000962661
0.106627
0.000608864
0.114823
0.000380266
0.123444
0.000233468
0.132559
0.000143046
0.142154
7.99647e-05
0.152264
4.59762e-05
0.162961
4.06517e-05
0.174332
4.78758e-05
0.186446
5.59155e-05
0.199363
5.85032e-05
0.213138
5.58372e-05
0.227836
5.6498e-05
0.243528
5.68335e-05
0.260292
5.1592e-05
0.27822
3.96359e-05
0.297393
2.1956e-05
0.317927
0.339917
0.0198125
0.0316157
0.0186761
0.0375852
0.0163738
0.0450978
0.0125071
0.0521173
0.0084884
0.0577767
0.00529833
0.0625315
0.00315175
0.0673472
0.00179425
0.0727271
0.000872205
0.0788104
0.000160869
0.0853283
-0.000384846
0.0921108
-0.00076145
0.099236
-0.000897933
0.106764
-0.000858525
0.114783
-0.000723738
0.123309
-0.000552058
0.132387
-0.000391783
0.141994
-0.000261282
0.152133
-0.000170718
0.162871
-0.000113905
0.174276
-7.16642e-05
0.186403
-3.26332e-05
0.199324
6.13586e-06
0.213099
3.56266e-05
0.227807
5.05934e-05
0.243513
5.16381e-05
0.260291
4.47125e-05
0.278227
3.32156e-05
0.297404
1.86418e-05
0.317941
0.339936
0.0179026
0.0348528
0.0160013
0.0394866
0.0142312
0.0468679
0.011974
0.0543745
0.0100293
0.0597213
0.00840089
0.06416
0.00697157
0.0687766
0.00583654
0.0738621
0.00495501
0.0796919
0.00417679
0.0861066
0.00338419
0.0929034
0.00265288
0.0999673
0.00193512
0.107482
0.0013512
0.115367
0.000914803
0.123746
0.000616335
0.132686
0.000402124
0.142208
0.000247367
0.152288
0.000148463
0.162969
0.000105597
0.174318
8.76325e-05
0.186421
7.86588e-05
0.199333
6.80622e-05
0.21311
6.14127e-05
0.227814
6.1195e-05
0.243514
6.1583e-05
0.260291
5.64775e-05
0.278232
4.29272e-05
0.297418
2.34892e-05
0.317961
0.33996
0.0141257
0.0405819
0.0105111
0.0431011
0.00834868
0.0490303
0.00671924
0.056004
0.00575633
0.0606843
0.00533123
0.0645851
0.0050533
0.0690545
0.00436044
0.074555
0.00337402
0.0806783
0.00232777
0.0871528
0.0013938
0.0938374
0.000574759
0.100786
3.1638e-05
0.108025
-0.000288508
0.115687
-0.000416001
0.123873
-0.000401977
0.132672
-0.000294908
0.142101
-0.000181861
0.152175
-9.68875e-05
0.162884
-5.42791e-05
0.174276
-2.33335e-05
0.18639
6.70646e-06
0.199303
3.76907e-05
0.213079
5.98824e-05
0.227791
6.65685e-05
0.243507
6.18299e-05
0.260296
5.20348e-05
0.278242
3.85238e-05
0.297431
2.1637e-05
0.317978
0.339981
0.0167182
0.0475405
0.0116516
0.0481677
0.00889092
0.051791
0.00847956
0.0564153
0.00861848
0.0605453
0.00818641
0.0650171
0.00743765
0.0698033
0.0064859
0.0755067
0.00581218
0.0813521
0.00507529
0.0878897
0.00431438
0.0945983
0.00348748
0.101613
0.00268192
0.10883
0.00197296
0.116396
0.00140878
0.124437
0.000991152
0.133089
0.000656034
0.142436
0.000415273
0.152416
0.000257512
0.163042
0.000179556
0.174354
0.000136515
0.186433
0.000108342
0.199331
8.78093e-05
0.213099
7.71781e-05
0.227802
7.68257e-05
0.243507
7.62727e-05
0.260296
6.83422e-05
0.27825
5.07801e-05
0.297449
2.72246e-05
0.318001
0.340008
0.0297295
0.0560122
0.0204253
0.0574719
0.0124503
0.059766
0.00963397
0.0592317
0.0104922
0.0596871
0.0110266
0.0644828
0.00966642
0.0711634
0.00804834
0.0771248
0.0059942
0.0834062
0.00443043
0.0894535
0.00308917
0.0959396
0.00208454
0.102618
0.00130894
0.109606
0.000710516
0.116995
0.00030639
0.124842
7.59159e-05
0.13332
2.45086e-05
0.142488
3.72229e-05
0.152403
6.37723e-05
0.163016
6.66437e-05
0.174351
7.24327e-05
0.186428
8.7662e-05
0.199316
0.000104695
0.213082
0.000110588
0.227796
0.000103456
0.243514
8.79848e-05
0.260312
7.16087e-05
0.278266
5.25952e-05
0.297468
2.91076e-05
0.318025
0.340038
0.0480787
0.0642309
0.0379025
0.0676481
0.0283506
0.0220472
0.0176719
0.0142479
0.0115212
0.00921845
0.00730899
0.00579596
0.00454007
0.00350119
0.00265623
0.00201215
0.0014864
0.00107314
0.000723067
0.000475882
0.000311306
0.000227076
0.000175229
0.000138288
0.000113933
0.000105618
0.000106855
0.000104082
9.02516e-05
6.5343e-05
3.44229e-05
0.0456099
0.0279266
0.0584034
0.0266167
0.0610008
0.0257046
0.0635486
0.0250274
0.0665944
0.0243928
0.0701874
0.023776
0.0739395
0.0232242
0.0777066
0.0226957
0.0818356
0.0221884
0.0864034
0.0913276
0.0324763
0.0591964
0.0317428
0.0617344
0.0310498
0.0642415
0.0303047
0.0673395
0.0294937
0.0709984
0.0287846
0.0746487
0.0280617
0.0784295
0.0271955
0.0827017
0.0263382
0.0872608
0.0255831
0.0920828
0.0248426
0.0974619
0.0240935
0.103391
0.0233615
0.109737
0.0226057
0.1166
0.0218176
0.12412
0.0210086
0.132241
0.0201374
0.140947
0.0191381
0.150354
0.0180766
0.160418
0.0169595
0.17106
0.0157003
0.182613
0.0143863
0.19497
0.0129858
0.208129
0.011471
0.222284
0.00985959
0.23743
0.00813726
0.253642
0.00629723
0.271019
0.00433545
0.289633
0.00223818
0.309607
0.331015
0.0355523
0.0607493
0.0343822
0.0629044
0.0336551
0.0649686
0.0329097
0.068085
0.0321561
0.071752
0.0315774
0.0752274
0.0310063
0.0790006
0.0303477
0.0833604
0.029663
0.0879454
0.0289538
0.092792
0.0282055
0.0982102
0.0274356
0.104161
0.0266157
0.110556
0.0257064
0.11751
0.0247776
0.125048
0.0238435
0.133175
0.022818
0.141972
0.0217058
0.151466
0.0205518
0.161572
0.0192644
0.172348
0.017857
0.184021
0.0163817
0.196446
0.0147808
0.20973
0.013061
0.224004
0.0112313
0.23926
0.00927102
0.255602
0.00717732
0.273113
0.00494252
0.291868
0.00255058
0.311999
0.333565
0.0399458
0.061896
0.0390332
0.0638171
0.0382011
0.0658006
0.0372288
0.0690573
0.036375
0.0726058
0.0355745
0.0760279
0.0346608
0.0799143
0.0337321
0.084289
0.0328743
0.0888032
0.0319891
0.0936771
0.0310991
0.0991002
0.0302497
0.10501
0.0293708
0.111435
0.0284287
0.118452
0.0274611
0.126016
0.0264244
0.134212
0.0253197
0.143077
0.0241231
0.152663
0.0228249
0.16287
0.02139
0.173783
0.0198561
0.185555
0.0182205
0.198081
0.0164442
0.211506
0.0145432
0.225905
0.0125097
0.241294
0.0103275
0.257784
0.00799776
0.275443
0.00550922
0.294357
0.00284285
0.314666
0.336408
0.0419643
0.0410356
0.0398988
0.0390675
0.0384913
0.0378998
0.0372553
0.0366039
0.0358278
0.0349418
0.0340337
0.0331032
0.0321279
0.0310959
0.0300107
0.0288737
0.0276777
0.0263794
0.0249714
0.0234162
0.0217578
0.0199598
0.0180168
0.0159406
0.0137144
0.011326
0.00877356
0.00604449
0.00311778
)
;

boundaryField
{
    outlet
    {
        type            calculated;
        value           nonuniform 0();
    }
    upperWall
    {
        type            symmetryPlane;
        value           nonuniform 0();
    }
    lowerWall
    {
        type            symmetryPlane;
        value           uniform 0;
    }
    inlet
    {
        type            calculated;
        value           nonuniform 0();
    }
    cylinder
    {
        type            calculated;
        value           nonuniform 0();
    }
    frontAndBack
    {
        type            empty;
        value           nonuniform 0();
    }
    procBoundary2to1
    {
        type            processor;
        value           nonuniform List<scalar> 
63
(
-0.0368267
-0.0196748
-0.0274714
-0.0289395
-0.0367192
-0.0311374
-0.0323313
-0.0343133
-0.0339248
-0.0349721
-0.0359997
-0.0318591
-0.0373285
-0.0382289
-0.0395282
-0.0293248
0.00854418
0.0103205
0.00849578
0.00412978
-0.000886462
-0.0056039
0.0159486
-0.0106403
0.0154743
-0.0138827
0.0125083
-0.0142738
0.00878396
-0.00778693
-0.00124745
-0.0226815
-0.0570051
-0.0596909
-0.0626365
-0.0659173
-0.0695528
-0.0733227
-0.0771548
-0.081307
-0.0858961
-0.0908679
0.0217286
-0.0967214
-0.102642
-0.109004
-0.115845
-0.123331
-0.131432
-0.140076
-0.149355
-0.159356
-0.169943
-0.181354
-0.193656
-0.206729
-0.22077
-0.235819
-0.251919
-0.269179
-0.287671
-0.30751
-0.328777
)
;
    }
    procBoundary2to3
    {
        type            processor;
        value           nonuniform List<scalar> 
43
(
0.0316926
0.0403917
0.0521539
0.0645132
0.0764724
0.0853232
-0.0705128
0.0891117
0.0908751
0.0915006
0.0837945
-0.0512747
0.069318
0.0655351
0.0640624
0.0679068
0.07389
0.0794276
0.0853157
0.0909665
0.0971955
0.103657
0.110451
0.117639
0.125367
0.133733
0.142838
0.15265
0.16318
0.174435
0.186479
0.199353
0.213107
0.227804
0.243513
0.260314
0.27828
0.297493
0.318055
0.340072
0.0698956
0.0404206
0.0728373
)
;
    }
    procBoundary2to6
    {
        type            processor;
        value           nonuniform List<scalar> 
37
(
-0.00773274
-0.0124261
-0.0171073
-0.0214197
-0.0254899
-0.0290902
-0.0314075
-0.0322233
-0.0310313
-0.0275169
-0.0222517
-0.0145768
-0.00872768
0.000700904
0.011831
0.0239545
0.0338596
0.0535866
0.0554834
0.0554927
0.0557519
0.0557979
0.0593935
0.0654301
0.0704629
0.0632223
0.0427032
0.0087912
-0.0253846
-0.0549983
-0.0699274
-0.0751036
-0.0751604
-0.0763698
-0.0821863
-0.0827393
-0.0787345
)
;
    }
}


// ************************************************************************* //
