/*--------------------------------*- C++ -*----------------------------------*\
| =========                 |                                                 |
| \\      /  F ield         | OpenFOAM: The Open Source CFD Toolbox           |
|  \\    /   O peration     | Version:                                        |
|   \\  /    A nd           | Website:  www.openfoam.com                      |
|    \\/     M anipulation  |                                                 |
\*---------------------------------------------------------------------------*/
FoamFile
{
    version     2.0;
    format      ascii;
    class       volScalarField;
    location    "107";
    object      p;
}
// * * * * * * * * * * * * * * * * * * * * * * * * * * * * * * * * * * * * * //

dimensions      [0 2 -2 0 0 0 0];


internalField   nonuniform List<scalar> 
1139
(
-0.595053
-0.504993
-0.422977
-0.423697
-0.348631
-0.358254
-0.282411
-0.302246
-0.322263
-0.227507
-0.253501
-0.275217
-0.182284
-0.209185
-0.23534
-0.141493
-0.171991
-0.199122
-0.21948
-0.108008
-0.139779
-0.16637
-0.189525
-0.077458
-0.111641
-0.137051
-0.162125
-0.866882
-0.916305
-1.09234
-1.26191
-1.37308
-1.3965
-0.955315
-1.12103
-1.27959
-1.37825
-1.38909
-1.3278
-0.980608
-1.12538
-1.26581
-1.35019
-1.34986
-1.28481
-1.1926
-0.993568
-1.10762
-1.22291
-1.2903
-1.28113
-1.21608
-1.13181
-1.05445
-0.997963
-1.07295
-1.15436
-1.20191
-1.1849
-1.12132
-1.04346
-0.969893
-0.902556
-0.999175
-1.0283
-1.06556
-1.088
-1.0619
-0.999512
-0.927147
-0.855119
-0.790093
-0.735446
-1.00124
-0.981654
-0.966584
-0.954184
-0.911085
-0.849803
-0.784989
-0.720566
-0.665273
-0.626547
-1.0075
-0.944515
-0.873004
-0.813835
-0.744527
-0.678747
-0.625341
-0.577884
-0.541004
-0.521449
-1.02073
-0.928921
-0.796761
-0.681693
-0.581982
-0.502406
-0.462926
-0.440127
-0.425713
-0.423339
-1.05404
-0.934094
-0.743736
-0.573063
-0.437239
-0.338062
-0.312131
-0.317413
-0.323991
-0.336367
-1.08016
-0.947197
-0.720496
-0.499183
-0.319101
-0.200711
-0.179005
-0.214007
-0.239068
-0.262775
-1.10452
-0.962763
-0.711896
-0.447456
-0.225404
-0.0757063
-0.0665248
-0.134333
-0.170222
-0.200466
-1.08902
-0.955512
-0.682768
-0.402626
-0.184343
-0.0471538
-0.015024
-0.0715183
-0.119604
-0.146455
-1.01495
-0.877786
-0.619598
-0.331731
-0.137599
-0.0469962
-0.0103099
-0.0357187
-0.0764672
-0.102955
-0.893678
-0.766925
-0.535099
-0.272893
-0.0791467
0.0221078
0.0427704
-0.00435558
-0.0439341
-0.0699144
-0.756921
-0.645563
-0.442262
-0.208591
-0.0384578
0.0380028
0.0618246
0.0298285
-0.0177209
-0.0426802
-0.603537
-0.509638
-0.346219
-0.160846
-0.0149103
0.0618073
0.0805143
0.0525349
0.00192986
-0.0194447
-0.473823
-0.405912
-0.296758
-0.162378
-0.0415266
0.0417403
0.0882199
0.0920023
0.0426962
0.000812496
-0.404778
-0.364827
-0.286743
-0.172131
-0.0626774
0.0201499
0.0724901
0.10097
0.0751845
0.0329044
-0.382961
-0.360784
-0.297285
-0.190279
-0.0878997
-0.0074813
0.0432872
0.0812189
0.0827595
0.0557042
-0.394623
-0.384237
-0.329849
-0.230486
-0.130304
-0.0477206
0.00603488
0.0452045
0.0746537
0.0632044
-0.437948
-0.439999
-0.392228
-0.29712
-0.191249
-0.0996417
-0.0357966
0.00734701
0.0506953
0.0569985
-0.528842
-0.549124
-0.505773
-0.39861
-0.271219
-0.158004
-0.0780898
-0.0246186
0.026799
0.0462245
-0.684546
-0.726802
-0.682693
-0.548048
-0.381682
-0.231743
-0.126196
-0.0585984
-0.000420594
0.0349022
-0.876395
-0.934693
-0.889998
-0.733976
-0.522721
-0.328505
-0.187575
-0.0992658
-0.0332432
0.0159114
-1.02223
-1.09503
-1.05857
-0.903461
-0.667543
-0.439553
-0.256533
-0.132655
-0.058801
-0.00475354
-1.03248
-1.12008
-1.109
-0.993289
-0.768986
-0.536952
-0.328071
-0.175161
-0.0918081
-0.0289771
-0.908202
-0.994364
-1.00988
-0.931108
-0.768739
-0.585809
-0.396376
-0.240549
-0.146729
-0.0668439
-0.713819
-0.782442
-0.802231
-0.759359
-0.66127
-0.539532
-0.399737
-0.272519
-0.191036
-0.0974851
-0.528751
-0.57122
-0.582787
-0.555488
-0.499954
-0.426476
-0.33713
-0.250312
-0.189261
-0.110399
-0.404513
-0.420271
-0.420323
-0.396895
-0.358462
-0.311197
-0.254445
-0.198799
-0.15801
-0.0993032
-0.339537
-0.333733
-0.321163
-0.296416
-0.262328
-0.224842
-0.185345
-0.147387
-0.121577
-0.0824625
-0.317873
-0.293732
-0.266886
-0.236806
-0.202357
-0.168167
-0.136623
-0.106765
-0.0879881
-0.0617323
-0.337103
-0.292267
-0.246759
-0.20637
-0.167233
-0.132345
-0.102922
-0.0779649
-0.0628466
-0.0440531
-0.404519
-0.331992
-0.25964
-0.198536
-0.147296
-0.106632
-0.0750555
-0.0518184
-0.0378151
-0.0227249
-0.52331
-0.415095
-0.311397
-0.223641
-0.152787
-0.0988511
-0.0589936
-0.0330682
-0.020576
-0.00899442
-0.0583336
-0.0247497
-0.00331136
0.0106676
-0.0260797
-0.046526
-0.0496365
-0.0493381
-0.0503618
-0.0486966
-0.0448732
-0.0398603
-0.0355325
-0.0313404
-0.0254325
-0.0216245
-0.0172097
-0.0118957
-0.00885477
-0.00555117
-0.00187828
0.000811958
0.00332035
0.00574974
0.00786022
0.009731
0.0114643
0.0129463
0.0141601
0.0152446
0.0160869
0.0166856
0.0170472
0.0173045
-0.00308673
-0.0171093
-0.0235507
-0.0333052
-0.038548
-0.0399253
-0.0390164
-0.0364371
-0.0336463
-0.0297188
-0.0253002
-0.0217267
-0.0167968
-0.012577
-0.00948569
-0.00571822
-0.00234472
0.000360188
0.00304069
0.00546107
0.00760816
0.00953614
0.0113221
0.0128113
0.0140884
0.0152042
0.0160635
0.0166995
0.0170626
0.0173293
0.0228313
0.0122303
0.000679746
-0.0122838
-0.0207919
-0.0257223
-0.0281414
-0.0285176
-0.0274745
-0.0251369
-0.0225244
-0.019128
-0.0150143
-0.0118506
-0.00861446
-0.00503455
-0.0020655
0.000620294
0.00326039
0.00557373
0.00768878
0.00960519
0.0113644
0.012827
0.0141297
0.0152268
0.0160861
0.0167397
0.0170895
0.0173599
0.0447289
0.0335417
0.0210018
0.00747249
-0.00285674
-0.0101039
-0.0152784
-0.0181224
-0.0189997
-0.0187817
-0.0175642
-0.0148498
-0.0121505
-0.00971243
-0.0066751
-0.00368613
-0.0011156
0.00142666
0.00385739
0.00600864
0.00801883
0.00986403
0.0115297
0.0129493
0.0142388
0.0152879
0.0161386
0.0167912
0.0171248
0.0173944
0.057591
0.0459025
0.0332517
0.0207757
0.011029
0.00308027
-0.00352187
-0.00786875
-0.0105071
-0.012064
-0.0117753
-0.0103998
-0.00896957
-0.007019
-0.004515
-0.00218343
6.52052e-05
0.00236796
0.00451491
0.00649881
0.00838102
0.0101316
0.0116901
0.0130765
0.0143329
0.01534
0.0161866
0.0168323
0.0171618
0.0174299
0.0576339
0.0494619
0.0388124
0.0287329
0.0206308
0.0126379
0.00575716
0.000823369
-0.00308692
-0.00555899
-0.00619558
-0.00616455
-0.00558236
-0.00415798
-0.00241627
-0.00065019
0.00127438
0.00326591
0.00513359
0.00696056
0.00870065
0.0103414
0.0118064
0.0131692
0.0143813
0.0153684
0.0162163
0.0168582
0.0172004
0.0174676
0.052056
0.0497602
0.0429959
0.0358565
0.0288445
0.0209845
0.0141992
0.00867835
0.00385411
0.000772509
-0.000998228
-0.00200104
-0.00204632
-0.00131028
-0.000286247
0.00103028
0.00257189
0.00420256
0.00581833
0.00746252
0.00906184
0.0105748
0.0119586
0.0132822
0.0144344
0.0154094
0.0162487
0.0168855
0.0172463
0.0175105
0.0491393
0.0520635
0.0478624
0.0428225
0.0362707
0.0286232
0.0219906
0.0158807
0.0107116
0.00701745
0.00424387
0.00253707
0.00183311
0.00177512
0.00217295
0.00304139
0.00415586
0.00542066
0.00677161
0.00819536
0.00963068
0.010974
0.0122661
0.0135034
0.0145758
0.015518
0.0163225
0.016942
0.0173093
0.0175649
0.0459821
0.0523101
0.0504967
0.0480996
0.0421136
0.0349911
0.0285358
0.0221161
0.016839
0.0125507
0.0092251
0.00705024
0.00575357
0.00507592
0.00502018
0.00541689
0.00608951
0.00697602
0.00804323
0.00922598
0.0104489
0.0116044
0.0127839
0.0138799
0.0148528
0.0157231
0.0164612
0.0170432
0.0173932
0.0176333
0.0336311
0.0431594
0.0463021
0.047397
0.0430838
0.0380017
0.0323981
0.0267595
0.021722
0.0173139
0.0137727
0.0111956
0.00941609
0.00835494
0.00790616
0.00786021
0.00814188
0.00872769
0.00950483
0.0104355
0.0114
0.0123885
0.0134205
0.0143537
0.0152254
0.0159957
0.0166514
0.0171816
0.0174962
0.0177167
0.00475143
0.0204865
0.0326166
0.0383909
0.0383922
0.0366394
0.0327748
0.0286546
0.0245029
0.0206699
0.0170539
0.0144496
0.0125176
0.0113294
0.010518
0.0100919
0.0100736
0.0103648
0.0108618
0.0115543
0.0123009
0.0131555
0.0140153
0.0148157
0.0155947
0.0162676
0.0168511
0.0173297
0.0176093
0.0178119
-0.0325505
-0.00589624
0.0154348
0.0254454
0.0303416
0.0319491
0.0304235
0.0285913
0.025735
0.022957
0.0188949
0.0165896
0.0146824
0.0135368
0.0124173
0.0117888
0.0115768
0.0116154
0.0119121
0.0124057
0.0130013
0.0137287
0.0144484
0.0151725
0.0158783
0.0164871
0.0170261
0.017468
0.017728
0.0179177
-0.0593258
-0.0230524
0.0024698
0.0153065
0.0244373
0.0267948
0.0282408
0.0275868
0.0254623
0.0234116
0.0207099
0.0184705
0.0166243
0.0152274
0.0140186
0.0132293
0.0127774
0.0126017
0.0127526
0.0130816
0.013567
0.0141674
0.0147904
0.0154558
0.016098
0.0166683
0.0171806
0.0175986
0.0178526
0.0180334
-0.0667571
-0.0310341
-0.007256
0.00768527
0.0190298
0.0231483
0.0272584
0.0267111
0.0254742
0.0240909
0.0218696
0.0198327
0.0180942
0.0166398
0.0153923
0.0144848
0.0138759
0.0135763
0.0135746
0.0137578
0.0141306
0.0146149
0.0151659
0.0157606
0.0163422
0.0168735
0.0173539
0.017747
0.0179925
0.0181625
-0.0594072
-0.0279865
-0.00789137
0.00745389
0.017441
0.0224801
0.0268576
0.0264797
0.0265459
0.0255063
0.0235605
0.0217224
0.0200057
0.0184481
0.0170699
0.0160064
0.0152283
0.0147787
0.0146072
0.0146564
0.0148941
0.0152527
0.0156998
0.0161881
0.0166877
0.0171529
0.0175785
0.0179318
0.0181532
0.0183071
-0.048529
-0.0221254
-0.00361012
0.0115451
0.0190604
0.0256026
0.028254
0.027835
0.0283103
0.026755
0.0251476
0.0235594
0.0218874
0.0202475
0.0188232
0.0176654
0.0167724
0.0161559
0.0158153
0.015714
0.0158027
0.0160293
0.0163531
0.0167261
0.0171277
0.0175043
0.0178552
0.0181538
0.0183363
0.0184687
-0.0360105
-0.0162204
0.000321743
0.0143402
0.0182431
0.0276366
0.0281575
0.0297957
0.0300602
0.0285368
0.027091
0.0253948
0.0236254
0.0219475
0.0204714
0.0192275
0.0182096
0.0174736
0.0170077
0.0167783
0.016711
0.0168006
0.0169915
0.0172586
0.0175645
0.0178591
0.0181395
0.0183866
0.0185323
0.0186449
-0.021673
-0.00603278
0.00688301
0.0180311
0.0204305
0.0293458
0.0268901
0.0304281
0.0298124
0.0290545
0.0280105
0.0263847
0.0246504
0.0229454
0.0215283
0.0202368
0.0191899
0.0183963
0.0178565
0.0175227
0.0173718
0.0173785
0.0174926
0.0176879
0.0179276
0.0181688
0.0184003
0.0186116
0.0187342
0.0188317
-0.00513235
0.00775351
0.0171258
0.0261599
0.028456
0.0324663
0.0308559
0.0327885
0.0310489
0.0299391
0.0284112
0.026742
0.0250756
0.0235434
0.0221116
0.0208584
0.0198319
0.0190511
0.0184861
0.018106
0.0179057
0.0178489
0.0179043
0.0180442
0.0182402
0.0184458
0.0186456
0.0188326
0.0189423
0.0190288
0.00540841
0.0162328
0.0226544
0.0273889
0.0328865
0.0335789
0.0345412
0.0353301
0.0332479
0.0317409
0.0296285
0.0275654
0.02576
0.0241276
0.0227412
0.0215573
0.0205465
0.0197487
0.0191598
0.0187511
0.0185287
0.0184153
0.0184134
0.0184905
0.0186238
0.0187748
0.0189294
0.0190797
0.0191675
0.0192381
0.0197289
0.0267865
0.0307212
0.0297848
0.034469
0.0333106
0.0353827
0.0344272
0.0329146
0.0315781
0.0298647
0.0282512
0.0266118
0.0250139
0.0236337
0.0224514
0.0214558
0.0207044
0.0200944
0.0196453
0.0193373
0.0191465
0.0190615
0.0190599
0.0191075
0.0191834
0.0192717
0.019366
0.0194163
0.0194644
0.0206605
0.0280131
-0.151663
-0.127504
-0.112518
-0.100499
-0.0861567
-0.0729482
-0.0630318
-0.0544832
-0.0454769
-0.0366417
-0.133535
-0.11417
-0.106576
-0.0955984
-0.0793449
-0.0671417
-0.0593068
-0.0512318
-0.0418894
-0.0340124
-0.0293294
-0.0232677
-0.0167786
-0.0137356
-0.00941882
-0.00493304
-0.00228325
0.000763113
0.00357158
0.00582082
0.0079724
0.00991435
0.0115503
0.0130252
0.0142723
0.0152359
0.0160678
0.0166515
0.0169953
0.0172387
-0.107167
-0.0933279
-0.094095
-0.0844088
-0.0704045
-0.0624355
-0.0562675
-0.0478354
-0.0384677
-0.0324133
-0.0283318
-0.0209919
-0.0162319
-0.0135249
-0.00810975
-0.00453803
-0.00203448
0.00126334
0.00381761
0.00602337
0.00817248
0.0100525
0.0116512
0.0131293
0.0143244
0.0152811
0.016109
0.0166714
0.01701
0.0172503
-0.0847002
-0.0788908
-0.0832305
-0.0713508
-0.0609439
-0.0571973
-0.0516296
-0.0434754
-0.0357274
-0.0314612
-0.0264444
-0.0194221
-0.0166002
-0.0125358
-0.00719147
-0.00471133
-0.00170229
0.00155406
0.00385947
0.00612194
0.00824751
0.0100732
0.0116793
0.013159
0.0143191
0.0153018
0.0161281
0.0166823
0.0170246
0.0172659
-0.0521394
-0.0676689
-0.0692889
-0.0600006
-0.0557505
-0.0532084
-0.0476642
-0.0408411
-0.0350569
-0.0312058
-0.0250867
-0.0199488
-0.0170015
-0.0114548
-0.0075236
-0.00506263
-0.00147073
0.00142787
0.00371412
0.00607417
0.00816407
0.00997696
0.01163
0.0131025
0.0142637
0.0152931
0.0161207
0.0166858
0.0170372
0.0172844
)
;

boundaryField
{
    outlet
    {
        type            fixedValue;
        value           nonuniform 0();
    }
    upperWall
    {
        type            symmetryPlane;
    }
    lowerWall
    {
        type            symmetryPlane;
    }
    inlet
    {
        type            zeroGradient;
    }
    cylinder
    {
        type            zeroGradient;
    }
    frontAndBack
    {
        type            empty;
    }
    procBoundary2to1
    {
        type            processor;
        value           nonuniform List<scalar> 
63
(
-0.690257
-0.690257
-0.574605
-0.496064
-0.496064
-0.433768
-0.375347
-0.375347
-0.335515
-0.292416
-0.253754
-0.253754
-0.236215
-0.206653
-0.179742
-0.179742
-0.814469
-1.04116
-1.04116
-1.21447
-1.33491
-1.36931
-1.3443
-1.3443
-1.22969
-1.22969
-1.10641
-1.10641
-0.989944
-0.989944
-0.840589
-0.840589
-0.166214
-0.140834
-0.122962
-0.108623
-0.0932652
-0.0787282
-0.0667268
-0.0570231
-0.048159
-0.039445
-0.0304582
-0.0304582
-0.025164
-0.01848
-0.0141426
-0.0104887
-0.0059117
-0.00270989
0.000166503
0.00309406
0.005491
0.00767244
0.00967705
0.0113868
0.0128766
0.0141781
0.01518
0.016021
0.0166293
0.0169862
0.0172341
)
;
    }
    procBoundary2to3
    {
        type            processor;
        value           nonuniform List<scalar> 
43
(
-0.630022
-0.496638
-0.368459
-0.257902
-0.17092
-0.106219
-0.106219
-0.0777929
-0.0423409
-0.0161368
0.00510757
0.00510757
0.0336797
0.0313013
0.042551
0.0378494
0.0376027
0.0346512
0.0326727
0.0309268
0.0294677
0.0280938
0.0267878
0.0255052
0.0243782
0.0232729
0.022376
0.0216171
0.0210041
0.0205322
0.0201898
0.0199368
0.0197741
0.0196819
0.0196365
0.0196322
0.0196434
0.0196757
0.0196817
0.0197046
-0.00131861
0.0336797
0.00200521
)
;
    }
    procBoundary2to6
    {
        type            processor;
        value           nonuniform List<scalar> 
37
(
-0.725763
-0.772572
-0.818652
-0.860264
-0.898648
-0.933742
-0.966171
-0.998874
-1.03289
-1.05807
-1.08084
-1.10192
-1.11032
-1.10783
-1.04146
-0.92039
-0.781444
-0.629643
-0.498855
-0.418214
-0.379952
-0.377366
-0.40662
-0.475306
-0.595232
-0.748368
-0.865816
-0.873478
-0.771359
-0.613181
-0.470177
-0.379559
-0.336183
-0.332126
-0.370204
-0.468103
-0.62262
)
;
    }
}


// ************************************************************************* //
