/*--------------------------------*- C++ -*----------------------------------*\
| =========                 |                                                 |
| \\      /  F ield         | OpenFOAM: The Open Source CFD Toolbox           |
|  \\    /   O peration     | Version:                                        |
|   \\  /    A nd           | Website:  www.openfoam.com                      |
|    \\/     M anipulation  |                                                 |
\*---------------------------------------------------------------------------*/
FoamFile
{
    version     2.0;
    format      ascii;
    class       volScalarField;
    location    "0.3";
    object      p;
}
// * * * * * * * * * * * * * * * * * * * * * * * * * * * * * * * * * * * * * //

dimensions      [0 2 -2 0 0 0 0];


internalField   nonuniform List<scalar> 
400
(
0.71974
0.716805
0.710174
0.700174
0.68775
0.673644
0.658424
0.642571
0.626469
0.610399
0.594557
0.579073
0.564024
0.549453
0.535374
0.521781
0.50866
0.495985
0.483727
0.471857
0.720696
0.717689
0.710903
0.700706
0.688092
0.673823
0.658472
0.642519
0.626347
0.610231
0.594361
0.578863
0.563811
0.549243
0.535171
0.521589
0.50848
0.495817
0.483572
0.471715
0.722633
0.719475
0.712368
0.701769
0.68877
0.674172
0.658557
0.642406
0.626095
0.609888
0.593964
0.578439
0.56338
0.54882
0.534764
0.521204
0.508119
0.495482
0.483263
0.47143
0.725599
0.7222
0.714584
0.703359
0.689769
0.674672
0.65866
0.642213
0.625696
0.609356
0.593354
0.577793
0.562727
0.548179
0.53415
0.520624
0.507577
0.49498
0.4828
0.471005
0.729673
0.72592
0.717572
0.705466
0.691066
0.675293
0.65875
0.641912
0.625126
0.608615
0.592516
0.576912
0.561842
0.547316
0.533325
0.519847
0.506853
0.494311
0.482185
0.470442
0.734967
0.730716
0.721357
0.708076
0.692624
0.675991
0.658782
0.641462
0.624352
0.607638
0.591429
0.575781
0.560713
0.546222
0.532285
0.518873
0.505951
0.49348
0.481425
0.469749
0.741642
0.736693
0.725965
0.711162
0.694393
0.676707
0.658698
0.640813
0.623329
0.606391
0.590066
0.574382
0.559332
0.544893
0.531031
0.517705
0.504874
0.492495
0.480527
0.468934
0.749918
0.743988
0.73142
0.714678
0.696301
0.677361
0.658422
0.639898
0.622008
0.604836
0.588403
0.572699
0.55769
0.54333
0.529568
0.516353
0.503636
0.491369
0.479509
0.468015
0.760102
0.752772
0.737731
0.718552
0.698248
0.677849
0.657861
0.638642
0.62033
0.602934
0.586417
0.570725
0.55579
0.541541
0.527911
0.514837
0.50226
0.490127
0.478392
0.467014
0.772625
0.763254
0.744882
0.722672
0.700099
0.678037
0.6569
0.636959
0.618239
0.600652
0.584096
0.568463
0.553648
0.539553
0.526092
0.513189
0.500778
0.488802
0.477211
0.465962
0.788098
0.775679
0.752802
0.726867
0.701669
0.677761
0.655412
0.634764
0.615688
0.597979
0.581452
0.565943
0.551305
0.537412
0.524159
0.51146
0.49924
0.487439
0.476006
0.464898
0.807408
0.790316
0.761331
0.730885
0.702722
0.676824
0.653265
0.63199
0.612663
0.594936
0.578534
0.56323
0.548832
0.53519
0.522183
0.509713
0.497702
0.486089
0.474822
0.46386
0.831883
0.807425
0.770155
0.734365
0.70296
0.675022
0.650357
0.62862
0.609206
0.591603
0.575439
0.560424
0.546328
0.532979
0.520244
0.50802
0.496228
0.484806
0.473705
0.462886
0.863553
0.827194
0.778725
0.736809
0.702041
0.672175
0.646655
0.624722
0.605438
0.588122
0.57231
0.557659
0.543911
0.530879
0.518426
0.506449
0.494872
0.483633
0.472689
0.462004
0.905466
0.849595
0.78617
0.737604
0.699647
0.668213
0.642263
0.620478
0.601561
0.584683
0.569312
0.55507
0.541687
0.528973
0.516793
0.50505
0.493669
0.482598
0.471794
0.461228
0.961749
0.874038
0.791227
0.736165
0.69566
0.663298
0.637462
0.616174
0.597819
0.581479
0.566589
0.55276
0.539728
0.527309
0.515376
0.503838
0.492629
0.481702
0.471018
0.460553
1.03794
0.899137
0.792332
0.732185
0.690329
0.657853
0.632639
0.612096
0.594406
0.57863
0.564209
0.550764
0.538045
0.525884
0.514162
0.502799
0.491735
0.480927
0.470343
0.459961
1.14603
0.923671
0.787769
0.725263
0.68375
0.652074
0.627899
0.608255
0.591278
0.576065
0.562087
0.548993
0.536555
0.524619
0.513081
0.501868
0.490928
0.480222
0.469724
0.459413
1.31264
0.947153
0.775129
0.71322
0.674463
0.645055
0.622565
0.604105
0.587985
0.573407
0.559907
0.547181
0.535031
0.523324
0.51197
0.500906
0.490088
0.479484
0.469069
0.458829
1.53223
0.963002
0.753807
0.695008
0.661898
0.636538
0.616459
0.599497
0.584397
0.570544
0.557576
0.545252
0.533413
0.52195
0.51079
0.499883
0.489192
0.478692
0.468365
0.458197
)
;

boundaryField
{
    fixedWalls
    {
        type            zeroGradient;
    }
    inlet
    {
        type            zeroGradient;
    }
    outlet
    {
        type            fixedValue;
        value           nonuniform 0();
    }
    frontAndBack
    {
        type            empty;
    }
    procBoundary4to0
    {
        type            processor;
        value           nonuniform List<scalar> 
20
(
0.719739
0.716805
0.710174
0.700174
0.68775
0.673644
0.658424
0.642571
0.626469
0.610399
0.594557
0.579073
0.564024
0.549453
0.535374
0.521781
0.50866
0.495985
0.483727
0.471857
)
;
    }
    procBoundary4to5
    {
        type            processor;
        value           nonuniform List<scalar> 
20
(
0.460345
0.460214
0.459952
0.459563
0.459049
0.458418
0.45768
0.456852
0.455956
0.45502
0.45408
0.453168
0.452318
0.45155
0.450873
0.450283
0.449761
0.449274
0.448749
0.448178
)
;
    }
}


// ************************************************************************* //
