/*--------------------------------*- C++ -*----------------------------------*\
| =========                 |                                                 |
| \\      /  F ield         | OpenFOAM: The Open Source CFD Toolbox           |
|  \\    /   O peration     | Version:                                        |
|   \\  /    A nd           | Website:  www.openfoam.com                      |
|    \\/     M anipulation  |                                                 |
\*---------------------------------------------------------------------------*/
FoamFile
{
    version     2.0;
    format      ascii;
    class       surfaceScalarField;
    location    "37";
    object      phi;
}
// * * * * * * * * * * * * * * * * * * * * * * * * * * * * * * * * * * * * * //

dimensions      [0 3 -1 0 0 0 0];
oriented        oriented;


internalField   nonuniform List<scalar> 
2238
(
0.0187094
0.00020603
0.0215511
0.002014
0.025226
-0.00677936
0.00310448
0.0293796
-0.00921244
0.00505886
0.034475
-0.0114785
0.00638309
0.0398963
-0.0142047
0.00878338
0.0463019
-0.0167461
0.0103405
0.0523843
-0.0196043
0.0135218
0.0593618
-0.0222107
0.0152333
-0.0246349
0.0195596
0.064437
0.0293316
0.0353875
0.0416502
-0.0177412
0.0479143
-0.0204688
0.053592
-0.0224238
0.0589133
-0.0249256
0.0627871
-0.0260845
-0.0283255
0.0664777
0.0476341
0.0510488
0.0539771
0.0552401
-0.0261885
0.0563182
-0.0271626
-0.0283742
0.056367
0.0451986
0.0467879
0.0486694
-0.00941676
-0.0118798
0.00227205
-0.0143853
0.00220086
-0.0169463
0.00214839
-0.0195752
0.00211594
-0.0222811
0.00210065
-0.0250708
0.00210157
-0.0279524
0.00211885
-0.0309327
0.00215105
-0.0340206
0.00219989
-0.0372266
0.00226623
-0.0405618
0.00235117
-0.0440374
0.00245586
-0.0476578
0.00257621
-0.0514171
0.00270524
-0.0553
0.00283358
0.00296875
-0.0593069
-0.0101132
0.00437303
-0.0122275
0.0043151
-0.0143684
0.00428934
-0.0165436
0.00429114
-0.0187556
0.00431265
-0.0210094
0.00435539
-0.0233056
0.00441507
-0.0256464
0.00449187
-0.028037
0.00459049
-0.0304761
0.0047053
-0.0329718
0.00484684
-0.035525
0.00500905
-0.0381354
0.00518666
-0.0408078
0.00537761
-0.0435278
0.00555357
0.00573374
-0.0462928
-0.00775586
0.00600566
-0.00938844
0.00594769
-0.0110176
0.00591849
-0.0126333
0.00590682
-0.014235
0.00591439
-0.0158204
0.00594078
-0.0173862
0.00598083
-0.0189397
0.00604539
-0.0204707
0.00612147
-0.021982
0.00621667
-0.0234716
0.00633634
-0.0249203
0.00645776
-0.0263478
0.00661416
-0.0277348
0.00676467
-0.0290833
0.00690211
0.0070995
-0.0304491
-0.00519733
0.00716911
-0.00633264
0.007083
-0.00742629
0.00701214
-0.00846691
0.00694744
-0.00945271
0.00690019
-0.010376
0.00686405
-0.0112377
0.00684252
-0.0120312
0.00683893
-0.0127476
0.00683783
-0.0133969
0.00686595
-0.0139532
0.0068927
-0.0144334
0.00693797
-0.0148117
0.00699247
-0.0150819
0.00703488
-0.0153167
0.00713689
0.00697192
-0.0151891
-0.00252888
-0.00317349
0.00772761
-0.00374275
0.00758141
-0.0042309
0.00743559
-0.00463698
0.00730626
-0.0049221
0.00714917
-0.00509909
0.00701951
-0.00516565
0.00690549
-0.00505934
0.00673152
-0.00485237
0.00665898
-0.00446446
0.00650479
-0.00389522
0.00636873
-0.00321631
0.00631356
-0.00219189
0.00601046
-0.00108984
0.00603483
0.00577242
0.000109665
-9.36255e-05
-0.000171295
0.00765908
-0.000148662
0.00741295
6.28127e-05
0.00709479
0.000344693
0.00686729
0.000825055
0.00653915
0.00151786
0.00621268
0.0022557
0.00599369
0.00344131
0.00547337
0.00457691
0.0053692
0.00621977
0.00472587
0.00793746
0.00459586
0.0100315
0.0039164
0.0124022
0.00366417
0.00282152
0.0153531
0.00319784
0.00370183
0.00690896
0.00430221
0.00649441
0.00528804
0.00588146
0.00620509
0.0056221
0.00767099
0.00474678
0.00905415
0.00461053
0.0110483
0.0034792
0.0129326
0.0034849
0.0156506
0.00200791
0.0180675
0.0021789
0.0216218
0.000362111
0.0247458
0.00054016
-0.00157935
0.0291467
0.00715937
0.00817167
0.00548212
0.00967482
0.00437831
0.0111166
0.00418035
0.0132713
0.00259208
0.0151097
0.0027721
0.0180215
0.000567427
0.0204066
0.00109981
0.0240162
-0.00160175
0.0271567
-0.000961577
0.0314883
-0.00396944
0.0355137
-0.00348527
-0.0066336
0.0405679
0.0112484
0.0131609
0.00246573
0.0150827
0.00225861
0.0174883
0.000186497
0.0200605
0.000199914
0.0229753
-0.00234741
0.0262585
-0.00218341
0.0298706
-0.00521383
0.0338969
-0.00498788
0.0386206
-0.0086931
0.0435988
-0.00846353
-0.012564
0.0495292
0.0156437
0.0181084
0.0203089
0.0236132
0.0263247
0.0305244
0.0340939
0.0394466
0.0442752
0.051045
0.0580406
-0.0611125
0.000463574
-0.0626268
0.000229148
-0.0640811
0.000254773
-0.0652195
5.7529e-05
-0.0662557
0.000126478
-0.06694
-1.06375e-05
-0.0675073
0.00013096
-0.0676752
5.27469e-05
-0.0677318
0.00028365
-0.0672707
0.000185457
-0.0666153
0.000442966
-0.0653516
0.000360415
-0.0639138
0.00067965
-0.061805
0.000572235
-0.0595808
0.000876664
-0.0566634
0.000654524
-0.0536075
0.000750652
-0.0496306
0.00012052
-0.045807
6.89175e-05
-0.00114193
-0.048191
0.00236181
-0.0497735
0.0018116
-0.051286
0.00176731
-0.0524727
0.0012442
-0.0535332
0.00118697
-0.0542475
0.000703719
-0.0548397
0.000723132
-0.0550696
0.000282701
-0.0550649
0.000278935
-0.0546125
-0.000266951
-0.0538326
-0.000336976
-0.052559
-0.000913204
-0.0508872
-0.000992072
-0.0487172
-0.00159782
-0.0461259
-0.0017146
-0.0431222
-0.00234918
-0.0397311
-0.00264044
-0.0358888
-0.00372181
-0.0318578
-0.00396208
-0.00522526
-0.0324396
0.00435229
-0.0340112
0.00338319
-0.0356394
0.00339556
-0.0368937
0.0024985
-0.0380281
0.00232136
-0.0388481
0.00152369
-0.0394585
0.00133349
-0.0397743
0.000598561
-0.0398386
0.000343241
-0.0395878
-0.000517772
-0.0388875
-0.00103731
-0.0377239
-0.00207678
-0.0360077
-0.00270828
-0.033945
-0.00366046
-0.0311883
-0.00447137
-0.0281598
-0.00537764
-0.0246042
-0.00619606
-0.0208282
-0.00749776
-0.0166711
-0.00811927
-0.00910285
-0.0171365
0.00629969
-0.0188617
0.00510834
-0.0206203
0.00515419
-0.0220018
0.00387998
-0.0231193
0.00343887
-0.0240787
0.00248305
-0.024754
0.00200878
-0.0253094
0.00115398
-0.0255537
0.000587578
-0.0255533
-0.000518185
-0.025085
-0.00150557
-0.0242469
-0.00291495
-0.0227994
-0.00415576
-0.0210389
-0.00542098
-0.0186625
-0.00684775
-0.0158353
-0.00820481
-0.0125382
-0.00949314
-0.00859501
-0.011441
-0.00457925
-0.012135
-0.0133072
-0.00151428
0.00792364
-0.00327638
0.00687044
-0.00466766
0.00654546
-0.0062187
0.00543103
-0.00740807
0.00462824
-0.00859589
0.00367087
-0.0094997
0.0029126
-0.0103282
0.00198248
-0.0108846
0.00114392
-0.0114534
5.06516e-05
-0.0114486
-0.00151039
-0.0109493
-0.00341422
-0.00998809
-0.00511696
-0.00854946
-0.00685961
-0.00662928
-0.00876793
-0.00426016
-0.0105739
-0.00145395
-0.0122993
0.00174459
-0.0146396
0.0053442
-0.0157346
-0.0175951
0.0133287
0.00994804
0.011467
0.00873209
0.00994078
0.00807171
0.00819583
0.00717598
0.00666
0.00616406
0.00526633
0.00506455
0.00415372
0.00402521
0.00322009
0.0029161
0.0024744
0.00188962
0.00207684
0.000448204
0.00191837
-0.00135192
0.00208783
-0.00358368
0.00256748
-0.0055966
0.00336596
-0.00765809
0.00469825
-0.0101002
0.00645087
-0.0123266
0.00852482
-0.0143733
0.010958
-0.0170728
0.0140366
-0.0188132
-0.0217926
0.0274209
0.0116739
0.0255947
0.0105583
0.0237762
0.00989019
0.0218975
0.00905466
0.0200808
0.00798079
0.0183838
0.00676154
0.0168715
0.00553753
0.0156242
0.00416334
0.0147257
0.0027882
0.0140407
0.00113311
0.0134367
-0.000747864
0.012901
-0.00304799
0.0127276
-0.00542326
0.0129619
-0.00789239
0.0137021
-0.0108404
0.0149016
-0.013526
0.0165214
-0.0159931
0.0184953
-0.0190467
0.021303
-0.0216209
0.0255126
-0.0260021
-0.0339674
0.039323
0.0129188
0.0378097
0.0120716
0.0361003
0.0115996
0.034303
0.0108519
0.0324742
0.00980959
0.0307008
0.00853497
0.029038
0.00720033
0.0275171
0.00568423
0.0260877
0.00421755
0.0249483
0.00227255
0.024209
-8.57618e-06
0.0235368
-0.00237583
0.0230716
-0.00495805
0.0228959
-0.00771665
0.0228377
-0.0107822
0.0231176
-0.0138059
0.0239843
-0.0168598
0.0253064
-0.0203689
0.0278605
-0.0241749
0.0317088
-0.0298504
-0.0371955
0.0485777
0.0138703
0.0472696
0.0133797
0.0457544
0.0131148
0.0441209
0.0124854
0.0423692
0.0115613
0.040549
0.0103552
0.038746
0.00900334
0.037029
0.00740124
0.0355847
0.00566186
0.0342083
0.00364897
0.0328198
0.00137985
0.0316629
-0.00121884
0.0306312
-0.00392638
0.0298418
-0.00692726
0.0292086
-0.0101491
0.0289688
-0.013566
0.0293047
-0.0171957
0.030535
-0.0215991
0.0329911
-0.026631
0.0358027
-0.032662
-0.0387526
0.0563986
0.0155123
0.0546075
0.0151708
0.0528665
0.0148559
0.051102
0.0142499
0.0493109
0.0133523
0.0475289
0.0121372
0.0458316
0.0107006
0.0441759
0.00905689
0.0426105
0.00722735
0.0409953
0.00526417
0.0393838
0.00299133
0.0379572
0.000207789
0.0366185
-0.00258775
0.0355217
-0.00583044
0.0348208
-0.00944821
0.0347077
-0.0134529
0.0353099
-0.0177979
0.0364768
-0.0227661
0.0379952
-0.0281494
0.039048
-0.0337148
-0.0387057
0.0603502
0.0168708
-0.0617087
0.0590985
0.0164225
0.0575495
0.0164048
0.0559845
0.0158149
0.0544568
0.01488
0.0529788
0.0136152
0.0516634
0.0120161
0.050542
0.0101783
0.0497105
0.00805883
0.0492032
0.00577146
0.0490785
0.00311605
0.0491644
0.000121824
0.0494488
-0.0028721
0.0503288
-0.00671047
0.0515726
-0.010692
0.0531009
-0.0149812
0.0549194
-0.0196163
0.0566501
-0.0244968
0.0579403
-0.0294395
0.0583369
-0.0341114
0.0577407
-0.0381095
-0.0408784
0.0685051
0.0167262
-0.0683604
0.0685228
0.0164047
0.0687781
0.0161495
0.0688376
0.0157555
0.0686748
0.0150428
0.0683064
0.0139837
0.0677718
0.0125507
0.0672026
0.0107475
0.0666493
0.00861215
0.0662585
0.0061622
0.0659369
0.00343765
0.0655356
0.000523164
0.0658771
-0.00321364
0.0662635
-0.00709688
0.0667524
-0.0111809
0.0673145
-0.0155433
0.0677841
-0.020086
0.0678561
-0.0245688
0.0672139
-0.0287973
0.065788
-0.0326856
0.0634145
-0.035736
-0.0375819
0.072081
0.015723
-0.0710778
0.0731969
0.0152889
0.0744106
0.0149358
0.0755828
0.0145832
0.0765858
0.0140398
0.077375
0.0131945
0.0779033
0.0120224
0.0781947
0.010456
0.0782988
0.0085081
0.0782849
0.00617609
0.0782239
0.00349862
0.0783201
0.000426975
0.078114
-0.00300749
0.0778303
-0.0068132
0.0774158
-0.0107665
0.0767448
-0.0148723
0.0756658
-0.019007
0.0740421
-0.0229451
0.0718387
-0.0265938
0.0690347
-0.0298816
0.0657064
-0.0324076
-0.0341144
0.0755995
0.014077
-0.0739535
0.0769095
0.0139788
0.0781714
0.013674
0.0794937
0.0132608
0.0808006
0.0127329
0.0820025
0.0119926
0.0830475
0.0109774
0.083872
0.00963149
0.0844951
0.00788502
0.0849097
0.00576145
0.0851423
0.00326607
0.0851509
0.000418325
0.0848457
-0.00270227
0.0841781
-0.00614557
0.083195
-0.00978335
0.0818491
-0.0135264
0.080078
-0.0172359
0.0779292
-0.0207963
0.0754888
-0.0241535
0.0727565
-0.0271493
0.0699501
-0.0296012
-0.0314923
0.0798097
0.012777
-0.0785097
0.081005
0.0127835
0.0821636
0.0125154
0.0833599
0.0120646
0.0845607
0.0115321
0.0857178
0.0108355
0.0867994
0.00989578
0.0877587
0.00867216
0.0885247
0.00711902
0.0890626
0.0052236
0.0893363
0.00299234
0.0893322
0.000422505
0.0889898
-0.00235991
0.0882767
-0.00543243
0.0872027
-0.00870936
0.0857764
-0.0121001
0.0840183
-0.0154777
0.0819992
-0.0187772
0.0797322
-0.0218865
0.0772613
-0.0246784
0.0747205
-0.0270605
-0.0289666
0.0844186
0.0117094
-0.083351
0.0855917
0.0116105
0.086745
0.0113621
0.0878415
0.010968
0.0889256
0.010448
0.0899894
0.00977166
0.0909926
0.00889265
0.0918878
0.00777695
0.0926165
0.00639034
0.0931298
0.0047103
0.093393
0.00272914
0.0933619
0.000453559
0.0930579
-0.0020559
0.0924221
-0.0047966
0.0914423
-0.00772954
0.0901269
-0.0107848
0.088516
-0.0138668
0.0866319
-0.0168931
0.0844984
-0.0197529
0.0821586
-0.0223386
0.079725
-0.0246268
-0.02645
0.0893185
0.01052
-0.0881292
0.0904736
0.0104554
0.0915823
0.0102534
0.0926438
0.00990647
0.0936747
0.00941716
0.0946692
0.00877715
0.0955951
0.00796677
0.0964157
0.00695628
0.0970852
0.00572092
0.0975609
0.00423461
0.0978086
0.00248143
0.0978006
0.000461497
0.0975145
-0.00176983
0.0969234
-0.00420547
0.0960133
-0.00681941
0.09478
-0.00955157
0.0932464
-0.0123332
0.0914286
-0.0150753
0.0893678
-0.0176921
0.0871225
-0.0200934
0.0847403
-0.0222447
-0.0239659
0.0942978
0.00938733
-0.0931652
0.0953825
0.0093708
0.0964433
0.00919249
0.0974731
0.00887667
0.0984626
0.00842773
0.0993975
0.00784224
0.100256
0.00710873
0.101007
0.00620451
0.10162
0.00510819
0.102058
0.00379657
0.102288
0.00225167
0.102283
0.00046672
0.102004
-0.00149123
0.101434
-0.00363561
0.100569
-0.00595467
0.0994046
-0.00838674
0.0979539
-0.0108825
0.0962414
-0.0133628
0.0943077
-0.0157584
0.092201
-0.0179867
0.0899446
-0.0199883
-0.0216137
0.099465
0.00841736
-0.098495
0.100478
0.00835796
0.101482
0.00818822
0.102454
0.00790447
0.103376
0.00750559
0.104236
0.00698265
0.105015
0.00632935
0.105695
0.00552514
0.106247
0.00455606
0.106643
0.00340028
0.106848
0.00204645
0.106833
0.000481912
0.106576
-0.00123375
0.106061
-0.00312104
0.105279
-0.00517224
0.10423
-0.00733798
0.102924
-0.00957613
0.101377
-0.0118164
0.0996186
-0.0139997
0.0976786
-0.0160468
0.0955797
-0.0178893
-0.0194235
0.105147
0.00749584
-0.104225
0.106074
0.00743127
0.106984
0.00727795
0.107862
0.0070269
0.108692
0.00667519
0.109463
0.00621159
0.110161
0.00563153
0.110768
0.00491752
0.111264
0.00406023
0.111623
0.00304157
0.111816
0.00185306
0.111815
0.000483072
0.11161
-0.00102877
0.111182
-0.00269261
0.110515
-0.00450572
0.109603
-0.00642545
0.108447
-0.00842049
0.107055
-0.0104243
0.105445
-0.0123897
0.103638
-0.0142402
0.101675
-0.0159256
-0.0173673
0.111302
0.00663723
-0.110443
0.112138
0.00659489
0.112954
0.00646186
0.113742
0.00623912
0.114492
0.00592551
0.115189
0.00551416
0.115822
0.00499848
0.116374
0.00436549
0.116828
0.00360625
0.117163
0.00270687
0.117356
0.00166009
0.117384
0.000455346
0.117229
-0.000874178
0.116873
-0.00233652
0.116295
-0.00392757
0.115485
-0.00561502
0.114435
-0.00737123
0.113153
-0.0091417
0.111654
-0.0108907
0.109964
-0.0125505
0.108125
-0.0140866
-0.0154296
0.11777
0.00587814
-0.117011
0.118535
0.00583028
0.119289
0.00570733
0.120021
0.00550765
0.120718
0.00522823
0.121369
0.00486387
0.12196
0.00440717
0.122476
0.00384908
0.122903
0.00317959
0.12322
0.00239008
0.123408
0.00147191
0.123444
0.000419224
0.12331
-0.000740483
0.122986
-0.00201212
0.122454
-0.00339602
0.121705
-0.00486548
0.120732
-0.0063987
0.119546
-0.00795497
0.118159
-0.00950403
0.116597
-0.0109886
0.114896
-0.012386
-0.0136298
0.124599
0.00517515
-0.123896
0.125309
0.00511983
0.126013
0.00500366
0.126698
0.00482299
0.127351
0.00457458
0.127963
0.00425275
0.128518
0.00385177
0.129003
0.00336361
0.129403
0.00278027
0.129698
0.0020951
0.129869
0.00130016
0.129896
0.00039227
0.129765
-0.000608817
0.129456
-0.00170388
0.128959
-0.00289898
0.128265
-0.00417093
0.127373
-0.00550716
0.126289
-0.0068711
0.125025
-0.00824004
0.123605
-0.00956764
0.12205
-0.010832
-0.0119783
0.131899
0.00451779
-0.131241
0.132553
0.00446546
0.133198
0.00435893
0.133825
0.00419576
0.134425
0.0039747
0.134986
0.00369162
0.135496
0.00334192
0.13594
0.00291933
0.136304
0.00241662
0.13657
0.00182893
0.136722
0.00114849
0.136741
0.000372735
0.136617
-0.000484612
0.136335
-0.00142218
0.135885
-0.00244911
0.135261
-0.00354648
0.13446
-0.00470621
0.133486
-0.00589686
0.132349
-0.00710338
0.131064
-0.00828198
0.129651
-0.00941972
-0.010469
0.139709
0.00392571
-0.139117
0.140299
0.00387541
0.14088
0.00377784
0.141444
0.00363167
0.141982
0.00343641
0.142485
0.00318912
0.14294
0.00288654
0.143336
0.00252323
0.14366
0.00209348
0.143896
0.00159229
0.144031
0.00101339
0.144051
0.000353328
0.143944
-0.000378072
0.143699
-0.0011772
0.143306
-0.00205634
0.142758
-0.00299798
0.142051
-0.00399909
0.141186
-0.00503171
0.140169
-0.0060871
0.139013
-0.00712613
0.137737
-0.00814296
-0.0090978
0.14804
0.00339677
-0.147511
0.148567
0.00334752
0.149087
0.00325876
0.149589
0.00312955
0.150066
0.00295878
0.150511
0.0027449
0.150913
0.00248451
0.151262
0.00217401
0.151547
0.00180781
0.151758
0.00138202
0.15188
0.00089081
0.151902
0.000331109
0.151815
-0.000290718
0.151607
-0.00096931
0.151269
-0.00171769
0.150792
-0.00252168
0.150173
-0.00337993
0.14941
-0.00426892
0.148509
-0.00518608
0.147478
-0.00609507
0.146335
-0.00699936
-0.00785664
0.156925
0.00292138
-0.156449
0.157396
0.0028764
0.157857
0.00279793
0.158301
0.00268512
0.158723
0.00253727
0.159114
0.00235327
0.159468
0.00213047
0.159776
0.00186604
0.160029
0.00155511
0.160216
0.0011948
0.160328
0.000779284
0.160352
0.000306908
0.160281
-0.000219848
0.160105
-0.000792996
0.159814
-0.00142691
0.159401
-0.00210905
0.158862
-0.00284055
0.158194
-0.00360123
0.157401
-0.0043929
0.15649
-0.0051838
0.155471
-0.00598041
-0.00674329
0.166408
0.00249825
-0.165985
0.166826
0.00245846
0.167234
0.00239018
0.167626
0.00229271
0.167998
0.00216567
0.168342
0.0020083
0.168654
0.00181868
0.168926
0.00159453
0.169149
0.0013318
0.169316
0.0010282
0.169416
0.000678504
0.169442
0.000281653
0.169384
-0.000162158
0.169235
-0.000643667
0.168985
-0.00117757
0.168629
-0.001753
0.168162
-0.00237318
0.167581
-0.0030203
0.166888
-0.0036996
0.166086
-0.00438243
0.165185
-0.00507918
-0.0057507
0.176534
0.00212453
-0.176161
0.176903
0.00208934
0.177263
0.00203024
0.177609
0.00194674
0.177937
0.00183837
0.17824
0.00170481
0.178514
0.0015444
0.178753
0.00135559
0.17895
0.00113481
0.179098
0.000880468
0.179189
0.000587807
0.179214
0.000256241
0.179168
-0.000115617
0.179042
-0.000517691
0.178829
-0.000964978
0.178523
-0.00144742
0.178121
-0.00197046
0.177618
-0.00251739
0.177015
-0.00309653
0.176314
-0.00368158
0.17552
-0.00428575
-0.00487121
0.187357
0.00179451
-0.187027
0.187683
0.00176391
0.187999
0.00171347
0.188303
0.00164256
0.188591
0.00155097
0.188857
0.00143839
0.189098
0.00130374
0.189308
0.00114569
0.189481
0.000961503
0.189612
0.000749676
0.189693
0.000506467
0.189718
0.000231065
0.189681
-7.84983e-05
0.189576
-0.000412338
0.189396
-0.000784599
0.189135
-0.00118678
0.188789
-0.00162486
0.188356
-0.00208407
0.187834
-0.00257441
0.187224
-0.00307116
0.186529
-0.00359098
-0.00409623
0.198934
0.0015041
-0.198644
0.19922
0.00147804
0.199498
0.0014356
0.199764
0.00137601
0.200016
0.00129932
0.200249
0.00120518
0.20046
0.00109307
0.200644
0.000961711
0.200796
0.000809237
0.200912
0.000634076
0.200985
0.000433415
0.201009
0.000206291
0.200981
-4.97856e-05
0.200893
-0.00032484
0.200741
-0.000632653
0.20052
-0.000965357
0.200225
-0.0013298
0.199853
-0.00171219
0.199403
-0.00212417
0.198873
-0.00254195
0.198268
-0.00298515
-0.00341624
0.211326
0.00124955
-0.211072
0.211577
0.00122763
0.21182
0.00119243
0.212053
0.00114286
0.212273
0.00107937
0.212477
0.00100132
0.212661
0.000908864
0.212822
0.00080057
0.212956
0.000675463
0.213058
0.000531796
0.213124
0.000367636
0.213149
0.000181884
0.213127
-2.83073e-05
0.213055
-0.000252907
0.212928
-0.000505359
0.212741
-0.000778127
0.21249
-0.00107885
0.212172
-0.00139406
0.211785
-0.0017373
0.211327
-0.00208463
0.210801
-0.0024588
-0.00282191
0.224603
0.0010266
-0.22438
0.224822
0.00100854
0.225035
0.00097979
0.225239
0.000939119
0.225431
0.000887188
0.225609
0.00082321
0.22577
0.000747764
0.225911
0.000659403
0.226029
0.000557788
0.22612
0.000441171
0.226179
0.000308235
0.226203
0.000157925
0.226188
-1.29343e-05
0.226129
-0.000194294
0.226023
-0.000399211
0.225865
-0.000620378
0.225652
-0.000865896
0.225381
-0.00112275
0.225049
-0.00140544
0.224655
-0.0016907
0.224199
-0.00200246
-0.00230416
0.238841
0.000831096
-0.238645
0.239033
0.000816616
0.239219
0.00079359
0.239397
0.000760822
0.239565
0.000718962
0.239721
0.000667319
0.239863
0.000606542
0.239986
0.000535479
0.24009
0.000453974
0.240171
0.000360656
0.240225
0.000254391
0.240248
0.000134471
0.240238
-2.75611e-06
0.240191
-0.000146919
0.240102
-0.000310961
0.23997
-0.000487725
0.239789
-0.00068535
0.239558
-0.000891562
0.239273
-0.00112092
0.238934
-0.00135155
0.238539
-0.00160701
-0.00185343
0.254125
0.000658988
-0.253953
0.254294
0.000647782
0.254457
0.000629847
0.254614
0.000604062
0.254762
0.00057103
0.254899
0.000530171
0.255024
0.000482148
0.255133
0.00042607
0.255225
0.000361919
0.255297
0.000288632
0.255346
0.000205287
0.255369
0.000111402
0.255363
3.75936e-06
0.255325
-0.00010902
0.255252
-0.00023766
0.25514
-0.000376134
0.254986
-0.000531909
0.254789
-0.00069423
0.254545
-0.000876294
0.254252
-0.00105895
0.253908
-0.00126349
-0.00146024
0.270553
0.000506175
-0.270401
0.270703
0.000497961
0.270849
0.000484519
0.270988
0.000464963
0.271119
0.000439679
0.271241
0.000408364
0.271351
0.000371484
0.271449
0.00032855
0.271531
0.000279473
0.271596
0.00022361
0.271642
0.000160104
0.271664
8.87843e-05
0.271661
7.13998e-06
0.271631
-7.86896e-05
0.271569
-0.000176471
0.271475
-0.000281673
0.271344
-0.00040064
0.271174
-0.00052461
0.270962
-0.000664507
0.270708
-0.00080475
0.270407
-0.000962937
-0.00111499
0.288239
0.000368582
-0.288101
0.288374
0.00036297
0.288505
0.00035358
0.28863
0.00033951
0.288749
0.000321214
0.288859
0.000298371
0.288959
0.000271502
0.289047
0.000240237
0.289122
0.000204565
0.289181
0.000164112
0.289223
0.000118079
0.289245
6.66617e-05
0.289245
7.61106e-06
0.28922
-5.41686e-05
0.289169
-0.000124823
0.289088
-0.000200511
0.288974
-0.000286875
0.288826
-0.000376617
0.28864
-0.000478652
0.288416
-0.000580663
0.288149
-0.000696414
-0.000807712
0.307311
0.000241817
-0.307184
0.307435
0.000238486
0.307556
0.000232603
0.307672
0.000223522
0.307782
0.000211527
0.307884
0.000196506
0.307977
0.000178773
0.308059
0.000158242
0.308128
0.000134786
0.308184
0.000108351
0.308224
7.81963e-05
0.308246
4.4712e-05
0.308247
6.19379e-06
0.308227
-3.40035e-05
0.308182
-7.99928e-05
0.308111
-0.000129244
0.30801
-0.000185658
0.307878
-0.000244437
0.30771
-0.000311357
0.307508
-0.000378361
0.307266
-0.000454455
-0.000527787
0.327924
0.000121148
-0.327803
0.328043
0.000119197
0.328159
0.000116821
0.328271
0.000111858
0.328376
0.000106296
0.328474
9.83526e-05
0.328563
8.97763e-05
0.328642
7.93193e-05
0.328709
6.7647e-05
0.328763
5.46557e-05
0.328802
3.92093e-05
0.328823
2.31771e-05
0.328827
2.97836e-06
0.328808
-1.59121e-05
0.328769
-4.00994e-05
0.328703
-6.33821e-05
0.32861
-9.28076e-05
0.328487
-0.000121194
0.328331
-0.000155221
0.328141
-0.000188531
0.327912
-0.000226109
-0.000263938
0.35027
-0.350149
0.350389
0.350506
0.350618
0.350724
0.350823
0.350913
0.350992
0.351059
0.351114
0.351153
0.351177
0.351179
0.351164
0.351123
0.35106
0.350967
0.350846
0.350691
0.350502
0.350276
0.0543439
0.0462317
0.05269
0.0503233
0.0576897
0.0513673
0.0618232
0.0623441
0.0645516
0.0606531
0.0414934
0.0606363
0.0503402
0.06208
0.0499235
0.0669876
0.0574365
0.0631788
0.063585
0.0392238
0.0662303
0.0476949
0.065558
0.0505958
0.0684573
0.0545372
0.0605583
0.0661973
0.0692376
0.0446545
0.0697168
0.0501166
0.071441
0.052813
0.0580458
0.0729016
0.0423246
0.074964
0.0480542
0.0765275
0.0512495
0.0560636
0.077821
0.040716
0.0798129
0.0460622
0.0814829
0.0495795
0.0541955
0.0823907
0.039278
0.0841936
0.0442593
0.0861027
0.0476704
0.0521691
0.0873188
0.0377503
0.0891223
0.0424558
0.0910621
0.0457306
0.0500661
0.0929923
0.0362227
0.0947077
0.0407404
0.0964692
0.043969
0.0480402
0.0989091
0.0347663
0.100584
0.0390651
0.102286
0.0422672
0.0461009
0.105046
0.0332832
0.106763
0.037348
0.108519
0.0405111
0.0441764
0.111575
0.0317633
0.113288
0.0356351
0.115068
0.0387311
0.0422332
0.118489
0.0302586
0.120172
0.0339515
0.121946
0.0369567
0.0402836
0.125839
0.0287602
0.127521
0.03227
0.129295
0.0351822
0.0383376
0.133698
0.027249
0.135387
0.0305816
0.137169
0.0334002
0.0363898
0.142058
0.0257287
0.143752
0.0288876
0.145549
0.0316026
0.0344282
0.150938
0.0241975
0.152645
0.0271805
0.154466
0.0297814
0.0324448
0.160396
0.0226478
0.162122
0.0254537
0.163972
0.0279316
0.0304325
0.170474
0.0210759
0.172226
0.0237023
0.174111
0.0260465
0.0283824
0.181217
0.0194766
0.183001
0.0219184
0.18493
0.024118
0.0262852
0.192683
0.0178426
0.194508
0.0200932
0.196489
0.022137
0.024131
0.204931
0.016166
0.206807
0.0182178
0.20885
0.0200941
0.0219089
0.218027
0.0144383
0.219963
0.0162823
0.222078
0.0179786
0.019607
0.232044
0.0126501
0.234051
0.0142758
0.236251
0.0157788
0.0172124
0.247066
0.0107911
0.249155
0.0121865
0.251452
0.0134822
0.0147113
0.263185
0.00885006
0.26537
0.0100016
0.267777
0.0110747
0.0120881
0.280511
0.00681517
0.282805
0.00770716
0.285339
0.00854101
0.00932573
0.299167
0.00467286
0.301587
0.00528777
0.304263
0.00586409
0.00640508
0.319301
0.00240772
0.321864
0.00272561
0.324703
0.00302486
0.00330455
0.341094
0.34382
0.346845
)
;

boundaryField
{
    outlet
    {
        type            calculated;
        value           nonuniform 0();
    }
    upperWall
    {
        type            symmetryPlane;
        value           uniform 0;
    }
    lowerWall
    {
        type            symmetryPlane;
        value           nonuniform 0();
    }
    inlet
    {
        type            calculated;
        value           nonuniform 0();
    }
    cylinder
    {
        type            calculated;
        value           nonuniform 0();
    }
    frontAndBack
    {
        type            empty;
        value           nonuniform 0();
    }
    procBoundary6to2
    {
        type            processor;
        value           nonuniform List<scalar> 
37
(
7.1253e-05
0.000190949
0.000304669
0.000412623
0.000512925
0.000605324
0.000688069
0.00076274
0.000829243
0.000888094
0.000939717
0.000984075
0.00101971
0.00104415
0.0010541
0.00104935
0.00103807
0.0013421
0.00128514
0.00119946
0.00108089
0.000909786
0.000694947
0.000436323
0.000115139
-0.00022703
-0.000646573
-0.00109843
-0.00162407
-0.00211743
-0.002681
-0.00310096
-0.00357187
-0.00380655
-0.0040974
-0.00389249
-0.00351396
)
;
    }
    procBoundary6to5
    {
        type            processor;
        value           nonuniform List<scalar> 
63
(
-0.0160221
0.000687795
-0.0028934
-0.0048557
-0.0236358
-0.0124752
-0.0152683
-0.0427689
-0.0226064
-0.0238836
-0.0253521
-0.0444359
-0.0269513
-0.0287518
-0.0302557
-0.0479775
0.00697592
0.00236959
0.00801223
0.00612323
0.00403387
0.00184985
0.00784814
-6.21448e-05
0.00788338
-0.00283655
0.00729778
-0.00613237
0.00588196
-0.00987672
0.00411047
-0.0138658
-0.0525981
-0.0559148
-0.0613154
-0.066177
0.0392035
-0.0705717
-0.0762123
-0.0809527
-0.085791
-0.0914646
-0.0974527
-0.103563
-0.110055
-0.116984
-0.124341
-0.132187
-0.140537
-0.149407
-0.158846
-0.168902
-0.179618
-0.191049
-0.203255
-0.2163
-0.230256
-0.245206
-0.261244
-0.278476
-0.297025
-0.317036
-0.338686
)
;
    }
    procBoundary6to7
    {
        type            processor;
        value           nonuniform List<scalar> 
42
(
-0.0411512
-0.0277745
-0.0127935
-0.000374878
0.00963204
0.0182341
0.0295146
0.0299654
0.0349369
0.0373598
0.039001
0.042563
0.0560561
0.060118
0.0622388
0.0673279
0.0721949
0.0772084
0.0822562
0.0875924
0.0933895
0.0996183
0.106187
0.113097
0.120399
0.128142
0.136366
0.145094
0.154358
0.164193
0.174641
0.185754
0.197588
0.210207
0.223681
0.238088
0.253515
0.270062
0.287842
0.306986
0.327648
0.350012
)
;
    }
}


// ************************************************************************* //
