/*--------------------------------*- C++ -*----------------------------------*\
| =========                 |                                                 |
| \\      /  F ield         | OpenFOAM: The Open Source CFD Toolbox           |
|  \\    /   O peration     | Version:                                        |
|   \\  /    A nd           | Website:  www.openfoam.com                      |
|    \\/     M anipulation  |                                                 |
\*---------------------------------------------------------------------------*/
FoamFile
{
    version     2.0;
    format      ascii;
    class       volScalarField;
    location    "139.1";
    object      p;
}
// * * * * * * * * * * * * * * * * * * * * * * * * * * * * * * * * * * * * * //

dimensions      [0 2 -2 0 0 0 0];


internalField   nonuniform List<scalar> 
1153
(
-0.973303
-0.970098
-0.964441
-0.95244
-0.938036
-0.921155
-0.891405
-0.840667
-0.767631
-0.676157
-0.971369
-0.970227
-0.965496
-0.951421
-0.928106
-0.894066
-0.848605
-0.789637
-0.717325
-0.634579
-0.547874
-0.462773
-0.975046
-0.977749
-0.973577
-0.954701
-0.915157
-0.86242
-0.802275
-0.737521
-0.669824
-0.599348
-0.526662
-0.455441
-0.388212
-0.326898
-0.980092
-0.987327
-0.973411
-0.941659
-0.889049
-0.827017
-0.76222
-0.698454
-0.636495
-0.574386
-0.511809
-0.450251
-0.391425
-0.3377
-0.290312
-0.248331
-0.211228
-0.985817
-0.983079
-0.96901
-0.921922
-0.861967
-0.79802
-0.73377
-0.6723
-0.613906
-0.557516
-0.501782
-0.446806
-0.394467
-0.345474
-0.300787
-0.261498
-0.226622
-0.195466
-0.167663
-0.142586
-1.0022
-0.974293
-0.95384
-0.901311
-0.837044
-0.771277
-0.707644
-0.64726
-0.590249
-0.536451
-0.485099
-0.436171
-0.38957
-0.34615
-0.306701
-0.270747
-0.238594
-0.209346
-0.18229
-0.157082
-1.02101
-0.995998
-0.937727
-0.871336
-0.80458
-0.740121
-0.678394
-0.620241
-0.566242
-0.516165
-0.469734
-0.42569
-0.383864
-0.344513
-0.307852
-0.274544
-0.243782
-0.216066
-0.191605
-0.168534
-0.994497
-0.991086
-0.915918
-0.838281
-0.769494
-0.707577
-0.64998
-0.595974
-0.545579
-0.498774
-0.454589
-0.41305
-0.373966
-0.337443
-0.303746
-0.272738
-0.244837
-0.218888
-0.194547
-0.172532
-0.952306
-0.940564
-0.877101
-0.804311
-0.737087
-0.676302
-0.62047
-0.568189
-0.51928
-0.473791
-0.431903
-0.393179
-0.357402
-0.324317
-0.293797
-0.265568
-0.239325
-0.215869
-0.194318
-0.17358
-0.927589
-0.897957
-0.842255
-0.772082
-0.704918
-0.643321
-0.587293
-0.536296
-0.489676
-0.447162
-0.408116
-0.372062
-0.338629
-0.307592
-0.278798
-0.252773
-0.229134
-0.207176
-0.187379
-0.169452
-0.625654
-0.637963
-0.678635
-0.62758
-0.654572
-0.702542
-0.765964
-0.672962
-0.711431
-0.77306
-0.841706
-0.776172
-0.819402
-0.889803
-0.963198
-0.903391
-0.954867
-1.02243
-1.09629
-1.00952
-1.0574
-1.13108
-1.19738
-1.24608
-1.05391
-1.08984
-1.15023
-1.20584
-1.24321
-1.25361
-1.04026
-1.06105
-1.10135
-1.13704
-1.16058
-1.16387
-1.13943
-1.00243
-1.00797
-1.02487
-1.04386
-1.05315
-1.05146
-1.03186
-0.984947
-0.982627
-0.981022
-0.982506
-0.980187
-0.973743
-0.965482
-0.945963
-0.903112
-0.830626
-0.151135
-0.152172
-0.149618
-0.143013
-0.130645
-0.131693
-0.130412
-0.124969
-0.117389
-0.10636
-0.113684
-0.11058
-0.103868
-0.0974341
-0.0897414
-0.097575
-0.0940791
-0.087896
-0.0827123
-0.0776175
-0.0828361
-0.0797384
-0.074151
-0.069266
-0.06484
-0.0582259
-0.0701309
-0.0672486
-0.0620665
-0.0567778
-0.0520989
-0.0457935
-0.0583421
-0.0555155
-0.050871
-0.0455817
-0.0412521
-0.0369411
-0.0476056
-0.0450783
-0.0410647
-0.0364648
-0.0329849
-0.0303713
-0.037995
-0.0358544
-0.032447
-0.0286888
-0.0254455
-0.0224684
-0.0294154
-0.0275824
-0.0245583
-0.0210366
-0.0175525
-0.0147637
-0.0217672
-0.0201543
-0.017569
-0.0145551
-0.0119434
-0.0105372
-0.0151425
-0.0138122
-0.0118241
-0.00954273
-0.00752297
-0.00579022
-0.00940404
-0.00821906
-0.00647984
-0.00428763
-0.00197351
5.09821e-06
-0.0042371
-0.00309815
-0.00151939
0.00035759
0.00203734
0.0029309
0.000342647
0.00126663
0.00246779
0.00383742
0.00510491
0.00613618
0.00439471
0.00513782
0.00613071
0.00736389
0.00865965
0.00974032
0.00807826
0.00870136
0.00951307
0.0105055
0.0114648
0.0121208
0.0113319
0.0118065
0.0123974
0.0131217
0.0138652
0.0144813
0.0142112
0.0145572
0.015007
0.0155876
0.0162167
0.0167273
0.0167798
0.0170101
0.0173213
0.0177405
0.0181964
0.0185589
0.0190355
0.0191558
0.0193248
0.0195948
0.0199241
0.0202232
0.0209677
0.0210175
0.0210837
0.0212434
0.0214812
0.0217184
0.022595
0.0226134
0.0226098
0.0226679
0.0227976
0.0229475
0.023904
0.0239035
0.0238559
0.0238481
0.0239158
0.0240315
0.0249393
0.0249388
0.0248899
0.0248605
0.0248851
0.0249453
0.0257492
0.0257374
0.0256811
0.0256264
0.0256062
0.0256197
0.0263708
0.0263352
0.0262754
0.0262197
0.0261921
0.0261947
0.0267971
0.026742
0.0266819
0.0266302
0.0265972
0.0265819
0.0269796
0.0269342
0.0268866
0.0268427
0.0268084
0.0267851
0.0270994
0.0270685
0.0270364
0.0270055
0.0269775
0.0269536
0.00378919
0.0045088
0.0046068
0.00414166
0.00292489
0.000653821
-0.00272405
-0.00719728
-0.0128373
-0.0198832
-0.0285992
-0.0394776
-0.0529903
-0.0697161
-0.0910045
-0.118614
-0.154752
-0.201201
-0.261354
-0.358851
-0.0167756
-0.0165663
-0.0195558
-0.0241515
-0.0291774
-0.0347081
-0.0410814
-0.0485865
-0.0575431
-0.068348
-0.0813527
-0.0968145
-0.115561
-0.138575
-0.166985
-0.20207
-0.246108
-0.30116
-0.369045
-0.483891
-0.0350228
-0.0369654
-0.0430886
-0.0512512
-0.0599867
-0.0688917
-0.0786198
-0.0896128
-0.102091
-0.116384
-0.133221
-0.153231
-0.176945
-0.205142
-0.239158
-0.280899
-0.332898
-0.396472
-0.471329
-0.598035
-0.0554118
-0.0597556
-0.0681664
-0.0785646
-0.0897477
-0.101461
-0.114089
-0.128361
-0.144616
-0.162865
-0.183458
-0.20712
-0.234905
-0.267999
-0.30759
-0.35514
-0.413627
-0.484569
-0.563843
-0.699328
-0.0771937
-0.0838134
-0.0943264
-0.106759
-0.119785
-0.133545
-0.148685
-0.165455
-0.184425
-0.206064
-0.230586
-0.258589
-0.290754
-0.328012
-0.371525
-0.423025
-0.485981
-0.564089
-0.647919
-0.783087
-0.0983918
-0.106871
-0.119223
-0.133567
-0.14867
-0.16447
-0.181809
-0.201246
-0.222825
-0.247098
-0.274536
-0.305476
-0.340775
-0.381738
-0.429585
-0.485125
-0.551024
-0.63417
-0.720596
-0.84639
-0.117777
-0.128466
-0.142485
-0.158106
-0.174949
-0.193033
-0.212592
-0.234279
-0.258367
-0.285088
-0.31516
-0.34926
-0.387848
-0.431988
-0.482442
-0.540148
-0.606937
-0.690549
-0.780943
-0.892456
-0.134404
-0.147329
-0.163257
-0.180364
-0.198409
-0.218311
-0.240327
-0.264513
-0.291286
-0.320945
-0.353682
-0.389948
-0.429853
-0.475991
-0.528831
-0.589095
-0.657773
-0.737736
-0.823204
-0.918034
-0.148741
-0.163782
-0.180801
-0.199455
-0.219617
-0.24106
-0.264847
-0.291167
-0.319997
-0.35159
-0.386398
-0.425008
-0.468124
-0.516522
-0.5709
-0.631812
-0.699829
-0.775964
-0.852353
-0.92936
-0.160189
-0.177081
-0.195388
-0.215107
-0.237135
-0.261421
-0.287387
-0.315721
-0.346889
-0.381155
-0.418794
-0.459802
-0.504431
-0.553611
-0.608431
-0.669616
-0.736997
-0.809883
-0.874953
-0.926531
0.215738
0.228653
0.242956
0.258768
0.276142
0.295071
0.315495
0.337307
0.360445
0.384798
0.410223
0.436447
0.462958
0.488805
0.512636
0.531654
0.543446
0.20839
0.220824
0.234519
0.249664
0.266401
0.284743
0.304586
0.325787
0.348227
0.371778
0.396335
0.42164
0.447221
0.472138
0.494983
0.512604
0.522829
0.196667
0.208333
0.221261
0.235568
0.251369
0.268639
0.287274
0.307133
0.328113
0.350081
0.372885
0.396179
0.419412
0.441537
0.461143
0.47569
0.483404
0.172065
0.181135
0.191774
0.203723
0.216953
0.231496
0.247295
0.264184
0.282013
0.300705
0.320185
0.340261
0.36048
0.380117
0.398014
0.412828
0.42167
0.423837
0.154475
0.162215
0.171705
0.182412
0.194155
0.206948
0.220765
0.235411
0.250667
0.266393
0.282523
0.298867
0.314968
0.329973
0.342482
0.351012
0.352638
0.346643
0.130305
0.133856
0.140147
0.148346
0.157618
0.167553
0.178125
0.189413
0.2013
0.213524
0.225803
0.237969
0.249798
0.260792
0.270124
0.27627
0.277358
0.269772
0.252133
0.110713
0.108941
0.110736
0.115569
0.122334
0.129974
0.137936
0.146048
0.154361
0.162867
0.171412
0.17971
0.18741
0.194125
0.199298
0.201999
0.200611
0.193132
0.175422
0.14424
0.0891948
0.0848739
0.0849871
0.0884943
0.0937346
0.0995304
0.105304
0.11086
0.116114
0.121069
0.125572
0.129382
0.132136
0.133309
0.132045
0.127384
0.117757
0.101085
0.0723322
0.0249489
0.0656542
0.0593159
0.0583253
0.0607817
0.064205
0.0674522
0.0702332
0.0726081
0.0744997
0.075761
0.0761648
0.0754013
0.0729446
0.0682395
0.0604938
0.0483399
0.0297737
0.00281082
-0.0370768
-0.100488
0.0371748
0.0311644
0.0310968
0.0328889
0.0343776
0.0348422
0.0343385
0.0331157
0.031154
0.0282548
0.0241168
0.0184709
0.0108019
0.000122631
-0.0146964
-0.0346687
-0.0616929
-0.0982001
-0.148868
-0.230771
0.095041
0.0750324
0.0619202
0.0511844
0.0442816
0.0270599
0.0329117
0.0196809
0.0256065
0.0142068
0.0196483
0.00957013
0.0149013
0.00600044
0.011369
0.00344146
0.00886462
0.0018007
0.00721142
0.000963769
0.00629897
0.000781609
0.00609096
0.00119591
0.0064689
0.00210958
0.00728763
0.00344002
0.00847873
0.00512062
0.00991418
0.00705011
0.0114815
0.00913952
0.0130889
0.011256
0.0147027
0.0133082
0.0163254
0.01525
0.0179532
0.0170859
0.019548
0.0188257
0.0210629
0.0204656
0.0224598
0.0219819
0.0237252
0.023356
0.0248553
0.0245826
0.0258595
0.02567
0.0267418
0.0266263
0.0274254
0.0273671
0.0278402
0.0277784
0.028805
0.0285283
0.0289037
0.0286017
0.00403536
-0.0196665
-0.0379029
-0.0551002
-0.0742602
-0.0936186
-0.110196
-0.124837
-0.136611
-0.145491
0.00244856
-0.0207023
-0.0409292
-0.0565183
-0.0723825
-0.0882262
-0.102199
-0.114446
-0.123292
-0.129675
-0.000200318
-0.0205106
-0.0404037
-0.0553619
-0.0684719
-0.080769
-0.09223
-0.102227
-0.108944
-0.113915
-0.00282718
-0.0205472
-0.0391916
-0.0539581
-0.0653208
-0.0750457
-0.0836623
-0.0913711
-0.0955483
-0.099212
-0.00494105
-0.0204702
-0.037113
-0.0507432
-0.0606409
-0.0681858
-0.074268
-0.0798297
-0.0822997
-0.0846726
-0.00647383
-0.0200951
-0.0345217
-0.0466347
-0.0553965
-0.0614784
-0.0657035
-0.0692798
-0.0705536
-0.0715921
-0.00721684
-0.0192347
-0.0314709
-0.041756
-0.0494746
-0.0544474
-0.0573145
-0.0591651
-0.0596008
-0.059606
-0.00715262
-0.0177695
-0.0279463
-0.0364578
-0.0431823
-0.0473651
-0.0493522
-0.0498598
-0.0495824
-0.0488991
-0.00636595
-0.015583
-0.0239727
-0.0309458
-0.0366668
-0.0402944
-0.0416958
-0.041316
-0.0403836
-0.0392607
-0.00502605
-0.0128565
-0.0196797
-0.025362
-0.0301473
-0.0333086
-0.034335
-0.0335089
-0.0320717
-0.0306721
-0.00329862
-0.00980911
-0.0152091
-0.0197711
-0.0237556
-0.0264889
-0.0272808
-0.0263122
-0.0246208
-0.0230339
-0.00125115
-0.00660291
-0.0107594
-0.0143223
-0.0176154
-0.0199685
-0.0205978
-0.0196549
-0.0179619
-0.0163641
0.00103263
-0.00337562
-0.0065041
-0.00915364
-0.0118047
-0.0138196
-0.0143571
-0.0135126
-0.0119945
-0.010541
0.00349412
-0.00018338
-0.00250944
-0.00436495
-0.00640615
-0.00811836
-0.00862937
-0.00791563
-0.00658863
-0.00529666
0.00608943
0.00297505
0.00120609
-1.29803e-05
-0.00147647
-0.00288403
-0.00340568
-0.00284939
-0.00170757
-0.000574856
0.0087364
0.00611046
0.00469444
0.00391311
0.00294758
0.00185957
0.00133247
0.00169743
0.00263782
0.00361683
0.0113289
0.00919177
0.00800778
0.00745595
0.00684551
0.0060691
0.00559354
0.00580149
0.00654957
0.00739712
0.013759
0.012119
0.0111449
0.0106871
0.010268
0.00974084
0.00938445
0.00951399
0.0100867
0.0107684
0.0159808
0.0147893
0.0140413
0.0136336
0.0132868
0.0129152
0.0126946
0.0128224
0.0132698
0.0137917
0.0179915
0.0171459
0.0166114
0.0162668
0.0159482
0.0156541
0.0155362
0.0156987
0.0160831
0.016484
0.0198236
0.019216
0.0188437
0.0185708
0.0182803
0.0180228
0.017953
0.0181397
0.0184945
0.0188294
0.0214871
0.0210392
0.0207715
0.0205592
0.0203068
0.0200741
0.0200125
0.0201879
0.0205123
0.0208098
0.0229813
0.0226468
0.022442
0.0222698
0.0220518
0.0218385
0.0217646
0.0219025
0.022184
0.0224545
0.0243102
0.0240609
0.0238924
0.0237388
0.0235445
0.0233469
0.0232539
0.0233382
0.0235567
0.0237831
0.0254849
0.0253037
0.0251586
0.0250101
0.0248257
0.0246355
0.0245193
0.0245404
0.0246789
0.0248434
0.026522
0.0264052
0.0262824
0.0261319
0.0259426
0.0257443
0.0255977
0.0255534
0.0256057
0.0256947
0.0273331
0.0272877
0.0272116
0.0270848
0.0269041
0.0266978
0.0265168
0.0264052
0.026369
0.0263733
0.0277499
0.0277162
0.0276609
0.0275689
0.0274343
0.027271
0.0271097
0.0269811
0.0268969
0.0268438
0.028227
0.0279451
0.0277168
0.0275385
0.0273969
0.0272819
0.0271893
0.0271182
0.0270648
0.0270215
0.0282771
0.0279707
0.0277183
0.0275241
0.0273837
0.027288
0.0272255
0.0271846
0.0271547
0.0271278
)
;

boundaryField
{
    outlet
    {
        type            fixedValue;
        value           nonuniform 0();
    }
    upperWall
    {
        type            symmetryPlane;
    }
    lowerWall
    {
        type            symmetryPlane;
    }
    inlet
    {
        type            zeroGradient;
    }
    cylinder
    {
        type            zeroGradient;
    }
    frontAndBack
    {
        type            empty;
    }
    procBoundary5to1
    {
        type            processor;
        value           nonuniform List<scalar> 
20
(
-0.640818
-0.64308
-0.677719
0.218933
0.23187
0.246436
0.262594
0.280233
0.299253
0.319614
0.341299
0.364276
0.388511
0.413814
0.439813
0.465931
0.491092
0.513987
0.532397
0.544013
)
;
    }
    procBoundary5to4
    {
        type            processor;
        value           nonuniform List<scalar> 
45
(
0.2041
0.197148
0.186336
0.186336
0.164905
0.149064
0.149064
0.129592
0.129592
0.113008
0.113008
0.0972017
0.0804654
0.0804654
0.0676004
0.0552756
0.0441489
0.0353299
0.0285324
0.023128
0.0188134
0.0155304
0.0131843
0.0116185
0.0107754
0.0105847
0.0108606
0.0115085
0.012401
0.0134408
0.0146082
0.0159276
0.0173785
0.0188909
0.0203712
0.0217519
0.0230111
0.0241537
0.0251812
0.026101
0.0269119
0.0275453
0.0279683
0.0290486
0.0291722
)
;
    }
    procBoundary5to6
    {
        type            processor;
        value           nonuniform List<scalar> 
63
(
-0.57447
-0.731777
-0.57447
-0.471977
-0.383628
-0.383628
-0.312067
-0.273004
-0.273004
-0.226872
-0.187117
-0.178057
-0.178057
-0.148855
-0.121769
-0.115766
-0.737508
-0.737508
-0.834844
-0.906495
-1.02442
-1.15384
-1.15384
-1.26358
-1.26358
-1.23127
-1.23127
-1.08195
-1.08195
-0.90789
-0.90789
-0.731777
-0.115766
-0.0927647
-0.0802503
-0.0707859
-0.0707859
-0.0515263
-0.0399004
-0.0335584
-0.0275003
-0.0186355
-0.0125214
-0.00952057
-0.00342346
0.00125104
0.00327899
0.00726799
0.010445
0.0125027
0.014989
0.0170664
0.0188004
0.0204393
0.0218815
0.0230587
0.0241385
0.0249959
0.0256441
0.0262103
0.0265745
0.0267694
0.026934
)
;
    }
}


// ************************************************************************* //
