/*--------------------------------*- C++ -*----------------------------------*\
| =========                 |                                                 |
| \\      /  F ield         | OpenFOAM: The Open Source CFD Toolbox           |
|  \\    /   O peration     | Version:                                        |
|   \\  /    A nd           | Website:  www.openfoam.com                      |
|    \\/     M anipulation  |                                                 |
\*---------------------------------------------------------------------------*/
FoamFile
{
    version     2.0;
    format      ascii;
    class       surfaceScalarField;
    location    "192.1";
    object      phi;
}
// * * * * * * * * * * * * * * * * * * * * * * * * * * * * * * * * * * * * * //

dimensions      [0 3 -1 0 0 0 0];
oriented        oriented;


internalField   nonuniform List<scalar> 
2202
(
0.0358987
-0.090405
0.0320941
-0.0824811
0.0278629
-0.0906371
0.0222465
-0.0620489
0.0217579
-0.0229643
0.0267879
0.0230772
0.0317821
0.076968
0.0357328
0.0763994
0.0342004
0.113968
0.0286697
0.110247
0.0269771
0.0719994
0.0341508
0.0388502
0.0370429
-0.0483934
0.0390203
-0.0644751
0.0379182
-0.103793
0.0375832
-0.142344
0.0391708
-0.06247
0.0439413
-0.0399186
0.0466569
0.0621932
0.0465197
0.1483
0.0467934
0.107812
0.0504181
0.107172
0.0538365
-0.0347386
0.0538069
-0.161473
0.053427
-0.114753
0.0545341
-0.115943
0.0574765
0.0485512
0.0563597
0.23692
0.0550376
0.0590681
-0.0613503
0.0341903
-0.0881628
0.0301459
-0.0784368
0.0241215
-0.0846126
0.0187997
-0.0567271
0.0187595
-0.0229242
0.0260369
0.0157998
0.0321584
0.0708465
0.0363262
0.0722316
0.0363691
0.113925
0.030866
0.11575
0.0284586
0.0744068
0.0351601
0.0321487
0.0382539
-0.0514872
0.0409819
-0.0672031
0.0390794
-0.10189
0.0376932
-0.140958
0.0393502
-0.064127
0.0433313
-0.0438997
0.0457402
0.0597843
0.0460175
0.148023
0.0463113
0.107518
0.0505793
0.102904
0.0541236
-0.0382828
0.0538145
-0.161163
0.0538996
-0.114838
0.0547857
-0.116829
0.0566374
0.0466995
0.0555527
0.238005
0.0548452
0.0597756
-0.0598258
0.0332785
-0.0846472
0.028927
-0.0740853
0.0217936
-0.0774792
0.0173047
-0.0522382
0.0174426
-0.023062
0.0267017
0.0065407
0.0339175
0.0636307
0.0379333
0.0682157
0.0406287
0.11123
0.0364136
0.119965
0.032294
0.0785265
0.0372509
0.0271917
0.0398107
-0.054047
0.0418251
-0.0692174
0.039007
-0.099072
0.0370648
-0.139015
0.0390094
-0.0660717
0.0425352
-0.0474255
0.0453332
0.0569863
0.0462851
0.147071
0.0462521
0.107551
0.0507925
0.0983637
0.0541712
-0.0416615
0.0534329
-0.160425
0.0539793
-0.115384
0.0548742
-0.117724
0.0556802
0.0458935
0.054667
0.239018
0.0546383
0.0598043
-0.0584298
0.0339471
-0.0803343
0.0295798
-0.0697181
0.0218839
-0.0697832
0.0183065
-0.0486609
0.0182264
-0.0229819
0.0276122
-0.00284514
0.0363562
0.0548867
0.03996
0.064612
0.0440221
0.107168
0.0409581
0.123029
0.0362262
0.0832583
0.0393101
0.0241079
0.0423269
-0.0570639
0.0443653
-0.0712558
0.0401831
-0.0948898
0.0372708
-0.136103
0.0394555
-0.0682564
0.0422579
-0.0502278
0.0448143
0.0544298
0.0459653
0.14592
0.0458361
0.107681
0.0508553
0.0933445
0.054454
-0.0452602
0.0534552
-0.159426
0.054194
-0.116123
0.0549292
-0.118459
0.0544855
0.0463372
0.0534944
0.240009
0.0542573
0.0590413
-0.0572331
0.0343263
-0.0742815
0.0302321
-0.0656239
0.022707
-0.0622581
0.0196495
-0.0456034
0.0196781
-0.0230105
0.0274157
-0.0105827
0.0395728
0.0427295
0.0433929
0.0607919
0.0485804
0.10198
0.048474
0.123136
0.0438897
0.0878426
0.0434501
0.0245475
0.0445884
-0.0582021
0.045624
-0.0722914
0.0403311
-0.0895969
0.0368553
-0.132627
0.0393166
-0.0707177
0.0415709
-0.0524822
0.0446626
0.0513381
0.0462525
0.14433
0.046134
0.107799
0.0510407
0.0884378
0.0544162
-0.0486358
0.0530147
-0.158025
0.053822
-0.11693
0.0545315
-0.119169
0.053163
0.0477057
0.0523568
0.240816
0.0539179
0.0574803
-0.0561816
0.0352433
0.0312603
-0.0616409
0.0242458
-0.0552436
0.0212986
-0.0426562
0.0222704
-0.0239824
0.0284171
-0.0167293
0.0420101
0.0291364
0.0466034
0.0561986
0.0521206
0.0964632
0.0535637
0.121693
0.0500405
0.0913658
0.0479084
0.0266796
0.0480305
-0.0583242
0.0483226
-0.0725835
0.0415176
-0.0827919
0.0371
-0.12821
0.0394729
-0.0730906
0.0412323
-0.0542415
0.0444648
0.0481056
0.0461145
0.14268
0.0463847
0.107529
0.0513207
0.0835018
0.0546295
-0.0519445
0.0529534
-0.156349
0.0534754
-0.117452
0.0539414
-0.119635
0.0516184
0.0500287
0.0510432
0.241391
0.0534814
0.0550421
-0.0553196
0.0324269
-0.0578042
0.0273101
-0.0501268
0.0239416
-0.0392877
0.0240447
-0.0240855
0.0279489
-0.0206335
0.0415825
0.0155028
0.0509026
0.0468786
0.0577434
0.0896224
0.0620884
0.117347
0.0602725
0.0931818
0.0544537
0.0324984
0.05122
-0.0550905
0.0497476
-0.0711112
0.0422383
-0.0752826
0.0371789
-0.12315
0.0395044
-0.0754161
0.0406925
-0.0554296
0.0440965
0.0447016
0.0465747
0.140202
0.047434
0.10667
0.0519127
0.079023
0.0545816
-0.0546134
0.0525115
-0.154279
0.0525978
-0.117538
0.0528279
-0.119865
0.0499001
0.0529565
0.0498798
0.241411
0.0531347
0.0517872
-0.0545779
0.032747
-0.0536063
0.0293598
-0.0467397
0.0260442
-0.0359721
0.0244931
-0.0225344
0.0275717
-0.023712
0.0406646
0.00240989
0.051905
0.0356382
0.0601502
0.0813771
0.0660263
0.111471
0.0649646
0.0942435
0.0590262
0.0384367
0.0542114
-0.0502757
0.0517068
-0.0686066
0.0436081
-0.0671839
0.0372504
-0.116792
0.0392901
-0.0774558
0.0403033
-0.0564429
0.0435268
0.0414782
0.0463267
0.137402
0.0480821
0.104914
0.0525388
0.0745664
0.0547406
-0.0568152
0.0523368
-0.151875
0.0518434
-0.117045
0.0515525
-0.119574
0.047964
0.0565451
0.0485514
0.240824
0.0527091
0.0476295
-0.0539913
0.0335885
-0.0485347
0.0313498
-0.044501
0.0289694
-0.0335917
0.0255778
-0.0191429
0.0260983
-0.0242326
0.0376146
-0.00910637
0.0515444
0.0217084
0.0635206
0.0694009
0.0704113
0.104581
0.0705801
0.0940747
0.0636234
0.0453934
0.0564994
-0.0431516
0.052466
-0.0645732
0.0442848
-0.0590027
0.0371588
-0.109666
0.0391494
-0.0794464
0.040397
-0.0576905
0.0435186
0.0383565
0.0468764
0.134044
0.0494821
0.102309
0.0533029
0.0707456
0.0545605
-0.0580728
0.0515917
-0.148906
0.0504972
-0.11595
0.0497277
-0.118805
0.0458449
0.0604279
0.0474192
0.239249
0.0523528
0.0426959
-0.0534717
0.0340474
0.0318957
-0.0423493
0.0309498
-0.0326458
0.0268981
-0.0150911
0.0239843
-0.0213188
0.0332393
-0.0183614
0.0470559
0.00789176
0.0605655
0.0558913
0.0707533
0.094393
0.0729008
0.0919271
0.065144
0.0531502
0.05812
-0.0361276
0.0535573
-0.0600105
0.0447094
-0.0501548
0.037106
-0.102063
0.0385079
-0.0808483
0.0396939
-0.0588766
0.0428551
0.0351953
0.0463904
0.130509
0.0497366
0.0989626
0.0536894
0.0667928
0.0543602
-0.0587436
0.050906
-0.145452
0.0491374
-0.114182
0.0477219
-0.117389
0.0435967
0.0645531
0.0463091
0.236537
0.0519301
0.0370749
-0.053068
0.0448706
-0.0373383
0.0413334
-0.0291086
0.0349706
-0.0087284
0.0304577
-0.0168059
0.0347872
-0.0226909
0.0391912
0.00348782
0.0463043
0.0487782
0.0544539
0.0862434
0.0613265
0.0850546
0.0644383
0.0500384
0.0658111
-0.0375004
0.0628293
-0.0570286
0.0538939
-0.0412194
0.0471185
-0.0952876
0.0454911
-0.0792209
0.039832
-0.0532175
0.0350724
0.039955
0.0361988
0.129382
0.04344
0.0917215
0.0521426
0.0580901
0.056316
-0.062917
0.0521766
-0.141313
0.0486878
-0.110693
0.0434536
-0.112155
0.0358905
0.0721162
0.0402514
0.232176
0.0471821
0.0301442
-0.0521286
0.0463828
-0.0321889
0.044409
-0.0271348
0.0390571
-0.00337644
0.0334237
-0.0111725
0.0364222
-0.0256893
0.041765
-0.00185502
0.0501909
0.0403523
0.0598769
0.0765574
0.0691416
0.0757899
0.0725581
0.0466218
0.0712847
-0.0362269
0.0663813
-0.0521252
0.0572027
-0.0320409
0.0508503
-0.0889351
0.0487194
-0.0770901
0.0434723
-0.0479704
0.0379179
0.0455094
0.0398485
0.127452
0.0487351
0.0828349
0.0577439
0.0490813
0.0606836
-0.0658567
0.0553537
-0.135983
0.0507975
-0.106137
0.0446313
-0.105989
0.0363236
0.0804239
0.0424928
0.226007
0.0503332
0.0223038
-0.0509278
0.0523341
-0.0260992
0.051099
-0.0258997
0.0476488
7.37625e-05
0.0400768
-0.00360054
0.0402047
-0.0258172
0.0454269
-0.00707723
0.0539966
0.0317826
0.0648518
0.0657022
0.0767702
0.0638715
0.0804377
0.0429543
0.0771398
-0.0329291
0.0718398
-0.0468252
0.0634341
-0.0236352
0.0567343
-0.0822353
0.0534177
-0.0737735
0.0478909
-0.0424436
0.041505
0.0518953
0.0441512
0.124805
0.0546103
0.0723758
0.0636215
0.0400701
0.0652052
-0.0674404
0.0584655
-0.129243
0.0525619
-0.100233
0.045353
-0.0987799
0.0367418
0.0890351
0.0452733
0.217475
0.0538115
0.0137656
-0.0493411
0.0537118
-0.0199852
0.0528113
-0.0249992
0.0542762
-0.00139122
0.0493353
0.00134035
0.0469049
-0.0233868
0.0497117
-0.00988397
0.0572992
0.0241951
0.068164
0.0548374
0.0819585
0.0500769
0.0866025
0.0383103
0.0805943
-0.0269209
0.0727022
-0.038933
0.06538
-0.0163131
0.0597214
-0.0765767
0.0565283
-0.0705804
0.051187
-0.0371022
0.0449078
0.0581745
0.0492742
0.120439
0.0607952
0.0608548
0.069416
0.0314494
0.0696181
-0.0676425
0.0611102
-0.120735
0.0533062
-0.0924289
0.0452668
-0.0907405
0.0372982
0.0970037
0.0487062
0.206067
0.0576243
0.00484749
-0.0472028
0.0641341
-0.0146157
0.0587185
-0.0195837
0.0616823
-0.00435502
0.0596375
0.00338522
0.0542337
-0.017983
0.0530679
-0.00871823
0.0574229
0.0198401
0.0687836
0.0434768
0.0848499
0.0340106
0.0894331
0.0337271
0.0828127
-0.0203005
0.0777869
-0.0339073
0.07331
-0.0118361
0.06617
-0.0694366
0.0612284
-0.0656389
0.0551771
-0.0310509
0.0490705
0.064281
0.0555105
0.113999
0.0675921
0.0487732
0.0755175
0.023524
0.0741178
-0.0662428
0.0636746
-0.110292
0.0539204
-0.0826747
0.0446015
-0.0814216
0.0377658
0.103839
0.0529368
0.190896
0.0619808
-0.00419647
-0.0442733
0.0651259
-0.0110938
0.0612002
-0.0156579
0.06425
-0.00740486
0.0651493
0.00248595
0.0598971
-0.0127308
0.0573073
-0.00612838
0.0610603
0.016087
0.0716545
0.0328826
0.0854941
0.020171
0.0908181
0.0284031
0.0849681
-0.0144505
0.0787141
-0.0276532
0.0752905
-0.00841262
0.0684352
-0.0625813
0.0627069
-0.0599106
0.0568279
-0.0251719
0.0532818
0.0678271
0.0630906
0.10419
0.0747841
0.0370796
0.0812972
0.017011
0.078466
-0.0634117
0.0657238
-0.0975499
0.0534965
-0.0704475
0.0429316
-0.0708567
0.0385462
0.108225
0.0582652
0.171177
0.0668901
-0.0128213
-0.0402534
0.0731257
-0.00833142
0.0689048
-0.011437
0.0691663
-0.00766638
0.0708583
0.000793944
0.0662362
-0.00810871
0.0639494
-0.0038416
0.0690836
0.0109529
0.0765581
0.0254081
0.0850602
0.0116689
0.0898116
0.0236517
0.0851233
-0.0097622
0.0811748
-0.0237047
0.0814957
-0.00873357
0.0735565
-0.0546421
0.064085
-0.0504391
0.0583023
-0.0193892
0.058917
0.0672125
0.0718803
0.0912271
0.0822047
0.0267552
0.0870547
0.012161
0.0826762
-0.0590332
0.068124
-0.0829977
0.0540096
-0.056333
0.0415715
-0.0584186
0.0401701
0.109626
0.0649558
0.146392
0.0724836
-0.0203491
-0.0348048
0.0778782
-0.00646599
0.0751407
-0.00869957
0.0741011
-0.00662673
0.0757421
-0.000847049
0.0728504
-0.00521707
0.0709803
-0.00197149
0.0751843
0.00674892
0.080881
0.0197114
0.085617
0.00693289
0.0906311
0.0186376
0.0891962
-0.0083273
0.0842816
-0.0187901
0.0826765
-0.00712844
0.0730329
-0.0449985
0.061518
-0.0389241
0.0571256
-0.0149968
0.0634177
0.0609203
0.0805231
0.0741217
0.0890241
0.0182542
0.092344
0.00884109
0.0868088
-0.0534979
0.0701731
-0.066362
0.0548208
-0.0409808
0.041651
-0.0452487
0.0449055
0.106372
0.0734286
0.117868
0.0785074
-0.0254279
-0.0276235
0.0833113
-0.0044292
0.0816361
-0.00702432
0.0799111
-0.00490178
0.081014
-0.00194993
0.0793545
-0.00355762
0.0780989
-0.000715839
0.0811035
0.00374433
0.0855257
0.0152892
0.0880766
0.00438192
0.0931942
0.01352
0.0922939
-0.00742699
0.0875873
-0.0140835
0.0894297
-0.00897087
0.0813086
-0.0368774
0.0673973
-0.0250128
0.0622735
-0.00987294
0.0726283
0.0505655
0.0907477
0.0560023
0.0951566
0.0138454
0.0959209
0.00807671
0.0892928
-0.0468698
0.0740847
-0.051154
0.0600013
-0.0268974
0.0445752
-0.0298227
0.0524369
0.0985099
0.0828087
0.0874966
0.0847086
-0.0273277
-0.0183004
0.0893943
-0.00306712
0.0880492
-0.00567927
0.0864693
-0.00332183
0.0872297
-0.00271036
0.0860457
-0.00237363
0.0854781
-0.000148244
0.0869284
0.00229402
0.0913563
0.0108613
0.0931296
0.00260864
0.0967631
0.00988649
0.0962701
-0.00693403
0.0917808
-0.00959418
0.0912925
-0.00848254
0.0824468
-0.0280317
0.0734315
-0.0159976
0.0705158
-0.00695716
0.0816706
0.0394106
0.0990033
0.0386696
0.102157
0.0106919
0.102638
0.00759522
0.0928388
-0.0370703
0.0757971
-0.0341123
0.0643879
-0.0154882
0.0499146
-0.0153493
0.0631126
0.0853119
0.0921585
0.0584508
0.0901194
-0.0252887
-0.00763988
0.0957925
-0.00210262
0.0947725
-0.00465926
0.0935138
-0.00206312
0.0938964
-0.00309296
0.0926771
-0.00115431
0.0932807
-0.000751855
0.0937422
0.00183249
0.097427
0.00717658
0.0986924
0.00134322
0.10124
0.00733917
0.10113
-0.00682389
0.0972994
-0.00576394
0.0972452
-0.0084284
0.0887563
-0.0195428
0.0827015
-0.00994269
0.08157
-0.00582569
0.0901555
0.030825
0.103001
0.0258238
0.102916
0.0107773
0.104947
0.00556415
0.100295
-0.0324179
0.0863772
-0.0201949
0.0782126
-0.00732354
0.064957
-0.00209375
0.0761748
0.0740941
0.0979057
0.0367198
0.0934243
-0.0208073
0.00215331
0.102603
-0.00150583
0.101812
-0.00386896
0.100853
-0.00110379
0.101073
-0.00331258
0.100171
-0.00025295
0.100711
-0.00129154
0.100969
0.00157477
0.103951
0.00419466
0.104685
0.000609273
0.106674
0.00534962
0.105922
-0.00607194
0.102691
-0.00253235
0.102467
-0.00820494
0.0960403
-0.0131158
0.0920627
-0.00596517
0.0908003
-0.00456324
0.0980057
0.0236196
0.108025
0.0158048
0.108102
0.0106996
0.108309
0.00535758
0.0998692
-0.0239782
0.0892979
-0.00962349
0.0871634
-0.00518911
0.0807139
0.0043558
0.0938456
0.0609623
0.10723
0.0233351
0.0974064
-0.0109834
0.0122036
0.109819
-0.00114514
0.109199
-0.00324862
0.108604
-0.000508861
0.10864
-0.0033488
0.107856
0.000531396
0.108583
-0.00201855
0.108522
0.00163538
0.110603
0.00211342
0.111194
1.89539e-05
0.112265
0.00427816
0.111762
-0.00556902
0.109506
-0.000276211
0.108805
-0.00750409
0.10356
-0.00787114
0.101589
-0.00399349
0.100744
-0.00371881
0.105291
0.0190725
0.113021
0.00807501
0.113547
0.0101742
0.114625
0.00427958
0.10864
-0.0179939
0.0993726
-0.000355892
0.0991323
-0.00494882
0.0957247
0.00776341
0.105904
0.0507833
0.11616
0.0130786
0.109124
-0.00394664
0.0201579
0.117439
-0.000857677
0.11699
-0.00279941
0.11656
-7.88811e-05
0.116485
-0.0032735
0.116093
0.000923228
0.11635
-0.00227553
0.116481
0.00150379
0.117674
0.000920414
0.117959
-0.000265965
0.118863
0.00337459
0.118056
-0.00476236
0.116496
0.00128439
0.115744
-0.00675216
0.112114
-0.00424179
0.110666
-0.00254484
0.1101
-0.00315301
0.114073
0.0150993
0.118875
0.0032734
0.119297
0.0097516
0.1197
0.00387682
0.114606
-0.0128998
0.108912
0.0053381
0.108235
-0.00427206
0.107112
0.00888647
0.116148
0.0417476
0.120669
0.00855738
0.11422
0.00250301
0.024124
0.125603
-0.000630925
0.125111
-0.00230756
0.124995
3.72045e-05
0.124589
-0.00286679
0.124604
0.000908274
0.124459
-0.00213113
0.124772
0.0011907
0.125303
0.000389532
0.125456
-0.00041887
0.126142
0.00268895
0.125193
-0.00381384
0.124753
0.00172503
0.123372
-0.00537125
0.121199
-0.00206889
0.120294
-0.00163979
0.119657
-0.00251638
0.123036
0.0117201
0.12533
0.000979606
0.126692
0.00838991
0.126599
0.00396987
0.122372
-0.00867356
0.119797
0.00791355
0.117726
-0.00220139
0.117644
0.00896885
0.126248
0.0331436
0.127234
0.00757123
0.122398
0.00733942
0.0251867
0.134295
-0.000458054
0.133793
-0.0018056
0.133776
5.42482e-05
0.133222
-0.00231348
0.133429
0.000701573
0.133072
-0.00177454
0.133376
0.000887431
0.13368
8.53734e-05
0.133595
-0.00033383
0.13434
0.00194348
0.133347
-0.00282082
0.133347
0.00172538
0.132067
-0.00409172
0.130709
-0.000710833
0.130042
-0.000972291
0.129341
-0.00181535
0.132244
0.00881674
0.133091
0.000132364
0.134338
0.00714335
0.134429
0.00387835
0.130823
-0.0050671
0.130109
0.00862757
0.128125
-0.00021787
0.128201
0.00889356
0.135098
0.0262465
0.135043
0.0076256
0.131904
0.0104788
0.024328
0.143525
-0.000323233
0.143011
-0.00129247
0.143059
6.25495e-06
0.142453
-0.00170742
0.142697
0.000458133
0.14227
-0.00134771
0.142572
0.000585816
0.142706
-4.9208e-05
0.142625
-0.000252301
0.143223
0.00134557
0.142364
-0.0019623
0.142634
0.00145491
0.141389
-0.00284616
0.140662
1.58997e-05
0.140106
-0.000415828
0.139411
-0.00112037
0.141693
0.00653455
0.141648
0.000176958
0.142967
0.00582463
0.143002
0.00384319
0.140168
-0.00223329
0.140626
0.00816947
0.138616
0.00179286
0.138921
0.00858796
0.144458
0.0207097
0.143826
0.00825729
0.142109
0.0121966
0.0224928
0.153319
-0.000214169
0.152889
-0.000861914
0.152903
-7.99885e-06
0.15239
-0.00119471
0.152556
0.000292179
0.152213
-0.00100434
0.152401
0.000397317
0.152499
-0.000146689
0.152396
-0.000149326
0.15286
0.000881292
0.152206
-0.00130779
0.152435
0.00122514
0.151468
-0.00187858
0.151045
0.00043857
0.150564
6.50617e-05
0.14995
-0.000505835
0.151598
0.00488638
0.15131
0.00046449
0.15239
0.00474507
0.152537
0.00369622
0.150445
-0.000141311
0.151144
0.00747014
0.149681
0.00325586
0.150076
0.00819312
0.154139
0.0166473
0.153589
0.00880658
0.153054
0.0127316
0.0202178
0.163767
-0.000115831
0.163435
-0.000530386
0.163422
5.56058e-06
0.16303
-0.000803267
0.163129
0.000193211
0.162849
-0.000724369
0.162984
0.00026312
0.163002
-0.000164895
0.162947
-9.49554e-05
0.163221
0.000607325
0.162738
-0.000824528
0.162937
0.00102596
0.162145
-0.00108673
0.161942
0.000642121
0.161558
0.000449121
0.161052
-3.15307e-07
0.162235
0.00370394
0.161861
0.000838496
0.162713
0.00389288
0.162875
0.0035346
0.161432
0.00130162
0.162217
0.00668486
0.161252
0.00422057
0.161624
0.00782161
0.164624
0.0136467
0.164408
0.00902238
0.164713
0.0124273
0.017864
0.174935
-2.43062e-05
0.174709
-0.000304676
0.174672
4.28492e-05
0.174396
-0.000527057
0.174442
0.000147515
0.174225
-0.000508308
0.174313
0.000176004
0.174274
-0.000126348
0.174236
-5.7157e-05
0.174374
0.000469213
0.174026
-0.000476506
0.174158
0.000894744
0.173561
-0.000490091
0.173461
0.000741729
0.173191
0.000719429
0.172804
0.000387117
0.173615
0.00289215
0.173303
0.00115086
0.173933
0.00326261
0.174105
0.00336233
0.173226
0.00218162
0.173902
0.00600824
0.173368
0.00475519
0.173813
0.00737615
0.176089
0.0113708
0.176177
0.00893454
0.176957
0.011647
0.0155676
0.186899
5.18562e-05
0.186746
-0.000151474
0.186712
7.68057e-05
0.186507
-0.000322358
0.186539
0.000115667
0.186354
-0.00032333
0.186418
0.000112718
0.18634
-4.92953e-05
0.186308
-2.4555e-05
0.186368
0.000409212
0.186096
-0.000204411
0.186201
0.000789449
0.185757
-4.64773e-05
0.185717
0.000781858
0.185551
0.000885891
0.185267
0.000670817
0.185837
0.00232275
0.185612
0.00137568
0.186072
0.00280272
0.186265
0.00316855
0.185768
0.0026792
0.186357
0.00541951
0.186204
0.00490744
0.186726
0.00685443
0.188468
0.00962858
0.188862
0.00854043
0.189904
0.0106058
0.0134235
0.19971
0.000104829
0.199607
-4.7969e-05
0.199581
0.00010278
0.199432
-0.000173795
0.199449
9.93977e-05
0.199301
-0.000175148
0.199331
8.23906e-05
0.199253
2.86547e-05
0.199207
2.09697e-05
0.199234
0.000382806
0.199026
3.04222e-06
0.199106
0.000709985
0.198805
0.000254162
0.198792
0.000795213
0.198712
0.000966129
0.198527
0.000855638
0.19892
0.00192934
0.198801
0.00149518
0.199141
0.00246221
0.199349
0.00296068
0.199152
0.00287611
0.199717
0.00485467
0.199816
0.00480831
0.200397
0.00627346
0.20181
0.00821593
0.20245
0.00789996
0.203597
0.00945945
0.0114729
0.213418
0.000133986
0.213344
2.58975e-05
0.213333
0.000114532
0.213221
-6.21151e-05
0.213231
8.99034e-05
0.213117
-6.11343e-05
0.213122
7.67532e-05
0.213062
8.92155e-05
0.213006
7.65649e-05
0.21303
0.00035857
0.212872
0.000161645
0.21294
0.000641722
0.212757
0.000437077
0.212759
0.000793161
0.212749
0.00097644
0.212649
0.000955339
0.21293
0.00164838
0.212913
0.00151195
0.213178
0.00219718
0.213425
0.00271388
0.213443
0.0028579
0.213978
0.00432024
0.214261
0.00452512
0.21492
0.00561464
0.216125
0.00701048
0.216922
0.00710284
0.218106
0.00827559
0.00971468
0.228077
0.000147194
0.228032
7.13363e-05
0.228026
0.000120292
0.227951
1.27039e-05
0.227952
8.96085e-05
0.227874
1.62742e-05
0.227866
8.54032e-05
0.227824
0.000131001
0.227776
0.000124051
0.227796
0.000339216
0.227697
0.000260017
0.227756
0.000583513
0.227664
0.000528537
0.227691
0.000766154
0.227729
0.000938955
0.227707
0.000976692
0.22793
0.0014253
0.22799
0.00145237
0.228234
0.00195264
0.228516
0.00243245
0.228679
0.0026945
0.229222
0.00377785
0.229652
0.00409468
0.230347
0.00491978
0.231421
0.00593656
0.232328
0.00619576
0.233524
0.00707989
0.008123
0.243759
0.00014453
0.243734
9.66629e-05
0.243734
0.000119711
0.243691
5.63245e-05
0.243687
9.36957e-05
0.243642
6.05758e-05
0.243627
0.000100516
0.243609
0.000149009
0.243575
0.000157873
0.2436
0.00031436
0.243556
0.000303954
0.243612
0.000528324
0.243597
0.000543216
0.243649
0.000714381
0.243726
0.000861969
0.243775
0.00092727
0.243969
0.00123151
0.244097
0.00132386
0.244347
0.00170322
0.24466
0.00211917
0.244944
0.00241043
0.245502
0.00321964
0.24603
0.00356687
0.246756
0.00419382
0.247763
0.00492941
0.248734
0.00522518
0.249918
0.00589602
0.00666001
0.260537
0.000132271
0.260529
0.000104047
0.260537
0.000112108
0.260516
7.72259e-05
0.260517
9.2874e-05
0.260496
8.17639e-05
0.260489
0.000106915
0.260488
0.000149827
0.260477
0.000169219
0.260512
0.000279739
0.260511
0.000304605
0.260579
0.000460562
0.260619
0.000503052
0.260701
0.00063203
0.260816
0.000747539
0.260918
0.000825128
0.261116
0.00103302
0.261299
0.00114135
0.261569
0.00143312
0.261921
0.00176711
0.262291
0.00204035
0.262867
0.00264331
0.263476
0.00295861
0.264239
0.00343072
0.265206
0.00396239
0.266204
0.0042268
0.267375
0.0047248
0.00528429
0.278484
0.000111022
0.278494
9.42128e-05
0.278509
9.7113e-05
0.278509
7.74462e-05
0.278517
8.49079e-05
0.278516
8.25489e-05
0.278522
0.000100455
0.278538
0.000134629
0.278551
0.00015546
0.278597
0.000233676
0.278635
0.000266501
0.278721
0.000375486
0.278802
0.000421198
0.278919
0.000515107
0.279063
0.000603474
0.279215
0.000673207
0.279432
0.000816068
0.27966
0.000913615
0.279965
0.00112783
0.280352
0.00138055
0.280787
0.00160479
0.281394
0.00203626
0.282062
0.00229123
0.282858
0.00263484
0.283814
0.00300581
0.284831
0.00320971
0.285991
0.00356476
0.00396356
0.297684
8.07951e-05
0.297706
7.19436e-05
0.297731
7.25809e-05
0.297746
6.18961e-05
0.297765
6.61164e-05
0.297781
6.61981e-05
0.297802
7.95052e-05
0.297835
0.000102186
0.29787
0.000120094
0.297933
0.000170471
0.298002
0.000198165
0.298107
0.000269849
0.298224
0.000304807
0.29837
0.000369142
0.298544
0.000428818
0.298737
0.000480322
0.29898
0.000573081
0.29925
0.000643586
0.299591
0.000787214
0.300014
0.000957697
0.300504
0.00111409
0.301144
0.00139682
0.30186
0.00157551
0.302694
0.00180024
0.303662
0.00203821
0.304695
0.00217679
0.305854
0.00240563
0.00266348
0.318224
4.36121e-05
0.318256
3.97579e-05
0.318289
3.97835e-05
0.318316
3.52641e-05
0.318345
3.69464e-05
0.318373
3.76793e-05
0.318408
4.44412e-05
0.318454
5.62127e-05
0.318508
6.63339e-05
0.318587
9.14863e-05
0.318678
0.000107495
0.318804
0.000143253
0.318947
0.000162642
0.31912
0.000195579
0.319323
0.000225972
0.319549
0.000253844
0.319823
0.00029977
0.320129
0.000337065
0.320506
0.000409974
0.320968
0.000496613
0.321503
0.000578337
0.32218
0.000720233
0.322943
0.000812519
0.323818
0.000925268
0.324813
0.00104322
0.325877
0.00111251
0.327057
0.00122562
0.00135531
0.340244
0.340284
0.340324
0.340359
0.340396
0.340434
0.340478
0.340535
0.340601
0.340692
0.3408
0.340943
0.341106
0.341301
0.341527
0.341781
0.342081
0.342418
0.342828
0.343325
0.343903
0.344623
0.345436
0.346361
0.347404
0.348517
0.349742
)
;

boundaryField
{
    outlet
    {
        type            calculated;
        value           nonuniform List<scalar> 
40
(
0.0533508
0.0533207
0.0532423
0.0530606
0.0528664
0.0526195
0.052393
0.0521226
0.0518332
0.0515263
0.0462428
0.0491323
0.0522248
0.055486
0.0590513
0.0628702
0.067035
0.0713261
0.0753855
0.0794589
0.0836311
0.0873562
0.101169
0.110253
0.121335
0.132763
0.143944
0.155329
0.167067
0.179253
0.192048
0.205547
0.219864
0.235115
0.251381
0.268751
0.287312
0.307154
0.328365
0.351098
)
;
    }
    upperWall
    {
        type            symmetryPlane;
        value           uniform 0;
    }
    lowerWall
    {
        type            symmetryPlane;
        value           nonuniform 0();
    }
    inlet
    {
        type            calculated;
        value           nonuniform 0();
    }
    cylinder
    {
        type            calculated;
        value           nonuniform 0();
    }
    frontAndBack
    {
        type            empty;
        value           nonuniform 0();
    }
    procBoundary7to3
    {
        type            processor;
        value           nonuniform List<scalar> 
30
(
0.0915423
0.0862858
0.0948683
0.0676653
0.0234529
-0.0281072
-0.0819621
-0.0803501
-0.112436
-0.104716
-0.0703069
-0.0460239
0.0455014
0.0624977
0.104895
0.142679
0.0608824
0.0351481
-0.0649088
-0.148163
-0.108086
-0.110797
0.0313202
0.161502
0.115132
0.114836
-0.0514935
-0.235804
-0.057746
0.0630372
)
;
    }
    procBoundary7to6
    {
        type            processor;
        value           nonuniform List<scalar> 
42
(
-0.037036
-0.0364325
-0.0367941
-0.03826
-0.0403791
-0.0424476
-0.0670772
-0.0362635
-0.0369449
-0.0386601
-0.0400564
-0.0425257
-0.0498815
-0.0515322
-0.0584238
-0.0598258
-0.0695035
-0.0686479
-0.075888
-0.0797436
-0.0853481
-0.0907563
-0.096757
-0.1032
-0.11018
-0.117727
-0.12583
-0.134467
-0.143659
-0.153428
-0.163865
-0.175027
-0.186975
-0.199763
-0.213448
-0.228091
-0.243757
-0.260524
-0.278463
-0.297654
-0.318187
-0.340201
)
;
    }
}


// ************************************************************************* //
