/*--------------------------------*- C++ -*----------------------------------*\
| =========                 |                                                 |
| \\      /  F ield         | OpenFOAM: The Open Source CFD Toolbox           |
|  \\    /   O peration     | Version:                                        |
|   \\  /    A nd           | Website:  www.openfoam.com                      |
|    \\/     M anipulation  |                                                 |
\*---------------------------------------------------------------------------*/
FoamFile
{
    version     2.0;
    format      ascii;
    class       surfaceScalarField;
    location    "105.3";
    object      phi;
}
// * * * * * * * * * * * * * * * * * * * * * * * * * * * * * * * * * * * * * //

dimensions      [0 3 -1 0 0 0 0];
oriented        oriented;


internalField   nonuniform List<scalar> 
2227
(
0.0481613
0.00368768
-0.0512093
0.0452171
0.00362818
0.00360655
0.0479722
0.00672034
-0.0510049
0.0450379
0.00656248
0.00646832
0.0475093
0.00972852
-0.0505175
0.0445871
0.00948473
0.0466525
0.0126916
-0.0496156
0.0123619
0.0455289
0.0155578
-0.0483951
-0.0467323
0.0538599
-0.000402043
0.0536962
0.00194994
0.054624
-0.00147339
0.0545243
-0.00136382
0.0552148
-0.000506501
0.0551291
-0.000517776
0.0556547
-0.000912015
0.0555525
0.00130703
0.0560063
-0.000388523
0.0559136
0.000140172
0.0562673
0.000432357
0.0562079
2.44824e-05
0.0564031
-0.000304081
0.0563384
0.000138467
0.0564785
-0.000136771
0.0563587
0.000116278
0.0563756
2.04517e-05
0.0562077
0.000352823
0.0561257
0.000324101
0.0558736
0.000584356
0.0556877
0.000581719
0.0553505
0.000816963
0.0550581
0.000837978
0.0546312
0.00102984
0.0542273
0.00105662
0.053699
0.00121613
0.053183
0.00124094
0.0525524
0.00137596
0.0519311
0.00139145
0.00150603
0.0538081
-0.0011771
0.053582
0.00217598
0.054585
-0.00247639
0.0545054
-0.00128426
0.0551339
-0.00113494
0.0550687
-0.000452605
0.0554877
-0.00133099
0.0553568
0.00143792
0.0558238
-0.00085554
0.0556666
0.000297404
0.0560639
3.5065e-05
0.0560406
4.77328e-05
0.0562071
-0.000470562
0.0561778
0.000167733
0.056331
-0.000289967
0.0562094
0.000237879
0.0562212
8.73997e-06
0.0560516
0.000522392
0.0559643
0.000411428
0.0556968
0.000851803
0.0555068
0.000771683
0.0551623
0.00116147
0.0548741
0.00112621
0.0544474
0.00145655
0.0540557
0.00144835
0.0535307
0.00174106
0.053023
0.00174864
0.0523895
0.00200953
0.051759
0.0020219
0.00226017
0.053713
-0.00185713
0.0534172
0.00247183
0.0544679
-0.00352713
0.0543848
-0.00120115
0.0549196
-0.00166971
0.0548524
-0.000385383
0.0551339
-0.00161257
0.0549752
0.00159667
0.0554217
-0.00130203
0.0552014
0.00051768
0.0556397
-0.000403221
0.0556257
6.17099e-05
0.0557538
-0.000598689
0.0557561
0.000165496
0.0559061
-0.000440004
0.055759
0.000385018
0.0557684
-6.81873e-07
0.0555785
0.000712282
0.055478
0.0005119
0.0551911
0.00113872
0.0549902
0.000972625
0.0546391
0.00151256
0.0543499
0.00141538
0.053925
0.00188142
0.0535435
0.00182991
0.0530274
0.00225713
0.0525344
0.00224166
0.0519075
0.00263639
0.0512822
0.00264724
0.00302487
0.0535743
-0.00239845
0.0532038
0.0028424
0.05428
-0.0046034
0.054163
-0.00108414
0.0545715
-0.00207816
0.0544753
-0.000289157
0.054595
-0.00173233
0.0544038
0.00178791
0.0548146
-0.00171285
0.0545195
0.000812816
0.0550095
-0.000893277
0.0549567
0.000114477
0.0550726
-0.00071457
0.0550833
0.000154792
0.055206
-0.000562668
0.0550318
0.000559202
0.0550216
9.52528e-06
0.0548006
0.000933268
0.0546601
0.000652444
0.0543436
0.00145523
0.0541182
0.00119797
0.0537428
0.001888
0.0534484
0.00170978
0.0530064
0.00232343
0.0526219
0.00221438
0.0521022
0.00277682
0.051613
0.00273086
0.0509869
0.00326252
0.050373
0.00326112
0.0037823
0.0533923
-0.00275772
0.0529491
0.00328552
0.0540207
-0.00567497
0.0538418
-0.00090521
0.0540876
-0.00232397
0.0539374
-0.000138931
0.0538668
-0.00166172
0.0536597
0.00199494
0.0539923
-0.00204546
0.0536515
0.00115364
0.054173
-0.00141478
0.0540511
0.000236378
0.0541363
-0.000799797
0.0541708
0.000120319
0.0542136
-0.000605461
0.054009
0.000763778
0.0539655
5.30934e-05
0.0536779
0.00122081
0.0534957
0.000834671
0.0531327
0.00181825
0.0528849
0.00144574
0.0524774
0.00229553
0.0521725
0.00201464
0.0517251
0.00277085
0.0513456
0.0025939
0.0508261
0.00329633
0.0503541
0.00320286
0.0497386
0.00387802
0.0491473
0.00385236
0.00453452
0.05317
-0.00289475
0.0526568
0.00379876
0.0536993
-0.00671753
0.0534184
-0.000624225
0.0534669
-0.00237252
0.0532351
9.28809e-05
0.0529658
-0.0013924
0.0527301
0.00223064
0.0529907
-0.00230607
0.052594
0.00155036
0.0531668
-0.00198766
0.0528899
0.000513314
0.0530201
-0.000930001
0.0529964
0.000144034
0.0529519
-0.000560971
0.052708
0.00100769
0.0525948
0.000166287
0.0522257
0.0015899
0.0519807
0.00107965
0.0515383
0.00226071
0.051256
0.00172803
0.0508068
0.00274468
0.0504788
0.00234273
0.0500041
0.00324551
0.0496288
0.00296916
0.0491044
0.00382074
0.0486401
0.00366715
0.0480362
0.0044819
0.0474646
0.00442404
0.00526674
0.0529072
-0.00276896
0.0523426
0.00436333
0.0533146
-0.00768947
0.052898
-0.000207691
0.0527064
-0.00218088
0.0523758
0.00042346
0.0518855
-0.000902037
0.0516577
0.0024584
0.0517795
-0.00242789
0.0513965
0.00193339
0.0519671
-0.00255824
0.0515234
0.000957029
0.0516404
-0.00104705
0.0516044
0.000180047
0.0513649
-0.000321516
0.0511495
0.00122309
0.0508922
0.000423625
0.050424
0.00205811
0.0501173
0.00138629
0.0496294
0.00274865
0.049309
0.00204845
0.0488342
0.00321946
0.0485102
0.00266672
0.048025
0.00373077
0.0476579
0.00333623
0.0471441
0.00433449
0.0467185
0.00409277
0.0461353
0.00506515
0.0456109
0.0049484
0.0526002
-0.00233615
0.0520147
0.00494882
0.0528821
-0.00855688
0.0522693
0.00040516
0.0518151
-0.00172675
0.0513553
0.000883328
0.0506499
-0.000196632
0.0504332
0.00267508
0.0504315
-0.0024262
0.0500562
0.00230865
0.0505847
-0.00308674
0.0499229
0.00161888
0.0501209
-0.00124504
0.049894
0.000406908
0.0495552
1.72665e-05
0.0492521
0.00152624
0.0488834
0.000792325
0.0482958
0.00264564
0.0478695
0.00181259
0.0473379
0.00328029
0.0469801
0.0024063
0.0464536
0.00374593
0.0461361
0.00298417
0.0456258
0.00424106
0.0452741
0.00368794
0.0447404
0.00486825
0.0443273
0.00450587
0.0437622
0.00563027
0.00542966
0.0522451
-0.00154822
0.0516713
0.00552261
0.052392
-0.00927755
0.0515334
0.00126367
0.0507802
-0.000973472
0.0501869
0.0014766
0.0492396
0.000750668
0.0490762
0.00283847
0.0488883
-0.00223827
0.0486192
0.00257767
0.0489302
-0.00339766
0.0481202
0.00242881
0.0483676
-0.00149244
0.0478968
0.000877716
0.047489
0.000425133
0.0471044
0.00191081
0.0464449
0.00145186
0.0458969
0.00319363
0.0453217
0.00238779
0.0447959
0.0038061
0.0444048
0.0027974
0.0438988
0.00425188
0.0435586
0.00332439
0.0430794
0.00472023
0.0427127
0.0040547
0.0422323
0.00534861
0.0418164
0.00492173
0.0412298
0.00621687
0.0518803
-0.000395568
0.0512924
0.0061106
0.0518827
-0.00986794
0.0507176
0.00242881
0.0496422
0.000101949
0.0489587
0.0021601
0.0477654
0.00194399
0.0476242
0.00297966
0.0472736
-0.00188773
0.047075
0.00277626
0.04719
-0.0035126
0.0460996
0.0035192
0.0463795
-0.0017724
0.0457079
0.00154933
0.045162
0.000971047
0.044627
0.00244586
0.0438039
0.0022749
0.0430819
0.00391568
0.04246
0.00300964
0.0419634
0.00430269
0.0414736
0.00328721
0.0410032
0.00472231
0.0406694
0.00365817
0.0401154
0.00527428
0.0398392
0.00433083
0.0393403
0.00584755
0.0391722
0.00508986
0.00667715
0.0473868
4.62546e-05
0.0476541
0.00584331
0.0486785
-0.0108924
0.0482388
0.00286846
0.0477033
0.000637493
0.0477747
0.00208871
0.0470595
0.00265922
0.0473842
0.00265492
0.047466
-0.00196953
0.0476744
0.00256787
0.0479586
-0.00379677
0.0474153
0.00406243
0.0480259
-0.00238299
0.0477106
0.00186469
0.0476905
0.000991081
0.0473359
0.00280049
0.0469973
0.00261353
0.0466745
0.00423842
0.0462688
0.0034154
0.0463293
0.00424214
0.0460353
0.00358127
0.0461746
0.004583
0.045982
0.00385076
0.0460693
0.00518694
0.0461066
0.00429359
0.0461968
0.00575729
0.0463888
0.00489793
0.00635867
0.0506702
0.000524065
0.0511139
0.00539963
0.0517973
-0.0115758
0.0514453
0.00322044
0.050881
0.00120185
0.0510309
0.00193873
0.0502979
0.00339224
0.0507939
0.00215891
0.050728
-0.00190357
0.0510603
0.00223557
0.0508147
-0.00355122
0.0507912
0.00408598
0.0512078
-0.0027996
0.0509145
0.002158
0.0507562
0.00114929
0.0505423
0.00301443
0.0498933
0.0032625
0.0500471
0.00408464
0.0494194
0.00404309
0.0497463
0.00391532
0.0492758
0.00405172
0.049748
0.00411078
0.0492983
0.00430052
0.049801
0.0046842
0.0495421
0.00455249
0.050134
0.00516535
0.0500968
0.00493513
0.0054594
0.0543528
0.00086906
0.0548624
0.00489006
0.0549064
-0.0116198
0.0547484
0.00337844
0.0542772
0.00167299
0.0544324
0.00178359
0.0539319
0.00389273
0.0544622
0.00162864
0.0542298
-0.00167122
0.0545696
0.00189579
0.054004
-0.00298556
0.0542905
0.00379949
0.0543236
-0.00283275
0.0541786
0.00230295
0.0537815
0.00154647
0.053778
0.00301788
0.0530372
0.00400333
0.0533911
0.00373069
0.0529209
0.00451333
0.053237
0.0035992
0.0528751
0.00441363
0.0533213
0.00366459
0.0530185
0.0046033
0.053479
0.00422373
0.0533566
0.00467482
0.0539279
0.00459412
0.0540547
0.00480826
0.00485854
0.0583675
0.000995556
0.0588368
0.00442077
0.0582157
-0.0109986
0.0583375
0.00325654
0.0579724
0.00203813
0.0581857
0.00157029
0.0580034
0.00407503
0.0584328
0.00119922
0.058017
-0.00125536
0.0584108
0.00150198
0.05779
-0.00236483
0.0579385
0.003651
0.0575636
-0.00245782
0.0577012
0.00216538
0.0571901
0.00205756
0.0573406
0.00286736
0.0568062
0.00453773
0.0570118
0.00352506
0.0568134
0.00471178
0.0570383
0.00337427
0.0568948
0.00455715
0.057148
0.00341141
0.0571548
0.00459645
0.0574564
0.00392219
0.0575833
0.00454789
0.0579844
0.00419303
0.0583155
0.00447718
0.00442512
0.0626305
0.000918768
0.063027
0.00402424
0.0618483
-0.00981995
0.0622713
0.00283358
0.062024
0.00228544
0.0623007
0.00129356
0.0624109
0.00396488
0.0626637
0.000946369
0.0621189
-0.00071052
0.062556
0.00106487
0.0620068
-0.00181569
0.0618266
0.00383123
0.061137
-0.00176817
0.0615068
0.00179553
0.0611524
0.00241202
0.0613384
0.00268129
0.0611735
0.00470269
0.061139
0.0035595
0.0611085
0.00474228
0.0611364
0.00334636
0.0612667
0.00442685
0.0614123
0.00326579
0.0616542
0.00435455
0.0619302
0.00364622
0.062212
0.00426611
0.0625243
0.00388073
0.0629616
0.00403988
0.00405867
0.067148
0.000665866
0.0674461
0.00372613
0.0658041
-0.00817798
0.0665418
0.00209591
0.0664157
0.00241151
0.0666718
0.00103746
0.0670709
0.00356575
0.0670897
0.000927578
0.066527
-0.00014784
0.0668489
0.000743056
0.0664943
-0.00146108
0.0661078
0.00421764
0.0651535
-0.0008138
0.0656278
0.00132118
0.0654961
0.00254371
0.065677
0.00250047
0.0658784
0.0045013
0.065716
0.00372183
0.0658334
0.00462489
0.0656756
0.0035042
0.0659163
0.00418615
0.0660359
0.0031462
0.0663808
0.00400959
0.0666882
0.00333883
0.0670996
0.00385475
0.0673926
0.00358768
0.0678719
0.0035606
0.00372071
0.0719254
0.000278197
0.0720769
0.00357467
0.0701611
-0.00626218
0.071143
0.00111395
0.0711594
0.00239515
0.0713042
0.000892639
0.0719398
0.00293023
0.0717257
0.00114161
0.0712828
0.000295091
0.0712737
0.00075216
0.0711189
-0.0013063
0.070864
0.00447252
0.069746
0.00030424
0.0701194
0.00094778
0.0701405
0.00252258
0.0703296
0.00231136
0.0707606
0.00407033
0.070647
0.00383542
0.070884
0.00438788
0.0706987
0.00368946
0.0709116
0.00397332
0.0709894
0.0030684
0.0713676
0.00363136
0.0716299
0.00307654
0.0721354
0.00334927
0.0724185
0.00330453
0.0728976
0.00308155
0.00338574
0.0769758
-0.000194878
0.0769139
0.00363649
0.0750079
-0.00435614
0.076108
1.38401e-05
0.0762755
0.00222767
0.0762744
0.000893776
0.0770272
0.00217738
0.07662
0.00154879
0.0763987
0.000516373
0.0759675
0.00118339
0.0758571
-0.00119591
0.0760599
0.00426972
0.0749338
0.00143039
0.0750817
0.000799899
0.0751546
0.00244967
0.0752999
0.00216604
0.0758172
0.00355301
0.0758802
0.00377246
0.0761875
0.00408057
0.0761514
0.0037255
0.0763367
0.00378811
0.0763444
0.00306062
0.0766956
0.00328022
0.0768255
0.0029466
0.0773129
0.00286188
0.0775769
0.00304056
0.0780233
0.00263511
0.00305411
0.0823236
-0.000706304
0.0820553
0.00390476
0.0803883
-0.00268914
0.0814385
-0.00103633
0.0817654
0.0019008
0.0816586
0.00100053
0.0823324
0.00150358
0.0818398
0.00204139
0.0818227
0.00053351
0.0811534
0.00185267
0.0808583
-0.000900844
0.0814818
0.00364622
0.0806498
0.00226246
0.0805607
0.000889019
0.080629
0.0023813
0.0806981
0.00209696
0.0811457
0.00310537
0.0814121
0.00350606
0.0817393
0.00375345
0.0818738
0.00359095
0.082105
0.00355691
0.0820793
0.00308634
0.0823929
0.0029666
0.0824378
0.00290168
0.0828023
0.00249742
0.0830266
0.00281628
0.083375
0.00228664
0.00274201
0.0879721
-0.00118818
0.0876654
0.0042114
0.0862441
-0.00126784
0.0871058
-0.00189799
0.0875363
0.00147029
0.0874575
0.00107928
0.087928
0.00103311
0.087455
0.00251441
0.0875359
0.000452616
0.0868945
0.00249404
0.0863466
-0.000352894
0.0871067
0.00288608
0.0867168
0.00265237
0.0865133
0.00109256
0.0865572
0.00233737
0.0865982
0.00205596
0.086877
0.00282653
0.0872439
0.00313923
0.0875893
0.00340805
0.0878161
0.0033641
0.0881148
0.0032582
0.0881289
0.00307221
0.0884032
0.00269236
0.088445
0.00285983
0.0886755
0.00226692
0.0888509
0.00264093
0.0890952
0.00204237
0.00246743
0.0939013
-0.00152722
0.0938162
0.00429649
0.0926386
-9.0274e-05
0.0931012
-0.00236061
0.0935588
0.00101273
0.0935719
0.0010662
0.0938897
0.000715276
0.093535
0.00286914
0.093573
0.0004146
0.0931384
0.0029286
0.0924536
0.000331958
0.0930549
0.0022848
0.0930139
0.0026933
0.0928324
0.00127408
0.092895
0.00227477
0.0929599
0.00199111
0.0931165
0.00266986
0.0934609
0.00279489
0.0937989
0.00307003
0.0940489
0.00311413
0.0943719
0.00293522
0.0944545
0.00298955
0.0946822
0.0024647
0.0947766
0.00276546
0.0949316
0.00211192
0.0950878
0.00248467
0.0952525
0.00187768
0.00224221
0.100176
-0.00164732
0.100432
0.00404007
0.099572
0.000769925
0.0995364
-0.00232493
0.0999094
0.000639662
0.100011
0.000964608
0.100263
0.000463152
0.100074
0.00305869
0.100012
0.000476629
0.0998187
0.00312145
0.0991357
0.001015
0.0994786
0.00194185
0.0996327
0.00253924
0.0995239
0.00138288
0.0996022
0.00219643
0.0997276
0.00186576
0.0998496
0.0025478
0.100117
0.00252803
0.100435
0.00275139
0.100682
0.00286747
0.100986
0.00263142
0.101132
0.00284309
0.101322
0.00227514
0.101466
0.00262096
0.101586
0.00199176
0.101736
0.00233467
0.101848
0.00176609
0.00205624
0.106895
-0.001542
0.107363
0.00357177
0.106954
0.00117886
0.106547
-0.00191848
0.106723
0.000464322
0.106909
0.000778755
0.107072
0.00030001
0.107045
0.00308556
0.106898
0.000623466
0.106876
0.00314378
0.106354
0.00153724
0.106482
0.00181297
0.10667
0.00235178
0.106618
0.00143463
0.10672
0.00209482
0.106875
0.00171036
0.107043
0.00238006
0.107254
0.00231667
0.107525
0.00248013
0.107775
0.00261814
0.108029
0.00237744
0.108229
0.00264263
0.108381
0.00212335
0.108556
0.0024461
0.108665
0.00188251
0.108822
0.00217763
0.108922
0.00166617
0.00189489
0.114162
-0.00127801
0.114702
0.00303221
0.11467
0.00121047
0.114086
-0.00133454
0.114106
0.000444424
0.114311
0.000573955
0.114374
0.000236905
0.114487
0.00297283
0.114288
0.000822112
0.114379
0.00305272
0.114034
0.00188223
0.114029
0.00181805
0.114217
0.00216327
0.114195
0.00145724
0.114308
0.00198126
0.114445
0.00157378
0.114658
0.00216655
0.114853
0.00212174
0.11509
0.00224357
0.115335
0.00237298
0.115553
0.0021594
0.11578
0.0024159
0.115922
0.00198115
0.116115
0.00225332
0.116227
0.00177024
0.116396
0.0020083
0.116497
0.00156539
0.00174178
0.122061
-0.000971199
0.122562
0.00253094
0.122696
0.00107652
0.122128
-0.000767117
0.122089
0.000484327
0.122245
0.000417529
0.122227
0.000254459
0.122429
0.00277118
0.122224
0.00102702
0.122379
0.00289807
0.122214
0.00204738
0.122154
0.00187788
0.122316
0.00200121
0.122314
0.0014595
0.122422
0.00187266
0.12252
0.00147556
0.122743
0.00194447
0.122942
0.00192224
0.123147
0.00203855
0.123379
0.00214106
0.123573
0.00196511
0.12381
0.00217886
0.123962
0.00182994
0.124164
0.00205038
0.124289
0.00164576
0.124467
0.00183035
0.12458
0.0014521
0.00158695
0.130573
-0.000683973
0.130982
0.0021216
0.131181
0.000877688
0.130731
-0.000317323
0.130657
0.000558205
0.130723
0.000352331
0.130638
0.000338956
0.130906
0.00250292
0.130751
0.00118222
0.13096
0.0026894
0.130943
0.00206447
0.13087
0.00195052
0.130994
0.00187693
0.130983
0.00147054
0.131085
0.00177094
0.131141
0.00141968
0.131329
0.00175612
0.131529
0.00172247
0.131722
0.00184512
0.131952
0.00191139
0.132138
0.00177893
0.132382
0.00193465
0.132547
0.00166573
0.132764
0.00183273
0.132902
0.00150835
0.13309
0.0016421
0.133213
0.00132933
0.00142593
0.1397
-0.000441643
0.140039
0.00178281
0.140212
0.000704151
0.139906
-1.15756e-05
0.139823
0.000641097
0.139779
0.000396758
0.139691
0.000427469
0.139977
0.00221621
0.139887
0.00127236
0.140137
0.00243915
0.140223
0.00197926
0.140189
0.00198434
0.140261
0.00180515
0.140246
0.00148527
0.140334
0.00168274
0.140362
0.00139211
0.140514
0.00160348
0.140691
0.00154615
0.140886
0.00164997
0.1411
0.00169689
0.141288
0.00159066
0.141525
0.00169807
0.141705
0.00148581
0.141929
0.0016088
0.142085
0.00135241
0.14228
0.00144743
0.142415
0.00119406
0.00125946
0.149457
-0.000244617
0.14973
0.00151006
0.149865
0.000569244
0.149685
0.000168825
0.149616
0.000709695
0.149542
0.000471074
0.149449
0.000520625
0.149659
0.00200556
0.149614
0.00131782
0.149881
0.00217199
0.150057
0.00180366
0.150136
0.00190541
0.150215
0.00172615
0.150211
0.00148853
0.150285
0.00160901
0.150287
0.00139009
0.150378
0.00151212
0.150493
0.00143125
0.150649
0.0014942
0.150836
0.00151044
0.151006
0.00141972
0.151231
0.00147401
0.151413
0.00130339
0.151644
0.00137731
0.151817
0.00117976
0.152025
0.00123944
0.152178
0.00104147
0.00108095
0.159874
-7.7328e-05
0.160102
0.00128146
0.160217
0.000454823
0.160146
0.000239836
0.16011
0.000745103
0.159954
0.000627621
0.159811
0.000663246
0.159983
0.00183322
0.16002
0.00128104
0.160368
0.00182391
0.160638
0.00153416
0.160839
0.00170441
0.160938
0.00162644
0.160891
0.00153573
0.160888
0.00161215
0.160793
0.00148518
0.160787
0.00151866
0.160811
0.00140651
0.160914
0.00139176
0.161084
0.00134022
0.161263
0.00124016
0.161517
0.00122026
0.161744
0.00107685
0.162027
0.0010938
0.162259
0.00094775
0.16252
0.000978482
0.162725
0.000836864
0.000864938
0.170999
7.18501e-05
0.171168
0.00111239
0.171321
0.000301726
0.171387
0.000174116
0.171383
0.000748688
0.17105
0.000961445
0.170771
0.000941699
0.170961
0.001643
0.171157
0.00108508
0.171643
0.00133822
0.17204
0.00113704
0.172331
0.0014139
0.172442
0.0015155
0.172334
0.00164359
0.172194
0.00175194
0.17198
0.00169905
0.171838
0.00166049
0.171761
0.00148376
0.171791
0.00136132
0.171933
0.00119821
0.172132
0.00104129
0.172419
0.000933062
0.172714
0.000782703
0.17306
0.000747702
0.173377
0.000630044
0.173708
0.000647508
0.173992
0.000553391
0.000590827
0.182914
0.000184674
0.183027
0.000999469
0.183166
0.000162674
0.183314
2.56076e-05
0.183391
0.000671657
0.183043
0.00130984
0.18269
0.00129416
0.182815
0.00151833
0.183054
0.000846339
0.183537
0.000854579
0.183968
0.000706337
0.184332
0.00104954
0.184491
0.00135713
0.184476
0.00165799
0.184349
0.00187895
0.184161
0.00188712
0.183999
0.00182227
0.183876
0.00160756
0.183857
0.00137991
0.183913
0.00114204
0.184061
0.000893279
0.184266
0.000727985
0.18452
0.00052899
0.184806
0.000461676
0.1851
0.000336345
0.185402
0.000345612
0.18568
0.000274941
0.00031973
0.195674
0.000239549
0.19576
0.000913567
0.195818
0.000105093
0.195913
-6.96901e-05
0.196039
0.000545495
0.195912
0.00143671
0.195722
0.00148464
0.195794
0.00144648
0.195927
0.000712377
0.1962
0.000581705
0.196448
0.0004589
0.196741
0.00075661
0.196934
0.00116399
0.197088
0.00150338
0.197168
0.00179925
0.197202
0.00185314
0.197237
0.00178774
0.197237
0.00160753
0.197283
0.00133313
0.197317
0.00110853
0.197401
0.000809569
0.197484
0.000644569
0.197598
0.00041527
0.197721
0.000338619
0.197854
0.000203642
0.198
0.000199288
0.198138
0.00013711
0.000169331
0.209308
0.000244235
0.209418
0.000803475
0.20939
0.000133789
0.209339
-1.8992e-05
0.209437
0.000447587
0.209584
0.00128947
0.209679
0.00139015
0.209804
0.00132154
0.20981
0.000705923
0.209836
0.000555962
0.209834
0.000460609
0.209942
0.000648442
0.210113
0.000993027
0.21036
0.00125623
0.210652
0.00150809
0.210929
0.00157609
0.211203
0.00151329
0.211408
0.00140273
0.211582
0.00115909
0.211687
0.00100356
0.211757
0.000739692
0.211785
0.000616132
0.211787
0.000413819
0.211779
0.000346507
0.211756
0.000226491
0.211746
0.000208994
0.211729
0.000154547
0.000164667
0.223863
0.000220736
0.223996
0.000670627
0.223936
0.000194074
0.22381
0.000107551
0.223861
0.000396254
0.224135
0.00101562
0.224396
0.00112844
0.224581
0.00113689
0.224551
0.000735833
0.224469
0.000638264
0.224363
0.000566027
0.224359
0.000652854
0.224499
0.000853518
0.224749
0.00100579
0.225105
0.00115247
0.225475
0.00120533
0.225839
0.00114967
0.226148
0.00109372
0.226383
0.000923838
0.22655
0.000836494
0.226636
0.000654243
0.226675
0.000576898
0.226656
0.000433197
0.226619
0.000382994
0.226552
0.000293117
0.226491
0.000270231
0.226422
0.000224193
0.000217517
0.239406
0.000189534
0.239536
0.000540493
0.239497
0.000233068
0.239396
0.000208557
0.239421
0.000372018
0.239667
0.000769062
0.239935
0.000860885
0.240141
0.00093095
0.24016
0.000716619
0.240123
0.000675724
0.240063
0.000625299
0.240062
0.000653989
0.240183
0.000733091
0.240388
0.000800693
0.240683
0.00085698
0.241005
0.000883576
0.241319
0.000835432
0.241607
0.000805445
0.241831
0.000700488
0.242012
0.000654757
0.242121
0.000546029
0.242196
0.00050183
0.242217
0.000412414
0.242221
0.000378268
0.242197
0.00031737
0.242171
0.000296238
0.242135
0.000259758
0.000246792
0.256023
0.00015504
0.256133
0.00042997
0.256126
0.000240417
0.25609
0.000244954
0.256123
0.000338955
0.256297
0.000594569
0.256506
0.000652595
0.256697
0.000739715
0.256772
0.000641018
0.256812
0.00063574
0.256843
0.000595107
0.256899
0.000597029
0.257025
0.000607185
0.257196
0.000629606
0.257418
0.000635397
0.257659
0.000642781
0.257892
0.000601875
0.258116
0.000582163
0.258298
0.000517901
0.258459
0.000494384
0.258572
0.000432375
0.258666
0.000408442
0.258724
0.00035421
0.25877
0.000332067
0.258796
0.000291166
0.258818
0.000274868
0.258831
0.00024614
0.000233049
0.27379
0.000120052
0.273888
0.000331193
0.273904
0.000224834
0.273916
0.000232999
0.273968
0.000286947
0.274098
0.000464585
0.274257
0.000493964
0.274429
0.000567398
0.274541
0.000529328
0.274634
0.000542003
0.274725
0.00050424
0.274828
0.000493836
0.274962
0.000473646
0.275115
0.000476729
0.275288
0.000462148
0.275471
0.000459448
0.275649
0.000423899
0.275824
0.000408005
0.275975
0.000366492
0.276113
0.000356167
0.276226
0.000319937
0.276328
0.000306443
0.27641
0.000272282
0.276485
0.000257118
0.276548
0.000228078
0.276607
0.000215054
0.27666
0.0001931
0.000182766
0.292787
8.7353e-05
0.292892
0.000226454
0.292925
0.000191345
0.292968
0.000190237
0.293029
0.000225509
0.293144
0.000349666
0.293271
0.000367101
0.293431
0.000406962
0.293564
0.000397195
0.293694
0.00041157
0.293817
0.000381197
0.293947
0.000363417
0.294082
0.000338843
0.294224
0.000335313
0.294364
0.000321496
0.29451
0.000313368
0.294648
0.000286468
0.294785
0.00027087
0.294909
0.000242269
0.295036
0.000229143
0.295151
0.00020486
0.295265
0.000192561
0.295368
0.00016941
0.295469
0.000155741
0.295563
0.000134817
0.295655
0.000122822
0.295741
0.000106864
9.84045e-05
0.313108
5.12346e-05
0.313218
0.000116977
0.313291
0.00011836
0.313374
0.000107324
0.313478
0.000120652
0.313647
0.000180962
0.313823
0.000191084
0.314032
0.000198393
0.314232
0.000196518
0.314437
0.000206824
0.314622
0.000195776
0.314805
0.000180859
0.314979
0.00016496
0.315151
0.000162787
0.315315
0.000158031
0.315475
0.000152821
0.315621
0.000140975
0.31576
0.00013227
0.315881
0.000121179
0.315994
0.000115979
0.316092
0.000106491
0.316184
0.00010105
0.316262
9.13132e-05
0.316333
8.45648e-05
0.316393
7.47719e-05
0.316448
6.81661e-05
0.316494
6.00537e-05
5.49076e-05
0.334851
0.334968
0.335087
0.335194
0.335315
0.335496
0.335687
0.335885
0.336082
0.336288
0.336484
0.336665
0.33683
0.336993
0.337151
0.337304
0.337445
0.337577
0.337698
0.337814
0.337921
0.338022
0.338113
0.338197
0.338272
0.33834
0.3384
)
;

boundaryField
{
    outlet
    {
        type            calculated;
        value           nonuniform 0();
    }
    upperWall
    {
        type            symmetryPlane;
        value           uniform 0;
    }
    lowerWall
    {
        type            symmetryPlane;
        value           nonuniform 0();
    }
    inlet
    {
        type            calculated;
        value           nonuniform List<scalar> 
40
(
-0.053033
-0.053033
-0.053033
-0.053033
-0.053033
-0.053033
-0.053033
-0.053033
-0.053033
-0.053033
-0.0478286
-0.051148
-0.0546978
-0.058494
-0.0625537
-0.0668951
-0.0715378
-0.0765027
-0.0818122
-0.0874902
-0.0935622
-0.100056
-0.107
-0.114426
-0.122367
-0.13086
-0.139942
-0.149655
-0.160041
-0.171148
-0.183026
-0.195729
-0.209313
-0.22384
-0.239375
-0.255988
-0.273755
-0.292754
-0.313072
-0.3348
)
;
    }
    cylinder
    {
        type            calculated;
        value           nonuniform 0();
    }
    frontAndBack
    {
        type            empty;
        value           nonuniform 0();
    }
    procBoundary4to0
    {
        type            processor;
        value           nonuniform List<scalar> 
33
(
-0.000639704
-0.000684
-0.000734686
-0.000424888
-0.00178623
0.000545628
0.00146347
-0.000184011
0.000603505
0.000386464
-0.00120488
-6.52992e-05
-4.74401e-05
-0.000786107
3.50042e-05
0.00010888
-7.38225e-05
-3.26961e-06
3.46039e-06
-3.73362e-05
-0.000184909
-0.000242151
-0.000332241
-0.000395838
-0.000479701
-0.000545567
-0.000602948
-0.000652741
-0.00068777
-0.000725023
-0.000745342
-0.000770175
-0.000784147
)
;
    }
    procBoundary4to5
    {
        type            processor;
        value           nonuniform List<scalar> 
45
(
0.0423452
0.0421761
0.0417406
0.00931483
0.0437753
0.0427228
0.015168
0.0439615
0.0183286
0.0448654
0.00601224
0.0432809
0.0406923
0.00596717
0.0387119
0.0467072
0.0509961
0.0546556
0.0587489
0.063328
0.0682099
0.0732325
0.078355
0.0836871
0.0893697
0.0954777
0.102034
0.109083
0.11665
0.124735
0.133374
0.142581
0.152356
0.162941
0.174266
0.185951
0.198288
0.211733
0.226369
0.242106
0.258845
0.276711
0.295825
0.316538
0.338455
)
;
    }
}


// ************************************************************************* //
