/*--------------------------------*- C++ -*----------------------------------*\
| =========                 |                                                 |
| \\      /  F ield         | OpenFOAM: The Open Source CFD Toolbox           |
|  \\    /   O peration     | Version:                                        |
|   \\  /    A nd           | Website:  www.openfoam.com                      |
|    \\/     M anipulation  |                                                 |
\*---------------------------------------------------------------------------*/
FoamFile
{
    version     2.0;
    format      ascii;
    class       surfaceScalarField;
    location    "0.6";
    object      phi;
}
// * * * * * * * * * * * * * * * * * * * * * * * * * * * * * * * * * * * * * //

dimensions      [0 3 -1 0 0 0 0];
oriented        oriented;


internalField   nonuniform List<scalar> 
760
(
3.13714e-05
-2.46848e-07
3.16081e-05
-2.36674e-07
3.18351e-05
-2.27004e-07
3.20529e-05
-2.17804e-07
3.22619e-05
-2.09038e-07
3.24626e-05
-2.00676e-07
3.26553e-05
-1.92687e-07
3.28404e-05
-1.85048e-07
3.30181e-05
-1.77734e-07
3.31888e-05
-1.70727e-07
3.33528e-05
-1.6401e-07
3.35104e-05
-1.57566e-07
3.36618e-05
-1.51381e-07
3.38072e-05
-1.45445e-07
3.3947e-05
-1.39745e-07
3.40813e-05
-1.34271e-07
3.42103e-05
-1.29014e-07
3.43342e-05
-1.23966e-07
3.44534e-05
-1.19117e-07
-1.14461e-07
3.14031e-05
-4.9058e-07
3.16363e-05
-4.6983e-07
3.18594e-05
-4.50135e-07
3.2073e-05
-4.31425e-07
3.22776e-05
-4.13631e-07
3.24736e-05
-3.96687e-07
3.26615e-05
-3.80536e-07
3.28415e-05
-3.65122e-07
3.30142e-05
-3.50398e-07
3.31798e-05
-3.3632e-07
3.33386e-05
-3.22851e-07
3.3491e-05
-3.09957e-07
3.36373e-05
-2.97605e-07
3.37776e-05
-2.8577e-07
3.39123e-05
-2.74426e-07
3.40415e-05
-2.63549e-07
3.41656e-05
-2.53119e-07
3.42848e-05
-2.43116e-07
3.43992e-05
-2.33521e-07
-2.24317e-07
3.14614e-05
-7.27407e-07
3.16869e-05
-6.95335e-07
3.19017e-05
-6.64967e-07
3.21065e-05
-6.36195e-07
3.23018e-05
-6.08915e-07
3.24881e-05
-5.83023e-07
3.2666e-05
-5.58424e-07
3.28359e-05
-5.35029e-07
3.29983e-05
-5.12756e-07
3.31535e-05
-4.91533e-07
3.33019e-05
-4.71294e-07
3.3444e-05
-4.51978e-07
3.35799e-05
-4.33531e-07
3.371e-05
-4.15905e-07
3.38347e-05
-3.99056e-07
3.3954e-05
-3.82941e-07
3.40685e-05
-3.67524e-07
3.41781e-05
-3.52771e-07
3.42832e-05
-3.38648e-07
-3.25125e-07
3.15353e-05
-9.5228e-07
3.17479e-05
-9.07925e-07
3.1949e-05
-8.66078e-07
3.21394e-05
-8.26593e-07
3.23198e-05
-7.89313e-07
3.24909e-05
-7.54089e-07
3.26532e-05
-7.20775e-07
3.28074e-05
-6.89236e-07
3.2954e-05
-6.59345e-07
3.30935e-05
-6.30987e-07
3.32262e-05
-6.04059e-07
3.33527e-05
-5.78464e-07
3.34733e-05
-5.54116e-07
3.35883e-05
-5.30938e-07
3.36981e-05
-5.08856e-07
3.3803e-05
-4.87806e-07
3.39032e-05
-4.67728e-07
3.3999e-05
-4.48567e-07
3.40906e-05
-4.30274e-07
-4.128e-07
3.16063e-05
-1.15849e-06
3.17993e-05
-1.10089e-06
3.198e-05
-1.04683e-06
3.21495e-05
-9.96083e-07
3.23087e-05
-9.48438e-07
3.24582e-05
-9.0367e-07
3.2599e-05
-8.61564e-07
3.27317e-05
-8.2192e-07
3.28569e-05
-7.8455e-07
3.29752e-05
-7.49282e-07
3.30871e-05
-7.15958e-07
3.31931e-05
-6.84436e-07
3.32936e-05
-6.54586e-07
3.33889e-05
-6.2629e-07
3.34795e-05
-5.99442e-07
3.35656e-05
-5.73944e-07
3.36476e-05
-5.49709e-07
3.37257e-05
-5.26657e-07
3.38001e-05
-5.04714e-07
-4.83813e-07
3.16469e-05
-1.33759e-06
3.18121e-05
-1.2661e-06
3.19647e-05
-1.19943e-06
3.21059e-05
-1.13727e-06
3.22367e-05
-1.07929e-06
3.23582e-05
-1.02516e-06
3.24712e-05
-9.7458e-07
3.25766e-05
-9.27248e-07
3.26749e-05
-8.82899e-07
3.27669e-05
-8.41285e-07
3.28531e-05
-8.02181e-07
3.29341e-05
-7.65384e-07
3.30102e-05
-7.30711e-07
3.30819e-05
-6.97995e-07
3.31496e-05
-6.67088e-07
3.32135e-05
-6.37854e-07
3.32739e-05
-6.10174e-07
3.33312e-05
-5.83937e-07
3.33855e-05
-5.59043e-07
-5.35403e-07
3.16184e-05
-1.47977e-06
3.17467e-05
-1.39444e-06
3.18628e-05
-1.31549e-06
3.1968e-05
-1.24244e-06
3.20635e-05
-1.17481e-06
3.21504e-05
-1.11212e-06
3.22298e-05
-1.05395e-06
3.23024e-05
-9.9988e-07
3.23691e-05
-9.49538e-07
3.24304e-05
-9.02587e-07
3.24869e-05
-8.58721e-07
3.25392e-05
-8.17666e-07
3.25877e-05
-7.79177e-07
3.26327e-05
-7.43034e-07
3.26747e-05
-7.09041e-07
3.27138e-05
-6.77022e-07
3.27505e-05
-6.46821e-07
3.27848e-05
-6.18298e-07
3.28171e-05
-5.91324e-07
-5.65787e-07
3.1471e-05
-1.57475e-06
3.15533e-05
-1.47676e-06
3.16247e-05
-1.38689e-06
3.16867e-05
-1.30444e-06
3.17406e-05
-1.22871e-06
3.17876e-05
-1.15906e-06
3.18285e-05
-1.09489e-06
3.18643e-05
-1.03565e-06
3.18956e-05
-9.80857e-07
3.19231e-05
-9.30064e-07
3.19472e-05
-8.82881e-07
3.19685e-05
-8.38959e-07
3.19874e-05
-7.97989e-07
3.2004e-05
-7.59696e-07
3.20188e-05
-7.23838e-07
3.2032e-05
-6.902e-07
3.20438e-05
-6.5859e-07
3.20543e-05
-6.28839e-07
3.20638e-05
-6.00795e-07
-5.74324e-07
3.11442e-05
-1.61337e-06
3.11727e-05
-1.50532e-06
3.1193e-05
-1.40717e-06
3.12065e-05
-1.3179e-06
3.12144e-05
-1.2366e-06
3.12177e-05
-1.16241e-06
3.12174e-05
-1.09454e-06
3.1214e-05
-1.03232e-06
3.12083e-05
-9.75138e-07
3.12007e-05
-9.22442e-07
3.11916e-05
-8.73762e-07
3.11813e-05
-8.28678e-07
3.11701e-05
-7.86825e-07
3.11583e-05
-7.4788e-07
3.1146e-05
-7.11561e-07
3.11335e-05
-6.77619e-07
3.11207e-05
-6.45835e-07
3.11079e-05
-6.16017e-07
3.10951e-05
-5.87994e-07
-5.61614e-07
3.05701e-05
-1.58939e-06
3.05402e-05
-1.47543e-06
3.05059e-05
-1.37289e-06
3.04685e-05
-1.28049e-06
3.04289e-05
-1.19701e-06
3.03879e-05
-1.12142e-06
3.03461e-05
-1.05276e-06
3.0304e-05
-9.9022e-07
3.0262e-05
-9.33085e-07
3.02203e-05
-8.80729e-07
3.01791e-05
-8.3261e-07
3.01387e-05
-7.88257e-07
3.00991e-05
-7.47261e-07
3.00605e-05
-7.09266e-07
3.00229e-05
-6.73964e-07
2.99864e-05
-6.41084e-07
2.9951e-05
-6.10391e-07
2.99166e-05
-5.81678e-07
2.98834e-05
-5.54764e-07
-5.29489e-07
2.96792e-05
-1.50143e-06
2.95907e-05
-1.38699e-06
2.95029e-05
-1.28501e-06
2.94163e-05
-1.1939e-06
2.93315e-05
-1.11224e-06
2.92489e-05
-1.03881e-06
2.91687e-05
-9.72569e-07
2.90911e-05
-9.12589e-07
2.90161e-05
-8.5809e-07
2.89437e-05
-8.084e-07
2.88741e-05
-7.62938e-07
2.8807e-05
-7.21208e-07
2.87425e-05
-6.82783e-07
2.86806e-05
-6.47294e-07
2.8621e-05
-6.14424e-07
2.85638e-05
-5.83898e-07
2.85089e-05
-5.55477e-07
2.84562e-05
-5.28954e-07
2.84056e-05
-5.04148e-07
-4.80899e-07
2.84073e-05
-1.35437e-06
2.82659e-05
-1.24559e-06
2.81304e-05
-1.14952e-06
2.80009e-05
-1.06437e-06
2.78772e-05
-9.88614e-07
2.77594e-05
-9.20939e-07
2.7647e-05
-8.60236e-07
2.754e-05
-8.05564e-07
2.7438e-05
-7.56124e-07
2.73409e-05
-7.11238e-07
2.72483e-05
-6.7033e-07
2.716e-05
-6.3291e-07
2.70757e-05
-5.98562e-07
2.69954e-05
-5.66929e-07
2.69187e-05
-5.37704e-07
2.68454e-05
-5.10627e-07
2.67754e-05
-4.85469e-07
2.67085e-05
-4.62036e-07
2.66445e-05
-4.40157e-07
-4.19684e-07
2.67036e-05
-1.15967e-06
2.65204e-05
-1.06247e-06
2.63482e-05
-9.77323e-07
2.61863e-05
-9.0239e-07
2.60338e-05
-8.36139e-07
2.58901e-05
-7.77288e-07
2.57547e-05
-7.24762e-07
2.56268e-05
-6.77663e-07
2.55059e-05
-6.35236e-07
2.53915e-05
-5.9685e-07
2.52831e-05
-5.61973e-07
2.51804e-05
-5.30156e-07
2.50828e-05
-5.01022e-07
2.49902e-05
-4.74247e-07
2.4902e-05
-4.49558e-07
2.48181e-05
-4.26722e-07
2.47382e-05
-4.05537e-07
2.4662e-05
-3.85831e-07
2.45893e-05
-3.67454e-07
-3.50277e-07
2.45367e-05
-9.34396e-07
2.43278e-05
-8.53504e-07
2.41336e-05
-7.83123e-07
2.39527e-05
-7.21558e-07
2.3784e-05
-6.6741e-07
2.36263e-05
-6.19528e-07
2.34785e-05
-5.76961e-07
2.33397e-05
-5.38921e-07
2.32092e-05
-5.04757e-07
2.30863e-05
-4.73925e-07
2.29703e-05
-4.45974e-07
2.28607e-05
-4.20524e-07
2.27569e-05
-3.97258e-07
2.26586e-05
-3.75906e-07
2.25653e-05
-3.56243e-07
2.24766e-05
-3.38075e-07
2.23923e-05
-3.21236e-07
2.23121e-05
-3.05586e-07
2.22356e-05
-2.91001e-07
-2.77377e-07
2.18981e-05
-6.98963e-07
2.16817e-05
-6.37101e-07
2.14822e-05
-5.83575e-07
2.12976e-05
-5.36972e-07
2.11263e-05
-4.96149e-07
2.0967e-05
-4.60172e-07
2.08183e-05
-4.28279e-07
2.06792e-05
-3.99847e-07
2.05488e-05
-3.74363e-07
2.04263e-05
-3.51402e-07
2.03109e-05
-3.30615e-07
2.02021e-05
-3.11709e-07
2.00993e-05
-2.9444e-07
2.0002e-05
-2.78605e-07
1.99098e-05
-2.6403e-07
1.98223e-05
-2.5057e-07
1.97391e-05
-2.38099e-07
1.96601e-05
-2.26512e-07
1.95848e-05
-2.15717e-07
-2.05635e-07
1.88002e-05
-4.74308e-07
1.85949e-05
-4.31813e-07
1.84065e-05
-3.95192e-07
1.8233e-05
-3.63418e-07
1.80725e-05
-3.3566e-07
1.79236e-05
-3.11253e-07
1.77849e-05
-2.89656e-07
1.76555e-05
-2.70428e-07
1.75344e-05
-2.53213e-07
1.74207e-05
-2.37714e-07
1.73138e-05
-2.23689e-07
1.7213e-05
-2.10939e-07
1.71178e-05
-1.99295e-07
1.70278e-05
-1.88618e-07
1.69426e-05
-1.78791e-07
1.68618e-05
-1.69715e-07
1.6785e-05
-1.61306e-07
1.67119e-05
-1.53491e-07
1.66424e-05
-1.46209e-07
-1.39406e-07
1.52715e-05
-2.79237e-07
1.50938e-05
-2.54138e-07
1.49312e-05
-2.32568e-07
1.47816e-05
-2.13893e-07
1.46436e-05
-1.97605e-07
1.45156e-05
-1.83299e-07
1.43966e-05
-1.7065e-07
1.42856e-05
-1.59395e-07
1.41817e-05
-1.49318e-07
1.40842e-05
-1.40247e-07
1.39926e-05
-1.32036e-07
1.39062e-05
-1.24569e-07
1.38246e-05
-1.17747e-07
1.37475e-05
-1.11488e-07
1.36745e-05
-1.05725e-07
1.36051e-05
-1.00399e-07
1.35393e-05
-9.54612e-08
1.34767e-05
-9.08701e-08
1.34171e-05
-8.65897e-08
-8.25891e-08
1.13485e-05
-1.287e-07
1.12115e-05
-1.1719e-07
1.10863e-05
-1.07314e-07
1.09711e-05
-9.87715e-08
1.08649e-05
-9.13255e-08
1.07664e-05
-8.47869e-08
1.06747e-05
-7.90047e-08
1.05892e-05
-7.38571e-08
1.05091e-05
-6.9246e-08
1.04339e-05
-6.50913e-08
1.03632e-05
-6.13276e-08
1.02966e-05
-5.79013e-08
1.02336e-05
-5.47679e-08
1.0174e-05
-5.18904e-08
1.01175e-05
-4.92377e-08
1.00639e-05
-4.67839e-08
1.00129e-05
-4.45068e-08
9.96445e-06
-4.23876e-08
9.91827e-06
-4.04102e-08
-3.85603e-08
7.06779e-06
-3.33177e-08
6.98098e-06
-3.03815e-08
6.90153e-06
-2.78634e-08
6.82844e-06
-2.56854e-08
6.7609e-06
-2.37861e-08
6.69823e-06
-2.21168e-08
6.63986e-06
-2.0639e-08
6.58533e-06
-1.93214e-08
6.53422e-06
-1.81393e-08
6.4862e-06
-1.70723e-08
6.44098e-06
-1.6104e-08
6.3983e-06
-1.5221e-08
6.35794e-06
-1.44119e-08
6.31972e-06
-1.36676e-08
6.28346e-06
-1.29803e-08
6.24902e-06
-1.23435e-08
6.21627e-06
-1.17516e-08
6.18508e-06
-1.12001e-08
6.15535e-06
-1.06847e-08
-1.02019e-08
2.45917e-06
2.42879e-06
2.40093e-06
2.37524e-06
2.35145e-06
2.32934e-06
2.3087e-06
2.28938e-06
2.27124e-06
2.25417e-06
2.23806e-06
2.22284e-06
2.20843e-06
2.19476e-06
2.18178e-06
2.16944e-06
2.15769e-06
2.14649e-06
2.1358e-06
)
;

boundaryField
{
    fixedWalls
    {
        type            calculated;
        value           uniform 0;
    }
    inlet
    {
        type            calculated;
        value           nonuniform 0();
    }
    outlet
    {
        type            calculated;
        value           nonuniform 0();
    }
    frontAndBack
    {
        type            empty;
        value           nonuniform 0();
    }
    procBoundary5to1
    {
        type            processor;
        value           nonuniform List<scalar> 
20
(
5.97095e-13
-5.25085e-14
-3.99671e-13
-6.84512e-13
-9.39018e-13
-1.18174e-12
-1.2579e-12
-1.3086e-12
-1.43234e-12
-1.63689e-12
-1.9066e-12
-2.2204e-12
-2.58196e-12
-2.7565e-12
-2.99871e-12
-3.17376e-12
-3.71772e-12
-4.16567e-12
-4.76847e-12
-6.13894e-12
)
;
    }
    procBoundary5to4
    {
        type            processor;
        value           nonuniform List<scalar> 
20
(
-3.11246e-05
-3.11594e-05
-3.12246e-05
-3.13104e-05
-3.14001e-05
-3.14678e-05
-3.14762e-05
-3.1376e-05
-3.11056e-05
-3.05941e-05
-2.97671e-05
-2.85543e-05
-2.68983e-05
-2.4762e-05
-2.21335e-05
-1.90248e-05
-1.54665e-05
-1.1499e-05
-7.16317e-06
-2.49249e-06
)
;
    }
    procBoundary5to6
    {
        type            processor;
        value           nonuniform List<scalar> 
20
(
3.45678e-05
3.45091e-05
3.4384e-05
3.41783e-05
3.38712e-05
3.34371e-05
3.28475e-05
3.20723e-05
3.10824e-05
2.98513e-05
2.8357e-05
2.65833e-05
2.45199e-05
2.21627e-05
1.9513e-05
1.65762e-05
1.33602e-05
9.87424e-06
6.127e-06
2.1256e-06
)
;
    }
}


// ************************************************************************* //
