/*--------------------------------*- C++ -*----------------------------------*\
| =========                 |                                                 |
| \\      /  F ield         | OpenFOAM: The Open Source CFD Toolbox           |
|  \\    /   O peration     | Version:                                        |
|   \\  /    A nd           | Website:  www.openfoam.com                      |
|    \\/     M anipulation  |                                                 |
\*---------------------------------------------------------------------------*/
FoamFile
{
    version     2.0;
    format      ascii;
    class       volScalarField;
    location    "1";
    object      p;
}
// * * * * * * * * * * * * * * * * * * * * * * * * * * * * * * * * * * * * * //

dimensions      [0 2 -2 0 0 0 0];


internalField   nonuniform List<scalar> 
400
(
0.726493
0.723559
0.716927
0.706927
0.694503
0.680397
0.665178
0.649324
0.633222
0.617152
0.60131
0.585825
0.570776
0.556204
0.542125
0.528532
0.51541
0.502735
0.490477
0.478606
0.72745
0.724443
0.717656
0.70746
0.694845
0.680577
0.665225
0.649272
0.6331
0.616984
0.601114
0.585615
0.570562
0.555994
0.541922
0.52834
0.51523
0.502567
0.490322
0.478464
0.729387
0.726229
0.719122
0.708523
0.695524
0.680926
0.66531
0.649159
0.632848
0.616641
0.600717
0.585192
0.570132
0.555571
0.541515
0.527955
0.51487
0.502232
0.490013
0.478179
0.732353
0.728953
0.721338
0.710112
0.696523
0.681426
0.665413
0.648967
0.632449
0.616109
0.600107
0.584545
0.569479
0.554931
0.540901
0.527375
0.514328
0.50173
0.48955
0.477754
0.736426
0.732673
0.724326
0.71222
0.697819
0.682046
0.665503
0.648665
0.631879
0.615368
0.599269
0.583664
0.568594
0.554067
0.540076
0.526598
0.513605
0.501062
0.488936
0.477192
0.74172
0.737469
0.72811
0.71483
0.699377
0.682744
0.665535
0.648216
0.631105
0.614391
0.598181
0.582533
0.567466
0.552974
0.539037
0.525625
0.512702
0.500231
0.488175
0.476499
0.748395
0.743446
0.732718
0.717915
0.701146
0.68346
0.665451
0.647566
0.630082
0.613144
0.596819
0.581134
0.566084
0.551645
0.537783
0.524457
0.511625
0.499246
0.487278
0.475684
0.756671
0.750741
0.738173
0.721431
0.703054
0.684114
0.665175
0.646651
0.628761
0.611589
0.595156
0.579452
0.564442
0.550082
0.53632
0.523105
0.510388
0.498121
0.48626
0.474765
0.766856
0.759525
0.744484
0.725305
0.705001
0.684602
0.664614
0.645395
0.627083
0.609687
0.59317
0.577478
0.562542
0.548293
0.534664
0.521589
0.509012
0.496879
0.485144
0.473765
0.779379
0.770007
0.751635
0.729425
0.706852
0.684791
0.663654
0.643712
0.624992
0.607405
0.590849
0.575216
0.5604
0.546305
0.532844
0.519942
0.507531
0.495554
0.483962
0.472714
0.794851
0.782432
0.759555
0.73362
0.708423
0.684514
0.662165
0.641517
0.622441
0.604732
0.588205
0.572696
0.558058
0.544165
0.530912
0.518212
0.505992
0.494191
0.482757
0.471649
0.814162
0.797069
0.768085
0.737638
0.709476
0.683578
0.660019
0.638743
0.619416
0.601689
0.585288
0.569983
0.555585
0.541943
0.528935
0.516465
0.504455
0.492842
0.481574
0.470612
0.838636
0.814178
0.776908
0.741118
0.709713
0.681775
0.65711
0.635373
0.615959
0.598356
0.582193
0.567177
0.553082
0.539732
0.526997
0.514773
0.502981
0.491559
0.480457
0.469638
0.870306
0.833948
0.785479
0.743562
0.708795
0.678928
0.653409
0.631476
0.612191
0.594875
0.579064
0.564412
0.550664
0.537632
0.525179
0.513203
0.501625
0.490386
0.479442
0.468757
0.912219
0.856349
0.792923
0.744357
0.7064
0.674966
0.649017
0.627232
0.608314
0.591436
0.576066
0.561824
0.54844
0.535726
0.523547
0.511803
0.500422
0.48935
0.478547
0.46798
0.968502
0.880792
0.797981
0.742918
0.702413
0.670051
0.644215
0.622928
0.604573
0.588232
0.573342
0.559514
0.546481
0.534062
0.522129
0.510591
0.499382
0.488454
0.477771
0.467305
1.0447
0.90589
0.799085
0.738938
0.697083
0.664606
0.639392
0.618849
0.601159
0.585384
0.570962
0.557517
0.544799
0.532637
0.520916
0.509552
0.498488
0.487679
0.477096
0.466713
1.15278
0.930425
0.794522
0.732017
0.690503
0.658827
0.634652
0.615008
0.598031
0.582819
0.568841
0.555747
0.543308
0.531373
0.519835
0.508621
0.497681
0.486975
0.476476
0.466165
1.31939
0.953906
0.781882
0.719974
0.681217
0.651809
0.629319
0.610858
0.594738
0.580161
0.56666
0.553935
0.541784
0.530078
0.518724
0.50766
0.496841
0.486236
0.475822
0.465581
1.53899
0.969755
0.76056
0.701761
0.668651
0.643292
0.623212
0.606251
0.59115
0.577297
0.56433
0.552006
0.540166
0.528703
0.517544
0.506636
0.495945
0.485445
0.475117
0.464949
)
;

boundaryField
{
    fixedWalls
    {
        type            zeroGradient;
    }
    inlet
    {
        type            zeroGradient;
    }
    outlet
    {
        type            fixedValue;
        value           nonuniform 0();
    }
    frontAndBack
    {
        type            empty;
    }
    procBoundary4to0
    {
        type            processor;
        value           nonuniform List<scalar> 
20
(
0.726493
0.723559
0.716927
0.706927
0.694503
0.680397
0.665178
0.649324
0.633222
0.617152
0.60131
0.585825
0.570776
0.556204
0.542125
0.528532
0.51541
0.502735
0.490477
0.478606
)
;
    }
    procBoundary4to5
    {
        type            processor;
        value           nonuniform List<scalar> 
20
(
0.467093
0.466962
0.466701
0.466312
0.465798
0.465167
0.464429
0.463601
0.462706
0.461771
0.460831
0.45992
0.459069
0.458302
0.457625
0.457034
0.456513
0.456025
0.4555
0.454929
)
;
    }
}


// ************************************************************************* //
