/*--------------------------------*- C++ -*----------------------------------*\
| =========                 |                                                 |
| \\      /  F ield         | OpenFOAM: The Open Source CFD Toolbox           |
|  \\    /   O peration     | Version:                                        |
|   \\  /    A nd           | Website:  www.openfoam.com                      |
|    \\/     M anipulation  |                                                 |
\*---------------------------------------------------------------------------*/
FoamFile
{
    version     2.0;
    format      ascii;
    class       surfaceScalarField;
    location    "128";
    object      phi;
}
// * * * * * * * * * * * * * * * * * * * * * * * * * * * * * * * * * * * * * //

dimensions      [0 3 -1 0 0 0 0];
oriented        oriented;


internalField   nonuniform List<scalar> 
2201
(
-0.00125843
0.000750244
0.000508189
-0.00158742
0.000328989
-0.00138959
-0.000197835
-0.000868631
-0.000520957
-0.000420598
-0.000448033
-7.11519e-05
-0.000349446
0.000188238
-0.00025939
-0.000799733
0.000987971
-0.00300346
0.00220372
0.00331446
-0.00631791
-0.00131952
0.002164
-9.42344e-05
-0.00194221
0.000951676
-0.00176179
-0.00037825
-0.00132834
-0.000954407
-0.00159742
-0.000178952
-0.00387471
0.00192785
-0.00846029
0.00432619
-0.0136931
0.00622078
-0.0177854
0.00629602
0.00589686
-0.0203678
-0.00050007
0.00394553
-0.00128146
-0.0017569
0.00220851
-0.00240233
0.000267179
-0.0040838
0.000727066
-0.00824173
0.00397897
-0.0139869
0.00767304
-0.0187325
0.00907177
-0.0212673
0.00875553
-0.0234237
0.00845247
0.00713009
-0.0246569
-0.000967985
0.0059478
-0.00103428
-0.00308813
0.00432865
-0.0057668
0.00294585
-0.0104416
0.00540183
-0.0164385
0.00997595
-0.0208472
0.0120817
-0.0232509
0.0114755
-0.0248124
0.010317
-0.0255761
0.00921617
0.00738146
-0.0258275
-0.00343485
0.00837213
0.00101051
-0.00643577
0.00732958
-0.0107283
0.00723837
-0.0167177
0.0113913
-0.0218438
0.015102
-0.0241597
0.0143976
-0.0252775
0.0125933
-0.0262618
0.0113013
-0.0263666
0.009321
0.00740999
-0.0263951
-0.00724145
0.0108025
0.00481107
-0.0106343
0.0107224
-0.0159452
0.0125493
-0.021721
0.0171671
-0.0247141
0.0180951
-0.0254684
0.0151519
-0.0263806
0.0135055
-0.0268719
0.0117925
-0.0268157
0.00926486
0.00753149
-0.0269372
-0.0112962
0.0133208
0.0087779
-0.0153848
0.014811
-0.0210519
0.0182163
-0.0250924
0.0212076
-0.0258669
0.0188697
-0.0262598
0.0155448
-0.027192
0.0144377
-0.0272229
0.0118234
-0.0273842
0.00942617
0.00759751
-0.0274502
-0.0159119
0.0163936
0.0128391
-0.0206339
0.0195329
-0.0251921
0.0227746
-0.0266908
0.0227063
-0.0264035
0.0185824
-0.0272211
0.0163624
-0.0277386
0.0149552
-0.0276844
0.0117693
-0.0280464
0.00978814
0.00747493
-0.0279238
-0.0211834
0.0200167
0.0175603
-0.025341
0.0236905
-0.0275232
0.0249567
-0.0271947
0.0223779
-0.0271978
0.0185855
-0.0281845
0.017349
-0.0282051
0.0149758
-0.0283962
0.0119604
-0.0286558
0.0100477
0.00729406
-0.0284749
-0.0259035
-0.0281605
0.0259475
-0.0282528
0.025049
-0.027569
0.021694
-0.0282844
0.0193009
-0.0288684
0.017933
-0.0287791
0.0148865
-0.0291799
0.0123612
-0.0292123
0.0100802
0.00719446
-0.0291127
-0.0290745
0.0264709
-0.0282288
0.0242033
-0.0282815
0.0217468
-0.0292004
0.0202198
-0.0292975
0.0180301
-0.0295191
0.0151081
-0.0298785
0.0127206
-0.0298531
0.0100548
0.00718889
-0.0298475
-0.0287194
-0.0282597
0.0237437
-0.0291032
0.0225903
-0.0296656
0.0207821
-0.0297811
0.0181456
-0.0303281
0.0156552
-0.03053
0.0129224
-0.0306436
0.0101684
0.00714266
-0.0305973
-0.0285915
0.0242419
-0.029577
0.0235758
-0.0299712
0.0211762
-0.03047
0.0186444
-0.031052
0.0162373
-0.0312453
0.0131156
-0.0314707
0.0103938
0.00702812
-0.0313561
-0.0288497
-0.0298746
0.0246008
-0.030411
0.0217126
-0.0312001
0.0194335
-0.0316922
0.0167294
-0.0320115
0.0134349
-0.0321992
0.0105815
0.00703183
-0.0322029
-0.0301735
0.0255821
-0.0309453
0.0224844
-0.0319105
0.0203986
-0.0322828
0.0171017
-0.0328478
0.0139999
-0.0329436
0.0106773
0.00718686
-0.0330986
-0.0304043
0.0265208
-0.0315402
0.0236203
-0.0325161
0.0213746
-0.0329848
0.0175704
-0.0336876
0.0147027
-0.0338388
0.0108286
0.0073366
-0.0339886
-0.0307167
-0.0322929
0.0251965
-0.0330627
0.0221444
-0.0339711
0.0184789
-0.0344918
0.0152233
-0.0348566
0.0111934
0.0074141
-0.0349341
-0.0330716
0.0269744
-0.0338452
0.0229179
-0.0349848
0.0196185
-0.0354301
0.0156687
-0.0358303
0.0115935
0.00753237
-0.0359485
-0.0338746
0.028807
-0.0348657
0.0239089
-0.0358453
0.0205982
-0.0364634
0.0162868
-0.0367221
0.0118521
0.00774075
-0.0369304
-0.034581
-0.035695
0.0250228
-0.0367385
0.0216417
-0.0372403
0.0167886
-0.0377345
0.0123463
0.00778432
-0.0377781
-0.0156538
0.000956944
-0.0148437
-0.000810047
-0.0123178
-0.00252589
-0.0085553
-0.00376254
-0.00436743
-0.00418787
-0.00075581
-0.00361162
0.00136302
-0.00211883
0.00150283
-0.000139809
0.000519687
0.00098314
0.00102788
-0.0197236
0.000654004
-0.0179759
-0.00255766
-0.0150608
-0.005441
-0.0109788
-0.00784458
-0.00625731
-0.00890936
-0.00184336
-0.00802557
0.00111065
-0.00507284
0.00204939
-0.00107855
0.00137645
0.00165609
0.00231009
-0.0204858
-0.0189114
-0.0041321
-0.0160473
-0.00830508
-0.0121426
-0.0117493
-0.00751464
-0.0135373
-0.00293889
-0.0126013
0.000507671
-0.0085194
0.00238718
-0.00295806
0.00261277
0.0014305
0.0036414
-0.0196532
-0.0171859
-0.0135632
-0.0091302
-0.00455725
-0.0171743
-0.000732336
-0.0123443
0.00160411
-0.00529451
0.00235737
0.000677233
0.00496449
-0.00651912
-0.00257438
-0.016289
-0.000310377
-0.00755851
0.000198464
0.000168392
0.00617347
-0.00544832
-0.00347042
-0.00953641
-0.00343202
0.000129996
0.00755251
-0.00692548
-0.00724138
0.000445898
0.00908903
-0.0111499
0.0107783
0.00691801
0.0500652
-0.0491989
0.00647161
0.052792
-0.0523456
0.00626474
0.0558516
-0.0556448
0.00591703
0.0595168
-0.0591691
0.00534992
0.0634777
-0.0629106
0.00471818
0.0676107
-0.066979
0.00414093
0.0719117
-0.0713345
0.00369371
0.0765171
-0.0760699
0.00335567
0.0815288
-0.0811908
0.00311446
0.0869282
-0.086687
0.00291759
0.0927484
-0.0925515
0.00270691
0.0990256
-0.098815
0.00249152
0.105681
-0.105466
0.002289
0.1127
-0.112498
0.00209925
0.120241
-0.120051
0.00193961
0.128344
-0.128185
0.00180709
0.137006
-0.136874
0.00168435
0.146247
-0.146124
0.00156137
0.156082
-0.155959
0.0014349
0.166607
-0.16648
0.00130411
0.17788
-0.177749
0.00117115
0.189958
-0.189825
0.00103404
0.202881
-0.202744
0.000890993
0.216719
-0.216576
0.000748864
0.231512
-0.23137
0.000602365
0.247355
-0.247208
0.000452505
0.264317
-0.264167
0.000304754
0.282493
-0.282345
0.000156885
0.301991
-0.301843
0.322881
-0.322724
0.0121735
0.050238
0.011727
0.0532385
0.0111429
0.0564357
0.0107783
0.0598815
0.0105306
0.0637255
0.0102073
0.0679339
0.00971614
0.0724029
0.0090483
0.0771849
0.00832598
0.0822511
0.00773153
0.0875227
0.0072776
0.0932023
0.00689427
0.099409
0.00658881
0.105987
0.00631044
0.112979
0.00600187
0.12055
0.00568212
0.128664
0.00534532
0.137343
0.00499357
0.146599
0.0046376
0.156438
0.00427993
0.166965
0.00391846
0.178241
0.00355326
0.190323
0.00317099
0.203264
0.0027738
0.217116
0.0023652
0.23192
0.00193297
0.247787
0.00148325
0.264767
0.00101621
0.28296
0.000522536
0.302484
0.323403
0.0161225
0.0509041
0.0157539
0.0536071
0.015587
0.0566026
0.0152121
0.0602564
0.0145899
0.0643477
0.0139349
0.0685889
0.013355
0.0729828
0.0128062
0.0777337
0.0122991
0.0827582
0.011884
0.0879377
0.011402
0.0936844
0.0108618
0.0999491
0.0103735
0.106475
0.00986703
0.113485
0.00935594
0.121061
0.00888884
0.129131
0.00843077
0.137801
0.00796243
0.147067
0.0074762
0.156924
0.00696006
0.167481
0.00641738
0.178784
0.00585027
0.190891
0.0052439
0.20387
0.00461151
0.217749
0.00394675
0.232585
0.00324187
0.248492
0.00249898
0.26551
0.00171587
0.283743
0.000883798
0.303316
0.324287
0.0213595
0.0511863
0.0209127
0.0540539
0.0205522
0.0569631
0.0203683
0.0604402
0.0201535
0.0645625
0.0197197
0.0690227
0.0189471
0.0737555
0.0179008
0.07878
0.0169512
0.0837079
0.0161666
0.0887224
0.0153875
0.0944634
0.0147623
0.100574
0.0142729
0.106965
0.013715
0.114043
0.013129
0.121647
0.0125313
0.129729
0.0118757
0.138457
0.0111931
0.14775
0.0104817
0.157636
0.00973982
0.168223
0.00897548
0.179548
0.00817569
0.19169
0.00732754
0.204718
0.00644917
0.218627
0.00552244
0.233512
0.00454172
0.249472
0.003506
0.266546
0.00240743
0.284842
0.00124147
0.304482
0.325528
0.0251489
0.0253174
0.0249972
0.0242296
0.0234874
0.0230289
0.0225458
0.0219046
0.0213284
0.0205151
0.0195079
0.0954706
0.0187095
0.101373
0.0179304
0.107744
0.0170767
0.114897
0.0163239
0.1224
0.0155768
0.130476
0.0148066
0.139227
0.0140259
0.14853
0.0131836
0.158478
0.0122939
0.169112
0.0113626
0.180479
0.010365
0.192688
0.00931544
0.205768
0.00821516
0.219728
0.00704331
0.234684
0.00580063
0.250715
0.00448286
0.267863
0.00307994
0.286245
0.00158946
0.305973
0.327118
0.0231369
0.0224003
0.02153
0.020667
0.0198485
0.0189383
0.0179944
0.0170205
0.0159798
0.0149012
0.0137639
0.0125573
0.0112906
0.00995773
0.00853758
0.00703443
0.00543851
0.00373804
0.00192938
0.0286584
0.0316177
-0.0271483
-0.0331278
0.030494
0.0283328
-0.0301683
0.0321394
0.0249048
-0.0265502
0.0337589
0.0211289
-0.0227484
0.035129
0.0172695
-0.0186396
0.0361761
0.0130265
-0.0140735
0.0370523
0.00868441
-0.00956069
0.0375295
0.00430134
-0.00477849
0.0379674
-0.000535075
9.72007e-05
-0.00485665
0.00504596
0.0279296
0.0295833
-0.0258952
0.0297431
0.0265192
0.0313867
0.0232612
0.0328741
0.0196416
0.0341718
0.0159718
0.0351558
0.0120425
0.0360158
0.00782438
0.0366174
0.00369978
0.0368479
-0.000765611
-0.00493918
0.0269904
0.0275071
-0.0249141
0.0289043
0.0246053
0.030577
0.0215886
0.032019
0.0181996
0.0332914
0.0146993
0.0343017
0.0110322
0.0350289
0.00709712
0.0356641
0.00306465
0.0358437
-0.000945206
-0.00504405
0.0261062
0.0255384
-0.0241376
0.0279985
0.022713
0.0296758
0.0199112
0.0311335
0.0167419
0.0323334
0.0134994
0.033439
0.00992665
0.0340747
0.00646142
0.0346781
0.00246126
0.0349072
-0.00117435
-0.00507095
0.0253576
0.0236807
-0.0234998
0.0271391
0.0209315
0.0287406
0.0183096
0.0302102
0.0152723
0.031367
0.0123426
0.0324091
0.00888451
0.0331877
0.00568284
0.0336233
0.00202572
0.0339637
-0.00151478
-0.0050958
0.0247185
0.0218844
-0.0229222
0.0264078
0.0192422
0.0279143
0.0168031
0.0292742
0.0139125
0.0305006
0.0111162
0.0313756
0.00800958
0.0322273
0.00483106
0.0326904
0.00156261
0.032944
-0.00176837
-0.0052504
0.0241021
0.0201057
-0.0223234
0.0257224
0.0176219
0.0272323
0.0152932
0.0284538
0.0126909
0.0296311
0.00993886
0.0305524
0.00708824
0.0312322
0.00415132
0.0318427
0.000952132
0.0320502
-0.00197592
-0.00540312
0.0235344
0.0182987
-0.0217273
0.0250624
0.0160938
0.0265507
0.013805
0.0278062
0.0114355
0.0288356
0.00890945
0.0297867
0.00613713
0.0304574
0.0034806
0.0309568
0.000452692
0.0313083
-0.00232742
-0.00545092
0.0229638
0.0164854
-0.0211506
0.0245137
0.0145439
0.0258733
0.0124454
0.0271533
0.0101554
0.028183
0.00787981
0.0290146
0.00530549
0.0297562
0.00273901
0.0301722
3.66601e-05
0.0305157
-0.00267088
-0.00553255
0.022386
0.0147682
-0.0206688
0.0239614
0.0129685
0.0253239
0.0110829
0.0264892
0.00899016
0.0275678
0.00680114
0.0283318
0.00454148
0.0290281
0.00204273
0.0294445
-0.000379742
0.02976
-0.00298635
-0.00562011
0.0219184
0.0131203
-0.0202705
0.0234005
0.0114865
0.0247678
0.00971558
0.0259111
0.00784693
0.0269145
0.00579771
0.0277176
0.00373836
0.0283486
0.00141179
0.0287576
-0.000788814
0.0290961
-0.0033248
-0.00563678
0.0215456
0.0115113
-0.0199366
0.0230106
0.0100214
0.02427
0.00845621
0.0254452
0.00667174
0.0263453
0.00489758
0.0271849
0.00289882
0.0277307
0.000865915
0.0281832
-0.0012413
0.0284763
-0.0036179
-0.00563539
0.0212112
0.00997343
-0.0196733
0.0226733
0.00855924
0.0238984
0.00723115
0.0250257
0.00554442
0.0259079
0.00401542
0.0266993
0.00210742
0.0272117
0.000353464
0.0276622
-0.00169183
0.0278594
-0.00381503
-0.00569984
0.0209528
0.00841498
-0.0193944
0.0223372
0.00717484
0.0235924
0.00597599
0.0246267
0.00451015
0.0255339
0.00310817
0.0262247
0.0014166
0.0267624
-0.000184172
0.0271635
-0.00209296
0.0272758
-0.00392737
-0.00587425
0.0207285
0.00685816
-0.0191717
0.022074
0.00582927
0.0233107
0.00473931
0.0243023
0.00351859
0.0251962
0.00221425
0.0258103
0.000802522
0.0263683
-0.000742194
0.0266706
-0.0023953
0.0268021
-0.00405879
-0.00600942
0.0206192
0.005369
-0.0191301
0.0219707
0.00447777
0.0231167
0.00359333
0.0241136
0.00252168
0.0249368
0.00139104
0.0255489
0.000190407
0.0260386
-0.00123183
0.0262855
-0.00264224
0.0264335
-0.00420672
-0.00597107
0.0206228
0.00389093
-0.0191447
0.0219678
0.00313275
0.0230623
0.0024988
0.0239972
0.00158676
0.0247153
0.000672979
0.0253733
-0.000467573
0.0256955
-0.00155402
0.0259595
-0.00290628
0.0259792
-0.0042264
-0.0058194
0.0206936
0.00237669
-0.0191794
0.0219885
0.00183788
0.0231551
0.0013322
0.0240619
0.000679942
0.0246338
0.000101076
0.0251098
-0.000943585
0.0252995
-0.00174367
0.0253525
-0.00295931
0.0250709
-0.00394485
-0.00540541
0.0209165
0.000925494
-0.0194653
0.022075
0.000679318
0.0231498
0.000257402
0.0238895
-5.96801e-05
0.0243957
-0.000405184
0.024303
-0.000850827
0.0239468
-0.00138748
0.0230709
-0.00208339
0.021874
-0.00274797
-0.00389924
0.016815
-0.0158895
0.0174943
0.0177517
0.017692
0.0172868
0.016436
0.0150485
0.0129651
0.0102171
0.0191781
0.0415357
0.0217622
0.0392196
-0.0418037
0.0243679
0.0366996
-0.0393054
0.0336585
-0.0364389
0.0159933
0.0406043
0.0186434
0.0388857
0.0211541
0.0367089
0.0236636
0.0341901
0.0314269
0.0101444
0.0405486
0.0128607
0.0394156
0.0155222
0.0379428
0.0181146
0.0362933
0.0205868
0.0342368
0.0228701
0.0319069
0.0293829
0.00158999
0.0394667
0.00437265
0.039174
0.00712541
0.0386337
0.00984018
0.0378338
0.0124884
0.0367674
0.0150693
0.0353619
0.0175799
0.0337826
0.019983
0.0318338
0.0221493
0.0297405
0.0273946
0.00147094
0.0367228
0.00419593
0.036449
0.00688993
0.0359397
0.00954717
0.0351766
0.0121352
0.0341794
0.0146318
0.0328652
0.0170392
0.0313752
0.0193827
0.0294903
0.0215252
0.027598
0.02542
0.00135782
0.0340333
0.00402607
0.0337808
0.00666023
0.0333055
0.00925747
0.0325793
0.0117932
0.0316437
0.0142329
0.0304256
0.0165386
0.0290694
0.0187894
0.0272395
0.0209274
0.02546
0.0234252
0.00125168
0.0313981
0.00386486
0.0311676
0.00644169
0.0307287
0.00897484
0.0300462
0.0114543
0.0291642
0.0138612
0.0280186
0.0160946
0.0268361
0.0182495
0.0250845
0.0203344
0.0233751
0.0214363
0.00115165
0.028816
0.00371311
0.0286061
0.00623885
0.028203
0.00870901
0.027576
0.0111281
0.0267452
0.0134997
0.0256469
0.0157057
0.0246301
0.0177886
0.0230016
0.0197865
0.0213771
0.0194955
0.00105485
0.0262844
0.00356748
0.0260935
0.00604837
0.0257221
0.00846684
0.0251575
0.0108228
0.0243892
0.0131439
0.0233258
0.0153471
0.022427
0.0173932
0.0209555
0.0193121
0.0194583
0.017657
0.00096217
0.0237945
0.0034309
0.0236247
0.00587222
0.0232808
0.00825272
0.0227771
0.0105536
0.0220884
0.0128165
0.0210629
0.0150025
0.0202409
0.0170262
0.0189318
0.0189157
0.0175688
0.0159039
0.000873642
0.0213431
0.00330226
0.0211961
0.0057084
0.0208746
0.00806104
0.0204244
0.0103207
0.0198287
0.0125293
0.0188543
0.0146876
0.0180826
0.016695
0.0169244
0.0185539
0.0157099
0.0141873
0.000787969
0.0189241
0.00318468
0.0187994
0.00556083
0.0184985
0.00789152
0.0180937
0.0101254
0.0175948
0.0122845
0.0166952
0.0144025
0.0159646
0.0163995
0.0149275
0.0182575
0.0138518
0.0125082
0.000711057
0.0165269
0.00308005
0.0164304
0.00543271
0.0161458
0.00774595
0.0157805
0.00996556
0.0153752
0.0120839
0.0145769
0.0141583
0.0138902
0.0161227
0.012963
0.0179721
0.0120025
0.010807
0.000639563
0.0141523
0.00299214
0.0140778
0.00532329
0.0138146
0.00762736
0.0134764
0.00984871
0.0131539
0.0119415
0.0124841
0.0139687
0.0118631
0.0158947
0.011037
0.0176992
0.010198
0.00911177
0.000572446
0.0117851
0.00293206
0.0117182
0.00524207
0.0115046
0.00753176
0.0111867
0.0097664
0.0109192
0.0118674
0.0103831
0.0138857
0.00984473
0.0157802
0.0091425
0.0175471
0.0084311
0.00748726
0.000520495
0.00939516
0.00288979
0.00934893
0.0051805
0.00921393
0.00745879
0.00890844
0.00970034
0.00867768
0.0118116
0.00827177
0.0138317
0.00782468
0.0157592
0.00721493
0.0175103
0.00668007
0.00586747
0.00047006
0.00697523
0.00288245
0.00693653
0.00518064
0.00691575
0.00744606
0.00664302
0.00966541
0.00645833
0.0118179
0.0061193
0.0138087
0.00583383
0.0157533
0.00527034
0.0175122
0.00492119
0.00423497
0.000425672
0.00454568
0.0028714
0.00449081
0.00521144
0.0045757
0.00753148
0.00432298
0.00970039
0.00428942
0.011864
0.00395569
0.0138865
0.00381133
0.0157842
0.00337269
0.0175862
0.00311915
0.00264181
0.00039886
0.00206593
0.00286906
0.00202061
0.00532287
0.00212189
0.0077228
0.00192305
0.0100027
0.00200954
0.0121671
0.00179126
0.0142664
0.00171201
0.016137
0.00150216
0.017939
0.00131711
0.00111553
0.000376304
0.00239691
0.00451881
0.00644186
0.0084514
0.0102427
0.0119547
0.0134568
0.0147739
0.0372463
0.00494225
0.00491329
0.00579263
0.00659999
0.0047041
0.0455354
0.00468497
0.0493452
0.00442819
0.0531841
0.00402801
0.0571468
0.0036238
0.0612497
0.00331089
0.0655604
0.00309318
0.0702353
0.00293551
0.0754039
0.00280653
0.0811307
0.00267197
0.0873773
0.00249974
0.094049
0.00228565
0.101045
0.00206186
0.108379
0.00185575
0.116146
0.00167678
0.124414
0.00151279
0.133186
0.00134918
0.142433
0.00118775
0.152241
0.00104058
0.162718
0.000909961
0.173944
0.000793934
0.185933
0.000685876
0.198721
0.000583242
0.212366
0.000485294
0.226939
0.000392382
0.24251
0.000305152
0.259158
0.000217186
0.276994
0.000113777
0.296128
6.12309e-05
0.316785
0.338728
0.00533861
0.0467967
0.00462219
0.0500616
0.00412966
0.0536766
0.00375826
0.0575182
0.00345355
0.0615544
0.00319076
0.0658232
0.00298816
0.0704379
0.00283095
0.0755612
0.00270045
0.0812612
0.00256074
0.087517
0.00238579
0.094224
0.00217161
0.10126
0.00193349
0.108617
0.00171524
0.116365
0.00153797
0.124591
0.00138891
0.133335
0.00124793
0.142574
0.00110452
0.152385
0.000967999
0.162855
0.000845449
0.174067
0.000736622
0.186042
0.000636494
0.198822
0.000542243
0.212461
0.000451851
0.227029
0.000365188
0.242597
0.000284171
0.259239
0.00020132
0.277077
0.00010516
0.296225
5.55098e-05
0.316835
0.338784
-0.0331552
0.0468242
-0.0334191
0.0503255
-0.0334908
0.0537483
-0.033496
0.0575234
-0.0334381
0.0614965
-0.033331
0.0657161
-0.0331878
0.0702947
-0.0329929
0.0753662
-0.0327271
0.0809955
-0.0323738
0.0871637
-0.0319038
0.093754
-0.0313111
0.100667
-0.0305953
0.107901
-0.0297518
0.115521
-0.0287894
0.123629
-0.0277168
0.132263
-0.0265502
0.141407
-0.0252962
0.151131
-0.0239422
0.161501
-0.0224739
0.172598
-0.0208808
0.184449
-0.0191603
0.197101
-0.0173086
0.210609
-0.0153209
0.225042
-0.0131901
0.240466
-0.0109079
0.256957
-0.00845786
0.274627
-0.00585886
0.293626
-0.00301424
0.31399
0.335769
-0.0304058
0.0470617
-0.0304499
0.0503696
-0.0304411
0.0537396
-0.0304019
0.0574841
-0.0302491
0.0613438
-0.0300485
0.0655154
-0.0298303
0.0700765
-0.0296078
0.0751437
-0.0293681
0.0807558
-0.0290805
0.0868761
-0.0287218
0.0933953
-0.0282706
0.100216
-0.0277083
0.107339
-0.0270238
0.114837
-0.0262049
0.12281
-0.0252579
0.131316
-0.0242012
0.140351
-0.0230507
0.14998
-0.0218048
0.160255
-0.0204562
0.17125
-0.0189972
0.18299
-0.0174255
0.195529
-0.015737
0.20892
-0.0139268
0.223231
-0.0119878
0.238527
-0.00991316
0.254882
-0.00768974
0.272403
-0.00531686
0.291253
-0.00274414
0.311417
0.333025
-0.0267418
0.0472532
-0.0266477
0.0502755
-0.0264529
0.0535447
-0.0263132
0.0573445
-0.0262305
0.0612611
-0.0261933
0.0654782
-0.0261613
0.0700445
-0.0261122
0.0750947
-0.0260103
0.0806539
-0.0258284
0.0866943
-0.0255366
0.0931035
-0.0251309
0.09981
-0.0246125
0.106821
-0.0239796
0.114204
-0.0232458
0.122076
-0.0224212
0.130491
-0.0215126
0.139442
-0.0205154
0.148983
-0.0194209
0.15916
-0.0182269
0.170056
-0.016933
0.181696
-0.0155383
0.194135
-0.0140381
0.20742
-0.0124276
0.221621
-0.0106997
0.236799
-0.00884975
0.253032
-0.00686838
0.270422
-0.00474456
0.289129
-0.00245514
0.309128
0.33057
-0.0229986
0.0475035
-0.0232612
0.0505381
-0.0234129
0.0536963
-0.0234508
0.0573824
-0.023376
0.0611863
-0.0232457
0.0653479
-0.0230926
0.0698914
-0.0229043
0.0749064
-0.0226803
0.0804299
-0.0224131
0.0864271
-0.0221011
0.0927915
-0.0217383
0.0994472
-0.0213056
0.106388
-0.0207961
0.113694
-0.0201991
0.121479
-0.0195175
0.12981
-0.018756
0.13868
-0.0179112
0.148138
-0.0169712
0.15822
-0.0159315
0.169016
-0.0147966
0.180561
-0.0135727
0.192911
-0.0122596
0.206107
-0.0108523
0.220214
-0.00934411
0.235291
-0.00772979
0.251418
-0.00600121
0.268693
-0.00414274
0.28727
-0.00214764
0.307133
0.328422
-0.0186991
0.0475629
-0.0186919
0.0505309
-0.0187306
0.053735
-0.0187816
0.0574335
-0.0188814
0.0612861
-0.0190211
0.0654876
-0.019134
0.0700042
-0.0191899
0.0749622
-0.0191668
0.0804067
-0.0190499
0.0863103
-0.0188408
0.0925823
-0.0185386
0.0991451
-0.0181486
0.105998
-0.0176727
0.113218
-0.0171276
0.120934
-0.0165278
0.12921
-0.0158773
0.13803
-0.015168
0.147429
-0.0143834
0.157436
-0.0135149
0.168148
-0.0125616
0.179608
-0.0115248
0.191874
-0.0104054
0.204988
-0.00920873
0.219017
-0.00792885
0.234011
-0.00655996
0.250049
-0.00509438
0.267228
-0.00351456
0.285691
-0.00182352
0.305442
0.326599
-0.0142591
0.0477485
-0.0146169
0.0508887
-0.0150711
0.0541892
-0.0154487
0.057811
-0.0156782
0.0615157
-0.0157806
0.06559
-0.0157882
0.0700119
-0.0157311
0.0749051
-0.0156091
0.0802847
-0.015422
0.0861231
-0.0151802
0.0923406
-0.014899
0.0988638
-0.0145797
0.105679
-0.0142195
0.112858
-0.0138091
0.120524
-0.0133494
0.12875
-0.0128451
0.137526
-0.012289
0.146873
-0.0116683
0.156815
-0.0109767
0.167456
-0.0102133
0.178845
-0.00937972
0.19104
-0.00847552
0.204084
-0.00749939
0.218041
-0.00645671
0.232968
-0.00534375
0.248936
-0.00415157
0.266035
-0.00286287
0.284402
-0.00148549
0.304064
0.325113
-0.00990024
0.048088
-0.0100057
0.0509942
-0.010044
0.0542276
-0.0101811
0.0579481
-0.0104624
0.061797
-0.0108397
0.0659673
-0.0112094
0.0703815
-0.0114931
0.0751888
-0.0116508
0.0804425
-0.0116782
0.0861505
-0.0116
0.0922624
-0.0114317
0.0986956
-0.0111997
0.105447
-0.0109129
0.112571
-0.0105811
0.120192
-0.010211
0.12838
-0.00980487
0.13712
-0.0093625
0.14643
-0.00888115
0.156334
-0.00835464
0.166929
-0.00777836
0.178269
-0.00715191
0.190414
-0.00647088
0.203403
-0.00573278
0.217303
-0.00493832
0.232174
-0.00409003
0.248088
-0.00318027
0.265126
-0.00219273
0.283414
-0.00113708
0.303009
0.323976
-0.0049896
0.0482992
-0.00540861
0.0514132
-0.00594524
0.0547642
-0.00642358
0.0584264
-0.00679591
0.0621693
-0.00703146
0.0662028
-0.00718253
0.0705326
-0.00730367
0.07531
-0.00739971
0.0805385
-0.00745147
0.0862022
-0.00743307
0.092244
-0.007355
0.0986175
-0.00723575
0.105327
-0.00708386
0.112419
-0.00690737
0.120015
-0.0067087
0.128181
-0.0064864
0.136897
-0.00623296
0.146177
-0.00594285
0.156044
-0.00561431
0.166601
-0.00524757
0.177902
-0.00483986
0.190006
-0.00439102
0.202954
-0.00390138
0.216813
-0.00337015
0.231642
-0.00279848
0.247516
-0.00218135
0.264508
-0.00150546
0.282738
-0.000780246
0.302284
0.323196
-0.000562055
0.0489584
-0.000897649
0.0517488
-0.00108762
0.0549542
-0.00127372
0.0586125
-0.00166846
0.0625641
-0.00216145
0.0666958
-0.00269067
0.0710618
-0.00309572
0.075715
-0.00336143
0.0808042
-0.00350937
0.0863502
-0.00358688
0.0923215
-0.00362378
0.0986544
-0.00363755
0.105341
-0.00361916
0.112401
-0.00356629
0.119963
-0.00348235
0.128097
-0.00337127
0.136786
-0.00323633
0.146042
-0.00308289
0.15589
-0.00291254
0.16643
-0.00272535
0.177715
-0.0025216
0.189802
-0.00229786
0.20273
-0.00205365
0.216569
-0.00178344
0.231372
-0.00148894
0.247222
-0.00116808
0.264188
-0.000808844
0.282379
-0.000418841
0.301894
0.322777
0.00480549
0.00420866
0.00351804
0.00296145
0.00261492
0.00233178
0.00205911
0.00170427
0.00131771
0.000980892
0.000750888
0.000590323
0.000465537
0.000368655
0.000279817
0.000192373
0.00010505
2.28617e-05
-4.58732e-05
-9.58774e-05
-0.000130052
-0.000152982
-0.000167117
-0.000174578
-0.000171905
-0.000158373
-0.000138143
-0.000104097
-5.34139e-05
)
;

boundaryField
{
    outlet
    {
        type            calculated;
        value           nonuniform 0();
    }
    upperWall
    {
        type            symmetryPlane;
        value           nonuniform 0();
    }
    lowerWall
    {
        type            symmetryPlane;
        value           uniform 0;
    }
    inlet
    {
        type            calculated;
        value           nonuniform 0();
    }
    cylinder
    {
        type            calculated;
        value           uniform 0;
    }
    frontAndBack
    {
        type            empty;
        value           nonuniform 0();
    }
    procBoundary1to0
    {
        type            processor;
        value           nonuniform List<scalar> 
45
(
-0.0165269
-0.0433341
-0.044187
-0.0433221
-0.0132636
-0.0421318
-0.0422649
-0.0419567
-0.00737094
-0.0413864
-0.0378047
-0.0426157
-0.00438382
-0.0401847
-0.00410126
-0.0452972
-0.0493261
-0.0529273
-0.0567467
-0.0608455
-0.0652475
-0.0700176
-0.0752463
-0.0810017
-0.0872428
-0.0938768
-0.100831
-0.108155
-0.11594
-0.124235
-0.133022
-0.142269
-0.15208
-0.162571
-0.173813
-0.185817
-0.198613
-0.212264
-0.226841
-0.242417
-0.259071
-0.276906
-0.296025
-0.316732
-0.338667
)
;
    }
    procBoundary1to2
    {
        type            processor;
        value           nonuniform List<scalar> 
63
(
0.023378
0.0225422
0.0285512
0.0293085
0.0258818
0.0280933
0.0277794
0.0253121
0.0291921
0.0294657
0.0296245
0.027613
0.0312938
0.032042
0.0330885
0.0302995
9.42131e-05
0.0209149
-0.00539375
-0.0107724
-0.015372
-0.0179703
0.010982
-0.0216371
0.00905735
-0.0198981
0.00843174
-0.0110427
0.0104397
0.00115613
0.0155044
0.0128342
0.0510602
0.0538855
0.0572833
0.0612078
0.0653047
0.0694812
0.0742385
0.0794212
0.084284
0.0895357
-0.0241617
0.0964954
0.10211
0.108614
0.11576
0.123218
0.131386
0.140171
0.149504
0.159519
0.170191
0.181617
0.193895
0.207034
0.22106
0.236104
0.252218
0.269459
0.287945
0.307782
0.329047
)
;
    }
    procBoundary1to5
    {
        type            processor;
        value           nonuniform List<scalar> 
20
(
0.0146968
0.0200265
0.0210456
0.0012082
0.00127305
0.00133167
0.00138352
0.00143044
0.00147669
0.00152782
0.00157767
0.00163109
0.00168616
0.00173498
0.0017948
0.00186942
0.00194987
0.00200387
0.0020809
0.00168962
)
;
    }
}


// ************************************************************************* //
