/*--------------------------------*- C++ -*----------------------------------*\
| =========                 |                                                 |
| \\      /  F ield         | OpenFOAM: The Open Source CFD Toolbox           |
|  \\    /   O peration     | Version:                                        |
|   \\  /    A nd           | Website:  www.openfoam.com                      |
|    \\/     M anipulation  |                                                 |
\*---------------------------------------------------------------------------*/
FoamFile
{
    version     2.0;
    format      ascii;
    class       volVectorField;
    location    "128";
    object      U;
}
// * * * * * * * * * * * * * * * * * * * * * * * * * * * * * * * * * * * * * //

dimensions      [0 1 -1 0 0 0 0];


internalField   nonuniform List<vector> 
1147
(
(0.0487333 0.022687 2.20309e-20)
(0.0727987 0.0463454 1.00547e-19)
(0.0727458 0.0521875 3.51368e-19)
(0.053465 0.0431785 -4.80619e-19)
(0.0276709 0.022054 1.73564e-19)
(0.0145462 0.0084862 7.8564e-20)
(-0.0206061 0.0261455 -5.34914e-20)
(-0.0135494 0.0776882 3.21543e-19)
(0.0720432 0.0834687 -6.09094e-20)
(0.23798 -0.0209379 -5.23151e-20)
(0.0689564 -0.0203953 1.29311e-19)
(0.0930865 0.0444033 5.34856e-19)
(0.078486 0.0747387 -1.94138e-19)
(0.0523208 0.0803835 -2.764e-20)
(0.0469205 0.071995 2.6767e-19)
(0.0957607 0.0777455 -4.47023e-19)
(0.275658 0.0611106 1.55675e-19)
(0.70579 -0.0577113 -1.49075e-19)
(0.933121 -0.156948 6.67832e-20)
(1.04057 -0.219113 3.19013e-21)
(0.070606 -0.116117 -4.1679e-20)
(0.0996446 -0.00812268 -3.96638e-19)
(0.0838488 0.0754702 7.62238e-20)
(0.11485 0.11563 -5.02229e-20)
(0.285769 0.0922934 -1.08449e-19)
(0.643035 -0.000540128 1.6016e-19)
(0.968024 -0.0879668 -1.07744e-19)
(1.13645 -0.133917 -9.25135e-20)
(1.2541 -0.212818 4.3068e-21)
(1.2965 -0.270562 -9.91365e-21)
(0.124451 -0.153553 6.60257e-20)
(0.155144 -0.0344594 1.69011e-19)
(0.204587 0.081255 -5.19751e-20)
(0.411652 0.100375 -3.79972e-21)
(0.770566 0.0178624 7.31531e-20)
(1.08911 -0.0686954 1.47009e-19)
(1.24238 -0.121903 2.36467e-19)
(1.3018 -0.15908 -8.30534e-20)
(1.34942 -0.218048 -9.26667e-20)
(1.33602 -0.252963 -1.68905e-20)
(0.240615 -0.128053 5.27403e-19)
(0.307288 -0.0233241 -1.35653e-19)
(0.445118 0.0787929 5.59523e-20)
(0.763427 0.05895 2.05066e-20)
(1.1264 -0.0366383 3.14767e-19)
(1.28837 -0.0922413 -3.49966e-20)
(1.31526 -0.119234 -1.10532e-19)
(1.35317 -0.164114 2.19105e-19)
(1.34676 -0.203904 2.94713e-21)
(1.32236 -0.232529 3.83078e-20)
(0.419775 -0.0720645 -3.15278e-19)
(0.504714 0.00181283 -1.37478e-19)
(0.708669 0.0679777 1.21549e-19)
(1.07695 0.0128023 -1.07221e-19)
(1.31796 -0.0655717 -4.72649e-20)
(1.32031 -0.086331 3.08211e-19)
(1.32816 -0.113357 -1.8288e-20)
(1.35679 -0.162384 -3.38772e-20)
(1.30843 -0.184986 -2.30449e-20)
(1.31381 -0.221912 1.61828e-20)
(0.58292 -0.00325856 2.76056e-20)
(0.703228 0.0346183 1.72205e-19)
(0.99103 0.049756 -1.46664e-19)
(1.30402 -0.0226403 2.23639e-19)
(1.36389 -0.0695906 -5.68218e-19)
(1.29032 -0.0709943 -2.09934e-19)
(1.34531 -0.114117 -4.04883e-20)
(1.32032 -0.151668 2.55732e-20)
(1.28549 -0.168764 5.82641e-21)
(1.30116 -0.214551 -7.5179e-21)
(0.746444 0.0662872 -4.56095e-20)
(0.944186 0.0602379 5.08232e-19)
(1.2437 0.0311648 -1.45812e-19)
(1.40562 -0.0396535 -2.23707e-20)
(1.31424 -0.0541041 2.49942e-19)
(1.28921 -0.0632125 1.19468e-19)
(1.3431 -0.116708 -1.23032e-19)
(1.27225 -0.133671 5.61757e-20)
(1.28566 -0.163596 -4.61637e-20)
(1.26851 -0.20187 1.40676e-20)
(0.951932 0.124896 5.18772e-19)
(1.19387 0.080404 4.10795e-19)
(1.39324 0.0220518 -3.01766e-19)
(1.38024 -0.028227 3.47544e-21)
(1.2693 -0.0335474 1.60314e-19)
(1.31018 -0.0668008 -6.60968e-20)
(1.30971 -0.108586 4.71981e-20)
(1.24618 -0.121019 1.84981e-20)
(1.28364 -0.160117 -6.7841e-20)
(1.22943 -0.184264 4.4022e-21)
(1.15602 0.179256 -3.85098e-19)
(1.34755 0.103397 -6.58755e-19)
(1.40072 0.0416338 7.43733e-19)
(1.31004 -0.000732322 -1.42036e-19)
(1.25934 -0.0219505 -1.72145e-19)
(1.31731 -0.0659332 -3.54401e-20)
(1.25921 -0.0953198 1.1245e-19)
(1.24681 -0.114577 -1.07701e-19)
(1.25787 -0.150854 -7.81446e-21)
(1.20649 -0.170431 -3.76335e-21)
(1.36617 0.142767 3.35138e-19)
(1.32777 0.0689486 -3.0515e-19)
(1.24737 0.0243355 1.0088e-19)
(1.27317 -0.0139742 9.68808e-20)
(1.28132 -0.0575264 -1.88084e-20)
(1.22798 -0.0823885 3.95381e-20)
(1.24581 -0.108254 2.9072e-20)
(1.22206 -0.140796 4.16607e-20)
(1.20198 -0.157706 1.67181e-20)
(1.2988 0.164011 -2.9012e-21)
(1.22929 0.093261 1.31297e-19)
(1.22977 0.0380352 3.05441e-20)
(1.25721 -0.00721682 -1.81883e-19)
(1.23412 -0.0449367 -1.56766e-20)
(1.21788 -0.0726356 -1.05044e-19)
(1.22852 -0.103322 -9.83442e-21)
(1.19914 -0.128011 -1.68852e-20)
(1.19621 -0.152354 -1.0011e-20)
(1.17179 0.099776 -1.33987e-19)
(1.21537 0.0393243 6.86842e-20)
(1.21743 -0.00137838 -1.90478e-19)
(1.20288 -0.0331713 -5.16109e-20)
(1.21019 -0.0720592 2.56204e-20)
(1.20359 -0.0913939 -2.41643e-20)
(1.18868 -0.124113 3.04146e-20)
(1.18094 -0.139155 8.72361e-22)
(1.14344 0.0856145 1.99984e-19)
(1.1879 0.0342765 2.30523e-20)
(1.18274 0.00334761 1.07074e-19)
(1.18441 -0.0366589 1.06059e-19)
(1.19555 -0.0643708 5.13178e-20)
(1.18023 -0.0879468 1.00063e-20)
(1.17831 -0.116998 -2.84018e-20)
(1.1618 -0.129678 5.56503e-21)
(1.1712 0.0266634 -4.5603e-20)
(1.1463 -0.00620913 -4.70021e-20)
(1.17909 -0.0327643 -7.51758e-20)
(1.16707 -0.0659046 3.09405e-22)
(1.16703 -0.0817501 -1.38818e-21)
(1.16341 -0.110282 6.36107e-21)
(1.14588 -0.125289 4.66206e-21)
(1.12736 0.0108821 4.94666e-20)
(1.13366 -0.00717741 8.29668e-20)
(1.15925 -0.0419022 -2.3433e-20)
(1.1446 -0.0582574 -7.49645e-21)
(1.15638 -0.0861266 5.99167e-20)
(1.14673 -0.101236 -2.75506e-20)
(1.14026 -0.122687 3.04446e-21)
(1.09721 -1.92997e-06 2.38382e-20)
(1.12234 -0.0125361 -1.60265e-20)
(1.14099 -0.0484712 2.22059e-20)
(1.12655 -0.0568979 3.24755e-20)
(1.15343 -0.0873326 1.48078e-20)
(1.12414 -0.098667 1.7096e-20)
(1.14482 -0.118033 2.66117e-21)
(1.1142 -0.0352936 -5.95348e-20)
(1.12489 -0.0423505 -2.75184e-22)
(1.1198 -0.0696186 -6.44729e-20)
(1.1437 -0.0794145 8.34444e-21)
(1.11257 -0.100224 -1.74472e-20)
(1.13543 -0.112768 -4.57672e-21)
(1.11389 -0.0394646 -1.7744e-21)
(1.10571 -0.0435033 5.1553e-20)
(1.11919 -0.068571 -9.24118e-21)
(1.12159 -0.0789749 -1.68383e-21)
(1.11367 -0.0947724 -3.29429e-21)
(1.1101 -0.110759 -2.58962e-21)
(1.1325 -0.0413775 3.26964e-20)
(1.06305 -0.0583938 -1.00405e-19)
(1.13384 -0.0652676 3.07251e-21)
(1.08301 -0.0913171 -9.47925e-21)
(1.12026 -0.0914422 7.60117e-21)
(1.08383 -0.112582 -5.6804e-22)
(0.144972 0.912492 -2.71554e-20)
(0.146082 0.875191 -5.68311e-20)
(0.142305 0.75258 2.93612e-21)
(0.10125 0.572849 -7.71339e-22)
(0.0472352 0.362171 1.4225e-19)
(-0.00831409 0.162161 -4.21018e-20)
(-0.0483116 -0.00697057 1.04597e-20)
(-0.0542251 -0.0938663 3.33976e-19)
(-0.017396 -0.0696807 3.1667e-19)
(0.0184958 -0.0175811 -6.26324e-19)
(0.0552567 1.13576 3.33829e-20)
(0.0222279 1.04334 -5.9375e-20)
(-0.024597 0.933118 -1.19895e-19)
(-0.0851821 0.747597 4.36165e-20)
(-0.136383 0.545443 -2.47828e-19)
(-0.156874 0.31631 -9.39789e-20)
(-0.135017 0.0875036 -8.97563e-20)
(-0.0755181 -0.0857476 5.80976e-20)
(-0.0094964 -0.128139 -1.54269e-19)
(0.0206301 -0.0933211 2.09274e-19)
(0.0631175 1.13164 2.44255e-20)
(-0.0373745 1.06442 3.91845e-20)
(-0.132209 0.968497 1.65638e-19)
(-0.235591 0.826507 -1.07664e-19)
(-0.303991 0.659763 3.43388e-19)
(-0.308709 0.448236 8.7463e-20)
(-0.237769 0.199591 3.0018e-19)
(-0.124506 -0.0293701 2.51354e-20)
(-0.0324607 -0.164948 9.26484e-20)
(0.0109313 -0.18388 -3.06793e-20)
(-0.0805903 1.06234 -1.67442e-20)
(-0.218696 1.00349 -9.98105e-20)
(-0.344987 0.900404 3.09276e-20)
(-0.429749 0.765944 -7.70336e-20)
(-0.428294 0.586061 -3.51405e-19)
(-0.322545 0.342314 1.33794e-19)
(-0.17169 0.0749929 -2.55011e-19)
(-0.0418396 -0.120676 -8.63191e-19)
(0.0475244 -0.196765 -2.47413e-19)
(-0.520285 0.721603 5.90173e-19)
(-0.388286 0.498415 2.22262e-19)
(-0.196338 0.20175 -4.82993e-19)
(-0.00777213 -0.0145053 4.45653e-19)
(0.143569 -0.135294 4.38577e-19)
(-0.406294 0.654146 -1.21485e-19)
(-0.151804 0.357663 -1.67273e-19)
(0.0968104 0.120391 -5.78128e-19)
(0.293587 -0.0415092 -9.7702e-20)
(-0.105225 0.502392 1.08874e-19)
(0.211944 0.253482 8.43793e-20)
(0.444533 0.0592464 -1.90282e-20)
(0.322805 0.37259 2.88916e-19)
(0.574985 0.166135 1.86896e-19)
(0.736488 0.25971 -9.7576e-19)
(1.0782 -0.0927684 -2.14904e-22)
(1.08238 -0.090379 1.91572e-21)
(1.07795 -0.0809671 -1.99232e-21)
(1.06729 -0.0817984 7.01973e-22)
(1.05794 -0.0709028 4.75166e-22)
(1.04992 -0.0625915 -1.2468e-22)
(1.04353 -0.0514452 -2.97665e-22)
(1.04052 -0.0433571 8.88049e-23)
(1.04014 -0.0375622 3.00163e-23)
(1.04106 -0.0334344 5.34247e-23)
(1.04193 -0.0303039 -2.59385e-23)
(1.04164 -0.0274566 4.96029e-23)
(1.04005 -0.024676 -2.47976e-22)
(1.03706 -0.0216879 3.26042e-22)
(1.03381 -0.019007 -2.06449e-22)
(1.03112 -0.0168806 1.62849e-22)
(1.02868 -0.0152831 -7.7417e-23)
(1.02648 -0.014031 -4.45421e-23)
(1.0243 -0.0128727 -5.67514e-24)
(1.0224 -0.0116912 -1.40955e-23)
(1.02081 -0.0105095 -2.00349e-23)
(1.01949 -0.00929497 -1.02966e-22)
(1.01829 -0.00808063 2.0768e-23)
(1.01726 -0.00686781 -1.99943e-22)
(1.01632 -0.00564668 -5.45004e-23)
(1.01553 -0.00449436 1.23093e-22)
(1.01483 -0.00349313 -3.12183e-24)
(1.01427 -0.00222319 -1.2139e-23)
(1.01393 -0.00131969 1.04594e-22)
(1.01372 -0.000614442 -2.40674e-22)
(1.10705 -0.0899842 -1.44265e-20)
(1.07276 -0.0979002 4.21928e-21)
(1.05691 -0.0821514 9.52133e-22)
(1.06084 -0.0775498 2.2686e-22)
(1.0675 -0.0720339 -1.79084e-22)
(1.06975 -0.0701747 -2.10897e-22)
(1.06699 -0.0651558 -4.22231e-22)
(1.06073 -0.0578334 3.60828e-22)
(1.05355 -0.0485114 -2.15783e-22)
(1.04664 -0.0397053 1.35966e-22)
(1.04153 -0.0331992 3.70365e-23)
(1.03832 -0.0294789 9.6999e-23)
(1.03565 -0.0267397 -1.39611e-22)
(1.03328 -0.0249496 4.05948e-22)
(1.03193 -0.023053 3.76171e-22)
(1.03081 -0.0211593 -5.98451e-22)
(1.02962 -0.0189479 -1.13157e-22)
(1.02802 -0.0168648 6.36886e-22)
(1.02594 -0.0147469 -9.27161e-22)
(1.02393 -0.0128892 -1.95569e-23)
(1.02213 -0.0112142 5.63361e-22)
(1.02061 -0.00973877 3.5819e-22)
(1.01922 -0.00834937 -4.51515e-23)
(1.01804 -0.00701817 3.77214e-22)
(1.01697 -0.005732 -2.57529e-23)
(1.01609 -0.00453357 -1.63362e-22)
(1.01534 -0.00351536 1.44731e-22)
(1.01474 -0.0022481 1.83096e-23)
(1.01434 -0.00133436 -2.54324e-22)
(1.01409 -0.000616666 1.88728e-22)
(1.07013 -0.0769847 1.5558e-20)
(1.08637 -0.0707246 -3.2882e-22)
(1.08808 -0.0656447 -5.66915e-21)
(1.07412 -0.0687655 1.21566e-21)
(1.06094 -0.0622344 -1.16552e-21)
(1.05341 -0.0561949 2.26269e-21)
(1.04997 -0.048993 2.09315e-21)
(1.04933 -0.0436263 -8.52394e-22)
(1.0489 -0.0392596 9.88919e-23)
(1.04742 -0.0350406 -6.24891e-22)
(1.04552 -0.0316559 7.85153e-22)
(1.04363 -0.0280758 -3.51655e-22)
(1.04072 -0.024546 -5.54218e-22)
(1.03735 -0.0211014 1.18689e-21)
(1.0344 -0.0182312 -1.30666e-22)
(1.03183 -0.0158897 -8.80272e-23)
(1.02958 -0.0143464 -1.49137e-21)
(1.02748 -0.0132636 5.69419e-22)
(1.02526 -0.0122566 1.27561e-22)
(1.02327 -0.0111746 9.37593e-23)
(1.02162 -0.0100395 4.47732e-22)
(1.02021 -0.00887856 -5.09679e-23)
(1.01896 -0.0077413 -9.83406e-23)
(1.01786 -0.0066146 -1.0357e-21)
(1.01681 -0.00546479 9.34575e-22)
(1.01597 -0.00437735 -9.51064e-22)
(1.01524 -0.00342179 -1.00821e-22)
(1.01466 -0.00219875 -2.5523e-22)
(1.01427 -0.00131206 -6.87811e-23)
(1.014 -0.000607255 3.66668e-22)
(1.11597 -0.0663313 2.51674e-20)
(1.06651 -0.0786271 -1.40408e-20)
(1.04228 -0.0741174 -2.89386e-22)
(1.04973 -0.0750266 1.76051e-21)
(1.06368 -0.073833 -2.29978e-21)
(1.07041 -0.072837 2.00839e-21)
(1.06897 -0.066765 -9.52084e-23)
(1.06328 -0.0581963 -1.09643e-23)
(1.05595 -0.0470644 -4.7892e-22)
(1.04769 -0.0376363 -3.46062e-22)
(1.04304 -0.0315749 9.80242e-22)
(1.03993 -0.0280053 -2.17048e-21)
(1.0366 -0.025177 6.77161e-22)
(1.03429 -0.0239539 1.24716e-21)
(1.03266 -0.0223172 -1.47241e-21)
(1.03088 -0.0204363 2.46583e-21)
(1.0295 -0.0182803 2.8945e-22)
(1.02801 -0.0163035 -3.7903e-23)
(1.02607 -0.0142777 -2.99463e-21)
(1.02421 -0.012528 2.20057e-21)
(1.02253 -0.0108961 -3.72192e-22)
(1.02105 -0.009443 -3.88841e-22)
(1.01975 -0.00809965 -8.15869e-22)
(1.01857 -0.00681181 1.18663e-21)
(1.01745 -0.00557986 4.38895e-22)
(1.01655 -0.00444072 -5.78861e-22)
(1.01575 -0.00346148 3.93038e-23)
(1.01512 -0.00223537 4.99224e-22)
(1.01468 -0.00132906 3.22863e-22)
(1.01439 -0.000609063 -1.25312e-22)
(1.06384 -0.0529933 2.82196e-20)
(1.09231 -0.0520215 2.44575e-20)
(1.09667 -0.0531995 -1.10963e-20)
(1.08052 -0.0570686 -2.3741e-21)
(1.06622 -0.0539779 -2.3452e-21)
(1.0604 -0.0516877 2.09361e-21)
(1.06089 -0.0518384 -7.7037e-22)
(1.06358 -0.050823 5.43734e-22)
(1.06049 -0.0463851 -6.61636e-22)
(1.0551 -0.0405646 1.04892e-21)
(1.05097 -0.0361696 -1.06836e-21)
(1.04592 -0.0300808 1.30949e-22)
(1.04063 -0.024976 1.7787e-22)
(1.03758 -0.0212904 7.88741e-22)
(1.03477 -0.0182039 -1.8083e-22)
(1.03212 -0.0156505 -6.91373e-22)
(1.03019 -0.0141938 -1.00432e-21)
(1.02811 -0.0131021 -3.06643e-23)
(1.02592 -0.0120907 9.84602e-22)
(1.02393 -0.0110124 1.30887e-21)
(1.02223 -0.00983361 -1.12597e-21)
(1.02074 -0.00866486 -6.37482e-22)
(1.0195 -0.00755642 5.73834e-22)
(1.01833 -0.00645552 -7.14837e-22)
(1.01724 -0.00535152 -6.29302e-22)
(1.01638 -0.00431087 7.50357e-22)
(1.0156 -0.0033844 -5.5417e-22)
(1.01499 -0.00219709 -3.04253e-22)
(1.01457 -0.00131084 1.12438e-22)
(1.01428 -0.000600385 -7.59861e-22)
(1.05235 -0.0326791 3.7999e-21)
(1.04542 -0.0278576 -1.99732e-21)
(1.04059 -0.0248979 5.37842e-21)
(1.03805 -0.024041 -2.99007e-21)
(1.03447 -0.0218442 -2.65278e-23)
(1.03182 -0.0198482 -1.99787e-21)
(1.03013 -0.0177514 2.50327e-21)
(1.02827 -0.0157865 -1.7783e-21)
(1.0264 -0.0139076 3.89387e-22)
(1.02463 -0.0122917 -1.04534e-21)
(1.02294 -0.0106846 1.19265e-21)
(1.02144 -0.00925184 1.3436e-21)
(1.02019 -0.00794014 6.4963e-22)
(1.01893 -0.00666474 8.24223e-22)
(1.01784 -0.00548648 -1.74885e-21)
(1.01693 -0.00438881 1.24843e-22)
(1.01608 -0.00343481 3.05017e-22)
(1.01543 -0.0022452 1.12058e-21)
(1.01498 -0.00133364 -2.34314e-22)
(1.01467 -0.000604029 -2.20174e-22)
(0.973506 -0.14419 -2.39678e-20)
(0.987313 -0.135132 1.57988e-21)
(0.996725 -0.130674 -2.26478e-21)
(1.01503 -0.131781 5.2273e-21)
(1.02887 -0.128362 -8.08606e-21)
(1.04199 -0.128374 5.5452e-21)
(1.05678 -0.128023 1.58066e-20)
(1.07129 -0.123366 6.46268e-21)
(1.07438 -0.12352 -9.11933e-21)
(1.0994 -0.113045 5.29448e-22)
(0.966846 -0.152745 3.2401e-20)
(0.984573 -0.15432 1.88392e-20)
(0.995379 -0.151034 -1.51942e-21)
(1.01458 -0.151388 -4.01098e-21)
(1.03169 -0.14716 -2.8165e-21)
(1.047 -0.144194 2.4182e-20)
(1.06094 -0.140492 -5.37715e-21)
(1.07973 -0.133563 -2.44993e-21)
(1.08708 -0.127952 -2.6907e-21)
(1.1031 -0.116951 -2.59633e-22)
(0.957776 -0.156007 2.33659e-20)
(0.981842 -0.16567 -2.0451e-20)
(0.996288 -0.162366 1.92837e-21)
(1.01756 -0.165814 -2.07617e-21)
(1.03725 -0.160987 -1.38004e-20)
(1.05489 -0.155396 -5.17813e-21)
(1.07215 -0.152149 -2.31599e-20)
(1.08307 -0.140815 -1.26232e-20)
(1.10692 -0.135468 -8.55079e-21)
(1.09974 -0.123142 1.45443e-21)
(0.948746 -0.163093 1.87026e-20)
(0.976128 -0.174512 -9.54051e-21)
(0.996516 -0.172845 1.58146e-21)
(1.0185 -0.173682 -2.24564e-21)
(1.04362 -0.173781 -6.47756e-21)
(1.05794 -0.164362 2.08922e-21)
(1.08755 -0.161233 2.52705e-20)
(1.08463 -0.151447 -1.35493e-21)
(1.12246 -0.141273 3.41395e-20)
(1.10571 -0.130298 3.19768e-21)
(0.943613 -0.176981 1.18287e-20)
(0.969562 -0.186988 -1.06181e-20)
(0.994504 -0.185958 1.54737e-21)
(1.01598 -0.184931 1.15142e-20)
(1.04854 -0.183532 8.80153e-21)
(1.05862 -0.178439 1.73818e-20)
(1.09304 -0.167699 -4.92627e-21)
(1.09747 -0.163233 1.01496e-20)
(1.12012 -0.14872 -1.74176e-21)
(1.12819 -0.13591 -4.92913e-21)
(0.94107 -0.192787 8.06103e-21)
(0.966022 -0.203156 -1.01514e-21)
(0.99467 -0.202151 -3.08097e-22)
(1.01317 -0.200659 -2.41838e-20)
(1.04828 -0.195901 7.9582e-21)
(1.06734 -0.191994 -1.15444e-20)
(1.08685 -0.180565 -4.51896e-21)
(1.11477 -0.170591 -1.36641e-20)
(1.11823 -0.159663 -2.51436e-21)
(1.14416 -0.143541 6.67839e-21)
(0.938186 -0.211075 -1.29437e-20)
(0.962412 -0.219903 9.26345e-21)
(0.995551 -0.220389 -1.11271e-23)
(1.01849 -0.218243 3.3052e-20)
(1.04326 -0.212572 2.49125e-20)
(1.07789 -0.205966 4.56485e-20)
(1.08909 -0.19504 1.96423e-22)
(1.11961 -0.183911 1.70777e-21)
(1.13183 -0.166019 -6.30931e-21)
(1.15037 -0.156976 6.43029e-21)
(0.933548 -0.229659 -3.52476e-20)
(0.962119 -0.239798 6.88222e-21)
(0.991784 -0.23842 -4.12234e-21)
(1.02681 -0.237269 -3.18842e-21)
(1.0478 -0.229075 -4.53586e-20)
(1.07986 -0.224283 -2.26059e-20)
(1.10425 -0.207128 2.99757e-20)
(1.1221 -0.200205 -3.67983e-20)
(1.14771 -0.176403 3.21606e-20)
(1.15912 -0.166826 -7.56596e-21)
(0.924551 -0.251146 3.00355e-20)
(0.962484 -0.26003 -1.13836e-21)
(0.992644 -0.261246 -9.08123e-21)
(1.0259 -0.256905 -4.16563e-21)
(1.05953 -0.248556 -4.27194e-20)
(1.08336 -0.240565 1.00171e-20)
(1.11471 -0.226767 -5.25025e-20)
(1.13445 -0.210104 4.23061e-21)
(1.15784 -0.194182 -8.57084e-21)
(1.17267 -0.173336 -9.96374e-21)
(0.916066 -0.274983 -1.85783e-20)
(0.956847 -0.282717 -5.63511e-21)
(0.997137 -0.282919 -1.52689e-20)
(1.02913 -0.280715 -1.66382e-20)
(1.06332 -0.268759 8.25364e-20)
(1.09676 -0.259104 1.73416e-20)
(1.11942 -0.243271 1.40147e-20)
(1.15141 -0.227413 -6.78286e-21)
(1.16397 -0.204087 2.31654e-20)
(1.1941 -0.188299 9.23619e-21)
(0.911593 -0.302717 5.17704e-20)
(0.95225 -0.308463 -6.04115e-21)
(0.99426 -0.308338 4.61253e-20)
(1.0363 -0.303002 -3.98397e-20)
(1.06739 -0.293579 2.07158e-20)
(1.10626 -0.277188 -5.19952e-20)
(1.13052 -0.263596 -1.13118e-20)
(1.16536 -0.240623 -5.23517e-21)
(1.17504 -0.2218 5.3196e-21)
(1.21698 -0.19714 -9.57069e-22)
(0.906254 -0.333662 -1.05477e-20)
(0.953436 -0.338073 7.7143e-21)
(0.997194 -0.337241 -2.61208e-20)
(1.03908 -0.329253 7.91492e-21)
(1.08199 -0.318939 1.04002e-20)
(1.11102 -0.299389 -1.04599e-20)
(1.15205 -0.284292 8.75463e-21)
(1.17176 -0.257217 1.6824e-20)
(1.20235 -0.239369 -9.40867e-21)
(1.22695 -0.208611 -2.44156e-20)
(0.902887 -0.369381 2.1868e-20)
(0.949473 -0.371888 -1.90228e-21)
(1.00592 -0.370503 -5.45011e-22)
(1.04244 -0.360111 1.33498e-20)
(1.09823 -0.347281 4.40183e-20)
(1.12047 -0.325707 2.49765e-20)
(1.17507 -0.30684 3.67719e-20)
(1.18065 -0.275994 -1.98736e-20)
(1.23384 -0.258317 -3.4833e-20)
(1.22991 -0.218547 2.75864e-20)
(0.899263 -0.406193 8.0357e-21)
(0.94961 -0.410063 1.36842e-20)
(1.00941 -0.403692 -1.61999e-20)
(1.0553 -0.395247 -9.35799e-21)
(1.10663 -0.374268 -1.4169e-19)
(1.14267 -0.355571 -6.00078e-20)
(1.18687 -0.326836 -1.15513e-19)
(1.20628 -0.299185 4.42151e-20)
(1.25172 -0.271495 1.31933e-20)
(1.248 -0.234043 -1.87626e-20)
(0.888546 -0.448302 -2.1589e-21)
(0.952929 -0.453165 4.62218e-21)
(1.01013 -0.4431 1.69744e-20)
(1.07128 -0.432705 -7.47299e-20)
(1.11475 -0.407124 -1.51843e-20)
(1.16837 -0.386553 6.50241e-20)
(1.19716 -0.350688 1.03232e-19)
(1.24015 -0.324598 -1.04277e-19)
(1.26042 -0.285478 4.69276e-20)
(1.28484 -0.255838 -6.90811e-22)
(0.886139 -0.499637 -1.45635e-20)
(0.954916 -0.498968 5.10036e-20)
(1.02292 -0.490138 7.34603e-21)
(1.08429 -0.470596 -8.75428e-21)
(1.13797 -0.445385 2.0897e-19)
(1.19 -0.415188 -1.25994e-19)
(1.22338 -0.380708 -9.06957e-21)
(1.26893 -0.34563 6.13292e-20)
(1.2817 -0.305898 7.63382e-20)
(1.32163 -0.27391 8.38603e-21)
(0.884071 -0.560292 3.31043e-20)
(0.955413 -0.557069 -3.89936e-20)
(1.037 -0.545185 -7.67676e-20)
(1.09908 -0.520753 1.15413e-19)
(1.16408 -0.488165 -6.31157e-20)
(1.21288 -0.449883 1.1156e-19)
(1.25629 -0.409793 2.14486e-19)
(1.29337 -0.369243 -5.7848e-20)
(1.3128 -0.32914 -7.752e-20)
(1.34094 -0.291963 -2.22143e-20)
(0.881295 -0.622079 -1.0178e-19)
(0.963556 -0.620092 -4.44647e-20)
(1.04964 -0.604567 -5.4365e-21)
(1.12107 -0.581174 3.51657e-20)
(1.18793 -0.542017 -8.08632e-20)
(1.24186 -0.501458 1.08627e-19)
(1.28257 -0.444991 -1.44948e-19)
(1.31488 -0.403055 2.88692e-20)
(1.32307 -0.350314 -2.04568e-20)
(1.33108 -0.314804 -8.23352e-21)
(0.885689 -0.696435 8.19319e-20)
(0.983161 -0.679441 5.22509e-20)
(1.07978 -0.650827 9.11282e-21)
(1.15303 -0.605501 -3.97571e-20)
(1.22387 -0.554466 9.10722e-20)
(1.26031 -0.497704 -1.20861e-19)
(1.29081 -0.433622 -1.54925e-19)
(1.27418 -0.37871 -4.68958e-21)
(1.24426 -0.314498 6.34765e-21)
(1.1736 -0.281209 5.27211e-20)
(0.664766 -0.666524 6.22468e-20)
(0.747271 -0.645595 -2.62565e-19)
(0.814861 -0.611193 -2.91027e-20)
(0.861841 -0.552506 3.215e-19)
(0.894367 -0.492764 -3.22476e-19)
(0.882952 -0.415262 1.28818e-19)
(0.870758 -0.351742 -8.65247e-20)
(0.774485 -0.270255 2.67887e-20)
(0.704506 -0.20635 5.48864e-20)
(0.473629 -0.144893 3.60766e-20)
(0.890012 -0.0869965 -8.20794e-20)
(0.90634 -0.105434 -6.89341e-20)
(0.923854 -0.114914 2.39486e-20)
(0.945841 -0.127563 3.29401e-21)
(0.873202 -0.0782778 -4.70639e-20)
(0.887523 -0.0913426 -1.80107e-20)
(0.906395 -0.110672 1.89982e-20)
(0.925023 -0.120467 5.67383e-20)
(0.944366 -0.128218 1.41599e-20)
(0.84119 -0.0438537 -5.07326e-20)
(0.850958 -0.0629178 1.81467e-20)
(0.865338 -0.0853395 3.89279e-20)
(0.881072 -0.0985905 1.29407e-19)
(0.900846 -0.118867 -1.93105e-20)
(0.921842 -0.132911 -7.73506e-20)
(0.937053 -0.135883 -1.04502e-20)
(0.817077 0.0269998 -4.48066e-21)
(0.81631 0.000983185 4.15514e-20)
(0.81989 -0.0222788 4.78716e-21)
(0.828493 -0.0486121 -5.3507e-21)
(0.839082 -0.0693697 9.85446e-21)
(0.854525 -0.0944157 -4.94028e-20)
(0.871093 -0.108474 -1.25935e-19)
(0.891055 -0.128402 1.16165e-19)
(0.915515 -0.147099 5.49231e-20)
(0.931106 -0.151236 -5.16087e-20)
(0.800831 0.0294601 -3.67553e-21)
(0.800389 0.000516999 9.98069e-21)
(0.804528 -0.0254741 -2.19796e-22)
(0.813682 -0.0541601 -1.29473e-20)
(0.825044 -0.0765852 6.4238e-20)
(0.841449 -0.104488 2.22782e-20)
(0.85918 -0.120896 7.04087e-21)
(0.877537 -0.138898 1.50961e-20)
(0.906102 -0.160918 3.60979e-20)
(0.925997 -0.168862 -1.48506e-20)
(0.782668 0.0318883 7.12138e-21)
(0.782705 -0.000237608 2.94692e-20)
(0.787364 -0.0289771 5.85567e-21)
(0.797111 -0.0603219 1.96375e-20)
(0.80929 -0.0843483 -1.00157e-19)
(0.826695 -0.114879 7.52247e-20)
(0.846722 -0.135185 -2.19273e-20)
(0.863193 -0.15201 -4.68393e-20)
(0.893297 -0.173557 -8.19589e-21)
(0.920075 -0.186652 -1.10972e-20)
(0.761805 0.0340712 -6.28204e-21)
(0.762277 -0.00136206 2.88652e-20)
(0.767479 -0.0330077 -5.28194e-21)
(0.777914 -0.0674201 -2.02332e-20)
(0.791142 -0.0934461 -6.25292e-21)
(0.809558 -0.125284 -7.19818e-20)
(0.833504 -0.150503 1.01849e-19)
(0.849621 -0.168106 -4.69693e-20)
(0.879213 -0.188128 -1.04679e-20)
(0.909962 -0.203808 3.51498e-20)
(0.73849 0.0361144 -5.3902e-22)
(0.739315 -0.00286191 -3.01457e-20)
(0.745095 -0.0375504 -1.0636e-19)
(0.756432 -0.0753783 9.68442e-21)
(0.771089 -0.104303 -4.3489e-20)
(0.790141 -0.136647 2.49913e-20)
(0.818643 -0.165887 -7.35211e-20)
(0.837087 -0.186859 7.27461e-20)
(0.86612 -0.205407 -1.11667e-20)
(0.898483 -0.2226 -3.14129e-20)
(0.711757 0.0381554 1.04918e-20)
(0.712902 -0.00479321 1.6684e-20)
(0.719439 -0.0427477 8.10029e-20)
(0.731986 -0.0841279 7.01328e-21)
(0.748461 -0.117338 -2.28128e-20)
(0.767898 -0.150204 8.06469e-21)
(0.800735 -0.181871 -6.33894e-20)
(0.82413 -0.206911 3.10079e-20)
(0.854699 -0.226047 -2.03062e-20)
(0.886682 -0.243893 4.85498e-20)
(0.682391 0.0402561 -1.70027e-20)
(0.683789 -0.00714724 -3.74654e-20)
(0.691175 -0.0488348 -2.26034e-20)
(0.705316 -0.0935882 5.26774e-20)
(0.72448 -0.131855 5.13211e-20)
(0.74449 -0.166544 3.44073e-20)
(0.78029 -0.199473 -4.52571e-20)
(0.808979 -0.228226 -1.68298e-21)
(0.843418 -0.248578 -1.60428e-20)
(0.87874 -0.267825 -2.11887e-20)
(0.648891 0.0423904 1.78413e-20)
(0.650753 -0.010048 7.77121e-21)
(0.65926 -0.0561792 3.12655e-20)
(0.675288 -0.104228 -8.49241e-20)
(0.697498 -0.147951 2.43237e-20)
(0.719053 -0.186074 -2.97374e-20)
(0.757542 -0.220072 -1.08719e-19)
(0.792285 -0.251786 -1.29777e-20)
(0.83047 -0.274024 -7.20795e-20)
(0.86937 -0.294405 -5.30671e-20)
(0.612315 0.044783 -3.54825e-20)
(0.614782 -0.0134822 6.07792e-20)
(0.624265 -0.0648673 4.12763e-20)
(0.642408 -0.116486 -3.38647e-20)
(0.668542 -0.165177 3.73346e-20)
(0.692648 -0.20807 4.97211e-20)
(0.732607 -0.243988 1.10784e-19)
(0.772745 -0.278263 9.35551e-20)
(0.817459 -0.302374 1.38435e-20)
(0.861056 -0.324148 6.57755e-20)
(0.570464 0.0467581 2.31641e-20)
(0.573614 -0.0176448 2.10241e-20)
(0.584517 -0.0753845 -4.33585e-20)
(0.604833 -0.131307 2.12523e-20)
(0.634897 -0.184859 -1.37408e-19)
(0.663157 -0.233234 -1.53106e-20)
(0.705497 -0.271688 -3.02463e-20)
(0.750207 -0.308522 4.54256e-20)
(0.799745 -0.334767 -1.61434e-20)
(0.850741 -0.357346 -7.29755e-20)
(0.524048 0.0487634 -4.18948e-21)
(0.528388 -0.0226102 -4.89017e-20)
(0.540271 -0.0872593 -2.03649e-20)
(0.56297 -0.148881 1.01511e-19)
(0.598169 -0.207217 2.51928e-19)
(0.631985 -0.261556 -3.41102e-20)
(0.676943 -0.3037 -8.58612e-20)
(0.725871 -0.342429 -3.41076e-20)
(0.781462 -0.370911 -2.29813e-20)
(0.835562 -0.393424 6.85856e-21)
(0.470291 0.0505453 -1.50839e-20)
(0.475541 -0.0286798 6.62063e-20)
(0.489428 -0.101614 -2.73375e-20)
(0.514074 -0.169996 -3.72794e-20)
(0.553476 -0.233959 -2.62952e-19)
(0.595206 -0.294963 1.55377e-19)
(0.646662 -0.342001 9.32186e-20)
(0.700972 -0.383922 -7.49798e-20)
(0.762223 -0.41396 8.93823e-20)
(0.822303 -0.437792 2.24857e-20)
(0.410505 0.0512771 1.10859e-20)
(0.416576 -0.036038 2.80335e-20)
(0.432847 -0.117241 5.17908e-21)
(0.460076 -0.194245 -8.217e-20)
(0.504243 -0.264039 1.5297e-19)
(0.553081 -0.331681 -2.28377e-19)
(0.610918 -0.38501 4.97617e-20)
(0.67467 -0.430248 6.76712e-20)
(0.744899 -0.463981 -1.02945e-19)
(0.812619 -0.487339 -2.8162e-20)
(0.338006 0.0522767 1.45515e-20)
(0.346006 -0.0455 7.66952e-21)
(0.36814 -0.137828 6.30036e-20)
(0.397199 -0.223984 -9.17991e-20)
(0.444083 -0.301313 1.79629e-19)
(0.502619 -0.374982 5.54526e-20)
(0.568957 -0.436039 6.72387e-20)
(0.637105 -0.484723 3.99677e-21)
(0.722277 -0.522903 4.28685e-20)
(0.795231 -0.546468 3.38525e-20)
(0.257964 0.0539795 -1.26878e-20)
(0.266198 -0.0571987 -4.33202e-20)
(0.295447 -0.159885 -1.553e-19)
(0.331494 -0.258897 1.3666e-19)
(0.38513 -0.344792 -2.04051e-19)
(0.446483 -0.423614 -4.98743e-20)
(0.529122 -0.491138 -6.06761e-20)
(0.602341 -0.543986 -2.33821e-20)
(0.700254 -0.584445 -3.1843e-20)
(0.783198 -0.609332 2.41672e-20)
(0.157644 0.0549141 1.85827e-20)
(0.165933 -0.0725785 -5.50432e-21)
(0.203456 -0.189352 1.63143e-20)
(0.240047 -0.304853 5.69668e-20)
(0.309779 -0.40724 1.71684e-19)
(0.377147 -0.496526 -9.73924e-21)
(0.47217 -0.572608 1.60195e-20)
(0.564079 -0.629746 3.34238e-20)
(0.672979 -0.671587 -1.46861e-20)
(0.775903 -0.690697 1.16055e-20)
(0.0494786 0.0407422 6.83155e-21)
(0.0584338 -0.074207 -3.80492e-20)
(0.0890221 -0.18469 4.10497e-20)
(0.121545 -0.291408 9.71878e-21)
(0.179681 -0.388768 -2.1083e-20)
(0.242079 -0.476027 -1.26784e-19)
(0.318006 -0.549736 1.05703e-19)
(0.402914 -0.60698 -3.34233e-20)
(0.488663 -0.64608 -1.15546e-21)
(0.580469 -0.664525 3.6218e-20)
(0.936799 -0.0926751 -1.64877e-21)
(0.904588 -0.103621 1.96217e-20)
(0.919109 -0.114254 -8.21252e-20)
(0.939486 -0.126334 -2.66966e-20)
(0.959339 -0.0878872 0)
(0.969172 -0.0933614 0)
(0.971446 -0.0885881 0)
(0.973204 -0.0814276 0)
(0.974555 -0.0728132 0)
(0.976611 -0.0657618 0)
(0.981226 -0.060796 0)
(0.98751 -0.0572529 0)
(0.995445 -0.0548164 0)
(1.00305 -0.0523157 0)
(1.00928 -0.0495791 0)
(1.01277 -0.0457004 0)
(1.01489 -0.0413736 0)
(1.01621 -0.0371835 0)
(1.01725 -0.0335391 0)
(1.018 -0.0303375 0)
(1.01798 -0.0272269 0)
(1.01766 -0.0240261 0)
(1.01737 -0.0210556 0)
(1.01718 -0.0184284 0)
(1.01681 -0.0161178 0)
(1.01622 -0.0139702 0)
(1.01549 -0.0119669 0)
(1.0147 -0.0100665 0)
(1.01391 -0.0082915 0)
(1.01315 -0.0066307 0)
(1.0125 -0.00497507 0)
(1.01206 -0.0029548 0)
(1.01098 -0.00153471 0)
(1.01083 -0.000633877 0)
(0.95768 -0.124404 0)
(0.967931 -0.10196 0)
(0.975155 -0.0889351 0)
(0.979762 -0.0801177 0)
(0.981768 -0.0734841 0)
(0.981785 -0.0675006 0)
(0.981346 -0.0626529 0)
(0.983718 -0.0591455 0)
(0.989108 -0.0563686 0)
(0.996783 -0.053745 0)
(1.0045 -0.0505701 0)
(1.011 -0.0465435 0)
(1.01515 -0.0417721 0)
(1.01805 -0.0368379 0)
(1.02007 -0.0329151 0)
(1.02115 -0.0296512 0)
(1.0211 -0.026827 0)
(1.02044 -0.0238384 0)
(1.01968 -0.0209292 0)
(1.019 -0.0182378 0)
(1.01827 -0.0159308 0)
(1.01739 -0.013825 0)
(1.01641 -0.0118619 0)
(1.01543 -0.0100016 0)
(1.01448 -0.00823634 0)
(1.01359 -0.00658429 0)
(1.01283 -0.00496497 0)
(1.01237 -0.00290909 0)
(1.01149 -0.00148065 0)
(1.01136 -0.000634539 0)
(0.979397 -0.121285 1.40429e-20)
(0.983791 -0.110971 -1.15222e-20)
(0.984013 -0.10094 1.12402e-20)
(0.98385 -0.0917873 -1.70732e-20)
(0.983936 -0.082589 1.13055e-20)
(0.98446 -0.0745267 3.2407e-21)
(0.986581 -0.0675732 -5.35918e-21)
(0.990669 -0.0617225 -3.01213e-21)
(0.997031 -0.0570666 8.37647e-21)
(1.00457 -0.0530368 -7.39397e-21)
(1.01177 -0.0494184 7.14418e-21)
(1.01648 -0.045171 -6.13333e-21)
(1.01943 -0.0406155 4.27826e-21)
(1.02067 -0.0361609 6.89697e-22)
(1.02117 -0.0323486 -2.66305e-21)
(1.02131 -0.0291528 -3.20209e-21)
(1.02081 -0.0262044 2.09964e-21)
(1.02007 -0.023175 -1.48659e-21)
(1.0193 -0.0202903 1.62565e-21)
(1.01871 -0.0177088 -2.91033e-21)
(1.01804 -0.015455 2.14557e-21)
(1.01725 -0.0133846 -9.17156e-22)
(1.01635 -0.0114656 1.85923e-21)
(1.0154 -0.00963992 -1.6403e-21)
(1.01446 -0.0079288 1.06696e-21)
(1.01355 -0.00633827 -1.15269e-22)
(1.01276 -0.0047895 -7.15123e-22)
(1.01232 -0.00277404 2.69231e-22)
(1.01172 -0.00140598 -3.70629e-23)
(1.01162 -0.000626598 4.09935e-22)
(0.992414 -0.106196 -7.31472e-21)
(0.991937 -0.0972619 -5.02212e-21)
(0.990293 -0.0863727 9.56294e-21)
(0.991473 -0.0791322 -1.2861e-20)
(0.991811 -0.0730352 1.24265e-21)
(0.99148 -0.0673626 4.20762e-21)
(0.991867 -0.0620092 -3.1942e-21)
(0.994859 -0.0578921 6.7977e-22)
(1.00009 -0.0543978 -4.08555e-21)
(1.00668 -0.0513322 1.4248e-21)
(1.01262 -0.0478421 6.29935e-21)
(1.01756 -0.0436246 -9.45971e-21)
(1.02052 -0.0389857 5.27068e-21)
(1.02245 -0.0343909 1.13304e-21)
(1.02382 -0.0307596 -5.86061e-21)
(1.02443 -0.0277134 6.95636e-21)
(1.02402 -0.024993 -3.84289e-21)
(1.02297 -0.0221409 -2.22834e-21)
(1.02171 -0.0194231 6.62928e-21)
(1.02054 -0.0169399 1.69996e-21)