/*--------------------------------*- C++ -*----------------------------------*\
| =========                 |                                                 |
| \\      /  F ield         | OpenFOAM: The Open Source CFD Toolbox           |
|  \\    /   O peration     | Version:                                        |
|   \\  /    A nd           | Website:  www.openfoam.com                      |
|    \\/     M anipulation  |                                                 |
\*---------------------------------------------------------------------------*/
FoamFile
{
    version     2.0;
    format      ascii;
    class       volVectorField;
    location    "58.7";
    object      U;
}
// * * * * * * * * * * * * * * * * * * * * * * * * * * * * * * * * * * * * * //

dimensions      [0 1 -1 0 0 0 0];


internalField   nonuniform List<vector> 
1161
(
(1.52064 -0.251557 -1.42231e-19)
(1.47397 -0.264341 2.39117e-19)
(1.4509 -0.272179 -3.81742e-20)
(1.42241 -0.290091 -2.11849e-21)
(1.37768 -0.289135 3.54167e-20)
(1.3311 -0.298139 3.1945e-21)
(1.29111 -0.292999 -5.05799e-20)
(1.25965 -0.304908 -2.63124e-20)
(1.23494 -0.276229 -3.99785e-20)
(1.17068 -0.30997 -6.10411e-20)
(1.44083 -0.225331 -1.58717e-19)
(1.39639 -0.229805 3.44152e-20)
(1.36464 -0.234904 7.63933e-20)
(1.33678 -0.241711 -1.47832e-19)
(1.31078 -0.249841 1.24716e-20)
(1.27666 -0.243908 5.1389e-20)
(1.23484 -0.250292 1.45093e-19)
(1.20982 -0.247915 -1.06159e-19)
(1.36306 -0.19211 -1.11647e-19)
(1.33081 -0.190812 3.51786e-20)
(1.29277 -0.192166 1.54111e-19)
(1.25526 -0.200102 -6.01625e-20)
(1.23039 -0.189304 2.09231e-20)
(1.189 -0.198863 -6.64509e-21)
(1.26013 -0.145389 -1.10807e-19)
(1.23538 -0.143184 4.3893e-20)
(1.20782 -0.151814 2.78418e-20)
(0.082476 1.03994 3.37947e-20)
(0.0902584 1.04377 -3.89495e-20)
(0.110324 0.990552 8.66304e-22)
(0.134053 0.888364 1.84279e-20)
(0.168186 0.749635 -2.75085e-20)
(0.216736 0.584707 -1.99608e-20)
(0.261297 0.402139 5.2566e-20)
(0.339519 0.184959 -4.06865e-20)
(0.401041 -0.0244475 4.69467e-20)
(0.444775 -0.19114 4.28664e-20)
(0.525597 -0.373722 -3.64233e-20)
(0.635824 -0.671964 -4.31677e-20)
(0.75316 -0.961156 3.18515e-20)
(0.756052 -1.14987 1.94351e-20)
(0.760456 -1.19709 4.96328e-20)
(0.720257 -1.18597 -1.46036e-21)
(0.7101 -1.09372 -1.2901e-20)
(0.17419 1.02049 -3.06585e-20)
(0.209513 0.972242 7.83097e-21)
(0.270379 0.867928 -3.17889e-20)
(0.326115 0.722754 4.85422e-21)
(0.402772 0.552391 4.75409e-20)
(0.462817 0.375144 -1.88428e-19)
(0.56313 0.132589 7.76906e-20)
(0.633314 -0.0847058 5.04308e-20)
(0.649488 -0.245591 -1.81758e-19)
(0.75782 -0.449135 3.55397e-20)
(0.895849 -0.771586 1.5957e-20)
(0.996678 -1.01367 -8.98774e-20)
(0.979374 -1.1542 -2.57204e-19)
(0.962115 -1.14489 2.47935e-20)
(0.888578 -1.12674 3.55823e-20)
(0.862869 -1.04717 3.95645e-20)
(0.213744 0.970017 1.93151e-19)
(0.292965 0.91046 -6.29546e-20)
(0.34758 0.821888 -1.1149e-19)
(0.449979 0.674077 4.88562e-20)
(0.525442 0.508476 1.02342e-19)
(0.610002 0.331258 -1.48339e-19)
(0.734003 0.0837874 3.15668e-20)
(0.773843 -0.0967728 2.67112e-19)
(0.816827 -0.267393 -3.06214e-19)
(0.981803 -0.524825 6.27556e-21)
(1.1357 -0.827698 1.28975e-19)
(1.19049 -0.99821 3.22808e-20)
(1.13498 -1.08306 8.37356e-21)
(1.08189 -1.05492 2.7176e-19)
(1.01268 -1.04159 -2.02727e-19)
(0.979096 -0.979026 7.60209e-20)
(0.228723 0.877681 4.83748e-20)
(0.296687 0.836131 -1.42427e-19)
(0.383309 0.738051 1.25056e-19)
(0.496147 0.590014 4.09105e-20)
(0.568558 0.450232 -2.28952e-20)
(0.69669 0.252412 3.99231e-20)
(0.78655 0.0547544 1.87417e-19)
(0.820543 -0.0980316 2.69272e-20)
(0.989553 -0.328843 -2.87615e-19)
(1.21566 -0.61779 -1.01408e-19)
(1.32986 -0.846615 -3.52741e-20)
(1.32093 -0.946279 1.166e-19)
(1.24851 -0.979769 1.41012e-19)
(1.17622 -0.947441 4.75145e-20)
(1.09034 -0.932631 -1.60237e-19)
(1.03094 -0.88477 1.26773e-19)
(0.189212 0.787308 4.49023e-20)
(0.268568 0.725249 -3.06292e-19)
(0.360327 0.629445 4.23796e-19)
(0.444243 0.508089 -2.18972e-19)
(0.581638 0.347643 -2.27979e-19)
(0.674588 0.176848 2.0171e-19)
(0.741072 0.034305 -1.84224e-19)
(0.941523 -0.180872 3.84713e-20)
(1.24234 -0.452995 -1.36626e-19)
(1.42114 -0.680836 1.47399e-19)
(1.43973 -0.801986 1.06536e-19)
(1.37867 -0.837795 2.36539e-19)
(1.28288 -0.848749 -1.27009e-19)
(1.21672 -0.821227 -4.16855e-20)
(1.12295 -0.822275 -1.29805e-19)
(1.057 -0.765291 2.99245e-19)
(0.15151 0.617099 -2.71941e-19)
(0.268558 0.51405 8.47871e-21)
(0.385968 0.374708 1.04177e-19)
(0.458979 0.247875 7.30319e-20)
(0.593443 0.105895 -2.07061e-19)
(0.884773 -0.104875 1.52987e-20)
(1.25036 -0.349197 -2.52827e-19)
(1.47797 -0.549606 4.91857e-19)
(1.51725 -0.654919 -1.84293e-19)
(1.45757 -0.704818 -2.23397e-19)
(1.3862 -0.711868 -7.6805e-21)
(1.29189 -0.730758 -1.29619e-19)
(1.23201 -0.691658 1.53522e-19)
(1.13137 -0.717128 7.86578e-20)
(1.08844 -0.647468 -1.29938e-19)
(0.0964422 0.35713 -2.66214e-20)
(0.201501 0.258651 2.38781e-19)
(0.466212 0.100271 4.52538e-19)
(0.864593 -0.10257 -6.12827e-20)
(1.27062 -0.304516 1.30939e-19)
(1.51124 -0.450768 1.77216e-19)
(1.55076 -0.528944 -3.94754e-19)
(1.49851 -0.568141 -1.79433e-20)
(1.4395 -0.596304 4.96514e-19)
(1.37078 -0.602148 -3.36392e-20)
(1.29898 -0.615815 -2.63394e-19)
(1.24547 -0.586439 2.14296e-19)
(1.16648 -0.602515 -9.89768e-20)
(1.14814 -0.554194 -3.53136e-21)
(0.418661 0.0390345 5.25817e-20)
(0.899129 -0.136906 2.45497e-19)
(1.30212 -0.2841 -3.90479e-19)
(1.51719 -0.37104 -2.12637e-19)
(1.54006 -0.422578 -1.4521e-19)
(1.51264 -0.45335 2.84514e-20)
(1.47176 -0.493407 -1.82518e-19)
(1.42653 -0.50008 -1.708e-19)
(1.35634 -0.523638 1.55e-20)
(1.31484 -0.51239 3.113e-19)
(1.26446 -0.51691 -1.34423e-19)
(1.22215 -0.522848 -4.7552e-20)
(1.18274 -0.489952 4.5025e-20)
(1.32528 -0.252794 6.36026e-20)
(1.49647 -0.303509 9.76919e-20)
(1.51772 -0.338957 2.61109e-20)
(1.51431 -0.371839 -2.53189e-20)
(1.49773 -0.40132 9.40056e-20)
(1.45074 -0.416876 1.61182e-20)
(1.40393 -0.424474 -1.25811e-19)
(1.35493 -0.44264 5.1726e-20)
(1.32311 -0.436156 1.67265e-19)
(1.26657 -0.448448 -2.43958e-19)
(1.22626 -0.446125 2.38458e-19)
(1.17985 -0.411596 -1.99084e-19)
(1.51852 -0.279935 -8.27055e-20)
(1.53246 -0.309127 -1.05767e-19)
(1.51728 -0.32201 3.10239e-19)
(1.46505 -0.335926 -2.10194e-19)
(1.42587 -0.339722 6.78379e-20)
(1.3894 -0.363135 -1.23454e-19)
(1.34999 -0.3593 1.22114e-19)
(1.30322 -0.367193 -1.24926e-19)
(1.24491 -0.371806 1.45296e-19)
(1.20985 -0.365041 7.4485e-20)
(1.17243 -0.3539 2.55547e-20)
(0.660284 -1.03799 1.42042e-20)
(0.633806 -1.03991 -3.19179e-21)
(0.614519 -1.04372 3.59986e-21)
(0.578582 -1.08875 3.89708e-21)
(0.492413 -1.1383 -1.06593e-20)
(0.437465 -1.01831 4.52174e-21)
(0.449587 -0.647576 5.81182e-21)
(0.491675 -0.116857 -8.90686e-21)
(0.543536 0.401074 5.98768e-21)
(0.613387 0.759776 -1.4739e-20)
(0.660657 0.923536 3.25644e-21)
(0.722329 0.937751 1.57435e-21)
(0.765318 0.893068 3.96131e-21)
(0.809015 0.86382 2.19149e-21)
(0.823091 0.928734 -1.9362e-21)
(0.831654 1.02052 -3.12123e-22)
(0.809574 1.00543 -6.10949e-22)
(0.770823 0.847647 -4.55097e-21)
(0.761572 0.477556 8.96061e-21)
(0.747071 -0.0327215 -4.53989e-21)
(0.806206 -1.01927 -9.30879e-21)
(0.740165 -0.992917 -1.68575e-20)
(0.659692 -0.9622 2.09585e-22)
(0.577196 -0.978626 1.75417e-20)
(0.454006 -1.02155 1.67461e-20)
(0.349899 -0.951167 -4.80305e-21)
(0.284556 -0.649347 -6.02959e-21)
(0.296705 -0.186057 3.85179e-20)
(0.371359 0.285749 -4.0763e-20)
(0.460319 0.657294 -2.23434e-20)
(0.559693 0.858263 9.28934e-21)
(0.662288 0.902996 2.47659e-20)
(0.744255 0.87141 -1.60465e-20)
(0.819126 0.849873 -1.13124e-20)
(0.858893 0.918131 1.98699e-20)
(0.899421 1.01381 -1.06643e-20)
(0.919926 1.04463 -4.16937e-21)
(0.921076 0.877513 3.12642e-20)
(0.940526 0.471568 -5.8198e-20)
(0.944425 -0.0354469 2.40772e-20)
(0.904105 -0.957273 -7.12025e-20)
(0.806776 -0.916697 1.14669e-20)
(0.715162 -0.87445 1.09778e-20)
(0.615744 -0.871835 -1.56032e-20)
(0.471497 -0.909809 9.57221e-21)
(0.327997 -0.883804 -1.07879e-20)
(0.226414 -0.654459 4.12789e-20)
(0.201738 -0.265968 8.13475e-22)
(0.258807 0.163832 1.25733e-20)
(0.352962 0.52211 -1.21578e-20)
(0.476521 0.726988 -3.79209e-20)
(0.599239 0.802834 4.90813e-21)
(0.720099 0.809259 -7.05232e-21)
(0.818154 0.807826 1.44733e-20)
(0.901769 0.877746 -9.35424e-21)
(1.00064 0.994 1.71149e-20)
(1.0563 1.04995 3.67e-20)
(1.10437 0.925073 -2.88762e-20)
(1.1427 0.55812 -4.62784e-20)
(1.13032 0.0577942 2.66447e-20)
(0.929227 -0.874324 -8.50055e-20)
(0.830317 -0.839263 4.00319e-20)
(0.75894 -0.804986 4.20185e-20)
(0.674661 -0.764748 -2.91663e-20)
(0.548169 -0.763488 2.51841e-20)
(0.373895 -0.784537 -3.48612e-20)
(0.239199 -0.655325 3.7124e-20)
(0.184242 -0.355246 5.14517e-21)
(0.214135 0.0306955 -4.3599e-20)
(0.296144 0.38433 1.13111e-20)
(0.414206 0.597538 1.2361e-20)
(0.554537 0.687296 -1.71412e-20)
(0.676315 0.706505 7.66654e-21)
(0.798335 0.705925 3.83895e-21)
(0.918063 0.765995 9.36204e-21)
(1.04287 0.889559 -2.57997e-20)
(1.14597 0.993849 5.67055e-21)
(1.24074 0.92386 -1.29286e-20)
(1.27314 0.604257 6.31059e-20)
(1.28731 0.107403 -9.45459e-21)
(0.943255 -0.782902 -1.97294e-19)
(0.850899 -0.759138 9.75665e-21)
(0.780251 -0.744548 1.32877e-19)
(0.701446 -0.712301 -8.57733e-20)
(0.612994 -0.653267 -3.7529e-21)
(0.467566 -0.650439 2.10538e-20)
(0.310589 -0.61512 2.64737e-21)
(0.225515 -0.424979 -8.92362e-21)
(0.212897 -0.0987905 -3.857e-20)
(0.268963 0.230473 2.35021e-20)
(0.387524 0.448396 1.56669e-20)
(0.506003 0.575732 -1.86914e-21)
(0.621419 0.622252 1.39055e-20)
(0.756946 0.619769 6.95069e-21)
(0.887406 0.664513 -1.49075e-20)
(1.0521 0.778263 -1.40055e-20)
(1.19269 0.904511 3.63016e-22)
(1.29279 0.900652 -1.72711e-20)
(1.37391 0.63559 5.77597e-20)
(1.4195 0.209047 -6.26731e-20)
(0.979367 -0.682429 1.35883e-19)
(0.902305 -0.683013 -3.52861e-20)
(0.831905 -0.66379 4.27082e-20)
(0.740439 -0.648863 -1.86221e-20)
(0.656853 -0.583563 -4.53119e-20)
(0.575514 -0.531422 2.40993e-20)
(0.430583 -0.525633 -1.0328e-20)
(0.298989 -0.445997 3.00516e-20)
(0.237696 -0.205874 -3.95535e-20)
(0.275083 0.0872499 1.15048e-20)
(0.379775 0.308227 -1.127e-20)
(0.479782 0.447147 6.47358e-21)
(0.597199 0.492308 4.45739e-21)
(0.703904 0.488887 4.35374e-21)
(0.834257 0.509133 3.10989e-21)
(1.0027 0.610885 -3.06178e-21)
(1.17782 0.77745 8.48261e-21)
(1.3461 0.842739 2.28353e-20)
(1.45299 0.679287 5.38209e-21)
(1.49833 0.293924 -1.21636e-19)
(1.05547 -0.587283 -1.02432e-20)
(0.969454 -0.603798 -4.04164e-20)
(0.893352 -0.581488 1.27124e-21)
(0.809769 -0.575906 -3.50582e-20)
(0.711153 -0.560435 3.50389e-20)
(0.652812 -0.477745 1.11825e-20)
(0.561546 -0.40472 -7.79465e-21)
(0.420981 -0.387055 -1.45124e-21)
(0.306711 -0.281201 -3.02414e-22)
(0.296199 -0.0522769 -1.26118e-21)
(0.371366 0.179607 -5.98732e-22)
(0.471197 0.363325 -5.76461e-22)
(0.580253 0.447635 -2.84747e-22)
(0.679938 0.440858 4.45691e-22)
(0.795073 0.413545 -5.38587e-21)
(0.937952 0.453071 -3.20933e-21)
(1.13166 0.60064 6.50109e-21)
(1.2658 0.739705 3.88762e-20)
(1.39208 0.650527 -1.0803e-20)
(1.52009 0.370339 -8.32375e-20)
(1.50775 0.0395368 3.64624e-20)
(1.11233 -0.50753 -1.06559e-19)
(1.04962 -0.519656 4.76343e-20)
(0.966556 -0.518918 3.70159e-20)
(0.8873 -0.486074 -4.36921e-20)
(0.797339 -0.485516 2.43427e-20)
(0.71753 -0.480234 -2.31845e-21)
(0.654189 -0.384827 -6.09541e-21)
(0.568132 -0.306562 -2.58085e-21)
(0.449618 -0.258597 -4.72656e-24)
(0.364931 -0.144718 4.40251e-21)
(0.374092 0.0234299 3.1252e-21)
(0.45002 0.210528 -1.78124e-21)
(0.540315 0.332845 -7.03105e-21)
(0.645152 0.361289 -3.53347e-21)
(0.77256 0.330686 3.99427e-21)
(0.911526 0.328844 2.88846e-21)
(1.04627 0.462516 -1.45228e-21)
(1.20304 0.61367 -2.00198e-22)
(1.39921 0.585175 4.78257e-22)
(1.46979 0.390014 -6.30912e-21)
(1.45 0.0933558 -1.1215e-22)
(1.10839 -0.461927 3.06079e-20)
(1.0612 -0.438329 5.16995e-20)
(0.99933 -0.437415 -1.39186e-21)
(0.941829 -0.445383 8.15588e-21)
(0.882572 -0.416309 2.09115e-21)
(0.797479 -0.407554 -1.09459e-20)
(0.703605 -0.363558 3.92262e-22)
(0.647665 -0.285834 7.25562e-21)
(0.591002 -0.21559 -1.95152e-20)
(0.517341 -0.132367 1.25708e-20)
(0.475661 -0.0160982 -1.05605e-22)
(0.486917 0.144344 3.06008e-21)
(0.549066 0.269473 1.31557e-20)
(0.654052 0.293036 -2.52067e-20)
(0.7647 0.25085 1.21978e-20)
(0.862168 0.217982 -2.94424e-21)
(0.988086 0.303451 2.34649e-21)
(1.14671 0.484813 3.97903e-21)
(1.26374 0.564195 -1.65918e-20)
(1.39325 0.461326 1.43918e-20)
(1.47437 0.22467 -2.61731e-20)
(1.11897 -0.404929 2.08274e-21)
(1.08209 -0.415708 3.13419e-21)
(1.03689 -0.401585 3.4306e-20)
(0.990383 -0.40766 -3.94244e-20)
(0.938163 -0.399026 -2.45736e-20)
(0.888757 -0.388392 2.13586e-20)
(0.815729 -0.361978 -7.04125e-21)
(0.75199 -0.314067 2.53264e-21)
(0.699138 -0.258539 -6.51955e-21)
(0.645062 -0.188646 1.48778e-20)
(0.612442 -0.113582 -7.43308e-21)
(0.602957 0.0180881 -2.3913e-20)
(0.616636 0.169507 2.04823e-21)
(0.645173 0.245705 1.58828e-20)
(0.691317 0.239573 1.29616e-20)
(0.759068 0.183588 -1.03635e-20)
(0.861196 0.203946 -2.79723e-22)
(0.987026 0.349008 6.56879e-22)
(1.15955 0.449259 -3.88304e-21)
(1.31483 0.427856 9.46783e-21)
(1.32966 0.285606 3.63313e-21)
(1.14617 -0.30579 0)
(1.11386 -0.314075 0)
(1.06911 -0.32312 0)
(1.03015 -0.333817 0)
(0.979408 -0.307552 0)
(0.922821 -0.28773 0)
(0.86247 -0.269505 0)
(0.813329 -0.228979 0)
(0.779722 -0.18547 0)
(0.734273 -0.133481 0)
(0.703005 -0.0922665 0)
(0.687409 0.00196462 0)
(0.682851 0.142753 0)
(0.702858 0.21765 0)
(0.74101 0.196 0)
(0.773005 0.119856 0)
(0.83744 0.113215 0)
(0.970249 0.241184 0)
(1.11162 0.36267 0)
(1.1756 0.390496 0)
(1.23779 0.291143 0)
(1.31651 0.0641974 0)
(1.11638 -0.272371 0)
(1.10029 -0.293673 0)
(1.07195 -0.288603 0)
(1.00965 -0.2984 0)
(0.941258 -0.293934 0)
(0.904406 -0.283324 0)
(0.861839 -0.258047 0)
(0.816827 -0.227111 0)
(0.783593 -0.193406 0)
(0.752057 -0.13612 0)
(0.73676 -0.0859995 0)
(0.720119 0.0154743 0)
(0.724757 0.137261 0)
(0.782771 0.194259 0)
(0.845681 0.184424 0)
(0.864324 0.112392 0)
(0.852024 0.093882 0)
(0.887275 0.21041 0)
(0.955589 0.339374 0)
(1.03713 0.37334 0)
(1.18956 0.249304 0)
(1.29486 0.0327581 0)
(1.11176 -0.226126 0)
(1.09088 -0.238782 0)
(1.05939 -0.248588 0)
(1.02757 -0.250785 0)
(0.981251 -0.236108 0)
(0.936546 -0.22968 0)
(0.889924 -0.211794 0)
(0.859995 -0.174817 0)
(0.832409 -0.141357 0)
(0.79835 -0.097405 0)
(0.775753 -0.0654626 0)
(0.756309 0.0148412 0)
(0.778263 0.111537 0)
(0.839211 0.152224 0)
(0.901773 0.153097 0)
(0.939738 0.115477 0)
(0.899674 0.114249 0)
(0.869482 0.208087 0)
(0.918633 0.303187 0)
(1.03916 0.293369 0)
(1.20422 0.168723 0)
(1.28052 0.00933218 0)
(1.09643 -0.193524 0)
(1.08343 -0.205124 0)
(1.06579 -0.209608 0)
(1.02497 -0.215629 0)
(0.984943 -0.211563 0)
(0.955117 -0.199225 0)
(0.913482 -0.178903 0)
(0.885124 -0.155866 0)
(0.855497 -0.131768 0)
(0.836126 -0.0900533 0)
(0.817039 -0.0564084 0)
(0.799272 0.00810318 0)
(0.828692 0.0817645 0)
(0.870952 0.113465 0)
(0.92329 0.118511 0)
(0.957522 0.111781 0)
(0.930754 0.13456 0)
(0.93129 0.194937 0)
(0.993272 0.23564 0)
(1.09956 0.209879 0)
(1.22826 0.119687 0)
(1.27168 0.00335038 0)
(1.08732 -0.164399 0)
(1.07626 -0.17498 0)
(1.06049 -0.181793 0)
(1.03314 -0.181849 0)
(1.00238 -0.176714 0)
(0.970728 -0.164748 0)
(0.934383 -0.153894 0)
(0.915553 -0.129431 0)
(0.889087 -0.104006 0)
(0.873866 -0.0735004 0)
(0.859806 -0.0384114 0)
(0.842583 0.00486812 0)
(0.867273 0.0579535 0)
(0.897235 0.0864644 0)
(0.931809 0.093221 0)
(0.954906 0.106496 0)
(0.953067 0.125955 0)
(0.987529 0.160711 0)
(1.0521 0.191571 0)
(1.12966 0.158423 0)
(1.20926 0.0767626 0)
(1.22906 -0.00308193 0)
(1.07649 -0.137689 0)
(1.07 -0.14522 0)
(1.05743 -0.150016 0)
(1.03223 -0.150418 0)
(1.0084 -0.148598 0)
(0.978297 -0.138975 0)
(0.955435 -0.126138 0)
(0.934785 -0.107678 0)
(0.913549 -0.0845894 0)
(0.906885 -0.0618268 0)
(0.888454 -0.031405 0)
(0.88509 0.00228445 0)
(0.900794 0.0392592 0)
(0.915994 0.0668206 0)
(0.947797 0.0765173 0)
(0.964236 0.0934581 0)
(0.976526 0.111474 0)
(1.01523 0.131981 0)
(1.06193 0.144657 0)
(1.1296 0.111326 0)
(1.1792 0.0580838 0)
(1.18756 0.00355552 0)
(1.06441 -0.110386 0)
(1.05843 -0.12091 0)
(1.04746 -0.121521 0)
(1.02839 -0.125994 0)
(1.00747 -0.122781 0)
(0.984073 -0.113108 0)
(0.964205 -0.107269 0)
(0.947065 -0.0861129 0)
(0.932295 -0.0732319 0)
(0.92635 -0.0514418 0)
(0.914752 -0.0226595 0)
(0.915312 -0.00504558 0)
(0.92114 0.0315281 0)
(0.938524 0.0506655 0)
(0.958455 0.058523 0)
(0.973194 0.0831565 0)
(0.996643 0.088758 0)
(1.02062 0.102873 0)
(1.06736 0.108845 0)
(1.11221 0.0813965 0)
(1.1377 0.046082 0)
(1.15712 -0.00748301 0)
(1.05139 -0.0912428 0)
(1.04767 -0.0968164 0)
(1.03749 -0.0998576 0)
(1.02575 -0.102187 0)
(1.00416 -0.0995336 0)
(0.989174 -0.0942994 0)
(0.970944 -0.0856698 0)
(0.956711 -0.0731356 0)
(0.948883 -0.0593129 0)
(0.937815 -0.0424657 0)
(0.934814 -0.0233244 0)
(0.934594 -0.00274517 0)
(0.934839 0.018937 0)
(0.954361 0.0366269 0)
(0.964173 0.0504013 0)
(0.978978 0.0606787 0)
(1.00478 0.0718898 0)
(1.02087 0.0800796 0)
(1.05749 0.0748909 0)
(1.08978 0.0627257 0)
(1.10922 0.0266512 0)
(1.12899 -0.00574641 0)
(1.04455 -0.0740388 0)
(1.03834 -0.0774323 0)
(1.03661 -0.0797341 0)
(1.02247 -0.0822664 0)
(1.00956 -0.0792171 0)
(0.995838 -0.0772898 0)
(0.977972 -0.0688371 0)
(0.972916 -0.0605466 0)
(0.95692 -0.0493929 0)
(0.956475 -0.0350551 0)
(0.949371 -0.0218111 0)
(0.946906 -0.00517236 0)
(0.955584 0.0127142 0)
(0.95923 0.0239599 0)
(0.974245 0.0396185 0)
(0.990841 0.0466866 0)
(0.998702 0.0518945 0)
(1.02451 0.0617507 0)
(1.04961 0.0505213 0)
(1.06184 0.0427003 0)
(1.09536 0.0221629 0)
(1.09505 -0.013147 0)
(1.0389 -0.05868 0)
(1.03446 -0.062169 0)
(1.03324 -0.0646859 0)
(1.02539 -0.0626125 0)
(1.01208 -0.0663792 0)
(1.00481 -0.0576766 0)
(0.986839 -0.0579521 0)
(0.984804 -0.0482835 0)
(0.971309 -0.0381533 0)
(0.96943 -0.0342517 0)
(0.966594 -0.0138245 0)
(0.960827 -0.0107064 0)
(0.969851 0.00634985 0)
(0.972229 0.0200798 0)
(0.981274 0.0212574 0)
(0.998127 0.0377019 0)
(1.00457 0.0399437 0)
(1.02291 0.0357284 0)
(1.04435 0.043151 0)
(1.05001 0.0274604 0)
(1.07151 -0.0010504 0)
(1.08088 0.00154923 0)
(1.03079 -0.049964 0)
(1.03398 -0.0468735 0)
(1.02655 -0.0536615 0)
(1.02695 -0.0485539 0)
(1.01361 -0.0519786 0)
(1.00798 -0.0473968 0)
(0.999281 -0.042923 0)
(0.988153 -0.0412956 0)
(0.990639 -0.0286787 0)
(0.97671 -0.0285034 0)
(0.982556 -0.0138217 0)
(0.977467 -0.00887158 0)
(0.975703 0.000716399 0)
(0.990436 0.0112816 0)
(0.983833 0.0156373 0)
(1.0058 0.0231491 0)
(1.01019 0.027263 0)
(1.01873 0.0263342 0)
(1.03917 0.0224741 0)
(1.04431 0.0187135 0)
(1.0563 -0.000407701 0)
(1.05914 -0.0103727 0)
(1.02669 -0.039354 0)
(1.02957 -0.0371567 0)
(1.0268 -0.0406969 0)
(1.02258 -0.0402808 0)
(1.01929 -0.0380336 0)
(1.00732 -0.0408186 0)
(1.00766 -0.0313089 0)
(0.994481 -0.0353644 0)
(0.997865 -0.0232506 0)
(0.990544 -0.021762 0)
(0.988546 -0.016737 0)
(0.993299 -0.00309519 0)
(0.982919 -0.00863768 0)
(1.00094 0.0102976 0)
(0.992323 0.00781117 0)
(1.00698 0.00938317 0)
(1.0154 0.0249653 0)
(1.01443 0.00614933 0)
(1.03656 0.0182396 0)
(1.03375 0.0119745 0)
(1.04112 -0.0144721 0)
(1.05128 -0.00320505 0)
(1.02544 -0.0296418 0)
(1.02576 -0.0298638 0)
(1.02629 -0.0300471 0)
(1.02147 -0.0328774 0)
(1.02023 -0.0285548 0)
(1.01145 -0.0327264 0)
(1.00941 -0.0260734 0)
(1.00331 -0.026344 0)
(1.00032 -0.0233853 0)
(1.00163 -0.0143978 0)
(0.993817 -0.0191091 0)
(1.00094 -0.00345771 0)
(0.994906 -0.00734434 0)
(0.999794 -0.000744569 0)
(1.00695 0.0103091 0)
(1.00218 -0.00275981 0)
(1.01951 0.0174605 0)
(1.01672 0.00513524 0)
(1.01993 0.000795081 0)
(1.03954 0.0132286 0)
(1.02358 -0.0162379 0)
(1.03865 -0.0113081 0)
(1.02322 -0.0225102 0)
(1.02344 -0.0233677 0)
(1.0244 -0.0229812 0)
(1.02204 -0.0254636 0)
(1.01945 -0.0226039 0)
(1.01552 -0.0250573 0)
(1.01081 -0.0214663 0)
(1.00941 -0.0205015 0)
(1.00492 -0.0195923 0)
(1.00515 -0.0132301 0)
(1.00285 -0.0154313 0)
(1.00135 -0.00680075 0)
(1.00457 -0.006262 0)
(1.00104 -0.0047016 0)
(1.00911 0.00457792 0)
(1.00875 -0.0028253 0)
(1.01153 0.00577045 0)
(1.02129 0.00464413 0)
(1.01451 -0.00557786 0)
(1.02827 0.00599411 0)
(1.0258 -0.0114338 0)
(1.0222 -0.0190764 0)
(1.02151 -0.0168582 0)
(1.0222 -0.018036 0)
(1.0231 -0.0171631 0)
(1.02152 -0.0199226 0)
(1.01986 -0.0169694 0)
(1.01694 -0.0197486 0)
(1.01353 -0.0167002 0)
(1.01147 -0.0166309 0)
(1.00874 -0.016358 0)
(1.00844 -0.0111648 0)
(1.00667 -0.0139173 0)
(1.00578 -0.0066384 0)
(1.00619 -0.00763622 0)
(1.00593 -0.00551133 0)
(1.00851 0.000238182 0)
(1.0106 -0.00482561 0)
(1.01184 0.00143709 0)
(1.01595 -0.000422516 0)
(1.01661 -0.00594622 0)
(1.01778 -0.000941489 0)
(1.02285 -0.0100706 0)
(1.01783 -0.0172918 0)
(1.01984 -0.0126395 0)
(1.02056 -0.0138709 0)
(1.02176 -0.0131111 0)
(1.02123 -0.0152584 0)
(1.0197 -0.013375 0)
(1.01755 -0.0153296 0)
(1.01424 -0.013773 0)
(1.01341 -0.0131816 0)
(1.01109 -0.0136091 0)
(1.01105 -0.00939169 0)
(1.00939 -0.012119 0)
(1.00812 -0.00670851 0)
(1.00875 -0.00752847 0)
(1.00753 -0.00666398 0)
(1.01025 -0.00145384 0)
(1.01041 -0.00710811 0)
(1.01214 -0.000421931 0)
(1.01371 -0.00381222 0)
(1.01392 -0.00753678 0)
(1.01547 -0.00158539 0)
(1.01572 -0.0130121 0)
(1.0162 -0.0120798 0)
(1.01845 -0.00939403 0)
(1.01956 -0.0104267 0)
(1.02055 -0.00992373 0)
(1.02025 -0.0115136 0)
(1.01881 -0.0106529 0)
(1.01758 -0.0115852 0)
(1.01519 -0.0110427 0)
(1.01466 -0.0100394 0)
(1.01275 -0.0110638 0)
(1.01224 -0.00796877 0)
(1.01139 -0.0100213 0)
(1.00957 -0.00672031 0)
(1.01078 -0.00665498 0)
(1.00866 -0.00714922 0)
(1.01103 -0.00272465 0)
(1.01109 -0.0073094 0)
(1.01076 -0.00295406 0)
(1.01375 -0.00425769 0)
(1.0106 -0.00877607 0)
(1.01352 -0.00240249 0)
(1.01283 -0.0117557 0)
(1.00996 -0.0115438 0)
(1.01729 -0.00691877 0)
(1.01819 -0.00763007 0)
(1.01891 -0.00760339 0)
(1.01906 -0.00841517 0)
(1.01839 -0.00822252 0)
(1.01751 -0.00850058 0)
(1.0156 -0.00863647 0)
(1.01468 -0.00795609 0)
(1.01354 -0.00877832 0)
(1.01286 -0.00703131 0)
(1.01253 -0.00796247 0)
(1.01079 -0.00647107 0)
(1.01138 -0.00593683 0)
(1.00996 -0.00672397 0)
(1.01095 -0.00381905 0)
(1.01156 -0.00649785 0)
(1.01021 -0.00439852 0)
(1.01249 -0.00435847 0)
(1.0099 -0.00811033 0)
(1.01026 -0.00357379 0)
(1.01156 -0.00930367 0)
(1.0068 -0.0099434 0)
(1.01584 -0.00528368 0)
(1.01693 -0.00562128 0)
(1.01795 -0.00575084 0)
(1.01824 -0.00610209 0)
(1.01767 -0.00630938 0)
(1.01658 -0.00649473 0)
(1.01531 -0.00680605 0)
(1.01447 -0.00642724 0)
(1.01396 -0.00679957 0)
(1.0133 -0.00601248 0)
(1.01291 -0.00629818 0)
(1.01157 -0.0057821 0)
(1.01151 -0.00526968 0)
(1.01077 -0.00572031 0)
(1.01086 -0.00428448 0)
(1.01144 -0.0053533 0)
(1.0102 -0.00470639 0)
(1.01092 -0.00424 0)
(1.0095 -0.00653844 0)
(1.00836 -0.00411943 0)
(1.00988 -0.00670275 0)
(1.00574 -0.00763491 0)
(1.01521 -0.00376412 0)
(1.01612 -0.00391324 0)
(1.01686 -0.00417809 0)
(1.01691 -0.00445238 0)
(1.01654 -0.00477315 0)
(1.01577 -0.00488806 0)
(1.01499 -0.00508472 0)
(1.0143 -0.0049523 0)
(1.01388 -0.00510842 0)
(1.01329 -0.00488936 0)
(1.01281 -0.00493586 0)
(1.01185 -0.0047924 0)
(1.01149 -0.00446627 0)
(1.01094 -0.0046162 0)
(1.01087 -0.00403651 0)
(1.01092 -0.00426446 0)
(1.01017 -0.00421962 0)
(1.00983 -0.00368253 0)
(1.00903 -0.00483616 0)
(1.00766 -0.00360501 0)
(1.00819 -0.00455812 0)
(1.00573 -0.00503333 0)
(1.01418 -0.00257451 0)
(1.01479 -0.00273568 0)
(1.01547 -0.00299182 0)
(1.0157 -0.00318416 0)
(1.01563 -0.00341446 0)
(1.01501 -0.00353169 0)
(1.01436 -0.00369932 0)
(1.01373 -0.00372571 0)
(1.01341 -0.00383304 0)
(1.01297 -0.00378447 0)
(1.01254 -0.00380088 0)
(1.01177 -0.00371254 0)
(1.01133 -0.00358146 0)
(1.01082 -0.00351082 0)
(1.01076 -0.00331113 0)
(1.01047 -0.00320525 0)
(1.01007 -0.00321674 0)
(1.00922 -0.00279884 0)
(1.00859 -0.00317054 0)
(1.00735 -0.0025279 0)
(1.00732 -0.00260953 0)
(1.00582 -0.00254339 0)
(1.01314 -0.00182495 0)
(1.01377 -0.00189818 0)
(1.01447 -0.00204764 0)
(1.01467 -0.00217965 0)
(1.01459 -0.00237095 0)
(1.01403 -0.00250627 0)
(1.01356 -0.00264357 0)
(1.01306 -0.00268719 0)
(1.01288 -0.0027525 0)
(1.0125 -0.00272981 0)
(1.01216 -0.00275708 0)
(1.01146 -0.00266372 0)
(1.0111 -0.00261376 0)
(1.01058 -0.00244328 0)
(1.01057 -0.00235412 0)
(1.01016 -0.00212628 0)
(1.00985 -0.00207951 0)
(1.00891 -0.00172949 0)
(1.00835 -0.0016731 0)
(1.00735 -0.0011729 0)
(1.00713 -0.000852738 0)
(1.00603 -0.000411167 0)
(1.0125 -0.00112925 0)
(1.01294 -0.00116575 0)
(1.01345 -0.00128675 0)
(1.01355 -0.00140088 0)
(1.01353 -0.00155547 0)
(1.0131 -0.00164616 0)
(1.0128 -0.00174508 0)
(1.01238 -0.00176299 0)
(1.01228 -0.00181895 0)
(1.01192 -0.00179151 0)
(1.01169 -0.00181526 0)
(1.01107 -0.00170767 0)
(1.01082 -0.00165624 0)
(1.01032 -0.00145929 0)
(1.01036 -0.00135474 0)
(1.0099 -0.00110615 0)
(1.00968 -0.000969094 0)
(1.0088 -0.000604836 0)
(1.00837 -0.000350026 0)
(1.00752 0.000195819 0)
(1.00736 0.000653305 0)
(1.00651 0.00137114 0)
(1.01173 -0.000607628 0)
(1.012 -0.000636702 0)
(1.01243 -0.000724806 0)
(1.01253 -0.000794395 0)
(1.01258 -0.000899454 0)
(1.01223 -0.000949974 0)
(1.01204 -0.00102078 0)
(1.01167 -0.00101725 0)
(1.01165 -0.00105207 0)
(1.01133 -0.00100255 0)
(1.01122 -0.0010003 0)
(1.01068 -0.00087557 0)
(1.01054 -0.0007995 0)
(1.01009 -0.000588629 0)
(1.01016 -0.000452243 0)
(1.00973 -0.000182752 0)
(1.00963 1.84153e-05 0)
(1.00885 0.000414271 0)
(1.00859 0.00075811 0)
(1.00788 0.00136218 0)
(1.0079 0.00188398 0)
(1.0072 0.00272198 0)
(1.01104 -0.000280218 0)
(1.01121 -0.000274072 0)
(1.01158 -0.000317332 0)
(1.01162 -0.000345646 0)
(1.01171 -0.000411386 0)
(1.01141 -0.000429087 0)
(1.01132 -0.000466265 0)
(1.01101 -0.000435718 0)
(1.01107 -0.000437694 0)
(1.01079 -0.000367752 0)
(1.01078 -0.000336136 0)
(1.01033 -0.000202613 0)
(1.01029 -0.000103489 0)
(1.00989 0.000112311 0)
(1.01003 0.000274616 0)
(1.00964 0.00056067 0)
(1.00966 0.000790281 0)
(1.00901 0.0012067 0)
(1.00896 0.00158054 0)
(1.00836 0.00220322 0)
(1.00857 0.00274297 0)
(1.00803 0.00359459 0)
(1.0105 -6.3908e-05 0)
(1.01057 -3.86205e-05 0)
(1.01086 -5.44883e-05 0)
(1.01084 -5.65912e-05 0)
(1.01096 -8.86961e-05 0)
(1.01071 -7.94275e-05 0)
(1.01071 -8.63925e-05 0)
(1.01044 -3.68884e-05 0)
(1.01056 -1.38078e-05 0)
(1.01031 6.88047e-05 0)
(1.0104 0.000121149 0)
(1.01002 0.000258552 0)
(1.01009 0.00037103 0)
(1.00974 0.000585956 0)
(1.00996 0.000758962 0)
(1.00962 0.00104455 0)
(1.00978 0.00128217 0)
(1.00925 0.00168976 0)
(1.0094 0.00205866 0)
(1.00893 0.00265318 0)
(1.00933 0.00317463 0)
(1.00893 0.00396923 0)
(1.01002 9.12408e-05 0)
(1.01001 0.000121968 0)
(1.01025 0.000122939 0)
(1.0102 0.000136843 0)
(1.01034 0.000127195 0)
(1.01013 0.000150374 0)
(1.0102 0.000161336 0)
(1.00998 0.000217988 0)
(1.01014 0.000255434 0)
(1.00993 0.000340247 0)
(1.01009 0.000403043 0)
(1.00979 0.000534125 0)
(1.00996 0.000647893 0)
(1.00966 0.000845314 0)
(1.00995 0.00100987 0)
(1.00966 0.00126912 0)
(1.00995 0.00149067 0)
(1.00954 0.00185451 0)
(1.00987 0.00218692 0)
(1.00951 0.0027054 0)
(1.01007 0.00316172 0)
(1.0098 0.00384292 0)
(1.00964 9.65419e-05 0)
(1.00958 0.000133088 0)
(1.00978 0.000148599 0)
(1.00969 0.000172589 0)
(1.00985 0.00017911 0)
(1.00967 0.000209812 0)
(1.00981 0.000232533 0)
(1.00962 0.000289413 0)
(1.00983 0.000332378 0)
(1.00963 0.000410163 0)
(1.00986 0.000471053 0)
(1.00961 0.000582623 0)
(1.00987 0.000680556 0)
(1.00962 0.00084227 0)
(1.00997 0.000979478 0)
(1.00972 0.0011901 0)
(1.01012 0.00137234 0)
(1.00981 0.00166359 0)
(1.01029 0.00193002 0)
(1.01003 0.00233727 0)
(1.01073 0.00269753 0)
(1.01055 0.00322596 0)
(1.00945 5.99228e-05 0)
(1.00935 8.8654e-05 0)
(1.0095 0.000104913 0)
(1.00938 0.000127291 0)
(1.00954 0.00013969 0)
(1.00938 0.000167628 0)
(1.00957 0.000190256 0)
(1.0094 0.000233353 0)
(1.00964 0.000266905 0)
(1.00946 0.000321904 0)
(1.00972 0.000365791 0)
(1.00951 0.000441333 0)
(1.00983 0.000507929 0)
(1.00961 0.000615196 0)
(1.01002 0.000707382 0)
(1.0098 0.000846858 0)
(1.01028 0.000968533 0)
(1.01005 0.00115897 0)
(1.01064 0.00133395 0)
(1.01045 0.0015972 0)
(1.01124 0.00183029 0)
(1.01113 0.00216746 0)
(1.00931 4.77503e-05 0)
(1.00919 5.59047e-05 0)
(1.00934 6.01344e-05 0)
(1.00921 6.71889e-05 0)
(1.00938 7.13459e-05 0)
(1.00924 8.11156e-05 0)
(1.00944 8.86315e-05 0)
(1.00928 0.000103154 0)
(1.00952 0.000113933 0)
(1.00935 0.000132756 0)
(1.00964 0.000148142 0)
(1.00945 0.00017541 0)
(1.0098 0.00020075 0)
(1.00961 0.000239933 0)
(1.01004 0.000275412 0)
(1.00985 0.00032554 0)
(1.01037 0.000370696 0)
(1.01018 0.000437207 0)
(1.01083 0.000498048 0)
(1.01069 0.00058748 0)
(1.01152 0.000664184 0)
(1.01145 0.000777418 0)
(1.19609 -0.110304 -5.19246e-20)
(1.19546 -0.129136 -1.66555e-21)
(1.16307 -0.198386 -7.13676e-20)
(1.17818 -0.209321 3.72021e-20)
(1.14882 -0.288227 -3.1728e-20)
(1.16073 -0.106501 1.53604e-20)
(1.17045 -0.106395 -3.77215e-20)
(1.13552 -0.18296 3.40391e-20)
(1.13805 -0.18787 1.83402e-20)
(1.12717 -0.251454 2.36784e-20)
(1.14233 -0.103611 -6.86547e-21)
(1.15338 -0.0901738 9.00452e-21)
(1.12671 -0.161766 1.15663e-20)
(1.12362 -0.158263 -2.09283e-20)
(1.10788 -0.219909 -1.67081e-20)
(1.12424 -0.0934992 -1.3668e-21)
(1.13842 -0.072624 1.03437e-21)
(1.12 -0.132612 -5.66067e-21)
(1.11606 -0.132675 2.51724e-20)
(1.10051 -0.182381 2.26543e-20)
(1.11725 -0.0658666 -1.54044e-21)
(1.10341 -0.112314 -6.73444e-21)
(1.104 -0.112666 -3.52863e-21)
(1.08976 -0.156471 -1.15029e-20)
(1.09102 -0.0601155 4.2559e-21)
(1.08404 -0.0956737 5.70022e-21)
(1.08469 -0.0945947 -2.83638e-21)
(1.08011 -0.130428 4.58474e-21)
(1.06853 -0.0549299 -5.19128e-22)
(1.06755 -0.0812843 -5.64733e-22)
(1.06637 -0.0767659 6.68478e-22)
(1.06637 -0.107778 -1.85945e-21)
(1.05958 -0.046505 2.23904e-21)
(1.05392 -0.0697055 -1.87599e-21)
(1.05338 -0.0642536 -1.92027e-22)
(1.05177 -0.0869895 -4.16494e-22)
(1.05339 -0.0396946 -5.13285e-22)
(1.04664 -0.0564134 2.26902e-21)
(1.04505 -0.0561911 -3.18558e-21)
(1.04096 -0.0705628 3.70547e-21)
(1.04728 -0.0320127 -7.23226e-21)
(1.03933 -0.0469404 2.03588e-21)
(1.04198 -0.0441225 4.21002e-22)
(1.03394 -0.0590542 -4.22987e-21)
(1.04327 -0.0244656 4.83873e-21)
(1.03251 -0.0376233 -5.33283e-21)
(1.03656 -0.0361856 7.45369e-21)
(1.03184 -0.0448359 6.3939e-21)
(1.03583 -0.0205629 8.07417e-21)
(1.03029 -0.0280357 -2.11474e-21)