/*--------------------------------*- C++ -*----------------------------------*\
| =========                 |                                                 |
| \\      /  F ield         | OpenFOAM: The Open Source CFD Toolbox           |
|  \\    /   O peration     | Version:                                        |
|   \\  /    A nd           | Website:  www.openfoam.com                      |
|    \\/     M anipulation  |                                                 |
\*---------------------------------------------------------------------------*/
FoamFile
{
    version     2.0;
    format      ascii;
    class       surfaceScalarField;
    location    "163";
    object      phi;
}
// * * * * * * * * * * * * * * * * * * * * * * * * * * * * * * * * * * * * * //

dimensions      [0 3 -1 0 0 0 0];
oriented        oriented;


internalField   nonuniform List<scalar> 
2227
(
0.00273708
0.0481326
-0.0511678
0.00574832
0.0478627
-0.0508739
0.00873206
0.0473065
-0.0502903
0.0116752
0.0464108
-0.0493539
0.014538
0.0452452
-0.048108
-0.0464275
0.00263805
0.0451964
0.00555288
0.0449478
0.00844903
0.0444104
0.0113047
0.00256048
0.00541024
-0.000407472
0.0538626
-0.00116931
0.0537948
-0.00182355
0.0536872
-0.00233109
0.0535405
-0.00265455
0.0533565
-0.00276048
0.0531389
-0.00261914
0.0528917
-0.00220059
0.0526145
-0.00146861
0.052301
0.051974
-0.000409571
0.000582666
0.053728
0.00072088
0.0536566
0.000869131
0.053539
0.00103185
0.0533778
0.00121004
0.0531783
0.00140742
0.0529416
0.00161915
0.0526799
0.00183011
0.0524035
0.00201107
0.0521201
0.0517967
0.00218836
-0.00279047
0.0546318
-0.00376083
0.054627
-0.00476043
0.0545386
-0.00575408
0.0543715
-0.00669703
0.0541212
-0.00755013
0.0537947
-0.0082537
0.0533835
-0.00874852
0.0528983
-0.0089582
0.0523297
0.0517266
-0.00888811
-0.00157379
0.0545074
-0.00141449
0.0544677
-0.00119706
0.0543212
-0.000891013
0.0540654
-0.000473679
0.0537039
8.96877e-05
0.0532313
0.000818395
0.0526548
0.00175466
0.051962
0.00292693
0.0511575
0.0502637
0.00438982
-0.00103085
0.0552025
-0.00167731
0.0551142
-0.00224501
0.0548889
-0.00270612
0.0545265
-0.00302499
0.0540228
-0.00317523
0.0533815
-0.00311598
0.0525955
-0.00283414
0.0516802
-0.00230298
0.0506263
0.0495049
-0.00154419
-0.000893076
0.0551012
-0.000773272
0.0549943
-0.000613168
0.0547287
-0.000386601
0.0543
-7.65217e-05
0.0537127
0.000338726
0.0529663
0.000856353
0.0520779
0.00149686
0.0510397
0.00225889
0.0498643
0.0486548
0.00310901
-0.00052829
0.0556277
-0.000954439
0.0554205
-0.00126057
0.0550349
-0.00143638
0.0544758
-0.00146628
0.0537426
-0.00135309
0.0528531
-0.00108354
0.0518083
-0.000679689
0.0506359
-0.000124502
0.0493091
0.0479065
0.000623788
0.000749551
0.0555667
0.000793996
0.0553761
0.000828223
0.0550006
0.000864386
0.0544396
0.000898676
0.0537083
0.000948652
0.0528031
0.00100037
0.0517566
0.00106446
0.0505718
0.00110598
0.0492676
0.0478834
0.00112909
-0.00108572
0.0560191
-0.00152564
0.055816
-0.00192372
0.0553987
-0.00226604
0.0547819
-0.00252306
0.0539653
-0.00270563
0.0529857
-0.00276565
0.0518167
-0.00271044
0.0505166
-0.00247526
0.0490324
0.0474599
-0.0020518
-6.50974e-05
0.0559473
3.82532e-05
0.0557126
0.000160867
0.0552761
0.00030972
0.0546331
0.000457695
0.0538173
0.000628159
0.0528152
0.000761248
0.0516836
0.000906866
0.0503709
0.00105473
0.0488845
0.0472898
0.00122481
-0.000560445
0.0562898
-0.000972946
0.0561251
-0.0014304
0.0557336
-0.00192406
0.0551268
-0.00239823
0.0542915
-0.00284362
0.0532606
-0.00314855
0.0519885
-0.0033147
0.0505371
-0.00321034
0.0487802
0.0468566
-0.00277706
-0.000997985
0.0562095
-0.000911305
0.0560384
-0.000794186
0.0556164
-0.000613147
0.0549457
-0.000353084
0.0540314
3.46182e-05
0.0528729
0.000523172
0.0514999
0.00113697
0.0499233
0.00171699
0.0482001
0.046229
0.00234451
-0.00107556
0.0564331
-0.00129057
0.0562535
-0.00149447
0.0558203
-0.00170496
0.0551562
-0.00191919
0.0542457
-0.00219016
0.0531439
-0.00247183
0.0517816
-0.00276857
0.05022
-0.00295125
0.0483828
0.0464132
-0.00313541
-0.000792312
0.0563824
-0.000768072
0.0562292
-0.000756769
0.055809
-0.000721169
0.0551206
-0.000642931
0.0541674
-0.000415208
0.0529162
-5.92239e-05
0.0514256
0.000567669
0.0495931
0.00145446
0.047496
0.0451382
0.00272949
-0.00101735
0.0564973
-0.00112227
0.0563341
-0.001191
0.0558778
-0.00121283
0.0551424
-0.00114384
0.0540984
-0.00101232
0.0527846
-0.000741904
0.0511552
-0.000449155
0.0493004
-0.000120292
0.0471672
0.0448021
0.000215785
-0.000731074
0.0563622
-0.000580092
0.0561831
-0.00040002
0.0556977
-0.000179361
0.0549218
7.10148e-05
0.0538481
0.000369499
0.0524862
0.000666461
0.0508583
0.00112114
0.0488457
0.00174524
0.0465431
0.043943
0.00260429
-0.000754281
0.0563776
-0.000750216
0.0561791
-0.000731414
0.0556789
-0.000664337
0.0548547
-0.00053985
0.0537236
-0.000324858
0.0522712
0.000103184
0.0504302
0.000585633
0.0483633
0.00122421
0.0459045
0.0432243
0.00194291
-0.000406844
0.0561881
-0.000202255
0.0559745
4.60868e-05
0.0554306
0.000319011
0.0545818
0.000659278
0.0533833
0.00107726
0.0518532
0.00147389
0.0500336
0.0019754
0.0478618
0.00237686
0.045503
0.0428621
0.00273912
-0.000452813
0.056093
-0.00033953
0.0558612
-0.000198614
0.0552896
-1.46106e-05
0.0543978
0.00018715
0.0531815
0.000424345
0.051616
0.000702072
0.0497559
0.000980143
0.0475837
0.00140584
0.0450773
0.0424129
0.00185503
-0.000202052
0.0558385
7.85123e-05
0.0555806
0.000372423
0.0549957
0.00068517
0.054085
0.00103046
0.0528363
0.00141006
0.0512364
0.00183723
0.0493287
0.002321
0.0470999
0.00269622
0.0447021
0.0419032
0.00320591
-0.000226153
0.05565
-1.89523e-05
0.0553734
0.000199037
0.0547777
0.000429036
0.053855
0.000673331
0.052592
0.000934019
0.0509757
0.00119552
0.0490672
0.00151624
0.0467792
0.00189647
0.0443219
0.0415123
0.00228737
-1.28312e-05
0.0553139
0.000327274
0.0550333
0.000678372
0.0544266
0.0010416
0.0534918
0.00141782
0.0522158
0.00183777
0.0505557
0.00227066
0.0486343
0.0027184
0.0463315
0.00314979
0.0438905
0.0410307
0.00363138
-4.16093e-05
0.0550241
0.000258785
0.0547329
0.000553701
0.0541317
0.000849965
0.0531955
0.00114411
0.0519216
0.0014403
0.0502596
0.00173756
0.048337
0.0020723
0.0459967
0.00241614
0.0435466
0.0405757
0.00287115
0.000117852
0.0545948
0.000547858
0.0543029
0.000971336
0.0537083
0.00140002
0.0527668
0.00183583
0.0514858
0.00229414
0.0498012
0.00274759
0.0478836
0.00325093
0.0454934
0.00377096
0.0430266
0.0400559
0.00429075
9.48629e-05
0.0541872
0.000495225
0.0539026
0.00088662
0.0533169
0.00126977
0.0523837
0.00164577
0.0511098
0.00202925
0.0494178
0.00239502
0.0475178
0.00275949
0.0451289
0.00313277
0.0426533
0.0396527
0.00353594
0.00021299
0.0536616
0.00074208
0.0533735
0.0012598
0.0527991
0.00177953
0.051864
0.00229206
0.0505973
0.00282241
0.0488874
0.00335249
0.0469877
0.0039021
0.0445793
0.00444315
0.0421123
0.0390875
0.00500838
0.000199382
0.0531436
0.000709806
0.0528631
0.00120545
0.0523035
0.00169843
0.051371
0.00217933
0.0501164
0.00265803
0.0484087
0.00311873
0.046527
0.00356654
0.0441315
0.00400506
0.0416738
0.0387397
0.00435286
0.000297227
0.0525179
0.000930018
0.0522303
0.00155443
0.0516791
0.00218469
0.0507407
0.00280878
0.0494923
0.00343936
0.0477781
0.0040681
0.0458983
0.00469356
0.043506
0.00530558
0.0410617
0.00583035
0.000284609
0.051895
0.000907613
0.0516073
0.00153417
0.0510525
0.0021564
0.0501185
0.00276925
0.0488794
0.00336454
0.0471829
0.003944
0.0453188
0.00450714
0.000372089
0.00110544
0.00186769
0.00263226
0.0034037
0.00415901
-8.68229e-05
0.0475058
0.000209558
0.0508516
0.000336652
0.0545707
0.000259043
0.0585716
2.63453e-05
0.0627864
-0.000290787
0.0672122
-0.000587812
0.0718348
-0.000763909
0.0766788
-0.000763751
0.081812
-0.000593095
0.0873195
-0.000278204
0.0932474
9.60473e-05
0.0996815
0.000479047
0.106617
0.000784045
0.114121
0.000916954
0.122235
0.000890228
0.130887
0.000752871
0.140079
0.000584757
0.149823
0.000428464
0.160197
0.000309961
0.171267
0.000228412
0.183108
0.000177938
0.195779
0.000146973
0.209344
0.0001262
0.223861
0.0001098
0.239392
9.32664e-05
0.256005
7.59431e-05
0.273772
6.45267e-05
0.292765
3.44622e-05
0.313102
0.334835
0.0015652
0.048129
0.000940433
0.0514764
0.000594678
0.0549165
0.000635694
0.0585306
0.000932081
0.06249
0.00128423
0.06686
0.00156222
0.0715568
0.00176815
0.0764728
0.00198494
0.0815952
0.00222123
0.0870832
0.00235152
0.0931171
0.00223511
0.0997979
0.00181045
0.107042
0.00122816
0.114703
0.000687016
0.122776
0.000301311
0.131273
0.000113801
0.140267
7.86833e-05
0.149858
0.000116577
0.160159
0.000170213
0.171213
0.000210006
0.183068
0.000229679
0.19576
0.000232549
0.209341
0.000222994
0.22387
0.000203951
0.239411
0.000184935
0.256024
0.000164872
0.273792
0.000140948
0.292789
6.67287e-05
0.313176
0.334901
-0.0092391
0.04848
-0.00922093
0.0514582
-0.00876627
0.0544618
-0.00796933
0.0577337
-0.00686995
0.0613906
-0.0054897
0.0654798
-0.00406922
0.0701363
-0.00300382
0.0754074
-0.00265465
0.0812461
-0.00294276
0.0873713
-0.00360507
0.0937794
-0.00423291
0.100426
-0.00461018
0.107419
-0.00463623
0.114729
-0.0042317
0.122371
-0.00353233
0.130573
-0.00271751
0.139452
-0.00197765
0.149118
-0.0013623
0.159544
-0.000897653
0.170748
-0.000561227
0.182732
-0.000332492
0.195531
-0.000177096
0.209186
-7.4708e-05
0.223768
-7.49824e-06
0.239343
3.41766e-05
0.255982
6.58222e-05
0.27376
9.18777e-05
0.292763
5.13522e-05
0.313217
0.334953
0.00506606
0.0478038
0.00544072
0.0510836
0.00530546
0.0545971
0.00460445
0.0584347
0.00346619
0.0625289
0.00213755
0.0668084
0.000932313
0.0713416
4.387e-05
0.0762959
-0.000490828
0.0817808
-0.000816429
0.0876969
-0.000923122
0.0938861
-0.000772967
0.100276
-0.000330944
0.106977
0.000236102
0.114162
0.000694199
0.121913
0.000936415
0.130331
0.000945062
0.139444
0.000810649
0.149252
0.00063495
0.15972
0.000493072
0.17089
0.000401283
0.182824
0.000345559
0.195587
0.000310675
0.209221
0.000281807
0.223797
0.00025898
0.239366
0.000235262
0.256006
0.000213382
0.273782
0.000189226
0.292788
9.50449e-05
0.313311
0.335048
-0.00135107
0.0476106
-0.00108399
0.0508165
-0.000760833
0.0542739
-0.000418639
0.0580925
-0.000160912
0.0622711
-5.49361e-05
0.0667025
-7.70938e-05
0.0713637
-0.000114425
0.0763332
-1.6798e-05
0.0816831
0.000282024
0.0873981
0.000707114
0.093461
0.00109728
0.0998854
0.00137767
0.106696
0.00153298
0.114007
0.00151926
0.121927
0.00137178
0.130478
0.00115282
0.139663
0.00094415
0.149461
0.000765582
0.159898
0.000630164
0.171026
0.000531671
0.182922
0.000469905
0.195649
0.000427742
0.209263
0.000396623
0.223828
0.000364306
0.239398
0.000325286
0.256045
0.000279918
0.273828
0.000235651
0.292832
0.000124937
0.313422
0.335173
0.00319421
0.0475254
0.00315036
0.0508603
0.00297113
0.0544532
0.00261684
0.0584468
0.00215417
0.0627338
0.00168553
0.0671711
0.00128286
0.0717664
0.00100415
0.0766119
0.000862399
0.0818249
0.00082093
0.0874396
0.000867825
0.0934141
0.000989571
0.0997637
0.00110564
0.10658
0.0011697
0.113943
0.00119253
0.121904
0.00118969
0.130481
0.00117285
0.139679
0.00113321
0.149501
0.00107214
0.159959
0.000999839
0.171098
0.000925351
0.182997
0.00085171
0.195722
0.000774967
0.20934
0.000696136
0.223907
0.000612596
0.239482
0.000527324
0.25613
0.000431431
0.273924
0.000326626
0.292937
0.000168527
0.31358
0.335341
0.000968897
0.0471803
0.00133714
0.0504921
0.00161498
0.0541753
0.00181873
0.058243
0.00193246
0.0626201
0.0018895
0.0672141
0.00170656
0.0719493
0.00148567
0.0768328
0.00142973
0.0818808
0.00162308
0.0872462
0.00201662
0.0930205
0.00242802
0.0993523
0.00275084
0.106258
0.00288728
0.113806
0.00276953
0.122022
0.00248385
0.130767
0.0021341
0.140029
0.00182082
0.149814
0.00156572
0.160214
0.00136582
0.171298
0.00120704
0.183155
0.00107808
0.195851
0.000962496
0.209455
0.000852613
0.224017
0.00074199
0.239593
0.000625291
0.256247
0.000498703
0.27405
0.000367658
0.293068
0.000192528
0.313755
0.335534
0.000668395
0.047641
0.000136323
0.0510242
-0.000222999
0.0545347
-0.000283197
0.0583032
-8.14355e-05
0.0624183
0.000316128
0.0668165
0.000816416
0.071449
0.00135107
0.0762982
0.00181054
0.0814214
0.00215844
0.0868983
0.00232768
0.0928513
0.00229746
0.0993825
0.0020784
0.106477
0.0017838
0.114101
0.0015371
0.122268
0.00136798
0.130936
0.00129469
0.140102
0.00129026
0.149818
0.00130823
0.160196
0.00130264
0.171304
0.00125706
0.183201
0.00117811
0.19593
0.00107721
0.209556
0.000965023
0.224129
0.000840749
0.239717
0.000708373
0.256379
0.000564756
0.274194
0.000406185
0.293226
0.000209099
0.313952
0.335743
-0.00200516
0.0475944
-0.00169454
0.0507135
-0.00121152
0.0540516
-0.000722024
0.0578137
-0.000274402
0.0619707
0.00011854
0.0664236
0.000415559
0.071152
0.000592112
0.0761216
0.000669632
0.0813438
0.000655794
0.0869122
0.000585335
0.0929218
0.00050489
0.0994629
0.000455628
0.106526
0.000457981
0.114099
0.000536633
0.12219
0.0006741
0.130799
0.000827616
0.139949
0.000965045
0.149681
0.00106372
0.160098
0.00111567
0.171252
0.00112162
0.183195
0.00108224
0.195969
0.00100793
0.20963
0.000908379
0.224228
0.000793023
0.239832
0.000665055
0.256507
0.000527822
0.274331
0.000381007
0.293373
0.000198765
0.314134
0.335942
0.00108447
0.0477347
0.000906942
0.0508911
0.00072596
0.0542326
0.00054228
0.0579974
0.000396746
0.0621162
0.000355965
0.0664643
0.000521347
0.0709866
0.000852166
0.0757908
0.00126276
0.0809332
0.00164988
0.0865251
0.00188774
0.0926839
0.00192646
0.0994242
0.00177766
0.106675
0.00154566
0.114331
0.00132857
0.122407
0.00118883
0.130938
0.00114513
0.139993
0.00116666
0.149659
0.00120191
0.160063
0.0012185
0.171235
0.00120147
0.183212
0.00114944
0.196021
0.00106841
0.209711
0.000962085
0.224335
0.000836196
0.239958
0.000696851
0.256647
0.000548908
0.274479
0.000390079
0.293532
0.000199382
0.314325
0.336141
-0.00266286
0.0476205
-0.00238358
0.0506118
-0.00200588
0.0538549
-0.00138797
0.0573795
-0.000533445
0.0612617
0.000308219
0.0656227
0.000810903
0.070484
0.000875143
0.0757266
0.000580181
0.0812282
0.000136298
0.0869689
-0.000247098
0.0930673
-0.000422245
0.0995994
-0.000402313
0.106655
-0.000241785
0.11417
2.16444e-05
0.122143
0.000306091
0.130654
0.000565466
0.139733
0.000764489
0.14946
0.000911179
0.159916
0.000994324
0.171152
0.00101745
0.183189
0.000989506
0.196049
0.000928003
0.209773
0.000841562
0.224421
0.000739044
0.240061
0.000621
0.256765
0.00049145
0.274609
0.000354443
0.293669
0.00018308
0.314496
0.336324
0.00240077
0.0475643
0.00195105
0.0510615
0.00140211
0.0544039
0.00104851
0.0577331
0.000983658
0.0613265
0.00127053
0.0653358
0.00183334
0.0699211
0.00237572
0.0751842
0.00262141
0.0809825
0.00246293
0.0871274
0.00205567
0.0934746
0.00159328
0.100062
0.00128509
0.106963
0.0011772
0.114278
0.00122159
0.122099
0.00132565
0.13055
0.00140086
0.139658
0.00141508
0.149446
0.00137786
0.159953
0.00131063
0.171219
0.00123076
0.183269
0.00113664
0.196144
0.00102656
0.209883
0.000902817
0.224545
0.000771028
0.240192
0.000634639
0.256901
0.000496738
0.274746
0.000354567
0.293811
0.000179578
0.314671
0.336504
-0.00356426
0.0479931
-0.00331789
0.0508151
-0.00272211
0.0538081
-0.00223695
0.0572479
-0.00201454
0.0611041
-0.00193698
0.0652582
-0.00175724
0.0697414
-0.00124266
0.0746696
-0.000484877
0.0802247
0.000266225
0.0863763
0.000758132
0.0929827
0.000944051
0.0998758
0.000904395
0.107003
0.000783352
0.114399
0.000729539
0.122153
0.000780987
0.130498
0.000904559
0.139534
0.00102763
0.149323
0.00110371
0.159877
0.001117
0.171206
0.00108246
0.183303
0.00101618
0.19621
0.000931194
0.209968
0.000829837
0.224646
0.00071486
0.240307
0.000589527
0.257026
0.000459814
0.274876
0.000330875
0.29394
0.000167903
0.314834
0.336671
0.00351705
0.0472055
0.00392051
0.0504117
0.00402187
0.0537067
0.00382992
0.0574399
0.00335734
0.0615767
0.00268511
0.0659305
0.00190719
0.0705193
0.0011469
0.0754299
0.000602177
0.0807695
0.000399894
0.0865786
0.000553101
0.0928294
0.000967795
0.0994611
0.00143492
0.106535
0.00179486
0.114039
0.00196172
0.121986
0.00197344
0.130487
0.00187775
0.13963
0.00173106
0.14947
0.00157491
0.160033
0.00142906
0.171352
0.00129107
0.183441
0.00115601
0.196345
0.00101997
0.210104
0.000882949
0.224783
0.000745281
0.240445
0.00060726
0.257164
0.000470206
0.275013
0.000334846
0.294075
0.000167134
0.315002
0.336839
8.11912e-05
0.0473401
0.000195392
0.0502975
0.000544824
0.0533573
0.00104628
0.0569384
0.00152346
0.0610995
0.00188151
0.0655724
0.0021165
0.0702843
0.00220436
0.075342
0.00213653
0.0808373
0.00196231
0.0867528
0.00177124
0.0930205
0.00164061
0.0995918
0.00162614
0.10655
0.00169819
0.113967
0.00177968
0.121904
0.00181296
0.130453
0.00178126
0.139662
0.00168562
0.149565
0.00154917
0.16017
0.00139888
0.171502
0.0012541
0.183586
0.00111899
0.19648
0.00098757
0.210235
0.000855873
0.224915
0.00072164
0.240579
0.000585771
0.2573
0.000450463
0.275149
0.000321169
0.294205
0.000160965
0.315162
0.337
0.00329915
0.0466453
0.00375892
0.0498377
0.00378807
0.0533281
0.00348188
0.0572446
0.00308724
0.0614942
0.00268125
0.0659784
0.00229693
0.0706686
0.00201569
0.0756233
0.00187677
0.0809762
0.00187195
0.0867576
0.00196325
0.0929292
0.00208918
0.0994658
0.00220983
0.106429
0.00228993
0.113887
0.0023016
0.121893
0.00224777
0.130507
0.00213189
0.139778
0.00197456
0.149723
0.00178688
0.160357
0.00158795
0.171701
0.0013946
0.183779
0.00121467
0.19666
0.00104828
0.210402
0.000892031
0.225071
0.000742589
0.240729
0.000597488
0.257445
0.000456175
0.27529
0.00032173
0.294339
0.000159392
0.315325
0.337159
0.00206447
0.0465237
0.00219528
0.0497069
0.00249328
0.0530301
0.00294106
0.0567969
0.0033579
0.0610773
0.00359298
0.0657433
0.00360191
0.0706597
0.0033953
0.0758299
0.00308593
0.0812856
0.00281624
0.0870273
0.00266472
0.0930807
0.00262821
0.0995023
0.00265271
0.106405
0.00265805
0.113882
0.00257239
0.121978
0.00240158
0.130678
0.00218586
0.139993
0.00196761
0.149941
0.00175381
0.160571
0.00155433
0.1719
0.0013681
0.183966
0.00119532
0.196833
0.00103236
0.210565
0.000877648
0.225226
0.000728436
0.240878
0.000582082
0.257592
0.00043993
0.275432
0.000306118
0.294473
0.000153368
0.315477
0.337312
0.00303121
0.0462316
0.00303474
0.0497034
0.00273368
0.0533312
0.00237006
0.0571605
0.00223278
0.0612146
0.00237884
0.0655973
0.00266386
0.0703747
0.00292439
0.0755694
0.00307183
0.0811381
0.00308043
0.0870187
0.00299895
0.0931622
0.00288576
0.0996155
0.00279748
0.106493
0.00272086
0.113958
0.00261569
0.122084
0.00245073
0.130843
0.00224104
0.140203
0.00201358
0.150168
0.00179225
0.160792
0.00158648
0.172106
0.0013929
0.184159
0.00121276
0.197013
0.0010435
0.210734
0.000884156
0.225385
0.000732011
0.24103
0.000583922
0.25774
0.000439106
0.275577
0.000300819
0.294611
0.000149959
0.315628
0.337462
0.00191894
0.0461677
0.00236669
0.0492556
0.00296218
0.0527357
0.00334233
0.0567803
0.00339064
0.0611663
0.00323089
0.065757
0.00302843
0.0705772
0.0028865
0.0757113
0.0028529
0.0811717
0.00290219
0.0869694
0.00298365
0.0930808
0.00303582
0.0995633
0.00302763
0.106501
0.00295825
0.114028
0.00281634
0.122226
0.00260635
0.131053
0.00234408
0.140465
0.00206599
0.150447
0.00180297
0.161055
0.00157089
0.172338
0.00136701
0.184363
0.0011851
0.197195
0.00101611
0.210903
0.000858563
0.225543
0.000708692
0.24118
0.000564463
0.257884
0.000419682
0.275722
0.000283965
0.294747
0.000143543
0.315769
0.337606
0.00326446
0.0461092
0.0029092
0.0496109
0.00256632
0.0530786
0.00248521
0.0568614
0.00257693
0.0610746
0.00273583
0.0655981
0.00291155
0.0704014
0.00307751
0.0755453
0.00318108
0.0810682
0.00321609
0.0869344
0.00318222
0.0931146
0.00308172
0.0996638
0.00292352
0.106659
0.00273838
0.114213
0.00254496
0.122419
0.00234544
0.131252
0.00214737
0.140663
0.00194094
0.150653
0.00173363
0.161263
0.00153149
0.17254
0.00134057
0.184554
0.00116271
0.197373
0.000997732
0.211068
0.000843143
0.225697
0.000695773
0.241327
0.000554215
0.258026
0.000413688
0.275862
0.000272672
0.294888
0.00013946
0.315902
0.337745
0.00259314
0.0458034
0.00317685
0.0490272
0.00359134
0.0526641
0.00372633
0.0567264
0.00359531
0.0612056
0.00327348
0.06592
0.00291851
0.0707564
0.00270759
0.0757563
0.00270136
0.0810744
0.0028185
0.0868173
0.00296322
0.0929699
0.00303721
0.0995899
0.00300725
0.106689
0.00287915
0.114341
0.00267276
0.122625
0.00242526
0.1315
0.00216317
0.140926
0.0019167
0.150899
0.00169173
0.161488
0.00148657
0.172746
0.00129731
0.184743
0.00112146
0.197548
0.000957817
0.211232
0.000805322
0.22585
0.000662042
0.241471
0.000524807
0.258163
0.000389507
0.275997
0.000251503
0.295026
0.000130518
0.316023
0.337876
0.00357767
0.0458571
0.00327506
0.0493298
0.00312865
0.0528105
0.00316626
0.0566888
0.00328983
0.061082
0.00337183
0.065838
0.00333627
0.070792
0.00322328
0.0758693
0.00310445
0.0811932
0.00303885
0.0868829
0.00299471
0.093014
0.00292376
0.0996608
0.00278645
0.106827
0.00259046
0.114537
0.00236752
0.122848
0.00214074
0.131727
0.00192871
0.141138
0.00173524
0.151093
0.00155886
0.161664
0.0013924
0.172912
0.00123053
0.184905
0.00107277
0.197706
0.000921725
0.211383
0.000777316
0.225994
0.000639447
0.241609
0.000506899
0.258295
0.000375072
0.276129
0.000236101
0.295165
0.00012296
0.316136
0.337999
0.00313199
0.0455963
0.00358179
0.04888
0.00388585
0.0525064
0.00397536
0.0565993
0.00389702
0.0611604
0.00369437
0.0660406
0.00344439
0.0710419
0.00320878
0.0761049
0.00302749
0.0813745
0.0029244
0.086986
0.00287032
0.0930681
0.0028146
0.0997165
0.00272377
0.106918
0.00257462
0.114686
0.00237357
0.123049
0.00214423
0.131956
0.00190587
0.141376
0.00168473
0.151314
0.00149099
0.161858
0.00132033
0.173083
0.00116183
0.185064
0.00101095
0.197857
0.000866132
0.211528
0.000728399
0.226132
0.000597921
0.241739
0.000472543
0.258421
0.000347204
0.276255
0.000213269
0.295299
0.000112582
0.316237
0.338111
0.00417757
0.0457095
0.00382316
0.0492344
0.00356463
0.052765
0.00347583
0.0566881
0.00347076
0.0611654
0.00348101
0.0660304
0.00344055
0.0710824
0.00330909
0.0762363
0.0031556
0.081528
0.0030227
0.0871189
0.00289136
0.0931995
0.00274676
0.0998611
0.00255481
0.107109
0.00233408
0.114907
0.00211353
0.12327
0.00190447
0.132165
0.00171253
0.141568
0.00153764
0.151489
0.00137797
0.162017
0.00123052
0.17323
0.00109033
0.185204
0.000954258
0.197993
0.000821857
0.21166
0.000693742
0.22626
0.000569829
0.241863
0.000450617
0.25854
0.000329929
0.276375
0.000196964
0.295432
0.000104296
0.316329
0.338216
0.00375866
0.0454867
0.00417185
0.0488212
0.00440696
0.0525298
0.00436435
0.0567307
0.00416828
0.0613615
0.00394792
0.0662507
0.00371845
0.0713119
0.00345254
0.0765022
0.00317006
0.0818105
0.00291292
0.087376
0.00271114
0.0934013
0.00254582
0.100026
0.00238492
0.10727
0.00220542
0.115086
0.00201058
0.123465
0.00181709
0.132359
0.00163011
0.141755
0.00145709
0.151662
0.00130006
0.162175
0.00115619
0.173374
0.00101921
0.185341
0.000887771
0.198125
0.000761396
0.211786
0.000640722
0.226381
0.000525286
0.241978
0.000414594
0.258651
0.00030146
0.276488
0.000175035
0.295558
9.38609e-05
0.31641
0.33831
0.00488202
0.0456131
0.00439203
0.0493112
0.00399506
0.0529268
0.00382399
0.0569018
0.00374848
0.061437
0.00366803
0.0663312
0.00356389
0.071416
0.00342422
0.0766419
0.0032421
0.0819926
0.0030202
0.0875979
0.00278485
0.0936366
0.00254917
0.100262
0.00230307
0.107516
0.00206043
0.115329
0.00183714
0.123688
0.00164183
0.132554
0.00147786
0.141919
0.00133484
0.151805
0.00120354
0.162306
0.00107853
0.173499
0.000956837
0.185462
0.000836833
0.198245
0.0007198
0.211903
0.000606475
0.226494
0.00049659
0.242088
0.000391397
0.258756
0.000283665
0.276596
0.000159919
0.295682
8.58268e-05
0.316485
0.338395
0.00439424
0.0455717
0.00455789
0.0491476
0.00451167
0.052973
0.00430678
0.0571067
0.00408076
0.061663
0.00388151
0.0665304
0.00367546
0.0716221
0.00343364
0.0768837
0.00314202
0.0822842
0.00283255
0.0879074
0.00254879
0.0939204
0.00229834
0.100513
0.00207965
0.107735
0.00187653
0.115532
0.00168637
0.123878
0.00151333
0.132727
0.00136094
0.142071
0.00122781
0.151938
0.0011084
0.162425
0.000994769
0.173613
0.000881926
0.185575
0.000769954
0.198357
0.000661012
0.212012
0.000554996
0.2266
0.000453662
0.24219
0.000355834
0.258854
0.000256821
0.276695
0.000140774
0.295798
7.62628e-05
0.316549
0.338472
0.00559
0.00480054
0.00429052
0.00398007
0.00376285
0.00358969
0.00345482
0.0033243
0.00314613
0.00290883
0.00263058
0.00234107
0.00206225
0.00180949
0.001594
0.00141381
0.00126606
0.00114107
0.00103103
0.000927144
0.000825855
0.000724973
0.00062396
0.000523472
0.000426882
0.00033433
0.000240373
0.000128597
6.93333e-05
)
;

boundaryField
{
    outlet
    {
        type            calculated;
        value           nonuniform 0();
    }
    upperWall
    {
        type            symmetryPlane;
        value           nonuniform 0();
    }
    lowerWall
    {
        type            symmetryPlane;
        value           uniform 0;
    }
    inlet
    {
        type            calculated;
        value           nonuniform List<scalar> 
40
(
-0.053033
-0.053033
-0.053033
-0.053033
-0.053033
-0.053033
-0.053033
-0.053033
-0.053033
-0.053033
-0.0478286
-0.051148
-0.0546978
-0.058494
-0.0625537
-0.0668951
-0.0715378
-0.0765027
-0.0818122
-0.0874902
-0.0935622
-0.100056
-0.107
-0.114426
-0.122367
-0.13086
-0.139942
-0.149655
-0.160041
-0.171148
-0.183026
-0.195729
-0.209313
-0.22384
-0.239375
-0.255988
-0.273755
-0.292754
-0.313072
-0.3348
)
;
    }
    cylinder
    {
        type            calculated;
        value           nonuniform 0();
    }
    frontAndBack
    {
        type            empty;
        value           nonuniform 0();
    }
    procBoundary0to1
    {
        type            processor;
        value           nonuniform List<scalar> 
45
(
0.0173074
0.0436581
0.0445401
0.0435551
0.0141034
0.0424465
0.0423349
0.0420981
0.00823481
0.0415858
0.0382149
0.0429429
0.00509621
0.0404727
0.00493776
0.0458121
0.049937
0.0534831
0.0574171
0.0618802
0.0667036
0.0717569
0.0770143
0.0824624
0.0881447
0.0941986
0.100802
0.108014
0.115785
0.124094
0.132907
0.142219
0.152063
0.162535
0.173716
0.185677
0.198457
0.212113
0.226701
0.242286
0.258946
0.276789
0.29591
0.316608
0.338541
)
;
    }
    procBoundary0to4
    {
        type            processor;
        value           nonuniform List<scalar> 
33
(
0.000298093
0.000298151
0.00030107
-0.000422113
-0.000448054
0.0018867
0.00169813
0.000335722
0.000994426
1.82298e-06
-0.000688539
0.000633306
0.000136843
0.000217978
0.00107824
0.000852038
0.000843011
0.000902375
0.000866165
0.000738918
0.000596304
0.000547945
0.000456577
0.000414614
0.000348916
0.000331443
0.000311457
0.000312684
0.000312615
0.00031864
0.000328517
0.000338219
0.000355135
)
;
    }
}


// ************************************************************************* //
