/*--------------------------------*- C++ -*----------------------------------*\
| =========                 |                                                 |
| \\      /  F ield         | OpenFOAM: The Open Source CFD Toolbox           |
|  \\    /   O peration     | Version:                                        |
|   \\  /    A nd           | Website:  www.openfoam.com                      |
|    \\/     M anipulation  |                                                 |
\*---------------------------------------------------------------------------*/
FoamFile
{
    version     2.0;
    format      ascii;
    class       volVectorField;
    location    "127";
    object      U;
}
// * * * * * * * * * * * * * * * * * * * * * * * * * * * * * * * * * * * * * //

dimensions      [0 1 -1 0 0 0 0];


internalField   nonuniform List<vector> 
1153
(
(-0.0849102 0.102247 4.11569e-19)
(-0.0929247 0.044189 -5.96428e-19)
(0.375624 -0.188227 7.59569e-20)
(1.04106 -0.379109 -7.20358e-20)
(1.34699 -0.493529 -6.81657e-19)
(1.46637 -0.550039 3.98786e-19)
(1.48624 -0.569108 -1.5758e-20)
(1.45114 -0.567396 7.10864e-20)
(1.3907 -0.557026 -4.91095e-19)
(1.32552 -0.544454 3.90105e-19)
(-0.101186 0.112782 -1.62031e-19)
(-0.0928708 -0.0260587 -8.67088e-19)
(0.82991 -0.241538 6.3243e-19)
(1.29303 -0.394198 -2.72763e-19)
(1.49932 -0.471692 1.66802e-19)
(1.54519 -0.497013 1.70123e-19)
(1.51193 -0.498099 -2.18253e-19)
(1.45469 -0.490414 -5.6039e-19)
(1.398 -0.47879 -4.30601e-19)
(1.35006 -0.461417 7.12854e-19)
(1.30559 -0.442639 -3.84058e-19)
(1.25839 -0.418876 -3.98096e-21)
(-0.169103 0.0587972 -6.00398e-19)
(0.195828 -0.146601 3.25625e-19)
(1.09024 -0.277318 -1.24986e-19)
(1.46674 -0.377899 8.63541e-20)
(1.57703 -0.416893 4.2612e-19)
(1.56856 -0.42594 -6.23535e-19)
(1.52776 -0.423085 1.94214e-19)
(1.483 -0.414876 1.67436e-19)
(1.43918 -0.403762 3.51869e-19)
(1.39234 -0.392116 -8.719e-19)
(1.34448 -0.378125 3.62742e-19)
(1.31114 -0.365236 -1.74366e-19)
(1.25728 -0.343074 1.97141e-19)
(1.21999 -0.32953 -3.18783e-19)
(-0.219283 0.00439444 8.60908e-19)
(0.694108 -0.158516 4.87609e-20)
(1.32952 -0.270513 7.94297e-20)
(1.57765 -0.326126 8.7161e-21)
(1.62389 -0.348382 -2.34791e-20)
(1.59928 -0.352309 1.52285e-19)
(1.55329 -0.349133 -6.45337e-19)
(1.50072 -0.342979 3.40134e-19)
(1.4456 -0.336184 -1.35048e-21)
(1.39385 -0.328008 1.74526e-19)
(1.35241 -0.318979 -1.26539e-19)
(1.30257 -0.306639 -3.68635e-20)
(1.26838 -0.304136 -9.35444e-20)
(1.23541 -0.283773 -3.57311e-20)
(1.19169 -0.2733 7.48181e-20)
(1.15538 -0.258804 -9.38483e-20)
(1.13859 -0.237254 -5.92841e-20)
(-0.175324 -0.0662308 -3.16881e-19)
(1.01862 -0.142218 -4.59509e-20)
(1.50199 -0.219571 -2.03982e-19)
(1.6483 -0.26094 -1.19813e-19)
(1.65297 -0.275687 -4.65747e-19)
(1.60769 -0.278341 8.23566e-20)
(1.55293 -0.276655 7.96982e-19)
(1.49873 -0.273566 -3.45504e-19)
(1.44749 -0.269944 -2.12791e-19)
(1.40217 -0.263703 2.26608e-19)
(1.35828 -0.254789 -1.35172e-19)
(1.32351 -0.246609 5.00917e-19)
(1.28779 -0.227154 -7.29355e-20)
(1.24555 -0.225803 -1.58478e-19)
(1.22112 -0.21066 7.53968e-20)
(1.20127 -0.194451 -1.42405e-19)
(1.17167 -0.188134 2.40188e-20)
(1.1476 -0.166532 1.13325e-19)
(1.11941 -0.153583 5.8997e-21)
(1.09549 -0.143262 -7.62011e-20)
(-0.00971908 -0.0763394 -1.45795e-19)
(1.21881 -0.092309 7.76931e-19)
(1.60998 -0.141207 -2.77054e-19)
(1.68614 -0.185011 -2.27939e-19)
(1.65719 -0.202499 5.75837e-20)
(1.60749 -0.207213 -4.53603e-19)
(1.55997 -0.207435 3.0959e-19)
(1.51457 -0.204338 -1.70575e-19)
(1.47154 -0.199917 9.33218e-20)
(1.4287 -0.195901 5.14479e-20)
(1.38933 -0.191573 2.78736e-20)
(1.35391 -0.183572 2.7892e-19)
(1.3146 -0.182897 -4.58208e-20)
(1.28655 -0.165806 -1.59675e-19)
(1.25394 -0.161089 1.18971e-19)
(1.22388 -0.159635 4.00924e-20)
(1.20013 -0.14523 -3.735e-20)
(1.17509 -0.140268 5.96448e-22)
(1.15189 -0.133847 -1.0319e-19)
(1.12802 -0.118914 2.10107e-19)
(0.242794 0.00980485 -1.45757e-19)
(1.37446 -0.0410787 -2.68622e-19)
(1.68391 -0.0673278 1.70108e-19)
(1.70773 -0.114802 -3.76409e-19)
(1.66501 -0.132237 1.73294e-19)
(1.61279 -0.138656 2.21648e-19)
(1.5623 -0.141129 -1.13663e-19)
(1.51356 -0.142551 1.7941e-19)
(1.46635 -0.144529 -6.92964e-20)
(1.42484 -0.14409 -1.64046e-19)
(1.39008 -0.142692 -5.6144e-20)
(1.3481 -0.142431 1.53319e-19)
(1.31707 -0.136743 -3.76235e-20)
(1.28316 -0.141549 -7.93489e-20)
(1.25449 -0.134299 -1.85147e-21)
(1.22585 -0.120116 1.10962e-20)
(1.19905 -0.116892 -5.66075e-20)
(1.17517 -0.107806 1.12134e-19)
(1.15148 -0.102189 1.81525e-20)
(1.12974 -0.0943081 -4.87476e-21)
(0.632579 0.035931 -2.98778e-19)
(1.53592 -0.0258135 2.46948e-19)
(1.71498 -0.0183052 -1.50247e-20)
(1.70613 -0.0495607 2.83363e-19)
(1.65785 -0.0607908 -3.45515e-19)
(1.60526 -0.068455 5.29975e-20)
(1.55678 -0.0741944 -3.96636e-20)
(1.50879 -0.0776439 -8.42408e-20)
(1.46352 -0.0804674 -2.80592e-20)
(1.42161 -0.0835811 1.59403e-19)
(1.37922 -0.0849714 -4.24112e-20)
(1.35119 -0.0841192 1.44345e-20)
(1.31394 -0.0834265 3.74332e-20)
(1.28184 -0.0756036 -1.47582e-20)
(1.25813 -0.0765975 3.54153e-21)
(1.24245 -0.0814504 -9.69499e-20)
(1.22022 -0.0745643 -2.53894e-20)
(1.19402 -0.0697632 -1.51059e-20)
(1.17329 -0.064775 2.92527e-21)
(1.15234 -0.0555174 1.87918e-20)
(0.847675 0.0470303 9.95821e-20)
(1.61336 0.0253423 -1.10833e-19)
(1.7294 0.056827 -7.1939e-21)
(1.70839 0.0253357 1.17295e-19)
(1.65444 0.0111004 -5.86664e-21)
(1.59949 -0.000154158 3.62698e-20)
(1.55014 -0.00811614 -8.74746e-21)
(1.5049 -0.0131784 3.97248e-20)
(1.46388 -0.018043 1.05084e-19)
(1.42614 -0.0213708 1.17074e-20)
(1.39625 -0.0255741 -6.40366e-20)
(1.35424 -0.0290442 2.63745e-20)
(1.32566 -0.0335175 -4.76607e-20)
(1.30188 -0.0383367 4.48575e-20)
(1.27476 -0.0359389 -2.82302e-20)
(1.24121 -0.0303844 4.59525e-20)
(1.21546 -0.0348459 1.95449e-20)
(1.19771 -0.0376456 -1.53553e-20)
(1.17418 -0.0392711 5.75223e-21)
(1.15511 -0.0322235 -1.49875e-20)
(0.991203 0.118229 9.46119e-20)
(1.68873 0.0877919 -6.99156e-21)
(1.73253 0.120381 1.73716e-20)
(1.68939 0.0914256 6.36402e-20)
(1.6336 0.082827 -6.35449e-20)
(1.58108 0.0701409 -2.61327e-20)
(1.53349 0.0572324 1.23873e-20)
(1.48701 0.045634 9.85533e-21)
(1.44378 0.0347002 -6.63139e-21)
(1.40696 0.0243474 5.94983e-21)
(1.36975 0.0169038 -2.65521e-20)
(1.34396 0.00872667 1.6005e-20)
(1.30811 0.00461512 -1.22002e-21)
(1.27367 -0.000596631 -9.06841e-21)
(1.25105 -0.00762242 1.03112e-20)
(1.23711 -0.0135002 -5.12509e-21)
(1.21393 -0.0106747 -4.70413e-21)
(1.18586 -0.00885954 8.01875e-21)
(1.17158 -0.00704505 4.72212e-21)
(1.15283 -0.00344539 1.1144e-21)
(0.0458592 0.692672 9.40571e-21)
(0.00624469 0.767793 -4.9334e-20)
(0.0327818 0.614611 -3.38033e-20)
(0.0216354 0.634271 8.762e-20)
(0.00139375 0.74683 8.90951e-20)
(0.0621266 0.602048 -5.71788e-20)
(0.114038 0.35322 2.55642e-20)
(0.00771222 0.533729 2.62709e-21)
(0.00273881 0.687124 2.01915e-19)
(0.0882475 0.56158 -2.61593e-19)
(0.175709 0.318575 1.57013e-19)
(0.00483351 0.39422 1.31095e-20)
(0.00617479 0.589433 -7.81816e-20)
(0.111667 0.500213 1.7361e-19)
(0.222322 0.285121 -6.53989e-20)
(0.00731926 0.23826 -2.77834e-19)
(0.00531383 0.458243 4.58343e-19)
(0.116138 0.412256 -5.87731e-19)
(0.239593 0.224897 1.34393e-19)
(0.00157138 0.102943 6.75692e-20)
(-0.0078652 0.307463 1.78515e-19)
(0.0888971 0.290821 -1.2207e-19)
(0.225436 0.137297 5.15947e-19)
(0.347797 -0.057056 -7.75584e-19)
(-0.017703 0.0311495 -4.63527e-19)
(-0.0355325 0.170684 1.31516e-19)
(0.0493536 0.157805 -4.29425e-19)
(0.163202 0.0382673 -1.5471e-19)
(0.295238 -0.147467 -2.50141e-19)
(0.630999 -0.420333 1.42301e-19)
(-0.0451312 0.0234487 -1.13157e-19)
(-0.0675585 0.0827884 -7.92856e-20)
(-0.00406428 0.0638636 -1.88167e-20)
(0.104921 -0.0672274 3.27441e-19)
(0.492128 -0.315285 5.27821e-19)
(0.975359 -0.56518 1.48588e-19)
(1.24816 -0.711162 -1.14554e-19)
(-0.0701637 0.048147 -4.79295e-19)
(-0.0845682 0.0580668 2.32092e-19)
(-0.0345435 -0.00727322 -1.04958e-19)
(0.301092 -0.215878 1.09537e-18)
(0.89224 -0.462688 -5.07778e-19)
(1.23098 -0.608778 5.98854e-19)
(1.34734 -0.677448 -9.49752e-20)
(1.35439 -0.705946 -2.55633e-19)
(-0.0896871 0.0755304 9.42848e-19)
(-0.0999966 0.0614874 -3.14561e-19)
(0.0346192 -0.0909479 5.26799e-20)
(0.735482 -0.338579 3.24572e-19)
(1.17319 -0.501871 -5.2424e-19)
(1.3572 -0.586131 1.24687e-19)
(1.4141 -0.626065 2.90569e-20)
(1.41517 -0.640429 -1.49282e-19)
(1.38556 -0.637519 8.72094e-19)
(1.13427 -0.00936649 5.11531e-22)
(1.13526 -0.0370603 2.8619e-20)
(1.12895 -0.0509302 -3.07482e-20)
(1.11392 -0.0948633 -5.336e-20)
(1.09878 -0.106742 -5.91159e-20)
(1.12148 -0.00534885 -4.1659e-21)
(1.10152 -0.0321501 -2.39557e-20)
(1.10422 -0.0417141 2.80708e-22)
(1.09034 -0.0778317 3.1868e-20)
(1.06874 -0.0859145 -7.03769e-20)
(1.11636 -0.0152699 4.65383e-21)
(1.07785 -0.0361316 2.48375e-20)
(1.08729 -0.0440869 1.53175e-20)
(1.07332 -0.069345 1.30497e-21)
(1.05272 -0.0720294 3.21192e-20)
(1.09965 -0.00903708 -1.70729e-21)
(1.06192 -0.0267328 -1.25799e-20)
(1.06987 -0.031364 -1.87405e-21)
(1.05648 -0.0563453 -5.6038e-21)
(1.04688 -0.0469534 8.11739e-21)
(1.07821 -0.00956111 -1.50507e-21)
(1.05306 -0.0291376 2.93776e-22)
(1.05515 -0.026425 6.79121e-21)
(1.04074 -0.05502 1.00482e-20)
(1.04107 -0.0340729 1.22684e-20)
(1.0187 -0.0775049 -2.68755e-20)
(1.06478 -0.00269613 2.50534e-22)
(1.04471 -0.0267394 5.56151e-22)
(1.04765 -0.0153655 -7.42482e-21)
(1.02744 -0.0492925 -9.93688e-21)
(1.03465 -0.0224543 -1.42171e-20)
(1.01061 -0.0635584 -6.85455e-21)
(1.05824 0.00263957 1.35294e-21)
(1.03666 -0.0263124 2.21942e-21)
(1.04338 -0.00863925 -1.41666e-20)
(1.02063 -0.0429207 -6.02114e-22)
(1.02855 -0.0173784 1.23536e-20)
(1.00879 -0.0494974 2.24631e-20)
(1.05437 0.00767416 -3.8444e-22)
(1.0327 -0.0223973 -3.42137e-21)
(1.04015 -0.00292312 8.84242e-21)
(1.01964 -0.0340391 9.42495e-21)
(1.02492 -0.0129272 -3.03547e-22)
(1.00936 -0.037863 -1.15431e-20)
(1.04916 0.0103407 -7.52613e-22)
(1.03247 -0.0170109 -9.79089e-22)
(1.03605 -0.000351408 -1.13037e-21)
(1.02249 -0.0246969 -9.31273e-21)
(1.02196 -0.0105374 -7.14112e-21)
(1.01249 -0.0277807 1.29776e-20)
(1.04322 0.0109047 1.14219e-21)
(1.03353 -0.0115085 3.27514e-21)
(1.03214 0.00154728 -3.66553e-21)
(1.02575 -0.0169214 3.89559e-23)
(1.02043 -0.0072223 3.83308e-21)
(1.0167 -0.019988 6.05855e-22)
(1.03694 0.0103767 -4.18174e-22)
(1.03484 -0.00655047 -1.3589e-22)
(1.02779 0.0025828 3.50894e-21)
(1.02894 -0.0103787 3.10578e-21)
(1.01899 -0.00440118 -2.90776e-21)
(1.02129 -0.0129632 -6.49954e-21)
(1.03252 0.00923781 6.47787e-23)
(1.03463 -0.00261787 8.6544e-23)
(1.0251 0.00340622 -7.87089e-22)
(1.02983 -0.00579334 -3.89426e-21)
(1.0191 -0.00146387 4.10421e-22)
(1.02334 -0.008011 -3.00248e-21)
(1.02994 0.00834677 -4.68961e-22)
(1.03319 0.000383146 -3.43471e-22)
(1.02404 0.00399958 -5.74254e-22)
(1.02899 -0.00256172 1.57704e-21)
(1.01979 0.000588855 2.11882e-22)
(1.02342 -0.00463458 5.47063e-21)
(1.02862 0.00745121 4.41101e-22)
(1.03093 0.00280162 3.88743e-22)
(1.02398 0.00440503 1.3328e-21)
(1.02704 -0.000200312 1.29979e-21)
(1.0204 0.00238722 5.05749e-22)
(1.02222 -0.00214223 -2.9598e-21)
(1.02832 0.00726775 -2.06521e-22)
(1.02801 0.00452955 1.55837e-22)
(1.02477 0.00518856 -2.30035e-22)
(1.02482 0.00173082 -9.15522e-22)
(1.02212 0.00409923 -3.03809e-22)
(1.02159 0.000108597 -1.63985e-22)
(1.0277 0.0071387 1.05564e-22)
(1.02557 0.00564544 -4.12757e-22)
(1.02497 0.00579102 -1.40105e-22)
(1.02322 0.00309983 1.1442e-21)
(1.02271 0.00511225 -3.66624e-22)
(1.02044 0.00135822 -7.3001e-22)
(1.0264 0.00723403 -3.46218e-23)
(1.02337 0.00626482 -2.36853e-23)
(1.02409 0.00626048 -4.8357e-22)
(1.02149 0.00415642 -9.6553e-23)
(1.02213 0.00577102 -2.20638e-22)
(1.01959 0.00282902 6.27881e-22)
(1.02464 0.00719537 -4.08262e-24)
(1.02188 0.00653632 1.31661e-22)
(1.02281 0.00652237 1.76465e-22)
(1.02065 0.00500553 -1.32986e-22)
(1.02164 0.00626828 6.72274e-23)
(1.01971 0.0041084 -2.22166e-22)
(1.02281 0.00716348 1.36181e-24)
(1.02074 0.00670711 -9.53704e-23)
(1.02141 0.00660549 4.87826e-23)
(1.01984 0.00557522 -1.93167e-22)
(1.02048 0.0062962 7.44888e-23)
(1.01894 0.00477433 5.13392e-23)
(1.0208 0.0069205 -1.54533e-24)
(1.01948 0.0066411 2.79702e-23)
(1.01978 0.00645182 4.31114e-23)
(1.01885 0.00581545 1.98565e-23)
(1.01921 0.00621427 -8.71071e-23)
(1.01839 0.00528031 6.63524e-23)
(1.01887 0.00658821 5.75177e-24)
(1.01812 0.00639238 -3.88578e-23)
(1.0182 0.00613818 -2.01661e-23)
(1.01782 0.00576279 -6.06554e-25)
(1.01801 0.00592756 4.0664e-23)
(1.01772 0.00538773 -6.59614e-23)
(1.01756 0.00626312 1.60938e-23)
(1.0172 0.00603751 -5.95188e-23)
(1.0171 0.00574988 -9.85817e-24)
(1.01706 0.00542383 6.14208e-23)
(1.01703 0.0054191 7.95913e-23)
(1.01702 0.00500783 -2.05263e-22)
(1.01673 0.00585992 -2.66464e-23)
(1.01666 0.00562789 2.4998e-23)
(1.01642 0.00533239 7.42051e-25)
(1.01663 0.0050419 1.9036e-22)
(1.01646 0.00493686 -1.21466e-22)
(1.01667 0.00461459 -1.72043e-22)
(1.01597 0.00521751 4.664e-23)
(1.0161 0.00500187 -9.16117e-23)
(1.01585 0.00478302 2.514e-22)
(1.01622 0.00453746 -2.81331e-22)
(1.01604 0.00443576 1.75977e-22)
(1.01638 0.00417359 -2.48679e-22)
(1.01517 0.00438479 1.5896e-23)
(1.01542 0.00422109 5.84181e-24)
(1.01517 0.00406535 -2.62423e-22)
(1.0156 0.00388765 -1.30083e-22)
(1.01541 0.00380049 1.86868e-22)
(1.0158 0.00361506 4.72605e-22)
(1.01442 0.00351313 -3.79119e-23)
(1.01472 0.00339655 5.00646e-23)
(1.0145 0.00328179 2.91036e-22)
(1.01494 0.0031691 1.77222e-22)
(1.01478 0.00309734 -2.29609e-22)
(1.01522 0.00298975 -3.26602e-23)
(1.01379 0.00276135 3.51812e-25)
(1.01412 0.00268652 -4.74834e-23)
(1.01395 0.00260952 3.75722e-23)
(1.01437 0.0025447 -1.42063e-23)
(1.01423 0.00249258 1.81582e-22)
(1.01464 0.00243099 -9.16481e-23)
(1.01332 0.001721 4.02111e-24)
(1.01367 0.00168671 -7.13423e-24)
(1.01353 0.00163774 9.09773e-23)
(1.01393 0.00160972 -3.03368e-22)
(1.01379 0.00157422 1.05628e-22)
(1.01418 0.00155003 -3.86686e-22)
(1.01303 0.00102694 -3.8114e-23)
(1.01336 0.00100964 9.22063e-23)
(1.01324 0.000983549 2.47683e-23)
(1.01361 0.000966841 5.30479e-24)
(1.01349 0.000945444 -4.17706e-23)
(1.01387 0.000930132 8.36585e-23)
(1.01285 0.000511936 8.89719e-23)
(1.01317 0.000505432 -6.98067e-23)
(1.01305 0.000496721 -1.35177e-22)
(1.0134 0.000489307 4.67689e-23)
(1.01327 0.00048073 2.78733e-22)
(1.01363 0.000472033 8.09329e-23)
(1.03702 0.158127 -2.14299e-20)
(1.03345 0.166857 2.21388e-20)
(1.02893 0.173664 2.32092e-20)
(1.02401 0.18631 1.35673e-20)
(1.02324 0.206747 2.24067e-21)
(1.0347 0.230778 1.82044e-20)
(1.04067 0.255718 -1.28703e-20)
(1.03709 0.279454 -5.18557e-20)
(1.03228 0.304135 5.65702e-20)
(1.03451 0.332671 -5.00042e-20)
(1.04108 0.367417 1.33671e-19)
(1.0483 0.407101 -8.51227e-20)
(1.05254 0.453035 2.23015e-21)
(1.05651 0.502442 -4.03749e-21)
(1.05882 0.558965 2.70266e-20)
(1.06512 0.622238 8.08919e-20)
(1.06997 0.696037 -1.03321e-19)
(1.07727 0.775612 3.73608e-19)
(1.1034 0.862716 -4.43198e-19)
(0.838437 0.849489 3.96004e-20)
(1.05006 0.156379 -9.21383e-22)
(1.0522 0.175082 4.72925e-20)
(1.05972 0.18606 -3.5621e-20)
(1.06338 0.193874 -1.78428e-20)
(1.05645 0.205208 -3.59171e-20)
(1.0526 0.222961 7.13878e-21)
(1.06381 0.246087 7.04566e-20)
(1.07416 0.272587 1.56067e-20)
(1.08125 0.302443 -4.17348e-20)
(1.08798 0.333803 -2.7283e-20)
(1.0953 0.36767 8.46642e-20)
(1.1031 0.403904 -5.74614e-20)
(1.11082 0.444279 3.27072e-20)
(1.12141 0.489922 -3.45922e-20)
(1.13423 0.543396 1.31639e-20)
(1.1515 0.604009 -1.68733e-19)
(1.16546 0.677299 1.41522e-19)
(1.18472 0.755998 1.09056e-19)
(1.23476 0.833964 -1.09388e-19)
(0.942025 0.830395 5.87259e-19)
(1.06234 0.130491 -2.99125e-20)
(1.05387 0.155903 -1.30943e-20)
(1.0585 0.172852 -2.82142e-20)
(1.07888 0.187706 1.08605e-19)
(1.09624 0.201801 4.92698e-21)
(1.10234 0.21863 -7.32381e-20)
(1.10603 0.237649 -4.45234e-20)
(1.11509 0.259414 4.18875e-20)
(1.12043 0.282827 4.61052e-20)
(1.12735 0.310667 4.61833e-20)
(1.13968 0.343069 -1.68045e-19)
(1.15762 0.379855 1.01607e-19)
(1.17487 0.421542 -3.57363e-21)
(1.19286 0.466667 5.11531e-20)
(1.21196 0.519203 -2.24383e-19)
(1.23843 0.577524 1.93087e-19)
(1.26454 0.649091 1.71004e-19)
(1.28834 0.731071 5.91366e-21)
(1.34384 0.787899 -2.61292e-20)
(1.0344 0.783552 5.0096e-20)
(1.09957 0.124489 -5.30679e-20)
(1.09972 0.142844 4.82026e-20)
(1.09413 0.159042 1.653e-20)
(1.09655 0.169935 -9.55175e-21)
(1.10841 0.184194 -5.63249e-20)
(1.11964 0.200408 9.41389e-20)
(1.13311 0.222087 -1.24708e-19)
(1.14899 0.243977 1.33013e-20)
(1.16686 0.269832 5.38595e-21)
(1.18316 0.296316 4.53409e-20)
(1.19876 0.327546 9.97889e-20)
(1.21757 0.362325 -1.70221e-20)
(1.23821 0.401047 1.10999e-19)
(1.26058 0.442414 -1.35009e-19)
(1.28418 0.489238 1.71448e-19)
(1.31517 0.541138 1.87415e-20)
(1.34903 0.603791 -2.47555e-19)
(1.38604 0.679718 -7.12498e-20)
(1.46433 0.720659 8.35552e-20)
(1.12257 0.723518 -6.25549e-19)
(1.07686 0.108836 4.64566e-20)
(1.1007 0.127321 1.21773e-20)
(1.11722 0.13952 5.26071e-20)
(1.12783 0.154237 1.38398e-20)
(1.14588 0.166643 -2.93415e-20)
(1.15941 0.183464 -2.76975e-20)
(1.16902 0.201011 -6.03323e-20)
(1.18417 0.223798 -7.30975e-20)
(1.19799 0.244465 2.26463e-19)
(1.21138 0.268451 -1.98525e-19)
(1.22972 0.293514 -4.88769e-20)
(1.25452 0.323213 -2.2678e-20)
(1.28257 0.358057 -9.21436e-20)
(1.31392 0.396629 2.92717e-19)
(1.34734 0.44072 2.67727e-20)
(1.388 0.489302 -4.1858e-19)
(1.43071 0.550501 1.25026e-19)
(1.47124 0.629059 -1.06822e-19)
(1.5456 0.645959 1.16391e-19)
(1.17551 0.644597 6.20278e-19)
(1.12639 0.0949225 -1.87655e-20)
(1.1172 0.11348 -7.45638e-20)
(1.13792 0.1234 1.4442e-20)
(1.14733 0.130019 -7.41802e-21)
(1.15545 0.143099 -4.13388e-20)
(1.17314 0.156154 2.79366e-20)
(1.18974 0.1735 -9.93646e-20)
(1.20914 0.189461 -3.06221e-20)
(1.23426 0.212049 1.30341e-19)
(1.25935 0.233072 -3.33673e-20)
(1.28087 0.259544 1.06753e-19)
(1.30765 0.288283 1.85099e-20)
(1.33779 0.320828 -5.3201e-20)
(1.371 0.355227 1.17104e-19)
(1.40627 0.393578 -1.27162e-19)
(1.45047 0.433331 2.41201e-19)
(1.50013 0.480345 -2.13875e-19)
(1.55082 0.553861 -2.04058e-19)
(1.63461 0.555948 2.29396e-19)
(1.22922 0.558125 -2.45516e-19)
(1.12627 0.0758507 -3.90486e-20)
(1.13852 0.08922 1.39998e-20)
(1.14614 0.101327 5.29862e-20)
(1.1729 0.110679 -5.92714e-20)
(1.19168 0.118742 1.16803e-20)
(1.20652 0.133056 1.02008e-20)
(1.22257 0.148232 -5.07845e-22)
(1.24374 0.16893 -5.78364e-20)
(1.26685 0.186016 1.00005e-19)
(1.28907 0.207139 -2.47582e-20)
(1.31518 0.22579 1.90168e-20)
(1.34384 0.248046 -1.66654e-20)
(1.37781 0.273631 -6.85457e-20)
(1.41585 0.302402 8.53026e-20)
(1.4563 0.334811 -5.01199e-20)
(1.5039 0.369279 1.7175e-20)
(1.55717 0.407305 -3.95017e-19)
(1.61155 0.476316 2.66737e-19)
(1.68308 0.462904 2.88482e-19)
(1.23203 0.463148 -7.28945e-20)
(1.14423 0.06513 -1.48555e-20)
(1.1553 0.0720234 5.14546e-21)
(1.17245 0.0775828 2.61307e-20)
(1.18306 0.0850138 1.42812e-21)
(1.19742 0.0956461 -1.89786e-20)
(1.21771 0.103938 2.76633e-20)
(1.23624 0.114057 -3.09853e-21)
(1.25438 0.122203 6.82771e-20)
(1.27848 0.138374 -8.11301e-21)
(1.30872 0.152777 1.33141e-20)
(1.336 0.173406 7.19801e-21)
(1.3712 0.194606 -3.05809e-20)
(1.40964 0.218693 3.55349e-20)
(1.45276 0.244242 -7.84021e-20)
(1.49831 0.273709 1.84426e-19)
(1.55152 0.303547 -1.08917e-19)
(1.60997 0.330311 2.34216e-19)
(1.66522 0.387666 -1.97213e-19)
(1.7283 0.363175 1.3378e-20)
(1.23617 0.366469 1.92486e-19)
(1.14348 0.0384594 1.92015e-20)
(1.1599 0.0458883 5.10274e-21)
(1.17142 0.0491563 -2.31077e-20)
(1.19919 0.0535011 -2.33642e-20)
(1.2222 0.0575598 3.21464e-21)
(1.23809 0.0681074 -1.17771e-20)
(1.26 0.0800775 1.07175e-20)
(1.28997 0.0950583 -5.60994e-20)
(1.32171 0.105538 1.49991e-20)
(1.34762 0.120602 -3.91909e-20)
(1.37863 0.133278 -9.04371e-21)
(1.4095 0.149462 1.62733e-20)
(1.44709 0.166999 2.93479e-20)
(1.48845 0.185747 -2.22585e-20)
(1.53244 0.206766 -8.10802e-20)
(1.5835 0.229614 -1.33177e-19)
(1.64231 0.247241 1.03125e-19)
(1.6993 0.293408 3.83189e-20)
(1.73694 0.265313 -1.11017e-20)
(1.17878 0.277381 -1.08306e-19)
(1.1564 0.022984 -1.06028e-21)
(1.17322 0.0217975 4.04868e-22)
(1.19529 0.0247062 -2.92845e-21)
(1.20703 0.0315676 -5.85153e-21)
(1.22686 0.0404073 8.80852e-21)
(1.25307 0.0442759 4.39038e-21)
(1.27484 0.0483961 -1.08287e-20)
(1.29304 0.0530123 1.28319e-20)
(1.31749 0.0634768 1.64283e-20)
(1.35414 0.0710991 -1.50794e-20)
(1.38467 0.0828762 1.5301e-21)
(1.42345 0.0945226 4.05151e-20)
(1.46498 0.108336 -1.656e-20)
(1.51182 0.122796 3.13875e-20)
(1.56159 0.140314 1.44292e-21)
(1.61785 0.159043 -1.41512e-20)
(1.67742 0.174273 7.09301e-20)
(1.72217 0.210415 1.54557e-20)
(1.72311 0.170873 -9.65787e-20)
(1.12008 0.183756 -7.16545e-20)
(0.821592 0.0449115 4.46059e-21)
(0.805212 0.0493771 3.716e-21)
(0.786911 0.0538413 -7.25097e-21)
(0.766015 0.0585746 6.57265e-21)
(0.742811 0.0636815 4.34369e-22)
(0.71659 0.0694672 -1.08983e-20)
(0.687456 0.0758149 1.7537e-20)
(0.654521 0.0828486 -1.8383e-20)
(0.618003 0.0904231 3.62073e-20)
(0.576391 0.0988495 -2.34176e-20)
(0.530074 0.107839 4.15252e-21)
(0.476663 0.11814 1.52141e-20)
(0.41711 0.129258 -1.09257e-20)
(0.347345 0.141301 -1.50543e-20)
(0.269848 0.154862 1.28497e-20)
(0.174608 0.171894 -1.81487e-20)
(0.0617394 0.162472 5.79799e-21)
(0.830382 0.0707683 -4.11895e-20)
(0.814429 0.077917 -9.82634e-21)
(0.796572 0.085504 -2.86481e-20)
(0.776214 0.0934993 -2.84709e-20)
(0.754086 0.10228 2.98905e-20)
(0.728841 0.111765 -1.65563e-20)
(0.701006 0.122487 -1.00652e-20)
(0.669299 0.134183 4.35479e-20)
(0.634165 0.147166 -5.99587e-20)
(0.593934 0.161651 1.68974e-20)
(0.549683 0.178048 7.14917e-21)
(0.497004 0.195601 -6.40549e-20)
(0.439107 0.216484 -2.61129e-20)
(0.369033 0.240374 -7.60404e-21)
(0.290642 0.265157 4.11515e-20)
(0.190804 0.298938 5.70895e-21)
(0.0753368 0.280857 3.53524e-20)
(0.843106 0.093227 -3.83214e-21)
(0.827982 0.102473 6.09429e-22)
(0.810809 0.11257 -4.73401e-21)
(0.791512 0.123446 5.51874e-21)
(0.770345 0.135191 1.00144e-19)
(0.746821 0.148488 -7.61647e-20)
(0.720306 0.162816 2.03428e-20)
(0.690319 0.179332 -2.7823e-20)
(0.657528 0.197518 -3.79491e-20)
(0.618843 0.217326 4.00086e-20)
(0.577598 0.24024 1.92023e-20)
(0.529645 0.266698 2.65179e-20)
(0.474542 0.294189 -5.10124e-21)
(0.409281 0.326523 -5.68617e-20)
(0.337328 0.363481 1.37623e-19)
(0.242719 0.416005 -1.63225e-20)
(0.116077 0.390542 -3.80913e-20)
(0.86928 0.107236 4.45838e-20)
(0.858738 0.117384 4.44375e-21)
(0.844952 0.129084 1.11087e-20)
(0.828861 0.141483 -1.64468e-20)
(0.811058 0.155082 1.85867e-20)
(0.791808 0.169371 -8.22565e-21)
(0.769883 0.185341 -5.70114e-21)
(0.746717 0.203313 -4.81816e-20)
(0.718369 0.222728 3.68715e-20)
(0.688555 0.245547 3.00725e-20)
(0.654171 0.271655 -2.00842e-20)
(0.613 0.298983 -8.63212e-20)
(0.568474 0.331899 3.50036e-20)
(0.521338 0.37114 6.73877e-20)
(0.462174 0.416193 7.48506e-20)
(0.396466 0.461578 -1.15075e-19)
(0.309295 0.523969 -4.68549e-20)
(0.16997 0.494278 -1.40061e-20)
(0.88705 0.12404 -1.59121e-20)
(0.878102 0.135699 -8.21643e-21)
(0.865447 0.149577 -5.42097e-20)
(0.850895 0.164933 8.19442e-20)
(0.834152 0.181516 5.06839e-21)
(0.817404 0.199719 3.79135e-20)
(0.79718 0.219085 1.88936e-20)
(0.776352 0.241177 -4.201e-20)
(0.753044 0.265651 1.84716e-20)
(0.724831 0.290921 5.62306e-20)
(0.695872 0.320841 1.67643e-20)
(0.664339 0.355761 -1.96934e-19)
(0.620277 0.393182 2.08556e-19)
(0.573674 0.434521 -1.18799e-19)
(0.521765 0.485649 -1.34095e-19)
(0.466981 0.542206 1.48628e-19)
(0.388636 0.622672 -1.17988e-19)
(0.235731 0.595458 7.03922e-21)
(0.909843 0.131639 3.48289e-20)
(0.906924 0.141606 -2.96818e-20)
(0.900058 0.154193 3.73358e-20)
(0.888976 0.168436 -1.76859e-20)
(0.87659 0.184368 -5.60346e-20)
(0.86177 0.201485 5.21418e-20)
(0.847334 0.220582 -1.91974e-20)
(0.831532 0.242086 -4.36546e-21)
(0.811541 0.265796 -2.20117e-20)
(0.791282 0.294945 2.03355e-20)
(0.76914 0.327899 -3.41847e-20)
(0.73899 0.362385 1.12775e-20)
(0.711498 0.400189 2.88187e-20)
(0.681283 0.445486 -1.04996e-19)
(0.645627 0.496633 1.54594e-19)
(0.597626 0.5574 -3.30459e-20)
(0.552122 0.622958 3.15587e-20)
(0.486389 0.711281 9.10188e-21)
(0.316095 0.676387 4.24435e-20)
(0.926391 0.135452 5.83926e-20)
(0.930588 0.142558 9.53437e-21)
(0.929276 0.155455 -8.34164e-20)
(0.923714 0.171478 8.02632e-20)
(0.914257 0.18985 -4.76113e-21)
(0.903356 0.209394 -2.94691e-20)
(0.891686 0.229675 -3.92315e-20)
(0.877909 0.250405 4.42908e-20)
(0.867264 0.273498 4.04103e-20)
(0.854956 0.29792 3.02017e-20)
(0.836604 0.32441 6.25493e-20)
(0.820416 0.356398 -6.64719e-20)
(0.801518 0.396034 -3.81141e-20)
(0.777081 0.440879 1.0593e-19)
(0.746312 0.490147 -4.66205e-20)
(0.715344 0.543115 -1.79868e-20)
(0.679595 0.607243 -2.26827e-20)
(0.643878 0.674948 2.42925e-20)
(0.602248 0.775052 -1.2609e-20)
(0.414694 0.750332 -3.62547e-20)
(0.946791 0.143026 3.88965e-20)
(0.954085 0.148609 -1.0678e-20)
(0.954611 0.158073 1.18876e-20)
(0.949353 0.173013 -5.7818e-20)
(0.941873 0.190693 -7.32701e-21)
(0.93288 0.211365 1.9796e-20)
(0.925794 0.235009 4.3331e-20)
(0.915379 0.259903 -3.45192e-20)
(0.901267 0.286893 -1.48048e-20)
(0.892558 0.317896 3.88267e-21)
(0.88222 0.35181 3.10309e-21)
(0.8669 0.386892 -4.19015e-20)
(0.850494 0.423894 -2.34557e-20)
(0.836121 0.466862 6.1929e-21)
(0.820131 0.519372 1.52115e-20)
(0.799134 0.579373 -2.62984e-21)
(0.770776 0.65057 1.19717e-20)
(0.744884 0.728639 7.19357e-21)
(0.710597 0.830499 2.8164e-20)
(0.506617 0.804314 -2.89721e-20)
(0.96991 0.155474 -1.71448e-20)
(0.980269 0.164379 -1.94522e-20)
(0.981894 0.178949 2.83212e-20)
(0.977225 0.194205 -1.57311e-20)
(0.969919 0.211447 -6.86217e-21)
(0.961809 0.228328 -3.45917e-22)
(0.957162 0.248382 1.64861e-21)
(0.958725 0.272369 6.53245e-21)
(0.954198 0.298303 8.84147e-21)
(0.943373 0.326148 1.66682e-20)
(0.934954 0.358854 3.96721e-21)
(0.929335 0.398319 -6.20458e-21)
(0.921765 0.444338 9.97821e-22)
(0.911368 0.494015 -1.29169e-20)
(0.898978 0.549378 1.13091e-20)
(0.886428 0.609113 -4.06363e-20)
(0.867439 0.681285 1.97493e-20)
(0.85531 0.756512 -4.8467e-20)
(0.849478 0.858634 -7.81912e-20)
(0.624124 0.838293 1.07214e-19)
(0.996238 0.143136 -1.61057e-21)
(1.00457 0.151156 -4.44289e-21)
(1.0056 0.167628 4.21309e-21)
(1.00365 0.190033 -6.60569e-21)
(1.00291 0.212823 4.74506e-21)
(0.998575 0.235263 2.89525e-22)
(0.988364 0.255772 4.3814e-21)
(0.983436 0.279063 -2.80619e-21)
(0.988079 0.307673 1.71634e-20)
(0.991905 0.340234 -2.03624e-20)
(0.988473 0.374463 -3.46257e-20)
(0.981715 0.410275 3.17869e-20)
(0.975784 0.450614 -7.8018e-20)
(0.973041 0.496738 -1.14362e-20)
(0.971346 0.55333 4.807e-20)
(0.972846 0.616114 -1.52239e-19)
(0.966045 0.691095 6.2561e-20)
(0.962131 0.772849 -9.38256e-20)
(0.970808 0.872035 2.62716e-20)
(0.724033 0.85725 -1.55882e-19)
(0.937297 0.141131 -1.143e-20)
(0.95313 0.151942 4.23459e-20)
(0.974267 0.111335 4.33929e-21)
(0.980592 0.137897 1.0951e-20)
(0.998163 0.105914 0)
(1.00492 0.162148 0)
(1.00186 0.103555 0)
(1.0164 0.130871 0)
(1.00141 0.0952485 0)
(1.0242 0.111054 0)
(1.00749 0.0854776 0)
(1.02736 0.0998404 0)
(1.01528 0.0758558 0)
(1.03297 0.0893107 0)
(1.02289 0.0670513 0)
(1.03834 0.0797334 0)
(1.02898 0.0607463 0)
(1.04116 0.0707099 0)
(1.03236 0.0559309 0)
(1.0413 0.0627186 0)
(1.03332 0.0513776 0)
(1.03912 0.0562054 0)
(1.0329 0.0475736 0)
(1.03582 0.0508405 0)
(1.03186 0.0440771 0)
(1.03286 0.0466616 0)
(1.03054 0.0408712 0)
(1.03077 0.0432006 0)
(1.0289 0.0375851 0)
(1.02928 0.0399657 0)
(1.02688 0.0338127 0)
(1.0281 0.0365699 0)
(1.02508 0.0300133 0)
(1.02704 0.0327358 0)
(1.02357 0.0262715 0)
(1.0258 0.028789 0)
(1.02223 0.0229439 0)
(1.02456 0.0248867 0)
(1.02093 0.020016 0)
(1.0231 0.021394 0)
(1.01966 0.0174535 0)
(1.02161 0.0183206 0)
(1.01846 0.0150233 0)
(1.02009 0.0155782 0)
(1.0177 0.0130709 0)
(1.01892 0.0133758 0)
(1.01698 0.0115416 0)
(1.0179 0.0117623 0)
(1.01586 0.0100807 0)
(1.0166 0.010289 0)
(1.01452 0.00853605 0)
(1.01515 0.00872212 0)
(1.01343 0.00701248 0)
(1.01393 0.00714154 0)
(1.01259 0.00561684 0)
(1.01297 0.00568904 0)
(1.01196 0.00420722 0)
(1.01226 0.00427078 0)
(1.0115 0.00243185 0)
(1.01178 0.00243286 0)
(1.01046 0.00122434 0)
(1.01095 0.00119764 0)
(1.01028 0.000526702 0)
(1.01078 0.000534424 0)
(1.04142 0.138154 1.10989e-20)
(1.05311 0.124585 -1.46187e-20)
(1.07887 0.10121 5.79397e-20)
(1.08504 0.101241 -3.94098e-21)
(1.08378 0.0807614 -2.39087e-20)
(1.13109 0.0704262 3.78886e-20)
(1.10407 0.0566997 4.22841e-20)
(1.14187 0.0428803 2.55123e-20)
(1.12647 0.0220622 -2.5833e-20)
(1.14664 0.00943133 -4.62809e-22)
(1.03786 0.114008 -9.35735e-21)
(1.04895 0.104732 -1.21766e-20)
(1.08241 0.0908083 -2.99895e-20)
(1.06215 0.0949632 5.31585e-21)
(1.09865 0.0743901 -2.09499e-20)
(1.09585 0.0707479 5.46345e-20)
(1.10474 0.0571759 -2.57597e-20)
(1.11754 0.0390766 2.82065e-22)
(1.11847 0.0282901 7.70049e-21)
(1.11349 0.00885151 4.09449e-21)
(1.03177 0.100849 1.15319e-20)
(1.05542 0.0950532 2.52097e-20)
(1.07594 0.0832909 -1.72932e-20)
(1.06421 0.0800983 2.74518e-20)
(1.10558 0.0615839 1.31194e-20)
(1.07389 0.0571062 -2.43965e-20)
(1.1222 0.0408995 -1.78766e-21)
(1.08924 0.0233828 -1.50152e-20)
(1.12467 0.016986 2.30095e-21)
(1.08548 -0.00525212 -4.52284e-21)
(1.03363 0.0875609 -1.896e-20)
(1.06146 0.0854816 -3.42142e-20)
(1.06942 0.0711674 8.98085e-21)
(1.07479 0.0698263 1.22274e-22)
(1.09326 0.054441 6.85014e-21)
(1.07136 0.0526388 -7.75034e-21)
(1.1143 0.036674 5.54086e-21)
(1.07098 0.0252556 9.56412e-22)
(1.11424 0.0183648 1.36174e-21)
(1.06705 -0.00201693 1.69656e-21)
(1.03849 0.076656 1.3982e-20)
(1.06559 0.0773323 3.24629e-21)
(1.06693 0.0625877 2.33033e-20)
(1.07964 0.064521 1.28059e-20)
(1.07967 0.047353 -4.78996e-21)
(1.0766 0.047878 -1.19883e-20)
(1.0949 0.0295242 -9.8173e-21)
(1.07014 0.0226378 -7.28655e-21)
(1.0955 0.011716 -1.25508e-22)
(1.06311 -0.00548355 1.2724e-21)
(1.04377 0.0675396 4.90371e-21)
(1.06667 0.0697603 1.15526e-20)
(1.06521 0.055466 -2.55415e-20)
(1.07746 0.0584807 -1.8372e-20)
(1.07109 0.041255 7.66148e-21)
(1.07599 0.0438657 1.51697e-20)
(1.0792 0.0258365 9.4795e-21)
(1.06957 0.0231295 7.35437e-21)
(1.07906 0.0112396 -8.53916e-23)
(1.05948 -0.0029195 -2.7793e-22)
(1.04729 0.0608823 -7.53997e-21)
(1.06407 0.0626772 -8.5787e-21)
(1.06365 0.0504727 8.32055e-21)
(1.07145 0.0525826 -1.46477e-20)
(1.06622 0.0384531 -2.32174e-20)