/*--------------------------------*- C++ -*----------------------------------*\
| =========                 |                                                 |
| \\      /  F ield         | OpenFOAM: The Open Source CFD Toolbox           |
|  \\    /   O peration     | Version:                                        |
|   \\  /    A nd           | Website:  www.openfoam.com                      |
|    \\/     M anipulation  |                                                 |
\*---------------------------------------------------------------------------*/
FoamFile
{
    version     2.0;
    format      ascii;
    class       surfaceScalarField;
    location    "140";
    object      phi;
}
// * * * * * * * * * * * * * * * * * * * * * * * * * * * * * * * * * * * * * //

dimensions      [0 3 -1 0 0 0 0];
oriented        oriented;


internalField   nonuniform List<scalar> 
445
(
2.65921e-05
-1.90881e-08
2.6591e-05
-1.8474e-08
2.65899e-05
-1.78802e-08
2.65888e-05
-1.73061e-08
2.65878e-05
-1.6751e-08
2.65868e-05
-1.62143e-08
2.65859e-05
-1.56952e-08
2.6585e-05
-1.51932e-08
2.65841e-05
-1.47077e-08
2.65832e-05
-1.42382e-08
2.65824e-05
-1.37841e-08
2.65816e-05
-1.33449e-08
2.65808e-05
-1.292e-08
2.65801e-05
-1.25091e-08
2.65793e-05
-1.21116e-08
2.65786e-05
-1.17272e-08
2.65779e-05
-1.13554e-08
2.65773e-05
-1.09958e-08
2.65766e-05
-1.06478e-08
2.6576e-05
-1.03113e-08
2.65754e-05
-9.98563e-09
2.65748e-05
-9.67051e-09
2.65742e-05
-9.36534e-09
2.65737e-05
-9.06981e-09
2.65732e-05
-8.78329e-09
2.65727e-05
-8.50543e-09
2.65722e-05
-8.23552e-09
2.65717e-05
-7.97313e-09
2.65713e-05
-7.71759e-09
2.65708e-05
-7.46844e-09
2.65704e-05
-7.22487e-09
2.657e-05
-6.98637e-09
2.65697e-05
-6.75225e-09
2.65693e-05
-6.522e-09
2.6569e-05
-6.29484e-09
2.65687e-05
-6.07032e-09
2.65684e-05
-5.84784e-09
2.65681e-05
-5.6272e-09
2.65679e-05
-5.40764e-09
2.65676e-05
-5.18921e-09
2.65674e-05
-4.97138e-09
2.65672e-05
-4.75443e-09
2.65671e-05
-4.53822e-09
2.65669e-05
-4.3225e-09
2.65668e-05
-4.10903e-09
2.65667e-05
-3.89525e-09
2.65666e-05
-3.68633e-09
2.65666e-05
-3.47794e-09
2.65665e-05
-3.27835e-09
-3.0805e-09
2.61313e-05
-1.46933e-08
2.61271e-05
-1.42207e-08
2.61229e-05
-1.37638e-08
2.6119e-05
-1.33221e-08
2.61151e-05
-1.28949e-08
2.61114e-05
-1.24819e-08
2.61078e-05
-1.20824e-08
2.61043e-05
-1.16961e-08
2.61009e-05
-1.13225e-08
2.60976e-05
-1.09611e-08
2.60944e-05
-1.06116e-08
2.60914e-05
-1.02735e-08
2.60884e-05
-9.94642e-09
2.60855e-05
-9.63012e-09
2.60827e-05
-9.32414e-09
2.608e-05
-9.02824e-09
2.60774e-05
-8.742e-09
2.60749e-05
-8.46522e-09
2.60724e-05
-8.19749e-09
2.607e-05
-7.9386e-09
2.60678e-05
-7.68819e-09
2.60655e-05
-7.44601e-09
2.60634e-05
-7.21169e-09
2.60613e-05
-6.98491e-09
2.60593e-05
-6.76545e-09
2.60573e-05
-6.55276e-09
2.60554e-05
-6.34672e-09
2.60536e-05
-6.14655e-09
2.60518e-05
-5.95243e-09
2.60501e-05
-5.76318e-09
2.60485e-05
-5.57916e-09
2.60469e-05
-5.39888e-09
2.60453e-05
-5.22314e-09
2.60439e-05
-5.05e-09
2.60424e-05
-4.88052e-09
2.60411e-05
-4.71249e-09
2.60398e-05
-4.54749e-09
2.60385e-05
-4.38298e-09
2.60373e-05
-4.22073e-09
2.60362e-05
-4.05816e-09
2.60351e-05
-3.89747e-09
2.60341e-05
-3.73601e-09
2.60331e-05
-3.57627e-09
2.60322e-05
-3.41551e-09
2.60314e-05
-3.25711e-09
2.60306e-05
-3.09786e-09
2.60298e-05
-2.94225e-09
2.60291e-05
-2.78689e-09
2.60285e-05
-2.63914e-09
-2.47891e-09
2.29276e-05
-8.50927e-09
2.29216e-05
-8.23588e-09
2.29158e-05
-7.97155e-09
2.29102e-05
-7.71595e-09
2.29048e-05
-7.46878e-09
2.28995e-05
-7.22976e-09
2.28944e-05
-6.99857e-09
2.28895e-05
-6.77498e-09
2.28848e-05
-6.55869e-09
2.28801e-05
-6.34949e-09
2.28757e-05
-6.1471e-09
2.28714e-05
-5.95134e-09
2.28672e-05
-5.76193e-09
2.28631e-05
-5.57875e-09
2.28592e-05
-5.40149e-09
2.28554e-05
-5.23011e-09
2.28517e-05
-5.06423e-09
2.28482e-05
-4.90397e-09
2.28447e-05
-4.74878e-09
2.28414e-05
-4.59901e-09
2.28381e-05
-4.45383e-09
2.2835e-05
-4.31393e-09
2.2832e-05
-4.17808e-09
2.2829e-05
-4.04745e-09
2.28262e-05
-3.92025e-09
2.28234e-05
-3.79825e-09
2.28207e-05
-3.67894e-09
2.28182e-05
-3.56488e-09
2.28157e-05
-3.45268e-09
2.28132e-05
-3.34565e-09
2.28109e-05
-3.2395e-09
2.28086e-05
-3.13851e-09
2.28064e-05
-3.03744e-09
2.28043e-05
-2.94133e-09
2.28023e-05
-2.84416e-09
2.28003e-05
-2.75181e-09
2.27984e-05
-2.65767e-09
2.27966e-05
-2.56784e-09
2.27948e-05
-2.47558e-09
2.27932e-05
-2.38713e-09
2.27916e-05
-2.29617e-09
2.279e-05
-2.20814e-09
2.27886e-05
-2.11787e-09
2.27872e-05
-2.02969e-09
2.27858e-05
-1.94047e-09
2.27846e-05
-1.85278e-09
2.27834e-05
-1.76526e-09
2.27823e-05
-1.67847e-09
2.27812e-05
-1.59736e-09
-1.4964e-09
1.65421e-05
-2.74228e-09
1.65365e-05
-2.65433e-09
1.65311e-05
-2.56928e-09
1.65259e-05
-2.48703e-09
1.65208e-05
-2.40747e-09
1.65159e-05
-2.33052e-09
1.65112e-05
-2.25608e-09
1.65066e-05
-2.18407e-09
1.65022e-05
-2.1144e-09
1.64979e-05
-2.047e-09
1.64937e-05
-1.98179e-09
1.64897e-05
-1.91869e-09
1.64858e-05
-1.85765e-09
1.6482e-05
-1.79854e-09
1.64783e-05
-1.74142e-09
1.64748e-05
-1.68606e-09
1.64713e-05
-1.63261e-09
1.6468e-05
-1.58075e-09
1.64648e-05
-1.53083e-09
1.64617e-05
-1.48231e-09
1.64587e-05
-1.43572e-09
1.64557e-05
-1.39021e-09
1.64529e-05
-1.3468e-09
1.64502e-05
-1.30421e-09
1.64475e-05
-1.26379e-09
1.64449e-05
-1.22373e-09
1.64424e-05
-1.18618e-09
1.644e-05
-1.1487e-09
1.64377e-05
-1.11381e-09
1.64354e-05
-1.07837e-09
1.64332e-05
-1.04577e-09
1.64311e-05
-1.01233e-09
1.6429e-05
-9.81753e-10
1.6427e-05
-9.49667e-10
1.64251e-05
-9.20553e-10
1.64232e-05
-8.89883e-10
1.64214e-05
-8.62066e-10
1.64197e-05
-8.32269e-10
1.6418e-05
-8.05013e-10
1.64164e-05
-7.76043e-10
1.64149e-05
-7.49228e-10
1.64134e-05
-7.20732e-10
1.64119e-05
-6.93628e-10
1.64106e-05
-6.65536e-10
1.64093e-05
-6.38423e-10
1.6408e-05
-6.11333e-10
1.64069e-05
-5.84052e-10
1.64057e-05
-5.57621e-10
1.64047e-05
-5.30436e-10
-4.96617e-10
6.54673e-06
6.54408e-06
6.54151e-06
6.53902e-06
6.53662e-06
6.53429e-06
6.53203e-06
6.52984e-06
6.52773e-06
6.52568e-06
6.5237e-06
6.52178e-06
6.51992e-06
6.51812e-06
6.51638e-06
6.51469e-06
6.51306e-06
6.51148e-06
6.50994e-06
6.50846e-06
6.50702e-06
6.50563e-06
6.50428e-06
6.50297e-06
6.5017e-06
6.50047e-06
6.49928e-06
6.49813e-06
6.49701e-06
6.49593e-06
6.49488e-06
6.49386e-06
6.49287e-06
6.49192e-06
6.49099e-06
6.49009e-06
6.48923e-06
6.48839e-06
6.48758e-06
6.4868e-06
6.48604e-06
6.48532e-06
6.48462e-06
6.48395e-06
6.48331e-06
6.4827e-06
6.48211e-06
6.48156e-06
6.48103e-06
)
;

boundaryField
{
    inlet
    {
        type            calculated;
        value           nonuniform 0();
    }
    outlet
    {
        type            calculated;
        value           nonuniform 0();
    }
    wall
    {
        type            calculated;
        value           uniform 0;
    }
    back
    {
        type            wedge;
        value           nonuniform List<scalar> 
250
(
1.45504e-18
1.02213e-18
5.78552e-19
-7.02124e-19
2.13484e-20
1.40512e-18
9.86563e-19
5.57117e-19
-6.79755e-19
2.18369e-20
1.36489e-18
9.55596e-19
5.37897e-19
-6.5862e-19
2.2158e-20
1.31363e-18
9.20754e-19
5.2066e-19
-6.37974e-19
2.103e-20
1.27279e-18
8.94655e-19
5.05642e-19
-6.17573e-19
2.0698e-20
1.22908e-18
8.62116e-19
4.88249e-19
-5.94647e-19
2.09598e-20
1.19292e-18
8.34065e-19
4.73561e-19
-5.76411e-19
2.08937e-20
1.15248e-18
8.04645e-19
4.57835e-19
-5.58737e-19
1.97831e-20
1.11643e-18
7.78671e-19
4.42088e-19
-5.41869e-19
2.0283e-20
1.07694e-18
7.53168e-19
4.25574e-19
-5.23013e-19
1.89992e-20
1.0423e-18
7.28387e-19
4.12579e-19
-5.07326e-19
1.82234e-20
1.01002e-18
7.03152e-19
3.94918e-19
-4.91979e-19
1.64973e-20
9.71297e-19
6.76364e-19
3.83977e-19
-4.77702e-19
1.54712e-20
9.47547e-19
6.60578e-19
3.7094e-19
-4.62988e-19
1.47447e-20
9.11395e-19
6.37785e-19
3.60626e-19
-4.45657e-19
1.54197e-20
8.85517e-19
6.19496e-19
3.51716e-19
-4.30365e-19
1.49817e-20
8.52804e-19
5.96225e-19
3.37312e-19
-4.19035e-19
1.39178e-20
8.31185e-19
5.786e-19
3.24201e-19
-4.07159e-19
1.40424e-20
7.95876e-19
5.56372e-19
3.15451e-19
-3.92553e-19
1.28789e-20
7.7554e-19
5.39636e-19
3.02416e-19
-3.84404e-19
1.17592e-20
7.43709e-19
5.18247e-19
2.90146e-19
-3.72258e-19
1.15802e-20
7.23362e-19
5.02026e-19
2.81996e-19
-3.5806e-19
1.24552e-20
6.9452e-19
4.83653e-19
2.74986e-19
-3.44431e-19
1.24622e-20
6.7681e-19
4.70495e-19
2.66905e-19
-3.33284e-19
1.23421e-20
6.5111e-19
4.52588e-19
2.55534e-19
-3.2573e-19
1.11948e-20
6.31074e-19
4.38786e-19
2.46573e-19
-3.16487e-19
1.07114e-20
6.05322e-19
4.22409e-19
2.37159e-19
-3.07476e-19
9.29854e-21
5.87354e-19
4.09428e-19
2.29234e-19
-3.00688e-19
8.97403e-21
5.65446e-19
3.93778e-19
2.21185e-19
-2.87839e-19
9.34313e-21
5.49616e-19
3.81348e-19
2.12954e-19
-2.81281e-19
9.01171e-21
5.28767e-19
3.67528e-19
2.06389e-19
-2.70929e-19
8.65473e-21
5.13283e-19
3.56215e-19
2.00214e-19
-2.63748e-19
8.44644e-21
4.92055e-19
3.41908e-19
1.91491e-19
-2.55437e-19
7.62849e-21
4.76839e-19
3.31378e-19
1.85653e-19
-2.49026e-19
7.5033e-21
4.58437e-19
3.18459e-19
1.7942e-19
-2.3898e-19
7.3105e-21
4.40976e-19
3.08328e-19
1.73176e-19
-2.32235e-19
7.24513e-21
4.26775e-19
2.95884e-19
1.65568e-19
-2.23015e-19
6.83467e-21
4.04949e-19
2.82301e-19
1.61346e-19
-2.17744e-19
6.08438e-21
3.87588e-19
2.73603e-19
1.56976e-19
-2.10062e-19
6.12267e-21
3.69916e-19
2.62189e-19
1.50435e-19
-2.00753e-19
7.30179e-21
3.60104e-19
2.5421e-19
1.42495e-19
-1.91364e-19
7.67205e-21
3.39139e-19
2.4047e-19
1.3572e-19
-1.84216e-19
7.10659e-21
3.24262e-19
2.29007e-19
1.30025e-19
-1.79922e-19
6.18053e-21
3.05318e-19
2.16374e-19
1.24093e-19
-1.72343e-19
5.70891e-21
2.90579e-19
2.06589e-19
1.19563e-19
-1.65984e-19
5.63292e-21
2.73731e-19
1.9477e-19
1.1238e-19
-1.58615e-19
4.76644e-21
2.57105e-19
1.82719e-19
1.07248e-19
-1.52785e-19
4.22487e-21
2.40388e-19
1.7179e-19
1.01358e-19
-1.44893e-19
4.21532e-21
2.28536e-19
1.62714e-19
9.32351e-20
-1.38555e-19
3.98108e-21
2.11948e-19
1.51728e-19
8.8128e-20
-1.294e-19
3.50374e-21
)
;
    }
    front
    {
        type            wedge;
        value           nonuniform List<scalar> 
250
(
1.72721e-18
1.26512e-18
7.56244e-19
-6.10053e-19
4.62426e-20
1.67467e-18
1.22706e-18
7.34747e-19
-5.90302e-19
4.35883e-20
1.61585e-18
1.18684e-18
7.12463e-19
-5.70709e-19
4.11722e-20
1.57135e-18
1.15286e-18
6.8957e-19
-5.51972e-19
4.02738e-20
1.51961e-18
1.11242e-18
6.65787e-19
-5.34285e-19
3.86455e-20
1.47379e-18
1.08063e-18
6.45659e-19
-5.20376e-19
3.64873e-20
1.4234e-18
1.04646e-18
6.24061e-19
-5.02983e-19
3.47186e-20
1.38012e-18
1.01572e-18
6.04696e-19
-4.86195e-19
3.40539e-20
1.33521e-18
9.83505e-19
5.86503e-19
-4.69727e-19
3.18361e-20
1.29641e-18
9.52737e-19
5.70191e-19
-4.56335e-19
3.14577e-20
1.25533e-18
9.23093e-19
5.51434e-19
-4.40824e-19
3.06246e-20
1.21437e-18
8.95693e-19
5.38383e-19
-4.25991e-19
3.0794e-20
1.18228e-18
8.71568e-19
5.19617e-19
-4.11068e-19
3.03129e-20
1.13752e-18
8.38118e-19
5.0392e-19
-3.97533e-19
2.9581e-20
1.10742e-18
8.13286e-19
4.86439e-19
-3.87534e-19
2.74936e-20
1.06922e-18
7.85519e-19
4.68468e-19
-3.7639e-19
2.65658e-20
1.03995e-18
7.64243e-19
4.56872e-19
-3.62144e-19
2.63061e-20
1.00162e-18
7.3879e-19
4.44841e-19
-3.49285e-19
2.49027e-20
9.78932e-19
7.19351e-19
4.29274e-19
-3.39968e-19
2.48261e-20
9.43154e-19
6.95791e-19
4.18799e-19
-3.24988e-19
2.47503e-20
9.20684e-19
6.78197e-19
4.08331e-19
-3.1477e-19
2.37678e-20
8.88463e-19
6.56714e-19
3.94499e-19
-3.07345e-19
2.17758e-20
8.66401e-19
6.38593e-19
3.80245e-19
-3.00066e-19
2.06806e-20
8.34778e-19
6.16431e-19
3.67763e-19
-2.91001e-19
1.97589e-20
8.12642e-19
6.0012e-19
3.59232e-19
-2.79014e-19
1.98878e-20
7.86246e-19
5.80771e-19
3.48938e-19
-2.69352e-19
1.94005e-20
7.66883e-19
5.64981e-19
3.39694e-19
-2.60076e-19
1.9859e-20
7.40947e-19
5.4673e-19
3.29542e-19
-2.49166e-19
1.92809e-20
7.20068e-19
5.32002e-19
3.20047e-19
-2.44889e-19
1.80189e-20
6.94127e-19
5.14861e-19
3.11244e-19
-2.34824e-19
1.751e-20
6.74122e-19
4.99826e-19
3.01222e-19
-2.29043e-19
1.70263e-20
6.49553e-19
4.82929e-19
2.91235e-19
-2.20521e-19
1.64495e-20
6.31424e-19
4.69592e-19
2.84164e-19
-2.13558e-19
1.64747e-20
6.07893e-19
4.52987e-19
2.74549e-19
-2.05024e-19
1.5862e-20
5.88046e-19
4.39188e-19
2.65601e-19
-2.00452e-19
1.52992e-20
5.67677e-19
4.2295e-19
2.56913e-19
-1.9283e-19
1.46644e-20
5.4435e-19
4.09301e-19
2.49787e-19
-1.87959e-19
1.43534e-20
5.28939e-19
3.97033e-19
2.39448e-19
-1.79295e-19
1.44329e-20
5.09235e-19
3.80042e-19
2.29369e-19
-1.73212e-19
1.3696e-20
4.90035e-19
3.659e-19
2.21559e-19
-1.68831e-19
1.18626e-20
4.63054e-19
3.48409e-19
2.15211e-19
-1.64663e-19
1.08132e-20
4.47389e-19
3.36756e-19
2.07746e-19
-1.58263e-19
1.07334e-20
4.25759e-19
3.22915e-19
1.99235e-19
-1.49074e-19
1.09917e-20
4.08304e-19
3.10261e-19
1.90966e-19
-1.43137e-19
1.08161e-20
3.87018e-19
2.94958e-19
1.81365e-19
-1.36071e-19
1.02353e-20
3.67753e-19
2.81661e-19
1.74447e-19
-1.30078e-19
1.04641e-20
3.49072e-19
2.69006e-19
1.6561e-19
-1.22645e-19
1.03713e-20
3.30505e-19
2.55189e-19
1.57562e-19
-1.17371e-19
9.76563e-21
3.07837e-19
2.40666e-19
1.52607e-19
-1.11242e-19
9.43718e-21
2.89623e-19
2.27575e-19
1.43523e-19
-1.0594e-19
9.06674e-21
)
;
    }
    axis
    {
        type            empty;
        value           nonuniform 0();
    }
    procBoundary6to2
    {
        type            processor;
        value           nonuniform List<scalar> 
50
(
2.02399e-08
1.95889e-08
1.89595e-08
1.83509e-08
1.77625e-08
1.71935e-08
1.66432e-08
1.6111e-08
1.55963e-08
1.50985e-08
1.46171e-08
1.41513e-08
1.3701e-08
1.32652e-08
1.28439e-08
1.24361e-08
1.20418e-08
1.16602e-08
1.12911e-08
1.09337e-08
1.05879e-08
1.02528e-08
9.92823e-09
9.61334e-09
9.30785e-09
9.01094e-09
8.72221e-09
8.4408e-09
8.16624e-09
7.8978e-09
7.6348e-09
7.3766e-09
7.12241e-09
6.87192e-09
6.62408e-09
6.37889e-09
6.13514e-09
5.89346e-09
5.65231e-09
5.41289e-09
5.17347e-09
4.93589e-09
4.69866e-09
4.46301e-09
4.22986e-09
3.99621e-09
3.76984e-09
3.54314e-09
3.31979e-09
3.11508e-09
)
;
    }
    procBoundary6to5
    {
        type            processor;
        value           nonuniform List<scalar> 5(-2.65932e-05 -2.61357e-05 -2.29338e-05 -1.65479e-05 -6.54948e-06);
    }
    procBoundary6to7
    {
        type            processor;
        value           nonuniform List<scalar> 5(2.65665e-05 2.60279e-05 2.27802e-05 1.64037e-05 6.48054e-06);
    }
}


// ************************************************************************* //
