/*--------------------------------*- C++ -*----------------------------------*\
| =========                 |                                                 |
| \\      /  F ield         | OpenFOAM: The Open Source CFD Toolbox           |
|  \\    /   O peration     | Version:                                        |
|   \\  /    A nd           | Website:  www.openfoam.com                      |
|    \\/     M anipulation  |                                                 |
\*---------------------------------------------------------------------------*/
FoamFile
{
    version     2.0;
    format      ascii;
    class       volVectorField;
    location    "140";
    object      U;
}
// * * * * * * * * * * * * * * * * * * * * * * * * * * * * * * * * * * * * * //

dimensions      [0 1 -1 0 0 0 0];


internalField   nonuniform List<vector> 
250
(
(1.38964 -0.00105737 5.31085e-15)
(1.38958 -0.00102335 5.31917e-15)
(1.38953 -0.000990456 4.86822e-15)
(1.38947 -0.000958653 5.21205e-15)
(1.38942 -0.000927904 4.80891e-15)
(1.38937 -0.000898168 4.862e-15)
(1.38932 -0.000869414 4.40045e-15)
(1.38927 -0.000841606 4.50823e-15)
(1.38922 -0.000814712 4.29561e-15)
(1.38917 -0.000788701 4.43585e-15)
(1.38913 -0.000763545 4.147e-15)
(1.38909 -0.000739213 4.12427e-15)
(1.38905 -0.000715681 4.13642e-15)
(1.38901 -0.000692917 3.58902e-15)
(1.38897 -0.000670902 3.98084e-15)
(1.38893 -0.000649606 3.55112e-15)
(1.38889 -0.000629009 3.66322e-15)
(1.38886 -0.000609082 3.21956e-15)
(1.38882 -0.000589808 3.73516e-15)
(1.38879 -0.000571156 3.16674e-15)
(1.38876 -0.000553108 3.61826e-15)
(1.38873 -0.000535632 3.12368e-15)
(1.3887 -0.000518711 3.41126e-15)
(1.38867 -0.000502309 2.97249e-15)
(1.38864 -0.000486406 3.24979e-15)
(1.38861 -0.000470967 3.03606e-15)
(1.38859 -0.000455965 3.26597e-15)
(1.38856 -0.000441363 2.99881e-15)
(1.38854 -0.000427133 3.08178e-15)
(1.38852 -0.00041324 2.8239e-15)
(1.38849 -0.000399648 2.88761e-15)
(1.38847 -0.000386321 2.62594e-15)
(1.38845 -0.000373222 2.81755e-15)
(1.38843 -0.000360328 2.5134e-15)
(1.38842 -0.000347591 2.55917e-15)
(1.3884 -0.000334996 2.42474e-15)
(1.38838 -0.000322495 2.31002e-15)
(1.38837 -0.000310098 2.48329e-15)
(1.38835 -0.000297745 2.36281e-15)
(1.38834 -0.000285466 2.31956e-15)
(1.38833 -0.000273204 1.95532e-15)
(1.38832 -0.000261011 2.20525e-15)
(1.38831 -0.000248845 1.95161e-15)
(1.3883 -0.000236734 2.07388e-15)
(1.3883 -0.000224738 1.83129e-15)
(1.38829 -0.000212733 1.84945e-15)
(1.38829 -0.000201022 1.7716e-15)
(1.38828 -0.000189347 1.73036e-15)
(1.38828 -0.000177961 1.53871e-15)
(1.38828 -0.000167038 1.51881e-15)
(1.15555 -0.000757911 4.9338e-15)
(1.15536 -0.000733526 4.88858e-15)
(1.15517 -0.000709951 4.66775e-15)
(1.15499 -0.000687158 4.77378e-15)
(1.15482 -0.000665119 4.27788e-15)
(1.15465 -0.000643808 4.55594e-15)
(1.15449 -0.000623198 4.31912e-15)
(1.15433 -0.000603268 4.36538e-15)
(1.15418 -0.000583991 4.12604e-15)
(1.15403 -0.000565349 4.12517e-15)
(1.15389 -0.000547316 3.94788e-15)
(1.15375 -0.000529876 4.0228e-15)
(1.15362 -0.000513006 3.94737e-15)
(1.15349 -0.000496691 3.58163e-15)
(1.15337 -0.000480908 3.64338e-15)
(1.15324 -0.000465645 3.30677e-15)
(1.15313 -0.000450881 3.50058e-15)
(1.15301 -0.000436605 3.15961e-15)
(1.1529 -0.000422794 3.39201e-15)
(1.1528 -0.000409439 3.11737e-15)
(1.15269 -0.000396518 3.33414e-15)
(1.15259 -0.000384022 3.13362e-15)
(1.1525 -0.000371926 3.24984e-15)
(1.1524 -0.000360218 2.91838e-15)
(1.15231 -0.000348878 3.07087e-15)
(1.15222 -0.000337889 2.82993e-15)
(1.15214 -0.000327229 2.94595e-15)
(1.15206 -0.000316874 2.74712e-15)
(1.15198 -0.000306811 2.87978e-15)
(1.1519 -0.000297006 2.67683e-15)
(1.15183 -0.000287446 2.73386e-15)
(1.15175 -0.000278088 2.55128e-15)
(1.15169 -0.000268933 2.68659e-15)
(1.15162 -0.000259929 2.44031e-15)
(1.15156 -0.000251078 2.51231e-15)
(1.15149 -0.000242323 2.2773e-15)
(1.15143 -0.000233682 2.39713e-15)
(1.15138 -0.000225097 2.30618e-15)
(1.15132 -0.000216587 2.11727e-15)
(1.15127 -0.000208096 2.06603e-15)
(1.15122 -0.000199659 1.86194e-15)
(1.15118 -0.000191223 2.03349e-15)
(1.15113 -0.000182841 1.89952e-15)
(1.15109 -0.000174444 1.94951e-15)
(1.15105 -0.000166144 1.7381e-15)
(1.15102 -0.000157819 1.80588e-15)
(1.15098 -0.000149673 1.76517e-15)
(1.15095 -0.000141534 1.67923e-15)
(1.15092 -0.000133818 1.59304e-15)
(1.15089 -0.000125931 1.54906e-15)
(0.878738 -0.000435673 3.71111e-15)
(0.878505 -0.000421669 3.62508e-15)
(0.878279 -0.000408129 3.66741e-15)
(0.878061 -0.000395037 3.38337e-15)
(0.87785 -0.000382378 3.35736e-15)
(0.877645 -0.000370136 3.15067e-15)
(0.877447 -0.000358296 3.06637e-15)
(0.877255 -0.000346845 2.90655e-15)
(0.87707 -0.000335769 3.0582e-15)
(0.87689 -0.000325057 2.92657e-15)
(0.876716 -0.000314694 2.90211e-15)
(0.876548 -0.00030467 2.95279e-15)
(0.876385 -0.000294973 2.77453e-15)
(0.876227 -0.000285594 2.79883e-15)
(0.876075 -0.000276521 2.47566e-15)
(0.875927 -0.000267746 2.39572e-15)
(0.875783 -0.000259257 2.43774e-15)
(0.875645 -0.000251051 2.60564e-15)
(0.87551 -0.00024311 2.18561e-15)
(0.87538 -0.000235438 2.50845e-15)
(0.875254 -0.000228012 2.37897e-15)
(0.875132 -0.000220841 2.3426e-15)
(0.875014 -0.000213895 2.03552e-15)
(0.8749 -0.000207189 2.18922e-15)
(0.874789 -0.00020069 2.10288e-15)
(0.874682 -0.000194414 2.19505e-15)
(0.874578 -0.00018832 2.07678e-15)
(0.874477 -0.000182435 2.12975e-15)
(0.874379 -0.000176705 2.0082e-15)
(0.874285 -0.000171164 2.10431e-15)
(0.874194 -0.000165746 1.88012e-15)
(0.874106 -0.000160493 1.92484e-15)
(0.87402 -0.000155335 1.89252e-15)
(0.873938 -0.000150316 1.84692e-15)
(0.873858 -0.000145357 1.73827e-15)
(0.873781 -0.000140511 1.80331e-15)
(0.873707 -0.000135701 1.69981e-15)
(0.873636 -0.000130975 1.52785e-15)
(0.873567 -0.000126258 1.51816e-15)
(0.873502 -0.000121597 1.50189e-15)
(0.873439 -0.000116935 1.55768e-15)
(0.873378 -0.000112305 1.47061e-15)
(0.873321 -0.000107672 1.46095e-15)
(0.873266 -0.000103051 1.29811e-15)
(0.873214 -9.84553e-05 1.27388e-15)
(0.873165 -9.38713e-05 1.22469e-15)
(0.873118 -8.93514e-05 1.21725e-15)
(0.873074 -8.4854e-05 1.17904e-15)
(0.873032 -8.0635e-05 1.26341e-15)
(0.872994 -7.57426e-05 1.08397e-15)
(0.559437 -0.000169441 1.70085e-15)
(0.559246 -0.000164005 1.81401e-15)
(0.55906 -0.000158748 1.58754e-15)
(0.55888 -0.000153665 1.77112e-15)
(0.558706 -0.000148749 1.49485e-15)
(0.558538 -0.000143993 1.40657e-15)
(0.558375 -0.000139394 1.35645e-15)
(0.558217 -0.000134944 1.49004e-15)
(0.558065 -0.00013064 1.25642e-15)
(0.557917 -0.000126476 1.34975e-15)
(0.557774 -0.000122447 1.19363e-15)
(0.557635 -0.000118549 1.30583e-15)
(0.557501 -0.000114778 1.30379e-15)
(0.557371 -0.000111129 1.23501e-15)
(0.557245 -0.000107599 1.06001e-15)
(0.557123 -0.000104184 9.25873e-16)
(0.557005 -0.000100879 1.22469e-15)
(0.556891 -9.76838e-05 9.59326e-16)
(0.556781 -9.45937e-05 1.01354e-15)
(0.556673 -9.16069e-05 1.14577e-15)
(0.55657 -8.87181e-05 1.09017e-15)
(0.556469 -8.5926e-05 8.11171e-16)
(0.556372 -8.32263e-05 8.31204e-16)
(0.556278 -8.06195e-05 6.99483e-16)
(0.556186 -7.8097e-05 9.86633e-16)
(0.556098 -7.56604e-05 7.97984e-16)
(0.556012 -7.33024e-05 9.87973e-16)
(0.555929 -7.10288e-05 9.55192e-16)
(0.555849 -6.88228e-05 8.06893e-16)
(0.555771 -6.66899e-05 8.58387e-16)
(0.555695 -6.46129e-05 8.06682e-16)
(0.555622 -6.26067e-05 7.66752e-16)
(0.555551 -6.06423e-05 8.57944e-16)
(0.555483 -5.87346e-05 7.97666e-16)
(0.555416 -5.68543e-05 7.36704e-16)
(0.555352 -5.50303e-05 7.20507e-16)
(0.55529 -5.32217e-05 6.90642e-16)
(0.555231 -5.14533e-05 8.11303e-16)
(0.555173 -4.96838e-05 5.88596e-16)
(0.555117 -4.7952e-05 5.17749e-16)
(0.555064 -4.62123e-05 3.93234e-16)
(0.555013 -4.4495e-05 4.77252e-16)
(0.554963 -4.27603e-05 5.6453e-16)
(0.554916 -4.10452e-05 6.10243e-16)
(0.554871 -3.93268e-05 5.17457e-16)
(0.554828 -3.76388e-05 5.7786e-16)
(0.554787 -3.59444e-05 5.40902e-16)
(0.554748 -3.42808e-05 4.67063e-16)
(0.554712 -3.26769e-05 4.75638e-16)
(0.554677 -3.05674e-05 4.74071e-16)
(0.198105 -1.35167e-05 3.55964e-16)
(0.198023 -1.30859e-05 2.67515e-16)
(0.197944 -1.26689e-05 1.74816e-16)
(0.197868 -1.22654e-05 2.89962e-16)
(0.197794 -1.18747e-05 2.3608e-16)
(0.197722 -1.14965e-05 1.08577e-16)
(0.197653 -1.11304e-05 1.33887e-16)
(0.197586 -1.07761e-05 6.29154e-17)
(0.197521 -1.04329e-05 2.07942e-17)
(0.197458 -1.01007e-05 6.73873e-17)
(0.197397 -9.77905e-06 1.16854e-16)
(0.197338 -9.46746e-06 2.18048e-16)
(0.197281 -9.16579e-06 2.27314e-16)
(0.197225 -8.87316e-06 1.23385e-16)
(0.197172 -8.59049e-06 1.88595e-16)
(0.19712 -8.31574e-06 1.00105e-16)
(0.19707 -8.05074e-06 9.88853e-17)
(0.197021 -7.79233e-06 1.37963e-16)
(0.196974 -7.54515e-06 1.60066e-16)
(0.196928 -7.3031e-06 1.75504e-16)
(0.196884 -7.07252e-06 1.57902e-16)
(0.196841 -6.84421e-06 2.49335e-17)
(0.1968 -6.63025e-06 1.24459e-16)
(0.19676 -6.41665e-06 -3.22236e-17)
(0.196721 -6.21843e-06 7.94519e-17)
(0.196683 -6.01638e-06 1.08363e-16)
(0.196646 -5.83457e-06 1.21264e-16)
(0.196611 -5.64733e-06 1.05591e-16)
(0.196577 -5.48146e-06 6.2045e-17)
(0.196543 -5.30376e-06 6.24894e-17)
(0.196511 -5.15166e-06 7.62467e-17)
(0.19648 -4.98666e-06 6.81351e-17)
(0.196449 -4.84763e-06 6.90455e-17)
(0.19642 -4.68917e-06 9.20795e-17)
(0.196391 -4.55908e-06 6.06331e-17)
(0.196364 -4.4117e-06 6.45982e-17)
(0.196337 -4.29177e-06 5.20254e-17)
(0.196311 -4.15025e-06 1.84698e-16)
(0.196286 -4.03342e-06 3.23837e-17)
(0.196262 -3.90002e-06 -7.32177e-18)
(0.196239 -3.78768e-06 -4.48653e-17)
(0.196217 -3.65884e-06 -3.17319e-18)
(0.196195 -3.54258e-06 -6.23435e-18)
(0.196175 -3.41813e-06 1.64879e-17)
(0.196155 -3.30259e-06 2.776e-18)
(0.196136 -3.19021e-06 6.56891e-17)
(0.196118 -3.07247e-06 8.32827e-17)
(0.196101 -2.96898e-06 7.69956e-17)
(0.196084 -2.84406e-06 7.83149e-17)
(0.196069 -2.61486e-06 7.9485e-17)
)
;

boundaryField
{
    inlet
    {
        type            fixedValue;
        value           nonuniform 0();
    }
    outlet
    {
        type            zeroGradient;
    }
    wall
    {
        type            noSlip;
    }
    back
    {
        type            wedge;
    }
    front
    {
        type            wedge;
    }
    axis
    {
        type            empty;
    }
    procBoundary6to2
    {
        type            processor;
        value           nonuniform List<vector> 
50
(
(1.58127 -0.00125708 5.77634e-15)
(1.58143 -0.00121666 5.94361e-15)
(1.58157 -0.00117757 5.28778e-15)
(1.58172 -0.00113979 5.57663e-15)
(1.58186 -0.00110325 4.98905e-15)
(1.58199 -0.00106791 5.17219e-15)
(1.58212 -0.00103374 4.89009e-15)
(1.58225 -0.00100069 4.901e-15)
(1.58237 -0.000968727 4.73474e-15)
(1.58249 -0.000937812 4.65267e-15)
(1.5826 -0.000907912 4.43893e-15)
(1.58271 -0.000878992 4.05473e-15)
(1.58282 -0.000851018 4.77634e-15)
(1.58292 -0.000823959 4.186e-15)
(1.58303 -0.000797785 4.57604e-15)
(1.58312 -0.000772464 4.01443e-15)
(1.58322 -0.000747967 4.14315e-15)
(1.58331 -0.000724264 3.65559e-15)
(1.5834 -0.000701324 3.91001e-15)
(1.58348 -0.000679118 3.67974e-15)
(1.58356 -0.000657614 3.8231e-15)
(1.58364 -0.00063678 3.61627e-15)
(1.58372 -0.000616582 4.01307e-15)
(1.5838 -0.000596986 3.51203e-15)
(1.58387 -0.000577954 3.78972e-15)
(1.58394 -0.000559453 3.40372e-15)
(1.58401 -0.000541438 3.65711e-15)
(1.58408 -0.000523874 3.25389e-15)
(1.58414 -0.000506712 3.50269e-15)
(1.58421 -0.000489921 3.14847e-15)
(1.58427 -0.000473448 3.34051e-15)
(1.58433 -0.000457263 3.1197e-15)
(1.58438 -0.00044131 3.14505e-15)
(1.58444 -0.000425572 2.91896e-15)
(1.5845 -0.00040999 2.96069e-15)
(1.58455 -0.000394558 2.83647e-15)
(1.5846 -0.000379213 2.65202e-15)
(1.58465 -0.000363981 2.89407e-15)
(1.5847 -0.000348788 2.72429e-15)
(1.58475 -0.000333696 2.79298e-15)
(1.58479 -0.000318615 2.446e-15)
(1.58484 -0.000303643 2.5364e-15)
(1.58488 -0.000288717 2.18602e-15)
(1.58492 -0.000273879 2.38537e-15)
(1.58496 -0.000259251 2.1356e-15)
(1.585 -0.000244538 2.18044e-15)
(1.58504 -0.000230382 2.02109e-15)
(1.58507 -0.000216093 1.90804e-15)
(1.58511 -0.000202164 1.66278e-15)
(1.58514 -0.00018975 1.78157e-15)
)
;
    }
    procBoundary6to5
    {
        type            processor;
        value           nonuniform List<vector> 5((1.38971 -0.00109257 5.74705e-15) (1.15575 -0.000783137 5.03653e-15) (0.878979 -0.000450159 3.65782e-15) (0.559636 -0.000175063 1.92686e-15) (0.198189 -1.39621e-05 5.7572e-16));
    }
    procBoundary6to7
    {
        type            processor;
        value           nonuniform List<vector> 5((1.38828 -0.000158013 1.42909e-15) (1.15087 -0.000118273 1.42723e-15) (0.872956 -7.08894e-05 1.19746e-15) (0.554644 -2.84924e-05 4.57376e-16) (0.196054 -2.38811e-06 2.09785e-18));
    }
}


// ************************************************************************* //
