/*--------------------------------*- C++ -*----------------------------------*\
| =========                 |                                                 |
| \\      /  F ield         | OpenFOAM: The Open Source CFD Toolbox           |
|  \\    /   O peration     | Version:                                        |
|   \\  /    A nd           | Website:  www.openfoam.com                      |
|    \\/     M anipulation  |                                                 |
\*---------------------------------------------------------------------------*/
FoamFile
{
    version     2.0;
    format      ascii;
    class       volVectorField;
    location    "78.8";
    object      U;
}
// * * * * * * * * * * * * * * * * * * * * * * * * * * * * * * * * * * * * * //

dimensions      [0 1 -1 0 0 0 0];


internalField   nonuniform List<vector> 
1147
(
(-0.00312011 0.054155 1.26259e-20)
(-0.0461774 -0.00396468 5.29235e-20)
(-0.0912133 -0.0309188 1.80611e-19)
(-0.120376 -0.0433306 -2.47883e-19)
(-0.156594 -0.086732 8.93799e-20)
(-0.232883 -0.074537 3.93723e-20)
(-0.311312 0.00467311 -3.29635e-20)
(-0.300366 0.108188 1.88876e-19)
(-0.270695 0.0625483 -3.73489e-20)
(0.0673538 -0.129212 -2.86167e-20)
(-0.1591 0.0280652 7.02604e-20)
(-0.175759 -0.0332982 2.80516e-19)
(-0.230821 -0.0778055 -1.00367e-19)
(-0.258182 -0.0904565 -1.41218e-20)
(-0.355728 -0.0474422 1.40122e-19)
(-0.345446 0.029729 -2.34114e-19)
(0.183264 -0.0319132 8.11092e-20)
(0.689015 -0.158359 -8.38986e-20)
(0.900162 -0.243304 3.99524e-20)
(1.10503 -0.314341 1.31221e-21)
(-0.314307 -0.0459235 -1.91676e-20)
(-0.271092 -0.111197 -2.0605e-19)
(-0.329003 -0.105975 3.76658e-20)
(-0.377453 -0.0298506 -2.51714e-20)
(0.156697 -0.0503162 -5.53816e-20)
(0.708237 -0.147779 8.45458e-20)
(1.00628 -0.195221 -5.92508e-20)
(1.23745 -0.242532 -5.19805e-20)
(1.33604 -0.305121 1.6366e-21)
(1.41231 -0.363532 -5.82887e-21)
(-0.374621 -0.144433 3.3492e-20)
(-0.452423 -0.152873 8.79991e-20)
(-0.224213 -0.103026 -2.65864e-20)
(0.464447 -0.0955943 -1.08476e-21)
(0.931465 -0.138167 3.71298e-20)
(1.21911 -0.181016 7.86725e-20)
(1.36262 -0.219338 1.29311e-19)
(1.43673 -0.257023 -4.56067e-20)
(1.45849 -0.295618 -5.21386e-20)
(1.45447 -0.334961 -9.60713e-21)
(-0.472624 -0.18116 2.43356e-19)
(-0.028825 -0.13311 -6.35293e-20)
(0.603095 -0.105653 2.8064e-20)
(1.09092 -0.116385 1.11714e-20)
(1.31251 -0.150417 1.63594e-19)
(1.43763 -0.176823 -1.88414e-20)
(1.47371 -0.210662 -6.01202e-20)
(1.48106 -0.240922 1.18848e-19)
(1.46933 -0.274711 2.2069e-21)
(1.43944 -0.305984 2.11908e-20)
(0.0913727 -0.12739 -1.42337e-19)
(0.694815 -0.0899171 -6.80401e-20)
(1.16713 -0.0889352 6.01207e-20)
(1.39016 -0.112961 -5.50769e-20)
(1.46506 -0.13453 -2.53945e-20)
(1.50276 -0.163809 1.61108e-19)
(1.48646 -0.192342 -1.03462e-20)
(1.4747 -0.221924 -1.82638e-20)
(1.44924 -0.254223 -1.22327e-20)
(1.41856 -0.283885 8.42801e-21)
(0.712049 -0.0608064 1.96317e-21)
(1.2004 -0.0516443 8.01008e-20)
(1.43016 -0.0664997 -7.37567e-20)
(1.49549 -0.0920137 1.14203e-19)
(1.51121 -0.114923 -2.92921e-19)
(1.49942 -0.146735 -1.09685e-19)
(1.47725 -0.172473 -2.12682e-20)
(1.45138 -0.204327 1.32101e-20)
(1.43009 -0.232663 2.76621e-21)
(1.3949 -0.264357 -3.92198e-21)
(1.18496 -0.0124979 -3.5922e-20)
(1.44478 -0.0153447 2.18806e-19)
(1.51275 -0.0400102 -6.62312e-20)
(1.51715 -0.0674763 -1.11731e-20)
(1.50819 -0.0951391 1.27801e-19)
(1.47959 -0.127411 6.00591e-20)
(1.46039 -0.155331 -6.22249e-20)
(1.42812 -0.18556 2.80661e-20)
(1.41001 -0.21483 -2.31833e-20)
(1.37308 -0.244164 6.8744e-21)
(1.43274 0.0289944 1.97358e-19)
(1.52537 0.017106 1.75885e-19)
(1.51681 -0.0163844 -1.39663e-19)
(1.5101 -0.0417325 9.97453e-22)
(1.48422 -0.077425 7.93293e-20)
(1.4614 -0.107774 -3.391e-20)
(1.43637 -0.137333 2.36705e-20)
(1.41113 -0.168322 8.53269e-21)
(1.38604 -0.197167 -3.23959e-20)
(1.35759 -0.225354 2.11335e-21)
(1.52105 0.0651869 -1.65367e-19)
(1.53108 0.0417681 -2.93773e-19)
(1.50029 0.00861553 3.48085e-19)
(1.49126 -0.0238801 -6.84506e-20)
(1.45705 -0.0577543 -8.4409e-20)
(1.44241 -0.0894675 -1.77193e-20)
(1.41228 -0.121095 5.45533e-20)
(1.39158 -0.150277 -5.24249e-20)
(1.36418 -0.180652 -2.96013e-21)
(1.33861 -0.208243 -1.6527e-21)
(1.50887 0.0618926 1.6466e-19)
(1.48565 0.0277347 -1.47615e-19)
(1.46182 -0.00535207 4.77775e-20)
(1.43697 -0.0392987 4.89267e-20)
(1.41743 -0.0738858 -8.96848e-21)
(1.39238 -0.102557 1.90448e-20)
(1.37033 -0.133873 1.38899e-20)
(1.34412 -0.163629 1.94456e-20)
(1.31972 -0.189883 7.2535e-21)
(1.48636 0.0820264 6.26372e-21)
(1.46384 0.0473281 7.33108e-20)
(1.4356 0.00966937 1.19416e-20)
(1.41477 -0.0239292 -9.12525e-20)
(1.39341 -0.0552827 -8.06837e-21)
(1.37214 -0.0903375 -5.03213e-20)
(1.35038 -0.116473 -4.66527e-21)
(1.3254 -0.14823 -7.14214e-21)
(1.3024 -0.174048 -4.19794e-21)
(1.43619 0.0591049 -8.52565e-20)
(1.41425 0.0273724 3.65387e-20)
(1.39181 -0.00951445 -1.0029e-19)
(1.3717 -0.0425122 -2.51809e-20)
(1.35147 -0.0741778 1.2386e-20)
(1.33122 -0.103914 -1.04493e-20)
(1.3059 -0.133921 1.28671e-20)
(1.28545 -0.158448 4.9932e-22)
(1.41033 0.078122 1.40976e-19)
(1.39144 0.0407126 1.32443e-20)
(1.36746 0.00351382 5.90097e-20)
(1.35097 -0.028233 5.37222e-20)
(1.32881 -0.0607914 2.41147e-20)
(1.31205 -0.0913649 4.35599e-21)
(1.28628 -0.117313 -1.17366e-20)
(1.26575 -0.147135 2.09585e-21)
(1.3651 0.0532108 -3.25018e-20)
(1.34457 0.0178551 -2.86063e-20)
(1.32875 -0.0170247 -3.79477e-20)
(1.30948 -0.0479471 7.34722e-22)
(1.29309 -0.0784416 1.4043e-22)
(1.27184 -0.105665 2.57841e-21)
(1.24965 -0.130314 1.64601e-21)
(1.34125 0.0627206 3.7164e-20)
(1.32332 0.0312337 4.94921e-20)
(1.30862 -0.007582 -1.22502e-20)
(1.29059 -0.0359758 -2.74791e-21)
(1.27674 -0.0679995 2.50949e-20)
(1.25621 -0.0948402 -1.00696e-20)
(1.23862 -0.118115 1.04736e-21)
(1.30973 0.0792482 2.25751e-20)
(1.30413 0.0370385 -9.98138e-21)
(1.28218 0.00613247 1.04553e-20)
(1.27371 -0.0290243 1.34919e-20)
(1.25391 -0.0551958 5.1267e-21)
(1.23943 -0.0867242 5.33294e-21)
(1.22018 -0.106167 6.8104e-22)
(1.27916 0.0448643 -3.7895e-20)
(1.25976 0.0152915 -6.32132e-23)
(1.25554 -0.0221138 -2.82388e-20)
(1.23582 -0.0412712 2.9803e-21)
(1.22364 -0.0800171 -6.17847e-21)
(1.20306 -0.0949664 -1.32e-21)
(1.26044 0.0548863 -1.33457e-21)
(1.24362 0.02464 2.53377e-20)
(1.23856 -0.0132844 -3.55872e-21)
(1.22614 -0.0327205 -6.74129e-22)
(1.21138 -0.0682466 -1.14311e-21)
(1.19618 -0.0898358 -6.11264e-22)
(1.23902 0.0586971 1.9619e-20)
(1.22187 0.0366872 -4.78539e-20)
(1.22328 -0.0109916 2.48123e-21)
(1.20399 -0.029761 -2.23485e-21)
(1.20148 -0.0618455 1.28682e-21)
(1.18385 -0.0836551 -7.04751e-23)
(-0.0146491 -0.365278 -1.80319e-20)
(-0.0248837 -0.497048 -3.91847e-20)
(0.0996875 -0.433705 -1.7494e-21)
(0.0527168 -0.0729409 -1.04997e-20)
(-0.00124708 0.0689458 1.29599e-19)
(0.0948427 0.13919 -3.56923e-20)
(0.140991 0.167244 2.52046e-20)
(0.15579 0.192342 2.75304e-19)
(0.123661 0.183094 2.15912e-19)
(0.0586768 0.131705 -3.80231e-19)
(-0.146434 -0.586346 2.3117e-20)
(-0.110967 -0.702982 -4.16931e-20)
(-0.0090864 -0.76549 -9.25596e-20)
(0.0991076 -0.688695 3.52897e-20)
(0.0775473 -0.511099 -2.24038e-19)
(0.0387755 -0.132329 -8.88989e-20)
(0.059846 0.0628739 -7.12891e-20)
(0.0638597 0.113084 4.34074e-20)
(-0.010195 0.130485 -1.02574e-19)
(-0.107546 0.101931 1.33214e-19)
(-0.240785 -0.738208 1.71514e-20)
(-0.139976 -0.830679 2.74049e-20)
(-0.0491529 -0.883287 1.21976e-19)
(0.0782534 -0.903464 -8.50248e-20)
(0.114983 -0.873435 2.92061e-19)
(0.103529 -0.646083 6.48653e-20)
(0.0278972 -0.383309 2.31981e-19)
(-0.0621337 -0.171148 7.4282e-21)
(-0.187485 -0.0647894 5.24936e-20)
(-0.302899 -0.0286199 -6.58269e-21)
(-0.179668 -0.953212 -1.18506e-20)
(-0.0696763 -0.979053 -7.46673e-20)
(0.0424801 -0.980068 2.80943e-20)
(0.131524 -1.00984 -6.65256e-20)
(0.125995 -0.919999 -2.678e-19)
(0.0263131 -0.705119 7.21942e-20)
(-0.108414 -0.449876 -1.70028e-19)
(-0.308792 -0.260798 -4.88638e-19)
(-0.433276 -0.162346 -1.08395e-19)
(0.158903 -0.992561 3.75949e-19)
(0.0500904 -0.838801 1.03868e-19)
(-0.114514 -0.580635 -2.13319e-19)
(-0.335394 -0.366952 1.9954e-19)
(-0.489067 -0.238393 1.97874e-19)
(0.0855714 -0.847768 -6.06958e-20)
(-0.0295147 -0.592586 -2.55738e-20)
(-0.387033 -0.405173 -2.03627e-19)
(-0.388625 -0.2264 -4.74433e-20)
(-0.0337179 -0.548385 4.08182e-20)
(-0.255778 -0.35274 3.22279e-20)
(0.110696 -0.145938 -1.42146e-20)
(0.121864 -0.23928 7.97328e-20)
(0.675614 -0.0520898 5.54714e-20)
(1.15607 0.0213696 -3.20166e-19)
(1.17026 -0.0684407 2.23771e-23)
(1.16467 -0.0640026 1.90352e-23)
(1.16018 -0.0541073 1.68415e-22)
(1.14784 -0.050495 -9.82514e-23)
(1.13318 -0.0455176 -2.91003e-22)
(1.11852 -0.0400966 -2.04419e-23)
(1.10532 -0.035313 4.59076e-22)
(1.09521 -0.0295537 -1.23376e-22)
(1.08719 -0.0258152 -4.64092e-22)
(1.07897 -0.0232586 8.57294e-22)
(1.07012 -0.0204665 -3.23405e-22)
(1.06098 -0.017449 1.22445e-22)
(1.05264 -0.0139511 -7.09627e-22)
(1.04575 -0.0108249 8.1562e-22)
(1.04014 -0.00811192 -4.66909e-22)
(1.03511 -0.0064324 3.30457e-22)
(1.03011 -0.00515213 -1.461e-22)
(1.02561 -0.00469195 -7.36502e-23)
(1.02233 -0.00465457 -9.30879e-24)
(1.0204 -0.00491965 -2.26027e-23)
(1.01915 -0.00507211 -2.85764e-23)
(1.01822 -0.00503077 -1.5459e-22)
(1.0174 -0.00471921 3.0338e-23)
(1.01658 -0.00420633 -2.90639e-22)
(1.01579 -0.00360333 -7.76459e-23)
(1.01507 -0.00296759 1.74415e-22)
(1.01443 -0.0023678 -4.67403e-24)
(1.01392 -0.00155065 -1.70665e-23)
(1.01362 -0.000934371 1.45873e-22)
(1.01345 -0.000424953 -3.35028e-22)
(1.18417 -0.0475131 -2.5032e-21)
(1.16142 -0.0391656 5.91025e-22)
(1.14306 -0.0212344 -3.78387e-23)
(1.1279 -0.00993026 -1.64224e-22)
(1.11475 -0.00170379 -7.12812e-23)
(1.10171 0.00346219 4.13192e-23)
(1.0889 0.00409756 8.27998e-22)
(1.07683 0.00351145 -1.74029e-21)
(1.06619 0.00195904 -1.00787e-21)
(1.05833 0.000570733 2.43794e-21)
(1.05244 -0.00132069 -3.18941e-23)
(1.04793 -0.00282171 2.17981e-22)
(1.04412 -0.0046711 -4.59975e-22)
(1.0403 -0.00624432 9.19032e-22)
(1.03644 -0.00776645 7.149e-22)
(1.03327 -0.00869066 -1.24796e-21)
(1.0312 -0.00941602 -1.97707e-22)
(1.02958 -0.00932514 1.11378e-21)
(1.02771 -0.00870553 -1.55691e-21)
(1.02535 -0.00764671 -1.22863e-23)
(1.02292 -0.00663352 8.80594e-22)
(1.02077 -0.00579019 5.36826e-22)
(1.01906 -0.00511438 -7.09102e-23)
(1.01762 -0.00449513 5.48258e-22)
(1.01648 -0.00386083 -3.79225e-23)
(1.01558 -0.00318586 -2.31624e-22)
(1.01487 -0.00253086 2.03855e-22)
(1.01434 -0.00166624 2.52984e-23)
(1.01402 -0.00100103 -3.5469e-22)
(1.01383 -0.000444852 2.62768e-22)
(1.18608 -0.0254387 4.11337e-21)
(1.17524 -0.0265069 -2.59351e-22)
(1.1637 -0.020797 4.71096e-22)
(1.14772 -0.0235257 7.05358e-22)
(1.13194 -0.0231719 2.35964e-21)
(1.11582 -0.0196717 -9.01258e-22)
(1.10049 -0.0154682 -5.58842e-21)
(1.08976 -0.0113181 4.27836e-21)
(1.08174 -0.00977292 -5.66174e-22)
(1.0731 -0.00920245 -3.24543e-21)
(1.06393 -0.00790924 3.50628e-21)
(1.05488 -0.00624515 -1.08451e-21)
(1.04678 -0.00404427 -1.27632e-21)
(1.04046 -0.0023659 2.80191e-21)
(1.0357 -0.00124177 -3.62835e-22)
(1.0314 -0.000755528 -2.35774e-22)
(1.02715 -0.000421355 -2.73791e-21)
(1.02352 -0.000894858 1.04048e-21)
(1.02088 -0.00181089 2.38019e-22)
(1.01936 -0.00291198 1.7897e-22)
(1.01825 -0.0037195 7.11228e-22)
(1.01754 -0.00416083 -8.84501e-23)
(1.01691 -0.00415387 -1.57936e-22)
(1.01626 -0.00383035 -1.50962e-21)
(1.01566 -0.00337295 1.3407e-21)
(1.01507 -0.00283222 -1.3513e-21)
(1.01453 -0.00229918 -1.39778e-22)
(1.01411 -0.0015331 -3.55834e-22)
(1.01383 -0.000934613 -9.57124e-23)
(1.01365 -0.000423622 5.09388e-22)
(1.2001 -0.004356 7.87593e-21)
(1.17032 0.00506377 -3.67278e-21)
(1.14949 0.0179812 2.74274e-22)
(1.13262 0.0235858 -3.6197e-22)
(1.11832 0.0254191 1.99317e-21)
(1.10433 0.0247737 -2.38905e-21)
(1.08957 0.0209784 -5.02759e-22)
(1.0742 0.0178478 5.39317e-21)
(1.06184 0.0144694 -6.11866e-21)
(1.05484 0.0107903 -6.44538e-22)
(1.05056 0.00585313 3.3616e-21)
(1.04712 0.0013615 -5.84439e-21)
(1.04339 -0.00259426 2.04882e-21)
(1.03898 -0.00530105 2.79364e-21)
(1.03455 -0.00731623 -2.94509e-21)
(1.03129 -0.00869216 4.69702e-21)
(1.02921 -0.00970338 4.112e-22)
(1.02743 -0.00965489 -1.49424e-22)
(1.02569 -0.00889688 -4.95223e-21)
(1.02361 -0.00763963 3.56213e-21)
(1.02147 -0.0065286 -6.01008e-22)
(1.01978 -0.00572194 -5.89186e-22)
(1.01835 -0.00504543 -1.19441e-21)
(1.01714 -0.00443696 1.73635e-21)
(1.01625 -0.00382231 6.24562e-22)
(1.01551 -0.00315423 -8.22232e-22)
(1.01493 -0.00251827 5.48955e-23)
(1.01451 -0.00167461 6.97137e-22)
(1.01423 -0.00100889 4.50211e-22)
(1.01405 -0.000445321 -1.73968e-22)
(1.20494 0.0334241 1.38246e-20)
(1.1865 0.0255987 8.03108e-21)
(1.16914 0.0232762 -4.01374e-21)
(1.15132 0.0149839 -3.30677e-22)
(1.13349 0.0121583 2.059e-21)
(1.11506 0.0123939 -3.48645e-21)
(1.09895 0.011615 4.86342e-21)
(1.0886 0.00981271 7.87142e-22)
(1.0789 0.00779063 -4.68672e-21)
(1.06734 0.00671345 3.58364e-21)
(1.05711 0.00662667 -3.20766e-21)
(1.04897 0.006441 4.43175e-22)
(1.04235 0.00652126 4.04813e-22)
(1.03724 0.00602236 1.55716e-21)
(1.0332 0.00511764 -4.55375e-22)
(1.02914 0.00420187 -1.31878e-21)
(1.02536 0.00344428 -1.74384e-21)
(1.02246 0.00201706 -7.91172e-24)
(1.02047 0.000260256 1.61784e-21)
(1.01916 -0.00140806 2.04861e-21)
(1.01806 -0.00269134 -1.78007e-21)
(1.01748 -0.00350007 -9.73885e-22)
(1.01678 -0.00369744 8.47513e-22)
(1.01615 -0.00354309 -1.03898e-21)
(1.01564 -0.00321383 -8.96914e-22)
(1.0151 -0.00274164 1.06663e-21)
(1.01464 -0.00226447 -7.78767e-22)
(1.01428 -0.00153283 -4.24951e-22)
(1.01402 -0.000937313 1.55296e-22)
(1.01386 -0.000422624 -1.05332e-21)
(1.05183 0.0127266 1.05507e-20)
(1.04817 0.00594803 -4.58776e-21)
(1.0436 0.000680649 1.11518e-20)
(1.03836 -0.00285762 -6.16077e-21)
(1.03377 -0.00546938 -1.35842e-22)
(1.03059 -0.00749131 -3.55723e-21)
(1.02832 -0.00889139 4.31711e-21)
(1.02611 -0.00910069 -2.96781e-21)
(1.0245 -0.00842703 6.46033e-22)
(1.02244 -0.00717149 -1.624e-21)
(1.02076 -0.00620732 1.86078e-21)
(1.01952 -0.00555221 2.01609e-21)
(1.01815 -0.0049029 9.3588e-22)
(1.01711 -0.00437046 1.16531e-21)
(1.01631 -0.00379087 -2.50854e-21)
(1.01562 -0.0031288 1.81044e-22)
(1.0151 -0.00251767 4.33212e-22)
(1.01471 -0.0016892 1.56323e-21)
(1.01444 -0.00101714 -3.26389e-22)
(1.01427 -0.000445846 -3.03132e-22)
(1.01139 -0.179908 -5.5e-20)
(1.03417 -0.175467 9.1786e-22)
(1.04318 -0.17026 -2.61449e-20)
(1.05815 -0.16346 -3.37707e-20)
(1.07888 -0.152532 2.41987e-20)
(1.09547 -0.150436 -5.70447e-21)
(1.11298 -0.143069 -5.37816e-21)
(1.13611 -0.127924 -1.30685e-21)
(1.15778 -0.11727 3.02748e-22)
(1.16725 -0.102158 3.09021e-23)
(1.00766 -0.188818 7.02417e-20)
(1.02878 -0.191479 6.44328e-20)
(1.0493 -0.192161 -1.24729e-20)
(1.05851 -0.185779 3.14498e-20)
(1.08254 -0.172373 5.32962e-21)
(1.10072 -0.164769 -2.04734e-20)
(1.11798 -0.158242 2.46587e-21)
(1.13455 -0.142332 9.28667e-23)
(1.16681 -0.127516 -4.02809e-22)
(1.17547 -0.109269 -1.10705e-22)
(1.00113 -0.194646 5.66938e-20)
(1.02197 -0.202556 -6.00678e-20)
(1.05034 -0.204884 -1.83467e-20)
(1.0671 -0.20382 8.62888e-21)
(1.08693 -0.190203 1.92308e-20)
(1.11377 -0.179413 3.06264e-21)
(1.13016 -0.168835 3.98763e-21)
(1.14531 -0.154322 8.63449e-23)
(1.17017 -0.137979 -1.79183e-21)
(1.1885 -0.120629 6.06982e-23)
(0.996331 -0.208225 4.25967e-20)
(1.01495 -0.211221 -2.97096e-20)
(1.0472 -0.216281 8.43778e-20)
(1.07314 -0.215114 -1.19447e-20)
(1.09512 -0.205627 -6.65933e-22)
(1.12226 -0.192799 -2.30563e-21)
(1.14674 -0.181358 -5.56243e-21)
(1.16229 -0.165144 -1.20291e-21)
(1.18425 -0.148995 4.42254e-21)
(1.2044 -0.131484 6.50927e-22)
(0.995908 -0.227606 2.53059e-20)
(1.01292 -0.227269 -4.53244e-20)
(1.0428 -0.22655 -6.04622e-20)
(1.0722 -0.22858 -2.34624e-20)
(1.09921 -0.217857 -8.47641e-21)
(1.1275 -0.206839 -3.04302e-21)
(1.1537 -0.193361 6.56854e-22)
(1.17568 -0.178247 1.8972e-21)
(1.1957 -0.160734 -3.33409e-22)
(1.21934 -0.142556 -1.20723e-21)
(0.997989 -0.247535 2.65768e-20)
(1.01978 -0.249471 4.42881e-21)
(1.04602 -0.2436 1.72829e-20)
(1.07618 -0.242763 2.8108e-20)
(1.09961 -0.234467 -7.19349e-21)
(1.13254 -0.222194 2.08e-21)
(1.15653 -0.207104 -7.30869e-23)
(1.18542 -0.19248 -6.78406e-22)
(1.20226 -0.172674 -7.22727e-22)
(1.23036 -0.15614 1.77607e-21)
(0.992304 -0.26648 -3.18008e-20)
(1.02457 -0.271785 6.58089e-20)
(1.05535 -0.266604 -3.13956e-20)
(1.08631 -0.261841 -3.38788e-20)
(1.11098 -0.253255 -2.56427e-21)
(1.13994 -0.241684 1.55346e-21)
(1.16557 -0.225721 -3.32197e-22)
(1.19568 -0.207926 9.36792e-22)
(1.21579 -0.189588 -2.14511e-21)
(1.24219 -0.167518 2.14574e-21)
(0.983901 -0.286605 -9.23545e-20)
(1.01958 -0.291491 2.09201e-20)
(1.0582 -0.289745 2.19754e-20)
(1.09454 -0.283145 4.68846e-21)
(1.12404 -0.273292 4.65507e-21)
(1.15339 -0.26184 -1.51443e-21)
(1.17985 -0.24467 6.55991e-21)
(1.20884 -0.227775 -8.85669e-21)
(1.23411 -0.204137 1.02217e-20)
(1.25786 -0.185495 -2.49761e-21)
(0.979842 -0.311317 8.29281e-20)
(1.01649 -0.313839 -2.92558e-20)
(1.05593 -0.312346 1.50873e-20)
(1.09538 -0.306128 -1.63799e-21)
(1.13254 -0.293825 -7.0612e-21)
(1.16287 -0.281884 1.55542e-22)
(1.19343 -0.263547 -1.40139e-20)
(1.22147 -0.246142 9.92373e-22)
(1.24963 -0.222142 -2.61148e-21)
(1.27441 -0.200301 -3.89108e-21)
(0.981082 -0.340117 -5.769e-20)
(1.02055 -0.341393 -2.41908e-20)
(1.06072 -0.338107 2.80674e-21)
(1.09882 -0.331693 3.90148e-21)
(1.13966 -0.317072 2.12027e-21)
(1.17379 -0.303774 5.25807e-21)
(1.20591 -0.282911 3.86201e-21)
(1.23585 -0.265538 -1.86167e-21)
(1.2645 -0.239711 9.78697e-21)
(1.29069 -0.218122 3.77849e-21)
(0.979705 -0.3704 1.50757e-19)
(1.02303 -0.372187 3.5672e-20)
(1.06967 -0.367018 -2.3433e-20)
(1.1074 -0.360114 -2.04085e-21)
(1.14957 -0.344221 1.9082e-21)
(1.18627 -0.327765 -1.55821e-20)
(1.22126 -0.306383 -5.2648e-21)
(1.25179 -0.284859 -3.4694e-21)
(1.28306 -0.260412 3.36648e-21)
(1.30871 -0.234912 -3.44201e-22)
(0.974094 -0.402128 -5.88302e-20)
(1.02464 -0.405046 -2.02738e-20)
(1.07506 -0.397902 1.69891e-20)
(1.1199 -0.389053 2.07938e-21)
(1.16154 -0.37294 2.51883e-21)
(1.20027 -0.353471 -7.00214e-21)
(1.2383 -0.330335 3.99056e-21)
(1.26856 -0.306775 5.9761e-21)
(1.30231 -0.280136 -3.44376e-21)
(1.32905 -0.253723 -1.1305e-20)
(0.968412 -0.438724 3.22236e-20)
(1.0252 -0.441357 1.21868e-20)
(1.07924 -0.433567 -1.10873e-21)
(1.12975 -0.420743 3.50813e-21)
(1.17656 -0.403497 1.98316e-20)
(1.21547 -0.381842 7.64623e-21)
(1.25509 -0.355585 1.72056e-20)
(1.28891 -0.330028 -9.99544e-21)
(1.31806 -0.301886 -1.69744e-20)
(1.3528 -0.273297 1.33435e-20)
(0.967766 -0.480142 8.97511e-21)
(1.02852 -0.48065 7.19151e-21)
(1.08772 -0.472049 -2.13231e-21)
(1.14003 -0.456339 -2.24113e-21)
(1.19277 -0.434596 -6.57361e-20)
(1.23502 -0.411936 -3.25331e-20)
(1.27391 -0.382134 -5.93618e-20)
(1.31228 -0.352956 2.25044e-20)
(1.33814 -0.324263 6.36965e-21)
(1.37568 -0.292684 -9.72711e-21)
(0.966673 -0.529644 3.71036e-21)
(1.03324 -0.526384 1.29621e-20)
(1.09883 -0.515351 7.81796e-21)
(1.15435 -0.497697 -3.52024e-20)
(1.20858 -0.470299 -1.62484e-20)
(1.25643 -0.444628 3.24577e-20)
(1.29392 -0.412129 5.46041e-20)
(1.33558 -0.379465 -5.75038e-20)
(1.36072 -0.347297 2.53594e-20)
(1.3972 -0.31553 -5.68568e-22)
(0.968494 -0.582571 6.99216e-22)
(1.04081 -0.576982 2.097e-20)
(1.11356 -0.560407 5.19586e-21)
(1.1768 -0.539742 -7.48741e-21)
(1.23061 -0.507258 1.21299e-19)
(1.28363 -0.476319 -7.72913e-20)
(1.31981 -0.440116 -7.31313e-21)
(1.3627 -0.406069 3.56026e-20)
(1.38599 -0.370902 4.40085e-20)
(1.42217 -0.338822 4.76254e-21)
(0.965173 -0.645542 1.69727e-20)
(1.04932 -0.639834 -1.12925e-20)
(1.12562 -0.617051 -5.20844e-20)
(1.19851 -0.589683 7.6003e-20)
(1.25709 -0.548724 -3.9513e-20)
(1.31072 -0.509162 7.11989e-20)
(1.35175 -0.466403 1.35879e-19)
(1.38529 -0.429384 -3.42925e-20)
(1.41398 -0.395064 -4.52628e-20)
(1.43621 -0.364084 -1.27031e-20)
(0.967509 -0.713778 -6.74621e-20)
(1.05894 -0.708218 -3.17101e-20)
(1.14585 -0.684881 -7.38286e-21)
(1.21641 -0.654882 2.85379e-20)
(1.28973 -0.609156 -5.97693e-20)
(1.33066 -0.559735 7.98818e-20)
(1.38287 -0.506456 -9.30056e-20)
(1.39387 -0.457652 1.8508e-20)
(1.42291 -0.42023 -1.24614e-20)
(1.40943 -0.384779 -4.5889e-21)
(0.993997 -0.786725 5.94916e-20)
(1.087 -0.76345 4.97336e-20)
(1.19694 -0.723059 1.5335e-21)
(1.26241 -0.672603 -3.13358e-20)
(1.33865 -0.612621 7.36084e-20)
(1.36589 -0.546612 -9.13831e-20)
(1.38996 -0.480768 -1.08487e-19)
(1.36689 -0.414513 -2.82249e-21)
(1.32286 -0.368568 4.19803e-21)
(1.23982 -0.324542 3.01384e-20)
(0.736662 -0.747637 5.94653e-20)
(0.813665 -0.719863 -2.46922e-19)
(0.887231 -0.67298 -2.89765e-20)
(0.92825 -0.610831 2.84307e-19)
(0.951216 -0.538907 -2.75682e-19)
(0.94217 -0.461602 9.66345e-20)
(0.893667 -0.382766 -6.50697e-20)
(0.81598 -0.306812 2.09468e-20)
(0.663069 -0.237706 3.57024e-20)
(0.479786 -0.192328 1.98374e-20)
(0.921201 -0.131458 -1.05253e-19)
(0.939342 -0.145755 -9.56006e-20)
(0.956634 -0.162371 3.19789e-20)
(0.979936 -0.162645 4.75826e-21)
(0.89996 -0.123823 -5.88362e-20)
(0.918219 -0.139376 -2.4378e-20)
(0.94168 -0.150208 2.64203e-20)
(0.961988 -0.172332 8.5876e-20)
(0.978114 -0.166913 2.17328e-20)
(0.860867 -0.0922998 -5.83627e-20)
(0.876584 -0.112103 2.08254e-20)
(0.894795 -0.132467 4.7162e-20)
(0.913613 -0.152231 1.67379e-19)
(0.937156 -0.157276 -2.48307e-20)
(0.96486 -0.185984 -1.13765e-19)
(0.975145 -0.180006 -1.53615e-20)
(0.821027 -0.0240207 -4.83894e-21)
(0.827069 -0.0504567 4.5171e-20)
(0.836929 -0.0749133 5.66461e-21)
(0.849806 -0.100266 -6.22059e-21)
(0.866558 -0.121864 1.14927e-20)
(0.886372 -0.141641 -5.98615e-20)
(0.906288 -0.16739 -1.62096e-19)
(0.926493 -0.168701 1.60266e-19)
(0.96222 -0.199436 8.33151e-20)
(0.973244 -0.199545 -9.42967e-20)
(0.804811 -0.026262 -3.94908e-21)
(0.811314 -0.0551992 1.08537e-20)
(0.822034 -0.0817686 -5.84711e-23)
(0.835893 -0.109348 -1.48895e-20)
(0.852982 -0.133963 7.42087e-20)
(0.874896 -0.152502 2.62913e-20)
(0.897346 -0.184191 9.1224e-21)
(0.911773 -0.183732 2.08229e-20)
(0.951279 -0.213133 5.71638e-20)
(0.972089 -0.219251 -2.54579e-20)
(0.786505 -0.0287702 7.61872e-21)
(0.792999 -0.0603864 3.20916e-20)
(0.804216 -0.0893468 6.80459e-21)
(0.819112 -0.118953 2.26741e-20)
(0.836593 -0.14762 -1.17026e-19)
(0.858533 -0.164564 9.09374e-20)
(0.888792 -0.202264 -2.74985e-20)
(0.899429 -0.202825 -6.70403e-20)
(0.934683 -0.227725 -1.43191e-20)
(0.965354 -0.238428 -1.87252e-20)
(0.765254 -0.0311788 -6.63389e-21)
(0.771857 -0.0660938 3.12125e-20)
(0.783466 -0.0980441 -5.63456e-21)
(0.799589 -0.129408 -2.25284e-20)
(0.81864 -0.162904 -7.48994e-21)
(0.838457 -0.177886 -8.73782e-20)
(0.874808 -0.219348 1.27765e-19)
(0.893463 -0.22619 -6.41812e-20)
(0.918606 -0.244539 -1.69274e-20)
(0.952582 -0.257757 6.23095e-20)
(0.741677 -0.033516 -6.06598e-22)
(0.748348 -0.0717713 -3.24218e-20)
(0.760604 -0.107327 -1.16621e-19)
(0.777967 -0.14053 1.12279e-20)
(0.800125 -0.179821 -4.93259e-20)
(0.818939 -0.1943 2.96454e-20)
(0.855466 -0.235318 -9.39047e-20)
(0.887638 -0.250969 9.91544e-20)
(0.913186 -0.26636 -1.49784e-20)
(0.941268 -0.278264 -5.37822e-20)
(0.715101 -0.0360718 1.10405e-20)
(0.722194 -0.0781138 1.79493e-20)
(0.735148 -0.117671 8.86626e-20)
(0.753505 -0.152169 8.27982e-21)
(0.779417 -0.197175 -2.60672e-20)
(0.800363 -0.214177 1.03284e-20)
(0.832786 -0.252001 -7.80163e-20)
(0.874533 -0.275296 4.12538e-20)
(0.910793 -0.292423 -2.82299e-20)
(0.938903 -0.303831 8.8707e-20)
(0.685803 -0.038662 -1.78973e-20)
(0.693689 -0.0849367 -3.99194e-20)
(0.708125 -0.129427 -2.48379e-20)
(0.727423 -0.16555 5.74637e-20)
(0.756131 -0.215314 5.82798e-20)
(0.783801 -0.237284 4.19845e-20)
(0.811285 -0.27091 -5.3622e-20)
(0.855568 -0.2987 -2.99953e-23)
(0.901082 -0.318908 -2.39636e-20)
(0.938296 -0.331644 -4.65264e-20)
(0.652698 -0.0418731 1.86965e-20)
(0.661213 -0.0923095 8.53179e-21)
(0.677202 -0.142433 3.42251e-20)
(0.698624 -0.180623 -9.27241e-20)
(0.728558 -0.234486 2.65779e-20)
(0.766129 -0.264784 -3.47942e-20)
(0.793447 -0.295224 -1.31732e-19)
(0.835643 -0.324098 -1.59217e-20)
(0.885549 -0.347358 -1.01864e-19)
(0.928886 -0.36076 -9.99508e-20)
(0.616269 -0.0454325 -3.71818e-20)
(0.625998 -0.100983 6.43204e-20)
(0.643444 -0.157286 4.43258e-20)
(0.667335 -0.198333 -3.65671e-20)
(0.695738 -0.253314 4.10324e-20)
(0.743506 -0.293781 5.81795e-20)
(0.778522 -0.325621 1.33848e-19)
(0.819622 -0.354145 1.20313e-19)
(0.871952 -0.378805 1.71547e-20)
(0.919313 -0.393477 1.11211e-19)
(0.574394 -0.0497183 2.42508e-20)
(0.585155 -0.110165 2.22288e-20)
(0.604299 -0.174308 -4.6405e-20)
(0.634093 -0.221066 2.26795e-20)
(0.660513 -0.275117 -1.50755e-19)
(0.710668 -0.323569 -1.7198e-20)
(0.756978 -0.359863 -3.72719e-20)
(0.804576 -0.390028 5.54479e-20)
(0.858395 -0.415537 -2.23241e-20)
(0.911956 -0.431746 -1.40644e-19)
(0.527865 -0.0544813 -4.37748e-21)
(0.540209 -0.120649 -5.12198e-20)
(0.560256 -0.19129 -2.14586e-20)
(0.59569 -0.248025 1.086e-19)
(0.626272 -0.301964 2.7474e-19)
(0.67747 -0.355779 -3.65177e-20)
(0.728495 -0.397182 -9.8934e-20)
(0.785317 -0.430113 -4.25443e-20)
(0.84666 -0.455789 -3.41501e-20)
(0.906441 -0.474787 4.69096e-21)
(0.474263 -0.0606122 -1.56834e-20)
(0.487379 -0.133734 6.92373e-20)
(0.509128 -0.209988 -2.82077e-20)
(0.549797 -0.278038 -3.9531e-20)
(0.585716 -0.335399 -2.824e-19)
(0.639746 -0.393805 1.69441e-19)
(0.69907 -0.439214 1.07186e-19)
(0.759426 -0.477532 -8.90109e-20)
(0.828416 -0.502659 1.1885e-19)
(0.898471 -0.523016 4.25048e-20)
(0.414077 -0.0659536 1.15445e-20)
(0.429862 -0.150028 2.91432e-20)
(0.454962 -0.230818 5.52528e-21)
(0.495999 -0.310144 -8.6423e-20)
(0.543499 -0.373457 1.63039e-19)
(0.5995 -0.437177 -2.47383e-19)
(0.667123 -0.48662 5.58267e-20)
(0.737694 -0.528071 8.48084e-20)
(0.811241 -0.556823 -1.35916e-19)
(0.888769 -0.574272 -7.21775e-20)
(0.343123 -0.0728073 1.50696e-20)
(0.357794 -0.168568 7.84269e-21)
(0.391913 -0.257924 6.48606e-20)
(0.433701 -0.347078 -9.43925e-20)
(0.48807 -0.420053 1.87198e-19)
(0.553367 -0.489373 5.82795e-20)
(0.627378 -0.546308 7.23674e-20)
(0.707262 -0.5896 5.73753e-21)
(0.79293 -0.622625 5.23679e-20)
(0.876832 -0.639979 5.3562e-20)
(0.266181 -0.0815183 -1.31099e-20)
(0.279594 -0.188338 -4.45619e-20)
(0.320568 -0.287888 -1.59187e-19)
(0.367421 -0.384494 1.40825e-19)
(0.430633 -0.470589 -2.09575e-19)
(0.505542 -0.542354 -5.30873e-20)
(0.588182 -0.608989 -6.41249e-20)
(0.681403 -0.654297 -2.64854e-20)
(0.774579 -0.690368 -4.3044e-20)
(0.873126 -0.709887 1.62138e-20)
(0.170196 -0.0930614 1.90876e-20)
(0.181521 -0.217403 -5.66579e-21)
(0.229165 -0.332892 1.70774e-20)
(0.282432 -0.444036 5.77567e-20)
(0.349519 -0.543725 1.72978e-19)
(0.446334 -0.625477 -1.17288e-20)
(0.535485 -0.697774 1.67321e-20)
(0.650186 -0.745969 3.16893e-20)
(0.762058 -0.780611 -1.95655e-20)
(0.872033 -0.792465 1.73896e-20)
(0.0580079 -0.0795512 7.05113e-21)
(0.0681403 -0.195427 -3.86913e-20)
(0.105092 -0.304946 4.17309e-20)
(0.149021 -0.414207 1.06167e-20)
(0.204734 -0.508899 -2.05045e-20)
(0.284533 -0.59133 -1.21586e-19)
(0.360598 -0.660503 9.87835e-20)
(0.455202 -0.708854 -3.03459e-20)
(0.548579 -0.743418 -6.16655e-21)
(0.640594 -0.753776 4.28202e-20)
(0.966029 -0.130169 -3.1983e-22)
(0.937287 -0.141554 2.69855e-20)
(0.954479 -0.154983 -1.18459e-19)
(0.974224 -0.159095 -4.08849e-20)
(0.990542 -0.122074 0)
(1.00364 -0.122814 0)
(1.00729 -0.117895 0)
(1.01 -0.110472 0)
(1.01338 -0.101515 0)
(1.01882 -0.0912246 0)
(1.02424 -0.0809608 0)
(1.02795 -0.07118 0)
(1.02977 -0.0614544 0)
(1.0301 -0.0528197 0)
(1.03057 -0.0457762 0)
(1.03211 -0.0408185 0)
(1.03366 -0.0371886 0)
(1.03361 -0.0339008 0)
(1.03203 -0.0306037 0)
(1.02994 -0.0271 0)
(1.02771 -0.023632 0)
(1.02554 -0.0201145 0)
(1.02361 -0.0168608 0)
(1.02178 -0.014041 0)
(1.02018 -0.0117307 0)
(1.01871 -0.00983142 0)
(1.01739 -0.00821989 0)
(1.01617 -0.00681715 0)
(1.01503 -0.00557014 0)
(1.01401 -0.00442662 0)
(1.01316 -0.00328557 0)
(1.01258 -0.00183845 0)
(1.01157 -0.000871595 0)
(1.01124 -0.00038185 0)
(0.992504 -0.162597 0)
(1.00181 -0.147139 0)
(1.00725 -0.131972 0)
(1.01046 -0.118655 0)
(1.01483 -0.107589 0)
(1.02149 -0.0976293 0)
(1.0291 -0.0881238 0)
(1.03516 -0.0783794 0)
(1.03793 -0.068367 0)
(1.03819 -0.0579745 0)
(1.0373 -0.0484017 0)
(1.03584 -0.0400322 0)
(1.03452 -0.0333408 0)
(1.03351 -0.0279649 0)
(1.03252 -0.0234335 0)
(1.03116 -0.0197703 0)
(1.02955 -0.0168422 0)
(1.02774 -0.0147328 0)
(1.02572 -0.0131054 0)
(1.02373 -0.0116703 0)
(1.02177 -0.0102884 0)
(1.01999 -0.00895822 0)
(1.01838 -0.00771265 0)
(1.01695 -0.00654548 0)
(1.01565 -0.00545331 0)
(1.01448 -0.00440217 0)
(1.01352 -0.00332384 0)
(1.01289 -0.00185203 0)
(1.01207 -0.000852788 0)
(1.01176 -0.000383699 0)
(1.01344 -0.161631 3.13058e-20)
(1.02301 -0.149127 -2.58031e-20)
(1.02695 -0.136296 2.60369e-20)
(1.02946 -0.124183 -4.00177e-20)
(1.03198 -0.111317 2.69361e-20)
(1.03598 -0.0981895 7.80634e-21)
(1.04061 -0.0859855 -1.29284e-20)
(1.04378 -0.0754204 -7.04718e-21)
(1.04501 -0.065379 1.89822e-20)
(1.04467 -0.0561613 -1.64998e-20)
(1.04349 -0.0479214 1.50974e-20)
(1.0429 -0.0415299 -1.27996e-20)
(1.04224 -0.0367805 8.41894e-21)
(1.04047 -0.0328153 1.05872e-21)
(1.03773 -0.029237 -5.08368e-21)
(1.03469 -0.0257161 -5.61074e-21)
(1.03161 -0.0222809 3.63224e-21)
(1.02872 -0.0189352 -2.39892e-21)
(1.0262 -0.0158714 2.60375e-21)
(1.02389 -0.0132694 -4.47722e-21)
(1.02186 -0.0111383 3.30663e-21)
(1.02 -0.00938398 -1.3553e-21)
(1.01833 -0.00787676 2.74333e-21)
(1.01684 -0.00654649 -2.38603e-21)
(1.0155 -0.00535417 1.53625e-21)
(1.01431 -0.00426971 -1.67954e-22)
(1.01333 -0.00320655 -1.00977e-21)
(1.01271 -0.00175307 3.77715e-22)
(1.01215 -0.000789663 -5.21202e-23)
(1.0119 -0.000369202 5.72654e-22)
(1.03457 -0.149394 -2.18412e-20)
(1.03469 -0.137282 -1.60636e-20)
(1.03044 -0.122659 3.05921e-20)
(1.03205 -0.109937 -4.1054e-20)
(1.03688 -0.0984287 4.06865e-21)
(1.04345 -0.0879568 1.29119e-20)
(1.04848 -0.0789563 -9.44032e-21)
(1.05118 -0.0700031 2.04747e-21)
(1.05134 -0.0606762 -1.01768e-20)
(1.0493 -0.0510916 4.06726e-21)
(1.04669 -0.0420876 1.42357e-20)
(1.04379 -0.0344726 -2.01591e-20)
(1.04089 -0.0283982 1.09844e-20)
(1.03854 -0.0236604 2.15034e-21)
(1.03669 -0.0197503 -1.07154e-20)
(1.03486 -0.0165688 1.24619e-20)
(1.03301 -0.0141238 -6.55863e-21)
(1.03104 -0.0124157 -3.48198e-21)
(1.02871 -0.011215 1.05167e-20)
(1.0263 -0.0101618 2.48414e-21)