/*--------------------------------*- C++ -*----------------------------------*\
| =========                 |                                                 |
| \\      /  F ield         | OpenFOAM: The Open Source CFD Toolbox           |
|  \\    /   O peration     | Version:                                        |
|   \\  /    A nd           | Website:  www.openfoam.com                      |
|    \\/     M anipulation  |                                                 |
\*---------------------------------------------------------------------------*/
FoamFile
{
    version     2.0;
    format      ascii;
    class       surfaceScalarField;
    location    "125";
    object      phi;
}
// * * * * * * * * * * * * * * * * * * * * * * * * * * * * * * * * * * * * * //

dimensions      [0 3 -1 0 0 0 0];
oriented        oriented;


internalField   nonuniform List<scalar> 
2201
(
0.00297259
0.00012317
-0.00309576
0.00355542
-0.000582826
0.00456243
-0.00100701
0.00385897
0.000703459
0.00183978
0.00201919
-0.00170376
0.00354355
-0.00700078
0.00529701
-0.0119461
0.00494531
-0.0153945
0.00344843
0.0026918
-0.0180863
0.00281951
0.00105196
-0.0037483
-0.000713133
0.00294981
-0.00696515
0.005245
-0.0139113
0.00764959
-0.0193757
0.00748361
-0.023649
0.00781687
-0.0259781
0.00762603
-0.0275807
0.00654791
-0.0293375
0.0052053
0.00382614
-0.0304719
-0.0102715
0.00762923
0.00369425
-0.0171009
0.0097792
-0.0220305
0.0101746
-0.0252084
0.0108275
-0.0283141
0.0105893
-0.0305064
0.0100092
-0.0313813
0.00850096
-0.0317714
0.00693804
-0.0320236
0.00545749
0.00397471
-0.0321722
-0.0220011
0.0126611
0.0169693
-0.0259311
0.0137092
-0.0289266
0.0131701
-0.0307385
0.0126394
-0.0318533
0.0117041
-0.0324562
0.010612
-0.0327091
0.00875387
-0.0328231
0.00705202
-0.0327523
0.00538671
0.00388465
-0.0326623
-0.028362
0.0160282
0.0249949
-0.0303327
0.0156799
-0.0317324
0.0145698
-0.0326214
0.0135284
-0.0329805
0.0120632
-0.0330076
0.0106391
-0.0330576
0.00880393
-0.0330537
0.00704807
-0.0329636
0.0052966
0.00373176
-0.0328107
-0.0312084
0.0178209
0.0294157
-0.0320776
0.0165491
-0.0327668
0.0152589
-0.0331429
0.0139045
-0.0332924
0.0122128
-0.0332759
0.0106226
-0.0332573
0.00878531
-0.0332219
0.00701269
-0.0331161
0.00519083
0.00352991
-0.0329142
-0.0322769
0.0185069
0.0315909
-0.032738
0.0170101
-0.0331625
0.0156835
-0.0333211
0.014063
-0.0334875
0.0123792
-0.0335164
0.0106515
-0.0334949
0.00876383
-0.0334776
0.0069953
-0.0333363
0.0050496
0.00329685
-0.0331033
-0.0326592
0.0186986
0.0324675
-0.0330757
0.0174267
-0.0333449
0.0159526
-0.0334481
0.0141663
-0.0336835
0.0126146
-0.0337334
0.0107014
-0.0337292
0.00875967
-0.0337393
0.00700534
-0.0335708
0.00488111
0.00304951
-0.0333234
-0.0328844
0.0188919
0.0326912
-0.0332882
0.0178305
-0.0334477
0.0161122
-0.0336194
0.014338
-0.0338827
0.0128779
-0.033961
0.0107797
-0.0339981
0.00879681
-0.0340162
0.00702341
-0.0338596
0.00472448
0.00279071
-0.0336008
-0.0330537
-0.0334084
0.0181851
-0.0335389
0.0162428
-0.0338602
0.0146593
-0.0340955
0.0131131
-0.0342399
0.0109241
-0.0343392
0.00889601
-0.0343337
0.00701799
-0.0342225
0.00461324
0.00252815
-0.0339599
-0.0334934
0.0185519
-0.033737
0.0164864
-0.0340938
0.0150161
-0.0343917
0.013411
-0.0345955
0.0111279
-0.0347069
0.00900742
-0.034771
0.00708207
-0.0346246
0.00446689
0.00232057
-0.0344171
-0.0337093
-0.0338517
0.0166288
-0.0343771
0.0155415
-0.0347454
0.0137794
-0.0348977
0.0112802
-0.0351401
0.00924989
-0.0351714
0.00711336
-0.0350618
0.00435726
0.00211806
-0.0348593
-0.0340937
0.0170479
-0.0346323
0.01608
-0.0350216
0.0141686
-0.0352936
0.0115522
-0.0355041
0.00946043
-0.0356304
0.00723966
-0.0354976
0.00422444
0.00196351
-0.0353431
-0.0343518
-0.0347897
0.0165179
-0.0353623
0.0147412
-0.0357264
0.0119164
-0.035914
0.00964805
-0.0361701
0.00749571
-0.0360458
0.00410013
0.00181266
-0.0358949
-0.0350957
0.0172073
-0.0357818
0.0154274
-0.0361572
0.0122918
-0.0365377
0.0100285
-0.0366828
0.00764078
-0.0367759
0.00419322
0.0015125
-0.0364757
-0.0354784
0.0180517
-0.0362025
0.0161514
-0.0366877
0.012777
-0.0371569
0.0104977
-0.0372736
0.00775741
-0.0374492
0.00436883
0.00125727
-0.0371939
-0.0358277
-0.0366392
0.016963
-0.0372463
0.0133841
-0.0376927
0.0109441
-0.0379235
0.00798818
-0.0380052
0.00445057
0.00122176
-0.0379697
-0.0371391
0.017919
-0.037719
0.013964
-0.0383026
0.0115278
-0.0385788
0.00826433
-0.0386661
0.00453791
0.0012596
-0.038704
-0.0375752
0.0188938
-0.0383649
0.0147538
-0.0389061
0.012069
-0.0393248
0.00868303
-0.0394692
0.00468225
0.00128319
-0.0394927
-0.0380149
-0.0390083
0.0157471
-0.0395109
0.0125716
-0.0400714
0.00924355
-0.0402237
0.00483459
0.00145962
-0.0404002
0.0111376
0.00146983
0.00900181
0.00213584
0.00637151
0.0026303
0.00370928
0.00266224
0.00169663
0.00201265
0.000803348
0.00089328
0.000948313
-0.000144965
0.00177822
-0.000829912
0.00259308
-0.000814855
-0.000502681
0.0149691
0.00243626
0.0133761
0.00372883
0.0112975
0.00470885
0.0089035
0.00505628
0.00648003
0.00443612
0.00456816
0.00280515
0.00352002
0.000903177
0.00319813
-0.00050802
0.0032842
-0.000900933
-0.000966778
0.0137273
0.0125446
0.00491154
0.0108886
0.00636491
0.00884224
0.0071026
0.00669873
0.00657963
0.00469999
0.00480389
0.00332332
0.00227985
0.00262424
0.000191061
0.000976307
0.000746995
0.00370378
0.00931351
0.00777892
0.00593128
0.00389043
0.00201228
0.00668205
0.000479138
0.00381299
-0.00309191
0.00376211
-0.0098969
0.00755198
0.0107762
-0.00249908
-0.00658871
0.00790262
-0.0140281
0.0112015
-0.0205839
0.0141078
0.0151871
-0.0170138
-0.0231414
0.0173291
-0.0268742
0.0178406
0.0177286
-0.0284105
-0.0302441
0.0196741
0.0190755
-0.0320036
0.0195394
0.00113411
0.0525952
-0.0522697
0.00083127
0.0549946
-0.0546918
0.000693723
0.0578387
-0.0577011
0.000771567
0.0606991
-0.060777
0.00108853
0.0639723
-0.0642893
0.00145474
0.0677429
-0.0681091
0.00174745
0.0719523
-0.072245
0.00188578
0.076606
-0.0767443
0.00189693
0.0816233
-0.0816345
0.00183873
0.0869706
-0.0869124
0.00176095
0.0926648
-0.092587
0.00168551
0.0987874
-0.0987119
0.00161476
0.10539
-0.10532
0.00155621
0.112448
-0.112389
0.00150396
0.119979
-0.119927
0.0014371
0.128045
-0.127978
0.00136854
0.136651
-0.136582
0.00129798
0.145844
-0.145773
0.00122212
0.155692
-0.155617
0.0011485
0.166227
-0.166153
0.00107248
0.177505
-0.177429
0.00098596
0.189588
-0.189502
0.000889462
0.20252
-0.202424
0.00078166
0.21636
-0.216253
0.000664766
0.231176
-0.231059
0.000541479
0.247028
-0.246905
0.00041009
0.264003
-0.263871
0.000277132
0.282193
-0.28206
0.000143987
0.301683
-0.301549
0.322567
-0.322424
0.00448305
0.0529468
0.00441331
0.0550644
0.00446275
0.0577892
0.00440431
0.0607576
0.00430333
0.0640733
0.00427069
0.0677756
0.0043839
0.0718391
0.00461117
0.0763787
0.00485873
0.0813758
0.00505001
0.0867793
0.00517044
0.0925444
0.0052027
0.0987551
0.00516722
0.105426
0.00508619
0.112529
0.00495478
0.12011
0.00477509
0.128225
0.00458452
0.136841
0.00437451
0.146054
0.00414166
0.155925
0.00389725
0.166471
0.00362709
0.177776
0.00332746
0.189888
0.0030017
0.202846
0.0026471
0.216715
0.00226975
0.231553
0.00186533
0.247433
0.00143607
0.264432
0.000986731
0.282642
0.00050867
0.302161
0.323076
0.00930177
0.0528886
0.0092344
0.0551317
0.00930822
0.0577154
0.0095654
0.0605004
0.00987797
0.0637607
0.0101068
0.0675467
0.0101819
0.071764
0.0101194
0.0764412
0.00996632
0.0815288
0.00978531
0.0869603
0.00958755
0.0927421
0.00938061
0.098962
0.00915728
0.105649
0.00892992
0.112756
0.00865487
0.120385
0.00831609
0.128564
0.00796013
0.137197
0.00755389
0.14646
0.00711436
0.156365
0.0066608
0.166925
0.00617326
0.178263
0.00565181
0.190409
0.00509178
0.203406
0.00449207
0.217315
0.00385502
0.23219
0.0031753
0.248112
0.00245118
0.265156
0.00168634
0.283407
0.000869622
0.302977
0.323946
0.0126487
0.0528114
0.0127222
0.0550583
0.012617
0.0578206
0.0122942
0.0608232
0.0120715
0.0639834
0.0121553
0.0674629
0.0124447
0.0714746
0.0127633
0.0761226
0.0130111
0.081281
0.0131397
0.0868318
0.0131207
0.0927612
0.0129436
0.099139
0.0126739
0.105919
0.0123545
0.113076
0.0119449
0.120795
0.0114884
0.12902
0.0110306
0.137655
0.0104979
0.146993
0.00992977
0.156933
0.00932377
0.167531
0.00865369
0.178933
0.00792789
0.191135
0.00714515
0.204189
0.00630862
0.218151
0.00541928
0.23308
0.00446805
0.249064
0.00345346
0.266171
0.00237569
0.284485
0.00122587
0.304127
0.325172
0.0161012
0.0166603
0.0174587
0.0180645
0.0182837
0.018237
0.0180506
0.0178284
0.0176206
0.0174103
0.0171404
0.093031
0.0168167
0.0994628
0.0164681
0.106268
0.0160808
0.113463
0.0155532
0.121323
0.0149822
0.129591
0.0143513
0.138286
0.0135994
0.147745
0.0128243
0.157708
0.0119999
0.168355
0.0111125
0.179821
0.010168
0.19208
0.00916279
0.205194
0.00808999
0.219224
0.00695007
0.23422
0.00573042
0.250283
0.00443161
0.267469
0.00304869
0.285868
0.00157335
0.305602
0.326745
0.0206421
0.0202561
0.0198076
0.0192496
0.0185551
0.0179187
0.0171757
0.0163206
0.0154556
0.0144896
0.0134397
0.0123166
0.0111086
0.00981538
0.00843605
0.00695806
0.00538409
0.00370478
0.00191181
0.0308656
0.0333649
-0.0294592
-0.0347713
0.0324105
0.0297265
-0.0312714
0.0346442
0.0265692
-0.0288029
0.0360766
0.0238469
-0.0252793
0.0371647
0.0197595
-0.0208476
0.0384833
0.0161521
-0.0174707
0.0393089
0.0125213
-0.0133469
0.0399143
0.00848799
-0.00909345
0.0402082
0.0046125
-0.00490636
0.000580349
-0.000772333
0.0302521
0.0313965
-0.0282836
0.0317356
0.0282429
0.033606
0.0246989
0.0353688
0.0220841
0.0363907
0.0187375
0.0373882
0.0151546
0.0382989
0.0116106
0.0389462
0.00784071
0.0393647
0.00419399
0.000452273
0.0295289
0.0292329
-0.0273653
0.0311784
0.0265933
0.0326635
0.0232139
0.0343323
0.0204152
0.0356794
0.0173905
0.0366798
0.0141542
0.0374563
0.0108341
0.0381234
0.00717365
0.0384006
0.00391677
0.000148908
0.0288026
0.0271005
-0.0266701
0.0306713
0.0247246
0.0320462
0.021839
0.0335044
0.018957
0.034741
0.0161539
0.0359155
0.0129797
0.0366578
0.0100917
0.0374205
0.00641098
0.037649
0.00368834
-0.000171871
0.0280545
0.0252182
-0.0261722
0.0300018
0.0227772
0.0314761
0.0203648
0.0328931
0.01754
0.0340575
0.0149895
0.0351327
0.0119045
0.035923
0.0093014
0.0365958
0.00573818
0.0370093
0.00327492
-0.00035654
0.0275524
0.0234566
-0.0257908
0.0293049
0.0210247
0.0308504
0.0188193
0.0322065
0.0161838
0.0334513
0.0137448
0.03442
0.0109358
0.0353063
0.00841509
0.0358432
0.00520129
0.0363667
0.00275138
-0.000465531
0.0271663
0.0215604
-0.0252701
0.0287916
0.0193995
0.0303126
0.0172982
0.0315741
0.0149224
0.0328207
0.0124981
0.0337392
0.0100173
0.0346291
0.00752511
0.0351835
0.00464696
0.0356683
0.00226657
-0.000692188
0.0266848
0.0196351
-0.0247596
0.0283344
0.0177499
0.0298639
0.0157688
0.0310911
0.0136952
0.0322883
0.0113009
0.0332094
0.00909619
0.0340254
0.00670914
0.034625
0.00404735
0.0350652
0.00182629
-0.000970021
0.026226
0.0178163
-0.0244071
0.0278485
0.0161274
0.0294004
0.0142169
0.0306422
0.0124534
0.0318042
0.0101389
0.0327525
0.00814792
0.0335456
0.00591609
0.0341396
0.00345332
0.0345907
0.0013752
-0.00123865
0.0258917
0.0160933
-0.0241687
0.0274487
0.0145703
0.0289483
0.0127173
0.0302146
0.0111871
0.0313348
0.00901872
0.0322868
0.00719595
0.0330988
0.00510402
0.0336744
0.00287776
0.034139
0.000910546
-0.00151667
0.0256375
0.0144024
-0.0239467
0.0271828
0.013025
0.0285776
0.0113225
0.0298718
0.00989281
0.0309195
0.00797108
0.0318714
0.00624402
0.0326453
0.00433019
0.0332379
0.00228517
0.0336871
0.000461256
-0.00178945
0.0254182
0.0127235
-0.0237392
0.0269811
0.0114621
0.0283295
0.00997411
0.0296143
0.008608
0.0306513
0.00693411
0.0315621
0.00533324
0.0323178
0.00357442
0.0328876
0.00171543
0.0333363
1.25225e-05
-0.00205393
0.0252525
0.0110564
-0.0235854
0.0268108
0.00990386
0.0281452
0.00863968
0.0294104
0.00734277
0.0304516
0.0058929
0.0313459
0.004439
0.0320764
0.00284387
0.032617
0.00117484
0.0330793
-0.000449826
-0.00229802
0.0251559
0.00940396
-0.0235035
0.0267022
0.00835754
0.0280317
0.00731016
0.0292646
0.00610986
0.0303063
0.00485121
0.0311917
0.00355362
0.031897
0.00213856
0.0324268
0.00064504
0.0328664
-0.000889385
-0.00253491
0.0251607
0.00777716
-0.0235339
0.0266746
0.0068436
0.0280046
0.00598014
0.0291893
0.0049252
0.0302148
0.00382565
0.0310915
0.00267698
0.0317602
0.00146985
0.0322772
0.000127999
0.0326726
-0.00128477
-0.00277654
0.0252945
0.00612361
-0.023641
0.0267783
0.00535981
0.028123
0.00463543
0.0292585
0.00378974
0.030244
0.00284012
0.0311218
0.00179919
0.0317541
0.000837568
0.0322564
-0.000374337
0.0325781
-0.00160642
-0.00300916
0.0254966
0.00442702
-0.0238
0.0269636
0.00389283
0.0283397
0.00325926
0.0294734
0.0026561
0.0303751
0.00193836
0.0311417
0.00103262
0.0318181
0.000161192
0.0323245
-0.00088076
0.0325304
-0.00181228
-0.00314107
0.0257682
0.00271779
-0.024059
0.02721
0.00245106
0.0285719
0.00189736
0.029777
0.00145098
0.0307672
0.000948162
0.0314433
0.000356483
0.031856
-0.000251461
0.0321806
-0.00120534
0.032333
-0.00196475
-0.0029802
0.0263462
0.00106764
-0.024696
0.027759
0.00103823
0.029082
0.000574313
0.0301551
0.000377956
0.0310502
5.30532e-05
0.0316552
-0.000248502
0.0320487
-0.00064502
0.0318357
-0.000992311
0.0314039
-0.00153296
-0.00204815
0.0215097
-0.0204421
0.0225479
0.0231223
0.0235002
0.0235533
0.0233048
0.0226597
0.0216674
0.0201345
0.0214405
0.0421861
0.0238031
0.0402379
-0.0426006
0.0263108
0.0375051
-0.0400128
0.0349886
-0.0381369
0.0183541
0.0412734
0.0209969
0.0395434
0.0234686
0.0377662
0.0259549
0.0350187
0.0326599
0.012613
0.0409796
0.015357
0.0399938
0.0179834
0.0386469
0.0205848
0.036942
0.023067
0.0352841
0.0253333
0.0327523
0.0306279
0.00407323
0.039499
0.00688016
0.0393488
0.00966225
0.0389631
0.0124029
0.0382389
0.0150914
0.0373053
0.0176579
0.0360804
0.0201789
0.034421
0.0225493
0.0329137
0.024685
0.0306165
0.0286428
0.00408416
0.0367458
0.00682602
0.036607
0.00954373
0.0362454
0.012212
0.0355707
0.0148333
0.034684
0.0173275
0.0335861
0.0197708
0.0319777
0.0220724
0.0306122
0.0241716
0.0285174
0.0266422
0.00409146
0.0340487
0.00677405
0.0339244
0.00942701
0.0335924
0.0120302
0.0329674
0.0145984
0.0321158
0.0170352
0.0311493
0.0193846
0.0296283
0.0216144
0.0283824
0.0236627
0.0264691
0.0245142
0.00409532
0.031409
0.00672162
0.0312981
0.00932251
0.0309915
0.0118594
0.0304305
0.0143596
0.0296157
0.0167583
0.0287506
0.0190551
0.0273316
0.0212748
0.0261627
0.0231998
0.0245441
0.0224438
0.00410574
0.0288221
0.00667621
0.0287276
0.00922353
0.0284442
0.0117162
0.0279378
0.0141641
0.0271678
0.0165032
0.0264115
0.0187139
0.0251209
0.0210019
0.0238746
0.0228998
0.0226462
0.020584
0.00412303
0.026287
0.00664562
0.026205
0.00914271
0.0259471
0.0115757
0.0255049
0.0139823
0.0247612
0.0163273
0.0240665
0.0184344
0.0230138
0.0206609
0.0216482
0.0226719
0.0206352
0.0188488
0.00415084
0.0237954
0.00662669
0.0237292
0.00908926
0.0234846
0.0114857
0.0231084
0.0138081
0.0224388
0.016152
0.0217227
0.0182699
0.0208958
0.0203561
0.0195621
0.022404
0.0185873
0.0170841
0.00418874
0.0213416
0.00662291
0.021295
0.00903852
0.0210689
0.011426
0.0207209
0.0137056
0.0201592
0.0159835
0.0194448
0.0181181
0.0187612
0.020147
0.0175332
0.022121
0.0166133
0.0152584
0.00423208
0.0189189
0.00664274
0.0188843
0.00902192
0.0186898
0.011371
0.0183718
0.0136344
0.0178958
0.0158904
0.0171888
0.0179958
0.0166558
0.0200181
0.0155109
0.0219147
0.0147166
0.013434
0.00428324
0.016522
0.00666487
0.0165027
0.00902921
0.0163254
0.0113698
0.0160313
0.0135874
0.0156782
0.0158169
0.0149592
0.0179203
0.0145523
0.019918
0.0135133
0.0217986
0.012836
0.0116471
0.00434785
0.0141385
0.00671727
0.0141333
0.00904588
0.0139968
0.0113838
0.0136933
0.0136265
0.0134355
0.0157799
0.0128058
0.017915
0.0124172
0.0198769
0.0115514
0.0217679
0.010945
0.00991151
0.00441184
0.0117696
0.00678815
0.011757
0.00911917
0.0116658
0.0114009
0.0114116
0.0136957
0.0111407
0.0158122
0.0106894
0.0179602
0.0102692
0.0199033
0.00960828
0.0218167
0.00903155
0.00819438
0.00448749
0.00941532
0.0068692
0.00937526
0.00923145
0.00930356
0.0114936
0.00914951
0.0137687
0.0088656
0.015919
0.00853913
0.0180491
0.00813903
0.0200008
0.00765656
0.0219138
0.00711856
0.00646723
0.00457569
0.00705627
0.00698168
0.00696927
0.0093615
0.00692374
0.0116829
0.00682809
0.0139151
0.00663339
0.0161151
0.00633911
0.0182129
0.0060413
0.0201908
0.00567861
0.0220994
0.00520999
0.00476662
0.00467352
0.00467936
0.00710012
0.00454267
0.00949255
0.00453131
0.0118582
0.00446245
0.0140939
0.00439769
0.0163722
0.00406078
0.0184392
0.00397436
0.0204551
0.00366272
0.0223715
0.00329358
0.0030791
0.00487617
0.00219008
0.00736194
0.0020569
0.00981822
0.00207502
0.0122436
0.00203706
0.0145685
0.00207281
0.0168674
0.00176188
0.0190061
0.00183561
0.0210712
0.00159763
0.022954
0.00141077
0.00133712
0.00425727
0.00631417
0.00838919
0.0104263
0.0124991
0.0142609
0.0160966
0.0176942
0.019105
0.0387041
0.00640308
0.00723017
0.00773009
0.00829722
0.00539426
0.0479016
0.00517631
0.051455
0.00477277
0.0553408
0.00424164
0.0595493
0.00375702
0.0640847
0.00335949
0.0689359
0.00304712
0.0740256
0.00278516
0.0793154
0.00256789
0.0848243
0.00238913
0.0906002
0.00222403
0.0967021
0.00205143
0.103177
0.00185074
0.110058
0.00163731
0.117401
0.00143461
0.125276
0.00125517
0.133708
0.0011018
0.142752
0.000968492
0.152463
0.000849524
0.162914
0.000740141
0.174103
0.000639996
0.186042
0.000548257
0.198768
0.000464402
0.212362
0.000386716
0.226893
0.000312829
0.24243
0.000244799
0.25905
0.000172506
0.27687
8.54548e-05
0.295976
4.64812e-05
0.316627
0.338546
0.00709165
0.0491072
0.0062388
0.0523078
0.00545161
0.056128
0.00484615
0.0601548
0.00429015
0.0646407
0.00376338
0.0694626
0.00328016
0.0745088
0.00287033
0.0797252
0.00255444
0.0851402
0.00232714
0.0908275
0.00216491
0.0968644
0.00202201
0.10332
0.0018672
0.110213
0.00168924
0.117579
0.00149648
0.125469
0.00130732
0.133897
0.0011315
0.142928
0.000975131
0.152619
0.000838733
0.163051
0.000720994
0.174221
0.000617477
0.186146
0.000525873
0.19886
0.00044345
0.212444
0.000368074
0.226968
0.000296542
0.242502
0.000231693
0.259115
0.000162351
0.276939
8.03229e-05
0.296058
4.26382e-05
0.316664
0.338589
-0.0346588
0.0489947
-0.0348591
0.052508
-0.0349507
0.0562196
-0.035133
0.0603371
-0.0352553
0.0647631
-0.0352259
0.0694332
-0.0349881
0.074271
-0.0345613
0.0792984
-0.0339927
0.0845716
-0.0333125
0.0901472
-0.0325523
0.0961042
-0.0317307
0.102499
-0.0308525
0.109335
-0.0299174
0.116644
-0.0289114
0.124463
-0.0278245
0.13281
-0.0266521
0.141756
-0.0253919
0.151359
-0.0240309
0.16169
-0.0225558
0.172746
-0.020958
0.184548
-0.0192331
0.197135
-0.0173764
0.210588
-0.0153817
0.224974
-0.0132431
0.240363
-0.0109513
0.256823
-0.00848985
0.274478
-0.0058818
0.29345
-0.00302459
0.313807
0.335564
-0.0315747
0.049298
-0.0318657
0.052799
-0.0322179
0.0565718
-0.0324241
0.0605433
-0.032477
0.064816
-0.032358
0.0693142
-0.0320813
0.0739943
-0.0316842
0.0789013
-0.0311633
0.0840507
-0.0305329
0.0895168
-0.0298151
0.0953864
-0.0290298
0.101713
-0.0281943
0.1085
-0.0273121
0.115762
-0.026375
0.123526
-0.025373
0.131808
-0.024303
0.140686
-0.0231539
0.15021
-0.0219114
0.160447
-0.0205604
0.171395
-0.0190955
0.183083
-0.0175147
0.195554
-0.0158162
0.208889
-0.0139943
0.223152
-0.0120439
0.238413
-0.00995755
0.254736
-0.00772165
0.272242
-0.00533868
0.291067
-0.00275411
0.311222
0.33281
-0.0296495
0.0501447
-0.0298799
0.0530294
-0.0297324
0.0564244
-0.0296346
0.0604454
-0.0295543
0.0647358
-0.0293596
0.0691194
-0.029031
0.0736657
-0.0285805
0.0784508
-0.0280473
0.0835176
-0.0274669
0.0889364
-0.0268523
0.0947717
-0.0262014
0.101062
-0.0255015
0.1078
-0.0247422
0.115003
-0.023901
0.122684
-0.0229745
0.130882
-0.0219656
0.139677
-0.0208825
0.149127
-0.01972
0.159284
-0.0184718
0.170147
-0.0171318
0.181743
-0.0156962
0.194119
-0.0141607
0.207354
-0.0125197
0.221511
-0.0107683
0.236662
-0.00889974
0.252868
-0.00690213
0.270245
-0.00476676
0.288932
-0.00246512
0.308921
0.330345
-0.0249458
0.0498112
-0.0248924
0.052976
-0.0252965
0.0568285
-0.0256525
0.0608014
-0.0257035
0.0647869
-0.0255564
0.0689723
-0.0253078
0.073417
-0.0249877
0.0781307
-0.0245908
0.0831206
-0.0241106
0.0884563
-0.0235545
0.0942156
-0.0229311
0.100439
-0.022262
0.107131
-0.0215537
0.114294
-0.0208069
0.121938
-0.0200149
0.13009
-0.0191684
0.138831
-0.0182514
0.14821
-0.0172507
0.158284
-0.0161616
0.169057
-0.0149869
0.180568
-0.0137282
0.19286
-0.0123834
0.206009
-0.0109471
0.220074
-0.00941426
0.235129
-0.00778042
0.251234
-0.0060348
0.268499
-0.00416463
0.287061
-0.0021574
0.306914
0.328188
-0.0214731
0.0504367
-0.0221805
0.0536834
-0.0224913
0.0571393
-0.0224082
0.0607182
-0.022208
0.0645867
-0.0219383
0.0687026
-0.0215747
0.0730534
-0.0211435
0.0776995
-0.0206874
0.0826645
-0.0202364
0.0880052
-0.0197866
0.0937659
-0.0193288
0.0999811
-0.0188449
0.106647
-0.0183189
0.113768
-0.0177294
0.121348
-0.0170745
0.129435
-0.0163515
0.138107
-0.0155634
0.147422
-0.0147025
0.157423
-0.0137679
0.168123
-0.0127597
0.17956
-0.0116799
0.19178
-0.0105281
0.204857
-0.00930276
0.218849
-0.00799815
0.233824
-0.0066099
0.249846
-0.00512754
0.267017
-0.00353626
0.28547
-0.00183331
0.305211
0.326354
-0.0178312
0.0507972
-0.017677
0.0535292
-0.0175965
0.0570588
-0.0176466
0.0607683
-0.0176833
0.0646234
-0.017638
0.0686574
-0.017532
0.0729473
-0.0173609
0.0775284
-0.0171167
0.0824203
-0.0167851
0.0876737
-0.0163756
0.0933564
-0.015901
0.0995065
-0.0153901
0.106136
-0.014856
0.113234
-0.0143132
0.120805
-0.0137612
0.128883
-0.0131919
0.137538
-0.0125844
0.146814
-0.0119173
0.156756
-0.0111824
0.167388
-0.0103801
0.178758
-0.00951288
0.190913
-0.00858067
0.203925
-0.00758354
0.217852
-0.0065216
0.232762
-0.005392
0.248716
-0.00418441
0.265809
-0.00288443
0.28417
-0.00149548
0.303822
0.324859
-0.0134747
0.050925
-0.0137797
0.0538343
-0.0141297
0.0574087
-0.0141913
0.0608299
-0.0140554
0.0644876
-0.0137963
0.0683982
-0.0134515
0.0726025
-0.013095
0.077172
-0.0127745
0.0820999
-0.0124966
0.0873958
-0.0122401
0.0930998
-0.0119855
0.0992519
-0.011713
0.105863
-0.0114065
0.112928
-0.0110506
0.12045
-0.0106459
0.128478
-0.0101946
0.137087
-0.00970417
0.146324
-0.00917176
0.156223
-0.00859707
0.166813
-0.00797467
0.178135
-0.00730526
0.190244
-0.00658807
0.203208
-0.00582074
0.217085
-0.00500446
0.231946
-0.004139
0.247851
-0.00321384
0.264884
-0.00221463
0.283171
-0.00114743
0.302755
0.323711
-0.00951915
0.0513507
-0.00985969
0.0541748
-0.00995474
0.0575038
-0.00988115
0.0607563
-0.00978983
0.0643962
-0.00971438
0.0683228
-0.00966428
0.0725524
-0.00958579
0.0770935
-0.00944121
0.0819553
-0.00922593
0.0871805
-0.00895341
0.0928273
-0.00863515
0.0989336
-0.00829389
0.105522
-0.00794856
0.112582
-0.00761676
0.120118
-0.00729691
0.128159
-0.00698052
0.13677
-0.00664662
0.14599
-0.00628255
0.155859
-0.00588845
0.166419
-0.00546488
0.177712
-0.00501025
0.189789
-0.00452301
0.20272
-0.00400122
0.216563
-0.00344409
0.231389
-0.00285218
0.247259
-0.00221791
0.26425
-0.00152887
0.282482
-0.000791354
0.302017
0.32292
-0.00526901
0.0517133
-0.00551677
0.0544226
-0.00563408
0.0576211
-0.00561125
0.0607335
-0.00546219
0.0642472
-0.00521724
0.0680778
-0.00493584
0.072271
-0.00469886
0.0768565
-0.00455209
0.0818085
-0.0044793
0.0871077
-0.00443092
0.0927789
-0.00438035
0.0988831
-0.0043202
0.105462
-0.00423671
0.112499
-0.00411997
0.120001
-0.00398042
0.128019
-0.00381644
0.136606
-0.00362774
0.145801
-0.00341866
0.15565
-0.00319356
0.166194
-0.00295249
0.177471
-0.00270071
0.189537
-0.00243632
0.202456
-0.0021573
0.216284
-0.00186049
0.231092
-0.00154473
0.246943
-0.0012062
0.263911
-0.000833308
0.282109
-0.00043044
0.301614
0.322489
-0.00132871
-0.00159792
-0.00167796
-0.00172146
-0.00176353
-0.00179484
-0.00176885
-0.00165665
-0.00148261
-0.00128728
-0.0010954
-0.000924252
-0.000782101
-0.000672574
-0.000598299
-0.000557471
-0.00053328
-0.00050492
-0.000471323
-0.000430709
-0.00038948
-0.000354013
-0.000321857
-0.00029062
-0.00025782
-0.00021966
-0.000179819
-0.000130706
-6.59769e-05
)
;

boundaryField
{
    outlet
    {
        type            calculated;
        value           nonuniform 0();
    }
    upperWall
    {
        type            symmetryPlane;
        value           nonuniform 0();
    }
    lowerWall
    {
        type            symmetryPlane;
        value           uniform 0;
    }
    inlet
    {
        type            calculated;
        value           nonuniform 0();
    }
    cylinder
    {
        type            calculated;
        value           uniform 0;
    }
    frontAndBack
    {
        type            empty;
        value           nonuniform 0();
    }
    procBoundary1to0
    {
        type            processor;
        value           nonuniform List<scalar> 
45
(
-0.018816
-0.043972
-0.0448106
-0.0437971
-0.0156555
-0.0427378
-0.0423098
-0.0421558
-0.00979542
-0.0417452
-0.0385765
-0.0432305
-0.00653066
-0.0405127
-0.00660025
-0.0468928
-0.051237
-0.0549372
-0.0590182
-0.0636001
-0.0685383
-0.0737132
-0.0790534
-0.084607
-0.0904214
-0.096537
-0.103005
-0.109858
-0.117188
-0.125073
-0.133529
-0.142599
-0.15233
-0.162795
-0.173994
-0.185942
-0.198676
-0.212278
-0.226815
-0.242356
-0.258982
-0.276798
-0.295889
-0.316588
-0.3385
)
;
    }
    procBoundary1to2
    {
        type            processor;
        value           nonuniform List<scalar> 
63
(
0.0192268
0.0327189
0.0331266
0.0331226
0.0191385
0.0336746
0.0336978
0.017702
0.0344063
0.034634
0.0350142
0.0188652
0.0361831
0.0366003
0.036869
0.0200398
0.00305548
-0.0104605
0.0060585
0.0078995
0.00895024
0.00862048
0.000884793
0.00829633
0.0101736
0.0147428
0.0253361
0.0204036
0.0310891
0.0205886
0.0328027
0.0194279
0.0524574
0.0544992
0.0570222
0.0602174
0.0637642
0.0675096
0.0716609
0.0763448
0.0814889
0.0870421
-0.0208513
0.0932402
0.0998488
0.106716
0.114021
0.122017
0.130228
0.139029
0.1486
0.158573
0.169321
0.18087
0.193203
0.206402
0.220517
0.235599
0.251761
0.269043
0.287547
0.307395
0.328657
)
;
    }
    procBoundary1to5
    {
        type            processor;
        value           nonuniform List<scalar> 
20
(
-0.0126075
-0.0159355
-0.0143466
-0.00126252
-0.0013309
-0.00139442
-0.0014556
-0.00151883
-0.00158797
-0.00165919
-0.0017349
-0.00180943
-0.00188635
-0.00196436
-0.00204287
-0.00213324
-0.00221664
-0.0022966
-0.00238689
-0.0020672
)
;
    }
}


// ************************************************************************* //
