/*--------------------------------*- C++ -*----------------------------------*\
| =========                 |                                                 |
| \\      /  F ield         | OpenFOAM: The Open Source CFD Toolbox           |
|  \\    /   O peration     | Version:                                        |
|   \\  /    A nd           | Website:  www.openfoam.com                      |
|    \\/     M anipulation  |                                                 |
\*---------------------------------------------------------------------------*/
FoamFile
{
    version     2.0;
    format      ascii;
    class       surfaceScalarField;
    location    "147.4";
    object      phi;
}
// * * * * * * * * * * * * * * * * * * * * * * * * * * * * * * * * * * * * * //

dimensions      [0 3 -1 0 0 0 0];
oriented        oriented;


internalField   nonuniform List<scalar> 
2202
(
0.0293115
0.0686792
0.0348574
0.0780806
0.0374026
0.0917331
0.0348138
0.100875
0.0295617
0.0948236
0.0282531
0.090653
0.0256771
0.0285363
0.0306329
-0.0270543
0.034324
-0.0706847
0.034455
-0.100865
0.0329948
-0.0860738
0.0309323
-0.123493
0.0306802
-0.0694621
0.0351437
-0.0097357
0.0401754
0.0201825
0.0398373
0.117332
0.0389623
0.109904
0.0411567
0.108615
0.0463184
0.0690492
0.0482415
-0.0694183
0.0494213
-0.0952291
0.0498018
-0.15204
0.0516634
-0.137732
0.052894
0.0514459
0.0543736
0.0980526
0.0544024
0.154507
0.055833
0.137259
0.0567042
-0.139783
0.0553974
-0.172599
-0.0149055
0.0295588
0.0627171
0.0363186
0.0713207
0.0412671
0.0867846
0.0398134
0.102328
0.0355018
0.0991352
0.035086
0.0910688
0.0317591
0.0318632
0.0343511
-0.0296462
0.0359491
-0.0722827
0.03536
-0.100276
0.033937
-0.0846508
0.0305809
-0.120137
0.0312942
-0.0701754
0.0349722
-0.0134136
0.0394222
0.0157325
0.039562
0.117192
0.0386141
0.110852
0.0413715
0.105858
0.0471224
0.0632982
0.0490469
-0.0713428
0.0504142
-0.0965964
0.0503827
-0.152008
0.0512196
-0.138569
0.0525503
0.0501151
0.0537884
0.0968144
0.0533526
0.154943
0.0559063
0.134705
0.0570864
-0.140963
0.0553819
-0.170895
-0.0127629
0.0320786
0.0543763
0.0388081
0.0645913
0.0456611
0.0799316
0.0469103
0.101079
0.0440838
0.101962
0.0431497
0.0920028
0.0390565
0.0359564
0.0388277
-0.0294174
0.0383604
-0.0718155
0.0363175
-0.0982335
0.0340214
-0.0823547
0.0292954
-0.115411
0.0308212
-0.0717013
0.0343821
-0.0169746
0.0391776
0.0109371
0.040357
0.116013
0.0391763
0.112033
0.0422062
0.102828
0.0478204
0.057684
0.0492719
-0.0727942
0.050701
-0.0980255
0.0504447
-0.151752
0.0504867
-0.138611
0.0522135
0.0483883
0.0533853
0.0956426
0.0525506
0.155778
0.0559792
0.131276
0.0573145
-0.142298
0.055085
-0.168665
-0.0104803
0.0346324
0.0436686
0.0417535
0.0574702
0.0498857
0.0717994
0.0545072
0.0964575
0.0531024
0.103367
0.0521733
0.0929319
0.0468897
0.04124
0.0441788
-0.0267066
0.0424056
-0.0700422
0.0391803
-0.0950082
0.035151
-0.0783254
0.0285105
-0.10877
0.0309785
-0.0741692
0.0349116
-0.0209077
0.0391816
0.00666704
0.0409751
0.114219
0.0395348
0.113473
0.0428118
0.0995507
0.0484901
0.0520057
0.0498265
-0.0741307
0.0514416
-0.0996405
0.0508975
-0.151208
0.0499187
-0.137632
0.0516858
0.0466213
0.0526279
0.0947004
0.0516367
0.156769
0.0559631
0.12695
0.0575101
-0.143845
0.0548248
-0.16598
-0.0079798
0.0359144
0.0327115
0.0450025
0.0483821
0.0536581
0.0631437
0.0610577
0.0890579
0.0631976
0.101227
0.0630566
0.093073
0.055996
0.0483006
0.0500988
-0.0208094
0.0463421
-0.0662855
0.042178
-0.090844
0.0368559
-0.0730034
0.0283164
-0.100231
0.0311012
-0.0769541
0.035459
-0.0252655
0.0387889
0.00333713
0.0420587
0.110949
0.0411353
0.114397
0.0441297
0.0965564
0.0490149
0.0471205
0.0497037
-0.0748196
0.0513824
-0.101319
0.0507466
-0.150572
0.0490114
-0.135897
0.0509431
0.0446896
0.0519613
0.0936822
0.0510722
0.157658
0.0560931
0.121929
0.0575584
-0.14531
0.0543095
-0.162731
-0.00524857
0.0350734
0.0464448
0.0370107
0.0562718
0.0533168
0.0653058
0.0800239
0.0694284
0.0971041
0.069364
0.0931373
0.0634252
0.0542393
0.0559665
-0.0133506
0.0499294
-0.0602484
0.0453398
-0.0862544
0.0392213
-0.0668849
0.0283524
-0.089362
0.0302446
-0.0788463
0.0360778
-0.0310987
0.0395358
-0.000120908
0.0435456
0.10694
0.0425469
0.115395
0.0455133
0.09359
0.0498522
0.0427817
0.0501067
-0.0750741
0.0515987
-0.102811
0.0507516
-0.149725
0.0483107
-0.133456
0.0499154
0.0430849
0.050756
0.0928417
0.0502907
0.158123
0.0561297
0.11609
0.0575831
-0.146764
0.0537817
-0.158929
-0.00226729
0.0451789
0.0264602
0.057009
0.0414867
0.0678541
0.0691788
0.075202
0.0897562
0.0775962
0.0907431
0.0729922
0.0588433
0.0628161
-0.00317456
0.0530989
-0.0505312
0.0476333
-0.0807888
0.042041
-0.0612925
0.0293218
-0.0766428
0.0301315
-0.079656
0.0373245
-0.0382917
0.0405568
-0.00335322
0.0451236
0.102373
0.0448537
0.115665
0.04776
0.0906838
0.0508132
0.0397284
0.0500084
-0.0742693
0.0509029
-0.103706
0.0498364
-0.148659
0.0470455
-0.130665
0.0485004
0.04163
0.0496087
0.0917334
0.0498403
0.157892
0.0562093
0.109721
0.0574417
-0.147996
0.0529584
-0.154446
0.000958448
0.0418687
0.0176078
0.0554944
0.0278611
0.0668896
0.0577836
0.0755308
0.081115
0.0784611
0.0878128
0.0743059
0.0629985
0.0661411
0.00499028
0.0550351
-0.0394252
0.048548
-0.0743016
0.0441541
-0.0568986
0.0308916
-0.0633803
0.0292235
-0.0779879
0.0370981
-0.0461662
0.0414502
-0.00770532
0.0463014
0.0975216
0.0463889
0.115578
0.0496584
0.0874142
0.052588
0.0367988
0.0506522
-0.0723334
0.0504782
-0.103532
0.0488848
-0.147065
0.0459283
-0.127709
0.0469602
0.0405981
0.0479763
0.0907173
0.0490389
0.156829
0.0560869
0.102673
0.0572609
-0.14917
0.0521104
-0.149296
0.00440142
0.0372809
0.012454
0.0509502
0.0141917
0.0657512
0.0429827
0.0765962
0.07027
0.0811533
0.0832557
0.079403
0.0647488
0.0706136
0.0137797
0.0574777
-0.0262893
0.0487312
-0.0655551
0.0457514
-0.0539188
0.0336889
-0.0513179
0.0293638
-0.0736628
0.0374666
-0.054269
0.0436282
-0.0138669
0.0481108
0.0930389
0.0486606
0.115028
0.0517701
0.0843046
0.0539397
0.0346292
0.0509064
-0.0693001
0.0493119
-0.101937
0.0473753
-0.145129
0.0445005
-0.124834
0.0453684
0.0397303
0.0465612
0.0895245
0.0486136
0.154777
0.0560366
0.0952502
0.056806
-0.149939
0.0509769
-0.143466
0.00799578
0.032392
0.0423234
0.00426027
0.0580191
0.027287
0.0709476
0.0573415
0.0786121
0.0755913
0.0780166
0.0653443
0.0710981
0.0206981
0.0586978
-0.0138889
0.0490267
-0.0558841
0.0462838
-0.0511759
0.0367623
-0.0417964
0.0298098
-0.0667103
0.0360053
-0.0604645
0.043597
-0.0214586
0.0488525
0.0877834
0.0496947
0.114186
0.0526021
0.0813972
0.0549324
0.0322989
0.051995
-0.0663626
0.0486153
-0.0985576
0.0461343
-0.142648
0.0431587
-0.121858
0.0434193
0.0394697
0.0447132
0.0882305
0.047837
0.151653
0.0557773
0.08731
0.0562384
-0.150401
0.0498534
-0.137081
0.0117744
0.0375081
-0.00277696
0.0461622
0.0186329
0.0532521
0.0502515
0.0609381
0.0679053
0.0670015
0.0592809
0.0724968
0.0152028
0.0684489
-0.00984103
0.060597
-0.0480321
0.0556085
-0.0461874
0.0474236
-0.0336115
0.0404507
-0.0597374
0.0404814
-0.0604952
0.0404554
-0.0214325
0.0382972
0.0899415
0.0396175
0.112865
0.0483173
0.0726974
0.0558448
0.0247715
0.0564131
-0.066931
0.054069
-0.0962134
0.0505066
-0.139085
0.0422042
-0.113556
0.0369784
0.0446954
0.0368758
0.0883331
0.0416182
0.14691
0.052582
0.0763463
0.0529312
-0.15075
0.0447315
-0.128882
0.016161
0.0393115
-0.00870734
0.0481081
0.00983624
0.0569578
0.0414018
0.066325
0.0585381
0.0732328
0.0523731
0.0775198
0.0109158
0.0714909
-0.00381211
0.0625837
-0.0391249
0.0578871
-0.0414908
0.0508828
-0.0266072
0.044826
-0.0536806
0.045099
-0.0607682
0.0451556
-0.0214891
0.0427926
0.0923045
0.045369
0.110289
0.0552125
0.0628539
0.0623897
0.0175943
0.0617286
-0.06627
0.0580141
-0.0924988
0.053304
-0.134375
0.0443141
-0.104566
0.0380683
0.0509413
0.0383434
0.088058
0.0448864
0.140367
0.0569273
0.0643054
0.0562719
-0.150094
0.0467032
-0.119313
0.0210225
0.0417572
-0.0108983
0.0485485
0.00304499
0.0581372
0.0318131
0.0698082
0.0468671
0.077205
0.0449763
0.0809242
0.00719655
0.0757165
0.00139558
0.0676893
-0.0310977
0.0644849
-0.0382864
0.0575082
-0.0196305
0.0497135
-0.0458859
0.0496879
-0.0607426
0.050764
-0.0225652
0.0483236
0.0947448
0.0518479
0.106765
0.0625527
0.0521491
0.0694572
0.0106899
0.0674074
-0.0642202
0.0618306
-0.086922
0.0560521
-0.128597
0.0464203
-0.0949344
0.0393012
0.0580605
0.0403404
0.0870187
0.0490038
0.131704
0.0616482
0.051661
0.0596072
-0.148053
0.0484748
-0.108181
0.0263437
0.0478256
-0.00896723
0.0504897
0.000380905
0.0590428
0.0232599
0.0728007
0.0331092
0.0803697
0.0374074
0.0822596
0.00530664
0.0780749
0.00558032
0.0688611
-0.0218839
0.0644705
-0.0338959
0.0594643
-0.0146243
0.0532266
-0.0396482
0.0538791
-0.0613951
0.0554242
-0.0241103
0.0529686
0.0972005
0.0586427
0.101091
0.0696611
0.0411307
0.0759337
0.00441725
0.0727003
-0.0609868
0.0656263
-0.079848
0.0585058
-0.121476
0.0474354
-0.083864
0.0398006
0.0656953
0.0426236
0.0841957
0.0537326
0.120595
0.0665008
0.0388927
0.0628404
-0.144393
0.0500618
-0.0954021
0.0320853
0.0557152
-0.00519708
0.0560128
8.33025e-05
0.0628614
0.0164113
0.0756972
0.0202734
0.0808472
0.0322574
0.080846
0.00530781
0.0791876
0.00723867
0.0724516
-0.0151478
0.0698121
-0.0312563
0.0684127
-0.0132249
0.06082
-0.0320555
0.0572871
-0.0578622
0.0590453
-0.0258685
0.0582486
0.0979972
0.0663327
0.0930066
0.0774068
0.0300566
0.0820666
-0.000242543
0.0775421
-0.0564623
0.0692517
-0.0715577
0.0609212
-0.113146
0.048589
-0.0715318
0.0407508
0.0735335
0.0456218
0.0793247
0.0590665
0.10715
0.0716015
0.0263577
0.065908
-0.138699
0.0513481
-0.0808421
0.0380717
0.0633168
-0.00285309
0.0630919
0.00030816
0.0665344
0.0129688
0.0747299
0.0120779
0.0791256
0.0278617
0.0804769
0.00395657
0.0816456
0.00606988
0.0762161
-0.00971834
0.0713692
-0.0264094
0.0710924
-0.0129481
0.0647548
-0.025718
0.0584054
-0.0515128
0.0597237
-0.0271869
0.0631908
0.0945301
0.0754471
0.0807504
0.0849147
0.020589
0.0868989
-0.00222671
0.0818944
-0.0514578
0.0727174
-0.0623807
0.0622275
-0.102656
0.0480364
-0.0573408
0.0415133
0.0800567
0.0493354
0.0715026
0.0648206
0.0916652
0.0766774
0.0145008
0.0685689
-0.130591
0.0522573
-0.0645305
0.0439982
0.0691735
-0.00142788
0.0689524
0.000529317
0.0706751
0.0112461
0.0751475
0.00760551
0.0800853
0.022924
0.0815591
0.00248275
0.0834524
0.00417659
0.0823457
-0.00861171
0.0776698
-0.0217334
0.0785228
-0.0138012
0.0738164
-0.0210116
0.0612027
-0.038899
0.0588232
-0.0248073
0.0692747
0.0840786
0.0847352
0.0652898
0.090432
0.0148922
0.0909332
-0.00272786
0.0855407
-0.0460653
0.075775
-0.0526151
0.0641121
-0.0909927
0.0490384
-0.0422671
0.0448502
0.0842448
0.0548876
0.0614652
0.0713559
0.0751968
0.0821844
0.00367239
0.0709554
-0.119362
0.0527844
-0.0463595
0.0494598
0.0749514
-0.000708134
0.0743187
0.00116208
0.0759387
0.00962609
0.0789712
0.00457297
0.0843464
0.0175488
0.0855988
0.0012304
0.0867311
0.00304429
0.0851648
-0.00704547
0.0798527
-0.0164212
0.078595
-0.0125435
0.0742847
-0.0167013
0.0627252
-0.0273396
0.0597142
-0.0217963
0.0759096
0.0678832
0.092571
0.0486284
0.095608
0.0118552
0.0949715
-0.00209134
0.0881842
-0.0392781
0.0765641
-0.0409949
0.0628019
-0.0772305
0.048395
-0.0278602
0.0502336
0.0824062
0.0620612
0.0496376
0.078293
0.058965
0.0877917
-0.00582632
0.0730349
-0.104605
0.0532863
-0.0266109
0.0537502
0.0806224
-0.000427981
0.080464
0.00132046
0.0827931
0.00729699
0.083964
0.00340207
0.088612
0.0129007
0.0901589
-0.000316497
0.0908039
0.00239935
0.0904836
-0.0067252
0.0855812
-0.0115188
0.083813
-0.0107753
0.0804997
-0.013388
0.0705719
-0.0174118
0.0658894
-0.0171138
0.0836522
0.0501204
0.0979738
0.0343068
0.0974875
0.0123415
0.0961584
-0.000762155
0.0911373
-0.034257
0.0826644
-0.032522
0.067976
-0.0625421
0.0533926
-0.0132768
0.0595355
0.0762634
0.070264
0.038909
0.085288
0.043941
0.0935295
-0.0140678
0.0745782
-0.0856539
0.0534575
-0.00549017
0.0559782
0.0871666
-0.000684771
0.0868575
0.00162952
0.08911
0.00504456
0.0900935
0.00241855
0.0940867
0.00890752
0.0943332
-0.000562942
0.0948247
0.00190778
0.093886
-0.00578648
0.090337
-0.00796975
0.0891012
-0.00953956
0.085374
-0.00966075
0.0793917
-0.0114295
0.0745944
-0.0123165
0.0885587
0.0361561
0.100069
0.0227962
0.101555
0.0108561
0.10184
-0.00104733
0.0926469
-0.0250641
0.0827107
-0.0225859
0.0689288
-0.0487602
0.0581117
-0.00245973
0.0715874
0.0627877
0.0818004
0.028696
0.0941266
0.0316149
0.0990376
-0.0189788
0.0753701
-0.0619864
0.0548734
0.0150065
0.0545499
0.0938541
-0.00107572
0.0938027
0.00168093
0.0959867
0.00286056
0.0962512
0.00215409
0.0994248
0.00573391
0.0994073
-0.000545481
0.0998502
0.00146488
0.0991635
-0.00509975
0.0958135
-0.00461975
0.0950004
-0.00872646
0.0911786
-0.00583893
0.0878901
-0.00814108
0.0838054
-0.00823176
0.0942184
0.0257431
0.102706
0.0143084
0.102621
0.0109417
0.105158
-0.00358491
0.0999442
-0.0198502
0.093084
-0.0157256
0.0802272
-0.0359034
0.0710709
0.00669655
0.0865544
0.0473042
0.09224
0.0230103
0.0972699
0.026585
0.100671
-0.0223803
0.0797767
-0.0410917
0.0621961
0.0325872
0.0509461
0.101055
-0.00142147
0.101034
0.0017016
0.102746
0.00114944
0.10281
0.00208938
0.105336
0.00320839
0.104919
-0.00012822
0.105115
0.00126824
0.104429
-0.00441329
0.101961
-0.00215156
0.101117
-0.00788316
0.098588
-0.00330969
0.0964053
-0.00595835
0.0928205
-0.00464693
0.101011
0.0175524
0.107532
0.00778711
0.108197
0.0102769
0.108645
-0.00403287
0.102263
-0.013468
0.0971738
-0.0106363
0.0874546
-0.0261842
0.0832975
0.0108537
0.0988856
0.0317161
0.103405
0.0184905
0.1053
0.0246908
0.100894
-0.0179746
0.0803944
-0.0205922
0.0716792
0.0413025
0.0446219
0.108573
-0.00169927
0.108597
0.00167782
0.109833
-8.62201e-05
0.109832
0.00209036
0.11146
0.00158
0.111111
0.000221531
0.111299
0.0010795
0.110613
-0.00372657
0.108848
-0.000386599
0.108167
-0.00720259
0.10591
-0.00105244
0.104842
-0.00489059
0.102764
-0.00256899
0.108363
0.0119534
0.112721
0.00342962
0.113531
0.00946667
0.114718
-0.00522026
0.109159
-0.00790844
0.104957
-0.00643452
0.098101
-0.0193284
0.0950785
0.0138762
0.107203
0.0195914
0.110578
0.015116
0.112334
0.0229348
0.110332
-0.0159732
0.094917
-0.00517682
0.0897189
0.0465005
0.03886
0.116417
-0.00184478
0.116488
0.00160713
0.117219
-0.000817205
0.117277
0.0020324
0.11829
0.000566576
0.118111
0.000400903
0.118121
0.00106949
0.117551
-0.00315718
0.116407
0.000757744
0.11544
-0.00623549
0.11427
0.000117606
0.11342
-0.00404089
0.112051
-0.00119932
0.116278
0.00772558
0.11907
0.000638049
0.119811
0.00872599
0.119874
-0.00528316
0.115836
-0.00387075
0.112602
-0.00320118
0.107308
-0.0140336
0.106638
0.0145458
0.114443
0.0117868
0.117116
0.0124423
0.118364
0.0216872
0.114273
-0.0118821
0.104627
0.00446866
0.106191
0.044937
0.0338198
0.124535
-0.0017621
0.124827
0.00131509
0.125019
-0.00100919
0.125386
0.00166467
0.125772
0.000181099
0.125789
0.000384021
0.125878
0.000980645
0.125204
-0.00248326
0.124842
0.00111987
0.12356
-0.00495405
0.123077
0.000600826
0.122223
-0.0031867
0.121725
-0.000701123
0.124407
0.00504293
0.125787
-0.000741563
0.127145
0.00736785
0.126373
-0.00451132
0.123901
-0.00139858
0.121472
-0.000772223
0.117098
-0.00966004
0.118166
0.0134778
0.122021
0.00793188
0.124533
0.00993031
0.126728
0.0194923
0.121463
-0.00661648
0.11625
0.00968135
0.121059
0.0401276
0.0296498
0.133173
-0.00153727
0.133543
0.000945807
0.133509
-0.000975848
0.133911
0.00126288
0.134109
-1.72008e-05
0.13418
0.000313128
0.134354
0.000806686
0.133708
-0.00183735
0.133712
0.0011158
0.132424
-0.0036656
0.132327
0.000697773
0.131582
-0.00244123
0.131201
-0.000320294
0.133125
0.00311889
0.133591
-0.00120776
0.135015
0.00594403
0.133941
-0.00343774
0.132398
0.000144548
0.130817
0.000809195
0.127192
-0.00603486
0.129104
0.0115656
0.131107
0.00592862
0.132593
0.00844375
0.134872
0.0172137
0.130217
-0.00196193
0.127994
0.0119046
0.133825
0.034297
0.0261869
0.14244
-0.0012431
0.14282
0.000565905
0.142656
-0.000811611
0.143097
0.000821198
0.143163
-8.2617e-05
0.143262
0.000213727
0.143475
0.000593216
0.142887
-0.00124869
0.143103
0.000899987
0.141959
-0.00252247
0.142002
0.000654949
0.141308
-0.00174734
0.141163
-0.00017446
0.142255
0.00202616
0.142241
-0.00119334
0.143639
0.0045464
0.1424
-0.00219894
0.141647
0.000897326
0.140643
0.00181325
0.137772
-0.00316387
0.139818
0.00951967
0.140547
0.00519971
0.141601
0.00738972
0.143986
0.0148289
0.140118
0.0019057
0.139395
0.0126279
0.145114
0.0285776
0.0230632
0.152446
-0.000965705
0.152724
0.000288385
0.152585
-0.000673025
0.152901
0.000505298
0.152966
-0.00014693
0.153028
0.000151593
0.153225
0.000395553
0.152784
-0.000807369
0.152967
0.000716647
0.152114
-0.0016688
0.152163
0.000606193
0.151603
-0.0011876
0.151448
-1.97778e-05
0.15212
0.00135471
0.151864
-0.000937782
0.152982
0.00342793
0.151949
-0.00116583
0.151538
0.00130842
0.150999
0.00235223
0.148844
-0.00100886
0.150523
0.00784082
0.150862
0.00486051
0.151513
0.00673935
0.153614
0.0127276
0.150928
0.00459203
0.151061
0.0124946
0.156088
0.0235502
0.020195
0.163178
-0.000733623
0.163357
0.000109444
0.16323
-0.000546497
0.163455
0.000281269
0.163476
-0.000168764
0.16353
9.77279e-05
0.163657
0.000268716
0.163341
-0.00049166
0.163478
0.000580261
0.162847
-0.0010377
0.162893
0.000559907
0.162419
-0.000714086
0.162336
6.3499e-05
0.162684
0.00100659
0.162355
-0.00060841
0.163223
0.00255967
0.162392
-0.000334412
0.162168
0.0015321
0.161915
0.00260552
0.160374
0.000531727
0.161699
0.00651628
0.161848
0.00471082
0.162302
0.00628529
0.164143
0.0108874
0.162556
0.00617851
0.163078
0.0119725
0.167246
0.0193829
0.0175608
0.174643
-0.00055534
0.174726
2.63132e-05
0.174624
-0.000444124
0.174751
0.000153894
0.174748
-0.000165905
0.174779
6.73387e-05
0.174843
0.00020409
0.174633
-0.000281437
0.174709
0.000504511
0.174261
-0.000590219
0.1743
0.000521436
0.173921
-0.000335492
0.173849
0.000135892
0.174033
0.000822702
0.173721
-0.000296777
0.17432
0.00196085
0.173735
0.000250394
0.173598
0.00166914
0.173519
0.0026842
0.172501
0.00154978
0.173468
0.00555015
0.173594
0.00458483
0.174048
0.00583116
0.17558
0.00935472
0.174831
0.00692798
0.175593
0.0112102
0.178982
0.015994
0.015165
0.186845
-0.000404551
0.186875
-4.07833e-06
0.186772
-0.000341608
0.186839
8.73045e-05
0.186804
-0.000130691
0.186816
5.46791e-05
0.186842
0.000178743
0.186694
-0.000133688
0.186752
0.000446596
0.186437
-0.000275608
0.186477
0.000482111
0.186187
-4.5365e-05
0.186124
0.000198941
0.186202
0.000744011
0.18592
-1.42773e-05
0.186318
0.00156268
0.185916
0.000651937
0.185865
0.00172071
0.185915
0.00263409
0.185319
0.0021456
0.186053
0.0048158
0.186201
0.00443683
0.186617
0.00541537
0.187894
0.00807778
0.187805
0.00701742
0.188811
0.0102039
0.191499
0.0133056
0.0130452
0.199846
-0.000278776
0.199838
4.48015e-06
0.199739
-0.000243118
0.199755
7.16683e-05
0.199705
-8.09633e-05
0.199692
6.72495e-05
0.199697
0.000174043
0.199596
-3.27654e-05
0.199642
0.000401202
0.199441
-7.49106e-05
0.199478
0.000445081
0.199287
0.000145662
0.199221
0.000264341
0.19924
0.000725892
0.199007
0.000218234
0.199231
0.00133834
0.198976
0.000907168
0.19901
0.00168737
0.199146
0.00249727
0.198908
0.00238419
0.199521
0.00420276
0.199692
0.00426598
0.200075
0.00503243
0.201165
0.00698742
0.201531
0.00665175
0.202714
0.0090206
0.204872
0.0111474
0.0111893
0.213687
-0.000171555
0.213671
2.08776e-05
0.213577
-0.00014898
0.213573
7.52058e-05
0.213516
-2.38612e-05
0.213493
9.08405e-05
0.21349
0.000176611
0.213409
4.8179e-05
0.213452
0.000358263
0.213319
5.8398e-05
0.213355
0.00040918
0.213242
0.000258152
0.213185
0.000321446
0.213204
0.000706723
0.213021
0.000401599
0.213165
0.00119461
0.213027
0.001045
0.213099
0.00161504
0.213295
0.00230157
0.213292
0.0023869
0.21382
0.00367439
0.214097
0.00398919
0.21452
0.00460924
0.215463
0.00604483
0.216066
0.00604878
0.217318
0.00776878
0.219139
0.00932593
0.00953847
0.228446
-8.96321e-05
0.22843
3.64884e-05
0.228352
-7.01611e-05
0.228347
8.00671e-05
0.228293
2.98397e-05
0.228274
0.000110271
0.228266
0.00018404
0.228206
0.000108289
0.228241
0.000323395
0.228149
0.000150032
0.228183
0.000375356
0.228123
0.000318559
0.228086
0.000357925
0.228128
0.000664811
0.228018
0.000511476
0.228145
0.0010681
0.228104
0.00108566
0.228204
0.00151566
0.22843
0.00207511
0.22855
0.00226641
0.229042
0.00318282
0.229447
0.00358433
0.229948
0.00410775
0.230824
0.00516908
0.231542
0.00533132
0.23274
0.00657083
0.234328
0.007737
0.00801976
0.244196
-2.98222e-05
0.244186
4.66334e-05
0.24413
-1.34481e-05
0.244126
8.32984e-05
0.244091
6.50661e-05
0.244077
0.00012417
0.244079
0.000182063
0.244038
0.00014963
0.244071
0.000290648
0.244015
0.000205193
0.244044
0.00034705
0.244026
0.00033627
0.244011
0.000372605
0.24408
0.000596579
0.244045
0.000545794
0.244176
0.00093771
0.244228
0.00103371
0.244361
0.00138181
0.24461
0.00182652
0.244823
0.00205327
0.245292
0.00271351
0.245785
0.00309215
0.246372
0.00351997
0.247233
0.0043087
0.248013
0.00455101
0.249126
0.0054583
0.250551
0.00631116
0.00659227
0.261027
8.74392e-06
0.261023
5.05277e-05
0.260986
2.35742e-05
0.260989
8.04388e-05
0.260972
8.2625e-05
0.26097
0.000125563
0.260983
0.000169463
0.260966
0.000165932
0.261004
0.000253253
0.260984
0.000224623
0.261021
0.00031027
0.261036
0.000321298
0.261051
0.000357315
0.261138
0.000510387
0.261163
0.000520417
0.261308
0.000792586
0.26143
0.00091235
0.26161
0.00120134
0.261897
0.00153952
0.262188
0.00176252
0.262662
0.00223919
0.263211
0.00254367
0.26385
0.00288036
0.264696
0.00346285
0.26553
0.00371708
0.266603
0.00438516
0.267917
0.00499718
0.00523746
0.279023
2.69719e-05
0.279023
4.98128e-05
0.279008
3.91166e-05
0.279015
7.28851e-05
0.279015
8.2645e-05
0.279028
0.000112979
0.279052
0.000145896
0.279064
0.000153753
0.279108
0.000209006
0.279126
0.00020621
0.279178
0.000259016
0.279222
0.000277227
0.279271
0.000307853
0.27937
0.000411552
0.279447
0.000443122
0.279611
0.000629283
0.279781
0.000741703
0.280018
0.000964983
0.280344
0.00121309
0.280705
0.00140142
0.281209
0.00173489
0.281792
0.00196153
0.282461
0.00221089
0.283302
0.00262214
0.284178
0.00284111
0.285242
0.003321
0.286492
0.00374734
0.00393196
0.298263
2.82913e-05
0.298272
4.08805e-05
0.298274
3.6927e-05
0.29829
5.7259e-05
0.298306
6.61555e-05
0.298332
8.7264e-05
0.298369
0.000108603
0.298404
0.000118815
0.298461
0.000152157
0.29851
0.000157342
0.298579
0.000189985
0.298651
0.000204803
0.29873
0.000228729
0.298848
0.000294075
0.298966
0.000325108
0.299151
0.000444621
0.299365
0.000527621
0.299648
0.000681248
0.300015
0.000846171
0.300437
0.00098
0.300976
0.00119571
0.301591
0.00134651
0.302291
0.00151075
0.303137
0.00177643
0.304044
0.00193401
0.305119
0.00224637
0.306346
0.00251969
0.00264463
0.318852
1.82894e-05
0.318869
2.3649e-05
0.318883
2.28691e-05
0.318908
3.21159e-05
0.318937
3.76305e-05
0.318976
4.82367e-05
0.319025
5.91268e-05
0.319078
6.5663e-05
0.319149
8.14985e-05
0.31922
8.6529e-05
0.319308
0.000102128
0.319402
0.000110914
0.319507
0.000123732
0.319645
0.000155707
0.319796
0.000174528
0.320007
0.000233305
0.320256
0.00027823
0.32058
0.000357305
0.320986
0.000440518
0.321455
0.000511018
0.322033
0.000618045
0.322685
0.00069397
0.323419
0.000776848
0.324287
0.000908566
0.32523
0.00099058
0.32633
0.00114655
0.327567
0.00128246
0.00134676
0.340908
0.340932
0.340955
0.340987
0.341025
0.341073
0.341132
0.341198
0.341279
0.341366
0.341468
0.341579
0.341702
0.341858
0.342033
0.342266
0.342544
0.342901
0.343342
0.343853
0.344471
0.345165
0.345942
0.34685
0.347841
0.348988
0.35027
)
;

boundaryField
{
    outlet
    {
        type            calculated;
        value           nonuniform List<scalar> 
40
(
0.0534185
0.0532394
0.0528024
0.0523242
0.0515783
0.0508004
0.0497326
0.0486674
0.0473826
0.0460748
0.0403448
0.0418417
0.0431537
0.0443202
0.0453616
0.0463308
0.0473229
0.0489959
0.0512295
0.0563017
0.0658
0.0780034
0.0954807
0.111231
0.125229
0.137288
0.148238
0.158956
0.16988
0.181378
0.193619
0.206728
0.22079
0.235847
0.251979
0.269272
0.287797
0.307634
0.328865
0.351617
)
;
    }
    upperWall
    {
        type            symmetryPlane;
        value           uniform 0;
    }
    lowerWall
    {
        type            symmetryPlane;
        value           nonuniform 0();
    }
    inlet
    {
        type            calculated;
        value           nonuniform 0();
    }
    cylinder
    {
        type            calculated;
        value           nonuniform 0();
    }
    frontAndBack
    {
        type            empty;
        value           nonuniform 0();
    }
    procBoundary7to3
    {
        type            processor;
        value           nonuniform List<scalar> 
30
(
-0.0729157
-0.0836264
-0.0942784
-0.0982857
-0.0895715
-0.0893444
-0.0259602
0.0220984
0.0669936
0.100734
0.087534
0.125556
0.0697142
0.00527212
-0.0252142
-0.116994
-0.109029
-0.110809
-0.0742109
0.0674952
0.0940494
0.151659
0.135871
-0.0526764
-0.0995322
-0.154536
-0.138689
0.138911
0.173906
0.0168843
)
;
    }
    procBoundary7to6
    {
        type            processor;
        value           nonuniform List<scalar> 
42
(
-0.025075
-0.0235967
-0.0237378
-0.0239248
-0.0249573
-0.0261994
0.0238376
-0.0346285
-0.0330163
-0.032127
-0.0315526
0.0116146
-0.0304709
-0.0333811
-0.0395662
-0.0497567
-0.0594853
-0.0656608
-0.0705988
-0.0756712
-0.0809026
-0.0869098
-0.0934632
-0.100709
-0.108296
-0.116272
-0.124617
-0.133398
-0.142734
-0.152724
-0.16341
-0.174821
-0.186995
-0.199972
-0.213795
-0.228528
-0.244256
-0.261066
-0.279041
-0.298264
-0.318842
-0.34089
)
;
    }
}


// ************************************************************************* //
