/*--------------------------------*- C++ -*----------------------------------*\
| =========                 |                                                 |
| \\      /  F ield         | OpenFOAM: The Open Source CFD Toolbox           |
|  \\    /   O peration     | Version:                                        |
|   \\  /    A nd           | Website:  www.openfoam.com                      |
|    \\/     M anipulation  |                                                 |
\*---------------------------------------------------------------------------*/
FoamFile
{
    version     2.0;
    format      ascii;
    class       surfaceScalarField;
    location    "162";
    object      phi;
}
// * * * * * * * * * * * * * * * * * * * * * * * * * * * * * * * * * * * * * //

dimensions      [0 3 -1 0 0 0 0];
oriented        oriented;


internalField   nonuniform List<scalar> 
2257
(
0.0896756
0.0380754
0.0864634
0.0421196
0.0803119
0.0482018
0.0711391
0.0532859
0.0606949
0.0564739
0.0575108
0.0875907
0.0366251
0.0883361
0.0413742
0.0880783
0.0484596
0.085136
0.0562282
0.0786187
0.0629912
0.0687383
0.0673912
0.0563588
0.0688666
0.0427625
0.0667571
0.0282019
0.06199
0.0517879
0.100383
0.0342642
0.100945
0.0408116
0.10046
0.0489445
0.0990917
0.0575967
0.0956445
0.0664385
0.0902259
0.0728098
0.0814019
0.0776905
0.0704778
0.0776813
0.0551241
0.0773436
0.0687503
0.0381617
0.0860084
0.0289219
0.0895761
0.0372439
0.0920653
0.0464552
0.0936055
0.0560566
0.0930631
0.0669808
0.0923444
0.0735285
0.0895724
0.0804625
0.0862375
0.0810161
0.0802636
0.0833175
0.0782348
0.0707791
0.046295
0.026372
0.0496017
0.0339372
0.0533162
0.0427408
0.056806
0.0525668
0.0605572
0.0632296
0.0634412
0.0706445
0.0653173
0.0785864
0.0671608
0.0791726
0.0669485
0.0835298
0.080839
0.0643444
-0.0078912
0.0290593
-0.00808957
0.0341356
-0.00567939
0.0403306
-0.000596232
0.0474836
0.0066751
0.0559583
0.0139389
0.0633806
0.0219226
0.0706027
0.0280667
0.0730286
0.0336054
0.0779911
0.0763175
0.0381269
-0.0720098
0.0315983
-0.0721726
0.0342984
-0.0696503
0.0378084
-0.0645906
0.0424239
-0.056083
0.0474507
-0.0458635
0.0531611
-0.0337979
0.0585371
-0.0226988
0.0619295
-0.00986838
0.0651606
0.0652564
0.00119271
-0.0800985
0.0359759
-0.0833672
0.037567
-0.0846256
0.0390669
-0.0841506
0.0419489
-0.0813359
0.044636
-0.0757644
0.0475896
-0.0675027
0.0502754
-0.0574814
0.0519083
-0.0451771
0.0528563
0.0532162
-0.0331369
-0.105178
0.0337804
-0.101557
0.0339458
-0.0964914
0.0340016
-0.0897993
0.0352567
-0.0822144
0.037051
-0.0746264
0.0400017
-0.0675824
0.0432313
-0.0612415
0.0455674
-0.0546327
0.0462475
0.0461493
-0.0475658
-0.103212
0.0292238
-0.0987143
0.0294485
-0.0945909
0.0298781
-0.0897224
0.0303883
-0.0838862
0.0312149
-0.0762782
0.0323937
-0.0679928
0.034946
-0.0606275
0.038202
-0.0551188
0.0407389
0.0430689
-0.0520384
-0.0769111
0.0262371
-0.0740606
0.026598
-0.0716549
0.0274724
-0.0692851
0.0280185
-0.0668982
0.028828
-0.0633064
0.0288019
-0.0578283
0.0294679
-0.0499745
0.0303482
-0.0409336
0.031698
0.0346934
-0.0325582
-0.0727245
0.0311413
-0.0772634
0.0311369
-0.0803138
0.0305228
-0.0825511
0.0302558
-0.0841218
0.0303987
-0.0847311
0.0294112
-0.0843563
0.0290931
-0.0813569
0.0273488
-0.0752805
0.0256216
0.0254815
-0.0660686
0.0234768
0.03461
0.0196364
0.0349773
0.0151558
0.0350033
0.00911733
0.0362943
0.00154757
0.0379685
-0.0076944
0.0386532
-0.018479
0.0398777
-0.0300358
0.0389057
-0.042764
0.0383497
0.0360486
-0.0533311
0.0493143
0.0382368
0.0470597
0.037232
0.0449512
0.0371118
0.0437363
0.0375092
0.0428379
0.0388668
0.0406665
0.0408245
0.0374278
0.0431164
0.0311487
0.0451848
0.0216694
0.047829
0.0477776
0.00994033
0.093128
0.038578
0.0928197
0.0375403
0.0911874
0.0387441
0.0898408
0.0388558
0.088284
0.0404236
0.0871072
0.0420013
0.0862484
0.0439752
0.084774
0.0466592
0.0833157
0.0492874
0.0514794
0.0796139
0.146678
0.0381403
0.145947
0.0382707
0.144654
0.0400376
0.14257
0.0409398
0.139854
0.0431396
0.137536
0.044319
0.135293
0.0462181
0.134171
0.0477817
0.133302
0.0501562
0.0519802
0.132801
0.0747399
0.0392582
0.0735091
0.0395016
0.0730937
0.040453
0.0725288
0.0415047
0.0722561
0.0434123
0.0712765
0.0452985
0.0698226
0.0476721
0.0679524
0.0496519
0.0662366
0.0518721
0.0535137
0.064703
0.0479465
0.044452
0.0421048
0.0453433
0.036282
0.0462758
0.0304602
0.0473264
0.0254989
0.0483736
0.0209839
0.0498136
0.0177254
0.0509306
0.0148939
0.0524834
0.0132258
0.0535401
0.055016
0.0117235
-0.0445663
0.0476587
-0.0479044
0.0486814
-0.0507591
0.0491306
-0.0534399
0.0500072
-0.0551855
0.0501191
-0.0559985
0.0506266
-0.0554891
0.0504211
-0.0541713
0.0511657
-0.0518594
0.0512282
0.0520211
-0.0488645
-0.139586
0.0472603
-0.138878
0.0479725
-0.137719
0.0479721
-0.136322
0.04861
-0.134655
0.0484525
-0.132873
0.0488442
-0.130861
0.0484091
-0.128108
0.0484127
-0.124549
0.0476698
0.0473206
-0.119849
-0.112267
0.0474938
-0.112365
0.0480708
-0.112466
0.0480722
-0.112287
0.048432
-0.112077
0.048242
-0.11166
0.0484269
-0.111361
0.048111
-0.110968
0.0480191
-0.110398
0.0471002
0.0459637
-0.109041
-0.129549
0.0498364
-0.131216
0.0497381
-0.132334
0.0491902
-0.132729
0.048827
-0.132534
0.048047
-0.131643
0.0475362
-0.130215
0.0466829
-0.128223
0.046027
-0.125981
0.0448582
0.0436156
-0.123633
-0.00333424
0.0532357
-0.00637772
0.0527816
-0.00931008
0.0521226
-0.0116562
0.0511731
-0.013575
0.0499659
-0.0146348
0.048596
-0.0150063
0.0470544
-0.0146773
0.0456979
-0.0140636
0.0442445
0.0427602
-0.0132082
0.148509
0.053816
0.147568
0.0537227
0.146109
0.0535812
0.144437
0.0528457
0.142404
0.0519985
0.140429
0.0505714
0.138224
0.0492595
0.13635
0.0475712
0.134497
0.0460981
0.0444128
0.132844
0.119275
0.0534093
0.120055
0.0529419
0.120915
0.0527213
0.1216
0.0521606
0.121875
0.0517239
0.121589
0.0508575
0.12066
0.0501883
0.119152
0.0490796
0.116845
0.0484048
0.0474862
0.113772
0.12974
0.0541668
0.128794
0.0538883
0.127613
0.053902
0.125876
0.0538972
0.123574
0.0540266
0.120478
0.0539528
0.116806
0.0538607
0.112366
0.0535199
0.107428
0.0533424
0.0530828
0.101831
-0.0212887
0.057995
-0.0259851
0.0585847
-0.0310709
0.0589878
-0.0363503
0.0591766
-0.0414554
0.0591316
-0.0464836
0.0589811
-0.0512783
0.0586554
-0.0559969
0.0582385
-0.0603892
0.0577347
0.0571502
-0.0644566
-0.229357
0.0571258
-0.228379
0.057607
-0.227103
0.0577108
-0.225668
0.0577422
-0.223916
0.0573796
-0.221899
0.0569642
-0.219443
0.0561992
-0.216613
0.0554091
-0.213224
0.0543454
0.0531669
-0.209241
-0.0813236
0.0552487
-0.0788659
0.0551494
-0.0758943
0.0547392
-0.0724502
0.054298
-0.0686339
0.0535633
-0.0644391
0.0527694
-0.0598527
0.0516128
-0.0548792
0.0504356
-0.0494819
0.0489482
0.0473287
-0.0436437
0.0531717
0.0551243
0.0570709
0.0590707
0.0610647
0.0630784
0.065047
0.0670116
0.0688766
0.0706299
-0.00191899
0.0449694
-0.000895108
0.0501818
0.00204866
0.0573573
0.00422716
0.0641253
0.00540927
0.0695658
0.00572332
0.0753217
0.00531089
0.0811785
0.00443444
0.0877269
0.00342763
0.0944057
0.00239019
0.101568
0.00158345
0.108835
0.00102065
0.116511
0.00069145
0.124602
0.000436931
0.13329
0.00024208
0.142573
7.96011e-05
0.152551
-1.92331e-05
0.163231
-5.7892e-05
0.174639
-5.31668e-05
0.186795
-2.97225e-05
0.199751
-4.67304e-06
0.213569
1.88081e-05
0.228316
3.52171e-05
0.244062
4.40884e-05
0.260885
4.54804e-05
0.278869
3.72438e-05
0.298099
2.15525e-05
0.318668
0.340716
0.0289347
0.0520698
0.0191205
0.053852
0.00967435
0.0544156
0.00265228
0.0572038
-0.000801421
0.060811
-0.00112378
0.0644476
-0.000630907
0.0690729
0.000261508
0.0744293
0.000370021
0.0810699
0.000570089
0.0875268
0.000345126
0.0946306
0.000296758
0.101617
9.48522e-05
0.109037
-4.74733e-05
0.116653
-0.000165188
0.12472
-0.000196868
0.133321
-0.000209346
0.142586
-0.00019605
0.152537
-0.000178998
0.163214
-0.000158719
0.174619
-0.000133207
0.18677
-0.000100115
0.199718
-5.84477e-05
0.213528
-1.90619e-05
0.228276
1.40217e-05
0.244029
3.50424e-05
0.260864
4.2138e-05
0.278862
3.6882e-05
0.298104
2.18723e-05
0.318683
0.340738
0.0640271
0.0588218
0.0554827
0.0623963
0.0451656
0.0647327
0.0340679
0.0683015
0.0249792
0.0698997
0.0200602
0.0693666
0.0163867
0.0727464
0.0129149
0.0779011
0.0099727
0.0840122
0.0075009
0.0899986
0.00574587
0.0963857
0.00429178
0.103071
0.00335795
0.10997
0.0026849
0.117326
0.00212671
0.125278
0.00158983
0.133858
0.00110104
0.143075
0.00069522
0.152943
0.000413883
0.163495
0.000251193
0.174781
0.000163985
0.186857
0.000121234
0.199761
9.62042e-05
0.213553
8.56133e-05
0.228287
8.11126e-05
0.244034
7.62814e-05
0.260869
6.84938e-05
0.27887
5.27571e-05
0.29812
2.9403e-05
0.318706
0.340767
0.055741
0.0674252
0.0461474
0.0719899
0.0354058
0.0754743
0.0260075
0.0776998
0.0198226
0.0760847
0.0152412
0.073948
0.0116163
0.0763713
0.00812441
0.081393
0.00572942
0.0864072
0.00353246
0.0921956
0.00197629
0.0979418
0.000930962
0.104116
0.000138627
0.110763
-0.000335515
0.117801
-0.000506895
0.12545
-0.000494943
0.133846
-0.00040872
0.142988
-0.000330473
0.152865
-0.000264138
0.163429
-0.000212856
0.17473
-0.000156449
0.1868
-9.82814e-05
0.199703
-3.81889e-05
0.213493
1.14236e-05
0.228237
4.58093e-05
0.243999
6.4338e-05
0.260851
6.60661e-05
0.278868
5.36815e-05
0.298132
3.07942e-05
0.318729
0.340798
0.0335549
0.0719971
0.0291685
0.0763763
0.0252565
0.0793864
0.0231067
0.0798496
0.0211742
0.0780171
0.0166819
0.0784403
0.0124416
0.0806116
0.00878911
0.0850455
0.00630108
0.0888952
0.00478222
0.0937144
0.00398185
0.0987422
0.0035034
0.104594
0.00332587
0.11094
0.00308364
0.118043
0.00261275
0.125921
0.00205278
0.134406
0.00146251
0.143579
0.000996548
0.153331
0.000660942
0.163764
0.000458056
0.174933
0.000328476
0.18693
0.000247454
0.199784
0.000191676
0.213548
0.000158457
0.228271
0.000139659
0.244018
0.000122997
0.260867
0.000104243
0.278887
7.77124e-05
0.298159
4.2281e-05
0.318764
0.34084
0.00224384
0.070946
0.00430402
0.0743161
0.00689944
0.076791
0.00953641
0.0772126
0.0109603
0.0765932
0.00992111
0.0794795
0.00831203
0.0822207
0.00663481
0.0867227
0.00433732
0.0911927
0.00273641
0.0953154
0.00118952
0.100289
5.72878e-05
0.105727
-0.000710035
0.111708
-0.00116626
0.118499
-0.00113641
0.125891
-0.000973394
0.134243
-0.000718922
0.143324
-0.000529437
0.153141
-0.000375201
0.16361
-0.000259272
0.174817
-0.00015018
0.186821
-5.546e-05
0.199689
2.44152e-05
0.213469
7.98119e-05
0.228215
0.000109018
0.243989
0.000118259
0.260858
0.000108549
0.278897
8.3208e-05
0.298184
4.61551e-05
0.318801
0.340887
-0.027355
0.0651642
-0.0199106
0.0668717
-0.0145261
0.0714065
-0.0108169
0.0735034
-0.0105999
0.0763763
-0.0103322
0.0792118
-0.0108627
0.0827511
-0.00913063
0.0849906
-0.00744441
0.0895065
-0.0052128
0.0930837
-0.00318894
0.0982653
-0.00121074
0.103749
0.00011311
0.110384
0.000968516
0.117644
0.00113206
0.125727
0.00103839
0.134337
0.000802483
0.14356
0.000616952
0.153327
0.000473516
0.163754
0.00038209
0.174908
0.000310618
0.186892
0.000259592
0.19974
0.000222388
0.213506
0.000199293
0.228238
0.000185479
0.244003
0.000168134
0.260875
0.000142227
0.278923
0.000105623
0.298221
5.71649e-05
0.31885
0.340944
-0.0388697
0.056468
-0.0298712
0.0578732
-0.0222699
0.0638051
-0.0142951
0.0655287
-0.00872807
0.0708092
-0.00323333
0.0737171
-0.00202712
0.0815449
-0.000978827
0.0839423
-0.000701176
0.0892288
-0.000986478
0.093369
-0.00134713
0.0986259
-0.00178994
0.104191
-0.00198439
0.110578
-0.00193337
0.117593
-0.00157333
0.125367
-0.00121217
0.133976
-0.000845413
0.143193
-0.00058574
0.153067
-0.000371129
0.163539
-0.000207037
0.174744
-6.46916e-05
0.18675
4.46711e-05
0.199631
0.000121066
0.213429
0.000166028
0.228193
0.000180719
0.243988
0.000175419
0.260881
0.000152749
0.278945
0.000113675
0.29826
6.19847e-05
0.318901
0.341006
-0.0487387
0.0531683
-0.0457564
0.0548908
-0.0435549
0.0616037
-0.0398976
0.0618714
-0.0362213
0.0671329
-0.0306449
0.0681406
-0.025407
0.0763071
-0.0202889
0.0788242
-0.0156821
0.084622
-0.0118452
0.0895322
-0.00847792
0.0952586
-0.00590239
0.101616
-0.00397321
0.108649
-0.0026813
0.116301
-0.00187547
0.124561
-0.00125581
0.133356
-0.000806174
0.142744
-0.000444122
0.152705
-0.000203996
0.163299
-5.03088e-05
0.174591
4.17718e-05
0.186658
0.000102517
0.19957
0.000148897
0.213383
0.000178843
0.228163
0.000194643
0.243972
0.000191358
0.260884
0.00016712
0.27897
0.000125558
0.298301
6.8431e-05
0.318959
0.341074
-0.0251208
0.045731
-0.0193536
0.0491236
-0.0142292
0.0564794
-0.0111517
0.0587939
-0.0110176
0.0669987
-0.0119499
0.069073
-0.0121877
0.0765448
-0.0107016
0.0773382
-0.00793814
0.0818585
-0.00596831
0.0875624
-0.00423034
0.0935206
-0.00285473
0.10024
-0.00193961
0.107734
-0.00117033
0.115531
-0.000698414
0.124089
-0.000423408
0.133081
-0.000260639
0.142581
-0.000131631
0.152576
-1.67885e-05
0.163184
9.04602e-05
0.174483
0.000173532
0.186575
0.000230192
0.199513
0.000256644
0.213356
0.000265261
0.228155
0.000256215
0.243981
0.000232863
0.260907
0.000196551
0.279006
0.00014432
0.298354
7.79212e-05
0.319025
0.341152
-0.0568931
0.0365555
-0.0494398
0.0416703
-0.0405111
0.0475506
-0.0331344
0.0514172
-0.0247742
0.0586386
-0.0186828
0.0629815
-0.0146238
0.0724859
-0.012047
0.0747613
-0.010596
0.0804075
-0.00907016
0.0860366
-0.00794736
0.0923978
-0.00721772
0.0995105
-0.00632015
0.106836
-0.00552872
0.11474
-0.00445852
0.123019
-0.00337658
0.131999
-0.00234929
0.141554
-0.00155228
0.151779
-0.000971224
0.162603
-0.000579695
0.174092
-0.000299599
0.186295
-9.62266e-05
0.19931
5.53344e-05
0.213205
0.000151803
0.228058
0.000202116
0.243931
0.000214686
0.260895
0.000193402
0.279027
0.000146765
0.2984
8.06073e-05
0.319091
0.341233
-0.055593
0.0388174
-0.0572194
0.0432967
-0.0578161
0.0481474
-0.0588695
0.0524706
-0.0556176
0.0553866
-0.0484338
0.0557978
-0.0352969
0.0593489
-0.0238494
0.0633139
-0.0148231
0.0713812
-0.00839809
0.0796116
-0.00363959
0.0876393
-0.000636336
0.0965073
0.00118578
0.105014
0.0019821
0.113944
0.00192126
0.12308
0.00156419
0.132356
0.00115446
0.141963
0.000876838
0.152057
0.000700765
0.162779
0.000592532
0.1742
0.000506047
0.186381
0.000441347
0.199375
0.000389852
0.213256
0.000353016
0.228095
0.000323293
0.243961
0.000286749
0.260931
0.000239322
0.279075
0.000175528
0.298464
9.44642e-05
0.319172
0.341327
0.00682991
0.0419279
0.0037535
0.0463731
0.000680361
0.0512205
-0.00245662
0.0556076
-0.00567494
0.058605
-0.00845498
0.0585778
-0.00744786
0.0583418
-0.00594454
0.0618105
-0.00394202
0.0693787
-0.0029697
0.0786392
-0.00332915
0.0879988
-0.00321198
0.0963901
-0.00380334
0.105606
-0.00385721
0.113998
-0.00350404
0.122727
-0.00288158
0.131734
-0.00219755
0.141279
-0.00158304
0.151442
-0.00106878
0.162265
-0.000655392
0.173787
-0.000320611
0.186046
-6.71132e-05
0.199121
0.000113483
0.213076
0.000223347
0.227985
0.000271336
0.243913
0.000275806
0.260927
0.000244406
0.279106
0.000183135
0.298525
9.97689e-05
0.319256
0.341427
0.0812172
0.0403245
0.0826726
0.0449178
0.0834312
0.050462
0.0833556
0.0556831
0.0796494
0.0623112
0.0707397
0.0674875
0.056246
0.0728356
0.0401227
0.0779338
0.0262719
0.0832295
0.0179673
0.0869438
0.0130718
0.0928943
0.00951239
0.0999496
0.00754456
0.107573
0.00583494
0.115707
0.00437266
0.124189
0.00321736
0.132889
0.00228851
0.142208
0.00165023
0.152081
0.00119013
0.162725
0.000886689
0.17409
0.000676781
0.186256
0.00055066
0.199247
0.000481377
0.213145
0.000443019
0.228024
0.000415597
0.24394
0.000375446
0.260967
0.000314008
0.279167
0.00023023
0.298609
0.000123446
0.319362
0.34155
0.131473
0.0416528
0.128825
0.0475653
0.12497
0.0543174
0.118285
0.062368
0.108564
0.0720318
0.094416
0.0816359
0.0772414
0.0900102
0.0598022
0.0953729
0.0446371
0.0983946
0.0319234
0.0996575
0.022307
0.102511
0.0141402
0.108116
0.00854004
0.113174
0.00450886
0.119738
0.00236017
0.126338
0.00101811
0.134231
0.000453646
0.142773
0.000190774
0.152343
0.00018499
0.162731
0.000270506
0.174005
0.000391988
0.186135
0.000487035
0.199152
0.000536178
0.213096
0.000549693
0.22801
0.000526693
0.243963
0.000473426
0.26102
0.000393541
0.279247
0.000285428
0.298717
0.000152204
0.319496
0.341703
0.0555911
0.0507647
0.0454852
0.0576712
0.0346377
0.065165
0.0240967
0.0729089
0.0151601
0.0809685
0.00813978
0.0886561
0.00510191
0.0930481
0.00332331
0.0971515
0.00378041
0.0979375
0.00181496
0.101623
0.000917201
0.103408
0.00097943
0.108054
0.0004955
0.113657
0.000671433
0.119562
0.000435607
0.126574
0.000445664
0.134221
0.000349363
0.142869
0.000335647
0.152357
0.000336759
0.162729
0.000377989
0.173963
0.000442019
0.186071
0.00051673
0.199077
0.000588252
0.213024
0.000624993
0.227973
0.000619218
0.243969
0.000570579
0.261069
0.000476936
0.279341
0.000346744
0.298847
0.000184926
0.319657
0.341888
0.00536413
0.0571241
-0.000650062
0.0636854
-0.00611187
0.0706268
-0.0101374
0.0769345
-0.0122528
0.0830839
-0.0106418
0.0870452
-0.00749615
0.0899024
-0.00358778
0.0932432
0.000357807
0.093992
0.00251735
0.0994634
0.00314143
0.102784
0.0038722
0.107323
0.00412624
0.113403
0.00427147
0.119417
0.0040602
0.126785
0.00353925
0.134742
0.00297039
0.143438
0.00244674
0.152881
0.00203895
0.163137
0.00175594
0.174246
0.00154429
0.186283
0.00138187
0.19924
0.00123549
0.213171
0.00110264
0.228106
0.000972879
0.244099
0.000827718
0.261214
0.00066143
0.279507
0.000468305
0.29904
0.000245933
0.31988
0.342133
-0.0490577
0.0573172
-0.0478835
0.0625112
-0.0454042
0.0681475
-0.0421222
0.0736525
-0.0376186
0.0785802
-0.0330349
0.0824616
-0.0299607
0.0868281
-0.0260449
0.0893274
-0.0246212
0.0925682
-0.0195592
0.0944015
-0.0186038
0.101829
-0.0156262
0.104346
-0.0132736
0.111051
-0.0109722
0.117116
-0.00840797
0.124221
-0.00607339
0.132408
-0.00397191
0.141336
-0.00234057
0.151249
-0.0010929
0.16189
-0.000214561
0.173368
0.000398393
0.18567
0.000790259
0.198848
0.00100729
0.212954
0.00108984
0.228024
0.00106001
0.244128
0.000950384
0.261324
0.000778526
0.279679
0.000555193
0.299264
0.000293109
0.320142
0.342427
-0.115948
0.0534164
-0.110893
0.0574563
-0.10424
0.0614944
-0.0960202
0.0654326
-0.0866861
0.0692462
-0.0771587
0.0729342
-0.0675502
0.0772197
-0.0556766
0.0774538
-0.0462025
0.0830941
-0.0335533
0.0817522
-0.0229997
0.0912753
-0.014429
0.095775
-0.0069478
0.10357
-0.00169919
0.111867
0.00110899
0.121413
0.00251826
0.130998
0.00287839
0.140976
0.00286742
0.15126
0.0026727
0.162084
0.00246632
0.173574
0.00227407
0.185862
0.00209721
0.199025
0.00193141
0.21312
0.00174938
0.228206
0.00154628
0.244331
0.00131162
0.261558
0.00103755
0.279953
0.000726383
0.299575
0.000379437
0.320489
0.342806
-0.106552
0.0509265
-0.103013
0.0539178
-0.0982133
0.0566947
-0.0914606
0.0586798
-0.0831317
0.0609173
-0.072403
0.0622055
-0.0607989
0.0656156
-0.0477366
0.0643915
-0.0349024
0.0702599
-0.0252975
0.0721473
-0.0175505
0.0835283
-0.0132001
0.0914246
-0.0104775
0.100847
-0.00809302
0.109483
-0.00553377
0.118853
-0.00326738
0.128732
-0.00135935
0.139068
4.527e-05
0.149856
0.00102001
0.16111
0.0016252
0.172969
0.00196108
0.185526
0.0021033
0.198883
0.00209458
0.213128
0.00198087
0.228319
0.00178587
0.244526
0.00152272
0.261822
0.00120731
0.280269
0.000844458
0.299938
0.000440568
0.320893
0.343247
-0.117231
0.0445248
-0.110421
0.0471077
-0.103335
0.0496086
-0.0955984
0.0509431
-0.0871633
0.0524821
-0.0770205
0.0520626
-0.0650593
0.0536545
-0.053139
0.0524712
-0.0395122
0.0566331
-0.0283444
0.0609795
-0.0184721
0.073656
-0.0114701
0.0844226
-0.00658421
0.0959613
-0.00349443
0.106393
-0.0015064
0.116865
-0.000117917
0.127343
0.000891205
0.138059
0.00164954
0.149097
0.00215911
0.1606
0.00247626
0.172652
0.00264255
0.18536
0.00266781
0.198857
0.00258431
0.213212
0.00240563
0.228498
0.00214062
0.244791
0.00181139
0.262151
0.00142533
0.280655
0.000990978
0.300372
0.000515228
0.321368
0.343762
-0.00568001
0.0369967
0.00309559
0.0383321
0.0129294
0.0397747
0.0235206
0.0403519
0.0344482
0.0415546
0.0442604
0.0422504
0.0526462
0.0452687
0.0559982
0.0491192
0.05564
0.0569912
0.0497992
0.0668204
0.0428572
0.080598
0.0340656
0.0932141
0.0277061
0.102321
0.0223064
0.111793
0.0176842
0.121487
0.0137266
0.131301
0.0106639
0.141122
0.00842823
0.151333
0.00682807
0.1622
0.00571157
0.173769
0.00487018
0.186201
0.00421076
0.199517
0.00366945
0.213753
0.00317365
0.228994
0.00269961
0.245266
0.00221738
0.262633
0.00171186
0.28116
0.00117804
0.300906
0.00060836
0.321938
0.34437
0.133621
0.0362202
0.134141
0.0378113
0.1342
0.039716
0.132773
0.0417796
0.129304
0.0450232
0.122092
0.0494627
0.110931
0.0564291
0.0950958
0.0649546
0.0769383
0.0751487
0.0561867
0.087572
0.0388407
0.097944
0.0246381
0.107417
0.0136474
0.113312
0.00696053
0.118479
0.00380533
0.124643
0.00267306
0.132433
0.00270752
0.141087
0.00305089
0.15099
0.00349432
0.161757
0.0038035
0.173459
0.00392842
0.186076
0.00388293
0.199562
0.00366422
0.213972
0.00332889
0.229329
0.00290743
0.245687
0.00241735
0.263123
0.00187822
0.281699
0.00129463
0.30149
0.000668511
0.322564
0.345039
0.108737
0.0412547
0.101882
0.0446659
0.0929939
0.0486045
0.0818608
0.0529127
0.0689475
0.0579365
0.054867
0.0635432
0.0412092
0.0700869
0.0291533
0.0770105
0.0202238
0.0840782
0.0140743
0.0937216
0.0142012
0.0978171
0.0158089
0.105809
0.0163456
0.112775
0.0161507
0.118674
0.014269
0.126524
0.0126539
0.134048
0.0108785
0.142863
0.00946305
0.152405
0.00827507
0.162945
0.00723927
0.174495
0.00637259
0.186943
0.0056017
0.200333
0.00489664
0.214677
0.00423203
0.229994
0.00357034
0.246349
0.00290433
0.263789
0.00222271
0.282381
0.00151643
0.302196
0.000778902
0.323302
0.345818
0.0934424
0.0496438
0.0839329
0.0541754
0.0733776
0.0591598
0.0620374
0.0642529
0.0503387
0.0696352
0.0389178
0.0749641
0.0284065
0.0805982
0.0191673
0.0862497
0.0109325
0.092313
0.00505812
0.0995959
0.00189699
0.100978
0.00404981
0.103656
0.00496058
0.111864
0.0068746
0.11676
0.00869593
0.124703
0.00945686
0.133288
0.00964757
0.142672
0.00937644
0.152676
0.00880203
0.163519
0.00813712
0.17516
0.00740085
0.187679
0.00661084
0.201123
0.00581175
0.215476
0.00500773
0.230798
0.00420467
0.247152
0.00340297
0.264591
0.00259042
0.283193
0.0017614
0.303025
0.000902276
0.324161
0.34672
-0.070017
0.0552042
-0.0748691
0.0590275
-0.0786817
0.0629724
-0.0812918
0.0668631
-0.0824349
0.0707783
-0.0819364
0.0744656
-0.0792842
0.077946
-0.0743245
0.08129
-0.0668526
0.0848412
-0.0550921
0.0878353
-0.0463364
0.0922225
-0.0334865
0.0908063
-0.0242847
0.102662
-0.0161971
0.108673
-0.00894401
0.11745
-0.00314149
0.127485
0.00129206
0.138238
0.00425141
0.149717
0.00597058
0.1618
0.00675944
0.174371
0.00690034
0.187538
0.00663474
0.201389
0.00610936
0.216001
0.00541324
0.231494
0.00462289
0.247942
0.00377192
0.265442
0.00288307
0.284082
0.00196278
0.303945
0.00100539
0.325118
0.347725
-0.203313
0.0492759
-0.195997
0.0517115
-0.186948
0.0539234
-0.175969
0.0558841
-0.162681
0.0574903
-0.14683
0.0586149
-0.127751
0.0588673
-0.104945
0.0584841
-0.0773493
0.0572452
-0.0458865
0.0563725
-0.0172847
0.0636208
0.00352353
0.069998
0.0185776
0.0876082
0.0248729
0.102377
0.0257754
0.116547
0.023779
0.129481
0.0208566
0.141161
0.0178753
0.152698
0.0153045
0.164371
0.0131356
0.17654
0.0112754
0.189398
0.00966714
0.202997
0.00822933
0.217439
0.0069222
0.232801
0.00570849
0.249156
0.00455152
0.266599
0.00342868
0.285205
0.00231178
0.305062
0.00117866
0.326251
0.348904
-0.0358862
0.0415184
-0.0269973
0.0428226
-0.0168451
0.0437711
-0.00544048
0.0444795
0.0071387
0.0449111
0.0206938
0.0450598
0.034535
0.0450261
0.0476418
0.0453773
0.0586934
0.0461936
0.0647943
0.0502716
0.0678609
0.0605541
0.062441
0.0754179
0.0555688
0.0944804
0.047044
0.110902
0.0387583
0.124833
0.0317893
0.13645
0.0259984
0.146952
0.021381
0.157316
0.0177175
0.168034
0.0147987
0.179459
0.0124773
0.19172
0.0105731
0.204901
0.00894526
0.219067
0.00750581
0.234241
0.00618019
0.250481
0.00492686
0.267852
0.00371026
0.286422
0.00250178
0.306271
0.00127563
0.327478
0.35018
0.0724823
0.0743994
0.0762449
0.0779057
0.0791154
0.0794512
0.0782412
0.0746918
0.0678955
0.0574503
0.0466957
0.0371865
0.029872
0.0252586
0.0223761
0.0203855
0.0187009
0.0170861
0.0154581
0.0138192
0.0122082
0.0106554
0.00918328
0.00778641
0.00644924
0.0051557
0.00388711
0.00262162
0.00133689
)
;

boundaryField
{
    outlet
    {
        type            calculated;
        value           nonuniform List<scalar> 
40
(
0.0533888
0.0531968
0.0527926
0.0522982
0.0515693
0.0507557
0.0496442
0.048471
0.0470831
0.0455754
0.039666
0.0409055
0.0419256
0.0428187
0.0437014
0.0447239
0.0462362
0.0489267
0.0529899
0.0607168
0.0713086
0.0849272
0.101795
0.115516
0.127716
0.138441
0.148636
0.158931
0.169662
0.181098
0.193331
0.206454
0.220539
0.235637
0.251819
0.269146
0.28769
0.307536
0.328762
0.351516
)
;
    }
    upperWall
    {
        type            symmetryPlane;
        value           nonuniform 0();
    }
    lowerWall
    {
        type            symmetryPlane;
        value           uniform 0;
    }
    inlet
    {
        type            calculated;
        value           nonuniform 0();
    }
    cylinder
    {
        type            calculated;
        value           nonuniform 0();
    }
    frontAndBack
    {
        type            empty;
        value           nonuniform 0();
    }
    procBoundary3to2
    {
        type            processor;
        value           nonuniform List<scalar> 
43
(
-0.0362575
-0.0389074
-0.0420503
-0.0441131
-0.0460297
-0.0466047
0.0497889
-0.0564871
-0.0531608
-0.0474294
-0.0396814
0.0160955
-0.0421113
-0.0512057
-0.0603011
-0.0663038
-0.0707479
-0.0756358
-0.080766
-0.0868504
-0.0933989
-0.100531
-0.108028
-0.115948
-0.124273
-0.133035
-0.142379
-0.152388
-0.163132
-0.1746
-0.1868
-0.199775
-0.213594
-0.228339
-0.244079
-0.260894
-0.278871
-0.298091
-0.318652
-0.340695
-0.0428428
-0.000939128
-0.0440378
)
;
    }
    procBoundary3to7
    {
        type            processor;
        value           nonuniform List<scalar> 
30
(
-0.0914936
-0.0861404
-0.0980216
-0.0806661
-0.0437451
0.00520395
0.0694707
0.075721
0.107373
0.107768
0.0798978
0.0678203
-0.0269454
-0.0529411
-0.0934692
-0.14624
-0.0758578
-0.0531404
0.0413596
0.139985
0.112034
0.127206
-6.50538e-05
-0.149089
-0.118868
-0.130498
0.0174605
0.230226
0.0832007
-0.0513119
)
;
    }
}


// ************************************************************************* //
