/*--------------------------------*- C++ -*----------------------------------*\
| =========                 |                                                 |
| \\      /  F ield         | OpenFOAM: The Open Source CFD Toolbox           |
|  \\    /   O peration     | Version:                                        |
|   \\  /    A nd           | Website:  www.openfoam.com                      |
|    \\/     M anipulation  |                                                 |
\*---------------------------------------------------------------------------*/
FoamFile
{
    version     2.0;
    format      ascii;
    class       volVectorField;
    location    "37.5";
    object      U;
}
// * * * * * * * * * * * * * * * * * * * * * * * * * * * * * * * * * * * * * //

dimensions      [0 1 -1 0 0 0 0];


internalField   nonuniform List<vector> 
1136
(
(-0.69145 0.011784 -1.86002e-22)
(-0.555044 -0.0170797 -1.16867e-22)
(-0.399901 -0.0420866 -3.52707e-23)
(-0.190191 -0.0534845 1.60437e-22)
(-0.0417903 -0.0532513 -1.15214e-21)
(0.150071 -0.0606603 6.19986e-22)
(0.277399 -0.0485077 -2.92761e-22)
(0.394589 -0.042093 9.712e-22)
(0.480205 -0.0345818 -6.35635e-22)
(0.550728 -0.0266605 -1.75992e-22)
(0.599226 -0.0204549 6.82948e-22)
(0.642829 -0.0154802 -7.33264e-22)
(0.66991 -0.0110771 3.27043e-22)
(0.699527 -0.0076101 -3.05886e-22)
(0.717974 -0.00477979 2.0765e-22)
(0.74216 -0.00245848 1.51712e-24)
(0.755389 -0.000570143 4.06947e-23)
(0.773665 0.000724456 -7.76721e-23)
(0.781284 0.0015899 -7.44875e-23)
(0.796745 0.00171827 4.88679e-23)
(0.806962 0.00157518 2.27794e-23)
(0.825163 0.00156302 7.48669e-24)
(0.831812 0.00141518 3.39518e-23)
(0.844282 0.00113256 -1.16276e-24)
(0.845276 0.000447986 1.44777e-24)
(0.857757 -0.000218705 1.54351e-26)
(0.861543 -0.000780403 9.10008e-24)
(0.875624 -0.00104829 -1.61502e-23)
(0.880115 -0.00124152 -3.32546e-24)
(0.893319 -0.00110771 1.41959e-24)
(-0.466325 -0.047612 1.93678e-21)
(-0.318916 -0.100658 -5.18274e-21)
(-0.177537 -0.149994 -1.90505e-22)
(0.00951247 -0.16425 5.36651e-22)
(0.177369 -0.152062 -1.08856e-22)
(0.332225 -0.137621 -4.55923e-21)
(0.452118 -0.108201 5.3531e-21)
(0.55279 -0.0847975 -1.85374e-22)
(0.630279 -0.0647145 -3.1812e-21)
(0.689718 -0.0479599 1.13585e-21)
(0.730845 -0.0357838 1.6452e-22)
(0.765787 -0.0266476 2.95221e-22)
(0.786653 -0.0192316 5.64724e-22)
(0.807356 -0.014147 1.1612e-21)
(0.819847 -0.0102455 -1.02701e-21)
(0.83615 -0.0071379 -1.73399e-23)
(0.844901 -0.00445193 -5.97696e-24)
(0.85719 -0.00239297 -1.71877e-22)
(0.86228 -0.00107015 5.2562e-22)
(0.871696 -0.00140156 -1.84255e-22)
(0.878107 -0.00207907 -4.7709e-23)
(0.891993 -0.00167674 -1.19321e-23)
(0.899334 -0.000887421 2.50332e-23)
(0.909114 -0.000281843 7.85878e-24)
(0.910284 -0.000747301 -9.95077e-23)
(0.917346 -0.00173205 3.96735e-23)
(0.920019 -0.00235717 -2.72906e-23)
(0.928801 -0.00269178 2.78051e-24)
(0.932347 -0.00271991 -5.54656e-24)
(0.940759 -0.00215213 -3.59147e-24)
(-0.195399 -0.107827 -6.24688e-21)
(-0.071138 -0.182314 5.50422e-21)
(0.0708474 -0.232794 5.75097e-22)
(0.230516 -0.249366 4.23255e-22)
(0.371644 -0.230702 -5.29429e-21)
(0.49649 -0.198413 -1.31322e-21)
(0.596013 -0.155377 1.27203e-20)
(0.676078 -0.119498 -8.97022e-22)
(0.740559 -0.0901587 -3.28494e-22)
(0.789344 -0.0664494 -3.62977e-21)
(0.825158 -0.0495096 -2.80763e-21)
(0.855555 -0.0367741 6.60966e-22)
(0.87643 -0.0262545 4.5395e-22)
(0.894074 -0.0194275 1.86681e-21)
(0.906032 -0.0146227 -6.86888e-22)
(0.919658 -0.0107114 -2.24134e-21)
(0.92854 -0.00725856 1.85683e-21)
(0.937957 -0.00463069 -3.5444e-22)
(0.944221 -0.00273059 -1.09977e-22)
(0.950774 -0.00279701 -4.66454e-22)
(0.952454 -0.00393868 4.18839e-22)
(0.959412 -0.00400321 -1.77196e-22)
(0.966663 -0.00296882 -1.4105e-22)
(0.974799 -0.00167605 -1.38705e-22)
(0.977064 -0.00149692 1.25477e-22)
(0.978333 -0.00253416 2.27256e-23)
(0.978275 -0.00327378 -1.40733e-24)
(0.982086 -0.0036621 5.35022e-23)
(0.983772 -0.00368278 -8.96163e-24)
(0.989224 -0.00284374 7.36453e-25)
(0.0444736 -0.154083 5.73014e-21)
(0.176676 -0.245994 1.16642e-20)
(0.306398 -0.307857 -2.75235e-21)
(0.436155 -0.32393 1.35478e-21)
(0.545681 -0.296503 -6.53977e-22)
(0.635257 -0.250512 9.90145e-22)
(0.705661 -0.196269 -8.22457e-21)
(0.76162 -0.150004 3.51393e-21)
(0.807743 -0.113283 9.82272e-22)
(0.843707 -0.0835236 4.76804e-21)
(0.872006 -0.0623285 1.37742e-21)
(0.896156 -0.0467643 -8.30283e-21)
(0.914711 -0.0336666 5.23065e-21)
(0.929843 -0.0248807 -6.78291e-22)
(0.941357 -0.0191702 2.33464e-22)
(0.953551 -0.0146663 4.30779e-22)
(0.963024 -0.0104261 -1.62996e-21)
(0.971702 -0.007323 4.1103e-22)
(0.979389 -0.00488591 4.91078e-22)
(0.985867 -0.00382942 -4.65996e-22)
(0.985308 -0.00455446 5.81718e-22)
(0.98839 -0.00543419 -7.55747e-22)
(0.995754 -0.00477443 6.57341e-22)
(1.00403 -0.00295233 -3.63314e-23)
(1.00771 -0.00167128 -1.38331e-22)
(1.00574 -0.00221435 6.98493e-24)
(1.00298 -0.00325121 -7.66771e-23)
(1.00441 -0.0039099 -4.05854e-23)
(1.00455 -0.00422276 1.79615e-23)
(1.01025 -0.00332163 7.17401e-24)
(0.259861 -0.211118 -1.35255e-20)
(0.397016 -0.306146 5.98437e-21)
(0.521109 -0.368862 -5.53928e-21)
(0.619266 -0.378461 -4.72246e-22)
(0.690564 -0.342703 -2.33357e-21)
(0.7434 -0.28609 -6.83662e-21)
(0.783855 -0.225345 1.3479e-21)
(0.816886 -0.171579 4.26143e-21)
(0.845325 -0.12924 5.59259e-21)
(0.869628 -0.0956897 -9.16028e-21)
(0.890813 -0.072011 7.29264e-21)
(0.909917 -0.0545723 -5.5477e-23)
(0.924866 -0.039661 1.44207e-21)
(0.937462 -0.0294598 -3.69427e-21)
(0.948248 -0.0230722 2.38481e-21)
(0.959203 -0.0180183 9.10455e-22)
(0.967788 -0.0131871 -8.30588e-22)
(0.976369 -0.00975212 -1.00213e-21)
(0.984515 -0.00692345 -6.47073e-23)
(0.990128 -0.00464171 -8.05513e-23)
(0.988477 -0.00481072 -5.14e-22)
(0.991172 -0.00672529 4.88679e-22)
(0.999322 -0.006857 -3.95883e-22)
(1.00764 -0.00463041 -2.56871e-22)
(1.01121 -0.00199153 2.17091e-22)
(1.00771 -0.00160094 4.89041e-23)
(1.004 -0.00309686 1.20604e-22)
(1.0047 -0.00407611 8.03929e-23)
(1.00458 -0.00487709 -6.78613e-24)
(1.01109 -0.00399234 -1.04659e-23)
(0.4629 -0.259581 -1.00126e-19)
(0.605046 -0.357572 2.63457e-20)
(0.70972 -0.415575 2.12172e-20)
(0.770504 -0.416209 -7.70296e-21)
(0.803447 -0.373339 -4.84074e-21)
(0.821851 -0.310713 -1.75343e-21)
(0.835718 -0.246342 -1.9902e-21)
(0.84857 -0.188164 5.35984e-21)
(0.861872 -0.142718 3.2467e-21)
(0.877346 -0.10678 -4.75873e-21)
(0.892852 -0.08101 -2.4935e-21)
(0.908444 -0.0617493 -2.26423e-21)
(0.92079 -0.0452283 4.46678e-21)
(0.932085 -0.0339916 1.90571e-21)
(0.942631 -0.0270887 -1.3463e-21)
(0.953024 -0.021378 4.25624e-22)
(0.960586 -0.0160374 1.42838e-21)
(0.969567 -0.0123967 -2.05443e-21)
(0.977743 -0.00881831 -3.99055e-23)
(0.982128 -0.00497033 1.49973e-21)
(0.981468 -0.00477074 2.89089e-22)
(0.98651 -0.007935 -3.69152e-22)
(0.995383 -0.00860948 1.55964e-22)
(1.00244 -0.00570652 -2.30861e-22)
(1.00437 -0.00170329 3.47348e-22)
(1.00075 -0.00058566 -2.4604e-22)
(0.998471 -0.00257495 2.57859e-23)
(0.999667 -0.00398676 -1.1747e-22)
(1.00069 -0.00538239 3.11448e-23)
(1.00743 -0.00451835 1.03058e-23)
(0.7898 -0.400324 -1.70325e-20)
(0.8639 -0.44554 1.49546e-20)
(0.888474 -0.436426 -1.22214e-20)
(0.887365 -0.38879 -2.12694e-21)
(0.877398 -0.324297 4.40609e-21)
(0.869735 -0.25908 -6.83114e-21)
(0.867274 -0.199824 -5.77162e-21)
(0.869502 -0.152687 7.01979e-21)
(0.879029 -0.116003 5.94599e-21)
(0.890652 -0.0892736 -5.32471e-21)
(0.903816 -0.0686467 2.02593e-21)
(0.914812 -0.0505487 4.69111e-22)
(0.925891 -0.0382554 1.18714e-21)
(0.936522 -0.0307824 2.4865e-22)
(0.94702 -0.0243733 -2.41649e-21)
(0.954166 -0.0187693 2.05696e-22)
(0.963189 -0.0151937 -1.57381e-21)
(0.970692 -0.0109051 1.89339e-21)
(0.974285 -0.00601743 -1.47642e-21)
(0.975753 -0.0059825 8.59135e-22)
(0.983787 -0.0101175 -2.99828e-22)
(0.993081 -0.010797 3.73671e-22)
(0.998279 -0.0069449 -9.72901e-24)
(0.997877 -0.00176744 -1.53211e-22)
(0.994694 -0.000361911 1.88665e-22)
(0.994471 -0.00286538 7.5859e-23)
(0.996719 -0.00450578 -4.91317e-23)
(0.999511 -0.0063614 -3.7069e-24)
(1.00626 -0.00526617 -2.14359e-23)
(0.945917 -0.423396 7.67236e-21)
(0.982637 -0.453964 2.17135e-21)
(0.975086 -0.439224 -1.15473e-20)
(0.947042 -0.390983 -4.38699e-21)
(0.915453 -0.328433 2.33885e-21)
(0.891467 -0.264515 8.24061e-22)
(0.878491 -0.208645 9.16615e-21)
(0.873209 -0.16073 -5.53805e-21)
(0.878416 -0.123075 4.11924e-22)
(0.888045 -0.0960487 -6.02489e-21)
(0.900018 -0.0752556 -1.25898e-21)
(0.910592 -0.0564937 1.937e-21)
(0.922122 -0.0433181 -1.58872e-21)
(0.933058 -0.0350846 2.84188e-21)
(0.944155 -0.0276175 2.12611e-21)
(0.951625 -0.0212325 -1.43328e-21)
(0.960389 -0.0172652 -7.51358e-22)
(0.966496 -0.0120518 -1.41626e-22)
(0.970007 -0.00633709 6.53463e-22)
(0.973711 -0.00672698 1.05068e-21)
(0.983933 -0.0116197 -8.77952e-22)
(0.99316 -0.0118284 -1.29705e-22)
(0.996993 -0.00695064 6.20711e-25)
(0.994816 -0.00109288 -4.27918e-23)
(0.992028 0.000142822 -1.80317e-22)
(0.992907 -0.00288226 8.92983e-23)
(0.996 -0.00486028 2.61386e-23)
(1.00002 -0.00709986 2.17759e-23)
(1.00684 -0.00573581 1.69395e-23)
(1.06484 -0.430832 -6.98218e-20)
(1.06551 -0.450077 2.54177e-20)
(1.03509 -0.435036 8.98946e-21)
(0.988952 -0.38949 -1.0903e-20)
(0.942358 -0.330259 -6.13508e-21)
(0.90708 -0.269975 3.85566e-21)
(0.888381 -0.217521 -6.07791e-21)
(0.88073 -0.172651 -4.40762e-22)
(0.883451 -0.133307 7.93579e-21)
(0.891881 -0.103369 -4.50789e-21)
(0.903144 -0.0809311 -2.48698e-22)
(0.91361 -0.0614261 4.05215e-21)
(0.925617 -0.0478642 -1.1666e-21)
(0.936599 -0.0395282 -2.75777e-21)
(0.948173 -0.0317001 2.44316e-21)
(0.95596 -0.0248903 4.84804e-22)
(0.964045 -0.0206011 -4.5748e-22)
(0.968578 -0.0147094 -1.0495e-21)
(0.97227 -0.00855508 1.6332e-21)
(0.976798 -0.00943927 -8.16023e-22)
(0.98699 -0.014859 -1.87152e-22)
(0.995273 -0.0143387 -3.29339e-23)
(0.998396 -0.00796082 4.91349e-22)
(0.995737 -0.000981749 -1.56396e-22)
(0.993412 -4.73929e-06 4.14778e-24)
(0.994113 -0.00356064 7.70547e-23)
(0.997019 -0.00587744 -5.28524e-23)
(1.00105 -0.00846668 4.85048e-25)
(1.00754 -0.00659539 2.08745e-24)
(1.14442 -0.44064 7.70907e-20)
(1.12107 -0.44934 -4.63704e-20)
(1.07691 -0.431027 2.04886e-20)
(1.01987 -0.389988 2.91643e-21)
(0.963915 -0.33673 -7.47012e-21)
(0.922692 -0.281582 -8.71254e-22)
(0.901269 -0.2314 -5.29956e-21)
(0.893598 -0.187585 2.53736e-21)
(0.896484 -0.147589 -3.30662e-21)
(0.903723 -0.115349 1.25009e-20)
(0.913099 -0.0902383 -7.43733e-21)
(0.922431 -0.0683638 9.44926e-21)
(0.933968 -0.0526219 -3.18054e-22)
(0.944109 -0.0428204 2.30758e-22)
(0.95543 -0.033807 -3.51066e-21)
(0.963201 -0.0258463 -1.06921e-21)
(0.97035 -0.0207738 -1.06181e-21)
(0.973783 -0.0144954 3.65334e-22)
(0.978283 -0.00831014 8.08489e-22)
(0.98281 -0.00940789 -2.8597e-22)
(0.990744 -0.0150972 2.12616e-22)
(0.996828 -0.0142707 -8.3139e-22)
(0.999981 -0.00739295 7.51101e-22)
(0.998322 -0.000545384 -4.36058e-22)
(0.996853 0.000235853 9.22512e-24)
(0.99676 -0.00337753 1.44043e-22)
(0.998716 -0.0060068 1.11259e-23)
(1.0015 -0.00891132 -2.30144e-23)
(1.00716 -0.00686762 -9.3017e-24)
(1.16486 -0.363672 0)
(1.1086 -0.351013 0)
(1.04258 -0.323686 0)
(0.98357 -0.285994 0)
(0.942082 -0.246408 0)
(0.921232 -0.209668 0)
(0.913443 -0.176321 0)
(0.913951 -0.146246 0)
(0.918622 -0.119922 0)
(0.925314 -0.097509 0)
(0.932532 -0.0768065 0)
(0.942663 -0.0610192 0)
(0.951275 -0.0509713 0)
(0.961449 -0.0413631 0)
(0.968771 -0.0321845 0)
(0.974704 -0.0259544 0)
(0.977175 -0.0187546 0)
(0.982309 -0.0117692 0)
(0.986503 -0.0126049 0)
(0.991646 -0.0185266 0)
(0.994978 -0.0172782 0)
(0.99819 -0.00912937 0)
(0.998263 -0.000712071 0)
(0.998682 0.000366823 0)
(0.998034 -0.00385395 0)
(0.999213 -0.00680131 0)
(1.00035 -0.0100861 0)
(1.00499 -0.007631 0)
(1.15898 -0.39288 0)
(1.08147 -0.375757 0)
(1.01073 -0.343234 0)
(0.962187 -0.303345 0)
(0.936823 -0.263578 0)
(0.928612 -0.226089 0)
(0.927286 -0.191642 0)
(0.929305 -0.1584 0)
(0.932409 -0.128137 0)
(0.936228 -0.10243 0)
(0.940811 -0.0800278 0)
(0.949004 -0.0633477 0)
(0.955894 -0.0525786 0)
(0.964452 -0.0423608 0)
(0.970803 -0.032519 0)
(0.97564 -0.0256342 0)
(0.977259 -0.018566 0)
(0.982474 -0.0122207 0)
(0.986433 -0.013001 0)
(0.989783 -0.0183701 0)
(0.990675 -0.0169293 0)
(0.993802 -0.00899567 0)
(0.994804 -0.000942661 0)
(0.997084 4.09504e-05 0)
(0.996865 -0.00391537 0)
(0.998545 -0.00684376 0)
(0.998657 -0.0102635 0)
(1.00231 -0.00787802 0)
(1.12099 -0.306 0)
(1.06689 -0.286394 0)
(1.02976 -0.264917 0)
(1.00865 -0.243977 0)
(0.992988 -0.221479 0)
(0.97949 -0.195759 0)
(0.965922 -0.168016 0)
(0.95436 -0.139818 0)
(0.946072 -0.114138 0)
(0.941637 -0.0926925 0)
(0.940933 -0.0740108 0)
(0.946172 -0.0597113 0)
(0.951399 -0.050569 0)
(0.958498 -0.04146 0)
(0.964499 -0.0318019 0)
(0.969343 -0.0247291 0)
(0.971022 -0.0180214 0)
(0.976896 -0.0120991 0)
(0.982273 -0.0127091 0)
(0.98579 -0.0179784 0)
(0.984589 -0.0167569 0)
(0.986522 -0.00903025 0)
(0.988036 -0.00100509 0)
(0.993473 0.000141703 0)
(0.994945 -0.00363701 0)
(0.998151 -0.00668262 0)
(0.997938 -0.0103176 0)
(1.00066 -0.00799389 0)
(1.14055 -0.312267 0)
(1.10235 -0.313772 0)
(1.0681 -0.306491 0)
(1.03453 -0.289519 0)
(0.999486 -0.262414 0)
(0.968142 -0.228298 0)
(0.943264 -0.192745 0)
(0.92721 -0.159668 0)
(0.919477 -0.13134 0)
(0.918562 -0.107916 0)
(0.921732 -0.0879871 0)
(0.930869 -0.0723472 0)
(0.939956 -0.0613682 0)
(0.949095 -0.0506013 0)
(0.956632 -0.0394003 0)
(0.963164 -0.0307101 0)
(0.966173 -0.0233202 0)
(0.972976 -0.0174521 0)
(0.980718 -0.0172921 0)
(0.986109 -0.0208229 0)
(0.984291 -0.0186455 0)
(0.98457 -0.010904 0)
(0.985316 -0.00306724 0)
(0.992183 -0.00189647 0)
(0.995482 -0.00552278 0)
(1.00025 -0.00805644 0)
(1.00029 -0.0112977 0)
(1.00191 -0.00878092 0)
(1.14325 -0.282826 0)
(1.10241 -0.272307 0)
(1.06201 -0.252402 0)
(1.02395 -0.226511 0)
(0.990366 -0.197987 0)
(0.965691 -0.16858 0)
(0.950261 -0.142176 0)
(0.942977 -0.119659 0)
(0.941343 -0.100633 0)
(0.944061 -0.0845655 0)
(0.948076 -0.0706783 0)
(0.956047 -0.0593071 0)
(0.963132 -0.0508191 0)
(0.969697 -0.0418225 0)
(0.975236 -0.0319174 0)
(0.980855 -0.0239831 0)
(0.983374 -0.0178017 0)
(0.988491 -0.0136781 0)
(0.993986 -0.0140622 0)
(0.996837 -0.016895 0)
(0.993603 -0.0145698 0)
(0.993113 -0.00800269 0)
(0.994241 -0.00193664 0)
(1.00084 -0.00141096 0)
(1.003 -0.00462144 0)
(1.00613 -0.00702105 0)
(1.00475 -0.00997509 0)
(1.00496 -0.00786255 0)
(1.14341 -0.256165 0)
(1.10562 -0.252624 0)
(1.06946 -0.24577 0)
(1.03717 -0.23547 0)
(1.00955 -0.220589 0)
(0.988448 -0.200165 0)
(0.973247 -0.178098 0)
(0.963731 -0.156317 0)
(0.958247 -0.135387 0)
(0.956678 -0.115843 0)
(0.956698 -0.0984138 0)
(0.960585 -0.083702 0)
(0.964139 -0.0717707 0)
(0.968319 -0.0597489 0)
(0.972326 -0.0473853 0)
(0.977695 -0.0369688 0)
(0.98108 -0.0287281 0)
(0.986323 -0.0231771 0)
(0.990268 -0.0219892 0)
(0.991867 -0.0229108 0)
(0.989171 -0.0195044 0)
(0.990596 -0.012457 0)
(0.993111 -0.00601557 0)
(1.00002 -0.00494423 0)
(1.00166 -0.00762332 0)
(1.00447 -0.00924816 0)
(1.00264 -0.011809 0)
(1.00295 -0.00938753 0)
(1.14011 -0.236977 0)
(1.10573 -0.235687 0)
(1.07284 -0.228511 0)
(1.04296 -0.213761 0)
(1.01632 -0.192152 0)
(0.994532 -0.166808 0)
(0.977891 -0.142657 0)
(0.967153 -0.121214 0)
(0.960955 -0.102342 0)
(0.959045 -0.0857522 0)
(0.958867 -0.0718596 0)
(0.961935 -0.0605181 0)
(0.964925 -0.0513091 0)
(0.96852 -0.0421258 0)
(0.971962 -0.0326035 0)
(0.977139 -0.0245262 0)
(0.981127 -0.0183463 0)
(0.986625 -0.0145615 0)
(0.990963 -0.0138174 0)
(0.993366 -0.0146634 0)
(0.99142 -0.0124136 0)
(0.992931 -0.00776402 0)
(0.99532 -0.00336303 0)
(1.00222 -0.00275381 0)
(1.00411 -0.00487067 0)
(1.00707 -0.00652314 0)
(1.00544 -0.00883747 0)
(1.00549 -0.0073788 0)
(1.13633 -0.214784 0)
(1.10618 -0.213985 0)
(1.07696 -0.207481 0)
(1.04988 -0.195697 0)
(1.02516 -0.180859 0)
(1.00493 -0.165245 0)
(0.989843 -0.150538 0)
(0.980589 -0.136006 0)
(0.975072 -0.121524 0)
(0.973062 -0.107092 0)
(0.971942 -0.0938451 0)
(0.973179 -0.082087 0)
(0.973944 -0.0716539 0)
(0.975672 -0.0607806 0)
(0.977463 -0.0497073 0)
(0.981469 -0.0400279 0)
(0.984926 -0.0322638 0)
(0.989906 -0.0269485 0)
(0.993122 -0.0247801 0)
(0.994707 -0.0238375 0)
(0.992862 -0.0202503 0)
(0.994669 -0.0145255 0)
(0.996974 -0.00958334 0)
(1.00302 -0.00816146 0)
(1.00419 -0.00964492 0)
(1.00646 -0.010278 0)
(1.0045 -0.0121273 0)
(1.00445 -0.00995336 0)
(1.1342 -0.19451 0)
(1.10757 -0.194792 0)
(1.08123 -0.190359 0)
(1.05638 -0.181823 0)
(1.03394 -0.170272 0)
(1.01561 -0.156299 0)
(1.00188 -0.140855 0)
(0.99275 -0.124417 0)
(0.986256 -0.108036 0)
(0.982456 -0.0924223 0)
(0.979395 -0.0788563 0)
(0.978418 -0.067193 0)
(0.977455 -0.0569286 0)
(0.977949 -0.047073 0)
(0.978808 -0.0375566 0)
(0.981951 -0.0294937 0)
(0.984921 -0.0231445 0)
(0.989289 -0.018862 0)
(0.992143 -0.016476 0)
(0.99411 -0.0152489 0)
(0.993141 -0.012619 0)
(0.995231 -0.00903427 0)
(0.997214 -0.00567278 0)
(1.00269 -0.00472273 0)
(1.00394 -0.00565314 0)
(1.00642 -0.00642726 0)
(1.00505 -0.00801747 0)
(1.00522 -0.00708453 0)
(1.13264 -0.175302 0)
(1.10876 -0.176388 0)
(1.08485 -0.173639 0)
(1.06241 -0.166983 0)
(1.04214 -0.15762 0)
(1.02537 -0.145666 0)
(1.01186 -0.132884 0)
(1.00171 -0.119749 0)
(0.993704 -0.10724 0)
(0.988516 -0.0952353 0)
(0.984421 -0.0844636 0)
(0.982489 -0.0747199 0)
(0.980696 -0.0658013 0)
(0.980592 -0.0565683 0)
(0.980927 -0.0474919 0)
(0.983507 -0.0394863 0)
(0.985988 -0.0328136 0)
(0.989792 -0.0278028 0)
(0.99218 -0.0249203 0)
(0.994271 -0.0228582 0)
(0.993887 -0.0195868 0)
(0.996131 -0.0152206 0)
(0.997749 -0.011563 0)
(1.00249 -0.00996213 0)
(1.00351 -0.0104577 0)
(1.00593 -0.0103888 0)
(1.00478 -0.0115957 0)
(1.00516 -0.0100036 0)
(1.12996 -0.157168 0)
(1.10857 -0.158992 0)
(1.08724 -0.157528 0)
(1.06719 -0.152608 0)
(1.04886 -0.145381 0)
(1.03301 -0.135958 0)
(1.01949 -0.12564 0)
(1.00883 -0.11462 0)
(1.00031 -0.103301 0)
(0.994652 -0.091661 0)
(0.990287 -0.0806934 0)
(0.987968 -0.0703769 0)
(0.985777 -0.0606679 0)
(0.985134 -0.051315 0)
(0.984929 -0.0424516 0)
(0.986685 -0.0347952 0)
(0.988447 -0.0284797 0)
(0.991599 -0.023716 0)
(0.993678 -0.0202204 0)
(0.995569 -0.0175704 0)
(0.995334 -0.0145883 0)
(0.997361 -0.011436 0)
(0.998742 -0.00864033 0)
(1.00278 -0.00730858 0)
(1.00371 -0.00734173 0)
(1.00586 -0.00731445 0)
(1.00506 -0.00821985 0)
(1.00544 -0.00745866 0)
(1.12597 -0.140088 0)
(1.10722 -0.142449 0)
(1.08847 -0.141985 0)
(1.07064 -0.13868 0)
(1.05399 -0.133478 0)
(1.03914 -0.126129 0)
(1.02614 -0.117737 0)
(1.01558 -0.108158 0)
(1.00681 -0.0981946 0)
(1.00076 -0.08785 0)
(0.996019 -0.0780431 0)
(0.993083 -0.0688705 0)
(0.990335 -0.060562 0)
(0.989176 -0.0524762 0)
(0.988359 -0.0448762 0)
(0.989491 -0.0381539 0)
(0.990705 -0.0324291 0)
(0.99308 -0.0277738 0)
(0.994476 -0.0244977 0)
(0.996271 -0.0217497 0)
(0.996435 -0.0187587 0)
(0.998504 -0.0153703 0)
(0.999539 -0.0126117 0)
(1.00294 -0.0109923 0)
(1.00362 -0.0108094 0)
(1.00569 -0.0102734 0)
(1.00507 -0.0108938 0)
(1.00565 -0.0097763 0)
(1.12147 -0.124122 0)
(1.10513 -0.126874 0)
(1.08874 -0.127381 0)
(1.07297 -0.125471 0)
(1.05797 -0.12184 0)
(1.04436 -0.11621 0)
(1.03212 -0.109381 0)
(1.02179 -0.101402 0)
(1.01309 -0.0929389 0)
(1.00669 -0.0839265 0)
(1.00152 -0.0753023 0)
(0.998146 -0.0670785 0)
(0.995075 -0.0592799 0)
(0.993456 -0.0517498 0)
(0.992325 -0.0445031 0)
(0.992824 -0.0379402 0)
(0.993426 -0.0321695 0)
(0.995159 -0.0273438 0)
(0.996342 -0.0234394 0)
(0.997801 -0.0200769 0)
(0.997949 -0.0169366 0)
(0.999635 -0.0139238 0)
(1.00055 -0.0114086 0)
(1.00332 -0.00976984 0)
(1.00394 -0.00917399 0)
(1.00562 -0.00852371 0)
(1.00523 -0.00884809 0)
(1.00569 -0.0081265 0)
(1.1167 -0.109345 0)
(1.10259 -0.112443 0)
(1.08835 -0.113703 0)
(1.07439 -0.112884 0)
(1.06104 -0.110535 0)
(1.04864 -0.106285 0)
(1.03723 -0.101032 0)
(1.02743 -0.094448 0)
(1.01888 -0.0873522 0)
(1.01231 -0.0796431 0)
(1.00685 -0.0721164 0)
(1.00306 -0.0646648 0)
(0.99966 -0.0576144 0)
(0.997739 -0.0506931 0)
(0.996128 -0.0440495 0)
(0.996067 -0.0379466 0)
(0.996203 -0.0325625 0)
(0.99728 -0.0279225 0)
(0.997804 -0.0243488 0)
(0.99889 -0.0211868 0)
(0.999052 -0.0183329 0)
(1.00058 -0.01546 0)
(1.00118 -0.0131695 0)
(1.00345 -0.0115482 0)
(1.00385 -0.0109167 0)
(1.0054 -0.0100966 0)
(1.00507 -0.0102627 0)
(1.00568 -0.00948132 0)
(1.1118 -0.0957768 0)
(1.09966 -0.0990608 0)
(1.0873 -0.100927 0)
(1.07507 -0.100927 0)
(1.06321 -0.099587 0)
(1.05197 -0.0966119 0)
(1.04154 -0.0926128 0)
(1.03227 -0.0873134 0)
(1.02407 -0.0815079 0)
(1.01744 -0.0749997 0)
(1.01181 -0.0684972 0)
(1.0077 -0.0619425 0)
(1.00407 -0.0555638 0)
(1.00176 -0.0492888 0)
(0.999896 -0.0432283 0)
(0.999265 -0.0376253 0)
(0.998815 -0.0326824 0)
(0.999179 -0.0283435 0)
(0.999454 -0.0247609 0)
(1.00016 -0.0214081 0)
(1.00028 -0.0184931 0)
(1.00137 -0.0156992 0)
(1.00187 -0.0134268 0)
(1.00362 -0.0116437 0)
(1.00399 -0.0106912 0)
(1.00519 -0.00964765 0)
(1.00504 -0.00955656 0)
(1.00549 -0.00883947 0)
(1.10667 -0.083375 0)
(1.09628 -0.0867765 0)
(1.08567 -0.0890142 0)
(1.07498 -0.0896187 0)
(1.06451 -0.0891617 0)
(1.05441 -0.0871623 0)
(1.04495 -0.0842668 0)
(1.03633 -0.0801405 0)
(1.02852 -0.0754843 0)
(1.02201 -0.0700754 0)
(1.01635 -0.0645415 0)
(1.01201 -0.0588169 0)
(1.0082 -0.0531503 0)
(1.00564 -0.0475316 0)
(1.00339 -0.0421252 0)
(1.0022 -0.037073 0)
(1.00137 -0.0325027 0)
(1.00126 -0.0282974 0)
(1.0011 -0.0248309 0)
(1.00138 -0.0215496 0)
(1.00137 -0.0187405 0)
(1.00219 -0.0160288 0)
(1.00246 -0.0138371 0)
(1.00376 -0.012102 0)
(1.00395 -0.0111229 0)
(1.00491 -0.0100886 0)
(1.00478 -0.00990846 0)
(1.00521 -0.00929059 0)
(1.10131 -0.0721672 0)
(1.0925 -0.07552 0)
(1.08345 -0.0779788 0)
(1.07415 -0.0790463 0)
(1.06499 -0.0792369 0)
(1.05601 -0.0780275 0)
(1.04751 -0.0760831 0)
(1.03952 -0.0729683 0)
(1.03226 -0.0693241 0)
(1.02596 -0.0649028 0)
(1.02037 -0.0602883 0)
(1.01594 -0.0553717 0)
(1.01201 -0.0504398 0)
(1.00912 -0.0455206 0)
(1.00665 -0.0407366 0)
(1.00509 -0.0361166 0)
(1.00387 -0.0319447 0)
(1.00317 -0.0280363 0)
(1.00275 -0.024766 0)
(1.00266 -0.0215066 0)
(1.00252 -0.0188031 0)
(1.00291 -0.0162175 0)
(1.003 -0.014186 0)
(1.00383 -0.0124582 0)
(1.00394 -0.0114173 0)
(1.00459 -0.0102576 0)
(1.00453 -0.00996219 0)
(1.00482 -0.00929158 0)
(1.0958 -0.0620651 0)
(1.08835 -0.065293 0)
(1.08069 -0.0678513 0)
(1.07265 -0.0692194 0)
(1.06474 -0.0698734 0)
(1.05678 -0.0693165 0)
(1.0492 -0.0681423 0)
(1.04195 -0.065873 0)
(1.03525 -0.0631101 0)
(1.02924 -0.0596038 0)
(1.02386 -0.0558155 0)
(1.01937 -0.0516863 0)
(1.01538 -0.0474757 0)
(1.01233 -0.0431858 0)
(1.00968 -0.0389691 0)
(1.00768 -0.0348779 0)
(1.00618 -0.0311273 0)
(1.00509 -0.0274596 0)
(1.00442 -0.0243569 0)
(1.00389 -0.0212733 0)
(1.00358 -0.0187464 0)
(1.00358 -0.0163147 0)
(1.00352 -0.0143545 0)
(1.00393 -0.0126455 0)
(1.00394 -0.0115472 0)
(1.00427 -0.0103627 0)
(1.00424 -0.00996553 0)
(1.00433 -0.00932999 0)
(1.09018 -0.0530357 0)
(1.08392 -0.0560623 0)
(1.07748 -0.0586197 0)
(1.0706 -0.0601405 0)
(1.06381 -0.0611389 0)
(1.05681 -0.0610712 0)
(1.05015 -0.0604901 0)
(1.04358 -0.0589302 0)
(1.0375 -0.056935 0)
(1.03185 -0.0542143 0)
(1.02673 -0.0511914 0)
(1.0223 -0.0477886 0)
(1.01837 -0.0442287 0)
(1.01513 -0.0405655 0)
(1.01234 -0.0369397 0)
(1.01008 -0.0333074 0)
(1.00839 -0.0299263 0)
(1.00688 -0.0265746 0)
(1.00597 -0.023757 0)
(1.00506 -0.0208627 0)
(1.00461 -0.018492 0)
(1.00423 -0.0161861 0)
(1.00401 -0.0143381 0)
(1.00401 -0.0126783 0)
(1.00392 -0.011578 0)
(1.00393 -0.0103791 0)
(1.00391 -0.00992861 0)
(1.00377 -0.00931328 0)
(1.08455 -0.044994 0)
(1.0793 -0.0477751 0)
(1.07395 -0.0502453 0)
(1.06807 -0.0518318 0)
(1.06229 -0.053048 0)
(1.05619 -0.0533218 0)
(1.05038 -0.0532075 0)
(1.0445 -0.0522199 0)
(1.03903 -0.0508527 0)
(1.03379 -0.0488178 0)
(1.02902 -0.0464612 0)
(1.02471 -0.0437192 0)
(1.02084 -0.0407903 0)
(1.01753 -0.0377069 0)
(1.01472 -0.0345876 0)
(1.01221 -0.0314164 0)
(1.01035 -0.028477 0)
(1.0085 -0.0254551 0)
(1.00744 -0.0228956 0)
(1.00616 -0.0202021 0)
(1.00557 -0.0180255 0)
(1.00481 -0.0158838 0)
(1.00447 -0.0141558 0)
(1.00409 -0.0125595 0)
(1.00391 -0.0114797 0)
(1.00359 -0.0102927 0)
(1.00355 -0.00982269 0)
(1.00315 -0.00922291 0)
(1.079 -0.0378752 0)
(1.07461 -0.0403784 0)
(1.07018 -0.0427085 0)
(1.06518 -0.0442768 0)
(1.06032 -0.045601 0)
(1.05502 -0.0461145 0)
(1.05002 -0.0463326 0)
(1.04477 -0.0457949 0)
(1.03992 -0.0449302 0)
(1.03511 -0.0434672 0)
(1.03071 -0.0416907 0)
(1.02656 -0.039551 0)
(1.02288 -0.037169 0)
(1.01953 -0.0346071 0)
(1.01671 -0.032007 0)
(1.01402 -0.0292842 0)
(1.01209 -0.0267516 0)
(1.00996 -0.0240401 0)
(1.00876 -0.0217839 0)
(1.00714 -0.0193324 0)
(1.00644 -0.0173532 0)
(1.00533 -0.0153787 0)
(1.00488 -0.0137716 0)
(1.00414 -0.012271 0)
(1.00387 -0.0112425 0)
(1.00322 -0.0100936 0)
(1.00317 -0.00961988 0)
(1.00248 -0.00903612 0)
(1.07359 -0.0315959 0)
(1.06993 -0.0338111 0)
(1.0663 -0.03595 0)
(1.06206 -0.0374452 0)
(1.058 -0.0387927 0)
(1.05342 -0.0394514 0)
(1.04913 -0.0398929 0)
(1.04449 -0.0396952 0)
(1.04023 -0.0392107 0)
(1.03584 -0.0382266 0)
(1.03185 -0.0369319 0)
(1.02793 -0.0352986 0)
(1.02446 -0.033418 0)
(1.0211 -0.0313518 0)
(1.01836 -0.0292162 0)
(1.01554 -0.0268928 0)
(1.01357 -0.0247645 0)
(1.01121 -0.0223867 0)
(1.00991 -0.0204394 0)
(1.00801 -0.0182297 0)
(1.0072 -0.016451 0)
(1.00577 -0.0146635 0)
(1.00522 -0.0131906 0)
(1.00414 -0.0118096 0)
(1.00381 -0.0108524 0)
(1.00283 -0.00975542 0)
(1.00276 -0.00929413 0)
(1.00177 -0.00873614 0)
(1.06842 -0.0260802 0)
(1.06535 -0.0279989 0)
(1.0624 -0.0299206 0)
(1.05881 -0.0312994 0)
(1.05545 -0.0326008 0)
(1.05149 -0.0333321 0)
(1.04786 -0.0339018 0)
(1.04377 -0.033944 0)
(1.04006 -0.0337484 0)
(1.03607 -0.0331339 0)
(1.03251 -0.0322254 0)
(1.0288 -0.0310296 0)
(1.0256 -0.029592 0)
(1.02229 -0.0279462 0)
(1.01966 -0.0262358 0)
(1.01675 -0.0242983 0)
(1.01479 -0.0225477 0)
(1.01224 -0.0204944 0)
(1.01089 -0.0188358 0)
(1.00875 -0.0168936 0)
(1.00785 -0.0153229 0)
(1.00613 -0.0137354 0)
(1.0055 -0.0124119 0)
(1.0041 -0.0111564 0)
(1.00372 -0.0102891 0)
(1.00242 -0.0092636 0)
(1.00233 -0.00883001 0)
(1.00103 -0.00830709 0)
(1.06355 -0.021239 0)
(1.06098 -0.0228711 0)
(1.05859 -0.0245543 0)
(1.05555 -0.0257838 0)
(1.05277 -0.026994 0)
(1.04937 -0.0277279 0)
(1.04631 -0.0283572 0)
(1.04269 -0.0285531 0)
(1.03949 -0.0285608 0)
(1.03588 -0.0282153 0)
(1.03274 -0.0276239 0)
(1.02926 -0.0267737 0)
(1.02634 -0.0257065 0)
(1.0231 -0.0244373 0)
(1.02063 -0.0231039 0)
(1.01768 -0.0215254 0)
(1.01575 -0.0201056 0)
(1.01307 -0.0183763 0)
(1.01167 -0.016999 0)
(1.00935 -0.0153283 0)
(1.00838 -0.0139758 0)
(1.00639 -0.0125936 0)
(1.00571 -0.011427 0)
(1.00402 -0.0103122 0)
(1.0036 -0.00954308 0)
(1.002 -0.00860453 0)
(1.00189 -0.0082141 0)
(1.00029 -0.00773481 0)
(1.05906 -0.0169907 0)
(1.05689 -0.0183457 0)
(1.05496 -0.0197784 0)
(1.05237 -0.0208415 0)
(1.0501 -0.0219193 0)
(1.04715 -0.0226082 0)
(1.04459 -0.0232379 0)
(1.04139 -0.0235137 0)
(1.03865 -0.023652 0)
(1.03538 -0.0234986 0)
(1.03262 -0.0231427 0)
(1.02937 -0.0225607 0)
(1.02673 -0.0218029 0)
(1.02359 -0.0208536 0)
(1.0213 -0.0198432 0)
(1.01834 -0.0185925 0)
(1.01648 -0.0174687 0)
(1.01369 -0.0160562 0)
(1.01229 -0.0149362 0)
(1.00981 -0.0135376 0)
(1.0088 -0.0124083 0)
(1.00658 -0.0112265 0)
(1.00586 -0.0102372 0)
(1.0039 -0.00927045 0)
(1.00345 -0.00859942 0)
(1.00158 -0.0077748 0)
(1.00143 -0.00743488 0)
(0.99956 -0.00700424 0)
(1.05504 -0.0132474 0)
(1.05319 -0.0143336 0)
(1.05163 -0.0155178 0)
(1.04941 -0.0163944 0)
(1.04755 -0.0173196 0)
(1.04498 -0.0179198 0)
(1.04283 -0.018506 0)
(1.03997 -0.0188027 0)
(1.03764 -0.0190119 0)
(1.03466 -0.0189821 0)
(1.03227 -0.0187886 0)
(1.02922 -0.0184171 0)
(1.02685 -0.0178924 0)
(1.02381 -0.0172177 0)
(1.02171 -0.0164733 0)
(1.01877 -0.0155194 0)
(1.01698 -0.0146597 0)
(1.01413 -0.0135374 0)
(1.01274 -0.0126656 0)
(1.01013 -0.0115281 0)
(1.00911 -0.0106171 0)
(1.00669 -0.00964653 0)
(1.00594 -0.00883705 0)
(1.00376 -0.00802359 0)
(1.00328 -0.00746642 0)
(1.00116 -0.00676685 0)
(1.001 -0.00647634 0)
(0.998869 -0.00610697 0)
(1.05157 -0.00991399 0)
(1.04996 -0.0107497 0)
(1.0487 -0.011677 0)
(1.04676 -0.0123669 0)
(1.04524 -0.0131129 0)
(1.04298 -0.0136009 0)
(1.04116 -0.0141044 0)
(1.03858 -0.0143764 0)
(1.03657 -0.0146076 0)
(1.03386 -0.0146391 0)
(1.03177 -0.0145589 0)
(1.0289 -0.0143309 0)
(1.02676 -0.0139888 0)
(1.02383 -0.0135352 0)
(1.02191 -0.0130058 0)
(1.019 -0.0123215 0)
(1.01732 -0.0116801 0)
(1.01441 -0.0108414 0)
(1.01305 -0.0101895 0)
(1.01036 -0.00930435 0)
(1.00932 -0.00861783 0)
(1.00674 -0.00784378 0)
(1.00598 -0.0072261 0)
(1.00361 -0.00657781 0)
(1.00311 -0.00612764 0)
(1.00077 -0.00557475 0)
(1.00059 -0.0053394 0)
(0.998241 -0.00503578 0)
(1.04877 -0.0068973 0)
(1.04733 -0.00749135 0)
(1.04628 -0.00816238 0)
(1.04456 -0.008659 0)
(1.0433 -0.00921189 0)
(1.04127 -0.00956781 0)
(1.0397 -0.00995942 0)
(1.03733 -0.0101742 0)
(1.03558 -0.0103808 0)
(1.03308 -0.0104355 0)
(1.03124 -0.0104135 0)
(1.02852 -0.0102905 0)
(1.02656 -0.0100768 0)
(1.02373 -0.00979988 0)
(1.02196 -0.00944745 0)
(1.01911 -0.00899079 0)
(1.01751 -0.0085523 0)
(1.01455 -0.00796598 0)
(1.01325 -0.00752032 0)
(1.01047 -0.00688473 0)
(1.00946 -0.00640193 0)
(1.00675 -0.00584105 0)
(1.00596 -0.00540818 0)
(1.00348 -0.00492617 0)
(1.00294 -0.00460166 0)
(1.00043 -0.00420067 0)
(1.00025 -0.00401665 0)
(0.997715 -0.00379135 0)
(1.04674 -0.00408896 0)
(1.0454 -0.0044425 0)
(1.04451 -0.00485538 0)
(1.04293 -0.00515431 0)
(1.04187 -0.00549756 0)
(1.03999 -0.00571496 0)
(1.03858 -0.00596361 0)
(1.03637 -0.00610406 0)
(1.03478 -0.00624455 0)
(1.03245 -0.00629313 0)
(1.03077 -0.00629411 0)
(1.02818 -0.00623713 0)
(1.02635 -0.00612285 0)
(1.02358 -0.00597675 0)
(1.02195 -0.00577387 0)
(1.01911 -0.00551587 0)
(1.01761 -0.00525604 0)
(1.01462 -0.00490785 0)
(1.01335 -0.00465161 0)
(1.01055 -0.0042636 0)
(1.00953 -0.0039808 0)
(1.00673 -0.00363788 0)
(1.00595 -0.00337509 0)
(1.00336 -0.00308196 0)
(1.0028 -0.00288447 0)
(1.00019 -0.00263207 0)
(0.999993 -0.00251936 0)
(0.997317 -0.00238243 0)
(1.04563 -0.00134603 0)
(1.04436 -0.00148922 0)
(1.04352 -0.00161752 0)
(1.04205 -0.00172197 0)
(1.04106 -0.00184959 0)
(1.03928 -0.00189799 0)
(1.03796 -0.00201189 0)
(1.03581 -0.00203491 0)
(1.03434 -0.0021029 0)