/*--------------------------------*- C++ -*----------------------------------*\
| =========                 |                                                 |
| \\      /  F ield         | OpenFOAM: The Open Source CFD Toolbox           |
|  \\    /   O peration     | Version:                                        |
|   \\  /    A nd           | Website:  www.openfoam.com                      |
|    \\/     M anipulation  |                                                 |
\*---------------------------------------------------------------------------*/
FoamFile
{
    version     2.0;
    format      ascii;
    class       volScalarField;
    location    "137.8";
    object      p;
}
// * * * * * * * * * * * * * * * * * * * * * * * * * * * * * * * * * * * * * //

dimensions      [0 2 -2 0 0 0 0];


internalField   nonuniform List<scalar> 
1164
(
-0.338638
-0.289822
-0.2401
-0.197852
-0.157681
-0.122349
-0.418059
-0.343097
-0.26732
-0.198165
-0.141488
-0.0963895
-0.0619624
-0.0364983
-0.0189203
-0.00961917
-0.531547
-0.427598
-0.331337
-0.245507
-0.173444
-0.113031
-0.0675172
-0.0367632
-0.014994
0.000789576
-0.576444
-0.449027
-0.361031
-0.249875
-0.162731
-0.101344
-0.0607834
-0.0318308
-0.0102577
0.00488897
-0.517428
-0.420474
-0.332075
-0.252611
-0.182631
-0.123481
-0.0767216
-0.0453147
-0.0254488
-0.00988432
-0.416091
-0.346026
-0.274073
-0.200739
-0.136956
-0.0878819
-0.0506917
-0.026157
-0.0119773
-0.00729793
-0.31968
-0.292014
-0.258507
-0.21922
-0.170238
-0.11286
-0.0633655
-0.0261498
-0.00139845
0.0105903
-0.295793
-0.29401
-0.284834
-0.264122
-0.227517
-0.186181
-0.142927
-0.0968105
-0.0580521
-0.024646
-0.33292
-0.35613
-0.372507
-0.369333
-0.351271
-0.315591
-0.262263
-0.202214
-0.139613
-0.0840401
-0.377674
-0.440706
-0.495061
-0.534554
-0.558099
-0.547228
-0.508397
-0.426398
-0.337329
-0.248845
-0.408952
-0.470478
-0.52667
-0.576739
-0.610346
-0.619471
-0.597866
-0.536278
-0.466407
-0.376483
-0.388412
-0.440041
-0.483782
-0.520646
-0.542969
-0.555793
-0.545935
-0.50774
-0.469437
-0.392995
-0.319151
-0.34504
-0.367064
-0.383704
-0.391717
-0.395373
-0.386183
-0.369002
-0.349354
-0.309774
-0.26427
-0.270923
-0.273727
-0.273452
-0.267493
-0.259123
-0.247573
-0.232543
-0.220714
-0.206277
-0.260956
-0.258799
-0.254457
-0.24818
-0.238558
-0.226381
-0.212547
-0.197797
-0.183709
-0.163859
-0.226378
-0.206845
-0.189352
-0.174492
-0.161022
-0.149096
-0.138663
-0.131296
-0.127396
-0.111045
-0.236697
-0.214872
-0.190988
-0.166796
-0.142736
-0.119128
-0.0976113
-0.0784435
-0.0655063
-0.0549777
-0.252682
-0.236078
-0.21757
-0.196663
-0.175242
-0.1523
-0.129554
-0.109232
-0.0882158
-0.0772449
-0.248177
-0.235679
-0.220577
-0.203379
-0.18371
-0.163644
-0.142356
-0.12137
-0.100736
-0.0812162
-0.193006
-0.190153
-0.186301
-0.182169
-0.17759
-0.173203
-0.167595
-0.159847
-0.14957
-0.137262
-0.176814
-0.181961
-0.186497
-0.190398
-0.193071
-0.193707
-0.191827
-0.186945
-0.179837
-0.168905
-0.209869
-0.209395
-0.209504
-0.20991
-0.209822
-0.208275
-0.20454
-0.197536
-0.194799
-0.189039
-0.228068
-0.226209
-0.223331
-0.220086
-0.216682
-0.212643
-0.206743
-0.197382
-0.184443
-0.167368
-0.183471
-0.187093
-0.189094
-0.189055
-0.187478
-0.184141
-0.179051
-0.171325
-0.161784
-0.151046
-0.146623
-0.150663
-0.154059
-0.156662
-0.158509
-0.159584
-0.159663
-0.158302
-0.155064
-0.150582
-0.177462
-0.185225
-0.193035
-0.200834
-0.208469
-0.215457
-0.221243
-0.225155
-0.226527
-0.224727
-0.182394
-0.188392
-0.1943
-0.200049
-0.205451
-0.210127
-0.213492
-0.214618
-0.213009
-0.208471
-0.128234
-0.121173
-0.11379
-0.106135
-0.0984947
-0.0906191
-0.0829336
-0.0747804
-0.0664172
-0.0586723
-0.0468455
-0.0365559
-0.0280692
-0.0217645
-0.0175608
-0.0152821
-0.0145504
-0.014915
-0.0162053
-0.0182403
-0.0190033
-0.0169594
-0.0151978
-0.0137719
-0.0126719
-0.0118906
-0.0112982
-0.0107631
-0.0102433
-0.00973054
0.0175732
0.0239602
0.0280153
0.0294251
0.0285815
0.0302275
0.0290856
0.029448
0.0280931
0.0266791
0.0250586
0.0234346
0.02189
0.020521
0.0193194
0.0183598
0.0175946
0.0170013
0.0165864
0.0162952
0.0161311
0.0160656
0.0160717
0.016116
0.0161918
0.0162784
0.0163273
0.0163755
0.0118618
0.0209371
0.0271916
0.0305057
0.037322
0.033778
0.0359116
0.0338202
0.0321438
0.0308603
0.0291281
0.0274565
0.0258723
0.0242513
0.0228872
0.0216052
0.0204902
0.0195226
0.018689
0.0180257
0.0175275
0.0171578
0.0169146
0.0167463
0.0166556
0.0166123
0.0166019
0.0166208
0.0166222
0.0166432
0.0141273
0.019009
0.0240731
0.0251525
0.028361
0.0265639
0.0307629
0.031255
0.0317129
0.0312619
0.0297959
0.028446
0.0268134
0.0252675
0.0237745
0.0224441
0.0213199
0.0203576
0.0195425
0.0188742
0.0183186
0.0178837
0.0175551
0.0173162
0.0171582
0.0170507
0.0169816
0.0169516
0.0169191
0.0169197
0.000168918
0.0041898
0.00592438
0.00646826
0.012796
0.0188096
0.0258405
0.0255649
0.0277706
0.028281
0.0280415
0.0272149
0.026145
0.0249835
0.0238715
0.0227948
0.0217871
0.0208554
0.020081
0.0194204
0.0188887
0.0184493
0.0181038
0.0178265
0.017618
0.0174605
0.0173451
0.0172746
0.0172158
0.0171983
-0.00401367
-0.00221886
-0.000915001
0.00287177
0.0132158
0.0223996
0.0282492
0.029467
0.030414
0.0299803
0.0291765
0.0278002
0.0265114
0.0253063
0.0241264
0.023154
0.0222607
0.0215064
0.0207903
0.0201447
0.0195816
0.0191005
0.0187069
0.0183836
0.0181209
0.0179064
0.0177386
0.0176189
0.0175246
0.0174849
0.0258117
0.0271165
0.0307478
0.0291152
0.0296853
0.0341892
0.0380637
0.0380881
0.0368028
0.0343996
0.0322959
0.0286298
0.0272717
0.0258833
0.0248327
0.0238344
0.0229932
0.0222227
0.0215372
0.0209369
0.0204033
0.0199048
0.0194644
0.0190645
0.0187163
0.0184214
0.0181763
0.0179898
0.0178473
0.0177792
0.00209354
0.0156335
0.0227014
0.0259815
0.0356469
0.0441744
0.0440614
0.0410454
0.0376077
0.0345282
0.0320083
0.0295623
0.0275443
0.0259501
0.0249022
0.0241364
0.0235504
0.0229381
0.0223201
0.0217254
0.0211573
0.0206349
0.0201512
0.0197009
0.0192955
0.0189286
0.0186137
0.0183639
0.0181747
0.0180801
-0.0371045
-0.002264
0.0124561
0.0218123
0.0374536
0.0472756
0.0454337
0.0413631
0.0363705
0.0327454
0.029803
0.0279216
0.0265206
0.0255871
0.0247866
0.0242052
0.0236974
0.02321
0.0227694
0.0222914
0.0217954
0.0212675
0.020747
0.0202468
0.0197823
0.0193631
0.0189975
0.0187031
0.0184836
0.01837
-0.169061
-0.113212
-0.0763338
-0.0375395
-0.00415278
0.0123491
0.0181214
0.0210042
0.0226035
0.0234585
0.0236379
0.0235764
0.0234231
0.0234053
0.0234692
0.0236117
0.0235231
0.0233349
0.023001
0.0226165
0.0221794
0.0217142
0.0212266
0.0207211
0.0202326
0.0197687
0.0193565
0.019023
0.0187726
0.0186408
-0.299476
-0.242874
-0.182943
-0.121122
-0.0737323
-0.0440457
-0.0245949
-0.010606
-6.27632e-05
0.00775665
0.0143194
0.0183121
0.0210222
0.0222509
0.023172
0.0235307
0.0238048
0.0238661
0.0237497
0.0234332
0.0229843
0.0224588
0.0218855
0.0213117
0.0207457
0.0202124
0.0197389
0.0193472
0.0190528
0.0188959
-0.335166
-0.273496
-0.204528
-0.141538
-0.0909237
-0.0578775
-0.034706
-0.0199129
-0.00812538
0.00144346
0.00873039
0.0140455
0.018244
0.0210199
0.022918
0.0239276
0.0244237
0.0245502
0.0244549
0.0241819
0.0237798
0.0232515
0.022646
0.0219859
0.0213266
0.0207011
0.0201374
0.0196719
0.019323
0.0191352
-0.267103
-0.22474
-0.178798
-0.133359
-0.094246
-0.0624283
-0.0374773
-0.0205826
-0.00641884
0.00324607
0.0102187
0.0154355
0.0189934
0.0216459
0.0234848
0.024768
0.0255319
0.0258154
0.0256791
0.025281
0.0246918
0.0240229
0.0232855
0.022541
0.0218062
0.0211038
0.0204748
0.0199511
0.0195598
0.0193486
-0.181276
-0.15821
-0.13869
-0.114742
-0.0969606
-0.0723562
-0.052896
-0.0322912
-0.0141419
-0.000977145
0.00957539
0.0165735
0.0211782
0.0238401
0.0255026
0.0262572
0.0266941
0.0267513
0.0265815
0.0261464
0.0255317
0.0247631
0.0239217
0.023055
0.0222095
0.0214273
0.0207302
0.0201566
0.0197333
0.0195032
-0.140483
-0.119449
-0.101402
-0.0843325
-0.0665738
-0.0456238
-0.0286136
-0.0114023
-0.00390489
0.0109783
0.0156664
0.0216449
0.0243504
0.0268952
0.0282044
0.0290689
0.0291449
0.0287851
0.0280835
0.0272765
0.0263756
0.0254569
0.0245065
0.0235448
0.0226188
0.0217427
0.0209647
0.0203269
0.019854
0.0195977
-0.0921451
-0.0785498
-0.0673076
-0.0579899
-0.0453572
-0.0298919
-0.0105652
0.0106261
0.0244839
0.0366062
0.039166
0.0392315
0.0369936
0.0352121
0.0338103
0.0328985
0.032226
0.0313217
0.0302947
0.0291013
0.027848
0.0265775
0.0253347
0.0241647
0.023061
0.0220562
0.0211781
0.0204554
0.0199239
0.0196353
-0.0479402
-0.0424758
-0.0366836
-0.0333041
-0.0296661
-0.0253798
-0.014039
0.00587344
0.0311192
0.0420307
0.0529659
0.0485199
0.0448037
0.042609
0.0398736
0.037231
0.0349649
0.0331654
0.0315342
0.030067
0.0286711
0.0272886
0.0259451
0.0246261
0.0233916
0.0222718
0.021291
0.0204952
0.0199128
0.0195969
-0.0469388
-0.0379442
-0.0298889
-0.0243524
-0.0187901
-0.0127494
-0.00302461
0.0153206
0.0379697
0.0492683
0.0529759
0.053212
0.0505231
0.0478878
0.0447201
0.0416363
0.0387036
0.03605
0.033647
0.031516
0.029602
0.027894
0.0263021
0.0248414
0.0235006
0.0222869
0.0212443
0.0203989
0.0197825
0.0194496
-0.0619698
-0.0480668
-0.0385777
-0.033043
-0.0261912
-0.0148064
0.000257639
0.0195207
0.0387647
0.050146
0.0523529
0.0510891
0.0484049
0.0456863
0.0429877
0.0406765
0.0384428
0.0363546
0.0343247
0.0323138
0.0303847
0.0284887
0.0267174
0.0250715
0.0235606
0.0222316
0.0210917
0.0201762
0.0195153
0.019158
-0.120406
-0.103944
-0.0913712
-0.0782803
-0.0610729
-0.0419487
-0.0212259
-0.000973874
0.0173168
0.0304422
0.0372818
0.0396612
0.0403757
0.0401308
0.0398004
0.0386887
0.0373058
0.0358228
0.0340343
0.0322816
0.0304202
0.0285953
0.0268099
0.0250845
0.0235011
0.022072
0.0208401
0.0198544
0.0191376
0.0187524
-0.158012
-0.148947
-0.137647
-0.122594
-0.103624
-0.081016
-0.056708
-0.0279291
-0.0037342
0.0138892
0.0294157
0.0344024
0.0401895
0.0403066
0.0409532
0.0398955
0.0387484
0.0369715
0.0350109
0.0328843
0.0307506
0.0286677
0.0266625
0.0248168
0.0231223
0.0216188
0.0203436
0.0193218
0.0185838
0.0181883
-0.175271
-0.156826
-0.136459
-0.114025
-0.0918306
-0.0688142
-0.0464385
-0.0255177
-0.00588194
0.00977968
0.0206351
0.0324226
0.0346848
0.0386525
0.0386323
0.038694
0.037637
0.036276
0.0345502
0.0325841
0.030473
0.0283079
0.0262393
0.0242752
0.0224889
0.0209279
0.0195995
0.018551
0.017799
0.017397
-0.150625
-0.132373
-0.110773
-0.0870082
-0.0628883
-0.0382207
-0.013961
0.0052663
0.0214093
0.0360903
0.0421723
0.0481504
0.0484497
0.0486163
0.0458339
0.0433316
0.0405758
0.0378207
0.0353275
0.0327515
0.030205
0.0278425
0.0255804
0.0235009
0.0216559
0.0200287
0.0186657
0.0175916
0.0168215
0.016412
-0.137905
-0.122728
-0.105775
-0.0860364
-0.0634241
-0.0391345
-0.0134739
0.0106587
0.0284393
0.0434785
0.0504472
0.0486342
0.0583996
0.0518439
0.0482801
0.0451521
0.041917
0.0386412
0.035544
0.0323963
0.029555
0.0268907
0.0244466
0.0223106
0.0204015
0.018769
0.0174168
0.0163529
0.0155994
0.015198
-0.145972
-0.138806
-0.128453
-0.114561
-0.0962037
-0.0733396
-0.0473123
-0.0203922
0.00353214
0.0215261
0.0430273
0.0435902
0.0488388
0.0458982
0.0442758
0.0426046
0.0393142
0.0366237
0.0333969
0.0304504
0.0276395
0.0249529
0.0226137
0.0204946
0.0186473
0.0170898
0.0157903
0.0147843
0.0140715
0.013693
-0.217767
-0.206517
-0.19221
-0.173159
-0.146911
-0.112989
-0.0729764
-0.0309473
0.005383
0.0314942
0.0484982
0.0520164
0.0522704
0.0487758
0.0459053
0.0424887
0.038945
0.0352463
0.031672
0.028471
0.0253798
0.0227195
0.0203623
0.0182831
0.016541
0.0150576
0.01385
0.0129194
0.0122608
0.0119139
-0.202272
-0.195832
-0.186657
-0.170707
-0.146071
-0.113786
-0.0744313
-0.0318535
0.00828406
0.0386868
0.0551571
0.0551364
0.0521316
0.0465645
0.0415048
0.0370043
0.0333229
0.0297596
0.026878
0.0240227
0.0214452
0.0191784
0.0171078
0.015353
0.0138352
0.0125518
0.0115115
0.0107017
0.0101344
0.00983472
-0.0508487
-0.0419291
-0.0310261
-0.0192135
-0.0087244
-0.00046275
0.00635547
0.0130737
0.0194374
0.0235738
0.0264927
0.0280301
0.0257036
0.0274466
0.0247965
0.0284011
0.0252703
0.0230984
0.0206248
0.018308
0.016363
0.014563
0.0130199
0.0116808
0.0105086
0.0095334
0.00872447
0.00809826
0.00765773
0.00742437
-0.0213431
-0.0239944
-0.0254085
-0.025307
-0.0232456
-0.0186999
-0.0118797
-0.00323593
0.00747338
0.0192137
0.0241044
0.029035
0.0312021
0.024748
0.0252968
0.0233364
0.0208023
0.0183785
0.0156667
0.0133987
0.0114761
0.00991066
0.00867304
0.00763627
0.00679479
0.006109
0.00555445
0.00513689
0.00484303
0.0046901
-0.00922457
-0.00857214
-0.00771885
-0.00655623
-0.00492469
-0.00271962
1.70922e-05
0.00293799
0.0053151
0.00873473
0.0081163
0.0102962
0.0121388
0.00981899
0.00992149
0.00906408
0.00819526
0.00730743
0.00629526
0.00538487
0.00452229
0.00381571
0.00324147
0.00278402
0.00243227
0.00215383
0.00193908
0.00178177
0.00167225
0.00161695
)
;

boundaryField
{
    outlet
    {
        type            fixedValue;
        value           uniform 0;
    }
    upperWall
    {
        type            symmetryPlane;
    }
    lowerWall
    {
        type            symmetryPlane;
    }
    inlet
    {
        type            zeroGradient;
    }
    cylinder
    {
        type            zeroGradient;
    }
    frontAndBack
    {
        type            empty;
    }
    procBoundary3to2
    {
        type            processor;
        value           nonuniform List<scalar> 
43
(
-0.31922
-0.295805
-0.267889
-0.235373
-0.20072
-0.169926
-0.0924311
-0.0924311
-0.0727927
-0.0611129
-0.0457224
0.000922242
0.00402129
0.0145608
0.0175891
0.0266366
0.0250461
0.0301882
0.027759
0.0283488
0.0269134
0.0251725
0.0234308
0.0217429
0.0202267
0.0189668
0.0178918
0.0170173
0.0163271
0.0158282
0.0155279
0.0153626
0.0153195
0.0153709
0.0154946
0.0156357
0.0157938
0.0159509
0.0160466
0.0161224
0.000922242
0.011014
0.011014
)
;
    }
    procBoundary3to7
    {
        type            processor;
        value           nonuniform List<scalar> 
30
(
-0.37845
-0.487568
-0.630484
-0.700269
-0.609543
-0.481148
-0.345217
-0.288909
-0.301615
-0.314325
-0.347661
-0.330901
-0.287149
-0.254302
-0.261741
-0.246459
-0.259351
-0.267256
-0.258657
-0.195125
-0.171673
-0.209997
-0.228465
-0.178427
-0.142072
-0.169622
-0.176183
-0.135288
-0.0586102
-0.021235
)
;
    }
}


// ************************************************************************* //
