/*--------------------------------*- C++ -*----------------------------------*\
| =========                 |                                                 |
| \\      /  F ield         | OpenFOAM: The Open Source CFD Toolbox           |
|  \\    /   O peration     | Version:                                        |
|   \\  /    A nd           | Website:  www.openfoam.com                      |
|    \\/     M anipulation  |                                                 |
\*---------------------------------------------------------------------------*/
FoamFile
{
    version     2.0;
    format      ascii;
    class       volScalarField;
    location    "0.4";
    object      p;
}
// * * * * * * * * * * * * * * * * * * * * * * * * * * * * * * * * * * * * * //

dimensions      [0 2 -2 0 0 0 0];


internalField   nonuniform List<scalar> 
400
(
0.278889
0.270844
0.262876
0.254982
0.247159
0.239404
0.231715
0.224088
0.216521
0.209012
0.20156
0.194161
0.186815
0.179519
0.172272
0.165072
0.157918
0.150809
0.143742
0.136714
0.278859
0.270816
0.262849
0.254957
0.247135
0.239382
0.231693
0.224067
0.216501
0.208994
0.201542
0.194144
0.186798
0.179503
0.172257
0.165058
0.157904
0.150796
0.14373
0.136702
0.2788
0.27076
0.262797
0.254907
0.247088
0.239337
0.231651
0.224027
0.216463
0.208957
0.201507
0.194111
0.186767
0.179473
0.172228
0.16503
0.157877
0.15077
0.143705
0.136679
0.278715
0.27068
0.262721
0.254836
0.247021
0.239273
0.23159
0.223969
0.216408
0.208904
0.201457
0.194063
0.186721
0.179429
0.172186
0.16499
0.157839
0.150733
0.14367
0.136645
0.278608
0.270579
0.262626
0.254745
0.246935
0.239192
0.231513
0.223896
0.216338
0.208838
0.201394
0.194003
0.186664
0.179374
0.172133
0.16494
0.157791
0.150687
0.143625
0.136603
0.278482
0.27046
0.262514
0.25464
0.246835
0.239097
0.231423
0.223811
0.216258
0.208762
0.201321
0.193933
0.186597
0.179311
0.172073
0.164882
0.157735
0.150634
0.143574
0.136554
0.278343
0.270329
0.262391
0.254524
0.246726
0.238994
0.231325
0.223718
0.21617
0.208678
0.201241
0.193858
0.186525
0.179242
0.172007
0.164819
0.157675
0.150576
0.143519
0.136502
0.278196
0.270192
0.262261
0.254402
0.246611
0.238885
0.231223
0.223621
0.216078
0.208591
0.201158
0.193778
0.18645
0.17917
0.171938
0.164753
0.157612
0.150516
0.143461
0.136447
0.278047
0.270052
0.26213
0.254279
0.246495
0.238776
0.231119
0.223523
0.215985
0.208503
0.201075
0.193699
0.186374
0.179098
0.17187
0.164687
0.15755
0.150456
0.143404
0.136393
0.277901
0.269915
0.262002
0.254158
0.246381
0.238669
0.231018
0.223428
0.215894
0.208417
0.200993
0.193622
0.186301
0.179028
0.171803
0.164624
0.157489
0.150398
0.143349
0.13634
0.277761
0.269785
0.261879
0.254043
0.246273
0.238567
0.230922
0.223337
0.215809
0.208336
0.200916
0.193549
0.186231
0.178962
0.17174
0.164564
0.157432
0.150344
0.143297
0.136291
0.27763
0.269662
0.261765
0.253935
0.246172
0.238471
0.230832
0.223252
0.215728
0.20826
0.200844
0.19348
0.186166
0.178901
0.171682
0.164509
0.15738
0.150293
0.143249
0.136246
0.277509
0.269549
0.261658
0.253836
0.246078
0.238383
0.230749
0.223173
0.215654
0.208189
0.200777
0.193417
0.186106
0.178844
0.171628
0.164457
0.157331
0.150247
0.143205
0.136204
0.277397
0.269443
0.261559
0.253742
0.24599
0.2383
0.23067
0.223099
0.215584
0.208123
0.200715
0.193358
0.18605
0.17879
0.171577
0.164409
0.157285
0.150204
0.143164
0.136166
0.277291
0.269344
0.261465
0.253654
0.245906
0.238221
0.230596
0.223028
0.215516
0.208059
0.200654
0.1933
0.185996
0.178739
0.171528
0.164363
0.157241
0.150162
0.143125
0.136128
0.277187
0.269246
0.261373
0.253567
0.245824
0.238143
0.230521
0.222958
0.21545
0.207996
0.200594
0.193243
0.185941
0.178687
0.171479
0.164316
0.157197
0.150121
0.143086
0.136091
0.277083
0.269147
0.261279
0.253478
0.245739
0.238062
0.230445
0.222885
0.21538
0.20793
0.200531
0.193183
0.185884
0.178633
0.171428
0.164268
0.157151
0.150077
0.143044
0.136052
0.276971
0.26904
0.261178
0.253381
0.245647
0.237975
0.230361
0.222805
0.215304
0.207857
0.200462
0.193117
0.185821
0.178573
0.171371
0.164213
0.157099
0.150028
0.142997
0.136007
0.276834
0.26891
0.261054
0.253262
0.245534
0.237866
0.230258
0.222706
0.21521
0.207767
0.200375
0.193034
0.185742
0.178497
0.171298
0.164144
0.157033
0.149965
0.142937
0.13595
0.276676
0.268759
0.260909
0.253124
0.245401
0.23774
0.230136
0.22259
0.215098
0.20766
0.200273
0.192936
0.185648
0.178407
0.171212
0.164061
0.156954
0.149889
0.142865
0.135881
)
;

boundaryField
{
    fixedWalls
    {
        type            zeroGradient;
    }
    inlet
    {
        type            zeroGradient;
    }
    outlet
    {
        type            fixedValue;
        value           nonuniform 0();
    }
    frontAndBack
    {
        type            empty;
    }
    procBoundary6to2
    {
        type            processor;
        value           nonuniform List<scalar> 
20
(
0.278889
0.270844
0.262876
0.254982
0.247159
0.239404
0.231715
0.224088
0.216521
0.209012
0.20156
0.194161
0.186815
0.179519
0.172272
0.165072
0.157918
0.150809
0.143742
0.136714
)
;
    }
    procBoundary6to5
    {
        type            processor;
        value           nonuniform List<scalar> 
20
(
0.287015
0.286983
0.286921
0.286831
0.286716
0.286582
0.286434
0.286278
0.286119
0.285962
0.285812
0.285672
0.285543
0.285423
0.28531
0.2852
0.28509
0.284971
0.284828
0.284662
)
;
    }
    procBoundary6to7
    {
        type            processor;
        value           nonuniform List<scalar> 
20
(
0.129733
0.129721
0.129698
0.129665
0.129625
0.129578
0.129527
0.129474
0.129422
0.129371
0.129324
0.129281
0.129242
0.129205
0.12917
0.129135
0.129098
0.129056
0.129002
0.128936
)
;
    }
}


// ************************************************************************* //
