/*--------------------------------*- C++ -*----------------------------------*\
| =========                 |                                                 |
| \\      /  F ield         | OpenFOAM: The Open Source CFD Toolbox           |
|  \\    /   O peration     | Version:                                        |
|   \\  /    A nd           | Website:  www.openfoam.com                      |
|    \\/     M anipulation  |                                                 |
\*---------------------------------------------------------------------------*/
FoamFile
{
    version     2.0;
    format      ascii;
    class       surfaceScalarField;
    location    "0.4";
    object      phi;
}
// * * * * * * * * * * * * * * * * * * * * * * * * * * * * * * * * * * * * * //

dimensions      [0 3 -1 0 0 0 0];
oriented        oriented;


internalField   nonuniform List<scalar> 
760
(
3.46773e-05
-1.09879e-07
3.47829e-05
-1.05563e-07
3.48843e-05
-1.01414e-07
3.49817e-05
-9.74245e-08
3.50754e-05
-9.3588e-08
3.51653e-05
-8.98958e-08
3.52517e-05
-8.63416e-08
3.53346e-05
-8.29203e-08
3.54143e-05
-7.96242e-08
3.54908e-05
-7.64459e-08
3.55643e-05
-7.3383e-08
3.56348e-05
-7.04246e-08
3.57024e-05
-6.75682e-08
3.57673e-05
-6.48047e-08
3.58296e-05
-6.21331e-08
3.58892e-05
-5.95418e-08
3.59464e-05
-5.70354e-08
3.60012e-05
-5.45944e-08
3.60536e-05
-5.22337e-08
-4.99514e-08
3.4614e-05
-2.15284e-07
3.47152e-05
-2.06773e-07
3.48124e-05
-1.98599e-07
3.49057e-05
-1.90747e-07
3.49954e-05
-1.83201e-07
3.50814e-05
-1.75946e-07
3.5164e-05
-1.68968e-07
3.52434e-05
-1.62254e-07
3.53195e-05
-1.5579e-07
3.53926e-05
-1.49563e-07
3.54628e-05
-1.43563e-07
3.55302e-05
-1.37772e-07
3.55948e-05
-1.32184e-07
3.56568e-05
-1.26781e-07
3.57162e-05
-1.2156e-07
3.57732e-05
-1.165e-07
3.58277e-05
-1.11606e-07
3.588e-05
-1.06848e-07
3.593e-05
-1.0225e-07
-9.779e-08
3.44802e-05
-3.11884e-07
3.45729e-05
-2.99422e-07
3.46617e-05
-2.87471e-07
3.4747e-05
-2.76005e-07
3.48288e-05
-2.65e-07
3.49073e-05
-2.54431e-07
3.49826e-05
-2.44277e-07
3.50549e-05
-2.34516e-07
3.51242e-05
-2.25127e-07
3.51907e-05
-2.16089e-07
3.52545e-05
-2.07386e-07
3.53158e-05
-1.98992e-07
3.53745e-05
-1.90898e-07
3.54308e-05
-1.83075e-07
3.54847e-05
-1.75521e-07
3.55364e-05
-1.68203e-07
3.5586e-05
-1.61126e-07
3.56334e-05
-1.54253e-07
3.56787e-05
-1.47603e-07
-1.41151e-07
3.42618e-05
-3.95734e-07
3.4342e-05
-3.797e-07
3.44189e-05
-3.64352e-07
3.44926e-05
-3.49652e-07
3.45631e-05
-3.35565e-07
3.46308e-05
-3.22056e-07
3.46956e-05
-3.09095e-07
3.47577e-05
-2.9665e-07
3.48173e-05
-2.84693e-07
3.48744e-05
-2.73193e-07
3.49291e-05
-2.62129e-07
3.49816e-05
-2.51467e-07
3.50319e-05
-2.41192e-07
3.50801e-05
-2.31269e-07
3.51263e-05
-2.21692e-07
3.51705e-05
-2.1242e-07
3.52128e-05
-2.03454e-07
3.52533e-05
-1.94757e-07
3.5292e-05
-1.86333e-07
-1.78168e-07
3.39386e-05
-4.63456e-07
3.40032e-05
-4.44372e-07
3.4065e-05
-4.26144e-07
3.41241e-05
-4.0872e-07
3.41806e-05
-3.92054e-07
3.42346e-05
-3.76098e-07
3.42863e-05
-3.60813e-07
3.43358e-05
-3.46155e-07
3.43832e-05
-3.32091e-07
3.44286e-05
-3.18579e-07
3.44721e-05
-3.05591e-07
3.45137e-05
-2.93087e-07
3.45536e-05
-2.81047e-07
3.45917e-05
-2.69427e-07
3.46282e-05
-2.58219e-07
3.46632e-05
-2.47374e-07
3.46966e-05
-2.36892e-07
3.47286e-05
-2.2673e-07
3.47592e-05
-2.16883e-07
-2.0735e-07
3.34859e-05
-5.12445e-07
3.35325e-05
-4.90975e-07
3.35768e-05
-4.70515e-07
3.36191e-05
-4.51001e-07
3.36594e-05
-4.32371e-07
3.36979e-05
-4.14568e-07
3.37346e-05
-3.97539e-07
3.37697e-05
-3.81235e-07
3.38032e-05
-3.6561e-07
3.38353e-05
-3.50617e-07
3.38659e-05
-3.36221e-07
3.38952e-05
-3.22375e-07
3.39232e-05
-3.09053e-07
3.395e-05
-2.96206e-07
3.39756e-05
-2.8382e-07
3.4e-05
-2.71845e-07
3.40234e-05
-2.60274e-07
3.40457e-05
-2.49063e-07
3.40671e-05
-2.382e-07
-2.27689e-07
3.28759e-05
-5.41057e-07
3.29029e-05
-5.1799e-07
3.29285e-05
-4.9606e-07
3.29527e-05
-4.75188e-07
3.29756e-05
-4.55303e-07
3.29974e-05
-4.36333e-07
3.3018e-05
-4.18219e-07
3.30377e-05
-4.00901e-07
3.30564e-05
-3.84326e-07
3.30743e-05
-3.68441e-07
3.30912e-05
-3.53204e-07
3.31074e-05
-3.38564e-07
3.31229e-05
-3.24489e-07
3.31376e-05
-3.10926e-07
3.31516e-05
-2.97857e-07
3.3165e-05
-2.85229e-07
3.31778e-05
-2.73032e-07
3.31899e-05
-2.61219e-07
3.32015e-05
-2.49775e-07
-2.38704e-07
3.20799e-05
-5.48758e-07
3.20869e-05
-5.24971e-07
3.20932e-05
-5.0241e-07
3.2099e-05
-4.80982e-07
3.21043e-05
-4.60604e-07
3.21092e-05
-4.41199e-07
3.21137e-05
-4.22698e-07
3.21178e-05
-4.05035e-07
3.21216e-05
-3.88152e-07
3.21252e-05
-3.7199e-07
3.21285e-05
-3.56502e-07
3.21316e-05
-3.41634e-07
3.21344e-05
-3.2735e-07
3.21371e-05
-3.13596e-07
3.21396e-05
-3.0035e-07
3.21419e-05
-2.87557e-07
3.21441e-05
-2.75204e-07
3.21461e-05
-2.63246e-07
3.2148e-05
-2.51663e-07
-2.40456e-07
3.10698e-05
-5.36197e-07
3.10574e-05
-5.12607e-07
3.10453e-05
-4.90278e-07
3.10334e-05
-4.69112e-07
3.10218e-05
-4.49018e-07
3.10106e-05
-4.29914e-07
3.09996e-05
-4.11725e-07
3.09889e-05
-3.94383e-07
3.09786e-05
-3.77824e-07
3.09686e-05
-3.6199e-07
3.09589e-05
-3.4683e-07
3.09496e-05
-3.32287e-07
3.09406e-05
-3.18324e-07
3.09319e-05
-3.04888e-07
3.09235e-05
-2.91953e-07
3.09154e-05
-2.79467e-07
3.09076e-05
-2.67411e-07
3.09001e-05
-2.55746e-07
3.08929e-05
-2.4445e-07
-2.33513e-07
2.98203e-05
-5.05189e-07
2.97904e-05
-4.82683e-07
2.97616e-05
-4.61419e-07
2.97337e-05
-4.41295e-07
2.97069e-05
-4.2222e-07
2.96811e-05
-4.04109e-07
2.96563e-05
-3.86888e-07
2.96324e-05
-3.70485e-07
2.96094e-05
-3.5484e-07
2.95873e-05
-3.39891e-07
2.95661e-05
-3.25588e-07
2.95457e-05
-3.11878e-07
2.95261e-05
-2.98721e-07
2.95072e-05
-2.86067e-07
2.94892e-05
-2.73886e-07
2.94718e-05
-2.62135e-07
2.94552e-05
-2.50788e-07
2.94393e-05
-2.39813e-07
2.9424e-05
-2.29185e-07
-2.18885e-07
2.83106e-05
-4.58585e-07
2.82659e-05
-4.37956e-07
2.82229e-05
-4.18494e-07
2.81817e-05
-4.00101e-07
2.81422e-05
-3.82687e-07
2.81043e-05
-3.66173e-07
2.80679e-05
-3.50484e-07
2.80329e-05
-3.35555e-07
2.79994e-05
-3.21326e-07
2.79673e-05
-3.07739e-07
2.79364e-05
-2.94747e-07
2.79069e-05
-2.823e-07
2.78785e-05
-2.70358e-07
2.78513e-05
-2.58878e-07
2.78252e-05
-2.47829e-07
2.78003e-05
-2.37172e-07
2.77764e-05
-2.2688e-07
2.77535e-05
-2.16929e-07
2.77316e-05
-2.07291e-07
-1.97939e-07
2.6525e-05
-4.00061e-07
2.6469e-05
-3.81945e-07
2.64154e-05
-3.64873e-07
2.6364e-05
-3.48754e-07
2.63149e-05
-3.33509e-07
2.62677e-05
-3.19062e-07
2.62226e-05
-3.05348e-07
2.61794e-05
-2.92306e-07
2.61379e-05
-2.79883e-07
2.60982e-05
-2.68026e-07
2.60601e-05
-2.56693e-07
2.60237e-05
-2.45839e-07
2.59888e-05
-2.35426e-07
2.59553e-05
-2.25419e-07
2.59233e-05
-2.15788e-07
2.58926e-05
-2.065e-07
2.58632e-05
-1.97528e-07
2.58352e-05
-1.88856e-07
2.58083e-05
-1.80453e-07
-1.72286e-07
2.4454e-05
-3.33833e-07
2.43907e-05
-3.18662e-07
2.43302e-05
-3.04377e-07
2.42723e-05
-2.90899e-07
2.4217e-05
-2.78159e-07
2.4164e-05
-2.66093e-07
2.41133e-05
-2.54645e-07
2.40648e-05
-2.43761e-07
2.40183e-05
-2.33399e-07
2.39738e-05
-2.23512e-07
2.39311e-05
-2.14062e-07
2.38903e-05
-2.05013e-07
2.38512e-05
-1.96334e-07
2.38138e-05
-1.87993e-07
2.3778e-05
-1.79964e-07
2.37437e-05
-1.72223e-07
2.37109e-05
-1.64741e-07
2.36796e-05
-1.57514e-07
2.36496e-05
-1.50502e-07
-1.43679e-07
2.20936e-05
-2.64347e-07
2.20273e-05
-2.52329e-07
2.19639e-05
-2.41016e-07
2.19034e-05
-2.30347e-07
2.18455e-05
-2.20265e-07
2.17901e-05
-2.10719e-07
2.17371e-05
-2.01665e-07
2.16864e-05
-1.93059e-07
2.16379e-05
-1.84865e-07
2.15914e-05
-1.77049e-07
2.15469e-05
-1.69579e-07
2.15043e-05
-1.62426e-07
2.14636e-05
-1.55565e-07
2.14245e-05
-1.48971e-07
2.13872e-05
-1.42622e-07
2.13515e-05
-1.36502e-07
2.13173e-05
-1.30582e-07
2.12847e-05
-1.24867e-07
2.12535e-05
-1.19313e-07
-1.13905e-07
1.94451e-05
-1.96001e-07
1.93799e-05
-1.87111e-07
1.93176e-05
-1.78744e-07
1.92581e-05
-1.70854e-07
1.92012e-05
-1.63398e-07
1.91468e-05
-1.56339e-07
1.90948e-05
-1.49644e-07
1.9045e-05
-1.4328e-07
1.89974e-05
-1.37221e-07
1.89518e-05
-1.31441e-07
1.89081e-05
-1.25917e-07
1.88663e-05
-1.20627e-07
1.88263e-05
-1.15552e-07
1.8788e-05
-1.10674e-07
1.87514e-05
-1.05976e-07
1.87163e-05
-1.01447e-07
1.86828e-05
-9.70646e-08
1.86508e-05
-9.28346e-08
1.86202e-05
-8.87147e-08
-8.47048e-08
1.65135e-05
-1.32913e-07
1.64533e-05
-1.26914e-07
1.63958e-05
-1.21267e-07
1.63409e-05
-1.1594e-07
1.62884e-05
-1.10907e-07
1.62382e-05
-1.06141e-07
1.61902e-05
-1.01618e-07
1.61442e-05
-9.73203e-08
1.61002e-05
-9.32281e-08
1.60581e-05
-8.93233e-08
1.60178e-05
-8.55906e-08
1.59792e-05
-8.20159e-08
1.59422e-05
-7.85855e-08
1.59068e-05
-7.52886e-08
1.58729e-05
-7.21121e-08
1.58406e-05
-6.90497e-08
1.58096e-05
-6.60839e-08
1.578e-05
-6.32235e-08
1.57517e-05
-6.04297e-08
-5.77151e-08
1.33064e-05
-7.87759e-08
1.32547e-05
-7.52456e-08
1.32054e-05
-7.19204e-08
1.31582e-05
-6.87837e-08
1.31131e-05
-6.5818e-08
1.307e-05
-6.30095e-08
1.30287e-05
-6.03447e-08
1.29892e-05
-5.78107e-08
1.29514e-05
-5.53975e-08
1.29152e-05
-5.30949e-08
1.28805e-05
-5.08929e-08
1.28472e-05
-4.87841e-08
1.28154e-05
-4.67602e-08
1.27849e-05
-4.48144e-08
1.27558e-05
-4.29391e-08
1.27278e-05
-4.11317e-08
1.27011e-05
-3.93799e-08
1.26756e-05
-3.76916e-08
1.26512e-05
-3.6037e-08
-3.4435e-08
9.83248e-06
-3.68007e-08
9.7924e-06
-3.51666e-08
9.7541e-06
-3.36267e-08
9.71749e-06
-3.21731e-08
9.68247e-06
-3.07989e-08
9.64896e-06
-2.94964e-08
9.61688e-06
-2.82601e-08
9.58615e-06
-2.70845e-08
9.55672e-06
-2.59646e-08
9.52852e-06
-2.48958e-08
9.5015e-06
-2.38734e-08
9.47561e-06
-2.28944e-08
9.4508e-06
-2.19546e-08
9.42704e-06
-2.10509e-08
9.40428e-06
-2.01799e-08
9.38249e-06
-1.9341e-08
9.36164e-06
-1.85265e-08
9.34169e-06
-1.7743e-08
9.32262e-06
-1.69716e-08
-1.62289e-08
6.10005e-06
-9.74424e-09
6.0742e-06
-9.31715e-09
6.04949e-06
-8.91424e-09
6.02585e-06
-8.53397e-09
6.00322e-06
-8.174e-09
5.98156e-06
-7.83259e-09
5.96081e-06
-7.50863e-09
5.94092e-06
-7.20044e-09
5.92187e-06
-6.90664e-09
5.9036e-06
-6.62629e-09
5.88608e-06
-6.35808e-09
5.86929e-06
-6.10132e-09
5.85319e-06
-5.85483e-09
5.83776e-06
-5.61786e-09
5.82296e-06
-5.38942e-09
5.80879e-06
-5.1697e-09
5.79522e-06
-4.95572e-09
5.78223e-06
-4.7508e-09
5.76981e-06
-4.54718e-09
-4.35317e-09
2.11588e-06
2.10656e-06
2.09765e-06
2.08911e-06
2.08094e-06
2.07311e-06
2.0656e-06
2.0584e-06
2.05149e-06
2.04487e-06
2.03851e-06
2.03241e-06
2.02655e-06
2.02093e-06
2.01554e-06
2.01037e-06
2.00542e-06
2.00067e-06
1.99612e-06
)
;

boundaryField
{
    fixedWalls
    {
        type            calculated;
        value           uniform 0;
    }
    inlet
    {
        type            calculated;
        value           nonuniform 0();
    }
    outlet
    {
        type            calculated;
        value           nonuniform 0();
    }
    frontAndBack
    {
        type            empty;
        value           nonuniform 0();
    }
    procBoundary6to2
    {
        type            processor;
        value           nonuniform List<scalar> 
20
(
-1.82243e-11
-2.09146e-11
-2.41666e-11
-2.80044e-11
-3.21522e-11
-3.59626e-11
-3.97792e-11
-4.47196e-11
-5.18626e-11
-6.02011e-11
-6.77239e-11
-7.60778e-11
-8.70822e-11
-9.83584e-11
-1.09892e-10
-1.25039e-10
-1.39291e-10
-1.55109e-10
-1.77171e-10
-1.90222e-10
)
;
    }
    procBoundary6to5
    {
        type            processor;
        value           nonuniform List<scalar> 
20
(
-3.45674e-05
-3.45086e-05
-3.43836e-05
-3.41779e-05
-3.38708e-05
-3.34369e-05
-3.28473e-05
-3.20722e-05
-3.10824e-05
-2.98513e-05
-2.83572e-05
-2.65835e-05
-2.45202e-05
-2.21631e-05
-1.95134e-05
-1.65766e-05
-1.33605e-05
-9.87445e-06
-6.12711e-06
-2.12562e-06
)
;
    }
    procBoundary6to7
    {
        type            processor;
        value           nonuniform List<scalar> 
20
(
3.61037e-05
3.59778e-05
3.57221e-05
3.53291e-05
3.47883e-05
3.40874e-05
3.32125e-05
3.21497e-05
3.08859e-05
2.94094e-05
2.77106e-05
2.57827e-05
2.3621e-05
2.12237e-05
1.8591e-05
1.57247e-05
1.26279e-05
9.30442e-06
5.75793e-06
1.99177e-06
)
;
    }
}


// ************************************************************************* //
