/*--------------------------------*- C++ -*----------------------------------*\
| =========                 |                                                 |
| \\      /  F ield         | OpenFOAM: The Open Source CFD Toolbox           |
|  \\    /   O peration     | Version:                                        |
|   \\  /    A nd           | Website:  www.openfoam.com                      |
|    \\/     M anipulation  |                                                 |
\*---------------------------------------------------------------------------*/
FoamFile
{
    version     2.0;
    format      ascii;
    class       volVectorField;
    location    "0.4";
    object      U;
}
// * * * * * * * * * * * * * * * * * * * * * * * * * * * * * * * * * * * * * //

dimensions      [0 1 -1 0 0 0 0];


internalField   nonuniform List<vector> 
400
(
(1.38494 -0.0011101 0)
(1.38925 -0.00106663 0)
(1.39338 -0.00102479 0)
(1.39736 -0.000984548 0)
(1.40118 -0.000945829 0)
(1.40485 -0.000908555 0)
(1.40837 -0.000872661 0)
(1.41176 -0.000838086 0)
(1.41501 -0.000804741 0)
(1.41813 -0.00077256 0)
(1.42113 -0.000741554 0)
(1.42401 -0.000711593 0)
(1.42677 -0.00068262 0)
(1.42942 -0.000654584 0)
(1.43196 -0.000627476 0)
(1.4344 -0.00060113 0)
(1.43674 -0.000575656 0)
(1.43898 -0.000550816 0)
(1.44112 -0.000526708 0)
(1.44317 -0.000503482 0)
(1.3825 -0.00328567 0)
(1.38663 -0.00315649 0)
(1.39059 -0.00303234 0)
(1.3944 -0.00291299 0)
(1.39806 -0.00279822 0)
(1.40157 -0.00268779 0)
(1.40494 -0.00258151 0)
(1.40818 -0.00247922 0)
(1.41129 -0.00238071 0)
(1.41427 -0.00228574 0)
(1.41714 -0.0021942 0)
(1.41989 -0.00210582 0)
(1.42253 -0.00202051 0)
(1.42506 -0.00193799 0)
(1.42748 -0.00185824 0)
(1.42981 -0.00178091 0)
(1.43204 -0.00170611 0)
(1.43418 -0.00163333 0)
(1.43622 -0.00156301 0)
(1.43818 -0.00149491 0)
(1.37732 -0.0053269 0)
(1.3811 -0.0051156 0)
(1.38473 -0.00491277 0)
(1.38821 -0.004718 0)
(1.39155 -0.00453089 0)
(1.39475 -0.00435106 0)
(1.39783 -0.00417817 0)
(1.40078 -0.00401187 0)
(1.40361 -0.00385183 0)
(1.40633 -0.00369767 0)
(1.40893 -0.00354916 0)
(1.41143 -0.00340587 0)
(1.41383 -0.00326764 0)
(1.41613 -0.00313399 0)
(1.41833 -0.00300491 0)
(1.42045 -0.00287981 0)
(1.42247 -0.00275882 0)
(1.42441 -0.00264125 0)
(1.42626 -0.00252758 0)
(1.42804 -0.00241725 0)
(1.36883 -0.00715023 0)
(1.37211 -0.00686298 0)
(1.37525 -0.00658771 0)
(1.37826 -0.00632379 0)
(1.38114 -0.00607062 0)
(1.38391 -0.00582763 0)
(1.38655 -0.0055943 0)
(1.38909 -0.0053701 0)
(1.39153 -0.00515456 0)
(1.39386 -0.00494714 0)
(1.39609 -0.00474747 0)
(1.39824 -0.00455496 0)
(1.40029 -0.00436938 0)
(1.40226 -0.00419006 0)
(1.40415 -0.00401695 0)
(1.40596 -0.0038493 0)
(1.40768 -0.00368717 0)
(1.40934 -0.00352981 0)
(1.41092 -0.00337745 0)
(1.41244 -0.00322968 0)
(1.35622 -0.00868137 0)
(1.35887 -0.00832716 0)
(1.36139 -0.00798841 0)
(1.36381 -0.00766425 0)
(1.36612 -0.00735386 0)
(1.36833 -0.00705642 0)
(1.37044 -0.00677122 0)
(1.37247 -0.00649754 0)
(1.3744 -0.00623474 0)
(1.37626 -0.00598211 0)
(1.37803 -0.00573915 0)
(1.37973 -0.00550511 0)
(1.38136 -0.00527966 0)
(1.38292 -0.00506199 0)
(1.38441 -0.00485197 0)
(1.38585 -0.0046487 0)
(1.38721 -0.00445218 0)
(1.38852 -0.0042616 0)
(1.38977 -0.00407694 0)
(1.39096 -0.00389808 0)
(1.33848 -0.00985945 0)
(1.34039 -0.00945018 0)
(1.34221 -0.00905967 0)
(1.34394 -0.00868678 0)
(1.34559 -0.00833042 0)
(1.34716 -0.00798954 0)
(1.34867 -0.00766321 0)
(1.3501 -0.00735052 0)
(1.35147 -0.00705065 0)
(1.35278 -0.00676273 0)
(1.35404 -0.0064861 0)
(1.35523 -0.00621991 0)
(1.35638 -0.0059637 0)
(1.35748 -0.00571651 0)
(1.35852 -0.00547815 0)
(1.35952 -0.00524759 0)
(1.36048 -0.00502478 0)
(1.36139 -0.00480885 0)
(1.36227 -0.00459959 0)
(1.3631 -0.00439707 0)
(1.31448 -0.0106411 0)
(1.31559 -0.0101914 0)
(1.31664 -0.00976339 0)
(1.31764 -0.00935557 0)
(1.31858 -0.00896662 0)
(1.31947 -0.00859525 0)
(1.32032 -0.00824034 0)
(1.32113 -0.00790076 0)
(1.32189 -0.00757554 0)
(1.32262 -0.00726368 0)
(1.32332 -0.00696437 0)
(1.32398 -0.00667664 0)
(1.32461 -0.00639992 0)
(1.32522 -0.00613316 0)
(1.32579 -0.00587606 0)
(1.32634 -0.00562754 0)
(1.32686 -0.00538747 0)
(1.32736 -0.00515493 0)
(1.32783 -0.00492961 0)
(1.32829 -0.00471162 0)
(1.28305 -0.0110039 0)
(1.28334 -0.0105307 0)
(1.28361 -0.0100814 0)
(1.28385 -0.00965421 0)
(1.28407 -0.00924759 0)
(1.28427 -0.00886007 0)
(1.28446 -0.00849032 0)
(1.28463 -0.00813706 0)
(1.28479 -0.0077992 0)
(1.28494 -0.0074756 0)
(1.28508 -0.00716535 0)
(1.2852 -0.00686739 0)
(1.28532 -0.00658104 0)
(1.28543 -0.00630521 0)
(1.28553 -0.00603952 0)
(1.28563 -0.00578284 0)
(1.28572 -0.00553498 0)
(1.28581 -0.00529499 0)
(1.28588 -0.00506251 0)
(1.28596 -0.0048376 0)
(1.24304 -0.0109488 0)
(1.24254 -0.0104704 0)
(1.24205 -0.0100171 0)
(1.24157 -0.00958702 0)
(1.2411 -0.00917841 0)
(1.24065 -0.00878962 0)
(1.2402 -0.00841924 0)
(1.23977 -0.00806587 0)
(1.23935 -0.00772831 0)
(1.23894 -0.00740537 0)
(1.23855 -0.00709604 0)
(1.23817 -0.00679921 0)
(1.2378 -0.00651415 0)
(1.23745 -0.00623975 0)
(1.2371 -0.00597554 0)
(1.23677 -0.00572045 0)
(1.23646 -0.00547416 0)
(1.23615 -0.00523579 0)
(1.23586 -0.00500495 0)
(1.23557 -0.00478153 0)
(1.19342 -0.010501 0)
(1.1922 -0.0100357 0)
(1.19103 -0.00959567 0)
(1.1899 -0.00917897 0)
(1.1888 -0.00878372 0)
(1.18775 -0.00840823 0)
(1.18674 -0.00805098 0)
(1.18576 -0.00771057 0)
(1.18483 -0.00738573 0)
(1.18393 -0.00707525 0)
(1.18306 -0.0067781 0)
(1.18223 -0.00649317 0)
(1.18143 -0.00621968 0)
(1.18066 -0.00595659 0)
(1.17992 -0.00570334 0)
(1.17921 -0.00545895 0)
(1.17853 -0.005223 0)
(1.17788 -0.00499473 0)
(1.17726 -0.00477371 0)
(1.17666 -0.0045596 0)
(1.13334 -0.00970781 0)
(1.13151 -0.00927277 0)
(1.12976 -0.0088621 0)
(1.12808 -0.00847375 0)
(1.12646 -0.00810591 0)
(1.12491 -0.0077569 0)
(1.12343 -0.00742521 0)
(1.122 -0.00710947 0)
(1.12063 -0.00680844 0)
(1.11932 -0.00652093 0)
(1.11806 -0.00624594 0)
(1.11685 -0.00598243 0)
(1.1157 -0.00572959 0)
(1.11458 -0.00548649 0)
(1.11352 -0.00525251 0)
(1.1125 -0.00502681 0)
(1.11152 -0.00480888 0)
(1.11059 -0.00459812 0)
(1.10969 -0.00439403 0)
(1.10884 -0.00419611 0)
(1.06215 -0.00863599 0)
(1.05986 -0.00824579 0)
(1.05766 -0.00787794 0)
(1.05557 -0.00753049 0)
(1.05356 -0.00720175 0)
(1.05163 -0.00689014 0)
(1.04979 -0.00659425 0)
(1.04802 -0.0063128 0)
(1.04633 -0.00604464 0)
(1.04471 -0.00578867 0)
(1.04315 -0.00554397 0)
(1.04166 -0.00530958 0)
(1.04023 -0.00508473 0)
(1.03887 -0.00486862 0)
(1.03756 -0.00466061 0)
(1.0363 -0.00446003 0)
(1.0351 -0.0042663 0)
(1.03395 -0.00407901 0)
(1.03286 -0.00389758 0)
(1.03181 -0.0037214 0)
(0.979453 -0.00736599 0)
(0.976865 -0.00703151 0)
(0.974391 -0.00671647 0)
(0.972025 -0.00641917 0)
(0.969762 -0.00613808 0)
(0.967597 -0.00587184 0)
(0.965525 -0.00561916 0)
(0.963541 -0.00537895 0)
(0.961641 -0.00515018 0)
(0.959822 -0.0049319 0)
(0.95808 -0.00472327 0)
(0.956412 -0.00452349 0)
(0.954814 -0.00433186 0)
(0.953284 -0.00414771 0)
(0.95182 -0.00397044 0)
(0.950418 -0.00379954 0)
(0.949078 -0.0036344 0)
(0.947795 -0.00347482 0)
(0.946571 -0.00332012 0)
(0.945399 -0.00316966 0)
(0.885102 -0.00598604 0)
(0.882387 -0.00571374 0)
(0.879795 -0.00545741 0)
(0.877318 -0.00521563 0)
(0.874951 -0.00498714 0)
(0.872687 -0.0047708 0)
(0.870521 -0.00456557 0)
(0.868448 -0.0043705 0)
(0.866465 -0.00418478 0)
(0.864566 -0.00400761 0)
(0.862748 -0.00383828 0)
(0.861007 -0.00367615 0)
(0.859341 -0.00352063 0)
(0.857745 -0.00337119 0)
(0.856219 -0.0032273 0)
(0.854758 -0.0030886 0)
(0.853361 -0.00295449 0)
(0.852025 -0.00282496 0)
(0.85075 -0.00269921 0)
(0.84953 -0.00257679 0)
(0.779138 -0.00458609 0)
(0.776469 -0.00437774 0)
(0.773921 -0.00418165 0)
(0.771487 -0.00399673 0)
(0.769161 -0.003822 0)
(0.766937 -0.00365658 0)
(0.764811 -0.00349968 0)
(0.762776 -0.00335056 0)
(0.760828 -0.00320859 0)
(0.758964 -0.00307315 0)
(0.75718 -0.00294371 0)
(0.755471 -0.00281977 0)
(0.753836 -0.00270087 0)
(0.75227 -0.0025866 0)
(0.750772 -0.00247656 0)
(0.749338 -0.00237047 0)
(0.747968 -0.00226784 0)
(0.746657 -0.00216876 0)
(0.745406 -0.00207237 0)
(0.744209 -0.00197851 0)
(0.661771 -0.00325208 0)
(0.659307 -0.00310494 0)
(0.656955 -0.00296643 0)
(0.654709 -0.00283581 0)
(0.652562 -0.00271238 0)
(0.65051 -0.00259552 0)
(0.648546 -0.00248467 0)
(0.646668 -0.0023793 0)
(0.64487 -0.00227897 0)
(0.643148 -0.00218326 0)
(0.6415 -0.00209176 0)
(0.639922 -0.00200415 0)
(0.638411 -0.00192008 0)
(0.636965 -0.00183928 0)
(0.635581 -0.00176144 0)
(0.634256 -0.0016864 0)
(0.632989 -0.00161374 0)
(0.631777 -0.00154365 0)
(0.63062 -0.00147527 0)
(0.629514 -0.00140876 0)
(0.533313 -0.00206102 0)
(0.531199 -0.00196839 0)
(0.52918 -0.00188115 0)
(0.527251 -0.00179886 0)
(0.525407 -0.00172108 0)
(0.523644 -0.00164742 0)
(0.521957 -0.00157752 0)
(0.520342 -0.00151107 0)
(0.518796 -0.0014478 0)
(0.517315 -0.00138742 0)
(0.515898 -0.00132969 0)
(0.51454 -0.0012744 0)
(0.513239 -0.00122133 0)
(0.511993 -0.00117032 0)
(0.510801 -0.00112116 0)
(0.50966 -0.00107377 0)
(0.508568 -0.00102786 0)
(0.507523 -0.000983586 0)
(0.506525 -0.000940266 0)
(0.505572 -0.000898243 0)
(0.394119 -0.00108187 0)
(0.392479 -0.00103368 0)
(0.390913 -0.000988273 0)
(0.389416 -0.000945423 0)
(0.387984 -0.000904903 0)
(0.386614 -0.000866513 0)
(0.385303 -0.000830077 0)
(0.384047 -0.000795426 0)
(0.382845 -0.000762421 0)
(0.381693 -0.000730922 0)
(0.380589 -0.000700793 0)
(0.379531 -0.000671937 0)
(0.378518 -0.000644237 0)
(0.377547 -0.000617603 0)
(0.376617 -0.00059193 0)
(0.375726 -0.00056719 0)
(0.374874 -0.000543191 0)
(0.374058 -0.000520081 0)
(0.373278 -0.000497377 0)
(0.372532 -0.000475462 0)
(0.244531 -0.000391025 0)
(0.243474 -0.000373841 0)
(0.242463 -0.000357633 0)
(0.241497 -0.00034233 0)
(0.240572 -0.000327851 0)
(0.239687 -0.00031412 0)
(0.238839 -0.000301087 0)
(0.238026 -0.000288688 0)
(0.237248 -0.000276871 0)
(0.236502 -0.000265593 0)
(0.235786 -0.000254802 0)
(0.2351 -0.000244469 0)
(0.234443 -0.000234549 0)
(0.233812 -0.00022501 0)
(0.233208 -0.000215813 0)
(0.232629 -0.000206961 0)
(0.232075 -0.000198354 0)
(0.231543 -0.000190092 0)
(0.231035 -0.000181915 0)
(0.230549 -0.000174089 0)
(0.0848259 -6.42589e-05 0)
(0.0844449 -6.15039e-05 0)
(0.0840805 -5.89016e-05 0)
(0.0837317 -5.64427e-05 0)
(0.0833977 -5.41136e-05 0)
(0.0830778 -5.19003e-05 0)
(0.0827711 -4.97991e-05 0)
(0.0824771 -4.78006e-05 0)
(0.0821951 -4.58932e-05 0)
(0.0819245 -4.40722e-05 0)
(0.081665 -4.23294e-05 0)
(0.0814159 -4.06629e-05 0)
(0.0811768 -3.90621e-05 0)
(0.0809475 -3.75218e-05 0)
(0.0807274 -3.60386e-05 0)
(0.0805163 -3.46149e-05 0)
(0.0803139 -3.32211e-05 0)
(0.0801198 -3.18948e-05 0)
(0.0799339 -3.05647e-05 0)
(0.0797559 -2.93227e-05 0)
)
;

boundaryField
{
    fixedWalls
    {
        type            noSlip;
    }
    inlet
    {
        type            fixedValue;
        value           nonuniform 0();
    }
    outlet
    {
        type            zeroGradient;
    }
    frontAndBack
    {
        type            empty;
    }
    procBoundary6to2
    {
        type            processor;
        value           nonuniform List<vector> 
20
(
(1.38494 0.00111083 0)
(1.38925 0.00106746 0)
(1.39338 0.00102575 0)
(1.39736 0.000985654 0)
(1.40118 0.000947092 0)
(1.40485 0.000909974 0)
(1.40837 0.000874248 0)
(1.41176 0.000839885 0)
(1.41501 0.000806822 0)
(1.41813 0.00077496 0)
(1.42113 0.000744259 0)
(1.42401 0.000714641 0)
(1.42677 0.000686098 0)
(1.42942 0.000658512 0)
(1.43196 0.000631878 0)
(1.4344 0.000606129 0)
(1.43673 0.000581226 0)
(1.43898 0.000557015 0)
(1.44111 0.000533817 0)
(1.44317 0.000511163 0)
)
;
    }
    procBoundary6to5
    {
        type            processor;
        value           nonuniform List<vector> 
20
(
(1.38045 -0.00115531 0)
(1.37819 -0.00342011 0)
(1.37337 -0.00554709 0)
(1.3654 -0.0074501 0)
(1.35345 -0.00905196 0)
(1.33647 -0.0102887 0)
(1.3133 -0.011114 0)
(1.28273 -0.0115028 0)
(1.24355 -0.0114545 0)
(1.19469 -0.0109939 0)
(1.13524 -0.0101695 0)
(1.06454 -0.00905075 0)
(0.982163 -0.00772191 0)
(0.887946 -0.006276 0)
(0.781936 -0.00480801 0)
(0.664354 -0.00340879 0)
(0.53553 -0.00215964 0)
(0.395837 -0.00113312 0)
(0.245638 -0.000409278 0)
(0.0852244 -6.71771e-05 0)
)
;
    }
    procBoundary6to7
    {
        type            processor;
        value           nonuniform List<vector> 
20
(
(1.44513 -0.000480472 0)
(1.44005 -0.00142737 0)
(1.42973 -0.0023086 0)
(1.41389 -0.00308503 0)
(1.39211 -0.00372351 0)
(1.36389 -0.00419973 0)
(1.32872 -0.00449942 0)
(1.28602 -0.00461878 0)
(1.2353 -0.00456426 0)
(1.17609 -0.00435154 0)
(1.10802 -0.00400397 0)
(1.03081 -0.00355065 0)
(0.944281 -0.00302421 0)
(0.848367 -0.00245886 0)
(0.743069 -0.00188852 0)
(0.628461 -0.00134533 0)
(0.504663 -0.000858398 0)
(0.371821 -0.00045481 0)
(0.230085 -0.000166789 0)
(0.0795855 -2.81767e-05 0)
)
;
    }
}


// ************************************************************************* //
