/*--------------------------------*- C++ -*----------------------------------*\
| =========                 |                                                 |
| \\      /  F ield         | OpenFOAM: The Open Source CFD Toolbox           |
|  \\    /   O peration     | Version:                                        |
|   \\  /    A nd           | Website:  www.openfoam.com                      |
|    \\/     M anipulation  |                                                 |
\*---------------------------------------------------------------------------*/
FoamFile
{
    version     2.0;
    format      ascii;
    class       surfaceScalarField;
    location    "105.5";
    object      phi;
}
// * * * * * * * * * * * * * * * * * * * * * * * * * * * * * * * * * * * * * //

dimensions      [0 3 -1 0 0 0 0];
oriented        oriented;


internalField   nonuniform List<scalar> 
2227
(
0.00211782
0.0480513
-0.0510997
0.0051406
0.0477395
-0.0507623
0.00815863
0.0471343
-0.0501523
0.0111272
0.0461793
-0.0491478
0.0140423
0.0448697
-0.0477849
-0.0460746
0.00196169
0.0451027
0.00489466
0.0448066
0.00782136
0.0442076
0.0107086
0.00182226
0.00468577
-0.00112708
0.0538733
-0.00194407
0.05385
-0.0027061
0.053795
-0.00338419
0.0537111
-0.00395061
0.0535994
-0.0043792
0.0534616
-0.00464687
0.0533007
-0.00473595
0.0531221
-0.00463109
0.0529281
0.0527267
-0.00432475
-0.00199022
0.0537664
-0.00194278
0.0538025
-0.00193179
0.053784
-0.00193081
0.0537101
-0.00191
0.0535786
-0.00183562
0.0533872
-0.00166639
0.0531314
-0.0013514
0.0528071
-0.000850129
0.0524269
0.0520394
-0.000162837
-0.00105915
0.054604
-0.00178109
0.0545245
-0.00234156
0.0543445
-0.00269323
0.0540618
-0.00278784
0.0536732
-0.00258411
0.0531835
-0.00204014
0.0525875
-0.00111737
0.0518843
0.000249976
0.0510595
0.0501846
0.00210479
0.00143714
0.0544647
0.00164107
0.0543206
0.00191481
0.0540708
0.00226365
0.053713
0.00268131
0.0532556
0.00316751
0.0526973
0.00369678
0.0520582
0.00423946
0.0513416
0.00473171
0.0505673
0.0497456
0.00517068
-0.000984302
0.0551879
-0.00171739
0.0550536
-0.00243012
0.0547835
-0.00310137
0.0543842
-0.00370018
0.0538544
-0.00421733
0.0532144
-0.00462165
0.0524625
-0.00490302
0.051623
-0.00501353
0.0506778
0.0497222
-0.00499018
0.000407293
0.0550677
0.000579093
0.0548818
0.000807163
0.0545554
0.00109963
0.0540917
0.00144483
0.0535092
0.00184923
0.05281
0.00228621
0.0520255
0.00276847
0.0511407
0.00328477
0.0501615
0.0490513
0.00395575
-9.04467e-05
0.0556683
-0.000741106
0.0555325
-0.00142051
0.0552348
-0.00211769
0.0547889
-0.0028043
0.0541958
-0.00346634
0.0534721
-0.00404652
0.0526057
-0.00452597
0.0516202
-0.00483607
0.0504716
0.0492369
-0.00502174
-0.00120323
0.0555987
-0.00116718
0.0554965
-0.00114038
0.055208
-0.00108532
0.0547339
-0.000973135
0.0540836
-0.000750578
0.0532495
-0.000408325
0.0522635
0.000112743
0.0510991
0.000825696
0.0497586
0.0482746
0.00178807
-0.000888873
0.0560161
-0.00124964
0.0558572
-0.00154116
0.0554995
-0.00175909
0.0549518
-0.00187946
0.054204
-0.0019035
0.0532736
-0.00178028
0.0521402
-0.00151736
0.0508362
-0.00109121
0.0493325
0.047618
-0.000434612
-0.000119867
0.0559748
-0.000140104
0.0558775
-0.000202809
0.0555622
-0.000263804
0.0550128
-0.000308322
0.0542485
-0.000280749
0.053246
-0.000163354
0.0520228
0.000110471
0.0505624
0.000548462
0.0488945
0.0470917
0.00107477
-0.00139718
0.0562936
-0.00166972
0.05615
-0.00186115
0.0557537
-0.0019522
0.0551038
-0.00189081
0.0541871
-0.00167576
0.0530309
-0.00125554
0.0516026
-0.000645265
0.0499521
0.000235737
0.0480135
0.0460004
0.00132694
-0.000298955
0.0561953
-0.000138196
0.0559892
8.91667e-05
0.0555263
0.000384298
0.0548087
0.000731537
0.0538398
0.00114776
0.0526147
0.00157765
0.0511727
0.00206344
0.0494663
0.00256758
0.0475094
0.0453619
0.00320611
-0.000387494
0.0564004
-0.000597661
0.0561994
-0.000784411
0.0557131
-0.000925698
0.05495
-0.000975689
0.0538898
-0.000926297
0.0525653
-0.000673336
0.0509198
-0.000274886
0.0490679
0.000308615
0.0469259
0.0446055
0.00106504
-0.000257168
0.0562894
-9.11043e-05
0.0560333
0.00013595
0.055486
0.000445751
0.0546402
0.000829273
0.0535063
0.00130983
0.0520848
0.00177751
0.0504521
0.00228294
0.0485624
0.00264234
0.0465665
0.0444433
0.00280449
-0.000416611
0.0563971
-0.00049885
0.0561156
-0.000546276
0.0555334
-0.000582838
0.0546768
-0.000605703
0.0535292
-0.000656509
0.0521356
-0.000686708
0.0504823
-0.000763722
0.0486394
-0.000712142
0.0465149
0.0443001
-0.000568864
-0.000148441
0.05627
-5.59789e-06
0.0559727
0.000148868
0.055379
0.00034911
0.0544765
0.000576378
0.0533019
0.000905875
0.0518061
0.00127167
0.0501165
0.00181535
0.0480958
0.00231386
0.0460164
0.0435927
0.00302122
-0.000307678
0.0562958
-0.000335938
0.056001
-0.0003431
0.0553861
-0.000341743
0.0544752
-0.000306562
0.0532667
-0.000315911
0.0518154
-0.000279264
0.0500799
-0.000369261
0.0481858
-0.000349953
0.0459971
0.0437211
-0.00047836
-0.000241864
0.0561182
-5.41673e-05
0.0558133
0.00013499
0.055197
0.000343858
0.0542663
0.000551951
0.0530586
0.000841181
0.0515262
0.00110402
0.049817
0.00158695
0.0477028
0.00208842
0.0454956
0.0428255
0.00298404
-0.000410718
0.0560456
-0.000338338
0.0557409
-0.000247907
0.0551065
-0.000148354
0.0541667
-1.1247e-05
0.0529215
9.08283e-05
0.0514241
0.000283914
0.0496239
0.000357365
0.0476294
0.000554431
0.0452985
0.0428704
0.000509511
-0.000323867
0.0557978
-7.77448e-05
0.0554948
0.000156704
0.0548721
0.00040171
0.0539217
0.000643967
0.0526793
0.000949583
0.0511185
0.00120607
0.0493674
0.00159791
0.0472375
0.00191644
0.04498
0.0422105
0.00257637
-0.000471115
0.0556234
-0.000308447
0.0553321
-0.000123996
0.0546876
5.49092e-05
0.0537428
0.00024301
0.0524912
0.000419923
0.0509416
0.000699194
0.0490882
0.000964892
0.0469718
0.00136462
0.0445803
0.0417898
0.00178533
-0.000399668
0.0552896
-7.2637e-05
0.0550051
0.000233448
0.0543816
0.000559069
0.0534172
0.000890043
0.0521602
0.00126523
0.0505664
0.00160751
0.0487459
0.00205461
0.0465247
0.00244321
0.0441917
0.0412851
0.00294788
-0.000527188
0.055001
-0.000247754
0.0547257
5.39385e-05
0.0540799
0.000328072
0.0531431
0.000611455
0.0518768
0.000893715
0.0502841
0.00123372
0.0484059
0.00160037
0.0461581
0.002061
0.043731
0.0407198
0.00262627
-0.00045221
0.0545708
-2.34769e-05
0.0542969
0.000378816
0.0536776
0.000801124
0.0527208
0.00123059
0.0514473
0.00169188
0.0498229
0.00214808
0.0479497
0.00269584
0.0456103
0.00322378
0.0432031
0.0400713
0.00387225
-0.0005474
0.054167
-0.000147841
0.0538974
0.000259882
0.0532698
0.00066102
0.0523196
0.00105949
0.0510489
0.00148391
0.0493984
0.00193104
0.0475025
0.00239673
0.0451447
0.00294667
0.0426532
0.0394697
0.00354827
-0.000463813
0.0536323
6.4782e-05
0.0533688
0.000589577
0.0527451
0.00112114
0.0517881
0.0016665
0.0505035
0.00222142
0.0488435
0.00281919
0.0469048
0.00346904
0.0444948
0.00411568
0.0420065
0.038687
0.00489843
-0.000527629
0.0531092
1.21774e-05
0.052829
0.000529956
0.0522273
0.00105818
0.0512598
0.0015942
0.0499675
0.00214933
0.0482884
0.00271495
0.0463392
0.00331557
0.0438942
0.00398633
0.0413357
0.0379649
0.00470841
-0.000444762
0.0524711
0.000192468
0.0521917
0.000842514
0.0515772
0.00150056
0.0506018
0.00217366
0.0492944
0.00286323
0.0475988
0.00361584
0.0455865
0.00436414
0.0431459
0.00520754
0.0404923
0.00596052
-0.000488445
0.0518391
0.000172378
0.0515309
0.00082602
0.0509236
0.00148792
0.0499399
0.0021765
0.0486058
0.00285834
0.046917
0.00357969
0.0448652
0.00431849
-0.000407997
0.000360609
0.00113187
0.00192392
0.00274487
0.00358728
-0.004707
0.0482108
-0.00496871
0.0514097
-0.00499144
0.0547206
-0.00473807
0.0582407
-0.00425418
0.0620698
-0.00358948
0.0662304
-0.00280935
0.0707576
-0.00199855
0.0756919
-0.00124678
0.0810604
-0.000628319
0.0868717
-0.000184471
0.0931184
8.88972e-05
0.0997824
0.000199258
0.10689
0.00015891
0.114466
4.6211e-05
0.12248
-5.9855e-05
0.130966
-0.00012686
0.140009
-0.000149769
0.149677
-0.000153356
0.160045
-0.000146802
0.171142
-0.000136076
0.183016
-0.000119629
0.195713
-0.000104601
0.209298
-9.52394e-05
0.223831
-8.72398e-05
0.239367
-7.57192e-05
0.255977
-5.63253e-05
0.273735
-3.00778e-05
0.292728
-8.95972e-06
0.313051
0.334791
-0.000312152
0.0483602
-0.000449628
0.0515472
-0.000498115
0.054769
-0.000487786
0.0582303
-0.000436649
0.0620186
-0.000342221
0.0661359
-0.000237972
0.0706534
-0.000179409
0.0756333
-0.000177657
0.0810587
-0.000162344
0.0868564
-8.11356e-05
0.0930372
7.00677e-05
0.0996312
0.00025133
0.106708
0.000453665
0.114264
0.000601878
0.122332
0.000625144
0.130943
0.000541271
0.140093
0.0003721
0.149847
0.000191097
0.160226
4.50678e-05
0.171288
-4.11664e-05
0.183102
-7.04794e-05
0.195742
-4.84756e-05
0.209276
5.41161e-08
0.223782
4.40575e-05
0.239323
7.14463e-05
0.25595
8.13568e-05
0.273725
6.6998e-05
0.292742
3.60963e-05
0.313082
0.334827
0.00335847
0.0471065
0.00451753
0.0503881
0.00516403
0.0541225
0.0051582
0.0582362
0.00459971
0.0625771
0.00363214
0.0671035
0.00243122
0.0718543
0.00114633
0.0769182
-9.31136e-05
0.0822981
-0.00115401
0.0879173
-0.00193833
0.0938215
-0.00243841
0.100131
-0.0026151
0.106885
-0.00247001
0.114119
-0.00208675
0.121949
-0.0015913
0.130447
-0.00113471
0.139636
-0.000772462
0.149484
-0.000483525
0.159937
-0.000249088
0.171053
-6.76196e-05
0.18292
5.35768e-05
0.195621
0.00012396
0.209206
0.000159084
0.223747
0.000180817
0.239301
0.00019419
0.255936
0.000193543
0.273726
0.00017508
0.292761
0.000105515
0.313151
0.334933
0.00489432
0.0473828
0.00441169
0.0508708
0.00384988
0.0546844
0.00328433
0.0588017
0.00271518
0.0631463
0.00219033
0.0676283
0.00182219
0.0722224
0.00174268
0.0769977
0.00193879
0.082102
0.00219288
0.0876632
0.00231361
0.0937008
0.00223679
0.100208
0.00194344
0.107178
0.00145507
0.114607
0.000933858
0.12247
0.000556217
0.130825
0.000410321
0.139782
0.000476147
0.149419
0.000636278
0.159776
0.000787202
0.170902
0.000876178
0.182831
0.000905421
0.195591
0.0008862
0.209225
0.000817106
0.223816
0.000708417
0.23941
0.000583657
0.256061
0.000458711
0.273851
0.000340761
0.292879
0.00017825
0.313314
0.335111
-0.00544229
0.0478349
-0.00559399
0.0510225
-0.00537134
0.0544617
-0.00483569
0.0582661
-0.00411499
0.0624256
-0.00337604
0.0668894
-0.002792
0.0716384
-0.00244811
0.0766538
-0.00229058
0.0819445
-0.00218757
0.0875602
-0.00205019
0.0935634
-0.00182151
0.0999794
-0.00150317
0.10686
-0.00113625
0.11424
-0.000830647
0.122164
-0.000602564
0.130597
-0.000341633
0.139521
-1.2842e-05
0.14909
0.000310716
0.159453
0.000544441
0.170669
0.000673892
0.182702
0.000731364
0.195534
0.000751939
0.209204
0.0007441
0.223824
0.000707313
0.239447
0.000628734
0.256139
0.000511995
0.273968
0.000382194
0.293008
0.000197093
0.313499
0.335308
0.00404372
0.047747
0.00395552
0.0511107
0.00372843
0.0546888
0.00342338
0.0585711
0.00306411
0.0627849
0.00265209
0.0673014
0.00224552
0.072045
0.00193378
0.0769656
0.00173834
0.0821399
0.00164418
0.0876544
0.00168285
0.0935247
0.00183694
0.0998253
0.00209397
0.106603
0.0023808
0.113954
0.00261887
0.121926
0.00273885
0.130477
0.00268127
0.139579
0.00249884
0.149272
0.00223219
0.15972
0.00194053
0.17096
0.00166127
0.182981
0.00141252
0.195783
0.00118927
0.209428
0.00100087
0.224012
0.000846373
0.239601
0.000714481
0.256271
0.000586273
0.274096
0.000443185
0.293151
0.000228121
0.313714
0.335536
-0.00558165
0.0483069
-0.00585085
0.0513799
-0.00566757
0.0545055
-0.00505145
0.057955
-0.00408807
0.0618215
-0.00283399
0.0660473
-0.00141289
0.0706239
-3.66591e-05
0.0755893
0.00117478
0.0809285
0.00218076
0.0866484
0.00295474
0.0927507
0.00351288
0.0992671
0.00384055
0.106275
0.00396034
0.113834
0.00392227
0.121964
0.00371552
0.130684
0.00333313
0.139961
0.00282527
0.14978
0.00232968
0.160215
0.0019324
0.171358
0.00163431
0.183279
0.00139958
0.196017
0.00119351
0.209634
0.00100731
0.224199
0.000834132
0.239775
0.000673159
0.256432
0.000525799
0.274243
0.000390256
0.293287
0.000202366
0.313902
0.335739
0.00209124
0.0480037
0.0023022
0.0511689
0.00236309
0.0544446
0.00229381
0.0580243
0.00219058
0.0619247
0.00209533
0.0661426
0.00201148
0.0707077
0.00191615
0.0756847
0.00177106
0.0810735
0.00159648
0.086823
0.00143256
0.0929147
0.00130288
0.0993968
0.00125446
0.106324
0.0013283
0.11376
0.00148668
0.121806
0.00165599
0.130514
0.00174487
0.139872
0.00169152
0.149833
0.00154934
0.160357
0.00139253
0.171514
0.00126887
0.183403
0.00116097
0.196125
0.00105082
0.209744
0.000930765
0.224319
0.000804277
0.239901
0.00067277
0.256564
0.000535357
0.274381
0.000387944
0.293434
0.000192476
0.314097
0.335931
-0.000228007
0.0477971
-3.52882e-05
0.0509762
0.000223326
0.054186
0.000680727
0.0575669
0.00127518
0.0613302
0.00189673
0.065521
0.00243337
0.0701711
0.00281797
0.0753001
0.00303149
0.08086
0.00306616
0.0867883
0.00293903
0.0930418
0.00268886
0.099647
0.0023871
0.106625
0.0021066
0.11404
0.001943
0.121969
0.00191148
0.130546
0.00191136
0.139873
0.00184685
0.149898
0.00168828
0.160516
0.00148611
0.171717
0.00129171
0.183597
0.00113177
0.196285
0.000999251
0.209876
0.000877076
0.224441
0.000753168
0.240025
0.000625316
0.256692
0.000496624
0.274509
0.000364105
0.293567
0.000183595
0.314278
0.336115
0.00103481
0.0478371
0.000940098
0.0510709
0.000835997
0.0542901
0.00064933
0.0577535
0.000404697
0.0615749
0.000264992
0.0656607
0.000382027
0.070054
0.000754118
0.074928
0.00118716
0.080427
0.00148046
0.086495
0.00153788
0.0929844
0.00138967
0.0997952
0.00113923
0.106876
0.000917643
0.114262
0.000824466
0.122063
0.000862049
0.130508
0.000977632
0.139757
0.00108588
0.14979
0.00115835
0.160443
0.00117833
0.171697
0.00114412
0.183632
0.00106871
0.196361
0.000973974
0.209971
0.000873938
0.224541
0.000766785
0.240132
0.000649049
0.256809
0.000520429
0.274638
0.000377355
0.29371
0.000188364
0.314467
0.336303
0.00197117
0.0471928
0.00290346
0.0501386
0.00379647
0.0533971
0.00426744
0.0572826
0.00416896
0.0616734
0.00353159
0.0662981
0.00258839
0.0709972
0.00169404
0.0758223
0.00113939
0.0809816
0.000960281
0.0866741
0.000964178
0.0929805
0.000968233
0.0997911
0.000886199
0.106958
0.000724802
0.114423
0.000562397
0.122225
0.000526966
0.130544
0.000640212
0.139644
0.000849782
0.14958
0.00103161
0.160262
0.00113203
0.171596
0.00114699
0.183617
0.00109883
0.196409
0.00100342
0.210066
0.000883645
0.224661
0.000755301
0.24026
0.000626738
0.256938
0.000498867
0.274766
0.000364589
0.293844
0.000186304
0.314645
0.336489
0.0034845
0.0469144
0.00345717
0.050166
0.00318999
0.0536643
0.00289629
0.0575763
0.00272792
0.0618417
0.00267396
0.0663521
0.00258788
0.0710833
0.00234648
0.0760637
0.00205177
0.0812764
0.00190237
0.0868235
0.00198505
0.0928978
0.00224906
0.0995271
0.00247262
0.106734
0.00248551
0.11441
0.00221879
0.122492
0.00179515
0.130967
0.00144002
0.139999
0.00127068
0.149749
0.00124338
0.160289
0.00126043
0.171579
0.00125415
0.183623
0.00120708
0.196456
0.00111997
0.210154
0.00100172
0.224779
0.000858509
0.240404
0.000703476
0.257093
0.000546296
0.274923
0.000387296
0.294003
0.000193118
0.314839
0.336682
0.00146541
0.0465141
0.00179968
0.0498317
0.00207185
0.0533921
0.00248473
0.0571634
0.00304117
0.0612853
0.00353924
0.065854
0.00373001
0.0708926
0.00346532
0.0763284
0.00279258
0.0819491
0.00194476
0.0876713
0.00128315
0.0935594
0.000997995
0.0998123
0.00108392
0.106648
0.00130037
0.114194
0.00141083
0.122381
0.0013349
0.131043
0.00117112
0.140163
0.00106765
0.149853
0.00106463
0.160292
0.0011066
0.171537
0.00113371
0.183596
0.00111685
0.196473
0.00105266
0.210218
0.000951466
0.22488
0.00082604
0.240529
0.000685594
0.257233
0.000536195
0.275072
0.000384103
0.294155
0.000193278
0.31503
0.336876
0.00248621
0.0468324
0.00197526
0.0503426
0.00144575
0.0539216
0.000844672
0.0577645
0.000327344
0.0618026
0.000202356
0.065979
0.000601302
0.0704936
0.00138309
0.0755466
0.00220365
0.0811285
0.00278761
0.0870874
0.00306189
0.0932851
0.00309211
0.0997821
0.00302459
0.106716
0.00291931
0.114299
0.00275452
0.122546
0.00249223
0.131306
0.00219208
0.140463
0.00192987
0.150115
0.00173501
0.160487
0.00159003
0.171682
0.00146475
0.183721
0.00133964
0.196598
0.0012047
0.210353
0.00105685
0.225028
0.000896722
0.240689
0.000729993
0.2574
0.000562066
0.27524
0.00039757
0.29432
0.00019771
0.31523
0.337073
-0.000498938
0.0467624
4.05402e-05
0.0498032
0.000634329
0.0533278
0.00103942
0.0573594
0.00110981
0.0617322
0.000833993
0.0662548
0.000409614
0.070918
0.000144934
0.0758113
0.000213113
0.0810604
0.000572395
0.0867281
0.00103636
0.0928212
0.00146024
0.0993582
0.00175323
0.106423
0.00192354
0.114129
0.00196768
0.122502
0.00188082
0.131393
0.00171482
0.140629
0.00156015
0.15027
0.00146286
0.160584
0.00140122
0.171744
0.0013346
0.183788
0.00124144
0.196691
0.00112378
0.21047
0.000989035
0.225163
0.000844137
0.240834
0.000691091
0.257553
0.00053372
0.275398
0.000380619
0.294473
0.000190567
0.31542
0.337264
0.00324563
0.046538
0.00291891
0.0501299
0.0025696
0.0536771
0.00238266
0.0575463
0.00233083
0.0617841
0.00239937
0.0661863
0.00248375
0.0708336
0.00254762
0.0757475
0.00258384
0.0810241
0.00262634
0.0866856
0.00268809
0.0927594
0.00273558
0.0993107
0.00274765
0.106411
0.00272267
0.114154
0.00266164
0.122563
0.00253356
0.131521
0.00234217
0.14082
0.00212417
0.150488
0.00192523
0.160783
0.00174953
0.171919
0.00158166
0.183956
0.00141046
0.196862
0.00123292
0.210648
0.00105323
0.225342
0.000874845
0.241012
0.000699703
0.257728
0.00053125
0.275566
0.000374079
0.29463
0.000185625
0.315609
0.33745
-0.000845114
0.0469048
-0.000523413
0.0498082
-5.9717e-05
0.0532134
0.000234103
0.0572525
0.00032285
0.0616953
0.000249911
0.0662592
0.000256613
0.0708269
0.000465076
0.075539
0.000861155
0.0806281
0.00133148
0.0862153
0.0017297
0.0923612
0.00198636
0.099054
0.00209349
0.106304
0.00214427
0.114103
0.00217755
0.12253
0.00216775
0.13153
0.00207571
0.140912
0.0019126
0.150651
0.00174192
0.160954
0.00158722
0.172074
0.00144557
0.184097
0.00129727
0.197011
0.00114181
0.210803
0.00098145
0.225503
0.000819829
0.241174
0.000657454
0.257891
0.000495561
0.275728
0.000346585
0.294779
0.000172768
0.315782
0.337622
0.00372776
0.046161
0.00380375
0.0497322
0.0036405
0.0533767
0.00358234
0.0573107
0.00370716
0.0615705
0.00382932
0.066137
0.00372941
0.0709268
0.0034039
0.0758645
0.00303659
0.0809954
0.00275997
0.0864919
0.00259093
0.0925302
0.00248265
0.0991623
0.00238581
0.106401
0.00230421
0.114185
0.00227778
0.122556
0.00229295
0.131515
0.00226298
0.140942
0.00214497
0.150769
0.00195636
0.161142
0.00174611
0.172284
0.00154155
0.184302
0.00134659
0.197205
0.00115997
0.21099
0.000978927
0.225684
0.000805218
0.241348
0.000638988
0.258057
0.000475993
0.275891
0.000325759
0.294929
0.000162996
0.315945
0.337785
-0.000200983
0.0468715
-0.000307938
0.0498391
-1.32365e-05
0.053082
0.000326336
0.0569711
0.00067544
0.0612214
0.00115413
0.0656583
0.00174506
0.0703359
0.00227199
0.0753376
0.00259858
0.0806688
0.00272158
0.0863689
0.00270169
0.0925501
0.00257401
0.09929
0.00239104
0.106584
0.0022264
0.114349
0.00215125
0.122631
0.0021483
0.131518
0.00213718
0.140953
0.00203852
0.150868
0.00186284
0.161318
0.00165277
0.172494
0.00144402
0.184511
0.0012487
0.197401
0.00106965
0.211169
0.000902442
0.225851
0.000743697
0.241507
0.000590003
0.258211
0.000436478
0.276045
0.000294258
0.295072
0.000149565
0.31609
0.337935
0.0033379
0.04611
0.0036952
0.0494818
0.00365819
0.053119
0.00359444
0.0570348
0.00356561
0.0612502
0.00347638
0.0657476
0.00335081
0.0704615
0.00320165
0.0754867
0.00303008
0.0808403
0.00283955
0.0865594
0.00264584
0.0927439
0.00246777
0.099468
0.0022936
0.106758
0.00214564
0.114497
0.00207013
0.122707
0.00207805
0.13151
0.00208743
0.140944
0.00201889
0.150936
0.00185771
0.161479
0.00164714
0.172705
0.00142735
0.18473
0.00122044
0.197608
0.00103186
0.211358
0.000859795
0.226023
0.000701446
0.241665
0.000553331
0.258359
0.000410311
0.276188
0.000270037
0.295212
0.000138638
0.316221
0.338074
0.00136792
0.0465274
0.00109139
0.0497584
0.00118427
0.0530261
0.0015316
0.0566875
0.00201452
0.0607673
0.00257404
0.065188
0.00304903
0.0699865
0.00337256
0.0751632
0.00349921
0.0807137
0.00340391
0.0866547
0.00315283
0.0929949
0.00282767
0.0997932
0.00252011
0.107065
0.00227989
0.114738
0.0021434
0.122843
0.00209537
0.131558
0.00206969
0.14097
0.00197605
0.15103
0.00180089
0.161654
0.00157807
0.172928
0.00135088
0.184958
0.00114161
0.197817
0.000956551
0.211543
0.000792973
0.226187
0.000644554
0.241813
0.000505669
0.258498
0.000372649
0.276321
0.000238639
0.295346
0.000123907
0.316336
0.338197
0.0033924
0.0460829
0.00362676
0.049524
0.00348405
0.0531688
0.00319929
0.0569723
0.00302881
0.0609378
0.00295793
0.0652589
0.00294504
0.0699994
0.00296848
0.0751398
0.00297744
0.0807047
0.00292644
0.0867057
0.00278823
0.0931331
0.00257185
0.10001
0.00233433
0.107303
0.00212948
0.114942
0.00200366
0.122969
0.0019614
0.131601
0.00193481
0.140996
0.00184922
0.151115
0.00168607
0.161817
0.00147853
0.173135
0.00126632
0.18517
0.00106959
0.198014
0.000894287
0.211718
0.000737806
0.226343
0.00059684
0.241954
0.000466993
0.258628
0.000343618
0.276444
0.000214693
0.295475
0.000112131
0.316439
0.33831
0.00246732
0.0462419
0.00248249
0.0495089
0.00272332
0.052928
0.00304614
0.0566494
0.00330349
0.0606804
0.00349087
0.0650715
0.00361852
0.0698717
0.00364681
0.0751115
0.00356198
0.0807896
0.00339016
0.0868775
0.00314593
0.0933774
0.00286163
0.100294
0.00257383
0.107591
0.00231786
0.115198
0.0021274
0.12316
0.00201154
0.131716
0.00193357
0.141074
0.00181799
0.151231
0.00163841
0.161997
0.00141839
0.173355
0.00119859
0.18539
0.00100067
0.198212
0.000829632
0.211889
0.000680739
0.226492
0.00054797
0.242087
0.000425509
0.25875
0.000309008
0.276561
0.000186721
0.295597
9.85549e-05
0.316527
0.338408
0.00413579
0.0459783
0.00407031
0.0495743
0.0037973
0.053201
0.00352455
0.0569222
0.00332856
0.0608764
0.00323351
0.0651666
0.00320919
0.069896
0.00320155
0.0751191
0.0031655
0.0808256
0.00306205
0.086981
0.00288559
0.0935538
0.00265018
0.100529
0.00240095
0.10784
0.00217185
0.115427
0.00198801
0.123343
0.00186362
0.131841
0.00176539
0.141172
0.00164437
0.151352
0.00147823
0.162163
0.00128317
0.17355
0.00108953
0.185583
0.000913793
0.198387
0.00076002
0.212043
0.000624199
0.226628
0.000502543
0.242209
0.000390777
0.258862
0.000283082
0.276668
0.000165816
0.295714
8.79144e-05
0.316605
0.338496
0.00359389
0.0459327
0.00391397
0.0492543
0.00425571
0.0528593
0.00443499
0.0567429
0.00440158
0.0609098
0.00421661
0.0653516
0.00397646
0.0701362
0.00373499
0.0753606
0.00351456
0.0810461
0.00330237
0.0871932
0.00307767
0.0937785
0.00284203
0.100765
0.00259223
0.10809
0.00234149
0.115678
0.00210504
0.12358
0.00190965
0.132036
0.00175365
0.141328
0.00160076
0.151505
0.00141994
0.162344
0.00121951
0.173751
0.0010244
0.185778
0.000851383
0.19856
0.00070259
0.212192
0.00057405
0.226756
0.000459859
0.242323
0.000355107
0.258967
0.000253307
0.27677
0.000142338
0.295825
7.61764e-05
0.316671
0.338572
0.00496234
0.0458688
0.00462503
0.0495916
0.00430129
0.053183
0.00418608
0.0568581
0.00413506
0.0609609
0.00402821
0.0654584
0.00384443
0.07032
0.00362695
0.0755781
0.00340409
0.0812689
0.00317103
0.0874262
0.00292925
0.0940203
0.00267465
0.10102
0.00242741
0.108337
0.00219216
0.115913
0.0019683
0.123804
0.00176919
0.132235
0.00159547
0.141502
0.00143189
0.151668
0.0012616
0.162514
0.00108575
0.173927
0.000918561
0.185945
0.000769046
0.19871
0.000638402
0.212322
0.000523386
0.226871
0.000420299
0.242426
0.000325808
0.259061
0.000231938
0.276864
0.000125773
0.295931
6.73928e-05
0.316729
0.33864
0.00498516
0.045592
0.00526656
0.0493102
0.00532306
0.0531265
0.00517877
0.0570024
0.00495216
0.0611875
0.00465403
0.0657565
0.00428351
0.0706905
0.00389945
0.0759621
0.0035549
0.0816135
0.00325946
0.0877217
0.00300373
0.094276
0.00276963
0.101254
0.00253527
0.108571
0.00228732
0.116161
0.00202528
0.124066
0.001776
0.132485
0.00156078
0.141717
0.00137578
0.151853
0.00119679
0.162693
0.00102098
0.174103
0.000857114
0.186109
0.00071348
0.198854
0.000589548
0.212446
0.000480146
0.226981
0.000383573
0.242523
0.000294776
0.25915
0.000207227
0.276951
0.00010755
0.296031
5.80103e-05
0.316779
0.338698
0.00577701
0.00528971
0.0050518
0.00492371
0.00479491
0.00459456
0.00430632
0.00396662
0.00359978
0.00324441
0.00292108
0.00263085
0.00237483
0.00213209
0.00188367
0.00163735
0.00141602
0.00122701
0.00106006
0.00090646
0.00076714
0.00064494
0.000536653
0.000438611
0.000351307
0.000270783
0.00019061
9.60136e-05
5.15217e-05
)
;

boundaryField
{
    outlet
    {
        type            calculated;
        value           nonuniform 0();
    }
    upperWall
    {
        type            symmetryPlane;
        value           nonuniform 0();
    }
    lowerWall
    {
        type            symmetryPlane;
        value           uniform 0;
    }
    inlet
    {
        type            calculated;
        value           nonuniform List<scalar> 
40
(
-0.053033
-0.053033
-0.053033
-0.053033
-0.053033
-0.053033
-0.053033
-0.053033
-0.053033
-0.053033
-0.0478286
-0.051148
-0.0546978
-0.058494
-0.0625537
-0.0668951
-0.0715378
-0.0765027
-0.0818122
-0.0874902
-0.0935622
-0.100056
-0.107
-0.114426
-0.122367
-0.13086
-0.139942
-0.149655
-0.160041
-0.171148
-0.183026
-0.195729
-0.209313
-0.22384
-0.239375
-0.255988
-0.273755
-0.292754
-0.313072
-0.3348
)
;
    }
    cylinder
    {
        type            calculated;
        value           nonuniform 0();
    }
    frontAndBack
    {
        type            empty;
        value           nonuniform 0();
    }
    procBoundary0to1
    {
        type            processor;
        value           nonuniform List<scalar> 
45
(
0.0168995
0.0432174
0.0439746
0.043292
0.0135344
0.042044
0.0422289
0.0419431
0.0075393
0.0413541
0.0372119
0.0424071
0.00507847
0.0397324
0.00447785
0.0457756
0.0497975
0.0533644
0.0571305
0.0613163
0.0659569
0.0709787
0.0763018
0.0819803
0.088077
0.0945994
0.101544
0.108827
0.116404
0.124314
0.132731
0.141939
0.152042
0.16286
0.174256
0.186249
0.198976
0.212554
0.227079
0.24261
0.25923
0.277032
0.296126
0.316823
0.338749
)
;
    }
    procBoundary0to4
    {
        type            processor;
        value           nonuniform List<scalar> 
33
(
0.000930557
0.00098687
0.00105159
0.000286774
0.00209712
0.000221569
-0.00129788
0.000261159
-0.00028715
-0.000510134
0.0012728
0.000471521
0.000161134
0.00107841
0.000397237
0.000182429
0.000368179
0.000308873
0.000275577
0.000281811
0.000419468
0.000483308
0.000571744
0.000645491
0.000733433
0.000815843
0.000882343
0.00095128
0.000998517
0.00105064
0.00108292
0.00112045
0.00114742
)
;
    }
}


// ************************************************************************* //
