/*--------------------------------*- C++ -*----------------------------------*\
| =========                 |                                                 |
| \\      /  F ield         | OpenFOAM: The Open Source CFD Toolbox           |
|  \\    /   O peration     | Version:                                        |
|   \\  /    A nd           | Website:  www.openfoam.com                      |
|    \\/     M anipulation  |                                                 |
\*---------------------------------------------------------------------------*/
FoamFile
{
    version     2.0;
    format      ascii;
    class       surfaceScalarField;
    location    "71";
    object      phi;
}
// * * * * * * * * * * * * * * * * * * * * * * * * * * * * * * * * * * * * * //

dimensions      [0 3 -1 0 0 0 0];
oriented        oriented;


internalField   nonuniform List<scalar> 
2365
(
8.64492e-07
4.1706e-13
8.64491e-07
4.50501e-13
8.64491e-07
3.57619e-13
8.6449e-07
2.89001e-13
8.6449e-07
1.21738e-13
8.6449e-07
5.0352e-14
8.6449e-07
-9.60352e-14
8.6449e-07
-1.37494e-13
8.64491e-07
-2.51778e-13
8.64491e-07
-2.6066e-13
8.64491e-07
-3.45018e-13
8.64492e-07
-3.27979e-13
8.64492e-07
-3.90344e-13
8.64492e-07
-3.54572e-13
8.64493e-07
-4.01687e-13
8.64493e-07
-3.54179e-13
8.64493e-07
-3.92105e-13
8.64494e-07
-3.37095e-13
8.64494e-07
-3.69256e-13
8.64495e-07
-3.1051e-13
8.64495e-07
-3.39997e-13
8.64495e-07
-2.79152e-13
8.64495e-07
-3.07174e-13
8.64496e-07
-2.46125e-13
8.64496e-07
-2.74235e-13
8.64496e-07
-2.13341e-13
8.64496e-07
-2.41727e-13
8.64497e-07
-1.82033e-13
8.64497e-07
-2.11574e-13
8.64497e-07
-1.52876e-13
8.64497e-07
-1.83314e-13
8.64497e-07
-1.26267e-13
8.64497e-07
-1.58176e-13
8.64498e-07
-1.0232e-13
8.64498e-07
-1.35239e-13
8.64498e-07
-8.10647e-14
8.64498e-07
-1.15444e-13
8.64498e-07
-6.23811e-14
8.64498e-07
-9.7679e-14
8.64498e-07
-4.61419e-14
8.64498e-07
-8.27458e-14
8.64498e-07
-3.21227e-14
8.64498e-07
-6.94626e-14
8.64498e-07
-2.01504e-14
8.64498e-07
-5.86086e-14
8.64498e-07
-9.99514e-15
8.64498e-07
-4.90042e-14
8.64499e-07
-1.4836e-15
8.64499e-07
-4.14243e-14
8.64499e-07
5.60869e-15
8.64499e-07
-3.47045e-14
8.64499e-07
1.14296e-14
8.64499e-07
-2.96555e-14
8.64499e-07
1.61673e-14
8.64499e-07
-2.51466e-14
8.64499e-07
1.99447e-14
8.64499e-07
-2.20037e-14
8.64499e-07
2.29305e-14
8.64499e-07
-1.91216e-14
8.64499e-07
2.52137e-14
8.64499e-07
-1.73713e-14
8.64499e-07
2.69203e-14
8.64499e-07
-1.56845e-14
8.64499e-07
2.81122e-14
8.64499e-07
-1.49485e-14
8.64499e-07
2.88993e-14
8.64499e-07
-1.41135e-14
8.64499e-07
2.93188e-14
8.64499e-07
-1.41006e-14
8.64499e-07
2.94522e-14
8.64499e-07
-1.3879e-14
8.64499e-07
2.93271e-14
8.64499e-07
-1.43697e-14
8.64499e-07
2.90264e-14
8.64499e-07
-1.45415e-14
8.64499e-07
2.85706e-14
8.64499e-07
-1.5332e-14
8.64499e-07
2.80333e-14
8.64499e-07
-1.57085e-14
8.64499e-07
2.74458e-14
8.64499e-07
-1.65852e-14
8.64499e-07
2.69091e-14
8.64499e-07
-1.68997e-14
8.64499e-07
2.64783e-14
8.64499e-07
-1.75468e-14
8.64499e-07
2.62814e-14
8.64499e-07
-1.74262e-14
8.64499e-07
2.64199e-14
8.64499e-07
-1.73726e-14
8.64499e-07
2.70819e-14
8.64499e-07
-1.62268e-14
8.64499e-07
2.84242e-14
8.64499e-07
-1.47661e-14
8.64499e-07
3.0709e-14
8.64499e-07
-1.17349e-14
8.64499e-07
3.4229e-14
8.64499e-07
-7.71956e-15
8.64499e-07
3.94839e-14
8.64499e-07
-1.17355e-15
8.64499e-07
4.71299e-14
8.64499e-07
7.77794e-15
8.64499e-07
5.82254e-14
8.64499e-07
2.13618e-14
8.64499e-07
7.42201e-14
8.64498e-07
4.03711e-14
8.64498e-07
9.71061e-14
8.64498e-07
6.79373e-14
8.64498e-07
1.29118e-13
8.64498e-07
1.0542e-13
8.64498e-07
1.72568e-13
8.64498e-07
1.55879e-13
8.64498e-07
2.29417e-13
8.64497e-07
2.20141e-13
8.64497e-07
3.01136e-13
8.64497e-07
2.99689e-13
8.64497e-07
3.87603e-13
8.64496e-07
3.92697e-13
8.64496e-07
4.856e-13
8.64495e-07
4.93107e-13
8.64495e-07
5.81824e-13
8.64494e-07
5.79656e-13
8.64494e-07
6.34043e-13
8.64493e-07
5.83688e-13
8.64492e-07
5.40553e-13
5.06574e-13
2.58292e-06
1.96676e-12
2.58292e-06
1.68681e-12
2.58292e-06
1.38728e-12
2.58292e-06
8.61109e-13
2.58292e-06
4.34835e-13
2.58291e-06
-5.55217e-14
2.58292e-06
-3.7663e-13
2.58292e-06
-7.4058e-13
2.58292e-06
-9.32111e-13
2.58292e-06
-1.17448e-12
2.58292e-06
-1.2579e-12
2.58292e-06
-1.40636e-12
2.58292e-06
-1.40998e-12
2.58292e-06
-1.49307e-12
2.58292e-06
-1.4444e-12
2.58292e-06
-1.48512e-12
2.58292e-06
-1.40232e-12
2.58293e-06
-1.41698e-12
2.58293e-06
-1.31525e-12
2.58293e-06
-1.3153e-12
2.58293e-06
-1.20249e-12
2.58293e-06
-1.19536e-12
2.58293e-06
-1.07909e-12
2.58293e-06
-1.06986e-12
2.58293e-06
-9.52715e-13
2.58293e-06
-9.44456e-13
2.58293e-06
-8.30417e-13
2.58293e-06
-8.25237e-13
2.58293e-06
-7.14387e-13
2.58293e-06
-7.13294e-13
2.58294e-06
-6.07889e-13
2.58294e-06
-6.11597e-13
2.58294e-06
-5.10589e-13
2.58294e-06
-5.19191e-13
2.58294e-06
-4.2408e-13
2.58294e-06
-4.37675e-13
2.58294e-06
-3.46893e-13
2.58294e-06
-3.65148e-13
2.58294e-06
-2.79837e-13
2.58294e-06
-3.02582e-13
2.58294e-06
-2.20987e-13
2.58294e-06
-2.47754e-13
2.58294e-06
-1.7092e-13
2.58294e-06
-2.01462e-13
2.58294e-06
-1.27571e-13
2.58294e-06
-1.61373e-13
2.58294e-06
-9.14321e-14
2.58294e-06
-1.28246e-13
2.58294e-06
-6.04753e-14
2.58294e-06
-9.98344e-14
2.58294e-06
-3.5304e-14
2.58294e-06
-7.70179e-14
2.58294e-06
-1.39884e-14
2.58294e-06
-5.76257e-14
2.58294e-06
2.79573e-15
2.58294e-06
-4.26243e-14
2.58294e-06
1.68582e-14
2.58294e-06
-2.99847e-14
2.58294e-06
2.73756e-14
2.58294e-06
-2.08106e-14
2.58294e-06
3.60564e-14
2.58294e-06
-1.31463e-14
2.58294e-06
4.20165e-14
2.58294e-06
-8.16808e-15
2.58294e-06
4.68573e-14
2.58294e-06
-4.04749e-15
2.58294e-06
4.95599e-14
2.58294e-06
-2.08503e-15
2.58294e-06
5.16444e-14
2.58294e-06
-5.0061e-16
2.58294e-06
5.20566e-14
2.58294e-06
-6.33195e-16
2.58294e-06
5.22584e-14
2.58294e-06
-7.70196e-16
2.58294e-06
5.11267e-14
2.58294e-06
-2.29952e-15
2.58294e-06
5.01285e-14
2.58294e-06
-3.46411e-15
2.58294e-06
4.82008e-14
2.58294e-06
-5.59106e-15
2.58294e-06
4.68522e-14
2.58294e-06
-6.89319e-15
2.58294e-06
4.50449e-14
2.58294e-06
-8.64787e-15
2.58294e-06
4.43906e-14
2.58294e-06
-8.92364e-15
2.58294e-06
4.40172e-14
2.58294e-06
-8.82165e-15
2.58294e-06
4.56956e-14
2.58294e-06
-6.25469e-15
2.58294e-06
4.87273e-14
2.58294e-06
-2.10038e-15
2.58294e-06
5.51879e-14
2.58294e-06
6.11676e-15
2.58294e-06
6.48711e-14
2.58294e-06
1.81235e-14
2.58294e-06
8.05537e-14
2.58294e-06
3.72354e-14
2.58294e-06
1.03079e-13
2.58294e-06
6.45064e-14
2.58294e-06
1.36856e-13
2.58294e-06
1.05256e-13
2.58294e-06
1.85124e-13
2.58294e-06
1.63338e-13
2.58294e-06
2.55353e-13
2.58294e-06
2.47365e-13
2.58294e-06
3.54188e-13
2.58294e-06
3.6457e-13
2.58294e-06
4.92343e-13
2.58294e-06
5.26465e-13
2.58294e-06
6.79304e-13
2.58294e-06
7.42734e-13
2.58294e-06
9.27227e-13
2.58294e-06
1.02446e-12
2.58293e-06
1.24337e-12
2.58293e-06
1.37641e-12
2.58293e-06
1.62903e-12
2.58293e-06
1.78991e-12
2.58293e-06
2.05777e-12
2.58293e-06
2.22001e-12
2.58293e-06
2.44457e-12
2.58292e-06
2.51e-12
2.58292e-06
2.46202e-12
2.58292e-06
2.3116e-12
2.0535e-12
4.26395e-06
4.43825e-12
4.26394e-06
3.60681e-12
4.26394e-06
2.59915e-12
4.26394e-06
1.50677e-12
4.26394e-06
4.77218e-13
4.26394e-06
-4.25259e-13
4.26394e-06
-1.18029e-12
4.26394e-06
-1.79106e-12
4.26394e-06
-2.26727e-12
4.26395e-06
-2.6261e-12
4.26395e-06
-2.88238e-12
4.26395e-06
-3.05447e-12
4.26395e-06
-3.15594e-12
4.26395e-06
-3.20137e-12
4.26395e-06
-3.19969e-12
4.26396e-06
-3.16218e-12
4.26396e-06
-3.09546e-12
4.26396e-06
-3.00759e-12
4.26396e-06
-2.90189e-12
4.26396e-06
-2.78464e-12
4.26396e-06
-2.6584e-12
4.26397e-06
-2.52758e-12
4.26397e-06
-2.39267e-12
4.26397e-06
-2.25739e-12
4.26397e-06
-2.12232e-12
4.26397e-06
-1.99005e-12
4.26397e-06
-1.85971e-12
4.26397e-06
-1.73366e-12
4.26397e-06
-1.61154e-12
4.26397e-06
-1.49501e-12
4.26397e-06
-1.38253e-12
4.26398e-06
-1.27584e-12
4.26398e-06
-1.17418e-12
4.26398e-06
-1.07872e-12
4.26398e-06
-9.87693e-13
4.26398e-06
-9.02487e-13
4.26398e-06
-8.22155e-13
4.26398e-06
-7.47646e-13
4.26398e-06
-6.77105e-13
4.26398e-06
-6.11771e-13
4.26398e-06
-5.50682e-13
4.26398e-06
-4.94691e-13
4.26398e-06
-4.41933e-13
4.26398e-06
-3.93574e-13
4.26398e-06
-3.48635e-13
4.26398e-06
-3.07937e-13
4.26398e-06
-2.69637e-13
4.26398e-06
-2.34905e-13
4.26398e-06
-2.02823e-13
4.26398e-06
-1.74215e-13
4.26398e-06
-1.47288e-13
4.26398e-06
-1.23214e-13
4.26398e-06
-1.01093e-13
4.26398e-06
-8.17715e-14
4.26398e-06
-6.34985e-14
4.26398e-06
-4.74744e-14
4.26398e-06
-3.28561e-14
4.26398e-06
-2.05191e-14
4.26398e-06
-8.74149e-15
4.26398e-06
1.26355e-15
4.26398e-06
1.03338e-14
4.26398e-06
1.75728e-14
4.26398e-06
2.46819e-14
4.26398e-06
3.04036e-14
4.26398e-06
3.55377e-14
4.26398e-06
3.91442e-14
4.26398e-06
4.29111e-14
4.26398e-06
4.55534e-14
4.26398e-06
4.78836e-14
4.26398e-06
4.89258e-14
4.26398e-06
5.03745e-14
4.26398e-06
5.08938e-14
4.26398e-06
5.12944e-14
4.26398e-06
5.05559e-14
4.26398e-06
5.04062e-14
4.26398e-06
4.94846e-14
4.26398e-06
4.86663e-14
4.26398e-06
4.68996e-14
4.26398e-06
4.59721e-14
4.26398e-06
4.44721e-14
4.26398e-06
4.332e-14
4.26398e-06
4.14195e-14
4.26398e-06
4.06358e-14
4.26398e-06
3.9529e-14
4.26398e-06
3.91266e-14
4.26398e-06
3.83117e-14
4.26398e-06
3.90502e-14
4.26398e-06
3.9872e-14
4.26398e-06
4.19016e-14
4.26398e-06
4.40213e-14
4.26398e-06
4.83298e-14
4.26398e-06
5.34035e-14
4.26398e-06
6.05569e-14
4.26398e-06
6.87687e-14
4.26398e-06
8.03567e-14
4.26398e-06
9.40449e-14
4.26398e-06
1.11425e-13
4.26398e-06
1.31742e-13
4.26398e-06
1.577e-13
4.26398e-06
1.88471e-13
4.26398e-06
2.26202e-13
4.26398e-06
2.70819e-13
4.26398e-06
3.25712e-13
4.26398e-06
3.90987e-13
4.26398e-06
4.69588e-13
4.26398e-06
5.6265e-13
4.26398e-06
6.74452e-13
4.26398e-06
8.06554e-13
4.26398e-06
9.62938e-13
4.26398e-06
1.14636e-12
4.26398e-06
1.36196e-12
4.26398e-06
1.61225e-12
4.26398e-06
1.90144e-12
4.26397e-06
2.232e-12
4.26397e-06
2.60718e-12
4.26397e-06
3.02517e-12
4.26397e-06
3.48347e-12
4.26397e-06
3.97599e-12
4.26397e-06
4.48802e-12
4.26396e-06
4.99757e-12
4.26396e-06
5.4542e-12
4.26396e-06
5.77463e-12
4.26395e-06
5.82601e-12
4.26395e-06
5.56035e-12
5.08957e-12
5.8812e-06
7.8949e-12
5.88119e-06
5.90447e-12
5.88119e-06
3.84779e-12
5.88119e-06
1.89169e-12
5.88119e-06
1.64038e-13
5.88119e-06
-1.30199e-12
5.88119e-06
-2.49081e-12
5.8812e-06
-3.43485e-12
5.8812e-06
-4.1497e-12
5.8812e-06
-4.68076e-12
5.8812e-06
-5.04615e-12
5.8812e-06
-5.28743e-12
5.88121e-06
-5.41507e-12
5.88121e-06
-5.4626e-12
5.88121e-06
-5.4341e-12
5.88121e-06
-5.3573e-12
5.88121e-06
-5.23038e-12
5.88122e-06
-5.07628e-12
5.88122e-06
-4.89025e-12
5.88122e-06
-4.69249e-12
5.88122e-06
-4.47517e-12
5.88122e-06
-4.25598e-12
5.88123e-06
-4.02582e-12
5.88123e-06
-3.80133e-12
5.88123e-06
-3.57164e-12
5.88123e-06
-3.35171e-12
5.88123e-06
-3.13033e-12
5.88123e-06
-2.92211e-12
5.88123e-06
-2.71462e-12
5.88123e-06
-2.52141e-12
5.88124e-06
-2.33017e-12
5.88124e-06
-2.15454e-12
5.88124e-06
-1.9814e-12
5.88124e-06
-1.82356e-12
5.88124e-06
-1.66825e-12
5.88124e-06
-1.52863e-12
5.88124e-06
-1.39114e-12
5.88124e-06
-1.26836e-12
5.88124e-06
-1.14727e-12
5.88124e-06
-1.04092e-12
5.88124e-06
-9.35608e-13
5.88124e-06
-8.43783e-13
5.88124e-06
-7.52435e-13
5.88124e-06
-6.74412e-13
5.88124e-06
-5.96107e-13
5.88124e-06
-5.29775e-13
5.88124e-06
-4.62574e-13
5.88124e-06
-4.07339e-13
5.88124e-06
-3.50464e-13
5.88124e-06
-3.04352e-13
5.88124e-06
-2.56159e-13
5.88124e-06
-2.18663e-13
5.88124e-06
-1.78406e-13
5.88124e-06
-1.47789e-13
5.88124e-06
-1.1404e-13
5.88124e-06
-8.99997e-14
5.88124e-06
-6.22844e-14
5.88124e-06
-4.33453e-14
5.88124e-06
-2.04472e-14
5.88124e-06
-6.4462e-15
5.88124e-06
1.20172e-14
5.88124e-06
2.24632e-14
5.88124e-06
3.75745e-14
5.88124e-06
4.4427e-14
5.88124e-06
5.63206e-14
5.88124e-06
6.07086e-14
5.88124e-06
7.02532e-14
5.88124e-06
7.19922e-14
5.88124e-06
7.92193e-14
5.88124e-06
7.93508e-14
5.88124e-06
8.50239e-14
5.88124e-06
8.32091e-14
5.88124e-06
8.71871e-14
5.88124e-06
8.43234e-14
5.88124e-06
8.72949e-14
5.88124e-06
8.30566e-14
5.88124e-06
8.4955e-14
5.88124e-06
8.03429e-14
5.88124e-06
8.19377e-14
5.88124e-06
7.66474e-14
5.88124e-06
7.78671e-14
5.88124e-06
7.29099e-14
5.88124e-06
7.45801e-14
5.88124e-06
6.97899e-14
5.88124e-06
7.20492e-14
5.88124e-06
6.86816e-14
5.88124e-06
7.25925e-14
5.88124e-06
7.06981e-14
5.88124e-06
7.66345e-14
5.88124e-06
7.77675e-14
5.88124e-06
8.71983e-14
5.88124e-06
9.19754e-14
5.88124e-06
1.06e-13
5.88124e-06
1.16843e-13
5.88124e-06
1.37914e-13
5.88124e-06
1.56554e-13
5.88124e-06
1.87091e-13
5.88124e-06
2.17543e-13
5.88124e-06
2.61954e-13
5.88124e-06
3.08406e-13
5.88124e-06
3.72121e-13
5.88124e-06
4.42206e-13
5.88124e-06
5.33886e-13
5.88124e-06
6.36761e-13
5.88124e-06
7.67599e-13
5.88124e-06
9.17569e-13
5.88124e-06
1.10394e-12
5.88124e-06
1.31896e-12
5.88124e-06
1.58201e-12
5.88124e-06
1.88709e-12
5.88124e-06
2.2537e-12
5.88124e-06
2.67623e-12
5.88124e-06
3.17533e-12
5.88124e-06
3.74394e-12
5.88123e-06
4.39775e-12
5.88123e-06
5.12586e-12
5.88123e-06
5.93863e-12
5.88123e-06
6.81465e-12
5.88122e-06
7.7471e-12
5.88122e-06
8.69064e-12
5.88122e-06
9.58149e-12
5.88121e-06
1.02967e-11
5.88121e-06
1.06068e-11
5.8812e-06
1.03646e-11
9.40018e-12
7.40848e-06
1.1862e-11
7.40848e-06
8.39407e-12
7.40847e-06
5.01994e-12
7.40847e-06
2.03192e-12
7.40847e-06
-5.01494e-13
7.40848e-06
-2.58885e-12
7.40848e-06
-4.24315e-12
7.40848e-06
-5.52403e-12
7.40848e-06
-6.47408e-12
7.40848e-06
-7.16148e-12
7.40849e-06
-7.62182e-12
7.40849e-06
-7.90943e-12
7.40849e-06
-8.04616e-12
7.40849e-06
-8.07431e-12
7.4085e-06
-8.00375e-12
7.4085e-06
-7.86616e-12
7.4085e-06
-7.66439e-12
7.4085e-06
-7.42527e-12
7.40851e-06
-7.12995e-12
7.40851e-06
-6.8652e-12
7.40851e-06
-6.52798e-12
7.40851e-06
-6.17091e-12
7.40851e-06
-5.86743e-12
7.40852e-06
-5.5691e-12
7.40852e-06
-5.20154e-12
7.40852e-06
-4.86267e-12
7.40852e-06
-4.55786e-12
7.40852e-06
-4.26856e-12
7.40852e-06
-3.95089e-12
7.40852e-06
-3.63559e-12
7.40852e-06
-3.39177e-12
7.40853e-06
-3.16686e-12
7.40853e-06
-2.8834e-12
7.40853e-06
-2.63629e-12
7.40853e-06
-2.44503e-12
7.40853e-06
-2.22378e-12
7.40853e-06
-2.02498e-12
7.40853e-06
-1.81269e-12
7.40853e-06
-1.70396e-12
7.40853e-06
-1.51485e-12
7.40853e-06
-1.36291e-12
7.40853e-06
-1.21195e-12
7.40853e-06
-1.11381e-12
7.40853e-06
-9.82144e-13
7.40853e-06
-8.36758e-13
7.40853e-06
-7.71747e-13
7.40853e-06
-7.08663e-13
7.40853e-06
-5.93742e-13
7.40853e-06
-5.12081e-13
7.40853e-06
-4.4373e-13
7.40853e-06
-3.7552e-13
7.40853e-06
-3.18916e-13
7.40853e-06
-2.61313e-13
7.40853e-06
-2.15385e-13
7.40853e-06
-1.68088e-13
7.40853e-06
-1.30963e-13
7.40853e-06
-9.15263e-14
7.40853e-06
-6.24909e-14
7.40853e-06
-3.08799e-14
7.40853e-06
-8.24968e-15
7.40853e-06
1.78386e-14
7.40853e-06
3.46165e-14
7.40853e-06
5.49787e-14
7.40853e-06
6.72741e-14
7.40853e-06
8.38535e-14
7.40853e-06
9.18779e-14
7.40853e-06
1.04199e-13
7.40853e-06
1.09122e-13
7.40853e-06
1.18979e-13
7.40853e-06
1.20857e-13
7.40853e-06
1.27568e-13
7.40853e-06
1.27329e-13
7.40853e-06
1.32447e-13
7.40853e-06
1.29961e-13
7.40853e-06
1.32729e-13
7.40853e-06
1.2896e-13
7.40853e-06
1.31038e-13
7.40853e-06
1.25965e-13
7.40853e-06
1.26655e-13
7.40853e-06
1.21255e-13
7.40853e-06
1.22209e-13
7.40853e-06
1.16486e-13
7.40853e-06
1.17121e-13
7.40853e-06
1.1227e-13
7.40853e-06
1.14533e-13
7.40853e-06
1.10871e-13
7.40853e-06
1.14474e-13
7.40853e-06
1.13499e-13
7.40853e-06
1.2073e-13
7.40853e-06
1.23209e-13
7.40853e-06
1.34417e-13
7.40853e-06
1.427e-13
7.40853e-06
1.61223e-13
7.40853e-06
1.773e-13
7.40853e-06
2.04874e-13
7.40853e-06
2.32693e-13
7.40853e-06
2.74542e-13
7.40853e-06
3.18412e-13
7.40853e-06
3.7917e-13
7.40853e-06
4.46624e-13
7.40853e-06
5.35885e-13
7.40853e-06
6.36485e-13
7.40853e-06
7.65105e-13
7.40853e-06
9.13753e-13
7.40853e-06
1.10007e-12
7.40853e-06
1.3167e-12
7.40853e-06
1.5838e-12
7.40853e-06
1.89764e-12
7.40853e-06
2.27992e-12
7.40853e-06
2.7279e-12
7.40853e-06
3.26566e-12
7.40853e-06
3.89313e-12
7.40853e-06
4.63312e-12
7.40852e-06
5.48156e-12
7.40852e-06
6.45882e-12
7.40852e-06
7.55594e-12
7.40852e-06
8.78424e-12
7.40851e-06
1.01228e-11
7.40851e-06
1.15626e-11
7.40851e-06
1.30464e-11
7.4085e-06
1.44938e-11
7.4085e-06
1.57108e-11
7.40849e-06
1.64277e-11
7.40848e-06
1.61536e-11
1.46155e-11
8.81963e-06
1.6006e-11
8.81962e-06
1.09149e-11
8.81962e-06
6.127e-12
8.81962e-06
2.04336e-12
8.81962e-06
-1.33776e-12
8.81962e-06
-4.06832e-12
8.81963e-06
-6.19621e-12
8.81963e-06
-7.81273e-12
8.81963e-06
-8.99167e-12
8.81963e-06
-9.8236e-12
8.81964e-06
-1.03655e-11
8.81964e-06
-1.06857e-11
8.81964e-06
-1.08193e-11
8.81964e-06
-1.08143e-11
8.81965e-06
-1.06893e-11
8.81965e-06
-1.04797e-11
8.81965e-06
-1.01942e-11
8.81965e-06
-9.85993e-12
8.81966e-06
-9.47901e-12
8.81966e-06
-9.07414e-12
8.81966e-06
-8.64378e-12
8.81966e-06
-8.20667e-12
8.81967e-06
-7.75818e-12
8.81967e-06
-7.31514e-12
8.81967e-06
-6.87096e-12
8.81967e-06
-6.44039e-12
8.81967e-06
-6.01476e-12
8.81967e-06
-5.60775e-12
8.81967e-06
-5.21009e-12
8.81968e-06
-4.83389e-12
8.81968e-06
-4.46882e-12
8.81968e-06
-4.12666e-12
8.81968e-06
-3.7968e-12
8.81968e-06
-3.49012e-12
8.81968e-06
-3.19532e-12
8.81968e-06
-2.92324e-12
8.81968e-06
-2.6627e-12
8.81968e-06
-2.42405e-12
8.81968e-06
-2.19556e-12
8.81968e-06
-1.98776e-12
8.81968e-06
-1.78937e-12
8.81968e-06
-1.61035e-12
8.81968e-06
-1.439e-12
8.81968e-06
-1.28563e-12
8.81968e-06
-1.13886e-12
8.81968e-06
-1.00882e-12
8.81968e-06
-8.83669e-13
8.81968e-06
-7.73866e-13
8.81968e-06
-6.68225e-13
8.81968e-06
-5.7671e-13
8.81968e-06
-4.87764e-13
8.81968e-06
-4.11833e-13
8.81968e-06
-3.37799e-13
8.81969e-06
-2.75748e-13
8.81969e-06
-2.14289e-13
8.81969e-06
-1.63965e-13
8.81969e-06
-1.13793e-13
8.81969e-06
-7.39187e-14
8.81969e-06
-3.30183e-14
8.81969e-06
-1.67596e-15
8.81969e-06
3.10282e-14
8.81969e-06
5.48522e-14
8.81969e-06
8.10052e-14
8.81969e-06
9.87832e-14
8.81969e-06
1.18999e-13
8.81969e-06
1.3134e-13
8.81969e-06
1.46954e-13
8.81969e-06
1.55088e-13
8.81969e-06
1.66497e-13
8.81969e-06
1.70779e-13
8.81969e-06
1.7901e-13
8.81969e-06
1.80331e-13
8.81969e-06
1.8547e-13
8.81969e-06
1.83988e-13
8.81969e-06
1.87007e-13
8.81969e-06
1.83675e-13
8.81969e-06
1.8477e-13
8.81969e-06
1.79836e-13
8.81969e-06
1.80015e-13
8.81969e-06
1.74412e-13
8.81969e-06
1.73868e-13
8.81969e-06
1.67925e-13
8.81969e-06
1.67862e-13
8.81969e-06
1.6283e-13
8.81969e-06
1.63809e-13
8.81969e-06
1.60376e-13
8.81969e-06
1.63956e-13
8.81969e-06
1.63742e-13
8.81969e-06
1.70935e-13
8.81969e-06
1.75274e-13
8.81969e-06
1.88514e-13
8.81969e-06
2.00151e-13
8.81969e-06
2.21811e-13
8.81969e-06
2.43628e-13
8.81969e-06
2.77908e-13
8.81969e-06
3.14724e-13
8.81969e-06
3.66513e-13
8.81969e-06
4.24354e-13
8.81969e-06
5.01773e-13
8.81969e-06
5.90302e-13
8.81969e-06
7.04119e-13
8.81968e-06
8.36399e-13
8.81968e-06
1.00315e-12
8.81968e-06
1.19894e-12
8.81968e-06
1.44151e-12
8.81968e-06
1.72839e-12
8.81968e-06
2.08064e-12
8.81968e-06
2.49844e-12
8.81968e-06
3.00556e-12
8.81968e-06
3.60573e-12
8.81968e-06
4.32582e-12
8.81968e-06
5.17012e-12
8.81968e-06
6.16392e-12
8.81968e-06
7.30972e-12
8.81967e-06
8.62821e-12
8.81967e-06
1.01145e-11
8.81967e-06
1.178e-11
8.81966e-06
1.36085e-11
8.81966e-06
1.55858e-11
8.81966e-06
1.76444e-11
8.81965e-06
1.9676e-11
8.81964e-06
2.1458e-11
8.81964e-06
2.25218e-11
8.81963e-06
2.22921e-11
1.999e-11
1.00885e-05
1.97037e-11
1.00885e-05
1.32059e-11
1.00885e-05
7.13836e-12
1.00885e-05
2.04384e-12
1.00885e-05
-2.14087e-12
1.00885e-05
-5.47796e-12
1.00885e-05
-8.06378e-12
1.00885e-05
-9.99843e-12
1.00885e-05
-1.14023e-11
1.00885e-05
-1.23694e-11
1.00885e-05
-1.2994e-11
1.00885e-05
-1.33397e-11
1.00885e-05
-1.34721e-11
1.00885e-05
-1.34285e-11
1.00885e-05
-1.32527e-11
1.00885e-05
-1.29662e-11
1.00885e-05
-1.2601e-11
1.00885e-05
-1.21682e-11
1.00885e-05
-1.16914e-11
1.00885e-05
-1.11977e-11
1.00885e-05
-1.06214e-11
1.00885e-05
-1.00918e-11
1.00885e-05
-9.53869e-12
1.00885e-05
-8.98252e-12
1.00885e-05
-8.45829e-12
1.00885e-05
-7.87666e-12
1.00885e-05
-7.37666e-12
1.00885e-05
-6.8679e-12
1.00885e-05
-6.38217e-12
1.00885e-05
-5.91265e-12
1.00885e-05
-5.46785e-12
1.00885e-05
-5.04078e-12
1.00885e-05
-4.64007e-12
1.00885e-05
-4.25753e-12
1.00885e-05
-3.90035e-12
1.00885e-05
-3.56054e-12
1.00885e-05
-3.26738e-12
1.00885e-05
-2.92643e-12
1.00885e-05
-2.67283e-12
1.00885e-05
-2.41263e-12
1.00885e-05
-2.17487e-12
1.00885e-05
-1.95038e-12
1.00885e-05
-1.74582e-12
1.00885e-05
-1.55264e-12
1.00885e-05
-1.39985e-12
1.00885e-05
-1.19272e-12
1.00885e-05
-1.06639e-12
1.00885e-05
-9.26775e-13
1.00885e-05
-8.03014e-13
1.00885e-05
-6.86026e-13
1.00885e-05
-5.82632e-13
1.00885e-05
-4.84473e-13
1.00885e-05
-3.99395e-13
1.00885e-05
-3.18425e-13
1.00885e-05
-2.48677e-13
1.00885e-05
-1.81796e-13
1.00885e-05
-1.25859e-13
1.00885e-05
-7.19586e-14
1.00885e-05
-2.72174e-14
1.00885e-05
1.65336e-14
1.00885e-05
5.12458e-14
1.00885e-05
8.56011e-14
1.00885e-05
1.12346e-13
1.00885e-05
1.39569e-13
1.00885e-05
1.5902e-13
1.00885e-05
1.79393e-13
1.00885e-05
1.9331e-13
1.00885e-05
2.0879e-13
1.00885e-05
2.17522e-13
1.00885e-05
2.2805e-13
1.00885e-05
2.32922e-13
1.00885e-05
2.40047e-13
1.00885e-05
2.41075e-13
1.00885e-05
2.44533e-13
1.00885e-05
2.43011e-13
1.00885e-05
2.4444e-13
1.00885e-05
2.40463e-13
1.00885e-05
2.39642e-13
1.00885e-05
2.34516e-13
1.00885e-05
2.33016e-13
1.00885e-05
2.26882e-13
1.00885e-05
2.24663e-13
1.00885e-05
2.19099e-13
1.00885e-05
2.18154e-13
1.00885e-05
2.13726e-13
1.00885e-05
2.14387e-13
1.00885e-05
2.13066e-13
1.00885e-05
2.17791e-13
1.00885e-05
2.20695e-13
1.00885e-05
2.30648e-13
1.00885e-05
2.40875e-13
1.00885e-05
2.59851e-13
1.00885e-05
2.80132e-13
1.00885e-05
3.11116e-13
1.00885e-05
3.46636e-13
1.00885e-05
3.95974e-13
1.00885e-05
4.52637e-13
1.00885e-05
5.27303e-13
1.00885e-05
6.15282e-13
1.00885e-05
7.27739e-13
1.00885e-05
8.60347e-13
1.00885e-05
1.0265e-12
1.00885e-05
1.22465e-12
1.00885e-05
1.46988e-12
1.00885e-05
1.76254e-12
1.00885e-05
2.12161e-12
1.00885e-05
2.5519e-12
1.00885e-05
3.07566e-12
1.00885e-05
3.70094e-12
1.00885e-05
4.4546e-12
1.00885e-05
5.34781e-12
1.00885e-05
6.40771e-12
1.00885e-05
7.64437e-12
1.00885e-05
9.0812e-12
1.00885e-05
1.07225e-11
1.00885e-05
1.25833e-11
1.00885e-05
1.46601e-11
1.00885e-05
1.69488e-11
1.00885e-05
1.94173e-11
1.00885e-05
2.20224e-11
1.00885e-05
2.45977e-11
1.00885e-05
2.68463e-11
1.00885e-05
2.83089e-11
1.00885e-05
2.79049e-11
2.50099e-11
1.11888e-05
2.27659e-11
1.11888e-05
1.50806e-11
1.11888e-05
8.01965e-12
1.11888e-05
2.08484e-12
1.11888e-05
-2.74298e-12
1.11888e-05
-6.61102e-12
1.11888e-05
-9.57567e-12
1.11888e-05
-1.18136e-11
1.11888e-05
-1.34077e-11
1.11888e-05
-1.45226e-11
1.11888e-05
-1.52138e-11
1.11888e-05
-1.56109e-11
1.11888e-05
-1.57327e-11
1.11888e-05
-1.56778e-11
1.11888e-05
-1.54436e-11
1.11888e-05
-1.51107e-11
1.11888e-05
-1.46589e-11
1.11888e-05
-1.41567e-11
1.11888e-05
-1.35774e-11
1.11888e-05
-1.29838e-11
1.11888e-05
-1.23412e-11
1.11888e-05
-1.17063e-11
1.11888e-05
-1.1043e-11
1.11888e-05
-1.04056e-11
1.11888e-05
-9.75327e-12
1.11888e-05
-9.13609e-12
1.11888e-05
-8.51316e-12
1.11888e-05
-7.93428e-12
1.11888e-05
-7.35415e-12
1.11888e-05
-6.82045e-12
1.11888e-05
-6.28913e-12
1.11888e-05
-5.80714e-12
1.11888e-05
-5.32821e-12
1.11888e-05
-4.89701e-12
1.11888e-05
-4.46896e-12
1.11888e-05
-4.09e-12
1.11888e-05
-3.71183e-12
1.11888e-05
-3.38001e-12
1.11888e-05
-3.04794e-12
1.11888e-05
-2.76207e-12
1.11888e-05
-2.47384e-12
1.11888e-05
-2.22765e-12
1.11888e-05
-1.97767e-12
1.11888e-05
-1.76978e-12
1.11888e-05
-1.55517e-12
1.11888e-05
-1.37913e-12
1.11888e-05
-1.19496e-12
1.11888e-05
-1.04918e-12
1.11888e-05
-8.93213e-13
1.11888e-05
-7.7157e-13
1.11888e-05
-6.38922e-13
1.11888e-05
-5.40908e-13
1.11888e-05
-4.29434e-13
1.11888e-05
-3.49724e-13
1.11888e-05
-2.5552e-13
1.11888e-05
-1.93681e-13
1.11888e-05
-1.1574e-13
1.11888e-05
-6.69791e-14
1.11888e-05
-1.82035e-15
1.11888e-05
3.38428e-14
1.11888e-05
8.73181e-14
1.11888e-05
1.13626e-13
1.11888e-05
1.58259e-13
1.11888e-05
1.74631e-13
1.11888e-05
2.10807e-13
1.11888e-05
2.2101e-13
1.11888e-05
2.5092e-13
1.11888e-05
2.53897e-13
1.11888e-05
2.77643e-13
1.11888e-05
2.76566e-13
1.11888e-05
2.96029e-13
1.11888e-05
2.89345e-13
1.11888e-05
3.04181e-13
1.11888e-05
2.94966e-13
1.11888e-05
3.0705e-13
1.11888e-05
2.93655e-13
1.11888e-05
3.02874e-13
1.11888e-05
2.88511e-13
1.11888e-05
2.96286e-13
1.11888e-05
2.7951e-13
1.11888e-05
2.85854e-13
1.11888e-05
2.69893e-13
1.11888e-05
2.77021e-13
1.11888e-05
2.60787e-13
1.11888e-05
2.68805e-13
1.11888e-05
2.56239e-13
1.11888e-05
2.67942e-13
1.11888e-05
2.58066e-13
1.11888e-05
2.74489e-13
1.11888e-05
2.72273e-13
1.11888e-05
2.97228e-13
1.11888e-05
3.03593e-13
1.11888e-05
3.39786e-13
1.11888e-05
3.61498e-13
1.11888e-05
4.15249e-13
1.11888e-05
4.56228e-13
1.11888e-05
5.34023e-13
1.11888e-05
6.05826e-13
1.11888e-05
7.19956e-13
1.11888e-05
8.33829e-13
1.11888e-05
9.997e-13
1.11888e-05
1.17793e-12
1.11888e-05
1.42082e-12
1.11888e-05
1.69046e-12
1.11888e-05
2.04489e-12
1.11888e-05
2.45092e-12
1.11888e-05
2.96874e-12
1.11888e-05
3.56873e-12
1.11888e-05
4.31812e-12
1.11888e-05
5.19179e-12
1.11888e-05
6.25791e-12
1.11888e-05
7.49151e-12
1.11888e-05
8.96052e-12
1.11888e-05
1.06347e-11
1.11888e-05
1.25736e-11
1.11888e-05
1.47399e-11
1.11888e-05
1.71753e-11
1.11888e-05
1.98415e-11
1.11888e-05
2.27603e-11
1.11888e-05
2.57827e-11
1.11888e-05
2.87886e-11
1.11888e-05
3.14458e-11
1.11888e-05
3.29798e-11
1.11888e-05
3.25257e-11
2.88846e-11
1.20943e-05
2.4561e-11
1.20943e-05
1.61234e-11
1.20943e-05
8.56737e-12
1.20943e-05
2.09945e-12
1.20943e-05
-3.10247e-12
1.20943e-05
-7.31837e-12
1.20943e-05
-1.05618e-11
1.20943e-05
-1.31239e-11
1.20943e-05
-1.47788e-11
1.20943e-05
-1.6071e-11
1.20943e-05
-1.67861e-11
1.20943e-05
-1.7235e-11
1.20943e-05
-1.73654e-11
1.20943e-05
-1.74122e-11
1.20943e-05
-1.70451e-11
1.20943e-05
-1.66782e-11
1.20943e-05
-1.61651e-11
1.20943e-05
-1.56604e-11
1.20943e-05
-1.50064e-11
1.20943e-05
-1.43482e-11
1.20943e-05
-1.35477e-11
1.20943e-05
-1.28961e-11
1.20943e-05
-1.21257e-11
1.20943e-05
-1.15211e-11
1.20943e-05
-1.06878e-11
1.20943e-05
-1.00334e-11
1.20943e-05
-9.31123e-12
1.20943e-05
-8.69875e-12
1.20943e-05
-8.07436e-12
1.20943e-05
-7.48957e-12
1.20943e-05
-6.79707e-12
1.20943e-05
-6.41884e-12
1.20943e-05
-5.73407e-12
1.20943e-05
-5.41421e-12
1.20943e-05
-4.83838e-12
1.20943e-05
-4.42469e-12
1.20943e-05
-4.0536e-12
1.20943e-05
-3.64384e-12
1.20943e-05
-3.32586e-12
1.20943e-05
-3.01522e-12
1.20943e-05
-2.5944e-12
1.20943e-05
-2.42925e-12
1.20943e-05
-2.12769e-12
1.20943e-05
-1.9028e-12
1.20943e-05
-1.68908e-12
1.20943e-05
-1.45076e-12
1.20943e-05
-1.29735e-12
1.20943e-05
-1.14052e-12
1.20943e-05
-8.66597e-13
1.20943e-05
-8.87987e-13
1.20943e-05
-6.41339e-13
1.20943e-05
-5.86657e-13
1.20943e-05
-4.11955e-13
1.20943e-05
-3.28772e-13
1.20943e-05
-2.74754e-13
1.20943e-05
-2.09369e-13
1.20943e-05
-7.15006e-14
1.20943e-05
-7.19401e-14
1.20943e-05
1.00527e-13
1.20943e-05
-1.2677e-14
1.20943e-05
1.48425e-13
1.20943e-05
1.23634e-13
1.20943e-05
2.23523e-13
1.20943e-05
2.14587e-13
1.20943e-05
2.56637e-13
1.20943e-05
2.39356e-13
1.20943e-05
3.23207e-13
1.20943e-05
2.74617e-13
1.20943e-05
3.53197e-13
1.20943e-05
2.98478e-13
1.20943e-05
3.70918e-13
1.20943e-05
3.11633e-13
1.20943e-05
3.80578e-13
1.20943e-05
3.16796e-13
1.20943e-05
3.81334e-13
1.20943e-05
3.64542e-13
1.20943e-05
3.27299e-13
1.20943e-05
3.07552e-13
1.20943e-05
3.67516e-13
1.20943e-05
2.96489e-13
1.20943e-05
3.56507e-13
1.20943e-05
2.84481e-13
1.20943e-05
3.44024e-13
1.20943e-05
2.73093e-13
1.20943e-05
3.85349e-13
1.20943e-05
2.16298e-13
1.20943e-05
3.31243e-13
1.20943e-05
2.6675e-13
1.20943e-05
3.38534e-13
1.20943e-05
2.80505e-13
1.20943e-05
3.60295e-13
1.20943e-05
3.13056e-13
1.20943e-05
4.06714e-13
1.20943e-05
3.74316e-13
1.20943e-05
4.85683e-13
1.20943e-05
4.75832e-13
1.20943e-05
6.1503e-13
1.20943e-05
6.37238e-13
1.20943e-05
8.14882e-13
1.20943e-05
8.85228e-13
1.20943e-05
1.12157e-12
1.20943e-05
1.262e-12
1.20943e-05
1.58285e-12
1.20943e-05
1.8278e-12
1.20943e-05
2.27535e-12
1.20943e-05
2.67288e-12
1.20943e-05
3.30333e-12
1.20943e-05
3.92218e-12
1.20943e-05
4.81427e-12
1.20943e-05
5.74054e-12
1.20943e-05
6.98644e-12
1.20943e-05
8.36598e-12
1.20943e-05
9.98311e-12
1.20943e-05
1.17986e-11
1.20943e-05
1.40327e-11
1.20943e-05
1.63847e-11
1.20943e-05
1.91552e-11
1.20943e-05
2.21193e-11
1.20943e-05
2.52812e-11
1.20943e-05
2.86069e-11
1.20943e-05
3.19495e-11
1.20943e-05
3.46297e-11
1.20943e-05
3.63365e-11
1.20943e-05
3.55421e-11
3.15363e-11
1.27787e-05
1.27787e-05
1.27787e-05
1.27787e-05
1.27787e-05
1.27787e-05
1.27787e-05
1.27787e-05
1.27787e-05
1.27787e-05
1.27787e-05
1.27787e-05
1.27787e-05
1.27787e-05
1.27787e-05
1.27787e-05
1.27787e-05
1.27787e-05
1.27787e-05
1.27787e-05
1.27787e-05
1.27787e-05
1.27787e-05
1.27787e-05
1.27787e-05
1.27787e-05
1.27787e-05
1.27787e-05
1.27787e-05
1.27787e-05
1.27787e-05
1.27787e-05
1.27787e-05
1.27787e-05
1.27787e-05
1.27787e-05
1.27787e-05
1.27787e-05
1.27787e-05
1.27787e-05
1.27787e-05
1.27787e-05
1.27787e-05
1.27787e-05
1.27787e-05
1.27787e-05
1.27787e-05
1.27787e-05
1.27787e-05
1.27787e-05
1.27787e-05
1.27787e-05
1.27787e-05
1.27787e-05
1.27787e-05
1.27787e-05
1.27787e-05
1.27787e-05
1.27787e-05
1.27787e-05
1.27787e-05
1.27787e-05
1.27787e-05
1.27787e-05
1.27787e-05
1.27787e-05
1.27787e-05
1.27787e-05
1.27787e-05
1.27787e-05
1.27787e-05
1.27787e-05
1.27787e-05
1.27787e-05
1.27787e-05
1.27787e-05
1.27787e-05
1.27787e-05
1.27787e-05
1.27787e-05
1.27787e-05
1.27787e-05
1.27787e-05
1.27787e-05
1.27787e-05
1.27787e-05
1.27787e-05
1.27787e-05
1.27787e-05
1.27787e-05
1.27787e-05
1.27787e-05
1.27787e-05
1.27787e-05
1.27787e-05
1.27787e-05
1.27787e-05
1.27787e-05
1.27787e-05
1.27787e-05
1.27787e-05
1.27787e-05
1.27787e-05
1.27787e-05
1.27787e-05
1.27787e-05
1.27787e-05
1.27787e-05
1.27787e-05
1.27787e-05
1.27787e-05
1.27787e-05
1.27787e-05
1.27787e-05
1.27787e-05
1.27787e-05
1.27787e-05
1.27787e-05
1.27787e-05
1.27787e-05
1.27787e-05
1.27787e-05
1.27787e-05
1.27787e-05
)
;

boundaryField
{
    inlet
    {
        type            calculated;
        value           nonuniform 0();
    }
    outlet
    {
        type            calculated;
        value           nonuniform 0();
    }
    wall
    {
        type            calculated;
        value           nonuniform 0();
    }
    back
    {