/*--------------------------------*- C++ -*----------------------------------*\
| =========                 |                                                 |
| \\      /  F ield         | OpenFOAM: The Open Source CFD Toolbox           |
|  \\    /   O peration     | Version:                                        |
|   \\  /    A nd           | Website:  www.openfoam.com                      |
|    \\/     M anipulation  |                                                 |
\*---------------------------------------------------------------------------*/
FoamFile
{
    version     2.0;
    format      ascii;
    class       volVectorField;
    location    "71";
    object      U;
}
// * * * * * * * * * * * * * * * * * * * * * * * * * * * * * * * * * * * * * //

dimensions      [0 1 -1 0 0 0 0];


internalField   nonuniform List<vector> 
1250
(
(1.98772 3.6733e-07 5.37451e-13)
(1.98772 3.913e-07 4.70141e-13)
(1.98772 3.24887e-07 4.11365e-13)
(1.98772 2.55824e-07 3.6026e-13)
(1.98772 1.19785e-07 3.11823e-13)
(1.98772 4.49704e-08 2.69517e-13)
(1.98772 -7.38951e-08 2.30989e-13)
(1.98772 -1.22796e-07 1.93097e-13)
(1.98772 -2.13324e-07 1.5076e-13)
(1.98772 -2.33346e-07 9.98039e-14)
(1.98772 -2.97265e-07 3.13274e-14)
(1.98772 -2.94053e-07 -6.68069e-14)
(1.98772 -3.38209e-07 -2.10968e-13)
(1.98772 -3.18214e-07 -4.25904e-13)
(1.98772 -3.4877e-07 -7.36632e-13)
(1.98772 -3.18215e-07 -1.16033e-12)
(1.98772 -3.40486e-07 -1.66587e-12)
(1.98773 -3.03241e-07 -2.1245e-12)
(1.98773 -3.20441e-07 -2.30725e-12)
(1.98773 -2.79824e-07 -2.13774e-12)
(1.98773 -2.9459e-07 -1.85646e-12)
(1.98773 -2.52119e-07 -1.75082e-12)
(1.98773 -2.65667e-07 -1.92863e-12)
(1.98773 -2.22971e-07 -2.32981e-12)
(1.98773 -2.3655e-07 -2.73343e-12)
(1.98773 -1.94e-07 -2.69195e-12)
(1.98773 -2.07907e-07 -2.01227e-12)
(1.98773 -1.66373e-07 -8.45203e-13)
(1.98773 -1.81259e-07 2.82637e-13)
(1.98773 -1.40612e-07 1.03583e-12)
(1.98773 -1.56375e-07 1.31617e-12)
(1.98773 -1.17144e-07 1.34115e-12)
(1.98773 -1.34162e-07 1.22643e-12)
(1.98773 -9.59911e-08 1.34026e-12)
(1.98773 -1.13985e-07 1.71516e-12)
(1.98774 -7.72565e-08 2.11744e-12)
(1.98774 -9.64936e-08 2.26804e-12)
(1.98774 -6.07581e-08 2.09481e-12)
(1.98774 -8.08868e-08 1.6512e-12)
(1.98774 -4.64577e-08 1.07298e-12)
(1.98774 -6.7691e-08 5.7689e-13)
(1.98774 -3.40817e-08 4.21207e-13)
(1.98774 -5.60417e-08 6.77158e-13)
(1.98774 -2.35513e-08 1.08848e-12)
(1.98774 -4.64471e-08 1.37048e-12)
(1.98774 -1.45897e-08 1.43718e-12)
(1.98774 -3.80458e-08 1.33106e-12)
(1.98774 -7.11776e-09 1.13368e-12)
(1.98774 -3.13423e-08 9.14326e-13)
(1.98774 -8.6292e-10 7.11668e-13)
(1.98774 -2.54874e-08 5.4222e-13)
(1.98774 4.23172e-09 4.09747e-13)
(1.98774 -2.10178e-08 3.18033e-13)
(1.98774 8.40597e-09 2.02377e-13)
(1.98774 -1.71137e-08 1.45217e-13)
(1.98774 1.16951e-08 8.8433e-14)
(1.98774 -1.43257e-08 3.43347e-14)
(1.98774 1.43224e-08 -2.07854e-14)
(1.98774 -1.18559e-08 -7.78779e-14)
(1.98774 1.62927e-08 -1.38075e-13)
(1.98774 -1.0295e-08 -1.98428e-13)
(1.98774 1.77906e-08 -2.50457e-13)
(1.98774 -8.8785e-09 -2.91299e-13)
(1.98774 1.87966e-08 -3.11049e-13)
(1.98774 -8.21192e-09 -3.03578e-13)
(1.98774 1.94816e-08 -2.7077e-13)
(1.98774 -7.54661e-09 -2.18744e-13)
(1.98774 1.98045e-08 -1.5629e-13)
(1.98774 -7.51696e-09 -9.25835e-14)
(1.98774 1.99111e-08 -3.45493e-14)
(1.98774 -7.39171e-09 1.54289e-14)
(1.98774 1.97516e-08 5.5091e-14)
(1.98774 -7.80503e-09 8.41016e-14)
(1.98774 1.94745e-08 1.03824e-13)
(1.98774 -8.02492e-09 1.16369e-13)
(1.98774 1.90228e-08 1.22148e-13)
(1.98774 -8.69978e-09 1.23951e-13)
(1.98774 1.85363e-08 1.22434e-13)
(1.98774 -9.09738e-09 1.18752e-13)
(1.98774 1.79678e-08 1.13487e-13)
(1.98774 -9.84531e-09 1.04164e-13)
(1.98774 1.74823e-08 8.2984e-14)
(1.98774 -1.01845e-08 1.08071e-13)
(1.98774 1.70538e-08 9.3036e-14)
(1.98774 -1.07247e-08 8.32983e-14)
(1.98774 1.68714e-08 7.53785e-14)
(1.98774 -1.06735e-08 7.15553e-14)
(1.98774 1.69507e-08 6.63022e-14)
(1.98774 -1.05879e-08 6.10238e-14)
(1.98774 1.75342e-08 5.57901e-14)
(1.98774 -9.62384e-09 5.09616e-14)
(1.98774 1.86851e-08 4.6398e-14)
(1.98774 -8.28921e-09 4.13756e-14)
(1.98774 2.07081e-08 3.64246e-14)
(1.98774 -5.6568e-09 3.25825e-14)
(1.98774 2.3786e-08 3.20861e-14)
(1.98774 -2.06748e-09 2.48602e-14)
(1.98774 2.84332e-08 1.98531e-14)
(1.98774 3.66516e-09 1.83578e-14)
(1.98774 3.51576e-08 1.46032e-14)
(1.98774 1.16109e-08 8.3943e-15)
(1.98774 4.49732e-08 3.32066e-15)
(1.98774 2.35648e-08 -6.68962e-15)
(1.98774 5.91021e-08 -2.06467e-14)
(1.98774 4.04144e-08 -4.07103e-14)
(1.98774 7.939e-08 -6.58966e-14)
(1.98774 6.47523e-08 -9.28329e-14)
(1.98774 1.07736e-07 -1.29506e-13)
(1.98774 9.79337e-08 -1.74425e-13)
(1.98774 1.46199e-07 -2.23601e-13)
(1.98774 1.42427e-07 -2.69074e-13)
(1.98774 1.9636e-07 -3.03858e-13)
(1.98773 1.99026e-07 -3.19944e-13)
(1.98773 2.59403e-07 -3.20757e-13)
(1.98773 2.68734e-07 -2.50686e-13)
(1.98773 3.35063e-07 -2.04906e-13)
(1.98773 3.49958e-07 -1.4264e-13)
(1.98773 4.20399e-07 -7.78689e-14)
(1.98773 4.3694e-07 -1.80865e-14)
(1.98773 5.03704e-07 3.2907e-14)
(1.98773 5.10376e-07 7.177e-14)
(1.98773 5.47726e-07 9.82192e-14)
(1.98772 5.04974e-07 1.02811e-13)
(1.98772 4.6487e-07 1.34871e-13)
(1.98772 4.28149e-07 1.67056e-13)
(1.97963 1.05694e-06 1.50924e-12)
(1.97963 9.92692e-07 1.3193e-12)
(1.97963 8.27417e-07 1.1554e-12)
(1.97963 5.77935e-07 1.01363e-12)
(1.97963 2.91285e-07 8.73745e-13)
(1.97963 4.19699e-08 7.57266e-13)
(1.97963 -1.93431e-07 6.50083e-13)
(1.97963 -3.73192e-07 5.42854e-13)
(1.97963 -5.34522e-07 4.24254e-13)
(1.97963 -6.4209e-07 2.80135e-13)
(1.97963 -7.37952e-07 8.6767e-14)
(1.97963 -7.8836e-07 -1.89726e-13)
(1.97963 -8.35516e-07 -6.00112e-13)
(1.97963 -8.45406e-07 -1.21338e-12)
(1.97963 -8.59901e-07 -2.11048e-12)
(1.97963 -8.43765e-07 -3.34711e-12)
(1.97963 -8.3753e-07 -4.84816e-12)
(1.97964 -8.05223e-07 -6.22799e-12)
(1.97964 -7.86991e-07 -6.72643e-12)
(1.97964 -7.45957e-07 -6.08472e-12)
(1.97964 -7.21259e-07 -5.15379e-12)
(1.97964 -6.75761e-07 -4.84817e-12)
(1.97964 -6.48556e-07 -5.42876e-12)
(1.97964 -6.02029e-07 -6.6958e-12)
(1.97964 -5.74526e-07 -7.96777e-12)
(1.97964 -5.28492e-07 -7.93223e-12)
(1.97964 -5.02408e-07 -5.77606e-12)
(1.97964 -4.58456e-07 -2.16792e-12)
(1.97964 -4.34488e-07 1.15839e-12)
(1.97964 -3.92891e-07 3.21895e-12)
(1.97964 -3.71735e-07 3.93369e-12)
(1.97964 -3.33237e-07 3.82155e-12)
(1.97964 -3.14907e-07 3.41917e-12)
(1.97964 -2.7923e-07 3.72696e-12)
(1.97964 -2.63972e-07 4.9326e-12)
(1.97964 -2.31491e-07 6.18729e-12)
(1.97964 -2.19025e-07 6.59261e-12)
(1.97964 -1.89213e-07 6.02037e-12)
(1.97965 -1.79584e-07 4.65774e-12)
(1.97965 -1.52653e-07 2.90664e-12)
(1.97965 -1.45458e-07 1.41237e-12)
(1.97965 -1.20797e-07 1.00697e-12)
(1.97965 -1.16021e-07 1.91063e-12)
(1.97965 -9.3801e-08 3.21821e-12)
(1.97965 -9.10148e-08 4.02999e-12)
(1.97965 -7.06061e-08 4.16225e-12)
(1.97965 -6.97835e-08 3.79558e-12)
(1.97965 -5.13548e-08 3.19233e-12)
(1.97965 -5.20788e-08 2.54863e-12)
(1.97965 -3.50233e-08 1.96994e-12)
(1.97965 -3.7298e-08 1.49475e-12)
(1.97965 -2.18203e-08 1.12432e-12)
(1.97965 -2.52597e-08 8.48973e-13)
(1.97965 -1.07807e-08 5.77647e-13)
(1.97965 -1.54152e-08 4.00542e-13)
(1.97965 -2.16441e-09 2.40662e-13)
(1.97965 -7.63867e-09 8.86918e-14)
(1.97965 4.92563e-09 -6.66142e-14)
(1.97965 -1.45823e-09 -2.30404e-13)
(1.97965 1.01488e-08 -4.04829e-13)
(1.97965 3.17519e-09 -5.79945e-13)
(1.97965 1.43379e-08 -7.25019e-13)
(1.97965 6.68034e-09 -8.4205e-13)
(1.97965 1.71036e-08 -8.96338e-13)
(1.97965 9.05339e-09 -8.71217e-13)
(1.97965 1.92187e-08 -7.70491e-13)
(1.97965 1.06476e-08 -6.15472e-13)
(1.97965 2.02268e-08 -4.33149e-13)
(1.97965 1.14015e-08 -2.49273e-13)
(1.97965 2.08597e-08 -8.23018e-14)
(1.97965 1.16403e-08 5.77234e-14)
(1.97965 2.06403e-08 1.6757e-13)
(1.97965 1.12828e-08 2.47599e-13)
(1.97965 2.02782e-08 3.01758e-13)
(1.97965 1.06287e-08 3.34245e-13)
(1.97965 1.9271e-08 3.50257e-13)
(1.97965 9.58449e-09 3.53808e-13)
(1.97965 1.83361e-08 3.47788e-13)
(1.97965 8.4734e-09 3.3667e-13)
(1.97965 1.70047e-08 3.21041e-13)
(1.97965 7.23847e-09 2.98553e-13)
(1.97965 1.60294e-08 2.61173e-13)
(1.97965 6.23776e-09 2.80131e-13)
(1.97965 1.49804e-08 2.6051e-13)
(1.97965 5.46947e-09 2.34395e-13)
(1.97965 1.46873e-08 2.09563e-13)
(1.97965 5.38669e-09 2.02314e-13)
(1.97965 1.48268e-08 1.86581e-13)
(1.97965 6.09738e-09 1.71374e-13)
(1.97965 1.63364e-08 1.57621e-13)
(1.97965 8.16684e-09 1.44286e-13)
(1.97965 1.90183e-08 1.31403e-13)
(1.97965 1.18594e-08 1.17269e-13)
(1.97965 2.40115e-08 1.0225e-13)
(1.97965 1.80002e-08 8.9247e-14)
(1.97965 3.14537e-08 9.23972e-14)
(1.97965 2.72709e-08 6.74799e-14)
(1.97965 4.29935e-08 5.22614e-14)
(1.97965 4.11311e-08 5.37045e-14)
(1.97965 5.9568e-08 4.10415e-14)
(1.97965 6.12568e-08 2.12985e-14)
(1.97965 8.40434e-08 1.06396e-14)
(1.97965 9.05737e-08 -1.86155e-14)
(1.97965 1.19067e-07 -6.07578e-14)
(1.97965 1.32656e-07 -1.18451e-13)
(1.97965 1.69487e-07 -1.9115e-13)
(1.97965 1.92399e-07 -2.66278e-13)
(1.97965 2.39766e-07 -3.73769e-13)
(1.97965 2.74909e-07 -5.03552e-13)
(1.97965 3.359e-07 -6.44701e-13)
(1.97964 3.85863e-07 -7.76774e-13)
(1.97964 4.62788e-07 -8.75777e-13)
(1.97964 5.30197e-07 -9.1672e-13)
(1.97964 6.25312e-07 -8.92443e-13)
(1.97964 7.1133e-07 -7.37279e-13)
(1.97964 8.24801e-07 -5.8185e-13)
(1.97964 9.27899e-07 -3.95399e-13)
(1.97964 1.05484e-06 -2.07668e-13)
(1.97964 1.16432e-06 -3.68528e-14)
(1.97964 1.28697e-06 1.05327e-13)
(1.97964 1.3699e-06 2.15351e-13)
(1.97964 1.4254e-06 2.91573e-13)
(1.97963 1.36198e-06 3.27261e-13)
(1.97963 1.26313e-06 3.88905e-13)
(1.97963 1.14082e-06 4.438e-13)
(1.96081 1.78592e-06 2.3864e-12)
(1.96081 1.50368e-06 2.08262e-12)
(1.96081 1.15344e-06 1.82671e-12)
(1.96081 7.07416e-07 1.61775e-12)
(1.96081 2.94485e-07 1.36858e-12)
(1.96081 -9.94809e-08 1.19724e-12)
(1.96081 -4.1076e-07 1.03271e-12)
(1.96081 -6.88829e-07 8.64102e-13)
(1.96081 -8.85097e-07 6.76608e-13)
(1.96081 -1.05694e-06 4.45268e-13)
(1.96081 -1.15934e-06 1.33306e-13)
(1.96082 -1.25054e-06 -3.16322e-13)
(1.96082 -1.28524e-06 -9.929e-13)
(1.96082 -1.32091e-06 -2.02568e-12)
(1.96082 -1.31066e-06 -3.5861e-12)
(1.96082 -1.31009e-06 -5.8412e-12)
(1.96082 -1.2711e-06 -8.76894e-12)
(1.96082 -1.24838e-06 -1.16499e-11)
(1.96082 -1.19265e-06 -1.23259e-11)
(1.96082 -1.15724e-06 -1.00586e-11)
(1.96082 -1.09234e-06 -7.61248e-12)
(1.96082 -1.05089e-06 -7.14462e-12)
(1.96082 -9.82468e-07 -8.64992e-12)
(1.96082 -9.39115e-07 -1.1623e-11)
(1.96082 -8.70332e-07 -1.47624e-11)
(1.96082 -8.28048e-07 -1.5026e-11)
(1.96083 -7.61471e-07 -9.90601e-12)
(1.96083 -7.21833e-07 -1.83897e-12)
(1.96083 -6.58455e-07 4.39854e-12)
(1.96083 -6.22632e-07 7.26284e-12)
(1.96083 -5.63533e-07 7.61289e-12)
(1.96083 -5.31881e-07 6.44026e-12)
(1.96083 -4.77061e-07 4.97653e-12)
(1.96083 -4.49947e-07 5.53414e-12)
(1.96083 -3.99822e-07 8.6299e-12)
(1.96083 -3.77054e-07 1.14966e-11)
(1.96083 -3.31159e-07 1.1922e-11)
(1.96083 -3.12712e-07 1.04061e-11)
(1.96083 -2.71151e-07 7.46979e-12)
(1.96083 -2.56603e-07 3.85254e-12)
(1.96083 -2.1875e-07 7.77274e-13)
(1.96083 -2.07958e-07 3.7606e-13)
(1.96083 -1.73828e-07 3.19412e-12)
(1.96083 -1.66296e-07 6.29846e-12)
(1.96083 -1.35195e-07 7.59889e-12)
(1.96083 -1.30727e-07 7.38001e-12)
(1.96083 -1.0264e-07 6.33784e-12)
(1.96083 -1.00747e-07 5.06845e-12)
(1.96083 -7.50136e-08 3.89383e-12)
(1.96083 -7.55464e-08 2.93026e-12)
(1.96083 -5.22107e-08 2.18599e-12)
(1.96083 -5.47247e-08 1.62387e-12)
(1.96083 -3.31539e-08 1.19704e-12)
(1.96083 -3.75312e-08 8.53654e-13)
(1.96083 -1.78075e-08 5.74955e-13)
(1.96083 -2.36522e-08 3.26796e-13)
(1.96083 -5.20793e-09 8.64553e-14)
(1.96083 -1.24718e-08 -1.6518e-13)
(1.96083 4.54727e-09 -4.39555e-13)
(1.96083 -3.78693e-09 -7.40162e-13)
(1.96083 1.23455e-08 -1.05902e-12)
(1.96083 2.96774e-09 -1.28466e-12)
(1.96083 1.80422e-08 -1.49364e-12)
(1.96083 7.92797e-09 -1.57159e-12)
(1.96083 2.24242e-08 -1.49379e-12)
(1.96083 1.1535e-08 -1.27767e-12)
(1.96083 2.52214e-08 -9.73753e-13)
(1.96083 1.38202e-08 -6.38771e-13)
(1.96083 2.71533e-08 -3.18337e-13)
(1.96083 1.51859e-08 -4.02541e-14)
(1.96083 2.7917e-08 1.82813e-13)
(1.96083 1.562e-08 3.50315e-13)
(1.96083 2.81691e-08 4.67595e-13)
(1.96083 1.545e-08 5.42462e-13)
(1.96083 2.7541e-08 5.83489e-13)
(1.96083 1.46305e-08 5.99324e-13)
(1.96083 2.67025e-08 5.96881e-13)
(1.96083 1.35371e-08 5.80706e-13)
(1.96083 2.5343e-08 5.57772e-13)
(1.96083 1.21727e-08 5.32188e-13)
(1.96083 2.41578e-08 5.00604e-13)
(1.96083 1.09221e-08 4.61697e-13)
(1.96083 2.2851e-08 4.16852e-13)
(1.96083 9.83368e-09 4.28327e-13)
(1.96083 2.2207e-08 3.77346e-13)
(1.96083 9.41856e-09 3.21701e-13)
(1.96083 2.20744e-08 3.39077e-13)
(1.96083 9.86848e-09 3.02671e-13)
(1.96083 2.33665e-08 2.76845e-13)
(1.96083 1.18233e-08 2.55051e-13)
(1.96083 2.60886e-08 2.34343e-13)
(1.96083 1.56865e-08 2.13769e-13)
(1.96083 3.14427e-08 1.88307e-13)
(1.96083 2.24722e-08 1.61574e-13)
(1.96083 3.98928e-08 1.29339e-13)
(1.96083 3.31212e-08 1.76393e-13)
(1.96083 5.326e-08 9.33114e-14)
(1.96083 4.93862e-08 6.51137e-14)
(1.96083 7.29207e-08 1.00611e-13)
(1.96083 7.33479e-08 6.81684e-14)
(1.96083 1.02106e-07 2.01815e-14)
(1.96083 1.08488e-07 2.9292e-14)
(1.96083 1.4425e-07 -3.1357e-14)
(1.96083 1.59267e-07 -1.06695e-13)
(1.96083 2.05234e-07 -2.07219e-13)
(1.96083 2.32066e-07 -3.45022e-13)
(1.96083 2.91598e-07 -4.46039e-13)
(1.96083 3.34594e-07 -6.4599e-13)
(1.96083 4.12591e-07 -8.80557e-13)
(1.96083 4.76669e-07 -1.13399e-12)
(1.96083 5.78232e-07 -1.3713e-12)
(1.96083 6.69121e-07 -1.54079e-12)
(1.96083 8.00015e-07 -1.58963e-12)
(1.96083 9.22635e-07 -1.48901e-12)
(1.96083 1.08688e-06 -1.24613e-12)
(1.96083 1.24355e-06 -9.25732e-13)
(1.96083 1.4399e-06 -5.79355e-13)
(1.96082 1.62422e-06 -2.50411e-13)
(1.96082 1.83833e-06 3.42583e-14)
(1.96082 2.02543e-06 2.622e-13)
(1.96082 2.20827e-06 4.32194e-13)
(1.96082 2.30923e-06 5.50522e-13)
(1.96082 2.29565e-06 6.25174e-13)
(1.96082 2.1722e-06 6.75054e-13)
(1.96082 1.97279e-06 7.02784e-13)
(1.9318 2.51365e-06 3.06685e-12)
(1.9318 1.95076e-06 2.67423e-12)
(1.9318 1.33769e-06 2.34707e-12)
(1.9318 7.1748e-07 2.07855e-12)
(1.9318 1.56791e-07 1.77927e-12)
(1.9318 -3.30915e-07 1.56075e-12)
(1.9318 -7.28846e-07 1.34985e-12)
(1.9318 -1.05191e-06 1.13241e-12)
(1.9318 -1.29651e-06 8.87906e-13)
(1.9318 -1.48352e-06 5.83982e-13)
(1.9318 -1.61119e-06 1.69797e-13)
(1.9318 -1.70003e-06 -4.34815e-13)
(1.9318 -1.74665e-06 -1.36035e-12)
(1.9318 -1.76925e-06 -2.81341e-12)
(1.9318 -1.76221e-06 -5.11502e-12)
(1.93181 -1.74183e-06 -8.71167e-12)
(1.93181 -1.70087e-06 -1.40234e-11)
(1.93181 -1.65403e-06 -2.04047e-11)
(1.93181 -1.59271e-06 -2.09533e-11)
(1.93181 -1.53067e-06 -1.31403e-11)
(1.93181 -1.45856e-06 -7.12582e-12)
(1.93181 -1.38922e-06 -7.43915e-12)
(1.93181 -1.31263e-06 -1.12206e-11)
(1.93181 -1.24119e-06 -1.77381e-11)
(1.93181 -1.16457e-06 -2.56388e-11)
(1.93181 -1.09464e-06 -2.72336e-11)
(1.93181 -1.02067e-06 -1.44389e-11)
(1.93181 -9.54362e-07 3.84388e-12)
(1.93181 -8.84869e-07 1.35199e-11)
(1.93181 -8.23566e-07 1.48278e-11)
(1.93181 -7.59383e-07 1.2778e-11)
(1.93181 -7.0366e-07 8.76862e-12)
(1.93181 -6.45357e-07 3.96811e-12)
(1.93181 -5.95573e-07 5.13054e-12)
(1.93181 -5.43117e-07 1.40583e-11)
(1.93181 -4.99131e-07 2.0278e-11)
(1.93181 -4.52487e-07 1.93962e-11)
(1.93181 -4.14146e-07 1.53011e-11)
(1.93181 -3.72887e-07 9.49733e-12)
(1.93182 -3.3976e-07 2.79584e-12)
(1.93182 -3.0364e-07 -3.69422e-12)
(1.93182 -2.75417e-07 -3.39149e-12)
(1.93182 -2.43885e-07 5.54173e-12)
(1.93182 -2.20029e-07 1.2478e-11)
(1.93182 -1.92745e-07 1.31367e-11)
(1.93182 -1.7287e-07 1.123e-11)
(1.93182 -1.49245e-07 8.60617e-12)
(1.93182 -1.32838e-07 6.2872e-12)
(1.93182 -1.12581e-07 4.52996e-12)
(1.93182 -9.93161e-08 3.27631e-12)
(1.93182 -8.19143e-08 2.39496e-12)
(1.93182 -7.13238e-08 1.76516e-12)
(1.93182 -5.65132e-08 1.29651e-12)
(1.93182 -4.83223e-08 9.23594e-13)
(1.93182 -3.56538e-08 6.03786e-13)
(1.93182 -2.94665e-08 3.02413e-13)
(1.93182 -1.87639e-08 -8.1028e-15)
(1.93182 -1.43952e-08 -3.50755e-13)
(1.93182 -5.28329e-09 -7.42279e-13)
(1.93182 -2.38662e-09 -1.18684e-12)
(1.93182 5.28085e-09 -1.66809e-12)
(1.93182 6.86431e-09 -2.04929e-12)
(1.93182 1.3423e-08 -2.35622e-12)
(1.93182 1.39777e-08 -2.42146e-12)
(1.93182 1.94925e-08 -2.20432e-12)
(1.93182 1.90903e-08 -1.76533e-12)
(1.93182 2.38233e-08 -1.22186e-12)
(1.93182 2.26981e-08 -6.79711e-13)
(1.93182 2.66825e-08 -2.05082e-13)
(1.93182 2.48816e-08 1.75087e-13)
(1.93182 2.83484e-08 4.57603e-13)
(1.93182 2.60596e-08 6.53567e-13)
(1.93182 2.89861e-08 7.78327e-13)
(1.93182 2.62055e-08 8.478e-13)
(1.93182 2.87941e-08 8.76024e-13)
(1.93182 2.57112e-08 8.74673e-13)
(1.93182 2.79656e-08 8.5221e-13)
(1.93182 2.46139e-08 8.15712e-13)
(1.93182 2.67674e-08 7.72882e-13)
(1.93182 2.33496e-08 7.40684e-13)
(1.93182 2.54048e-08 6.96861e-13)
(1.93182 2.19544e-08 6.4628e-13)
(1.93182 2.41615e-08 5.83492e-13)
(1.93182 2.09252e-08 5.70268e-13)
(1.93182 2.33569e-08 5.04949e-13)
(1.93182 2.04534e-08 4.3703e-13)
(1.93182 2.34434e-08 4.40732e-13)
(1.93182 2.11957e-08 3.93167e-13)
(1.93182 2.48918e-08 3.69354e-13)
(1.93182 2.35117e-08 3.42875e-13)
(1.93182 2.83763e-08 3.17602e-13)
(1.93182 2.83663e-08 2.91609e-13)
(1.93182 3.47817e-08 2.5077e-13)
(1.93182 3.66404e-08 2.15784e-13)
(1.93182 4.5396e-08 1.76667e-13)
(1.93182 4.99957e-08 2.14101e-13)
(1.93182 6.19051e-08 1.25762e-13)
(1.93182 7.02673e-08 1.0265e-13)
(1.93182 8.67628e-08 1.32835e-13)
(1.93182 1.00564e-07 9.48375e-14)
(1.93182 1.23448e-07 3.92434e-14)
(1.93182 1.44907e-07 2.38211e-14)
(1.93182 1.77006e-07 -5.92236e-14)
(1.93182 2.09417e-07 -1.63136e-13)
(1.93182 2.54378e-07 -3.04755e-13)
(1.93182 3.02063e-07 -5.00384e-13)
(1.93182 3.65094e-07 -6.72464e-13)
(1.93182 4.3402e-07 -9.76715e-13)
(1.93182 5.21758e-07 -1.34432e-12)
(1.93182 6.19457e-07 -1.75034e-12)
(1.93181 7.40286e-07 -2.13328e-12)
(1.93181 8.75524e-07 -2.39295e-12)
(1.93181 1.03829e-06 -2.42216e-12)
(1.93181 1.21956e-06 -2.17614e-12)
(1.93181 1.43125e-06 -1.71247e-12)
(1.93181 1.66265e-06 -1.15012e-12)
(1.93181 1.92329e-06 -5.93808e-13)
(1.93181 2.19935e-06 -1.07715e-13)
(1.93181 2.49424e-06 2.80574e-13)
(1.93181 2.78605e-06 5.69253e-13)
(1.93181 3.05895e-06 7.69088e-13)
(1.93181 3.26342e-06 8.96759e-13)
(1.9318 3.33264e-06 9.68788e-13)
(1.9318 3.22652e-06 1.00161e-12)
(1.9318 2.93836e-06 1.00534e-12)
(1.8927 3.16206e-06 3.47152e-12)
(1.8927 2.29238e-06 3.03901e-12)
(1.8927 1.42551e-06 2.67656e-12)
(1.8927 6.35875e-07 2.36533e-12)
(1.8927 -4.5189e-08 2.08071e-12)
(1.8927 -6.13383e-07 1.82701e-12)
(1.8927 -1.06863e-06 1.58458e-12)
(1.8927 -1.42513e-06 1.33406e-12)
(1.8927 -1.69243e-06 1.04997e-12)
(1.8927 -1.88821e-06 6.93337e-13)
(1.8927 -2.02133e-06 2.0286e-13)
(1.8927 -2.10675e-06 -5.19937e-13)
(1.8927 -2.14996e-06 -1.64138e-12)
(1.8927 -2.16272e-06 -3.44315e-12)
(1.8927 -2.1476e-06 -6.42359e-12)
(1.8927 -2.11378e-06 -1.15057e-11)
(1.8927 -2.06177e-06 -2.05621e-11)
(1.8927 -1.99918e-06 -3.79226e-11)
(1.8927 -1.92521e-06 -3.81292e-11)
(1.8927 -1.8462e-06 -1.05086e-11)
(1.89271 -1.76043e-06 2.54441e-12)
(1.89271 -1.67357e-06 -4.63349e-12)
(1.89271 -1.58324e-06 -1.29595e-11)
(1.89271 -1.49443e-06 -2.54647e-11)
(1.89271 -1.40431e-06 -4.64157e-11)
(1.89271 -1.31752e-06 -5.45109e-11)
(1.89271 -1.23089e-06 -1.82138e-11)
(1.89271 -1.14866e-06 2.68825e-11)
(1.89271 -1.06739e-06 3.52293e-11)
(1.89271 -9.912e-07 2.58618e-11)
(1.89271 -9.16489e-07 1.86352e-11)
(1.89271 -8.4712e-07 9.93714e-12)
(1.89271 -7.79388e-07 -5.31697e-12)
(1.89271 -7.17117e-07 -2.59973e-12)
(1.89271 -6.56536e-07 2.66696e-11)
(1.89271 -6.01305e-07 3.89626e-11)
(1.89271 -5.47587e-07 2.96012e-11)
(1.89271 -4.99086e-07 1.9708e-11)
(1.89271 -4.51955e-07 9.58157e-12)
(1.89271 -4.09783e-07 -1.36333e-12)
(1.89271 -3.687e-07 -1.78883e-11)
(1.89271 -3.32348e-07 -1.55221e-11)
(1.89271 -2.96878e-07 1.43649e-11)
(1.89271 -2.65821e-07 2.82403e-11)
(1.89271 -2.35318e-07 2.13281e-11)
(1.89271 -2.08978e-07 1.4731e-11)
(1.89271 -1.82978e-07 9.26658e-12)
(1.89271 -1.60852e-07 5.86857e-12)
(1.89271 -1.38764e-07 3.89269e-12)
(1.89271 -1.20337e-07 2.72896e-12)
(1.89271 -1.01777e-07 2.00104e-12)
(1.89271 -8.66094e-08 1.50208e-12)
(1.89271 -7.10324e-08 1.12074e-12)
(1.89271 -5.86757e-08 7.95378e-13)
(1.89271 -4.57767e-08 4.86208e-13)
(1.89271 -3.58826e-08 1.63272e-13)
(1.89271 -2.52231e-08 -2.01595e-13)
(1.89271 -1.74423e-08 -6.36174e-13)
(1.89271 -8.79435e-09 -1.1636e-12)
(1.89271 -2.83096e-09 -1.79208e-12)
(1.89271 4.20752e-09 -2.48974e-12)
(1.89271 8.66409e-09 -3.1453e-12)
(1.89271 1.42628e-08 -3.58264e-12)
(1.89271 1.74264e-08 -3.56455e-12)
(1.89271 2.18897e-08 -3.01781e-12)
(1.89271 2.39741e-08 -2.14062e-12)
(1.89271 2.73932e-08 -1.21196e-12)
(1.89271 2.85568e-08 -4.05854e-13)
(1.89271 3.11959e-08 2.14448e-13)
(1.89271 3.16144e-08 6.52987e-13)
(1.89271 3.35158e-08 9.38876e-13)
(1.89271 3.32845e-08 1.1088e-12)
(1.89271 3.46454e-08 1.19468e-12)
(1.89271 3.3886e-08 1.22154e-12)
(1.89271 3.47238e-08 1.20831e-12)
(1.89271 3.35391e-08 1.16849e-12)
(1.89271 3.40808e-08 1.11149e-12)
(1.89271 3.26279e-08 1.04208e-12)
(1.89271 3.29144e-08 9.5996e-13)
(1.89271 3.1302e-08 9.49057e-13)
(1.89271 3.15577e-08 8.81047e-13)
(1.89271 2.99472e-08 8.20281e-13)
(1.89271 3.02389e-08 7.72034e-13)
(1.89271 2.87953e-08 6.64119e-13)
(1.89271 2.94284e-08 6.08648e-13)
(1.89271 2.84029e-08 5.50172e-13)
(1.89271 2.953e-08 5.01473e-13)
(1.89271 2.91708e-08 4.41502e-13)
(1.89271 3.11889e-08 4.56927e-13)
(1.89271 3.18666e-08 4.19132e-13)
(1.89271 3.5095e-08 3.91187e-13)
(1.89271 3.7285e-08 3.75397e-13)
(1.89271 4.24063e-08 2.88482e-13)
(1.89271 4.68158e-08 2.59955e-13)
(1.89271 5.45303e-08 2.28389e-13)
(1.89271 6.2069e-08 2.02691e-13)
(1.89271 7.35706e-08 1.49802e-13)
(1.89271 8.55686e-08 1.74314e-13)
(1.89271 1.0233e-07 1.51072e-13)
(1.89271 1.20658e-07 1.21425e-13)
(1.89271 1.45048e-07 9.0195e-14)
(1.89271 1.72449e-07 -1.93668e-14)
(1.89271 2.07604e-07 -1.03633e-13)
(1.89271 2.47909e-07 -2.30864e-13)
(1.89271 2.98503e-07 -4.13985e-13)
(1.89271 3.57163e-07 -6.74292e-13)
(1.89271 4.29509e-07 -9.41348e-13)
(1.89271 5.14042e-07 -1.38235e-12)
(1.89271 6.16972e-07 -1.93641e-12)
(1.89271 7.37268e-07 -2.57141e-12)
(1.89271 8.81547e-07 -3.18516e-12)
(1.89271 1.04925e-06 -3.58251e-12)
(1.89271 1.24697e-06 -3.52987e-12)
(1.89271 1.47333e-06 -2.95461e-12)
(1.89271 1.73371e-06 -2.05404e-12)
(1.89271 2.02528e-06 -1.10704e-12)
(1.89271 2.35109e-06 -2.86702e-13)
(1.89271 2.70477e-06 3.44752e-13)
(1.89271 3.08325e-06 7.90891e-13)
(1.89271 3.47051e-06 1.08315e-12)
(1.8927 3.84317e-06 1.25717e-12)
(1.8927 4.15173e-06 1.3459e-12)
(1.8927 4.31556e-06 1.37531e-12)
(1.8927 4.23534e-06 1.36546e-12)
(1.8927 3.83823e-06 1.32957e-12)
(1.84354 3.66463e-06 3.57364e-12)
(1.84354 2.53809e-06 3.16444e-12)
(1.84354 1.46292e-06 2.8149e-12)
(1.84354 5.32971e-07 2.50933e-12)
(1.84354 -2.43744e-07 2.23349e-12)
(1.84354 -8.75429e-07 1.97788e-12)
(1.84354 -1.37123e-06 1.72783e-12)
(1.84354 -1.75059e-06 1.46445e-12)
(1.84354 -2.02948e-06 1.16139e-12)
(1.84354 -2.22819e-06 7.7676e-13)
(1.84354 -2.3595e-06 2.44615e-13)
(1.84354 -2.43889e-06 -5.41816e-13)
(1.84354 -2.47442e-06 -1.76256e-12)
(1.84354 -2.47732e-06 -3.72419e-12)
(1.84354 -2.45189e-06 -6.96655e-12)
(1.84354 -2.40631e-06 -1.2483e-11)
(1.84354 -2.34268e-06 -2.22157e-11)
(1.84354 -2.26747e-06 -4.02984e-11)
(1.84354 -2.18121e-06 -4.39521e-11)
(1.84355 -2.08909e-06 -1.90585e-11)
(1.84355 -1.99083e-06 -1.76001e-12)
(1.84355 -1.89091e-06 -4.99745e-12)
(1.84355 -1.78825e-06 -1.45954e-11)
(1.84355 -1.68667e-06 -2.99211e-11)
(1.84355 -1.58471e-06 -4.88924e-11)
(1.84355 -1.48583e-06 -5.02312e-11)
(1.84355 -1.38808e-06 -1.3022e-11)
(1.84355 -1.2945e-06 2.86593e-11)
(1.84355 -1.20298e-06 3.68414e-11)
(1.84355 -1.11643e-06 2.86777e-11)
(1.84355 -1.03244e-06 2.20585e-11)
(1.84355 -9.53629e-07 1.40648e-11)
(1.84355 -8.77599e-07 5.41546e-13)
(1.84355 -8.06934e-07 3.66463e-12)
(1.84355 -7.3903e-07 3.13061e-11)
(1.84355 -6.76287e-07 4.46902e-11)
(1.84355 -6.16156e-07 3.48721e-11)
(1.84355 -5.61105e-07 1.92485e-11)
(1.84355 -5.08433e-07 5.7163e-12)
(1.84355 -4.60469e-07 -4.27752e-12)
(1.84355 -4.14625e-07 -1.82163e-11)
(1.84355 -3.73299e-07 -1.46256e-11)
(1.84355 -3.33782e-07 1.46628e-11)
(1.84355 -2.98352e-07 3.10066e-11)
(1.84355 -2.6442e-07 2.4947e-11)
(1.84355 -2.34373e-07 1.35241e-11)
(1.84355 -2.05518e-07 5.07432e-12)
(1.84355 -1.80141e-07 2.44322e-12)
(1.84355 -1.55683e-07 1.61916e-12)
(1.84355 -1.34536e-07 1.31703e-12)
(1.84355 -1.14038e-07 1.13771e-12)
(1.84355 -9.64792e-08 9.65733e-13)
(1.84355 -7.93281e-08 7.70146e-13)
(1.84355 -6.49931e-08 5.4185e-13)
(1.84355 -5.0848e-08 2.70936e-13)
(1.84355 -3.92094e-08 -5.9142e-14)
(1.84355 -2.75764e-08 -4.74371e-13)
(1.84355 -1.83719e-08 -1.01092e-12)
(1.84355 -8.98733e-09 -1.71002e-12)
(1.84355 -1.74527e-09 -2.60172e-12)
(1.84355 5.83971e-09 -3.66386e-12)
(1.84355 1.13262e-08 -4.74302e-12)
(1.84355 1.72972e-08 -5.45526e-12)
(1.84355 2.14005e-08 -5.21393e-12)
(1.84355 2.60972e-08 -3.88327e-12)
(1.84355 2.89256e-08 -2.13258e-12)
(1.84355 3.24564e-08 -6.32917e-13)
(1.84355 3.4325e-08 4.26863e-13)
(1.84355 3.69823e-08 1.09198e-12)
(1.84355 3.79459e-08 1.46804e-12)
(1.84355 3.97708e-08 1.65069e-12)
(1.84355 4.00679e-08 1.71083e-12)
(1.84355 4.12799e-08 1.6965e-12)
(1.84355 4.09141e-08 1.6384e-12)
(1.84355 4.15369e-08 1.55524e-12)
(1.84355 4.07595e-08 1.45869e-12)
(1.84355 4.10418e-08 1.3561e-12)
(1.84355 3.98841e-08 1.25102e-12)
(1.84355 3.9862e-08 1.14179e-12)
(1.84355 3.85744e-08 1.10989e-12)
(1.84355 3.84943e-08 1.02688e-12)
(1.84355 3.71203e-08 9.53815e-13)
(1.84355 3.70587e-08 8.92725e-13)
(1.84355 3.59185e-08 7.64596e-13)
(1.84355 3.62087e-08 6.95346e-13)
(1.84355 3.54351e-08 6.26284e-13)
(1.84355 3.62391e-08 5.61637e-13)
(1.84355 3.62395e-08 4.95524e-13)
(1.84355 3.79952e-08 5.07922e-13)
(1.84355 3.90456e-08 4.69905e-13)
(1.84355 4.21128e-08 4.41167e-13)
(1.84355 4.48818e-08 4.22209e-13)
(1.84355 5.00157e-08 3.31074e-13)
(1.84355 5.51444e-08 2.96513e-13)
(1.84355 6.31195e-08 2.58413e-13)
(1.84355 7.17571e-08 2.19567e-13)
(1.84355 8.39043e-08 1.71984e-13)
(1.84355 9.74047e-08 1.98035e-13)
(1.84355 1.15389e-07 1.6777e-13)
(1.84355 1.36003e-07 1.35431e-13)
(1.84355 1.62492e-07 9.78216e-14)
(1.84355 1.93178e-07 -3.20027e-14)
(1.84355 2.31748e-07 -1.3915e-13)
(1.84355 2.77034e-07 -2.98762e-13)
(1.84355 3.33078e-07 -5.29295e-13)
(1.84355 3.9918e-07 -8.61894e-13)
(1.84355 4.80146e-07 -1.25239e-12)
(1.84355 5.76104e-07 -1.87307e-12)
(1.84355 6.92434e-07 -2.69458e-12)
(1.84355 8.29855e-07 -3.69733e-12)
(1.84355 9.94472e-07 -4.72965e-12)
(1.84355 1.18744e-06 -5.40328e-12)
(1.84355 1.41452e-06 -5.1303e-12)
(1.84355 1.6761e-06 -3.77421e-12)
(1.84355 1.97702e-06 -2.00348e-12)
(1.84355 2.31609e-06 -4.8823e-13)
(1.84355 2.69579e-06 5.83707e-13)
(1.84355 3.11174e-06 1.25768e-12)
(1.84355 3.56033e-06 1.63984e-12)
(1.84355 4.02612e-06 1.82677e-12)
(1.84354 4.48376e-06 1.89024e-12)
(1.84354 4.8792e-06 1.87813e-12)
(1.84354 5.11664e-06 1.8218e-12)
(1.84354 5.05274e-06 1.74112e-12)
(1.84354 4.5513e-06 1.64816e-12)
(1.78433 3.98211e-06 3.42243e-12)
(1.78433 2.68641e-06 3.08526e-12)
(1.78433 1.47338e-06 2.7857e-12)
(1.78433 4.48732e-07 2.51514e-12)
(1.78433 -3.93752e-07 2.26527e-12)
(1.78433 -1.06873e-06 2.02667e-12)
(1.78433 -1.59193e-06 1.78728e-12)
(1.78433 -1.98593e-06 1.52969e-12)
(1.78433 -2.27167e-06 1.22813e-12)
(1.78434 -2.47075e-06 8.41739e-13)
(1.78434 -2.59919e-06 3.05882e-13)
(1.78434 -2.67261e-06 -4.8375e-13)
(1.78434 -2.70129e-06 -1.69796e-12)
(1.78434 -2.69564e-06 -3.61691e-12)
(1.78434 -2.66165e-06 -6.70131e-12)
(1.78434 -2.60653e-06 -1.16985e-11)
(1.78434 -2.53386e-06 -1.9739e-11)
(1.78434 -2.44879e-06 -3.21291e-11)
(1.78434 -2.35324e-06 -4.82554e-11)
(1.78434 -2.25126e-06 -4.16739e-11)
(1.78434 -2.14396e-06 -1.02002e-11)
(1.78434 -2.03443e-06 1.50732e-13)
(1.78434 -1.92296e-06 -1.48123e-11)
(1.78434 -1.8122e-06 -3.8306e-11)
(1.78434 -1.70204e-06 -4.51914e-11)
(1.78434 -1.59457e-06 -1.92742e-11)
(1.78434 -1.48915e-06 5.07111e-12)
(1.78434 -1.38764e-06 1.72202e-11)
(1.78434 -1.28926e-06 2.49939e-11)
(1.78434 -1.19551e-06 2.58916e-11)
(1.78434 -1.1053e-06 2.37263e-11)
(1.78434 -1.02003e-06 2.0129e-11)
(1.78434 -9.38626e-07 1.66431e-11)
(1.78434 -8.62233e-07 1.90228e-11)
(1.78434 -7.89546e-07 3.02849e-11)
(1.78434 -7.21751e-07 4.70654e-11)
(1.78434 -6.57594e-07 4.18869e-11)
(1.78434 -5.98127e-07 8.95384e-12)
(1.78434 -5.41926e-07 -8.41157e-12)
(1.78434 -4.90111e-07 -7.5083e-12)
(1.78434 -4.41392e-07 -9.08157e-12)
(1.78434 -3.96732e-07 -5.41517e-12)
(1.78434 -3.54706e-07 8.863e-12)
(1.78434 -3.16385e-07 3.11139e-11)
(1.78434 -2.80463e-07 3.17246e-11)
(1.78434 -2.47931e-07 3.60197e-12)
(1.78434 -2.17353e-07 -9.3218e-12)
(1.78434 -1.89827e-07 -3.78669e-12)
(1.78434 -1.64085e-07 -1.26298e-12)
(1.78434 -1.41095e-07 -1.23442e-13)
(1.78434 -1.19477e-07 3.4941e-13)
(1.78434 -1.00322e-07 4.85569e-13)
(1.78434 -8.23923e-08 4.39198e-13)
(1.78434 -6.66925e-08 2.79826e-13)
(1.78434 -5.18627e-08 3.05072e-14)
(1.78434 -3.9038e-08 -3.15217e-13)
(1.78434 -2.70037e-08 -7.87814e-13)
(1.78434 -1.6777e-08 -1.44194e-12)
(1.78434 -7.02613e-09 -2.35542e-12)
(1.78434 1.12393e-09 -3.61827e-12)
(1.78434 8.8497e-09 -5.2808e-12)
(1.78434 1.51167e-08 -7.19611e-12)
(1.78434 2.12297e-08 -8.64121e-12)
(1.78434 2.60243e-08 -7.86691e-12)
(1.78434 3.06699e-08 -4.51083e-12)
(1.78434 3.41014e-08 -9.90661e-13)
(1.78434 3.76147e-08 1.11871e-12)
(1.78434 4.00321e-08 2.14373e-12)
(1.78434 4.25031e-08 2.54174e-12)
(1.78434 4.39454e-08 2.61641e-12)
(1.78434 4.56317e-08 2.53612e-12)
(1.78434 4.63623e-08 2.38829e-12)
(1.78434 4.72792e-08 2.21596e-12)
(1.78434 4.72939e-08 2.0399e-12)
(1.78434 4.769e-08 1.8691e-12)
(1.78434 4.72658e-08 1.7072e-12)
(1.78434 4.71832e-08 1.55592e-12)
(1.78434 4.6335e-08 1.4179e-12)
(1.78434 4.60154e-08 1.29891e-12)
(1.78434 4.50173e-08 1.21209e-12)
(1.78434 4.45065e-08 1.12852e-12)
(1.78434 4.33937e-08 1.04579e-12)
(1.78434 4.29973e-08 9.57993e-13)
(1.78434 4.21236e-08 8.51984e-13)
(1.78434 4.19671e-08 7.56068e-13)
(1.78434 4.14582e-08 6.70812e-13)
(1.78434 4.19331e-08 5.98935e-13)
(1.78434 4.22227e-08 5.44804e-13)
(1.78434 4.35733e-08 5.21275e-13)
(1.78434 4.49513e-08 4.98123e-13)
(1.78434 4.77843e-08 4.72233e-13)
(1.78434 5.09715e-08 4.36819e-13)
(1.78434 5.58594e-08 3.77848e-13)