/*--------------------------------*- C++ -*----------------------------------*\
| =========                 |                                                 |
| \\      /  F ield         | OpenFOAM: The Open Source CFD Toolbox           |
|  \\    /   O peration     | Version:                                        |
|   \\  /    A nd           | Website:  www.openfoam.com                      |
|    \\/     M anipulation  |                                                 |
\*---------------------------------------------------------------------------*/
FoamFile
{
    version     2.0;
    format      ascii;
    class       surfaceScalarField;
    location    "3.1";
    object      phi;
}
// * * * * * * * * * * * * * * * * * * * * * * * * * * * * * * * * * * * * * //

dimensions      [0 3 -1 0 0 0 0];
oriented        oriented;


internalField   nonuniform List<scalar> 
2194
(
0.0397016
0.0219489
0.042684
0.0270696
-0.0310682
0.0427867
0.0309655
0.0360663
-0.0313541
0.0413012
0.0328396
0.0365535
-0.0322378
0.0404778
0.0330612
-0.0335425
0.0378582
0.0355472
-0.0336209
0.0408797
0.033219
-0.0345542
0.0387915
0.0352943
-0.0347479
0.0420527
0.033575
-0.0352291
0.0392727
0.0352287
-0.0357745
0.0427271
0.0351001
-0.0357674
0.0392656
-0.0361197
0.035581
0.0326437
-0.0355099
0.0426764
0.0355605
-0.0361504
0.0399061
-0.0371459
0.0365765
0.0333479
-0.0360819
0.0367256
0.0420327
-0.0374496
0.0412738
-0.0380872
0.0372141
0.0340785
-0.0157961
0.0046245
-0.0204206
0.00914387
-0.0187733
0.0126814
-0.0154647
0.0147535
-0.00964724
-0.00289329
0.00487045
-0.0252911
0.00948813
-0.023391
0.0128816
-0.0188581
0.0146786
-0.0114442
0.014878
-0.00309272
0.00564499
0.00487872
-0.0301698
0.00934267
-0.0278549
0.0124265
-0.0219419
0.0137805
-0.0127983
0.0134374
-0.00274962
0.01163
0.00745238
0.0150549
0.00455247
-0.0347223
0.00859734
-0.0318998
0.0111655
-0.0245101
0.0119436
-0.0135764
0.0110056
-0.00181162
0.00864299
0.00981498
0.00558865
0.0181093
0.022365
0.00385643
-0.0385787
0.0072181
-0.0352614
0.0090924
-0.0263844
0.00918866
-0.0136726
0.00762814
-0.000251105
0.00499853
0.0124446
0.00180381
0.021304
-0.00182559
0.0259944
0.0256956
0.00284621
-0.0414249
0.00525557
-0.0376708
0.00625624
-0.027385
0.00555885
-0.0129752
0.00335491
0.00195284
0.000395222
0.0154043
-0.00333869
0.0250379
-0.00662054
0.0292763
-0.00990554
0.0289806
0.0288623
0.0016485
-0.0430734
0.0028115
-0.0388338
0.00266102
-0.0272345
0.00102221
-0.0113364
-0.00164408
0.00461914
-0.00514277
0.018903
-0.00846373
0.0283589
-0.0116063
0.0324189
-0.0155902
0.0329646
0.035221
0.000270065
-0.0433435
-0.000124342
-0.0384394
-0.00127497
-0.0260839
-0.00382955
-0.00878184
-0.00717257
0.00796216
-0.010872
0.0226024
-0.0140971
0.031584
-0.0171539
0.0354757
-0.0214815
0.0372921
0.0408091
-0.000976776
-0.0423667
-0.00253007
-0.0368861
-0.00513251
-0.0234815
-0.00886429
-0.00505006
-0.0126546
0.0117525
-0.0162412
0.0261889
-0.0192307
0.0345735
-0.0224202
0.0386653
-0.0270523
0.0419242
0.0447222
-0.00231931
-0.0400474
-0.00514523
-0.0340602
-0.00892436
-0.0197024
-0.0135653
-0.000409077
-0.0177349
0.015922
-0.0212256
0.0296796
-0.0242425
0.0375904
-0.0278073
0.0422301
-0.0317695
0.0458864
0.0457924
-0.00383882
-0.0362086
-0.00802626
-0.0298727
-0.0127053
-0.0150234
-0.0178655
0.00475119
-0.0221528
0.0202093
-0.0255098
0.0330366
-0.0287821
0.0408628
-0.0321912
0.0456391
-0.0343398
0.048035
0.0445138
-0.00544191
-0.0307667
-0.0109433
-0.0243713
-0.0161272
-0.00983941
-0.0214128
0.0100367
-0.0260391
0.0248356
-0.0297784
0.0367759
-0.0332898
0.0443741
-0.0354209
0.0477702
-0.0352509
0.0478651
0.0424819
-0.00765946
-0.0231072
-0.0144057
-0.0176251
-0.0203631
-0.00388202
-0.0257602
0.0154338
-0.0304987
0.0295742
-0.0339126
0.0401898
-0.0363487
0.0468102
-0.0361728
0.0475943
-0.0345947
0.0462869
0.0414622
-0.00874368
-0.0143635
-0.0165156
-0.00985312
-0.0231816
0.00278391
-0.028792
0.0210442
-0.0333293
0.0341114
-0.0358515
0.042712
-0.0368637
0.0478224
-0.0356756
0.0464062
-0.0346694
0.0452808
0.0418929
-0.00849574
-0.00586778
-0.0175026
-0.00084623
-0.0255731
0.0108544
-0.031385
0.0268561
-0.035218
0.0379444
-0.0365918
0.0440858
-0.036297
0.0475276
-0.035186
0.0452952
-0.0348656
0.0449604
0.0425878
-0.00986886
0.00400109
-0.0194231
0.00870801
-0.0268074
0.0182388
-0.031502
0.0315506
-0.0341423
0.0405847
-0.0347787
0.0447223
-0.034282
0.0470309
-0.0342491
0.0452623
-0.034904
0.0456153
0.0444094
-0.0108127
0.0148137
-0.0202926
0.018188
-0.0261417
0.0240879
-0.0272086
0.0326175
-0.0254285
0.0388047
-0.0218934
0.0411871
-0.018142
0.0432795
-0.0155118
0.0426321
-0.0127885
0.0428921
0.0425812
-0.0109603
-0.00852255
0.0233363
-0.0160741
0.0257395
-0.0213081
0.0293218
-0.0230959
0.0344054
-0.0225957
0.0383044
-0.0208218
0.0394133
-0.0182882
0.0407459
-0.0163006
0.0406444
-0.0137826
0.0403741
0.0403401
-0.0115415
-0.00664585
0.0299822
-0.0127829
0.0318766
-0.0171859
0.0337248
-0.0192109
0.0364304
-0.019492
0.0385855
-0.0189541
0.0388754
-0.0175193
0.0393111
-0.0160353
0.0391604
-0.0140668
0.0384056
0.0380609
-0.0117877
-0.00518386
0.035166
-0.0100964
0.0367891
-0.0138753
0.0375037
-0.0159781
0.0385331
-0.0168226
0.03943
-0.0170651
0.0391178
-0.0164826
0.0387286
-0.015481
0.0381588
-0.0140779
0.0370025
0.0360742
-0.0120912
-0.00405901
0.039225
-0.00788809
0.0406182
-0.0111393
0.0407549
-0.0133024
0.0406963
-0.0145883
0.0407159
-0.0153445
0.039874
-0.0153497
0.0387338
-0.0147214
0.0375305
-0.0137408
0.0360219
0.0345606
-0.0122273
-0.0031552
0.0423802
-0.00611241
0.0435754
-0.00880052
0.0434431
-0.0109114
0.0428072
-0.0123387
0.0421432
-0.013337
0.0408723
-0.0137544
0.0391512
-0.0135917
0.0373679
-0.013141
0.0355712
0.0335818
-0.0121621
-0.00249803
0.0448783
-0.0047859
0.0458633
-0.00693831
0.0455955
-0.00877368
0.0446425
-0.0101408
0.0435103
-0.0111544
0.0418859
-0.0118879
0.0398847
-0.0122797
0.0377596
-0.0124364
0.0357279
0.0331989
-0.0120535
-0.00203987
0.0469182
-0.00382449
0.0476479
-0.00552614
0.0472971
-0.00706909
0.0461855
-0.00833663
0.0447779
-0.00936996
0.0429192
-0.0103212
0.0408359
-0.0110928
0.0385313
-0.0116671
0.0363021
0.0332981
-0.0117664
-0.00163268
0.0485508
-0.00304879
0.049064
-0.00443023
0.0486785
-0.00575895
0.0475142
-0.00698514
0.0460041
-0.00813857
0.0440727
-0.00919366
0.041891
-0.0101207
0.0394584
-0.010825
0.0370064
0.0337104
-0.0112373
-0.00132395
0.0498748
-0.00247239
0.0502125
-0.00360285
0.049809
-0.00473668
0.048648
-0.00587485
0.0471422
-0.00704302
0.0452408
-0.00811507
0.0429631
-0.00903942
0.0403827
-0.0098226
0.0377896
0.0344331
-0.0105453
-0.00115122
0.051026
-0.00211216
0.0511734
-0.00302385
0.0507207
-0.00396197
0.0495862
-0.00492848
0.0481087
-0.00592483
0.0462372
-0.00686519
0.0439034
-0.0077547
0.0412722
-0.0086649
0.0386998
0.0354039
-0.00963563
-0.0010008
0.0520268
-0.00182767
0.0520003
-0.00259534
0.0514884
-0.00338992
0.0503807
-0.00419215
0.048911
-0.00497852
0.0470235
-0.00577322
0.0446981
-0.0066637
0.0421627
-0.00765988
0.039696
0.0363981
-0.00865408
-0.000822834
0.0528497
-0.00153987
0.0527173
-0.00222436
0.0521729
-0.00293066
0.051087
-0.00364251
0.0496228
-0.00433543
0.0477165
-0.00509313
0.0454558
-0.00600606
0.0430756
-0.00697529
0.0406652
0.03729
-0.00786722
-0.000667334
0.053517
-0.00127796
0.0533279
-0.00187701
0.0527719
-0.00250659
0.0517166
-0.00317397
0.0502902
-0.00387694
0.0484194
-0.00466319
0.0462421
-0.00555608
0.0439685
-0.00636074
0.0414699
0.0380842
-0.00715498
-0.000537844
0.0540549
-0.00104365
0.0538337
-0.00154485
0.0532731
-0.00209145
0.0522632
-0.00270159
0.0509003
-0.00341729
0.0491351
-0.00419993
0.0470247
-0.00499426
0.0447629
-0.00558474
0.0420603
0.0387937
-0.00629421
-0.000423464
0.0544783
-0.000838324
0.0542486
-0.00124975
0.0536845
-0.00171386
0.0527273
-0.0022386
0.0514251
-0.00290102
0.0497976
-0.00361632
0.04774
-0.00426521
0.0454117
-0.00471824
0.0425134
0.0394094
-0.00533389
-0.000342673
0.054821
-0.000689672
0.0545956
-0.00103379
0.0540287
-0.00142289
0.0531164
-0.00185872
0.0518609
-0.00239869
0.0503375
-0.00300893
0.0483503
-0.0035199
0.0459227
-0.00396492
0.0429584
0.0399605
-0.00451606
-0.000297259
0.0551183
-0.000596508
0.0548948
-0.000899226
0.0543314
-0.00122247
0.0534397
-0.00158931
0.0522277
-0.00198595
0.0507342
-0.00248942
0.0488537
-0.00291315
0.0463465
-0.00342192
0.0434672
0.0405075
-0.00396892
-0.000265668
0.0553839
-0.000523654
0.0551528
-0.000801733
0.0546095
-0.0010666
0.0537045
-0.00138829
0.0525494
-0.00167457
0.0510204
-0.00209025
0.0492694
-0.00248697
0.0467432
-0.00304355
0.0440237
0.0411055
-0.00364153
-0.000230865
-0.000443782
-0.0006977
-0.000911521
-0.00120157
-0.00142934
-0.00177542
0.0496155
-0.00217897
0.0471467
-0.00272953
0.0445743
0.0417682
-0.00339226
-0.00149779
-0.0019082
-0.00240637
-0.00309753
-0.0086447
0.0576968
-0.0600124
-0.00693364
0.0608936
-0.0626047
-0.00578229
0.0644643
-0.0656156
-0.00468088
0.0682279
-0.0693293
-0.00367898
0.0719123
-0.0729142
-0.00300295
0.0759924
-0.0766684
-0.00252832
0.0802612
-0.0807358
-0.00206005
0.0849067
-0.0853749
-0.00165297
0.0897059
-0.090113
-0.0013836
0.0950093
-0.0952787
-0.00114469
0.100748
-0.100986
-0.000904514
0.10685
-0.10709
-0.000754381
0.113428
-0.113578
-0.000632483
0.120575
-0.120696
-0.000506087
0.128179
-0.128305
-0.000420628
0.136376
-0.136461
-0.000348481
0.145204
-0.145277
-0.000282469
0.154665
-0.154731
-0.000232773
0.16483
-0.164879
-0.000191198
0.175741
-0.175783
-0.000155838
0.187445
-0.187481
-0.000126915
0.2
-0.200029
-0.000102929
0.213462
-0.213486
-8.31884e-05
0.227893
-0.227913
-6.69638e-05
0.243365
-0.243381
-5.4834e-05
0.259948
-0.25996
-4.24985e-05
0.277728
-0.27774
-3.19809e-05
0.296832
-0.296843
-1.67656e-05
0.317266
-0.317281
0.339312
-0.339329
-0.009768
0.0559233
-0.00817917
0.0593048
-0.00683109
0.0631162
-0.00553908
0.0669359
-0.00454229
0.0709155
-0.00372579
0.0751759
-0.00308819
0.0796236
-0.00249731
0.0843158
-0.00204698
0.0892556
-0.00171026
0.0946726
-0.00139749
0.100435
-0.00113226
0.106584
-0.000951094
0.113247
-0.000772507
0.120396
-0.000625557
0.128032
-0.000518975
0.136269
-0.000422921
0.145108
-0.000344317
0.154587
-0.000282568
0.164768
-0.000230531
0.175689
-0.000187692
0.187402
-0.000152414
0.199965
-0.000123182
0.213433
-9.92388e-05
0.227869
-7.95638e-05
0.243345
-6.50392e-05
0.259933
-5.04593e-05
0.277713
-3.88265e-05
0.29682
-2.01189e-05
0.317248
0.339292
-0.0103556
0.0544913
-0.00903784
0.057987
-0.00769129
0.0617696
-0.00641244
0.065657
-0.0053842
0.0698873
-0.0044463
0.074238
-0.00367366
0.0788509
-0.00300085
0.083643
-0.00249656
0.0887513
-0.00206772
0.0942438
-0.00168826
0.100055
-0.00138868
0.106285
-0.00115131
0.113009
-0.000932461
0.120177
-0.00076327
0.127863
-0.000628852
0.136135
-0.000512194
0.144992
-0.000419161
0.154494
-0.000343296
0.164692
-0.000280013
0.175626
-0.00022832
0.187351
-0.000185564
0.199922
-0.000150248
0.213397
-0.00012137
0.22784
-9.75034e-05
0.243321
-7.9596e-05
0.259915
-6.17964e-05
0.277695
-4.72557e-05
0.296806
-2.21744e-05
0.317222
0.33927
-0.0107243
0.0531244
-0.00948145
0.0567441
-0.00821156
0.0604998
-0.00707995
0.0645254
-0.00604244
0.0688498
-0.00505516
0.0732507
-0.00422395
0.0780197
-0.00350068
0.0829197
-0.00292105
0.0881716
-0.00242158
0.0937443
-0.00198805
0.0996217
-0.00165227
0.105949
-0.00135989
0.112717
-0.00111074
0.119928
-0.000916252
0.127668
-0.000751831
0.13597
-0.000614712
0.144855
-0.000504452
0.154383
-0.0004126
0.1646
-0.000336589
0.17555
-0.000274184
0.187288
-0.000222432
0.19987
-0.000179671
0.213355
-0.00014459
0.227805
-0.000115412
0.243292
-9.29581e-05
0.259893
-7.14887e-05
0.277674
-5.24835e-05
0.296787
-1.95623e-05
0.31719
0.33925
-0.0109851
0.0518822
-0.00973043
0.0554895
-0.00851105
0.0592804
-0.00753316
0.0635475
-0.00647308
0.0677897
-0.00553604
0.0723136
-0.00470044
0.0771841
-0.0039424
0.0821617
-0.003317
0.0875462
-0.0027593
0.0931866
-0.00229249
0.0991549
-0.00191122
0.105568
-0.00157415
0.11238
-0.00129833
0.119652
-0.00107312
0.127443
-0.000880932
0.135778
-0.000722635
0.144696
-0.000593061
0.154254
-0.000484778
0.164492
-0.000395414
0.17546
-0.00032165
0.187214
-0.000260505
0.199809
-0.00020999
0.213304
-0.000168506
0.227764
-0.000133958
0.243258
-0.000106808
0.259866
-8.17601e-05
0.277649
-5.83232e-05
0.296763
-1.78784e-05
0.317149
0.339233
-0.0110251
0.0507452
-0.00985166
0.054316
-0.00868088
0.0581096
-0.00776923
0.0626359
-0.00674707
0.0667676
-0.00588926
0.0714558
-0.00506799
0.0763628
-0.00430814
0.0814018
-0.00366825
0.0869063
-0.00307196
0.0925903
-0.00258854
0.0986715
-0.00216142
0.105141
-0.00179461
0.112013
-0.00149128
0.119349
-0.00123489
0.127187
-0.00101822
0.135562
-0.000838576
0.144517
-0.0006892
0.154104
-0.00056454
0.164367
-0.000461397
0.175357
-0.000375857
0.187129
-0.000304871
0.199738
-0.000246044
0.213245
-0.000197483
0.227715
-0.000156748
0.243217
-0.000123645
0.259833
-9.37758e-05
0.277619
-6.48616e-05
0.296735
-2.05062e-05
0.317105
0.339212
-0.0109815
0.0496732
-0.00985342
0.0531879
-0.00876974
0.0570259
-0.007912
0.0617781
-0.00693089
0.0657864
-0.00616666
0.0706916
-0.005334
0.0755302
-0.00462536
0.0806932
-0.00396135
0.0862423
-0.00336176
0.0919907
-0.00285615
0.0981659
-0.0023968
0.104681
-0.00201071
0.111627
-0.00167753
0.119016
-0.00139422
0.126903
-0.00115489
0.135322
-0.000954102
0.144316
-0.00078561
0.153936
-0.000644727
0.164226
-0.000527469
0.17524
-0.000429743
0.187031
-0.000348322
0.199657
-0.000280458
0.213177
-0.000224007
0.227659
-0.000176326
0.243169
-0.000136491
0.259793
-0.00010157
0.277584
-6.76243e-05
0.296701
-2.39097e-05
0.317061
0.339188
-0.0108464
0.0487533
-0.00973575
0.0520772
-0.00880915
0.0560993
-0.00800971
0.0609787
-0.00705819
0.0648349
-0.00635553
0.0699889
-0.0055289
0.0747035
-0.00487654
0.0800408
-0.00419243
0.0855582
-0.00361394
0.0914122
-0.00307768
0.0976296
-0.00260923
0.104213
-0.00220322
0.111221
-0.00184601
0.118658
-0.00154292
0.1266
-0.00128321
0.135063
-0.00106364
0.144096
-0.00087838
0.153751
-0.000722715
0.164071
-0.000592367
0.17511
-0.000483266
0.186922
-0.000392017
0.199565
-0.000315635
0.213101
-0.000251756
0.227595
-0.000197669
0.243115
-0.000151635
0.259747
-0.000112152
0.277545
-7.31451e-05
0.296662
-3.50162e-05
0.317023
0.339153
-0.01045
0.047966
-0.00954044
0.0511677
-0.00881487
0.0553738
-0.00797109
0.0601349
-0.00716643
0.0640303
-0.006421
0.0692435
-0.00567483
0.0739574
-0.00501887
0.0793849
-0.0043674
0.0849068
-0.00380003
0.0908449
-0.00325797
0.0970876
-0.00279484
0.10375
-0.00237086
0.110797
-0.00200264
0.11829
-0.00168519
0.126283
-0.00140917
0.134787
-0.00117411
0.143861
-0.000974217
0.153551
-0.000805054
0.163902
-0.000662432
0.174967
-0.000542375
0.186802
-0.000441411
0.199464
-0.000356402
0.213016
-0.000284758
0.227523
-0.000223775
0.243054
-0.00017104
0.259694
-0.000126581
0.2775
-8.25741e-05
0.296618
-5.64581e-05
0.316997
0.339097
-0.00986286
0.0472835
-0.00923718
0.050542
-0.00869176
0.0548283
-0.00781892
0.0592621
-0.00722171
0.0634331
-0.00643046
0.0684523
-0.00578378
0.0733107
-0.0051022
0.0787033
-0.00450702
0.0843116
-0.00392901
0.0902669
-0.00341261
0.0965712
-0.00294786
0.103285
-0.00251685
0.110366
-0.00214599
0.117919
-0.00181659
0.125953
-0.00152833
0.134498
-0.00128014
0.143613
-0.0010668
0.153338
-0.000884773
0.16372
-0.000730112
0.174812
-0.000599011
0.186671
-0.00048804
0.199353
-0.000394026
0.212922
-0.000314264
0.227443
-0.000246217
0.242986
-0.000187148
0.259635
-0.000138932
0.277452
-8.9824e-05
0.296568
-7.98294e-05
0.316987
0.339017
-0.00917408
0.046822
-0.00871874
0.0500867
-0.00827165
0.0543813
-0.00759294
0.0585834
-0.0070592
0.0628993
-0.00638305
0.0677761
-0.00578612
0.0727137
-0.00516061
0.0780778
-0.00459884
0.0837498
-0.00403049
0.0896985
-0.00354221
0.0960829
-0.00307016
0.102813
-0.00264622
0.109942
-0.00227323
0.117546
-0.00193519
0.125615
-0.00163863
0.134202
-0.00138002
0.143354
-0.00115532
0.153113
-0.000962049
0.163526
-0.00079665
0.174647
-0.000655621
0.18653
-0.000535698
0.199233
-0.000433817
0.21282
-0.000347264
0.227357
-0.000273705
0.242913
-0.000209873
0.259571
-0.000158954
0.277401
-0.000103567
0.296513
-0.000100628
0.316984
0.338916
-0.00840282
0.0465707
-0.00804592
0.0497298
-0.00763385
0.0539692
-0.00723293
0.0581824
-0.00668988
0.0623563
-0.00620573
0.067292
-0.00563766
0.0721457
-0.00513752
0.0775776
-0.00459716
0.0832095
-0.00409606
0.0891974
-0.00362909
0.0956159
-0.00316727
0.102351
-0.00276175
0.109536
-0.00238856
0.117173
-0.00204857
0.125275
-0.00174782
0.133901
-0.00148183
0.143088
-0.00124856
0.15288
-0.00104592
0.163324
-0.000871095
0.174472
-0.000721066
0.18638
-0.000592831
0.199105
-0.000483486
0.212711
-0.000390295
0.227264
-0.000310985
0.242833
-0.000241416
0.259502
-0.000185475
0.277345
-0.000122007
0.29645
-0.000117271
0.316979
0.338799
-0.0076248
0.0463283
-0.00741968
0.0495246
-0.00709202
0.0536415
-0.00675642
0.0578468
-0.00632609
0.0619259
-0.00592288
0.0668888
-0.00543962
0.0716624
-0.00502305
0.0771611
-0.00452772
0.0827141
-0.0041063
0.088776
-0.00366092
0.0951706
-0.003237
0.101927
-0.00285249
0.109152
-0.00248553
0.116806
-0.00215037
0.12494
-0.0018487
0.133599
-0.0015781
0.142818
-0.0013382
0.15264
-0.0011274
0.163113
-0.000943548
0.174288
-0.000784297
0.186221
-0.000646979
0.198968
-0.000528874
0.212593
-0.000427243
0.227162
-0.000339912
0.242746
-0.000262311
0.259424
-0.000198976
0.277282
-0.0001289
0.29638
-0.000123206
0.316973
0.338676
-0.00685595
0.0460293
-0.00681718
0.0494859
-0.00666502
0.0534894
-0.00624256
0.0574244
-0.00602745
0.0617108
-0.00559755
0.0664589
-0.00526048
0.0713253
-0.0048586
0.0767592
-0.00444638
0.0823019
-0.00407031
0.0883999
-0.00365288
0.0947531
-0.00327555
0.10155
-0.00290902
0.108785
-0.0025556
0.116453
-0.00222972
0.124614
-0.00193046
0.1333
-0.00165845
0.142546
-0.00141432
0.152396
-0.00119722
0.162896
-0.00100571
0.174097
-0.000838051
0.186053
-0.000692034
0.198822
-0.000565228
0.212466
-0.000455028
0.227052
-0.000359479
0.24265
-0.00027424
0.259339
-0.000203665
0.277211
-0.000129902
0.296306
-0.000115342
0.316959
0.33856
-0.00610403
0.0458391
-0.00613048
0.0495123
-0.00610312
0.053462
-0.00572609
0.0570473
-0.00565312
0.0616379
-0.00525249
0.0660582
-0.00504554
0.0711184
-0.00466078
0.0763744
-0.00435026
0.0819914
-0.00399608
0.0880457
-0.00362721
0.0943842
-0.0032872
0.10121
-0.00293942
0.108438
-0.00260544
0.116119
-0.00229206
0.124301
-0.00199924
0.133007
-0.00172964
0.142276
-0.00148451
0.15215
-0.00126395
0.162675
-0.00106733
0.1739
-0.00089343
0.185879
-0.000740617
0.198669
-0.000606869
0.212332
-0.000489823
0.226935
-0.000387668
0.242548
-0.000296434
0.259248
-0.000218438
0.277133
-0.000141107
0.296228
-9.54935e-05
0.316913
0.338465
-0.0054398
0.045945
-0.00545752
0.04953
-0.00538318
0.0533877
-0.00525154
0.0569157
-0.00515894
0.0615453
-0.0049151
0.0658144
-0.00475928
0.0709626
-0.00444783
0.076063
-0.00421595
0.0817595
-0.00389006
0.0877199
-0.0035852
0.0940794
-0.00327493
0.1009
-0.0029521
0.108115
-0.00264125
0.115808
-0.00234302
0.124003
-0.00206013
0.132724
-0.00179601
0.142012
-0.00155262
0.151907
-0.00133098
0.162454
-0.00113124
0.173701
-0.000952802
0.185701
-0.000794548
0.198511
-0.000654951
0.212192
-0.000531938
0.226812
-0.000423709
0.24244
-0.000326713
0.259151
-0.000240066
0.277047
-0.000158319
0.296147
-6.56646e-05
0.316821
0.338399
-0.00488704
0.046316
-0.00492101
0.049564
-0.00472872
0.0531954
-0.00485677
0.0570438
-0.00466405
0.0613525
-0.00461494
0.0657653
-0.00443969
0.0707873
-0.00424162
0.0758649
-0.00404513
0.081563
-0.00376823
0.087443
-0.0035176
0.0938287
-0.00323466
0.100617
-0.00294289
0.107823
-0.00265688
0.115522
-0.00237635
0.123722
-0.00210604
0.132454
-0.00184976
0.141756
-0.00161029
0.151668
-0.00138943
0.162233
-0.00118804
0.173499
-0.00100615
0.185519
-0.000843182
0.198348
-0.000698058
0.212047
-0.0005691
0.226683
-0.000454542
0.242325
-0.000351499
0.259047
-0.000256101
0.276951
-0.000170523
0.296061
-3.69589e-05
0.316687
0.338362
-0.00437606
0.0467231
-0.00446511
0.0496531
-0.00425591
0.0529862
-0.00449006
0.0572779
-0.00425905
0.0611215
-0.00432726
0.0658335
-0.00412924
0.0705893
-0.00403417
0.0757698
-0.00384393
0.0813728
-0.00362948
0.0872285
-0.00341794
0.0936172
-0.00316419
0.100363
-0.00290589
0.107565
-0.00264657
0.115263
-0.00238675
0.123462
-0.00213185
0.132199
-0.00188618
0.14151
-0.00165332
0.151435
-0.00143566
0.162015
-0.00123466
0.173298
-0.00105098
0.185335
-0.000884584
0.198181
-0.00073486
0.211898
-0.000600582
0.226548
-0.000480128
0.242205
-0.000371403
0.258939
-0.000268499
0.276848
-0.000179189
0.295972
-2.57937e-05
0.316534
0.338337
-0.00387473
0.0469563
-0.00399764
0.049776
-0.00389327
0.0528818
-0.00408108
0.0574657
-0.00392038
0.0609608
-0.00400774
0.0659208
-0.00383377
0.0704154
-0.00379828
0.0757343
-0.00361939
0.0811939
-0.00346861
0.0870777
-0.00328593
0.0934345
-0.0030654
0.100142
-0.00284315
0.107342
-0.00261254
0.115032
-0.00237599
0.123226
-0.00213939
0.131963
-0.00190759
0.141278
-0.00168449
0.151212
-0.00147288
0.161803
-0.0012748
0.1731
-0.00109151
0.185152
-0.000923538
0.198014
-0.000770733
0.211745
-0.000632322
0.22641
-0.000506917
0.24208
-0.000393094
0.258825
-0.000284061
0.276739
-0.000189809
0.295878
-3.76003e-05
0.316381
0.338299
-0.00341157
0.0469757
-0.00351781
0.0498822
-0.00355401
0.052918
-0.00363623
0.0575479
-0.00359987
0.0609245
-0.00365275
0.0659737
-0.00354587
0.0703085
-0.00353236
0.0757208
-0.00338706
0.0810486
-0.00328678
0.0869774
-0.00312599
0.0932737
-0.00294713
0.0999635
-0.0027608
0.107156
-0.00255924
0.11483
-0.00234734
0.123014
-0.00213119
0.131746
-0.0019158
0.141063
-0.00170502
0.151001
-0.00150193
0.1616
-0.00130902
0.172907
-0.00112812
0.184971
-0.000960253
0.197846
-0.000805769
0.21159
-0.000664327
0.226269
-0.000534834
0.24195
-0.000416365
0.258706
-0.000302381
0.276625
-0.000202153
0.295777
-6.31665e-05
0.316242
0.338236
-0.00300473
0.0468829
-0.00307393
0.0499514
-0.00320948
-0.00321027
-0.00328038
-0.0032941
-0.00326402
-0.00325336
-0.00315491
-0.00308847
-0.00295478
-0.00281511
-0.00266308
-0.00248972
-0.00230262
-0.0021081
-0.00191077
-0.0017141
-0.00152131
-0.00133533
-0.00115843
-0.000992106
-0.00083714
-0.000693641
-0.000560856
-0.000438245
-0.000320352
-0.000214012
-8.99837e-05
-0.00264263
0.0284993
0.0580204
0.0273742
0.0605305
0.0266209
0.0630568
0.0260174
0.0660527
0.0253922
0.0698248
0.0248288
0.073782
0.0243753
0.0774828
0.0237183
0.0819316
0.022963
0.0868387
0.0919789
0.0333385
0.0587604
0.032872
0.060997
0.0323009
0.0636278
0.0313363
0.0670173
0.0303822
0.0707789
0.0296399
0.0745243
0.0289435
0.0781791
0.0280259
0.0828492
0.0271655
0.0876991
0.0264355
0.0927089
0.0256125
0.0981815
0.0247224
0.104312
0.0239069
0.110657
0.0230237
0.117513
0.0220698
0.125035
0.0211255
0.132964
0.0201109
0.141529
0.019039
0.150782
0.0179261
0.160671
0.0167436
0.171303
0.0154902
0.182723
0.0141635
0.194965
0.0127556
0.208093
0.011261
0.222168
0.00967211
0.237261
0.00798141
0.253441
0.00617969
0.270807
0.00425508
0.289426
0.00220786
0.309427
0.330954
0.0360011
0.0599734
0.0353173
0.0616808
0.0348338
0.0641114
0.034059
0.0677922
0.0333599
0.071478
0.0328182
0.075066
0.0321781
0.0788193
0.0313862
0.0836411
0.0306681
0.0884172
0.02991
0.093467
0.0290071
0.0990844
0.0281059
0.105214
0.0272327
0.11153
0.026244
0.118502
0.0252174
0.126062
0.0241593
0.134023
0.0230127
0.142676
0.0218091
0.151985
0.0205398
0.161941
0.0191883
0.172655
0.0177559
0.184156
0.0162349
0.196486
0.0146167
0.209711
0.0128952
0.22389
0.011064
0.239092
0.0091191
0.255386
0.00705472
0.272871
0.00485124
0.29163
0.00251186
0.311767
0.333466
0.0409153
0.0603319
0.0404841
0.062112
0.0396682
0.0649272
0.0385655
0.0688949
0.0376914
0.0723521
0.0368593
0.0758981
0.035862
0.0798165
0.0349601
0.084543
0.0341433
0.089234
0.0332392
0.0943711
0.0322602
0.100063
0.0313371
0.106137
0.030354
0.112514
0.0292612
0.119594
0.028157
0.127166
0.0269802
0.135199
0.0257149
0.143941
0.0243878
0.153312
0.0229745
0.163354
0.0214714
0.174158
0.019877
0.18575
0.0181807
0.198182
0.0163749
0.211517
0.0144524
0.225812
0.0124041
0.24114
0.0102218
0.257568
0.00790099
0.275192
0.00542103
0.29411
0.00279837
0.314389
0.336264
0.0423522
0.0418595
0.0411711
0.0407367
0.0401746
0.0394043
0.038485
0.0376531
0.0367742
0.0358666
0.0349435
0.0339904
0.0329262
0.0318241
0.0306847
0.0294227
0.0280872
0.0266683
0.0251427
0.023518
0.0217874
0.0199407
0.0179714
0.0158711
0.01363
0.0112381
0.00868988
0.0059571
0.00306512
)
;

boundaryField
{
    outlet
    {
        type            calculated;
        value           nonuniform 0();
    }
    upperWall
    {
        type            symmetryPlane;
        value           nonuniform 0();
    }
    lowerWall
    {
        type            symmetryPlane;
        value           uniform 0;
    }
    inlet
    {
        type            calculated;
        value           nonuniform 0();
    }
    cylinder
    {
        type            calculated;
        value           nonuniform 0();
    }
    frontAndBack
    {
        type            empty;
        value           nonuniform 0();
    }
    procBoundary2to1
    {
        type            processor;
        value           nonuniform List<scalar> 
63
(
-0.034191
-0.0158204
-0.0274596
-0.0300519
-0.0368488
-0.0302857
-0.0318414
-0.03545
-0.0336397
-0.0343014
-0.0351635
-0.031728
-0.0370354
-0.0378501
-0.0388178
-0.0297938
0.0114918
0.00430429
0.0142539
0.0119272
0.00757514
0.00232276
0.015324
-0.00431114
0.0135442
-0.0122526
0.00882766
-0.0191191
0.00234268
-0.0225369
-0.00498436
-0.0229474
-0.0567259
-0.0594054
-0.0623035
-0.0654492
-0.0691995
-0.0732186
-0.0770292
-0.0812746
-0.0860835
-0.0913778
0.022362
-0.0973584
-0.103422
-0.109842
-0.11663
-0.124081
-0.13202
-0.140515
-0.14971
-0.159558
-0.170121
-0.18147
-0.193638
-0.206685
-0.220674
-0.235672
-0.25175
-0.269005
-0.287502
-0.30738
-0.328746
)
;
    }
    procBoundary2to3
    {
        type            processor;
        value           nonuniform List<scalar> 
43
(
0.0556148
0.0553657
0.0548634
0.0539184
0.0528395
0.0512482
0.00121336
0.0498999
0.0475571
0.0450725
0.0424594
0.00272863
0.0530536
0.0575487
0.0609946
0.0659874
0.0702784
0.0757102
0.0809501
0.086911
0.09314
0.0998238
0.107004
0.114657
0.122827
0.131552
0.140866
0.150804
0.161408
0.172721
0.184794
0.197679
0.211435
0.226125
0.241817
0.258584
0.276507
0.295671
0.316118
0.338146
0.0467968
-0.00269036
0.0499991
)
;
    }
    procBoundary2to6
    {
        type            processor;
        value           nonuniform List<scalar> 
37
(
3.30355e-09
3.04128e-09
2.92543e-09
2.77635e-09
2.51904e-09
2.05811e-09
1.45549e-09
7.65667e-10
6.56638e-12
-6.13417e-10
-1.16743e-09
-1.59532e-09
-2.05716e-09
-2.70263e-09
-3.01903e-09
-3.59256e-09
-4.11726e-09
-5.36985e-09
-4.54823e-09
-3.76593e-09
-3.94328e-09
-5.13021e-09
-5.93191e-09
-6.87541e-09
-6.05168e-09
-4.77013e-09
-3.30367e-09
-2.62497e-09
-2.83463e-09
-3.10191e-09
-3.69148e-09
-3.34322e-09
-3.003e-09
-2.00429e-09
-1.12568e-09
3.27365e-10
1.46841e-09
)
;
    }
}


// ************************************************************************* //
