/*--------------------------------*- C++ -*----------------------------------*\
| =========                 |                                                 |
| \\      /  F ield         | OpenFOAM: The Open Source CFD Toolbox           |
|  \\    /   O peration     | Version:                                        |
|   \\  /    A nd           | Website:  www.openfoam.com                      |
|    \\/     M anipulation  |                                                 |
\*---------------------------------------------------------------------------*/
FoamFile
{
    version     2.0;
    format      ascii;
    class       volScalarField;
    location    "563";
    object      p;
}
// * * * * * * * * * * * * * * * * * * * * * * * * * * * * * * * * * * * * * //

dimensions      [0 2 -2 0 0 0 0];


internalField   nonuniform List<scalar> 
1250
(
1.14699
1.14582
1.14324
1.13942
1.13455
1.1288
1.12234
1.11535
1.10798
1.10037
1.09264
1.08488
1.07717
1.06957
1.06212
1.05485
1.04778
1.04092
1.03427
1.02783
1.02159
1.01553
1.00966
1.00396
0.998423
0.993032
0.987781
0.98266
0.977661
0.972774
0.967994
0.963313
0.958724
0.954223
0.949804
0.945462
0.941193
0.936993
0.932858
0.928784
0.924769
0.920809
0.916902
0.913046
0.909237
0.905474
0.901755
0.898077
0.89444
0.890841
0.887279
0.883752
0.880259
0.876799
0.873371
0.869973
0.866605
0.863265
0.859953
0.856667
0.853408
0.850173
0.846962
0.843775
0.840611
0.83747
0.83435
0.831251
0.828172
0.825114
0.822075
0.819055
0.816054
0.81307
0.810105
0.807156
0.804225
0.80131
0.798412
0.795529
0.792661
0.789809
0.786972
0.784149
0.781341
0.778546
0.775765
0.772998
0.770244
0.767502
0.764774
0.762058
0.759354
0.756663
0.753983
0.751315
0.748658
0.746013
0.743378
0.740755
0.738142
0.735539
0.732948
0.730366
0.727794
0.725232
0.72268
0.720138
0.717605
0.715081
0.712567
0.710061
0.707564
0.705077
0.702597
0.700127
0.697665
0.695211
0.692765
0.690327
0.687898
0.685476
0.683062
0.680655
0.678256
1.15526
1.15386
1.15076
1.14623
1.14051
1.13384
1.12646
1.11857
1.11035
1.10197
1.09356
1.08521
1.07701
1.069
1.06123
1.05372
1.04647
1.03949
1.03275
1.02627
1.02001
1.01396
1.00812
1.00246
0.996961
0.991622
0.986426
0.981361
0.976419
0.971589
0.966864
0.962236
0.957699
0.953247
0.948874
0.944577
0.94035
0.936189
0.932091
0.928053
0.924071
0.920142
0.916264
0.912435
0.908652
0.904913
0.901217
0.897561
0.893944
0.890363
0.886819
0.883309
0.879832
0.876387
0.872973
0.869589
0.866233
0.862905
0.859604
0.856329
0.853079
0.849854
0.846653
0.843475
0.840319
0.837185
0.834072
0.830981
0.827909
0.824857
0.821825
0.818811
0.815815
0.812838
0.809877
0.806934
0.804008
0.801098
0.798204
0.795325
0.792462
0.789614
0.786781
0.783962
0.781157
0.778366
0.775589
0.772825
0.770074
0.767336
0.764611
0.761898
0.759197
0.756509
0.753832
0.751166
0.748512
0.745869
0.743237
0.740616
0.738006
0.735406
0.732816
0.730237
0.727667
0.725107
0.722557
0.720017
0.717486
0.714964
0.712452
0.709948
0.707453
0.704967
0.70249
0.700021
0.69756
0.695108
0.692664
0.690227
0.687799
0.685379
0.682966
0.680561
0.678164
1.16527
1.16354
1.15971
1.15417
1.14731
1.13947
1.13092
1.12192
1.11268
1.10339
1.09419
1.08518
1.07644
1.06801
1.05991
1.05216
1.04475
1.03766
1.03088
1.02438
1.01813
1.01212
1.00633
1.00073
0.995298
0.99003
0.984905
0.979912
0.97504
0.970278
0.965618
0.961052
0.956574
0.952178
0.947859
0.943611
0.939431
0.935314
0.931258
0.927258
0.923313
0.919419
0.915573
0.911774
0.90802
0.904307
0.900636
0.897003
0.893408
0.889849
0.886324
0.882832
0.879373
0.875944
0.872545
0.869176
0.865834
0.862519
0.85923
0.855967
0.852728
0.849514
0.846323
0.843154
0.840008
0.836882
0.833778
0.830694
0.82763
0.824586
0.82156
0.818553
0.815564
0.812593
0.809638
0.806701
0.80378
0.800875
0.797986
0.795113
0.792255
0.789411
0.786582
0.783768
0.780967
0.77818
0.775407
0.772647
0.7699
0.767165
0.764443
0.761734
0.759036
0.756351
0.753677
0.751014
0.748363
0.745723
0.743094
0.740476
0.737868
0.735271
0.732683
0.730106
0.727539
0.724982
0.722434
0.719896
0.717367
0.714847
0.712337
0.709835
0.707342
0.704858
0.702382
0.699915
0.697456
0.695006
0.692563
0.690129
0.687702
0.685283
0.682872
0.680469
0.678073
1.17752
1.17529
1.17038
1.16341
1.15503
1.14565
1.13562
1.12524
1.11477
1.10442
1.09433
1.0846
1.07529
1.06643
1.05802
1.05007
1.04253
1.03539
1.02859
1.02212
1.01593
1.00999
1.00428
0.998769
0.993434
0.988258
0.983224
0.978319
0.97353
0.968848
0.964263
0.959769
0.955359
0.951026
0.946766
0.942574
0.938446
0.934378
0.930368
0.926411
0.922506
0.918649
0.914839
0.911073
0.90735
0.903667
0.900023
0.896416
0.892844
0.889308
0.885804
0.882333
0.878892
0.875482
0.8721
0.868746
0.865419
0.862118
0.858843
0.855593
0.852367
0.849164
0.845983
0.842825
0.839689
0.836573
0.833478
0.830403
0.827347
0.824311
0.821293
0.818293
0.815311
0.812346
0.809398
0.806467
0.803552
0.800653
0.79777
0.794902
0.792049
0.78921
0.786386
0.783576
0.78078
0.777997
0.775228
0.772472
0.769729
0.766998
0.76428
0.761574
0.75888
0.756198
0.753527
0.750868
0.74822
0.745583
0.742956
0.740341
0.737736
0.735141
0.732556
0.729982
0.727417
0.724862
0.722317
0.719781
0.717254
0.714736
0.712228
0.709728
0.707237
0.704755
0.702281
0.699816
0.697359
0.69491
0.692469
0.690037
0.687612
0.685194
0.682785
0.680383
0.677988
1.19278
1.18974
1.18312
1.1741
1.16366
1.15231
1.14041
1.12834
1.11641
1.10483
1.09374
1.08323
1.07333
1.06406
1.05539
1.04728
1.03968
1.03254
1.0258
1.01942
1.01334
1.00753
1.00194
0.996562
0.991353
0.986299
0.98138
0.976584
0.971897
0.96731
0.962815
0.958404
0.95407
0.949809
0.945616
0.941486
0.937417
0.933403
0.929443
0.925534
0.921673
0.917858
0.914086
0.910356
0.906666
0.903015
0.8994
0.895821
0.892276
0.888764
0.885283
0.881834
0.878413
0.875022
0.871658
0.868321
0.86501
0.861725
0.858464
0.855227
0.852014
0.848823
0.845654
0.842507
0.839381
0.836276
0.83319
0.830124
0.827077
0.824049
0.821038
0.818046
0.815071
0.812113
0.809172
0.806247
0.803339
0.800445
0.797568
0.794705
0.791857
0.789023
0.786204
0.783399
0.780607
0.777829
0.775064
0.772312
0.769573
0.766846
0.764131
0.761429
0.758738
0.756059
0.753391
0.750735
0.74809
0.745456
0.742832
0.740219
0.737617
0.735025
0.732443
0.72987
0.727308
0.724755
0.722212
0.719678
0.717154
0.714638
0.712131
0.709634
0.707145
0.704664
0.702192
0.699728
0.697273
0.694826
0.692387
0.689955
0.687532
0.685116
0.682708
0.680307
0.677914
1.2123
1.20788
1.19834
1.18621
1.17301
1.15912
1.14491
1.13082
1.11721
1.10428
1.09213
1.08084
1.0704
1.06079
1.05194
1.04377
1.03621
1.02916
1.02257
1.01634
1.01044
1.00481
0.999399
0.994184
0.989135
0.984229
0.979449
0.97478
0.970212
0.965735
0.96134
0.957022
0.952774
0.948593
0.944473
0.940411
0.936405
0.932449
0.928544
0.924684
0.92087
0.917098
0.913367
0.909674
0.90602
0.902401
0.898816
0.895266
0.891747
0.88826
0.884802
0.881374
0.877974
0.874601
0.871255
0.867935
0.86464
0.86137
0.858123
0.854899
0.851698
0.848519
0.845362
0.842225
0.839109
0.836013
0.832937
0.829879
0.82684
0.823819
0.820817
0.817831
0.814863
0.811912
0.808977
0.806058
0.803154
0.800267
0.797394
0.794536
0.791693
0.788864
0.786049
0.783248
0.78046
0.777686
0.774924
0.772176
0.76944
0.766716
0.764005
0.761306
0.758618
0.755942
0.753277
0.750623
0.747981
0.745349
0.742728
0.740118
0.737517
0.734927
0.732347
0.729777
0.727217
0.724666
0.722125
0.719593
0.71707
0.714556
0.712051
0.709555
0.707067
0.704588
0.702118
0.699656
0.697202
0.694756
0.692318
0.689888
0.687466
0.685051
0.682644
0.680245
0.677853
1.23803
1.23102
1.21667
1.20006
1.18306
1.16576
1.14856
1.132
1.11641
1.10195
1.0887
1.07666
1.0658
1.05601
1.04717
1.03915
1.03182
1.02506
1.01877
1.01285
1.00724
1.00188
0.996727
0.99174
0.986896
0.982174
0.977559
0.973039
0.968604
0.964246
0.95996
0.955741
0.951583
0.947484
0.943439
0.939447
0.935503
0.931606
0.927753
0.923943
0.920173
0.916443
0.91275
0.909093
0.905471
0.901882
0.898325
0.8948
0.891305
0.88784
0.884403
0.880994
0.877612
0.874256
0.870925
0.86762
0.864338
0.86108
0.857845
0.854633
0.851442
0.848273
0.845125
0.841997
0.83889
0.835801
0.832732
0.829682
0.826649
0.823635
0.820638
0.817659
0.814696
0.81175
0.808819
0.805905
0.803006
0.800123
0.797254
0.7944
0.791561
0.788736
0.785924
0.783126
0.780342
0.777571
0.774812
0.772066
0.769333
0.766612
0.763903
0.761206
0.758521
0.755847
0.753185
0.750533
0.747893
0.745263
0.742644
0.740035
0.737437
0.734848
0.73227
0.729702
0.727143
0.724593
0.722054
0.719523
0.717001
0.714489
0.711985
0.70949
0.707004
0.704526
0.702057
0.699596
0.697143
0.694698
0.692261
0.689832
0.687411
0.684998
0.682592
0.680193
0.677802
1.27431
1.25908
1.23664
1.21493
1.19375
1.17245
1.1518
1.1325
1.11481
1.09881
1.0845
1.07182
1.06066
1.05083
1.04213
1.03438
1.02739
1.021
1.01509
1.00955
1.00428
0.999239
0.994366
0.989629
0.985004
0.980474
0.976026
0.971651
0.967342
0.963096
0.958907
0.954773
0.950692
0.94666
0.942676
0.938737
0.934842
0.930989
0.927177
0.923403
0.919667
0.915967
0.912302
0.90867
0.905071
0.901504
0.897967
0.894461
0.890983
0.887533
0.884111
0.880716
0.877346
0.874002
0.870682
0.867387
0.864115
0.860866
0.85764
0.854435
0.851252
0.84809
0.844948
0.841827
0.838725
0.835642
0.832578
0.829533
0.826505
0.823495
0.820503
0.817527
0.814568
0.811626
0.808699
0.805788
0.802893
0.800012
0.797147
0.794296
0.791459
0.788636
0.785827
0.783032
0.780249
0.77748
0.774724
0.77198
0.769249
0.76653
0.763823
0.761128
0.758444
0.755772
0.753111
0.750461
0.747822
0.745194
0.742576
0.739969
0.737372
0.734785
0.732207
0.72964
0.727082
0.724534
0.721995
0.719466
0.716945
0.714434
0.711931
0.709437
0.706952
0.704475
0.702007
0.699546
0.697094
0.69465
0.692214
0.689786
0.687365
0.684953
0.682547
0.680149
0.677759
1.33784
1.29513
1.25401
1.22448
1.19825
1.17244
1.14819
1.12642
1.10724
1.09055
1.07618
1.0639
1.05343
1.04445
1.03664
1.02971
1.02345
1.01769
1.0123
1.00717
1.00224
0.99746
0.992798
0.988232
0.983746
0.979332
0.974981
0.970691
0.966457
0.962277
0.958147
0.954067
0.950034
0.946047
0.942103
0.938202
0.934341
0.930518
0.926734
0.922986
0.919274
0.915595
0.91195
0.908336
0.904754
0.901202
0.89768
0.894187
0.890721
0.887282
0.883871
0.880485
0.877124
0.873789
0.870477
0.867189
0.863924
0.860682
0.857461
0.854263
0.851085
0.847928
0.844791
0.841675
0.838577
0.835499
0.832439
0.829397
0.826373
0.823367
0.820377
0.817405
0.814449
0.81151
0.808586
0.805678
0.802785
0.799907
0.797043
0.794195
0.79136
0.788539
0.785732
0.782939
0.780159
0.777391
0.774637
0.771895
0.769166
0.766448
0.763743
0.761049
0.758367
0.755696
0.753036
0.750388
0.74775
0.745123
0.742506
0.7399
0.737304
0.734718
0.732142
0.729576
0.72702
0.724472
0.721934
0.719406
0.716886
0.714376
0.711874
0.709381
0.706896
0.70442
0.701953
0.699493
0.697042
0.694599
0.692163
0.689736
0.687316
0.684904
0.682499
0.680102
0.677712
1.44931
1.36186
1.29181
1.24863
1.21451
1.18294
1.15433
1.12927
1.10764
1.08919
1.07364
1.06065
1.04984
1.04077
1.03308
1.02642
1.02049
1.01508
1.01002
1.0052
1.00054
0.995994
0.991529
0.987126
0.982775
0.978472
0.974213
0.969999
0.965828
0.961701
0.957616
0.953575
0.949576
0.945617
0.9417
0.937821
0.93398
0.930177
0.92641
0.922677
0.918979
0.915313
0.91168
0.908078
0.904506
0.900964
0.897451
0.893966
0.890508
0.887077
0.883672
0.880293
0.876939
0.873609
0.870303
0.86702
0.86376
0.860523
0.857307
0.854113
0.850939
0.847786
0.844653
0.84154
0.838446
0.835371
0.832314
0.829275
0.826254
0.823251
0.820264
0.817294
0.814341
0.811403
0.808482
0.805576
0.802685
0.799809
0.796948
0.794101
0.791268
0.78845
0.785644
0.782853
0.780074
0.777308
0.774555
0.771815
0.769087
0.766371
0.763667
0.760974
0.758293
0.755624
0.752965
0.750318
0.747681
0.745055
0.74244
0.739835
0.73724
0.734655
0.73208
0.729515
0.726959
0.724413
0.721876
0.719348
0.716829
0.71432
0.711819
0.709326
0.706843
0.704367
0.7019
0.699442
0.696991
0.694548
0.692114
0.689687
0.687268
0.684856
0.682452
0.680056
0.677666
)
;

boundaryField
{
    inlet
    {
        type            zeroGradient;
    }
    outlet
    {
        type            fixedValue;
        value           nonuniform 0();
    }
    wall
    {
        type            zeroGradient;
    }
    back
    {
        type            wedge;
    }
    front
    {
        type            wedge;
    }
    axis
    {
        type            empty;
    }
    procBoundary4to0
    {
        type            processor;
        value           nonuniform List<scalar> 
125
(
1.1401
1.1391
1.13689
1.13361
1.12938
1.12434
1.11861
1.11235
1.10567
1.09871
1.09156
1.08432
1.07705
1.06982
1.06268
1.05565
1.04877
1.04205
1.03549
1.02911
1.0229
1.01686
1.01099
1.00527
0.9997
0.994273
0.988981
0.983816
0.978771
0.973838
0.969011
0.964285
0.959652
0.955108
0.950648
0.946267
0.941961
0.937725
0.933556
0.929451
0.925406
0.921418
0.917485
0.913603
0.909771
0.905986
0.902246
0.898549
0.894893
0.891277
0.887698
0.884156
0.880649
0.877176
0.873735
0.870325
0.866945
0.863595
0.860272
0.856977
0.853708
0.850465
0.847246
0.844051
0.84088
0.837731
0.834604
0.831499
0.828414
0.82535
0.822305
0.81928
0.816273
0.813285
0.810315
0.807362
0.804426
0.801507
0.798604
0.795718
0.792846
0.78999
0.78715
0.784323
0.781511
0.778714
0.77593
0.773159
0.770402
0.767658
0.764927
0.762208
0.759502
0.756808
0.754125
0.751455
0.748796
0.746148
0.743511
0.740886
0.738271
0.735666
0.733072
0.730489
0.727915
0.725351
0.722797
0.720253
0.717718
0.715193
0.712677
0.71017
0.707671
0.705182
0.702701
0.700229
0.697765
0.69531
0.692863
0.690424
0.687993
0.68557
0.683154
0.680747
0.678346
)
;
    }
    procBoundary4to5
    {
        type            processor;
        value           nonuniform List<scalar> 10(0.675865 0.675774 0.675684 0.675601 0.675528 0.675468 0.675418 0.675376 0.675329 0.675284);
    }
}


// ************************************************************************* //
