/*--------------------------------*- C++ -*----------------------------------*\
| =========                 |                                                 |
| \\      /  F ield         | OpenFOAM: The Open Source CFD Toolbox           |
|  \\    /   O peration     | Version:                                        |
|   \\  /    A nd           | Website:  www.openfoam.com                      |
|    \\/     M anipulation  |                                                 |
\*---------------------------------------------------------------------------*/
FoamFile
{
    version     2.0;
    format      ascii;
    class       surfaceScalarField;
    location    "563";
    object      phi;
}
// * * * * * * * * * * * * * * * * * * * * * * * * * * * * * * * * * * * * * //

dimensions      [0 3 -1 0 0 0 0];
oriented        oriented;


internalField   nonuniform List<scalar> 
2365
(
9.13938e-06
-2.53465e-08
9.15811e-06
-7.68003e-08
9.18855e-06
-1.25766e-07
9.22934e-06
-1.70718e-07
9.27886e-06
-2.10662e-07
9.33545e-06
-2.45106e-07
9.39747e-06
-2.73871e-07
9.46342e-06
-2.97029e-07
9.53193e-06
-3.14868e-07
9.60181e-06
-3.27833e-07
9.6721e-06
-3.36457e-07
9.74199e-06
-3.41318e-07
9.8109e-06
-3.43001e-07
9.87836e-06
-3.4207e-07
9.94407e-06
-3.39047e-07
1.00078e-05
-3.34403e-07
1.00696e-05
-3.28546e-07
1.01292e-05
-3.21822e-07
1.01868e-05
-3.14522e-07
1.02424e-05
-3.06876e-07
1.02961e-05
-2.99071e-07
1.0348e-05
-2.91249e-07
1.03981e-05
-2.83516e-07
1.04467e-05
-2.75952e-07
1.04937e-05
-2.6861e-07
1.05393e-05
-2.61528e-07
1.05836e-05
-2.54729e-07
1.06267e-05
-2.48223e-07
1.06686e-05
-2.42014e-07
1.07095e-05
-2.361e-07
1.07493e-05
-2.30473e-07
1.07882e-05
-2.25126e-07
1.08261e-05
-2.20045e-07
1.08632e-05
-2.1522e-07
1.08996e-05
-2.10636e-07
1.09351e-05
-2.0628e-07
1.09699e-05
-2.0214e-07
1.1004e-05
-1.98202e-07
1.10375e-05
-1.94454e-07
1.10703e-05
-1.90883e-07
1.11025e-05
-1.87478e-07
1.11341e-05
-1.8423e-07
1.11651e-05
-1.81126e-07
1.11956e-05
-1.78158e-07
1.12256e-05
-1.75316e-07
1.1255e-05
-1.72593e-07
1.1284e-05
-1.6998e-07
1.13125e-05
-1.6747e-07
1.13405e-05
-1.65056e-07
1.13681e-05
-1.62732e-07
1.13952e-05
-1.60492e-07
1.14219e-05
-1.58331e-07
1.14482e-05
-1.56243e-07
1.1474e-05
-1.54223e-07
1.14995e-05
-1.52269e-07
1.15245e-05
-1.50374e-07
1.15492e-05
-1.48537e-07
1.15735e-05
-1.46753e-07
1.15974e-05
-1.4502e-07
1.1621e-05
-1.43333e-07
1.16442e-05
-1.41692e-07
1.16671e-05
-1.40092e-07
1.16896e-05
-1.38533e-07
1.17117e-05
-1.37011e-07
1.17336e-05
-1.35525e-07
1.17551e-05
-1.34073e-07
1.17763e-05
-1.32653e-07
1.17972e-05
-1.31265e-07
1.18177e-05
-1.29905e-07
1.1838e-05
-1.28573e-07
1.18579e-05
-1.27268e-07
1.18776e-05
-1.25989e-07
1.18969e-05
-1.24734e-07
1.1916e-05
-1.23503e-07
1.19348e-05
-1.22294e-07
1.19533e-05
-1.21106e-07
1.19715e-05
-1.1994e-07
1.19895e-05
-1.18794e-07
1.20072e-05
-1.17667e-07
1.20246e-05
-1.16558e-07
1.20418e-05
-1.15468e-07
1.20587e-05
-1.14395e-07
1.20753e-05
-1.13339e-07
1.20917e-05
-1.123e-07
1.21079e-05
-1.11276e-07
1.21238e-05
-1.10268e-07
1.21395e-05
-1.09274e-07
1.21549e-05
-1.08296e-07
1.21702e-05
-1.07331e-07
1.21852e-05
-1.06381e-07
1.21999e-05
-1.05443e-07
1.22145e-05
-1.04519e-07
1.22288e-05
-1.03608e-07
1.22429e-05
-1.02709e-07
1.22568e-05
-1.01823e-07
1.22705e-05
-1.00948e-07
1.2284e-05
-1.00085e-07
1.22973e-05
-9.9233e-08
1.23104e-05
-9.83924e-08
1.23233e-05
-9.75628e-08
1.2336e-05
-9.67438e-08
1.23485e-05
-9.59353e-08
1.23608e-05
-9.5137e-08
1.23729e-05
-9.43488e-08
1.23849e-05
-9.35705e-08
1.23967e-05
-9.28018e-08
1.24083e-05
-9.20426e-08
1.24197e-05
-9.12927e-08
1.2431e-05
-9.05519e-08
1.24421e-05
-8.98202e-08
1.2453e-05
-8.90972e-08
1.24637e-05
-8.83829e-08
1.24744e-05
-8.76771e-08
1.24848e-05
-8.69797e-08
1.24951e-05
-8.62905e-08
1.25052e-05
-8.56093e-08
1.25152e-05
-8.49362e-08
1.25251e-05
-8.42708e-08
1.25348e-05
-8.36132e-08
1.25443e-05
-8.29631e-08
1.25537e-05
-8.23204e-08
1.2563e-05
-8.16851e-08
1.25722e-05
-8.1057e-08
1.25812e-05
-8.0436e-08
-7.9822e-08
1.00111e-05
-3.3401e-08
1.00358e-05
-1.0148e-07
1.00757e-05
-1.65621e-07
1.01284e-05
-2.23507e-07
1.01917e-05
-2.73951e-07
1.02632e-05
-3.16546e-07
1.03405e-05
-3.51244e-07
1.04218e-05
-3.78316e-07
1.05053e-05
-3.98325e-07
1.05895e-05
-4.12012e-07
1.06732e-05
-4.20201e-07
1.07556e-05
-4.2374e-07
1.08361e-05
-4.23455e-07
1.09141e-05
-4.20121e-07
1.09895e-05
-4.14433e-07
1.10621e-05
-4.06997e-07
1.11319e-05
-3.98327e-07
1.11989e-05
-3.88844e-07
1.12633e-05
-3.78887e-07
1.13251e-05
-3.68721e-07
1.13846e-05
-3.58545e-07
1.14419e-05
-3.48509e-07
1.14971e-05
-3.38717e-07
1.15504e-05
-3.2924e-07
1.16019e-05
-3.20123e-07
1.16517e-05
-3.11391e-07
1.17001e-05
-3.03054e-07
1.17469e-05
-2.95113e-07
1.17925e-05
-2.8756e-07
1.18368e-05
-2.80383e-07
1.18799e-05
-2.73567e-07
1.19218e-05
-2.67095e-07
1.19627e-05
-2.60947e-07
1.20026e-05
-2.55106e-07
1.20415e-05
-2.49553e-07
1.20795e-05
-2.44271e-07
1.21166e-05
-2.39242e-07
1.21529e-05
-2.3445e-07
1.21883e-05
-2.2988e-07
1.22229e-05
-2.25516e-07
1.22568e-05
-2.21345e-07
1.22899e-05
-2.17354e-07
1.23223e-05
-2.1353e-07
1.2354e-05
-2.09864e-07
1.23851e-05
-2.06344e-07
1.24154e-05
-2.0296e-07
1.24452e-05
-1.99704e-07
1.24743e-05
-1.96567e-07
1.25027e-05
-1.93541e-07
1.25306e-05
-1.9062e-07
1.25579e-05
-1.87797e-07
1.25847e-05
-1.85065e-07
1.26108e-05
-1.8242e-07
1.26365e-05
-1.79855e-07
1.26616e-05
-1.77366e-07
1.26862e-05
-1.7495e-07
1.27102e-05
-1.726e-07
1.27338e-05
-1.70315e-07
1.27568e-05
-1.6809e-07
1.27794e-05
-1.65922e-07
1.28016e-05
-1.63808e-07
1.28232e-05
-1.61746e-07
1.28444e-05
-1.59733e-07
1.28652e-05
-1.57767e-07
1.28855e-05
-1.55845e-07
1.29054e-05
-1.53965e-07
1.29248e-05
-1.52126e-07
1.29439e-05
-1.50326e-07
1.29626e-05
-1.48564e-07
1.29808e-05
-1.46837e-07
1.29987e-05
-1.45144e-07
1.30162e-05
-1.43485e-07
1.30333e-05
-1.41857e-07
1.30501e-05
-1.40261e-07
1.30665e-05
-1.38694e-07
1.30825e-05
-1.37155e-07
1.30982e-05
-1.35645e-07
1.31136e-05
-1.34161e-07
1.31286e-05
-1.32703e-07
1.31434e-05
-1.31271e-07
1.31577e-05
-1.29863e-07
1.31718e-05
-1.28479e-07
1.31856e-05
-1.27118e-07
1.31991e-05
-1.25779e-07
1.32123e-05
-1.24463e-07
1.32252e-05
-1.23168e-07
1.32378e-05
-1.21893e-07
1.32501e-05
-1.20639e-07
1.32622e-05
-1.19405e-07
1.3274e-05
-1.1819e-07
1.32856e-05
-1.16994e-07
1.32969e-05
-1.15816e-07
1.33079e-05
-1.14657e-07
1.33187e-05
-1.13514e-07
1.33293e-05
-1.1239e-07
1.33396e-05
-1.11282e-07
1.33497e-05
-1.1019e-07
1.33596e-05
-1.09114e-07
1.33693e-05
-1.08055e-07
1.33787e-05
-1.07011e-07
1.3388e-05
-1.05981e-07
1.3397e-05
-1.04967e-07
1.34058e-05
-1.03968e-07
1.34145e-05
-1.02982e-07
1.34229e-05
-1.02011e-07
1.34311e-05
-1.01053e-07
1.34392e-05
-1.00108e-07
1.34471e-05
-9.91773e-08
1.34548e-05
-9.82591e-08
1.34623e-05
-9.73536e-08
1.34697e-05
-9.64605e-08
1.34769e-05
-9.55797e-08
1.34839e-05
-9.47109e-08
1.34908e-05
-9.38538e-08
1.34975e-05
-9.30083e-08
1.35041e-05
-9.21742e-08
1.35105e-05
-9.13512e-08
1.35168e-05
-9.05392e-08
1.35229e-05
-8.9738e-08
1.35289e-05
-8.89473e-08
1.35347e-05
-8.8167e-08
1.35404e-05
-8.7397e-08
1.3546e-05
-8.6637e-08
1.35515e-05
-8.58868e-08
-8.51463e-08
1.08837e-05
-4.41825e-08
1.0917e-05
-1.34846e-07
1.09703e-05
-2.18889e-07
1.10397e-05
-2.92869e-07
1.11215e-05
-3.55752e-07
1.12124e-05
-4.075e-07
1.13095e-05
-4.48344e-07
1.14101e-05
-4.78918e-07
1.1512e-05
-5.00236e-07
1.16135e-05
-5.1349e-07
1.17132e-05
-5.19916e-07
1.18102e-05
-5.20728e-07
1.19038e-05
-5.17073e-07
1.19937e-05
-5.09989e-07
1.20797e-05
-5.00381e-07
1.21617e-05
-4.89011e-07
1.22399e-05
-4.76504e-07
1.23144e-05
-4.63354e-07
1.23854e-05
-4.49942e-07
1.24532e-05
-4.36553e-07
1.25181e-05
-4.2339e-07
1.25802e-05
-4.10591e-07
1.26397e-05
-3.98248e-07
1.26969e-05
-3.86412e-07
1.27519e-05
-3.75108e-07
1.28048e-05
-3.64343e-07
1.28559e-05
-3.54108e-07
1.29051e-05
-3.44386e-07
1.29527e-05
-3.35157e-07
1.29988e-05
-3.26395e-07
1.30433e-05
-3.18074e-07
1.30863e-05
-3.10169e-07
1.3128e-05
-3.02652e-07
1.31684e-05
-2.95499e-07
1.32076e-05
-2.88686e-07
1.32455e-05
-2.82191e-07
1.32822e-05
-2.75994e-07
1.33179e-05
-2.70073e-07
1.33524e-05
-2.64411e-07
1.33859e-05
-2.58991e-07
1.34183e-05
-2.53797e-07
1.34498e-05
-2.48813e-07
1.34803e-05
-2.44028e-07
1.35098e-05
-2.39426e-07
1.35385e-05
-2.34998e-07
1.35663e-05
-2.30733e-07
1.35932e-05
-2.26619e-07
1.36193e-05
-2.22648e-07
1.36445e-05
-2.18812e-07
1.3669e-05
-2.15102e-07
1.36927e-05
-2.11511e-07
1.37157e-05
-2.08032e-07
1.37379e-05
-2.0466e-07
1.37595e-05
-2.01388e-07
1.37803e-05
-1.98211e-07
1.38005e-05
-1.95124e-07
1.382e-05
-1.92123e-07
1.38389e-05
-1.89203e-07
1.38572e-05
-1.86361e-07
1.38748e-05
-1.83592e-07
1.38919e-05
-1.80894e-07
1.39084e-05
-1.78263e-07
1.39244e-05
-1.75696e-07
1.39398e-05
-1.73192e-07
1.39547e-05
-1.70746e-07
1.39691e-05
-1.68357e-07
1.3983e-05
-1.66023e-07
1.39964e-05
-1.63741e-07
1.40094e-05
-1.6151e-07
1.40219e-05
-1.59328e-07
1.40339e-05
-1.57193e-07
1.40455e-05
-1.55103e-07
1.40567e-05
-1.53057e-07
1.40675e-05
-1.51054e-07
1.40779e-05
-1.49092e-07
1.40879e-05
-1.47169e-07
1.40976e-05
-1.45286e-07
1.41069e-05
-1.43439e-07
1.41158e-05
-1.41629e-07
1.41244e-05
-1.39855e-07
1.41326e-05
-1.38114e-07
1.41406e-05
-1.36407e-07
1.41482e-05
-1.34733e-07
1.41555e-05
-1.3309e-07
1.41625e-05
-1.31477e-07
1.41692e-05
-1.29895e-07
1.41757e-05
-1.28341e-07
1.41818e-05
-1.26816e-07
1.41878e-05
-1.25319e-07
1.41934e-05
-1.23848e-07
1.41988e-05
-1.22404e-07
1.4204e-05
-1.20986e-07
1.42089e-05
-1.19592e-07
1.42136e-05
-1.18223e-07
1.42181e-05
-1.16878e-07
1.42224e-05
-1.15556e-07
1.42265e-05
-1.14256e-07
1.42303e-05
-1.12979e-07
1.4234e-05
-1.11724e-07
1.42375e-05
-1.1049e-07
1.42408e-05
-1.09276e-07
1.42439e-05
-1.08083e-07
1.42468e-05
-1.0691e-07
1.42496e-05
-1.05755e-07
1.42522e-05
-1.0462e-07
1.42547e-05
-1.03504e-07
1.4257e-05
-1.02405e-07
1.42591e-05
-1.01325e-07
1.42611e-05
-1.00261e-07
1.4263e-05
-9.92149e-08
1.42647e-05
-9.81851e-08
1.42663e-05
-9.71716e-08
1.42678e-05
-9.61741e-08
1.42691e-05
-9.51921e-08
1.42703e-05
-9.42254e-08
1.42714e-05
-9.32737e-08
1.42724e-05
-9.23366e-08
1.42733e-05
-9.14139e-08
1.4274e-05
-9.05053e-08
1.42747e-05
-8.96104e-08
1.42753e-05
-8.87291e-08
1.42757e-05
-8.78609e-08
1.42761e-05
-8.70058e-08
1.42764e-05
-8.61633e-08
-8.53333e-08
1.17577e-05
-5.91117e-08
1.18044e-05
-1.81548e-07
1.18774e-05
-2.91935e-07
1.19702e-05
-3.85665e-07
1.20774e-05
-4.62921e-07
1.21944e-05
-5.2451e-07
1.23172e-05
-5.71138e-07
1.24423e-05
-6.04081e-07
1.25672e-05
-6.25071e-07
1.26896e-05
-6.35941e-07
1.28082e-05
-6.38483e-07
1.29219e-05
-6.34402e-07
1.303e-05
-6.25253e-07
1.31325e-05
-6.12403e-07
1.32291e-05
-5.97003e-07
1.33201e-05
-5.79991e-07
1.34057e-05
-5.62105e-07
1.34862e-05
-5.43906e-07
1.35621e-05
-5.25802e-07
1.36336e-05
-5.08079e-07
1.37011e-05
-4.90923e-07
1.3765e-05
-4.74449e-07
1.38255e-05
-4.58716e-07
1.38828e-05
-4.43744e-07
1.39372e-05
-4.29529e-07
1.39889e-05
-4.16047e-07
1.40381e-05
-4.03266e-07
1.40848e-05
-3.9115e-07
1.41293e-05
-3.79659e-07
1.41717e-05
-3.68753e-07
1.4212e-05
-3.58394e-07
1.42504e-05
-3.48545e-07
1.42869e-05
-3.39173e-07
1.43217e-05
-3.30245e-07
1.43547e-05
-3.21733e-07
1.43861e-05
-3.13609e-07
1.4416e-05
-3.05848e-07
1.44443e-05
-2.98426e-07
1.44712e-05
-2.91322e-07
1.44968e-05
-2.84517e-07
1.4521e-05
-2.77992e-07
1.45439e-05
-2.71729e-07
1.45656e-05
-2.65714e-07
1.45861e-05
-2.59931e-07
1.46054e-05
-2.54366e-07
1.46237e-05
-2.49008e-07
1.46409e-05
-2.43845e-07
1.46572e-05
-2.38865e-07
1.46724e-05
-2.34059e-07
1.46867e-05
-2.29417e-07
1.47001e-05
-2.24931e-07
1.47127e-05
-2.20593e-07
1.47244e-05
-2.16394e-07
1.47354e-05
-2.12329e-07
1.47456e-05
-2.0839e-07
1.4755e-05
-2.04572e-07
1.47638e-05
-2.00869e-07
1.47718e-05
-1.97275e-07
1.47792e-05
-1.93786e-07
1.47861e-05
-1.90397e-07
1.47923e-05
-1.87104e-07
1.47979e-05
-1.83903e-07
1.4803e-05
-1.80789e-07
1.48076e-05
-1.7776e-07
1.48116e-05
-1.74811e-07
1.48152e-05
-1.7194e-07
1.48183e-05
-1.69144e-07
1.4821e-05
-1.6642e-07
1.48233e-05
-1.63766e-07
1.48251e-05
-1.61177e-07
1.48266e-05
-1.58654e-07
1.48277e-05
-1.56192e-07
1.48284e-05
-1.5379e-07
1.48288e-05
-1.51446e-07
1.48289e-05
-1.49157e-07
1.48286e-05
-1.46923e-07
1.48281e-05
-1.44741e-07
1.48272e-05
-1.42609e-07
1.48261e-05
-1.40526e-07
1.48248e-05
-1.38491e-07
1.48232e-05
-1.36501e-07
1.48213e-05
-1.34556e-07
1.48192e-05
-1.32654e-07
1.48169e-05
-1.30794e-07
1.48144e-05
-1.28974e-07
1.48117e-05
-1.27193e-07
1.48088e-05
-1.25451e-07
1.48058e-05
-1.23746e-07
1.48025e-05
-1.22076e-07
1.47991e-05
-1.20442e-07
1.47955e-05
-1.18842e-07
1.47918e-05
-1.17274e-07
1.4788e-05
-1.15739e-07
1.4784e-05
-1.14235e-07
1.47799e-05
-1.12761e-07
1.47756e-05
-1.11317e-07
1.47713e-05
-1.09901e-07
1.47668e-05
-1.08514e-07
1.47622e-05
-1.07153e-07
1.47576e-05
-1.0582e-07
1.47528e-05
-1.04512e-07
1.4748e-05
-1.03229e-07
1.4743e-05
-1.0197e-07
1.4738e-05
-1.00736e-07
1.47329e-05
-9.95244e-08
1.47277e-05
-9.83358e-08
1.47225e-05
-9.71692e-08
1.47172e-05
-9.60242e-08
1.47118e-05
-9.49002e-08
1.47064e-05
-9.37967e-08
1.47009e-05
-9.27132e-08
1.46954e-05
-9.16492e-08
1.46899e-05
-9.06042e-08
1.46842e-05
-8.95777e-08
1.46786e-05
-8.85694e-08
1.46729e-05
-8.75788e-08
1.46672e-05
-8.66054e-08
1.46614e-05
-8.5649e-08
1.46556e-05
-8.47089e-08
1.46498e-05
-8.3785e-08
1.46439e-05
-8.28768e-08
1.4638e-05
-8.1984e-08
1.46321e-05
-8.11062e-08
1.46262e-05
-8.0243e-08
-7.93942e-08
1.26346e-05
-8.11114e-08
1.27033e-05
-2.5026e-07
1.28064e-05
-3.95065e-07
1.29329e-05
-5.12116e-07
1.30753e-05
-6.05332e-07
1.32275e-05
-6.767e-07
1.33839e-05
-7.27594e-07
1.35402e-05
-7.60378e-07
1.3693e-05
-7.77863e-07
1.38398e-05
-7.8277e-07
1.3979e-05
-7.77649e-07
1.41095e-05
-7.64863e-07
1.42307e-05
-7.46514e-07
1.43427e-05
-7.24395e-07
1.44457e-05
-6.99962e-07
1.454e-05
-6.74356e-07
1.46264e-05
-6.48434e-07
1.47053e-05
-6.22811e-07
1.47774e-05
-5.979e-07
1.48432e-05
-5.73961e-07
1.49035e-05
-5.51138e-07
1.49585e-05
-5.2949e-07
1.50088e-05
-5.09022e-07
1.50548e-05
-4.89704e-07
1.50967e-05
-4.71482e-07
1.5135e-05
-4.54294e-07
1.51698e-05
-4.38073e-07
1.52014e-05
-4.22752e-07
1.523e-05
-4.08268e-07
1.52558e-05
-3.94561e-07
1.5279e-05
-3.81576e-07
1.52997e-05
-3.69262e-07
1.53181e-05
-3.57575e-07
1.53343e-05
-3.46471e-07
1.53485e-05
-3.35913e-07
1.53608e-05
-3.25865e-07
1.53712e-05
-3.16295e-07
1.538e-05
-3.07173e-07
1.53871e-05
-2.98472e-07
1.53928e-05
-2.90165e-07
1.5397e-05
-2.82229e-07
1.53999e-05
-2.74642e-07
1.54016e-05
-2.67384e-07
1.54021e-05
-2.60435e-07
1.54015e-05
-2.53778e-07
1.53999e-05
-2.47396e-07
1.53973e-05
-2.41273e-07
1.53938e-05
-2.35395e-07
1.53895e-05
-2.29749e-07
1.53844e-05
-2.24322e-07
1.53786e-05
-2.19101e-07
1.53721e-05
-2.14078e-07
1.53649e-05
-2.0924e-07
1.53572e-05
-2.04579e-07
1.53489e-05
-2.00085e-07
1.53401e-05
-1.95751e-07
1.53308e-05
-1.91567e-07
1.5321e-05
-1.87528e-07
1.53108e-05
-1.83625e-07
1.53003e-05
-1.79853e-07
1.52894e-05
-1.76205e-07
1.52782e-05
-1.72677e-07
1.52666e-05
-1.69261e-07
1.52548e-05
-1.65953e-07
1.52428e-05
-1.62749e-07
1.52305e-05
-1.59644e-07
1.5218e-05
-1.56633e-07
1.52053e-05
-1.53713e-07
1.51924e-05
-1.5088e-07
1.51793e-05
-1.48131e-07
1.51661e-05
-1.45461e-07
1.51528e-05
-1.42868e-07
1.51394e-05
-1.40348e-07
1.51258e-05
-1.37899e-07
1.51122e-05
-1.35518e-07
1.50985e-05
-1.33203e-07
1.50847e-05
-1.3095e-07
1.50708e-05
-1.28758e-07
1.50569e-05
-1.26624e-07
1.5043e-05
-1.24547e-07
1.5029e-05
-1.22523e-07
1.5015e-05
-1.20552e-07
1.5001e-05
-1.18631e-07
1.49869e-05
-1.16759e-07
1.49729e-05
-1.14934e-07
1.49589e-05
-1.13154e-07
1.49448e-05
-1.11417e-07
1.49308e-05
-1.09723e-07
1.49168e-05
-1.0807e-07
1.49028e-05
-1.06457e-07
1.48889e-05
-1.04881e-07
1.48749e-05
-1.03343e-07
1.4861e-05
-1.0184e-07
1.48472e-05
-1.00372e-07
1.48333e-05
-9.89378e-08
1.48196e-05
-9.75359e-08
1.48058e-05
-9.61656e-08
1.47921e-05
-9.48258e-08
1.47785e-05
-9.35156e-08
1.47649e-05
-9.22342e-08
1.47514e-05
-9.09806e-08
1.47379e-05
-8.9754e-08
1.47245e-05
-8.85537e-08
1.47111e-05
-8.73789e-08
1.46978e-05
-8.62287e-08
1.46846e-05
-8.51026e-08
1.46714e-05
-8.4e-08
1.46583e-05
-8.29198e-08
1.46453e-05
-8.18618e-08
1.46323e-05
-8.08252e-08
1.46194e-05
-7.98094e-08
1.46066e-05
-7.88139e-08
1.45938e-05
-7.78381e-08
1.45811e-05
-7.68814e-08
1.45685e-05
-7.59434e-08
1.45559e-05
-7.50236e-08
1.45435e-05
-7.41214e-08
1.4531e-05
-7.32365e-08
1.45187e-05
-7.23683e-08
1.45064e-05
-7.15165e-08
1.44942e-05
-7.06805e-08
1.44821e-05
-6.98601e-08
1.44701e-05
-6.90548e-08
1.44581e-05
-6.82642e-08
-6.74878e-08
1.35169e-05
-1.15639e-07
1.36255e-05
-3.58811e-07
1.37765e-05
-5.46068e-07
1.39523e-05
-6.8799e-07
1.41438e-05
-7.9676e-07
1.43422e-05
-8.75112e-07
1.45399e-05
-9.25342e-07
1.47312e-05
-9.51613e-07
1.49117e-05
-9.58345e-07
1.50785e-05
-9.49574e-07
1.52298e-05
-9.29016e-07
1.5365e-05
-9.00023e-07
1.5484e-05
-8.65486e-07
1.55873e-05
-8.27778e-07
1.56761e-05
-7.88731e-07
1.57514e-05
-7.49695e-07
1.58146e-05
-7.11614e-07
1.58669e-05
-6.75095e-07
1.59095e-05
-6.40487e-07
1.59435e-05
-6.07951e-07
1.59699e-05
-5.77518e-07
1.59895e-05
-5.49132e-07
1.60032e-05
-5.22691e-07
1.60115e-05
-4.98066e-07
1.60152e-05
-4.75119e-07
1.60146e-05
-4.53714e-07
1.60103e-05
-4.33722e-07
1.60025e-05
-4.15025e-07
1.59918e-05
-3.97515e-07
1.59783e-05
-3.81097e-07
1.59624e-05
-3.65682e-07
1.59443e-05
-3.51195e-07
1.59243e-05
-3.37565e-07
1.59026e-05
-3.24729e-07
1.58793e-05
-3.1263e-07
1.58547e-05
-3.01215e-07
1.58288e-05
-2.90438e-07
1.58019e-05
-2.80255e-07
1.5774e-05
-2.70624e-07
1.57454e-05
-2.61509e-07
1.5716e-05
-2.52875e-07
1.56861e-05
-2.4469e-07
1.56556e-05
-2.36925e-07
1.56247e-05
-2.29552e-07
1.55935e-05
-2.22546e-07
1.5562e-05
-2.15882e-07
1.55303e-05
-2.0954e-07
1.54984e-05
-2.03498e-07
1.54663e-05
-1.97738e-07
1.54343e-05
-1.92243e-07
1.54022e-05
-1.86996e-07
1.53701e-05
-1.81982e-07
1.5338e-05
-1.77187e-07
1.5306e-05
-1.72598e-07
1.52742e-05
-1.68204e-07
1.52424e-05
-1.63992e-07
1.52108e-05
-1.59952e-07
1.51793e-05
-1.56076e-07
1.51481e-05
-1.52352e-07
1.5117e-05
-1.48775e-07
1.50861e-05
-1.45334e-07
1.50555e-05
-1.42024e-07
1.5025e-05
-1.38837e-07
1.49948e-05
-1.35767e-07
1.49649e-05
-1.32807e-07
1.49352e-05
-1.29953e-07
1.49058e-05
-1.27199e-07
1.48766e-05
-1.24541e-07
1.48477e-05
-1.21972e-07
1.48191e-05
-1.1949e-07
1.47907e-05
-1.17091e-07
1.47626e-05
-1.14769e-07
1.47348e-05
-1.12523e-07
1.47072e-05
-1.10348e-07
1.46799e-05
-1.08241e-07
1.46529e-05
-1.062e-07
1.46262e-05
-1.04221e-07
1.45997e-05
-1.02302e-07
1.45736e-05
-1.0044e-07
1.45476e-05
-9.8633e-08
1.4522e-05
-9.68787e-08
1.44966e-05
-9.51749e-08
1.44715e-05
-9.35195e-08
1.44467e-05
-9.19107e-08
1.44221e-05
-9.03467e-08
1.43977e-05
-8.88257e-08
1.43737e-05
-8.7346e-08
1.43499e-05
-8.59061e-08
1.43263e-05
-8.45046e-08
1.4303e-05
-8.31399e-08
1.42799e-05
-8.18108e-08
1.42571e-05
-8.0516e-08
1.42345e-05
-7.92542e-08
1.42121e-05
-7.80243e-08
1.419e-05
-7.68251e-08
1.41682e-05
-7.56557e-08
1.41465e-05
-7.45149e-08
1.41251e-05
-7.34018e-08
1.41039e-05
-7.23155e-08
1.40829e-05
-7.1255e-08
1.40621e-05
-7.02196e-08
1.40416e-05
-6.92084e-08
1.40213e-05
-6.82206e-08
1.40011e-05
-6.72555e-08
1.39812e-05
-6.63123e-08
1.39615e-05
-6.53904e-08
1.3942e-05
-6.44892e-08
1.39227e-05
-6.36078e-08
1.39036e-05
-6.27459e-08
1.38846e-05
-6.19027e-08
1.38659e-05
-6.10777e-08
1.38474e-05
-6.02703e-08
1.3829e-05
-5.94801e-08
1.38108e-05
-5.87065e-08
1.37928e-05
-5.79491e-08
1.3775e-05
-5.72074e-08
1.37574e-05
-5.64809e-08
1.37399e-05
-5.57692e-08
1.37226e-05
-5.50719e-08
1.37055e-05
-5.43885e-08
1.36885e-05
-5.37188e-08
1.36717e-05
-5.30623e-08
1.36551e-05
-5.24186e-08
1.36386e-05
-5.17875e-08
-5.11685e-08
1.44124e-05
-1.75831e-07
1.45944e-05
-5.40779e-07
1.48218e-05
-7.73456e-07
1.50688e-05
-9.34967e-07
1.53214e-05
-1.04943e-06
1.55667e-05
-1.12036e-06
1.57944e-05
-1.15305e-06
1.59979e-05
-1.1551e-06
1.61731e-05
-1.1336e-06
1.63183e-05
-1.09473e-06
1.64332e-05
-1.04399e-06
1.65193e-05
-9.8611e-07
1.65788e-05
-9.24925e-07
1.66143e-05
-8.63355e-07
1.66291e-05
-8.03448e-07
1.66259e-05
-7.46539e-07
1.66077e-05
-6.93393e-07
1.65769e-05
-6.44346e-07
1.65359e-05
-5.99437e-07
1.64864e-05
-5.58513e-07
1.64302e-05
-5.21312e-07
1.63686e-05
-4.8752e-07
1.63027e-05
-4.56808e-07
1.62335e-05
-4.28856e-07
1.61618e-05
-4.03369e-07
1.60882e-05
-3.8008e-07
1.60132e-05
-3.58752e-07
1.59373e-05
-3.39177e-07
1.5861e-05
-3.21175e-07
1.57845e-05
-3.04587e-07
1.57081e-05
-2.89274e-07
1.5632e-05
-2.75114e-07
1.55564e-05
-2.62001e-07
1.54815e-05
-2.49839e-07
1.54075e-05
-2.38543e-07
1.53343e-05
-2.28038e-07
1.52621e-05
-2.18255e-07
1.5191e-05
-2.09132e-07
1.5121e-05
-2.00613e-07
1.50521e-05
-1.92649e-07
1.49844e-05
-1.85194e-07
1.49179e-05
-1.78206e-07
1.48527e-05
-1.71648e-07
1.47886e-05
-1.65484e-07
1.47257e-05
-1.59684e-07
1.46641e-05
-1.5422e-07
1.46036e-05
-1.49066e-07
1.45443e-05
-1.44198e-07
1.44861e-05
-1.39594e-07
1.44291e-05
-1.35236e-07
1.43732e-05
-1.31105e-07
1.43185e-05
-1.27185e-07
1.42647e-05
-1.23461e-07
1.4212e-05
-1.1992e-07
1.41604e-05
-1.16549e-07
1.41097e-05
-1.13336e-07
1.40601e-05
-1.10272e-07
1.40113e-05
-1.07346e-07
1.39635e-05
-1.04551e-07
1.39166e-05
-1.01877e-07
1.38706e-05
-9.93168e-08
1.38255e-05
-9.68642e-08
1.37811e-05
-9.45126e-08
1.37376e-05
-9.2256e-08
1.36949e-05
-9.0089e-08
1.3653e-05
-8.80065e-08
1.36118e-05
-8.60039e-08
1.35713e-05
-8.40768e-08
1.35315e-05
-8.22212e-08
1.34925e-05
-8.04333e-08
1.34541e-05
-7.87096e-08
1.34164e-05
-7.70468e-08
1.33793e-05
-7.5442e-08
1.33428e-05
-7.38921e-08
1.3307e-05
-7.23947e-08
1.32717e-05
-7.0947e-08
1.32371e-05
-6.9547e-08
1.3203e-05
-6.81922e-08
1.31694e-05
-6.68806e-08
1.31364e-05
-6.56104e-08
1.31039e-05
-6.43796e-08
1.30719e-05
-6.31866e-08
1.30404e-05
-6.20297e-08
1.30094e-05
-6.09074e-08
1.29789e-05
-5.98182e-08
1.29488e-05
-5.87607e-08
1.29192e-05
-5.77337e-08
1.289e-05
-5.6736e-08
1.28613e-05
-5.57663e-08
1.2833e-05
-5.48236e-08
1.28051e-05
-5.39068e-08
1.27776e-05
-5.30149e-08
1.27505e-05
-5.2147e-08
1.27237e-05
-5.13021e-08
1.26974e-05
-5.04795e-08
1.26714e-05
-4.96783e-08
1.26458e-05
-4.88977e-08
1.26205e-05
-4.8137e-08
1.25956e-05
-4.73955e-08
1.2571e-05
-4.66725e-08
1.25468e-05
-4.59674e-08
1.25228e-05
-4.52795e-08
1.24992e-05
-4.46083e-08
1.24759e-05
-4.39531e-08
1.24529e-05
-4.33136e-08
1.24302e-05
-4.26891e-08
1.24078e-05
-4.20792e-08
1.23857e-05
-4.14833e-08
1.23638e-05
-4.09011e-08
1.23423e-05
-4.03321e-08
1.2321e-05
-3.97759e-08
1.22999e-05
-3.92321e-08
1.22792e-05
-3.87003e-08
1.22586e-05
-3.81801e-08
1.22384e-05
-3.76712e-08
1.22183e-05
-3.71732e-08
1.21985e-05
-3.66859e-08
1.2179e-05
-3.62089e-08
1.21596e-05
-3.57418e-08
1.21405e-05
-3.52845e-08
1.21216e-05
-3.48366e-08
1.2103e-05
-3.43979e-08
1.20845e-05
-3.39681e-08
1.20663e-05
-3.35469e-08
-3.31341e-08
1.53878e-05
-3.41526e-07
1.56846e-05
-8.37628e-07
1.59927e-05
-1.08158e-06
1.62823e-05
-1.2245e-06
1.65342e-05
-1.30138e-06
1.67353e-05
-1.32144e-06
1.68797e-05
-1.29744e-06
1.69669e-05
-1.24229e-06
1.69997e-05
-1.1664e-06
1.69831e-05
-1.07814e-06
1.69234e-05
-9.84339e-07
1.68276e-05
-8.90288e-07
1.67026e-05
-7.9995e-07
1.65552e-05
-7.15882e-07
1.63911e-05
-6.39409e-07
1.62157e-05
-5.71104e-07
1.60332e-05
-5.10902e-07
1.58472e-05
-4.58331e-07
1.56604e-05
-4.12688e-07
1.54751e-05
-3.73171e-07
1.52928e-05
-3.38968e-07
1.51145e-05
-3.09312e-07
1.49412e-05
-2.83514e-07
1.47734e-05
-2.60974e-07
1.46112e-05
-2.41185e-07
1.44548e-05
-2.23718e-07
1.43043e-05
-2.08222e-07
1.41595e-05
-1.94405e-07
1.40204e-05
-1.82028e-07
1.38867e-05
-1.70892e-07
1.37582e-05
-1.60835e-07
1.36348e-05
-1.51719e-07
1.35163e-05
-1.43429e-07
1.34023e-05
-1.35868e-07
1.32927e-05
-1.28953e-07
1.31873e-05
-1.22611e-07
1.30858e-05
-1.16782e-07
1.29881e-05
-1.1141e-07
1.28939e-05
-1.06449e-07
1.28031e-05
-1.01858e-07
1.27155e-05
-9.75985e-08
1.2631e-05
-9.36398e-08
1.25493e-05
-8.99529e-08
1.24703e-05
-8.65123e-08
1.23939e-05
-8.32956e-08
1.232e-05
-8.02825e-08
1.22484e-05
-7.74554e-08
1.2179e-05
-7.4798e-08
1.21117e-05
-7.22963e-08
1.20464e-05
-6.99372e-08
1.1983e-05
-6.77094e-08
1.19214e-05
-6.56025e-08
1.18615e-05
-6.36071e-08
1.18033e-05
-6.17148e-08
1.17467e-05
-5.99181e-08
1.16916e-05
-5.82101e-08
1.16379e-05
-5.65844e-08
1.15856e-05
-5.50354e-08
1.15346e-05
-5.35579e-08
1.14849e-05
-5.21472e-08
1.14363e-05
-5.07989e-08
1.1389e-05
-4.95091e-08
1.13427e-05
-4.82741e-08
1.12976e-05
-4.70907e-08
1.12534e-05
-4.59557e-08
1.12103e-05
-4.48662e-08
1.11681e-05
-4.38198e-08
1.11269e-05
-4.28139e-08
1.10865e-05
-4.18463e-08
1.1047e-05
-4.09149e-08
1.10083e-05
-4.00178e-08
1.09704e-05
-3.91532e-08
1.09333e-05
-3.83194e-08
1.08969e-05
-3.75149e-08
1.08612e-05
-3.67382e-08
1.08263e-05
-3.59879e-08
1.0792e-05
-3.52628e-08
1.07584e-05
-3.45617e-08
1.07254e-05
-3.38834e-08
1.0693e-05
-3.3227e-08
1.06612e-05
-3.25913e-08
1.063e-05
-3.19755e-08
1.05993e-05
-3.13788e-08
1.05692e-05
-3.08002e-08
1.05396e-05
-3.0239e-08
1.05106e-05
-2.96945e-08
1.0482e-05
-2.9166e-08
1.04539e-05
-2.86529e-08
1.04263e-05
-2.81544e-08
1.03992e-05
-2.767e-08
1.03724e-05
-2.71992e-08
1.03462e-05
-2.67414e-08
1.03203e-05
-2.62961e-08
1.02949e-05
-2.58629e-08
1.02698e-05
-2.54413e-08
1.02452e-05
-2.50308e-08
1.02209e-05
-2.46311e-08
1.0197e-05
-2.42417e-08
1.01735e-05
-2.38623e-08
1.01503e-05
-2.34926e-08
1.01275e-05
-2.31321e-08
1.0105e-05
-2.27806e-08
1.00828e-05
-2.24377e-08
1.0061e-05
-2.21032e-08
1.00394e-05
-2.17768e-08
1.00182e-05
-2.14582e-08
9.99727e-06
-2.11471e-08
9.97663e-06
-2.08433e-08
9.95627e-06
-2.05466e-08
9.9362e-06
-2.02567e-08
9.91639e-06
-1.99735e-08
9.89686e-06
-1.96966e-08
9.87758e-06
-1.94259e-08
9.85856e-06
-1.91612e-08
9.8398e-06
-1.89024e-08
9.82127e-06
-1.86492e-08
9.80299e-06
-1.84015e-08
9.78494e-06
-1.81591e-08
9.76712e-06
-1.79218e-08
9.74952e-06
-1.76896e-08
9.73215e-06
-1.74622e-08
9.71499e-06
-1.72395e-08
9.69804e-06
-1.70214e-08
9.6813e-06
-1.68078e-08
-1.65984e-08
1.65655e-05
-8.151e-07
1.68509e-05
-1.12309e-06
1.69819e-05
-1.21253e-06
1.69719e-05
-1.2145e-06
1.68431e-05
-1.1726e-06
1.66186e-05
-1.09697e-06
1.63185e-05
-9.97329e-07
1.59609e-05
-8.84704e-07
1.55631e-05
-7.68598e-07
1.51409e-05
-6.55953e-07
1.47081e-05
-5.51498e-07
1.4276e-05
-4.58141e-07
1.38534e-05
-3.7737e-07
1.34473e-05
-3.09846e-07
1.30623e-05
-2.54402e-07
1.27011e-05
-2.0983e-07
1.23647e-05
-1.74528e-07
1.20532e-05
-1.46865e-07
1.17659e-05
-1.25324e-07
1.15013e-05
-1.08573e-07
1.12578e-05
-9.54938e-08
1.10337e-05
-8.51836e-08
1.08271e-05
-7.69395e-08
1.06363e-05
-7.02282e-08
1.04598e-05
-6.46543e-08
1.0296e-05
-5.99303e-08
1.01436e-05
-5.58504e-08
1.00015e-05
-5.22685e-08
9.86856e-06
-4.90814e-08
9.74389e-06
-4.6216e-08
9.62667e-06
-4.36195e-08
9.51621e-06
-4.12534e-08
9.41187e-06
-3.90884e-08
9.3131e-06
-3.71014e-08
9.21942e-06
-3.52737e-08
9.1304e-06
-3.35893e-08
9.04565e-06
-3.20346e-08
8.96484e-06
-3.05971e-08
8.88765e-06
-2.9266e-08
8.81383e-06
-2.80315e-08
8.74311e-06
-2.68845e-08
8.67529e-06
-2.58171e-08
8.61016e-06
-2.4822e-08
8.54754e-06
-2.38925e-08
8.48727e-06
-2.30228e-08
8.42919e-06
-2.22075e-08
8.37318e-06
-2.14419e-08
8.3191e-06
-2.07218e-08
8.26685e-06
-2.00432e-08
8.21632e-06
-1.94027e-08
8.1674e-06
-1.87972e-08
8.12003e-06
-1.82241e-08
8.0741e-06
-1.76807e-08
8.02955e-06
-1.71649e-08
7.98631e-06
-1.66745e-08
7.9443e-06
-1.62078e-08
7.90348e-06
-1.57632e-08
7.86379e-06
-1.53391e-08
7.82516e-06
-1.49341e-08
7.78756e-06
-1.4547e-08
7.75094e-06
-1.41766e-08
7.71525e-06
-1.3822e-08
7.68046e-06
-1.34821e-08
7.64653e-06
-1.3156e-08
7.61341e-06
-1.2843e-08
7.58109e-06
-1.25423e-08
7.54952e-06
-1.22532e-08
7.51868e-06
-1.19751e-08
7.48854e-06
-1.17074e-08
7.45908e-06
-1.14495e-08
7.43026e-06
-1.12009e-08
7.40207e-06
-1.09612e-08
7.37448e-06
-1.07299e-08
7.34747e-06
-1.05065e-08
7.32102e-06
-1.02907e-08
7.29512e-06
-1.00822e-08
7.26974e-06
-9.8805e-09
7.24486e-06
-9.68541e-09
7.22047e-06
-9.49658e-09
7.19656e-06
-9.31374e-09
7.17311e-06
-9.13662e-09
7.1501e-06
-8.96497e-09
7.12751e-06
-8.79855e-09
7.10535e-06
-8.63715e-09
7.08359e-06
-8.48055e-09
7.06223e-06
-8.32855e-09
7.04124e-06
-8.18098e-09
7.02063e-06
-8.03759e-09
7.00037e-06
-7.89833e-09
6.98046e-06
-7.76294e-09
6.9609e-06
-7.63133e-09
6.94166e-06
-7.5033e-09
6.92274e-06
-7.37878e-09
6.90414e-06
-7.25757e-09
6.88583e-06
-7.1396e-09
6.86783e-06
-7.02472e-09
6.85011e-06
-6.91284e-09
6.83267e-06
-6.80381e-09
6.81551e-06
-6.69758e-09
6.79861e-06
-6.59402e-09
6.78197e-06
-6.49305e-09
6.76558e-06
-6.39458e-09
6.74944e-06
-6.29852e-09
6.73355e-06
-6.20479e-09
6.71788e-06
-6.1133e-09
6.70245e-06
-6.02402e-09
6.68724e-06
-5.93678e-09
6.67225e-06
-5.85164e-09
6.65747e-06
-5.76843e-09
6.6429e-06
-5.68715e-09
6.62853e-06
-5.60771e-09
6.61437e-06
-5.53006e-09
6.60039e-06
-5.45415e-09
6.58661e-06
-5.37991e-09
6.57302e-06
-5.3073e-09
6.5596e-06
-5.23627e-09
6.54637e-06
-5.16677e-09
6.53331e-06
-5.09876e-09
6.52042e-06
-5.03218e-09
6.5077e-06
-4.96701e-09
6.49514e-06
-4.9032e-09
6.48274e-06
-4.8407e-09
6.4705e-06
-4.77949e-09
6.45841e-06
-4.71953e-09
-4.66077e-09
1.61466e-05
1.50235e-05
1.3811e-05
1.25965e-05
1.14239e-05
1.03269e-05
9.3296e-06
8.44489e-06
7.67629e-06
7.02034e-06
6.46884e-06
6.0107e-06
5.63333e-06
5.32348e-06
5.06908e-06
4.85925e-06
4.68472e-06
4.53786e-06
4.41254e-06
4.30396e-06
4.20847e-06
4.12329e-06
4.04635e-06
3.97612e-06
3.91146e-06
3.85153e-06
3.79568e-06
3.74341e-06
3.69433e-06
3.64812e-06
3.6045e-06
3.56324e-06
3.52416e-06
3.48705e-06
3.45178e-06
3.41819e-06
3.38616e-06
3.35556e-06
3.32629e-06
3.29826e-06
3.27138e-06
3.24556e-06
3.22074e-06
3.19685e-06
3.17382e-06
3.15162e-06
3.13017e-06
3.10945e-06
3.08941e-06
3.07001e-06
3.05121e-06
3.03298e-06
3.0153e-06
2.99814e-06
2.98146e-06
2.96526e-06
2.94949e-06
2.93415e-06
2.91922e-06
2.90467e-06
2.8905e-06
2.87667e-06
2.86319e-06
2.85004e-06
2.83719e-06
2.82465e-06
2.8124e-06
2.80042e-06
2.78872e-06
2.77727e-06
2.76606e-06
2.7551e-06
2.74437e-06
2.73387e-06
2.72358e-06
2.71349e-06
2.70361e-06
2.69393e-06
2.68443e-06
2.67512e-06
2.66598e-06
2.65702e-06
2.64822e-06
2.63958e-06
2.6311e-06
2.62277e-06
2.61459e-06
2.60655e-06
2.59865e-06
2.59089e-06
2.58326e-06
2.57576e-06
2.56838e-06
2.56112e-06
2.55398e-06
2.54696e-06
2.54004e-06
2.53324e-06
2.52654e-06
2.51995e-06
2.51346e-06
2.50706e-06
2.50076e-06
2.49456e-06
2.48844e-06
2.48242e-06
2.47648e-06
2.47063e-06
2.46486e-06
2.45918e-06
2.45357e-06
2.44804e-06
2.44258e-06
2.4372e-06