/*--------------------------------*- C++ -*----------------------------------*\
| =========                 |                                                 |
| \\      /  F ield         | OpenFOAM: The Open Source CFD Toolbox           |
|  \\    /   O peration     | Version:                                        |
|   \\  /    A nd           | Website:  www.openfoam.com                      |
|    \\/     M anipulation  |                                                 |
\*---------------------------------------------------------------------------*/
FoamFile
{
    version     2.0;
    format      ascii;
    class       volVectorField;
    location    "563";
    object      U;
}
// * * * * * * * * * * * * * * * * * * * * * * * * * * * * * * * * * * * * * //

dimensions      [0 1 -1 0 0 0 0];


internalField   nonuniform List<vector> 
1250
(
(1.00001 -0.00306408 -1.73199e-14)
(1.00133 -0.00913691 2.88321e-14)
(1.00405 -0.0149449 -2.66474e-14)
(1.00799 -0.0203136 3.54042e-14)
(1.01298 -0.0251267 -1.86627e-14)
(1.01884 -0.0293187 -3.5713e-15)
(1.02538 -0.0328602 8.9962e-14)
(1.03243 -0.0357519 1.33661e-13)
(1.03983 -0.03802 -3.17055e-14)
(1.04744 -0.03971 -1.64525e-13)
(1.05514 -0.0408789 -2.70835e-13)
(1.06283 -0.0415905 -3.57084e-13)
(1.07045 -0.0419109 -4.25866e-13)
(1.07793 -0.0419047 -4.82771e-13)
(1.08523 -0.0416331 -5.27334e-13)
(1.09232 -0.0411516 -5.65559e-13)
(1.0992 -0.0405094 -5.93956e-13)
(1.10584 -0.0397491 -6.20651e-13)
(1.11226 -0.0389062 -6.376e-13)
(1.11845 -0.0380104 -6.57606e-13)
(1.12444 -0.0370853 -6.65333e-13)
(1.13021 -0.0361496 -6.82751e-13)
(1.13579 -0.0352178 -6.82069e-13)
(1.14119 -0.0343007 -7.00654e-13)
(1.14642 -0.033406 -6.9004e-13)
(1.15149 -0.0325394 -7.14398e-13)
(1.15641 -0.0317044 -6.90502e-13)
(1.1612 -0.0309033 -7.24345e-13)
(1.16585 -0.030137 -6.86245e-13)
(1.17038 -0.0294058 -7.28698e-13)
(1.17479 -0.0287093 -6.65584e-13)
(1.1791 -0.0280467 -7.5707e-13)
(1.1833 -0.0274168 -6.32418e-13)
(1.18741 -0.0268183 -8.50836e-13)
(1.19143 -0.0262498 -5.71351e-13)
(1.19536 -0.0257097 -1.04861e-12)
(1.19921 -0.0251965 -4.20163e-13)
(1.20298 -0.0247087 -8.02471e-13)
(1.20668 -0.0242447 -8.5314e-13)
(1.21031 -0.0238031 -6.84051e-13)
(1.21387 -0.0233825 -8.05859e-13)
(1.21736 -0.0229815 -6.93579e-13)
(1.22079 -0.022599 -9.34012e-13)
(1.22416 -0.0222336 -6.35076e-13)
(1.22747 -0.0218843 -9.4889e-13)
(1.23072 -0.02155 -4.15311e-13)
(1.23392 -0.0212297 -8.92538e-13)
(1.23706 -0.0209225 -9.15034e-13)
(1.24015 -0.0206274 -9.51029e-13)
(1.2432 -0.0203439 -9.53266e-13)
(1.24619 -0.0200709 -9.93842e-13)
(1.24914 -0.019808 -9.93361e-13)
(1.25203 -0.0195544 -1.02745e-12)
(1.25489 -0.0193095 -1.04641e-12)
(1.2577 -0.0190727 -1.02904e-12)
(1.26046 -0.0188437 -9.73809e-13)
(1.26318 -0.0186218 -1.09761e-12)
(1.26587 -0.0184066 -1.11276e-12)
(1.26851 -0.0181978 -1.12776e-12)
(1.2711 -0.017995 -1.14229e-12)
(1.27367 -0.0177978 -1.15672e-12)
(1.27619 -0.0176058 -1.17069e-12)
(1.27867 -0.0174189 -1.1847e-12)
(1.28112 -0.0172366 -1.19817e-12)
(1.28353 -0.0170588 -1.21173e-12)
(1.2859 -0.0168853 -1.22475e-12)
(1.28824 -0.0167157 -1.23788e-12)
(1.29054 -0.01655 -1.25056e-12)
(1.29281 -0.0163878 -1.26298e-12)
(1.29504 -0.0162291 -1.27486e-12)
(1.29724 -0.0160736 -1.28682e-12)
(1.29941 -0.0159213 -1.29783e-12)
(1.30155 -0.0157719 -1.31007e-12)
(1.30365 -0.0156254 -1.32059e-12)
(1.30572 -0.0154816 -1.33295e-12)
(1.30776 -0.0153404 -1.34205e-12)
(1.30977 -0.0152017 -1.35546e-12)
(1.31176 -0.0150655 -1.36204e-12)
(1.31371 -0.0149315 -1.37816e-12)
(1.31563 -0.0147998 -1.37958e-12)
(1.31752 -0.0146702 -1.40287e-12)
(1.31939 -0.0145426 -1.39245e-12)
(1.32123 -0.0144171 -1.43287e-12)
(1.32304 -0.0142935 -1.39579e-12)
(1.32482 -0.0141718 -1.47594e-12)
(1.32657 -0.0140518 -1.38818e-12)
(1.3283 -0.0139337 -1.22553e-12)
(1.33001 -0.0138172 -1.43969e-12)
(1.33169 -0.0137023 -1.38306e-12)
(1.33334 -0.0135891 -1.41316e-12)
(1.33497 -0.0134774 -1.40323e-12)
(1.33657 -0.0133673 -1.44684e-12)
(1.33815 -0.0132586 -1.41184e-12)
(1.33971 -0.0131513 -1.48661e-12)
(1.34124 -0.0130455 -1.41389e-12)
(1.34276 -0.012941 -1.24774e-12)
(1.34424 -0.0128378 -1.48194e-12)
(1.34571 -0.0127359 -1.45634e-12)
(1.34715 -0.0126354 -1.52067e-12)
(1.34858 -0.012536 -1.44725e-12)
(1.34998 -0.0124379 -1.56629e-12)
(1.35136 -0.0123409 -1.41445e-12)
(1.35272 -0.0122452 -1.64316e-12)
(1.35405 -0.0121505 -1.34499e-12)
(1.35537 -0.012057 -1.50477e-12)
(1.35667 -0.0119646 -1.54659e-12)
(1.35795 -0.0118733 -1.51186e-12)
(1.35921 -0.011783 -1.57338e-12)
(1.36046 -0.0116937 -1.50042e-12)
(1.36168 -0.0116055 -1.61499e-12)
(1.36289 -0.0115182 -1.46702e-12)
(1.36407 -0.011432 -1.68667e-12)
(1.36524 -0.0113467 -1.39928e-12)
(1.3664 -0.0112623 -1.56391e-12)
(1.36753 -0.0111789 -1.57533e-12)
(1.36865 -0.0110964 -1.58e-12)
(1.36975 -0.0110147 -1.58453e-12)
(1.37084 -0.010934 -1.58903e-12)
(1.37191 -0.0108541 -1.59338e-12)
(1.37296 -0.0107751 -1.59774e-12)
(1.374 -0.010697 -1.6019e-12)
(1.37502 -0.0106196 -1.60604e-12)
(1.37603 -0.0105431 -1.61001e-12)
(1.37702 -0.0104674 -1.61395e-12)
(1.378 -0.0103925 -1.61771e-12)
(1.00001 -0.00369647 -2.3516e-15)
(1.00159 -0.0110166 2.76335e-15)
(1.00485 -0.0179623 -1.5487e-15)
(1.00955 -0.0242941 1.60018e-15)
(1.01542 -0.0298769 7.11082e-16)
(1.02221 -0.0346497 -4.75492e-16)
(1.02971 -0.0385949 9.97766e-16)
(1.03769 -0.0417304 8.94955e-15)
(1.04597 -0.0441053 9.07255e-15)
(1.05439 -0.0457898 2.77108e-15)
(1.06282 -0.0468657 -6.17959e-15)
(1.07114 -0.0474193 -1.90527e-14)
(1.0793 -0.0475367 -3.12352e-14)
(1.08724 -0.0472999 -4.72846e-14)
(1.09491 -0.0467839 -5.94646e-14)
(1.10231 -0.0460552 -7.74803e-14)
(1.10943 -0.045171 -8.75709e-14)
(1.11627 -0.0441794 -1.07602e-13)
(1.12283 -0.0431195 -1.13723e-13)
(1.12914 -0.0420226 -1.37072e-13)
(1.1352 -0.0409132 -1.37029e-13)
(1.14103 -0.0398097 -1.65824e-13)
(1.14665 -0.0387256 -1.56119e-13)
(1.15207 -0.0376706 -1.9639e-13)
(1.1573 -0.0366511 -1.6644e-13)
(1.16237 -0.0356712 -2.32738e-13)
(1.16727 -0.0347332 -1.66632e-13)
(1.17203 -0.0338378 -2.89038e-13)
(1.17664 -0.032985 -1.41612e-13)
(1.18113 -0.0321739 -2.54757e-13)
(1.1855 -0.0314032 -2.44163e-13)
(1.18975 -0.0306712 -3.67318e-13)
(1.19389 -0.0299762 -5.01456e-13)
(1.19793 -0.0293161 -6.65142e-13)
(1.20186 -0.0286891 -7.50773e-13)
(1.20571 -0.0280932 -8.81101e-13)
(1.20946 -0.0275265 -9.53611e-13)
(1.21313 -0.0269872 -1.03016e-12)
(1.21671 -0.0264735 -1.11358e-12)
(1.22021 -0.0259838 -1.15267e-12)
(1.22363 -0.0255164 -1.22196e-12)
(1.22698 -0.0250699 -1.24176e-12)
(1.23025 -0.0246429 -1.31138e-12)
(1.23346 -0.024234 -1.31784e-12)
(1.23659 -0.0238421 -1.37845e-12)
(1.23966 -0.023466 -1.38079e-12)
(1.24266 -0.0231046 -1.42025e-12)
(1.2456 -0.022757 -1.44717e-12)
(1.24848 -0.0224223 -1.4757e-12)
(1.2513 -0.0220996 -1.49913e-12)
(1.25406 -0.0217881 -1.52484e-12)
(1.25676 -0.0214871 -1.54598e-12)
(1.2594 -0.0211959 -1.56903e-12)
(1.26199 -0.020914 -1.58838e-12)
(1.26453 -0.0206407 -1.61111e-12)
(1.26701 -0.0203755 -1.62315e-12)
(1.26944 -0.020118 -1.64239e-12)
(1.27182 -0.0198676 -1.66086e-12)
(1.27415 -0.0196241 -1.67883e-12)
(1.27643 -0.0193869 -1.69602e-12)
(1.27867 -0.0191557 -1.71273e-12)
(1.28086 -0.0189303 -1.72883e-12)
(1.283 -0.0187103 -1.74447e-12)
(1.2851 -0.0184954 -1.75973e-12)
(1.28715 -0.0182854 -1.77459e-12)
(1.28916 -0.0180801 -1.78895e-12)
(1.29113 -0.0178791 -1.80303e-12)
(1.29305 -0.0176824 -1.81673e-12)
(1.29494 -0.0174898 -1.83012e-12)
(1.29678 -0.0173009 -1.84302e-12)
(1.29859 -0.0171158 -1.85572e-12)
(1.30036 -0.0169343 -1.86779e-12)
(1.30209 -0.0167561 -1.88001e-12)
(1.30378 -0.0165812 -1.89127e-12)
(1.30544 -0.0164095 -1.90307e-12)
(1.30706 -0.0162408 -1.91351e-12)
(1.30865 -0.016075 -1.92502e-12)
(1.3102 -0.0159121 -1.93431e-12)
(1.31172 -0.0157519 -1.94568e-12)
(1.31321 -0.0155943 -1.95389e-12)
(1.31466 -0.0154394 -1.96513e-12)
(1.31608 -0.0152869 -1.97243e-12)
(1.31748 -0.0151368 -1.98279e-12)
(1.31884 -0.0149891 -1.99105e-12)
(1.32017 -0.0148437 -1.99698e-12)
(1.32147 -0.0147004 -2.01299e-12)
(1.32275 -0.0145594 -2.01013e-12)
(1.324 -0.0144204 -2.02434e-12)
(1.32522 -0.0142835 -2.02661e-12)
(1.32641 -0.0141487 -2.0321e-12)
(1.32758 -0.0140157 -2.03511e-12)
(1.32872 -0.0138847 -2.03975e-12)
(1.32984 -0.0137555 -2.04539e-12)
(1.33093 -0.0136282 -2.04499e-12)
(1.332 -0.0135026 -2.06e-12)
(1.33304 -0.0133788 -2.04996e-12)
(1.33406 -0.0132567 -2.06549e-12)
(1.33506 -0.0131363 -2.05981e-12)
(1.33604 -0.0130175 -2.07483e-12)
(1.337 -0.0129003 -2.06478e-12)
(1.33793 -0.0127847 -2.08317e-12)
(1.33884 -0.0126707 -2.07074e-12)
(1.33973 -0.0125581 -2.08722e-12)
(1.34061 -0.012447 -2.08349e-12)
(1.34146 -0.0123374 -2.08387e-12)
(1.3423 -0.0122292 -2.09411e-12)
(1.34311 -0.0121224 -2.08684e-12)
(1.34391 -0.012017 -2.1009e-12)
(1.34469 -0.011913 -2.089e-12)
(1.34545 -0.0118103 -2.10693e-12)
(1.34619 -0.0117088 -2.09187e-12)
(1.34692 -0.0116087 -2.10937e-12)
(1.34763 -0.0115098 -2.1006e-12)
(1.34833 -0.0114122 -2.10558e-12)
(1.34901 -0.0113158 -2.10688e-12)
(1.34967 -0.0112205 -2.10804e-12)
(1.35032 -0.0111265 -2.10909e-12)
(1.35095 -0.0110336 -2.11003e-12)
(1.35157 -0.0109418 -2.11086e-12)
(1.35218 -0.0108512 -2.11156e-12)
(1.35277 -0.0107617 -2.11211e-12)
(1.35335 -0.0106733 -2.11257e-12)
(1.35391 -0.0105859 -2.11289e-12)
(1.35446 -0.0104996 -2.11311e-12)
(1.355 -0.0104143 -2.11323e-12)
(1.00001 -0.00450291 -1.82953e-16)
(1.00197 -0.0134114 1.4555e-16)
(1.00601 -0.0217646 -3.81443e-17)
(1.01175 -0.0292325 6.935e-17)
(1.0188 -0.0356776 6.33533e-17)
(1.02682 -0.0410613 -3.41743e-17)
(1.03554 -0.0453891 -1.92613e-16)
(1.04469 -0.0487089 -8.71337e-17)
(1.05406 -0.0511059 6.81872e-16)
(1.06345 -0.0526861 1.38318e-16)
(1.07274 -0.053564 9.32403e-16)
(1.08181 -0.0538551 -1.05645e-15)
(1.09059 -0.0536704 1.42986e-16)
(1.09904 -0.0531123 -4.46324e-15)
(1.10713 -0.0522716 -1.48321e-15)
(1.11485 -0.0512261 -1.03912e-14)
(1.12222 -0.0500411 -3.41116e-15)
(1.12923 -0.048769 -1.92091e-14)
(1.13592 -0.0474516 -3.57833e-15)
(1.1423 -0.0461205 -3.17514e-14)
(1.1484 -0.0447993 -2.37251e-15)
(1.15423 -0.0435051 -4.78373e-14)
(1.15982 -0.0422493 -5.00017e-15)
(1.16518 -0.0410394 -5.73457e-14)
(1.17033 -0.0398797 2.44277e-15)
(1.17529 -0.0387722 -1.04214e-13)
(1.18007 -0.0377173 -2.46787e-14)
(1.18468 -0.0367142 -1.67408e-13)
(1.18914 -0.0357613 -5.0199e-13)
(1.19344 -0.0348566 -2.07278e-12)
(1.1976 -0.0339977 -1.81761e-12)
(1.20163 -0.0331821 -3.14321e-12)
(1.20552 -0.0324073 -2.58742e-12)
(1.2093 -0.0316708 -2.49771e-12)
(1.21295 -0.0309701 -2.42441e-12)
(1.2165 -0.030303 -2.36839e-12)
(1.21993 -0.0296673 -2.3258e-12)
(1.22326 -0.0290608 -2.29106e-12)
(1.22648 -0.0284815 -2.26859e-12)
(1.22961 -0.0279278 -2.24874e-12)
(1.23264 -0.0273977 -2.23888e-12)
(1.23558 -0.0268898 -2.22876e-12)
(1.23842 -0.0264026 -2.227e-12)
(1.24119 -0.0259346 -2.2239e-12)
(1.24386 -0.0254847 -2.22689e-12)
(1.24646 -0.0250515 -2.22927e-12)
(1.24897 -0.0246342 -2.23418e-12)
(1.25141 -0.0242315 -2.24028e-12)
(1.25377 -0.0238426 -2.24775e-12)
(1.25606 -0.0234667 -2.25593e-12)
(1.25827 -0.0231029 -2.26508e-12)
(1.26042 -0.0227505 -2.27467e-12)
(1.2625 -0.0224089 -2.28507e-12)
(1.26451 -0.0220774 -2.29555e-12)
(1.26646 -0.0217554 -2.30677e-12)
(1.26834 -0.0214425 -2.31778e-12)
(1.27017 -0.021138 -2.32883e-12)
(1.27193 -0.0208417 -2.34037e-12)
(1.27364 -0.020553 -2.35157e-12)
(1.27529 -0.0202716 -2.36306e-12)
(1.27689 -0.0199972 -2.37446e-12)
(1.27844 -0.0197293 -2.38584e-12)
(1.27993 -0.0194677 -2.39703e-12)
(1.28137 -0.0192122 -2.40812e-12)
(1.28277 -0.0189624 -2.41888e-12)
(1.28411 -0.0187181 -2.42955e-12)
(1.28542 -0.0184792 -2.43981e-12)
(1.28667 -0.0182453 -2.44989e-12)
(1.28788 -0.0180162 -2.45959e-12)
(1.28905 -0.0177919 -2.46899e-12)
(1.29018 -0.0175722 -2.47792e-12)
(1.29127 -0.0173568 -2.48655e-12)
(1.29232 -0.0171456 -2.49487e-12)
(1.29333 -0.0169385 -2.50272e-12)
(1.2943 -0.0167354 -2.5102e-12)
(1.29524 -0.0165361 -2.51717e-12)
(1.29615 -0.0163405 -2.52396e-12)
(1.29702 -0.0161484 -2.53015e-12)
(1.29785 -0.0159599 -2.53606e-12)
(1.29866 -0.0157748 -2.54148e-12)
(1.29943 -0.015593 -2.54652e-12)
(1.30017 -0.0154144 -2.55127e-12)
(1.30089 -0.0152389 -2.55534e-12)
(1.30158 -0.0150665 -2.55963e-12)
(1.30223 -0.014897 -2.56262e-12)
(1.30287 -0.0147304 -2.56636e-12)
(1.30347 -0.0145667 -2.56881e-12)
(1.30405 -0.0144056 -2.57132e-12)
(1.30461 -0.0142473 -2.57351e-12)
(1.30514 -0.0140916 -2.57493e-12)
(1.30565 -0.0139384 -2.5765e-12)
(1.30613 -0.0137877 -2.57673e-12)
(1.3066 -0.0136395 -2.57807e-12)
(1.30704 -0.0134937 -2.57711e-12)
(1.30747 -0.0133502 -2.57833e-12)
(1.30787 -0.013209 -2.57678e-12)
(1.30825 -0.01307 -2.57738e-12)
(1.30862 -0.0129332 -2.57547e-12)
(1.30896 -0.0127986 -2.5759e-12)
(1.30929 -0.012666 -2.57377e-12)
(1.3096 -0.0125355 -2.57371e-12)
(1.3099 -0.012407 -2.57199e-12)
(1.31018 -0.0122805 -2.57075e-12)
(1.31044 -0.0121559 -2.57006e-12)
(1.31069 -0.0120332 -2.56759e-12)
(1.31092 -0.0119123 -2.56724e-12)
(1.31114 -0.0117933 -2.56423e-12)
(1.31134 -0.011676 -2.5638e-12)
(1.31153 -0.0115605 -2.56036e-12)
(1.31171 -0.0114467 -2.55952e-12)
(1.31187 -0.0113346 -2.55607e-12)
(1.31203 -0.0112241 -2.55425e-12)
(1.31217 -0.0111152 -2.55129e-12)
(1.3123 -0.0110079 -2.54839e-12)
(1.31241 -0.0109022 -2.54537e-12)
(1.31252 -0.0107979 -2.54219e-12)
(1.31262 -0.0106952 -2.53889e-12)
(1.3127 -0.010594 -2.53534e-12)
(1.31278 -0.0104941 -2.5317e-12)
(1.31284 -0.0103957 -2.52793e-12)
(1.3129 -0.0102987 -2.52402e-12)
(1.31295 -0.010203 -2.51998e-12)
(1.31298 -0.0101087 -2.51574e-12)
(1.31301 -0.0100157 -2.51147e-12)
(1.31303 -0.00992392 -2.50697e-12)
(1.00001 -0.00557297 1.09142e-16)
(1.00252 -0.0165782 -1.94968e-16)
(1.00772 -0.0266905 2.60919e-16)
(1.01496 -0.0354846 -3.2496e-16)
(1.02361 -0.0428797 1.90811e-16)
(1.03325 -0.048888 -3.22651e-16)
(1.04355 -0.0535491 1.28315e-16)
(1.05419 -0.0569575 -3.00616e-16)
(1.06489 -0.0592521 -1.70965e-16)
(1.07547 -0.0605883 -2.99868e-17)
(1.08577 -0.0611233 -2.70294e-16)
(1.09568 -0.0610091 -3.20515e-17)
(1.10514 -0.0603871 1.44911e-16)
(1.11411 -0.0593835 -1.45255e-15)
(1.12259 -0.0581064 2.84228e-15)
(1.13057 -0.056646 -6.32478e-15)
(1.13809 -0.0550745 8.01694e-15)
(1.14515 -0.0534483 -1.03695e-14)
(1.15181 -0.0518098 2.12667e-14)
(1.15807 -0.0501898 -3.29418e-14)
(1.16399 -0.0486093 4.75144e-14)
(1.16957 -0.0470822 -1.03225e-13)
(1.17486 -0.0456167 1.23462e-13)
(1.17987 -0.044217 -5.80851e-14)
(1.18463 -0.0428841 -3.30088e-14)
(1.18914 -0.0416174 -4.38813e-13)
(1.19343 -0.0404147 -1.25139e-13)
(1.19751 -0.0392735 -8.96221e-13)
(1.2014 -0.0381903 -6.51219e-13)
(1.20509 -0.0371619 -1.71161e-12)
(1.20861 -0.0361849 -1.67183e-12)
(1.21196 -0.035256 -2.32197e-12)
(1.21515 -0.0343719 -2.24325e-12)
(1.21818 -0.0335299 -2.34215e-12)
(1.22106 -0.032727 -2.42738e-12)
(1.22381 -0.0319606 -2.49688e-12)
(1.22641 -0.0312284 -2.55476e-12)
(1.22889 -0.030528 -2.60298e-12)
(1.23124 -0.0298575 -2.64448e-12)
(1.23347 -0.0292148 -2.67982e-12)
(1.23559 -0.0285982 -2.7111e-12)
(1.2376 -0.028006 -2.7384e-12)
(1.23949 -0.0274367 -2.76311e-12)
(1.24129 -0.0268889 -2.78517e-12)
(1.24299 -0.0263613 -2.80531e-12)
(1.24459 -0.0258526 -2.82372e-12)
(1.2461 -0.0253618 -2.84076e-12)
(1.24752 -0.0248878 -2.8567e-12)
(1.24886 -0.0244296 -2.8718e-12)
(1.25012 -0.0239864 -2.88618e-12)
(1.2513 -0.0235573 -2.90019e-12)
(1.2524 -0.0231416 -2.91369e-12)
(1.25344 -0.0227386 -2.92683e-12)
(1.2544 -0.0223477 -2.93959e-12)
(1.2553 -0.0219682 -2.95202e-12)
(1.25614 -0.0215995 -2.96406e-12)
(1.25691 -0.0212413 -2.97564e-12)
(1.25763 -0.0208929 -2.98672e-12)
(1.25828 -0.0205539 -2.99733e-12)
(1.25889 -0.020224 -3.0073e-12)
(1.25944 -0.0199027 -3.01656e-12)
(1.25995 -0.0195896 -3.02519e-12)
(1.2604 -0.0192845 -3.03312e-12)
(1.26081 -0.018987 -3.04031e-12)
(1.26118 -0.0186968 -3.04675e-12)
(1.26151 -0.0184136 -3.05246e-12)
(1.26179 -0.0181372 -3.05743e-12)
(1.26204 -0.0178673 -3.06162e-12)
(1.26225 -0.0176038 -3.06505e-12)
(1.26242 -0.0173463 -3.06775e-12)
(1.26256 -0.0170946 -3.06983e-12)
(1.26267 -0.0168486 -3.07109e-12)
(1.26275 -0.0166081 -3.07176e-12)
(1.2628 -0.0163729 -3.07177e-12)
(1.26282 -0.0161429 -3.0711e-12)
(1.26281 -0.0159178 -3.06986e-12)
(1.26277 -0.0156976 -3.06808e-12)
(1.26271 -0.015482 -3.06577e-12)
(1.26263 -0.0152709 -3.06283e-12)
(1.26253 -0.0150643 -3.05946e-12)
(1.2624 -0.0148619 -3.05566e-12)
(1.26225 -0.0146637 -3.05145e-12)
(1.26208 -0.0144695 -3.04675e-12)
(1.2619 -0.0142793 -3.04172e-12)
(1.26169 -0.0140929 -3.03631e-12)
(1.26147 -0.0139101 -3.03062e-12)
(1.26123 -0.013731 -3.02457e-12)
(1.26098 -0.0135555 -3.01821e-12)
(1.26071 -0.0133833 -3.01158e-12)
(1.26043 -0.0132145 -3.00466e-12)
(1.26013 -0.0130489 -2.99757e-12)
(1.25982 -0.0128865 -2.99021e-12)
(1.2595 -0.0127271 -2.98297e-12)
(1.25916 -0.0125708 -2.97557e-12)
(1.25882 -0.0124174 -2.96865e-12)
(1.25846 -0.0122669 -2.96177e-12)
(1.2581 -0.0121191 -2.95551e-12)
(1.25772 -0.0119741 -2.94942e-12)
(1.25734 -0.0118317 -2.94383e-12)
(1.25694 -0.0116919 -2.93834e-12)
(1.25654 -0.0115547 -2.93301e-12)
(1.25613 -0.0114199 -2.92769e-12)
(1.25571 -0.0112875 -2.92208e-12)
(1.25529 -0.0111574 -2.91646e-12)
(1.25486 -0.0110297 -2.91031e-12)
(1.25442 -0.0109042 -2.90405e-12)
(1.25398 -0.0107808 -2.89718e-12)
(1.25353 -0.0106597 -2.89009e-12)
(1.25308 -0.0105406 -2.88237e-12)
(1.25262 -0.0104235 -2.8745e-12)
(1.25215 -0.0103085 -2.86616e-12)
(1.25169 -0.0101953 -2.85773e-12)
(1.25121 -0.0100841 -2.84908e-12)
(1.25074 -0.00997481 -2.84034e-12)
(1.25026 -0.00986729 -2.83149e-12)
(1.24977 -0.00976156 -2.82253e-12)
(1.24929 -0.00965757 -2.81348e-12)
(1.2488 -0.00955528 -2.80435e-12)
(1.2483 -0.00945466 -2.79506e-12)
(1.24781 -0.00935567 -2.78568e-12)
(1.24731 -0.00925828 -2.77614e-12)
(1.24681 -0.00916245 -2.76653e-12)
(1.24631 -0.00906815 -2.75666e-12)
(1.24581 -0.00897535 -2.74673e-12)
(1.2453 -0.00888401 -2.7365e-12)
(1 -0.00706068 3.67998e-16)
(1.00344 -0.0209814 -7.03531e-16)
(1.01047 -0.0333119 8.00478e-16)
(1.01988 -0.0435968 -1.22825e-15)
(1.03072 -0.0519683 1.29433e-15)
(1.04251 -0.0585434 -1.78057e-15)
(1.05485 -0.0634158 1.75974e-15)
(1.06735 -0.0667495 -1.81818e-15)
(1.07967 -0.0687561 1.32935e-15)
(1.0916 -0.0696527 -7.33994e-16)
(1.10298 -0.0696479 -1.04269e-15)
(1.11369 -0.0689373 3.22718e-15)
(1.12368 -0.067697 -6.60441e-15)
(1.13293 -0.0660795 9.41222e-15)
(1.14144 -0.0642115 -1.03003e-14)
(1.14926 -0.0621946 2.83301e-15)
(1.15641 -0.0601073 2.34421e-14)
(1.16294 -0.0580081 2.36647e-14)
(1.16892 -0.0559388 -1.93546e-14)
(1.17438 -0.0539274 -1.11014e-14)
(1.17936 -0.0519917 -1.35757e-13)
(1.18392 -0.0501416 -4.53766e-14)
(1.18809 -0.0483813 -3.53256e-14)
(1.1919 -0.0467112 -2.28375e-12)
(1.19538 -0.0451292 -2.2038e-12)
(1.19855 -0.0436314 -2.10358e-12)
(1.20144 -0.0422135 -2.15271e-12)
(1.20407 -0.0408706 -1.97972e-12)
(1.20645 -0.0395977 -1.26455e-12)
(1.2086 -0.03839 -3.18632e-12)
(1.21054 -0.0372432 -3.63043e-12)
(1.21228 -0.036153 -3.69858e-12)
(1.21383 -0.0351155 -3.63025e-12)
(1.2152 -0.0341273 -3.60448e-12)
(1.2164 -0.033185 -3.57465e-12)
(1.21745 -0.0322857 -3.51637e-12)
(1.21834 -0.0314266 -3.47853e-12)
(1.2191 -0.0306053 -3.45558e-12)
(1.21973 -0.0298193 -3.44281e-12)
(1.22024 -0.0290666 -3.43798e-12)
(1.22063 -0.0283452 -3.43771e-12)
(1.22091 -0.0276533 -3.44097e-12)
(1.22109 -0.0269891 -3.44671e-12)
(1.22117 -0.026351 -3.4529e-12)
(1.22117 -0.0257377 -3.46044e-12)
(1.22108 -0.0251477 -3.46838e-12)
(1.22091 -0.0245797 -3.47755e-12)
(1.22067 -0.0240326 -3.48829e-12)
(1.22036 -0.0235053 -3.50025e-12)
(1.21999 -0.0229968 -3.51324e-12)
(1.21955 -0.022506 -3.52673e-12)
(1.21906 -0.0220321 -3.5402e-12)
(1.21852 -0.0215743 -3.55295e-12)
(1.21793 -0.0211317 -3.56485e-12)
(1.21729 -0.0207037 -3.57534e-12)
(1.21661 -0.0202895 -3.58435e-12)
(1.21589 -0.0198886 -3.59157e-12)
(1.21514 -0.0195002 -3.59693e-12)
(1.21435 -0.0191239 -3.60038e-12)
(1.21353 -0.0187591 -3.60195e-12)
(1.21267 -0.0184053 -3.60152e-12)
(1.2118 -0.0180621 -3.59935e-12)
(1.21089 -0.017729 -3.59548e-12)
(1.20997 -0.0174055 -3.59006e-12)
(1.20902 -0.0170914 -3.58315e-12)
(1.20806 -0.0167861 -3.5748e-12)
(1.20707 -0.0164894 -3.56521e-12)
(1.20607 -0.016201 -3.55455e-12)
(1.20506 -0.0159205 -3.54282e-12)
(1.20403 -0.0156475 -3.53032e-12)
(1.20299 -0.0153819 -3.51687e-12)
(1.20194 -0.0151234 -3.50279e-12)
(1.20088 -0.0148717 -3.48818e-12)
(1.19981 -0.0146265 -3.47294e-12)
(1.19873 -0.0143876 -3.45726e-12)
(1.19764 -0.0141548 -3.44127e-12)
(1.19655 -0.013928 -3.42496e-12)
(1.19546 -0.0137068 -3.40844e-12)
(1.19436 -0.0134911 -3.39162e-12)
(1.19325 -0.0132807 -3.3747e-12)
(1.19214 -0.0130754 -3.35764e-12)
(1.19104 -0.0128751 -3.34044e-12)
(1.18992 -0.0126796 -3.32338e-12)
(1.18881 -0.0124887 -3.30596e-12)
(1.1877 -0.0123023 -3.28903e-12)
(1.18659 -0.0121203 -3.27141e-12)
(1.18547 -0.0119425 -3.25447e-12)
(1.18436 -0.0117687 -3.23715e-12)
(1.18325 -0.0115989 -3.21989e-12)
(1.18214 -0.011433 -3.20299e-12)
(1.18103 -0.0112708 -3.18671e-12)
(1.17993 -0.0111121 -3.17255e-12)
(1.17882 -0.010957 -3.15972e-12)
(1.17772 -0.0108053 -3.1497e-12)
(1.17662 -0.0106568 -3.1423e-12)
(1.17553 -0.0105116 -3.13692e-12)
(1.17444 -0.0103694 -3.13391e-12)
(1.17335 -0.0102303 -3.13105e-12)
(1.17227 -0.0100941 -3.12742e-12)
(1.17119 -0.0099607 -3.12196e-12)
(1.17011 -0.0098301 -3.11468e-12)
(1.16904 -0.0097022 -3.10529e-12)
(1.16798 -0.0095769 -3.09385e-12)
(1.16692 -0.00945414 -3.08086e-12)
(1.16586 -0.00933386 -3.06607e-12)
(1.16481 -0.00921598 -3.05008e-12)
(1.16376 -0.00910044 -3.03314e-12)
(1.16272 -0.00898717 -3.01471e-12)
(1.16168 -0.00887612 -2.99615e-12)
(1.16065 -0.00876723 -2.97828e-12)
(1.15963 -0.00866044 -2.96129e-12)
(1.15861 -0.00855569 -2.94511e-12)
(1.15759 -0.00845294 -2.92965e-12)
(1.15658 -0.00835212 -2.91461e-12)
(1.15558 -0.0082532 -2.89975e-12)
(1.15458 -0.00815612 -2.88501e-12)
(1.15359 -0.00806084 -2.87006e-12)
(1.1526 -0.00796731 -2.85494e-12)
(1.15162 -0.00787549 -2.83937e-12)
(1.15064 -0.00778534 -2.82357e-12)
(1.14967 -0.0076968 -2.80733e-12)
(1.14871 -0.00760986 -2.79088e-12)
(1.14775 -0.00752446 -2.77397e-12)
(1.1468 -0.00744057 -2.757e-12)
(1.14585 -0.00735815 -2.73953e-12)
(0.999964 -0.00925276 8.32403e-16)
(1.00504 -0.0273631 -1.77954e-15)
(1.01518 -0.0425131 1.8698e-15)
(1.02786 -0.0545044 -3.60998e-15)
(1.0417 -0.0638615 4.42516e-15)
(1.05627 -0.0708354 -6.78454e-15)
(1.0711 -0.0756233 8.35245e-15)
(1.08565 -0.0785133 -1.15291e-14)
(1.09952 -0.0798208 1.36336e-14)
(1.11246 -0.0798444 -1.64345e-14)
(1.12429 -0.0788626 1.65589e-14)
(1.13493 -0.0771307 -1.34587e-14)
(1.14435 -0.074873 6.1262e-16)
(1.15259 -0.0722774 2.80893e-14)
(1.15969 -0.0694937 -8.9305e-14)
(1.16576 -0.0666369 2.06772e-13)
(1.17087 -0.0637903 1.80811e-13)
(1.17513 -0.0610113 -1.87487e-13)
(1.17862 -0.0583363 -3.18705e-13)
(1.18144 -0.055786 -6.19638e-13)
(1.18366 -0.0533698 -6.90109e-13)
(1.18535 -0.0510896 -8.52859e-13)
(1.18657 -0.0489424 -4.97061e-13)
(1.18738 -0.0469223 -1.77716e-12)
(1.18781 -0.0450219 -2.22702e-12)
(1.18791 -0.0432334 -2.41176e-12)
(1.18772 -0.0415489 -2.59108e-12)
(1.18727 -0.0399609 -2.53134e-12)
(1.18658 -0.0384623 -1.53297e-12)
(1.18567 -0.0370468 -2.48567e-12)
(1.18458 -0.0357085 -3.42598e-12)
(1.18331 -0.034442 -3.57217e-12)
(1.1819 -0.0332425 -3.63273e-12)
(1.18035 -0.0321055 -3.88853e-12)
(1.17867 -0.0310269 -3.57967e-12)
(1.17689 -0.0300031 -3.32539e-12)
(1.17502 -0.0290305 -3.51218e-12)
(1.17306 -0.028106 -3.65026e-12)
(1.17102 -0.0272265 -3.75212e-12)
(1.16892 -0.0263894 -3.82814e-12)
(1.16677 -0.0255921 -3.87863e-12)
(1.16457 -0.0248321 -3.92058e-12)
(1.16233 -0.0241073 -3.94356e-12)
(1.16005 -0.0234155 -3.95891e-12)
(1.15775 -0.0227549 -3.9777e-12)
(1.15542 -0.0221236 -3.99532e-12)
(1.15307 -0.02152 -4.0257e-12)
(1.15071 -0.0209423 -4.06055e-12)
(1.14834 -0.0203893 -4.09398e-12)
(1.14596 -0.0198595 -4.12225e-12)
(1.14358 -0.0193515 -4.14333e-12)
(1.1412 -0.0188643 -4.15628e-12)
(1.13882 -0.0183967 -4.16088e-12)
(1.13645 -0.0179475 -4.15775e-12)
(1.13408 -0.017516 -4.14726e-12)
(1.13172 -0.017101 -4.13058e-12)
(1.12937 -0.0167018 -4.10851e-12)
(1.12703 -0.0163176 -4.08207e-12)
(1.1247 -0.0159475 -4.05192e-12)
(1.12239 -0.0155909 -4.01899e-12)
(1.12009 -0.0152471 -3.98386e-12)
(1.11781 -0.0149155 -3.94724e-12)
(1.11554 -0.0145955 -3.90965e-12)
(1.11329 -0.0142865 -3.87139e-12)
(1.11106 -0.0139881 -3.83289e-12)
(1.10885 -0.0136996 -3.79441e-12)
(1.10666 -0.0134208 -3.75619e-12)
(1.10449 -0.013151 -3.71839e-12)
(1.10233 -0.01289 -3.68112e-12)
(1.1002 -0.0126373 -3.64458e-12)
(1.09808 -0.0123925 -3.60859e-12)
(1.09599 -0.0121554 -3.57353e-12)
(1.09392 -0.0119256 -3.53916e-12)
(1.09186 -0.0117027 -3.50574e-12)
(1.08983 -0.0114866 -3.47285e-12)
(1.08782 -0.0112768 -3.44119e-12)
(1.08582 -0.0110732 -3.40974e-12)
(1.08385 -0.0108755 -3.37983e-12)
(1.0819 -0.0106835 -3.34972e-12)
(1.07997 -0.0104969 -3.32152e-12)
(1.07805 -0.0103156 -3.29234e-12)
(1.07616 -0.0101392 -3.26585e-12)
(1.07429 -0.00996773 -3.2379e-12)
(1.07244 -0.00980088 -3.2122e-12)
(1.0706 -0.00963852 -3.18682e-12)
(1.06879 -0.00948047 -3.15962e-12)
(1.067 -0.00932657 -3.13886e-12)
(1.06522 -0.00917668 -3.10983e-12)
(1.06346 -0.00903065 -3.08712e-12)
(1.06172 -0.00888834 -3.07161e-12)
(1.06 -0.00874963 -3.06919e-12)
(1.0583 -0.00861439 -3.07996e-12)
(1.05662 -0.00848249 -3.09578e-12)
(1.05495 -0.00835383 -3.13005e-12)
(1.0533 -0.0082283 -3.1623e-12)
(1.05167 -0.00810579 -3.19472e-12)
(1.05006 -0.0079862 -3.21934e-12)
(1.04846 -0.00786944 -3.21593e-12)
(1.04688 -0.0077554 -3.19432e-12)
(1.04531 -0.00764402 -3.15946e-12)
(1.04377 -0.0075352 -3.11837e-12)
(1.04223 -0.00742885 -3.07235e-12)
(1.04072 -0.00732491 -3.0254e-12)
(1.03922 -0.0072233 -2.97932e-12)
(1.03773 -0.00712394 -2.93166e-12)
(1.03626 -0.00702677 -2.89083e-12)
(1.03481 -0.00693172 -2.84635e-12)
(1.03337 -0.00683873 -2.80347e-12)
(1.03194 -0.00674774 -2.77985e-12)
(1.03053 -0.00665868 -2.76644e-12)
(1.02914 -0.0065715 -2.75701e-12)
(1.02775 -0.00648614 -2.74777e-12)
(1.02639 -0.00640256 -2.73661e-12)
(1.02503 -0.00632071 -2.7226e-12)
(1.02369 -0.00624052 -2.70545e-12)
(1.02236 -0.00616196 -2.68552e-12)
(1.02105 -0.00608499 -2.66305e-12)
(1.01975 -0.00600955 -2.6387e-12)
(1.01846 -0.0059356 -2.61281e-12)
(1.01718 -0.00586311 -2.5861e-12)
(1.01592 -0.00579203 -2.55881e-12)
(1.01466 -0.00572233 -2.53154e-12)
(1.01342 -0.00565397 -2.50426e-12)
(1.0122 -0.00558692 -2.47761e-12)
(1.01098 -0.00552113 -2.45118e-12)
(0.999763 -0.0132515 1.15235e-15)
(1.00811 -0.0370234 -2.38888e-15)
(1.02363 -0.0550088 3.09089e-15)
(1.04108 -0.0687075 -5.40976e-15)
(1.05872 -0.0790529 7.77585e-15)
(1.07619 -0.086206 -1.23288e-14)
(1.09285 -0.090472 1.865e-14)
(1.108 -0.0923352 -2.85275e-14)
(1.12127 -0.0922698 4.3197e-14)
(1.13245 -0.0906981 -6.58966e-14)
(1.14151 -0.0880063 9.99287e-14)
(1.1485 -0.0845404 -1.52246e-13)
(1.15353 -0.0805952 2.31737e-13)
(1.15679 -0.0764094 -3.54217e-13)
(1.15849 -0.0721631 5.42333e-13)
(1.15884 -0.0679872 2.64906e-12)
(1.15804 -0.0639707 -1.33458e-12)
(1.15629 -0.0601682 -3.74278e-12)
(1.15375 -0.0566079 -3.08285e-12)
(1.15057 -0.0532987 -3.60719e-12)
(1.14686 -0.0502367 -2.4027e-12)
(1.14273 -0.04741 1.67727e-12)
(1.13827 -0.0448025 -1.45328e-12)
(1.13355 -0.0423962 -5.33901e-12)
(1.12862 -0.0401732 -4.66161e-12)
(1.12355 -0.0381163 -5.1278e-12)
(1.11836 -0.0362099 -3.92737e-12)
(1.1131 -0.0344399 1.63163e-12)
(1.10779 -0.0327938 -1.45292e-12)
(1.10246 -0.0312606 -5.67499e-12)
(1.09713 -0.0298306 -5.80724e-12)
(1.09181 -0.0284952 -5.07467e-12)
(1.08653 -0.0272467 -5.6881e-12)
(1.08128 -0.0260784 -4.32182e-12)
(1.07609 -0.0249841 2.00466e-12)
(1.07096 -0.0239581 -8.85863e-13)
(1.06589 -0.0229955 -6.01314e-12)
(1.0609 -0.0220915 -5.60197e-12)
(1.05598 -0.0212419 -5.29883e-12)
(1.05114 -0.0204427 -5.04141e-12)
(1.04639 -0.0196903 -4.84834e-12)
(1.04171 -0.0189813 -4.72452e-12)
(1.03712 -0.0183127 -4.54411e-12)
(1.03262 -0.0176815 -4.52399e-12)
(1.02819 -0.0170852 -4.57899e-12)
(1.02386 -0.0165213 -4.67905e-12)
(1.0196 -0.0159875 -4.87418e-12)
(1.01543 -0.0154817 -4.96278e-12)
(1.01134 -0.015002 -4.9706e-12)
(1.00733 -0.0145467 -4.92092e-12)
(1.00339 -0.0141141 -4.83315e-12)
(0.999537 -0.0137026 -4.72184e-12)
(0.995757 -0.0133109 -4.59778e-12)
(0.99205 -0.0129377 -4.46883e-12)
(0.988416 -0.0125819 -4.34015e-12)
(0.984852 -0.0122422 -4.2153e-12)
(0.981357 -0.0119178 -4.09637e-12)
(0.977929 -0.0116075 -3.98467e-12)
(0.974566 -0.0113107 -3.88061e-12)
(0.971268 -0.0110265 -3.78426e-12)
(0.968031 -0.0107541 -3.69547e-12)
(0.964855 -0.0104929 -3.61383e-12)
(0.961738 -0.0102421 -3.53886e-12)
(0.958679 -0.0100013 -3.46987e-12)
(0.955675 -0.0097699 -3.40637e-12)
(0.952726 -0.00954733 -3.34784e-12)
(0.94983 -0.00933313 -3.29371e-12)
(0.946985 -0.00912686 -3.24348e-12)
(0.944191 -0.00892812 -3.19665e-12)
(0.941446 -0.00873651 -3.15302e-12)
(0.938748 -0.00855167 -3.11197e-12)
(0.936097 -0.00837327 -3.07343e-12)
(0.933492 -0.00820099 -3.03679e-12)
(0.93093 -0.00803453 -3.00239e-12)
(0.928411 -0.00787361 -2.96915e-12)
(0.925935 -0.00771799 -2.93811e-12)
(0.923499 -0.0075674 -2.90718e-12)
(0.921103 -0.00742162 -2.87937e-12)
(0.918746 -0.00728044 -2.84932e-12)
(0.916426 -0.00714365 -2.82537e-12)
(0.914144 -0.00701105 -2.79425e-12)
(0.911897 -0.00688248 -2.7762e-12)
(0.909686 -0.00675775 -2.74042e-12)
(0.907509 -0.00663671 -2.73093e-12)
(0.905366 -0.0065192 -2.69036e-12)
(0.903255 -0.00640508 -2.68027e-12)
(0.901176 -0.00629421 -2.66454e-12)
(0.899129 -0.00618646 -2.58971e-12)
(0.897111 -0.00608171 -2.66402e-12)
(0.895124 -0.00597985 -2.7972e-12)
(0.893165 -0.00588075 -3.00699e-12)
(0.891235 -0.00578433 -3.1892e-12)
(0.889333 -0.00569047 -3.38857e-12)
(0.887458 -0.00559908 -3.61474e-12)
(0.885609 -0.00551007 -3.66234e-12)
(0.883787 -0.00542335 -3.68055e-12)
(0.881989 -0.00533885 -3.48661e-12)
(0.880217 -0.00525648 -3.11845e-12)
(0.878469 -0.00517617 -2.83713e-12)
(0.876744 -0.00509784 -2.62057e-12)
(0.875043 -0.00502143 -2.46545e-12)
(0.873365 -0.00494688 -2.34005e-12)
(0.871709 -0.00487411 -2.25971e-12)
(0.870074 -0.00480308 -2.18422e-12)
(0.868461 -0.00473372 -2.13646e-12)
(0.866869 -0.00466598 -2.1148e-12)
(0.865298 -0.00459981 -2.02327e-12)
(0.863747 -0.00453515 -2.09108e-12)
(0.862215 -0.00447196 -2.29795e-12)
(0.860702 -0.00441019 -2.40375e-12)
(0.859209 -0.0043498 -2.43775e-12)