/*--------------------------------*- C++ -*----------------------------------*\
| =========                 |                                                 |
| \\      /  F ield         | OpenFOAM: The Open Source CFD Toolbox           |
|  \\    /   O peration     | Version:                                        |
|   \\  /    A nd           | Website:  www.openfoam.com                      |
|    \\/     M anipulation  |                                                 |
\*---------------------------------------------------------------------------*/
FoamFile
{
    version     2.0;
    format      ascii;
    class       surfaceScalarField;
    location    "125.2";
    object      phi;
}
// * * * * * * * * * * * * * * * * * * * * * * * * * * * * * * * * * * * * * //

dimensions      [0 3 -1 0 0 0 0];
oriented        oriented;


internalField   nonuniform List<scalar> 
2201
(
0.0035717
0.000297486
-0.00386919
0.00392521
-0.000353509
0.00545889
-0.00153367
0.00526399
0.000194897
0.00362696
0.00163703
0.000402567
0.00322439
-0.00522188
0.00562445
-0.0107086
0.00548669
-0.0145692
0.0038606
0.00290555
-0.0174747
0.00511059
0.00059214
-0.00540524
0.00232626
0.00243082
-0.00399561
0.0047882
-0.0115613
0.00776062
-0.0178098
0.00788554
-0.0227126
0.00812717
-0.02529
0.00820185
-0.0269619
0.0071586
-0.0288636
0.00576222
0.00424082
-0.0301988
-0.00698231
0.00733054
0.000243911
-0.0146662
0.0101148
-0.0205248
0.0106467
-0.0240904
0.0113263
-0.0275668
0.0113619
-0.0301279
0.0106883
-0.031198
0.0092719
-0.0315999
0.0075605
-0.0318253
0.00598766
0.00448123
-0.0320657
-0.0202541
0.0130794
0.0145052
-0.0246893
0.01455
-0.028163
0.0141205
-0.030369
0.0135322
-0.031601
0.012594
-0.0323728
0.0114601
-0.0326514
0.00955046
-0.032804
0.00771308
-0.0327286
0.00591231
0.00439827
-0.0326457
-0.0276105
0.0170645
0.0236253
-0.0298736
0.0168131
-0.031503
0.0157499
-0.0325486
0.0145778
-0.0329858
0.0130312
-0.0330613
0.0115356
-0.0330794
0.0095686
-0.0331011
0.00773471
-0.033031
0.00584224
0.0042173
-0.03285
-0.0309407
0.0191556
0.0288496
-0.0320242
0.0178967
-0.0328269
0.0165526
-0.0332078
0.0149587
-0.0334161
0.0132395
-0.0333881
0.0115076
-0.0333549
0.0095354
-0.033301
0.00768079
-0.0332314
0.00577264
0.0039916
-0.0330057
-0.0322744
0.020028
0.031402
-0.0329036
0.0185259
-0.0333135
0.0169624
-0.033507
0.0151522
-0.0336719
0.0134044
-0.0336631
0.0114987
-0.0336786
0.00955095
-0.0335864
0.00758856
-0.0334828
0.00566908
0.00375907
-0.0332503
-0.0328943
0.0204754
0.0324468
-0.0333288
0.0189605
-0.0335332
0.0171668
-0.0337734
0.0153924
-0.0338989
0.0135299
-0.033934
0.0115339
-0.0339927
0.00960962
-0.0338905
0.00748635
-0.0337565
0.00553512
0.00352276
-0.0335202
-0.0332963
0.0208641
0.0329077
-0.0335651
0.0192293
-0.0337227
0.0173244
-0.034038
0.0157076
-0.0341334
0.0136253
-0.0342207
0.0116212
-0.0343056
0.00969453
-0.0342156
0.00739638
-0.0340757
0.00539523
0.00327335
-0.0338263
-0.0335633
-0.0336856
0.0193515
-0.0339905
0.0176293
-0.0342825
0.0159996
-0.0343879
0.0137307
-0.0345839
0.0118172
-0.0346228
0.00973346
-0.0345948
0.00736837
-0.0344588
0.00525922
0.00299355
-0.034179
-0.0339053
0.0195696
-0.0342757
0.0179998
-0.0345328
0.0162567
-0.0347716
0.0139695
-0.0349613
0.0120069
-0.0350423
0.00981446
-0.0350391
0.0073652
-0.0349089
0.00512905
0.00273986
-0.0346552
-0.0341019
-0.0345235
0.0184214
-0.0349064
0.0166396
-0.0351014
0.0141644
-0.0353718
0.0122774
-0.0354887
0.00993132
-0.0354609
0.00733738
-0.0353857
0.0050539
0.00247979
-0.0351257
-0.0348351
0.0190179
-0.0352173
0.0170218
-0.0354169
0.014364
-0.0358002
0.0126607
-0.035893
0.0100241
-0.0359339
0.00737822
-0.035838
0.00495806
0.00227463
-0.0356329
-0.0349947
-0.0354767
0.0175039
-0.0358747
0.014762
-0.0361563
0.0129423
-0.0364179
0.0102857
-0.0364633
0.00742367
-0.0363716
0.0048664
0.00213294
-0.03623
-0.0358543
0.018179
-0.0363112
0.0152189
-0.0366303
0.0132614
-0.0370121
0.0106676
-0.0370437
0.00745522
-0.037041
0.00486369
0.0019116
-0.0368196
-0.0363073
0.019026
-0.0367447
0.0156563
-0.0372158
0.0137324
-0.0375788
0.0110306
-0.0376886
0.0075651
-0.0377083
0.00488332
0.00165518
-0.0374518
-0.0366574
-0.0372905
0.0162894
-0.0377299
0.0141718
-0.038131
0.0114317
-0.0383526
0.00778671
-0.0383611
0.00489183
0.00151462
-0.0382206
-0.0377973
0.0170479
-0.0382229
0.0145974
-0.0387697
0.0119784
-0.0389449
0.00796199
-0.0390811
0.00502802
0.00137917
-0.0389457
-0.0383921
0.018142
-0.0388703
0.0150756
-0.0394362
0.0125443
-0.0397256
0.0082514
-0.0398535
0.00515595
0.00132229
-0.0397966
-0.0389369
-0.0395085
0.0156471
-0.0400878
0.0131236
-0.040498
0.00866161
-0.0405869
0.00524481
0.00151899
-0.0407836
0.0102542
0.00238905
0.00746858
0.0027856
0.00456388
0.0029047
0.00203524
0.00252864
0.000539994
0.00149524
0.000283971
0.000256023
0.000974141
-0.000690171
0.00218395
-0.0012098
0.00317123
-0.000987286
-0.000697959
0.0165314
0.00391394
0.0143391
0.00497788
0.0116748
0.00556901
0.00893843
0.00526505
0.00654533
0.00388835
0.00496533
0.00183602
0.00430432
-2.91576e-05
0.00452082
-0.0014263
0.00471644
-0.00118291
-0.00138677
0.0160355
0.014613
0.00640041
0.0127292
0.00745279
0.010464
0.00753025
0.00821862
0.00613372
0.0064189
0.00363574
0.00538595
0.00100379
0.00512007
-0.00116042
0.00397882
-4.16638e-05
0.00283597
0.0128852
0.0110714
0.00911015
0.00701576
0.00503897
0.00561253
0.00379206
0.0022507
0.00019759
0.00243405
-0.00665288
0.00680881
0.0106883
0.00142866
-0.00290592
0.00658527
-0.0110509
0.0105791
-0.0183909
0.0141488
0.0159227
-0.0137717
-0.0209766
0.017784
-0.0256989
0.018871
0.0190734
-0.0271248
-0.0297544
0.0215006
0.0207211
-0.0318465
0.0213214
0.00116806
0.0530337
-0.0526828
0.000855523
0.0554925
-0.05518
0.000789431
0.0583877
-0.0583216
0.000989339
0.0612735
-0.0614734
0.00132754
0.0646814
-0.0650196
0.00161335
0.0685066
-0.0687924
0.00177051
0.0726882
-0.0728454
0.00179583
0.0772299
-0.0772552
0.00174221
0.082117
-0.0820634
0.00167305
0.0873411
-0.087272
0.00161736
0.092951
-0.0928953
0.00158439
0.0990157
-0.0989828
0.0015571
0.105577
-0.10555
0.00153039
0.112599
-0.112572
0.00149351
0.120095
-0.120059
0.00143219
0.128124
-0.128063
0.00135802
0.13671
-0.136636
0.00128048
0.14589
-0.145812
0.0011991
0.155738
-0.155656
0.00112255
0.16627
-0.166194
0.00104702
0.177538
-0.177463
0.000962298
0.189608
-0.189524
0.000868363
0.20253
-0.202436
0.000764186
0.216359
-0.216255
0.000650649
0.231169
-0.231056
0.000530714
0.247017
-0.246897
0.000402484
0.263989
-0.26386
0.000271911
0.282177
-0.282047
0.000141539
0.301665
-0.301534
0.322548
-0.322407
0.00477652
0.053502
0.0045393
0.0557297
0.00435855
0.0585684
0.00410263
0.0615294
0.00397504
0.064809
0.00405793
0.0684237
0.0043179
0.0724283
0.00463128
0.0769165
0.00490268
0.0818456
0.00508066
0.0871632
0.00517325
0.0928584
0.00517567
0.0990133
0.00511553
0.105637
0.00501294
0.112701
0.00487244
0.120236
0.00469447
0.128302
0.00450886
0.136896
0.00430885
0.14609
0.00408488
0.155962
0.00384913
0.166506
0.00358798
0.177799
0.00329516
0.189901
0.00297582
0.202849
0.00262741
0.216708
0.00225436
0.231542
0.00185403
0.247418
0.0014282
0.264414
0.000981385
0.282624
0.000506198
0.30214
0.323055
0.00862716
0.0535364
0.00874282
0.0556141
0.00912281
0.0581885
0.00960075
0.0610515
0.00996931
0.0644404
0.0101048
0.0682882
0.0100715
0.0724616
0.00994435
0.0770436
0.00977619
0.0820138
0.00960462
0.0873347
0.00943377
0.0930292
0.00926622
0.0991809
0.00908349
0.10582
0.00888133
0.112903
0.00862333
0.120494
0.00829131
0.128634
0.00793024
0.137257
0.00752281
0.146497
0.00707927
0.156405
0.00662762
0.166958
0.0061441
0.178283
0.00562571
0.19042
0.00507012
0.203404
0.00447461
0.217303
0.00384071
0.232176
0.00316468
0.248094
0.0024436
0.265136
0.00168129
0.283386
0.000867258
0.302954
0.323922
0.0131035
0.0535565
0.0128044
0.0559132
0.0123192
0.0586736
0.0118867
0.061484
0.0118168
0.0645103
0.0120932
0.0680118
0.0124898
0.072065
0.0128289
0.0767046
0.0130499
0.0817928
0.0131318
0.0872528
0.0130671
0.0930939
0.0128639
0.0993841
0.012581
0.106103
0.0122484
0.113236
0.0118474
0.120895
0.0113937
0.129088
0.0109439
0.137707
0.0104255
0.147016
0.00986383
0.156967
0.00927099
0.16755
0.00861102
0.178943
0.00789293
0.191138
0.00711844
0.204179
0.00628799
0.218134
0.00540318
0.233061
0.00445662
0.24904
0.00344534
0.266147
0.00237054
0.284461
0.00122345
0.304101
0.325145
0.0159212
0.0166281
0.0174388
0.0178518
0.0178677
0.0177519
0.0176193
0.0174831
0.0173408
0.0171743
0.0169515
0.0933167
0.016684
0.0996515
0.0163728
0.106414
0.0160059
0.113603
0.0155026
0.121398
0.014924
0.129666
0.0142958
0.138335
0.013547
0.147764
0.0127709
0.157743
0.0119584
0.168363
0.0110764
0.179825
0.010138
0.192076
0.00913914
0.205178
0.00807053
0.219202
0.00693472
0.234197
0.00571932
0.250256
0.00442351
0.267443
0.00304367
0.285841
0.00157095
0.305574
0.326716
0.0205033
0.0201228
0.0196616
0.0191199
0.0184555
0.0178145
0.0171006
0.0162502
0.0153922
0.0144413
0.0133966
0.0122826
0.0110825
0.00979435
0.00842025
0.00694659
0.0053757
0.00369968
0.00190927
0.0311436
0.0333461
-0.0297021
-0.0347876
0.0325918
0.0297053
-0.0311534
0.0348047
0.0262746
-0.0284876
0.0364312
0.0236281
-0.0252546
0.037487
0.0197899
-0.0208456
0.0386191
0.0160258
-0.017158
0.0395103
0.012212
-0.0131032
0.0402058
0.00842529
-0.00912079
0.0405095
0.00425947
-0.00456315
0.000537967
-0.00081204
0.0305299
0.0312887
-0.0284726
0.0319861
0.0282491
0.0337279
0.0245328
0.0355462
0.0218098
0.0367571
0.018579
0.0377213
0.0150616
0.0385289
0.0114044
0.0391839
0.00777031
0.0396073
0.0038361
0.00034864
0.0297638
0.0290534
-0.0275285
0.0314583
0.0265546
0.0328829
0.0231082
0.0344548
0.0202379
0.0358401
0.0171938
0.036969
0.0139326
0.0377379
0.0106356
0.038434
0.00707422
0.0387424
0.00352765
0.000145376
0.0289928
0.0268945
-0.0268339
0.0309017
0.0246457
0.0323054
0.0217045
0.0337395
0.0188037
0.0348956
0.0160377
0.0361188
0.0127094
0.0368571
0.00989729
0.037617
0.00631435
0.038005
0.00313961
-7.01398e-05
0.0282372
0.0250296
-0.0263724
0.030204
0.0226789
0.0316742
0.0202344
0.0331512
0.0173266
0.0342586
0.0149303
0.0353567
0.0116113
0.0361757
0.0090783
0.0367602
0.00572991
0.0373114
0.00258841
-0.000210616
0.0277508
0.0232939
-0.0260151
0.0295294
0.0209004
0.0310349
0.0187289
0.0324338
0.0159277
0.0336637
0.0137003
0.0346359
0.0106391
0.0355583
0.00815587
0.0360746
0.00521363
0.0366073
0.00205569
-0.000422929
0.0273577
0.0214314
-0.0254951
0.029015
0.019243
0.0305241
0.0172198
0.0318023
0.0146495
0.0330264
0.0124762
0.033987
0.00967853
0.0348487
0.00729415
0.0354624
0.00459991
0.035875
0.00164314
-0.00077788
0.0268812
0.0195337
-0.0249836
0.028533
0.0175912
0.0300591
0.0156937
0.0313309
0.0133778
0.0324746
0.0113326
0.0334499
0.00870323
0.0342644
0.00647959
0.0348887
0.00397567
0.0353015
0.00123029
-0.00110927
0.0264432
0.017718
-0.0246275
0.0280476
0.0159868
0.0295674
0.0141739
0.0308664
0.0120787
0.0319991
0.0101999
0.0329383
0.00776407
0.0337684
0.00564947
0.0343978
0.00334628
0.0348087
0.000819357
-0.00142623
0.0261377
0.015949
-0.0243686
0.0276668
0.0144577
0.0291364
0.0127043
0.030404
0.0108111
0.0315576
0.00904636
0.032462
0.00685958
0.033267
0.00484455
0.0339252
0.00268804
0.0343287
0.00041586
-0.00175277
0.0258615
0.0142113
-0.0241238
0.0274061
0.012913
0.0288027
0.0113078
0.0300461
0.00956776
0.0311628
0.00792963
0.0320674
0.005955
0.0328266
0.00408531
0.033449
0.0020656
0.0338907
-2.58323e-05
-0.00204105
0.0256171
0.0125255
-0.0239313
0.0271818
0.0113484
0.02856
0.00992954
0.0297736
0.00835413
0.0308704
0.00683279
0.0317643
0.00506113
0.0325036
0.00334599
0.0330842
0.001485
0.0335171
-0.000458665
-0.00235033
0.0254364
0.0108915
-0.0238024
0.0269907
0.00979408
0.0283703
0.00854991
0.0295613
0.00716318
0.0306359
0.00575815
0.0315143
0.00418281
0.0322473
0.00261298
0.032798
0.000934307
0.0332189
-0.000879645
-0.00265159
0.0253577
0.00928995
-0.0237561
0.0268672
0.00828453
0.0282436
0.00717351
0.0294238
0.00598305
0.0304721
0.00470981
0.0313278
0.00332715
0.0320439
0.00189689
0.0325737
0.000404479
0.0329751
-0.00128107
-0.00292677
0.0253847
0.00767103
-0.0237658
0.0268544
0.00681486
0.0281941
0.00583384
0.0293653
0.00481184
0.0303791
0.00369593
0.0312167
0.0024896
0.0318953
0.00121825
0.0323908
-9.09372e-05
0.0327725
-0.00166284
-0.00315993
0.0254898
0.00602742
-0.0238462
0.0269795
0.00532514
0.0282745
0.00453888
0.0294286
0.00365775
0.0303933
0.00273115
0.0312345
0.00164841
0.0318647
0.000588118
0.0323372
-0.000563503
0.0326558
-0.00198144
-0.00335414
0.025656
0.00440597
-0.0240345
0.0271855
0.0037956
0.0284809
0.0032435
0.0296208
0.0025179
0.0304942
0.00185769
0.0312254
0.000917204
0.0319085
-9.49597e-05
0.0323596
-0.00101462
0.0325458
-0.00216762
-0.00345402
0.0259303
0.00278544
-0.0243098
0.0274218
0.00230409
0.0287362
0.00192907
0.0299104
0.00134376
0.0308924
0.00087568
0.0315309
0.00027872
0.0318632
-0.000427302
0.032211
-0.00136244
0.0322439
-0.0022005
-0.00327581
0.0265477
0.00113056
-0.0248929
0.0279402
0.000911592
0.0292469
0.000622418
0.0302838
0.000306855
0.0311435
1.59984e-05
0.0317565
-0.000334282
0.032019
-0.000689793
0.0317839
-0.00112738
0.0312203
-0.00163691
-0.00225432
0.0216605
-0.02053
0.0225721
0.0231945
0.0235014
0.0235174
0.0231831
0.0224933
0.0213659
0.019729
0.0216516
0.042138
0.0240076
0.0402024
-0.0425584
0.0264748
0.0374132
-0.0398803
0.0347873
-0.0380146
0.0185675
0.0412708
0.0212072
0.0394983
0.0236999
0.0377096
0.0261383
0.0349748
0.032453
0.0128134
0.0409871
0.0155634
0.0399888
0.0181938
0.0386404
0.0207928
0.0368993
0.0232995
0.0352029
0.025542
0.0327324
0.0304665
0.00425376
0.0394852
0.0070667
0.039343
0.00985494
0.0389622
0.0126048
0.0382373
0.0153002
0.0372934
0.0178744
0.0360661
0.0203865
0.0343872
0.0227736
0.0328157
0.0249219
0.0305841
0.0285546
0.00427162
0.0367339
0.00701865
0.036596
0.00974084
0.03624
0.0124143
0.0355638
0.0150417
0.0346659
0.0175429
0.0335649
0.019985
0.0319452
0.0222769
0.0305238
0.0244226
0.0284384
0.0266048
0.00428723
0.0340377
0.00697179
0.0339114
0.00962848
0.0335833
0.0122366
0.0329557
0.014812
0.0320906
0.0172503
0.0311266
0.0196022
0.0295933
0.0218092
0.0283168
0.0238932
0.0263544
0.0244828
0.00429802
0.031399
0.00692645
0.031283
0.00952788
0.0309819
0.012064
0.0304197
0.0145737
0.0295809
0.0169786
0.0287217
0.0192797
0.0272922
0.0214729
0.0261236
0.0234112
0.0244161
0.0223989
0.00431186
0.0288135
0.00688367
0.0287112
0.00943798
0.0284276
0.0119271
0.0279305
0.0143732
0.0271347
0.0167135
0.0263813
0.0189438
0.0250619
0.0212212
0.0238463
0.0231066
0.0225307
0.0205219
0.00433479
0.0262778
0.00685526
0.0261907
0.0093539
0.0259289
0.011793
0.0254914
0.0142059
0.0247218
0.0165367
0.0240506
0.0186432
0.0229554
0.020893
0.0215965
0.0228851
0.0205387
0.0187795
0.00436472
0.0237878
0.00684356
0.0237119
0.0093079
0.0234646
0.0116945
0.0231048
0.0140267
0.0223896
0.0163875
0.0216898
0.0184741
0.0208689
0.020565
0.0195055
0.0226365
0.0184671
0.0170474
0.00440752
0.0213347
0.00683756
0.0212818
0.00926365
0.0210385
0.0116529
0.0207156
0.013907
0.0201355
0.0162155
0.0193813
0.0183566
0.0187277
0.0203329
0.0175292
0.0223602
0.0164398
0.0152838
0.00445921
0.0189102
0.00686581
0.0188752
0.00923652
0.0186678
0.0116108
0.0183413
0.0138507
0.0178956
0.0160958
0.0171362
0.0182487
0.0165748
0.0202157
0.0155623
0.0221513
0.0145041
0.0135038
0.00451134
0.0165149
0.00690159
0.016485
0.00924991
0.0163195
0.0115978
0.0159934
0.0138176
0.0156757
0.0160347
0.0149192
0.0181499
0.0144596
0.0201459
0.0135662
0.0220242
0.0126259
0.0117256
0.00458203
0.0141358
0.0069515
0.0141155
0.00927761
0.0139934
0.0116275
0.0136435
0.0138367
0.0134665
0.0160278
0.0127281
0.0181166
0.0123709
0.0201123
0.0115705
0.0219736
0.0107646
0.00994303
0.00465923
0.0117626
0.00702866
0.0117461
0.00934435
0.0116777
0.0116621
0.0113257
0.0139093
0.0112193
0.0160642
0.0105732
0.0181663
0.0102687
0.0201484
0.00958842
0.0219856
0.00892739
0.00816288
0.00474365
0.00939941
0.0071115
0.00937824
0.0094666
0.00932257
0.0117398
0.00905252
0.0140177
0.00894139
0.0161457
0.00844524
0.0182705
0.00814391
0.0202566
0.00760225
0.0220997
0.0070843
0.00641645
0.00484216
0.0070368
0.00722506
0.00699534
0.00961321
0.00693442
0.0119044
0.00676136
0.0142022
0.00664357
0.0163256
0.00632182
0.0184638
0.00600572
0.0204351
0.005631
0.0223045
0.00521487
0.00468639
0.00494965
0.00465227
0.00736649
0.0045785
0.0097299
0.00457101
0.0120932
0.00439808
0.0143879
0.00434883
0.0165421
0.00416764
0.0187195
0.00382836
0.0206727
0.00367772
0.0225851
0.00330254
0.0029617
0.00516014
0.00215777
0.00765442
0.00208422
0.0100705
0.00215497
0.0125018
0.00196674
0.0148596
0.001991
0.017101
0.00192626
0.0192716
0.00165778
0.0212723
0.00167698
0.0232031
0.00137176
0.00127195
0.00442832
0.00651254
0.00866751
0.0106343
0.0126253
0.0145515
0.0162093
0.0178863
0.019258
0.0385812
0.00668739
0.00749058
0.00799597
0.00856252
0.00559395
0.0480647
0.00531927
0.0516195
0.00491596
0.0555191
0.00439455
0.0597382
0.00393568
0.0642804
0.00354722
0.0691604
0.00321352
0.0743025
0.00292515
0.079661
0.00268678
0.085267
0.00248614
0.0911217
0.00228703
0.0972307
0.00207063
0.103637
0.00183044
0.110399
0.00158983
0.117634
0.00137514
0.125441
0.00119396
0.133843
0.00104552
0.142873
0.000920281
0.152574
0.000808512
0.163012
0.000703782
0.174185
0.000606596
0.186111
0.000517576
0.198828
0.000436897
0.212416
0.000362947
0.226941
0.000292911
0.242472
0.000228938
0.259085
0.000160387
0.276899
7.76024e-05
0.295998
4.22823e-05
0.316647
0.338564
0.00741931
0.0492079
0.00658793
0.0524508
0.00575504
0.0563519
0.00509521
0.0603981
0.00447804
0.0648976
0.00388894
0.0697495
0.0033465
0.0748449
0.00288957
0.080118
0.00255164
0.0856049
0.00232164
0.0913517
0.00215725
0.0973951
0.00200625
0.103788
0.00183493
0.110571
0.00164191
0.117827
0.00144007
0.125643
0.00124934
0.134034
0.00107779
0.143045
0.000929749
0.152722
0.000801067
0.16314
0.000688475
0.174298
0.000587541
0.186212
0.00049796
0.198918
0.000418089
0.212496
0.000345936
0.227014
0.000277979
0.24254
0.000216987
0.259146
0.000151164
0.276965
7.30758e-05
0.296076
3.88052e-05
0.316682
0.338603
-0.0347238
0.0491442
-0.0349487
0.0526757
-0.0350057
0.056409
-0.0351813
0.0605736
-0.0353167
0.0650329
-0.0353122
0.0697451
-0.0351142
0.074647
-0.0347207
0.0797244
-0.0341652
0.0850495
-0.0334763
0.0906627
-0.0326915
0.0966103
-0.0318432
0.10294
-0.0309455
0.109673
-0.0300019
0.116884
-0.028992
0.124633
-0.0278998
0.132942
-0.0267175
0.141863
-0.025444
0.151449
-0.024071
0.161767
-0.0225875
0.172814
-0.020985
0.184609
-0.0192573
0.19719
-0.0173982
0.210636
-0.0154009
0.225016
-0.0132596
0.240399
-0.0109646
0.256851
-0.00850026
0.274501
-0.00588897
0.293465
-0.00302833
0.313821
0.335575
-0.0313791
0.0493698
-0.0316652
0.0529618
-0.0320958
0.0568396
-0.0323886
0.0608665
-0.032507
0.0651513
-0.032478
0.069716
-0.0322814
0.0744504
-0.0319353
0.0793782
-0.0314328
0.0845471
-0.0307854
0.0900154
-0.0300299
0.0958547
-0.0292004
0.10211
-0.0283282
0.108801
-0.0274181
0.115974
-0.0264626
0.123678
-0.0254465
0.131926
-0.0243637
0.14078
-0.0232025
0.150287
-0.0219502
0.160515
-0.0205927
0.171457
-0.019124
0.18314
-0.0175406
0.195607
-0.0158395
0.208935
-0.0140146
0.223191
-0.012061
0.238445
-0.00997115
0.254761
-0.00773204
0.272262
-0.00534572
0.291079
-0.00275771
0.311233
0.332817
-0.0294543
0.0503365
-0.0298572
0.0533647
-0.0298007
0.0567831
-0.0297031
0.0607689
-0.0296477
0.0650958
-0.0294808
0.0695492
-0.0291647
0.0741343
-0.0287251
0.0789386
-0.0281894
0.0840114
-0.0275925
0.0894185
-0.0269541
0.0952163
-0.0262839
0.10144
-0.0255726
0.108089
-0.024809
0.11521
-0.0239653
0.122834
-0.0230334
0.130994
-0.0220174
0.139764
-0.0209273
0.149197
-0.0197602
0.159348
-0.0185088
0.170206
-0.0171657
0.181797
-0.0157265
0.194167
-0.014187
0.207396
-0.0125417
0.221546
-0.0107863
0.23669
-0.00891376
0.252889
-0.00691249
0.27026
-0.00477365
0.28894
-0.00246856
0.308928
0.330348
-0.0250676
0.0501495
-0.0249862
0.0532833
-0.0253034
0.0571003
-0.0256906
0.0611561
-0.0258362
0.0652415
-0.0257744
0.0694873
-0.0255878
0.0739478
-0.0252902
0.078641
-0.0248787
0.0835999
-0.0243623
0.0889021
-0.023766
0.0946199
-0.023108
0.100782
-0.0224128
0.107394
-0.0216855
0.114483
-0.0209227
0.122071
-0.0201137
0.130185
-0.0192497
0.1389
-0.0183168
0.148264
-0.0173049
0.158336
-0.0162086
0.169109
-0.0150288
0.180618
-0.0137649
0.192904
-0.0124145
0.206045
-0.0109723
0.220104
-0.00943409
0.235151
-0.00779534
0.25125
-0.00604541
0.26851
-0.00417156
0.287066
-0.00216075
0.306917
0.328188
-0.0212329
0.0505368
-0.0218528
0.0539032
-0.0222837
0.0575312
-0.0223452
0.0612176
-0.0222168
0.0651131
-0.0219736
0.0692441
-0.0216214
0.0735956
-0.021203
0.0782226
-0.0207537
0.0831506
-0.0202988
0.0884472
-0.0198395
0.0941607
-0.0193742
0.100317
-0.0188882
0.106908
-0.0183656
0.11396
-0.0177796
0.121485
-0.0171255
0.129531
-0.0164009
0.138175
-0.0156095
0.147473
-0.0147461
0.157472
-0.0138088
0.168172
-0.0127975
0.179606
-0.0117137
0.19182
-0.0105572
0.204889
-0.00932661
0.218873
-0.00801698
0.233842
-0.00662414
0.249857
-0.00513761
0.267024
-0.00354288
0.285471
-0.00183646
0.305211
0.326351
-0.0176516
0.0510304
-0.0177739
0.0540255
-0.0178201
0.0575774
-0.0178955
0.061293
-0.0179565
0.0651741
-0.0179417
0.0692293
-0.0178459
0.0734999
-0.0176541
0.0780308
-0.0173608
0.0828572
-0.0169767
0.0880631
-0.0165226
0.0937066
-0.0160182
0.0998123
-0.0154902
0.10638
-0.0149481
0.113418
-0.0143989
0.120936
-0.0138389
0.128971
-0.0132596
0.137596
-0.0126423
0.146856
-0.0119671
0.156797
-0.0112259
0.167431
-0.0104185
0.178799
-0.00954628
0.190947
-0.00860902
0.203952
-0.00760682
0.217871
-0.00653994
0.232775
-0.0054058
0.248723
-0.00419412
0.265812
-0.00289085
0.284168
-0.00149851
0.303818
0.324853
-0.0134387
0.0513658
-0.0137011
0.0542879
-0.0139591
0.0578354
-0.0140052
0.0613391
-0.0138916
0.0650604
-0.0136595
0.0689972
-0.0133609
0.0732013
-0.0130566
0.0777264
-0.01278
0.0825807
-0.0125222
0.0878053
-0.0122663
0.0934507
-0.0120022
0.0995482
-0.0117214
0.106099
-0.0114103
0.113107
-0.011053
0.120579
-0.0106501
0.128568
-0.0102034
0.137149
-0.00971917
0.146372
-0.00919268
0.156271
-0.00862179
0.16686
-0.00800075
0.178178
-0.00733015
0.190277
-0.00661034
0.203232
-0.00583971
0.2171
-0.00501999
0.231955
-0.00415112
0.247854
-0.00322252
0.264883
-0.00222049
0.283166
-0.00115022
0.302748
0.323702
-0.00949102
0.0517361
-0.00972673
0.0545237
-0.00989463
0.0580033
-0.00998267
0.0614272
-0.0100427
0.0651204
-0.0100469
0.0690015
-0.00998247
0.0731368
-0.00983811
0.0775821
-0.00961764
0.0823602
-0.00934256
0.0875302
-0.00903145
0.0931396
-0.00869676
0.0992135
-0.00835393
0.105757
-0.00801303
0.112766
-0.00768313
0.120249
-0.00736051
0.128245
-0.00703703
0.136826
-0.00669618
0.146031
-0.0063261
0.155901
-0.00592747
0.166461
-0.00549958
0.17775
-0.00504041
0.189818
-0.00454839
0.20274
-0.00402178
0.216574
-0.00346015
0.231394
-0.00286437
0.247259
-0.0022265
0.264246
-0.00153458
0.282474
-0.000794067
0.302008
0.322908
-0.00491604
0.052089
-0.00532201
0.0549296
-0.00558103
0.0582623
-0.00555001
0.0613961
-0.00532341
0.0648938
-0.0050395
0.0687175
-0.00480569
0.072903
-0.00466019
0.0774365
-0.00459189
0.0822919
-0.00455477
0.0874931
-0.00450831
0.0930931
-0.00443825
0.0991434
-0.00435456
0.105673
-0.00425093
0.112662
-0.0041232
0.120121
-0.00397983
0.128102
-0.00381945
0.136665
-0.00363801
0.145849
-0.00343593
0.155699
-0.00321595
0.166241
-0.00297669
0.177511
-0.00272404
0.189565
-0.00245743
0.202473
-0.00217516
0.216292
-0.00187489
0.231093
-0.00155594
0.24694
-0.00121415
0.263904
-0.000838632
0.282099
-0.00043297
0.301602
0.322475
-0.00140586
-0.00165621
-0.00171553
-0.0017928
-0.00191852
-0.0019934
-0.00193577
-0.00175445
-0.00152594
-0.0013048
-0.00110695
-0.000946322
-0.000823097
-0.000732635
-0.000669956
-0.000630862
-0.000601551
-0.0005646
-0.000522181
-0.000474512
-0.000426563
-0.000385289
-0.000347651
-0.000311078
-0.000273536
-0.000231422
-0.000188014
-0.000136054
-6.85278e-05
)
;

boundaryField
{
    outlet
    {
        type            calculated;
        value           nonuniform 0();
    }
    upperWall
    {
        type            symmetryPlane;
        value           nonuniform 0();
    }
    lowerWall
    {
        type            symmetryPlane;
        value           uniform 0;
    }
    inlet
    {
        type            calculated;
        value           nonuniform 0();
    }
    cylinder
    {
        type            calculated;
        value           uniform 0;
    }
    frontAndBack
    {
        type            empty;
        value           nonuniform 0();
    }
    procBoundary1to0
    {
        type            processor;
        value           nonuniform List<scalar> 
45
(
-0.0190274
-0.0439757
-0.0447622
-0.0438128
-0.0158626
-0.0427387
-0.0422969
-0.042156
-0.00998765
-0.0417504
-0.038447
-0.0431854
-0.00682152
-0.0403857
-0.00686354
-0.0469713
-0.0513448
-0.0551157
-0.0592168
-0.0638215
-0.068772
-0.0739688
-0.0793727
-0.0850286
-0.0909211
-0.0970316
-0.103421
-0.110159
-0.117394
-0.125227
-0.133662
-0.142725
-0.152449
-0.1629
-0.174081
-0.186014
-0.198739
-0.212335
-0.226867
-0.242402
-0.259021
-0.276831
-0.295916
-0.316612
-0.338522
)
;
    }
    procBoundary1to2
    {
        type            processor;
        value           nonuniform List<scalar> 
63
(
0.0211839
0.0332436
0.0336872
0.0338861
0.0197853
0.0342386
0.0345705
0.019442
0.0351792
0.0354603
0.0357752
0.0199082
0.0370387
0.0372981
0.0376275
0.0194514
0.00474084
-0.0143266
0.00784188
0.00926659
0.00949147
0.00822812
-0.00325824
0.00744211
0.0057671
0.0145899
0.0230542
0.0218546
0.0305647
0.0227824
0.0327472
0.0214819
0.0532824
0.0552064
0.0578629
0.061071
0.0644944
0.0681275
0.0721976
0.0768409
0.0819351
0.0874193
-0.0207225
0.0935358
0.100032
0.106875
0.114144
0.122063
0.130307
0.139049
0.148615
0.158601
0.169314
0.18087
0.19319
0.206378
0.22049
0.235571
0.251729
0.269014
0.287517
0.307364
0.328625
)
;
    }
    procBoundary1to5
    {
        type            processor;
        value           nonuniform List<scalar> 
20
(
-0.0126432
-0.0180563
-0.0168624
-0.00144205
-0.00152026
-0.0015911
-0.00165933
-0.00172634
-0.00179903
-0.00187475
-0.0019544
-0.00203473
-0.00211603
-0.00220293
-0.00228609
-0.00238041
-0.00247955
-0.00256513
-0.00266563
-0.00227055
)
;
    }
}


// ************************************************************************* //
