/*--------------------------------*- C++ -*----------------------------------*\
| =========                 |                                                 |
| \\      /  F ield         | OpenFOAM: The Open Source CFD Toolbox           |
|  \\    /   O peration     | Version:                                        |
|   \\  /    A nd           | Website:  www.openfoam.com                      |
|    \\/     M anipulation  |                                                 |
\*---------------------------------------------------------------------------*/
FoamFile
{
    version     2.0;
    format      ascii;
    class       volVectorField;
    location    "49";
    object      U;
}
// * * * * * * * * * * * * * * * * * * * * * * * * * * * * * * * * * * * * * //

dimensions      [0 1 -1 0 0 0 0];


internalField   nonuniform List<vector> 
1150
(
(0.818581 -0.00365482 4.44785e-21)
(0.818664 -0.0265193 -9.14923e-21)
(0.820932 -0.047101 -3.02624e-20)
(0.825358 -0.070591 -1.69831e-21)
(0.832356 -0.0899925 -5.66841e-21)
(0.841066 -0.114004 2.81208e-20)
(0.805747 -0.00251962 -1.03581e-20)
(0.80589 -0.0269216 -2.77117e-21)
(0.808915 -0.0486749 -4.07146e-20)
(0.814644 -0.0736584 -1.19514e-20)
(0.822993 -0.0934208 -1.04037e-19)
(0.791873 -0.00121821 5.72207e-21)
(0.79222 -0.0275267 2.91601e-20)
(0.795949 -0.0509303 5.03875e-20)
(1.00007 0.00125529 1.48437e-22)
(1.00015 0.00277009 -6.377e-22)
(1.00036 0.00432077 1.06262e-21)
(1.00072 0.00574596 -7.07451e-22)
(1.00103 0.00719546 -3.05747e-22)
(1.0017 0.00848453 1.58592e-21)
(1.00253 0.00978284 -7.98738e-22)
(1.00266 0.0108865 -2.05072e-23)
(1.0037 0.0120258 -6.87759e-22)
(1.00461 0.0128456 7.12095e-22)
(1.00615 0.000291482 4.01358e-23)
(1.00601 -0.0014828 9.37677e-23)
(1.0057 -0.00328992 1.78528e-22)
(1.00516 -0.00492974 -4.51962e-22)
(1.00473 -0.00658593 2.68286e-22)
(1.00396 -0.00801972 -5.74416e-22)
(1.00269 -0.00948543 7.55915e-22)
(1.00245 -0.0106743 -5.99909e-22)
(1.00103 -0.0118885 2.99214e-22)
(1.0011 -0.0127335 -1.99783e-22)
(1.00386 0.00171993 -2.60773e-23)
(1.00399 0.00321155 3.7207e-22)
(1.0042 0.00470598 1.22302e-22)
(1.0046 0.00603391 -2.14676e-22)
(1.00487 0.00736573 -4.15881e-22)
(1.00534 0.00845231 1.01096e-21)
(1.0063 0.00956903 1.21877e-21)
(1.0062 0.0103283 -1.18646e-21)
(1.00748 0.0111394 6.52244e-22)
(1.00706 0.0117288 9.75225e-22)
(1.00304 -0.000877492 -8.36694e-23)
(1.00285 -0.00270237 3.3774e-23)
(1.00254 -0.00454878 -3.64603e-23)
(1.00198 -0.00622343 -7.19309e-22)
(1.00157 -0.00791323 7.14196e-22)
(1.001 -0.00931549 -9.48286e-22)
(0.999525 -0.0107899 -7.78273e-22)
(0.999445 -0.0117948 -8.16466e-22)
(0.997801 -0.0129821 -9.53127e-22)
(0.999033 -0.0137005 -1.59131e-22)
(1.00075 0.000125438 -2.98256e-23)
(1.00088 0.0013244 2.88731e-22)
(1.00108 0.00254606 3.07799e-22)
(1.0015 0.00360633 -1.13898e-21)
(1.00175 0.00468404 -6.56998e-22)
(1.00208 0.00547471 1.25825e-21)
(1.00322 0.00635972 -5.27601e-22)
(1.00303 0.00677271 3.33258e-23)
(1.00456 0.00740563 -1.03366e-21)
(1.0033 0.00744889 -6.05511e-23)
(0.999906 -0.00284895 1.00934e-22)
(0.999696 -0.0047305 -7.10211e-22)
(0.999411 -0.00670298 1.09461e-21)
(0.998799 -0.00846503 5.96124e-22)
(0.998383 -0.0103256 4.43708e-22)
(0.997934 -0.0118186 -6.07668e-22)
(0.9963 -0.0134695 1.2424e-21)
(0.996249 -0.0144939 1.7825e-21)
(0.994751 -0.0157025 1.78863e-22)
(0.996587 -0.0166591 -1.20835e-22)
(0.997874 -0.00210794 1.22973e-22)
(0.998023 -0.00121289 1.87727e-22)
(0.998162 -0.000178716 -9.29229e-22)
(0.998624 0.000572406 5.0865e-22)
(0.998824 0.00154232 4.74589e-22)
(0.999135 0.00210283 -3.83811e-22)
(1.00037 0.00289985 -1.14154e-21)
(1.00037 0.00299365 -1.18011e-21)
(1.00136 0.00358467 1.18685e-21)
(1.00013 0.00330182 3.96122e-22)
(0.996377 -0.00445978 -7.15223e-24)
(0.996169 -0.00639297 1.05697e-22)
(0.995945 -0.00855253 3.21724e-22)
(0.995326 -0.010355 5.90619e-22)
(0.995068 -0.012515 9.38266e-22)
(0.9947 -0.014054 -7.21306e-22)
(0.993184 -0.0160198 -1.09049e-21)
(0.992765 -0.0171531 -5.22248e-22)
(0.992526 -0.0185829 -1.66934e-21)
(0.994039 -0.0202532 -5.55214e-22)
(0.993838 -0.00398217 7.38608e-23)
(0.994 -0.00355775 -3.21947e-22)
(0.994171 -0.00271545 -4.03075e-22)
(0.994686 -0.00241183 -1.14873e-21)
(0.994784 -0.00156796 -1.70685e-21)
(0.995158 -0.00148571 -6.79366e-22)
(0.996181 -0.000580124 3.50152e-21)
(0.996641 -0.00108055 9.90533e-22)
(0.995776 -0.000226799 7.84201e-22)
(0.995502 -0.00068401 -2.23637e-21)
(0.991535 -0.00554637 -1.17678e-22)
(0.991366 -0.00761485 5.90445e-22)
(0.991196 -0.00994754 1.25324e-21)
(0.990617 -0.0117014 6.63244e-22)
(0.990578 -0.0141857 -1.36312e-21)
(0.989972 -0.0157087 2.02065e-21)
(0.988876 -0.0181716 -1.26808e-21)
(0.98753 -0.0196955 1.30451e-21)
(0.989794 -0.0216574 -2.26451e-22)
(0.990071 -0.0243699 1.32609e-21)
(0.988458 -0.00522827 8.11771e-23)
(0.988601 -0.00539687 -2.7873e-22)
(0.988775 -0.00498719 -1.12432e-21)
(0.989237 -0.00541276 1.38152e-21)
(0.989114 -0.00459902 2.35681e-21)
(0.98974 -0.00544688 -6.7729e-22)
(0.99026 -0.00433411 -3.56698e-21)
(0.991622 -0.00563211 5.45996e-22)
(0.988106 -0.00458145 -7.92008e-22)
(0.990443 -0.00574436 -4.19934e-21)
(0.985295 -0.00624518 -2.9182e-23)
(0.98517 -0.00859403 2.02252e-22)
(0.984941 -0.0110815 1.41083e-21)
(0.984439 -0.0129106 -8.8046e-22)
(0.984507 -0.0158093 5.99064e-22)
(0.983639 -0.0173725 -8.84172e-22)
(0.983154 -0.0206006 2.54211e-21)
(0.981078 -0.0221909 -7.74237e-21)
(0.985898 -0.0249884 4.24737e-21)
(0.983541 -0.0281903 4.40339e-21)
(0.981546 -0.00586452 2.87178e-22)
(0.981603 -0.00664281 -3.25945e-22)
(0.981792 -0.00693325 -2.55963e-21)
(0.982099 -0.00807333 -1.1099e-21)
(0.98194 -0.00777987 -2.9758e-21)
(0.982956 -0.00961042 -5.31117e-21)
(0.982876 -0.00860819 -4.94342e-21)
(0.984751 -0.0112132 1.45785e-21)
(0.979744 -0.00944683 -2.73285e-21)
(0.985478 -0.0126322 8.03735e-21)
(0.977535 -0.00660883 -2.35191e-22)
(0.977486 -0.00943803 1.98016e-22)
(0.977202 -0.0122096 4.43238e-22)
(0.976906 -0.0146287 2.58523e-21)
(0.976947 -0.0179916 1.95399e-21)
(0.975843 -0.0198543 5.31438e-21)
(0.976079 -0.0236765 8.22275e-21)
(0.973886 -0.0254028 1.62071e-21)
(0.979058 -0.0288962 -1.01733e-21)
(0.974082 -0.0318405 -1.55139e-20)
(0.972966 -0.00617735 1.92051e-22)
(0.972943 -0.00766886 -1.80831e-21)
(0.973182 -0.00884884 9.13607e-22)
(0.973276 -0.0105914 -6.10176e-22)
(0.973351 -0.0111021 -7.33792e-22)
(0.974496 -0.0137847 -2.49009e-21)
(0.974061 -0.0131208 -1.01548e-20)
(0.975542 -0.0171895 6.23425e-21)
(0.972238 -0.0150039 7.72022e-21)
(0.979413 -0.021412 6.59375e-21)
(0.968058 -0.00672706 -4.22541e-22)
(0.968069 -0.0103187 2.80918e-21)
(0.96782 -0.0136007 -1.72135e-21)
(0.967813 -0.017001 2.37143e-21)
(0.967712 -0.0206804 9.35842e-22)
(0.966819 -0.0235365 -3.74399e-21)
(0.967608 -0.0277655 4.22928e-21)
(0.966054 -0.0303106 5.47309e-21)
(0.96856 -0.034135 -1.00723e-20)
(0.964039 -0.036958 -7.47771e-22)
(0.96253 -0.0062793 -3.1214e-23)
(0.962502 -0.00874575 -2.54074e-21)
(0.96275 -0.0109629 6.04265e-21)
(0.962705 -0.0134429 -3.92732e-21)
(0.963201 -0.0150918 -7.73704e-22)
(0.964104 -0.0184551 3.68714e-21)
(0.963632 -0.0185036 8.59233e-21)
(0.964546 -0.0238275 -5.60378e-21)
(0.965081 -0.0216856 9.96299e-21)
(0.969643 -0.0311991 1.84601e-21)
(0.956657 -0.00677516 8.98747e-22)
(0.956694 -0.0113604 -2.05916e-21)
(0.956582 -0.0154506 -8.48993e-21)
(0.956822 -0.0200512 5.46503e-21)
(0.956615 -0.0241605 7.74328e-22)
(0.956363 -0.0285981 8.74347e-21)
(0.957527 -0.0330451 5.30235e-21)
(0.956454 -0.0373876 -8.33227e-21)
(0.955959 -0.0411508 -2.01803e-20)
(0.9555 -0.0455572 1.51804e-20)
(0.950048 -0.00629462 -9.67698e-22)
(0.950018 -0.00999774 2.58113e-21)
(0.950277 -0.013413 1.23042e-21)
(0.950262 -0.0170706 -3.03939e-21)
(0.951228 -0.0200235 8.08683e-22)
(0.951701 -0.0243715 4.22575e-21)
(0.95166 -0.0255368 3.71879e-21)
(0.952656 -0.0321535 6.81864e-21)
(0.956002 -0.0304775 3.30151e-20)
(0.955983 -0.0420196 -1.02501e-20)
(0.943054 -0.00670501 2.84121e-22)
(0.943156 -0.0126682 -2.98191e-21)
(0.943244 -0.0179878 2.57267e-22)
(0.943679 -0.0240041 -6.73082e-21)
(0.943568 -0.0289734 -1.21097e-20)
(0.94413 -0.0352886 -1.554e-20)
(0.945441 -0.0400204 1.96654e-21)
(0.944447 -0.0468029 2.11232e-21)
(0.943268 -0.050384 -3.08864e-20)
(0.94723 -0.0581822 -1.10538e-20)
(0.935231 -0.00613187 -7.0385e-22)
(0.9352 -0.0115822 4.29647e-21)
(0.935514 -0.0164407 2.50822e-21)
(0.935678 -0.0218029 9.56903e-21)
(0.937078 -0.0261442 1.06148e-20)
(0.937267 -0.0321475 -6.47726e-21)
(0.93821 -0.0345991 -2.75249e-20)
(0.939771 -0.0430741 -1.77728e-20)
(0.943898 -0.0420989 -1.06034e-21)
(0.941028 -0.0555074 -1.09903e-20)
(0.927011 -0.00664726 1.77291e-21)
(0.927166 -0.0143778 1.51072e-21)
(0.927494 -0.0213531 -1.7007e-22)
(0.928123 -0.0292017 -1.2382e-20)
(0.928406 -0.0355473 1.09837e-20)
(0.929755 -0.0440379 3.53849e-21)
(0.931242 -0.0495095 3.00636e-20)
(0.930522 -0.0591136 6.99159e-21)
(0.93082 -0.0627808 3.48607e-20)
(0.937179 -0.0745697 2.78974e-20)
(0.917787 -0.0058422 -2.31982e-22)
(0.917815 -0.0135692 1.15607e-21)
(0.918219 -0.0203011 5.61344e-21)
(0.918683 -0.0279024 1.38302e-20)
(0.920526 -0.0339121 2.39855e-21)
(0.920832 -0.0422989 -5.73828e-21)
(0.923127 -0.0461059 -2.40998e-22)
(0.925393 -0.0572143 -1.07204e-20)
(0.929543 -0.0569619 -1.00164e-20)
(0.926754 -0.0729334 2.15731e-20)
(0.908232 -0.00635571 -1.12596e-21)
(0.908409 -0.0165971 1.95493e-21)
(0.908998 -0.0256555 -1.1382e-20)
(0.909894 -0.0359806 -5.63589e-21)
(0.910879 -0.0441952 -3.08826e-20)
(0.912982 -0.0554156 -5.09148e-21)
(0.915114 -0.0621839 -1.99529e-20)
(0.915291 -0.0750593 -7.32353e-21)
(0.918219 -0.0793882 -4.7391e-21)
(0.925409 -0.0952641 -6.13077e-20)
(0.897519 -0.00551394 -3.13695e-22)
(0.897516 -0.0160248 -5.17517e-21)
(0.898133 -0.0251778 -1.44753e-21)
(0.898995 -0.0356624 -7.3067e-21)
(0.901457 -0.0438166 -1.79344e-20)
(0.90239 -0.0553012 2.11473e-20)
(0.906315 -0.0607967 1.78526e-20)
(0.909675 -0.0752097 5.70548e-20)
(0.914172 -0.0759829 -1.93573e-20)
(0.913998 -0.0946348 4.14881e-20)
(0.886442 -0.00591149 3.15651e-21)
(0.88663 -0.0193068 -1.01241e-21)
(0.887507 -0.0310786 8.50622e-21)
(0.888774 -0.0446327 -9.53898e-21)
(0.89075 -0.0553334 1.75081e-20)
(0.893772 -0.0700375 2.73013e-20)
(0.897241 -0.0787669 -1.10337e-20)
(0.899148 -0.0953924 -9.79547e-21)
(0.905392 -0.10112 2.13666e-20)
(0.91317 -0.120758 1.01979e-21)
(0.874148 -0.00496738 -2.57085e-21)
(0.874138 -0.0189977 2.82148e-21)
(0.87503 -0.0311727 -3.36509e-21)
(0.876405 -0.0453165 3.23033e-20)
(0.879772 -0.0562955 -1.22247e-20)
(0.881909 -0.0716397 -1.3105e-20)
(0.887832 -0.0795252 -4.31123e-20)
(0.893211 -0.0977254 8.66954e-21)
(0.899 -0.100346 2.29872e-21)
(0.904034 -0.120909 1.82419e-20)
(0.861439 -0.00536551 1.44779e-22)
(0.861585 -0.0225466 -6.47742e-21)
(0.862776 -0.037713 3.73017e-22)
(0.864612 -0.0553687 -6.88946e-21)
(0.867825 -0.0694271 2.37005e-20)
(0.872334 -0.0884156 -6.50772e-20)
(0.877786 -0.100164 2.03613e-20)
(0.882823 -0.120799 -2.5765e-22)
(0.892769 -0.129437 -2.90229e-20)
(0.902635 -0.15128 -7.19382e-20)
(0.847475 -0.00434023 -5.25057e-22)
(0.84741 -0.0224712 -3.71584e-22)
(0.848652 -0.0384008 7.44219e-21)
(0.850859 -0.0570141 1.17034e-21)
(0.855433 -0.0718102 -1.33403e-20)
(0.859748 -0.0916524 9.33318e-20)
(0.86809 -0.103157 2.10791e-21)
(0.87711 -0.125144 -4.80783e-20)
(0.885307 -0.131463 -2.02747e-20)
(0.832874 -0.00468369 -2.63478e-21)
(0.83295 -0.0263157 7.53248e-21)
(0.834599 -0.0458011 2.02606e-20)
(0.837655 -0.0683553 4.9884e-21)
(0.842532 -0.0869507 9.2336e-20)
(0.849935 -0.110693 -1.04926e-19)
(0.858091 -0.126818 -1.80143e-20)
(1.00773 0.0139837 0)
(1.00448 0.014506 0)
(0.99145 0.0151337 0)
(0.994031 0.0167696 0)
(1.02718 0.0189079 0)
(1.0549 0.0200442 0)
(1.04949 0.0203224 0)
(1.02949 0.0201217 0)
(1.01553 0.0207824 0)
(1.00918 0.0212818 0)
(1.00631 0.0207534 0)
(1.00469 0.0197557 0)
(1.00347 0.0183487 0)
(1.00238 0.0165019 0)
(1.00149 0.0143865 0)
(1.00087 0.0121804 0)
(1.00046 0.0100411 0)
(1.00018 0.00810347 0)
(0.999961 0.00642816 0)
(0.99981 0.00499439 0)
(0.999716 0.0038038 0)
(0.999676 0.00283849 0)
(0.999681 0.00206652 0)
(0.999716 0.00146387 0)
(0.999771 0.00100119 0)
(0.999835 0.00065481 0)
(0.999901 0.000403555 0)
(0.99996 0.000226841 0)
(1 0.000109387 0)
(1.00003 2.49487e-05 0)
(0.996435 -0.0141866 0)
(0.995553 -0.015017 0)
(1.01136 -0.0157837 0)
(1.01857 -0.0173293 0)
(0.987267 -0.018812 0)
(0.94883 -0.0195098 0)
(0.946278 -0.0203267 0)
(0.967058 -0.0212204 0)
(0.983464 -0.0233334 0)
(0.990272 -0.0250207 0)
(0.992521 -0.0245261 0)
(0.993389 -0.022857 0)
(0.993808 -0.0208153 0)
(0.994262 -0.018331 0)
(0.994899 -0.0155867 0)
(0.995663 -0.0128735 0)
(0.996484 -0.0104227 0)
(0.997293 -0.00837213 0)
(0.998023 -0.00674141 0)
(0.998635 -0.00543613 0)
(0.999119 -0.00439301 0)
(0.99948 -0.00358001 0)
(0.999728 -0.00293472 0)
(0.99989 -0.00241679 0)
(0.999984 -0.00198571 0)
(1.00003 -0.0016076 0)
(1.00005 -0.00125551 0)
(1.00005 -0.000906783 0)
(1.00004 -0.000552913 0)
(1.00004 -0.000180909 0)
(1.01043 0.012588 0)
(1.00917 0.012786 0)
(0.994501 0.0129583 0)
(0.993668 0.0142137 0)
(1.02737 0.0156325 0)
(1.05702 0.0166635 0)
(1.05069 0.017637 0)
(1.02878 0.0183434 0)
(1.01443 0.0199526 0)
(1.00799 0.0212234 0)
(1.00427 0.0205647 0)
(1.00173 0.0184575 0)
(1.00019 0.0158619 0)
(0.999186 0.0129769 0)
(0.998404 0.0100788 0)
(0.997836 0.00744446 0)
(0.997549 0.00528964 0)
(0.997525 0.00365553 0)
(0.997686 0.00241781 0)
(0.997971 0.00141977 0)
(0.998328 0.000605823 0)
(0.998702 -3.52929e-05 0)
(0.999064 -0.000521248 0)
(0.999395 -0.000863309 0)
(0.999685 -0.00106668 0)
(0.99993 -0.0011336 0)
(1.00013 -0.00106756 0)
(1.00027 -0.00087921 0)
(1.00038 -0.000590761 0)
(1.00043 -0.000195912 0)
(0.993769 -0.0142712 0)
(0.989301 -0.0147975 0)
(1.00674 -0.0154483 0)
(1.02212 -0.016635 0)
(0.995006 -0.016831 0)
(0.951978 -0.0169448 0)
(0.943948 -0.0185778 0)
(0.963572 -0.0205308 0)
(0.98063 -0.0234709 0)
(0.988247 -0.0262095 0)
(0.99136 -0.0264151 0)
(0.992872 -0.0245575 0)
(0.993684 -0.0221138 0)
(0.994405 -0.0194773 0)
(0.995179 -0.0169866 0)
(0.99588 -0.0148216 0)
(0.996481 -0.0130174 0)
(0.99706 -0.0115063 0)
(0.997654 -0.0102265 0)
(0.998271 -0.00907714 0)
(0.998864 -0.00800398 0)
(0.999392 -0.00703154 0)
(0.99984 -0.00615647 0)
(1.0002 -0.00535886 0)
(1.00047 -0.00460724 0)
(1.00066 -0.00386247 0)
(1.00079 -0.00309579 0)
(1.00086 -0.00228616 0)
(1.00091 -0.00141462 0)
(1.00092 -0.000491975 0)
(1.00733 0.00824774 0)
(1.00744 0.00822468 0)
(0.991354 0.00845199 0)
(0.989998 0.00918926 0)
(1.02486 0.00851594 0)
(1.05315 0.00801986 0)
(1.04411 0.00925393 0)
(1.02153 0.0110175 0)
(1.00915 0.0138593 0)
(1.00517 0.0159961 0)
(1.00333 0.0156071 0)
(1.00191 0.0133881 0)
(1.0006 0.0106279 0)
(0.999469 0.00765108 0)
(0.998678 0.00480034 0)
(0.998263 0.0022777 0)
(0.998128 0.000162567 0)
(0.998187 -0.00150642 0)
(0.998376 -0.0027775 0)
(0.998687 -0.00370218 0)
(0.999082 -0.00428976 0)
(0.999528 -0.00460313 0)
(0.999994 -0.00469351 0)
(1.00044 -0.00458998 0)
(1.00084 -0.0043092 0)
(1.00117 -0.00386123 0)
(1.00143 -0.00325051 0)
(1.00162 -0.00248946 0)
(1.00174 -0.00158352 0)
(1.0018 -0.000560719 0)
(0.990313 -0.0169068 0)
(0.984329 -0.0175646 0)
(1.00327 -0.0190412 0)
(1.02016 -0.0203939 0)
(0.992943 -0.0186236 0)
(0.95116 -0.017442 0)
(0.945654 -0.019924 0)
(0.966539 -0.0231116 0)
(0.982962 -0.0268579 0)
(0.989202 -0.0298669 0)
(0.991362 -0.030019 0)
(0.992397 -0.0279758 0)
(0.993068 -0.0253567 0)
(0.993853 -0.0226519 0)
(0.994854 -0.0201716 0)
(0.995895 -0.018139 0)
(0.996868 -0.0165888 0)
(0.99776 -0.0153607 0)
(0.998571 -0.0143228 0)
(0.999318 -0.0133246 0)
(1 -0.0122656 0)
(1.00063 -0.0111885 0)
(1.00119 -0.0100939 0)
(1.00167 -0.00896348 0)
(1.00204 -0.00778871 0)
(1.00232 -0.00656019 0)
(1.00251 -0.00526298 0)
(1.00262 -0.00388133 0)
(1.00268 -0.00240313 0)
(1.00272 -0.000807638 0)
(1.00597 0.00401308 0)
(1.00451 0.00375072 0)
(0.98511 0.00469996 0)
(0.988303 0.00483757 0)
(1.02667 0.00135812 0)
(1.05003 -0.000599501 0)
(1.03538 0.00174348 0)
(1.01248 0.00511265 0)
(1.00301 0.00826489 0)
(1.00126 0.00942525 0)
(1.00033 0.00800456 0)
(0.999719 0.0055938 0)
(0.99932 0.0029088 0)
(0.998818 3.558e-05 0)
(0.998317 -0.0026393 0)
(0.998144 -0.00479437 0)
(0.998389 -0.00643203 0)
(0.99891 -0.00762235 0)
(0.999524 -0.00849167 0)
(1.00015 -0.00908842 0)
(1.00076 -0.0093734 0)
(1.00137 -0.00936638 0)
(1.00195 -0.00906735 0)
(1.00248 -0.0084983 0)
(1.00294 -0.00769853 0)
(1.0033 -0.0066929 0)
(1.00358 -0.00549838 0)
(1.00377 -0.00412875 0)
(1.0039 -0.00258981 0)
(1.00395 -0.000889408 0)
(0.985321 -0.0203787 0)
(0.981275 -0.0214186 0)
(1.00287 -0.0242335 0)
(1.01475 -0.0252392 0)
(0.985564 -0.0206914 0)
(0.952949 -0.0180781 0)
(0.954516 -0.0222583 0)
(0.972328 -0.0278364 0)
(0.982719 -0.0319643 0)
(0.986793 -0.0336375 0)
(0.990482 -0.0323459 0)
(0.992992 -0.0301434 0)
(0.993291 -0.0281957 0)
(0.993158 -0.0264852 0)
(0.993908 -0.0248323 0)
(0.99535 -0.0232187 0)
(0.996905 -0.0217099 0)
(0.998339 -0.0203211 0)
(0.999621 -0.0190573 0)
(1.00076 -0.0178482 0)
(1.00175 -0.0165952 0)
(1.00261 -0.0152986 0)
(1.00332 -0.0139137 0)
(1.0039 -0.012415 0)
(1.00435 -0.0108103 0)
(1.00468 -0.00910837 0)
(1.0049 -0.00730152 0)
(1.00503 -0.00538007 0)
(1.00511 -0.0033235 0)
(1.00513 -0.00114274 0)
(1.00444 1.72743e-05 0)
(0.998188 0.000148664 0)
(0.977371 0.00220134 0)
(0.992707 0.000650217 0)
(1.03206 -0.00572201 0)
(1.04161 -0.0087928 0)
(1.0185 -0.00513358 0)
(0.999681 -1.17104e-05 0)
(0.998535 0.00365833 0)
(1.00022 0.00449289 0)
(0.998134 0.0016907 0)
(0.99584 -0.00274017 0)
(0.995369 -0.00697906 0)
(0.996087 -0.00996383 0)
(0.997078 -0.0117073 0)
(0.998067 -0.0128164 0)
(0.99905 -0.0136462 0)
(1.00005 -0.0142218 0)
(1.00104 -0.0145511 0)
(1.00201 -0.0146371 0)
(1.00292 -0.0144294 0)
(1.00375 -0.0139448 0)
(1.00448 -0.0131668 0)
(1.00508 -0.0121029 0)
(1.00558 -0.0107911 0)
(1.00595 -0.00925989 0)
(1.00622 -0.00752616 0)
(1.00641 -0.00560117 0)
(1.00652 -0.00348637 0)
(1.00656 -0.00119544 0)
(0.978991 -0.0243415 0)
(0.980151 -0.0264165 0)
(1.00017 -0.0308346 0)
(1.00059 -0.029799 0)
(0.974994 -0.0227113 0)
(0.960074 -0.0202632 0)
(0.969053 -0.0255156 0)
(0.981345 -0.0324396 0)
(0.985561 -0.0372679 0)
(0.985663 -0.039336 0)
(0.985889 -0.0383738 0)
(0.987275 -0.0357905 0)
(0.98982 -0.0330719 0)
(0.992666 -0.0309319 0)
(0.994911 -0.029208 0)
(0.996597 -0.0277643 0)
(0.998121 -0.0264587 0)
(0.999668 -0.0251512 0)
(1.0012 -0.0237936 0)
(1.00265 -0.022364 0)
(1.00393 -0.0208172 0)
(1.00503 -0.0191712 0)
(1.00592 -0.0174007 0)
(1.00661 -0.0154975 0)
(1.00713 -0.0134725 0)
(1.00748 -0.011332 0)
(1.0077 -0.00906986 0)
(1.00783 -0.00666755 0)
(1.00789 -0.00410852 0)
(1.00791 -0.0013939 0)
(1.00079 -0.00485593 0)
(0.987915 -0.00347655 0)
(0.973955 -0.00085634 0)
(1.00428 -0.00589258 0)
(1.03478 -0.0137828 0)
(1.02613 -0.0155799 0)
(0.998829 -0.0108251 0)
(0.98538 -0.00600925 0)
(0.988237 -0.00455288 0)
(0.992434 -0.00643292 0)
(0.9941 -0.00982757 0)
(0.994696 -0.0126099 0)
(0.995309 -0.0148593 0)
(0.996289 -0.0168458 0)
(0.997498 -0.0184326 0)
(0.998741 -0.0195504 0)
(1.00003 -0.0202303 0)
(1.00139 -0.0205076 0)
(1.00277 -0.0204236 0)
(1.00409 -0.0200133 0)
(1.00531 -0.0192684 0)
(1.00638 -0.0182259 0)
(1.00728 -0.0168956 0)
(1.00799 -0.0153046 0)
(1.00853 -0.013487 0)
(1.00891 -0.0114662 0)
(1.00915 -0.00925353 0)
(1.0093 -0.00684549 0)
(1.00937 -0.00423844 0)
(1.0094 -0.00143431 0)
(0.973385 -0.0279046 0)
(0.979456 -0.0324857 0)
(0.988321 -0.0370554 0)
(0.979773 -0.0332965 0)
(0.971301 -0.0271351 0)
(0.975312 -0.0282028 0)
(0.982048 -0.0350359 0)
(0.983732 -0.0413624 0)
(0.982967 -0.0436964 0)
(0.983134 -0.0429352 0)
(0.98501 -0.0410225 0)
(0.987589 -0.0388903 0)
(0.990062 -0.0368732 0)
(0.992511 -0.0351472 0)
(0.995014 -0.0338063 0)
(0.997344 -0.0326749 0)
(0.999433 -0.0314811 0)
(1.00139 -0.0301019 0)
(1.00325 -0.0285366 0)
(1.00497 -0.0267985 0)
(1.00649 -0.0248782 0)
(1.00778 -0.0228071 0)
(1.00882 -0.0205891 0)
(1.00961 -0.0182423 0)
(1.01016 -0.0157836 0)
(1.0105 -0.0132203 0)
(1.01069 -0.0105489 0)
(1.01077 -0.00773388 0)
(1.01079 -0.00475485 0)
(1.01079 -0.0015997 0)
(0.992442 -0.0107972 0)
(0.976842 -0.00756319 0)
(0.978851 -0.00693786 0)
(1.01272 -0.0152507 0)
(1.02195 -0.0210684 0)
(1.00094 -0.0200679 0)
(0.980295 -0.0157226 0)
(0.976586 -0.0135654 0)
(0.983243 -0.0150544 0)
(0.988404 -0.0183932 0)
(0.991196 -0.0208343 0)
(0.993614 -0.0221159 0)
(0.995569 -0.0232131 0)
(0.996838 -0.0243609 0)
(0.998015 -0.02545 0)
(0.99953 -0.0262811 0)
(1.00132 -0.0266869 0)
(1.00319 -0.0265878 0)
(1.00499 -0.0260202 0)
(1.00664 -0.0250638 0)
(1.00811 -0.0237509 0)
(1.00937 -0.0221343 0)
(1.01038 -0.0202408 0)
(1.01116 -0.018115 0)
(1.0117 -0.0157951 0)
(1.01204 -0.0133091 0)
(1.01221 -0.0106714 0)
(1.01228 -0.00785835 0)
(1.0123 -0.00484984 0)
(1.0123 -0.00164224 0)
(0.970075 -0.0317483 0)
(0.974372 -0.0392158 0)
(0.966557 -0.04144 0)
(0.963813 -0.0364899 0)
(0.979651 -0.0352056 0)
(0.990477 -0.0400911 0)
(0.986757 -0.0462393 0)
(0.98001 -0.0493282 0)
(0.979157 -0.0486084 0)
(0.98269 -0.0461618 0)
(0.987078 -0.0438547 0)
(0.989871 -0.0423589 0)
(0.991382 -0.0414823 0)
(0.993109 -0.0406567 0)
(0.99556 -0.0396205 0)
(0.998334 -0.0383773 0)
(1.00105 -0.0369327 0)
(1.00353 -0.0352289 0)
(1.00578 -0.03326 0)
(1.00777 -0.0310739 0)
(1.00949 -0.0286851 0)
(1.01091 -0.0261353 0)
(1.01203 -0.0234415 0)
(1.01284 -0.0206354 0)
(1.01337 -0.0177402 0)
(1.01365 -0.0147727 0)
(1.01374 -0.0117383 0)
(1.01374 -0.00858745 0)
(1.0137 -0.00527445 0)
(1.01367 -0.00178466 0)
(0.979472 -0.017671 0)
(0.971057 -0.0136201 0)
(0.986895 -0.0171051 0)
(1.0057 -0.0251411 0)
(0.995523 -0.0264286 0)
(0.978583 -0.0242997 0)
(0.970912 -0.0226179 0)
(0.973745 -0.0239168 0)
(0.98189 -0.0266944 0)
(0.987709 -0.0291457 0)
(0.990573 -0.0305774 0)
(0.992711 -0.0315074 0)
(0.994822 -0.0324091 0)
(0.996808 -0.0331399 0)
(0.998794 -0.0335799 0)
(1.00096 -0.0336797 0)
(1.00332 -0.0333856 0)
(1.00564 -0.0326097 0)
(1.0078 -0.0313831 0)
(1.00971 -0.0297802 0)
(1.01134 -0.027842 0)
(1.01268 -0.0256267 0)
(1.01373 -0.0231684 0)
(1.01448 -0.0205182 0)
(1.01496 -0.0177167 0)
(1.01521 -0.0147983 0)
(1.01526 -0.0117892 0)
(1.01521 -0.00865382 0)
(1.01516 -0.00533484 0)
(1.01512 -0.00181696 0)
(0.967322 -0.0377116 0)
(0.961489 -0.0459408 0)
(0.945382 -0.045235 0)
(0.962022 -0.0427283 0)
(0.991512 -0.0462141 0)
(0.994953 -0.051548 0)
(0.982597 -0.0547111 0)
(0.975424 -0.0547098 0)
(0.97771 -0.0530016 0)
(0.983585 -0.0514818 0)
(0.988303 -0.0502019 0)
(0.990673 -0.0491224 0)
(0.992184 -0.0483724 0)
(0.994334 -0.0476013 0)
(0.997218 -0.04639 0)
(1.0004 -0.0447032 0)
(1.00352 -0.0426681 0)
(1.00639 -0.0403449 0)
(1.00894 -0.0377941 0)
(1.01114 -0.0350498 0)
(1.01296 -0.0321292 0)
(1.01441 -0.029073 0)
(1.01549 -0.0259006 0)
(1.01623 -0.0226486 0)
(1.01665 -0.0193408 0)
(1.01681 -0.0160006 0)
(1.01676 -0.012649 0)
(1.01662 -0.0092383 0)
(1.01649 -0.00567897 0)
(1.01643 -0.00193242 0)
(0.965874 -0.0250469 0)
(0.97088 -0.0231108 0)
(0.986503 -0.0296258 0)
(0.984569 -0.0339949 0)
(0.971477 -0.0325289 0)
(0.968002 -0.0320302 0)
(0.968943 -0.0334706 0)
(0.972854 -0.0360129 0)
(0.980878 -0.0379678 0)
(0.987462 -0.0393878 0)
(0.990862 -0.0405021 0)
(0.992738 -0.0415795 0)
(0.99467 -0.0424158 0)
(0.997269 -0.0426839 0)
(1.00026 -0.0423228 0)
(1.00329 -0.0414439 0)
(1.00618 -0.0401312 0)
(1.00884 -0.0384218 0)
(1.01124 -0.0363799 0)
(1.01329 -0.0340446 0)
(1.01498 -0.0314456 0)
(1.01631 -0.0286288 0)
(1.01728 -0.0256266 0)
(1.01793 -0.0224898 0)
(1.01827 -0.0192529 0)
(1.01836 -0.0159499 0)
(1.01825 -0.0126204 0)
(1.01804 -0.00923981 0)
(1.01788 -0.00570198 0)
(1.0178 -0.0019457 0)
(0.961383 -0.0470914 0)
(0.944898 -0.0532646 0)
(0.93445 -0.0516207 0)
(0.968206 -0.0533593 0)
(0.995728 -0.0583123 0)
(0.990462 -0.0614043 0)
(0.977047 -0.0618624 0)
(0.973036 -0.0610832 0)
(0.977565 -0.0602192 0)
(0.983607 -0.0597908 0)
(0.98793 -0.0592085 0)
(0.990723 -0.0581932 0)
(0.993339 -0.0569307 0)
(0.996513 -0.0553982 0)
(1.00007 -0.0534211 0)
(1.00363 -0.051013 0)
(1.00697 -0.0482393 0)
(1.01001 -0.0451989 0)
(1.01269 -0.0419807 0)
(1.01495 -0.0386158 0)
(1.01676 -0.0351312 0)
(1.01814 -0.031561 0)
(1.01911 -0.0279264 0)
(1.01969 -0.0242622 0)
(1.01995 -0.0205876 0)
(1.01994 -0.0169221 0)
(1.01972 -0.0132974 0)
(1.01938 -0.00969271 0)
(1.01913 -0.00597162 0)
(1.019 -0.00203374 0)
(0.954757 -0.0338737 0)
(0.969841 -0.035911 0)
(0.97521 -0.0431989 0)
(0.962185 -0.0441302 0)
(0.958387 -0.0428248 0)
(0.965477 -0.0445305 0)
(0.96854 -0.0468473 0)
(0.971846 -0.0484724 0)
(0.979764 -0.0492302 0)
(0.986761 -0.0502777 0)
(0.990746 -0.0516218 0)
(0.993185 -0.052623 0)
(0.995789 -0.0527796 0)
(0.999224 -0.0520613 0)
(1.00303 -0.0506526 0)
(1.00666 -0.0487196 0)
(1.00987 -0.0463785 0)
(1.0127 -0.0437366 0)
(1.01515 -0.0408626 0)
(1.0172 -0.0377824 0)
(1.01885 -0.0345253 0)
(1.02007 -0.0311252 0)
(1.0209 -0.0276153 0)
(1.02137 -0.0240412 0)
(1.02153 -0.0204281 0)
(1.02144 -0.0167987 0)
(1.02114 -0.0131952 0)
(1.02073 -0.00962889 0)
(1.02042 -0.00595328 0)
(1.02026 -0.0020292 0)
(0.951629 -0.0596112 0)
(0.930968 -0.0631537 0)
(0.931145 -0.0622123 0)
(0.971295 -0.0665515 0)
(0.992487 -0.0708812 0)
(0.984685 -0.0719317 0)
(0.974054 -0.0714857 0)
(0.972473 -0.0711419 0)
(0.977621 -0.0706659 0)
(0.983351 -0.0701347 0)
(0.987754 -0.0692712 0)
(0.991619 -0.0678126 0)
(0.995623 -0.0657991 0)
(0.999805 -0.0632551 0)
(1.00392 -0.0602324 0)
(1.00776 -0.0568917 0)
(1.01123 -0.0533019 0)
(1.01429 -0.0495396 0)
(1.01692 -0.0456561 0)
(1.01908 -0.0416842 0)
(1.02077 -0.037653 0)
(1.02197 -0.0335925 0)
(1.02274 -0.0295315 0)
(1.02312 -0.0255014 0)
(1.02316 -0.0215151 0)
(1.02296 -0.0175793 0)
(1.02255 -0.013721 0)
(1.02201 -0.00996487 0)
(1.02157 -0.00615004 0)
(1.02135 -0.00209259 0)
(0.945586 -0.0462495 0)
(0.964723 -0.0513967 0)
(0.960265 -0.0582861 0)
(0.946288 -0.0581218 0)
(0.953128 -0.0578728 0)
(0.966049 -0.0599938 0)
(0.969189 -0.0611842 0)
(0.971657 -0.0615097 0)
(0.979128 -0.0617595 0)
(0.986139 -0.0626169 0)
(0.990805 -0.0633751 0)
(0.99453 -0.0634008 0)
(0.998466 -0.0624854 0)
(1.00274 -0.0606616 0)
(1.00699 -0.0581441 0)
(1.01085 -0.0551645 0)
(1.01419 -0.0518611 0)
(1.01704 -0.0483525 0)
(1.01944 -0.0446965 0)
(1.02138 -0.0409224 0)
(1.02286 -0.037053 0)
(1.02389 -0.0331209 0)
(1.0245 -0.0291607 0)
(1.02474 -0.0252106 0)
(1.02467 -0.021287 0)
(1.02438 -0.0173941 0)
(1.02391 -0.0135607 0)
(1.0233 -0.00984014 0)
(1.02277 -0.00608444 0)
(1.0225 -0.00207265 0)
(0.939874 -0.0750303 0)
(0.92062 -0.0767975 0)
(0.929231 -0.077031 0)
(0.969435 -0.0818559 0)
(0.986668 -0.0851828 0)
(0.980684 -0.085687 0)
(0.97346 -0.0850036 0)
(0.973126 -0.0840838 0)
(0.978343 -0.0827164 0)
(0.984084 -0.0812838 0)
(0.9889 -0.0795835 0)
(0.99379 -0.077236 0)
(0.999015 -0.0741795 0)
(1.00404 -0.0704884 0)
(1.00855 -0.0663896 0)
(1.01251 -0.0621209 0)
(1.01596 -0.057743 0)
(1.01893 -0.0532866 0)
(1.02141 -0.0487707 0)
(1.02339 -0.0442249 0)
(1.02486 -0.039681 0)
(1.02582 -0.035176 0)
(1.02633 -0.0307407 0)
(1.02645 -0.0264016 0)
(1.02625 -0.0221647 0)
(1.02583 -0.0180181 0)
(1.02524 -0.0139694 0)
(1.02453 -0.0100775 0)
(1.02385 -0.00620975 0)
(1.02349 -0.00211386 0)
(0.937558 -0.0632752 0)
(0.958041 -0.07025 0)
(0.94749 -0.0766102 0)
(0.936099 -0.0758909 0)
(0.95183 -0.0755386 0)
(0.968756 -0.0766299 0)
(0.97153 -0.0763495 0)
(0.972781 -0.0757278 0)
(0.979543 -0.0753849 0)
(0.986703 -0.0753379 0)
(0.992227 -0.0747435 0)
(0.997236 -0.0733598 0)
(1.00231 -0.0712298 0)
(1.00723 -0.0682722 0)
(1.0117 -0.064662 0)
(1.01558 -0.0606836 0)
(1.01886 -0.0565062 0)
(1.02161 -0.0522305 0)
(1.02387 -0.0478789 0)
(1.02563 -0.0434759 0)
(1.02688 -0.0390519 0)
(1.02766 -0.03465 0)
(1.028 -0.0303032 0)
(1.02798 -0.0260421 0)
(1.02767 -0.0218745 0)
(1.02715 -0.0177828 0)
(1.0265 -0.0137695 0)
(1.02575 -0.00990528 0)
(1.02497 -0.00609724 0)
(1.02454 -0.00207887 0)
(0.927756 -0.094767 0)
(0.912808 -0.0942389 0)
(0.927225 -0.0947957 0)
(0.965255 -0.0998714 0)
(0.980891 -0.102725 0)
(0.978968 -0.102591 0)
(0.975487 -0.100833 0)
(0.975602 -0.0983484 0)
(0.980359 -0.0954238 0)
(0.986309 -0.0926224 0)
(0.991735 -0.0895899 0)
(0.997372 -0.0859194 0)
(1.00335 -0.0816395 0)
(1.00891 -0.0768534 0)
(1.01364 -0.0717787 0)
(1.01759 -0.066643 0)
(1.02091 -0.0615252 0)
(1.0237 -0.056429 0)
(1.02597 -0.0513328 0)
(1.0277 -0.0462599 0)
(1.02888 -0.0412519 0)
(1.02956 -0.0363561 0)
(1.02977 -0.031601 0)
(1.02961 -0.0270094 0)
(1.02915 -0.02258 0)
(1.0285 -0.0182814 0)
(1.02774 -0.0140918 0)
(1.02689 -0.0100706 0)
(1.02599 -0.00616139 0)
(1.02544 -0.00209772 0)
(0.930656 -0.0850578 0)
(0.952029 -0.0933897 0)
(0.938767 -0.0985128 0)
(0.930753 -0.0960255 0)
(0.953015 -0.0942963 0)
(0.972598 -0.0939628 0)
(0.975313 -0.0923314 0)
(0.97567 -0.090489 0)
(0.981706 -0.0889479 0)
(0.988994 -0.0875212 0)
(0.995277 -0.0853605 0)
(1.0012 -0.0824044 0)
(1.00704 -0.0789136 0)
(1.01235 -0.0748151 0)
(1.01687 -0.0701995 0)
(1.02062 -0.0653241 0)
(1.02375 -0.0603741 0)
(1.02633 -0.0554152 0)
(1.02837 -0.0504409 0)
(1.02986 -0.045478 0)
(1.03081 -0.0405711 0)
(1.03128 -0.035769 0)
(1.03132 -0.0311007 0)
(1.03101 -0.0265906 0)
(1.03043 -0.0222381 0)
(1.02969 -0.0180072 0)
(1.02887 -0.0138673 0)
(1.02799 -0.00987268 0)
(1.02704 -0.00601336 0)
(1.0264 -0.00204596 0)
(0.91709 -0.119534 0)
(0.908329 -0.115647 0)
(0.926981 -0.116089 0)
(0.961632 -0.120792 0)
(0.976734 -0.12226 0)
(0.979855 -0.120745 0)
(0.979804 -0.117336 0)
(0.979654 -0.112754 0)
(0.983622 -0.107849 0)
(0.989888 -0.103381 0)
(0.995933 -0.0988038 0)
(1.00201 -0.0936861 0)
(1.00834 -0.0881603 0)
(1.01417 -0.082331 0)
(1.01898 -0.0763775 0)
(1.02283 -0.070479 0)
(1.02599 -0.0646969 0)
(1.02857 -0.0590053 0)
(1.03056 -0.0533675 0)
(1.03196 -0.047816 0)
(1.0328 -0.0424031 0)
(1.03313 -0.0371776 0)
(1.03301 -0.0321622 0)
(1.03253 -0.0273734 0)
(1.0318 -0.0228026 0)
(1.03091 -0.0184047 0)
(1.02996 -0.0141252 0)
(1.029 -0.00999569 0)
(1.02799 -0.00603581 0)
(1.02722 -0.00204259 0)
(0.92606 -0.11244 0)
(0.948834 -0.120864 0)
(0.934935 -0.122668 0)
(0.929515 -0.116926 0)
(0.955591 -0.113109 0)
(0.976884 -0.111097 0)
(0.980304 -0.108062 0)
(0.980341 -0.104866 0)
(0.985551 -0.101852 0)
(0.992754 -0.0988388 0)
(0.999571 -0.095052 0)
(1.00609 -0.0905147 0)