/*--------------------------------*- C++ -*----------------------------------*\
| =========                 |                                                 |
| \\      /  F ield         | OpenFOAM: The Open Source CFD Toolbox           |
|  \\    /   O peration     | Version:                                        |
|   \\  /    A nd           | Website:  www.openfoam.com                      |
|    \\/     M anipulation  |                                                 |
\*---------------------------------------------------------------------------*/
FoamFile
{
    version     2.0;
    format      ascii;
    class       volVectorField;
    location    "86.4";
    object      U;
}
// * * * * * * * * * * * * * * * * * * * * * * * * * * * * * * * * * * * * * //

dimensions      [0 1 -1 0 0 0 0];


internalField   nonuniform List<vector> 
1153
(
(0.0748163 -0.171578 1.29425e-19)
(-0.108825 -0.18727 -2.05268e-19)
(-0.301112 -0.088326 1.56605e-20)
(-0.414414 -0.0387069 -3.80513e-20)
(-0.436418 -0.0674473 -3.53909e-19)
(-0.335295 -0.120442 2.21046e-19)
(-0.0937001 -0.173497 -2.70809e-21)
(0.175131 -0.237712 6.69031e-20)
(0.487377 -0.243754 -2.85533e-19)
(0.746872 -0.219734 2.16199e-19)
(0.0293253 -0.0633386 -4.70744e-20)
(-0.0757549 -0.0751562 -2.65426e-19)
(-0.234242 0.00599132 2.19406e-19)
(-0.294587 0.0734155 -8.14048e-20)
(-0.233128 0.0861498 1.09664e-19)
(-0.0940262 0.0379055 1.27596e-19)
(0.281765 -0.0188239 -1.41369e-19)
(0.64295 -0.069346 -3.95444e-19)
(0.951837 -0.0763575 -2.6427e-19)
(1.15687 -0.0670613 4.1554e-19)
(1.25089 -0.0407971 -1.78832e-19)
(1.27241 -0.010414 8.43264e-21)
(-0.00509169 -0.000175772 -1.72004e-19)
(-0.0673181 0.0213586 9.38569e-20)
(-0.13353 0.0747833 -4.42218e-20)
(-0.1059 0.173317 3.26856e-20)
(-0.0716774 0.194184 2.1815e-19)
(0.182062 0.164436 -3.4022e-19)
(0.63971 0.136816 1.17908e-19)
(1.02797 0.113613 1.1415e-19)
(1.26201 0.0859742 1.98491e-19)
(1.34343 0.0639899 -4.78907e-19)
(1.322 0.0474191 1.77368e-19)
(1.26596 0.0522865 -6.38411e-20)
(1.21521 0.0552725 5.97119e-20)
(1.18775 0.0631808 -8.27417e-20)
(0.0160317 0.00122951 2.28905e-19)
(-0.0309807 0.0381114 1.29524e-20)
(-0.0485937 0.0839929 2.63609e-20)
(-0.0149943 0.158424 3.36264e-21)
(0.036646 0.173265 -2.0265e-20)
(0.504665 0.202579 6.75389e-20)
(0.996978 0.223093 -3.51796e-19)
(1.29343 0.207224 1.90786e-19)
(1.38323 0.165505 -2.71866e-21)
(1.34888 0.120442 8.67958e-20)
(1.29361 0.0991119 -6.1726e-20)
(1.26013 0.0923815 -1.94644e-20)
(1.24911 0.0983637 -3.46867e-20)
(1.25146 0.113066 -1.11862e-20)
(1.24321 0.0987515 1.97996e-20)
(1.20588 0.110712 -1.73539e-20)
(1.16151 0.104898 -5.77073e-21)
(0.0241944 -0.0083086 -8.24946e-20)
(-0.0248496 0.00618425 -9.96622e-21)
(-0.0322446 0.0236879 -5.31598e-20)
(0.0114289 0.0605664 -3.25807e-20)
(0.434169 0.145919 -1.6881e-19)
(0.944666 0.231837 6.95612e-21)
(1.2641 0.268699 3.60633e-19)
(1.36318 0.250335 -1.62721e-19)
(1.33985 0.204925 -1.00635e-19)
(1.30506 0.169867 1.03833e-19)
(1.28654 0.149938 -4.90062e-20)
(1.27369 0.139584 1.90177e-19)
(1.24988 0.131069 -2.98795e-20)
(1.20979 0.114032 -4.98474e-20)
(1.18643 0.125429 2.00273e-20)
(1.1892 0.1136 -3.14687e-20)
(1.20771 0.108494 7.65558e-21)
(1.2045 0.110683 1.90848e-20)
(1.18465 0.10402 -2.04514e-22)
(1.17264 0.102031 -5.73431e-21)
(0.00366386 -0.015705 -3.57355e-20)
(-0.0631863 -0.018583 1.97742e-19)
(-0.0209318 -0.039014 -7.0153e-20)
(0.443364 0.0892147 -6.63649e-20)
(0.928392 0.214622 1.31267e-20)
(1.21007 0.286916 -1.64333e-19)
(1.29628 0.294114 1.11074e-19)
(1.29986 0.263935 -6.66784e-20)
(1.29929 0.229528 4.05137e-20)
(1.29353 0.200591 1.94064e-20)
(1.27477 0.175527 8.82771e-21)
(1.24142 0.159151 9.44549e-20)
(1.21626 0.14862 -1.89955e-20)
(1.22393 0.152717 -4.82264e-20)
(1.22647 0.135367 3.11456e-20)
(1.20675 0.13494 8.19013e-21)
(1.1739 0.132987 -7.68428e-21)
(1.1627 0.122711 6.4314e-23)
(1.16768 0.112811 -1.19645e-20)
(1.16405 0.106027 1.92795e-20)
(-0.0203667 0.00283881 -3.70346e-20)
(-0.0643851 -0.0500921 -6.92158e-20)
(0.337351 0.0427916 4.71955e-20)
(0.875669 0.208553 -1.05271e-19)
(1.144 0.288892 4.94628e-20)
(1.22822 0.30134 7.2208e-20)
(1.26093 0.286211 -4.04984e-20)
(1.28399 0.267313 6.63784e-20)
(1.28197 0.244707 -2.46105e-20)
(1.2613 0.220282 -5.64349e-20)
(1.2401 0.205013 -1.94289e-20)
(1.23212 0.188716 5.02028e-20)
(1.22959 0.177406 -1.20681e-20)
(1.20384 0.160094 -2.11775e-20)
(1.17709 0.158805 1.46365e-22)
(1.16704 0.145743 2.88953e-21)
(1.17415 0.134057 -9.10588e-21)
(1.1735 0.133334 1.90954e-20)
(1.16114 0.125064 1.56343e-21)
(1.14943 0.119929 -1.66819e-21)
(-0.0806038 -0.0194349 -7.78183e-20)
(0.0294607 -0.0577348 6.39977e-20)
(0.760503 0.199359 -5.27931e-21)
(1.07997 0.2857 7.94481e-20)
(1.19689 0.30166 -1.00245e-19)
(1.24825 0.300661 1.55652e-20)
(1.2654 0.294942 -1.19515e-20)
(1.25364 0.279626 -2.80335e-20)
(1.23912 0.259445 -8.22088e-21)
(1.235 0.241964 5.3137e-20)
(1.22913 0.218041 -1.40923e-20)
(1.2089 0.202791 4.61754e-21)
(1.18734 0.189322 9.43896e-21)
(1.18915 0.183248 -4.44758e-21)
(1.18771 0.167794 -7.29294e-22)
(1.17684 0.161697 -2.05235e-20)
(1.16119 0.158131 -3.75925e-21)
(1.14878 0.145675 -1.79359e-21)
(1.14401 0.134157 4.63714e-22)
(1.13674 0.133382 7.36727e-22)
(-0.105016 -0.0746656 2.66147e-20)
(0.482941 0.105964 -2.97144e-20)
(0.954392 0.259783 -2.3129e-21)
(1.15731 0.310409 3.25275e-20)
(1.2312 0.324271 -1.37805e-21)
(1.23854 0.320551 1.0616e-20)
(1.22595 0.30422 -2.74475e-21)
(1.22271 0.28686 1.21537e-20)
(1.22469 0.270102 3.02228e-20)
(1.21248 0.25141 3.04413e-21)
(1.19454 0.239326 -1.83925e-20)
(1.18955 0.221874 6.54826e-21)
(1.1916 0.210034 -1.17544e-20)
(1.17199 0.19564 1.04652e-20)
(1.15149 0.185406 -5.51056e-21)
(1.14435 0.173486 7.98867e-21)
(1.14572 0.161723 2.88074e-21)
(1.14197 0.158113 -1.64378e-21)
(1.13139 0.149755 7.95777e-22)
(1.12244 0.140407 -2.51144e-22)
(-0.0283059 -0.0992691 2.50966e-20)
(0.750611 0.232903 -2.03193e-21)
(1.09249 0.33172 4.84594e-21)
(1.20771 0.356911 1.7054e-20)
(1.22234 0.346158 -1.70934e-20)
(1.21702 0.328851 -7.10006e-21)
(1.21507 0.314231 3.18358e-21)
(1.20524 0.299302 3.03416e-21)
(1.19062 0.283907 -2.08905e-21)
(1.18496 0.268386 1.48629e-21)
(1.17978 0.246798 -6.45537e-21)
(1.16666 0.23414 3.69138e-21)
(1.1527 0.219856 -5.0529e-22)
(1.15107 0.20817 -1.7857e-21)
(1.14641 0.19487 1.96486e-21)
(1.13938 0.184545 -8.20007e-22)
(1.13259 0.177444 -4.47107e-22)
(1.12238 0.165301 9.05251e-22)
(1.11544 0.157871 3.3914e-22)
(1.11057 0.154606 -2.8734e-24)
(0.148838 -0.795892 9.00908e-21)
(0.145853 -1.04839 -4.64843e-20)
(0.162823 -0.928947 -3.1761e-20)
(0.202972 -0.867544 8.28902e-20)
(0.170093 -1.05627 8.26432e-20)
(0.152803 -0.910806 -5.2442e-20)
(0.114367 -0.802105 2.34538e-20)
(0.256807 -0.893075 -1.85978e-21)
(0.188206 -1.02452 1.74246e-19)
(0.135202 -0.873633 -2.31337e-19)
(0.0633249 -0.782632 1.36542e-19)
(0.303454 -0.868438 4.99606e-22)
(0.192701 -0.955672 -6.64622e-20)
(0.100289 -0.808836 1.40881e-19)
(0.0079735 -0.753148 -5.60279e-20)
(0.332918 -0.799744 -2.29353e-19)
(0.183331 -0.857409 3.52297e-19)
(0.0413849 -0.71017 -4.45209e-19)
(-0.0706159 -0.679554 1.03613e-19)
(0.346595 -0.705262 2.91684e-20)
(0.17637 -0.744147 1.20872e-19)
(-0.0061704 -0.603168 -8.458e-20)
(-0.138137 -0.592166 3.53685e-19)
(-0.245683 -0.592078 -5.48648e-19)
(0.337653 -0.594355 -2.79707e-19)
(0.161777 -0.616833 6.80642e-20)
(-0.0364162 -0.4829 -2.46124e-19)
(-0.186299 -0.485399 -8.81583e-20)
(-0.322408 -0.516622 -1.43188e-19)
(-0.419022 -0.462352 9.0128e-20)
(0.302414 -0.478287 -5.9613e-20)
(0.113052 -0.473779 -3.89089e-20)
(-0.124322 -0.306185 -7.8186e-21)
(-0.267052 -0.304899 1.72938e-19)
(-0.353487 -0.38815 2.90631e-19)
(-0.40781 -0.407607 8.57771e-20)
(-0.452176 -0.399903 -5.84353e-20)
(0.270424 -0.375711 -2.04298e-19)
(0.120001 -0.381495 9.47318e-20)
(-0.0845209 -0.230449 -5.16857e-20)
(-0.204581 -0.181604 4.92715e-19)
(-0.304805 -0.243786 -2.38022e-19)
(-0.411314 -0.283085 3.00002e-19)
(-0.477385 -0.310213 -4.43124e-20)
(-0.451555 -0.333383 -1.33152e-19)
(0.18498 -0.279883 3.5228e-19)
(0.0129677 -0.286136 -1.20441e-19)
(-0.197592 -0.160377 1.42523e-20)
(-0.357605 -0.0959148 1.43444e-19)
(-0.48791 -0.139592 -2.44722e-19)
(-0.530222 -0.217072 5.75702e-20)
(-0.41394 -0.27422 2.55341e-20)
(-0.238535 -0.3116 -6.20658e-20)
(-0.0247619 -0.329946 4.72973e-19)
(1.10436 0.133163 -6.73317e-23)
(1.11593 0.131223 4.69959e-22)
(1.12783 0.119491 -1.50908e-21)
(1.13713 0.116504 -1.97161e-21)
(1.15431 0.09843 -5.64827e-21)
(1.09919 0.127188 2.992e-22)
(1.10719 0.124379 1.13116e-21)
(1.1226 0.115385 2.39481e-22)
(1.12715 0.106461 1.83934e-22)
(1.14528 0.100711 2.67782e-21)
(1.0941 0.116181 -5.38595e-22)
(1.10113 0.101909 -2.61278e-21)
(1.11229 0.105507 -1.87959e-21)
(1.12176 0.0862199 -4.19686e-22)
(1.12928 0.0918738 -8.66585e-22)
(1.0897 0.111882 2.36255e-22)
(1.10116 0.087004 1.90512e-21)
(1.10204 0.0985029 -5.90301e-22)
(1.12029 0.0737009 1.00225e-21)
(1.11505 0.0797254 -8.53542e-22)
(1.08356 0.101924 4.2531e-22)
(1.09978 0.0712618 5.91135e-23)
(1.0926 0.0886063 -3.17628e-21)
(1.1152 0.0620207 -3.34195e-21)
(1.10312 0.0680794 -4.1533e-21)
(1.13522 0.0581962 8.24388e-21)
(1.08001 0.0937277 4.78223e-24)
(1.09364 0.0620861 -8.83284e-23)
(1.08578 0.0796986 1.65333e-21)
(1.10738 0.0552124 3.7454e-21)
(1.09498 0.060565 5.82329e-21)
(1.12829 0.0553977 4.11364e-21)
(1.07688 0.08324 -5.97918e-22)
(1.08605 0.05512 -1.06392e-21)
(1.08043 0.0688561 7.17948e-21)
(1.10036 0.0517288 5.58824e-22)
(1.08821 0.0515262 -6.6583e-21)
(1.1185 0.050902 -1.1451e-20)
(1.07237 0.0736196 1.62477e-22)
(1.08043 0.049594 2.12055e-21)
(1.07451 0.0594557 -5.26699e-21)
(1.09311 0.0465922 -6.61222e-21)
(1.07919 0.0427016 -8.51308e-22)
(1.10456 0.0419624 7.91592e-21)
(1.06608 0.0630387 5.60086e-22)
(1.07587 0.045193 1.15122e-21)
(1.06733 0.0494162 6.85284e-22)
(1.08524 0.0416011 7.38486e-21)
(1.07124 0.0350056 5.83261e-21)
(1.0935 0.0366555 -1.19978e-20)
(1.05956 0.0532846 -1.01681e-21)
(1.07078 0.040538 -2.85188e-21)
(1.06107 0.0415418 3.91287e-21)
(1.07764 0.0370541 4.84316e-22)
(1.06705 0.0308426 -4.23073e-21)
(1.0855 0.0326855 -2.47949e-21)
(1.05415 0.0446833 3.82976e-22)
(1.06555 0.0365744 4.55315e-23)
(1.05614 0.0351391 -4.00107e-21)
(1.07031 0.032893 -3.84027e-21)
(1.06207 0.0266684 3.6942e-21)
(1.07516 0.0271316 7.42345e-21)
(1.04997 0.0380335 -1.37341e-22)
(1.06004 0.0324852 -2.38438e-22)
(1.05194 0.0304335 1.2075e-21)
(1.06211 0.0281025 6.50979e-21)
(1.05623 0.0232794 -5.03528e-22)
(1.06466 0.0219054 5.22926e-21)
(1.04669 0.0328056 8.03693e-22)
(1.05398 0.0287037 5.15767e-22)
(1.04803 0.0268986 1.39546e-21)
(1.05472 0.024239 -2.30146e-21)
(1.05125 0.0213582 -4.48811e-22)
(1.0573 0.0188055 -1.24297e-20)
(1.04362 0.0288315 -9.15872e-22)
(1.04818 0.0255085 -1.00903e-21)
(1.0446 0.0243711 -3.06689e-21)
(1.04866 0.0215076 -3.06312e-21)
(1.04669 0.0199768 -1.69105e-21)
(1.05054 0.0166058 6.84734e-21)
(1.04031 0.0253906 5.21336e-22)
(1.04334 0.0227431 -7.74224e-22)
(1.04115 0.0220081 4.01446e-22)
(1.04379 0.0191888 3.18748e-21)
(1.04225 0.0184383 5.08638e-22)
(1.04507 0.0148444 1.58913e-22)
(1.03675 0.0218922 -3.65117e-22)
(1.03884 0.0200075 1.3646e-21)
(1.0377 0.0194774 2.59188e-22)
(1.03953 0.0171851 -5.06114e-21)
(1.03879 0.0169822 1.42895e-21)
(1.04096 0.0138175 3.84631e-21)
(1.03296 0.0186285 1.60817e-22)
(1.03454 0.0170911 2.14666e-22)
(1.0339 0.0168974 2.94581e-21)
(1.03526 0.0148215 -4.29299e-22)
(1.03508 0.0153053 1.86558e-21)
(1.03671 0.0123555 -4.64032e-21)
(1.03023 0.016357 7.97877e-23)
(1.03105 0.0147032 -1.2037e-21)
(1.0307 0.0148127 -1.11898e-21)
(1.03143 0.0125717 1.66861e-22)
(1.0313 0.0134385 3.91612e-24)
(1.03258 0.0106166 2.64799e-21)
(1.02829 0.0144529 8.92181e-24)
(1.02832 0.0132754 1.67395e-21)
(1.02854 0.0131463 -2.57025e-22)
(1.02854 0.011332 5.27103e-21)
(1.02866 0.011912 -1.72386e-21)
(1.02928 0.00961332 -6.9012e-22)
(1.02643 0.0126102 2.52914e-23)
(1.02549 0.0119274 1.12339e-23)
(1.02687 0.0115751 -1.94771e-22)
(1.02575 0.0104986 -3.78311e-21)
(1.02696 0.0105532 -2.16733e-21)
(1.02634 0.00917016 1.72076e-21)
(1.02444 0.0110933 3.01221e-23)
(1.02299 0.0103466 -9.40239e-22)
(1.025 0.0101449 -7.54802e-22)
(1.02333 0.00955693 6.379e-22)
(1.02504 0.00921645 1.88586e-21)
(1.02385 0.00879267 -1.9702e-21)
(1.02216 0.00972544 1.64984e-22)
(1.02133 0.00889585 -5.71105e-22)
(1.02265 0.00876265 9.44962e-23)
(1.0217 0.00867007 6.2024e-22)
(1.02273 0.00790269 1.02841e-21)
(1.02226 0.00843786 -2.12975e-21)
(1.01986 0.0084608 -2.18006e-22)
(1.02029 0.00754676 2.61513e-22)
(1.02036 0.00760804 1.68916e-22)
(1.02071 0.00762195 1.25649e-21)
(1.02059 0.00687367 -8.916e-22)
(1.02108 0.0076529 -9.81904e-22)
(1.01812 0.00706113 3.09166e-22)
(1.0192 0.00640597 -5.80262e-22)
(1.01858 0.00643959 1.59207e-21)
(1.01955 0.00649136 -1.82637e-21)
(1.01881 0.00590864 1.0914e-21)
(1.01973 0.00654778 -1.22212e-21)
(1.01698 0.00569013 8.20871e-23)
(1.01788 0.00533954 3.96141e-23)
(1.01742 0.00531877 -1.41148e-21)
(1.01822 0.00538084 -6.54765e-22)
(1.01773 0.00502295 9.40756e-22)
(1.01844 0.00544145 2.6333e-21)
(1.01619 0.00442323 -1.84161e-22)
(1.0167 0.00434036 2.44476e-22)
(1.01662 0.00423371 1.41977e-21)
(1.01706 0.00435266 8.60884e-22)
(1.01694 0.00409167 -1.11781e-21)
(1.01729 0.00438262 -1.90146e-22)
(1.01552 0.00336466 5.08327e-24)
(1.01576 0.00342793 -2.14359e-22)
(1.01592 0.00328209 1.45914e-22)
(1.01612 0.00342476 -5.76433e-23)
(1.01622 0.0032305 8.14467e-22)
(1.01637 0.00344169 -4.53924e-22)
(1.01493 0.00214534 1.79752e-23)
(1.0151 0.00226872 -2.63472e-23)
(1.01532 0.00213795 3.72087e-22)
(1.01547 0.00227681 -1.25608e-21)
(1.01562 0.00214875 4.443e-22)
(1.01576 0.00230033 -1.63291e-21)
(1.01458 0.00126738 -1.52698e-22)
(1.01475 0.00135541 3.712e-22)
(1.01491 0.00128131 9.98256e-23)
(1.01508 0.00135834 2.46e-23)
(1.01519 0.00129745 -1.61721e-22)
(1.01537 0.001366 3.40879e-22)
(1.01435 0.000567046 3.50502e-22)
(1.01452 0.000593963 -2.74946e-22)
(1.01462 0.000569405 -5.32144e-22)
(1.01483 0.000589215 1.81848e-22)
(1.0149 0.000571843 1.09889e-21)
(1.01512 0.000586578 3.15387e-22)
(0.965825 0.158446 6.81559e-20)
(0.95648 0.16475 -8.59906e-20)
(0.946525 0.168288 -6.9581e-20)
(0.936501 0.176576 -5.12871e-20)
(0.928035 0.190694 -1.33616e-21)
(0.921116 0.20603 -3.35872e-20)
(0.913604 0.222762 3.86751e-20)
(0.904493 0.240492 1.16926e-19)
(0.895061 0.259573 -1.08268e-19)
(0.887044 0.280262 7.84381e-20)
(0.878866 0.305376 -2.09536e-19)
(0.870889 0.333886 8.95815e-20)
(0.86042 0.364098 -4.12083e-20)
(0.849005 0.397242 -1.08547e-20)
(0.839325 0.438421 -1.3976e-20)
(0.833218 0.48271 -2.80126e-20)
(0.82606 0.536136 1.16153e-20)
(0.827121 0.593564 -5.47515e-20)
(0.829052 0.657846 1.63321e-20)
(0.611716 0.611877 -7.21521e-21)
(0.971968 0.150149 -1.73941e-21)
(0.968941 0.166933 -8.26859e-20)
(0.963109 0.176513 7.53235e-20)
(0.95683 0.18611 3.68672e-20)
(0.94851 0.199156 5.72873e-20)
(0.943165 0.215816 -5.65731e-21)
(0.938224 0.233085 -8.67636e-20)
(0.932439 0.251365 -2.73912e-20)
(0.924547 0.271335 4.10488e-20)
(0.919986 0.293075 3.40839e-20)
(0.917153 0.31721 -5.98473e-20)
(0.91183 0.344548 3.49158e-20)
(0.906686 0.37449 -2.24382e-20)
(0.904747 0.406529 5.5155e-22)
(0.900328 0.444922 -1.9035e-20)
(0.899174 0.487297 2.57272e-20)
(0.894742 0.538891 -2.90144e-20)
(0.894377 0.594192 5.1767e-21)
(0.910787 0.644931 -2.24927e-20)
(0.681097 0.591441 9.2779e-20)
(0.986822 0.155886 3.3902e-20)
(0.984078 0.173919 1.60106e-20)
(0.981018 0.183884 2.42643e-20)
(0.976771 0.192486 -1.10476e-19)
(0.972647 0.204305 2.47449e-21)
(0.968599 0.219218 6.15746e-20)
(0.967114 0.237611 4.30566e-20)
(0.964297 0.255508 -3.18701e-20)
(0.958691 0.274779 -2.49414e-20)
(0.952934 0.296356 -1.15689e-20)
(0.95325 0.321935 5.86918e-20)
(0.954065 0.348599 -3.87894e-20)
(0.94783 0.377275 2.96654e-21)
(0.947494 0.408844 -9.79051e-21)
(0.951775 0.445606 6.07366e-21)
(0.957526 0.483874 -1.20905e-20)
(0.965349 0.531262 1.6087e-20)
(0.977888 0.585851 6.60092e-21)
(0.995078 0.619579 3.6609e-21)
(0.728457 0.551887 1.92896e-20)
(1.00365 0.158734 4.36689e-20)
(1.00141 0.178358 -4.10409e-20)
(1.00141 0.193258 -1.20811e-20)
(0.999294 0.202624 1.4592e-20)
(0.9952 0.213037 3.32978e-20)
(0.993379 0.227121 -4.38083e-20)
(0.99223 0.243232 5.48427e-20)
(0.992587 0.262165 -6.86166e-21)
(0.990561 0.279927 2.2604e-21)
(0.988757 0.299232 -1.04106e-20)
(0.987683 0.322378 -1.3321e-20)
(0.992715 0.349027 1.69689e-22)
(0.995903 0.375781 -3.76762e-21)
(0.996187 0.404023 5.04582e-21)
(1.00058 0.438288 3.81289e-21)
(1.01065 0.472977 3.24105e-21)
(1.01714 0.51388 -2.82173e-20)
(1.02853 0.563793 -1.38967e-20)
(1.05449 0.581063 1.35887e-20)
(0.76548 0.49864 -1.54802e-19)
(1.0123 0.157692 -3.17147e-20)
(1.01522 0.175751 -7.02648e-21)
(1.01622 0.189133 -2.66945e-20)
(1.01828 0.201576 -8.4051e-22)
(1.01822 0.212587 1.25318e-20)
(1.01777 0.22621 1.1488e-20)
(1.02092 0.243359 9.9032e-21)
(1.02159 0.260631 8.78021e-21)
(1.01925 0.280074 -2.55611e-20)
(1.01889 0.2987 2.4652e-20)
(1.02339 0.320445 4.76557e-21)
(1.02688 0.343867 5.70183e-22)
(1.02963 0.369915 -5.95587e-21)
(1.03796 0.396231 2.25885e-20)
(1.04682 0.426891 1.10633e-20)
(1.05968 0.45845 -5.6919e-20)
(1.07705 0.493861 2.00645e-20)
(1.09522 0.538163 -2.54329e-20)
(1.10476 0.540146 2.22614e-20)
(0.75855 0.436879 1.54952e-19)
(1.03278 0.164627 8.33055e-21)
(1.03614 0.179851 2.90676e-20)
(1.03973 0.194029 -4.59751e-21)
(1.03875 0.203597 3.39173e-21)
(1.03785 0.214481 7.32948e-21)
(1.03858 0.226638 -5.19448e-21)
(1.04108 0.242032 8.4093e-21)
(1.04883 0.260086 -3.77258e-21)
(1.05038 0.276558 -4.94946e-21)
(1.0492 0.295035 -2.19378e-21)
(1.05207 0.315932 3.19888e-21)
(1.06246 0.338347 4.70287e-21)
(1.0682 0.360233 -6.19594e-22)
(1.07145 0.384177 1.63486e-20)
(1.08311 0.411349 -1.56428e-20)
(1.0976 0.437478 4.34133e-20)
(1.10921 0.466232 -4.01087e-20)
(1.12302 0.501357 -4.78516e-20)
(1.1225 0.489115 5.37583e-20)
(0.74515 0.372271 -5.85098e-20)
(1.04238 0.16167 9.01458e-21)
(1.0503 0.175009 -3.86287e-21)
(1.05772 0.186961 -8.5524e-21)
(1.06226 0.201555 1.08326e-20)
(1.06169 0.212085 -1.88102e-21)
(1.0634 0.224355 -1.10128e-21)
(1.06803 0.238959 2.62527e-22)
(1.06993 0.254498 -1.90852e-21)
(1.07389 0.272164 5.69225e-21)
(1.0786 0.288065 -2.49848e-21)
(1.08525 0.307419 4.02595e-21)
(1.0901 0.32867 -2.13122e-21)
(1.09947 0.350166 -9.92068e-21)
(1.11136 0.370999 1.31768e-20)
(1.1204 0.395817 -8.18854e-21)
(1.13665 0.420464 4.62448e-21)
(1.1554 0.445581 -8.70457e-20)
(1.16664 0.471893 6.0708e-20)
(1.12359 0.444365 6.84692e-20)
(0.661883 0.303479 -1.47127e-20)
(1.06139 0.165251 2.40894e-21)
(1.066 0.175366 -4.55527e-22)
(1.07476 0.185026 -1.9655e-21)
(1.07781 0.193677 1.28771e-21)
(1.0783 0.207584 -7.13922e-22)
(1.07967 0.219977 -1.32279e-21)
(1.08739 0.234806 -5.38026e-22)
(1.099 0.251116 4.2584e-21)
(1.10049 0.264675 -3.27005e-22)
(1.10049 0.281859 5.51116e-22)
(1.10814 0.299239 3.39887e-21)
(1.12125 0.317142 -3.54066e-21)
(1.12513 0.335955 6.63956e-21)
(1.1317 0.355331 -1.5259e-20)
(1.14717 0.376445 3.96745e-20)
(1.16046 0.396223 -2.46921e-20)
(1.1692 0.419008 5.4798e-20)
(1.16543 0.4395 -4.67778e-20)
(1.07765 0.394428 1.33897e-21)
(0.575035 0.234861 4.12266e-20)
(1.07863 0.162998 -1.64599e-21)
(1.08524 0.171991 9.33436e-23)
(1.09286 0.181134 7.12637e-22)
(1.10014 0.192445 -1.65055e-22)
(1.10096 0.19995 1.77751e-22)
(1.10416 0.212194 -1.14134e-21)
(1.10989 0.226215 1.69791e-21)
(1.11391 0.240706 -7.39431e-21)
(1.1225 0.257246 1.89397e-21)
(1.13117 0.270186 -7.61216e-21)
(1.13771 0.289287 -2.45916e-21)
(1.14331 0.307855 2.56308e-21)
(1.15648 0.324419 6.4782e-21)
(1.16729 0.341169 -4.89271e-21)
(1.17435 0.360283 -1.84888e-20)
(1.18978 0.380775 -3.21013e-20)
(1.20257 0.401727 2.50504e-20)
(1.18369 0.415955 9.11087e-21)
(1.02355 0.364377 -2.48302e-21)
(0.361702 0.17714 -2.25948e-20)
(1.09138 0.156492 3.67069e-23)
(1.09775 0.165522 9.90357e-23)
(1.10844 0.175418 1.30775e-22)
(1.11389 0.18331 -3.35986e-22)
(1.11483 0.195619 7.54702e-22)
(1.11695 0.206188 4.60036e-22)
(1.12943 0.219527 -1.67792e-21)
(1.14509 0.234042 1.92587e-21)
(1.14552 0.246189 3.21045e-21)
(1.14717 0.263913 -3.17478e-21)
(1.16022 0.27741 3.09508e-22)
(1.17305 0.293868 9.08568e-21)
(1.1738 0.311022 -3.95622e-21)
(1.18168 0.327711 7.63072e-21)
(1.19723 0.344691 2.97958e-22)
(1.20546 0.357744 -3.76342e-21)
(1.1989 0.374958 1.80494e-20)
(1.14082 0.384975 4.01828e-21)
(0.866051 0.309449 -2.42996e-20)
(0.0721754 0.0314425 -1.56665e-20)
(0.814998 -0.0351228 4.94582e-21)
(0.798708 -0.0384591 4.01833e-21)
(0.780423 -0.0416604 -7.71651e-21)
(0.759304 -0.0447997 6.65957e-21)
(0.735701 -0.048002 6.34951e-22)
(0.708784 -0.0514805 -1.10753e-20)
(0.679254 -0.0553041 1.79761e-20)
(0.646005 -0.0591859 -1.87467e-20)
(0.609326 -0.0633182 3.73566e-20)
(0.567602 -0.0671481 -2.44128e-20)
(0.521082 -0.0709348 4.42615e-21)
(0.467034 -0.0745381 1.57329e-20)
(0.407143 -0.0781702 -1.1706e-20)
(0.335266 -0.0814007 -1.49069e-20)
(0.255764 -0.0847646 1.3071e-20)
(0.155913 -0.0889952 -1.93445e-20)
(0.0479006 -0.0770505 5.96102e-21)
(0.812888 -0.00850694 -4.62168e-20)
(0.797145 -0.00899767 -1.11468e-20)
(0.779347 -0.00922588 -3.29107e-20)
(0.758419 -0.00916705 -3.17932e-20)
(0.734762 -0.00890112 3.29466e-20)
(0.707733 -0.00833029 -1.82338e-20)
(0.678184 -0.00765825 -1.05102e-20)
(0.645192 -0.00652494 4.72182e-20)
(0.609097 -0.00515617 -6.53464e-20)
(0.568148 -0.00310175 1.7391e-20)
(0.522682 -0.000353813 8.07236e-21)
(0.469582 0.00340909 -7.06549e-20)
(0.410132 0.00844117 -3.01702e-20)
(0.338627 0.0147792 -7.89419e-21)
(0.260116 0.0218432 4.57682e-20)
(0.16331 0.0352231 5.56343e-21)
(0.0558705 0.0380591 4.0173e-20)
(0.815546 0.0164827 -6.02948e-21)
(0.799958 0.0184727 -4.1473e-23)
(0.782376 0.020904 -7.20828e-21)
(0.761718 0.0236171 5.69942e-21)
(0.73854 0.0267356 1.20048e-19)
(0.712224 0.0306779 -9.12813e-20)
(0.683335 0.0352502 2.58729e-20)
(0.651051 0.0412158 -3.57982e-20)
(0.615487 0.0480336 -4.59912e-20)
(0.575343 0.0564961 4.81216e-20)
(0.531629 0.0662937 2.20991e-20)
(0.481874 0.0783746 2.87979e-20)
(0.427617 0.092691 -5.58762e-21)
(0.361702 0.109803 -6.82089e-20)
(0.286049 0.127373 1.68792e-19)
(0.191665 0.154243 -1.70823e-20)
(0.0797019 0.148097 -4.33276e-20)
(0.834835 0.0390228 6.11241e-20)
(0.822066 0.0426242 6.61305e-21)
(0.807075 0.0469572 1.57102e-20)
(0.789908 0.0521047 -2.39185e-20)
(0.769538 0.0579428 2.33929e-20)
(0.747026 0.0640936 -1.17958e-20)
(0.722048 0.070835 -8.78781e-21)
(0.695106 0.0783078 -5.965e-20)
(0.665119 0.0870338 4.24575e-20)
(0.631355 0.0973712 3.83646e-20)
(0.591801 0.10956 -2.33276e-20)
(0.547174 0.123953 -1.15774e-19)
(0.496755 0.142099 4.07223e-20)
(0.443836 0.164652 9.36543e-20)
(0.383856 0.194226 1.03213e-19)
(0.316624 0.224685 -1.52123e-19)
(0.23167 0.266937 -6.32215e-20)
(0.115238 0.254037 -8.18453e-21)
(0.843336 0.0602356 -2.18441e-20)
(0.831545 0.0655157 -1.21985e-20)
(0.817233 0.0716218 -7.83332e-20)
(0.800945 0.0788412 1.24194e-19)
(0.781315 0.0878668 7.94672e-21)
(0.75934 0.0982471 5.16684e-20)
(0.734981 0.109583 2.76168e-20)
(0.709314 0.121864 -6.20079e-20)
(0.682392 0.135522 2.61752e-20)
(0.654002 0.151101 8.12157e-20)
(0.621121 0.168872 2.48013e-20)
(0.581941 0.188105 -2.99285e-19)
(0.534658 0.209818 3.07623e-19)
(0.483262 0.235714 -1.79157e-19)
(0.426698 0.270859 -2.09743e-19)
(0.364819 0.309861 2.37861e-19)
(0.285165 0.36917 -2.01395e-19)
(0.161816 0.353336 2.79895e-20)
(0.866217 0.0774066 6.29073e-20)
(0.856747 0.0839636 -5.06334e-20)
(0.84554 0.0915509 6.44126e-20)
(0.832011 0.0994152 -2.81037e-20)
(0.816386 0.1072 -9.7879e-20)
(0.798481 0.116213 9.43434e-20)
(0.778594 0.127219 -3.17397e-20)
(0.755643 0.140519 -1.15961e-20)
(0.730505 0.155261 -4.64734e-20)
(0.70276 0.172326 3.84807e-20)
(0.675696 0.192006 -6.42511e-20)
(0.647209 0.216324 1.88809e-20)
(0.61633 0.243461 3.90077e-20)
(0.575584 0.273366 -1.92391e-19)
(0.530999 0.305269 2.81432e-19)
(0.477311 0.346563 -6.93622e-20)
(0.427011 0.393185 6.18916e-20)
(0.353221 0.459166 1.16252e-20)
(0.219436 0.433682 1.67168e-19)
(0.884359 0.0879874 1.12584e-19)
(0.8788 0.0922228 2.71904e-20)
(0.870929 0.0996106 -1.82766e-19)
(0.860384 0.109682 1.77659e-19)
(0.84794 0.122112 -9.937e-21)
(0.833344 0.134973 -6.53114e-20)
(0.816468 0.147327 -8.6944e-20)
(0.799434 0.160133 1.03784e-19)
(0.780695 0.174715 8.61437e-20)
(0.760154 0.190757 5.93776e-20)
(0.734697 0.208807 1.49282e-19)
(0.707784 0.228762 -1.50597e-19)
(0.679689 0.254178 -7.72244e-20)
(0.654327 0.284832 2.46988e-19)
(0.621488 0.320579 -1.27346e-19)
(0.586274 0.358608 -7.03471e-20)
(0.542435 0.405252 -9.37968e-20)
(0.498026 0.454888 8.19751e-20)
(0.447686 0.532419 -1.83161e-20)
(0.297487 0.505745 -5.04473e-20)
(0.900809 0.109526 1.04388e-19)
(0.897348 0.115046 -2.8858e-20)
(0.88983 0.121059 2.73424e-20)
(0.878325 0.128638 -1.78925e-19)
(0.864965 0.139063 -2.3183e-20)
(0.850858 0.153102 7.5347e-20)
(0.835196 0.169098 1.229e-19)
(0.819243 0.185655 -1.11445e-19)
(0.803635 0.203927 -4.66668e-20)
(0.788432 0.223722 -5.23143e-22)
(0.769644 0.245326 1.99769e-20)
(0.746968 0.267854 -1.38979e-19)
(0.721105 0.294125 -6.3894e-20)
(0.697345 0.32637 5.40219e-20)
(0.671208 0.364668 1.15105e-19)
(0.641122 0.406559 -1.12249e-19)
(0.609031 0.458466 -1.31973e-20)
(0.574243 0.5139 3.37868e-20)
(0.524443 0.591242 -6.39451e-20)
(0.366911 0.559227 -2.36754e-20)
(0.915884 0.119457 -3.38073e-20)
(0.915147 0.126601 -9.68719e-20)
(0.911294 0.139267 1.29117e-19)
(0.902981 0.150855 -9.55203e-20)
(0.890772 0.161832 -6.58564e-20)
(0.877039 0.173982 1.68575e-20)
(0.862111 0.188605 1.94803e-20)
(0.846683 0.205211 1.6371e-20)
(0.831655 0.224 3.18843e-20)
(0.818325 0.245571 1.56602e-19)
(0.804672 0.27004 -2.04399e-20)
(0.78759 0.295297 -2.00807e-20)
(0.767449 0.323293 2.80261e-20)
(0.74813 0.356701 4.85321e-20)
(0.7279 0.397227 -1.60266e-19)
(0.704781 0.440528 1.97748e-19)
(0.676506 0.493996 -8.11366e-20)
(0.659275 0.551037 7.98156e-20)
(0.637327 0.631164 6.4782e-20)
(0.45653 0.596565 -4.96404e-20)
(0.93435 0.140237 -5.24406e-21)
(0.928077 0.139498 -2.45673e-20)
(0.920666 0.147085 1.73274e-20)
(0.914139 0.161848 1.10847e-19)
(0.906345 0.177074 6.7494e-22)
(0.897352 0.19227 2.18429e-20)
(0.886092 0.208347 -7.37051e-20)
(0.874044 0.22527 6.40188e-20)
(0.861539 0.244149 -1.08901e-19)
(0.850218 0.265705 5.89638e-20)
(0.839552 0.291618 1.28824e-19)
(0.82748 0.319296 -1.45902e-19)
(0.811386 0.348275 1.94238e-19)
(0.797538 0.38203 -3.31243e-21)
(0.784639 0.423364 -7.10394e-20)
(0.772206 0.467981 1.47095e-19)
(0.753299 0.522353 -9.53034e-20)
(0.735629 0.579787 1.54919e-20)
(0.722093 0.653146 -3.41845e-20)
(0.532561 0.613826 2.04298e-20)
(0.902809 0.105519 -2.93754e-20)
(0.915664 0.117932 1.2967e-19)
(0.929885 0.103304 -2.03513e-22)
(0.937811 0.141301 4.50755e-20)
(0.961603 0.0999187 0)
(0.947497 0.130488 0)
(0.974279 0.10522 0)
(0.960685 0.114322 0)
(0.973213 0.101462 0)
(0.971259 0.105466 0)
(0.972886 0.0959088 0)
(0.974686 0.0988008 0)
(0.975741 0.0909609 0)
(0.976653 0.0930066 0)
(0.981107 0.0856807 0)
(0.980017 0.0879569 0)
(0.988354 0.0800621 0)
(0.985194 0.0831421 0)
(0.995903 0.0743728 0)
(0.991275 0.0775756 0)
(1.00261 0.0684977 0)
(0.996911 0.0709591 0)
(1.00784 0.0624024 0)
(1.00271 0.0643573 0)
(1.01161 0.0566303 0)
(1.00804 0.0580408 0)
(1.0142 0.0509124 0)
(1.0123 0.0524635 0)
(1.01601 0.0455503 0)
(1.01575 0.0468954 0)
(1.0176 0.040283 0)
(1.01844 0.0414557 0)
(1.01856 0.0350936 0)
(1.02018 0.0361428 0)
(1.01914 0.0307136 0)
(1.02081 0.031332 0)
(1.02006 0.0273252 0)
(1.02144 0.0278366 0)
(1.02044 0.0242156 0)
(1.02177 0.0248296 0)
(1.01946 0.0208127 0)
(1.02136 0.0213552 0)
(1.01827 0.0178912 0)
(1.02068 0.0179632 0)
(1.01772 0.0157188 0)
(1.01973 0.0150257 0)
(1.01748 0.0139198 0)
(1.01852 0.0125811 0)
(1.017 0.0119304 0)
(1.01724 0.0106522 0)
(1.01617 0.00991965 0)
(1.01609 0.00901482 0)
(1.01511 0.00800803 0)
(1.01515 0.00752531 0)
(1.01412 0.00627636 0)
(1.01425 0.00608189 0)
(1.01332 0.00461867 0)
(1.01346 0.00463286 0)
(1.01281 0.00269789 0)
(1.01296 0.00275208 0)
(1.01176 0.00136378 0)
(1.01212 0.00139999 0)
(1.01153 0.000558355 0)
(1.01193 0.000591034 0)
(0.971403 0.136535 -3.84758e-20)
(0.973675 0.12448 2.8313e-20)
(0.995445 0.133281 -6.92258e-20)
(1.00537 0.133083 2.40337e-21)
(1.01436 0.137463 1.48501e-20)
(1.03271 0.144581 -1.56028e-20)
(1.0407 0.140108 -1.24367e-20)
(1.06364 0.147242 -4.4814e-21)
(1.07369 0.140249 2.79797e-21)
(1.09085 0.142451 7.32414e-23)
(0.979416 0.130593 3.1764e-20)
(0.97485 0.120245 2.11414e-20)
(1.00223 0.137301 3.52137e-20)
(1.00398 0.130677 -5.08052e-21)
(1.01991 0.143338 1.28775e-20)
(1.02842 0.143004 -2.47974e-20)
(1.04231 0.142795 7.86915e-21)
(1.06032 0.141823 -1.89657e-22)
(1.07228 0.136498 -9.28644e-22)
(1.08581 0.135404 -4.29946e-22)
(0.97782 0.123206 -3.27279e-20)
(0.974215 0.11031 -4.10302e-20)
(0.998768 0.128426 1.89633e-20)
(1.00186 0.112414 -2.21594e-20)
(1.02369 0.130792 -8.07717e-21)
(1.02575 0.120856 1.09382e-20)
(1.04424 0.129763 7.88873e-22)
(1.05596 0.118696 4.12194e-21)
(1.07297 0.123218 -4.20872e-22)
(1.08096 0.111799 6.51906e-22)
(0.976714 0.115774 5.07412e-20)
(0.976663 0.102623 5.53263e-20)
(0.997412 0.123462 -9.76648e-21)
(1.00705 0.104378 -9.3006e-23)
(1.02809 0.128621 -4.37762e-21)
(1.03186 0.109796 3.71099e-21)
(1.04726 0.128675 -2.20157e-21)
(1.058 0.10772 2.74869e-22)
(1.0727 0.121071 -4.10085e-22)
(1.0828 0.0979935 -2.79602e-22)
(0.978269 0.108042 -3.45728e-20)
(0.980911 0.0961888 -5.37553e-21)
(0.99867 0.115662 -2.61252e-20)
(1.01305 0.0953428 -1.09985e-20)
(1.03087 0.118468 2.72296e-21)
(1.03883 0.0953913 6.51241e-21)
(1.04746 0.117422 4.62402e-21)
(1.06035 0.0916445 3.6146e-21)
(1.06876 0.111131 -7.16863e-23)
(1.08448 0.081036 -3.81191e-22)
(0.983444 0.100583 -1.02495e-20)
(0.98721 0.0902675 -1.80124e-20)
(1.00232 0.106593 2.88701e-20)
(1.01918 0.0880178 1.53601e-20)
(1.03377 0.10818 -5.87299e-21)
(1.04369 0.086203 -8.74965e-21)
(1.04872 0.106662 -4.68011e-21)
(1.06026 0.0820299 -2.43308e-21)
(1.06687 0.102547 -7.52831e-23)
(1.08025 0.0711437 1.29741e-23)
(0.991535 0.0928537 1.68371e-20)
(0.993274 0.083961 1.3325e-20)
(1.00789 0.0973088 -9.72374e-21)
(1.02313 0.0809203 1.3852e-20)
(1.03712 0.0978735 1.69471e-20)
(1.04545 0.0770701 8.36771e-21)
(1.05021 0.0957631 -2.62823e-22)
(1.05703 0.0715292 -8.49772e-21)