/*--------------------------------*- C++ -*----------------------------------*\
| =========                 |                                                 |
| \\      /  F ield         | OpenFOAM: The Open Source CFD Toolbox           |
|  \\    /   O peration     | Version:                                        |
|   \\  /    A nd           | Website:  www.openfoam.com                      |
|    \\/     M anipulation  |                                                 |
\*---------------------------------------------------------------------------*/
FoamFile
{
    version     2.0;
    format      ascii;
    class       surfaceScalarField;
    location    "81.6";
    object      phi;
}
// * * * * * * * * * * * * * * * * * * * * * * * * * * * * * * * * * * * * * //

dimensions      [0 3 -1 0 0 0 0];
oriented        oriented;


internalField   nonuniform List<scalar> 
2202
(
0.0322888
0.0910805
0.0279265
0.0757655
0.02589
0.0352199
0.0265455
-0.0165469
0.02989
-0.0655986
0.0336407
-0.0881512
0.0329702
-0.0966168
0.0280812
-0.0955829
0.0243623
-0.0921745
0.0249642
-0.0631472
0.0290216
-0.00168907
0.0342071
0.0386999
0.0348732
0.0914389
0.0331681
0.10631
0.0347584
0.113894
0.0385598
0.0657419
0.0416947
-0.00988435
0.0424372
-0.0693741
0.0413245
-0.146994
0.0428322
-0.124467
0.0452407
-0.0629335
0.0459707
0.0526169
0.0458423
0.162686
0.0461906
0.137031
0.0458296
0.0485938
0.0436335
-0.137567
0.0422408
-0.188999
0.0394202
0.0293061
0.0370902
0.113622
0.0284243
0.0399356
0.0941186
0.036574
0.079127
0.0339876
0.0378064
0.032646
-0.0152054
0.0331355
-0.0660881
0.0354467
-0.0904623
0.0337879
-0.094958
0.0283365
-0.0901315
0.0242587
-0.0880967
0.0249726
-0.0638611
0.0289504
-0.0056669
0.0340353
0.033615
0.0344042
0.09107
0.0327395
0.107975
0.0350134
0.111621
0.0390431
0.0617122
0.0424158
-0.013257
0.0433108
-0.0702692
0.0415884
-0.145271
0.0425922
-0.125471
0.0444508
-0.0647921
0.0450334
0.0520342
0.0455991
0.16212
0.0469037
0.135726
0.0468446
0.048653
0.0440621
-0.134784
0.042513
-0.18745
0.0396638
0.0321553
0.0368827
0.116403
0.0302885
0.0499125
0.0955303
0.0469163
0.0821232
0.0431859
0.0415368
0.0400161
-0.0120356
0.0373744
-0.0634464
0.0373788
-0.0904667
0.0348277
-0.0924069
0.0293433
-0.0846472
0.0251397
-0.0838931
0.0257799
-0.0645013
0.0293412
-0.00922819
0.0342795
0.0286767
0.0361281
0.0892215
0.034918
0.109185
0.0365322
0.110006
0.0402571
0.0579873
0.0432394
-0.0162392
0.0436931
-0.0707229
0.0413
-0.142878
0.041901
-0.126072
0.0434585
-0.0663496
0.0443329
0.0511599
0.0457137
0.160739
0.0477976
0.133642
0.0476506
0.0487999
0.0442173
-0.131351
0.0427021
-0.185935
0.0401055
0.0347518
0.0369402
0.119568
0.0323452
0.0605275
0.0945838
0.0581553
0.0844954
0.0532977
0.0463944
0.0484608
-0.00719866
0.0431719
-0.0581575
0.0405872
-0.087882
0.0368517
-0.0886714
0.0308897
-0.0786852
0.0258202
-0.0788236
0.0260386
-0.0647196
0.0304543
-0.0136439
0.0359346
0.0231964
0.0379646
0.0871914
0.0357863
0.111363
0.0372882
0.108504
0.0416377
0.0536378
0.0447106
-0.0193122
0.0450195
-0.0710317
0.0418817
-0.13974
0.0416193
-0.125809
0.0426055
-0.0673358
0.0435818
0.0501836
0.0454497
0.158871
0.0483147
0.130777
0.0484819
0.0486327
0.0446312
-0.1275
0.0429789
-0.184283
0.0405327
0.0371979
0.0370798
0.123021
0.0345632
0.0704267
0.091455
0.0693766
0.0855455
0.0642877
0.0514833
0.0579021
-0.000813111
0.0494177
-0.0496731
0.0433491
-0.0818134
0.0386125
-0.0839348
0.03268
-0.0727527
0.0270892
-0.0732328
0.0273506
-0.064981
0.0326474
-0.0189407
0.0377692
0.0180746
0.0407574
0.0842032
0.0390477
0.113073
0.0397583
0.107794
0.0434021
0.0499941
0.0458766
-0.0217867
0.0456402
-0.0707953
0.0418647
-0.135965
0.0408061
-0.124751
0.0414818
-0.0680115
0.0429488
0.0487166
0.0454899
0.15633
0.0488127
0.127454
0.0489584
0.0484871
0.0447415
-0.123283
0.0431485
-0.18269
0.0410497
0.0392967
0.0374214
0.126649
0.0369583
0.0781013
0.0782869
0.0853599
0.0733421
0.0564281
0.0658905
0.00663846
0.0558057
-0.0395883
0.0467866
-0.0727943
0.0406881
-0.0778363
0.0342487
-0.0663133
0.0277812
-0.0667653
0.0273947
-0.0645945
0.0330597
-0.0246057
0.0392622
0.0118722
0.0438006
0.0796648
0.041629
0.115244
0.0415636
0.107859
0.0453813
0.0461764
0.0477561
-0.0241615
0.047029
-0.0700683
0.0425531
-0.131489
0.0404469
-0.122645
0.0407687
-0.0683333
0.0424634
0.0470219
0.0452216
0.153572
0.0488809
0.123795
0.0493774
0.0479906
0.0450115
-0.118917
0.0434416
-0.18112
0.0415972
0.0411411
0.0378095
0.130437
0.0394726
0.0852076
0.0827565
0.0812285
0.0604072
0.0731838
0.0146832
0.0615779
-0.0279824
0.0497219
-0.0609383
0.0425706
-0.0706849
0.0357702
-0.0595129
0.0283201
-0.0593152
0.0268784
-0.0631529
0.033665
-0.0313924
0.0417472
0.00378993
0.0471595
0.0742525
0.045607
0.116797
0.0452091
0.108257
0.0478892
0.0434963
0.048773
-0.0250453
0.0472558
-0.068551
0.0424522
-0.126685
0.0398464
-0.120039
0.0401479
-0.0686348
0.0422861
0.0448837
0.0453072
0.150551
0.0489168
0.120185
0.049434
0.0474735
0.0449015
-0.114385
0.0435424
-0.179761
0.0421615
0.042522
0.0383634
0.134235
0.0420806
0.0866823
0.0781268
0.0829275
0.0641619
0.0762
0.0214107
0.0655743
-0.0173566
0.0521622
-0.0475262
0.0441641
-0.0626868
0.0378393
-0.0531881
0.0299148
-0.0513907
0.0269566
-0.0601947
0.0332257
-0.0376614
0.042272
-0.00525639
0.0496054
0.0669191
0.0490977
0.117305
0.0480629
0.109292
0.0503457
0.0412136
0.0505311
-0.0252308
0.0481108
-0.0661308
0.0428068
-0.121381
0.0396892
-0.116921
0.0397716
-0.0687172
0.0420931
0.0425623
0.0449259
0.147718
0.0486096
0.116502
0.0495004
0.0465826
0.0449766
-0.109861
0.0437259
-0.17851
0.0426596
0.0435883
0.0389252
0.137969
0.0446819
0.0880784
0.0695464
0.0869651
0.0652752
0.0813046
0.0270712
0.0690238
-0.00507587
0.0538257
-0.0323281
0.0449073
-0.0537685
0.039311
-0.0475918
0.0312903
-0.04337
0.0255724
-0.0544767
0.0307164
-0.0428054
0.0431048
-0.0176448
0.0524269
0.057597
0.0531013
0.11663
0.0514108
0.110982
0.05227
0.0403544
0.0510962
-0.024057
0.0477584
-0.062793
0.0427646
-0.116387
0.0397056
-0.113862
0.0399765
-0.0689881
0.0425442
0.0399946
0.0450819
0.145181
0.0486742
0.112909
0.0494337
0.0458231
0.0447937
-0.105221
0.043787
-0.177503
0.0433049
0.0440704
0.0396926
0.141582
0.0472713
0.0807796
0.082497
0.0635579
0.0778581
0.0317101
0.0673697
0.00541248
0.0536161
-0.0185744
0.0451792
-0.0453316
0.0411783
-0.0435909
0.034745
-0.0369367
0.0271717
-0.0469034
0.0287874
-0.0444211
0.0408131
-0.0296705
0.0530363
0.0453738
0.0563055
0.113361
0.0539686
0.113319
0.0543054
0.0400176
0.0528788
-0.0226304
0.048298
-0.0582121
0.0433241
-0.111413
0.0399256
-0.110464
0.0398051
-0.0688676
0.0427612
0.0370384
0.0449312
0.143011
0.0485463
0.109294
0.0494492
0.0449202
0.0448723
-0.100644
0.0438366
-0.176468
0.0438362
0.0440707
0.0404568
0.144961
0.0497575
0.0677082
0.0565472
0.0722988
0.0271195
0.070223
0.00748819
0.0646347
-0.0129861
0.0581382
-0.0388351
0.0531321
-0.0385848
0.0471276
-0.0309322
0.0387933
-0.0385692
0.0346246
-0.0402525
0.0384959
-0.0335417
0.0429841
0.0408856
0.0420902
0.114255
0.0454007
0.110008
0.0545325
0.0308859
0.0577124
-0.0258104
0.0547824
-0.0552821
0.0510451
-0.107676
0.0457196
-0.105138
0.0398265
-0.0629744
0.0369812
0.0398837
0.0374244
0.142567
0.0435605
0.103158
0.0477353
0.0407454
0.0453627
-0.0982715
0.0420585
-0.173163
0.0398322
0.046297
0.0371463
0.147647
0.0517363
0.0712548
0.0484783
0.0754036
0.0229707
0.0729842
0.00990762
0.066491
-0.00649286
0.0591116
-0.0314557
0.0532663
-0.0327395
0.0499589
-0.0276248
0.043222
-0.0318322
0.0373675
-0.034398
0.041954
-0.0381282
0.0477177
0.0351218
0.047903
0.11407
0.0527945
0.105117
0.0619348
0.0217456
0.0641417
-0.0280174
0.0600307
-0.051171
0.0552193
-0.102865
0.049074
-0.0989931
0.0433209
-0.0572213
0.0401745
0.0430301
0.0408819
0.14186
0.0480975
0.0959422
0.0523931
0.0364499
0.0490559
-0.0949343
0.0454109
-0.169518
0.0431054
0.0486024
0.0406216
0.150131
0.0536921
0.0746946
0.0404819
0.0769334
0.0207319
0.0744515
0.0123895
0.0696573
-0.00169866
0.0642631
-0.0260616
0.059221
-0.0276973
0.0570315
-0.0254354
0.0508631
-0.0256638
0.043109
-0.0266439
0.0464913
-0.0415105
0.0530942
0.0285189
0.0548378
0.112326
0.0613057
0.0986491
0.0701724
0.0128789
0.0710608
-0.0289058
0.0650936
-0.0452038
0.059533
-0.0973041
0.0533253
-0.0927854
0.0477061
-0.0516021
0.0443318
0.0464044
0.0453806
0.140811
0.0536916
0.0876312
0.0578714
0.0322701
0.0531459
-0.0902088
0.0491694
-0.165542
0.0470776
0.0506943
0.0447467
0.152462
0.0556293
0.0737955
0.0344375
0.0752262
0.0193012
0.0745477
0.013068
0.0719098
0.000939205
0.0671007
-0.0212525
0.0610525
-0.0216491
0.0587236
-0.0231065
0.0551822
-0.0221224
0.0487818
-0.0202434
0.0519356
-0.0446643
0.0583954
0.0220592
0.0615909
0.10913
0.0705846
0.0896554
0.0781798
0.0052838
0.0770118
-0.0277379
0.0699778
-0.0381698
0.0634764
-0.0908027
0.0566379
-0.0859469
0.0511066
-0.0460708
0.047721
0.04979
0.0499147
0.138618
0.059711
0.0778349
0.0641148
0.0278663
0.0578089
-0.0839029
0.052981
-0.160714
0.0510959
0.0525793
0.0492542
0.154304
0.0573681
0.0715167
0.028799
0.0739526
0.0168653
0.0756834
0.0113372
0.0747714
0.00185126
0.0725888
-0.0190698
0.0677723
-0.0168326
0.0645424
-0.0198766
0.063336
-0.020916
0.0559371
-0.0128444
0.0545427
-0.04327
0.0619831
0.0146187
0.069858
0.101256
0.0800475
0.0794658
0.0850853
0.000246038
0.0831415
-0.0257942
0.0753271
-0.0303553
0.0675471
-0.0830227
0.0604699
-0.0788697
0.0552481
-0.0408489
0.0520397
0.0529984
0.0552651
0.135392
0.0662003
0.0668997
0.0708091
0.0232574
0.0628082
-0.075902
0.0570343
-0.15494
0.055557
0.0540567
0.0544784
0.155382
0.0587744
0.0720234
0.0238139
0.076064
0.0128247
0.0796905
0.00771072
0.0784767
0.003065
0.074135
-0.0147282
0.0688448
-0.0115423
0.0647949
-0.0158267
0.0656746
-0.0217958
0.0593868
-0.00655661
0.0529831
-0.0368663
0.0615371
0.00606475
0.0765655
0.0862273
0.0887981
0.0672332
0.0913381
-0.00229401
0.086485
-0.020941
0.0781227
-0.0219931
0.0702819
-0.0751819
0.0618947
-0.0704825
0.0565147
-0.0354689
0.0554365
0.0540766
0.060868
0.129961
0.0728326
0.054935
0.0779097
0.0181804
0.0683488
-0.0663412
0.0610538
-0.147645
0.0601397
0.0549708
0.0603109
0.155211
0.0597412
0.0768441
0.0186871
0.0797383
0.00993059
0.0823655
0.00508345
0.0821956
0.00323493
0.0805057
-0.0130383
0.0779696
-0.00900623
0.0732313
-0.0110884
0.0726884
-0.0212529
0.068476
-0.00234418
0.0561957
-0.024586
0.0611486
0.00111183
0.0820768
0.0652991
0.0946198
0.0546902
0.0930403
-0.000714497
0.0890214
-0.0169222
0.0842018
-0.0171735
0.0771949
-0.0681751
0.0668319
-0.0601194
0.0593511
-0.0279881
0.0601879
0.0532399
0.0677924
0.122356
0.0797224
0.0430051
0.084989
0.0129138
0.0742362
-0.0555884
0.0653312
-0.13874
0.0649332
0.0553687
0.0665981
0.153546
0.0599849
0.0822856
0.0135742
0.0843409
0.00787529
0.0859834
0.00344101
0.0857282
0.00349009
0.0827318
-0.0100419
0.0809396
-0.00721402
0.0773398
-0.00748856
0.075697
-0.0196101
0.0737131
-0.000360289
0.06398
-0.0148529
0.0659356
-0.000843752
0.0855149
0.0457198
0.0972011
0.0430041
0.0957042
0.0007824
0.09221
-0.013428
0.0870321
-0.0119955
0.0784213
-0.0595643
0.0664203
-0.0481184
0.0587701
-0.0203379
0.0644953
0.0475147
0.075577
0.111274
0.0866259
0.0319562
0.0917884
0.00775128
0.079905
-0.043705
0.068281
-0.127116
0.0692143
0.0544354
0.073504
0.149256
0.0592498
0.087055
0.00986705
0.0886255
0.00630487
0.0900834
0.00198303
0.0905608
0.00301271
0.0878366
-0.0073177
0.0862678
-0.00564524
0.0837207
-0.00494149
0.0800282
-0.0159176
0.0793478
0.000320128
0.0741074
-0.00961254
0.0726184
0.000645301
0.0882445
0.0300937
0.0988052
0.0324434
0.0961487
0.00343885
0.093734
-0.0110133
0.0914443
-0.00970582
0.0842838
-0.0524038
0.0706875
-0.0345222
0.0607083
-0.0103587
0.0696499
0.0385731
0.0837468
0.0971774
0.0925114
0.0231916
0.0971346
0.00312805
0.0854739
-0.0320443
0.0721821
-0.113824
0.0745655
0.052052
0.0809866
0.142835
0.0577991
0.0923984
0.00672396
0.0937209
0.00498236
0.0942435
0.00146036
0.0947999
0.00245634
0.092383
-0.00490082
0.0914103
-0.0046725
0.0895465
-0.00307768
0.0860283
-0.0123994
0.0854226
0.000925879
0.0823407
-0.00653071
0.0805334
0.0024526
0.0911756
0.0194515
0.10036
0.0232594
0.100036
0.00376241
0.0985461
-0.00952335
0.0933918
-0.00455147
0.0833892
-0.0424012
0.0717895
-0.0229225
0.0634871
-0.00205625
0.0749141
0.027146
0.0920489
0.0800427
0.0996502
0.0155903
0.103934
-0.00115555
0.0922731
-0.0203835
0.0749424
-0.0964936
0.0777271
0.0492672
0.0880529
0.13251
0.054853
0.0979098
0.00462064
0.0989781
0.0039141
0.099425
0.0010134
0.100053
0.00182827
0.0980774
-0.00292517
0.0972089
-0.00380395
0.0956109
-0.00147968
0.092589
-0.00937754
0.0921468
0.00136809
0.090099
-0.00448295
0.0891927
0.00335893
0.0962816
0.0123626
0.103607
0.0159341
0.102829
0.00453996
0.102518
-0.00921245
0.100906
-0.00293881
0.091449
-0.0329444
0.0822447
-0.0137182
0.0750182
0.00517023
0.0847254
0.0174388
0.100318
0.0644505
0.10343
0.0124779
0.106638
-0.00436344
0.0989432
-0.0126889
0.0798309
-0.0773813
0.0821727
0.0469254
0.0952114
0.119471
0.0508433
0.103991
0.00307169
0.104968
0.00293782
0.105006
0.000975432
0.105694
0.00113961
0.104123
-0.00135352
0.103254
-0.00293578
0.102378
-0.000603277
0.0997315
-0.00673114
0.0995674
0.00153224
0.098311
-0.0032265
0.0978019
0.00386802
0.102335
0.00782977
0.108612
0.0096572
0.107986
0.00516579
0.106298
-0.00752431
0.105136
-0.00177675
0.0962714
-0.0240803
0.0912647
-0.00871141
0.087701
0.00873387
0.094886
0.0102538
0.109839
0.0494976
0.111253
0.0110636
0.109405
-0.0025157
0.101411
-0.00469423
0.0825484
-0.058519
0.0866681
0.0428057
0.103856
0.102283
0.0452963
0.110604
0.0020831
0.111254
0.00228796
0.111407
0.000822673
0.111722
0.000824329
0.110855
-0.000486299
0.110101
-0.00218192
0.109383
0.000114636
0.107429
-0.0047772
0.107316
0.00164584
0.10634
-0.00225095
0.106672
0.00353606
0.109484
0.00501793
0.113067
0.00607383
0.113827
0.00440617
0.112414
-0.00611119
0.111282
-0.000645003
0.103886
-0.0166845
0.100307
-0.00513233
0.100041
0.00900055
0.103315
0.00697921
0.114971
0.0378419
0.117606
0.00842887
0.11519
-0.000100041
0.110516
-1.97457e-05
0.0931077
-0.0411111
0.0953401
0.0405733
0.113003
0.0846206
0.0390632
0.117783
0.00134078
0.118289
0.00178175
0.118352
0.000760011
0.118616
0.000559746
0.118036
9.45539e-05
0.117412
-0.0015582
0.116951
0.000575429
0.115493
-0.00331941
0.115443
0.00169639
0.114822
-0.00162983
0.115248
0.00310936
0.116882
0.0033839
0.119562
0.00339396
0.12012
0.00384796
0.11825
-0.00424033
0.118013
-0.000408068
0.112079
-0.0107508
0.109397
-0.00245051
0.110417
0.00798048
0.1119
0.00549621
0.120844
0.0288979
0.122274
0.00699948
0.119781
0.00239292
0.116086
0.00367503
0.101756
-0.0267812
0.106013
0.0363165
0.122376
0.0682578
0.0340534
0.125558
0.000820281
0.125926
0.00141393
0.126032
0.000653911
0.126174
0.000417823
0.125786
0.000482584
0.12542
-0.00119237
0.124988
0.00100805
0.124036
-0.00236797
0.124002
0.0017303
0.123403
-0.0010309
0.124156
0.00235684
0.124947
0.00259239
0.126475
0.00186598
0.127227
0.00309667
0.125811
-0.00282501
0.125302
0.000100971
0.121055
-0.00650335
0.119193
-0.000588244
0.120187
0.00698605
0.120797
0.00488569
0.127644
0.0220516
0.128751
0.00589174
0.127051
0.00409302
0.124181
0.00654502
0.112759
-0.0153591
0.117478
0.0315978
0.131555
0.0541811
0.0297824
0.133976
0.000510415
0.134302
0.00108793
0.134326
0.000629505
0.134478
0.000265375
0.134206
0.000755376
0.133911
-0.000897569
0.133692
0.00122679
0.132902
-0.00157801
0.133056
0.00157665
0.132497
-0.000472452
0.133135
0.00171871
0.133642
0.00208537
0.134483
0.00102519
0.135159
0.00242133
0.133845
-0.00151128
0.133541
0.000404531
0.130522
-0.0034841
0.129129
0.000804929
0.13003
0.00608503
0.13041
0.00450527
0.135504
0.0169577
0.13598
0.0054161
0.134636
0.00543692
0.13306
0.00812133
0.124479
-0.0067782
0.129103
0.0269731
0.140414
0.0428709
0.0261435
0.143117
0.000311172
0.143349
0.000856642
0.143375
0.000602796
0.143465
0.000176323
0.143285
0.000934624
0.143069
-0.000681238
0.142956
0.00133962
0.142377
-0.000998604
0.142556
0.00139722
0.142075
8.54301e-06
0.142626
0.00116831
0.14294
0.00177064
0.143279
0.000686636
0.143841
0.00185889
0.142847
-0.000517509
0.142508
0.000744461
0.140388
-0.00136436
0.139567
0.00162556
0.140207
0.00544483
0.140422
0.00429051
0.144155
0.0132246
0.144288
0.00528294
0.143559
0.00616671
0.142707
0.00897289
0.136553
-0.00062448
0.140683
0.0228438
0.14961
0.0339436
0.0229462
0.15295
0.000177581
0.153061
0.000745241
0.153175
0.000488889
0.153095
0.000256601
0.15312
0.000909379
0.152853
-0.000414731
0.152848
0.00134533
0.152482
-0.000633093
0.152518
0.00136186
0.152364
0.000161833
0.15255
0.000982343
0.152853
0.00146742
0.152997
0.000543426
0.153235
0.00162011
0.152618
0.000100329
0.152296
0.00106648
0.150795
0.000135959
0.15039
0.00203049
0.150785
0.00504998
0.150956
0.00411937
0.153733
0.0104475
0.153688
0.00532815
0.153226
0.00662865
0.152991
0.00920844
0.148942
0.00342416
0.152441
0.0193444
0.159373
0.0270116
0.0201005
0.1634
0.000241536
0.163555
0.000589878
0.163634
0.000410167
0.163484
0.000406476
0.163677
0.000716211
0.163281
-1.84622e-05
0.163487
0.00113874
0.163137
-0.00028282
0.163172
0.00132726
0.163198
0.000135188
0.163122
0.00105856
0.163492
0.00109713
0.163437
0.000598739
0.163499
0.00155844
0.163203
0.00039606
0.162816
0.00145354
0.161847
0.00110482
0.161736
0.00214142
0.161949
0.00483692
0.16213
0.0039386
0.164174
0.00840319
0.164017
0.00548523
0.163916
0.00673028
0.164156
0.00896783
0.161686
0.00589417
0.164507
0.0165236
0.169863
0.0216559
0.0175697
0.174542
0.000577815
0.174882
0.000250479
0.174801
0.000490514
0.174704
0.000503467
0.174994
0.000426755
0.17446
0.000515088
0.174948
0.000651028
0.174408
0.000257061
0.17464
0.00109541
0.174648
0.000126984
0.17442
0.00128719
0.174922
0.000594647
0.174589
0.00093205
0.174729
0.00141816
0.17456
0.00056503
0.174107
0.00190658
0.17373
0.00148218
0.173596
0.00227474
0.17376
0.00467279
0.174072
0.00362676
0.175434
0.00704167
0.175368
0.00555149
0.175622
0.00647594
0.176031
0.00855893
0.174706
0.00721949
0.177102
0.0141274
0.18119
0.0175672
0.0153247
0.186618
0.000924248
0.186933
-6.49003e-05
0.186844
0.000579781
0.186775
0.000572239
0.187066
0.000135782
0.18659
0.000990895
0.187096
0.000144819
0.186595
0.000758314
0.186867
0.000823261
0.186848
0.000146314
0.186625
0.00151051
0.187077
0.000142457
0.18669
0.00131846
0.186876
0.00123243
0.186776
0.000664981
0.186391
0.00229206
0.186364
0.00150913
0.186211
0.00242761
0.186437
0.0044464
0.186814
0.00325002
0.187718
0.00613819
0.187842
0.00542685
0.18829
0.00602773
0.188819
0.00803003
0.188351
0.00768784
0.190432
0.0120459
0.193569
0.0144309
0.0133286
0.199673
0.00104296
0.199801
-0.000192137
0.19978
0.000600605
0.199767
0.000585462
0.199903
-4.12276e-07
0.199706
0.00118791
0.199965
-0.000114651
0.199712
0.00101153
0.19991
0.000625709
0.199847
0.000208463
0.199809
0.00154902
0.200003
-5.17843e-05
0.199808
0.00151331
0.199959
0.00108175
0.199858
0.000766325
0.199732
0.00241773
0.199771
0.00146988
0.199721
0.00247782
0.200056
0.00411179
0.200388
0.00291762
0.201095
0.00543134
0.201419
0.00510317
0.20195
0.00549635
0.202656
0.00732396
0.202809
0.00753507
0.204605
0.0102496
0.207092
0.0119439
0.0115005
0.213641
0.000895203
0.21357
-0.000121732
0.213618
0.000553287
0.213673
0.000530152
0.213612
6.08516e-05
0.213723
0.00107649
0.213678
-6.97654e-05
0.213691
0.000998789
0.213804
0.000512218
0.213663
0.000349972
0.21388
0.00133202
0.213764
6.38294e-05
0.213827
0.00145054
0.213943
0.000965283
0.213761
0.000948918
0.213984
0.00219442
0.213918
0.00153575
0.214003
0.00239302
0.214486
0.00362888
0.214665
0.00273889
0.21535
0.00474585
0.21586
0.0045934
0.216347
0.00500894
0.217172
0.00649965
0.217756
0.00695104
0.219313
0.00869211
0.221348
0.00990871
0.00979571
0.228472
0.000629255
0.228305
4.5042e-05
0.228412
0.000446116
0.228468
0.000474708
0.228356
0.000172684
0.228588
0.00084405
0.22841
0.000108084
0.228577
0.000832259
0.228603
0.000485851
0.228497
0.000456289
0.228784
0.00104505
0.22856
0.000287741
0.228769
0.00124138
0.228839
0.000895167
0.22869
0.00109776
0.22907
0.00181454
0.228971
0.00163522
0.229182
0.00218239
0.22971
0.00310044
0.229826
0.00262243
0.230538
0.00403468
0.231104
0.00402696
0.231591
0.00452202
0.232493
0.00559804
0.233315
0.00612899
0.234682
0.00732459
0.236391
0.00820012
0.00822214
0.244221
0.000409845
0.244099
0.00016697
0.244199
0.000346063
0.244254
0.000420333
0.244187
0.000238899
0.244388
0.000643835
0.244262
0.000233473
0.244429
0.000664958
0.244449
0.000466459
0.244418
0.000487367
0.244639
0.000823806
0.244512
0.000414876
0.244702
0.00105102
0.244795
0.000802903
0.244752
0.00113984
0.245102
0.00146545
0.245134
0.00160292
0.245381
0.00193485
0.245905
0.00257675
0.246101
0.0024262
0.246778
0.00335762
0.247372
0.00343343
0.247942
0.00395185
0.24885
0.0046903
0.249767
0.00521152
0.251035
0.00605722
0.252536
0.00669878
0.00676893
0.261049
0.000257638
0.260991
0.000225333
0.26108
0.000257385
0.261132
0.000368061
0.261125
0.000246043
0.261277
0.000491431
0.261227
0.000283228
0.26138
0.000512464
0.261404
0.000441827
0.261455
0.000436865
0.261604
0.000674352
0.261593
0.000425895
0.261766
0.000878669
0.261873
0.00069608
0.261967
0.00104534
0.262245
0.0011878
0.262427
0.00142023
0.26271
0.00165209
0.26321
0.00207651
0.263529
0.00210752
0.264175
0.00271164
0.264794
0.00281421
0.265451
0.00329514
0.266361
0.00378057
0.267323
0.00424958
0.26854
0.00483964
0.269924
0.00531513
0.00539407
0.279055
0.000159648
0.279058
0.000222508
0.279127
0.000187936
0.279198
0.000297487
0.279223
0.000220766
0.279356
0.000357898
0.279362
0.000277213
0.279505
0.000369432
0.279556
0.000391189
0.27965
0.000342813
0.279784
0.000540813
0.279843
0.000366529
0.280028
0.000694208
0.280153
0.000570681
0.280349
0.00084972
0.280599
0.000936855
0.280889
0.00113115
0.281216
0.00132464
0.281711
0.00158139
0.282137
0.00168179
0.28277
0.0020783
0.283426
0.00215846
0.284153
0.00256837
0.285068
0.00286501
0.286067
0.00325061
0.287256
0.00365092
0.288584
0.00398706
0.00405869
0.298323
9.50319e-05
0.298372
0.000173895
0.298432
0.000127502
0.298521
0.000208965
0.298571
0.000170094
0.298696
0.000233357
0.298749
0.000224063
0.298882
0.000236092
0.298972
0.000301413
0.299083
0.000231411
0.299235
0.000389057
0.299333
0.000268951
0.299544
0.000482614
0.299695
0.000419618
0.299955
0.000590563
0.300222
0.000669162
0.30057
0.000783604
0.300957
0.00093726
0.301457
0.00108122
0.301965
0.00117381
0.302614
0.00142959
0.303302
0.00147027
0.304095
0.00177605
0.30502
0.00193955
0.306057
0.00221359
0.307241
0.00246681
0.30855
0.00267868
0.00273283
0.318953
4.70229e-05
0.319033
9.40518e-05
0.319092
6.81805e-05
0.319194
0.000107128
0.319268
9.60817e-05
0.319387
0.000114829
0.319483
0.000127951
0.319603
0.000115441
0.319738
0.000167015
0.319851
0.00011847
0.320033
0.00020629
0.320157
0.000145583
0.32039
0.000249072
0.320582
0.000228125
0.320869
0.000303654
0.321181
0.000356627
0.32156
0.000404433
0.322004
0.000493215
0.322528
0.000557994
0.323092
0.000609019
0.323781
0.000740842
0.3245
0.000751556
0.325356
0.000919816
0.326304
0.000992032
0.327383
0.0011343
0.32859
0.00125989
0.329907
0.00136112
0.00139112
0.341045
0.341139
0.341207
0.341314
0.34141
0.341525
0.341653
0.341768
0.341935
0.342054
0.34226
0.342406
0.342655
0.342883
0.343187
0.343543
0.343948
0.344441
0.344999
0.345608
0.346349
0.3471
0.34802
0.349012
0.350146
0.351406
0.352767
)
;

boundaryField
{
    outlet
    {
        type            calculated;
        value           nonuniform List<scalar> 
40
(
0.0352882
0.0350184
0.0348836
0.0348619
0.0350263
0.0352952
0.0357554
0.0363239
0.0371032
0.0379706
0.0351675
0.0386659
0.0428094
0.0475154
0.0530721
0.0593441
0.0663544
0.0742391
0.0824373
0.090999
0.0992211
0.109403
0.119236
0.127385
0.135826
0.144053
0.152807
0.162219
0.172393
0.183435
0.195565
0.20892
0.223053
0.237964
0.253989
0.271299
0.289919
0.309875
0.331249
0.354159
)
;
    }
    upperWall
    {
        type            symmetryPlane;
        value           uniform 0;
    }
    lowerWall
    {
        type            symmetryPlane;
        value           nonuniform 0();
    }
    inlet
    {
        type            calculated;
        value           nonuniform 0();
    }
    cylinder
    {
        type            calculated;
        value           nonuniform 0();
    }
    frontAndBack
    {
        type            empty;
        value           nonuniform 0();
    }
    procBoundary7to3
    {
        type            processor;
        value           nonuniform List<scalar> 
30
(
-0.0867218
-0.0714032
-0.0331834
0.0158914
0.0622542
0.0844005
0.0972872
0.100472
0.0958934
0.0625452
-0.00236834
-0.0438853
-0.092105
-0.104605
-0.115485
-0.0695433
0.00674942
0.0686316
0.148106
0.122959
0.060525
-0.0533469
-0.162557
-0.137379
-0.0482328
0.139763
0.190392
-0.0264855
-0.111292
-0.0266222
)
;
    }
    procBoundary7to6
    {
        type            processor;
        value           nonuniform List<scalar> 
42
(
-0.0366476
-0.0429737
-0.0513242
-0.0595809
-0.0672979
-0.0720149
0.0853686
-0.0826042
-0.0820525
-0.0794981
-0.068547
0.0573138
-0.0606975
-0.0631859
-0.0666981
-0.0677511
-0.0658782
-0.0670383
-0.0717173
-0.0771727
-0.0833479
-0.0892553
-0.0958065
-0.102442
-0.109616
-0.117041
-0.125038
-0.133666
-0.142918
-0.152816
-0.163464
-0.174879
-0.186964
-0.199792
-0.213493
-0.228206
-0.244002
-0.260897
-0.278957
-0.298258
-0.318905
-0.340998
)
;
    }
}


// ************************************************************************* //
