/*--------------------------------*- C++ -*----------------------------------*\
| =========                 |                                                 |
| \\      /  F ield         | OpenFOAM: The Open Source CFD Toolbox           |
|  \\    /   O peration     | Version:                                        |
|   \\  /    A nd           | Website:  www.openfoam.com                      |
|    \\/     M anipulation  |                                                 |
\*---------------------------------------------------------------------------*/
FoamFile
{
    version     2.0;
    format      ascii;
    class       volVectorField;
    location    "194.8";
    object      U;
}
// * * * * * * * * * * * * * * * * * * * * * * * * * * * * * * * * * * * * * //

dimensions      [0 1 -1 0 0 0 0];


internalField   nonuniform List<vector> 
1147
(
(-0.16023 -0.118287 2.06957e-20)
(-0.159086 -0.111513 1.03482e-19)
(-0.137308 -0.143592 3.62761e-19)
(-0.209037 -0.11719 -4.95318e-19)
(-0.319992 -0.0528869 1.82419e-19)
(-0.375349 0.0278929 8.22172e-20)
(-0.340552 0.0810776 -5.65719e-20)
(-0.143317 -0.0653787 3.33534e-19)
(0.367608 -0.142982 -5.86157e-20)
(0.65647 -0.1491 -5.42182e-20)
(-0.2655 -0.222072 1.26118e-19)
(-0.239064 -0.216112 5.33769e-19)
(-0.341017 -0.17315 -2.01833e-19)
(-0.438647 -0.0558867 -2.65892e-20)
(0.0477435 0.0118889 2.70329e-19)
(0.655026 -0.039288 -4.81972e-19)
(0.962523 -0.095211 1.74837e-19)
(1.15581 -0.169725 -1.61761e-19)
(1.37259 -0.181736 6.95275e-20)
(1.45755 -0.207283 4.39072e-21)
(-0.343718 -0.260349 -4.56085e-20)
(-0.39385 -0.171841 -3.96487e-19)
(0.091882 -0.0514734 7.51473e-20)
(0.715508 -0.028633 -4.91511e-20)
(1.04934 -0.0332908 -1.09561e-19)
(1.33566 -0.0417601 1.69362e-19)
(1.47019 -0.103037 -1.11228e-19)
(1.57956 -0.172155 -1.00015e-19)
(1.61016 -0.210265 5.73453e-21)
(1.62046 -0.255103 -1.0459e-20)
(0.00140851 -0.123961 5.21972e-20)
(0.563162 -0.0319476 1.63521e-19)
(0.999694 0.0206311 -5.01289e-20)
(1.31461 0.0318223 -5.56893e-21)
(1.47862 0.0126395 7.57368e-20)
(1.5923 -0.0256278 1.50853e-19)
(1.62675 -0.0764206 2.47747e-19)
(1.65046 -0.131877 -8.64822e-20)
(1.63486 -0.176275 -9.93854e-20)
(1.6232 -0.228471 -1.86447e-20)
(0.81485 0.0538342 4.8229e-19)
(1.20812 0.103267 -1.26143e-19)
(1.43925 0.102315 5.69072e-20)
(1.56506 0.0804988 1.94763e-20)
(1.62302 0.0458559 3.12685e-19)
(1.64464 -0.0023954 -3.72741e-20)
(1.64397 -0.0518038 -1.13996e-19)
(1.62646 -0.104398 2.26739e-19)
(1.6122 -0.150933 3.75349e-21)
(1.58355 -0.206952 4.16083e-20)
(1.29855 0.195682 -2.84312e-19)
(1.50957 0.190698 -1.23715e-19)
(1.59412 0.156848 1.14082e-19)
(1.63513 0.114096 -1.03836e-19)
(1.63785 0.0682006 -5.15297e-20)
(1.62941 0.0164628 3.05895e-19)
(1.61467 -0.0338906 -1.90391e-20)
(1.5911 -0.0841864 -3.47276e-20)
(1.57481 -0.132062 -2.38521e-20)
(1.54469 -0.185194 1.71289e-20)
(1.51727 0.281651 1.1274e-20)
(1.59803 0.239948 1.5726e-19)
(1.62138 0.19195 -1.36884e-19)
(1.6225 0.135996 2.1216e-19)
(1.61212 0.086884 -5.48512e-19)
(1.59498 0.0305465 -2.08625e-19)
(1.57829 -0.0165978 -4.09576e-20)
(1.55691 -0.0689328 2.61285e-20)
(1.537 -0.114428 5.77649e-21)
(1.5104 -0.165387 -8.1091e-21)
(1.5762 0.322644 -5.28477e-20)
(1.59543 0.268596 4.09468e-19)
(1.59663 0.210867 -1.21254e-19)
(1.58525 0.153322 -2.06381e-20)
(1.57596 0.0996937 2.38772e-19)
(1.5559 0.0445536 1.15803e-19)
(1.54363 -0.00297224 -1.20933e-19)
(1.5206 -0.0546803 5.61511e-20)
(1.50354 -0.100448 -4.7332e-20)
(1.47554 -0.148456 1.46529e-20)
(1.56178 0.339032 3.69835e-19)
(1.56472 0.285231 3.20529e-19)
(1.55634 0.220825 -2.55274e-19)
(1.54742 0.166385 1.53972e-21)
(1.53372 0.10935 1.48764e-19)
(1.5232 0.0585304 -6.3825e-20)
(1.50567 0.00768704 4.65409e-20)
(1.48856 -0.0389244 1.85016e-20)
(1.46982 -0.0883694 -6.88493e-20)
(1.44438 -0.130896 4.37578e-21)
(1.52652 0.351867 -2.96896e-19)
(1.52655 0.291648 -5.31295e-19)
(1.51538 0.22785 6.35178e-19)
(1.50665 0.176026 -1.25973e-19)
(1.49557 0.11866 -1.58942e-19)
(1.48792 0.0692593 -3.46454e-20)
(1.4693 0.0182605 1.10371e-19)
(1.45866 -0.0257541 -1.06606e-19)
(1.43341 -0.0754317 -7.51188e-21)
(1.41789 -0.116362 -3.83405e-21)
(1.48276 0.293088 2.9121e-19)
(1.47439 0.236805 -2.67397e-19)
(1.4695 0.181209 8.94714e-20)
(1.45865 0.127133 9.52775e-20)
(1.45057 0.0790997 -1.86437e-20)
(1.44026 0.0277479 3.84834e-20)
(1.42359 -0.0147939 2.85779e-20)
(1.40575 -0.0620097 4.19182e-20)
(1.38816 -0.102855 1.70594e-20)
(1.43958 0.29727 6.47604e-21)
(1.43982 0.242453 1.30705e-19)
(1.43127 0.183788 2.45173e-20)
(1.42565 0.136222 -1.73052e-19)
(1.41711 0.0843793 -1.51614e-20)
(1.40957 0.0381451 -1.03722e-19)
(1.39429 -0.00565124 -9.72366e-21)
(1.37785 -0.0510986 -1.70008e-20)
(1.36048 -0.089792 -1.02184e-20)
(1.40168 0.242515 -1.49624e-19)
(1.3958 0.189913 6.7982e-20)
(1.39511 0.14099 -1.95803e-19)
(1.38253 0.0903858 -5.30498e-20)
(1.3822 0.0465873 2.55615e-20)
(1.3633 0.00241929 -2.44616e-20)
(1.35237 -0.0396712 3.06706e-20)
(1.33421 -0.0791007 8.50668e-22)
(1.3635 0.245173 2.44844e-19)
(1.36493 0.192738 2.5977e-20)
(1.35855 0.144352 1.14166e-19)
(1.3528 0.0966647 1.1008e-19)
(1.35279 0.051972 5.34019e-20)
(1.33512 0.0106775 9.6123e-21)
(1.32557 -0.0311699 -2.88114e-20)
(1.31086 -0.0676008 5.69009e-21)
(1.33502 0.202142 -5.71422e-20)
(1.32548 0.141901 -5.51573e-20)
(1.32434 0.102038 -8.11842e-20)
(1.32673 0.0572898 1.4974e-21)
(1.30764 0.0164615 -1.84281e-21)
(1.30351 -0.0231264 6.5345e-21)
(1.28578 -0.0589172 4.79676e-21)
(1.29953 0.19352 7.07122e-20)
(1.29634 0.149595 1.02199e-19)
(1.29781 0.101199 -2.75622e-20)
(1.29507 0.0614933 -7.08321e-21)
(1.28818 0.0241229 6.29785e-20)
(1.27414 -0.018406 -2.86945e-20)
(1.26576 -0.0494971 3.16476e-21)
(1.26832 0.203162 4.49518e-20)
(1.26967 0.143748 -1.80463e-20)
(1.26931 0.105007 2.48131e-20)
(1.26949 0.0637645 3.67489e-20)
(1.26697 0.0273244 1.57949e-20)
(1.25019 -0.00824361 1.78257e-20)
(1.24513 -0.0465055 2.80484e-21)
(1.24335 0.148907 -8.14506e-20)
(1.24475 0.103904 -3.17227e-22)
(1.24419 0.0644778 -7.35503e-20)
(1.24833 0.0324223 9.47195e-21)
(1.23414 -0.00295028 -1.85489e-20)
(1.22563 -0.0394785 -4.83562e-21)
(1.21967 0.149893 -4.0479e-21)
(1.22341 0.106325 6.8583e-20)
(1.21437 0.0674434 -1.14178e-20)
(1.23068 0.0321955 -1.9073e-21)
(1.21188 0.00405322 -3.54606e-21)
(1.20789 -0.037543 -2.76937e-21)
(1.19653 0.14576 5.19533e-20)
(1.19698 0.108168 -1.38359e-19)
(1.19864 0.0673835 3.86815e-21)
(1.20345 0.0285095 -1.11822e-20)
(1.19784 0.00318338 8.5276e-21)
(1.18787 -0.0338076 -6.17797e-22)
(0.137775 -0.832124 -2.92271e-20)
(0.174366 -0.635394 -6.30457e-20)
(0.119719 -0.219275 -5.02511e-21)
(-0.00328063 0.066914 -1.5706e-20)
(-0.0111742 0.150971 2.19016e-19)
(0.0132736 0.157912 -4.68016e-20)
(0.00695013 0.124603 4.6849e-20)
(-0.0333976 0.0548393 3.87789e-19)
(-0.0794305 -0.017169 3.23877e-19)
(-0.115723 -0.084633 -6.13955e-19)
(0.109547 -1.13539 3.70571e-20)
(0.130843 -1.07438 -6.64407e-20)
(0.168268 -0.885941 -1.50283e-19)
(0.106536 -0.686104 5.97768e-20)
(0.00765342 -0.432664 -3.58786e-19)
(-0.0797892 -0.209505 -1.41569e-19)
(-0.134329 -0.0952905 -9.68441e-20)
(-0.202422 -0.0899966 5.83062e-20)
(-0.249086 -0.121454 -1.55666e-19)
(-0.266052 -0.167473 2.07055e-19)
(0.168351 -1.15124 2.63654e-20)
(0.213639 -1.11544 4.27314e-20)
(0.221611 -1.06167 1.90592e-19)
(0.179927 -0.944267 -1.22382e-19)
(0.064973 -0.746679 4.41272e-19)
(-0.0741444 -0.538215 8.228e-20)
(-0.193976 -0.369021 3.13011e-19)
(-0.310646 -0.270566 7.91552e-21)
(-0.378802 -0.243991 7.07618e-20)
(-0.326736 -0.260291 -3.1611e-20)
(0.2314 -1.08875 -1.93377e-20)
(0.285658 -1.0264 -1.14212e-19)
(0.235184 -0.977025 5.42265e-20)
(0.130643 -0.828471 -1.00315e-19)
(-0.0443922 -0.650092 -3.60278e-19)
(-0.203272 -0.453679 9.28297e-20)
(-0.341254 -0.344125 -2.2388e-19)
(-0.410685 -0.285324 -7.28546e-19)
(-0.389025 -0.233894 -2.20835e-19)
(0.0404538 -0.612219 4.68879e-19)
(-0.13379 -0.437853 1.46182e-19)
(-0.364589 -0.331718 -3.19093e-19)
(-0.172211 -0.165386 3.36221e-19)
(0.335861 -0.0272923 3.58702e-19)
(-0.140724 -0.374179 -7.9743e-20)
(-0.00982581 -0.150676 -8.56636e-20)
(0.499495 0.0665474 -4.03335e-19)
(0.965071 0.162589 -8.80228e-20)
(0.562928 0.102517 6.71064e-20)
(1.03814 0.251674 5.58582e-20)
(1.33197 0.288451 -2.41108e-20)
(1.3454 0.362933 1.82773e-19)
(1.49796 0.365469 1.13546e-19)
(1.54934 0.402598 -6.4935e-19)
(1.17528 -0.017451 -2.61783e-22)
(1.16114 -0.0162183 2.21135e-21)
(1.15714 -0.0102606 -2.38487e-21)
(1.14814 -0.015698 8.57419e-22)
(1.134 -0.0152903 6.68819e-22)
(1.11603 -0.0130805 -1.40952e-22)
(1.09795 -0.0100406 -5.17378e-22)
(1.0823 -0.00665367 1.49876e-22)
(1.06878 -0.00378832 1.97862e-22)
(1.05826 -0.0024244 -2.3465e-22)
(1.04967 -0.00195242 8.17179e-23)
(1.0437 -0.00265084 1.74814e-23)
(1.03945 -0.00322884 -5.31563e-23)
(1.03654 -0.00400686 1.11471e-22)
(1.03459 -0.00445807 -8.6867e-23)
(1.03251 -0.00485083 8.25945e-23)
(1.03007 -0.00496381 -4.24395e-23)
(1.02737 -0.00495966 -2.82987e-23)
(1.02476 -0.00489588 -4.97213e-24)
(1.0224 -0.00479219 -8.20312e-24)
(1.02036 -0.00463705 -1.46904e-23)
(1.01871 -0.00443604 -7.16885e-23)
(1.01736 -0.00411635 1.44116e-23)
(1.01621 -0.00369123 -1.42448e-22)
(1.01527 -0.00317017 -3.97499e-23)
(1.01447 -0.00261603 9.0309e-23)
(1.01378 -0.00211303 -2.06983e-24)
(1.01327 -0.00128408 -8.99368e-24)
(1.01287 -0.000778903 7.87479e-23)
(1.0127 -0.000427803 -1.81575e-22)
(1.18247 0.0077325 -1.63516e-20)
(1.15055 0.00846471 4.83447e-21)
(1.12841 0.0204299 1.15309e-21)
(1.10945 0.0223211 3.23418e-22)
(1.09974 0.0237664 -1.91007e-22)
(1.0912 0.0212059 -2.7555e-22)
(1.08102 0.0171341 -7.9094e-22)
(1.07021 0.0137389 1.01413e-21)
(1.06004 0.00978662 7.27022e-23)
(1.05156 0.007047 -6.40897e-22)
(1.04572 0.00489359 5.60265e-23)
(1.04137 0.00404421 4.81904e-23)
(1.03817 0.00342746 -1.95911e-23)
(1.03556 0.00331878 1.91312e-22)
(1.03325 0.0026631 2.22464e-22)
(1.03079 0.00187434 -3.15152e-22)
(1.02829 0.000530749 -6.94222e-23)
(1.02575 -0.000875733 3.96528e-22)
(1.02345 -0.00212788 -5.99292e-22)
(1.02143 -0.00295246 -1.8958e-23)
(1.01972 -0.00345611 3.84462e-22)
(1.01836 -0.00365044 2.51387e-22)
(1.01723 -0.00359877 -3.06896e-23)
(1.01622 -0.00336422 2.7171e-22)
(1.01539 -0.00296806 -1.88614e-23)
(1.01466 -0.00249629 -1.19877e-22)
(1.01404 -0.00204671 1.07309e-22)
(1.01357 -0.00125711 1.39318e-23)
(1.01317 -0.000767789 -1.91335e-22)
(1.013 -0.000422516 1.42405e-22)
(1.17817 0.0335651 1.84689e-20)
(1.16205 0.0272521 -2.72265e-22)
(1.15629 0.026679 -7.99063e-21)
(1.1411 0.0172927 1.3332e-21)
(1.12164 0.0139752 -2.51211e-21)
(1.10235 0.0110049 3.56551e-21)
(1.08602 0.00918971 4.91369e-21)
(1.07187 0.00867698 -2.69302e-21)
(1.06013 0.00865959 3.32843e-22)
(1.05092 0.00819107 3.62893e-22)
(1.04355 0.00713479 -2.63538e-22)
(1.0384 0.00505711 -6.88787e-23)
(1.03449 0.00320575 -2.57419e-22)
(1.03179 0.00110711 5.29278e-22)
(1.02981 -0.000485314 -3.89533e-23)
(1.02788 -0.00180269 -3.14179e-23)
(1.02586 -0.00262219 -9.16873e-22)
(1.0238 -0.00313595 3.52127e-22)
(1.02199 -0.00349652 7.62226e-23)
(1.02024 -0.00369652 5.3703e-23)
(1.01868 -0.0038146 3.0754e-22)
(1.01749 -0.00384013 -3.21811e-23)
(1.01645 -0.00366869 -6.60447e-23)
(1.01557 -0.00336012 -7.50277e-22)
(1.01488 -0.00293196 6.84206e-22)
(1.01427 -0.00243918 -7.02049e-22)
(1.01375 -0.00199841 -7.61376e-23)
(1.01336 -0.00122783 -1.91541e-22)
(1.013 -0.00075182 -5.17375e-23)
(1.01284 -0.000416776 2.76365e-22)
(1.17648 0.0672497 3.28522e-20)
(1.13682 0.0638853 -1.89619e-20)
(1.11457 0.0676798 -5.69412e-22)
(1.10069 0.0595054 2.84623e-21)
(1.09271 0.0538081 -4.4478e-21)
(1.08394 0.0461995 4.19263e-21)
(1.07321 0.0379972 8.59583e-23)
(1.06311 0.0296468 -2.50947e-21)
(1.05299 0.0221221 2.12321e-21)
(1.04421 0.0170045 -2.08967e-22)
(1.03825 0.0134154 -1.22657e-22)
(1.03453 0.0114743 -5.52924e-22)
(1.03236 0.00974613 8.84679e-23)
(1.03056 0.00871082 5.45298e-22)
(1.02912 0.00704464 -8.01662e-22)
(1.02739 0.0053246 1.43452e-21)
(1.02539 0.00318136 2.19086e-22)
(1.02334 0.00110466 -1.22599e-26)
(1.02166 -0.000641473 -1.99156e-21)
(1.01999 -0.00176215 1.48779e-21)
(1.01867 -0.00257099 -2.52454e-22)
(1.01765 -0.00301481 -2.7678e-22)
(1.01667 -0.0031282 -5.9118e-22)
(1.01584 -0.00304459 8.61252e-22)
(1.01517 -0.00275156 3.23124e-22)
(1.01456 -0.00233989 -4.28463e-22)
(1.01406 -0.00195234 2.95216e-23)
(1.01368 -0.00121083 3.73791e-22)
(1.01332 -0.000741953 2.42577e-22)
(1.01317 -0.000411931 -9.45887e-23)
(1.17874 0.100112 3.89737e-20)
(1.15721 0.0857139 4.24377e-20)
(1.14163 0.0741543 -1.94952e-20)
(1.12184 0.0562969 -4.60559e-21)
(1.10377 0.0456695 -5.70212e-21)
(1.08819 0.0359686 6.06799e-21)
(1.07501 0.0291606 -4.3968e-21)
(1.06342 0.0249289 5.23699e-22)
(1.05449 0.021585 1.68095e-21)
(1.04689 0.0184441 -4.3203e-22)
(1.04043 0.0150093 1.14813e-22)
(1.03542 0.0114303 -1.94629e-23)
(1.0314 0.00862181 6.48107e-23)
(1.02874 0.00567111 4.06801e-22)
(1.02665 0.00325774 -3.81461e-23)
(1.02476 0.00120783 -3.77386e-22)
(1.02289 -0.000290309 -6.29168e-22)
(1.02127 -0.00145265 -3.63738e-23)
(1.02013 -0.0022674 6.44146e-22)
(1.01873 -0.00273456 9.0213e-22)
(1.01774 -0.00313483 -7.67828e-22)
(1.01695 -0.00332796 -4.45958e-22)
(1.01608 -0.00326212 4.13102e-22)
(1.01539 -0.00307717 -5.18885e-22)
(1.01482 -0.00273348 -4.64055e-22)
(1.01427 -0.00229524 5.55302e-22)
(1.01383 -0.00191481 -4.11964e-22)
(1.01349 -0.00118741 -2.27562e-22)
(1.01315 -0.000727286 8.46764e-23)
(1.013 -0.000406299 -5.71805e-22)
(1.03356 0.0212453 -5.30729e-22)
(1.03064 0.0179315 -4.13418e-22)
(1.02896 0.0151078 1.93565e-21)
(1.02759 0.0131972 -1.09647e-21)
(1.02661 0.0106608 2.74457e-23)
(1.02549 0.00812963 -1.13237e-21)
(1.0237 0.00529596 1.50384e-21)
(1.02217 0.00256073 -1.11785e-21)
(1.02085 0.00046416 2.47788e-22)
(1.01921 -0.000850262 -7.13162e-22)
(1.01837 -0.00194712 8.1327e-22)
(1.01753 -0.00251551 9.41542e-22)
(1.01663 -0.00272865 4.73762e-22)
(1.01595 -0.00277864 6.05164e-22)
(1.0153 -0.00255981 -1.27402e-21)
(1.01471 -0.00220075 9.13878e-23)
(1.01424 -0.0018734 2.24924e-22)
(1.01386 -0.00117158 8.36821e-22)
(1.01351 -0.000716646 -1.7595e-22)
(1.01334 -0.000400557 -1.65223e-22)
(1.05105 -0.184105 -1.06144e-20)
(1.05496 -0.170109 6.72606e-22)
(1.07112 -0.165323 5.27524e-21)
(1.08574 -0.144331 1.38183e-20)
(1.11177 -0.139405 -1.45459e-20)
(1.12754 -0.122183 7.51515e-21)
(1.15315 -0.110025 1.83785e-20)
(1.15216 -0.0987597 7.28561e-21)
(1.17486 -0.0718659 -9.97385e-21)
(1.1819 -0.0576182 5.8177e-22)
(1.03936 -0.190914 1.644e-20)
(1.06094 -0.189608 1.00727e-21)
(1.07473 -0.188159 1.8631e-21)
(1.0854 -0.167955 -1.24683e-20)
(1.11153 -0.158109 -4.1892e-21)
(1.12969 -0.140437 3.0404e-20)
(1.16205 -0.123078 -6.36215e-21)
(1.17159 -0.109996 -2.68287e-21)
(1.18643 -0.0815378 -2.83706e-21)
(1.20285 -0.0584282 -2.7106e-22)
(1.02719 -0.196507 1.07949e-20)
(1.05982 -0.200763 -5.5683e-21)
(1.08244 -0.202095 7.46506e-21)
(1.09812 -0.186853 -5.36506e-21)
(1.11786 -0.173504 -1.98859e-20)
(1.13475 -0.154731 -6.26727e-21)
(1.16369 -0.133981 -2.60858e-20)
(1.18613 -0.117686 -1.37864e-20)
(1.19581 -0.0903085 -8.9756e-21)
(1.22045 -0.0629845 1.56846e-21)
(1.01871 -0.21004 1.02507e-20)
(1.05623 -0.210382 -2.74657e-21)
(1.08534 -0.213513 -2.32179e-20)
(1.11153 -0.199409 1.03456e-22)
(1.13599 -0.187695 -7.71906e-21)
(1.1512 -0.166941 2.98961e-21)
(1.17432 -0.145165 2.87038e-20)
(1.19632 -0.126293 -1.22623e-21)
(1.21176 -0.100542 3.63228e-20)
(1.23017 -0.0688821 3.37417e-21)
(1.01933 -0.231168 6.85071e-21)
(1.05275 -0.225733 3.65163e-22)
(1.08529 -0.224639 2.01798e-20)
(1.11695 -0.215263 2.03279e-20)
(1.14671 -0.198277 1.2146e-20)
(1.16989 -0.182767 2.06164e-20)
(1.1936 -0.154939 -5.87578e-21)
(1.21247 -0.138394 1.08692e-20)
(1.23017 -0.109766 -1.80073e-21)
(1.24977 -0.080597 -5.15014e-21)
(1.02959 -0.254499 1.15535e-21)
(1.0576 -0.249421 -1.77918e-21)
(1.08973 -0.240436 -5.87207e-21)
(1.12234 -0.231841 -3.87601e-20)
(1.15583 -0.216063 1.18526e-20)
(1.17703 -0.195776 -1.3956e-20)
(1.21112 -0.172432 -5.48171e-21)
(1.23031 -0.146711 -1.48948e-20)
(1.24734 -0.124067 -2.61397e-21)
(1.271 -0.0894448 6.94882e-21)
(1.03394 -0.277509 -6.18482e-21)
(1.06731 -0.273779 -1.08608e-20)
(1.09926 -0.264345 1.10543e-20)
(1.13199 -0.250036 5.28415e-20)
(1.16924 -0.237456 3.15112e-20)
(1.18981 -0.213449 5.34588e-20)
(1.2223 -0.190604 7.39528e-23)
(1.24811 -0.161502 2.09966e-21)
(1.26842 -0.135621 -6.5042e-21)
(1.28661 -0.102372 6.61244e-21)
(1.02772 -0.29906 -9.5119e-21)
(1.0734 -0.298747 -1.40018e-22)
(1.1083 -0.288735 -1.36758e-20)
(1.14379 -0.272382 -5.19017e-21)
(1.18317 -0.258319 -5.80414e-20)
(1.20847 -0.234664 -2.61494e-20)
(1.23938 -0.209055 3.34129e-20)
(1.26665 -0.179073 -3.98759e-20)
(1.29193 -0.149666 3.37657e-20)
(1.30951 -0.114723 -7.81007e-21)
(1.02536 -0.325202 2.59943e-21)
(1.07593 -0.323987 1.0963e-20)
(1.11449 -0.315647 -1.90797e-20)
(1.15495 -0.29697 -3.32324e-21)
(1.19486 -0.279731 -5.37242e-20)
(1.22809 -0.256583 1.28367e-20)
(1.25526 -0.228642 -5.90091e-20)
(1.28854 -0.19711 4.73007e-21)
(1.31378 -0.164519 -8.96131e-21)
(1.33462 -0.129052 -1.03002e-20)
(1.03029 -0.356407 4.40081e-21)
(1.08076 -0.352862 5.50141e-21)
(1.12508 -0.344552 -2.46812e-20)
(1.16493 -0.325035 -2.27708e-20)
(1.21054 -0.304391 1.08757e-19)
(1.2458 -0.278493 2.0018e-20)
(1.27867 -0.249507 1.46307e-20)
(1.3063 -0.216218 -7.91328e-21)
(1.3404 -0.180717 2.47253e-20)
(1.35761 -0.143452 9.54076e-21)
(1.03171 -0.390665 -1.50219e-20)
(1.08768 -0.385948 -3.35078e-20)
(1.1363 -0.375657 8.47456e-20)
(1.18042 -0.356975 -5.53516e-20)
(1.22477 -0.331842 2.73466e-20)
(1.26742 -0.305422 -6.43569e-20)
(1.30172 -0.270831 -1.23441e-20)
(1.33216 -0.238056 -5.22715e-21)
(1.36567 -0.198394 6.27292e-21)
(1.38513 -0.159798 -9.53095e-22)
(1.03265 -0.427569 2.48077e-20)
(1.09305 -0.422465 2.4004e-20)
(1.14877 -0.409586 -5.00493e-20)
(1.19815 -0.390045 1.0134e-20)
(1.24335 -0.361988 1.35073e-20)
(1.28936 -0.333692 -1.31781e-20)
(1.32624 -0.295219 1.06901e-20)
(1.36123 -0.260294 1.88512e-20)
(1.39241 -0.218071 -9.97148e-21)
(1.41901 -0.17697 -2.60844e-20)
(1.0358 -0.469929 1.08647e-20)
(1.09742 -0.463638 -1.40206e-20)
(1.16175 -0.448383 1.88873e-21)
(1.21499 -0.427357 1.93162e-20)
(1.26712 -0.395129 5.96406e-20)
(1.31144 -0.364712 3.23679e-20)
(1.35454 -0.322764 4.43139e-20)
(1.3882 -0.283067 -2.32345e-20)
(1.42321 -0.240099 -3.8088e-20)
(1.45103 -0.194298 2.97859e-20)
(1.04348 -0.517212 5.53539e-21)
(1.10508 -0.508926 2.33963e-20)
(1.17813 -0.490808 -3.05649e-20)
(1.23331 -0.467448 -1.29337e-20)
(1.29419 -0.431567 -1.904e-19)
(1.33896 -0.39689 -7.85991e-20)
(1.38642 -0.35252 -1.40508e-19)
(1.42103 -0.307206 5.14294e-20)
(1.45635 -0.261384 1.44353e-20)
(1.48586 -0.21291 -2.05847e-20)
(1.04862 -0.570927 -1.5363e-20)
(1.11576 -0.561638 -2.54215e-21)
(1.19484 -0.539988 2.39472e-20)
(1.25651 -0.512703 -1.12505e-19)
(1.31928 -0.473716 -2.27182e-20)
(1.37216 -0.432125 8.38062e-20)
(1.41709 -0.386819 1.26406e-19)
(1.45976 -0.334343 -1.22948e-19)
(1.48899 -0.286574 5.36663e-20)
(1.52534 -0.233258 -1.00781e-21)
(1.05088 -0.63008 -4.98826e-20)
(1.13422 -0.618419 1.10668e-19)
(1.2129 -0.593897 9.50143e-21)
(1.28983 -0.560038 -1.44316e-20)
(1.34911 -0.517486 2.86095e-19)
(1.41304 -0.467916 -1.66774e-19)
(1.4532 -0.419747 -1.28747e-20)
(1.50353 -0.360695 7.345e-20)
(1.52784 -0.311135 8.88265e-20)
(1.56622 -0.253193 9.23335e-21)
(1.05072 -0.702464 6.97367e-20)
(1.15003 -0.68799 -9.02694e-20)
(1.2337 -0.660121 -1.22484e-19)
(1.32009 -0.619341 1.75736e-19)
(1.38698 -0.568488 -8.69592e-20)
(1.45277 -0.507053 1.49563e-19)
(1.50135 -0.449296 2.74139e-19)
(1.54492 -0.384303 -6.98287e-20)
(1.57435 -0.33026 -9.0518e-20)
(1.60003 -0.271604 -2.49412e-20)
(1.06104 -0.779062 -2.63218e-19)
(1.16218 -0.765907 -7.8874e-20)
(1.26137 -0.736381 -6.68923e-21)
(1.34667 -0.69548 5.4093e-20)
(1.42819 -0.642063 -1.15825e-19)
(1.49077 -0.575028 1.4974e-19)
(1.54455 -0.504623 -1.85221e-19)
(1.5817 -0.428984 3.63823e-20)
(1.60578 -0.363789 -2.5439e-20)
(1.6181 -0.299178 -9.56673e-21)
(1.0926 -0.860003 1.88745e-19)
(1.2091 -0.832026 8.8119e-20)
(1.31915 -0.783555 1.53264e-20)
(1.41938 -0.72121 -6.26964e-20)
(1.49436 -0.650462 1.32772e-19)
(1.5637 -0.567638 -1.69599e-19)
(1.59125 -0.4855 -2.06746e-19)
(1.61627 -0.396116 -7.89999e-21)
(1.58462 -0.320727 8.05614e-21)
(1.55552 -0.250525 6.17156e-20)
(0.816711 -0.834724 1.2466e-19)
(0.913998 -0.808234 -4.66537e-19)
(0.995313 -0.759432 -4.22123e-20)
(1.06674 -0.693672 4.9146e-19)
(1.10361 -0.616144 -4.80622e-19)
(1.12894 -0.529512 1.79246e-19)
(1.10754 -0.441445 -1.21193e-19)
(1.06966 -0.352632 3.62263e-20)
(0.975936 -0.270292 7.36467e-20)
(0.84752 -0.200367 4.48716e-20)
(0.931923 -0.148027 -7.50074e-20)
(0.953438 -0.156154 -6.0476e-20)
(0.972351 -0.173843 2.26756e-20)
(0.995403 -0.160028 2.81741e-21)
(0.914596 -0.142675 -4.30004e-20)
(0.93387 -0.158403 -1.51526e-20)
(0.957783 -0.160393 1.66786e-20)
(0.985263 -0.184868 4.59058e-20)
(0.996806 -0.16766 1.12142e-20)
(0.871982 -0.116448 -4.78629e-20)
(0.889963 -0.135032 1.70822e-20)
(0.910584 -0.152297 3.52996e-20)
(0.932641 -0.171562 1.13762e-19)
(0.955119 -0.171036 -1.65847e-20)
(0.990335 -0.197475 -6.19773e-20)
(1.00041 -0.186582 -8.55562e-21)
(0.822397 -0.052514 -4.36267e-21)
(0.831969 -0.0785462 4.04437e-20)
(0.845562 -0.102252 4.39422e-21)
(0.861971 -0.126711 -4.93171e-21)
(0.881387 -0.147296 9.11127e-21)
(0.903868 -0.164203 -4.46266e-20)
(0.927742 -0.188048 -1.09677e-19)
(0.947789 -0.18532 9.68726e-20)
(0.985157 -0.21134 4.26039e-20)
(1.0058 -0.209916 -3.47199e-20)
(0.806173 -0.0575977 -3.59917e-21)
(0.816421 -0.0861432 9.66983e-21)
(0.830755 -0.111832 -3.30721e-22)
(0.848129 -0.13808 -1.20474e-20)
(0.8686 -0.161367 5.96449e-20)
(0.892089 -0.177941 2.03064e-20)
(0.920952 -0.206426 6.24908e-21)
(0.938786 -0.205232 1.24974e-20)
(0.972724 -0.225057 2.7264e-20)
(1.01152 -0.23386 -1.06611e-20)
(0.787664 -0.0627921 7.00761e-21)
(0.798199 -0.0942082 2.85215e-20)
(0.813444 -0.122515 5.40052e-21)
(0.832004 -0.150945 1.82409e-20)
(0.853959 -0.177406 -9.21949e-20)
(0.877366 -0.193232 6.75953e-20)
(0.90913 -0.224787 -1.91981e-20)
(0.934155 -0.228901 -3.81751e-20)
(0.954463 -0.24048 -5.72173e-21)
(1.0094 -0.25553 -7.77391e-21)
(0.766666 -0.0682244 -6.24939e-21)
(0.777308 -0.102667 2.81573e-20)
(0.793098 -0.133684 -5.22155e-21)
(0.812813 -0.164453 -1.9265e-20)
(0.837122 -0.195243 -5.76613e-21)
(0.86227 -0.211118 -6.41927e-20)
(0.894328 -0.24325 8.86649e-20)
(0.930955 -0.255147 -3.86685e-20)
(0.945014 -0.260487 -7.89458e-21)
(0.993831 -0.275173 2.31848e-20)
(0.743231 -0.0736699 -4.9826e-22)
(0.754498 -0.1119 -2.94679e-20)
(0.771423 -0.146148 -1.02199e-19)
(0.79238 -0.178661 9.07052e-21)
(0.818267 -0.213811 -4.08301e-20)
(0.846242 -0.231162 2.2604e-20)
(0.876809 -0.261997 -6.25059e-20)
(0.92539 -0.282409 5.92647e-20)
(0.946287 -0.285775 -9.74483e-21)
(0.985556 -0.298312 -2.0421e-20)
(0.716863 -0.0795541 1.04194e-20)
(0.728649 -0.121353 1.63214e-20)
(0.747014 -0.159725 7.77623e-20)
(0.770353 -0.194592 6.49347e-21)
(0.798493 -0.234199 -2.09832e-20)
(0.831061 -0.254301 6.58329e-21)
(0.857904 -0.28139 -5.38016e-20)
(0.911593 -0.309046 2.48443e-20)
(0.946701 -0.3143 -1.64266e-20)
(0.98714 -0.327052 2.63861e-20)
(0.687943 -0.0861376 -1.68413e-20)
(0.700815 -0.132105 -3.63542e-20)
(0.720264 -0.174534 -2.1274e-20)
(0.745783 -0.211193 4.98252e-20)
(0.775894 -0.25549 4.67663e-20)
(0.816343 -0.281836 2.90947e-20)
(0.844356 -0.30495 -3.81765e-20)
(0.893299 -0.335939 -2.07122e-21)
(0.94054 -0.343558 -1.23894e-20)
(0.987739 -0.357882 -7.65695e-21)
(0.654943 -0.0931586 1.76637e-20)
(0.66922 -0.143827 7.58913e-21)
(0.690549 -0.192008 2.91982e-20)
(0.718942 -0.230799 -7.95668e-20)
(0.749326 -0.277044 2.21752e-20)
(0.795285 -0.311619 -2.51967e-20)
(0.833705 -0.334188 -8.68879e-20)
(0.877602 -0.366298 -7.5811e-21)
(0.929989 -0.37634 -4.99765e-20)
(0.983209 -0.390623 -1.98655e-20)
(0.618699 -0.101266 -3.49796e-20)
(0.633998 -0.156039 5.906e-20)
(0.656948 -0.210661 3.88765e-20)
(0.689826 -0.254483 -3.13869e-20)
(0.723238 -0.301779 3.25172e-20)
(0.768007 -0.342317 4.2212e-20)
(0.819265 -0.367808 9.00933e-20)
(0.865108 -0.400346 7.08007e-20)
(0.921463 -0.413677 1.02077e-20)
(0.979647 -0.427334 2.41622e-20)
(0.577069 -0.110301 2.27326e-20)
(0.594323 -0.170811 2.00329e-20)
(0.618039 -0.23059 -4.0854e-20)
(0.653885 -0.280262 2.03172e-20)
(0.695459 -0.331904 -1.2113e-19)
(0.738028 -0.376609 -1.30567e-20)
(0.797887 -0.406322 -2.21053e-20)
(0.849758 -0.438516 3.47399e-20)
(0.911591 -0.455446 -9.06804e-21)
(0.976117 -0.470005 -8.47234e-21)
(0.530574 -0.119488 -4.07037e-21)
(0.549971 -0.186518 -4.70373e-20)
(0.576865 -0.254734 -1.92764e-20)
(0.612795 -0.308129 9.12734e-20)
(0.663476 -0.364942 2.17784e-19)
(0.709069 -0.414518 -3.05533e-20)
(0.77436 -0.450263 -6.53434e-20)
(0.832806 -0.482669 -1.90142e-20)
(0.900723 -0.501054 -4.51432e-21)
(0.971567 -0.51616 8.37512e-21)
(0.476625 -0.130787 -1.47833e-20)
(0.497465 -0.203116 6.34331e-20)
(0.529333 -0.28166 -2.60617e-20)
(0.566623 -0.341993 -3.54732e-20)
(0.622116 -0.403091 -2.26964e-19)
(0.675137 -0.457166 1.2371e-19)
(0.747106 -0.499853 6.62858e-20)
(0.813169 -0.534806 -3.99598e-20)
(0.889122 -0.555284 3.55206e-20)
(0.962206 -0.569538 -1.42062e-20)
(0.417363 -0.143411 1.07168e-20)
(0.438098 -0.222877 2.61885e-20)
(0.475811 -0.309151 5.07955e-21)
(0.518829 -0.38051 -7.14269e-20)
(0.577956 -0.446916 1.29721e-19)
(0.637409 -0.504732 -1.81001e-19)
(0.717659 -0.553452 2.99112e-20)
(0.792707 -0.592484 3.13268e-20)
(0.879606 -0.615361 -2.13199e-20)
(0.95954 -0.62941 6.90665e-20)
(0.348597 -0.155822 1.44796e-20)
(0.367325 -0.248167 7.37859e-21)
(0.410522 -0.341256 5.7353e-20)
(0.459441 -0.424147 -7.82393e-20)
(0.525123 -0.500478 1.46123e-19)
(0.592237 -0.563847 3.98379e-20)
(0.678063 -0.617495 3.73878e-20)
(0.766809 -0.661328 -6.08346e-21)
(0.860507 -0.688087 4.23658e-21)
(0.957401 -0.701967 -2.12774e-20)
(0.272356 -0.167884 -1.24501e-20)
(0.290364 -0.277578 -4.06955e-20)
(0.337309 -0.374963 -1.39298e-19)
(0.397716 -0.471292 1.19089e-19)
(0.469032 -0.554047 -1.61519e-19)
(0.549056 -0.62852 -3.74818e-20)
(0.641223 -0.684553 -3.56201e-20)
(0.741452 -0.734282 -1.3343e-20)
(0.847229 -0.762859 1.75099e-20)
(0.952776 -0.78017 6.62258e-20)
(0.173523 -0.18747 1.77531e-20)
(0.194719 -0.315298 -5.47262e-21)
(0.243266 -0.42684 1.60991e-20)
(0.307778 -0.537455 4.82894e-20)
(0.3973 -0.634486 1.29044e-19)
(0.483476 -0.719003 -1.02543e-20)
(0.602846 -0.783371 1.35903e-20)
(0.709692 -0.833863 -1.14804e-20)
(0.844119 -0.861318 4.68335e-20)
(0.960753 -0.872395 -1.11529e-20)
(0.0586798 -0.167908 6.68983e-21)
(0.0779152 -0.284729 -3.49479e-20)
(0.114469 -0.395951 3.77668e-20)
(0.165094 -0.498884 1.26787e-20)
(0.238365 -0.597247 -1.03943e-20)
(0.311222 -0.679427 -6.04456e-20)
(0.410572 -0.749205 3.12007e-20)
(0.501693 -0.798871 3.11145e-20)
(0.611509 -0.831166 -7.78543e-20)
(0.711521 -0.843773 1.22191e-19)
(0.972506 -0.129802 -2.51623e-21)
(0.946383 -0.153 1.73214e-20)
(0.960732 -0.166999 -7.19961e-20)
(0.99241 -0.15682 -2.29401e-20)
(1.01276 -0.125942 0)
(1.02402 -0.118515 0)
(1.02183 -0.109997 0)
(1.0243 -0.101492 0)
(1.03218 -0.093267 0)
(1.03815 -0.085303 0)
(1.04135 -0.0772517 0)
(1.04346 -0.0692428 0)
(1.04482 -0.062164 0)
(1.04472 -0.0549565 0)
(1.04214 -0.0483098 0)
(1.03839 -0.0418502 0)
(1.03434 -0.0363482 0)
(1.03141 -0.0315863 0)
(1.02977 -0.0278079 0)
(1.02849 -0.0243293 0)
(1.02711 -0.0210823 0)
(1.02543 -0.017972 0)
(1.02363 -0.0151726 0)
(1.02184 -0.0127815 0)
(1.02015 -0.0107907 0)
(1.01857 -0.00913695 0)
(1.01711 -0.00770747 0)
(1.01578 -0.00644939 0)
(1.01457 -0.00530074 0)
(1.0135 -0.00424935 0)
(1.01262 -0.00317657 0)
(1.01198 -0.00167926 0)
(1.01081 -0.000763611 0)
(1.01059 -0.000389681 0)
(0.999243 -0.171523 0)
(1.01098 -0.151736 0)
(1.02443 -0.131541 0)
(1.03271 -0.115831 0)
(1.03721 -0.102429 0)
(1.04144 -0.0889613 0)
(1.04524 -0.0765925 0)
(1.04828 -0.0664497 0)
(1.05068 -0.0581742 0)
(1.05135 -0.0518511 0)
(1.04937 -0.0462605 0)
(1.04505 -0.0416205 0)
(1.03991 -0.0371525 0)
(1.03536 -0.0333109 0)
(1.03224 -0.0295419 0)
(1.03036 -0.0259671 0)
(1.02888 -0.0222702 0)
(1.02729 -0.0188306 0)
(1.02538 -0.0157366 0)
(1.02335 -0.0131833 0)
(1.02138 -0.0110691 0)
(1.01954 -0.0093307 0)
(1.01788 -0.00783922 0)
(1.01639 -0.00652371 0)
(1.01505 -0.00534581 0)
(1.01387 -0.0042816 0)
(1.0129 -0.00322359 0)
(1.01223 -0.00168108 0)
(1.01125 -0.000740645 0)
(1.01104 -0.000398015 0)
(1.04845 -0.163734 6.53251e-21)
(1.05016 -0.139814 -5.29244e-21)
(1.04851 -0.123978 4.34499e-21)
(1.05128 -0.112493 -6.00315e-21)
(1.05751 -0.101508 3.35764e-21)
(1.06177 -0.0906921 4.7512e-22)
(1.06231 -0.0796405 -1.13199e-21)
(1.0613 -0.069099 -4.45708e-22)
(1.0596 -0.0603037 1.20666e-21)
(1.05697 -0.0526668 -1.11941e-21)
(1.05278 -0.0462412 1.40307e-21)
(1.04783 -0.0404117 -1.30225e-21)
(1.04261 -0.0352524 1.266e-21)
(1.03861 -0.0306747 4.25174e-22)
(1.03613 -0.0268047 -9.0802e-22)
(1.03425 -0.0231858 -1.41766e-21)
(1.03241 -0.019858 9.59203e-22)
(1.03013 -0.0167996 -7.95399e-22)
(1.02758 -0.0141471 8.88857e-22)
(1.02498 -0.01196 -1.78507e-21)
(1.02254 -0.0101667 1.30881e-21)
(1.02033 -0.00868316 -6.2539e-22)
(1.01837 -0.0073792 1.27415e-21)
(1.01667 -0.00620838 -1.15918e-21)
(1.01518 -0.00511911 7.70124e-22)
(1.01387 -0.00412446 -7.99971e-23)
(1.01283 -0.00312394 -5.35505e-22)
(1.01214 -0.00160264 2.04205e-22)
(1.01143 -0.000703233 -2.77428e-23)
(1.01124 -0.000399706 3.14135e-22)
(1.04983 -0.140622 -9.56443e-22)
(1.05218 -0.124172 8.31427e-23)
(1.05758 -0.114669 -1.30171e-21)
(1.06508 -0.101847 1.95104e-21)
(1.06785 -0.0886017 -1.20115e-22)
(1.06723 -0.0756404 -1.03517e-21)
(1.06716 -0.0636599 8.41404e-22)
(1.06724 -0.0544618 -1.93259e-22)
(1.06673 -0.0475581 7.17369e-22)
(1.06447 -0.0425808 -4.86725e-22)
(1.06014 -0.0385841 -3.6851e-22)
(1.05419 -0.035121 -2.96132e-22)
(1.04816 -0.0316899 3.47429e-22)
(1.04316 -0.0285674 2.74592e-22)
(1.03939 -0.0253156 -1.78814e-21)
(1.03668 -0.0221541 2.35267e-21)
(1.03429 -0.0189567 -1.57386e-21)
(1.03183 -0.0160502 -1.17817e-21)
(1.02917 -0.0135251 3.39388e-21)
(1.02647 -0.0114801 1.10495e-21)
(1.02388 -0.00979039 -3.21979e-21)
(1.02148 -0.00837824 -4.43382e-23)
(1.01934 -0.00713429 7.051e-22)
(1.01744 -0.0060015 2.56015e-22)
(1.01579 -0.00495435 1.00742e-21)
(1.01433 -0.0040016 -7.90469e-22)