/*--------------------------------*- C++ -*----------------------------------*\
| =========                 |                                                 |
| \\      /  F ield         | OpenFOAM: The Open Source CFD Toolbox           |
|  \\    /   O peration     | Version:                                        |
|   \\  /    A nd           | Website:  www.openfoam.com                      |
|    \\/     M anipulation  |                                                 |
\*---------------------------------------------------------------------------*/
FoamFile
{
    version     2.0;
    format      ascii;
    class       volScalarField;
    location    "0.4";
    object      p;
}
// * * * * * * * * * * * * * * * * * * * * * * * * * * * * * * * * * * * * * //

dimensions      [0 2 -2 0 0 0 0];


internalField   nonuniform List<scalar> 
400
(
0.724949
0.722015
0.715383
0.705383
0.692959
0.678854
0.663634
0.64778
0.631678
0.615608
0.599766
0.584281
0.569232
0.554661
0.540581
0.526988
0.513867
0.501191
0.488933
0.477062
0.725906
0.722899
0.716112
0.705916
0.693302
0.679033
0.663681
0.647728
0.631556
0.61544
0.59957
0.584071
0.569019
0.55445
0.540378
0.526796
0.513687
0.501024
0.488778
0.47692
0.727843
0.724685
0.717578
0.706979
0.69398
0.679382
0.663767
0.647615
0.631304
0.615097
0.599173
0.583648
0.568589
0.554027
0.539971
0.526411
0.513326
0.500689
0.488469
0.476635
0.730809
0.72741
0.719794
0.708568
0.694979
0.679882
0.66387
0.647423
0.630905
0.614565
0.598563
0.583002
0.567935
0.553387
0.539357
0.525831
0.512784
0.500186
0.488006
0.47621
0.734882
0.73113
0.722782
0.710676
0.696275
0.680503
0.663959
0.647122
0.630336
0.613824
0.597725
0.582121
0.56705
0.552524
0.538532
0.525054
0.512061
0.499518
0.487392
0.475648
0.740177
0.735925
0.726567
0.713286
0.697834
0.681201
0.663991
0.646672
0.629561
0.612847
0.596637
0.580989
0.565922
0.55143
0.537493
0.524081
0.511158
0.498687
0.486631
0.474955
0.746851
0.741902
0.731175
0.716372
0.699603
0.681916
0.663907
0.646022
0.628539
0.6116
0.595275
0.57959
0.56454
0.550101
0.536239
0.522913
0.510081
0.497702
0.485734
0.47414
0.755128
0.749197
0.736629
0.719887
0.701511
0.68257
0.663632
0.645107
0.627217
0.610045
0.593612
0.577908
0.562899
0.548538
0.534776
0.521561
0.508844
0.496577
0.484716
0.473221
0.765312
0.757982
0.742941
0.723762
0.703458
0.683058
0.663071
0.643851
0.625539
0.608143
0.591626
0.575934
0.560998
0.546749
0.53312
0.520045
0.507468
0.495335
0.483599
0.47222
0.777835
0.768464
0.750091
0.727881
0.705308
0.683247
0.66211
0.642169
0.623448
0.605862
0.589305
0.573672
0.558856
0.544761
0.5313
0.518398
0.505987
0.49401
0.482418
0.471169
0.793307
0.780889
0.758012
0.732077
0.706879
0.68297
0.660622
0.639973
0.620897
0.603188
0.586662
0.571152
0.556514
0.542621
0.529368
0.516668
0.504448
0.492647
0.481213
0.470105
0.812618
0.795525
0.766541
0.736095
0.707932
0.682034
0.658475
0.6372
0.617872
0.600146
0.583744
0.568439
0.554041
0.540399
0.527391
0.514921
0.502911
0.491297
0.48003
0.469067
0.837093
0.812634
0.775365
0.739574
0.70817
0.680232
0.655566
0.63383
0.614415
0.596812
0.580649
0.565633
0.551538
0.538188
0.525453
0.513229
0.501437
0.490014
0.478913
0.468094
0.868762
0.832404
0.783935
0.742019
0.707251
0.677385
0.651865
0.629932
0.610647
0.593331
0.57752
0.562868
0.54912
0.536088
0.523635
0.511658
0.50008
0.488842
0.477898
0.467212
0.910675
0.854805
0.79138
0.742814
0.704857
0.673423
0.647473
0.625688
0.60677
0.589892
0.574522
0.56028
0.546896
0.534182
0.522002
0.510259
0.498878
0.487806
0.477003
0.466436
0.966958
0.879248
0.796437
0.741375
0.70087
0.668507
0.642672
0.621384
0.603029
0.586688
0.571798
0.55797
0.544937
0.532518
0.520585
0.509047
0.497838
0.48691
0.476227
0.46576
1.04315
0.904346
0.797542
0.737395
0.695539
0.663062
0.637848
0.617306
0.599616
0.58384
0.569418
0.555974
0.543255
0.531093
0.519371
0.508008
0.496943
0.486135
0.475552
0.465169
1.15124
0.928881
0.792979
0.730473
0.688959
0.657283
0.633109
0.613465
0.596488
0.581275
0.567297
0.554203
0.541764
0.529829
0.518291
0.507077
0.496136
0.485431
0.474932
0.464621
1.31785
0.952363
0.780338
0.71843
0.679673
0.650265
0.627775
0.609315
0.593194
0.578617
0.565117
0.552391
0.54024
0.528533
0.517179
0.506115
0.495297
0.484692
0.474277
0.464036
1.53744
0.968212
0.759017
0.700218
0.667108
0.641748
0.621669
0.604707
0.589606
0.575754
0.562786
0.550462
0.538622
0.527159
0.516
0.505092
0.494401
0.4839
0.473573
0.463405
)
;

boundaryField
{
    fixedWalls
    {
        type            zeroGradient;
    }
    inlet
    {
        type            zeroGradient;
    }
    outlet
    {
        type            fixedValue;
        value           nonuniform 0();
    }
    frontAndBack
    {
        type            empty;
    }
    procBoundary4to0
    {
        type            processor;
        value           nonuniform List<scalar> 
20
(
0.724949
0.722015
0.715383
0.705383
0.692959
0.678854
0.663634
0.64778
0.631678
0.615608
0.599766
0.584281
0.569232
0.554661
0.540581
0.526988
0.513867
0.501191
0.488933
0.477062
)
;
    }
    procBoundary4to5
    {
        type            processor;
        value           nonuniform List<scalar> 
20
(
0.465549
0.465418
0.465157
0.464767
0.464254
0.463623
0.462885
0.462057
0.461161
0.460227
0.459286
0.458376
0.457525
0.456757
0.456081
0.45549
0.454968
0.454481
0.453956
0.453385
)
;
    }
}


// ************************************************************************* //
