/*--------------------------------*- C++ -*----------------------------------*\
| =========                 |                                                 |
| \\      /  F ield         | OpenFOAM: The Open Source CFD Toolbox           |
|  \\    /   O peration     | Version:                                        |
|   \\  /    A nd           | Website:  www.openfoam.com                      |
|    \\/     M anipulation  |                                                 |
\*---------------------------------------------------------------------------*/
FoamFile
{
    version     2.0;
    format      ascii;
    class       volScalarField;
    location    "0.1";
    object      p;
}
// * * * * * * * * * * * * * * * * * * * * * * * * * * * * * * * * * * * * * //

dimensions      [0 2 -2 0 0 0 0];


internalField   nonuniform List<scalar> 
400
(
0.493092
0.48459
0.476197
0.467884
0.459627
0.451406
0.443205
0.435013
0.426822
0.418625
0.410419
0.402202
0.393972
0.385732
0.37748
0.36922
0.360951
0.352676
0.344394
0.336108
0.493297
0.48474
0.476304
0.467958
0.459676
0.451436
0.443223
0.435022
0.426825
0.418624
0.410416
0.402197
0.393968
0.385727
0.377476
0.369216
0.360948
0.352673
0.344392
0.336107
0.493486
0.484878
0.476403
0.468027
0.459722
0.451467
0.443242
0.435033
0.42683
0.418626
0.410415
0.402196
0.393966
0.385725
0.377474
0.369215
0.360947
0.352672
0.344392
0.336106
0.493689
0.48503
0.476513
0.468106
0.459779
0.451506
0.443268
0.435051
0.426842
0.418633
0.41042
0.402199
0.393967
0.385726
0.377475
0.369215
0.360947
0.352672
0.344391
0.336106
0.493967
0.485242
0.476673
0.468225
0.459866
0.45157
0.443314
0.435083
0.426864
0.418649
0.41043
0.402205
0.393972
0.385729
0.377477
0.369216
0.360948
0.352673
0.344392
0.336106
0.494359
0.485547
0.476909
0.468405
0.460001
0.45167
0.443388
0.435136
0.426902
0.418676
0.410449
0.402218
0.393981
0.385735
0.377481
0.369218
0.360949
0.352673
0.344392
0.336106
0.494884
0.485964
0.477235
0.468658
0.460195
0.451817
0.443497
0.435217
0.426961
0.418718
0.410479
0.402239
0.393995
0.385744
0.377487
0.369222
0.360951
0.352675
0.344393
0.336106
0.49554
0.486492
0.477655
0.468988
0.460452
0.452014
0.443646
0.435329
0.427043
0.418777
0.410521
0.402269
0.394015
0.385758
0.377495
0.369228
0.360954
0.352676
0.344394
0.336106
0.496305
0.487115
0.478157
0.469387
0.460766
0.452257
0.443833
0.43547
0.427148
0.418854
0.410577
0.402308
0.394042
0.385776
0.377508
0.369236
0.360959
0.352679
0.344395
0.336107
0.497142
0.487804
0.478717
0.469838
0.461124
0.452538
0.44405
0.435636
0.427273
0.418947
0.410644
0.402357
0.394076
0.3858
0.377523
0.369246
0.360966
0.352683
0.344397
0.336109
0.498009
0.488525
0.47931
0.470319
0.46151
0.452843
0.444289
0.435819
0.427413
0.419051
0.410721
0.402412
0.394116
0.385827
0.377542
0.369258
0.360974
0.352688
0.344399
0.336111
0.498867
0.489244
0.479905
0.470807
0.461904
0.453158
0.444536
0.436011
0.42756
0.419162
0.410804
0.402473
0.39416
0.385858
0.377564
0.369273
0.360983
0.352694
0.344403
0.336113
0.49968
0.489931
0.480478
0.471279
0.462288
0.453466
0.444781
0.436202
0.427707
0.419275
0.410888
0.402535
0.394205
0.38589
0.377586
0.369288
0.360994
0.352701
0.344407
0.336116
0.500425
0.490563
0.481009
0.471719
0.462648
0.453757
0.445012
0.436385
0.427849
0.419383
0.41097
0.402596
0.394249
0.385922
0.377609
0.369304
0.361004
0.352708
0.344411
0.336119
0.501082
0.491124
0.481482
0.472113
0.462972
0.45402
0.445223
0.436551
0.427978
0.419483
0.411045
0.402652
0.394291
0.385953
0.37763
0.369319
0.361015
0.352715
0.344415
0.336122
0.501639
0.491603
0.481887
0.472451
0.463251
0.454247
0.445405
0.436696
0.428092
0.41957
0.411112
0.402702
0.394328
0.38598
0.37765
0.369333
0.361024
0.352721
0.34442
0.336125
0.50209
0.491991
0.482217
0.472728
0.463479
0.454434
0.445556
0.436816
0.428186
0.419643
0.411168
0.402745
0.394359
0.386003
0.377666
0.369345
0.361033
0.352727
0.344424
0.336128
0.502431
0.492284
0.482467
0.472937
0.463653
0.454576
0.445671
0.436907
0.428258
0.419699
0.411211
0.402777
0.394384
0.386021
0.37768
0.369354
0.361039
0.352732
0.344428
0.336129
0.502658
0.492481
0.482634
0.473078
0.46377
0.454672
0.445749
0.43697
0.428307
0.419738
0.411241
0.4028
0.394401
0.386034
0.377689
0.369361
0.361044
0.352735
0.344431
0.33613
0.502772
0.49258
0.482719
0.473149
0.463829
0.45472
0.445788
0.437001
0.428332
0.419757
0.411256
0.402811
0.394409
0.38604
0.377694
0.369365
0.361046
0.352737
0.344433
0.336131
)
;

boundaryField
{
    fixedWalls
    {
        type            zeroGradient;
    }
    inlet
    {
        type            zeroGradient;
    }
    outlet
    {
        type            fixedValue;
        value           nonuniform 0();
    }
    frontAndBack
    {
        type            empty;
    }
    procBoundary1to0
    {
        type            processor;
        value           nonuniform List<scalar> 
20
(
0.501735
0.50201
0.502263
0.502531
0.502891
0.503387
0.504042
0.504848
0.505775
0.506779
0.507808
0.508817
0.509768
0.510632
0.511391
0.512033
0.512552
0.512942
0.513203
0.513334
)
;
    }
    procBoundary1to2
    {
        type            processor;
        value           nonuniform List<scalar> 
20
(
0.327819
0.327818
0.327817
0.327817
0.327817
0.327817
0.327817
0.327817
0.327818
0.327818
0.32782
0.327822
0.327824
0.327827
0.32783
0.327832
0.327833
0.327834
0.327834
0.327834
)
;
    }
    procBoundary1to5
    {
        type            processor;
        value           nonuniform List<scalar> 
20
(
0.502772
0.49258
0.482719
0.473149
0.463829
0.45472
0.445788
0.437001
0.428332
0.419757
0.411256
0.402811
0.39441
0.38604
0.377694
0.369365
0.361046
0.352737
0.344433
0.336132
)
;
    }
}


// ************************************************************************* //
