/*--------------------------------*- C++ -*----------------------------------*\
| =========                 |                                                 |
| \\      /  F ield         | OpenFOAM: The Open Source CFD Toolbox           |
|  \\    /   O peration     | Version:                                        |
|   \\  /    A nd           | Website:  www.openfoam.com                      |
|    \\/     M anipulation  |                                                 |
\*---------------------------------------------------------------------------*/
FoamFile
{
    version     2.0;
    format      ascii;
    class       volVectorField;
    location    "0.1";
    object      U;
}
// * * * * * * * * * * * * * * * * * * * * * * * * * * * * * * * * * * * * * //

dimensions      [0 1 -1 0 0 0 0];


internalField   nonuniform List<vector> 
400
(
(0.104922 8.12778e-05 0)
(0.104479 5.91771e-05 0)
(0.104159 4.17236e-05 0)
(0.103935 2.82012e-05 0)
(0.103785 1.79222e-05 0)
(0.103691 1.03475e-05 0)
(0.103636 4.91708e-06 0)
(0.10361 1.23842e-06 0)
(0.103604 -1.20033e-06 0)
(0.10361 -2.6481e-06 0)
(0.103622 -3.35571e-06 0)
(0.103639 -3.57976e-06 0)
(0.103656 -3.50316e-06 0)
(0.103673 -3.22809e-06 0)
(0.103689 -2.84006e-06 0)
(0.103702 -2.42713e-06 0)
(0.103714 -2.02249e-06 0)
(0.103724 -1.63644e-06 0)
(0.103731 -1.29013e-06 0)
(0.103737 -9.98595e-07 0)
(0.302366 0.000512488 0)
(0.301089 0.000375331 0)
(0.300156 0.000267198 0)
(0.299495 0.000183436 0)
(0.299041 0.000119877 0)
(0.298745 7.28728e-05 0)
(0.298563 3.91171e-05 0)
(0.298465 1.58427e-05 0)
(0.298423 4.14641e-07 0)
(0.298418 -9.06866e-06 0)
(0.298435 -1.42695e-05 0)
(0.298466 -1.64769e-05 0)
(0.298501 -1.67082e-05 0)
(0.298538 -1.57407e-05 0)
(0.298573 -1.40923e-05 0)
(0.298603 -1.21508e-05 0)
(0.29863 -1.01752e-05 0)
(0.298652 -8.32541e-06 0)
(0.29867 -6.58086e-06 0)
(0.298684 -5.07766e-06 0)
(0.483979 0.00148476 0)
(0.481831 0.00109748 0)
(0.480235 0.00079105 0)
(0.479077 0.000552735 0)
(0.47826 0.000370949 0)
(0.477703 0.00023546 0)
(0.47734 0.000137194 0)
(0.47712 6.82556e-05 0)
(0.476999 2.17096e-05 0)
(0.476947 -7.94634e-06 0)
(0.476939 -2.5323e-05 0)
(0.476958 -3.40659e-05 0)
(0.476992 -3.69626e-05 0)
(0.477032 -3.61534e-05 0)
(0.477073 -3.31599e-05 0)
(0.477112 -2.90886e-05 0)
(0.477146 -2.46473e-05 0)
(0.477175 -2.03591e-05 0)
(0.477199 -1.62412e-05 0)
(0.477219 -1.26078e-05 0)
(0.646862 0.00298962 0)
(0.643812 0.0022365 0)
(0.641495 0.00163603 0)
(0.63977 0.00116526 0)
(0.638513 0.0008028 0)
(0.637622 0.000529644 0)
(0.637009 0.000328782 0)
(0.636605 0.000185178 0)
(0.636352 8.60639e-05 0)
(0.636208 2.06313e-05 0)
(0.636138 -2.00188e-05 0)
(0.636116 -4.28896e-05 0)
(0.636124 -5.34332e-05 0)
(0.636149 -5.59251e-05 0)
(0.636182 -5.34335e-05 0)
(0.636217 -4.81771e-05 0)
(0.636251 -4.16159e-05 0)
(0.636281 -3.49303e-05 0)
(0.636307 -2.82604e-05 0)
(0.636329 -2.21036e-05 0)
(0.788936 0.00499199 0)
(0.785042 0.0037868 0)
(0.782012 0.00281577 0)
(0.779696 0.0020459 0)
(0.777957 0.00144608 0)
(0.776679 0.000987844 0)
(0.775762 0.00064544 0)
(0.775122 0.00039588 0)
(0.77469 0.000219287 0)
(0.774411 9.8744e-05 0)
(0.774243 2.01521e-05 0)
(0.77415 -2.7811e-05 0)
(0.774108 -5.4046e-05 0)
(0.774099 -6.55762e-05 0)
(0.774109 -6.75677e-05 0)
(0.77413 -6.38367e-05 0)
(0.774154 -5.69244e-05 0)
(0.77418 -4.89417e-05 0)
(0.774203 -4.04578e-05 0)
(0.774224 -3.21131e-05 0)
(0.909111 0.00741066 0)
(0.904567 0.00570498 0)
(0.900946 0.00431346 0)
(0.898104 0.00319572 0)
(0.895911 0.00231281 0)
(0.894249 0.00162817 0)
(0.893014 0.00110789 0)
(0.892115 0.000721279 0)
(0.891478 0.000441158 0)
(0.891038 0.000244151 0)
(0.890745 0.000110512 0)
(0.890559 2.40119e-05 0)
(0.890448 -2.82966e-05 0)
(0.890388 -5.67052e-05 0)
(0.890363 -6.8983e-05 0)
(0.890358 -7.10055e-05 0)
(0.890365 -6.67541e-05 0)
(0.890379 -5.95162e-05 0)
(0.890395 -5.07477e-05 0)
(0.890412 -4.1298e-05 0)
(1.00734 0.0100811 0)
(1.00248 0.00787666 0)
(0.998513 0.00605322 0)
(0.995317 0.00456747 0)
(0.992785 0.00337647 0)
(0.990813 0.00243847 0)
(0.989303 0.00171358 0)
(0.988169 0.00116476 0)
(0.987334 0.000758442 0)
(0.986732 0.000465167 0)
(0.986309 0.000259697 0)
(0.986021 0.00012081 0)
(0.985831 3.12278e-05 0)
(0.985711 -2.29345e-05 0)
(0.98564 -5.23657e-05 0)
(0.985603 -6.53423e-05 0)
(0.985587 -6.76701e-05 0)
(0.985584 -6.39606e-05 0)
(0.985588 -5.70042e-05 0)
(0.985597 -4.82042e-05 0)
(1.08458 0.0127712 0)
(1.07985 0.0101241 0)
(1.07587 0.00790203 0)
(1.07258 0.0060641 0)
(1.06991 0.00456827 0)
(1.06777 0.00337169 0)
(1.06609 0.0024317 0)
(1.06479 0.00170733 0)
(1.0638 0.00116047 0)
(1.06307 0.000756839 0)
(1.06254 0.000466458 0)
(1.06216 0.000263545 0)
(1.06189 0.000126698 0)
(1.06171 3.84547e-05 0)
(1.06159 -1.48962e-05 0)
(1.06152 -4.41887e-05 0)
(1.06148 -5.73176e-05 0)
(1.06146 -6.02848e-05 0)
(1.06145 -5.74794e-05 0)
(1.06144 -5.14283e-05 0)
(1.14268 0.0152217 0)
(1.13853 0.0122355 0)
(1.13493 0.00968996 0)
(1.13186 0.00755208 0)
(1.12929 0.00578544 0)
(1.12718 0.00435035 0)
(1.12548 0.00320509 0)
(1.12413 0.00230787 0)
(1.12308 0.00161846 0)
(1.12227 0.00109967 0)
(1.12167 0.000718079 0)
(1.12122 0.00044436 0)
(1.1209 0.000253646 0)
(1.12067 0.000125262 0)
(1.12052 4.26526e-05 0)
(1.12041 -7.46174e-06 0)
(1.12034 -3.51218e-05 0)
(1.1203 -4.77385e-05 0)
(1.12028 -5.129e-05 0)
(1.12027 -4.99757e-05 0)
(1.18415 0.0171928 0)
(1.18099 0.0140022 0)
(1.17812 0.0112399 0)
(1.17557 0.00888422 0)
(1.17337 0.00690813 0)
(1.1715 0.00527882 0)
(1.16995 0.00395893 0)
(1.16869 0.00290895 0)
(1.16768 0.00208924 0)
(1.16688 0.00146183 0)
(1.16627 0.000991622 0)
(1.1658 0.000647122 0)
(1.16546 0.000401032 0)
(1.1652 0.000230171 0)
(1.16502 0.000115619 0)
(1.1649 4.20114e-05 0)
(1.16481 -2.6443e-06 0)
(1.16475 -2.71032e-05 0)
(1.16472 -3.87115e-05 0)
(1.16469 -4.36004e-05 0)
(1.21191 0.0185021 0)
(1.21001 0.0152536 0)
(1.20815 0.0123972 0)
(1.20639 0.00992436 0)
(1.20478 0.00781963 0)
(1.20335 0.00605939 0)
(1.20212 0.00461316 0)
(1.20108 0.00344632 0)
(1.20022 0.00252223 0)
(1.19952 0.00180426 0)
(1.19897 0.00125751 0)
(1.19854 0.000849868 0)
(1.19821 0.000552855 0)
(1.19796 0.000341766 0)
(1.19777 0.000196062 0)
(1.19764 9.88378e-05 0)
(1.19755 3.65646e-05 0)
(1.19748 -6.48079e-07 0)
(1.19743 -2.11731e-05 0)
(1.19741 -3.295e-05 0)
(1.22893 0.019045 0)
(1.22846 0.0158781 0)
(1.22778 0.0130506 0)
(1.22697 0.0105672 0)
(1.22612 0.00842408 0)
(1.22529 0.00660747 0)
(1.22451 0.00509523 0)
(1.22381 0.00385927 0)
(1.2232 0.00286771 0)
(1.22269 0.0020871 0)
(1.22226 0.00148441 0)
(1.22191 0.00102844 0)
(1.22164 0.000690823 0)
(1.22143 0.000446453 0)
(1.22126 0.000274084 0)
(1.22114 0.000155956 0)
(1.22105 7.75756e-05 0)
(1.22098 2.82553e-05 0)
(1.22093 -9.87841e-07 0)
(1.2209 -1.94382e-05 0)
(1.23806 0.0187959 0)
(1.23903 0.0158295 0)
(1.23957 0.0131421 0)
(1.2398 0.0107495 0)
(1.2398 0.00865768 0)
(1.23966 0.00686244 0)
(1.23943 0.00534993 0)
(1.23915 0.00409917 0)
(1.23887 0.00308408 0)
(1.2386 0.00227565 0)
(1.23835 0.00164408 0)
(1.23814 0.0011603 0)
(1.23796 0.000797317 0)
(1.2378 0.000530704 0)
(1.23768 0.000339493 0)
(1.23758 0.00020583 0)
(1.23751 0.00011494 0)
(1.23745 5.57371e-05 0)
(1.23741 1.90625e-05 0)
(1.23738 -4.919e-06 0)
(1.24177 0.0177945 0)
(1.24408 0.0151207 0)
(1.2458 0.0126649 0)
(1.24705 0.0104511 0)
(1.24792 0.00849253 0)
(1.24849 0.00679256 0)
(1.24885 0.00534474 0)
(1.24905 0.00413489 0)
(1.24914 0.00314292 0)
(1.24915 0.00234492 0)
(1.24912 0.00171517 0)
(1.24907 0.00122773 0)
(1.249 0.000857962 0)
(1.24894 0.000583114 0)
(1.24887 0.000383413 0)
(1.24881 0.000241657 0)
(1.24877 0.00014357 0)
(1.24873 7.80781e-05 0)
(1.24869 3.62177e-05 0)
(1.24867 8.66937e-06 0)
(1.24207 0.0161264 0)
(1.24556 0.0138092 0)
(1.24835 0.0116545 0)
(1.25054 0.0096902 0)
(1.25222 0.00793411 0)
(1.25349 0.00639454 0)
(1.25442 0.0050708 0)
(1.25509 0.00395448 0)
(1.25556 0.0030311 0)
(1.25588 0.00228183 0)
(1.25608 0.00168545 0)
(1.2562 0.00121979 0)
(1.25627 0.000863369 0)
(1.2563 0.000595861 0)
(1.2563 0.000399502 0)
(1.25629 0.000258381 0)
(1.25628 0.000159515 0)
(1.25626 9.2225e-05 0)
(1.25624 4.81546e-05 0)
(1.25623 1.96416e-05 0)
(1.24053 0.0139013 0)
(1.24499 0.0119808 0)
(1.24867 0.0101753 0)
(1.25168 0.00851361 0)
(1.25408 0.00701472 0)
(1.25597 0.00568935 0)
(1.25743 0.00454049 0)
(1.25854 0.00356411 0)
(1.25937 0.00275047 0)
(1.25997 0.00208548 0)
(1.2604 0.00155242 0)
(1.2607 0.00113318 0)
(1.26089 0.000809952 0)
(1.26102 0.000565468 0)
(1.2611 0.000384598 0)
(1.26114 0.000253237 0)
(1.26116 0.000160493 0)
(1.26117 9.63024e-05 0)
(1.26117 5.33472e-05 0)
(1.26117 2.67781e-05 0)
(1.23825 0.0112365 0)
(1.24347 0.00973407 0)
(1.24787 0.00830868 0)
(1.25153 0.00698675 0)
(1.25453 0.00578569 0)
(1.25694 0.00471625 0)
(1.25885 0.00378307 0)
(1.26034 0.00298501 0)
(1.26148 0.00231596 0)
(1.26233 0.00176597 0)
(1.26296 0.00132258 0)
(1.26342 0.000971857 0)
(1.26374 0.000699898 0)
(1.26396 0.000492909 0)
(1.2641 0.000338897 0)
(1.26419 0.000225998 0)
(1.26425 0.000146073 0)
(1.26428 8.97334e-05 0)
(1.26429 5.12102e-05 0)
(1.2643 2.93592e-05 0)
(1.23602 0.00824536 0)
(1.24178 0.00717024 0)
(1.24671 0.00614296 0)
(1.25086 0.00518503 0)
(1.25431 0.00431004 0)
(1.25712 0.00352679 0)
(1.25938 0.00283994 0)
(1.26116 0.00224975 0)
(1.26255 0.00175273 0)
(1.26361 0.00134231 0)
(1.2644 0.00101003 0)
(1.26498 0.000746079 0)
(1.2654 0.000540499 0)
(1.2657 0.000383249 0)
(1.2659 0.000265761 0)
(1.26603 0.000178894 0)
(1.26612 0.000117553 0)
(1.26617 7.33996e-05 0)
(1.2662 4.20276e-05 0)
(1.26622 2.7071e-05 0)
(1.2343 0.00503108 0)
(1.24042 0.00438637 0)
(1.24569 0.00376705 0)
(1.25017 0.00318757 0)
(1.25391 0.00265662 0)
(1.257 0.0021797 0)
(1.25949 0.00176017 0)
(1.26148 0.00139858 0)
(1.26304 0.00109314 0)
(1.26424 0.000840189 0)
(1.26514 0.000634684 0)
(1.26581 0.000470923 0)
(1.2663 0.000343018 0)
(1.26665 0.000244746 0)
(1.26689 0.000171161 0)
(1.26706 0.000116231 0)
(1.26716 7.75442e-05 0)
(1.26723 4.93682e-05 0)
(1.26727 2.80748e-05 0)
(1.26729 1.92699e-05 0)
(1.23338 0.00168751 0)
(1.23967 0.00147305 0)
(1.24512 0.00126682 0)
(1.24975 0.00107368 0)
(1.25365 0.000896483 0)
(1.25686 0.000737209 0)
(1.25948 0.000597142 0)
(1.26157 0.000476299 0)
(1.26322 0.000374051 0)
(1.26449 0.000289231 0)
(1.26545 0.000220184 0)
(1.26617 0.000164892 0)
(1.2667 0.000121531 0)
(1.26707 8.8017e-05 0)
(1.26733 6.27496e-05 0)
(1.26752 4.36761e-05 0)
(1.26763 3.01939e-05 0)
(1.26771 2.01979e-05 0)
(1.26775 1.1913e-05 0)
(1.26778 8.09901e-06 0)
)
;

boundaryField
{
    fixedWalls
    {
        type            noSlip;
    }
    inlet
    {
        type            fixedValue;
        value           nonuniform 0();
    }
    outlet
    {
        type            zeroGradient;
    }
    frontAndBack
    {
        type            empty;
    }
    procBoundary1to0
    {
        type            processor;
        value           nonuniform List<vector> 
20
(
(0.105518 0.000108668 0)
(0.304076 0.000683287 0)
(0.486813 0.00196591 0)
(0.650808 0.00391892 0)
(0.793866 0.00646524 0)
(0.914726 0.00947145 0)
(1.01319 0.012709 0)
(1.09012 0.0158808 0)
(1.14737 0.0186753 0)
(1.18755 0.0208233 0)
(1.21373 0.0221382 0)
(1.22906 0.0225327 0)
(1.23654 0.0220117 0)
(1.23875 0.0206505 0)
(1.23778 0.018568 0)
(1.23521 0.0159008 0)
(1.23216 0.0127847 0)
(1.22937 0.00934374 0)
(1.22731 0.00568584 0)
(1.22621 0.00190472 0)
)
;
    }
    procBoundary1to2
    {
        type            processor;
        value           nonuniform List<vector> 
20
(
(0.103742 -8.0891e-07 0)
(0.298696 -4.04951e-06 0)
(0.477234 -1.00346e-05 0)
(0.636346 -1.75915e-05 0)
(0.774242 -2.56294e-05 0)
(0.890428 -3.32561e-05 0)
(0.985609 -3.95584e-05 0)
(1.06145 -4.3639e-05 0)
(1.12026 -4.47357e-05 0)
(1.16468 -4.24081e-05 0)
(1.19739 -3.67275e-05 0)
(1.22088 -2.83364e-05 0)
(1.23735 -1.83157e-05 0)
(1.24864 -7.89015e-06 0)
(1.2562 1.72499e-06 0)
(1.26115 9.5285e-06 0)
(1.26429 1.4731e-05 0)
(1.26622 1.68255e-05 0)
(1.26731 1.44326e-05 0)
(1.2678 6.8974e-06 0)
)
;
    }
    procBoundary1to5
    {
        type            processor;
        value           nonuniform List<vector> 
20
(
(1.23338 -0.00169841 0)
(1.23967 -0.00148286 0)
(1.24512 -0.00127457 0)
(1.24975 -0.00107894 0)
(1.25365 -0.000899216 0)
(1.25686 -0.000737151 0)
(1.25948 -0.000593853 0)
(1.26157 -0.000469962 0)
(1.26322 -0.00036515 0)
(1.26449 -0.000278268 0)
(1.26545 -0.000207753 0)
(1.26617 -0.000151784 0)
(1.2667 -0.000108228 0)
(1.26707 -7.5033e-05 0)
(1.26734 -5.04589e-05 0)
(1.26752 -3.23934e-05 0)
(1.26763 -1.9963e-05 0)
(1.26772 -1.11139e-05 0)
(1.26775 -4.93487e-06 0)
(1.26778 -3.20314e-06 0)
)
;
    }
}


// ************************************************************************* //
