/*--------------------------------*- C++ -*----------------------------------*\
| =========                 |                                                 |
| \\      /  F ield         | OpenFOAM: The Open Source CFD Toolbox           |
|  \\    /   O peration     | Version:                                        |
|   \\  /    A nd           | Website:  www.openfoam.com                      |
|    \\/     M anipulation  |                                                 |
\*---------------------------------------------------------------------------*/
FoamFile
{
    version     2.0;
    format      ascii;
    class       volScalarField;
    location    "0.7";
    object      p;
}
// * * * * * * * * * * * * * * * * * * * * * * * * * * * * * * * * * * * * * //

dimensions      [0 2 -2 0 0 0 0];


internalField   nonuniform List<scalar> 
400
(
1.53898
0.969752
0.760557
0.701758
0.668648
0.643289
0.623209
0.606247
0.591147
0.577294
0.564326
0.552002
0.540163
0.5287
0.51754
0.506632
0.495941
0.48544
0.475113
0.464944
1.31939
0.953903
0.781879
0.719971
0.681214
0.651806
0.629316
0.610855
0.594735
0.580157
0.566657
0.553931
0.541781
0.530074
0.51872
0.507656
0.496837
0.486232
0.475817
0.465576
1.15278
0.930422
0.794519
0.732014
0.6905
0.658824
0.634649
0.615005
0.598028
0.582815
0.568837
0.555743
0.543305
0.531369
0.519831
0.508617
0.497676
0.486971
0.476472
0.466161
1.04469
0.905887
0.799082
0.738935
0.697079
0.664603
0.639389
0.618846
0.601156
0.58538
0.570958
0.557514
0.544795
0.532633
0.520912
0.509548
0.498483
0.487675
0.477091
0.466709
0.968499
0.880789
0.797978
0.742915
0.70241
0.670048
0.644212
0.622924
0.604569
0.588229
0.573339
0.55951
0.546477
0.534058
0.522125
0.510587
0.499378
0.48845
0.477767
0.4673
0.912216
0.856345
0.79292
0.744354
0.706397
0.674963
0.649014
0.627228
0.608311
0.591433
0.576062
0.56182
0.548436
0.535722
0.523543
0.511799
0.500418
0.489346
0.478543
0.467976
0.870303
0.833945
0.785476
0.743559
0.708791
0.678925
0.653405
0.631472
0.612188
0.594872
0.57906
0.564408
0.55066
0.537628
0.525175
0.513199
0.50162
0.490382
0.479438
0.468752
0.838633
0.814175
0.776905
0.741115
0.70971
0.681772
0.657107
0.63537
0.615955
0.598353
0.582189
0.567173
0.553078
0.539729
0.526993
0.514769
0.502977
0.491554
0.480453
0.469634
0.814158
0.797066
0.768081
0.737635
0.709472
0.683574
0.660015
0.63874
0.619412
0.601686
0.585284
0.569979
0.555581
0.541939
0.528931
0.516461
0.504451
0.492837
0.48157
0.470607
0.794848
0.782429
0.759552
0.733617
0.708419
0.684511
0.662162
0.641514
0.622437
0.604728
0.588202
0.572693
0.558054
0.544161
0.530908
0.518208
0.505988
0.494187
0.482753
0.471645
0.779375
0.770004
0.751632
0.729422
0.706849
0.684787
0.66365
0.643709
0.624988
0.607402
0.590846
0.575212
0.560397
0.546301
0.53284
0.519938
0.507526
0.49555
0.483958
0.472709
0.766853
0.759522
0.744481
0.725302
0.704998
0.684599
0.664611
0.645392
0.62708
0.609683
0.593166
0.577474
0.562538
0.548289
0.53466
0.521585
0.509007
0.496875
0.485139
0.47376
0.756668
0.750738
0.73817
0.721428
0.703051
0.684111
0.665172
0.646648
0.628757
0.611585
0.595153
0.579448
0.564439
0.550078
0.536316
0.523101
0.510384
0.498116
0.486255
0.474761
0.748392
0.743443
0.732715
0.717912
0.701143
0.683457
0.665447
0.647562
0.630079
0.61314
0.596815
0.58113
0.56608
0.551641
0.537779
0.524453
0.511621
0.499242
0.487274
0.47568
0.741717
0.737466
0.728107
0.714826
0.699374
0.682741
0.665531
0.648212
0.631101
0.614387
0.598177
0.582529
0.567462
0.55297
0.539033
0.52562
0.512698
0.500227
0.488171
0.476494
0.736423
0.73267
0.724322
0.712216
0.697816
0.682043
0.665499
0.648662
0.631876
0.615364
0.599265
0.583661
0.56859
0.554063
0.540072
0.526594
0.5136
0.501058
0.488931
0.477188
0.732349
0.72895
0.721334
0.710109
0.696519
0.681422
0.66541
0.648963
0.632445
0.616105
0.600103
0.584542
0.569475
0.554927
0.540897
0.527371
0.514324
0.501726
0.489546
0.47775
0.729383
0.726225
0.719118
0.708519
0.69552
0.680922
0.665307
0.649156
0.632844
0.616637
0.600713
0.585188
0.570128
0.555567
0.541511
0.527951
0.514866
0.502228
0.490009
0.478175
0.727446
0.724439
0.717653
0.707456
0.694842
0.680573
0.665221
0.649268
0.633096
0.61698
0.60111
0.585611
0.570558
0.55599
0.541918
0.528336
0.515226
0.502563
0.490318
0.47846
0.72649
0.723555
0.716924
0.706924
0.694499
0.680394
0.665174
0.64932
0.633218
0.617148
0.601306
0.585821
0.570772
0.5562
0.54212
0.528528
0.515406
0.502731
0.490473
0.478602
)
;

boundaryField
{
    fixedWalls
    {
        type            zeroGradient;
    }
    inlet
    {
        type            zeroGradient;
    }
    outlet
    {
        type            fixedValue;
        value           nonuniform 0();
    }
    frontAndBack
    {
        type            empty;
    }
    procBoundary0to1
    {
        type            processor;
        value           nonuniform List<scalar> 
20
(
0.454925
0.455495
0.45602
0.456508
0.45703
0.457621
0.458297
0.459065
0.459915
0.460826
0.461766
0.462701
0.463597
0.464425
0.465163
0.465794
0.466307
0.466696
0.466958
0.467089
)
;
    }
    procBoundary0to4
    {
        type            processor;
        value           nonuniform List<scalar> 
20
(
0.726489
0.723555
0.716924
0.706924
0.694499
0.680394
0.665174
0.64932
0.633218
0.617148
0.601306
0.585821
0.570772
0.5562
0.54212
0.528528
0.515406
0.502731
0.490473
0.478602
)
;
    }
}


// ************************************************************************* //
