/*--------------------------------*- C++ -*----------------------------------*\
| =========                 |                                                 |
| \\      /  F ield         | OpenFOAM: The Open Source CFD Toolbox           |
|  \\    /   O peration     | Version:                                        |
|   \\  /    A nd           | Website:  www.openfoam.com                      |
|    \\/     M anipulation  |                                                 |
\*---------------------------------------------------------------------------*/
FoamFile
{
    version     2.0;
    format      ascii;
    class       volScalarField;
    location    "110";
    object      p;
}
// * * * * * * * * * * * * * * * * * * * * * * * * * * * * * * * * * * * * * //

dimensions      [0 2 -2 0 0 0 0];


internalField   nonuniform List<scalar> 
1164
(
-0.328951
-0.331592
-0.317557
-0.278992
-0.221967
-0.158589
-0.375694
-0.404218
-0.411741
-0.386061
-0.333634
-0.26411
-0.1896
-0.120216
-0.066866
-0.0308331
-0.495441
-0.551639
-0.57801
-0.561769
-0.504792
-0.421596
-0.32602
-0.233226
-0.149184
-0.0880581
-0.622985
-0.708091
-0.756381
-0.758624
-0.713241
-0.624519
-0.505645
-0.377463
-0.264652
-0.166438
-0.66503
-0.765024
-0.829183
-0.833953
-0.793854
-0.718885
-0.611068
-0.488404
-0.376458
-0.247113
-0.593702
-0.673696
-0.724659
-0.741272
-0.714865
-0.668788
-0.583828
-0.489923
-0.415839
-0.296123
-0.423077
-0.468433
-0.501258
-0.519396
-0.513546
-0.489649
-0.441771
-0.386621
-0.328124
-0.256261
-0.314329
-0.323955
-0.32397
-0.317878
-0.305639
-0.287997
-0.265867
-0.240946
-0.215114
-0.180629
-0.280509
-0.271262
-0.256091
-0.238791
-0.221237
-0.198424
-0.179557
-0.162766
-0.14991
-0.136605
-0.270549
-0.234542
-0.20302
-0.175055
-0.15396
-0.133943
-0.11577
-0.101649
-0.0903606
-0.083226
-0.317859
-0.272015
-0.232026
-0.196319
-0.166083
-0.138895
-0.113748
-0.0941129
-0.0773908
-0.0625767
-0.324472
-0.264965
-0.210996
-0.165212
-0.130992
-0.105459
-0.0882409
-0.0781845
-0.0734298
-0.0647403
-0.297396
-0.255549
-0.215071
-0.173238
-0.13314
-0.0901336
-0.0514283
-0.0208879
-0.00115323
0.00393344
-0.263422
-0.242666
-0.218448
-0.19198
-0.161568
-0.13237
-0.104249
-0.0786383
-0.0543167
-0.0323269
-0.265989
-0.254085
-0.238231
-0.219721
-0.197691
-0.177783
-0.154562
-0.135429
-0.112967
-0.0933337
-0.23177
-0.240629
-0.249295
-0.256305
-0.262883
-0.266645
-0.266961
-0.263679
-0.253046
-0.238012
-0.232113
-0.250916
-0.26796
-0.282667
-0.29561
-0.304159
-0.309393
-0.308133
-0.300602
-0.282285
-0.251822
-0.264237
-0.274751
-0.282279
-0.289991
-0.2913
-0.291693
-0.285231
-0.279876
-0.26649
-0.266777
-0.277352
-0.28483
-0.289088
-0.290294
-0.287039
-0.280036
-0.268727
-0.256207
-0.236079
-0.210792
-0.215519
-0.219121
-0.220528
-0.220132
-0.217864
-0.214447
-0.208838
-0.199464
-0.18352
-0.16714
-0.16539
-0.163507
-0.161352
-0.158471
-0.155048
-0.151316
-0.147266
-0.140979
-0.133125
-0.195866
-0.195958
-0.195174
-0.193342
-0.190198
-0.185287
-0.178747
-0.172048
-0.166262
-0.157582
-0.223138
-0.223041
-0.221625
-0.218535
-0.213093
-0.205954
-0.196642
-0.185848
-0.175101
-0.163536
-0.193996
-0.18887
-0.182921
-0.176055
-0.168331
-0.159467
-0.15003
-0.140442
-0.129867
-0.120668
-0.140252
-0.134568
-0.128496
-0.122221
-0.115736
-0.108951
-0.102508
-0.0958045
-0.0891311
-0.0826386
-0.160014
-0.15189
-0.143717
-0.135345
-0.126869
-0.118493
-0.110677
-0.103477
-0.0969216
-0.0906068
-0.179054
-0.16722
-0.155183
-0.14297
-0.130808
-0.118987
-0.107771
-0.0971646
-0.0877088
-0.0793839
-0.14503
-0.145392
-0.145023
-0.144157
-0.143108
-0.141291
-0.138584
-0.134802
-0.130416
-0.125732
-0.0553047
-0.0679888
-0.0806635
-0.0927276
-0.103714
-0.113169
-0.120521
-0.125504
-0.129053
-0.131922
-0.0184977
-0.0223822
-0.0262793
-0.0298952
-0.033049
-0.0355917
-0.0374368
-0.0384587
-0.0388166
-0.0384121
0.00600806
0.00937201
0.0138387
0.0184849
0.0230394
0.0260353
0.0291016
0.0317354
0.0342209
0.0361323
0.0379093
0.0392403
0.0405061
0.0417084
0.0427391
0.043738
0.044658
0.0454927
0.0462436
0.0469024
0.0474715
0.0479223
0.0483076
0.0485678
0.0487723
0.0489241
0.0489877
0.0490402
-0.0392503
-0.0128199
-0.000699156
0.00837477
0.0131444
0.0163535
0.0202754
0.0237736
0.0265445
0.0291178
0.0313944
0.0336612
0.0356932
0.0374683
0.0390882
0.0404728
0.0417156
0.042891
0.0439305
0.0448493
0.0456434
0.0463261
0.0469013
0.0473737
0.0477632
0.0480386
0.0482524
0.0484091
0.0484797
0.048533
-0.091899
-0.0511447
-0.0248994
0.00136565
0.0125872
0.0170346
0.0202121
0.0241457
0.0262194
0.0286121
0.0303452
0.0323098
0.0341163
0.0360053
0.0378491
0.0394747
0.0409601
0.0422304
0.0433453
0.0443227
0.045167
0.0458796
0.0464681
0.0469332
0.0473036
0.0475663
0.0477609
0.0479026
0.0479653
0.0480119
-0.165582
-0.120805
-0.0746054
-0.0348651
-0.0134187
0.000109135
0.00893909
0.0154032
0.0201154
0.0240302
0.0271269
0.0302629
0.0327267
0.03514
0.0370798
0.0389357
0.0405877
0.0419842
0.0431723
0.0441606
0.0449627
0.0456367
0.0461731
0.0465987
0.0469261
0.0471477
0.0473037
0.0474101
0.0474481
0.0474806
-0.224183
-0.165074
-0.109645
-0.070605
-0.0422027
-0.0229846
-0.00683272
0.00342037
0.0127363
0.018274
0.0237299
0.0273465
0.0310208
0.0339729
0.0364474
0.0386007
0.0403468
0.0417699
0.0429764
0.0439497
0.0447661
0.0454084
0.0459026
0.0462739
0.0465451
0.0467219
0.0468336
0.046904
0.046918
0.0469359
-0.198081
-0.143943
-0.0996425
-0.0639691
-0.0420059
-0.022616
-0.0119182
0.00232715
0.0068836
0.016128
0.0214677
0.0261478
0.0301722
0.033141
0.0357448
0.0380602
0.0398997
0.0414747
0.0426569
0.0436322
0.0443912
0.0450016
0.0454619
0.0458117
0.0460645
0.0462206
0.0463089
0.0463599
0.0463609
0.0463699
-0.137052
-0.100124
-0.0719562
-0.0471617
-0.0335157
-0.0175518
-0.00876021
0.000967768
0.00786445
0.0161926
0.0214169
0.0265283
0.0307214
0.0337222
0.0363917
0.038326
0.040022
0.041387
0.0425268
0.0434473
0.044163
0.0447065
0.0451
0.0453854
0.0455822
0.0457016
0.0457609
0.0457899
0.0457781
0.0457773
-0.110348
-0.0880311
-0.0676659
-0.0481195
-0.0345744
-0.0210112
-0.0130374
-0.000416157
0.00778669
0.0185462
0.0229408
0.0287755
0.0318203
0.0346335
0.0369932
0.0389211
0.0405203
0.0417519
0.0427129
0.0434659
0.0440624
0.0445159
0.0448454
0.0450604
0.0451897
0.0452423
0.045243
0.0452248
0.0451803
0.0451608
-0.069699
-0.0585832
-0.0482155
-0.0372986
-0.0296124
-0.0203401
-0.0100723
0.00247851
0.0124943
0.0219142
0.027834
0.0331476
0.0359619
0.0381582
0.0396245
0.04088
0.0419048
0.0427899
0.043495
0.0440225
0.0443966
0.0446436
0.0447888
0.0448615
0.0448681
0.0448246
0.0447458
0.0446604
0.0445698
0.0445238
-0.0502844
-0.040891
-0.0333114
-0.0252284
-0.0171468
-0.00626587
0.0067726
0.016315
0.0244443
0.0299001
0.0338258
0.0366517
0.0391019
0.0401371
0.0416561
0.0426166
0.0432493
0.0436792
0.0440083
0.0442729
0.0444804
0.0445946
0.0446355
0.0445949
0.0445004
0.0443657
0.044207
0.0440591
0.0439264
0.043856
-0.046605
-0.0344914
-0.0265642
-0.0177353
-0.00427654
0.00942541
0.0225283
0.0324588
0.0385614
0.0424484
0.044395
0.0452894
0.0450337
0.0448223
0.0446372
0.0446684
0.0447343
0.0448011
0.0447817
0.0447284
0.0446194
0.0445053
0.0443644
0.0442051
0.0440205
0.0438114
0.0435959
0.0433992
0.043234
0.0431439
0.010822
0.014981
0.0140082
0.00653371
0.00178851
0.00581412
0.0227291
0.0396313
0.0496646
0.0516403
0.0520401
0.051054
0.0505161
0.0493159
0.0481685
0.0471346
0.0463789
0.0457602
0.0453919
0.0450728
0.0448188
0.0445337
0.0442411
0.0439236
0.0435964
0.0432733
0.0429648
0.0426996
0.0424903
0.0423744
-0.011244
0.000307262
0.00569259
0.00468104
0.00338383
0.0130765
0.0429582
0.0615403
0.0675734
0.0661095
0.0625153
0.0578942
0.0544691
0.0518172
0.0500011
0.0488382
0.0478092
0.0469541
0.0461977
0.0455716
0.0450278
0.0445563
0.0441105
0.0436609
0.0432136
0.0427631
0.0423443
0.0419854
0.0417076
0.0415549
-0.0691661
-0.0491672
-0.0402514
-0.0342079
-0.0212131
0.0063346
0.041963
0.0697243
0.0784459
0.0779049
0.0728222
0.0667802
0.0610578
0.0561657
0.0527183
0.0503418
0.0487932
0.0477062
0.0469343
0.0461681
0.0454628
0.0447525
0.0440673
0.0434138
0.042782
0.0421924
0.0416589
0.0412059
0.0408648
0.0406763
-0.212383
-0.187381
-0.167262
-0.139633
-0.100551
-0.0544641
-0.00813827
0.0260081
0.0438976
0.0530135
0.0554558
0.0563166
0.0550486
0.0536147
0.0515674
0.049965
0.0483676
0.047373
0.046515
0.0458036
0.0451225
0.0444174
0.0436966
0.0429387
0.042198
0.0414915
0.0408532
0.040321
0.0399242
0.0397058
-0.265904
-0.255213
-0.235375
-0.206529
-0.166275
-0.117196
-0.0675605
-0.0267526
0.00319041
0.0196221
0.0314237
0.0376747
0.0434618
0.0459024
0.0477493
0.0483046
0.0483245
0.0478546
0.0471136
0.0462517
0.0453002
0.0443225
0.0433601
0.042432
0.041536
0.0406964
0.0399534
0.0393342
0.038876
0.0386246
-0.245863
-0.222465
-0.195795
-0.165624
-0.133453
-0.0985485
-0.0672976
-0.0386091
-0.011515
0.000918137
0.0189045
0.0282982
0.0368143
0.0408288
0.0442254
0.0459148
0.0468766
0.0470956
0.0468917
0.0462625
0.045398
0.0443227
0.0431899
0.0420353
0.0409213
0.0399014
0.0389995
0.0382609
0.0377193
0.037424
-0.210805
-0.183606
-0.153753
-0.121474
-0.0897461
-0.0595277
-0.0320052
-0.00929428
0.00642147
0.0209661
0.027565
0.0371307
0.0409105
0.0452524
0.0472194
0.048467
0.0485899
0.0482435
0.0473998
0.0464006
0.0452081
0.0439713
0.0426676
0.0413555
0.0401013
0.038929
0.0378974
0.0370558
0.0364365
0.0361011
-0.16258
-0.142556
-0.120575
-0.0949429
-0.0663561
-0.0402537
-0.0145834
0.00998438
0.0257442
0.04094
0.0473959
0.0525954
0.0529192
0.0538352
0.0535151
0.0528782
0.0520571
0.0507225
0.0491803
0.0474229
0.0456452
0.0438754
0.0421554
0.0405522
0.0390539
0.0377132
0.0365606
0.0356303
0.0349551
0.0345907
-0.125097
-0.114635
-0.102105
-0.087686
-0.0687
-0.0475849
-0.0268886
-0.00416757
0.0152062
0.0319513
0.045442
0.0516246
0.0546617
0.0556754
0.0544869
0.0536736
0.0520686
0.0506741
0.0489516
0.0471421
0.0452423
0.0432893
0.0413939
0.0395537
0.0378547
0.0363432
0.0350444
0.0340077
0.033259
0.032857
-0.144567
-0.131606
-0.119052
-0.105157
-0.0887658
-0.0670509
-0.0413457
-0.0122255
0.0182745
0.0421679
0.0575185
0.062254
0.0634094
0.0626479
0.0604709
0.0578322
0.0550474
0.052426
0.0498696
0.0473823
0.0449376
0.0426189
0.04038
0.038299
0.0364096
0.0347307
0.0333096
0.0321766
0.0313635
0.0309275
-0.150981
-0.139215
-0.126949
-0.112362
-0.0951761
-0.0741624
-0.0479287
-0.0195589
0.0120908
0.0397462
0.0584689
0.0648091
0.0662191
0.0643233
0.0616835
0.0586995
0.0556897
0.0527395
0.04985
0.0469458
0.0441728
0.0414528
0.0389233
0.0366136
0.0345262
0.0327214
0.0312049
0.0300118
0.0291643
0.0287116
-0.112945
-0.10336
-0.0905771
-0.0760956
-0.0593287
-0.0402625
-0.0192787
0.000659178
0.0187015
0.0325891
0.043034
0.0490137
0.05294
0.0544002
0.0545253
0.0539563
0.0525751
0.0505856
0.0479631
0.0452262
0.0423007
0.0394821
0.0368424
0.034375
0.0321978
0.0303077
0.028731
0.0275012
0.0266279
0.0261648
-0.0751977
-0.0678159
-0.0605928
-0.0534803
-0.0461975
-0.037999
-0.0277225
-0.01445
0.000861862
0.0179206
0.0334979
0.0438633
0.0523482
0.0555784
0.0570232
0.0559744
0.0540527
0.0508997
0.0476542
0.0441107
0.0406404
0.0374448
0.0344369
0.0317839
0.0294713
0.0274975
0.0258882
0.0246398
0.0237659
0.0233037
-0.0828452
-0.0730578
-0.0616229
-0.0492913
-0.0363968
-0.0233107
-0.0104623
0.00222208
0.0144834
0.0290355
0.0410252
0.0486065
0.0445813
0.057925
0.054705
0.0540347
0.0511648
0.0482377
0.0447347
0.0409743
0.0374564
0.0340648
0.0310068
0.0283384
0.0260157
0.0240875
0.0225197
0.0213209
0.0204892
0.0200505
-0.0720921
-0.0636158
-0.052434
-0.0382368
-0.0222802
-0.00510617
0.0128147
0.0299951
0.0477624
0.0662709
0.075687
0.0821628
0.0818887
0.0787606
0.071676
0.0640075
0.0559436
0.0493975
0.0432058
0.0382165
0.0337404
0.0299183
0.0267552
0.0240589
0.0218432
0.0200367
0.0185947
0.0175106
0.0167594
0.0163674
-0.119385
-0.111161
-0.100968
-0.0876051
-0.0708523
-0.050968
-0.0268586
0.00140543
0.0319806
0.0643929
0.0847541
0.0919547
0.0945404
0.0810538
0.0726961
0.0631746
0.0545248
0.0464499
0.0393674
0.0335654
0.0286268
0.024724
0.0215365
0.0189805
0.0169626
0.0153581
0.0141223
0.0132059
0.0125824
0.0122603
-0.131667
-0.131011
-0.127477
-0.121608
-0.113201
-0.102299
-0.0888576
-0.0716021
-0.0499139
-0.0228575
0.00458693
0.0220581
0.0343812
0.038105
0.038861
0.0370978
0.0343601
0.0304727
0.0264707
0.0225705
0.0191719
0.0164037
0.0141328
0.0123469
0.0109231
0.00980832
0.00895464
0.00832583
0.00790304
0.00768528
-0.0374378
-0.0359796
-0.0334508
-0.0297712
-0.0253449
-0.0205594
-0.0159916
-0.0120535
-0.00954076
-0.00876742
-0.00855935
-0.00818235
-0.00446406
0.000109948
0.00429721
0.00724391
0.00864714
0.00888681
0.00840917
0.00752548
0.00659154
0.00569588
0.00492532
0.00429882
0.00378934
0.00339247
0.00308524
0.00286098
0.00270919
0.00263164
)
;

boundaryField
{
    outlet
    {
        type            fixedValue;
        value           uniform 0;
    }
    upperWall
    {
        type            symmetryPlane;
    }
    lowerWall
    {
        type            symmetryPlane;
    }
    inlet
    {
        type            zeroGradient;
    }
    cylinder
    {
        type            zeroGradient;
    }
    frontAndBack
    {
        type            empty;
    }
    procBoundary3to2
    {
        type            processor;
        value           nonuniform List<scalar> 
43
(
-0.335499
-0.315888
-0.281177
-0.231675
-0.175604
-0.121867
-0.101889
-0.101889
-0.0549703
-0.022935
-0.0049611
-0.0058146
0.00702539
0.010382
0.01739
0.0231966
0.0276984
0.0312427
0.0338929
0.0358834
0.0375818
0.0388054
0.0399785
0.0410641
0.041951
0.0429106
0.0436682
0.0445583
0.0453905
0.0461677
0.0468671
0.0474841
0.0480171
0.0484522
0.0488222
0.0490671
0.0492689
0.0494185
0.0494772
0.0495296
-0.0058146
0.00243441
0.00243441
)
;
    }
    procBoundary3to7
    {
        type            processor;
        value           nonuniform List<scalar> 
30
(
-0.313751
-0.336274
-0.421824
-0.514955
-0.535357
-0.494392
-0.368858
-0.299521
-0.291514
-0.309145
-0.367276
-0.384837
-0.336909
-0.281073
-0.274472
-0.222015
-0.212117
-0.236647
-0.252781
-0.204836
-0.168205
-0.195196
-0.222854
-0.198473
-0.145405
-0.168062
-0.190844
-0.14369
-0.043076
-0.0148766
)
;
    }
}


// ************************************************************************* //
