/*--------------------------------*- C++ -*----------------------------------*\
| =========                 |                                                 |
| \\      /  F ield         | OpenFOAM: The Open Source CFD Toolbox           |
|  \\    /   O peration     | Version:                                        |
|   \\  /    A nd           | Website:  www.openfoam.com                      |
|    \\/     M anipulation  |                                                 |
\*---------------------------------------------------------------------------*/
FoamFile
{
    version     2.0;
    format      ascii;
    class       surfaceScalarField;
    location    "87";
    object      phi;
}
// * * * * * * * * * * * * * * * * * * * * * * * * * * * * * * * * * * * * * //

dimensions      [0 3 -1 0 0 0 0];
oriented        oriented;


internalField   nonuniform List<scalar> 
2257
(
-0.0740267
0.0315112
-0.0732905
0.0345983
-0.0694209
0.0393314
-0.0626744
0.0453396
-0.0528157
0.0517734
0.057914
-0.0882608
0.0345579
-0.089007
0.0353445
-0.0867202
0.0370445
-0.0813876
0.040007
-0.0726008
0.0429866
-0.06174
0.0470532
-0.049478
0.0508163
-0.0374134
0.0534699
-0.0239489
0.0564321
0.0545273
-0.0926002
0.0350947
-0.0913645
0.0341089
-0.0881613
0.0338413
-0.0837058
0.0355515
-0.0776597
0.0369405
-0.0702612
0.0396547
-0.0610172
0.0415723
-0.0507091
0.0431618
-0.038531
0.0442539
0.0435131
-0.0275168
-0.0940557
0.0314681
-0.0896058
0.029659
-0.0850124
0.0292479
-0.0801411
0.0306802
-0.0754835
0.0322829
-0.0704404
0.0346116
-0.0649888
0.0361207
-0.059046
0.037219
-0.0520574
0.0372653
0.0357539
-0.0442982
-0.0863419
0.0257975
-0.0802796
0.0235967
-0.0744432
0.0234115
-0.0682881
0.024525
-0.0623961
0.026391
-0.0570144
0.0292299
-0.0525093
0.0316156
-0.0488959
0.0336056
-0.0467718
0.0351413
0.0344526
-0.0454705
-0.0788357
0.0221811
-0.0748082
0.0195692
-0.0700204
0.0186238
-0.0650313
0.0195358
-0.0593007
0.0206604
-0.0530441
0.0229732
-0.0462633
0.0248348
-0.0395419
0.0268843
-0.0336944
0.0292937
0.0304679
-0.0297097
-0.0251852
0.0218948
-0.0258078
0.0201918
-0.0278176
0.0206337
-0.0304648
0.022183
-0.0328941
0.0230897
-0.0349988
0.025078
-0.0355322
0.0253682
-0.034552
0.025904
-0.0309866
0.0257283
0.025315
-0.0258337
0.018891
0.0277376
0.0120931
0.0269897
0.00483789
0.0278889
-0.00170591
0.0287268
-0.00892749
0.0303113
-0.016164
0.0323144
-0.0231723
0.0323765
-0.0300666
0.0327984
-0.0347146
0.0303763
0.0274205
-0.03682
0.0673258
0.0326594
0.0606704
0.0336451
0.0530323
0.035527
0.044451
0.0373081
0.0349982
0.039764
0.0263235
0.0409891
0.0163134
0.0423867
0.00629201
0.0428197
-0.00479427
0.0414625
0.0381143
-0.015488
0.0912268
0.0344856
0.0896697
0.0352022
0.087626
0.0375707
0.0849632
0.0399709
0.0809005
0.0438267
0.0747218
0.0471678
0.065914
0.0511945
0.0564305
0.0523032
0.0438341
0.0540589
0.0511509
0.0307974
0.105452
0.0328178
0.10744
0.0332145
0.108264
0.036746
0.109458
0.0387775
0.109041
0.0442438
0.107907
0.0483017
0.104621
0.0544797
0.0985299
0.0583948
0.0896643
0.0629245
0.0636363
0.0771789
0.114868
0.030641
0.116118
0.0319646
0.117272
0.0355918
0.118487
0.0375621
0.119855
0.0428759
0.122108
0.0460492
0.123257
0.05333
0.123437
0.0582147
0.122708
0.0636539
0.0673855
0.118959
0.0585354
0.0317207
0.0579361
0.0325639
0.0584904
0.0350375
0.0588992
0.0371534
0.060734
0.0410411
0.0624625
0.0443208
0.0663318
0.0494607
0.071713
0.0528334
0.0768441
0.0585229
0.0616552
0.0825744
0.00743582
0.0368204
0.00200458
0.0379951
-0.00272498
0.039767
-0.00779945
0.0422278
-0.0115335
0.0447751
-0.0150691
0.0478564
-0.0162502
0.0506419
-0.0169155
0.0534987
-0.0140784
0.0556858
0.0579395
-0.0103627
-0.0553903
0.0388401
-0.0576627
0.0402675
-0.058929
0.0410334
-0.06007
0.0433687
-0.0600225
0.0447277
-0.0597631
0.047597
-0.0583794
0.0492581
-0.0565697
0.051689
-0.053574
0.05269
0.0544823
-0.0501167
-0.0997674
0.0383739
-0.0991557
0.0396558
-0.0980776
0.0399553
-0.0963101
0.0416013
-0.0937477
0.0421652
-0.0899281
0.0437774
-0.0849878
0.0443178
-0.0787555
0.0454567
-0.0717914
0.0457259
0.0466496
-0.0639587
-0.120737
0.0375839
-0.119077
0.0379958
-0.117167
0.0380453
-0.114537
0.0389715
-0.111655
0.0392826
-0.10785
0.0399728
-0.10342
0.0398876
-0.097918
0.0399547
-0.0918502
0.0396581
0.0400239
-0.0852244
-0.118767
0.0401935
-0.120756
0.039984
-0.122173
0.0394632
-0.122738
0.0395363
-0.122575
0.0391193
-0.121673
0.0390707
-0.120426
0.0386408
-0.11876
0.0382889
-0.116949
0.0378472
0.0377552
-0.114681
-0.0299748
0.0437927
-0.0332021
0.0432113
-0.0362974
0.0425585
-0.0390787
0.0423176
-0.0415878
0.0416283
-0.043752
0.0412349
-0.0457542
0.040643
-0.0477107
0.0402454
-0.050034
0.0401705
0.0395695
-0.0518484
0.0424554
0.0466902
0.0401091
0.0455576
0.0379725
0.0446951
0.0365385
0.0437516
0.0351327
0.0430341
0.0340106
0.042357
0.032555
0.0420986
0.0307671
0.0420334
0.0288691
0.0420684
0.0417013
0.0267374
0.131116
0.0470452
0.130188
0.0464858
0.128348
0.0465343
0.126019
0.0460806
0.122748
0.0463054
0.119221
0.0458845
0.115129
0.04619
0.111143
0.0460197
0.107016
0.0461957
0.0460785
0.102638
0.167414
0.0480373
0.165734
0.0481663
0.163773
0.0484954
0.161589
0.0482648
0.159495
0.048399
0.157402
0.0479779
0.155325
0.0482666
0.153198
0.0481473
0.150498
0.0488951
0.0492401
0.147337
0.0612995
0.0504848
0.0586984
0.0507673
0.0562731
0.0509207
0.0537002
0.0508376
0.0513763
0.0507229
0.0488359
0.0505184
0.0465975
0.0505049
0.0442357
0.0505091
0.0422706
0.0508601
0.0513791
0.0401317
-0.0299089
0.0528571
-0.0325927
0.0534511
-0.0354421
0.0537701
-0.0386824
0.0540779
-0.0420302
0.0540707
-0.0456112
0.0540994
-0.0488887
0.0537825
-0.0519148
0.0535352
-0.0540115
0.0529569
0.0526042
-0.0552366
-0.155639
0.0517024
-0.154115
0.0519272
-0.152125
0.05178
-0.149873
0.0518263
-0.147264
0.051462
-0.144414
0.0512491
-0.141099
0.0504673
-0.13747
0.049906
-0.133411
0.0488984
0.0481168
-0.128924
-0.203639
0.0506846
-0.202112
0.0504005
-0.20019
0.0498578
-0.197784
0.049421
-0.194998
0.048676
-0.191838
0.0480884
-0.188571
0.047201
-0.185156
0.0464904
-0.181855
0.0455975
0.0447993
-0.178537
0.0345559
0.0484271
0.0368082
0.0481482
0.0388142
0.0478518
0.0407876
0.0474476
0.0424845
0.0469791
0.0440877
0.0464852
0.0453085
0.0459802
0.0463264
0.0454725
0.0468957
0.0450282
0.0446821
0.047013
0.180819
0.0458389
0.183501
0.0454657
0.186179
0.0451739
0.188895
0.0447314
0.19153
0.0443441
0.194125
0.0438905
0.196562
0.0435438
0.198833
0.0432008
0.200907
0.0429545
0.0427737
0.202815
0.0485043
0.0434219
0.0508301
0.0431398
0.0530987
0.0429053
0.0551724
0.0426577
0.057043
0.0424735
0.0586327
0.0423008
0.0599822
0.0421944
0.0610664
0.0421166
0.061895
0.0421259
0.0422225
0.0624462
-0.0245309
-0.0226607
-0.0209382
-0.0194222
-0.0180939
-0.0170076
-0.0161492
-0.0155694
-0.015257
-0.0152374
-0.00957393
0.0687546
-0.00674987
0.070751
-0.0036983
0.0736731
-0.00109613
0.0778162
4.08645e-05
0.0815407
0.00132867
0.0852022
0.0012747
0.0900033
0.00146013
0.094492
0.00145736
0.0996414
0.00150048
0.105354
0.00164027
0.111632
0.00168147
0.118676
0.00164506
0.126347
0.001475
0.134681
0.00125274
0.143645
0.000990325
0.153314
0.00076636
0.163687
0.000592691
0.174833
0.000473196
0.186781
0.000388038
0.199584
0.00031844
0.2133
0.000264069
0.227972
0.000225701
0.243666
0.000195992
0.260459
0.000163453
0.278426
0.000119645
0.297652
6.42659e-05
0.318233
0.340268
-0.0218525
0.057523
-0.0174592
0.0607592
-0.0151547
0.0664501
-0.0124145
0.0680108
-0.0127712
0.0740298
-0.0100582
0.0751033
-0.00888252
0.080365
-0.00661834
0.082938
-0.0049745
0.0883594
-0.00341768
0.0929351
-0.00244713
0.0986708
-0.00175822
0.104665
-0.00139868
0.111272
-0.00113913
0.118416
-0.000968543
0.126177
-0.000783909
0.134497
-0.000602139
0.143463
-0.000381762
0.153093
-0.000169395
0.163475
2.04333e-06
0.174662
0.000122736
0.186661
0.000198891
0.199508
0.000247231
0.213251
0.000265105
0.227954
0.000250696
0.24368
0.000213186
0.260496
0.000165017
0.278474
0.000113291
0.297703
5.88885e-05
0.318288
0.340327
-0.0375649
0.0507897
-0.0305824
0.0537767
-0.0235074
0.0593751
-0.0165675
0.0610709
-0.0130989
0.0705612
-0.00811059
0.070115
-0.00629206
0.0785465
-0.00489548
0.0815414
-0.00327674
0.0867407
-0.00212931
0.0917877
-0.0010531
0.0975946
-0.000164898
0.103777
0.000499002
0.110608
0.000923637
0.117991
0.00118263
0.125918
0.00127879
0.134401
0.00125422
0.143488
0.00112778
0.15322
0.000939829
0.163663
0.000756341
0.174846
0.000600332
0.186817
0.000475804
0.199632
0.000375857
0.213351
0.000304002
0.228026
0.000257412
0.243727
0.000223747
0.26053
0.000185493
0.278513
0.000134123
0.297755
7.1296e-05
0.318351
0.340398
-0.0422571
0.0475764
-0.0389768
0.0504964
-0.0359054
0.0563036
-0.0317339
0.0568994
-0.0256161
0.0644434
-0.0199613
0.0644602
-0.0145073
0.0730925
-0.0107985
0.0778326
-0.00807925
0.0840215
-0.00629573
0.0900042
-0.00493769
0.0962366
-0.00395042
0.102789
-0.00302237
0.10968
-0.00226837
0.117237
-0.00166277
0.125312
-0.00124932
0.133987
-0.000933877
0.143173
-0.00067115
0.152957
-0.000416729
0.163409
-0.000193868
0.174623
-1.57733e-05
0.186638
0.000114631
0.199502
0.000203652
0.213262
0.00024525
0.227985
0.000241697
0.24373
0.000210051
0.260562
0.000165851
0.278557
0.000117078
0.297803
6.22638e-05
0.318405
0.34046
-0.023292
0.0411587
-0.0178566
0.045061
-0.0147147
0.0531617
-0.0141545
0.0563392
-0.013252
0.0635409
-0.0132033
0.0644116
-0.0112738
0.071163
-0.00908243
0.0756412
-0.00628999
0.081229
-0.00390957
0.0876238
-0.00219382
0.0945208
-0.000904965
0.1015
-0.00027487
0.10905
0.000163154
0.116799
0.000425748
0.125049
0.000658603
0.133754
0.000811003
0.14302
0.000866334
0.152902
0.000821696
0.163453
0.000719328
0.174725
0.000597707
0.18676
0.000480289
0.199619
0.000380621
0.213362
0.000311821
0.228053
0.000271739
0.24377
0.00024072
0.260593
0.000199451
0.278598
0.000142972
0.29786
7.52322e-05
0.318473
0.340536
-0.0196742
0.0349991
-0.0132533
0.0386401
-0.00664184
0.0465503
-0.00362097
0.0533184
-0.00211615
0.0620361
-0.00266324
0.0649586
-0.00297706
0.0714768
-0.00361295
0.0762771
-0.00416608
0.0817821
-0.0043525
0.0878102
-0.00403467
0.094203
-0.00361616
0.101082
-0.00283178
0.108266
-0.00205985
0.116027
-0.00139326
0.124383
-0.000931021
0.133292
-0.000656235
0.142745
-0.000476399
0.152722
-0.00032913
0.163306
-0.000187266
0.174583
-4.58362e-05
0.186619
8.17622e-05
0.199492
0.000177384
0.213266
0.00022317
0.228008
0.000223021
0.24377
0.000196674
0.260619
0.000160655
0.278634
0.000117835
0.297903
6.46e-05
0.318526
0.3406
-0.0346664
0.0328455
-0.0313563
0.03533
-0.0261874
0.0413814
-0.0215546
0.0486856
-0.0167121
0.0571935
-0.0132673
0.0615139
-0.00881506
0.0670246
-0.0052032
0.0726652
-0.00253899
0.0791179
-0.000799857
0.0860711
0.000326223
0.0930769
0.00082125
0.100587
0.000871579
0.108215
0.000648783
0.11625
0.000463463
0.124568
0.000347797
0.133408
0.000357421
0.142736
0.000413938
0.152665
0.00045892
0.163261
0.000471925
0.17457
0.000434077
0.186657
0.000369887
0.199556
0.000309884
0.213326
0.000275063
0.228042
0.000259952
0.243786
0.00024067
0.260638
0.00020137
0.278673
0.000143707
0.29796
7.49965e-05
0.318595
0.340675
-0.0187924
0.0361499
-0.021387
0.0379246
-0.0220098
0.0420042
-0.0211487
0.0478244
-0.0182992
0.0543441
-0.0149279
0.0581425
-0.012025
0.0641217
-0.00988421
0.0705244
-0.00775806
0.0769918
-0.00577247
0.0840855
-0.00433127
0.0916357
-0.00302715
0.0992828
-0.00216146
0.10735
-0.0013398
0.115428
-0.000779842
0.124008
-0.000339597
0.132968
-9.26435e-05
0.142489
3.6074e-06
0.152569
2.18004e-05
0.163243
2.86914e-05
0.174563
7.70157e-05
0.186608
0.000153917
0.199479
0.000216562
0.213264
0.000239475
0.228019
0.000227471
0.243798
0.000200989
0.260665
0.000170199
0.278704
0.00012933
0.298001
7.24103e-05
0.318652
0.340748
0.0262814
0.0406659
0.0200875
0.0441186
0.014787
0.0473047
0.0107945
0.0518168
0.0112569
0.0538817
0.014479
0.0549205
0.0159971
0.0626036
0.0146799
0.0718415
0.0115833
0.0800884
0.00891131
0.0867575
0.00679316
0.0937539
0.00499617
0.10108
0.00373603
0.10861
0.00249254
0.116672
0.00154565
0.124955
0.00078474
0.133728
0.00031893
0.142955
0.000118791
0.152769
0.00010738
0.163254
0.000164155
0.174507
0.000200591
0.186572
0.000206624
0.199473
0.000215504
0.213255
0.00023997
0.227995
0.000261089
0.243776
0.000254801
0.260671
0.000215428
0.278744
0.000153361
0.298063
7.99632e-05
0.318725
0.340828
0.0693646
0.0484802
0.059082
0.0544012
0.0467017
0.0596849
0.0341257
0.0643928
0.0229626
0.0650448
0.0138419
0.0640412
0.00861706
0.0678285
0.00543151
0.0750271
0.00402623
0.0814936
0.00273387
0.0880498
0.00162538
0.0948624
0.000778028
0.101927
0.000108377
0.10928
-7.35935e-05
0.116854
-0.000104021
0.124985
4.80755e-05
0.133576
0.000231588
0.142771
0.000322064
0.152679
0.000323407
0.163253
0.000292475
0.174537
0.000300351
0.186564
0.000333763
0.19944
0.000347234
0.213241
0.000326824
0.228015
0.000291195
0.243812
0.000257039
0.260705
0.000221162
0.278779
0.000169087
0.298115
9.42172e-05
0.3188
0.340922
0.114289
0.0531507
0.107453
0.0612365
0.0981603
0.0689778
0.0863442
0.076209
0.0695429
0.0818461
0.0497608
0.0838233
0.032318
0.0852713
0.0212263
0.0861187
0.014863
0.087857
0.0105845
0.0923283
0.00745871
0.0979881
0.00518198
0.104204
0.00345643
0.111005
0.00221446
0.118096
0.00129328
0.125907
0.000650642
0.134219
0.000143419
0.143278
-8.34025e-05
0.152906
-0.000132914
0.163302
-6.87652e-05
0.174473
4.78001e-06
0.18649
8.04179e-05
0.199364
0.000172204
0.213149
0.00026224
0.227925
0.000313159
0.243761
0.000308901
0.26071
0.000260087
0.278828
0.000185265
0.29819
9.73472e-05
0.318888
0.341019
0.0782853
0.0574397
0.0733833
0.0661385
0.0673212
0.0750399
0.0595199
0.0840103
0.0512027
0.0901633
0.0413833
0.0936426
0.0328573
0.0937974
0.0253764
0.0935997
0.0179482
0.0952852
0.0123353
0.0979413
0.00831954
0.102004
0.00536279
0.107161
0.00360944
0.112758
0.00214398
0.119561
0.00127323
0.126777
0.000631943
0.13486
0.000449108
0.143461
0.000393697
0.152961
0.000441225
0.163255
0.000500711
0.174414
0.000564386
0.186427
0.000590347
0.199338
0.000559977
0.21318
0.000497816
0.227988
0.000439126
0.24382
0.000390793
0.260758
0.000333544
0.278885
0.000249691
0.298274
0.000135889
0.319002
0.341155
-0.0161692
0.0632462
-0.0200302
0.0699995
-0.0219856
0.0769953
-0.0209382
0.082963
-0.0171924
0.0864174
-0.0130701
0.0895203
-0.00842883
0.0891561
-0.00704085
0.0922117
-0.00564791
0.0938922
-0.00556068
0.0978541
-0.00567358
0.102117
-0.00567574
0.107163
-0.00537487
0.112458
-0.00434287
0.118529
-0.00327486
0.125709
-0.00214423
0.13373
-0.00137742
0.142694
-0.000820541
0.152404
-0.000471228
0.162906
-0.000235474
0.174178
-4.88906e-05
0.18624
0.000135029
0.199154
0.000314304
0.213001
0.000444519
0.227857
0.000490406
0.243774
0.000457731
0.260791
0.000376831
0.278966
0.000269095
0.298382
0.000142941
0.319128
0.341298
-0.0486622
0.0617917
-0.0452916
0.0666289
-0.0408541
0.0725578
-0.0334352
0.0755441
-0.0274846
0.0804669
-0.0197396
0.0817752
-0.0143021
0.0837186
-0.00931418
0.0872238
-0.00472035
0.0892984
-0.00116693
0.0943007
0.00105707
0.0998927
0.00314883
0.105071
0.00349062
0.112116
0.00309823
0.118922
0.00229818
0.126509
0.00149018
0.134538
0.000964898
0.14322
0.000734696
0.152634
0.000742135
0.162898
0.000855598
0.174065
0.000932142
0.186164
0.000927724
0.199158
0.000854123
0.213074
0.000765549
0.227946
0.000692914
0.243847
0.00062178
0.260862
0.000520806
0.279067
0.000378583
0.298524
0.000200993
0.319306
0.341499
-0.0575494
0.0553823
-0.0506911
0.0597706
-0.0434565
0.0653233
-0.0358144
0.067902
-0.0305383
0.0751907
-0.025039
0.076276
-0.0236906
0.0823702
-0.0215125
0.0850458
-0.0232476
0.0910334
-0.0212631
0.0923162
-0.0199054
0.0985349
-0.0179876
0.103153
-0.0150114
0.10914
-0.0116751
0.115586
-0.0084459
0.12328
-0.00566084
0.131753
-0.00345646
0.141015
-0.00190114
0.151079
-0.000892728
0.16189
-0.000276742
0.173449
0.000161109
0.185726
0.000489838
0.19883
0.000717014
0.212847
0.000819384
0.227844
0.000801961
0.243864
0.000704654
0.260959
0.000568207
0.279204
0.000406548
0.298686
0.000216834
0.319495
0.341716
-0.0796447
0.0498026
-0.0739102
0.0540362
-0.0673654
0.0587785
-0.061266
0.0618026
-0.0539627
0.0678874
-0.0462857
0.068599
-0.0379097
0.0739941
-0.0283493
0.0754854
-0.0216703
0.0843545
-0.014207
0.084853
-0.00800771
0.0923356
-0.0039802
0.0991258
-0.000963523
0.106123
0.000405021
0.114217
0.00125843
0.122427
0.00161711
0.131394
0.00164844
0.140984
0.00157851
0.151149
0.00150696
0.161961
0.00147344
0.173482
0.00139594
0.185803
0.00128191
0.198944
0.00117091
0.212958
0.00108767
0.227927
0.00101486
0.243937
0.000909025
0.261065
0.000745398
0.279367
0.000528368
0.298903
0.00027561
0.319748
0.341992
-0.110188
0.0453097
-0.105812
0.0496608
-0.101545
0.0545116
-0.0978198
0.0580769
-0.092792
0.0628596
-0.0870698
0.0628767
-0.0781492
0.0650736
-0.0670093
0.0643454
-0.0519934
0.0693385
-0.0392577
0.0721172
-0.0275251
0.0806031
-0.0184039
0.0900046
-0.0124571
0.100176
-0.00791136
0.109671
-0.00511272
0.119628
-0.00325078
0.129532
-0.00179756
0.139531
-0.000676568
0.150028
0.00018409
0.161101
0.000774208
0.172892
0.00118016
0.185397
0.00141887
0.198705
0.0014848
0.212892
0.00140882
0.228003
0.00124582
0.2441
0.00104949
0.261261
0.000836348
0.279581
0.000596934
0.299142
0.000318002
0.320027
0.34231
-0.0469392
0.0404004
-0.041391
0.0441126
-0.0355772
0.0486978
-0.0295436
0.0520434
-0.0231349
0.0564509
-0.0177961
0.057538
-0.0128704
0.0601478
-0.00845301
0.0599281
-0.00338589
0.0642714
-0.00136307
0.0700944
-0.00151064
0.0807507
-0.00241958
0.0909135
-0.00244573
0.100202
-0.0018381
0.109064
-0.000786228
0.118576
0.000452372
0.128293
0.00120867
0.138774
0.00162624
0.14961
0.0017176
0.161009
0.00167442
0.172935
0.00158704
0.185485
0.00151788
0.198774
0.00149597
0.212914
0.00147683
0.228022
0.00140095
0.244176
0.00123503
0.261427
0.000988291
0.279827
0.000687754
0.299443
0.00035605
0.320359
0.342666
0.0313892
0.0357487
0.0368072
0.0386946
0.0436341
0.0418709
0.0508871
0.0447903
0.0586954
0.0486426
0.0647301
0.0515033
0.0684585
0.0564194
0.0677146
0.060672
0.0632154
0.0687706
0.0546625
0.0786473
0.0454236
0.0899895
0.0369812
0.0993559
0.0297031
0.10748
0.0226693
0.116097
0.0171495
0.124096
0.0124278
0.133015
0.00906577
0.142136
0.00662058
0.152056
0.00505416
0.162576
0.00408517
0.173904
0.00344244
0.186127
0.00295135
0.199265
0.00251011
0.213355
0.00211136
0.228421
0.00176861
0.244518
0.00146558
0.26173
0.00116261
0.28013
0.000822901
0.299782
0.00043378
0.320748
0.343099
0.101386
0.037001
0.0998022
0.0402783
0.0973307
0.0443423
0.092847
0.0492741
0.0862736
0.055216
0.0766176
0.0611593
0.0643814
0.0686555
0.049218
0.0758355
0.033555
0.0844336
0.0190682
0.0931341
0.00953255
0.0995252
0.00269179
0.106197
-0.00112994
0.111302
-0.00246385
0.117431
-0.00289133
0.124524
-0.00237461
0.132498
-0.00144566
0.141207
-0.000356668
0.150967
0.00055995
0.161659
0.00119302
0.173271
0.00162663
0.185694
0.00191027
0.198982
0.00206027
0.213205
0.00205963
0.228421
0.00190012
0.244678
0.00161946
0.262011
0.00126701
0.280483
0.000876828
0.300173
0.000454781
0.32117
0.343554
0.141611
0.0427262
0.134384
0.0475056
0.125256
0.0534708
0.114262
0.0602675
0.101663
0.0678156
0.0878118
0.0750102
0.0740392
0.0824281
0.0608665
0.0890082
0.0500342
0.095266
0.0407703
0.102398
0.0354948
0.104801
0.0300426
0.111649
0.0249648
0.11638
0.0206185
0.121778
0.0167581
0.128384
0.0137651
0.135491
0.0110698
0.143903
0.00881251
0.153224
0.00699318
0.163478
0.00564245
0.174622
0.00462748
0.186709
0.00385283
0.199756
0.0032596
0.213798
0.00279288
0.228888
0.00240448
0.245066
0.00202566
0.26239
0.00160243
0.280906
0.00111773
0.300657
0.000580012
0.321708
0.344134
0.0326602
0.0501977
0.0250633
0.0551025
0.0176669
0.0608672
0.0110274
0.0669071
0.0054909
0.0733521
0.000703418
0.0797977
-0.00287713
0.0860086
-0.0057009
0.0918319
-0.00660182
0.0961669
-0.00679823
0.102594
-0.0060332
0.104036
-0.00281187
0.108427
-0.00220601
0.115774
-0.000563321
0.120135
0.00041039
0.12741
0.000988032
0.134914
0.001629
0.143262
0.00219639
0.152656
0.00275738
0.162917
0.00319202
0.174187
0.00346603
0.186435
0.0035576
0.199665
0.00343893
0.213917
0.00314257
0.229184
0.00272661
0.245482
0.00224925
0.262867
0.0017454
0.28141
0.00121188
0.301191
0.000632131
0.322287
0.344766
-0.0583444
0.0533055
-0.0607646
0.0575227
-0.0618766
0.0619792
-0.0617169
0.0667473
-0.0601319
0.0717671
-0.0573031
0.0769688
-0.0534099
0.0821154
-0.0485255
0.0869476
-0.0432918
0.0909331
-0.036523
0.0958255
-0.0346959
0.102209
-0.0290345
0.102766
-0.0230893
0.109829
-0.0174521
0.114498
-0.0122968
0.122255
-0.00751428
0.130131
-0.0035914
0.139339
-0.000477021
0.149542
0.00168016
0.16076
0.0029802
0.172887
0.00364719
0.185768
0.0038787
0.199433
0.00384911
0.213947
0.00364592
0.229388
0.00328545
0.245843
0.00278528
0.263367
0.00217426
0.282021
0.00149179
0.301873
0.000765496
0.323014
0.345532
-0.124964
0.0493457
-0.119828
0.0523865
-0.11335
0.0555013
-0.105312
0.0587093
-0.0956073
0.0620624
-0.0837169
0.0650784
-0.0699409
0.0683394
-0.0537712
0.0707779
-0.0373989
0.0745608
-0.0192769
0.0777036
-0.00594576
0.0888775
0.0034658
0.0933545
0.00978057
0.103514
0.0127417
0.111537
0.0141358
0.120861
0.014011
0.130256
0.0130351
0.140315
0.0116186
0.150958
0.0101215
0.162257
0.00882218
0.174186
0.00770498
0.186885
0.00670045
0.200438
0.00577384
0.214873
0.00490273
0.230259
0.00409448
0.246651
0.0033308
0.264131
0.00256918
0.282782
0.00177127
0.302671
0.0009175
0.323867
0.346449
-0.172038
0.0428459
-0.165088
0.0454367
-0.158003
0.0484166
-0.150347
0.0510532
-0.142227
0.0539427
-0.132956
0.0558076
-0.122775
0.0581577
-0.111091
0.0590944
-0.0978532
0.0613229
-0.0817019
0.0615522
-0.0614852
0.0686608
-0.0448383
0.0767076
-0.0312087
0.0898845
-0.0203008
0.100629
-0.0114344
0.111994
-0.00496211
0.123784
-0.000253845
0.135607
0.0028577
0.147847
0.00477789
0.160337
0.00583702
0.173127
0.00626223
0.18646
0.00627157
0.200428
0.00596581
0.215179
0.00541655
0.230808
0.00468614
0.247381
0.00383715
0.26498
0.00292982
0.28369
0.00199237
0.303609
0.00102141
0.324838
0.347471
0.0506587
0.0392002
0.0544344
0.041661
0.0583287
0.0445223
0.0620416
0.0473403
0.0653199
0.0506645
0.0676002
0.0535272
0.068709
0.0570489
0.067616
0.0601873
0.0651844
0.0637545
0.0597626
0.066974
0.0540711
0.0743522
0.0462839
0.0844948
0.0394646
0.0967039
0.0319141
0.108179
0.0255731
0.118335
0.0208436
0.128513
0.0175373
0.138913
0.0151946
0.15019
0.0134386
0.162093
0.0118577
0.174708
0.0103872
0.18793
0.00901427
0.201801
0.00775223
0.216441
0.00660673
0.231953
0.00553856
0.24845
0.00449308
0.266025
0.00342899
0.284754
0.00232931
0.304708
0.00119034
0.325977
0.348661
0.204198
0.037818
0.205283
0.0405755
0.206114
0.0436912
0.206184
0.0472703
0.205491
0.0513577
0.202843
0.0561755
0.198199
0.0616929
0.190111
0.068275
0.17838
0.0754853
0.161024
0.0843303
0.140523
0.0948533
0.117259
0.107758
0.0956093
0.118354
0.0761658
0.127623
0.059179
0.135322
0.0456375
0.142055
0.0349979
0.149552
0.0270723
0.158115
0.0212211
0.167944
0.0169768
0.178953
0.0138648
0.191042
0.0114743
0.204192
0.00953166
0.218384
0.00786829
0.233617
0.00639642
0.249921
0.00506221
0.267359
0.00380763
0.286008
0.00257496
0.305941
0.00131753
0.327235
0.349979
0.0617282
0.038536
0.0606836
0.0416202
0.0592257
0.0451491
0.0571689
0.0493271
0.0543209
0.0542057
0.0504012
0.0600952
0.0452386
0.0668555
0.0388235
0.0746901
0.031465
0.0828437
0.023877
0.0919184
0.0180239
0.100706
0.0136836
0.112098
0.0110743
0.120963
0.0119318
0.126765
0.0126329
0.134621
0.0131682
0.14152
0.0133099
0.149411
0.0130384
0.158387
0.0124677
0.168515
0.0117083
0.179712
0.0108225
0.191928
0.0098444
0.20517
0.00879504
0.219433
0.00767587
0.234736
0.00648918
0.251108
0.00525136
0.268597
0.00398272
0.287277
0.00269376
0.30723
0.0013747
0.328554
0.351353
-0.0151906
-0.0153028
-0.0155838
-0.0159792
-0.0165054
-0.0169856
-0.0174549
-0.0176027
-0.0173036
-0.0160629
-0.0135018
-0.00887936
-0.00356857
0.00270446
0.00785244
0.0115446
0.0137752
0.0147494
0.0147525
0.0140691
0.0129436
0.0115857
0.0101449
0.00869826
0.0072667
0.0058442
0.00442133
0.00298586
0.00152264
)
;

boundaryField
{
    outlet
    {
        type            calculated;
        value           nonuniform List<scalar> 
40
(
0.0413823
0.0412695
0.0411829
0.0411417
0.0411452
0.0412145
0.041336
0.0415367
0.0418135
0.0422029
0.0384891
0.0417324
0.0454301
0.0497226
0.0547319
0.0605754
0.0673248
0.0748379
0.0825446
0.0906777
0.0981453
0.107476
0.115653
0.120492
0.129473
0.137827
0.14718
0.157413
0.168512
0.180395
0.193054
0.206528
0.220874
0.236183
0.25254
0.27002
0.2887
0.308665
0.330017
0.352876
)
;
    }
    upperWall
    {
        type            symmetryPlane;
        value           nonuniform 0();
    }
    lowerWall
    {
        type            symmetryPlane;
        value           uniform 0;
    }
    inlet
    {
        type            calculated;
        value           nonuniform 0();
    }
    cylinder
    {
        type            calculated;
        value           nonuniform 0();
    }
    frontAndBack
    {
        type            empty;
        value           nonuniform 0();
    }
    procBoundary3to2
    {
        type            processor;
        value           nonuniform List<scalar> 
43
(
-0.0294164
-0.0353346
-0.0432009
-0.0520861
-0.061632
-0.0704801
-0.0402496
-0.0630783
-0.0655346
-0.0698965
-0.0649317
-0.0135446
-0.0689402
-0.0735751
-0.0767247
-0.0804184
-0.0826777
-0.08649
-0.0899493
-0.0946774
-0.0996386
-0.105397
-0.111772
-0.118717
-0.126311
-0.134511
-0.143423
-0.153051
-0.163463
-0.17466
-0.186662
-0.199499
-0.21323
-0.227918
-0.243627
-0.260429
-0.278394
-0.297608
-0.318178
-0.340204
-0.0631873
0.00975952
-0.0651525
)
;
    }
    procBoundary3to7
    {
        type            processor;
        value           nonuniform List<scalar> 
30
(
0.0719319
0.0852141
0.0920634
0.0976823
0.0920124
0.0824522
0.0254715
-0.0247338
-0.0722476
-0.093053
-0.103784
-0.112691
-0.0596151
-0.0125355
0.0533705
0.100234
0.121527
0.116158
0.0263756
-0.0453529
-0.131471
-0.168407
-0.0637469
0.0275365
0.156793
0.204656
-0.0322984
-0.178231
-0.0460872
0.0265706
)
;
    }
}


// ************************************************************************* //
