/*--------------------------------*- C++ -*----------------------------------*\
| =========                 |                                                 |
| \\      /  F ield         | OpenFOAM: The Open Source CFD Toolbox           |
|  \\    /   O peration     | Version:                                        |
|   \\  /    A nd           | Website:  www.openfoam.com                      |
|    \\/     M anipulation  |                                                 |
\*---------------------------------------------------------------------------*/
FoamFile
{
    version     2.0;
    format      ascii;
    class       volScalarField;
    location    "0.4";
    object      p;
}
// * * * * * * * * * * * * * * * * * * * * * * * * * * * * * * * * * * * * * //

dimensions      [0 2 -2 0 0 0 0];


internalField   nonuniform List<scalar> 
400
(
0.465549
0.454363
0.443477
0.432866
0.422505
0.412375
0.402456
0.392731
0.383184
0.373804
0.364577
0.355493
0.346543
0.337718
0.32901
0.320413
0.31192
0.303526
0.295226
0.287015
0.465418
0.454243
0.443367
0.432765
0.422413
0.41229
0.402377
0.392658
0.383117
0.373742
0.364519
0.35544
0.346493
0.337671
0.328966
0.320372
0.311882
0.30349
0.295192
0.286983
0.465157
0.454003
0.443148
0.432564
0.422228
0.412121
0.402222
0.392515
0.382985
0.37362
0.364406
0.355334
0.346395
0.33758
0.328881
0.320292
0.311807
0.30342
0.295126
0.286921
0.464767
0.453647
0.442822
0.432266
0.421956
0.411871
0.401992
0.392304
0.382791
0.37344
0.36424
0.35518
0.346252
0.337446
0.328757
0.320176
0.311698
0.303318
0.29503
0.286831
0.464254
0.453179
0.442395
0.431876
0.4216
0.411545
0.401694
0.392031
0.382539
0.373208
0.364026
0.354982
0.346068
0.337276
0.328598
0.320028
0.311559
0.303188
0.294909
0.286716
0.463623
0.452605
0.441874
0.431402
0.421169
0.411152
0.401336
0.391702
0.382238
0.372932
0.363771
0.354747
0.345851
0.337074
0.32841
0.319853
0.311396
0.303036
0.294766
0.286582
0.462885
0.451938
0.44127
0.430856
0.420673
0.410702
0.400926
0.391329
0.381897
0.372619
0.363484
0.354483
0.345606
0.336848
0.328201
0.319658
0.311215
0.302866
0.294608
0.286434
0.462057
0.451192
0.440599
0.430251
0.420127
0.410209
0.400479
0.390922
0.381527
0.372281
0.363174
0.354198
0.345345
0.336607
0.327977
0.319451
0.311022
0.302687
0.29444
0.286278
0.461161
0.450391
0.43988
0.429607
0.419549
0.409688
0.400009
0.390497
0.381141
0.37193
0.362854
0.353905
0.345075
0.336358
0.327748
0.319239
0.310826
0.302504
0.29427
0.286119
0.460227
0.449559
0.43914
0.428946
0.418958
0.409158
0.399533
0.390068
0.380753
0.371577
0.362533
0.353612
0.344807
0.336112
0.327521
0.319029
0.310631
0.302324
0.294102
0.285962
0.459286
0.448728
0.438403
0.428292
0.418376
0.408639
0.399067
0.389649
0.380375
0.371236
0.362223
0.353329
0.344548
0.335875
0.327303
0.318828
0.310445
0.302151
0.293941
0.285812
0.458376
0.447927
0.437697
0.427668
0.417822
0.408146
0.398626
0.389254
0.380019
0.370914
0.361931
0.353063
0.344306
0.335652
0.327098
0.318639
0.310271
0.301989
0.293791
0.285672
0.457525
0.447182
0.437043
0.427091
0.417311
0.407691
0.398221
0.388891
0.379692
0.370619
0.361663
0.352819
0.344082
0.335447
0.32691
0.318465
0.31011
0.30184
0.293652
0.285543
0.456757
0.446511
0.436454
0.426571
0.416851
0.407283
0.397856
0.388563
0.379397
0.370351
0.361419
0.352597
0.343879
0.33526
0.326737
0.318305
0.309962
0.301702
0.293523
0.285423
0.456081
0.445918
0.435933
0.426111
0.416443
0.406918
0.397528
0.388268
0.37913
0.370108
0.361198
0.352394
0.343692
0.335088
0.326577
0.318157
0.309823
0.301573
0.293403
0.28531
0.45549
0.445399
0.435474
0.425703
0.416078
0.40659
0.397232
0.387999
0.378885
0.369884
0.360992
0.352204
0.343516
0.334925
0.326426
0.318016
0.309691
0.301449
0.293286
0.2852
0.454968
0.444936
0.435061
0.425333
0.415744
0.406288
0.396957
0.387748
0.378654
0.369671
0.360795
0.352021
0.343346
0.334766
0.326277
0.317876
0.30956
0.301325
0.293169
0.28509
0.454481
0.4445
0.434668
0.424977
0.41542
0.405991
0.396685
0.387496
0.378421
0.369455
0.360593
0.351833
0.343169
0.3346
0.326121
0.317729
0.309421
0.301194
0.293045
0.284971
0.453956
0.444025
0.434236
0.424582
0.415058
0.405657
0.396376
0.387209
0.378153
0.369204
0.360358
0.351612
0.342961
0.334403
0.325935
0.317553
0.309254
0.301035
0.292894
0.284828
0.453385
0.443507
0.433762
0.424147
0.414656
0.405285
0.39603
0.386886
0.377851
0.36892
0.360091
0.35136
0.342723
0.334178
0.325722
0.31735
0.309061
0.300852
0.29272
0.284662
)
;

boundaryField
{
    fixedWalls
    {
        type            zeroGradient;
    }
    inlet
    {
        type            zeroGradient;
    }
    outlet
    {
        type            fixedValue;
        value           nonuniform 0();
    }
    frontAndBack
    {
        type            empty;
    }
    procBoundary5to1
    {
        type            processor;
        value           nonuniform List<scalar> 
20
(
0.465549
0.454363
0.443477
0.432866
0.422505
0.412375
0.402456
0.392731
0.383184
0.373804
0.364577
0.355493
0.346543
0.337718
0.32901
0.320413
0.31192
0.303526
0.295226
0.287015
)
;
    }
    procBoundary5to4
    {
        type            processor;
        value           nonuniform List<scalar> 
20
(
0.477062
0.47692
0.476635
0.47621
0.475648
0.474955
0.47414
0.473221
0.47222
0.471169
0.470105
0.469067
0.468094
0.467212
0.466436
0.46576
0.465169
0.464621
0.464036
0.463405
)
;
    }
    procBoundary5to6
    {
        type            processor;
        value           nonuniform List<scalar> 
20
(
0.278889
0.278859
0.2788
0.278715
0.278608
0.278482
0.278343
0.278196
0.278047
0.277901
0.277761
0.27763
0.277509
0.277397
0.277291
0.277187
0.277083
0.276971
0.276834
0.276676
)
;
    }
}


// ************************************************************************* //
