/*--------------------------------*- C++ -*----------------------------------*\
| =========                 |                                                 |
| \\      /  F ield         | OpenFOAM: The Open Source CFD Toolbox           |
|  \\    /   O peration     | Version:                                        |
|   \\  /    A nd           | Website:  www.openfoam.com                      |
|    \\/     M anipulation  |                                                 |
\*---------------------------------------------------------------------------*/
FoamFile
{
    version     2.0;
    format      ascii;
    class       surfaceScalarField;
    location    "0.4";
    object      phi;
}
// * * * * * * * * * * * * * * * * * * * * * * * * * * * * * * * * * * * * * //

dimensions      [0 3 -1 0 0 0 0];
oriented        oriented;


internalField   nonuniform List<scalar> 
760
(
3.13714e-05
-2.46846e-07
3.16081e-05
-2.36671e-07
3.18351e-05
-2.27e-07
3.20529e-05
-2.17799e-07
3.22619e-05
-2.09033e-07
3.24626e-05
-2.0067e-07
3.26553e-05
-1.9268e-07
3.28403e-05
-1.85038e-07
3.3018e-05
-1.77722e-07
3.31888e-05
-1.70712e-07
3.33528e-05
-1.63991e-07
3.35103e-05
-1.57544e-07
3.36617e-05
-1.51356e-07
3.38071e-05
-1.45414e-07
3.39468e-05
-1.39707e-07
3.4081e-05
-1.34226e-07
3.421e-05
-1.28962e-07
3.43339e-05
-1.23902e-07
3.4453e-05
-1.19041e-07
-1.14369e-07
3.14031e-05
-4.90576e-07
3.16363e-05
-4.69825e-07
3.18594e-05
-4.50128e-07
3.2073e-05
-4.31417e-07
3.22776e-05
-4.13621e-07
3.24736e-05
-3.96676e-07
3.26614e-05
-3.80522e-07
3.28415e-05
-3.65105e-07
3.30142e-05
-3.50376e-07
3.31797e-05
-3.36294e-07
3.33386e-05
-3.2282e-07
3.34909e-05
-3.09919e-07
3.36371e-05
-2.9756e-07
3.37774e-05
-2.85714e-07
3.39121e-05
-2.74358e-07
3.40413e-05
-2.63468e-07
3.41654e-05
-2.53022e-07
3.42845e-05
-2.42999e-07
3.43988e-05
-2.33381e-07
-2.24148e-07
3.14614e-05
-7.27401e-07
3.16869e-05
-6.95328e-07
3.19017e-05
-6.64957e-07
3.21065e-05
-6.36184e-07
3.23018e-05
-6.08902e-07
3.24881e-05
-5.83008e-07
3.2666e-05
-5.58405e-07
3.28359e-05
-5.35004e-07
3.29982e-05
-5.12726e-07
3.31534e-05
-4.91496e-07
3.33019e-05
-4.71249e-07
3.34439e-05
-4.51924e-07
3.35798e-05
-4.33466e-07
3.37099e-05
-4.15826e-07
3.38345e-05
-3.9896e-07
3.39539e-05
-3.82826e-07
3.40682e-05
-3.67386e-07
3.41778e-05
-3.52604e-07
3.42829e-05
-3.38447e-07
-3.24884e-07
3.15353e-05
-9.52273e-07
3.17479e-05
-9.07916e-07
3.1949e-05
-8.66067e-07
3.21394e-05
-8.26579e-07
3.23198e-05
-7.89297e-07
3.24908e-05
-7.54069e-07
3.26532e-05
-7.2075e-07
3.28074e-05
-6.89204e-07
3.2954e-05
-6.59306e-07
3.30934e-05
-6.30941e-07
3.32262e-05
-6.04003e-07
3.33526e-05
-5.78396e-07
3.34732e-05
-5.54034e-07
3.35882e-05
-5.30837e-07
3.3698e-05
-5.08734e-07
3.38028e-05
-4.87659e-07
3.3903e-05
-4.67552e-07
3.39987e-05
-4.48355e-07
3.40903e-05
-4.30018e-07
-4.12493e-07
3.16063e-05
-1.15848e-06
3.17993e-05
-1.10088e-06
3.198e-05
-1.04681e-06
3.21495e-05
-9.96066e-07
3.23086e-05
-9.48418e-07
3.24582e-05
-9.03645e-07
3.2599e-05
-8.61534e-07
3.27317e-05
-8.21883e-07
3.28569e-05
-7.84505e-07
3.29752e-05
-7.49227e-07
3.30871e-05
-7.15892e-07
3.3193e-05
-6.84355e-07
3.32935e-05
-6.54488e-07
3.33888e-05
-6.26171e-07
3.34794e-05
-5.99298e-07
3.35655e-05
-5.7377e-07
3.36474e-05
-5.495e-07
3.37255e-05
-5.26405e-07
3.37999e-05
-5.04411e-07
-4.83449e-07
3.16469e-05
-1.33758e-06
3.18121e-05
-1.26609e-06
3.19647e-05
-1.19942e-06
3.21059e-05
-1.13725e-06
3.22367e-05
-1.07927e-06
3.23582e-05
-1.02514e-06
3.24712e-05
-9.74546e-07
3.25765e-05
-9.27207e-07
3.26749e-05
-8.82848e-07
3.27669e-05
-8.41223e-07
3.28531e-05
-8.02106e-07
3.2934e-05
-7.65293e-07
3.30101e-05
-7.306e-07
3.30818e-05
-6.97861e-07
3.31494e-05
-6.66926e-07
3.32133e-05
-6.37659e-07
3.32738e-05
-6.09939e-07
3.3331e-05
-5.83653e-07
3.33853e-05
-5.58703e-07
-5.34995e-07
3.16184e-05
-1.47976e-06
3.17467e-05
-1.39442e-06
3.18628e-05
-1.31547e-06
3.1968e-05
-1.24242e-06
3.20635e-05
-1.17478e-06
3.21504e-05
-1.11209e-06
3.22298e-05
-1.05391e-06
3.23024e-05
-9.99834e-07
3.23691e-05
-9.49483e-07
3.24304e-05
-9.0252e-07
3.24869e-05
-8.5864e-07
3.25392e-05
-8.17567e-07
3.25876e-05
-7.79057e-07
3.26326e-05
-7.42889e-07
3.26746e-05
-7.08866e-07
3.27137e-05
-6.76812e-07
3.27504e-05
-6.46568e-07
3.27847e-05
-6.17992e-07
3.2817e-05
-5.90957e-07
-5.65347e-07
3.1471e-05
-1.57474e-06
3.15533e-05
-1.47675e-06
3.16247e-05
-1.38688e-06
3.16867e-05
-1.30442e-06
3.17406e-05
-1.22869e-06
3.17876e-05
-1.15903e-06
3.18285e-05
-1.09485e-06
3.18643e-05
-1.0356e-06
3.18956e-05
-9.80799e-07
3.19231e-05
-9.29994e-07
3.19472e-05
-8.82796e-07
3.19685e-05
-8.38856e-07
3.19873e-05
-7.97864e-07
3.2004e-05
-7.59545e-07
3.20188e-05
-7.23656e-07
3.20319e-05
-6.89981e-07
3.20437e-05
-6.58327e-07
3.20542e-05
-6.28522e-07
3.20637e-05
-6.00416e-07
-5.73868e-07
3.11442e-05
-1.61336e-06
3.11727e-05
-1.50531e-06
3.1193e-05
-1.40715e-06
3.12065e-05
-1.31788e-06
3.12144e-05
-1.23658e-06
3.12177e-05
-1.16237e-06
3.12174e-05
-1.0945e-06
3.1214e-05
-1.03228e-06
3.12083e-05
-9.75079e-07
3.12007e-05
-9.22371e-07
3.11916e-05
-8.73676e-07
3.11813e-05
-8.28574e-07
3.11701e-05
-7.867e-07
3.11583e-05
-7.47729e-07
3.1146e-05
-7.11379e-07
3.11334e-05
-6.774e-07
3.11207e-05
-6.45572e-07
3.11079e-05
-6.15701e-07
3.10951e-05
-5.87614e-07
-5.61158e-07
3.05701e-05
-1.58938e-06
3.05402e-05
-1.47541e-06
3.05059e-05
-1.37288e-06
3.04685e-05
-1.28047e-06
3.04289e-05
-1.19699e-06
3.03879e-05
-1.12138e-06
3.03461e-05
-1.05272e-06
3.0304e-05
-9.90173e-07
3.0262e-05
-9.33028e-07
3.02203e-05
-8.8066e-07
3.01791e-05
-8.32527e-07
3.01387e-05
-7.88157e-07
3.00992e-05
-7.4714e-07
3.00605e-05
-7.0912e-07
3.0023e-05
-6.73788e-07
2.99864e-05
-6.40873e-07
2.9951e-05
-6.10137e-07
2.99167e-05
-5.81373e-07
2.98835e-05
-5.54399e-07
-5.29051e-07
2.96792e-05
-1.50142e-06
2.95907e-05
-1.38698e-06
2.95029e-05
-1.285e-06
2.94163e-05
-1.19388e-06
2.93315e-05
-1.11221e-06
2.92489e-05
-1.03878e-06
2.91687e-05
-9.72532e-07
2.90911e-05
-9.12545e-07
2.90161e-05
-8.58037e-07
2.89438e-05
-8.08335e-07
2.88741e-05
-7.6286e-07
2.88071e-05
-7.21114e-07
2.87426e-05
-6.8267e-07
2.86806e-05
-6.47159e-07
2.86211e-05
-6.14262e-07
2.85639e-05
-5.83703e-07
2.8509e-05
-5.55243e-07
2.84563e-05
-5.28674e-07
2.84057e-05
-5.03811e-07
-4.80495e-07
2.84073e-05
-1.35436e-06
2.82659e-05
-1.24558e-06
2.81304e-05
-1.14951e-06
2.80009e-05
-1.06435e-06
2.78772e-05
-9.88592e-07
2.77594e-05
-9.20912e-07
2.7647e-05
-8.60204e-07
2.754e-05
-8.05525e-07
2.74381e-05
-7.56076e-07
2.73409e-05
-7.1118e-07
2.72483e-05
-6.70261e-07
2.716e-05
-6.32827e-07
2.70758e-05
-5.98462e-07
2.69955e-05
-5.66809e-07
2.69188e-05
-5.37561e-07
2.68455e-05
-5.10455e-07
2.67755e-05
-4.85263e-07
2.67086e-05
-4.61789e-07
2.66447e-05
-4.39861e-07
-4.19328e-07
2.67036e-05
-1.15966e-06
2.65205e-05
-1.06246e-06
2.63483e-05
-9.77311e-07
2.61863e-05
-9.02374e-07
2.60338e-05
-8.3612e-07
2.58902e-05
-7.77265e-07
2.57547e-05
-7.24735e-07
2.56268e-05
-6.77629e-07
2.55059e-05
-6.35196e-07
2.53915e-05
-5.96802e-07
2.52832e-05
-5.61915e-07
2.51804e-05
-5.30087e-07
2.50829e-05
-5.00938e-07
2.49903e-05
-4.74147e-07
2.49021e-05
-4.49438e-07
2.48183e-05
-4.26578e-07
2.47384e-05
-4.05365e-07
2.46622e-05
-3.85625e-07
2.45895e-05
-3.67208e-07
-3.49981e-07
2.45368e-05
-9.34389e-07
2.43278e-05
-8.53495e-07
2.41336e-05
-7.83113e-07
2.39528e-05
-7.21546e-07
2.3784e-05
-6.67395e-07
2.36263e-05
-6.1951e-07
2.34785e-05
-5.76939e-07
2.33397e-05
-5.38895e-07
2.32093e-05
-5.04725e-07
2.30864e-05
-4.73887e-07
2.29704e-05
-4.45928e-07
2.28608e-05
-4.20469e-07
2.2757e-05
-3.97192e-07
2.26587e-05
-3.75828e-07
2.25654e-05
-3.56149e-07
2.24768e-05
-3.37963e-07
2.23925e-05
-3.21102e-07
2.23123e-05
-3.05425e-07
2.22359e-05
-2.90809e-07
-2.77146e-07
2.18981e-05
-6.98958e-07
2.16817e-05
-6.37095e-07
2.14822e-05
-5.83567e-07
2.12976e-05
-5.36963e-07
2.11263e-05
-4.96138e-07
2.0967e-05
-4.60158e-07
2.08183e-05
-4.28263e-07
2.06792e-05
-3.99828e-07
2.05489e-05
-3.7434e-07
2.04263e-05
-3.51375e-07
2.0311e-05
-3.30582e-07
2.02022e-05
-3.11669e-07
2.00994e-05
-2.94393e-07
2.00021e-05
-2.78549e-07
1.99099e-05
-2.63963e-07
1.98225e-05
-2.50489e-07
1.97394e-05
-2.38003e-07
1.96603e-05
-2.26398e-07
1.95851e-05
-2.1558e-07
-2.0547e-07
1.88002e-05
-4.74305e-07
1.85949e-05
-4.31809e-07
1.84065e-05
-3.95188e-07
1.8233e-05
-3.63411e-07
1.80725e-05
-3.35653e-07
1.79236e-05
-3.11244e-07
1.7785e-05
-2.89645e-07
1.76556e-05
-2.70416e-07
1.75344e-05
-2.53198e-07
1.74207e-05
-2.37696e-07
1.73138e-05
-2.23668e-07
1.72131e-05
-2.10913e-07
1.71179e-05
-1.99264e-07
1.7028e-05
-1.88582e-07
1.69428e-05
-1.78748e-07
1.68619e-05
-1.69664e-07
1.67852e-05
-1.61245e-07
1.67122e-05
-1.53418e-07
1.66427e-05
-1.46121e-07
-1.39301e-07
1.52715e-05
-2.79235e-07
1.50938e-05
-2.54136e-07
1.49312e-05
-2.32566e-07
1.47816e-05
-2.13889e-07
1.46436e-05
-1.976e-07
1.45156e-05
-1.83294e-07
1.43966e-05
-1.70645e-07
1.42856e-05
-1.59388e-07
1.41817e-05
-1.4931e-07
1.40843e-05
-1.40237e-07
1.39926e-05
-1.32025e-07
1.39063e-05
-1.24555e-07
1.38247e-05
-1.1773e-07
1.37476e-05
-1.11469e-07
1.36746e-05
-1.05702e-07
1.36053e-05
-1.00371e-07
1.35395e-05
-9.54285e-08
1.34769e-05
-9.08314e-08
1.34173e-05
-8.6543e-08
-8.25328e-08
1.13485e-05
-1.287e-07
1.12115e-05
-1.17189e-07
1.10863e-05
-1.07313e-07
1.09712e-05
-9.87701e-08
1.08649e-05
-9.13237e-08
1.07664e-05
-8.47849e-08
1.06747e-05
-7.90023e-08
1.05892e-05
-7.38543e-08
1.05091e-05
-6.92427e-08
1.0434e-05
-6.50876e-08
1.03633e-05
-6.13231e-08
1.02966e-05
-5.78957e-08
1.02336e-05
-5.47612e-08
1.01741e-05
-5.18827e-08
1.01176e-05
-4.92286e-08
1.0064e-05
-4.6773e-08
1.00131e-05
-4.44938e-08
9.9646e-06
-4.23726e-08
9.91845e-06
-4.03918e-08
-3.85381e-08
7.06779e-06
-3.33175e-08
6.98098e-06
-3.03813e-08
6.90153e-06
-2.78631e-08
6.82845e-06
-2.5685e-08
6.76091e-06
-2.37857e-08
6.69824e-06
-2.21165e-08
6.63987e-06
-2.06384e-08
6.58534e-06
-1.93208e-08
6.53424e-06
-1.81387e-08
6.48622e-06
-1.70717e-08
6.441e-06
-1.61032e-08
6.39833e-06
-1.52198e-08
6.35797e-06
-1.44106e-08
6.31976e-06
-1.36661e-08
6.28351e-06
-1.29785e-08
6.24908e-06
-1.23415e-08
6.21633e-06
-1.17494e-08
6.18516e-06
-1.11973e-08
6.15545e-06
-1.06813e-08
-1.01977e-08
2.45917e-06
2.42879e-06
2.40093e-06
2.37524e-06
2.35145e-06
2.32934e-06
2.3087e-06
2.28938e-06
2.27124e-06
2.25417e-06
2.23807e-06
2.22285e-06
2.20844e-06
2.19477e-06
2.18179e-06
2.16945e-06
2.1577e-06
2.1465e-06
2.13582e-06
)
;

boundaryField
{
    fixedWalls
    {
        type            calculated;
        value           uniform 0;
    }
    inlet
    {
        type            calculated;
        value           nonuniform 0();
    }
    outlet
    {
        type            calculated;
        value           nonuniform 0();
    }
    frontAndBack
    {
        type            empty;
        value           nonuniform 0();
    }
    procBoundary5to1
    {
        type            processor;
        value           nonuniform List<scalar> 
20
(
-2.28682e-12
-2.56071e-12
-2.84863e-12
-3.13533e-12
-3.36859e-12
-3.53254e-12
-3.75161e-12
-4.12778e-12
-4.69825e-12
-5.34282e-12
-5.91066e-12
-6.48065e-12
-7.16084e-12
-7.92707e-12
-8.80231e-12
-9.98519e-12
-1.12378e-11
-1.26806e-11
-1.44951e-11
-1.61265e-11
)
;
    }
    procBoundary5to4
    {
        type            processor;
        value           nonuniform List<scalar> 
20
(
-3.11246e-05
-3.11594e-05
-3.12246e-05
-3.13104e-05
-3.14001e-05
-3.14678e-05
-3.14762e-05
-3.1376e-05
-3.11055e-05
-3.05941e-05
-2.97671e-05
-2.85543e-05
-2.68983e-05
-2.4762e-05
-2.21335e-05
-1.90249e-05
-1.54665e-05
-1.1499e-05
-7.16317e-06
-2.49249e-06
)
;
    }
    procBoundary5to6
    {
        type            processor;
        value           nonuniform List<scalar> 
20
(
3.45674e-05
3.45086e-05
3.43836e-05
3.41779e-05
3.38708e-05
3.34369e-05
3.28473e-05
3.20722e-05
3.10824e-05
2.98513e-05
2.83572e-05
2.65835e-05
2.45202e-05
2.21631e-05
1.95134e-05
1.65766e-05
1.33605e-05
9.87445e-06
6.12711e-06
2.12562e-06
)
;
    }
}


// ************************************************************************* //
