/*--------------------------------*- C++ -*----------------------------------*\
| =========                 |                                                 |
| \\      /  F ield         | OpenFOAM: The Open Source CFD Toolbox           |
|  \\    /   O peration     | Version:                                        |
|   \\  /    A nd           | Website:  www.openfoam.com                      |
|    \\/     M anipulation  |                                                 |
\*---------------------------------------------------------------------------*/
FoamFile
{
    version     2.0;
    format      ascii;
    class       volVectorField;
    location    "0.4";
    object      U;
}
// * * * * * * * * * * * * * * * * * * * * * * * * * * * * * * * * * * * * * //

dimensions      [0 1 -1 0 0 0 0];


internalField   nonuniform List<vector> 
400
(
(1.25003 -0.00247589 0)
(1.25969 -0.0023752 0)
(1.26896 -0.00227944 0)
(1.27785 -0.00218826 0)
(1.28638 -0.00210131 0)
(1.29457 -0.00201827 0)
(1.30244 -0.00193886 0)
(1.30999 -0.00186281 0)
(1.31724 -0.00178993 0)
(1.32421 -0.00172002 0)
(1.3309 -0.00165292 0)
(1.33733 -0.00158849 0)
(1.3435 -0.00152658 0)
(1.34943 -0.00146708 0)
(1.35513 -0.00140988 0)
(1.36061 -0.00135489 0)
(1.36587 -0.00130204 0)
(1.37093 -0.0012512 0)
(1.37579 -0.00120231 0)
(1.38045 -0.00115531 0)
(1.25136 -0.00739835 0)
(1.26089 -0.00709214 0)
(1.27001 -0.00680116 0)
(1.27874 -0.00652436 0)
(1.2871 -0.00626071 0)
(1.29511 -0.00600925 0)
(1.30278 -0.00576909 0)
(1.31014 -0.00553948 0)
(1.31719 -0.00531972 0)
(1.32395 -0.00510925 0)
(1.33043 -0.00490752 0)
(1.33665 -0.00471406 0)
(1.34262 -0.00452843 0)
(1.34835 -0.00435023 0)
(1.35385 -0.00417915 0)
(1.35912 -0.00401488 0)
(1.36419 -0.00385713 0)
(1.36905 -0.00370558 0)
(1.37371 -0.00355998 0)
(1.37819 -0.00342011 0)
(1.25384 -0.0122257 0)
(1.26308 -0.011702 0)
(1.27188 -0.0112053 0)
(1.28027 -0.0107338 0)
(1.28826 -0.0102857 0)
(1.29589 -0.00985939 0)
(1.30317 -0.00945341 0)
(1.31012 -0.00906634 0)
(1.31676 -0.00869694 0)
(1.3231 -0.00834412 0)
(1.32917 -0.00800687 0)
(1.33498 -0.00768427 0)
(1.34053 -0.00737552 0)
(1.34585 -0.00707986 0)
(1.35094 -0.00679665 0)
(1.35582 -0.00652527 0)
(1.36049 -0.00626515 0)
(1.36497 -0.00601573 0)
(1.36926 -0.00577655 0)
(1.37337 -0.00554709 0)
(1.25704 -0.0168723 0)
(1.26579 -0.0161133 0)
(1.27405 -0.0153953 0)
(1.28187 -0.0147161 0)
(1.28928 -0.014073 0)
(1.2963 -0.0134635 0)
(1.30297 -0.0128854 0)
(1.30929 -0.0123364 0)
(1.3153 -0.0118147 0)
(1.32102 -0.0113183 0)
(1.32646 -0.0108456 0)
(1.33164 -0.0103951 0)
(1.33657 -0.00996549 0)
(1.34128 -0.00955547 0)
(1.34578 -0.00916396 0)
(1.35006 -0.0087899 0)
(1.35416 -0.00843235 0)
(1.35808 -0.0080904 0)
(1.36182 -0.00776325 0)
(1.3654 -0.0074501 0)
(1.26027 -0.021222 0)
(1.26824 -0.020207 0)
(1.27571 -0.0192511 0)
(1.2827 -0.0183509 0)
(1.28927 -0.0175028 0)
(1.29543 -0.0167031 0)
(1.30123 -0.0159484 0)
(1.30669 -0.0152354 0)
(1.31184 -0.0145612 0)
(1.31671 -0.0139229 0)
(1.32131 -0.0133179 0)
(1.32566 -0.012744 0)
(1.32978 -0.012199 0)
(1.3337 -0.011681 0)
(1.33741 -0.0111883 0)
(1.34094 -0.0107192 0)
(1.3443 -0.0102724 0)
(1.3475 -0.00984635 0)
(1.35054 -0.00943993 0)
(1.35345 -0.00905196 0)
(1.26244 -0.0251228 0)
(1.26931 -0.0238338 0)
(1.27566 -0.022627 0)
(1.28152 -0.0214973 0)
(1.28695 -0.0204394 0)
(1.29199 -0.019448 0)
(1.29667 -0.0185181 0)
(1.30103 -0.0176448 0)
(1.3051 -0.0168237 0)
(1.3089 -0.0160507 0)
(1.31246 -0.015322 0)
(1.31579 -0.0146343 0)
(1.31893 -0.0139844 0)
(1.32188 -0.0133695 0)
(1.32467 -0.0127871 0)
(1.32729 -0.0122349 0)
(1.32978 -0.0117108 0)
(1.33213 -0.0112128 0)
(1.33436 -0.0107394 0)
(1.33647 -0.0102887 0)
(1.26204 -0.0283887 0)
(1.26744 -0.0268177 0)
(1.27231 -0.0253575 0)
(1.27672 -0.0240004 0)
(1.28072 -0.0227385 0)
(1.28436 -0.0215642 0)
(1.28768 -0.0204702 0)
(1.29071 -0.0194496 0)
(1.29349 -0.018496 0)
(1.29604 -0.0176036 0)
(1.29839 -0.0167673 0)
(1.30056 -0.0159822 0)
(1.30257 -0.0152441 0)
(1.30444 -0.0145491 0)
(1.30617 -0.0138939 0)
(1.30779 -0.0132752 0)
(1.30931 -0.0126902 0)
(1.31072 -0.0121366 0)
(1.31205 -0.0116118 0)
(1.3133 -0.011114 0)
(1.25708 -0.0308128 0)
(1.26061 -0.0289699 0)
(1.26366 -0.0272715 0)
(1.26632 -0.0257059 0)
(1.26862 -0.0242616 0)
(1.27063 -0.0229277 0)
(1.27238 -0.0216939 0)
(1.27391 -0.0205509 0)
(1.27524 -0.0194899 0)
(1.27641 -0.0185032 0)
(1.27744 -0.0175839 0)
(1.27834 -0.0167256 0)
(1.27914 -0.015923 0)
(1.27985 -0.0151708 0)
(1.28047 -0.0144649 0)
(1.28103 -0.0138011 0)
(1.28153 -0.013176 0)
(1.28197 -0.0125864 0)
(1.28237 -0.0120295 0)
(1.28273 -0.0115028 0)
(1.24511 -0.0321914 0)
(1.24643 -0.0301133 0)
(1.24739 -0.0282157 0)
(1.24805 -0.026482 0)
(1.24847 -0.0248959 0)
(1.24868 -0.0234426 0)
(1.24874 -0.0221084 0)
(1.24866 -0.0208809 0)
(1.24847 -0.0197489 0)
(1.2482 -0.0187028 0)
(1.24786 -0.0177336 0)
(1.24747 -0.0168337 0)
(1.24704 -0.0159963 0)
(1.24657 -0.0152152 0)
(1.24609 -0.0144853 0)
(1.24559 -0.0138017 0)
(1.24508 -0.0131604 0)
(1.24457 -0.0125575 0)
(1.24406 -0.0119899 0)
(1.24355 -0.0114545 0)
(1.22335 -0.0323599 0)
(1.22226 -0.0301141 0)
(1.22096 -0.0280836 0)
(1.21952 -0.0262452 0)
(1.21797 -0.0245776 0)
(1.21635 -0.0230616 0)
(1.21469 -0.02168 0)
(1.21301 -0.0204175 0)
(1.21132 -0.0192607 0)
(1.20964 -0.0181979 0)
(1.20798 -0.0172186 0)
(1.20635 -0.0163139 0)
(1.20475 -0.0154759 0)
(1.20318 -0.0146976 0)
(1.20166 -0.0139732 0)
(1.20018 -0.0132973 0)
(1.19874 -0.0126653 0)
(1.19734 -0.012073 0)
(1.19599 -0.011517 0)
(1.19469 -0.0109939 0)
(1.18894 -0.0312328 0)
(1.1854 -0.0289174 0)
(1.18186 -0.0268445 0)
(1.17837 -0.0249847 0)
(1.17494 -0.0233116 0)
(1.17159 -0.0218021 0)
(1.16833 -0.020436 0)
(1.16517 -0.0191956 0)
(1.16212 -0.0180658 0)
(1.15917 -0.0170332 0)
(1.15633 -0.0160866 0)
(1.1536 -0.015216 0)
(1.15097 -0.0144129 0)
(1.14844 -0.0136699 0)
(1.14601 -0.0129807 0)
(1.14368 -0.0123398 0)
(1.14144 -0.0117421 0)
(1.13929 -0.0111836 0)
(1.13722 -0.0106605 0)
(1.13524 -0.0101695 0)
(1.13918 -0.0288397 0)
(1.13341 -0.0265747 0)
(1.12787 -0.0245661 0)
(1.12257 -0.0227794 0)
(1.11751 -0.0211844 0)
(1.11268 -0.0197555 0)
(1.10808 -0.0184705 0)
(1.10369 -0.0173105 0)
(1.09951 -0.0162593 0)
(1.09553 -0.0153032 0)
(1.09174 -0.0144303 0)
(1.08813 -0.0136307 0)
(1.08468 -0.0128957 0)
(1.08139 -0.0122179 0)
(1.07825 -0.0115909 0)
(1.07525 -0.0110094 0)
(1.07239 -0.0104685 0)
(1.06965 -0.00996404 0)
(1.06704 -0.00949253 0)
(1.06454 -0.00905075 0)
(1.07192 -0.0253457 0)
(1.06437 -0.023257 0)
(1.05727 -0.0214208 0)
(1.05059 -0.0198001 0)
(1.04431 -0.0183633 0)
(1.0384 -0.0170841 0)
(1.03282 -0.01594 0)
(1.02756 -0.0149122 0)
(1.02259 -0.013985 0)
(1.01789 -0.0131449 0)
(1.01344 -0.0123807 0)
(1.00922 -0.0116827 0)
(1.00522 -0.0110429 0)
(1.00142 -0.0104544 0)
(0.997805 -0.00991134 0)
(0.994367 -0.00940855 0)
(0.991094 -0.00894174 0)
(0.987975 -0.00850714 0)
(0.985001 -0.00810149 0)
(0.982163 -0.00772191 0)
(0.985807 -0.0210452 0)
(0.977138 -0.0192442 0)
(0.969089 -0.0176731 0)
(0.961601 -0.0162955 0)
(0.954622 -0.0150814 0)
(0.948103 -0.014006 0)
(0.942001 -0.0130485 0)
(0.936279 -0.0121918 0)
(0.930902 -0.0114216 0)
(0.925841 -0.0107258 0)
(0.921069 -0.0100945 0)
(0.916562 -0.00951927 0)
(0.912299 -0.00899308 0)
(0.908262 -0.00850992 0)
(0.904434 -0.00806471 0)
(0.900799 -0.00765312 0)
(0.897345 -0.00727143 0)
(0.894058 -0.00691648 0)
(0.890929 -0.00658547 0)
(0.887946 -0.006276 0)
(0.880433 -0.0163277 0)
(0.87142 -0.0148924 0)
(0.863121 -0.013648 0)
(0.855455 -0.0125627 0)
(0.848354 -0.0116107 0)
(0.841755 -0.0107708 0)
(0.835605 -0.0100255 0)
(0.82986 -0.0093606 0)
(0.82448 -0.00876423 0)
(0.819429 -0.00822664 0)
(0.814679 -0.00773973 0)
(0.810202 -0.00729673 0)
(0.805975 -0.00689198 0)
(0.801978 -0.00652071 0)
(0.798192 -0.0061789 0)
(0.794603 -0.00586314 0)
(0.791194 -0.0055705 0)
(0.787955 -0.0052985 0)
(0.784872 -0.00504497 0)
(0.781936 -0.00480801 0)
(0.756296 -0.0116222 0)
(0.747723 -0.0105836 0)
(0.739872 -0.00968753 0)
(0.732653 -0.00890918 0)
(0.725988 -0.0082287 0)
(0.719814 -0.00762996 0)
(0.714075 -0.00709989 0)
(0.708724 -0.00662783 0)
(0.703721 -0.00620505 0)
(0.699032 -0.00582437 0)
(0.694627 -0.00547988 0)
(0.690479 -0.00516665 0)
(0.686567 -0.0048806 0)
(0.682869 -0.00461831 0)
(0.679369 -0.00437688 0)
(0.676052 -0.00415389 0)
(0.672903 -0.00394724 0)
(0.669911 -0.00375517 0)
(0.667065 -0.00357613 0)
(0.664354 -0.00340879 0)
(0.614575 -0.00733247 0)
(0.607145 -0.00667309 0)
(0.60036 -0.00610602 0)
(0.594135 -0.00561477 0)
(0.588398 -0.00518616 0)
(0.583091 -0.00480964 0)
(0.578162 -0.00447668 0)
(0.57357 -0.00418039 0)
(0.56928 -0.00391515 0)
(0.565259 -0.00367638 0)
(0.561483 -0.00346031 0)
(0.557928 -0.00326383 0)
(0.554574 -0.00308436 0)
(0.551405 -0.00291974 0)
(0.548405 -0.00276816 0)
(0.545561 -0.0026281 0)
(0.542862 -0.00249825 0)
(0.540296 -0.00237751 0)
(0.537855 -0.00226491 0)
(0.53553 -0.00215964 0)
(0.456805 -0.00380144 0)
(0.451076 -0.00346069 0)
(0.445849 -0.0031682 0)
(0.441055 -0.00291516 0)
(0.436639 -0.00269457 0)
(0.432553 -0.00250087 0)
(0.428758 -0.0023296 0)
(0.425221 -0.00217715 0)
(0.421915 -0.00204062 0)
(0.418816 -0.00191764 0)
(0.415903 -0.00180626 0)
(0.41316 -0.00170489 0)
(0.41057 -0.00161221 0)
(0.408122 -0.00152713 0)
(0.405804 -0.00144871 0)
(0.403604 -0.00137619 0)
(0.401516 -0.00130889 0)
(0.39953 -0.00124627 0)
(0.397639 -0.00118781 0)
(0.395837 -0.00113312 0)
(0.284528 -0.00134237 0)
(0.280897 -0.0012238 0)
(0.277583 -0.00112209 0)
(0.274541 -0.00103411 0)
(0.271736 -0.000957393 0)
(0.269138 -0.00088997 0)
(0.266722 -0.000830282 0)
(0.264469 -0.00077708 0)
(0.26236 -0.00072936 0)
(0.26038 -0.000686299 0)
(0.258518 -0.000647226 0)
(0.256763 -0.000611599 0)
(0.255104 -0.00057897 0)
(0.253535 -0.000548964 0)
(0.252047 -0.000521257 0)
(0.250635 -0.00049559 0)
(0.249292 -0.000471739 0)
(0.248015 -0.000449515 0)
(0.246798 -0.00042874 0)
(0.245638 -0.000409278 0)
(0.0990021 -0.000210478 0)
(0.0977327 -0.000192554 0)
(0.0965714 -0.000177174 0)
(0.0955035 -0.000163854 0)
(0.0945165 -0.000152217 0)
(0.0936006 -0.000141961 0)
(0.0927472 -0.000132851 0)
(0.0919495 -0.000124702 0)
(0.0912015 -0.000117366 0)
(0.0904983 -0.000110719 0)
(0.0898358 -0.00010466 0)
(0.0892101 -9.91142e-05 0)
(0.0886182 -9.40177e-05 0)
(0.0880572 -8.93122e-05 0)
(0.0875248 -8.49508e-05 0)
(0.0870189 -8.08991e-05 0)
(0.0865375 -7.71226e-05 0)
(0.0860789 -7.35921e-05 0)
(0.0856417 -7.02842e-05 0)
(0.0852244 -6.71771e-05 0)
)
;

boundaryField
{
    fixedWalls
    {
        type            noSlip;
    }
    inlet
    {
        type            fixedValue;
        value           nonuniform 0();
    }
    outlet
    {
        type            zeroGradient;
    }
    frontAndBack
    {
        type            empty;
    }
    procBoundary5to1
    {
        type            processor;
        value           nonuniform List<vector> 
20
(
(1.25003 0.00247598 0)
(1.25969 0.0023753 0)
(1.26896 0.00227955 0)
(1.27785 0.00218838 0)
(1.28638 0.00210144 0)
(1.29457 0.00201841 0)
(1.30244 0.00193901 0)
(1.30999 0.00186298 0)
(1.31724 0.00179012 0)
(1.32421 0.00172023 0)
(1.3309 0.00165316 0)
(1.33733 0.00158875 0)
(1.3435 0.00152687 0)
(1.34943 0.00146739 0)
(1.35513 0.00141023 0)
(1.36061 0.00135529 0)
(1.36587 0.00130249 0)
(1.37093 0.00125171 0)
(1.37579 0.00120289 0)
(1.38045 0.00115596 0)
)
;
    }
    procBoundary5to4
    {
        type            processor;
        value           nonuniform List<vector> 
20
(
(1.23994 -0.00258187 0)
(1.2414 -0.00772082 0)
(1.24413 -0.0127779 0)
(1.2478 -0.0176747 0)
(1.25175 -0.0222992 0)
(1.25499 -0.0264984 0)
(1.25606 -0.0300775 0)
(1.25301 -0.0328111 0)
(1.24334 -0.0344673 0)
(1.22418 -0.0348455 0)
(1.19244 -0.0338232 0)
(1.14517 -0.0314007 0)
(1.07995 -0.0277307 0)
(0.995161 -0.0231195 0)
(0.890255 -0.0179931 0)
(0.765696 -0.0128339 0)
(0.622751 -0.00810492 0)
(0.463119 -0.00420164 0)
(0.288528 -0.00148182 0)
(0.100398 -0.000231573 0)
)
;
    }
    procBoundary5to6
    {
        type            processor;
        value           nonuniform List<vector> 
20
(
(1.38494 -0.0011101 0)
(1.3825 -0.00328567 0)
(1.37732 -0.0053269 0)
(1.36883 -0.00715023 0)
(1.35622 -0.00868137 0)
(1.33848 -0.00985945 0)
(1.31448 -0.0106411 0)
(1.28305 -0.0110039 0)
(1.24304 -0.0109488 0)
(1.19342 -0.010501 0)
(1.13334 -0.00970781 0)
(1.06215 -0.00863599 0)
(0.979453 -0.00736599 0)
(0.885102 -0.00598604 0)
(0.779138 -0.00458609 0)
(0.661771 -0.00325208 0)
(0.533313 -0.00206102 0)
(0.394119 -0.00108187 0)
(0.244531 -0.000391025 0)
(0.0848259 -6.42589e-05 0)
)
;
    }
}


// ************************************************************************* //
