/*--------------------------------*- C++ -*----------------------------------*\
| =========                 |                                                 |
| \\      /  F ield         | OpenFOAM: The Open Source CFD Toolbox           |
|  \\    /   O peration     | Version:                                        |
|   \\  /    A nd           | Website:  www.openfoam.com                      |
|    \\/     M anipulation  |                                                 |
\*---------------------------------------------------------------------------*/
FoamFile
{
    version     2.0;
    format      ascii;
    class       volScalarField;
    location    "112";
    object      p;
}
// * * * * * * * * * * * * * * * * * * * * * * * * * * * * * * * * * * * * * //

dimensions      [0 2 -2 0 0 0 0];


internalField   nonuniform List<scalar> 
1139
(
-0.596967
-0.531257
-0.470101
-0.467789
-0.413548
-0.414025
-0.361597
-0.365606
-0.368445
-0.314196
-0.320809
-0.32673
-0.270355
-0.28088
-0.288049
-0.230483
-0.243157
-0.252705
-0.257162
-0.19249
-0.207118
-0.220846
-0.226582
-0.156157
-0.174099
-0.191123
-0.198944
-1.26745
-1.30373
-1.3042
-1.26684
-1.201
-1.12348
-1.32639
-1.32701
-1.29062
-1.22317
-1.14622
-1.08709
-1.32586
-1.32787
-1.2947
-1.23099
-1.15908
-1.09685
-1.04706
-1.30652
-1.31067
-1.27913
-1.21663
-1.14291
-1.0671
-0.998005
-0.94044
-1.27124
-1.27395
-1.2369
-1.16643
-1.08167
-0.995078
-0.918008
-0.860206
-0.81304
-1.21259
-1.20668
-1.15746
-1.07503
-0.98128
-0.896762
-0.825202
-0.773137
-0.734002
-0.695612
-1.1244
-1.10361
-1.04331
-0.958127
-0.866282
-0.791475
-0.731689
-0.686763
-0.656832
-0.622577
-1.0174
-0.982268
-0.917797
-0.840144
-0.755993
-0.689543
-0.643477
-0.605979
-0.581865
-0.553903
-0.912358
-0.86687
-0.800441
-0.732294
-0.661479
-0.599164
-0.55947
-0.531514
-0.51116
-0.489895
-0.824882
-0.77039
-0.704535
-0.641506
-0.579532
-0.520428
-0.480584
-0.462867
-0.448261
-0.428782
-0.769824
-0.701879
-0.631884
-0.566114
-0.503709
-0.450123
-0.412867
-0.400196
-0.390608
-0.372497
-0.741562
-0.656773
-0.576461
-0.507041
-0.442463
-0.390966
-0.354251
-0.340776
-0.337214
-0.323125
-0.744295
-0.639551
-0.537577
-0.459736
-0.391792
-0.337058
-0.301968
-0.286581
-0.287766
-0.277098
-0.776172
-0.648897
-0.51641
-0.418492
-0.342841
-0.284783
-0.253113
-0.238904
-0.23964
-0.236573
-0.824668
-0.679559
-0.51622
-0.387716
-0.298779
-0.240912
-0.207727
-0.19554
-0.197446
-0.198222
-0.89647
-0.728181
-0.522147
-0.358656
-0.251155
-0.194298
-0.168513
-0.156571
-0.158078
-0.161953
-0.962562
-0.769601
-0.524617
-0.328689
-0.203559
-0.14448
-0.125873
-0.119304
-0.120365
-0.13294
-0.971252
-0.798461
-0.586596
-0.345614
-0.193282
-0.111633
-0.080231
-0.0810028
-0.0818752
-0.10262
-0.856878
-0.705834
-0.50493
-0.301626
-0.178644
-0.0905119
-0.041102
-0.0420087
-0.0482102
-0.0689788
-0.687355
-0.573894
-0.433553
-0.287657
-0.166492
-0.0794546
-0.0241453
-0.00356135
-0.0152932
-0.0352093
-0.53249
-0.460795
-0.365349
-0.255837
-0.15266
-0.0737586
-0.0180199
0.0160696
0.0172257
-0.00696211
-0.428885
-0.385822
-0.317393
-0.229989
-0.141383
-0.0700802
-0.0175153
0.0224153
0.0435966
0.0154909
-0.369812
-0.343466
-0.290127
-0.215439
-0.135673
-0.0687884
-0.0199473
0.0166142
0.0426316
0.0381764
-0.345283
-0.330143
-0.286666
-0.218778
-0.141027
-0.0757525
-0.0267217
0.00484962
0.0299838
0.0376804
-0.350802
-0.345515
-0.309582
-0.244446
-0.162518
-0.0950179
-0.040627
-0.00995938
0.0113348
0.0243582
-0.394219
-0.39898
-0.369108
-0.297519
-0.205745
-0.128942
-0.0670105
-0.0298909
-0.00700742
0.00882986
-0.488877
-0.511461
-0.489062
-0.401888
-0.289019
-0.18797
-0.110424
-0.0614451
-0.031282
-0.0047263
-0.641969
-0.686922
-0.66755
-0.564883
-0.423709
-0.288381
-0.177523
-0.109502
-0.0656123
-0.0312684
-0.829311
-0.89471
-0.878304
-0.768764
-0.597311
-0.415802
-0.260073
-0.163063
-0.0935973
-0.060618
-0.969067
-1.05237
-1.04556
-0.947075
-0.761784
-0.540349
-0.348119
-0.210044
-0.114079
-0.0759919
-0.973708
-1.06638
-1.08073
-1.01636
-0.838796
-0.620941
-0.421622
-0.252565
-0.142792
-0.0750922
-0.838329
-0.925482
-0.956395
-0.916377
-0.787194
-0.624703
-0.456575
-0.292742
-0.17484
-0.0791133
-0.6384
-0.703003
-0.731007
-0.710923
-0.634317
-0.535184
-0.411315
-0.293403
-0.200147
-0.104653
-0.469337
-0.502577
-0.512978
-0.496624
-0.453643
-0.399004
-0.325978
-0.253324
-0.191068
-0.117202
-0.363482
-0.370413
-0.364895
-0.344519
-0.311307
-0.273259
-0.228069
-0.185798
-0.151371
-0.104884
-0.321422
-0.305065
-0.283928
-0.255567
-0.222102
-0.190216
-0.155586
-0.125894
-0.102086
-0.0731452
-0.104478
-0.08419
-0.0706587
-0.0529024
-0.116977
-0.107287
-0.0989393
-0.0891067
-0.0811384
-0.0743094
-0.0667139
-0.0593592
-0.0526835
-0.0458353
-0.0394283
-0.0331227
-0.0285387
-0.022722
-0.0173556
-0.0140576
-0.00961441
-0.00569959
-0.00289734
6.28218e-05
0.00270034
0.00492528
0.00692126
0.00868762
0.0101255
0.0113482
0.0123587
0.0130653
0.01349
0.013799
-0.0982762
-0.0930513
-0.0863878
-0.080098
-0.0752358
-0.0700313
-0.0641059
-0.0585016
-0.0526352
-0.0465627
-0.0407822
-0.0347578
-0.0303281
-0.0240365
-0.0194777
-0.0155311
-0.0107153
-0.00712738
-0.00396699
-0.000783253
0.00191074
0.00429845
0.00644116
0.00830709
0.00984951
0.0111765
0.0122445
0.0130142
0.0134679
0.0137952
-0.0684649
-0.0638691
-0.0629808
-0.0622981
-0.0614038
-0.0591007
-0.0561139
-0.052746
-0.0482539
-0.0437375
-0.0390589
-0.0340998
-0.0293309
-0.0240697
-0.0200297
-0.0155208
-0.0111402
-0.00772031
-0.00433052
-0.00117567
0.00152815
0.0039907
0.00619198
0.00809206
0.00969918
0.0110781
0.0121749
0.0129926
0.0134603
0.0137991
-0.036306
-0.0329449
-0.0361049
-0.039561
-0.0420514
-0.043199
-0.0434715
-0.042582
-0.0399802
-0.0373484
-0.0340767
-0.0303057
-0.0261679
-0.0222594
-0.0184808
-0.0141498
-0.0104696
-0.00716043
-0.00384099
-0.000902684
0.00172251
0.00412717
0.00627602
0.00813059
0.0097364
0.0110955
0.0121808
0.0130126
0.0134723
0.0138119
-0.00815048
-0.0083216
-0.0124107
-0.0175425
-0.0224011
-0.0263689
-0.0291004
-0.0306565
-0.0300004
-0.0291948
-0.0274216
-0.0247722
-0.0218411
-0.0190008
-0.0155729
-0.0120076
-0.00892202
-0.00584041
-0.00282494
-0.000164888
0.00230366
0.00456183
0.00658165
0.00834172
0.00989623
0.0111878
0.0122383
0.0130562
0.0134978
0.0138308
0.0152293
0.0104504
0.00527846
-0.00210752
-0.0074681
-0.0123669
-0.016385
-0.0193402
-0.0207081
-0.0212334
-0.0207151
-0.0192
-0.017479
-0.0153717
-0.0125323
-0.00977753
-0.007136
-0.00437162
-0.00173673
0.000666726
0.00294333
0.00503288
0.00690801
0.00857415
0.0100632
0.0112839
0.0123023
0.0130971
0.0135284
0.0138535
0.0366302
0.0265917
0.0188397
0.0103451
0.00337285
-0.00221203
-0.0069684
-0.0106269
-0.0129412
-0.0144985
-0.014827
-0.0143201
-0.0135261
-0.0119292
-0.00983818
-0.00775687
-0.00548826
-0.00309911
-0.000816323
0.00137551
0.00347075
0.0054089
0.007159
0.0087552
0.0101789
0.011351
0.0123495
0.0131246
0.0135608
0.0138796
0.0417115
0.0341732
0.0262167
0.0179411
0.0110152
0.00517316
0.000193465
-0.00358417
-0.00638829
-0.00863375
-0.00962518
-0.010036
-0.00986294
-0.00882141
-0.00744438
-0.0058482
-0.00393516
-0.00192876
5.31514e-05
0.0020429
0.00395979
0.00575124
0.00739677
0.00893243
0.0102839
0.0114226
0.0123992
0.0131559
0.0136022
0.0139141
0.031693
0.029679
0.0255225
0.0204146
0.0155933
0.0107532
0.00627747
0.00276031
-0.000455444
-0.00291946
-0.00450882
-0.00558759
-0.0058952
-0.00552276
-0.00480091
-0.00363037
-0.00215619
-0.000563497
0.00113913
0.00289969
0.00461596
0.00623699
0.00776744
0.00920898
0.0104658
0.0115577
0.0124902
0.0132181
0.0136626
0.0139625
0.0151652
0.0176172
0.0186434
0.0181505
0.0169483
0.0144815
0.0115216
0.00846714
0.00523819
0.0025708
0.000441136
-0.00108247
-0.00186908
-0.00212151
-0.00187571
-0.00112157
-9.39504e-05
0.00112184
0.00254105
0.00402127
0.00550539
0.0069316
0.00832671
0.0096276
0.0107714
0.0117862
0.0126457
0.0133278
0.0137484
0.0140297
0.00188154
0.00700431
0.0121313
0.0158316
0.0178432
0.0173331
0.015572
0.013012
0.0100695
0.00743428
0.00510484
0.0033282
0.00209246
0.00137161
0.00124065
0.00153404
0.0021228
0.00302048
0.00413466
0.00532391
0.00655317
0.00778041
0.00901028
0.0101393
0.0111659
0.0120786
0.01285
0.0134747
0.0138554
0.0141146
-0.0140785
-0.00200941
0.0072526
0.0141266
0.0186288
0.0194505
0.0187496
0.0165663
0.0138451
0.0112312
0.00882853
0.00688647
0.00539093
0.004421
0.00397931
0.00391154
0.00420497
0.00481397
0.00559969
0.00653295
0.00753367
0.00859517
0.00965635
0.0106333
0.0115599
0.0123711
0.0130634
0.0136331
0.0139754
0.0142145
-0.033367
-0.010547
0.00441168
0.0144624
0.0195946
0.0208361
0.020423
0.0186502
0.016606
0.0141321
0.0117676
0.00973969
0.00809185
0.00694767
0.00621609
0.00588329
0.00594416
0.00627083
0.00680592
0.00752762
0.0083477
0.00926067
0.0101613
0.0110334
0.0118784
0.0126137
0.0132532
0.013782
0.0141014
0.0143258
-0.0422561
-0.0177528
0.00105445
0.016002
0.0219787
0.0233099
0.0224728
0.0207728
0.0186388
0.0161656
0.0139988
0.0120047
0.0103066
0.00899726
0.00808403
0.00754643
0.00738273
0.00746615
0.00781203
0.00834309
0.00902475
0.00979728
0.0105785
0.011377
0.0121471
0.012828
0.0134299
0.013928
0.0142365
0.0144493
-0.0422987
-0.0223991
-0.00219872
0.0135556
0.0202677
0.0234123
0.0237208
0.02276
0.0205788
0.0182833
0.0161804
0.0140594
0.0123401
0.0109837
0.00991743
0.00921676
0.00884033
0.00874017
0.00890145
0.00925891
0.00977443
0.0103927
0.0110613
0.0117685
0.0124542
0.0130769
0.013634
0.0140968
0.0143894
0.0145879
-0.0534262
-0.0315689
-0.00760593
0.00761641
0.0164863
0.0215064
0.0229673
0.0233861
0.0218892
0.0204788
0.0184587
0.0163983
0.014687
0.0131549
0.0119555
0.0110932
0.010536
0.0102369
0.0101968
0.0103683
0.0107075
0.0111723
0.0117172
0.0122957
0.0128748
0.0134116
0.0138987
0.0143085
0.0145682
0.0147458
-0.0780202
-0.033316
-0.0136174
0.00223743
0.0150959
0.0197684
0.0239057
0.0237691
0.0235489
0.0220994
0.020169
0.0186211
0.0169663
0.0154259
0.0141175
0.0131295
0.0124049
0.0119319
0.0116913
0.011662
0.0118015
0.0120981
0.0124846
0.0129185
0.013381
0.0138129
0.0142141
0.0145577
0.0147716
0.0149237
-0.0783547
-0.0430717
-0.0195513
-0.0013528
0.0114102
0.0174672
0.0238159
0.0239714
0.0253848
0.0237105
0.0223215
0.020823
0.019107
0.0174791
0.0161455
0.0150553
0.0141668
0.0135045
0.0130916
0.0128853
0.0128688
0.0130036
0.0132361
0.0135381
0.0138847
0.0142182
0.0145374
0.0148191
0.014991
0.015119
-0.0691481
-0.0390654
-0.0179074
-0.00076922
0.00896984
0.0177574
0.0209649
0.0228902
0.0247065
0.023742
0.0233538
0.0221783
0.0206211
0.0190764
0.0176783
0.0164792
0.0154839
0.0147432
0.0142044
0.0138661
0.0137157
0.0137184
0.013838
0.0140478
0.0143115
0.014577
0.0148361
0.0150733
0.0152172
0.0153272
-0.0459542
-0.0231593
-0.0069402
0.00849288
0.0134252
0.0226701
0.0224717
0.025572
0.025353
0.0246948
0.0243314
0.022985
0.0216259
0.0202708
0.0189247
0.0176689
0.0166166
0.0157622
0.0151371
0.0147094
0.0144729
0.0143753
0.014401
0.0145234
0.0147129
0.0149197
0.0151289
0.0153296
0.0154526
0.015547
-0.0277854
-0.0116096
-4.88923e-05
0.0115849
0.0148127
0.025302
0.0228472
0.0289284
0.0266433
0.0273412
0.0262289
0.0246518
0.0230936
0.0215161
0.0200595
0.0188267
0.0177551
0.0168573
0.0161463
0.0156397
0.0152989
0.0151058
0.0150471
0.015082
0.0151908
0.0153199
0.0154667
0.0156168
0.0157078
0.0157816
-0.00507695
0.00604663
-0.181931
-0.155518
-0.136467
-0.120268
-0.103414
-0.0885691
-0.0762679
-0.0654544
-0.0553829
-0.0466782
-0.170977
-0.146158
-0.129436
-0.11397
-0.0975331
-0.0842357
-0.0733733
-0.0629169
-0.05311
-0.0449797
-0.0378923
-0.0314812
-0.0253831
-0.0201441
-0.0161195
-0.0112173
-0.00755683
-0.00483503
-0.00143195
0.00115052
0.0033624
0.00553757
0.00738266
0.00897495
0.0103976
0.011522
0.0124566
0.0131567
0.0135759
0.013858
-0.157784
-0.134873
-0.122941
-0.108282
-0.0922416
-0.0807544
-0.0710253
-0.0607559
-0.0516279
-0.0440978
-0.0371381
-0.0307769
-0.0246543
-0.0199778
-0.0157796
-0.0105679
-0.0076304
-0.00457343
-0.00107573
0.00125396
0.00355186
0.0057052
0.00748589
0.00906884
0.010455
0.0115394
0.0124708
0.0131501
0.0135528
0.0138358
-0.142823
-0.124164
-0.114857
-0.100143
-0.0863269
-0.0771085
-0.0678498
-0.0582263
-0.0502078
-0.0432993
-0.0365798
-0.0304017
-0.024678
-0.0204559
-0.0154227
-0.0107292
-0.00814104
-0.00435871
-0.00115362
0.00112543
0.00359041
0.00570656
0.00748339
0.00909425
0.0104542
0.0115356
0.0124752
0.0131383
0.0135338
0.0138196
-0.121302
-0.112133
-0.10625
-0.0936157
-0.0830298
-0.0753018
-0.0666655
-0.0579793
-0.0507531
-0.0438373
-0.0372208
-0.0310766
-0.0259835
-0.021294
-0.0156395
-0.0120511
-0.00871568
-0.00456949
-0.00178374
0.000777868
0.00335418
0.0054669
0.00731738
0.00898734
0.0103553
0.011483
0.0124459
0.0131124
0.0135142
0.0138077
)
;

boundaryField
{
    outlet
    {
        type            fixedValue;
        value           nonuniform 0();
    }
    upperWall
    {
        type            symmetryPlane;
    }
    lowerWall
    {
        type            symmetryPlane;
    }
    inlet
    {
        type            zeroGradient;
    }
    cylinder
    {
        type            zeroGradient;
    }
    frontAndBack
    {
        type            empty;
    }
    procBoundary2to1
    {
        type            processor;
        value           nonuniform List<scalar> 
63
(
-0.667106
-0.667106
-0.585988
-0.52533
-0.52533
-0.465223
-0.415506
-0.415506
-0.367097
-0.326712
-0.290258
-0.290258
-0.266508
-0.237809
-0.211162
-0.211162
-1.23574
-1.26832
-1.26832
-1.23336
-1.17365
-1.10598
-1.06631
-1.06631
-1.05846
-1.05846
-1.00442
-1.00442
-0.890952
-0.890952
-0.772021
-0.772021
-0.191106
-0.163592
-0.141514
-0.123193
-0.105969
-0.0909785
-0.0782168
-0.0673417
-0.0573515
-0.0484457
-0.0392675
-0.0392675
-0.032596
-0.0264728
-0.0209168
-0.0165502
-0.0120842
-0.00802451
-0.00516363
-0.00197396
0.000842902
0.00311378
0.00531065
0.00724473
0.00888222
0.0103376
0.0115148
0.0124595
0.0131726
0.0136089
0.0138886
)
;
    }
    procBoundary2to3
    {
        type            processor;
        value           nonuniform List<scalar> 
43
(
-0.323413
-0.282852
-0.240627
-0.203247
-0.166243
-0.133584
-0.133584
-0.0653972
-0.0423578
-0.0273987
-0.0185059
-0.0185059
0.0136171
0.0214038
0.0242098
0.0274857
0.0260958
0.0286722
0.0277326
0.0285131
0.0273941
0.0262359
0.0248141
0.0233073
0.0218085
0.020461
0.0192395
0.0182515
0.0174525
0.0168294
0.016373
0.0160547
0.015866
0.0157821
0.0157732
0.015803
0.0158664
0.0159458
0.0159894
0.0160352
0.00910599
0.0136171
0.0187865
)
;
    }
    procBoundary2to6
    {
        type            processor;
        value           nonuniform List<scalar> 
37
(
-1.23126
-1.26335
-1.28258
-1.28274
-1.26309
-1.228
-1.17496
-1.09977
-1.01076
-0.925685
-0.857779
-0.82006
-0.801784
-0.807234
-0.840772
-0.890913
-0.963082
-1.03814
-1.03961
-0.924513
-0.747884
-0.5753
-0.450474
-0.373708
-0.336921
-0.331782
-0.361721
-0.436223
-0.558944
-0.710062
-0.821036
-0.824218
-0.711231
-0.550004
-0.423593
-0.349705
-0.3294
)
;
    }
}


// ************************************************************************* //
