/*--------------------------------*- C++ -*----------------------------------*\
| =========                 |                                                 |
| \\      /  F ield         | OpenFOAM: The Open Source CFD Toolbox           |
|  \\    /   O peration     | Version:                                        |
|   \\  /    A nd           | Website:  www.openfoam.com                      |
|    \\/     M anipulation  |                                                 |
\*---------------------------------------------------------------------------*/
FoamFile
{
    version     2.0;
    format      ascii;
    class       volScalarField;
    location    "140";
    object      p;
}
// * * * * * * * * * * * * * * * * * * * * * * * * * * * * * * * * * * * * * //

dimensions      [0 2 -2 0 0 0 0];


internalField   nonuniform List<scalar> 
250
(
1.60624
1.5898
1.57337
1.55695
1.54055
1.52416
1.50779
1.49142
1.47507
1.45872
1.44239
1.42607
1.40976
1.39346
1.37717
1.36089
1.34461
1.32835
1.31209
1.29584
1.2796
1.26337
1.24714
1.23092
1.21471
1.19851
1.18231
1.16612
1.14993
1.13375
1.11757
1.10141
1.08524
1.06909
1.05293
1.03678
1.02064
1.0045
0.98837
0.972241
0.956116
0.939996
0.923879
0.907766
0.891657
0.875552
0.85945
0.843351
0.82725
0.81114
1.60628
1.58984
1.57341
1.55699
1.54059
1.5242
1.50782
1.49145
1.4751
1.45876
1.44242
1.4261
1.40979
1.39349
1.37719
1.36091
1.34464
1.32837
1.31211
1.29586
1.27962
1.26339
1.24716
1.23094
1.21473
1.19852
1.18233
1.16613
1.14995
1.13376
1.11759
1.10142
1.08526
1.0691
1.05294
1.0368
1.02065
1.00451
0.98838
0.97225
0.956125
0.940004
0.923887
0.907773
0.891664
0.875558
0.859455
0.843356
0.827256
0.811149
1.60625
1.58981
1.57338
1.55697
1.54056
1.52417
1.5078
1.49143
1.47508
1.45874
1.4424
1.42608
1.40977
1.39347
1.37718
1.36089
1.34462
1.32835
1.3121
1.29585
1.27961
1.26337
1.24715
1.23093
1.21472
1.19851
1.18231
1.16612
1.14993
1.13375
1.11758
1.10141
1.08525
1.06909
1.05294
1.03679
1.02064
1.00451
0.988372
0.972242
0.956117
0.939996
0.923879
0.907766
0.891657
0.875551
0.859449
0.84335
0.827252
0.811149
1.60624
1.5898
1.57337
1.55696
1.54055
1.52416
1.50779
1.49142
1.47507
1.45873
1.44239
1.42607
1.40976
1.39346
1.37717
1.36089
1.34461
1.32835
1.31209
1.29584
1.2796
1.26337
1.24714
1.23092
1.21471
1.19851
1.18231
1.16612
1.14993
1.13375
1.11757
1.1014
1.08524
1.06908
1.05293
1.03678
1.02064
1.0045
0.988367
0.972237
0.956112
0.939991
0.923874
0.907761
0.891652
0.875546
0.859444
0.843345
0.827249
0.811151
1.60623
1.58978
1.57336
1.55694
1.54054
1.52415
1.50777
1.49141
1.47506
1.45871
1.44238
1.42606
1.40975
1.39345
1.37716
1.36088
1.3446
1.32834
1.31208
1.29583
1.27959
1.26336
1.24713
1.23092
1.2147
1.1985
1.1823
1.16611
1.14992
1.13374
1.11757
1.1014
1.08524
1.06908
1.05292
1.03678
1.02063
1.00449
0.988361
0.972231
0.956106
0.939985
0.923869
0.907756
0.891647
0.875541
0.859439
0.84334
0.827244
0.81115
)
;

boundaryField
{
    inlet
    {
        type            zeroGradient;
    }
    outlet
    {
        type            fixedValue;
        value           nonuniform 0();
    }
    wall
    {
        type            zeroGradient;
    }
    back
    {
        type            wedge;
    }
    front
    {
        type            wedge;
    }
    axis
    {
        type            empty;
    }
    procBoundary2to1
    {
        type            processor;
        value           nonuniform List<scalar> 5(1.6227 1.62274 1.62271 1.6227 1.62268);
    }
    procBoundary2to3
    {
        type            processor;
        value           nonuniform List<scalar> 5(0.795049 0.795054 0.795054 0.795057 0.795059);
    }
    procBoundary2to6
    {
        type            processor;
        value           nonuniform List<scalar> 
50
(
1.60621
1.58977
1.57334
1.55693
1.54053
1.52414
1.50776
1.4914
1.47505
1.45871
1.44237
1.42605
1.40974
1.39344
1.37715
1.36087
1.3446
1.32833
1.31207
1.29583
1.27959
1.26335
1.24713
1.23091
1.2147
1.19849
1.18229
1.1661
1.14992
1.13374
1.11756
1.10139
1.08523
1.06907
1.05292
1.03677
1.02063
1.00449
0.988356
0.972227
0.956102
0.939981
0.923864
0.907752
0.891643
0.875537
0.859435
0.843336
0.827241
0.811149
)
;
    }
}


// ************************************************************************* //
