/*--------------------------------*- C++ -*----------------------------------*\
| =========                 |                                                 |
| \\      /  F ield         | OpenFOAM: The Open Source CFD Toolbox           |
|  \\    /   O peration     | Version:                                        |
|   \\  /    A nd           | Website:  www.openfoam.com                      |
|    \\/     M anipulation  |                                                 |
\*---------------------------------------------------------------------------*/
FoamFile
{
    version     2.0;
    format      ascii;
    class       surfaceScalarField;
    location    "140";
    object      phi;
}
// * * * * * * * * * * * * * * * * * * * * * * * * * * * * * * * * * * * * * //

dimensions      [0 3 -1 0 0 0 0];
oriented        oriented;


internalField   nonuniform List<scalar> 
445
(
3.38281e-06
-1.78584e-09
3.38454e-06
-1.72866e-09
3.38621e-06
-1.67335e-09
3.38783e-06
-1.61985e-09
3.3894e-06
-1.56811e-09
3.39092e-06
-1.51805e-09
3.39239e-06
-1.46963e-09
3.39381e-06
-1.42279e-09
3.39519e-06
-1.37748e-09
3.39652e-06
-1.33365e-09
3.39781e-06
-1.29124e-09
3.39906e-06
-1.25022e-09
3.40027e-06
-1.21052e-09
3.40144e-06
-1.17211e-09
3.40258e-06
-1.13493e-09
3.40368e-06
-1.09895e-09
3.40474e-06
-1.06411e-09
3.40577e-06
-1.03036e-09
3.40677e-06
-9.97668e-10
3.40774e-06
-9.6597e-10
3.40867e-06
-9.35222e-10
3.40958e-06
-9.05363e-10
3.41046e-06
-8.76345e-10
3.4113e-06
-8.48104e-10
3.41212e-06
-8.20591e-10
3.41292e-06
-7.93733e-10
3.41369e-06
-7.67479e-10
3.41443e-06
-7.41761e-10
3.41515e-06
-7.16527e-10
3.41584e-06
-6.91704e-10
3.41651e-06
-6.67243e-10
3.41715e-06
-6.43088e-10
3.41777e-06
-6.1919e-10
3.41837e-06
-5.95511e-10
3.41894e-06
-5.71985e-10
3.41949e-06
-5.48637e-10
3.42002e-06
-5.25362e-10
3.42052e-06
-5.02276e-10
3.421e-06
-4.79181e-10
3.42146e-06
-4.56362e-10
3.4219e-06
-4.33475e-10
3.42231e-06
-4.11007e-10
3.4227e-06
-3.88454e-10
3.42307e-06
-3.66353e-10
3.42341e-06
-3.44615e-10
3.42374e-06
-3.22528e-10
3.42404e-06
-3.02617e-10
3.42433e-06
-2.80771e-10
3.42459e-06
-2.63056e-10
-2.51114e-10
9.98154e-06
-6.56557e-09
9.98616e-06
-6.35516e-09
9.99064e-06
-6.15166e-09
9.99498e-06
-5.95485e-09
9.99917e-06
-5.76448e-09
1.00032e-05
-5.58035e-09
1.00072e-05
-5.40224e-09
1.0011e-05
-5.22997e-09
1.00147e-05
-5.06331e-09
1.00182e-05
-4.9021e-09
1.00217e-05
-4.74613e-09
1.0025e-05
-4.59526e-09
1.00283e-05
-4.44928e-09
1.00314e-05
-4.30805e-09
1.00344e-05
-4.17136e-09
1.00374e-05
-4.03909e-09
1.00402e-05
-3.91102e-09
1.0043e-05
-3.78705e-09
1.00457e-05
-3.66691e-09
1.00482e-05
-3.55053e-09
1.00507e-05
-3.43762e-09
1.00532e-05
-3.32808e-09
1.00555e-05
-3.22161e-09
1.00578e-05
-3.11814e-09
1.006e-05
-3.01731e-09
1.00621e-05
-2.91903e-09
1.00642e-05
-2.82296e-09
1.00662e-05
-2.72901e-09
1.00681e-05
-2.63682e-09
1.00699e-05
-2.54628e-09
1.00717e-05
-2.45705e-09
1.00735e-05
-2.3691e-09
1.00751e-05
-2.28205e-09
1.00767e-05
-2.19591e-09
1.00783e-05
-2.11031e-09
1.00797e-05
-2.02543e-09
1.00812e-05
-1.94081e-09
1.00825e-05
-1.85685e-09
1.00838e-05
-1.7729e-09
1.0085e-05
-1.68982e-09
1.00862e-05
-1.60662e-09
1.00873e-05
-1.52461e-09
1.00884e-05
-1.44264e-09
1.00894e-05
-1.3617e-09
1.00903e-05
-1.28252e-09
1.00912e-05
-1.20209e-09
1.00921e-05
-1.12729e-09
1.00928e-05
-1.04807e-09
1.00935e-05
-9.77367e-10
-9.23017e-10
1.60174e-05
-1.26261e-08
1.60232e-05
-1.22209e-08
1.60289e-05
-1.18291e-08
1.60344e-05
-1.14502e-08
1.60397e-05
-1.10838e-08
1.60449e-05
-1.07294e-08
1.60499e-05
-1.03866e-08
1.60547e-05
-1.0055e-08
1.60594e-05
-9.7343e-09
1.60639e-05
-9.42406e-09
1.60683e-05
-9.124e-09
1.60725e-05
-8.83369e-09
1.60766e-05
-8.55289e-09
1.60806e-05
-8.28116e-09
1.60844e-05
-8.01832e-09
1.60882e-05
-7.76391e-09
1.60918e-05
-7.51775e-09
1.60953e-05
-7.27937e-09
1.60986e-05
-7.04862e-09
1.61019e-05
-6.82498e-09
1.61051e-05
-6.60829e-09
1.61082e-05
-6.39801e-09
1.61111e-05
-6.19398e-09
1.6114e-05
-5.9956e-09
1.61168e-05
-5.80268e-09
1.61195e-05
-5.61462e-09
1.61221e-05
-5.43119e-09
1.61246e-05
-5.25179e-09
1.61271e-05
-5.07613e-09
1.61294e-05
-4.90367e-09
1.61317e-05
-4.73409e-09
1.61339e-05
-4.56696e-09
1.6136e-05
-4.4018e-09
1.61381e-05
-4.23848e-09
1.61401e-05
-4.07637e-09
1.6142e-05
-3.91567e-09
1.61438e-05
-3.75551e-09
1.61455e-05
-3.59663e-09
1.61472e-05
-3.4378e-09
1.61488e-05
-3.28052e-09
1.61503e-05
-3.12298e-09
1.61518e-05
-2.96742e-09
1.61532e-05
-2.81201e-09
1.61545e-05
-2.65831e-09
1.61557e-05
-2.5075e-09
1.61569e-05
-2.35457e-09
1.61579e-05
-2.21098e-09
1.6159e-05
-2.06235e-09
1.61599e-05
-1.92086e-09
-1.80902e-09
2.10857e-05
-1.77957e-08
2.10907e-05
-1.72239e-08
2.10955e-05
-1.6671e-08
2.11002e-05
-1.61364e-08
2.11047e-05
-1.56194e-08
2.11091e-05
-1.51194e-08
2.11134e-05
-1.46358e-08
2.11175e-05
-1.41682e-08
2.11215e-05
-1.37158e-08
2.11253e-05
-1.32783e-08
2.11291e-05
-1.28551e-08
2.11327e-05
-1.24458e-08
2.11362e-05
-1.20499e-08
2.11396e-05
-1.16669e-08
2.11428e-05
-1.12963e-08
2.1146e-05
-1.09379e-08
2.11491e-05
-1.05909e-08
2.11521e-05
-1.02553e-08
2.11549e-05
-9.93028e-09
2.11577e-05
-9.61569e-09
2.11604e-05
-9.31081e-09
2.11631e-05
-9.01542e-09
2.11656e-05
-8.72879e-09
2.11681e-05
-8.45065e-09
2.11704e-05
-8.18021e-09
2.11727e-05
-7.9172e-09
2.1175e-05
-7.66078e-09
2.11771e-05
-7.41061e-09
2.11792e-05
-7.16586e-09
2.11812e-05
-6.92617e-09
2.11832e-05
-6.69074e-09
2.11851e-05
-6.45917e-09
2.11869e-05
-6.2307e-09
2.11887e-05
-6.00504e-09
2.11904e-05
-5.78148e-09
2.11921e-05
-5.55985e-09
2.11937e-05
-5.33943e-09
2.11952e-05
-5.12047e-09
2.11967e-05
-4.90213e-09
2.11981e-05
-4.68518e-09
2.11994e-05
-4.46854e-09
2.12007e-05
-4.2535e-09
2.1202e-05
-4.03944e-09
2.12031e-05
-3.82649e-09
2.12042e-05
-3.61754e-09
2.12053e-05
-3.40627e-09
2.12063e-05
-3.20519e-09
2.12073e-05
-2.99929e-09
2.12081e-05
-2.80232e-09
-2.63474e-09
2.47591e-05
2.47615e-05
2.47638e-05
2.4766e-05
2.47682e-05
2.47702e-05
2.47722e-05
2.47742e-05
2.47761e-05
2.47779e-05
2.47796e-05
2.47813e-05
2.4783e-05
2.47846e-05
2.47861e-05
2.47876e-05
2.47891e-05
2.47905e-05
2.47919e-05
2.47932e-05
2.47945e-05
2.47957e-05
2.47969e-05
2.47981e-05
2.47992e-05
2.48003e-05
2.48013e-05
2.48024e-05
2.48034e-05
2.48043e-05
2.48053e-05
2.48062e-05
2.48071e-05
2.4808e-05
2.48088e-05
2.48096e-05
2.48104e-05
2.48112e-05
2.4812e-05
2.48127e-05
2.48134e-05
2.48141e-05
2.48147e-05
2.48154e-05
2.4816e-05
2.48166e-05
2.48172e-05
2.48177e-05
2.48182e-05
)
;

boundaryField
{
    inlet
    {
        type            calculated;
        value           nonuniform 0();
    }
    outlet
    {
        type            calculated;
        value           nonuniform 0();
    }
    wall
    {
        type            calculated;
        value           nonuniform 0();
    }
    back
    {
        type            wedge;
        value           nonuniform List<scalar> 
250
(
-4.06626e-20
-8.82e-20
-6.90783e-19
1.798e-18
-4.55951e-18
-5.71442e-20
-1.07964e-19
-6.79081e-19
1.73451e-18
-4.4171e-18
-4.5024e-20
-9.40645e-20
-6.52253e-19
1.68204e-18
-4.26946e-18
-4.1634e-20
-1.08388e-19
-6.36873e-19
1.61953e-18
-4.13972e-18
-4.20313e-20
-1.01784e-19
-6.20602e-19
1.56728e-18
-4.00224e-18
-5.60945e-20
-1.12919e-19
-6.11058e-19
1.51002e-18
-3.87796e-18
-4.08401e-20
-9.45439e-20
-5.85629e-19
1.46397e-18
-3.75295e-18
-5.67593e-20
-1.17821e-19
-5.76114e-19
1.40814e-18
-3.63575e-18
-3.37524e-20
-9.7705e-20
-5.56274e-19
1.36683e-18
-3.51955e-18
-4.94091e-20
-1.06032e-19
-5.40138e-19
1.32123e-18
-3.4088e-18
-4.74443e-20
-1.02782e-19
-5.24075e-19
1.27655e-18
-3.3022e-18
-4.42305e-20
-1.02868e-19
-5.14411e-19
1.23604e-18
-3.18803e-18
-7.07148e-20
-1.21764e-19
-4.98273e-19
1.18357e-18
-3.10049e-18
-2.24719e-20
-8.79151e-20
-4.76655e-19
1.15649e-18
-2.99986e-18
-3.60279e-20
-1.05807e-19
-4.72212e-19
1.11195e-18
-2.91247e-18
-5.06594e-20
-9.90614e-20
-4.56064e-19
1.07844e-18
-2.81541e-18
-5.74143e-20
-1.13856e-19
-4.48061e-19
1.03776e-18
-2.73021e-18
-4.06256e-20
-9.31854e-20
-4.29862e-19
1.0103e-18
-2.6381e-18
-3.99389e-20
-9.87296e-20
-4.26794e-19
9.71966e-19
-2.56087e-18
-3.36224e-20
-8.23838e-20
-4.12578e-19
9.39151e-19
-2.47795e-18
-4.63182e-20
-9.75928e-20
-4.04643e-19
8.99497e-19
-2.40553e-18
-2.98192e-20
-8.44789e-20
-3.8742e-19
8.77576e-19
-2.32682e-18
-4.57487e-20
-1.00204e-19
-3.81347e-19
8.42018e-19
-2.26218e-18
-4.05058e-20
-9.07272e-20
-3.70354e-19
8.16454e-19
-2.18648e-18
-5.25744e-20
-1.0356e-19
-3.65762e-19
7.83941e-19
-2.12256e-18
-3.67113e-20
-8.14642e-20
-3.50954e-19
7.61074e-19
-2.05127e-18
-4.51161e-20
-9.57753e-20
-3.47996e-19
7.28297e-19
-1.99154e-18
-4.41093e-20
-8.64156e-20
-3.32262e-19
7.08861e-19
-1.92329e-18
-4.19184e-20
-9.24017e-20
-3.24216e-19
6.80185e-19
-1.86518e-18
-3.49029e-20
-8.2333e-20
-3.11736e-19
6.61092e-19
-1.80029e-18
-4.01596e-20
-9.08427e-20
-3.0931e-19
6.31061e-19
-1.74473e-18
-3.24968e-20
-7.74394e-20
-2.9596e-19
6.1159e-19
-1.68504e-18
-4.80694e-20
-8.93111e-20
-2.9039e-19
5.85898e-19
-1.62889e-18
-3.588e-20
-7.93004e-20
-2.78818e-19
5.64529e-19
-1.56908e-18
-4.22212e-20
-8.70293e-20
-2.73047e-19
5.37959e-19
-1.514e-18
-3.71011e-20
-7.61846e-20
-2.62177e-19
5.16943e-19
-1.45955e-18
-2.45016e-20
-7.15707e-20
-2.5336e-19
4.95279e-19
-1.39883e-18
-4.43285e-20
-8.25247e-20
-2.46003e-19
4.68648e-19
-1.34986e-18
-3.6122e-20
-7.41499e-20
-2.31836e-19
4.51682e-19
-1.29632e-18
-2.88224e-20
-7.42269e-20
-2.23769e-19
4.27855e-19
-1.24398e-18
-1.94314e-20
-5.72992e-20
-2.11217e-19
4.10968e-19
-1.1834e-18
-2.68354e-20
-6.34634e-20
-2.06887e-19
3.84162e-19
-1.13137e-18
-2.39552e-20
-5.82255e-20
-1.9453e-19
3.68166e-19
-1.07262e-18
-3.45247e-20
-6.56938e-20
-1.90383e-19
3.44861e-19
-1.0229e-18
-2.9647e-20
-6.17553e-20
-1.79324e-19
3.24751e-19
-9.68195e-19
-3.19714e-20
-6.22533e-20
-1.72269e-19
2.9982e-19
-9.15961e-19
-3.85181e-20
-6.18988e-20
-1.64144e-19
2.79574e-19
-8.63952e-19
-2.91799e-20
-6.29324e-20
-1.55162e-19
2.57785e-19
-8.12078e-19
-1.87124e-20
-4.98867e-20
-1.44597e-19
2.45044e-19
-7.55732e-19
-2.67539e-20
-5.52514e-20
-1.39536e-19
2.22136e-19
-7.09091e-19
)
;
    }
    front
    {
        type            wedge;
        value           nonuniform List<scalar> 
250
(
4.06663e-20
8.821e-20
-4.39736e-19
2.09211e-18
-4.26384e-18
5.71479e-20
1.07974e-19
-4.15163e-19
2.03061e-18
-4.12237e-18
4.50277e-20
9.4074e-20
-4.06912e-19
1.96221e-18
-3.99556e-18
4.16378e-20
1.08397e-19
-3.88368e-19
1.90785e-18
-3.85994e-18
4.20346e-20
1.01793e-19
-3.7183e-19
1.84709e-18
-3.74083e-18
5.60978e-20
1.12928e-19
-3.49642e-19
1.79505e-18
-3.61701e-18
4.08432e-20
9.45521e-20
-3.4438e-19
1.73541e-18
-3.5021e-18
5.67624e-20
1.17829e-19
-3.24211e-19
1.68901e-18
-3.38727e-18
3.37553e-20
9.77131e-20
-3.15338e-19
1.63145e-18
-3.27907e-18
4.94121e-20
1.0604e-19
-3.03701e-19
1.58143e-18
-3.17281e-18
4.7447e-20
1.02789e-19
-2.92899e-19
1.53362e-18
-3.06953e-18
4.42332e-20
1.02875e-19
-2.76575e-19
1.48466e-18
-2.98069e-18
7.07175e-20
1.21771e-19
-2.67572e-19
1.45059e-18
-2.87188e-18
2.24743e-20
8.79217e-20
-2.64866e-19
1.39395e-18
-2.78261e-18
3.60304e-20
1.05814e-19
-2.45776e-19
1.35751e-18
-2.6863e-18
5.06618e-20
9.90673e-20
-2.39149e-19
1.31267e-18
-2.60567e-18
5.74166e-20
1.13862e-19
-2.25109e-19
1.27753e-18
-2.51896e-18
4.06277e-20
9.3191e-20
-2.21968e-19
1.23161e-18
-2.44475e-18
3.9941e-20
9.8735e-20
-2.04369e-19
1.1989e-18
-2.36103e-18
3.36245e-20
8.2389e-20
-1.98558e-19
1.16292e-18
-2.28815e-18
4.63202e-20
9.75982e-20
-1.8708e-19
1.13591e-18
-2.20972e-18
2.98212e-20
8.4484e-20
-1.85467e-19
1.0932e-18
-2.14228e-18
4.57507e-20
1.00209e-19
-1.7325e-19
1.06605e-18
-2.06525e-18
4.05076e-20
9.0732e-20
-1.66463e-19
1.03071e-18
-2.00351e-18
5.25762e-20
1.03565e-19
-1.5375e-19
1.00401e-18
-1.93398e-18
3.67131e-20
8.14685e-20
-1.51689e-19
9.69231e-19
-1.87554e-18
4.51177e-20
9.57796e-20
-1.38178e-19
9.458e-19
-1.80898e-18
4.41109e-20
8.64199e-20
-1.37806e-19
9.10344e-19
-1.75411e-18
4.192e-20
9.24057e-20
-1.30066e-19
8.85298e-19
-1.69196e-18
3.49044e-20
8.23369e-20
-1.27047e-19
8.51722e-19
-1.63919e-18
4.0161e-20
9.08463e-20
-1.14215e-19
8.29995e-19
-1.57935e-18
3.24982e-20
7.74429e-20
-1.12527e-19
7.98521e-19
-1.52568e-18
4.80708e-20
8.93146e-20
-1.03228e-19
7.73917e-19
-1.47013e-18
3.58813e-20
7.93037e-20
-1.00092e-19
7.4558e-19
-1.41975e-18
4.22225e-20
8.70326e-20
-9.12581e-20
7.22869e-19
-1.36577e-18
3.71023e-20
7.61876e-20
-8.76467e-20
6.95036e-19
-1.31222e-18
2.45028e-20
7.15737e-20
-8.20326e-20
6.68076e-19
-1.26559e-18
4.43296e-20
8.25275e-20
-7.5069e-20
6.46427e-19
-1.20799e-18
3.6123e-20
7.41527e-20
-7.49249e-20
6.15204e-19
-1.15526e-18
2.88234e-20
7.42294e-20
-6.88147e-20
5.91203e-19
-1.10201e-18
1.94324e-20
5.73017e-20
-6.71812e-20
5.60293e-19
-1.05712e-18
2.68363e-20
6.34657e-20
-5.74948e-20
5.39715e-19
-1.00437e-18
2.3956e-20
5.82275e-20
-5.58736e-20
5.08514e-19
-9.58698e-19
3.45255e-20
6.56959e-20
-4.6167e-20
4.84905e-19
-9.04511e-19
2.96477e-20
6.17573e-20
-4.36964e-20
4.5908e-19
-8.56838e-19
3.19721e-20
6.22551e-20
-3.70042e-20
4.37462e-19
-8.06013e-19
3.85187e-20
6.19006e-20
-3.22697e-20
4.13534e-19
-7.58545e-19
2.91805e-20
6.2934e-20
-2.77688e-20
3.90026e-19
-7.10237e-19
1.8713e-20
4.98882e-20
-2.53753e-20
3.58441e-19
-6.67792e-19
2.67544e-20
5.52528e-20
-1.87411e-20
3.40041e-19
-6.18257e-19
)
;
    }
    axis
    {
        type            empty;
        value           nonuniform 0();
    }
    procBoundary2to1
    {
        type            processor;
        value           nonuniform List<scalar> 5(-3.38102e-06 -9.97676e-06 -1.60113e-05 -2.10805e-05 -2.47567e-05);
    }
    procBoundary2to3
    {
        type            processor;
        value           nonuniform List<scalar> 5(3.42484e-06 1.00942e-05 1.61608e-05 2.1209e-05 2.48187e-05);
    }
    procBoundary2to6
    {
        type            processor;
        value           nonuniform List<scalar> 
50
(
-2.02399e-08
-1.95889e-08
-1.89595e-08
-1.83509e-08
-1.77625e-08
-1.71935e-08
-1.66432e-08
-1.6111e-08
-1.55963e-08
-1.50985e-08
-1.46171e-08
-1.41513e-08
-1.3701e-08
-1.32652e-08
-1.28439e-08
-1.24361e-08
-1.20418e-08
-1.16602e-08
-1.12911e-08
-1.09337e-08
-1.05879e-08
-1.02528e-08
-9.92823e-09
-9.61334e-09
-9.30785e-09
-9.01094e-09
-8.72221e-09
-8.4408e-09
-8.16624e-09
-7.8978e-09
-7.6348e-09
-7.3766e-09
-7.12241e-09
-6.87192e-09
-6.62408e-09
-6.37889e-09
-6.13514e-09
-5.89346e-09
-5.65231e-09
-5.41289e-09
-5.17347e-09
-4.93589e-09
-4.69866e-09
-4.46301e-09
-4.22986e-09
-3.99621e-09
-3.76984e-09
-3.54314e-09
-3.31979e-09
-3.11508e-09
)
;
    }
}


// ************************************************************************* //
