/*--------------------------------*- C++ -*----------------------------------*\
| =========                 |                                                 |
| \\      /  F ield         | OpenFOAM: The Open Source CFD Toolbox           |
|  \\    /   O peration     | Version:                                        |
|   \\  /    A nd           | Website:  www.openfoam.com                      |
|    \\/     M anipulation  |                                                 |
\*---------------------------------------------------------------------------*/
FoamFile
{
    version     2.0;
    format      ascii;
    class       volVectorField;
    location    "140";
    object      U;
}
// * * * * * * * * * * * * * * * * * * * * * * * * * * * * * * * * * * * * * //

dimensions      [0 1 -1 0 0 0 0];


internalField   nonuniform List<vector> 
250
(
(1.94401 -0.000322639 2.09187e-15)
(1.94502 -0.000312313 3.18561e-15)
(1.946 -0.000302326 1.34055e-15)
(1.94695 -0.000292665 2.29135e-15)
(1.94786 -0.00028332 2.20645e-15)
(1.94875 -0.00027428 3.09013e-15)
(1.94961 -0.000265535 1.51971e-15)
(1.95044 -0.000257076 2.85717e-15)
(1.95124 -0.000248892 7.56819e-16)
(1.95202 -0.000240975 3.43069e-15)
(1.95278 -0.000233315 1.43984e-15)
(1.95351 -0.000225904 3.01798e-15)
(1.95421 -0.000218734 2.37084e-15)
(1.9549 -0.000211794 3.38893e-16)
(1.95556 -0.000205079 2.88962e-15)
(1.9562 -0.000198578 2.51356e-15)
(1.95683 -0.000192284 2.64867e-15)
(1.95743 -0.000186187 1.30605e-15)
(1.95801 -0.00018028 1.89932e-15)
(1.95858 -0.000174553 1.504e-15)
(1.95912 -0.000168998 2.18075e-15)
(1.95965 -0.000163602 8.01531e-16)
(1.96016 -0.000158358 2.91928e-15)
(1.96066 -0.000153254 1.54414e-15)
(1.96114 -0.000148282 3.14802e-15)
(1.9616 -0.000143428 1.26225e-15)
(1.96205 -0.000138682 2.77009e-15)
(1.96249 -0.000134033 1.54352e-15)
(1.9629 -0.000129472 2.09083e-15)
(1.96331 -0.000124984 1.5646e-15)
(1.9637 -0.000120562 2.12752e-15)
(1.96408 -0.000116194 1.38259e-15)
(1.96444 -0.000111873 2.88068e-15)
(1.96479 -0.000107591 1.21215e-15)
(1.96513 -0.000103337 2.3998e-15)
(1.96545 -9.91141e-05 1.16781e-15)
(1.96576 -9.49053e-05 1.42176e-15)
(1.96606 -9.07304e-05 2.08342e-15)
(1.96634 -8.65536e-05 1.17346e-15)
(1.96661 -8.24278e-05 9.12912e-16)
(1.96686 -7.82878e-05 1.03558e-15)
(1.96711 -7.42273e-05 1.51309e-15)
(1.96734 -7.01468e-05 1.14852e-15)
(1.96756 -6.61522e-05 2.15663e-15)
(1.96776 -6.2226e-05 1.40429e-15)
(1.96796 -5.82193e-05 2.07898e-15)
(1.96814 -5.46357e-05 1.47101e-15)
(1.96831 -5.06624e-05 1.0558e-15)
(1.96846 -4.74336e-05 1.02031e-15)
(1.96861 -4.54866e-05 1.48961e-15)
(1.91209 -0.000801698 3.34003e-15)
(1.91299 -0.000776022 4.87749e-15)
(1.91386 -0.000751189 3.74375e-15)
(1.91471 -0.000727169 4.80234e-15)
(1.91553 -0.000703935 4.25201e-15)
(1.91632 -0.000681462 4.82278e-15)
(1.91708 -0.000659722 3.91991e-15)
(1.91782 -0.000638694 5.26189e-15)
(1.91854 -0.000618351 3.87884e-15)
(1.91924 -0.000598672 4.78526e-15)
(1.91991 -0.000579632 4.34241e-15)
(1.92056 -0.000561214 4.57397e-15)
(1.92119 -0.000543391 5.05796e-15)
(1.9218 -0.000526148 3.56443e-15)
(1.92239 -0.000509457 4.74197e-15)
(1.92297 -0.000493306 4.14471e-15)
(1.92352 -0.000477665 5.02586e-15)
(1.92406 -0.000462521 3.56513e-15)
(1.92458 -0.000447845 4.11091e-15)
(1.92508 -0.000433623 3.05129e-15)
(1.92557 -0.000419822 4.39991e-15)
(1.92604 -0.000406429 3.37963e-15)
(1.9265 -0.000393408 4.42057e-15)
(1.92694 -0.000380745 3.76414e-15)
(1.92737 -0.000368403 4.50155e-15)
(1.92778 -0.000356365 3.16358e-15)
(1.92818 -0.000344593 4.17513e-15)
(1.92857 -0.000333071 3.51819e-15)
(1.92894 -0.00032176 3.99845e-15)
(1.9293 -0.000310643 3.35337e-15)
(1.92965 -0.000299683 3.8233e-15)
(1.92999 -0.00028887 3.02371e-15)
(1.93032 -0.000278166 3.87129e-15)
(1.93063 -0.000267567 3.21465e-15)
(1.93093 -0.000257033 3.69246e-15)
(1.93122 -0.000246583 2.97832e-15)
(1.9315 -0.000236164 3.04581e-15)
(1.93176 -0.000225827 3.37261e-15)
(1.93202 -0.000215489 3.04512e-15)
(1.93226 -0.000205268 2.93161e-15)
(1.93249 -0.000195024 2.24404e-15)
(1.93271 -0.000184948 2.71367e-15)
(1.93292 -0.00017486 2.34851e-15)
(1.93312 -0.000164932 2.78127e-15)
(1.9333 -0.000155204 2.58736e-15)
(1.93348 -0.000145319 2.63224e-15)
(1.93364 -0.00013626 2.51902e-15)
(1.9338 -0.000126469 2.58909e-15)
(1.93394 -0.000117965 2.10842e-15)
(1.93407 -0.000111811 2.39893e-15)
(1.84109 -0.0011256 4.98144e-15)
(1.84178 -0.00108951 5.41515e-15)
(1.84244 -0.0010546 4.8674e-15)
(1.84308 -0.00102084 4.98961e-15)
(1.8437 -0.000988187 5.12412e-15)
(1.8443 -0.000956605 5.21886e-15)
(1.84489 -0.000926059 4.76229e-15)
(1.84545 -0.000896512 5.10364e-15)
(1.846 -0.000867931 4.89675e-15)
(1.84652 -0.000840283 4.62211e-15)
(1.84704 -0.000813539 4.65261e-15)
(1.84753 -0.000787666 4.63727e-15)
(1.84801 -0.000762636 4.25312e-15)
(1.84847 -0.000738417 4.2861e-15)
(1.84892 -0.000714985 4.46542e-15)
(1.84936 -0.000692305 4.37205e-15)
(1.84978 -0.000670355 4.39882e-15)
(1.85019 -0.000649099 4.20558e-15)
(1.85058 -0.000628516 4.56945e-15)
(1.85097 -0.000608567 4.24272e-15)
(1.85134 -0.000589228 4.27219e-15)
(1.8517 -0.00057046 4.01733e-15)
(1.85204 -0.000552237 4.08075e-15)
(1.85238 -0.000534517 4.10516e-15)
(1.85271 -0.000517269 4.26864e-15)
(1.85302 -0.000500452 3.99527e-15)
(1.85333 -0.000484032 4.24236e-15)
(1.85362 -0.000467969 3.83429e-15)
(1.85391 -0.000452223 3.86484e-15)
(1.85418 -0.00043676 3.73481e-15)
(1.85445 -0.000421535 3.96784e-15)
(1.85471 -0.000406527 3.62926e-15)
(1.85496 -0.000391682 3.74017e-15)
(1.8552 -0.000376996 3.56326e-15)
(1.85543 -0.000362409 3.61953e-15)
(1.85565 -0.000347946 3.47889e-15)
(1.85586 -0.000333526 3.35311e-15)
(1.85607 -0.000319222 3.33991e-15)
(1.85626 -0.000304918 3.09032e-15)
(1.85645 -0.000290761 3.03116e-15)
(1.85663 -0.00027658 2.87149e-15)
(1.8568 -0.000262591 3.046e-15)
(1.85697 -0.000248616 2.77782e-15)
(1.85712 -0.000234802 2.91535e-15)
(1.85727 -0.000221277 2.67072e-15)
(1.8574 -0.000207548 2.70587e-15)
(1.85753 -0.000194716 2.62686e-15)
(1.85766 -0.000181296 2.53148e-15)
(1.85777 -0.00016884 2.44603e-15)
(1.85787 -0.000158928 2.4318e-15)
(1.7313 -0.00129388 5.98922e-15)
(1.73172 -0.00125233 6.00916e-15)
(1.73212 -0.00121215 5.66267e-15)
(1.73251 -0.0011733 5.86239e-15)
(1.73289 -0.00113572 5.60372e-15)
(1.73326 -0.00109939 5.85588e-15)
(1.73361 -0.00106424 5.50304e-15)
(1.73395 -0.00103025 5.79849e-15)
(1.73429 -0.000997372 5.31873e-15)
(1.73461 -0.000965571 5.36376e-15)
(1.73492 -0.000934811 5.20711e-15)
(1.73522 -0.000905056 5.21366e-15)
(1.73551 -0.000876273 5.43402e-15)
(1.73579 -0.000848427 4.66287e-15)
(1.73607 -0.000821488 5.13618e-15)
(1.73633 -0.000795422 4.74429e-15)
(1.73659 -0.000770198 4.8826e-15)
(1.73684 -0.000745783 4.31105e-15)
(1.73708 -0.000722144 4.61136e-15)
(1.73731 -0.00069925 4.58828e-15)
(1.73754 -0.000677064 4.91009e-15)
(1.73776 -0.000655552 4.20277e-15)
(1.73797 -0.000634677 4.66562e-15)
(1.73817 -0.000614402 4.26908e-15)
(1.73837 -0.000594685 4.50484e-15)
(1.73856 -0.000575486 4.19532e-15)
(1.73875 -0.000556764 4.48059e-15)
(1.73893 -0.000538475 3.99268e-15)
(1.7391 -0.000520573 4.21012e-15)
(1.73927 -0.000503018 3.77269e-15)
(1.73944 -0.000485763 4.11454e-15)
(1.7396 -0.000468774 3.71328e-15)
(1.73975 -0.000451998 3.89216e-15)
(1.7399 -0.000435415 3.66745e-15)
(1.74004 -0.000418971 3.86148e-15)
(1.74018 -0.000402666 3.57961e-15)
(1.74031 -0.000386434 3.60772e-15)
(1.74044 -0.000370316 3.59294e-15)
(1.74056 -0.000354227 3.29376e-15)
(1.74068 -0.000338262 3.30965e-15)
(1.74079 -0.0003223 3.03895e-15)
(1.7409 -0.00030649 3.25817e-15)
(1.74101 -0.000290733 2.76447e-15)
(1.7411 -0.000275092 2.86046e-15)
(1.7412 -0.000259762 2.71647e-15)
(1.74129 -0.000244224 2.89034e-15)
(1.74137 -0.000229539 2.71264e-15)
(1.74145 -0.000214437 2.67457e-15)
(1.74153 -0.000199973 2.27467e-15)
(1.7416 -0.000188033 2.48754e-15)
(1.58127 -0.00125708 5.77634e-15)
(1.58143 -0.00121666 5.94361e-15)
(1.58157 -0.00117757 5.28778e-15)
(1.58172 -0.00113979 5.57663e-15)
(1.58186 -0.00110325 4.98905e-15)
(1.58199 -0.00106791 5.17219e-15)
(1.58212 -0.00103374 4.89009e-15)
(1.58225 -0.00100069 4.901e-15)
(1.58237 -0.000968727 4.73474e-15)
(1.58249 -0.000937812 4.65267e-15)
(1.5826 -0.000907912 4.43893e-15)
(1.58271 -0.000878992 4.05473e-15)
(1.58282 -0.000851018 4.77634e-15)
(1.58292 -0.000823959 4.186e-15)
(1.58303 -0.000797785 4.57604e-15)
(1.58312 -0.000772464 4.01443e-15)
(1.58322 -0.000747967 4.14315e-15)
(1.58331 -0.000724264 3.65559e-15)
(1.5834 -0.000701324 3.91001e-15)
(1.58348 -0.000679118 3.67974e-15)
(1.58356 -0.000657614 3.8231e-15)
(1.58364 -0.00063678 3.61627e-15)
(1.58372 -0.000616582 4.01307e-15)
(1.5838 -0.000596986 3.51203e-15)
(1.58387 -0.000577954 3.78972e-15)
(1.58394 -0.000559453 3.40372e-15)
(1.58401 -0.000541438 3.65711e-15)
(1.58408 -0.000523874 3.25389e-15)
(1.58414 -0.000506712 3.50269e-15)
(1.58421 -0.000489921 3.14847e-15)
(1.58427 -0.000473448 3.34051e-15)
(1.58433 -0.000457263 3.1197e-15)
(1.58438 -0.00044131 3.14505e-15)
(1.58444 -0.000425572 2.91896e-15)
(1.5845 -0.00040999 2.96069e-15)
(1.58455 -0.000394558 2.83647e-15)
(1.5846 -0.000379213 2.65202e-15)
(1.58465 -0.000363981 2.89407e-15)
(1.5847 -0.000348788 2.72429e-15)
(1.58475 -0.000333696 2.79298e-15)
(1.58479 -0.000318615 2.446e-15)
(1.58484 -0.000303643 2.5364e-15)
(1.58488 -0.000288717 2.18602e-15)
(1.58492 -0.000273879 2.38537e-15)
(1.58496 -0.000259251 2.1356e-15)
(1.585 -0.000244538 2.18044e-15)
(1.58504 -0.000230382 2.02109e-15)
(1.58507 -0.000216093 1.90804e-15)
(1.58511 -0.000202164 1.66278e-15)
(1.58514 -0.00018975 1.78157e-15)
)
;

boundaryField
{
    inlet
    {
        type            fixedValue;
        value           nonuniform 0();
    }
    outlet
    {
        type            zeroGradient;
    }
    wall
    {
        type            noSlip;
    }
    back
    {
        type            wedge;
    }
    front
    {
        type            wedge;
    }
    axis
    {
        type            empty;
    }
    procBoundary2to1
    {
        type            processor;
        value           nonuniform List<vector> 5((1.94297 -0.000333315 3.15675e-15) (1.91116 -0.000828245 4.54525e-15) (1.84038 -0.00116293 5.51611e-15) (1.73087 -0.00133685 6.18583e-15) (1.58111 -0.00129889 6.40008e-15));
    }
    procBoundary2to3
    {
        type            processor;
        value           nonuniform List<vector> 5((1.96875 -4.24991e-05 9.83633e-16) (1.9342 -0.000105253 2.08379e-15) (1.85798 -0.000150536 2.13829e-15) (1.74167 -0.000178182 2.08623e-15) (1.58517 -0.00018013 1.53245e-15));
    }
    procBoundary2to6
    {
        type            processor;
        value           nonuniform List<vector> 
50
(
(1.38964 -0.00105737 5.31085e-15)
(1.38958 -0.00102335 5.31917e-15)
(1.38953 -0.000990456 4.86822e-15)
(1.38947 -0.000958653 5.21205e-15)
(1.38942 -0.000927904 4.80891e-15)
(1.38937 -0.000898168 4.862e-15)
(1.38932 -0.000869414 4.40045e-15)
(1.38927 -0.000841606 4.50823e-15)
(1.38922 -0.000814712 4.29561e-15)
(1.38917 -0.000788701 4.43585e-15)
(1.38913 -0.000763545 4.147e-15)
(1.38909 -0.000739213 4.12427e-15)
(1.38905 -0.000715681 4.13642e-15)
(1.38901 -0.000692917 3.58902e-15)
(1.38897 -0.000670902 3.98084e-15)
(1.38893 -0.000649606 3.55112e-15)
(1.38889 -0.000629009 3.66322e-15)
(1.38886 -0.000609082 3.21956e-15)
(1.38882 -0.000589808 3.73516e-15)
(1.38879 -0.000571156 3.16674e-15)
(1.38876 -0.000553108 3.61826e-15)
(1.38873 -0.000535632 3.12368e-15)
(1.3887 -0.000518711 3.41126e-15)
(1.38867 -0.000502309 2.97249e-15)
(1.38864 -0.000486406 3.24979e-15)
(1.38861 -0.000470967 3.03606e-15)
(1.38859 -0.000455965 3.26597e-15)
(1.38856 -0.000441363 2.99881e-15)
(1.38854 -0.000427133 3.08178e-15)
(1.38852 -0.00041324 2.8239e-15)
(1.38849 -0.000399648 2.88761e-15)
(1.38847 -0.000386321 2.62594e-15)
(1.38845 -0.000373222 2.81755e-15)
(1.38843 -0.000360328 2.5134e-15)
(1.38842 -0.000347591 2.55917e-15)
(1.3884 -0.000334996 2.42474e-15)
(1.38838 -0.000322495 2.31002e-15)
(1.38837 -0.000310098 2.48329e-15)
(1.38835 -0.000297745 2.36281e-15)
(1.38834 -0.000285466 2.31956e-15)
(1.38833 -0.000273204 1.95532e-15)
(1.38832 -0.000261011 2.20525e-15)
(1.38831 -0.000248845 1.95161e-15)
(1.3883 -0.000236734 2.07388e-15)
(1.3883 -0.000224738 1.83129e-15)
(1.38829 -0.000212733 1.84945e-15)
(1.38829 -0.000201022 1.7716e-15)
(1.38828 -0.000189347 1.73036e-15)
(1.38828 -0.000177961 1.53871e-15)
(1.38828 -0.000167038 1.51881e-15)
)
;
    }
}


// ************************************************************************* //
