/*--------------------------------*- C++ -*----------------------------------*\
| =========                 |                                                 |
| \\      /  F ield         | OpenFOAM: The Open Source CFD Toolbox           |
|  \\    /   O peration     | Version:                                        |
|   \\  /    A nd           | Website:  www.openfoam.com                      |
|    \\/     M anipulation  |                                                 |
\*---------------------------------------------------------------------------*/
FoamFile
{
    version     2.0;
    format      ascii;
    class       volScalarField;
    location    "26";
    object      p;
}
// * * * * * * * * * * * * * * * * * * * * * * * * * * * * * * * * * * * * * //

dimensions      [0 2 -2 0 0 0 0];


internalField   nonuniform List<scalar> 
1153
(
-0.151064
-0.148868
-0.148858
-0.147057
-0.144928
-0.143694
-0.146787
-0.156338
-0.169821
-0.188702
-0.147788
-0.148235
-0.147262
-0.142598
-0.132598
-0.122373
-0.116735
-0.119929
-0.133048
-0.15447
-0.17937
-0.205613
-0.143798
-0.145721
-0.145034
-0.139671
-0.126993
-0.114431
-0.109329
-0.112175
-0.122633
-0.139913
-0.161277
-0.184322
-0.206377
-0.226383
-0.138626
-0.140786
-0.14176
-0.138807
-0.130198
-0.120669
-0.114675
-0.114644
-0.121765
-0.134686
-0.151439
-0.168761
-0.185108
-0.199367
-0.211196
-0.220916
-0.228582
-0.139397
-0.141196
-0.142839
-0.142592
-0.137701
-0.12984
-0.122952
-0.120878
-0.124295
-0.132464
-0.14317
-0.15457
-0.16559
-0.175587
-0.184714
-0.192554
-0.199271
-0.204904
-0.209692
-0.214995
-0.143693
-0.144701
-0.146658
-0.145707
-0.141802
-0.134539
-0.127848
-0.124442
-0.125012
-0.128863
-0.134901
-0.142094
-0.149447
-0.156427
-0.162646
-0.167998
-0.172598
-0.176507
-0.180066
-0.184575
-0.147525
-0.14785
-0.145881
-0.145653
-0.141557
-0.135109
-0.128965
-0.124902
-0.123368
-0.124189
-0.126753
-0.130326
-0.134366
-0.138364
-0.14212
-0.145509
-0.148831
-0.151856
-0.15494
-0.158794
-0.151086
-0.151865
-0.146342
-0.144542
-0.13969
-0.133184
-0.126991
-0.122055
-0.118761
-0.11712
-0.116918
-0.117839
-0.119452
-0.121511
-0.123638
-0.125732
-0.127633
-0.129276
-0.13116
-0.133105
-0.157734
-0.149323
-0.151067
-0.144946
-0.136825
-0.128891
-0.121755
-0.115752
-0.111035
-0.107689
-0.10569
-0.10475
-0.104593
-0.104886
-0.105505
-0.106222
-0.106983
-0.107925
-0.10915
-0.110474
-0.178412
-0.159496
-0.154201
-0.143352
-0.131925
-0.121953
-0.113551
-0.106464
-0.100594
-0.0959563
-0.09249
-0.0900834
-0.0884911
-0.0876201
-0.0872461
-0.0872539
-0.0875297
-0.0878968
-0.0885419
-0.0890796
-0.0217832
-0.0365581
-0.0601842
-0.0448391
-0.0571398
-0.0784581
-0.106142
-0.0797734
-0.0881418
-0.105684
-0.129947
-0.116234
-0.120152
-0.134268
-0.155165
-0.145078
-0.145708
-0.157841
-0.175961
-0.160826
-0.161574
-0.172282
-0.188489
-0.208506
-0.164041
-0.166362
-0.176596
-0.191545
-0.209762
-0.230331
-0.161154
-0.163012
-0.17195
-0.185538
-0.201613
-0.219837
-0.239441
-0.158513
-0.157413
-0.162709
-0.17305
-0.185809
-0.199912
-0.21702
-0.233641
-0.155532
-0.152087
-0.15408
-0.158345
-0.165368
-0.173078
-0.184678
-0.198732
-0.215681
-0.0908592
-0.11325
-0.136625
-0.164352
-0.192511
-0.095052
-0.117827
-0.142283
-0.167702
-0.194916
-0.098537
-0.119296
-0.140714
-0.16027
-0.181577
-0.0996847
-0.117497
-0.134529
-0.150852
-0.166511
-0.0985
-0.114236
-0.128469
-0.143308
-0.157778
-0.176347
-0.0971477
-0.111311
-0.124324
-0.138002
-0.152045
-0.168277
-0.0956516
-0.108306
-0.120015
-0.131689
-0.143768
-0.156266
-0.0934614
-0.104398
-0.11451
-0.124074
-0.134315
-0.145135
-0.0904581
-0.0997416
-0.108442
-0.116798
-0.126072
-0.136058
-0.0870914
-0.0949711
-0.102548
-0.109989
-0.118143
-0.12663
-0.0836056
-0.0902
-0.0966427
-0.103011
-0.109875
-0.117008
-0.0799907
-0.0853907
-0.0907352
-0.0961263
-0.101993
-0.108205
-0.0762587
-0.0806301
-0.08503
-0.0895869
-0.0945902
-0.0998735
-0.0724401
-0.0759418
-0.0795094
-0.0832775
-0.087433
-0.0918258
-0.0685581
-0.0713421
-0.0741873
-0.0772443
-0.0806615
-0.0843324
-0.0646626
-0.0668705
-0.0691216
-0.0715751
-0.0743611
-0.0773967
-0.0608112
-0.0625553
-0.0643159
-0.0662477
-0.068469
-0.070929
-0.0570449
-0.0584149
-0.0597725
-0.0612666
-0.0630135
-0.0649942
-0.053384
-0.0544647
-0.0555103
-0.0566623
-0.0580306
-0.0596145
-0.0498496
-0.050717
-0.0515327
-0.0524244
-0.0534913
-0.0547451
-0.0464787
-0.0471916
-0.0478442
-0.0485445
-0.0493795
-0.0503713
-0.0433192
-0.0439217
-0.0444634
-0.0450288
-0.0456914
-0.0464798
-0.0404136
-0.0409387
-0.0414078
-0.0418811
-0.0424176
-0.0430494
-0.0377912
-0.0382663
-0.0386927
-0.0391069
-0.0395534
-0.0400663
-0.0354732
-0.0359233
-0.0363319
-0.0367128
-0.0370976
-0.0375213
-0.0334779
-0.0339264
-0.0343388
-0.0347078
-0.0350519
-0.0354079
-0.03182
-0.0322912
-0.0327287
-0.0331037
-0.033422
-0.0337237
-0.0305095
-0.0310286
-0.0315125
-0.0319094
-0.032213
-0.0324685
-0.0295726
-0.0301508
-0.030689
-0.0311145
-0.0314119
-0.0316324
-0.0290795
-0.0296964
-0.030266
-0.0307058
-0.030999
-0.0312018
0.0989261
0.103838
0.109001
0.11454
0.119698
0.12395
0.127337
0.130025
0.131831
0.132475
0.1318
0.129617
0.125419
0.11851
0.108032
0.0929434
0.0715916
0.0428733
0.00631444
-0.0581628
0.0842843
0.0887809
0.0923977
0.0958191
0.0989893
0.101396
0.102965
0.103833
0.103918
0.102813
0.100198
0.0958077
0.0891791
0.0796611
0.0664312
0.0485014
0.0239582
-0.00842394
-0.0472004
-0.113978
0.0701223
0.0738883
0.0752973
0.0763832
0.0776311
0.0786347
0.0788957
0.0783442
0.0768986
0.074273
0.0700594
0.0639398
0.0554736
0.0440741
0.0289473
0.00921246
-0.0168742
-0.0517334
-0.0921523
-0.154596
0.053945
0.0568499
0.0568013
0.0563672
0.0561403
0.0559272
0.0551342
0.053521
0.0509779
0.0472053
0.0418586
0.0345642
0.0248976
0.0123472
-0.00385211
-0.0244069
-0.0505505
-0.0851032
-0.12577
-0.179596
0.0357627
0.0372981
0.0363473
0.0353187
0.0345975
0.0337553
0.0322424
0.0298505
0.0264644
0.0219102
0.0158146
0.00785525
-0.0023947
-0.0153264
-0.0317138
-0.0521352
-0.0775244
-0.10936
-0.146084
-0.188771
0.0159316
0.0164798
0.0152119
0.0141221
0.0131738
0.0119735
0.0100443
0.00722756
0.00344113
-0.0015124
-0.00791166
-0.0160632
-0.0263224
-0.0391077
-0.0549984
-0.074505
-0.0980565
-0.125631
-0.154346
-0.184118
-0.00497134
-0.00549625
-0.0064715
-0.00711921
-0.00778363
-0.00905647
-0.0111375
-0.0141096
-0.0180654
-0.0231142
-0.0294836
-0.0374092
-0.0472203
-0.0592502
-0.0739624
-0.0918488
-0.113081
-0.136705
-0.156372
-0.170017
-0.0265451
-0.0269107
-0.0273184
-0.0276906
-0.0283717
-0.0296114
-0.0315979
-0.0344035
-0.0381215
-0.0429246
-0.0489228
-0.0563302
-0.0653439
-0.0761914
-0.089239
-0.105052
-0.124091
-0.145306
-0.159685
-0.160434
-0.0481865
-0.0480552
-0.0479073
-0.0479489
-0.0483418
-0.0493451
-0.0510265
-0.0534597
-0.0567798
-0.061054
-0.0664455
-0.0730807
-0.0811032
-0.0905971
-0.101805
-0.115312
-0.132168
-0.152791
-0.172047
-0.168477
-0.0687986
-0.0682235
-0.0677527
-0.067632
-0.067955
-0.0686426
-0.0698117
-0.0715918
-0.0740978
-0.0775455
-0.0820545
-0.0877831
-0.0947452
-0.102961
-0.11262
-0.124191
-0.138591
-0.156548
-0.177527
-0.186613
0.253155
0.266244
0.280397
0.295604
0.311782
0.328831
0.346671
0.365252
0.384546
0.404488
0.424954
0.445676
0.466238
0.485919
0.50381
0.518075
0.527219
0.249623
0.262419
0.276362
0.291356
0.307262
0.323955
0.341358
0.359424
0.378121
0.397382
0.417086
0.436966
0.456584
0.475123
0.491495
0.50381
0.511045
0.242895
0.255227
0.268769
0.283294
0.298591
0.314531
0.331057
0.348138
0.365724
0.383701
0.401895
0.420028
0.43769
0.454084
0.468032
0.47721
0.481138
0.223013
0.233313
0.245109
0.258128
0.271988
0.286397
0.301204
0.316383
0.33195
0.347882
0.364027
0.3801
0.395674
0.410284
0.423174
0.433334
0.438283
0.437697
0.211373
0.220883
0.232032
0.244351
0.257351
0.270687
0.284171
0.297737
0.311394
0.325154
0.338917
0.352391
0.365001
0.376057
0.384675
0.389827
0.388876
0.38133
0.190737
0.197411
0.20621
0.216654
0.228008
0.239755
0.251651
0.263553
0.275339
0.286904
0.298178
0.309041
0.319275
0.328358
0.335441
0.339328
0.338884
0.331153
0.314721
0.17245
0.175468
0.181249
0.18952
0.199369
0.209786
0.220163
0.230294
0.240185
0.249851
0.259152
0.267866
0.275723
0.282395
0.287401
0.289962
0.288731
0.282263
0.26723
0.240753
0.156672
0.158348
0.163391
0.171123
0.180249
0.18966
0.19869
0.207049
0.21478
0.222068
0.228847
0.23481
0.239572
0.24268
0.243505
0.241247
0.234591
0.222059
0.200013
0.162755
0.13881
0.140006
0.145002
0.15236
0.160406
0.168299
0.175613
0.18215
0.187825
0.192776
0.197021
0.200218
0.201835
0.201331
0.198049
0.191093
0.179084
0.160553
0.132198
0.0843574
0.118919
0.120754
0.126378
0.133375
0.140246
0.146382
0.151718
0.156266
0.159915
0.162586
0.164294
0.164786
0.163459
0.159604
0.152449
0.141081
0.124081
0.100143
0.0669499
0.00927681
0.156305
0.140453
0.125428
0.121954
0.109341
0.102989
0.0947304
0.0901399
0.082482
0.0789201
0.0714152
0.0680794
0.0608623
0.0576281
0.0507737
0.0476686
0.041175
0.0381596
0.032127
0.0291279
0.0237056
0.0206849
0.0159458
0.0129012
0.00884653
0.00579431
0.00241565
-0.000612114
-0.00335704
-0.00632268
-0.00848874
-0.0113599
-0.013009
-0.0157662
-0.0168975
-0.0195898
-0.0200522
-0.0227226
-0.0224855
-0.025071
-0.0242759
-0.0267142
-0.0254724
-0.0277146
-0.0261367
-0.0281556
-0.0263537
-0.0281344
-0.02622
-0.0277561
-0.0258336
-0.0271284
-0.0252801
-0.0263502
-0.0246304
-0.0255044
-0.0239477
-0.0246621
-0.0232931
-0.0238901
-0.0227317
-0.0232596
-0.0223608
-0.0228644
0.0934382
0.0786497
0.0628699
0.0467579
0.0302386
0.0107014
-0.00832645
-0.0293648
-0.0497688
-0.070755
0.0854456
0.0712534
0.05229
0.0361983
0.0202795
0.00189045
-0.0163398
-0.0357207
-0.0544381
-0.0744762
0.0764894
0.0642217
0.0444874
0.0281911
0.0129523
-0.00272309
-0.0206493
-0.0387301
-0.0582225
-0.077887
0.0665688
0.0553346
0.03617
0.018485
0.00387264
-0.0105763
-0.0273469
-0.0442749
-0.0626708
-0.0809142
0.0562896
0.046362
0.0285578
0.0101699
-0.00370532
-0.0173253
-0.0317499
-0.0481939
-0.0648368
-0.0820685
0.0462434
0.0377261
0.0207889
0.00265486
-0.0112101
-0.0241449
-0.0368686
-0.0519401
-0.0669701
-0.0826052
0.0365727
0.0291376
0.0129741
-0.00418592
-0.0180396
-0.0300126
-0.0416159
-0.0547584
-0.0683214
-0.0823546
0.0273528
0.0206378
0.00557336
-0.0105275
-0.0241631
-0.03537
-0.0459928
-0.0572702
-0.0693159
-0.0815929
0.0187352
0.0125566
-0.00111614
-0.0161562
-0.0293517
-0.0400988
-0.0497779
-0.0594794
-0.0698015
-0.0802632
0.0107805
0.00506585
-0.0071328
-0.0210003
-0.0335555
-0.0439234
-0.052871
-0.0612817
-0.0699129
-0.0785924
0.00351107
-0.00179385
-0.0125918
-0.02522
-0.0369889
-0.0468192
-0.0550195
-0.0622931
-0.0694967
-0.0766214
-0.00302767
-0.00796113
-0.0174726
-0.0288368
-0.0397086
-0.0488463
-0.0562567
-0.0625264
-0.0685072
-0.0743204
-0.00882688
-0.013415
-0.0217582
-0.0318692
-0.0417587
-0.050081
-0.05667
-0.0620383
-0.06698
-0.0716935
-0.0138935
-0.0181433
-0.0254362
-0.0343396
-0.0431746
-0.0505826
-0.0563412
-0.0609096
-0.0649896
-0.0687892
-0.0182445
-0.0221042
-0.0284385
-0.0362299
-0.0440056
-0.0504672
-0.0553922
-0.0592112
-0.0625519
-0.0656316
-0.0219939
-0.0254013
-0.0307447
-0.0374032
-0.0441247
-0.0497221
-0.0539311
-0.0571181
-0.0598389
-0.0623217
-0.025181
-0.0282935
-0.0326936
-0.0380942
-0.0436067
-0.048321
-0.051936
-0.0546606
-0.0569206
-0.0589369
-0.0275699
-0.0305441
-0.0342245
-0.0384341
-0.0427018
-0.0464889
-0.0495444
-0.0519192
-0.0538601
-0.0555349
-0.0291555
-0.0319549
-0.0350641
-0.0383392
-0.0415688
-0.044505
-0.0470047
-0.0490467
-0.0507324
-0.0521519
-0.0300072
-0.0325739
-0.035216
-0.0378007
-0.0402508
-0.0424919
-0.0444768
-0.0461787
-0.0476204
-0.048829
-0.0302435
-0.0325436
-0.0347968
-0.0368777
-0.0387685
-0.0404808
-0.0420289
-0.0434053
-0.0446061
-0.045625
-0.0299897
-0.0320154
-0.0339453
-0.0356591
-0.0371566
-0.0384831
-0.0396846
-0.0407754
-0.0417521
-0.0425999
-0.0293679
-0.0311279
-0.0327917
-0.0342394
-0.0354648
-0.0365178
-0.0374568
-0.0383145
-0.0390991
-0.0398008
-0.0284963
-0.0300049
-0.031448
-0.0327039
-0.0337465
-0.0346128
-0.035362
-0.0360405
-0.0366716
-0.0372571
-0.0274846
-0.0287585
-0.0300135
-0.0311292
-0.0320546
-0.0328027
-0.0334239
-0.0339733
-0.0344901
-0.0349907
-0.0264285
-0.0274902
-0.0285808
-0.0295887
-0.0304412
-0.0311229
-0.0316678
-0.0321337
-0.0325738
-0.0330204
-0.0254114
-0.026293
-0.0272417
-0.028161
-0.028965
-0.029613
-0.0301194
-0.0305392
-0.030937
-0.0313601
-0.0245118
-0.0252579
-0.0260936
-0.0269397
-0.0277057
-0.0283326
-0.0288185
-0.0292144
-0.0295946
-0.0300204
-0.023811
-0.0244777
-0.0252402
-0.026034
-0.0267688
-0.027376
-0.0278438
-0.0282227
-0.0285966
-0.0290394
-0.0233977
-0.0240404
-0.0247729
-0.0255399
-0.0262548
-0.0268475
-0.0273034
-0.0276745
-0.0280511
-0.028513
)
;

boundaryField
{
    outlet
    {
        type            fixedValue;
        value           nonuniform 0();
    }
    upperWall
    {
        type            symmetryPlane;
    }
    lowerWall
    {
        type            symmetryPlane;
    }
    inlet
    {
        type            zeroGradient;
    }
    cylinder
    {
        type            zeroGradient;
    }
    frontAndBack
    {
        type            empty;
    }
    procBoundary5to1
    {
        type            processor;
        value           nonuniform List<scalar> 
20
(
-0.0217001
-0.03648
-0.0601087
0.253158
0.266247
0.2804
0.295607
0.311786
0.328834
0.346674
0.365256
0.38455
0.404492
0.424959
0.44568
0.466242
0.485924
0.503815
0.51808
0.527224
)
;
    }
    procBoundary5to4
    {
        type            processor;
        value           nonuniform List<scalar> 
45
(
0.241045
0.23794
0.231865
0.231865
0.214183
0.203665
0.203665
0.186152
0.186152
0.169519
0.169519
0.153086
0.140212
0.140212
0.124444
0.112112
0.0987632
0.0862077
0.0747653
0.0641688
0.0541782
0.0446766
0.0356702
0.0272424
0.0194555
0.0123053
0.00578517
-0.000108634
-0.0053796
-0.0100227
-0.0139845
-0.0172324
-0.0198128
-0.0217825
-0.0231828
-0.0240693
-0.0245243
-0.0246359
-0.0244871
-0.0241476
-0.023679
-0.0231424
-0.0225996
-0.0221131
-0.0217783
)
;
    }
    procBoundary5to6
    {
        type            processor;
        value           nonuniform List<scalar> 
63
(
-0.211197
-0.236528
-0.211197
-0.237538
-0.231659
-0.231659
-0.256043
-0.243212
-0.243212
-0.25684
-0.26715
-0.235674
-0.235674
-0.242044
-0.249396
-0.222742
-0.0898715
-0.0898715
-0.137423
-0.15822
-0.18031
-0.19826
-0.19826
-0.231543
-0.231543
-0.252835
-0.252835
-0.260316
-0.260316
-0.255228
-0.255228
-0.236528
-0.222742
-0.222445
-0.203288
-0.185745
-0.185745
-0.196363
-0.185301
-0.169956
-0.157804
-0.147278
-0.135755
-0.124795
-0.11498
-0.105522
-0.0965226
-0.0882851
-0.0806708
-0.0736108
-0.0671913
-0.0613966
-0.0561758
-0.0515182
-0.0473998
-0.0437899
-0.0406668
-0.0380135
-0.0358151
-0.0340612
-0.0327462
-0.0318636
-0.0314098
)
;
    }
}


// ************************************************************************* //
