/*--------------------------------*- C++ -*----------------------------------*\
| =========                 |                                                 |
| \\      /  F ield         | OpenFOAM: The Open Source CFD Toolbox           |
|  \\    /   O peration     | Version:                                        |
|   \\  /    A nd           | Website:  www.openfoam.com                      |
|    \\/     M anipulation  |                                                 |
\*---------------------------------------------------------------------------*/
FoamFile
{
    version     2.0;
    format      ascii;
    class       surfaceScalarField;
    location    "6.5";
    object      phi;
}
// * * * * * * * * * * * * * * * * * * * * * * * * * * * * * * * * * * * * * //

dimensions      [0 3 -1 0 0 0 0];
oriented        oriented;


internalField   nonuniform List<scalar> 
760
(
3.46778e-05
-1.09995e-07
3.47835e-05
-1.05701e-07
3.48851e-05
-1.01578e-07
3.49827e-05
-9.76188e-08
3.50765e-05
-9.38175e-08
3.51667e-05
-9.01677e-08
3.52534e-05
-8.66634e-08
3.53367e-05
-8.3299e-08
3.54167e-05
-8.00689e-08
3.54937e-05
-7.69676e-08
3.55677e-05
-7.39901e-08
3.56388e-05
-7.11313e-08
3.57072e-05
-6.83865e-08
3.5773e-05
-6.57511e-08
3.58362e-05
-6.32204e-08
3.5897e-05
-6.07902e-08
3.59554e-05
-5.84567e-08
3.60116e-05
-5.6216e-08
3.60657e-05
-5.40639e-08
-5.19965e-08
3.46146e-05
-2.15494e-07
3.47159e-05
-2.07024e-07
3.48132e-05
-1.98899e-07
3.49067e-05
-1.91103e-07
3.49965e-05
-1.83623e-07
3.50828e-05
-1.76447e-07
3.51657e-05
-1.69561e-07
3.52453e-05
-1.62954e-07
3.53219e-05
-1.56614e-07
3.53954e-05
-1.5053e-07
3.54661e-05
-1.44691e-07
3.55341e-05
-1.39087e-07
3.55994e-05
-1.33708e-07
3.56622e-05
-1.28546e-07
3.57226e-05
-1.2359e-07
3.57806e-05
-1.18832e-07
3.58364e-05
-1.14265e-07
3.58901e-05
-1.09879e-07
3.59417e-05
-1.05669e-07
-1.01625e-07
3.44807e-05
-3.12182e-07
3.45735e-05
-2.99779e-07
3.46625e-05
-2.87897e-07
3.47479e-05
-2.76512e-07
3.48299e-05
-2.65603e-07
3.49086e-05
-2.55147e-07
3.49841e-05
-2.45124e-07
3.50567e-05
-2.35516e-07
3.51264e-05
-2.26304e-07
3.51933e-05
-2.17471e-07
3.52576e-05
-2.08999e-07
3.53194e-05
-2.00874e-07
3.53788e-05
-1.9308e-07
3.54359e-05
-1.85602e-07
3.54907e-05
-1.78428e-07
3.55434e-05
-1.71543e-07
3.55941e-05
-1.64936e-07
3.56428e-05
-1.58595e-07
3.56896e-05
-1.52508e-07
-1.46664e-07
3.42622e-05
-3.96111e-07
3.43426e-05
-3.80151e-07
3.44196e-05
-3.64891e-07
3.44934e-05
-3.50295e-07
3.45641e-05
-3.3633e-07
3.46319e-05
-3.22964e-07
3.4697e-05
-3.1017e-07
3.47594e-05
-2.97919e-07
3.48192e-05
-2.86187e-07
3.48767e-05
-2.74947e-07
3.49319e-05
-2.64178e-07
3.49849e-05
-2.53857e-07
3.50358e-05
-2.43964e-07
3.50846e-05
-2.34479e-07
3.51316e-05
-2.25385e-07
3.51767e-05
-2.16662e-07
3.52201e-05
-2.08295e-07
3.52618e-05
-2.00269e-07
3.53018e-05
-1.92567e-07
-1.85176e-07
3.39389e-05
-4.639e-07
3.40037e-05
-4.44904e-07
3.40656e-05
-4.26781e-07
3.41248e-05
-4.0948e-07
3.41814e-05
-3.92957e-07
3.42356e-05
-3.77171e-07
3.42875e-05
-3.62082e-07
3.43373e-05
-3.47654e-07
3.43849e-05
-3.33854e-07
3.44306e-05
-3.20649e-07
3.44745e-05
-3.0801e-07
3.45165e-05
-2.95909e-07
3.45569e-05
-2.8432e-07
3.45956e-05
-2.73217e-07
3.46328e-05
-2.62579e-07
3.46685e-05
-2.52382e-07
3.47028e-05
-2.42607e-07
3.47358e-05
-2.33235e-07
3.47675e-05
-2.24245e-07
-2.15622e-07
3.34862e-05
-5.12942e-07
3.35328e-05
-4.91571e-07
3.35773e-05
-4.71229e-07
3.36197e-05
-4.51852e-07
3.36601e-05
-4.33383e-07
3.36987e-05
-4.15769e-07
3.37356e-05
-3.98961e-07
3.37708e-05
-3.82914e-07
3.38046e-05
-3.67585e-07
3.38368e-05
-3.52937e-07
3.38678e-05
-3.38932e-07
3.38974e-05
-3.25536e-07
3.39258e-05
-3.12719e-07
3.3953e-05
-3.00452e-07
3.39791e-05
-2.88705e-07
3.40042e-05
-2.77455e-07
3.40283e-05
-2.66676e-07
3.40514e-05
-2.56346e-07
3.40736e-05
-2.46444e-07
-2.3695e-07
3.28761e-05
-5.41591e-07
3.29032e-05
-5.1863e-07
3.29288e-05
-4.96826e-07
3.29531e-05
-4.76102e-07
3.29761e-05
-4.56389e-07
3.29979e-05
-4.37623e-07
3.30187e-05
-4.19746e-07
3.30385e-05
-4.02704e-07
3.30574e-05
-3.86448e-07
3.30753e-05
-3.70932e-07
3.30925e-05
-3.56115e-07
3.3109e-05
-3.41958e-07
3.31247e-05
-3.28425e-07
3.31397e-05
-3.15483e-07
3.31541e-05
-3.03101e-07
3.31679e-05
-2.9125e-07
3.31811e-05
-2.79902e-07
3.31938e-05
-2.69033e-07
3.3206e-05
-2.5862e-07
-2.4864e-07
3.208e-05
-5.49311e-07
3.2087e-05
-5.25634e-07
3.20934e-05
-5.03202e-07
3.20992e-05
-4.81926e-07
3.21046e-05
-4.61727e-07
3.21095e-05
-4.42532e-07
3.2114e-05
-4.24276e-07
3.21182e-05
-4.06898e-07
3.21221e-05
-3.90344e-07
3.21257e-05
-3.74563e-07
3.21291e-05
-3.5951e-07
3.21323e-05
-3.45142e-07
3.21353e-05
-3.31419e-07
3.21381e-05
-3.18306e-07
3.21408e-05
-3.05769e-07
3.21433e-05
-2.93778e-07
3.21457e-05
-2.82304e-07
3.2148e-05
-2.71319e-07
3.21502e-05
-2.608e-07
-2.50723e-07
3.10698e-05
-5.36749e-07
3.10574e-05
-5.13268e-07
3.10453e-05
-4.91067e-07
3.10334e-05
-4.70053e-07
3.10218e-05
-4.50137e-07
3.10105e-05
-4.31241e-07
3.09996e-05
-4.13297e-07
3.09889e-05
-3.96238e-07
3.09786e-05
-3.80008e-07
3.09686e-05
-3.64554e-07
3.09589e-05
-3.49826e-07
3.09495e-05
-3.35781e-07
3.09405e-05
-3.22379e-07
3.09318e-05
-3.09582e-07
3.09233e-05
-2.97355e-07
3.09152e-05
-2.85667e-07
3.09074e-05
-2.74488e-07
3.08999e-05
-2.63792e-07
3.08926e-05
-2.53554e-07
-2.43749e-07
2.98202e-05
-5.05719e-07
2.97903e-05
-4.83316e-07
2.97614e-05
-4.62175e-07
2.97335e-05
-4.42197e-07
2.97067e-05
-4.23292e-07
2.96808e-05
-4.05382e-07
2.96559e-05
-3.88394e-07
2.96319e-05
-3.72264e-07
2.96089e-05
-3.56934e-07
2.95867e-05
-3.4235e-07
2.95653e-05
-3.28464e-07
2.95448e-05
-3.15232e-07
2.9525e-05
-3.02614e-07
2.9506e-05
-2.90573e-07
2.94877e-05
-2.79075e-07
2.94701e-05
-2.6809e-07
2.94532e-05
-2.57588e-07
2.9437e-05
-2.47543e-07
2.94213e-05
-2.37931e-07
-2.28729e-07
2.83104e-05
-4.59074e-07
2.82656e-05
-4.38539e-07
2.82226e-05
-4.1919e-07
2.81813e-05
-4.0093e-07
2.81417e-05
-3.83673e-07
2.81037e-05
-3.67343e-07
2.80671e-05
-3.5187e-07
2.80321e-05
-3.37193e-07
2.79984e-05
-3.23254e-07
2.7966e-05
-3.10004e-07
2.7935e-05
-2.97398e-07
2.79051e-05
-2.85392e-07
2.78765e-05
-2.7395e-07
2.78489e-05
-2.63036e-07
2.78225e-05
-2.52619e-07
2.77971e-05
-2.4267e-07
2.77726e-05
-2.33163e-07
2.77492e-05
-2.24071e-07
2.77266e-05
-2.15374e-07
-2.07049e-07
2.65247e-05
-4.00491e-07
2.64686e-05
-3.82457e-07
2.64149e-05
-3.65483e-07
2.63634e-05
-3.49482e-07
2.63141e-05
-3.34375e-07
2.62669e-05
-3.2009e-07
2.62216e-05
-3.06566e-07
2.61781e-05
-2.93746e-07
2.61365e-05
-2.8158e-07
2.60965e-05
-2.70021e-07
2.60581e-05
-2.59028e-07
2.60213e-05
-2.48564e-07
2.59859e-05
-2.38595e-07
2.5952e-05
-2.29089e-07
2.59194e-05
-2.20019e-07
2.58881e-05
-2.11359e-07
2.5858e-05
-2.03084e-07
2.58291e-05
-1.95174e-07
2.58013e-05
-1.87607e-07
-1.80365e-07
2.44536e-05
-3.34191e-07
2.43902e-05
-3.19087e-07
2.43296e-05
-3.04884e-07
2.42716e-05
-2.91504e-07
2.42161e-05
-2.78879e-07
2.4163e-05
-2.66949e-07
2.41121e-05
-2.55659e-07
2.40633e-05
-2.44962e-07
2.40165e-05
-2.34814e-07
2.39717e-05
-2.25176e-07
2.39286e-05
-2.16013e-07
2.38874e-05
-2.07293e-07
2.38478e-05
-1.98987e-07
2.38097e-05
-1.91069e-07
2.37732e-05
-1.83514e-07
2.37382e-05
-1.76302e-07
2.37045e-05
-1.69412e-07
2.36722e-05
-1.62825e-07
2.36411e-05
-1.56525e-07
-1.50495e-07
2.20931e-05
-2.64625e-07
2.20267e-05
-2.52659e-07
2.19632e-05
-2.4141e-07
2.19025e-05
-2.30817e-07
2.18445e-05
-2.20825e-07
2.17889e-05
-2.11386e-07
2.17357e-05
-2.02455e-07
2.16848e-05
-1.93995e-07
2.16359e-05
-1.85971e-07
2.15891e-05
-1.78351e-07
2.15442e-05
-1.71107e-07
2.15011e-05
-1.64214e-07
2.14598e-05
-1.57648e-07
2.14201e-05
-1.5139e-07
2.1382e-05
-1.45419e-07
2.13454e-05
-1.39718e-07
2.13103e-05
-1.34272e-07
2.12765e-05
-1.29066e-07
2.12441e-05
-1.24085e-07
-1.19319e-07
1.94446e-05
-1.962e-07
1.93793e-05
-1.87346e-07
1.93169e-05
-1.79025e-07
1.92573e-05
-1.71189e-07
1.92002e-05
-1.63798e-07
1.91457e-05
-1.56815e-07
1.90934e-05
-1.50209e-07
1.90434e-05
-1.43951e-07
1.89954e-05
-1.38015e-07
1.89495e-05
-1.32378e-07
1.89054e-05
-1.27019e-07
1.88631e-05
-1.21918e-07
1.88225e-05
-1.1706e-07
1.87835e-05
-1.12429e-07
1.87461e-05
-1.0801e-07
1.87102e-05
-1.0379e-07
1.86757e-05
-9.97579e-08
1.86425e-05
-9.59029e-08
1.86106e-05
-9.22149e-08
-8.86847e-08
1.6513e-05
-1.33039e-07
1.64528e-05
-1.27063e-07
1.63952e-05
-1.21444e-07
1.63401e-05
-1.16153e-07
1.62875e-05
-1.11161e-07
1.62371e-05
-1.06443e-07
1.61889e-05
-1.0198e-07
1.61427e-05
-9.77499e-08
1.60984e-05
-9.37368e-08
1.6056e-05
-8.9925e-08
1.60152e-05
-8.63003e-08
1.59762e-05
-8.28501e-08
1.59387e-05
-7.9563e-08
1.59027e-05
-7.64284e-08
1.58681e-05
-7.34369e-08
1.58349e-05
-7.05799e-08
1.5803e-05
-6.78493e-08
1.57723e-05
-6.52379e-08
1.57428e-05
-6.27392e-08
-6.03469e-08
1.3306e-05
-7.88422e-08
1.32543e-05
-7.5324e-08
1.32049e-05
-7.20149e-08
1.31576e-05
-6.88969e-08
1.31124e-05
-6.59539e-08
1.30691e-05
-6.31719e-08
1.30277e-05
-6.05382e-08
1.2988e-05
-5.80417e-08
1.29499e-05
-5.56722e-08
1.29134e-05
-5.34207e-08
1.28784e-05
-5.1279e-08
1.28448e-05
-4.92397e-08
1.28125e-05
-4.72962e-08
1.27815e-05
-4.54422e-08
1.27518e-05
-4.36723e-08
1.27232e-05
-4.19814e-08
1.26957e-05
-4.03648e-08
1.26693e-05
-3.88184e-08
1.26439e-05
-3.73383e-08
-3.59208e-08
9.83222e-06
-3.68264e-08
9.7921e-06
-3.51971e-08
9.75375e-06
-3.36636e-08
9.71707e-06
-3.22177e-08
9.68196e-06
-3.08521e-08
9.64835e-06
-2.95604e-08
9.61615e-06
-2.83369e-08
9.58529e-06
-2.71764e-08
9.55569e-06
-2.60745e-08
9.52729e-06
-2.50269e-08
9.50005e-06
-2.40299e-08
9.47389e-06
-2.30802e-08
9.44876e-06
-2.21746e-08
9.42463e-06
-2.13105e-08
9.40145e-06
-2.04852e-08
9.37916e-06
-1.96964e-08
9.35774e-06
-1.8942e-08
9.33714e-06
-1.82201e-08
9.31733e-06
-1.75289e-08
-1.68667e-08
6.09991e-06
-9.74879e-09
6.07404e-06
-9.32261e-09
6.0493e-06
-8.92104e-09
6.02562e-06
-8.54203e-09
6.00295e-06
-8.18375e-09
5.98124e-06
-7.84456e-09
5.96042e-06
-7.52302e-09
5.94047e-06
-7.21782e-09
5.92132e-06
-6.92778e-09
5.90294e-06
-6.65186e-09
5.8853e-06
-6.38909e-09
5.86836e-06
-6.13862e-09
5.85209e-06
-5.89965e-09
5.83645e-06
-5.67147e-09
5.82142e-06
-5.45343e-09
5.80696e-06
-5.24492e-09
5.79307e-06
-5.04541e-09
5.7797e-06
-4.8544e-09
5.76684e-06
-4.67141e-09
-4.49604e-09
2.11585e-06
2.10652e-06
2.0976e-06
2.08906e-06
2.08088e-06
2.07303e-06
2.06551e-06
2.05829e-06
2.05136e-06
2.04471e-06
2.03832e-06
2.03219e-06
2.02629e-06
2.02061e-06
2.01516e-06
2.00992e-06
2.00487e-06
2.00002e-06
1.99534e-06
)
;

boundaryField
{
    fixedWalls
    {
        type            calculated;
        value           uniform 0;
    }
    inlet
    {
        type            calculated;
        value           nonuniform 0();
    }
    outlet
    {
        type            calculated;
        value           nonuniform 0();
    }
    frontAndBack
    {
        type            empty;
        value           nonuniform 0();
    }
    procBoundary6to2
    {
        type            processor;
        value           nonuniform List<scalar> 
20
(
-7.77688e-15
2.78217e-14
3.95167e-14
-2.13857e-14
-8.35889e-14
-1.25796e-14
1.40117e-13
9.87781e-14
-1.83309e-13
-2.57351e-13
1.60227e-13
4.77572e-13
1.00034e-14
-7.10323e-13
-4.0189e-13
9.05759e-13
1.0312e-12
-1.06846e-12
-1.75853e-12
1.29543e-12
)
;
    }
    procBoundary6to5
    {
        type            processor;
        value           nonuniform List<scalar> 
20
(
-3.45678e-05
-3.45091e-05
-3.4384e-05
-3.41783e-05
-3.38712e-05
-3.34371e-05
-3.28475e-05
-3.20723e-05
-3.10824e-05
-2.98513e-05
-2.8357e-05
-2.65833e-05
-2.45199e-05
-2.21627e-05
-1.9513e-05
-1.65762e-05
-1.33602e-05
-9.87424e-06
-6.12699e-06
-2.1256e-06
)
;
    }
    procBoundary6to7
    {
        type            processor;
        value           nonuniform List<scalar> 
20
(
3.61177e-05
3.59913e-05
3.57347e-05
3.53403e-05
3.47979e-05
3.40949e-05
3.32177e-05
3.21523e-05
3.08857e-05
2.94063e-05
2.77049e-05
2.57746e-05
2.36112e-05
2.12129e-05
1.858e-05
1.57145e-05
1.26194e-05
9.29828e-06
5.75447e-06
1.99085e-06
)
;
    }
}


// ************************************************************************* //
