/*--------------------------------*- C++ -*----------------------------------*\
| =========                 |                                                 |
| \\      /  F ield         | OpenFOAM: The Open Source CFD Toolbox           |
|  \\    /   O peration     | Version:                                        |
|   \\  /    A nd           | Website:  www.openfoam.com                      |
|    \\/     M anipulation  |                                                 |
\*---------------------------------------------------------------------------*/
FoamFile
{
    version     2.0;
    format      ascii;
    class       volVectorField;
    location    "28";
    object      U;
}
// * * * * * * * * * * * * * * * * * * * * * * * * * * * * * * * * * * * * * //

dimensions      [0 1 -1 0 0 0 0];


internalField   nonuniform List<vector> 
1139
(
(0.389767 -0.320481 8.7237e-20)
(0.465209 -0.309126 -1.35761e-19)
(0.558229 -0.316242 2.63932e-20)
(0.720805 -0.297115 1.05553e-19)
(0.646673 -0.309291 1.55829e-20)
(0.881092 -0.337743 -3.1643e-20)
(0.763571 -0.331028 -2.39068e-20)
(0.989214 -0.351121 -9.21842e-20)
(1.23196 -0.438156 -8.75888e-20)
(0.860017 -0.318637 -6.40656e-20)
(1.13441 -0.390243 1.62007e-19)
(1.25801 -0.423343 1.62493e-19)
(0.991043 -0.355895 7.26156e-20)
(1.19932 -0.385758 -9.82016e-21)
(1.29145 -0.429337 -1.9914e-19)
(1.08097 -0.326874 3.27866e-20)
(1.30545 -0.408332 -6.98222e-20)
(1.27802 -0.392809 7.81281e-20)
(1.12192 -0.320486 1.51483e-19)
(1.202 -0.372985 5.47668e-20)
(1.32194 -0.387289 -2.89687e-19)
(1.24791 -0.368247 -4.73919e-20)
(1.1593 -0.323187 -6.86832e-20)
(1.27564 -0.319093 1.42565e-19)
(1.3715 -0.380329 2.6305e-19)
(1.24799 -0.340046 2.0791e-21)
(1.13668 -0.289403 -6.20842e-20)
(-0.366942 -0.0472656 -4.24343e-21)
(-0.444553 -0.0421388 4.69543e-21)
(-0.396502 -0.13713 5.01294e-21)
(-0.337945 -0.217584 -3.75219e-20)
(-0.280021 -0.285618 -1.21589e-20)
(-0.224555 -0.346335 -1.58674e-20)
(-0.511497 -0.0383013 -5.58751e-22)
(-0.451809 -0.126402 -1.77012e-21)
(-0.37905 -0.200434 1.40182e-20)
(-0.30681 -0.266198 4.5023e-20)
(-0.235301 -0.325268 1.03737e-19)
(-0.168552 -0.367072 9.47705e-20)
(-0.572912 -0.035125 -3.56938e-21)
(-0.502062 -0.117217 2.69918e-20)
(-0.415856 -0.185978 2.74226e-20)
(-0.329074 -0.250326 -3.18585e-20)
(-0.244768 -0.304398 -1.48323e-19)
(-0.159911 -0.349292 1.76452e-21)
(-0.0874155 -0.383832 -8.33396e-20)
(-0.627396 -0.0326454 5.68223e-21)
(-0.545703 -0.109555 -2.13569e-20)
(-0.446589 -0.174476 -1.27067e-20)
(-0.347482 -0.23554 -1.79392e-20)
(-0.245403 -0.287376 1.90334e-19)
(-0.151933 -0.331811 -4.87795e-20)
(-0.0598003 -0.365766 -2.47631e-20)
(0.0143645 -0.389298 -2.46086e-20)
(-0.677816 -0.0305402 4.17594e-21)
(-0.585337 -0.103041 -1.29788e-20)
(-0.474023 -0.164144 -2.6824e-20)
(-0.359507 -0.223129 8.39673e-21)
(-0.245419 -0.272744 5.06329e-22)
(-0.139304 -0.31566 -3.53971e-20)
(-0.03144 -0.350297 -2.45596e-19)
(0.0571222 -0.376216 -1.33628e-19)
(0.107674 -0.374224 -2.9929e-20)
(-0.723348 -0.0288442 -1.24068e-20)
(-0.620187 -0.0973355 -2.36337e-21)
(-0.495682 -0.155759 4.89921e-20)
(-0.368719 -0.212461 4.29323e-20)
(-0.243264 -0.258343 -1.42768e-19)
(-0.116954 -0.304794 1.03703e-19)
(-0.00979594 -0.330861 3.16791e-20)
(0.114972 -0.363299 2.08316e-19)
(0.246991 -0.371131 1.1825e-19)
(0.300996 -0.365844 3.8202e-20)
(-0.765944 -0.0273393 1.08733e-20)
(-0.651682 -0.0924592 2.36383e-20)
(-0.514856 -0.1483 -1.32847e-20)
(-0.375228 -0.201817 -7.78249e-20)
(-0.231035 -0.248986 8.26408e-20)
(-0.102 -0.290832 -2.90531e-21)
(0.036175 -0.324671 -7.40872e-20)
(0.119794 -0.344778 1.22854e-19)
(0.201531 -0.347747 -1.76186e-19)
(0.322179 -0.36024 7.27392e-20)
(-0.805073 -0.0261113 -1.32765e-20)
(-0.679722 -0.0881085 -1.71038e-20)
(-0.529924 -0.141526 -9.52103e-20)
(-0.37501 -0.194294 -1.09695e-20)
(-0.224171 -0.239115 -1.72791e-20)
(-0.0747795 -0.280679 1.39504e-19)
(0.0655674 -0.309783 -1.0917e-19)
(0.241766 -0.345832 9.28414e-20)
(0.376758 -0.348101 2.28586e-20)
(0.430994 -0.336637 -1.92545e-19)
(-0.842196 -0.0250128 -1.45482e-20)
(-0.70525 -0.0842765 6.09529e-20)
(-0.54193 -0.136026 1.11639e-19)
(-0.376591 -0.186394 1.2476e-19)
(-0.209637 -0.229724 8.04487e-20)
(-0.0430677 -0.2755 -2.91636e-19)
(0.0997401 -0.302488 2.5972e-19)
(0.198288 -0.322049 -2.50344e-20)
(0.317541 -0.329503 -6.1597e-20)
(0.456567 -0.342146 1.5315e-19)
(-0.876799 -0.0241325 1.25106e-20)
(-0.728082 -0.0809714 -1.13986e-20)
(-0.552072 -0.130655 4.54453e-21)
(-0.371831 -0.179325 5.54701e-20)
(-0.18758 -0.226182 -7.3947e-20)
(-0.0222725 -0.262318 1.09318e-19)
(0.171063 -0.300061 -7.60384e-20)
(0.370091 -0.332157 5.7435e-20)
(0.506453 -0.331517 -6.16771e-21)
(0.571152 -0.322521 -5.67965e-20)
(-0.909772 -0.0233619 1.79726e-20)
(-0.749083 -0.0779722 -7.70026e-21)
(-0.558985 -0.126082 -5.21808e-20)
(-0.364588 -0.175185 3.46396e-20)
(-0.176584 -0.216923 -5.47227e-20)
(0.0222963 -0.26248 1.7231e-19)
(0.167119 -0.284012 -2.62773e-19)
(0.303147 -0.306942 1.83322e-19)
(0.443846 -0.31588 1.42445e-19)
(0.593717 -0.334161 1.28362e-19)
(-0.94034 -0.022721 -1.50234e-20)
(-0.767376 -0.0753665 3.93292e-20)
(-0.563909 -0.122371 -1.38509e-20)
(-0.35908 -0.168301 -7.2177e-20)
(-0.145589 -0.213158 -1.85838e-19)
(0.0529289 -0.252911 -4.97969e-22)
(0.289182 -0.294631 3.87686e-21)
(0.493055 -0.320359 1.8365e-20)
(0.641721 -0.322667 -4.42641e-20)
(0.73152 -0.317211 -7.7694e-20)
(-0.968757 -0.0220851 -1.08989e-20)
(-0.783353 -0.072884 1.66915e-19)
(-0.567027 -0.118045 2.68585e-21)
(-0.344532 -0.164758 -1.17291e-19)
(-0.121266 -0.210925 1.1827e-19)
(0.087621 -0.24751 1.59792e-19)
(0.256309 -0.271543 3.34852e-19)
(0.429677 -0.296532 -4.25837e-19)
(0.580267 -0.304266 -2.53451e-19)
(0.74485 -0.326746 2.08699e-19)
(-0.994122 -0.0214264 -3.74467e-20)
(-0.795843 -0.0701636 -7.57197e-21)
(-0.565606 -0.114576 -2.55601e-19)
(-0.333496 -0.161259 -6.18584e-20)
(-0.0980219 -0.19902 4.13115e-20)
(0.151761 -0.252123 -2.04005e-19)
(0.407221 -0.288249 -3.23967e-19)
(0.616027 -0.310095 1.90978e-19)
(0.786089 -0.31614 4.21377e-19)
(0.922343 -0.317994 -2.16963e-19)
(-1.01676 -0.0206306 -1.08853e-21)
(-0.80475 -0.0671241 -3.42212e-20)
(-0.562234 -0.109724 2.02528e-19)
(-0.318019 -0.152932 2.16036e-19)
(-0.0581775 -0.20278 2.21076e-19)
(0.157654 -0.229925 -1.45953e-19)
(0.367263 -0.262837 1.4968e-19)
(0.568658 -0.286708 7.36441e-20)
(0.735143 -0.29247 -4.88901e-19)
(0.918845 -0.315353 -1.43472e-19)
(-1.03643 -0.01974 1.62052e-20)
(-0.810235 -0.0632085 -7.15421e-21)
(-0.553641 -0.10277 1.75061e-20)
(-0.294874 -0.149601 -2.0294e-19)
(-0.0288468 -0.195518 -5.49649e-19)
(0.263483 -0.249474 2.79868e-19)
(0.522858 -0.276869 -2.28315e-20)
(0.741659 -0.297358 -1.36473e-19)
(0.937593 -0.306485 4.94564e-19)
(1.14017 -0.322593 -6.81552e-20)
(-1.05689 -0.0184698 -1.87968e-20)
(-0.813068 -0.0577106 1.27747e-20)
(-0.538657 -0.0942931 -1.43685e-20)
(-0.269003 -0.141733 1.66061e-19)
(-0.00437603 -0.167969 4.36142e-19)
(0.239308 -0.209929 -3.41052e-19)
(0.486388 -0.24491 -6.7948e-21)
(0.705856 -0.266576 3.20854e-19)
(0.901704 -0.274573 -5.02889e-20)
(1.1077 -0.293186 -1.24529e-20)
(-1.09002 -0.0143389 4.56887e-21)
(-0.860249 -0.043226 3.16948e-20)
(-0.598326 -0.0697774 -1.85769e-20)
(-0.324156 -0.0986676 -8.24961e-20)
(-0.0426225 -0.130269 5.94902e-21)
(0.227052 -0.167112 9.80254e-20)
(0.477096 -0.20339 1.33569e-19)
(0.694409 -0.232818 -1.57822e-19)
(0.886233 -0.250367 -1.79137e-19)
(1.08205 -0.281288 -2.08404e-20)
(-1.10516 -0.0124143 9.90683e-21)
(-0.859937 -0.03693 1.13454e-21)
(-0.587057 -0.0600541 -2.47012e-20)
(-0.320641 -0.0908466 -1.19456e-19)
(-0.0501797 -0.117314 -4.45131e-19)
(0.214598 -0.136932 -1.96032e-19)
(0.474089 -0.17132 2.77366e-19)
(0.696777 -0.20534 -2.09444e-19)
(0.886416 -0.226293 4.34184e-21)
(1.06317 -0.268299 -1.93126e-19)
(-1.1274 -0.00791348 -2.04318e-20)
(-0.892584 -0.02216 -3.41704e-20)
(-0.627243 -0.0363558 -9.25329e-20)
(-0.352721 -0.0552094 8.25583e-20)
(-0.0652478 -0.0833477 3.17583e-19)
(0.204755 -0.107588 4.91338e-20)
(0.464209 -0.136342 -3.20752e-20)
(0.691515 -0.1725 2.83429e-19)
(0.882785 -0.189953 -7.01124e-20)
(1.04444 -0.244312 1.84789e-19)
(-1.13223 -0.00588265 1.52734e-20)
(-0.884756 -0.015905 -2.60986e-20)
(-0.613693 -0.0240569 1.01979e-19)
(-0.34962 -0.0398381 -7.90422e-20)
(-0.0714257 -0.0503532 2.34358e-20)
(0.193569 -0.074459 2.69141e-19)
(0.454387 -0.0972507 -2.49196e-19)
(0.68356 -0.13481 -2.50938e-19)
(0.878635 -0.14604 -7.39489e-20)
(1.0295 -0.213583 2.37028e-19)
(-1.14203 -0.00121286 -5.03539e-21)
(-0.902703 -0.000909933 1.09335e-20)
(-0.636718 -0.000657905 1.8998e-20)
(-0.363027 -0.00757339 1.07427e-19)
(-0.0726076 -0.0180523 -9.6624e-20)
(0.189222 -0.0386506 -1.72681e-19)
(0.448541 -0.0563279 -1.62256e-19)
(0.67836 -0.0961431 -6.145e-20)
(0.876351 -0.100075 1.53798e-19)
(1.01931 -0.177138 -2.89998e-19)
(-1.13481 0.000718898 -4.63303e-21)
(-0.885399 0.0053031 8.62424e-21)
(-0.61763 0.0122504 -6.69422e-20)
(-0.35533 0.0105344 -9.07398e-20)
(-0.0761734 0.0122306 -9.2124e-21)
(0.182909 -0.00585971 8.19084e-20)
(0.446093 -0.0163246 7.52856e-20)
(0.673695 -0.0548402 -6.85663e-21)
(0.877376 -0.0533523 -3.41842e-20)
(1.01387 -0.13568 2.6365e-19)
(-1.1307 0.00555431 7.56163e-21)
(-0.887963 0.0206865 -3.94856e-20)
(-0.622926 0.03477 1.69307e-21)
(-0.351939 0.0390739 -5.5962e-21)
(-0.068872 0.0408209 3.54447e-20)
(0.183917 0.0283395 -2.35589e-19)
(0.446425 0.0255601 1.17633e-20)
(0.669236 -0.0153188 3.083e-19)
(0.878019 -0.00769935 2.7083e-19)
(1.01105 -0.0876029 -9.77314e-20)
(-1.10932 0.00730618 -5.34531e-21)
(-0.858233 0.0263597 4.18885e-20)
(-0.594658 0.0473524 -2.14665e-20)
(-0.33916 0.0607114 9.68353e-20)
(-0.0632951 0.0716538 1.4644e-19)
(0.194221 0.0609329 3.10709e-19)
(0.453312 0.0702516 4.46199e-21)
(0.67244 0.0265743 -6.74142e-20)
(0.876967 0.0401894 -4.54487e-19)
(1.01104 -0.0358458 -1.46803e-19)
(-1.0896 0.0123855 1.53348e-20)
(-0.843221 0.0421259 2.93562e-20)
(-0.579682 0.0693871 1.22729e-20)
(-0.317467 0.0875318 -2.67812e-20)
(-0.0464173 0.103621 -8.09874e-20)
(0.210683 0.0982525 -9.35332e-20)
(0.461133 0.113019 2.01521e-20)
(0.677374 0.0697371 9.89108e-20)
(0.876323 0.0874896 2.11189e-19)
(1.01578 0.0150196 2.11154e-19)
(-1.05329 0.0134315 -1.8626e-21)
(-0.799638 0.0463341 -8.92039e-21)
(-0.538294 0.0813656 7.07747e-20)
(-0.291162 0.112916 4.91603e-20)
(-0.0239828 0.137247 -6.82996e-20)
(0.234977 0.138384 1.2456e-19)
(0.475794 0.156349 -1.09685e-20)
(0.687939 0.115464 4.46126e-20)
(0.879675 0.132507 -2.24306e-21)
(1.02537 0.0679126 -9.25071e-20)
(-1.01895 0.0180276 -1.08266e-21)
(-0.76787 0.0595697 -4.33182e-20)
(-0.502125 0.0974561 -8.52003e-21)
(-0.248825 0.131651 -3.16336e-20)
(0.00661646 0.1665 1.0531e-20)
(0.260365 0.173405 -2.37658e-19)
(0.48917 0.192943 2.27032e-19)
(0.69643 0.156915 -4.28588e-20)
(0.882547 0.17463 3.14584e-20)
(1.04 0.122563 -2.00449e-19)
(-0.970241 0.0174147 -6.48698e-21)
(-0.714234 0.0593393 -9.83365e-22)
(-0.45264 0.103248 1.7081e-20)
(-0.209303 0.144262 4.08695e-20)
(0.0405012 0.184424 -8.28077e-20)
(0.286397 0.200851 1.09519e-19)
(0.509112 0.222125 -8.39056e-20)
(0.710412 0.198575 -1.37329e-19)
(0.892736 0.213315 1.51174e-19)
(1.06224 0.178605 5.2017e-21)
(-0.923911 0.021793 -3.54978e-21)
(-0.66851 0.0695113 4.85915e-20)
(-0.399888 0.111329 -3.39765e-20)
(-0.152608 0.15504 -7.34363e-20)
(0.084325 0.195972 -2.44922e-20)
(0.318357 0.215909 8.11926e-20)
(0.532943 0.24699 -9.71872e-20)
(0.728825 0.233087 -8.2172e-20)
(0.909167 0.247637 -2.97457e-19)
(1.09396 0.234083 1.39583e-19)
(-0.865404 0.0203602 3.11385e-21)
(-0.608131 0.0669629 -3.13537e-20)
(-0.348883 0.114391 1.57782e-20)
(-0.106705 0.157573 -1.22436e-20)
(0.131887 0.200507 8.08444e-20)
(0.354344 0.227543 -1.55363e-20)
(0.562632 0.26269 1.35117e-19)
(0.759808 0.264721 8.50709e-20)
(0.942412 0.283869 1.65916e-19)
(1.13533 0.288498 1.43788e-19)
(-0.807482 0.0258927 2.96097e-22)
(-0.545871 0.0790989 1.08696e-20)
(-0.276064 0.124584 -1.94399e-20)
(-0.040478 0.174592 4.51275e-20)
(0.193754 0.216932 -9.89161e-21)
(0.407262 0.248882 -7.18576e-20)
(0.609419 0.284501 -5.11626e-20)
(0.804745 0.300392 -6.43691e-20)
(0.990318 0.321809 -5.44131e-20)
(1.17814 0.339999 -1.18716e-19)
(-0.738887 0.0235349 2.49005e-22)
(-0.481633 0.0763749 -2.21337e-22)
(-0.21742 0.132126 -1.31306e-20)
(0.0211965 0.183673 -8.50266e-21)
(0.25373 0.230885 3.14492e-20)
(0.464184 0.267385 -5.98679e-21)
(0.666489 0.310245 -4.86532e-20)
(0.865151 0.338873 6.23943e-20)
(1.0538 0.36567 -2.78115e-20)
(1.21627 0.388883 -5.90916e-20)
(-0.663214 0.0319463 8.47527e-22)
(-0.397472 0.091387 -8.53368e-21)
(-0.128965 0.141271 1.72098e-20)
(0.100304 0.203098 3.3464e-21)
(0.328291 0.251857 3.81321e-21)
(0.542099 0.302098 -7.57733e-21)
(0.752439 0.353264 -5.39999e-20)
(0.950334 0.390192 4.81292e-21)
(1.11744 0.41249 7.35561e-20)
(1.22869 0.425537 5.80545e-20)
(-0.572565 0.0313453 -1.23701e-21)
(-0.324946 0.105352 7.3663e-21)
(-0.0455157 0.168263 7.17708e-21)
(0.199927 0.238808 -1.24269e-20)
(0.433238 0.298854 -1.97136e-20)
(0.656332 0.360664 9.44166e-21)
(0.85945 0.410759 3.14779e-20)
(1.02604 0.439052 2.95833e-22)
(1.14129 0.442549 -5.59816e-21)
(1.20052 0.441732 3.01927e-20)
(-0.433866 0.0478132 1.53664e-22)
(-0.176372 0.136333 -3.14146e-21)
(0.083279 0.218411 -3.35753e-21)
(0.332762 0.292355 6.35254e-21)
(0.563391 0.360953 1.06533e-20)
(0.770614 0.415584 2.98601e-20)
(0.933648 0.449712 3.7381e-20)
(1.04788 0.456731 4.99376e-21)
(1.11275 0.443687 -3.42944e-20)
(1.14596 0.437524 -5.00803e-20)
(0.950625 0.441953 -1.7098e-20)
(1.01948 0.435607 -1.49822e-21)
(1.05824 0.420103 1.95686e-20)
(1.08666 0.414536 3.24743e-21)
(1.35799 -0.317579 0)
(1.35816 -0.314605 0)
(1.31447 -0.285544 0)
(1.28558 -0.257961 0)
(1.26863 -0.232471 0)
(1.24981 -0.207674 0)
(1.23002 -0.184176 0)
(1.21462 -0.162541 0)
(1.20279 -0.143133 0)
(1.19077 -0.125927 0)
(1.17724 -0.110518 0)
(1.16327 -0.0965051 0)
(1.15002 -0.0840086 0)
(1.13775 -0.072967 0)
(1.12629 -0.0630979 0)
(1.11558 -0.0542762 0)
(1.10564 -0.0464719 0)
(1.09646 -0.0395578 0)
(1.08801 -0.0334843 0)
(1.08028 -0.0281707 0)
(1.07324 -0.0235514 0)
(1.06684 -0.019543 0)
(1.06108 -0.0160696 0)
(1.05594 -0.0130554 0)
(1.05144 -0.0104308 0)
(1.04757 -0.008129 0)
(1.04437 -0.00608066 0)
(1.04188 -0.00422417 0)
(1.04014 -0.00249791 0)
(1.03923 -0.000825391 0)
(1.35554 -0.288447 0)
(1.39536 -0.289149 0)
(1.3586 -0.265129 0)
(1.32401 -0.239807 0)
(1.30219 -0.216304 0)
(1.28024 -0.193316 0)
(1.25687 -0.171245 0)
(1.23789 -0.150857 0)
(1.22309 -0.132635 0)
(1.20839 -0.116559 0)
(1.1925 -0.102174 0)
(1.17653 -0.0892261 0)
(1.16154 -0.0777074 0)
(1.14769 -0.0675235 0)
(1.13486 -0.0583894 0)
(1.12295 -0.0502469 0)
(1.11194 -0.0430223 0)
(1.10181 -0.0366396 0)
(1.09252 -0.0310219 0)
(1.08405 -0.0261161 0)
(1.07636 -0.021845 0)
(1.06941 -0.0181395 0)
(1.06315 -0.0149273 0)
(1.05759 -0.0121394 0)
(1.05272 -0.00971186 0)
(1.04854 -0.00757899 0)
(1.04509 -0.00567926 0)
(1.0424 -0.00395265 0)
(1.04052 -0.00234147 0)
(1.03953 -0.000777176 0)
(1.34259 -0.26146 0)
(1.41812 -0.264381 0)
(1.39187 -0.242446 0)
(1.35524 -0.218052 0)
(1.32993 -0.196402 0)
(1.30547 -0.175608 0)
(1.27951 -0.155479 0)
(1.25766 -0.136775 0)
(1.24017 -0.120146 0)
(1.22315 -0.105475 0)
(1.20524 -0.0924474 0)
(1.18758 -0.0807646 0)
(1.17113 -0.0704291 0)
(1.156 -0.061251 0)
(1.14206 -0.0530032 0)
(1.12918 -0.0456167 0)
(1.11731 -0.039088 0)
(1.1064 -0.0332946 0)
(1.09643 -0.0282077 0)
(1.08736 -0.0237576 0)
(1.07914 -0.0198875 0)
(1.07171 -0.0165266 0)
(1.06506 -0.0136124 0)
(1.05914 -0.0110818 0)
(1.05397 -0.00887486 0)
(1.04953 -0.00693673 0)
(1.04586 -0.00520682 0)
(1.043 -0.00363243 0)
(1.041 -0.00215746 0)
(1.03995 -0.00072091 0)
(1.32332 -0.231043 0)
(1.42932 -0.238213 0)
(1.41502 -0.218507 0)
(1.37822 -0.194206 0)
(1.35072 -0.17398 0)
(1.32465 -0.155261 0)
(1.29703 -0.137299 0)
(1.27304 -0.120703 0)
(1.25333 -0.105908 0)
(1.23435 -0.0929273 0)
(1.21483 -0.0814636 0)
(1.19584 -0.0713082 0)
(1.17829 -0.0622985 0)
(1.16222 -0.0542669 0)
(1.14746 -0.0469965 0)
(1.13387 -0.0404981 0)
(1.12135 -0.0347193 0)
(1.10987 -0.0296084 0)
(1.09939 -0.0251087 0)
(1.08988 -0.0211762 0)
(1.08127 -0.0177471 0)
(1.0735 -0.0147675 0)
(1.06654 -0.012181 0)
(1.06036 -0.00993154 0)
(1.05495 -0.00796972 0)
(1.05031 -0.00624105 0)
(1.04646 -0.00469606 0)
(1.04345 -0.00328428 0)
(1.04135 -0.0019551 0)
(1.04022 -0.000646459 0)
(1.30449 -0.19631 0)
(1.43538 -0.208088 0)
(1.43221 -0.191561 0)
(1.39531 -0.168274 0)
(1.36561 -0.149408 0)
(1.33846 -0.13292 0)
(1.30984 -0.117331 0)
(1.28424 -0.102893 0)
(1.2627 -0.0901708 0)
(1.24214 -0.0790969 0)
(1.22134 -0.0694762 0)
(1.20132 -0.0609755 0)
(1.18298 -0.0534406 0)
(1.16628 -0.0466592 0)
(1.15099 -0.0404909 0)
(1.13692 -0.0349201 0)
(1.12399 -0.0299866 0)
(1.11214 -0.0255969 0)
(1.10135 -0.0217401 0)
(1.09156 -0.0183579 0)
(1.08271 -0.0154099 0)
(1.07473 -0.0128429 0)
(1.06759 -0.0106104 0)
(1.06125 -0.00866632 0)
(1.05569 -0.00696409 0)
(1.05093 -0.0054649 0)
(1.04697 -0.00412069 0)
(1.04386 -0.00288986 0)
(1.04168 -0.00172465 0)
(1.04051 -0.00058407 0)
(1.28772 -0.156173 0)
(1.43868 -0.173377 0)
(1.44604 -0.160349 0)
(1.40904 -0.138971 0)
(1.37722 -0.122638 0)
(1.34893 -0.108813 0)
(1.3194 -0.0957121 0)
(1.29245 -0.0836708 0)
(1.26933 -0.0731589 0)
(1.24741 -0.0642451 0)
(1.22555 -0.0566028 0)
(1.20478 -0.0499243 0)
(1.18589 -0.0439688 0)
(1.16879 -0.0385482 0)
(1.15313 -0.0335317 0)
(1.13876 -0.029005 0)
(1.12555 -0.0249554 0)
(1.11347 -0.0213589 0)
(1.10248 -0.0181843 0)
(1.09252 -0.0153989 0)
(1.08351 -0.0129588 0)
(1.07542 -0.0108284 0)
(1.06817 -0.00897105 0)
(1.06174 -0.00734589 0)
(1.0561 -0.00592237 0)
(1.05126 -0.00466015 0)
(1.04722 -0.00352474 0)
(1.04404 -0.00247891 0)
(1.04178 -0.00148231 0)
(1.04057 -0.000483836 0)
(1.27621 -0.111736 0)
(1.44184 -0.133435 0)
(1.45731 -0.123798 0)
(1.42048 -0.105962 0)
(1.38672 -0.0931771 0)
(1.35727 -0.0827165 0)
(1.32677 -0.0724676 0)
(1.29852 -0.0629878 0)
(1.274 -0.0550019 0)
(1.25089 -0.0484203 0)
(1.22819 -0.0429682 0)
(1.20683 -0.0382184 0)
(1.18759 -0.0339266 0)
(1.17022 -0.0299314 0)
(1.15437 -0.026185 0)
(1.13978 -0.0227291 0)
(1.1264 -0.0196424 0)
(1.11417 -0.016871 0)
(1.10307 -0.014424 0)
(1.09301 -0.0122591 0)
(1.08395 -0.0103583 0)
(1.0758 -0.00868973 0)
(1.06851 -0.00722435 0)
(1.06205 -0.005938 0)
(1.05638 -0.00479913 0)
(1.05151 -0.00378751 0)
(1.04745 -0.00287157 0)
(1.04423 -0.00202411 0)
(1.04195 -0.0012125 0)
(1.04071 -0.000415967 0)
(1.26807 -0.0652546 0)
(1.44419 -0.089617 0)
(1.46571 -0.0819218 0)
(1.42931 -0.0690896 0)
(1.39442 -0.061256 0)
(1.36382 -0.0545472 0)
(1.33235 -0.0474535 0)
(1.30295 -0.040993 0)
(1.27717 -0.0357614 0)
(1.25306 -0.0317948 0)
(1.22968 -0.0286518 0)
(1.20797 -0.025905 0)
(1.18852 -0.0233622 0)
(1.17104 -0.0208856 0)
(1.15504 -0.0184402 0)
(1.14032 -0.0161651 0)
(1.12681 -0.0140871 0)
(1.11448 -0.0122057 0)
(1.10329 -0.0105199 0)
(1.09318 -0.00901746 0)
(1.08407 -0.0076797 0)
(1.07589 -0.00649027 0)
(1.06859 -0.00543755 0)
(1.06211 -0.00449788 0)
(1.05644 -0.00366192 0)
(1.05156 -0.00290614 0)
(1.04749 -0.00221338 0)
(1.04426 -0.00156604 0)
(1.04195 -0.000939452 0)
(1.04071 -0.000298739 0)
(1.26553 -0.017701 0)
(1.44618 -0.0422844 0)
(1.47061 -0.0352294 0)
(1.43512 -0.0291082 0)
(1.39962 -0.0268091 0)
(1.3682 -0.0242545 0)
(1.33594 -0.020773 0)
(1.30557 -0.0176774 0)
(1.2788 -0.0156276 0)
(1.2539 -0.0144166 0)
(1.23012 -0.0136948 0)
(1.20827 -0.0130577 0)
(1.18883 -0.0122918 0)
(1.17133 -0.0113647 0)
(1.15531 -0.0103331 0)
(1.14054 -0.00927027 0)
(1.12697 -0.00826459 0)
(1.1146 -0.00730385 0)
(1.10338 -0.00642456 0)
(1.09325 -0.00560739 0)
(1.08413 -0.0048604 0)
(1.07595 -0.00417818 0)
(1.06865 -0.00355123 0)
(1.06219 -0.00298016 0)
(1.05654 -0.00245124 0)
(1.05168 -0.00196346 0)
(1.04763 -0.00150553 0)
(1.04442 -0.00106848 0)
(1.04214 -0.000643326 0)
(1.0409 -0.000223109 0)
(1.26794 0.0282842 0)
(1.44599 0.00748692 0)
(1.47094 0.0143615 0)
(1.43665 0.0128214 0)
(1.40134 0.00944925 0)
(1.36968 0.00790669 0)
(1.33706 0.00736967 0)
(1.30612 0.00662395 0)
(1.27864 0.00531865 0)
(1.25332 0.0035554 0)
(1.22943 0.00174698 0)
(1.20772 0.000286902 0)
(1.18845 -0.000782116 0)
(1.17109 -0.0014791 0)
(1.15514 -0.00188165 0)
(1.14039 -0.00211711 0)
(1.12683 -0.00223259 0)
(1.11446 -0.00225197 0)
(1.10324 -0.00220464 0)
(1.0931 -0.00210779 0)
(1.08399 -0.00197471 0)
(1.07581 -0.00181069 0)
(1.06853 -0.00163304 0)
(1.06208 -0.00143692 0)
(1.05646 -0.00123543 0)
(1.05163 -0.00102466 0)
(1.04761 -0.000805368 0)
(1.04443 -0.000584057 0)
(1.04217 -0.000354519 0)
(1.04097 -0.00010712 0)
(1.27354 0.0752114 0)
(1.44357 0.0587987 0)
(1.46667 0.0643757 0)
(1.43289 0.0553749 0)
(1.39836 0.0471734 0)
(1.36737 0.0412178 0)
(1.33501 0.0364498 0)
(1.30392 0.0316815 0)
(1.27626 0.0267247 0)
(1.25096 0.0219279 0)
(1.22743 0.0176262 0)
(1.20619 0.0140103 0)
(1.18731 0.011106 0)
(1.17023 0.00877816 0)
(1.15449 0.00686442 0)
(1.1399 0.00530784 0)
(1.12644 0.00403316 0)
(1.11415 0.00301903 0)
(1.10301 0.00219392 0)
(1.09293 0.00154959 0)
(1.08386 0.00104826 0)
(1.07573 0.000663833 0)
(1.06848 0.000384005 0)
(1.06207 0.000182282 0)
(1.05648 5.08346e-05 0)
(1.05169 -2.68226e-05 0)
(1.04771 -6.19419e-05 0)
(1.04458 -6.28724e-05 0)
(1.04238 -4.77621e-05 0)
(1.04117 -1.60002e-05 0)
(1.28299 0.12212 0)
(1.439 0.108917 0)
(1.45605 0.112869 0)
(1.42247 0.0979136 0)
(1.38996 0.0849577 0)
(1.36055 0.0748118 0)
(1.32907 0.0657246 0)
(1.29846 0.0568263 0)
(1.27121 0.0482857 0)
(1.24658 0.0404865 0)
(1.22391 0.0336671 0)
(1.20344 0.0279885 0)
(1.18517 0.0232652 0)
(1.16855 0.0192374 0)
(1.15315 0.0158093 0)
(1.13881 0.0128906 0)
(1.12557 0.0104333 0)
(1.11344 0.00837886 0)
(1.10242 0.00667692 0)
(1.09244 0.00527478 0)
(1.08346 0.00412071 0)
(1.07538 0.00318708 0)
(1.06819 0.00242708 0)
(1.06182 0.00182371 0)
(1.05626 0.00134251 0)
(1.05151 0.000964197 0)
(1.04757 0.000671772 0)
(1.04448 0.000436449 0)
(1.04229 0.000249099 0)
(1.04114 8.02537e-05 0)
(1.29538 0.167329 0)
(1.43074 0.157983 0)
(1.43795 0.158717 0)
(1.40481 0.138098 0)
(1.3755 0.121664 0)
(1.3486 0.107466 0)
(1.31864 0.0943652 0)
(1.28916 0.0815571 0)
(1.26314 0.0694955 0)
(1.23991 0.0588149 0)
(1.21861 0.0497257 0)
(1.19931 0.0420605 0)
(1.18189 0.0354935 0)
(1.16594 0.0298292 0)
(1.15105 0.0248802 0)
(1.13716 0.0206185 0)
(1.12427 0.0169675 0)
(1.11244 0.0138964 0)
(1.10165 0.0112945 0)
(1.09186 0.00911941 0)
(1.08301 0.00730721 0)
(1.07506 0.00579996 0)
(1.06795 0.0045603 0)
(1.06166 0.00353787 0)
(1.05615 0.00270104 0)
(1.05144 0.0020164 0)
(1.04753 0.00144988 0)
(1.04447 0.000981168 0)
(1.04231 0.000565559 0)
(1.04113 0.000202476 0)
(1.30947 0.210642 0)
(1.41755 0.205352 0)
(1.4118 0.200698 0)
(1.37984 0.175042 0)
(1.35504 0.155611 0)
(1.33124 0.13811 0)
(1.30325 0.121346 0)
(1.27568 0.104906 0)
(1.2518 0.0897638 0)
(1.23075 0.0766324 0)
(1.21139 0.0654589 0)
(1.19358 0.0559041 0)
(1.17726 0.0476326 0)
(1.16212 0.0403076 0)
(1.14796 0.0338831 0)
(1.13465 0.0282907 0)
(1.12226 0.0234947 0)
(1.11084 0.0193933 0)
(1.10037 0.0159166 0)
(1.09083 0.0129835 0)
(1.08219 0.0105075 0)
(1.07438 0.00843829 0)
(1.0674 0.00670461 0)
(1.06119 0.00526512 0)
(1.05576 0.00406693 0)
(1.05109 0.0030658 0)
(1.04721 0.00222894 0)
(1.04416 0.00150828 0)
(1.042 0.000881201 0)
(1.04086 0.00027212 0)
(1.32011 0.249781 0)
(1.39594 0.250186 0)
(1.37747 0.237638 0)
(1.34881 0.2068 0)
(1.32912 0.185767 0)
(1.30847 0.165436 0)
(1.28288 0.145635 0)
(1.25802 0.12624 0)
(1.23728 0.108593 0)
(1.21916 0.0934159 0)
(1.20215 0.0804962 0)
(1.18613 0.0693187 0)
(1.17116 0.0593631 0)
(1.15715 0.050528 0)
(1.14388 0.0427122 0)
(1.13138 0.0359004 0)
(1.11967 0.0299822 0)
(1.10879 0.024921 0)
(1.09876 0.020583 0)
(1.08959 0.016893 0)
(1.08123 0.0137695 0)
(1.07366 0.01113 0)
(1.06685 0.00891308 0)
(1.06079 0.00705014 0)
(1.05546 0.00548556 0)
(1.05086 0.00417117 0)
(1.04703 0.00305052 0)
(1.044 0.00208947 0)
(1.04186 0.00121723 0)
(1.04069 0.000435369 0)
(1.32205 0.284841 0)
(1.36454 0.291061 0)
(1.33647 0.26738 0)
(1.313 0.233104 0)
(1.29856 0.211472 0)
(1.28088 0.188858 0)
(1.25793 0.166474 0)
(1.23669 0.144708 0)
(1.2199 0.12531 0)
(1.20522 0.108783 0)
(1.19092 0.0945024 0)
(1.17689 0.0817846 0)
(1.16351 0.0704039 0)
(1.15079 0.060182 0)
(1.13867 0.0511366 0)
(1.12715 0.0431702 0)
(1.11624 0.0362627 0)
(1.10604 0.0302811 0)
(1.09657 0.0251362 0)
(1.08783 0.02074 0)
(1.07982 0.0169847 0)
(1.07253 0.0138011 0)
(1.06594 0.0111022 0)
(1.06004 0.00882505 0)
(1.05484 0.00690266 0)
(1.05035 0.00526913 0)
(1.04658 0.00387434 0)
(1.04361 0.0026509 0)
(1.04149 0.00155801 0)
(1.04035 0.000485711 0)
(1.30995 0.312623 0)
(1.32116 0.325112 0)
(1.28925 0.288021 0)
(1.27406 0.253539 0)
(1.26433 0.232147 0)
(1.24899 0.207418 0)
(1.22911 0.183042 0)
(1.21238 0.15986 0)
(1.20017 0.139661 0)
(1.18934 0.122305 0)
(1.17781 0.106953 0)
(1.16594 0.0931127 0)
(1.15434 0.0804701 0)
(1.14317 0.0691179 0)
(1.13242 0.0590117 0)
(1.12203 0.050119 0)
(1.11213 0.0422969 0)
(1.10274 0.0354972 0)
(1.09393 0.0296063 0)
(1.08574 0.0245303 0)
(1.07818 0.0201815 0)
(1.07125 0.0164667 0)
(1.06496 0.0133078 0)
(1.05929 0.010624 0)
(1.05428 0.0083407 0)
(1.04993 0.00639649 0)
(1.04627 0.00471687 0)
(1.04337 0.00325061 0)
(1.0413 0.0019039 0)
(1.04019 0.000669644 0)
(1.27679 0.331157 0)
(1.26706 0.350356 0)
(1.2395 0.297239 0)
(1.23328 0.268188 0)
(1.22665 0.247717 0)
(1.21362 0.220762 0)
(1.19784 0.195073 0)
(1.18642 0.17144 0)
(1.17913 0.151254 0)
(1.1719 0.133591 0)
(1.16307 0.117633 0)
(1.15346 0.102798 0)
(1.14381 0.0892417 0)
(1.13439 0.0770427 0)
(1.1251 0.0661594 0)
(1.11605 0.0564454 0)
(1.10721 0.0478862 0)
(1.09875 0.040378 0)
(1.0907 0.0338242 0)
(1.08314 0.0281507 0)
(1.07609 0.0232506 0)
(1.06957 0.0190474 0)
(1.0636 0.0154467 0)
(1.0582 0.0123736 0)
(1.05339 0.00975069 0)
(1.0492 0.00749806 0)
(1.04568 0.00554836 0)
(1.04288 0.00382099 0)
(1.04089 0.00225285 0)
(1.03979 0.000722066 0)
(1.22756 0.338666 0)
(1.20775 0.364141 0)
(1.18895 0.296183 0)
(1.19017 0.279215 0)
(1.18572 0.256988 0)
(1.176 0.227763 0)
(1.16542 0.202134 0)
(1.15971 0.179544 0)
(1.15705 0.16009 0)
(1.15314 0.142497 0)
(1.14693 0.126027 0)
(1.13962 0.11066 0)
(1.13211 0.0966424 0)
(1.12452 0.0839422 0)
(1.11693 0.0724625 0)
(1.10922 0.0621873 0)
(1.1016 0.0530235 0)
(1.09414 0.0449139 0)
(1.08696 0.0377967 0)
(1.08012 0.0315858 0)
(1.07367 0.0262003 0)
(1.06765 0.0215456 0)
(1.06209 0.0175422 0)
(1.05701 0.0141029 0)
(1.05247 0.0111441 0)
(1.04848 0.00859427 0)
(1.04512 0.00636951 0)
(1.04244 0.00440283 0)
(1.04052 0.00258848 0)
(1.0395 0.000881172 0)
(1.17212 0.336325 0)
(1.14484 0.366102 0)
(1.1388 0.286793 0)
(1.14567 0.28553 0)
(1.14374 0.257604 0)
(1.13834 0.227973 0)
(1.13335 0.204963 0)
(1.13331 0.1844 0)
(1.13477 0.165876 0)
(1.13367 0.148483 0)
(1.12993 0.13202 0)
(1.12499 0.116663 0)
(1.11961 0.102493 0)
(1.11401 0.0895409 0)
(1.108 0.0777771 0)
(1.10178 0.0671037 0)
(1.09541 0.0575003 0)
(1.08905 0.0489529 0)
(1.08278 0.0413849 0)
(1.07672 0.0347408 0)
(1.0709 0.0289283 0)
(1.0654 0.023884 0)
(1.06026 0.0195127 0)
(1.05552 0.0157386 0)
(1.05124 0.0124789 0)
(1.04746 0.00964989 0)
(1.04425 0.00717215 0)
(1.04167 0.00496083 0)
(1.03985 0.00292986 0)
(1.03882 0.000970878 0)
(1.11386 0.322904 0)
(1.0811 0.3546 0)
(1.0919 0.269988 0)
(1.10181 0.286037 0)
(1.10288 0.248113 0)
(1.10192 0.223501 0)
(1.10266 0.204622 0)
(1.10784 0.185776 0)
(1.11246 0.168341 0)
(1.11372 0.151714 0)
(1.11235 0.135791 0)
(1.10973 0.120726 0)
(1.10654 0.106782 0)
(1.10271 0.093914 0)
(1.09838 0.0820429 0)
(1.09364 0.0711536 0)
(1.08858 0.0613021 0)
(1.08335 0.0524495 0)
(1.07809 0.0445591 0)
(1.07286 0.0375747 0)
(1.06776 0.0314401 0)
(1.06286 0.0260649 0)
(1.05822 0.0213826 0)
(1.05389 0.0173107 0)
(1.04993 0.0137677 0)
(1.04641 0.0106759 0)
(1.04339 0.00794974 0)
(1.04096 0.00551017 0)
(1.0392 0.00325175 0)
(1.03827 0.0010701 0)
(1.05557 0.302919 0)
(1.02331 0.331198 0)
(1.23421 -0.334629 1.07922e-19)
(1.15738 -0.290294 -4.10491e-20)
(1.12714 -0.246439 2.5939e-20)
(1.14867 -0.235655 1.30348e-20)
(1.16121 -0.229864 -7.92998e-21)
(1.15792 -0.2148 1.4338e-20)
(1.15296 -0.193296 -4.50044e-20)
(1.14954 -0.173434 2.55833e-20)
(1.14405 -0.155729 -3.16095e-20)
(1.1363 -0.138561 -6.04307e-21)
(1.2187 -0.321481 -1.23303e-20)
(1.2771 -0.330935 1.83645e-20)
(1.23827 -0.282093 6.52018e-20)
(1.18785 -0.234896 6.1999e-22)
(1.17304 -0.208732 2.7235e-20)
(1.17009 -0.190406 -3.98023e-20)
(1.16479 -0.171474 -3.37086e-20)
(1.16098 -0.155436 4.94559e-20)
(1.15585 -0.140913 -1.15075e-20)
(1.14696 -0.126283 -4.61894e-21)
(1.13726 -0.11255 -4.97968e-21)
(1.1285 -0.100008 1.1392e-21)
(1.12016 -0.088374 -1.60023e-20)
(1.11205 -0.077679 1.3941e-20)
(1.10431 -0.0679441 1.27995e-20)
(1.09687 -0.0591163 -1.30915e-20)
(1.08975 -0.0511352 1.29493e-20)
(1.08307 -0.0439701 -8.3479e-21)
(1.07683 -0.0375984 -2.37253e-21)
(1.07101 -0.0319354 1.87685e-21)
(1.0656 -0.0269323 -4.87984e-22)
(1.06062 -0.0225271 -1.03273e-21)
(1.05607 -0.0186512 2.14155e-22)
(1.05196 -0.0152373 1.68022e-21)
(1.04833 -0.0122236 -1.163e-21)
(1.04519 -0.00954623 3.59243e-22)
(1.0426 -0.00714057 -2.46055e-22)
(1.0406 -0.00495025 4.50146e-22)
(1.03921 -0.00292001 4.54858e-22)
(1.03848 -0.000954266 1.19795e-21)
(1.17124 -0.302571 2.0862e-19)
(1.17751 -0.292374 -1.07822e-19)
(1.21266 -0.277926 -5.34526e-20)
(1.21844 -0.26233 2.52037e-20)
(1.2014 -0.241445 6.57969e-20)
(1.18235 -0.215258 -7.16173e-20)
(1.17358 -0.191002 2.31747e-20)
(1.17026 -0.171516 -3.27367e-20)
(1.16349 -0.153182 2.99029e-20)
(1.15365 -0.135318 9.7259e-21)
(1.14419 -0.119334 -2.56471e-20)
(1.13507 -0.105004 -4.68435e-21)
(1.12584 -0.0919025 9.89834e-21)
(1.11694 -0.0801677 3.34187e-21)
(1.10853 -0.0696726 6.48652e-21)
(1.10045 -0.0602394 -4.96242e-21)
(1.09278 -0.0517853 -2.72097e-21)
(1.08564 -0.0442878 -6.79609e-21)
(1.07898 -0.0376615 1.6765e-20)
(1.07279 -0.0318298 -6.19129e-21)
(1.06707 -0.0267173 -3.66811e-22)
(1.06182 -0.0222533 -4.06926e-22)
(1.05703 -0.0183553 -9.24184e-23)
(1.05273 -0.0149475 6.03099e-22)
(1.04893 -0.0119609 -1.46535e-21)
(1.04566 -0.00932432 9.98183e-24)
(1.04295 -0.00696876 -2.66968e-22)
(1.04085 -0.00483051 5.08929e-22)
(1.0394 -0.00284888 -7.02112e-22)
(1.03863 -0.000945576 -2.0815e-22)
(1.35649 -0.368946 -8.55809e-20)