/*--------------------------------*- C++ -*----------------------------------*\
| =========                 |                                                 |
| \\      /  F ield         | OpenFOAM: The Open Source CFD Toolbox           |
|  \\    /   O peration     | Version:                                        |
|   \\  /    A nd           | Website:  www.openfoam.com                      |
|    \\/     M anipulation  |                                                 |
\*---------------------------------------------------------------------------*/
FoamFile
{
    version     2.0;
    format      ascii;
    class       volVectorField;
    location    "32.2";
    object      U;
}
// * * * * * * * * * * * * * * * * * * * * * * * * * * * * * * * * * * * * * //

dimensions      [0 1 -1 0 0 0 0];


internalField   nonuniform List<vector> 
1139
(
(0.376391 -0.317063 8.11809e-20)
(0.447359 -0.305557 -1.26298e-19)
(0.53864 -0.313462 2.46232e-20)
(0.68553 -0.292834 9.81435e-20)
(0.617365 -0.306121 1.46662e-20)
(0.850101 -0.334748 -2.95666e-20)
(0.736689 -0.329409 -2.21806e-20)
(0.947902 -0.348132 -8.65324e-20)
(1.20558 -0.437935 -8.22813e-20)
(0.818123 -0.317166 -5.99307e-20)
(1.10028 -0.389221 1.51998e-19)
(1.23893 -0.429452 1.53043e-19)
(0.958296 -0.356504 6.81827e-20)
(1.16222 -0.38802 -8.99349e-21)
(1.27372 -0.436051 -1.88296e-19)
(1.03147 -0.329674 3.08189e-20)
(1.27391 -0.412434 -6.5484e-20)
(1.27473 -0.407892 7.37718e-20)
(1.11194 -0.331953 1.4373e-19)
(1.16785 -0.377916 5.08013e-20)
(1.29976 -0.398124 -2.75532e-19)
(1.23935 -0.38213 -4.53229e-20)
(1.14981 -0.333791 -6.54038e-20)
(1.22882 -0.330418 1.35241e-19)
(1.34808 -0.392042 2.51742e-19)
(1.25227 -0.359609 1.74981e-21)
(1.12339 -0.300076 -5.97245e-20)
(-0.356092 -0.0486459 -3.71648e-21)
(-0.431667 -0.0421782 4.09672e-21)
(-0.384611 -0.135364 4.52074e-21)
(-0.327682 -0.213088 -3.40861e-20)
(-0.27181 -0.279344 -1.11629e-20)
(-0.218337 -0.338075 -1.46707e-20)
(-0.496779 -0.0370454 -5.34816e-22)
(-0.4382 -0.123601 -1.63626e-21)
(-0.367275 -0.195005 1.28049e-20)
(-0.297297 -0.259036 4.1548e-20)
(-0.228599 -0.315814 9.58097e-20)
(-0.164385 -0.357027 8.76138e-20)
(-0.556434 -0.0326616 -3.24142e-21)
(-0.48679 -0.113419 2.45599e-20)
(-0.402555 -0.179669 2.5166e-20)
(-0.318545 -0.241995 -2.9261e-20)
(-0.23712 -0.294095 -1.37043e-19)
(-0.156225 -0.338183 1.6951e-21)
(-0.0865563 -0.371753 -7.72957e-20)
(-0.609255 -0.0290696 5.18375e-21)
(-0.528891 -0.10485 -1.95075e-20)
(-0.431952 -0.167199 -1.16737e-20)
(-0.33568 -0.226275 -1.66232e-20)
(-0.237663 -0.276342 1.76132e-19)
(-0.148801 -0.319586 -4.52195e-20)
(-0.0598918 -0.353273 -2.30234e-20)
(0.0104631 -0.377223 -2.28931e-20)
(-0.658061 -0.0259779 3.79747e-21)
(-0.567049 -0.0974903 -1.1981e-20)
(-0.457933 -0.156087 -2.46871e-20)
(-0.347015 -0.213115 7.76312e-21)
(-0.238116 -0.260716 4.88922e-22)
(-0.135928 -0.303142 -3.2783e-20)
(-0.034665 -0.336396 -2.28038e-19)
(0.053168 -0.363907 -1.24276e-19)
(0.103612 -0.363539 -2.78555e-20)
(-0.702084 -0.0234062 -1.13666e-20)
(-0.600517 -0.091099 -2.22319e-21)
(-0.478509 -0.147022 4.52414e-20)
(-0.355885 -0.201595 3.97567e-20)
(-0.235157 -0.246134 -1.32149e-19)
(-0.115897 -0.29127 9.61116e-20)
(-0.0123211 -0.31755 2.9407e-20)
(0.102746 -0.349621 1.937e-19)
(0.230126 -0.360642 1.10112e-19)
(0.286173 -0.357927 3.55139e-20)
(-0.74323 -0.0211631 9.99183e-21)
(-0.630774 -0.0856443 2.17475e-20)
(-0.496669 -0.138966 -1.22863e-20)
(-0.361548 -0.190745 -7.1958e-20)
(-0.224693 -0.236382 7.64718e-20)
(-0.101881 -0.276957 -2.62768e-21)
(0.0299795 -0.310833 -6.86671e-20)
(0.114726 -0.332305 1.14266e-19)
(0.191586 -0.336642 -1.64037e-19)
(0.309832 -0.351489 6.79404e-20)
(-0.781025 -0.0193131 -1.22163e-20)
(-0.657693 -0.080867 -1.57841e-20)
(-0.510816 -0.131919 -8.78775e-20)
(-0.362074 -0.182915 -1.01071e-20)
(-0.218645 -0.226004 -1.59795e-20)
(-0.07552 -0.267581 1.29204e-19)
(0.0553018 -0.295616 -1.0121e-19)
(0.220981 -0.332376 8.62844e-20)
(0.355422 -0.339026 2.13443e-20)
(0.41094 -0.330029 -1.79592e-19)
(-0.816877 -0.0177241 -1.34168e-20)
(-0.682221 -0.0767711 5.62368e-20)
(-0.522427 -0.126177 1.0304e-19)
(-0.363641 -0.174847 1.15221e-19)
(-0.204181 -0.217516 7.43394e-20)
(-0.0485722 -0.261254 -2.69786e-19)
(0.091888 -0.289966 2.40589e-19)
(0.187021 -0.309931 -2.32154e-20)
(0.299826 -0.319534 -5.73036e-20)
(0.439403 -0.334853 1.42883e-19)
(-0.850325 -0.016471 1.15364e-20)
(-0.704234 -0.0733212 -1.05196e-20)
(-0.532002 -0.120807 4.18435e-21)
(-0.359293 -0.168412 5.11819e-20)
(-0.186402 -0.213462 -6.83331e-20)
(-0.0280672 -0.249502 1.0103e-19)
(0.150111 -0.286194 -7.03963e-20)
(0.343122 -0.320611 5.34631e-20)
(0.480124 -0.324321 -5.76062e-21)
(0.544508 -0.317418 -5.30289e-20)
(-0.882246 -0.0154562 1.65918e-20)
(-0.724483 -0.0703462 -7.12317e-21)
(-0.538802 -0.116507 -4.8163e-20)
(-0.354055 -0.164221 3.1935e-20)
(-0.17489 -0.204931 -5.05845e-20)
(0.0125713 -0.250088 1.59195e-19)
(0.154583 -0.273067 -2.43243e-19)
(0.282294 -0.296478 1.70115e-19)
(0.418266 -0.308357 1.32668e-19)
(0.570222 -0.328758 1.19872e-19)
(-0.91195 -0.0147008 -1.38738e-20)
(-0.7423 -0.0679014 3.62975e-20)
(-0.543968 -0.112997 -1.27906e-20)
(-0.348653 -0.158298 -6.65685e-20)
(-0.147026 -0.202895 -1.71432e-19)
(0.0377139 -0.240745 -5.12971e-22)
(0.259241 -0.283236 3.57367e-21)
(0.460808 -0.311948 1.71143e-20)
(0.609465 -0.317905 -4.10915e-20)
(0.697753 -0.314886 -7.24642e-20)
(-0.939765 -0.0140889 -1.00609e-20)
(-0.758084 -0.0656965 1.542e-19)
(-0.547248 -0.10935 2.45195e-21)
(-0.336666 -0.155938 -1.08149e-19)
(-0.128749 -0.199778 1.09066e-19)
(0.0735942 -0.238639 1.47566e-19)
(0.233725 -0.262826 3.09977e-19)
(0.398444 -0.289424 -3.95798e-19)
(0.546662 -0.300486 -2.36602e-19)
(0.712334 -0.324731 1.9563e-19)
(-0.964932 -0.0135739 -3.46703e-20)
(-0.770862 -0.0634585 -6.97041e-21)
(-0.547078 -0.106621 -2.36033e-19)
(-0.32847 -0.152597 -5.70362e-20)
(-0.105302 -0.191426 3.80901e-20)
(0.12512 -0.241944 -1.88418e-19)
(0.370038 -0.28118 -3.00056e-19)
(0.576865 -0.30569 1.77724e-19)
(0.746738 -0.315307 3.94168e-19)
(0.881501 -0.319862 -2.02867e-19)
(-0.98785 -0.0130272 -1.01028e-21)
(-0.780721 -0.0610325 -3.16153e-20)
(-0.545348 -0.102653 1.87114e-19)
(-0.314922 -0.146865 1.99329e-19)
(-0.0734991 -0.197335 2.04073e-19)
(0.135301 -0.224399 -1.34987e-19)
(0.332597 -0.257812 1.38391e-19)
(0.527583 -0.284634 6.84356e-20)
(0.692907 -0.294251 -4.57582e-19)
(0.875508 -0.318597 -1.35234e-19)
(-1.00832 -0.0124483 1.50873e-20)
(-0.787702 -0.0579653 -6.6643e-21)
(-0.538972 -0.0975494 1.62763e-20)
(-0.297185 -0.146025 -1.87423e-19)
(-0.0458747 -0.18941 -5.07887e-19)
(0.226304 -0.245617 2.5895e-19)
(0.478309 -0.275502 -2.17131e-20)
(0.694545 -0.298681 -1.27995e-19)
(0.889993 -0.311405 4.63893e-19)
(1.09318 -0.329894 -6.46102e-20)
(-1.03018 -0.0116543 -1.75253e-20)
(-0.792816 -0.0538575 1.18761e-20)
(-0.527574 -0.0915157 -1.32085e-20)
(-0.274225 -0.139223 1.53778e-19)
(-0.0219567 -0.167484 4.03584e-19)
(0.205425 -0.208822 -3.16095e-19)
(0.440787 -0.246987 -6.66841e-21)
(0.656558 -0.272147 3.00524e-19)
(0.851905 -0.284126 -4.66965e-20)
(1.05579 -0.304761 -1.1865e-20)
(-1.06511 -0.00811536 4.26379e-21)
(-0.841271 -0.0412254 2.97115e-20)
(-0.587007 -0.0700113 -1.7206e-20)
(-0.332295 -0.100866 -7.64319e-20)
(-0.0702388 -0.135119 6.10104e-21)
(0.187952 -0.171413 9.08839e-20)
(0.428855 -0.21035 1.24549e-19)
(0.642849 -0.242285 -1.47997e-19)
(0.833982 -0.262552 -1.69016e-19)
(1.02457 -0.294048 -1.98109e-20)
(-1.08346 -0.0071071 9.36146e-21)
(-0.845072 -0.0369684 1.26e-21)
(-0.5812 -0.0628531 -2.31175e-20)
(-0.333956 -0.0975123 -1.11748e-19)
(-0.0756185 -0.12821 -4.14948e-19)
(0.171195 -0.14857 -1.8334e-19)
(0.418531 -0.182869 2.59804e-19)
(0.638331 -0.219007 -1.97124e-19)
(0.829379 -0.241567 4.08929e-21)
(0.999735 -0.283067 -1.8382e-19)
(-1.10953 -0.00360448 -1.94229e-20)
(-0.881074 -0.0246 -3.22263e-20)
(-0.623573 -0.0426599 -8.76031e-20)
(-0.366389 -0.0662821 7.71469e-20)
(-0.0939552 -0.0936722 2.97042e-19)
(0.159034 -0.123628 4.50837e-20)
(0.405946 -0.152794 -2.89459e-20)
(0.62918 -0.191158 2.67147e-19)
(0.823333 -0.209553 -6.66813e-20)
(0.976807 -0.262626 1.75516e-19)
(-1.12014 -0.00274592 1.45947e-20)
(-0.879881 -0.0204767 -2.50481e-20)
(-0.617462 -0.0336272 9.64799e-20)
(-0.370109 -0.0556649 -7.52337e-20)
(-0.10494 -0.0682902 2.26283e-20)
(0.141923 -0.0954191 2.535e-19)
(0.389876 -0.119289 -2.34674e-19)
(0.614586 -0.159735 -2.37924e-19)
(0.815373 -0.171379 -7.096e-20)
(0.957277 -0.236294 2.27106e-19)
(-1.13658 0.000540148 -4.87607e-21)
(-0.903994 -0.00831694 1.03219e-20)
(-0.645096 -0.0145999 1.83723e-20)
(-0.386666 -0.0288566 1.02155e-19)
(-0.112233 -0.0416034 -9.16351e-20)
(0.132728 -0.0668234 -1.63889e-19)
(0.38094 -0.0839209 -1.55019e-19)
(0.605095 -0.127395 -5.99406e-20)
(0.810227 -0.130845 1.46958e-19)
(0.943528 -0.205177 -2.78824e-19)
(-1.13781 0.00104051 -4.61632e-21)
(-0.895718 -0.00465853 8.29908e-21)
(-0.63483 -0.00552345 -6.52323e-20)
(-0.388436 -0.0162118 -8.81559e-20)
(-0.122117 -0.0182903 -9.11074e-21)
(0.122082 -0.0407967 7.82921e-20)
(0.370828 -0.0492446 7.09626e-20)
(0.59561 -0.0940738 -8.69746e-21)
(0.805373 -0.0888132 -3.29318e-20)
(0.933701 -0.170197 2.55357e-19)
(-1.14309 0.00425783 7.49766e-21)
(-0.906996 0.00745499 -3.96452e-20)
(-0.648079 0.0128804 9.66892e-22)
(-0.39121 0.0076049 -6.76113e-21)
(-0.119514 0.00482154 3.44635e-20)
(0.117134 -0.0140372 -2.30432e-19)
(0.36735 -0.0157263 1.03118e-20)
(0.588909 -0.0587973 2.99404e-19)
(0.803473 -0.047264 2.6447e-19)
(0.927796 -0.131397 -9.45282e-20)
(-1.13302 0.00464557 -5.4675e-21)
(-0.889214 0.0111081 4.19241e-20)
(-0.631476 0.0224462 -2.25878e-20)
(-0.388647 0.0231588 9.60769e-20)
(-0.12603 0.0296048 1.46805e-19)
(0.115236 0.00895297 3.05737e-19)
(0.366006 0.0201403 3.14189e-21)
(0.582161 -0.024304 -6.55678e-20)
(0.802091 -0.00750108 -4.47461e-19)
(0.924005 -0.087811 -1.45076e-19)
(-1.12506 0.00806895 1.60137e-20)
(-0.885454 0.0240502 3.0675e-20)
(-0.62758 0.0416049 1.13297e-20)
(-0.376176 0.0470731 -2.72232e-20)
(-0.115114 0.0571228 -7.94734e-20)
(0.127738 0.0405448 -9.32212e-20)
(0.372569 0.0579797 1.89741e-20)
(0.585928 0.0116666 1.00291e-19)
(0.800076 0.0350181 2.09718e-19)
(0.922755 -0.0404385 2.10816e-19)
(-1.1017 0.008177 -1.73378e-21)
(-0.855631 0.0275672 -8.81901e-21)
(-0.59989 0.0521532 7.42631e-20)
(-0.36301 0.0680744 5.18345e-20)
(-0.107974 0.0869387 -6.99452e-20)
(0.140238 0.0762585 1.29672e-19)
(0.380274 0.0970109 -1.25575e-20)
(0.591412 0.0525644 4.85365e-20)
(0.798371 0.0773407 -2.18734e-21)
(0.926133 0.00592019 -9.26448e-20)
(-1.07907 0.0115692 -9.64514e-22)
(-0.835174 0.0400378 -4.72686e-20)
(-0.57553 0.0695887 -8.65957e-21)
(-0.329924 0.0907653 -3.32202e-20)
(-0.0798953 0.116376 1.13704e-20)
(0.1663 0.114342 -2.50999e-19)
(0.395684 0.13601 2.39368e-19)
(0.603806 0.0955317 -4.12393e-20)
(0.800822 0.118084 3.30343e-20)
(0.933321 0.0542297 -2.08253e-19)
(-1.04238 0.0110077 -7.18777e-21)
(-0.793441 0.0413188 -1.9151e-21)
(-0.537346 0.0764666 1.97578e-20)
(-0.306699 0.107199 4.61865e-20)
(-0.0594211 0.138076 -9.19662e-20)
(0.183429 0.143464 1.16991e-19)
(0.408338 0.166268 -8.68635e-20)
(0.614014 0.135866 -1.45273e-19)
(0.803038 0.156114 1.62933e-19)
(0.94478 0.105236 1.52912e-21)
(-1.00646 0.014202 -4.18884e-21)
(-0.757107 0.0521396 5.62387e-20)
(-0.491044 0.0895615 -3.86385e-20)
(-0.252447 0.12282 -8.32847e-20)
(-0.017583 0.159429 -3.02865e-20)
(0.217098 0.17336 9.18393e-20)
(0.433223 0.198447 -1.06634e-19)
(0.631581 0.176448 -9.15214e-20)
(0.810826 0.191331 -3.22504e-19)
(0.965499 0.157169 1.47753e-19)
(-0.958967 0.0124034 3.6846e-21)
(-0.70857 0.0491215 -3.72741e-20)
(-0.449983 0.0904926 1.88635e-20)
(-0.219367 0.132204 -1.55588e-20)
(0.0192698 0.169284 9.22796e-20)
(0.248149 0.190793 -1.58371e-20)
(0.457102 0.219607 1.54784e-19)
(0.650999 0.209661 9.38902e-20)
(0.824373 0.222775 1.84088e-19)
(0.996613 0.209571 1.60417e-19)
(-0.910964 0.0159872 3.77694e-22)
(-0.655321 0.0600043 1.36368e-20)
(-0.38343 0.096576 -2.41901e-20)
(-0.15718 0.139881 5.44967e-20)
(0.0661192 0.178452 -1.27466e-20)
(0.285172 0.203099 -8.42856e-20)
(0.486134 0.235166 -5.67482e-20)
(0.680784 0.239976 -7.61549e-20)
(0.854249 0.254514 -6.19321e-20)
(1.04198 0.261417 -1.33207e-19)
(-0.855893 0.0125422 3.62226e-22)
(-0.604014 0.0575159 2.05707e-22)
(-0.336226 0.103393 -1.90195e-20)
(-0.106135 0.148939 -1.04847e-20)
(0.120875 0.191803 3.92167e-20)
(0.335635 0.221623 -8.35062e-21)
(0.532813 0.255393 -5.775e-20)
(0.724047 0.271299 7.30925e-20)
(0.903874 0.290882 -3.44462e-20)
(1.0937 0.314328 -7.14175e-20)
(-0.795499 0.0151969 1.54928e-21)
(-0.538247 0.0662519 -1.34199e-20)
(-0.25233 0.107924 2.29208e-20)
(-0.031428 0.159482 5.31235e-21)
(0.188712 0.204283 6.44559e-21)
(0.392623 0.239593 -1.22559e-20)
(0.58592 0.276926 -7.18975e-20)
(0.780638 0.305462 5.73641e-21)
(0.969295 0.333255 9.25612e-20)
(1.14691 0.364909 6.98126e-20)
(-0.727755 0.0131729 -2.6204e-21)
(-0.489022 0.0624622 1.58566e-20)
(-0.213195 0.109319 1.3944e-20)
(0.0298902 0.157833 -2.26191e-20)
(0.2494 0.210682 -3.1002e-20)
(0.457584 0.256815 9.04893e-21)
(0.663448 0.309258 3.84395e-20)
(0.865938 0.351386 1.33406e-22)
(1.04684 0.381821 -3.63025e-21)
(1.18332 0.408138 4.08801e-20)
(-0.627789 0.0250904 8.70129e-22)
(-0.370104 0.0920454 -6.48464e-21)
(-0.103251 0.147124 -7.17296e-21)
(0.133319 0.20907 7.10706e-21)
(0.357569 0.26394 2.32185e-20)
(0.574204 0.319038 6.12849e-20)
(0.780749 0.372728 6.70632e-20)
(0.961872 0.407324 8.3219e-21)
(1.09901 0.422821 -4.96838e-20)
(1.18263 0.432462 -7.14104e-20)
(0.880475 0.429961 -3.00421e-20)
(1.01398 0.445366 -1.61301e-21)
(1.10076 0.440482 3.75468e-20)
(1.14902 0.440815 4.90849e-22)
(1.32057 -0.33351 0)
(1.34156 -0.334544 0)
(1.30613 -0.307227 0)
(1.27764 -0.278949 0)
(1.26353 -0.253071 0)
(1.24843 -0.228312 0)
(1.227 -0.20447 0)
(1.20741 -0.181918 0)
(1.19565 -0.161196 0)
(1.18757 -0.142763 0)
(1.17751 -0.126078 0)
(1.16508 -0.110717 0)
(1.15243 -0.0967723 0)
(1.14068 -0.0843064 0)
(1.12977 -0.0731349 0)
(1.11955 -0.0630849 0)
(1.11 -0.0541737 0)
(1.10105 -0.0462853 0)
(1.09269 -0.0393032 0)
(1.08494 -0.0331718 0)
(1.0778 -0.0278063 0)
(1.07125 -0.0231242 0)
(1.06531 -0.0190499 0)
(1.05999 -0.0155012 0)
(1.0553 -0.0124019 0)
(1.05127 -0.0096739 0)
(1.04794 -0.00724248 0)
(1.04536 -0.00503793 0)
(1.04357 -0.00297917 0)
(1.04263 -0.000987536 0)
(1.30943 -0.306192 0)
(1.37404 -0.311944 0)
(1.3487 -0.290065 0)
(1.31535 -0.263775 0)
(1.29601 -0.239217 0)
(1.27787 -0.215966 0)
(1.2534 -0.193421 0)
(1.23067 -0.171798 0)
(1.21609 -0.152001 0)
(1.2054 -0.134462 0)
(1.19307 -0.118642 0)
(1.17874 -0.104108 0)
(1.16437 -0.0909454 0)
(1.15103 -0.079162 0)
(1.13871 -0.0686061 0)
(1.12726 -0.0591495 0)
(1.11659 -0.0507751 0)
(1.10666 -0.0433711 0)
(1.09743 -0.036828 0)
(1.08891 -0.0310864 0)
(1.08109 -0.0260634 0)
(1.07395 -0.0216825 0)
(1.0675 -0.0178696 0)
(1.06173 -0.0145514 0)
(1.05665 -0.0116531 0)
(1.05228 -0.00910278 0)
(1.04867 -0.00682823 0)
(1.04585 -0.00475977 0)
(1.0439 -0.00282413 0)
(1.04287 -0.000939956 0)
(1.28769 -0.280865 0)
(1.39158 -0.290097 0)
(1.38091 -0.271075 0)
(1.3467 -0.245311 0)
(1.32356 -0.222076 0)
(1.30283 -0.20054 0)
(1.27615 -0.179576 0)
(1.25092 -0.159439 0)
(1.23378 -0.140921 0)
(1.22077 -0.124529 0)
(1.20645 -0.109795 0)
(1.19045 -0.0963198 0)
(1.17462 -0.0840981 0)
(1.15994 -0.073156 0)
(1.14643 -0.0633624 0)
(1.13394 -0.0545981 0)
(1.12234 -0.0468597 0)
(1.11159 -0.0400242 0)
(1.10164 -0.0339852 0)
(1.09249 -0.0286922 0)
(1.08411 -0.0240634 0)
(1.07647 -0.0200255 0)
(1.06959 -0.0165133 0)
(1.06343 -0.0134546 0)
(1.05802 -0.0107841 0)
(1.05335 -0.00843316 0)
(1.04948 -0.00633495 0)
(1.04644 -0.00442616 0)
(1.04432 -0.00262976 0)
(1.0432 -0.000871945 0)
(1.26082 -0.252756 0)
(1.39867 -0.266906 0)
(1.40414 -0.250876 0)
(1.37125 -0.225016 0)
(1.34536 -0.202421 0)
(1.32263 -0.182517 0)
(1.29448 -0.163471 0)
(1.26746 -0.14506 0)
(1.24818 -0.128104 0)
(1.23309 -0.113073 0)
(1.21708 -0.0996604 0)
(1.19971 -0.0874312 0)
(1.18267 -0.0763356 0)
(1.16692 -0.0663752 0)
(1.15246 -0.0574632 0)
(1.13913 -0.0495137 0)
(1.1268 -0.0424979 0)
(1.1154 -0.0363057 0)
(1.1049 -0.0308422 0)
(1.09525 -0.0260531 0)
(1.08643 -0.0218623 0)
(1.07842 -0.0182066 0)
(1.0712 -0.0150234 0)
(1.06475 -0.0122521 0)
(1.05907 -0.00982978 0)
(1.05417 -0.00769669 0)
(1.05009 -0.00579164 0)
(1.04687 -0.00405258 0)
(1.04459 -0.00241538 0)
(1.04337 -0.000805546 0)
(1.23306 -0.220577 0)
(1.39916 -0.240017 0)
(1.42132 -0.227826 0)
(1.39033 -0.202601 0)
(1.36195 -0.180724 0)
(1.33759 -0.162473 0)
(1.30855 -0.145396 0)
(1.28025 -0.128949 0)
(1.25919 -0.113702 0)
(1.24235 -0.100253 0)
(1.22491 -0.0883384 0)
(1.20643 -0.0775352 0)
(1.18849 -0.0677125 0)
(1.17192 -0.0588796 0)
(1.15675 -0.0509787 0)
(1.14279 -0.0439278 0)
(1.12994 -0.0377179 0)
(1.1181 -0.03224 0)
(1.10721 -0.027403 0)
(1.09723 -0.0231648 0)
(1.08813 -0.0194554 0)
(1.07987 -0.0162153 0)
(1.07244 -0.0133933 0)
(1.0658 -0.0109308 0)
(1.05996 -0.00877752 0)
(1.05491 -0.00687831 0)
(1.05068 -0.00517886 0)
(1.04734 -0.00362873 0)
(1.04496 -0.00216177 0)
(1.04368 -0.000714889 0)
(1.2086 -0.183817 0)
(1.39763 -0.208629 0)
(1.43553 -0.200529 0)
(1.4069 -0.176797 0)
(1.3759 -0.156564 0)
(1.34976 -0.140481 0)
(1.31985 -0.125692 0)
(1.2905 -0.111247 0)
(1.26793 -0.0979048 0)
(1.24949 -0.0861995 0)
(1.23077 -0.0759546 0)
(1.21138 -0.0667314 0)
(1.19269 -0.0583418 0)
(1.17548 -0.0507737 0)
(1.15972 -0.0439839 0)
(1.14528 -0.0379362 0)
(1.13202 -0.0326084 0)
(1.11983 -0.0279043 0)
(1.10867 -0.0237512 0)
(1.09846 -0.0201069 0)
(1.08916 -0.0169091 0)
(1.08075 -0.0141132 0)
(1.07317 -0.0116716 0)
(1.06642 -0.00953965 0)
(1.06047 -0.00766952 0)
(1.05534 -0.00601681 0)
(1.05104 -0.00453627 0)
(1.04762 -0.00317902 0)
(1.04518 -0.00189852 0)
(1.04387 -0.000630729 0)
(1.18806 -0.143555 0)
(1.39471 -0.17254 0)
(1.44697 -0.167965 0)
(1.42116 -0.14698 0)
(1.38799 -0.129524 0)
(1.36003 -0.116364 0)
(1.32921 -0.10408 0)
(1.29889 -0.0919443 0)
(1.27493 -0.0806753 0)
(1.25507 -0.0709285 0)
(1.23523 -0.0625271 0)
(1.21504 -0.0550221 0)
(1.19577 -0.0482084 0)
(1.17803 -0.0420303 0)
(1.16182 -0.0364809 0)
(1.14699 -0.0315204 0)
(1.13341 -0.0271469 0)
(1.12099 -0.0232808 0)
(1.10963 -0.0198577 0)
(1.09927 -0.0168487 0)
(1.08986 -0.0142028 0)
(1.08135 -0.0118798 0)
(1.0737 -0.00984637 0)
(1.06689 -0.0080612 0)
(1.06091 -0.00649149 0)
(1.05574 -0.00509912 0)
(1.05142 -0.00384507 0)
(1.04799 -0.00269756 0)
(1.04553 -0.00160732 0)
(1.04421 -0.000530228 0)
(1.17282 -0.101222 0)
(1.39263 -0.132583 0)
(1.45626 -0.130078 0)
(1.43362 -0.11284 0)
(1.39889 -0.0995403 0)
(1.36912 -0.0899263 0)
(1.33724 -0.080572 0)
(1.30601 -0.0709687 0)
(1.28087 -0.0621168 0)
(1.25969 -0.0545444 0)
(1.2388 -0.0481204 0)
(1.21793 -0.0424861 0)
(1.19816 -0.0373745 0)
(1.17998 -0.0327352 0)
(1.16337 -0.0285195 0)
(1.14821 -0.0247409 0)
(1.13437 -0.0214013 0)
(1.12173 -0.0184311 0)
(1.11021 -0.0157886 0)
(1.09972 -0.013454 0)
(1.0902 -0.0113847 0)
(1.08162 -0.00955994 0)
(1.07392 -0.00795098 0)
(1.06707 -0.006533 0)
(1.06106 -0.00527674 0)
(1.05589 -0.00415505 0)
(1.05157 -0.00314196 0)
(1.04815 -0.00220471 0)
(1.04571 -0.00131891 0)
(1.04439 -0.000433258 0)
(1.16229 -0.0590112 0)
(1.39039 -0.089624 0)
(1.46248 -0.0868146 0)
(1.44302 -0.0748709 0)
(1.40761 -0.066578 0)
(1.37633 -0.0610526 0)
(1.34353 -0.0549116 0)
(1.31162 -0.0483162 0)
(1.28548 -0.0421503 0)
(1.26318 -0.0369771 0)
(1.24144 -0.0327318 0)
(1.22001 -0.0290788 0)
(1.19987 -0.0258215 0)
(1.18139 -0.0228107 0)
(1.1645 -0.020058 0)
(1.1491 -0.0175517 0)
(1.13507 -0.015309 0)
(1.12229 -0.0132945 0)
(1.11065 -0.0114839 0)
(1.10007 -0.00986587 0)
(1.0905 -0.00841627 0)
(1.08187 -0.00711905 0)
(1.07414 -0.0059631 0)
(1.06728 -0.00492873 0)
(1.06127 -0.00400319 0)
(1.0561 -0.00316852 0)
(1.05179 -0.00240227 0)
(1.04839 -0.00169348 0)
(1.04597 -0.00101086 0)
(1.04468 -0.00033714 0)
(1.15727 -0.0167262 0)
(1.38899 -0.0446291 0)
(1.46566 -0.0399524 0)
(1.44906 -0.0340476 0)
(1.41363 -0.0313319 0)
(1.38128 -0.0298341 0)
(1.34786 -0.0273048 0)
(1.31558 -0.0240589 0)
(1.2888 -0.0209748 0)
(1.26564 -0.0184369 0)
(1.24315 -0.0164774 0)
(1.22131 -0.0149638 0)
(1.20094 -0.0136422 0)
(1.18225 -0.0124118 0)
(1.1652 -0.0111909 0)
(1.14964 -0.01003 0)
(1.13548 -0.00895869 0)
(1.12259 -0.00795659 0)
(1.11086 -0.00701601 0)
(1.10022 -0.00614837 0)
(1.09059 -0.00533836 0)
(1.08192 -0.0045925 0)
(1.07416 -0.00390442 0)
(1.06728 -0.0032736 0)
(1.06126 -0.00269277 0)
(1.05609 -0.00215351 0)
(1.05179 -0.00165109 0)
(1.0484 -0.00116932 0)
(1.046 -0.000706226 0)
(1.0447 -0.000225443 0)
(1.15944 0.0242617 0)
(1.38764 0.00299159 0)
(1.46526 0.00985933 0)
(1.45048 0.00829857 0)
(1.41529 0.00594064 0)
(1.38259 0.00331525 0)
(1.34921 0.00202391 0)
(1.31717 0.00151839 0)
(1.29015 0.00137305 0)
(1.26646 0.00112704 0)
(1.24359 0.000591413 0)
(1.22152 -0.000123912 0)
(1.20108 -0.000869288 0)
(1.18241 -0.00145436 0)
(1.16534 -0.00188061 0)
(1.14979 -0.0021357 0)
(1.13561 -0.00228778 0)
(1.1227 -0.00234022 0)
(1.11096 -0.0023217 0)
(1.10031 -0.00224327 0)
(1.09067 -0.00211452 0)
(1.082 -0.00194672 0)
(1.07424 -0.00175478 0)
(1.06736 -0.00154409 0)
(1.06135 -0.00132319 0)
(1.05619 -0.0010977 0)
(1.05189 -0.000862547 0)
(1.04851 -0.000627907 0)
(1.04611 -0.000381052 0)
(1.04482 -0.000137908 0)
(1.16571 0.0671589 0)
(1.38617 0.05167 0)
(1.46183 0.059368 0)
(1.44681 0.05129 0)
(1.412 0.0442083 0)
(1.37979 0.0376574 0)
(1.34726 0.0323396 0)
(1.31598 0.0280321 0)
(1.2893 0.0244447 0)
(1.26558 0.0212648 0)
(1.24258 0.0182086 0)
(1.2205 0.0151508 0)
(1.20017 0.0122967 0)
(1.18169 0.00978776 0)
(1.16482 0.00770977 0)
(1.14938 0.00598741 0)
(1.13528 0.00457724 0)
(1.12244 0.00342309 0)
(1.11075 0.00250364 0)
(1.10013 0.00177125 0)
(1.09052 0.00120928 0)
(1.08186 0.00078086 0)
(1.07411 0.000466735 0)
(1.06724 0.00024189 0)
(1.06123 8.88802e-05 0)
(1.05607 -3.16841e-06 0)
(1.05178 -5.23157e-05 0)
(1.04839 -6.13445e-05 0)
(1.04599 -5.10608e-05 0)
(1.0447 -3.56824e-06 0)
(1.17837 0.110749 0)
(1.38635 0.100515 0)
(1.45393 0.107568 0)
(1.43662 0.0941987 0)
(1.40274 0.083078 0)
(1.37199 0.0722759 0)
(1.34106 0.0630133 0)
(1.31133 0.0549052 0)
(1.28559 0.0479964 0)
(1.26233 0.0418966 0)
(1.23964 0.0362013 0)
(1.21789 0.0308101 0)
(1.19794 0.0257794 0)
(1.17988 0.0213621 0)
(1.1634 0.0175737 0)
(1.14829 0.0143824 0)
(1.13446 0.0116697 0)
(1.1218 0.00940699 0)
(1.11027 0.00751006 0)
(1.09978 0.00594072 0)
(1.09027 0.00465438 0)
(1.08169 0.00361065 0)
(1.074 0.00276764 0)
(1.06718 0.00209276 0)
(1.0612 0.00155652 0)
(1.05607 0.00112769 0)
(1.0518 0.000792573 0)
(1.04842 0.000519338 0)
(1.04603 0.000297581 0)
(1.04473 7.9439e-05 0)
(1.19673 0.15362 0)
(1.38638 0.148301 0)
(1.44007 0.153752 0)
(1.41934 0.135436 0)
(1.38735 0.120519 0)
(1.35911 0.106032 0)
(1.33057 0.0930254 0)
(1.30299 0.081443 0)
(1.27887 0.0713043 0)
(1.25665 0.0623204 0)
(1.23466 0.0540911 0)
(1.21352 0.046351 0)
(1.19426 0.0392504 0)
(1.17687 0.0329184 0)
(1.161 0.0274728 0)
(1.14639 0.0227995 0)
(1.13294 0.018822 0)
(1.12061 0.0154319 0)
(1.10933 0.0125715 0)
(1.09904 0.0101674 0)
(1.08968 0.0081655 0)
(1.08122 0.00650052 0)
(1.07362 0.00512647 0)
(1.06687 0.00399483 0)
(1.06094 0.00306258 0)
(1.05584 0.00229895 0)
(1.0516 0.00166244 0)
(1.04825 0.00112859 0)
(1.04587 0.000654183 0)
(1.0446 0.000234698 0)
(1.22001 0.195504 0)
(1.38401 0.196045 0)
(1.41926 0.196936 0)
(1.39461 0.173548 0)
(1.36566 0.155954 0)
(1.34087 0.137904 0)
(1.31533 0.121682 0)
(1.29061 0.106939 0)
(1.26876 0.0939406 0)
(1.24805 0.0823561 0)
(1.22719 0.0716285 0)
(1.2071 0.0616566 0)
(1.18886 0.0525258 0)
(1.17246 0.0444407 0)
(1.15746 0.0373712 0)
(1.14355 0.031288 0)
(1.13071 0.0260347 0)
(1.11885 0.0215499 0)
(1.10796 0.0177212 0)
(1.09797 0.0144763 0)
(1.08887 0.0117412 0)
(1.08061 0.00944968 0)
(1.07317 0.00753504 0)
(1.06654 0.00593682 0)
(1.06071 0.00460688 0)
(1.0557 0.0034898 0)
(1.05152 0.00255073 0)
(1.04822 0.00173906 0)
(1.04589 0.00101776 0)
(1.04462 0.000320027 0)
(1.24427 0.235649 0)
(1.37619 0.241798 0)
(1.39036 0.235758 0)
(1.36328 0.207565 0)
(1.33864 0.187317 0)
(1.31783 0.166603 0)
(1.29576 0.147775 0)
(1.27443 0.130516 0)
(1.25531 0.115084 0)
(1.23664 0.101077 0)
(1.21735 0.0881161 0)
(1.19866 0.0760991 0)
(1.18177 0.0651933 0)
(1.16666 0.055465 0)
(1.15273 0.0469487 0)
(1.13978 0.0395166 0)
(1.12766 0.0330942 0)
(1.11642 0.0275559 0)
(1.10602 0.0228086 0)
(1.09644 0.0187592 0)
(1.08765 0.0153242 0)
(1.07964 0.0124178 0)
(1.0724 0.0099685 0)
(1.06591 0.00790999 0)
(1.0602 0.00617433 0)
(1.05527 0.0047112 0)
(1.05116 0.00345978 0)
(1.04792 0.00237264 0)
(1.04561 0.00139005 0)
(1.0444 0.000477565 0)
(1.26312 0.272287 0)
(1.35912 0.284931 0)
(1.35289 0.268228 0)
(1.3262 0.235692 0)
(1.30702 0.214692 0)
(1.29048 0.191696 0)
(1.27216 0.170977 0)
(1.25458 0.151689 0)
(1.23867 0.134203 0)
(1.2223 0.118235 0)
(1.2049 0.103326 0)
(1.18807 0.0895382 0)
(1.17294 0.077049 0)
(1.15933 0.0659497 0)
(1.14678 0.0561199 0)
(1.13492 0.0475123 0)
(1.12376 0.0399902 0)
(1.11329 0.0334688 0)
(1.10353 0.0278437 0)
(1.09446 0.0230137 0)
(1.0861 0.0188889 0)
(1.07843 0.0153817 0)
(1.07146 0.0124092 0)
(1.0652 0.00988812 0)
(1.05966 0.00775447 0)
(1.05487 0.00593386 0)
(1.05086 0.00436986 0)
(1.04769 0.00300047 0)
(1.04545 0.00176006 0)
(1.04421 0.000580099 0)
(1.27129 0.304256 0)
(1.33021 0.322469 0)
(1.30749 0.292028 0)
(1.28535 0.258153 0)
(1.27242 0.236744 0)
(1.25987 0.212209 0)
(1.24536 0.190243 0)
(1.23182 0.169481 0)
(1.21922 0.150581 0)
(1.20536 0.132985 0)
(1.19031 0.116478 0)
(1.17571 0.101295 0)
(1.16255 0.0876589 0)
(1.15076 0.0754276 0)
(1.13968 0.0645487 0)
(1.12913 0.0549219 0)
(1.11904 0.0464624 0)
(1.10948 0.0390842 0)
(1.10045 0.0326728 0)
(1.092 0.0271359 0)
(1.08412 0.0223769 0)
(1.07684 0.0183035 0)
(1.07019 0.0148257 0)
(1.06416 0.0118656 0)
(1.05881 0.00933793 0)
(1.05414 0.00717389 0)
(1.05022 0.00530039 0)
(1.04712 0.00364746 0)
(1.04489 0.00214603 0)
(1.04372 0.000713939 0)
(1.25952 0.328037 0)
(1.28709 0.352091 0)
(1.2557 0.305139 0)
(1.24247 0.274152 0)
(1.23513 0.253869 0)
(1.22632 0.228083 0)
(1.21589 0.205473 0)
(1.20653 0.18387 0)
(1.19728 0.163819 0)
(1.18615 0.145047 0)
(1.17366 0.127449 0)
(1.16154 0.111428 0)
(1.15075 0.0969107 0)
(1.14087 0.0838705 0)
(1.13147 0.0721812 0)
(1.12233 0.061752 0)
(1.11347 0.0525157 0)
(1.10493 0.0443843 0)
(1.09678 0.0372759 0)
(1.08904 0.0310931 0)
(1.08176 0.0257479 0)
(1.07497 0.0211437 0)
(1.0687 0.017195 0)
(1.06301 0.013807 0)
(1.0579 0.0109035 0)
(1.05343 0.0084001 0)
(1.04966 0.00621965 0)
(1.04664 0.00429323 0)
(1.04449 0.00252472 0)
(1.0433 0.000855854 0)
(1.22769 0.342127 0)
(1.2337 0.370402 0)
(1.20126 0.305884 0)
(1.19902 0.285711 0)
(1.19622 0.265199 0)
(1.19124 0.238411 0)
(1.18502 0.215928 0)
(1.17967 0.19378 0)
(1.17353 0.173263 0)
(1.16521 0.153865 0)
(1.15552 0.135851 0)
(1.1463 0.119342 0)
(1.13793 0.104388 0)
(1.13008 0.0909012 0)
(1.12241 0.078694 0)
(1.11479 0.06771 0)
(1.10723 0.0578903 0)
(1.09981 0.0491893 0)
(1.09259 0.0415146 0)
(1.08564 0.0347945 0)
(1.079 0.0289369 0)
(1.07273 0.023862 0)
(1.06689 0.0194767 0)
(1.06152 0.0156995 0)
(1.05667 0.0124404 0)
(1.05241 0.00961614 0)
(1.04877 0.00714686 0)
(1.04586 0.00493992 0)
(1.04376 0.00291931 0)
(1.04264 0.000944629 0)
(1.18357 0.346752 0)
(1.17241 0.375719 0)
(1.14627 0.298417 0)
(1.15608 0.29412 0)
(1.15653 0.269926 0)
(1.15544 0.242821 0)
(1.15312 0.22123 0)
(1.15126 0.199408 0)
(1.14822 0.178922 0)
(1.14295 0.159573 0)
(1.13645 0.141647 0)
(1.13009 0.125204 0)
(1.12415 0.110227 0)
(1.1184 0.096564 0)
(1.11254 0.0841008 0)
(1.10648 0.0727993 0)
(1.1003 0.0626054 0)
(1.09405 0.0534709 0)
(1.08786 0.0453524 0)
(1.08177 0.038183 0)
(1.07586 0.0318994 0)
(1.07021 0.0264135 0)
(1.06488 0.0216466 0)
(1.05993 0.0175092 0)
(1.05542 0.0139194 0)
(1.05142 0.0107931 0)
(1.04801 0.00803747 0)
(1.04525 0.00557765 0)
(1.04328 0.00329036 0)
(1.04218 0.00113286 0)
(1.13136 0.337609 0)
(1.10585 0.367817 0)
(1.23777 -0.349355 1.0414e-19)
(1.16511 -0.306988 -3.98725e-20)
(1.11738 -0.256866 2.53099e-20)
(1.13655 -0.244428 1.28714e-20)
(1.15445 -0.241184 -7.67467e-21)
(1.14969 -0.22734 1.43456e-20)
(1.14225 -0.205443 -4.47981e-20)
(1.14214 -0.185606 2.56412e-20)
(1.14132 -0.167761 -3.19363e-20)
(1.13539 -0.150092 -6.27696e-21)
(1.19276 -0.326909 -1.23108e-20)
(1.26876 -0.342501 1.74421e-20)
(1.24605 -0.299676 6.35667e-20)
(1.19453 -0.252096 6.91415e-22)
(1.17261 -0.223546 2.70134e-20)
(1.16422 -0.204422 -3.93038e-20)
(1.15467 -0.185029 -3.36917e-20)
(1.1511 -0.168612 4.95996e-20)
(1.15078 -0.153473 -1.15352e-20)
(1.1462 -0.138116 -4.66911e-21)
(1.13811 -0.123658 -5.09993e-21)
(1.12958 -0.110461 1.15681e-21)
(1.12145 -0.0980705 -1.66342e-20)
(1.11389 -0.0866247 1.44659e-20)
(1.10678 -0.0762036 1.34362e-20)
(1.09989 -0.0665991 -1.37902e-20)
(1.09319 -0.0578825 1.37457e-20)
(1.08677 -0.0500106 -8.87027e-21)
(1.08066 -0.0429235 -2.54306e-21)
(1.07487 -0.0365893 2.01886e-21)
(1.06944 -0.0309518 -5.25899e-22)
(1.06439 -0.0259564 -1.1235e-21)
(1.05974 -0.0215417 2.3036e-22)
(1.05551 -0.0176369 1.84375e-21)
(1.05174 -0.0141751 -1.27577e-21)
(1.04846 -0.0110873 3.9535e-22)
(1.04572 -0.00830588 -2.71398e-22)
(1.04357 -0.00576859 4.98229e-22)
(1.04207 -0.00340068 5.03818e-22)
(1.04128 -0.00112279 1.32578e-21)
(1.16898 -0.320159 2.00736e-19)
(1.15641 -0.303255 -1.0387e-19)
(1.19444 -0.288906 -5.21838e-20)
(1.21357 -0.276823 2.45944e-20)
(1.20214 -0.25779 6.50301e-20)
(1.17882 -0.231228 -7.09535e-20)
(1.16523 -0.20613 2.30962e-20)
(1.16224 -0.186348 -3.29533e-20)
(1.15899 -0.167577 3.01686e-20)
(1.15208 -0.148917 9.95918e-21)
(1.14412 -0.132005 -2.62585e-20)
(1.13584 -0.116835 -4.91116e-21)
(1.12724 -0.102834 1.02014e-20)
(1.119 -0.0901423 3.47163e-21)
(1.11119 -0.0787294 6.82476e-21)
(1.10365 -0.0683378 -5.21789e-21)
(1.0964 -0.0590025 -2.89264e-21)
(1.08952 -0.0506775 -7.28295e-21)
(1.08299 -0.043258 1.798e-20)
(1.07682 -0.0366841 -6.64998e-21)
(1.07106 -0.0308861 -3.90745e-22)
(1.06572 -0.0257904 -4.3818e-22)
(1.06082 -0.02132 -9.67882e-23)
(1.05639 -0.0173964 6.66104e-22)
(1.05244 -0.0139425 -1.60918e-21)
(1.04902 -0.0108826 1.14551e-23)
(1.04617 -0.0081414 -2.9561e-22)
(1.04394 -0.00564947 5.65468e-22)
(1.04238 -0.00333222 -7.77015e-22)