/*--------------------------------*- C++ -*----------------------------------*\
| =========                 |                                                 |
| \\      /  F ield         | OpenFOAM: The Open Source CFD Toolbox           |
|  \\    /   O peration     | Version:                                        |
|   \\  /    A nd           | Website:  www.openfoam.com                      |
|    \\/     M anipulation  |                                                 |
\*---------------------------------------------------------------------------*/
FoamFile
{
    version     2.0;
    format      ascii;
    class       volScalarField;
    location    "140";
    object      p;
}
// * * * * * * * * * * * * * * * * * * * * * * * * * * * * * * * * * * * * * //

dimensions      [0 2 -2 0 0 0 0];


internalField   nonuniform List<scalar> 
250
(
0.79506
0.778973
0.76289
0.74681
0.730731
0.714655
0.698581
0.682508
0.666438
0.650368
0.634301
0.618235
0.60217
0.586106
0.570043
0.553981
0.537919
0.521859
0.505799
0.489739
0.473681
0.457622
0.441564
0.425506
0.409449
0.393391
0.377334
0.361277
0.34522
0.329163
0.313107
0.29705
0.280994
0.264937
0.248881
0.232824
0.216768
0.200711
0.184655
0.168598
0.152541
0.136485
0.120428
0.104371
0.0883142
0.0722575
0.0562015
0.0401462
0.0240949
0.00803299
0.795059
0.778971
0.762887
0.746807
0.730729
0.714653
0.698579
0.682506
0.666436
0.650367
0.634299
0.618233
0.602168
0.586104
0.570041
0.553979
0.537918
0.521858
0.505798
0.489738
0.47368
0.457621
0.441563
0.425505
0.409448
0.39339
0.377333
0.361276
0.34522
0.329163
0.313106
0.297049
0.280993
0.264936
0.24888
0.232824
0.216767
0.200711
0.184654
0.168598
0.152541
0.136485
0.120428
0.104372
0.0883154
0.0722591
0.0562044
0.0401499
0.0241013
0.00803824
0.795057
0.77897
0.762886
0.746806
0.730727
0.714651
0.698577
0.682505
0.666435
0.650366
0.634298
0.618232
0.602167
0.586103
0.57004
0.553979
0.537917
0.521857
0.505797
0.489738
0.473679
0.457621
0.441562
0.425505
0.409447
0.39339
0.377333
0.361276
0.345219
0.329162
0.313106
0.297049
0.280993
0.264936
0.24888
0.232823
0.216767
0.200711
0.184654
0.168598
0.152541
0.136485
0.120428
0.104372
0.0883156
0.0722595
0.0562042
0.0401495
0.0240988
0.00803726
0.795055
0.778968
0.762884
0.746804
0.730726
0.71465
0.698576
0.682504
0.666433
0.650364
0.634297
0.618231
0.602166
0.586102
0.57004
0.553978
0.537917
0.521856
0.505797
0.489737
0.473679
0.45762
0.441562
0.425504
0.409447
0.39339
0.377333
0.361276
0.345219
0.329162
0.313106
0.297049
0.280993
0.264936
0.24888
0.232823
0.216767
0.20071
0.184654
0.168597
0.152541
0.136485
0.120428
0.104372
0.0883158
0.0722591
0.0562035
0.0401473
0.024094
0.00803434
0.795051
0.778965
0.762882
0.746801
0.730723
0.714647
0.698574
0.682502
0.666431
0.650363
0.634296
0.61823
0.602165
0.586101
0.570039
0.553977
0.537916
0.521856
0.505796
0.489737
0.473678
0.45762
0.441562
0.425504
0.409447
0.393389
0.377332
0.361276
0.345219
0.329162
0.313105
0.297049
0.280992
0.264936
0.248879
0.232823
0.216767
0.20071
0.184654
0.168597
0.152541
0.136485
0.120428
0.104372
0.0883155
0.072259
0.0562027
0.0401463
0.0240906
0.00803183
)
;

boundaryField
{
    inlet
    {
        type            zeroGradient;
    }
    outlet
    {
        type            fixedValue;
        value           uniform 0;
    }
    wall
    {
        type            zeroGradient;
    }
    back
    {
        type            wedge;
    }
    front
    {
        type            wedge;
    }
    axis
    {
        type            empty;
    }
    procBoundary7to3
    {
        type            processor;
        value           nonuniform List<scalar> 
50
(
0.795059
0.778975
0.762895
0.746815
0.730735
0.714658
0.698584
0.682511
0.66644
0.650371
0.634303
0.618237
0.602172
0.586108
0.570045
0.553983
0.537921
0.521861
0.505801
0.489741
0.473682
0.457624
0.441566
0.425508
0.40945
0.393393
0.377335
0.361278
0.345222
0.329165
0.313108
0.297051
0.280995
0.264938
0.248882
0.232825
0.216768
0.200712
0.184655
0.168599
0.152542
0.136485
0.120427
0.10437
0.0883114
0.0722541
0.0561938
0.040136
0.0240752
0.0080185
)
;
    }
    procBoundary7to6
    {
        type            processor;
        value           nonuniform List<scalar> 5(0.811149 0.811148 0.811146 0.811144 0.81114);
    }
}


// ************************************************************************* //
