/*--------------------------------*- C++ -*----------------------------------*\
| =========                 |                                                 |
| \\      /  F ield         | OpenFOAM: The Open Source CFD Toolbox           |
|  \\    /   O peration     | Version:                                        |
|   \\  /    A nd           | Website:  www.openfoam.com                      |
|    \\/     M anipulation  |                                                 |
\*---------------------------------------------------------------------------*/
FoamFile
{
    version     2.0;
    format      ascii;
    class       surfaceScalarField;
    location    "140";
    object      phi;
}
// * * * * * * * * * * * * * * * * * * * * * * * * * * * * * * * * * * * * * //

dimensions      [0 3 -1 0 0 0 0];
oriented        oriented;


internalField   nonuniform List<scalar> 
445
(
2.65664e-05
-2.90081e-09
2.65664e-05
-2.72306e-09
2.65664e-05
-2.50913e-09
2.65664e-05
-2.29321e-09
2.65664e-05
-2.09162e-09
2.65665e-05
-1.90575e-09
2.65665e-05
-1.73247e-09
2.65665e-05
-1.57163e-09
2.65666e-05
-1.42064e-09
2.65666e-05
-1.28032e-09
2.65667e-05
-1.149e-09
2.65667e-05
-1.02779e-09
2.65668e-05
-9.14272e-10
2.65668e-05
-8.09692e-10
2.65668e-05
-7.12483e-10
2.65669e-05
-6.24398e-10
2.65669e-05
-5.428e-10
2.6567e-05
-4.69457e-10
2.6567e-05
-4.02538e-10
2.6567e-05
-3.44023e-10
2.6567e-05
-2.90696e-10
2.65671e-05
-2.44242e-10
2.65671e-05
-2.02442e-10
2.65671e-05
-1.67356e-10
2.65671e-05
-1.35551e-10
2.65672e-05
-1.089e-10
2.65672e-05
-8.52095e-11
2.65672e-05
-6.66061e-11
2.65672e-05
-4.9707e-11
2.65672e-05
-3.61491e-11
2.65672e-05
-2.41153e-11
2.65672e-05
-1.5381e-11
2.65672e-05
-7.49363e-12
2.65672e-05
-1.29837e-12
2.65672e-05
3.22384e-12
2.65672e-05
6.35906e-12
2.65672e-05
7.26999e-12
2.65672e-05
9.51018e-12
2.65672e-05
6.66661e-12
2.65672e-05
7.22544e-12
2.65673e-05
-1.83745e-12
2.65673e-05
-2.12305e-12
2.65673e-05
-2.14636e-11
2.65673e-05
-2.63874e-11
2.65672e-05
-6.3133e-11
2.65672e-05
-7.8373e-11
2.65672e-05
-1.4162e-10
2.65671e-05
-1.89473e-10
2.6567e-05
-2.93387e-10
-4.30142e-10
2.60273e-05
-2.32354e-09
2.60268e-05
-2.19274e-09
2.60263e-05
-2.04838e-09
2.60259e-05
-1.89199e-09
2.60255e-05
-1.73426e-09
2.60252e-05
-1.58694e-09
2.60249e-05
-1.44607e-09
2.60247e-05
-1.31725e-09
2.60245e-05
-1.19304e-09
2.60243e-05
-1.08071e-09
2.60241e-05
-9.71974e-10
2.60239e-05
-8.75125e-10
2.60238e-05
-7.79715e-10
2.60237e-05
-6.96123e-10
2.60236e-05
-6.1344e-10
2.60235e-05
-5.43108e-10
2.60234e-05
-4.72042e-10
2.60234e-05
-4.13484e-10
2.60233e-05
-3.54113e-10
2.60233e-05
-3.07648e-10
2.60232e-05
-2.58535e-10
2.60232e-05
-2.21922e-10
2.60232e-05
-1.8246e-10
2.60232e-05
-1.55485e-10
2.60232e-05
-1.23858e-10
2.60232e-05
-1.04038e-10
2.60232e-05
-7.95853e-11
2.60232e-05
-6.67586e-11
2.60232e-05
-4.75367e-11
2.60232e-05
-3.90479e-11
2.60232e-05
-2.44001e-11
2.60232e-05
-2.02898e-11
2.60232e-05
-8.80784e-12
2.60232e-05
-7.02741e-12
2.60232e-05
1.17043e-12
2.60232e-05
5.11664e-15
2.60232e-05
5.77932e-12
2.60232e-05
3.50927e-12
2.60232e-05
6.06828e-12
2.60232e-05
1.5303e-12
2.60232e-05
3.588e-13
2.60232e-05
-6.04879e-12
2.60232e-05
-1.32897e-11
2.60232e-05
-2.50475e-11
2.60231e-05
-3.75667e-11
2.60231e-05
-5.63646e-11
2.6023e-05
-6.29111e-11
2.60229e-05
-9.00104e-11
2.60228e-05
-4.65636e-11
-8.49196e-11
2.27793e-05
-1.40104e-09
2.27785e-05
-1.32979e-09
2.27777e-05
-1.2647e-09
2.27769e-05
-1.17481e-09
2.27763e-05
-1.0859e-09
2.27757e-05
-9.90495e-10
2.27751e-05
-9.10371e-10
2.27747e-05
-8.24628e-10
2.27742e-05
-7.55973e-10
2.27738e-05
-6.79445e-10
2.27735e-05
-6.21555e-10
2.27732e-05
-5.52879e-10
2.27729e-05
-5.03664e-10
2.27726e-05
-4.41799e-10
2.27724e-05
-4.01327e-10
2.27722e-05
-3.46158e-10
2.2772e-05
-3.13161e-10
2.27719e-05
-2.64283e-10
2.27718e-05
-2.39315e-10
2.27717e-05
-1.96679e-10
2.27716e-05
-1.78086e-10
2.27715e-05
-1.4095e-10
2.27714e-05
-1.29159e-10
2.27714e-05
-9.74476e-11
2.27713e-05
-9.06601e-11
2.27713e-05
-6.33552e-11
2.27713e-05
-6.18444e-11
2.27713e-05
-3.84918e-11
2.27712e-05
-4.01024e-11
2.27712e-05
-1.94759e-11
2.27712e-05
-2.4631e-11
2.27712e-05
-6.64201e-12
2.27712e-05
-1.36692e-11
2.27712e-05
2.59317e-12
2.27712e-05
-7.09933e-12
2.27712e-05
7.49209e-12
2.27712e-05
-3.32943e-12
2.27712e-05
1.03326e-11
2.27712e-05
-2.95201e-12
2.27712e-05
9.09338e-12
2.27712e-05
-5.98107e-12
2.27712e-05
4.30192e-12
2.27712e-05
-1.38217e-11
2.27712e-05
-6.49688e-12
2.27712e-05
-2.31548e-11
2.27711e-05
-1.76969e-11
2.27711e-05
-1.16834e-11
2.2771e-05
1.36451e-11
2.2771e-05
1.39277e-10
1.62464e-10
1.64028e-05
-4.5942e-10
1.64019e-05
-4.47824e-10
1.64011e-05
-4.29643e-10
1.64003e-05
-4.05679e-10
1.63996e-05
-3.70174e-10
1.63989e-05
-3.43062e-10
1.63984e-05
-3.09279e-10
1.63978e-05
-2.86168e-10
1.63974e-05
-2.55576e-10
1.63969e-05
-2.37628e-10
1.63965e-05
-2.09837e-10
1.63962e-05
-1.94499e-10
1.63959e-05
-1.68365e-10
1.63956e-05
-1.57009e-10
1.63953e-05
-1.33221e-10
1.63951e-05
-1.23978e-10
1.63949e-05
-1.01829e-10
1.63947e-05
-9.64199e-11
1.63946e-05
-7.66091e-11
1.63944e-05
-7.2673e-11
1.63943e-05
-5.40211e-11
1.63942e-05
-5.33246e-11
1.63942e-05
-3.69578e-11
1.63941e-05
-3.74736e-11
1.6394e-05
-2.23283e-11
1.6394e-05
-2.58352e-11
1.6394e-05
-1.26826e-11
1.63939e-05
-1.65958e-11
1.63939e-05
-3.85479e-12
1.63939e-05
-9.88546e-12
1.63939e-05
1.31321e-12
1.63938e-05
-4.74677e-12
1.63939e-05
6.10486e-12
1.63938e-05
-1.87238e-12
1.63938e-05
7.71446e-12
1.63938e-05
3.02214e-13
1.63938e-05
1.01055e-11
1.63938e-05
1.28275e-12
1.63938e-05
9.79557e-12
1.63938e-05
1.29788e-12
1.63938e-05
9.4571e-12
1.63938e-05
-1.01079e-12
1.63938e-05
6.08606e-12
1.63938e-05
-4.21073e-12
1.63938e-05
5.65618e-12
1.63938e-05
-6.42883e-12
1.63937e-05
1.93009e-11
1.63937e-05
2.84615e-11
1.63938e-05
1.51995e-10
1.88216e-10
6.48009e-06
6.47964e-06
6.47922e-06
6.47883e-06
6.47847e-06
6.47814e-06
6.47784e-06
6.47757e-06
6.47732e-06
6.4771e-06
6.47689e-06
6.47671e-06
6.47654e-06
6.47639e-06
6.47626e-06
6.47614e-06
6.47604e-06
6.47595e-06
6.47587e-06
6.4758e-06
6.47574e-06
6.47569e-06
6.47565e-06
6.47561e-06
6.47558e-06
6.47556e-06
6.47554e-06
6.47552e-06
6.47551e-06
6.47549e-06
6.47548e-06
6.47548e-06
6.47547e-06
6.47547e-06
6.47547e-06
6.47547e-06
6.47546e-06
6.47546e-06
6.47546e-06
6.47546e-06
6.47546e-06
6.47546e-06
6.47546e-06
6.47545e-06
6.47545e-06
6.47545e-06
6.47545e-06
6.47546e-06
6.47561e-06
)
;

boundaryField
{
    inlet
    {
        type            calculated;
        value           nonuniform 0();
    }
    outlet
    {
        type            calculated;
        value           nonuniform List<scalar> 5(2.65669e-05 2.60227e-05 2.2771e-05 1.63941e-05 6.47579e-06);
    }
    wall
    {
        type            calculated;
        value           uniform 0;
    }
    back
    {
        type            wedge;
        value           nonuniform List<scalar> 
250
(
2.00052e-19
1.4227e-19
8.10081e-20
-1.226e-19
3.40651e-21
1.86157e-19
1.33288e-19
7.58523e-20
-1.16593e-19
3.22594e-21
1.70985e-19
1.23187e-19
7.12897e-20
-1.11459e-19
3.30314e-21
1.52742e-19
1.10706e-19
6.47293e-20
-1.04313e-19
3.66706e-21
1.3883e-19
1.00381e-19
6.07391e-20
-9.59804e-20
3.99042e-21
1.23463e-19
9.01786e-20
5.3856e-20
-8.6841e-20
3.81954e-21
1.13889e-19
8.28961e-20
4.67973e-20
-8.07553e-20
3.26407e-21
1.00665e-19
7.45653e-20
4.31713e-20
-7.24084e-20
3.16718e-21
8.98033e-20
6.57343e-20
4.02891e-20
-6.45997e-20
3.69892e-21
7.95373e-20
5.74238e-20
3.50394e-20
-5.97697e-20
2.77669e-21
6.85443e-20
5.00132e-20
3.0055e-20
-5.60654e-20
2.57139e-21
6.14488e-20
4.41635e-20
2.565e-20
-4.8906e-20
1.93788e-21
5.03497e-20
3.63938e-20
2.24467e-20
-4.72192e-20
9.3282e-22
4.3069e-20
3.16831e-20
1.93495e-20
-4.35707e-20
4.71231e-22
3.50391e-20
2.62186e-20
1.58654e-20
-3.79387e-20
1.18919e-21
3.27878e-20
2.35583e-20
1.25784e-20
-3.28017e-20
1.45405e-21
2.61248e-20
1.90483e-20
1.06515e-20
-2.86863e-20
1.20964e-21
2.19353e-20
1.50904e-20
9.13096e-21
-2.59096e-20
9.45719e-22
1.59648e-20
1.04753e-20
6.27487e-21
-2.30673e-20
5.1538e-22
1.27051e-20
8.40393e-21
4.74311e-21
-2.13173e-20
2.82779e-22
8.52514e-21
5.44683e-21
2.52332e-21
-1.83561e-20
2.86862e-22
6.2404e-21
2.50623e-21
2.01343e-21
-1.64455e-20
1.92996e-22
2.67006e-21
3.72388e-23
-3.74522e-22
-1.41931e-20
4.02663e-22
4.19655e-21
8.94151e-23
-1.93189e-21
-1.08808e-20
8.30238e-22
1.00636e-21
-1.26603e-21
-1.87089e-21
-9.65237e-21
3.98869e-22
4.98367e-22
-1.94944e-21
-1.99723e-21
-8.42416e-21
2.86863e-22
-1.47177e-21
-3.39871e-21
-2.30676e-21
-7.15818e-21
9.02588e-24
-1.73873e-21
-3.28777e-21
-2.95405e-21
-6.19665e-21
-1.53096e-22
-3.83137e-21
-4.86951e-21
-3.89343e-21
-5.51289e-21
-2.65008e-22
-4.36823e-21
-5.73147e-21
-3.1903e-21
-4.80085e-21
-1.23913e-22
-5.62437e-21
-6.18492e-21
-3.99872e-21
-4.19011e-21
-3.68533e-24
-4.17412e-21
-4.85821e-21
-4.81831e-21
-2.6712e-21
5.5747e-23
-4.75068e-21
-5.64795e-21
-5.32991e-21
-2.53311e-21
-3.7825e-23
-4.45501e-21
-5.81057e-21
-4.7043e-21
-1.98686e-21
2.23617e-24
-4.52921e-21
-5.76283e-21
-4.59883e-21
-1.60808e-21
-8.01877e-23
-4.87232e-21
-5.31747e-21
-3.84859e-21
-1.46048e-21
-9.02279e-23
-3.4195e-21
-4.37966e-21
-3.99061e-21
-4.54943e-22
2.57394e-24
-4.08012e-21
-4.88036e-21
-3.00703e-21
-8.66506e-22
-2.38032e-22
-4.22475e-21
-4.18174e-21
-2.89475e-21
-1.20034e-21
-2.4396e-22
-4.96277e-21
-3.97458e-21
-2.98033e-21
-8.19082e-22
2.16311e-23
-2.24141e-21
-2.50649e-21
-2.53694e-21
-2.21925e-22
2.30504e-22
-2.53019e-21
-2.59238e-21
-2.18313e-21
-3.87969e-22
1.67616e-23
-9.94951e-22
-1.72143e-21
-1.55884e-21
-8.4242e-22
9.3929e-23
-1.38665e-21
-1.10303e-21
-1.11391e-21
-1.25052e-21
-4.11235e-24
1.73934e-21
1.20163e-22
-5.88415e-22
-1.77116e-21
-1.21452e-24
2.7349e-21
1.35998e-21
4.78511e-22
-2.43392e-21
-1.01327e-22
6.88278e-21
2.95785e-21
1.0453e-21
-1.83332e-21
-2.87983e-22
1.03091e-20
5.48671e-21
1.95047e-21
-1.38902e-21
-4.23983e-22
1.92002e-20
7.82282e-21
-1.41552e-21
8.07385e-21
-1.50012e-21
3.36749e-20
1.26843e-20
-3.49701e-21
1.72227e-20
-2.85122e-21
)
;
    }
    front
    {
        type            wedge;
        value           nonuniform List<scalar> 
250
(
2.72738e-19
2.14003e-19
1.3593e-19
-9.73706e-20
8.3999e-21
2.60506e-19
2.01899e-19
1.28291e-19
-9.10824e-20
8.04784e-21
2.41016e-19
1.88653e-19
1.20686e-19
-8.6179e-20
7.68095e-21
2.22251e-19
1.76752e-19
1.1436e-19
-8.19833e-20
6.72016e-21
2.01752e-19
1.63008e-19
1.04597e-19
-7.66961e-20
5.7028e-21
1.85941e-19
1.50394e-19
9.77705e-20
-7.17667e-20
5.02423e-21
1.66994e-19
1.36316e-19
9.17894e-20
-6.42703e-20
4.88778e-21
1.53844e-19
1.24748e-19
8.31561e-20
-5.99476e-20
4.20234e-21
1.40223e-19
1.14979e-19
7.45772e-20
-5.5796e-20
3.0792e-21
1.27629e-19
1.05899e-19
6.90827e-20
-4.96134e-20
3.29896e-21
1.17315e-19
9.70621e-20
6.40775e-20
-4.29784e-20
3.01896e-21
1.04595e-19
8.78228e-20
5.91425e-20
-4.05676e-20
3.02096e-21
9.73474e-20
8.1529e-20
5.3635e-20
-3.31002e-20
3.61307e-21
8.76065e-20
7.31636e-20
4.85639e-20
-2.83496e-20
3.49428e-21
7.99545e-20
6.64994e-20
4.45077e-20
-2.60696e-20
2.44529e-21
6.78402e-20
5.80609e-20
4.08074e-20
-2.39989e-20
1.65881e-21
6.14591e-20
5.23686e-20
3.63075e-20
-2.12241e-20
1.63e-21
5.37735e-20
4.70163e-20
3.18866e-20
-1.78598e-20
1.41557e-21
4.90576e-20
4.3167e-20
2.93912e-20
-1.49906e-20
1.64563e-21
4.27817e-20
3.77208e-20
2.60741e-20
-1.17016e-20
1.45497e-21
3.85605e-20
3.39306e-20
2.3939e-20
-9.82617e-21
1.2975e-21
3.33701e-20
3.08663e-20
2.04905e-20
-7.58064e-21
1.00552e-21
3.0379e-20
2.79839e-20
1.94167e-20
-6.00481e-21
7.0745e-22
2.31317e-20
2.33266e-20
1.79114e-20
-6.10807e-21
-5.12899e-23
2.14241e-20
2.06274e-20
1.51754e-20
-4.23767e-21
3.32326e-22
1.76389e-20
1.77819e-20
1.29084e-20
-2.98098e-21
1.46396e-22
1.59419e-20
1.61505e-20
1.12129e-20
-1.98179e-21
4.31909e-22
1.3097e-20
1.3508e-20
1.01324e-20
-1.17726e-21
3.40845e-22
1.26616e-20
1.29217e-20
9.60965e-21
-4.46311e-23
4.84959e-22
1.09943e-20
1.19337e-20
7.5899e-21
5.93771e-22
1.09174e-22
1.04576e-20
1.08036e-20
7.35379e-21
1.247e-21
6.14875e-23
7.47644e-21
8.22943e-21
7.28299e-21
5.94989e-22
-1.97541e-22
6.95958e-21
8.00198e-21
7.09056e-21
1.44326e-21
-1.58708e-23
5.60227e-21
7.27103e-21
5.80382e-21
1.49048e-21
-2.44044e-22
5.0278e-21
6.56055e-21
5.27573e-21
1.66089e-21
-3.98134e-23
4.66186e-21
5.60227e-21
4.15618e-21
1.76918e-21
-1.91174e-22
3.15823e-21
4.45801e-21
4.11841e-21
1.18289e-21
-1.54407e-22
3.31032e-21
4.62381e-21
2.87741e-21
1.73649e-21
-7.1193e-23
3.91266e-21
4.04335e-21
2.81461e-21
2.13213e-21
9.63277e-23
4.2123e-21
3.73834e-21
2.8793e-21
1.57325e-21
-2.976e-22
2.90121e-21
2.97143e-21
2.78179e-21
8.0872e-22
-3.31835e-22
2.75601e-21
3.15872e-21
2.609e-21
5.09696e-22
-2.3353e-22
4.07679e-21
3.72484e-21
2.71431e-21
3.0353e-22
-1.06309e-22
4.27534e-21
3.86537e-21
2.99636e-21
-3.08162e-22
-7.77121e-23
6.76483e-21
5.33502e-21
3.51961e-21
-3.28216e-22
6.28853e-23
6.86561e-21
6.16361e-21
4.00865e-21
-1.10903e-21
5.25332e-23
1.25196e-20
8.38992e-21
3.81499e-21
-1.76152e-22
-1.5134e-22
1.54699e-20
1.06511e-20
5.22995e-21
-3.03055e-22
-4.03302e-22
2.34909e-20
1.19611e-20
2.18455e-21
8.82451e-21
-1.44222e-21
3.69525e-20
1.56886e-20
-3.73852e-23
1.80247e-20
-2.71681e-21
)
;
    }
    axis
    {
        type            empty;
        value           nonuniform 0();
    }
    procBoundary7to3
    {
        type            processor;
        value           nonuniform List<scalar> 
50
(
2.95828e-09
2.77019e-09
2.5127e-09
2.2722e-09
2.06137e-09
1.87018e-09
1.69553e-09
1.53173e-09
1.38114e-09
1.2388e-09
1.10843e-09
9.8549e-10
8.7399e-10
7.68567e-10
6.74237e-10
5.85561e-10
5.07861e-10
4.34595e-10
3.71914e-10
3.13226e-10
2.64605e-10
2.18338e-10
1.81219e-10
1.45725e-10
1.18665e-10
9.16401e-11
7.22348e-11
5.24236e-11
3.97168e-11
2.50724e-11
1.6954e-11
6.40618e-12
2.45322e-12
-5.52361e-12
-6.41084e-12
-1.22708e-11
-9.2227e-12
-1.43827e-11
-6.94152e-12
-1.20499e-11
3.61855e-12
-2.4592e-12
2.76615e-11
2.24606e-11
8.114e-11
8.67244e-11
1.98273e-10
2.5802e-10
4.69633e-10
6.9321e-10
)
;
    }
    procBoundary7to6
    {
        type            processor;
        value           nonuniform List<scalar> 5(-2.65665e-05 -2.60279e-05 -2.27802e-05 -1.64037e-05 -6.48054e-06);
    }
}


// ************************************************************************* //
