/*--------------------------------*- C++ -*----------------------------------*\
| =========                 |                                                 |
| \\      /  F ield         | OpenFOAM: The Open Source CFD Toolbox           |
|  \\    /   O peration     | Version:                                        |
|   \\  /    A nd           | Website:  www.openfoam.com                      |
|    \\/     M anipulation  |                                                 |
\*---------------------------------------------------------------------------*/
FoamFile
{
    version     2.0;
    format      ascii;
    class       volVectorField;
    location    "140";
    object      U;
}
// * * * * * * * * * * * * * * * * * * * * * * * * * * * * * * * * * * * * * //

dimensions      [0 1 -1 0 0 0 0];


internalField   nonuniform List<vector> 
250
(
(1.38828 -0.000158013 1.42909e-15)
(1.38827 -0.000148299 1.49673e-15)
(1.38827 -0.000135644 1.32562e-15)
(1.38827 -0.000123351 1.36159e-15)
(1.38827 -0.000112218 1.17072e-15)
(1.38828 -0.000102026 1.22206e-15)
(1.38828 -9.26345e-05 1.0262e-15)
(1.38828 -8.3873e-05 1.04299e-15)
(1.38828 -7.5745e-05 9.45722e-16)
(1.38828 -6.81195e-05 9.3641e-16)
(1.38829 -6.1062e-05 9.62311e-16)
(1.38829 -5.44699e-05 8.53667e-16)
(1.38829 -4.84013e-05 9.49486e-16)
(1.38829 -4.27269e-05 8.39873e-16)
(1.38829 -3.75553e-05 8.54248e-16)
(1.3883 -3.27731e-05 6.38123e-16)
(1.3883 -2.84738e-05 7.25195e-16)
(1.3883 -2.4505e-05 6.05414e-16)
(1.3883 -2.10028e-05 6.77777e-16)
(1.3883 -1.78254e-05 5.73636e-16)
(1.38831 -1.5075e-05 6.075e-16)
(1.38831 -1.25612e-05 4.90177e-16)
(1.38831 -1.04293e-05 5.37647e-16)
(1.38831 -8.51163e-06 3.30642e-16)
(1.38831 -6.92644e-06 4.24197e-16)
(1.38831 -5.46772e-06 2.9215e-16)
(1.38831 -4.30419e-06 3.47205e-16)
(1.38831 -3.25567e-06 2.79821e-16)
(1.38831 -2.46199e-06 3.48662e-16)
(1.38831 -1.69277e-06 2.59164e-16)
(1.38831 -1.15008e-06 3.13195e-16)
(1.38832 -6.19995e-07 2.17542e-16)
(1.38832 -3.05716e-07 2.27679e-16)
(1.38832 8.28672e-08 1.72505e-16)
(1.38832 2.30132e-07 1.96329e-16)
(1.38832 4.79202e-07 1.72445e-16)
(1.38832 4.21114e-07 1.43469e-16)
(1.38832 6.1951e-07 1.42307e-16)
(1.38832 3.54048e-07 1.44321e-16)
(1.38832 4.99646e-07 1.68481e-16)
(1.38832 -1.44205e-07 8.8741e-17)
(1.38832 -1.32567e-08 1.092e-16)
(1.38832 -1.2918e-06 9.56976e-17)
(1.38832 -1.32975e-06 1.14998e-16)
(1.38832 -3.82307e-06 9.08404e-17)
(1.38832 -4.44485e-06 8.19906e-17)
(1.38832 -9.08056e-06 1.10813e-16)
(1.38831 -1.20054e-05 9.87422e-17)
(1.38831 -2.06219e-05 8.46079e-17)
(1.3883 -3.02191e-05 6.73917e-17)
(1.15087 -0.000118273 1.42723e-15)
(1.15084 -0.000111091 1.40715e-15)
(1.15082 -0.000103078 1.31429e-15)
(1.1508 -9.48666e-05 1.39198e-15)
(1.15078 -8.68711e-05 1.21652e-15)
(1.15077 -7.93875e-05 1.18029e-15)
(1.15076 -7.22994e-05 1.04782e-15)
(1.15074 -6.57489e-05 1.03095e-15)
(1.15073 -5.95219e-05 1.00778e-15)
(1.15072 -5.37937e-05 1.01409e-15)
(1.15072 -4.83547e-05 9.09101e-16)
(1.15071 -4.34096e-05 8.87234e-16)
(1.1507 -3.86769e-05 9.16233e-16)
(1.1507 -3.44016e-05 8.13563e-16)
(1.15069 -3.03191e-05 7.98103e-16)
(1.15069 -2.67158e-05 6.84278e-16)
(1.15068 -2.32501e-05 6.95029e-16)
(1.15068 -2.02403e-05 6.53403e-16)
(1.15068 -1.73655e-05 6.85395e-16)
(1.15068 -1.49676e-05 5.68979e-16)
(1.15068 -1.26383e-05 6.1916e-16)
(1.15067 -1.07339e-05 5.87648e-16)
(1.15067 -8.88036e-06 5.72936e-16)
(1.15067 -7.4554e-06 4.63231e-16)
(1.15067 -6.01184e-06 4.63325e-16)
(1.15067 -4.9378e-06 4.00828e-16)
(1.15067 -3.83747e-06 4.22094e-16)
(1.15067 -3.11015e-06 3.18301e-16)
(1.15067 -2.29052e-06 3.95571e-16)
(1.15067 -1.77519e-06 3.54776e-16)
(1.15067 -1.16574e-06 3.33376e-16)
(1.15067 -8.63569e-07 2.55871e-16)
(1.15067 -4.2549e-07 3.05596e-16)
(1.15067 -2.31886e-07 2.63162e-16)
(1.15067 6.0839e-08 2.59793e-16)
(1.15067 1.11361e-07 2.21273e-16)
(1.15067 2.62482e-07 1.88266e-16)
(1.15067 2.65613e-07 1.99311e-16)
(1.15067 2.69888e-07 1.62324e-16)
(1.15067 1.72139e-07 1.49298e-16)
(1.15067 -4.04114e-08 1.06148e-16)
(1.15067 -2.12953e-07 1.24066e-16)
(1.15067 -7.62563e-07 1.04421e-16)
(1.15067 -1.20052e-06 1.03929e-16)
(1.15067 -2.22387e-06 1.1005e-16)
(1.15067 -3.0957e-06 1.03775e-16)
(1.15067 -4.52636e-06 1.09852e-16)
(1.15066 -6.29543e-06 1.02852e-16)
(1.15067 -7.61634e-06 8.25467e-17)
(1.15065 -1.09848e-05 6.10453e-17)
(0.872956 -7.08894e-05 1.19746e-15)
(0.872922 -6.70108e-05 1.021e-15)
(0.872891 -6.31795e-05 1.07503e-15)
(0.872862 -5.87015e-05 1.01333e-15)
(0.872835 -5.41043e-05 9.35026e-16)
(0.872811 -4.95362e-05 9.58827e-16)
(0.87279 -4.53214e-05 9.73915e-16)
(0.87277 -4.12498e-05 7.93363e-16)
(0.872752 -3.75502e-05 7.05836e-16)
(0.872736 -3.39644e-05 6.74484e-16)
(0.872722 -3.07615e-05 7.32042e-16)
(0.872709 -2.76244e-05 6.46279e-16)
(0.872698 -2.48341e-05 6.22802e-16)
(0.872687 -2.20755e-05 6.41178e-16)
(0.872678 -1.96879e-05 6.11198e-16)
(0.87267 -1.73102e-05 6.03699e-16)
(0.872664 -1.5279e-05 4.96257e-16)
(0.872657 -1.32413e-05 4.84462e-16)
(0.872653 -1.15825e-05 4.61416e-16)
(0.872648 -9.8975e-06 4.53577e-16)
(0.872645 -8.55139e-06 4.33876e-16)
(0.872641 -7.15627e-06 3.92538e-16)
(0.872639 -6.1236e-06 4.50705e-16)
(0.872636 -5.0215e-06 4.34183e-16)
(0.872635 -4.23365e-06 3.2034e-16)
(0.872633 -3.35199e-06 3.17978e-16)
(0.872632 -2.80479e-06 2.63248e-16)
(0.872631 -2.13935e-06 2.99545e-16)
(0.872631 -1.75214e-06 2.63871e-16)
(0.872629 -1.22024e-06 2.31757e-16)
(0.87263 -9.90326e-07 2.49357e-16)
(0.872629 -5.98989e-07 2.6124e-16)
(0.872629 -4.66224e-07 2.53577e-16)
(0.872628 -1.51793e-07 2.28452e-16)
(0.872629 -1.35327e-07 2.02902e-16)
(0.872628 8.34981e-08 1.70367e-16)
(0.872629 3.29954e-08 1.61699e-16)
(0.872628 2.13448e-07 1.15342e-16)
(0.872629 5.51609e-08 1.4074e-16)
(0.872628 1.51506e-07 1.23936e-16)
(0.872629 -1.07191e-07 1.19464e-16)
(0.872628 -8.7179e-08 9.47488e-17)
(0.872629 -5.09826e-07 9.73418e-17)
(0.872627 -6.69842e-07 8.07045e-17)
(0.872628 -1.12831e-06 8.69965e-17)
(0.872625 -1.48139e-06 6.95803e-17)
(0.872627 -1.29434e-06 5.74961e-17)
(0.872619 -1.4489e-06 6.90804e-17)
(0.872625 2.35088e-06 7.48242e-17)
(0.872615 2.90348e-06 6.84568e-17)
(0.554644 -2.84924e-05 4.57376e-16)
(0.554614 -2.73309e-05 5.4252e-16)
(0.554585 -2.62465e-05 4.44939e-16)
(0.554558 -2.45833e-05 4.25335e-16)
(0.554533 -2.26828e-05 2.59241e-16)
(0.554511 -2.07778e-05 1.75205e-16)
(0.55449 -1.90153e-05 2.87105e-16)
(0.554472 -1.73188e-05 2.06414e-16)
(0.554454 -1.57862e-05 6.95605e-17)
(0.554439 -1.43191e-05 2.33489e-16)
(0.554425 -1.30054e-05 1.64557e-16)
(0.554412 -1.16942e-05 1.31209e-16)
(0.5544 -1.05312e-05 3.07401e-16)
(0.554391 -9.38455e-06 2.30349e-16)
(0.554381 -8.39835e-06 1.57426e-16)
(0.554373 -7.38195e-06 1.18943e-16)
(0.554366 -6.52852e-06 1.36389e-16)
(0.55436 -5.66962e-06 9.98661e-17)
(0.554354 -4.98436e-06 1.81656e-16)
(0.55435 -4.23854e-06 1.65834e-16)
(0.554346 -3.65846e-06 1.73184e-16)
(0.554343 -3.04742e-06 1.37138e-16)
(0.554339 -2.61706e-06 1.2296e-16)
(0.554337 -2.1069e-06 3.05468e-17)
(0.554335 -1.76644e-06 1.33244e-16)
(0.554334 -1.37598e-06 7.46918e-17)
(0.554332 -1.16048e-06 1.06164e-16)
(0.554331 -8.35616e-07 6.75178e-17)
(0.55433 -6.65004e-07 1.32905e-16)
(0.554329 -4.1708e-07 8.15139e-17)
(0.554328 -3.36165e-07 9.34684e-17)
(0.554328 -1.29358e-07 3.23561e-17)
(0.554327 -7.61584e-08 9.31878e-17)
(0.554328 6.84665e-08 3.59816e-17)
(0.554327 4.82367e-08 7.28607e-17)
(0.554327 1.77169e-07 3.93515e-17)
(0.554327 1.53325e-07 3.18395e-17)
(0.554327 2.43235e-07 5.44231e-17)
(0.554327 1.49699e-07 5.3708e-17)
(0.554327 2.17084e-07 2.90129e-17)
(0.554326 9.61581e-08 5.19276e-18)
(0.554327 9.63924e-08 2.33163e-17)
(0.554326 -9.64979e-08 1.36285e-17)
(0.554327 -1.32756e-07 2.01923e-17)
(0.554326 -2.1701e-07 2.57017e-17)
(0.554325 -2.74229e-07 2.86411e-17)
(0.554325 3.84888e-07 2.48015e-17)
(0.554322 1.24483e-06 1.62341e-17)
(0.554326 6.2619e-06 1.32042e-17)
(0.554331 7.81017e-06 1.64475e-17)
(0.196054 -2.38811e-06 2.09785e-18)
(0.196041 -2.49639e-06 6.12181e-17)
(0.196028 -2.49289e-06 -1.07316e-17)
(0.196015 -2.36876e-06 -2.63055e-17)
(0.196004 -2.12571e-06 -1.47025e-18)
(0.195994 -1.98236e-06 -4.31104e-17)
(0.195984 -1.76413e-06 -5.99418e-18)
(0.195976 -1.6499e-06 -5.56097e-17)
(0.195968 -1.44982e-06 -8.05322e-17)
(0.195961 -1.37649e-06 -7.90906e-17)
(0.195954 -1.19027e-06 -2.93709e-17)
(0.195948 -1.12496e-06 -2.57321e-17)
(0.195943 -9.41726e-07 7.36368e-17)
(0.195938 -9.08884e-07 1.56242e-17)
(0.195934 -7.39389e-07 -3.44605e-17)
(0.19593 -7.12569e-07 -4.31151e-17)
(0.195927 -5.47591e-07 -1.84028e-17)
(0.195924 -5.52575e-07 -3.23951e-17)
(0.195921 -4.01056e-07 -4.05871e-18)
(0.195919 -4.04668e-07 -2.15556e-17)
(0.195917 -2.52716e-07 -7.40865e-18)
(0.195916 -2.84039e-07 -6.07515e-18)
(0.195914 -1.48492e-07 -4.64301e-17)
(0.195913 -1.79735e-07 -7.31859e-17)
(0.195912 -4.80189e-08 -3.74676e-17)
(0.195911 -1.07601e-07 -3.39831e-17)
(0.19591 8.5794e-09 -9.39695e-18)
(0.19591 -4.41558e-08 -3.57469e-18)
(0.195909 7.4835e-08 -9.11403e-18)
(0.195909 3.93729e-11 -3.22316e-17)
(0.195909 1.04512e-07 -2.2938e-17)
(0.195908 3.66538e-08 -3.05455e-17)
(0.195908 1.41395e-07 -3.44736e-17)
(0.195908 5.14245e-08 -3.04247e-17)
(0.195908 1.43562e-07 -1.64866e-17)
(0.195908 6.65478e-08 -3.11221e-17)
(0.195908 1.64306e-07 -1.71127e-17)
(0.195908 6.92045e-08 1.39522e-17)
(0.195908 1.51705e-07 -1.73671e-17)
(0.195908 6.4788e-08 -3.25369e-17)
(0.195908 1.46463e-07 -2.80735e-17)
(0.195908 3.67595e-08 -1.62353e-17)
(0.195908 1.11757e-07 -1.34005e-17)
(0.195908 1.15702e-08 -9.50879e-18)
(0.195908 1.39278e-07 -8.42176e-18)
(0.195907 3.75346e-08 -3.46148e-18)
(0.195907 4.6776e-07 -3.72152e-18)
(0.195907 6.92869e-07 -3.40481e-18)
(0.19591 2.43909e-06 -5.7502e-19)
(0.195915 3.04499e-06 1.7531e-18)
)
;

boundaryField
{
    inlet
    {
        type            fixedValue;
        value           nonuniform 0();
    }
    outlet
    {
        type            zeroGradient;
    }
    wall
    {
        type            noSlip;
    }
    back
    {
        type            wedge;
    }
    front
    {
        type            wedge;
    }
    axis
    {
        type            empty;
    }
    procBoundary7to3
    {
        type            processor;
        value           nonuniform List<vector> 
50
(
(1.58517 -0.00018013 1.53245e-15)
(1.5852 -0.000168263 1.6532e-15)
(1.58523 -0.000152093 1.54423e-15)
(1.58525 -0.000137044 1.55125e-15)
(1.58528 -0.000124003 1.3749e-15)
(1.5853 -0.000112331 1.46354e-15)
(1.58532 -0.000101623 1.09562e-15)
(1.58534 -9.16885e-05 1.2785e-15)
(1.58536 -8.2477e-05 1.11045e-15)
(1.58537 -7.38881e-05 1.06237e-15)
(1.58539 -6.59276e-05 1.04068e-15)
(1.5854 -5.85378e-05 9.16442e-16)
(1.58541 -5.17379e-05 1.1658e-15)
(1.58542 -4.54498e-05 1.01901e-15)
(1.58543 -3.97053e-05 1.06747e-15)
(1.58544 -3.44505e-05 8.47552e-16)
(1.58545 -2.97207e-05 9.07085e-16)
(1.58546 -2.54301e-05 7.46421e-16)
(1.58546 -2.16158e-05 8.24088e-16)
(1.58547 -1.82097e-05 6.66975e-16)
(1.58547 -1.5242e-05 6.73466e-16)
(1.58548 -1.26046e-05 6.75489e-16)
(1.58548 -1.03284e-05 6.29816e-16)
(1.58548 -8.33145e-06 3.88153e-16)
(1.58549 -6.65108e-06 5.37554e-16)
(1.58549 -5.17346e-06 3.38413e-16)
(1.58549 -3.94907e-06 4.85542e-16)
(1.58549 -2.88948e-06 3.29771e-16)
(1.58549 -2.05785e-06 3.97897e-16)
(1.58549 -1.31648e-06 3.72721e-16)
(1.5855 -7.5759e-07 3.78375e-16)
(1.5855 -2.44583e-07 2.87512e-16)
(1.5855 7.09143e-08 3.12666e-16)
(1.5855 4.26617e-07 2.2578e-16)
(1.5855 5.53929e-07 2.40663e-16)
(1.5855 8.08903e-07 2.74631e-16)
(1.5855 6.94324e-07 1.6033e-16)
(1.5855 9.17519e-07 2.14884e-16)
(1.5855 5.10657e-07 2.56214e-16)
(1.5855 7.84762e-07 2.82865e-16)
(1.5855 -1.73737e-07 1.73885e-16)
(1.5855 2.22833e-07 1.95055e-16)
(1.5855 -1.7436e-06 1.54782e-16)
(1.5855 -1.27352e-06 1.41122e-16)
(1.5855 -5.23861e-06 1.58915e-16)
(1.5855 -5.38356e-06 1.46797e-16)
(1.5855 -1.31201e-05 1.71508e-16)
(1.5855 -1.69763e-05 1.73089e-16)
(1.5855 -3.2016e-05 1.50393e-16)
(1.58551 -4.81528e-05 1.16947e-16)
)
;
    }
    procBoundary7to6
    {
        type            processor;
        value           nonuniform List<vector> 5((1.38828 -0.000167038 1.51881e-15) (1.15089 -0.000125931 1.54906e-15) (0.872994 -7.57426e-05 1.08397e-15) (0.554677 -3.05674e-05 4.74071e-16) (0.196069 -2.61486e-06 7.9485e-17));
    }
}


// ************************************************************************* //
