/*--------------------------------*- C++ -*----------------------------------*\
| =========                 |                                                 |
| \\      /  F ield         | OpenFOAM: The Open Source CFD Toolbox           |
|  \\    /   O peration     | Version:                                        |
|   \\  /    A nd           | Website:  www.openfoam.com                      |
|    \\/     M anipulation  |                                                 |
\*---------------------------------------------------------------------------*/
FoamFile
{
    version     2.0;
    format      ascii;
    class       surfaceScalarField;
    location    "1.2";
    object      phi;
}
// * * * * * * * * * * * * * * * * * * * * * * * * * * * * * * * * * * * * * //

dimensions      [0 3 -1 0 0 0 0];
oriented        oriented;


internalField   nonuniform List<scalar> 
760
(
3.61677e-05
-5.00115e-08
3.62158e-05
-4.8104e-08
3.62621e-05
-4.6272e-08
3.63066e-05
-4.45128e-08
3.63494e-05
-4.28253e-08
3.63906e-05
-4.1201e-08
3.64303e-05
-3.96443e-08
3.64684e-05
-3.8144e-08
3.65051e-05
-3.67168e-08
3.65405e-05
-3.53274e-08
3.65745e-05
-3.40271e-08
3.66072e-05
-3.27274e-08
3.66388e-05
-3.1575e-08
3.66691e-05
-3.03273e-08
3.66985e-05
-2.93716e-08
3.67266e-05
-2.80952e-08
3.6754e-05
-2.7442e-08
3.67801e-05
-2.60091e-08
3.68058e-05
-2.57878e-08
-2.41494e-08
3.6039e-05
-9.7742e-08
3.6085e-05
-9.40123e-08
3.61291e-05
-9.04312e-08
3.61716e-05
-8.69912e-08
3.62125e-05
-8.36908e-08
3.62518e-05
-8.05161e-08
3.62896e-05
-7.74746e-08
3.6326e-05
-7.45426e-08
3.6361e-05
-7.17518e-08
3.63947e-05
-6.90373e-08
3.64272e-05
-6.64966e-08
3.64584e-05
-6.39591e-08
3.64886e-05
-6.17044e-08
3.65175e-05
-5.92708e-08
3.65455e-05
-5.73998e-08
3.65724e-05
-5.49143e-08
3.65986e-05
-5.36313e-08
3.66234e-05
-5.08425e-08
3.6648e-05
-5.04054e-08
-4.72108e-08
3.5778e-05
-1.41054e-07
3.58196e-05
-1.35666e-07
3.58597e-05
-1.30495e-07
3.58982e-05
-1.25528e-07
3.59353e-05
-1.20762e-07
3.5971e-05
-1.16179e-07
3.60053e-05
-1.1179e-07
3.60383e-05
-1.07559e-07
3.60701e-05
-1.03531e-07
3.61007e-05
-9.96154e-08
3.61301e-05
-9.59481e-08
3.61584e-05
-9.22922e-08
3.61858e-05
-8.90346e-08
3.6212e-05
-8.55341e-08
3.62375e-05
-8.2825e-08
3.62618e-05
-7.92601e-08
3.62856e-05
-7.73946e-08
3.63081e-05
-7.33982e-08
3.63305e-05
-7.2755e-08
-6.81632e-08
3.53774e-05
-1.78082e-07
3.5413e-05
-1.71273e-07
3.54472e-05
-1.64738e-07
3.54801e-05
-1.58462e-07
3.55118e-05
-1.52442e-07
3.55423e-05
-1.46655e-07
3.55716e-05
-1.41112e-07
3.55998e-05
-1.35772e-07
3.5627e-05
-1.30685e-07
3.56531e-05
-1.25746e-07
3.56783e-05
-1.21115e-07
3.57025e-05
-1.16509e-07
3.57258e-05
-1.1239e-07
3.57483e-05
-1.07991e-07
3.577e-05
-1.04555e-07
3.57909e-05
-1.00093e-07
3.58112e-05
-9.77121e-08
3.58305e-05
-9.27193e-08
3.58496e-05
-9.18849e-08
-8.61219e-08
3.48272e-05
-2.07349e-07
3.48553e-05
-1.99411e-07
3.48824e-05
-1.91794e-07
3.49084e-05
-1.84482e-07
3.49334e-05
-1.77468e-07
3.49575e-05
-1.70729e-07
3.49807e-05
-1.64274e-07
3.50029e-05
-1.58059e-07
3.50244e-05
-1.52135e-07
3.5045e-05
-1.4639e-07
3.50649e-05
-1.40996e-07
3.50841e-05
-1.35648e-07
3.51025e-05
-1.30843e-07
3.51203e-05
-1.25752e-07
3.51374e-05
-1.21729e-07
3.51539e-05
-1.16592e-07
3.517e-05
-1.1378e-07
3.51853e-05
-1.08049e-07
3.52005e-05
-1.07043e-07
-1.0039e-07
3.41154e-05
-2.27844e-07
3.41351e-05
-2.1911e-07
3.41541e-05
-2.10733e-07
3.41723e-05
-2.02693e-07
3.41898e-05
-1.94982e-07
3.42066e-05
-1.87576e-07
3.42228e-05
-1.80484e-07
3.42384e-05
-1.73657e-07
3.42534e-05
-1.67148e-07
3.42679e-05
-1.60844e-07
3.42818e-05
-1.54915e-07
3.42952e-05
-1.49057e-07
3.43082e-05
-1.43767e-07
3.43206e-05
-1.38214e-07
3.43326e-05
-1.33763e-07
3.43443e-05
-1.28198e-07
3.43555e-05
-1.25055e-07
3.43664e-05
-1.18875e-07
3.4377e-05
-1.1772e-07
-1.10496e-07
3.32289e-05
-2.39072e-07
3.32397e-05
-2.29899e-07
3.325e-05
-2.21102e-07
3.326e-05
-2.12662e-07
3.32696e-05
-2.0457e-07
3.32788e-05
-1.968e-07
3.32877e-05
-1.89358e-07
3.32962e-05
-1.822e-07
3.33045e-05
-1.75372e-07
3.33124e-05
-1.68769e-07
3.332e-05
-1.62546e-07
3.33274e-05
-1.56423e-07
3.33345e-05
-1.5086e-07
3.33413e-05
-1.45083e-07
3.3348e-05
-1.40378e-07
3.33544e-05
-1.34639e-07
3.33606e-05
-1.31273e-07
3.33667e-05
-1.24946e-07
3.33726e-05
-1.23668e-07
-1.16216e-07
3.21543e-05
-2.41066e-07
3.21562e-05
-2.31809e-07
3.2158e-05
-2.22935e-07
3.21598e-05
-2.14424e-07
3.21615e-05
-2.06265e-07
3.21631e-05
-1.98433e-07
3.21647e-05
-1.90932e-07
3.21662e-05
-1.83721e-07
3.21677e-05
-1.7684e-07
3.21691e-05
-1.70194e-07
3.21705e-05
-1.63919e-07
3.21718e-05
-1.57771e-07
3.21731e-05
-1.52151e-07
3.21744e-05
-1.46381e-07
3.21756e-05
-1.41599e-07
3.21769e-05
-1.35932e-07
3.21781e-05
-1.32457e-07
3.21794e-05
-1.26277e-07
3.21807e-05
-1.24905e-07
-1.17573e-07
3.08789e-05
-2.34355e-07
3.08725e-05
-2.25354e-07
3.08663e-05
-2.16728e-07
3.08603e-05
-2.08456e-07
3.08546e-05
-2.00527e-07
3.08491e-05
-1.92919e-07
3.08438e-05
-1.85632e-07
3.08387e-05
-1.7863e-07
3.08338e-05
-1.71945e-07
3.08291e-05
-1.65498e-07
3.08246e-05
-1.594e-07
3.08202e-05
-1.5345e-07
3.08161e-05
-1.47977e-07
3.08121e-05
-1.42428e-07
3.08083e-05
-1.37741e-07
3.08047e-05
-1.32364e-07
3.08011e-05
-1.28898e-07
3.0798e-05
-1.23134e-07
3.07948e-05
-1.21698e-07
-1.14825e-07
2.93919e-05
-2.19915e-07
2.9378e-05
-2.11472e-07
2.93647e-05
-2.03382e-07
2.93518e-05
-1.95625e-07
2.93395e-05
-1.88191e-07
2.93276e-05
-1.81059e-07
2.93162e-05
-1.74229e-07
2.93053e-05
-1.67668e-07
2.92947e-05
-1.61402e-07
2.92846e-05
-1.55367e-07
2.92748e-05
-1.49648e-07
2.92655e-05
-1.44091e-07
2.92564e-05
-1.38949e-07
2.92478e-05
-1.33801e-07
2.92394e-05
-1.29369e-07
2.92315e-05
-1.24464e-07
2.92238e-05
-1.21122e-07
2.92166e-05
-1.15998e-07
2.92095e-05
-1.14535e-07
-1.08434e-07
2.76841e-05
-1.99077e-07
2.76641e-05
-1.91441e-07
2.76448e-05
-1.84126e-07
2.76263e-05
-1.77113e-07
2.76085e-05
-1.70392e-07
2.75914e-05
-1.63946e-07
2.75749e-05
-1.57771e-07
2.75591e-05
-1.51843e-07
2.75439e-05
-1.46179e-07
2.75292e-05
-1.4073e-07
2.75151e-05
-1.35558e-07
2.75016e-05
-1.30553e-07
2.74885e-05
-1.25896e-07
2.7476e-05
-1.21292e-07
2.74639e-05
-1.17252e-07
2.74524e-05
-1.12954e-07
2.74411e-05
-1.09843e-07
2.74307e-05
-1.05526e-07
2.74202e-05
-1.04075e-07
-9.90253e-08
2.5749e-05
-1.73431e-07
2.57243e-05
-1.6679e-07
2.57006e-05
-1.60427e-07
2.56778e-05
-1.54328e-07
2.56559e-05
-1.48484e-07
2.56349e-05
-1.42879e-07
2.56146e-05
-1.37509e-07
2.55951e-05
-1.32356e-07
2.55764e-05
-1.2743e-07
2.55583e-05
-1.22697e-07
2.5541e-05
-1.18198e-07
2.55243e-05
-1.1386e-07
2.55082e-05
-1.09804e-07
2.54927e-05
-1.05844e-07
2.54778e-05
-1.02305e-07
2.54635e-05
-9.86952e-08
2.54496e-05
-9.59115e-08
2.54366e-05
-9.25001e-08
2.54236e-05
-9.11095e-08
-8.73379e-08
2.35825e-05
-1.44722e-07
2.35549e-05
-1.39193e-07
2.35284e-05
-1.33896e-07
2.35029e-05
-1.28818e-07
2.34783e-05
-1.23952e-07
2.34547e-05
-1.19285e-07
2.3432e-05
-1.14814e-07
2.34102e-05
-1.10524e-07
2.33892e-05
-1.06423e-07
2.3369e-05
-1.02485e-07
2.33495e-05
-9.87387e-08
2.33308e-05
-9.51377e-08
2.33128e-05
-9.17564e-08
2.32954e-05
-8.84946e-08
2.32786e-05
-8.5531e-08
2.32626e-05
-8.26412e-08
2.32469e-05
-8.02624e-08
2.32322e-05
-7.77783e-08
2.32176e-05
-7.65043e-08
-7.41712e-08
2.11829e-05
-1.14755e-07
2.11541e-05
-1.10383e-07
2.11264e-05
-1.06194e-07
2.10998e-05
-1.02179e-07
2.10741e-05
-9.83306e-08
2.10495e-05
-9.46397e-08
2.10258e-05
-9.11035e-08
2.1003e-05
-8.77113e-08
2.0981e-05
-8.44668e-08
2.09599e-05
-8.13545e-08
2.09395e-05
-7.83914e-08
2.092e-05
-7.55513e-08
2.09011e-05
-7.28758e-08
2.08829e-05
-7.03234e-08
2.08653e-05
-6.7971e-08
2.08485e-05
-6.57835e-08
2.08321e-05
-6.3861e-08
2.08166e-05
-6.22516e-08
2.08012e-05
-6.11541e-08
-6.03317e-08
1.85505e-05
-8.53038e-08
1.85222e-05
-8.20651e-08
1.8495e-05
-7.89615e-08
1.84688e-05
-7.59861e-08
1.84436e-05
-7.31339e-08
1.84194e-05
-7.03984e-08
1.8396e-05
-6.77771e-08
1.83736e-05
-6.52628e-08
1.8352e-05
-6.28577e-08
1.83312e-05
-6.05519e-08
1.83111e-05
-5.83557e-08
1.82919e-05
-5.62559e-08
1.82732e-05
-5.42731e-08
1.82553e-05
-5.24012e-08
1.8238e-05
-5.06549e-08
1.82213e-05
-4.91118e-08
1.82051e-05
-4.76636e-08
1.81897e-05
-4.68075e-08
1.81745e-05
-4.59392e-08
-4.65817e-08
1.56873e-05
-5.80552e-08
1.5661e-05
-5.58595e-08
1.56358e-05
-5.3755e-08
1.56116e-05
-5.17371e-08
1.55883e-05
-4.98024e-08
1.55658e-05
-4.79466e-08
1.55442e-05
-4.61681e-08
1.55234e-05
-4.44623e-08
1.55034e-05
-4.28304e-08
1.54841e-05
-4.12667e-08
1.54655e-05
-3.9777e-08
1.54476e-05
-3.83557e-08
1.54303e-05
-3.70115e-08
1.54137e-05
-3.57551e-08
1.53976e-05
-3.45706e-08
1.53821e-05
-3.3582e-08
1.5367e-05
-3.25873e-08
1.53525e-05
-3.23063e-08
1.53383e-05
-3.16935e-08
-3.35973e-08
1.25959e-05
-3.45626e-08
1.25733e-05
-3.32609e-08
1.25516e-05
-3.2013e-08
1.25307e-05
-3.08162e-08
1.25105e-05
-2.96686e-08
1.24912e-05
-2.85675e-08
1.24725e-05
-2.75122e-08
1.24545e-05
-2.65e-08
1.24372e-05
-2.55317e-08
1.24206e-05
-2.46041e-08
1.24045e-05
-2.37205e-08
1.2389e-05
-2.28791e-08
1.23741e-05
-2.20823e-08
1.23597e-05
-2.13454e-08
1.23458e-05
-2.06424e-08
1.23323e-05
-2.0096e-08
1.23192e-05
-1.94949e-08
1.23065e-05
-1.95721e-08
1.2294e-05
-1.91903e-08
-2.19468e-08
9.27994e-06
-1.62319e-08
9.2623e-06
-1.56235e-08
9.24533e-06
-1.504e-08
9.229e-06
-1.44803e-08
9.21327e-06
-1.39434e-08
9.19813e-06
-1.34282e-08
9.18355e-06
-1.29344e-08
9.16951e-06
-1.24607e-08
9.15599e-06
-1.20075e-08
9.14296e-06
-1.15735e-08
9.1304e-06
-1.11602e-08
9.11829e-06
-1.07674e-08
9.1066e-06
-1.03948e-08
9.09531e-06
-1.00548e-08
9.08439e-06
-9.72382e-09
9.07379e-06
-9.49308e-09
9.06349e-06
-9.19518e-09
9.05332e-06
-9.40219e-09
9.04329e-06
-9.1651e-09
-1.20876e-08
5.74257e-06
-4.32784e-09
5.73111e-06
-4.16656e-09
5.72008e-06
-4.01186e-09
5.70947e-06
-3.86337e-09
5.69924e-06
-3.72094e-09
5.6894e-06
-3.58419e-09
5.67992e-06
-3.45313e-09
5.67078e-06
-3.32733e-09
5.66198e-06
-3.20708e-09
5.6535e-06
-3.09186e-09
5.64532e-06
-2.98221e-09
5.63743e-06
-2.87825e-09
5.62982e-06
-2.77917e-09
5.62246e-06
-2.69097e-09
5.61533e-06
-2.60065e-09
5.60839e-06
-2.55115e-09
5.60165e-06
-2.4563e-09
5.59484e-06
-2.59212e-09
5.58813e-06
-2.45374e-09
-4.34928e-09
1.98652e-06
1.98235e-06
1.97834e-06
1.97448e-06
1.97076e-06
1.96717e-06
1.96372e-06
1.96039e-06
1.95719e-06
1.95409e-06
1.95111e-06
1.94823e-06
1.94545e-06
1.94276e-06
1.94016e-06
1.93761e-06
1.93515e-06
1.93256e-06
1.93011e-06
)
;

boundaryField
{
    fixedWalls
    {
        type            calculated;
        value           uniform 0;
    }
    inlet
    {
        type            calculated;
        value           nonuniform 0();
    }
    outlet
    {
        type            calculated;
        value           nonuniform List<scalar> 
20
(
3.683e-05
3.66711e-05
3.63514e-05
3.58676e-05
3.52148e-05
3.43871e-05
3.33784e-05
3.2182e-05
3.0792e-05
2.92031e-05
2.74108e-05
2.54119e-05
2.32044e-05
2.07874e-05
1.81607e-05
1.53253e-05
1.22823e-05
9.03343e-06
5.58039e-06
1.92576e-06
)
;
    }
    frontAndBack
    {
        type            empty;
        value           nonuniform 0();
    }
    procBoundary7to3
    {
        type            processor;
        value           nonuniform List<scalar> 
20
(
-1.62604e-12
-1.1888e-12
1.33415e-12
8.5e-13
-2.6294e-12
-2.86583e-12
5.024e-13
1.41317e-12
-1.12399e-12
-2.08907e-12
-9.22818e-13
-7.90825e-13
-9.96561e-13
1.76815e-13
6.97371e-14
-2.32087e-12
-2.66843e-12
-6.78046e-13
2.6177e-14
-9.70099e-13
)
;
    }
    procBoundary7to6
    {
        type            processor;
        value           nonuniform List<scalar> 
20
(
-3.61177e-05
-3.59913e-05
-3.57347e-05
-3.53403e-05
-3.47979e-05
-3.40949e-05
-3.32177e-05
-3.21523e-05
-3.08857e-05
-2.94063e-05
-2.77049e-05
-2.57746e-05
-2.36112e-05
-2.12129e-05
-1.858e-05
-1.57145e-05
-1.26194e-05
-9.29827e-06
-5.75447e-06
-1.99085e-06
)
;
    }
}


// ************************************************************************* //
