/*--------------------------------*- C++ -*----------------------------------*\
| =========                 |                                                 |
| \\      /  F ield         | OpenFOAM: The Open Source CFD Toolbox           |
|  \\    /   O peration     | Version:                                        |
|   \\  /    A nd           | Website:  www.openfoam.com                      |
|    \\/     M anipulation  |                                                 |
\*---------------------------------------------------------------------------*/
FoamFile
{
    version     2.0;
    format      ascii;
    class       volVectorField;
    location    "1.2";
    object      U;
}
// * * * * * * * * * * * * * * * * * * * * * * * * * * * * * * * * * * * * * //

dimensions      [0 1 -1 0 0 0 0];


internalField   nonuniform List<vector> 
400
(
(1.44573 -0.00050597 0)
(1.44769 -0.000486676 0)
(1.44958 -0.000468169 0)
(1.45139 -0.000450375 0)
(1.45314 -0.000433273 0)
(1.45482 -0.000416834 0)
(1.45643 -0.000401114 0)
(1.45799 -0.000385947 0)
(1.45948 -0.000371488 0)
(1.46093 -0.000357418 0)
(1.46231 -0.000344272 0)
(1.46365 -0.000331117 0)
(1.46492 -0.000319458 0)
(1.46619 -0.000306836 0)
(1.46733 -0.000297174 0)
(1.46856 -0.000284222 0)
(1.46954 -0.000277607 0)
(1.47084 -0.000263116 0)
(1.47149 -0.000260869 0)
(1.47312 -0.000244294 0)
(1.44063 -0.00149476 0)
(1.4425 -0.00143776 0)
(1.4443 -0.00138301 0)
(1.44603 -0.00133041 0)
(1.4477 -0.00127996 0)
(1.4493 -0.00123142 0)
(1.45084 -0.0011849 0)
(1.45233 -0.00114006 0)
(1.45375 -0.00109738 0)
(1.45513 -0.00105586 0)
(1.45645 -0.00101701 0)
(1.45773 -0.00097817 0)
(1.45894 -0.000943709 0)
(1.46015 -0.000906437 0)
(1.46124 -0.000877855 0)
(1.46242 -0.000839746 0)
(1.46335 -0.00082017 0)
(1.46459 -0.000777423 0)
(1.46521 -0.000770708 0)
(1.46676 -0.000721844 0)
(1.43027 -0.00241547 0)
(1.43197 -0.00232328 0)
(1.4336 -0.00223475 0)
(1.43517 -0.00214973 0)
(1.43668 -0.00206815 0)
(1.43814 -0.00198969 0)
(1.43954 -0.00191452 0)
(1.44089 -0.00184206 0)
(1.44218 -0.00177309 0)
(1.44343 -0.00170601 0)
(1.44462 -0.00164322 0)
(1.44579 -0.00158055 0)
(1.44688 -0.0015248 0)
(1.44798 -0.00146472 0)
(1.44897 -0.00141842 0)
(1.45004 -0.00135714 0)
(1.45088 -0.00132531 0)
(1.45201 -0.00125661 0)
(1.45257 -0.0012456 0)
(1.45399 -0.00116689 0)
(1.41437 -0.00322745 0)
(1.41582 -0.00310413 0)
(1.41722 -0.00298575 0)
(1.41856 -0.00287206 0)
(1.41985 -0.00276299 0)
(1.42109 -0.00265812 0)
(1.42229 -0.00255768 0)
(1.42344 -0.00246089 0)
(1.42455 -0.0023687 0)
(1.42561 -0.00227914 0)
(1.42663 -0.00219521 0)
(1.42763 -0.00211163 0)
(1.42857 -0.00203704 0)
(1.42951 -0.00195709 0)
(1.43035 -0.00189498 0)
(1.43126 -0.0018137 0)
(1.43198 -0.00177078 0)
(1.43295 -0.00167978 0)
(1.43343 -0.00166474 0)
(1.43464 -0.00156006 0)
(1.39251 -0.00389677 0)
(1.39366 -0.00374769 0)
(1.39476 -0.00360462 0)
(1.39583 -0.00346724 0)
(1.39685 -0.00333547 0)
(1.39783 -0.00320883 0)
(1.39877 -0.00308753 0)
(1.39968 -0.00297069 0)
(1.40055 -0.00285937 0)
(1.4014 -0.00275134 0)
(1.4022 -0.00264997 0)
(1.40299 -0.00254931 0)
(1.40373 -0.0024591 0)
(1.40447 -0.00236309 0)
(1.40514 -0.0022877 0)
(1.40586 -0.00219054 0)
(1.40643 -0.00213807 0)
(1.4072 -0.00202954 0)
(1.40758 -0.00201082 0)
(1.40854 -0.00188533 0)
(1.36421 -0.00439821 0)
(1.36502 -0.00422972 0)
(1.36579 -0.00406808 0)
(1.36653 -0.00391291 0)
(1.36725 -0.0037641 0)
(1.36793 -0.00362114 0)
(1.3686 -0.00348422 0)
(1.36923 -0.0033524 0)
(1.36984 -0.00322674 0)
(1.37043 -0.00310496 0)
(1.371 -0.00299051 0)
(1.37155 -0.00287724 0)
(1.37207 -0.00277522 0)
(1.37259 -0.00266758 0)
(1.37306 -0.00258196 0)
(1.37356 -0.00247369 0)
(1.37396 -0.00241353 0)
(1.3745 -0.00229303 0)
(1.37477 -0.00227108 0)
(1.37545 -0.00213085 0)
(1.32894 -0.00471656 0)
(1.32938 -0.00453566 0)
(1.3298 -0.00436216 0)
(1.33021 -0.00419567 0)
(1.3306 -0.00403603 0)
(1.33097 -0.00388272 0)
(1.33133 -0.00373589 0)
(1.33168 -0.00359461 0)
(1.33202 -0.00345988 0)
(1.33234 -0.00332948 0)
(1.33265 -0.00320671 0)
(1.33295 -0.00308567 0)
(1.33324 -0.00297604 0)
(1.33352 -0.00286153 0)
(1.33378 -0.00276905 0)
(1.33406 -0.00265477 0)
(1.33428 -0.00258903 0)
(1.33458 -0.00246255 0)
(1.33473 -0.00243788 0)
(1.33512 -0.0022896 0)
(1.28613 -0.00484724 0)
(1.28621 -0.00466115 0)
(1.28628 -0.00448274 0)
(1.28636 -0.00431159 0)
(1.28643 -0.00414751 0)
(1.28649 -0.00398999 0)
(1.28656 -0.00383913 0)
(1.28662 -0.00369405 0)
(1.28668 -0.00355563 0)
(1.28674 -0.00342186 0)
(1.28679 -0.00329568 0)
(1.28685 -0.00317178 0)
(1.2869 -0.00305887 0)
(1.28695 -0.00294226 0)
(1.287 -0.00284649 0)
(1.28706 -0.00273126 0)
(1.28709 -0.0026622 0)
(1.28716 -0.00253579 0)
(1.28718 -0.00250896 0)
(1.28728 -0.00235961 0)
(1.23529 -0.00479611 0)
(1.23503 -0.0046119 0)
(1.23477 -0.00443533 0)
(1.23453 -0.00426599 0)
(1.2343 -0.00410368 0)
(1.23407 -0.0039479 0)
(1.23385 -0.00379871 0)
(1.23365 -0.00365533 0)
(1.23345 -0.00351845 0)
(1.23326 -0.00338636 0)
(1.23307 -0.00326152 0)
(1.2329 -0.00313947 0)
(1.23272 -0.00302754 0)
(1.23256 -0.00291335 0)
(1.2324 -0.0028178 0)
(1.23226 -0.00270635 0)
(1.23212 -0.00263631 0)
(1.23197 -0.00251569 0)
(1.23187 -0.00248731 0)
(1.2317 -0.00234382 0)
(1.17596 -0.0045786 0)
(1.17539 -0.00440275 0)
(1.17485 -0.00423424 0)
(1.17432 -0.00407266 0)
(1.17382 -0.00391781 0)
(1.17334 -0.00376923 0)
(1.17287 -0.00362693 0)
(1.17243 -0.00349024 0)
(1.172 -0.00335969 0)
(1.17158 -0.00323388 0)
(1.17118 -0.00311476 0)
(1.1708 -0.00299879 0)
(1.17043 -0.00289178 0)
(1.17008 -0.00278398 0)
(1.16974 -0.00269202 0)
(1.16941 -0.00258841 0)
(1.16911 -0.00251973 0)
(1.16878 -0.00240991 0)
(1.16857 -0.00238065 0)
(1.16815 -0.00224961 0)
(1.10777 -0.00421824 0)
(1.10695 -0.00405634 0)
(1.10617 -0.00390122 0)
(1.10541 -0.00375251 0)
(1.10469 -0.00361 0)
(1.10399 -0.0034733 0)
(1.10332 -0.00334236 0)
(1.10267 -0.00321664 0)
(1.10205 -0.00309652 0)
(1.10146 -0.00298091 0)
(1.10088 -0.00287126 0)
(1.10033 -0.00276494 0)
(1.0998 -0.00266626 0)
(1.09929 -0.00256813 0)
(1.0988 -0.00248277 0)
(1.09831 -0.00239019 0)
(1.09788 -0.00232512 0)
(1.0974 -0.00223008 0)
(1.09708 -0.00220068 0)
(1.09647 -0.00208808 0)
(1.03046 -0.00374477 0)
(1.02946 -0.00360124 0)
(1.02849 -0.00346373 0)
(1.02756 -0.00333192 0)
(1.02667 -0.0032056 0)
(1.02581 -0.00308445 0)
(1.02498 -0.0029684 0)
(1.02419 -0.00285701 0)
(1.02342 -0.00275055 0)
(1.02269 -0.0026482 0)
(1.02198 -0.00255099 0)
(1.0213 -0.00245709 0)
(1.02064 -0.00236947 0)
(1.02001 -0.00228344 0)
(1.01941 -0.00220718 0)
(1.01881 -0.00212781 0)
(1.01828 -0.00206842 0)
(1.01768 -0.00199083 0)
(1.01728 -0.00196218 0)
(1.01653 -0.00187313 0)
(0.943863 -0.00319209 0)
(0.942737 -0.00306999 0)
(0.941655 -0.00295301 0)
(0.940615 -0.00284089 0)
(0.939614 -0.00273343 0)
(0.938652 -0.00263038 0)
(0.937727 -0.00253166 0)
(0.936837 -0.00243693 0)
(0.93598 -0.00234636 0)
(0.935156 -0.00225938 0)
(0.934363 -0.00217667 0)
(0.9336 -0.00209705 0)
(0.932865 -0.00202241 0)
(0.932155 -0.00195002 0)
(0.931479 -0.00188472 0)
(0.93081 -0.00181968 0)
(0.930204 -0.00176774 0)
(0.929534 -0.00170882 0)
(0.929082 -0.00168195 0)
(0.928239 -0.0016204 0)
(0.847905 -0.00259618 0)
(0.846729 -0.00249714 0)
(0.8456 -0.00240224 0)
(0.844513 -0.00231128 0)
(0.843469 -0.00222411 0)
(0.842464 -0.0021405 0)
(0.841497 -0.00206041 0)
(0.840567 -0.00198356 0)
(0.839672 -0.00191008 0)
(0.83881 -0.00183956 0)
(0.837981 -0.00177244 0)
(0.837183 -0.00170803 0)
(0.836414 -0.00164743 0)
(0.835672 -0.00158934 0)
(0.834962 -0.00153611 0)
(0.834263 -0.00148551 0)
(0.833624 -0.00144233 0)
(0.832927 -0.00140177 0)
(0.83244 -0.00137783 0)
(0.831563 -0.00134623 0)
(0.7426 -0.00199327 0)
(0.741445 -0.00191747 0)
(0.740334 -0.00184484 0)
(0.739266 -0.00177522 0)
(0.738239 -0.00170848 0)
(0.73725 -0.00164448 0)
(0.736299 -0.00158315 0)
(0.735384 -0.00152432 0)
(0.734503 -0.00146805 0)
(0.733656 -0.0014141 0)
(0.732839 -0.00136271 0)
(0.732053 -0.00131353 0)
(0.731296 -0.00126713 0)
(0.730564 -0.00122313 0)
(0.729863 -0.00118228 0)
(0.729175 -0.00114532 0)
(0.728539 -0.00111163 0)
(0.727856 -0.00108764 0)
(0.727361 -0.00106783 0)
(0.7265 -0.00106659 0)
(0.628025 -0.00141816 0)
(0.626956 -0.00136443 0)
(0.625928 -0.00131295 0)
(0.62494 -0.00126358 0)
(0.623988 -0.00121625 0)
(0.623073 -0.00117086 0)
(0.622192 -0.00112736 0)
(0.621344 -0.00108564 0)
(0.620528 -0.00104572 0)
(0.619742 -0.00100747 0)
(0.618985 -0.000971031 0)
(0.618256 -0.000936235 0)
(0.617553 -0.000903347 0)
(0.616874 -0.000872474 0)
(0.616223 -0.000843498 0)
(0.615584 -0.000818673 0)
(0.614989 -0.000794462 0)
(0.614358 -0.000783967 0)
(0.613882 -0.000769132 0)
(0.613083 -0.000796035 0)
(0.504298 -0.000902667 0)
(0.503377 -0.000868616 0)
(0.50249 -0.000835975 0)
(0.501637 -0.000804672 0)
(0.500817 -0.000774658 0)
(0.500027 -0.000745865 0)
(0.499266 -0.000718269 0)
(0.498534 -0.000691801 0)
(0.497829 -0.00066648 0)
(0.49715 -0.000642223 0)
(0.496496 -0.000619114 0)
(0.495866 -0.000597094 0)
(0.495258 -0.000576257 0)
(0.494671 -0.000556896 0)
(0.494106 -0.000538535 0)
(0.493554 -0.000523788 0)
(0.493034 -0.00050825 0)
(0.49249 -0.000507189 0)
(0.492062 -0.00049739 0)
(0.491363 -0.000546615 0)
(0.371557 -0.000476359 0)
(0.370838 -0.000458474 0)
(0.370146 -0.000441326 0)
(0.36948 -0.000424877 0)
(0.368839 -0.000409101 0)
(0.368222 -0.000393964 0)
(0.367628 -0.000379455 0)
(0.367056 -0.000365537 0)
(0.366505 -0.000352225 0)
(0.365974 -0.000339474 0)
(0.365463 -0.000327331 0)
(0.364969 -0.000315783 0)
(0.364494 -0.000304843 0)
(0.364034 -0.000294801 0)
(0.363591 -0.000285139 0)
(0.363158 -0.000278055 0)
(0.362748 -0.000269656 0)
(0.362321 -0.000273393 0)
(0.361972 -0.000267604 0)
(0.361406 -0.00032787 0)
(0.229936 -0.000173431 0)
(0.229469 -0.00016696 0)
(0.22902 -0.000160753 0)
(0.228587 -0.000154796 0)
(0.22817 -0.000149082 0)
(0.227769 -0.000143598 0)
(0.227383 -0.000138341 0)
(0.227011 -0.000133296 0)
(0.226652 -0.000128473 0)
(0.226307 -0.000123854 0)
(0.225974 -0.000119457 0)
(0.225652 -0.000115287 0)
(0.225343 -0.000111326 0)
(0.225043 -0.000107762 0)
(0.224754 -0.00010422 0)
(0.224472 -0.000102055 0)
(0.224202 -9.87004e-05 0)
(0.223923 -0.00010282 0)
(0.223685 -9.97129e-05 0)
(0.223286 -0.000151885 0)
(0.0795458 -2.88671e-05 0)
(0.079376 -2.78014e-05 0)
(0.0792125 -2.67786e-05 0)
(0.079055 -2.57962e-05 0)
(0.0789034 -2.48536e-05 0)
(0.0787573 -2.3948e-05 0)
(0.0786167 -2.30803e-05 0)
(0.0784811 -2.22468e-05 0)
(0.0783505 -2.14509e-05 0)
(0.0782245 -2.0688e-05 0)
(0.0781031 -1.99633e-05 0)
(0.0779859 -1.92786e-05 0)
(0.0778729 -1.86241e-05 0)
(0.0777635 -1.80603e-05 0)
(0.0776579 -1.74527e-05 0)
(0.0775545 -1.72331e-05 0)
(0.0774558 -1.65321e-05 0)
(0.0773526 -1.81836e-05 0)
(0.0772619 -1.72915e-05 0)
(0.0770874 -3.8417e-05 0)
)
;

boundaryField
{
    fixedWalls
    {
        type            noSlip;
    }
    inlet
    {
        type            fixedValue;
        value           nonuniform 0();
    }
    outlet
    {
        type            zeroGradient;
    }
    frontAndBack
    {
        type            empty;
    }
    procBoundary7to3
    {
        type            processor;
        value           nonuniform List<vector> 
20
(
(1.44573 0.000505996 0)
(1.44769 0.000486707 0)
(1.44958 0.000468169 0)
(1.45139 0.000450376 0)
(1.45314 0.00043332 0)
(1.45482 0.000416891 0)
(1.45643 0.000401128 0)
(1.45799 0.000385945 0)
(1.45948 0.000371518 0)
(1.46093 0.000357463 0)
(1.46231 0.000344304 0)
(1.46365 0.000331151 0)
(1.46492 0.000319498 0)
(1.46619 0.000306857 0)
(1.46733 0.000297192 0)
(1.46856 0.000284273 0)
(1.46954 0.000277675 0)
(1.47084 0.00026316 0)
(1.47149 0.000260898 0)
(1.47312 0.000244338 0)
)
;
    }
    procBoundary7to6
    {
        type            processor;
        value           nonuniform List<vector> 
20
(
(1.44369 -0.000526064 0)
(1.43868 -0.0015541 0)
(1.4285 -0.00251146 0)
(1.41286 -0.00335589 0)
(1.39132 -0.0040521 0)
(1.36338 -0.00457382 0)
(1.32848 -0.00490518 0)
(1.28605 -0.00504134 0)
(1.23556 -0.00498831 0)
(1.17655 -0.00476212 0)
(1.10862 -0.00438724 0)
(1.03151 -0.00389462 0)
(0.945034 -0.00331957 0)
(0.849127 -0.00269958 0)
(0.743801 -0.00207239 0)
(0.629136 -0.00147423 0)
(0.505256 -0.000938196 0)
(0.372305 -0.000495014 0)
(0.230422 -0.000180178 0)
(0.0797222 -2.99777e-05 0)
)
;
    }
}


// ************************************************************************* //
