/*--------------------------------*- C++ -*----------------------------------*\
| =========                 |                                                 |
| \\      /  F ield         | OpenFOAM: The Open Source CFD Toolbox           |
|  \\    /   O peration     | Version:                                        |
|   \\  /    A nd           | Website:  www.openfoam.com                      |
|    \\/     M anipulation  |                                                 |
\*---------------------------------------------------------------------------*/
FoamFile
{
    version     2.0;
    format      ascii;
    class       surfaceScalarField;
    location    "71";
    object      phi;
}
// * * * * * * * * * * * * * * * * * * * * * * * * * * * * * * * * * * * * * //

dimensions      [0 3 -1 0 0 0 0];
oriented        oriented;


internalField   nonuniform List<scalar> 
2365
(
8.64492e-07
4.18165e-13
8.64491e-07
4.53059e-13
8.64491e-07
3.6134e-13
8.6449e-07
2.93361e-13
8.6449e-07
1.26565e-13
8.6449e-07
5.52828e-14
8.6449e-07
-9.1077e-14
8.6449e-07
-1.32738e-13
8.64491e-07
-2.47231e-13
8.64491e-07
-2.56461e-13
8.64491e-07
-3.41133e-13
8.64492e-07
-3.2449e-13
8.64492e-07
-3.872e-13
8.64492e-07
-3.51817e-13
8.64493e-07
-3.99262e-13
8.64493e-07
-3.52104e-13
8.64493e-07
-3.90322e-13
8.64494e-07
-3.35612e-13
8.64494e-07
-3.68016e-13
8.64495e-07
-3.09514e-13
8.64495e-07
-3.39195e-13
8.64495e-07
-2.78541e-13
8.64495e-07
-3.06712e-13
8.64496e-07
-2.45807e-13
8.64496e-07
-2.74027e-13
8.64496e-07
-2.13238e-13
8.64496e-07
-2.417e-13
8.64497e-07
-1.82081e-13
8.64497e-07
-2.11672e-13
8.64497e-07
-1.53023e-13
8.64497e-07
-1.83491e-13
8.64497e-07
-1.26476e-13
8.64497e-07
-1.58399e-13
8.64498e-07
-1.02561e-13
8.64498e-07
-1.35485e-13
8.64498e-07
-8.13179e-14
8.64498e-07
-1.15694e-13
8.64498e-07
-6.26329e-14
8.64498e-07
-9.79237e-14
8.64498e-07
-4.63835e-14
8.64498e-07
-8.29775e-14
8.64498e-07
-3.23487e-14
8.64498e-07
-6.96772e-14
8.64498e-07
-2.03581e-14
8.64498e-07
-5.88039e-14
8.64498e-07
-1.01828e-14
8.64498e-07
-4.91794e-14
8.64499e-07
-1.65171e-15
8.64498e-07
-4.15797e-14
8.64499e-07
5.4598e-15
8.64499e-07
-3.48409e-14
8.64499e-07
1.1299e-14
8.64499e-07
-2.97737e-14
8.64499e-07
1.60542e-14
8.64499e-07
-2.52472e-14
8.64499e-07
1.98482e-14
8.64499e-07
-2.20876e-14
8.64499e-07
2.28498e-14
8.64499e-07
-1.91894e-14
8.64499e-07
2.51485e-14
8.64499e-07
-1.74226e-14
8.64499e-07
2.6871e-14
8.64499e-07
-1.57184e-14
8.64499e-07
2.80799e-14
8.64499e-07
-1.4963e-14
8.64499e-07
2.8886e-14
8.64499e-07
-1.41057e-14
8.64499e-07
2.93286e-14
8.64499e-07
-1.40648e-14
8.64499e-07
2.94913e-14
8.64499e-07
-1.38077e-14
8.64499e-07
2.9404e-14
8.64499e-07
-1.42511e-14
8.64499e-07
2.91538e-14
8.64499e-07
-1.43604e-14
8.64499e-07
2.87657e-14
8.64499e-07
-1.50661e-14
8.64499e-07
2.83188e-14
8.64499e-07
-1.53313e-14
8.64499e-07
2.78505e-14
8.64499e-07
-1.60609e-14
8.64499e-07
2.74683e-14
8.64499e-07
-1.61881e-14
8.64499e-07
2.72337e-14
8.64499e-07
-1.65979e-14
8.64499e-07
2.72798e-14
8.64499e-07
-1.61888e-14
8.64499e-07
2.77102e-14
8.64499e-07
-1.57901e-14
8.64499e-07
2.87121e-14
8.64499e-07
-1.42505e-14
8.64499e-07
3.0434e-14
8.64499e-07
-1.23544e-14
8.64499e-07
3.31226e-14
8.64499e-07
-8.87146e-15
8.64499e-07
3.70475e-14
8.64499e-07
-4.40866e-15
8.64499e-07
4.26811e-14
8.64499e-07
2.54288e-15
8.64499e-07
5.06499e-14
8.64499e-07
1.18359e-14
8.64499e-07
6.19889e-14
8.64498e-07
2.56672e-14
8.64498e-07
7.81302e-14
8.64498e-07
4.48211e-14
8.64498e-07
1.01051e-13
8.64498e-07
7.24053e-14
8.64498e-07
1.32974e-13
8.64498e-07
1.09777e-13
8.64498e-07
1.7619e-13
8.64498e-07
1.59942e-13
8.64498e-07
2.32574e-13
8.64497e-07
2.23594e-13
8.64497e-07
3.03426e-13
8.64497e-07
3.02018e-13
8.64496e-07
3.88442e-13
8.64496e-07
3.93205e-13
8.64496e-07
4.84229e-13
8.64495e-07
4.909e-13
8.64495e-07
5.77282e-13
8.64494e-07
5.73643e-13
8.64493e-07
6.24914e-13
8.64493e-07
5.7123e-13
8.64492e-07
5.24277e-13
4.84099e-13
2.58292e-06
1.9644e-12
2.58292e-06
1.69207e-12
2.58292e-06
1.39792e-12
2.58292e-06
8.7557e-13
2.58292e-06
4.5168e-13
2.58291e-06
-3.72829e-14
2.58292e-06
-3.57936e-13
2.58292e-06
-7.21997e-13
2.58292e-06
-9.14178e-13
2.58292e-06
-1.15746e-12
2.58292e-06
-1.24208e-12
2.58292e-06
-1.39182e-12
2.58292e-06
-1.39682e-12
2.58292e-06
-1.48128e-12
2.58292e-06
-1.43398e-12
2.58292e-06
-1.47599e-12
2.58292e-06
-1.39443e-12
2.58293e-06
-1.41023e-12
2.58293e-06
-1.30956e-12
2.58293e-06
-1.31056e-12
2.58293e-06
-1.19862e-12
2.58293e-06
-1.19224e-12
2.58293e-06
-1.07666e-12
2.58293e-06
-1.06801e-12
2.58293e-06
-9.51385e-13
2.58293e-06
-9.43559e-13
2.58293e-06
-8.29894e-13
2.58293e-06
-8.25022e-13
2.58293e-06
-7.14435e-13
2.58293e-06
-7.1355e-13
2.58294e-06
-6.0832e-13
2.58294e-06
-6.12161e-13
2.58294e-06
-5.11261e-13
2.58294e-06
-5.19939e-13
2.58294e-06
-4.24886e-13
2.58294e-06
-4.38516e-13
2.58294e-06
-3.47758e-13
2.58294e-06
-3.66019e-13
2.58294e-06
-2.8071e-13
2.58294e-06
-3.03444e-13
2.58294e-06
-2.21836e-13
2.58294e-06
-2.4858e-13
2.58294e-06
-1.71724e-13
2.58294e-06
-2.02237e-13
2.58294e-06
-1.28318e-13
2.58294e-06
-1.62087e-13
2.58294e-06
-9.21184e-14
2.58294e-06
-1.28901e-13
2.58294e-06
-6.11022e-14
2.58294e-06
-1.00429e-13
2.58294e-06
-3.58735e-14
2.58294e-06
-7.75573e-14
2.58294e-06
-1.4505e-14
2.58294e-06
-5.81129e-14
2.58294e-06
2.32836e-15
2.58294e-06
-4.30647e-14
2.58294e-06
1.64341e-14
2.58294e-06
-3.03841e-14
2.58294e-06
2.69896e-14
2.58294e-06
-2.11726e-14
2.58294e-06
3.57061e-14
2.58294e-06
-1.34731e-14
2.58294e-06
4.16992e-14
2.58294e-06
-8.4603e-15
2.58294e-06
4.65734e-14
2.58294e-06
-4.30372e-15
2.58294e-06
4.93132e-14
2.58294e-06
-2.29673e-15
2.58294e-06
5.14446e-14
2.58294e-06
-6.55439e-16
2.58294e-06
5.19203e-14
2.58294e-06
-7.09151e-16
2.58294e-06
5.22103e-14
2.58294e-06
-7.35668e-16
2.58294e-06
5.12062e-14
2.58294e-06
-2.10465e-15
2.58294e-06
5.03902e-14
2.58294e-06
-3.04551e-15
2.58294e-06
4.87173e-14
2.58294e-06
-4.86024e-15
2.58294e-06
4.77161e-14
2.58294e-06
-5.74426e-15
2.58294e-06
4.63754e-14
2.58294e-06
-6.94156e-15
2.58294e-06
4.63291e-14
2.58294e-06
-6.50466e-15
2.58294e-06
4.67288e-14
2.58294e-06
-5.50661e-15
2.58294e-06
4.93597e-14
2.58294e-06
-1.85316e-15
2.58294e-06
5.35374e-14
2.58294e-06
3.59172e-15
2.58294e-06
6.13294e-14
2.58294e-06
1.32817e-14
2.58294e-06
7.25159e-14
2.58294e-06
2.69279e-14
2.58294e-06
8.98396e-14
2.58294e-06
4.77982e-14
2.58294e-06
1.14113e-13
2.58294e-06
7.69252e-14
2.58294e-06
1.49711e-13
2.58294e-06
1.19581e-13
2.58294e-06
1.99841e-13
2.58294e-06
1.79577e-13
2.58294e-06
2.71889e-13
2.58294e-06
2.65418e-13
2.58294e-06
3.72411e-13
2.58294e-06
3.8425e-13
2.58294e-06
5.11988e-13
2.58294e-06
5.47389e-13
2.58294e-06
6.99813e-13
2.58294e-06
7.64088e-13
2.58294e-06
9.47509e-13
2.58293e-06
1.04486e-12
2.58293e-06
1.26183e-12
2.58293e-06
1.39401e-12
2.58293e-06
1.64366e-12
2.58293e-06
1.80244e-12
2.58293e-06
2.06613e-12
2.58293e-06
2.22461e-12
2.58293e-06
2.44347e-12
2.58292e-06
2.50113e-12
2.58292e-06
2.44392e-12
2.58292e-06
2.2805e-12
2.00951e-12
4.26395e-06
4.42317e-12
4.26394e-06
3.61026e-12
4.26394e-06
2.61617e-12
4.26394e-06
1.53345e-12
4.26394e-06
5.1039e-13
4.26394e-06
-3.88125e-13
4.26394e-06
-1.14121e-12
4.26394e-06
-1.75159e-12
4.26395e-06
-2.22857e-12
4.26395e-06
-2.58901e-12
4.26395e-06
-2.84748e-12
4.26395e-06
-3.02215e-12
4.26395e-06
-3.12641e-12
4.26395e-06
-3.17472e-12
4.26395e-06
-3.17592e-12
4.26396e-06
-3.14121e-12
4.26396e-06
-3.07717e-12
4.26396e-06
-2.99181e-12
4.26396e-06
-2.88844e-12
4.26396e-06
-2.77331e-12
4.26396e-06
-2.649e-12
4.26397e-06
-2.51991e-12
4.26397e-06
-2.38654e-12
4.26397e-06
-2.2526e-12
4.26397e-06
-2.11871e-12
4.26397e-06
-1.98745e-12
4.26397e-06
-1.85797e-12
4.26397e-06
-1.73266e-12
4.26397e-06
-1.61116e-12
4.26397e-06
-1.49513e-12
4.26397e-06
-1.38307e-12
4.26397e-06
-1.27673e-12
4.26398e-06
-1.17533e-12
4.26398e-06
-1.08008e-12
4.26398e-06
-9.89206e-13
4.26398e-06
-9.04111e-13
4.26398e-06
-8.23855e-13
4.26398e-06
-7.49386e-13
4.26398e-06
-6.78868e-13
4.26398e-06
-6.13535e-13
4.26398e-06
-5.52432e-13
4.26398e-06
-4.96414e-13
4.26398e-06
-4.43616e-13
4.26398e-06
-3.95218e-13
4.26398e-06
-3.50224e-13
4.26398e-06
-3.09478e-13
4.26398e-06
-2.71123e-13
4.26398e-06
-2.36343e-13
4.26398e-06
-2.04205e-13
4.26398e-06
-1.75545e-13
4.26398e-06
-1.48572e-13
4.26398e-06
-1.24449e-13
4.26398e-06
-1.02288e-13
4.26398e-06
-8.29196e-14
4.26398e-06
-6.46143e-14
4.26398e-06
-4.85524e-14
4.26398e-06
-3.39073e-14
4.26398e-06
-2.15456e-14
4.26398e-06
-9.74415e-15
4.26398e-06
2.77131e-16
4.26398e-06
9.37026e-15
4.26398e-06
1.66175e-14
4.26398e-06
2.37401e-14
4.26398e-06
2.94682e-14
4.26398e-06
3.46072e-14
4.26398e-06
3.8221e-14
4.26398e-06
4.19886e-14
4.26398e-06
4.46443e-14
4.26398e-06
4.69773e-14
4.26398e-06
4.80373e-14
4.26398e-06
4.95004e-14
4.26398e-06
5.00458e-14
4.26398e-06
5.048e-14
4.26398e-06
4.97913e-14
4.26398e-06
4.97059e-14
4.26398e-06
4.88676e-14
4.26398e-06
4.81603e-14
4.26398e-06
4.65291e-14
4.26398e-06
4.57715e-14
4.26398e-06
4.44814e-14
4.26398e-06
4.35731e-14
4.26398e-06
4.19852e-14
4.26398e-06
4.15512e-14
4.26398e-06
4.08856e-14
4.26398e-06
4.09658e-14
4.26398e-06
4.07469e-14
4.26398e-06
4.21344e-14
4.26398e-06
4.3731e-14
4.26398e-06
4.66089e-14
4.26398e-06
4.97239e-14
4.26398e-06
5.51128e-14
4.26398e-06
6.14294e-14
4.26398e-06
6.99158e-14
4.26398e-06
7.96544e-14
4.26398e-06
9.28523e-14
4.26398e-06
1.08364e-13
4.26398e-06
1.27654e-13
4.26398e-06
1.50117e-13
4.26398e-06
1.78297e-13
4.26398e-06
2.11548e-13
4.26398e-06
2.5182e-13
4.26398e-06
2.99243e-13
4.26398e-06
3.5695e-13
4.26398e-06
4.25265e-13
4.26398e-06
5.06859e-13
4.26398e-06
6.03079e-13
4.26398e-06
7.17914e-13
4.26398e-06
8.53111e-13
4.26398e-06
1.01233e-12
4.26398e-06
1.19844e-12
4.26398e-06
1.41622e-12
4.26398e-06
1.66831e-12
4.26398e-06
1.95854e-12
4.26397e-06
2.28955e-12
4.26397e-06
2.6643e-12
4.26397e-06
3.08111e-12
4.26397e-06
3.53719e-12
4.26397e-06
4.02652e-12
4.26397e-06
4.53379e-12
4.26396e-06
5.03786e-12
4.26396e-06
5.48566e-12
4.26396e-06
5.79548e-12
4.26395e-06
5.8295e-12
4.26395e-06
5.54969e-12
5.05311e-12
5.8812e-06
7.85681e-12
5.88119e-06
5.89989e-12
5.88119e-06
3.8683e-12
5.88119e-06
1.93035e-12
5.88119e-06
2.15339e-13
5.88119e-06
-1.24267e-12
5.88119e-06
-2.42707e-12
5.8812e-06
-3.36949e-12
5.8812e-06
-4.08487e-12
5.8812e-06
-4.61803e-12
5.8812e-06
-4.98669e-12
5.8812e-06
-5.23191e-12
5.88121e-06
-5.36408e-12
5.88121e-06
-5.41625e-12
5.88121e-06
-5.39253e-12
5.88121e-06
-5.32041e-12
5.88121e-06
-5.198e-12
5.88122e-06
-5.0482e-12
5.88122e-06
-4.86605e-12
5.88122e-06
-4.67205e-12
5.88122e-06
-4.45798e-12
5.88122e-06
-4.24177e-12
5.88123e-06
-4.01431e-12
5.88123e-06
-3.79221e-12
5.88123e-06
-3.5646e-12
5.88123e-06
-3.34638e-12
5.88123e-06
-3.12663e-12
5.88123e-06
-2.91969e-12
5.88123e-06
-2.71332e-12
5.88123e-06
-2.52101e-12
5.88123e-06
-2.33057e-12
5.88124e-06
-2.1556e-12
5.88124e-06
-1.98293e-12
5.88124e-06
-1.82546e-12
5.88124e-06
-1.67049e-12
5.88124e-06
-1.53111e-12
5.88124e-06
-1.39373e-12
5.88124e-06
-1.27109e-12
5.88124e-06
-1.15007e-12
5.88124e-06
-1.04374e-12
5.88124e-06
-9.38429e-13
5.88124e-06
-8.46562e-13
5.88124e-06
-7.55243e-13
5.88124e-06
-6.7709e-13
5.88124e-06
-5.98751e-13
5.88124e-06
-5.32316e-13
5.88124e-06
-4.65103e-13
5.88124e-06
-4.09764e-13
5.88124e-06
-3.52814e-13
5.88124e-06
-3.0663e-13
5.88124e-06
-2.58369e-13
5.88124e-06
-2.20846e-13
5.88124e-06
-1.8047e-13
5.88124e-06
-1.49867e-13
5.88124e-06
-1.16013e-13
5.88124e-06
-9.19631e-14
5.88124e-06
-6.42194e-14
5.88124e-06
-4.52544e-14
5.88124e-06
-2.23765e-14
5.88124e-06
-8.30266e-15
5.88124e-06
1.00938e-14
5.88124e-06
2.05939e-14
5.88124e-06
3.56627e-14
5.88124e-06
4.24921e-14
5.88124e-06
5.43588e-14
5.88124e-06
5.86797e-14
5.88124e-06
6.82492e-14
5.88124e-06
6.98811e-14
5.88124e-06
7.71228e-14
5.88124e-06
7.71837e-14
5.88124e-06
8.28105e-14
5.88124e-06
8.09629e-14
5.88124e-06
8.4913e-14
5.88124e-06
8.20382e-14
5.88124e-06
8.49716e-14
5.88124e-06
8.08239e-14
5.88124e-06
8.27041e-14
5.88124e-06
7.82427e-14
5.88124e-06
7.99302e-14
5.88124e-06
7.48226e-14
5.88124e-06
7.62792e-14
5.88124e-06
7.16056e-14
5.88124e-06
7.3725e-14
5.88124e-06
6.93696e-14
5.88124e-06
7.228e-14
5.88124e-06
6.96219e-14
5.88124e-06
7.43835e-14
5.88124e-06
7.35342e-14
5.88124e-06
8.06248e-14
5.88124e-06
8.32473e-14
5.88124e-06
9.4216e-14
5.88124e-06
1.00949e-13
5.88124e-06
1.17059e-13
5.88124e-06
1.30352e-13
5.88124e-06
1.54091e-13
5.88124e-06
1.75898e-13
5.88124e-06
2.09796e-13
5.88124e-06
2.4408e-13
5.88124e-06
2.92637e-13
5.88124e-06
3.43677e-13
5.88124e-06
4.12384e-13
5.88124e-06
4.87789e-13
5.88124e-06
5.8516e-13
5.88124e-06
6.94037e-13
5.88124e-06
8.31047e-13
5.88124e-06
9.8747e-13
5.88124e-06
1.18022e-12
5.88124e-06
1.40181e-12
5.88124e-06
1.67097e-12
5.88124e-06
1.98201e-12
5.88124e-06
2.35381e-12
5.88124e-06
2.78094e-12
5.88124e-06
3.28364e-12
5.88123e-06
3.85499e-12
5.88123e-06
4.51033e-12
5.88123e-06
5.23886e-12
5.88123e-06
6.05059e-12
5.88123e-06
6.92395e-12
5.88122e-06
7.85222e-12
5.88122e-06
8.78863e-12
5.88122e-06
9.67139e-12
5.88121e-06
1.03712e-11
5.88121e-06
1.06681e-11
5.8812e-06
1.03985e-11
9.41286e-12
7.40848e-06
1.17903e-11
7.40848e-06
8.37488e-12
7.40847e-06
5.04013e-12
7.40847e-06
2.11353e-12
7.40847e-06
-4.6482e-13
7.40848e-06
-2.50627e-12
7.40848e-06
-4.15277e-12
7.40848e-06
-5.43019e-12
7.40848e-06
-6.38012e-12
7.40848e-06
-7.06989e-12
7.40849e-06
-7.50183e-12
7.40849e-06
-7.86004e-12
7.40849e-06
-7.93783e-12
7.40849e-06
-8.03781e-12
7.4085e-06
-7.94148e-12
7.4085e-06
-7.81064e-12
7.4085e-06
-7.61543e-12
7.4085e-06
-7.34995e-12
7.40851e-06
-7.14195e-12
7.40851e-06
-6.78483e-12
7.40851e-06
-6.53404e-12
7.40851e-06
-6.18143e-12
7.40851e-06
-5.84932e-12
7.40852e-06
-5.52191e-12
7.40852e-06
-5.15747e-12
7.40852e-06
-4.90281e-12
7.40852e-06
-4.51888e-12
7.40852e-06
-4.28048e-12
7.40852e-06
-3.94824e-12
7.40852e-06
-3.66697e-12
7.40852e-06
-3.39173e-12
7.40853e-06
-3.13519e-12
7.40853e-06
-2.88512e-12
7.40853e-06
-2.65493e-12
7.40853e-06
-2.43157e-12
7.40853e-06
-2.19441e-12
7.40853e-06
-2.06109e-12
7.40853e-06
-1.81642e-12
7.40853e-06
-1.70782e-12
7.40853e-06
-1.51878e-12
7.40853e-06
-1.36686e-12
7.40853e-06
-1.23218e-12
7.40853e-06
-1.06883e-12
7.40853e-06
-1.0186e-12
7.40853e-06
-8.4057e-13
7.40853e-06
-8.0806e-13
7.40853e-06
-6.79688e-13
7.40853e-06
-5.9726e-13
7.40853e-06
-5.15516e-13
7.40853e-06
-4.47078e-13
7.40853e-06
-3.78783e-13
7.40853e-06
-2.89519e-13
7.40853e-06
-2.9704e-13
7.40853e-06
-1.85892e-13
7.40853e-06
-2.03737e-13
7.40853e-06
-1.33993e-13
7.40853e-06
-9.45229e-14
7.40853e-06
-6.54643e-14
7.40853e-06
-1.26814e-15
7.40853e-06
-4.38389e-14
7.40853e-06
4.73826e-14
7.40853e-06
-1.06954e-15
7.40853e-06
5.18193e-14
7.40853e-06
6.40566e-14
7.40853e-06
8.05626e-14
7.40853e-06
1.21078e-13
7.40853e-06
6.81035e-14
7.40853e-06
1.38071e-13
7.40853e-06
8.26081e-14
7.40853e-06
1.16936e-13
7.40853e-06
1.23513e-13
7.40853e-06
1.23141e-13
7.40853e-06
1.28124e-13
7.40853e-06
1.25522e-13
7.40853e-06
1.60759e-13
7.40853e-06
9.17136e-14
7.40853e-06
1.58886e-13
7.40853e-06
8.86048e-14
7.40853e-06
1.21898e-13
7.40853e-06
1.16602e-13
7.40853e-06
1.17724e-13
7.40853e-06
1.44853e-13
7.40853e-06
8.06607e-14
7.40853e-06
1.41482e-13
7.40853e-06
7.91958e-14
7.40853e-06
1.08962e-13
7.40853e-06
1.13597e-13
7.40853e-06
1.13924e-13
7.40853e-06
1.55264e-13
7.40853e-06
9.44323e-14
7.40853e-06
1.72979e-13
7.40853e-06
1.1869e-13
7.40853e-06
1.72785e-13
7.40853e-06
1.92403e-13
7.40853e-06
2.56539e-13
7.40853e-06
2.23774e-13
7.40853e-06
3.03329e-13
7.40853e-06
3.5306e-13
7.40853e-06
4.20241e-13
7.40853e-06
5.27457e-13
7.40853e-06
5.59252e-13
7.40853e-06
7.3349e-13
7.40853e-06
8.05866e-13
7.40853e-06
9.96693e-13
7.40853e-06
1.19292e-12
7.40853e-06
1.41995e-12
7.40853e-06
1.73004e-12
7.40853e-06
1.98921e-12
7.40853e-06
2.44677e-12
7.40853e-06
2.83937e-12
7.40853e-06
3.41863e-12
7.40853e-06
4.05429e-12
7.40853e-06
4.8012e-12
7.40852e-06
5.65554e-12
7.40852e-06
6.63714e-12
7.40852e-06
7.76988e-12
7.40852e-06
8.93414e-12
7.40851e-06
1.03374e-11
7.40851e-06
1.17088e-11
7.40851e-06
1.32209e-11
7.4085e-06
1.46583e-11
7.40849e-06
1.58653e-11
7.40849e-06
1.65902e-11
7.40848e-06
1.6235e-11
1.4719e-11
8.81963e-06
1.5897e-11
8.81962e-06
1.08776e-11
8.81962e-06
6.1442e-12
8.81962e-06
2.10089e-12
8.81962e-06
-1.25161e-12
8.81962e-06
-3.96295e-12
8.81963e-06
-6.07923e-12
8.81963e-06
-7.69011e-12
8.81963e-06
-8.86803e-12
8.81963e-06
-9.70242e-12
8.81964e-06
-1.02493e-11
8.81964e-06
-1.05763e-11
8.81964e-06
-1.07177e-11
8.81964e-06
-1.07214e-11
8.81965e-06
-1.06052e-11
8.81965e-06
-1.04045e-11
8.81965e-06
-1.01276e-11
8.81965e-06
-9.80164e-12
8.81966e-06
-9.42854e-12
8.81966e-06
-9.03083e-12
8.81966e-06
-8.60705e-12
8.81966e-06
-8.17595e-12
8.81967e-06
-7.73283e-12
8.81967e-06
-7.29457e-12
8.81967e-06
-6.85463e-12
8.81967e-06
-6.42773e-12
8.81967e-06
-6.00527e-12
8.81967e-06
-5.60104e-12
8.81967e-06
-5.2057e-12
8.81967e-06
-4.8315e-12
8.81968e-06
-4.46808e-12
8.81968e-06
-4.12728e-12
8.81968e-06
-3.79855e-12
8.81968e-06
-3.49278e-12
8.81968e-06
-3.19868e-12
8.81968e-06
-2.92713e-12
8.81968e-06
-2.66708e-12
8.81968e-06
-2.42864e-12
8.81968e-06
-2.20039e-12
8.81968e-06
-1.99273e-12
8.81968e-06
-1.79441e-12
8.81968e-06
-1.61543e-12
8.81968e-06
-1.44401e-12
8.81968e-06
-1.29064e-12
8.81968e-06
-1.1438e-12
8.81968e-06
-1.01365e-12
8.81968e-06
-8.88398e-13
8.81968e-06
-7.78527e-13
8.81968e-06
-6.72788e-13
8.81968e-06
-5.81178e-13
8.81968e-06
-4.92158e-13
8.81968e-06
-4.16124e-13
8.81968e-06
-3.42068e-13
8.81969e-06
-2.79911e-13
8.81969e-06
-2.18454e-13
8.81969e-06
-1.68092e-13
8.81969e-06
-1.17924e-13
8.81969e-06
-7.80758e-14
8.81969e-06
-3.71794e-14
8.81969e-06
-5.93522e-15
8.81969e-06
2.67462e-14
8.81969e-06
5.0434e-14
8.81969e-06
7.64888e-14
8.81969e-06
9.41205e-14
8.81969e-06
1.14164e-13
8.81969e-06
1.26345e-13
8.81969e-06
1.41707e-13
8.81969e-06
1.49673e-13
8.81969e-06
1.60795e-13
8.81969e-06
1.6484e-13
8.81969e-06
1.72794e-13
8.81969e-06
1.73829e-13
8.81969e-06
1.78679e-13
8.81969e-06
1.76906e-13
8.81969e-06
1.79675e-13
8.81969e-06
1.76048e-13
8.81969e-06
1.7697e-13
8.81969e-06
1.71812e-13
8.81969e-06
1.71879e-13
8.81969e-06
1.66217e-13
8.81969e-06
1.65694e-13
8.81969e-06
1.59937e-13
8.81969e-06
1.60118e-13
8.81969e-06
1.55612e-13
8.81969e-06
1.57208e-13
8.81969e-06
1.54709e-13
8.81969e-06
1.59451e-13
8.81969e-06
1.60746e-13
8.81969e-06
1.69834e-13
8.81969e-06
1.76452e-13
8.81969e-06
1.92529e-13
8.81969e-06
2.07489e-13
8.81969e-06
2.33111e-13
8.81969e-06
2.59574e-13
8.81969e-06
2.99233e-13
8.81969e-06
3.4222e-13
8.81969e-06
4.01042e-13
8.81969e-06
4.66839e-13
8.81968e-06
5.53074e-13
8.81968e-06
6.51458e-13
8.81968e-06
7.75919e-13
8.81968e-06
9.19907e-13
8.81968e-06
1.09902e-12
8.81968e-06
1.30809e-12
8.81968e-06
1.56444e-12
8.81968e-06
1.86567e-12
8.81968e-06
2.23245e-12
8.81968e-06
2.66484e-12
8.81968e-06
3.18629e-12
8.81968e-06
3.80026e-12
8.81968e-06
4.5333e-12
8.81968e-06
5.38964e-12
8.81968e-06
6.39418e-12
8.81967e-06
7.5495e-12
8.81967e-06
8.87591e-12
8.81967e-06
1.03686e-11
8.81967e-06
1.20385e-11
8.81966e-06
1.38694e-11
8.81966e-06
1.58474e-11
8.81966e-06
1.79024e-11
8.81965e-06
1.99295e-11
8.81964e-06
2.16961e-11
8.81964e-06
2.27501e-11
8.81963e-06
2.24808e-11
2.01527e-11
1.00885e-05
1.95559e-11
1.00885e-05
1.31498e-11
1.00885e-05
7.15169e-12
1.00885e-05
2.10869e-12
1.00885e-05
-2.03923e-12
1.00885e-05
-5.35143e-12
1.00885e-05
-7.9219e-12
1.00885e-05
-9.84874e-12
1.00885e-05
-1.12506e-11
1.00885e-05
-1.22202e-11
1.00885e-05
-1.28504e-11
1.00885e-05
-1.32041e-11
1.00885e-05
-1.3346e-11
1.00885e-05
-1.33128e-11
1.00885e-05
-1.31477e-11
1.00885e-05
-1.28721e-11
1.00885e-05
-1.25175e-11
1.00885e-05
-1.20949e-11
1.00885e-05
-1.16277e-11
1.00885e-05
-1.11216e-11
1.00885e-05
-1.05961e-11
1.00885e-05
-1.00526e-11
1.00885e-05
-9.50617e-12
1.00885e-05
-8.95597e-12
1.00885e-05
-8.41566e-12
1.00885e-05
-7.88137e-12
1.00885e-05
-7.36404e-12
1.00885e-05
-6.85874e-12
1.00885e-05
-6.37596e-12
1.00885e-05
-5.90896e-12
1.00885e-05
-5.46626e-12
1.00885e-05
-5.04094e-12
1.00885e-05
-4.64167e-12
1.00885e-05
-4.26028e-12
1.00885e-05
-3.90405e-12
1.00885e-05
-3.56496e-12
1.00885e-05
-3.25097e-12
1.00885e-05
-2.95319e-12
1.00885e-05
-2.6785e-12
1.00885e-05
-2.41852e-12
1.00885e-05
-2.18086e-12
1.00885e-05
-1.95642e-12
1.00885e-05
-1.75186e-12
1.00885e-05
-1.55864e-12
1.00885e-05
-1.38442e-12
1.00885e-05
-1.21997e-12
1.00885e-05
-1.07217e-12
1.00885e-05
-9.3245e-13
1.00885e-05
-8.08608e-13
1.00885e-05
-6.91516e-13
1.00885e-05
-5.88046e-13
1.00885e-05
-4.89829e-13
1.00885e-05
-4.04646e-13
1.00885e-05
-3.23673e-13
1.00885e-05
-2.53873e-13
1.00885e-05
-1.87015e-13
1.00885e-05
-1.31093e-13
1.00885e-05
-7.72271e-14
1.00885e-05
-3.25668e-14
1.00885e-05
1.11071e-14
1.00885e-05
4.56522e-14
1.00885e-05
7.9879e-14
1.00885e-05
1.06434e-13
1.00885e-05
1.33434e-13
1.00885e-05
1.5265e-13
1.00885e-05
1.72715e-13
1.00885e-05
1.86325e-13
1.00885e-05
2.01458e-13
1.00885e-05
2.09827e-13
1.00885e-05
2.19945e-13
1.00885e-05
2.24413e-13
1.00885e-05
2.31075e-13
1.00885e-05
2.3165e-13
1.00885e-05
2.34656e-13
1.00885e-05
2.32654e-13
1.00885e-05
2.33677e-13
1.00885e-05
2.29266e-13
1.00885e-05
2.2809e-13
1.00885e-05
2.22646e-13
1.00885e-05
2.20927e-13
1.00885e-05
2.14684e-13
1.00885e-05
2.12482e-13
1.00885e-05
2.07144e-13
1.00885e-05
2.06592e-13
1.00885e-05
2.02841e-13
1.00885e-05
2.04478e-13
1.00885e-05
2.04461e-13
1.00885e-05
2.10952e-13
1.00885e-05
2.16054e-13
1.00885e-05
2.28809e-13
1.00885e-05
2.4243e-13
1.00885e-05
2.65542e-13
1.00885e-05
2.90735e-13
1.00885e-05
3.27534e-13
1.00885e-05
3.69767e-13
1.00885e-05
4.26932e-13
1.00885e-05
4.92443e-13
1.00885e-05
5.77127e-13
1.00885e-05
6.76293e-13
1.00885e-05
8.01091e-13
1.00885e-05
9.47233e-13
1.00885e-05
1.12802e-12
1.00885e-05
1.34184e-12
1.00885e-05
1.6037e-12
1.00885e-05
1.91374e-12
1.00885e-05
2.29083e-12
1.00885e-05
2.73943e-12
1.00885e-05
3.28163e-12
1.00885e-05
3.92503e-12
1.00885e-05
4.6964e-12
1.00885e-05
5.60641e-12
1.00885e-05
6.68224e-12
1.00885e-05
7.93359e-12
1.00885e-05
9.38385e-12
1.00885e-05
1.10371e-11
1.00885e-05
1.29082e-11
1.00885e-05
1.49936e-11
1.00885e-05
1.72889e-11
1.00885e-05
1.97612e-11
1.00885e-05
2.23685e-11
1.00885e-05
2.4938e-11
1.00885e-05
2.71808e-11
1.00885e-05
2.86132e-11
1.00885e-05
2.81939e-11
2.52371e-11
1.11888e-05
2.25897e-11
1.11888e-05
1.50107e-11
1.11888e-05
8.03126e-12
1.11888e-05
2.15693e-12
1.11888e-05
-2.62717e-12
1.11888e-05
-6.46562e-12
1.11888e-05
-9.41193e-12
1.11888e-05
-1.16403e-11
1.11888e-05
-1.32317e-11
1.11888e-05
-1.4349e-11
1.11888e-05
-1.50464e-11
1.11888e-05
-1.54526e-11
1.11888e-05
-1.55852e-11
1.11888e-05
-1.55423e-11
1.11888e-05
-1.53207e-11
1.11888e-05
-1.50001e-11
1.11888e-05
-1.45606e-11
1.11888e-05
-1.40702e-11
1.11888e-05
-1.35022e-11
1.11888e-05
-1.29189e-11
1.11888e-05
-1.22859e-11
1.11888e-05
-1.16594e-11
1.11888e-05
-1.10041e-11
1.11888e-05
-1.03738e-11
1.11888e-05
-9.72754e-12
1.11888e-05
-9.11578e-12
1.11888e-05
-8.49761e-12
1.11888e-05
-7.92275e-12
1.11888e-05
-7.34627e-12
1.11888e-05
-6.81545e-12
1.11888e-05
-6.28664e-12
1.11888e-05
-5.80675e-12
1.11888e-05
-5.32942e-12
1.11888e-05
-4.89982e-12
1.11888e-05
-4.47281e-12
1.11888e-05
-4.09474e-12
1.11888e-05
-3.71723e-12
1.11888e-05
-3.38584e-12
1.11888e-05
-3.05433e-12
1.11888e-05
-2.76864e-12
1.11888e-05
-2.48057e-12
1.11888e-05
-2.23436e-12
1.11888e-05
-1.98457e-12
1.11888e-05
-1.77654e-12
1.11888e-05
-1.56206e-12
1.11888e-05
-1.38579e-12
1.11888e-05
-1.20156e-12
1.11888e-05
-1.0557e-12
1.11888e-05
-8.99526e-13
1.11888e-05
-7.77997e-13
1.11888e-05
-6.45298e-13
1.11888e-05
-5.47012e-13
1.11888e-05
-4.35592e-13
1.11888e-05
-3.55737e-13
1.11888e-05
-2.61718e-13
1.11888e-05
-1.99919e-13
1.11888e-05
-1.2194e-13
1.11888e-05
-7.3161e-14
1.11888e-05
-8.09641e-15
1.11888e-05
2.72234e-14
1.11888e-05
8.05659e-14
1.11888e-05
1.06651e-13
1.11888e-05
1.51053e-13
1.11888e-05
1.67291e-13
1.11888e-05
2.02922e-13
1.11888e-05
2.1273e-13
1.11888e-05
2.42336e-13
1.11888e-05
2.44678e-13
1.11888e-05
2.68004e-13
1.11888e-05
2.66492e-13
1.11888e-05
2.85211e-13
1.11888e-05
2.78021e-13
1.11888e-05
2.92186e-13
1.11888e-05
2.82199e-13
1.11888e-05
2.93841e-13
1.11888e-05
2.79778e-13
1.11888e-05
2.88282e-13
1.11888e-05
2.73413e-13
1.11888e-05
2.80701e-13
1.11888e-05
2.63528e-13
1.11888e-05
2.69546e-13
1.11888e-05
2.53577e-13
1.11888e-05
2.60766e-13
1.11888e-05
2.44881e-13
1.11888e-05
2.53578e-13
1.11888e-05
2.41906e-13
1.11888e-05
2.5528e-13
1.11888e-05
2.47263e-13
1.11888e-05
2.66251e-13
1.11888e-05
2.67259e-13
1.11888e-05
2.96108e-13
1.11888e-05
3.07539e-13
1.11888e-05
3.49489e-13
1.11888e-05
3.7793e-13
1.11888e-05
4.39946e-13
1.11888e-05
4.90075e-13
1.11888e-05
5.78391e-13
1.11888e-05
6.62156e-13
1.11888e-05
7.89402e-13
1.11888e-05
9.18064e-13
1.11888e-05
1.09984e-12
1.11888e-05
1.29519e-12
1.11888e-05
1.55667e-12
1.11888e-05
1.84573e-12
1.11888e-05
2.22062e-12
1.11888e-05
2.64768e-12
1.11888e-05
3.18699e-12
1.11888e-05
3.80868e-12
1.11888e-05
4.57955e-12
1.11888e-05
5.47405e-12
1.11888e-05
6.56078e-12
1.11888e-05
7.81384e-12
1.11888e-05
9.30123e-12
1.11888e-05
1.09926e-11
1.11888e-05
1.29476e-11
1.11888e-05
1.51281e-11
1.11888e-05
1.75762e-11
1.11888e-05
2.02527e-11
1.11888e-05
2.31797e-11
1.11888e-05
2.62041e-11
1.11888e-05
2.92099e-11
1.11888e-05
3.18525e-11
1.11888e-05
3.33811e-11
1.11888e-05
3.28741e-11
2.92043e-11
1.20943e-05
2.43145e-11
1.20943e-05
1.60962e-11
1.20943e-05
8.58013e-12
1.20943e-05
2.2293e-12
1.20943e-05
-3.02464e-12
1.20943e-05
-7.20773e-12
1.20943e-05
-1.03808e-11
1.20943e-05
-1.28821e-11
1.20943e-05
-1.45339e-11
1.20943e-05
-1.58787e-11
1.20943e-05
-1.66508e-11
1.20943e-05
-1.71095e-11
1.20943e-05
-1.72019e-11
1.20943e-05
-1.72117e-11
1.20943e-05
-1.68583e-11
1.20943e-05
-1.66052e-11
1.20943e-05
-1.61057e-11
1.20943e-05
-1.55639e-11
1.20943e-05
-1.48723e-11
1.20943e-05
-1.42755e-11
1.20943e-05
-1.34606e-11
1.20943e-05
-1.29186e-11
1.20943e-05
-1.20819e-11
1.20943e-05
-1.1435e-11
1.20943e-05
-1.06586e-11
1.20943e-05
-1.00352e-11
1.20943e-05
-9.29336e-12
1.20943e-05
-8.71037e-12
1.20943e-05
-8.01493e-12
1.20943e-05
-7.48342e-12
1.20943e-05
-6.79375e-12
1.20943e-05
-6.4179e-12
1.20943e-05
-5.78502e-12
1.20943e-05
-5.36679e-12
1.20943e-05
-4.84219e-12
1.20943e-05
-4.42953e-12
1.20943e-05
-4.05926e-12
1.20943e-05
-3.70004e-12
1.20943e-05
-3.28256e-12
1.20943e-05
-3.02218e-12
1.20943e-05
-2.60161e-12
1.20943e-05
-2.48654e-12
1.20943e-05
-2.11007e-12
1.20943e-05
-1.9351e-12
1.20943e-05
-1.62142e-12
1.20943e-05
-1.48296e-12
1.20943e-05
-1.30454e-12
1.20943e-05
-1.14763e-12
1.20943e-05
-9.23582e-13
1.20943e-05
-8.44924e-13
1.20943e-05
-5.98214e-13
1.20943e-05
-6.43453e-13
1.20943e-05
-4.18786e-13
1.20943e-05
-3.85522e-13
1.20943e-05
-2.31542e-13
1.20943e-05
-1.66184e-13
1.20943e-05
-7.84223e-14
1.20943e-05
-1.28996e-13
1.20943e-05
4.33309e-14
1.20943e-05
2.99302e-14
1.20943e-05
1.65844e-13
1.20943e-05
1.40756e-13
1.20943e-05
2.1527e-13
1.20943e-05
1.30992e-13
1.20943e-05
2.72558e-13
1.20943e-05
2.54836e-13
1.20943e-05
2.88189e-13
1.20943e-05
3.13974e-13
1.20943e-05
3.41909e-13
1.20943e-05
2.36533e-13
1.20943e-05
3.83168e-13
1.20943e-05
2.73192e-13
1.20943e-05
3.66307e-13
1.20943e-05
3.51705e-13
1.20943e-05
3.1542e-13
1.20943e-05
3.22841e-13
1.20943e-05
3.34745e-13
1.20943e-05
2.89363e-13
1.20943e-05
3.48586e-13
1.20943e-05
2.77104e-13
1.20943e-05
3.61576e-13
1.20943e-05
2.3948e-13
1.20943e-05
3.23872e-13
1.20943e-05
2.53431e-13
1.20943e-05
3.66171e-13
1.20943e-05
2.48386e-13
1.20943e-05
2.6472e-13
1.20943e-05
2.52652e-13
1.20943e-05
3.26994e-13
1.20943e-05
2.73013e-13
1.20943e-05
4.069e-13
1.20943e-05
2.65719e-13
1.20943e-05
4.15471e-13
1.20943e-05
4.41468e-13
1.20943e-05
4.61423e-13
1.20943e-05
5.12768e-13
1.20943e-05
6.88185e-13
1.20943e-05
6.74733e-13
1.20943e-05
9.41387e-13
1.20943e-05
9.29217e-13
1.20943e-05
1.23238e-12
1.20943e-05
1.41823e-12
1.20943e-05
1.70849e-12
1.20943e-05
2.00144e-12
1.20943e-05
2.4703e-12
1.20943e-05
2.89273e-12
1.20943e-05
3.57053e-12
1.20943e-05
4.16514e-12
1.20943e-05
5.10455e-12
1.20943e-05
6.10633e-12
1.20943e-05
7.27362e-12
1.20943e-05
8.67773e-12
1.20943e-05
1.03895e-11
1.20943e-05
1.2228e-11
1.20943e-05
1.44544e-11
1.20943e-05
1.68267e-11
1.20943e-05
1.96112e-11
1.20943e-05
2.25416e-11
1.20943e-05
2.58107e-11
1.20943e-05
2.90958e-11
1.20943e-05
3.24833e-11
1.20943e-05
3.50631e-11
1.20943e-05
3.6781e-11
1.20943e-05
3.5976e-11
3.18833e-11
1.27787e-05
1.27787e-05
1.27787e-05
1.27787e-05
1.27787e-05
1.27787e-05
1.27787e-05
1.27787e-05
1.27787e-05
1.27787e-05
1.27787e-05
1.27787e-05
1.27787e-05
1.27787e-05
1.27787e-05
1.27787e-05
1.27787e-05
1.27787e-05
1.27787e-05
1.27787e-05
1.27787e-05
1.27787e-05
1.27787e-05
1.27787e-05
1.27787e-05
1.27787e-05
1.27787e-05
1.27787e-05
1.27787e-05
1.27787e-05
1.27787e-05
1.27787e-05
1.27787e-05
1.27787e-05
1.27787e-05
1.27787e-05
1.27787e-05
1.27787e-05
1.27787e-05
1.27787e-05
1.27787e-05
1.27787e-05
1.27787e-05
1.27787e-05
1.27787e-05
1.27787e-05
1.27787e-05
1.27787e-05
1.27787e-05
1.27787e-05
1.27787e-05
1.27787e-05
1.27787e-05
1.27787e-05
1.27787e-05
1.27787e-05
1.27787e-05
1.27787e-05
1.27787e-05
1.27787e-05
1.27787e-05
1.27787e-05
1.27787e-05
1.27787e-05
1.27787e-05
1.27787e-05
1.27787e-05
1.27787e-05
1.27787e-05
1.27787e-05
1.27787e-05
1.27787e-05
1.27787e-05
1.27787e-05
1.27787e-05
1.27787e-05
1.27787e-05
1.27787e-05
1.27787e-05
1.27787e-05
1.27787e-05
1.27787e-05
1.27787e-05
1.27787e-05
1.27787e-05
1.27787e-05
1.27787e-05
1.27787e-05
1.27787e-05
1.27787e-05
1.27787e-05
1.27787e-05
1.27787e-05
1.27787e-05
1.27787e-05
1.27787e-05
1.27787e-05
1.27787e-05
1.27787e-05
1.27787e-05
1.27787e-05
1.27787e-05
1.27787e-05
1.27787e-05
1.27787e-05
1.27787e-05
1.27787e-05
1.27787e-05
1.27787e-05
1.27787e-05
1.27787e-05
1.27787e-05
1.27787e-05
1.27787e-05
1.27787e-05
1.27787e-05
1.27787e-05
1.27787e-05
1.27787e-05
1.27787e-05
1.27787e-05
1.27787e-05
1.27787e-05
1.27787e-05
)
;

boundaryField
{
    inlet
    {
        type            calculated;
        value           nonuniform 0();
    }
    outlet
    {
        type            calculated;
        value           nonuniform 0();
    }
    wall
    {
        type            calculated;
        value           nonuniform 0();
    }
    back
    {