/*--------------------------------*- C++ -*----------------------------------*\
| =========                 |                                                 |
| \\      /  F ield         | OpenFOAM: The Open Source CFD Toolbox           |
|  \\    /   O peration     | Version:                                        |
|   \\  /    A nd           | Website:  www.openfoam.com                      |
|    \\/     M anipulation  |                                                 |
\*---------------------------------------------------------------------------*/
FoamFile
{
    version     2.0;
    format      ascii;
    class       volVectorField;
    location    "71";
    object      U;
}
// * * * * * * * * * * * * * * * * * * * * * * * * * * * * * * * * * * * * * //

dimensions      [0 1 -1 0 0 0 0];


internalField   nonuniform List<vector> 
1250
(
(1.98772 3.68776e-07 1.72823e-13)
(1.98772 3.93945e-07 1.48481e-13)
(1.98772 3.28457e-07 1.21336e-13)
(1.98772 2.59897e-07 1.27568e-13)
(1.98772 1.24196e-07 1.22482e-13)
(1.98772 4.9433e-08 1.0286e-13)
(1.98772 -6.94597e-08 1.28687e-13)
(1.98772 -1.18564e-07 1.12527e-13)
(1.98772 -2.09309e-07 1.03739e-13)
(1.98772 -2.2965e-07 9.88893e-14)
(1.98772 -2.93868e-07 1.05961e-13)
(1.98772 -2.91012e-07 6.7131e-14)
(1.98772 -3.35483e-07 7.20794e-14)
(1.98772 -3.15831e-07 6.96447e-14)
(1.98772 -3.46685e-07 6.54994e-14)
(1.98772 -3.16437e-07 6.11922e-14)
(1.98772 -3.38967e-07 5.70516e-14)
(1.98773 -3.01982e-07 5.29731e-14)
(1.98773 -3.19397e-07 4.91507e-14)
(1.98773 -2.78991e-07 4.6025e-14)
(1.98773 -2.93927e-07 4.26732e-14)
(1.98773 -2.51621e-07 4.00919e-14)
(1.98773 -2.65298e-07 3.74764e-14)
(1.98773 -2.22725e-07 3.46192e-14)
(1.98773 -2.36398e-07 3.23401e-14)
(1.98773 -1.93937e-07 2.99346e-14)
(1.98773 -2.0791e-07 2.88081e-14)
(1.98773 -1.66438e-07 2.78216e-14)
(1.98773 -1.81366e-07 2.67659e-14)
(1.98773 -1.4076e-07 2.57921e-14)
(1.98773 -1.56548e-07 2.62622e-14)
(1.98773 -1.17342e-07 2.72966e-14)
(1.98773 -1.34372e-07 3.01547e-14)
(1.98773 -9.62144e-08 3.51545e-14)
(1.98773 -1.14212e-07 4.2092e-14)
(1.98774 -7.7488e-08 5.31265e-14)
(1.98774 -9.67226e-08 6.88014e-14)
(1.98774 -6.09864e-08 9.07165e-14)
(1.98774 -8.11085e-08 1.20209e-13)
(1.98774 -4.66753e-08 1.5641e-13)
(1.98774 -6.78996e-08 2.00415e-13)
(1.98774 -3.42843e-08 2.47624e-13)
(1.98774 -5.62339e-08 2.92102e-13)
(1.98774 -2.37365e-08 3.25024e-13)
(1.98774 -4.66215e-08 3.37638e-13)
(1.98774 -1.47563e-08 3.25425e-13)
(1.98774 -3.82013e-08 2.88846e-13)
(1.98774 -7.26619e-09 2.35033e-13)
(1.98774 -3.14797e-08 1.73499e-13)
(1.98774 -9.93593e-10 1.12842e-13)
(1.98774 -2.56073e-08 6.16167e-14)
(1.98774 4.118e-09 2.29877e-14)
(1.98774 -2.11209e-08 4.06599e-16)
(1.98774 8.30857e-09 -3.44934e-15)
(1.98774 -1.72006e-08 9.461e-15)
(1.98774 1.16132e-08 4.07018e-14)
(1.98774 -1.4397e-08 8.71529e-14)
(1.98774 1.42555e-08 1.45643e-13)
(1.98774 -1.19121e-08 2.08757e-13)
(1.98774 1.62406e-08 2.67405e-13)
(1.98774 -1.03355e-08 3.12672e-13)
(1.98774 1.77538e-08 3.36202e-13)
(1.98774 -8.90264e-09 3.3252e-13)
(1.98774 1.87763e-08 3.00384e-13)
(1.98774 -8.21762e-09 2.33695e-13)
(1.98774 1.948e-08 1.37582e-13)
(1.98774 -7.531e-09 1.2205e-14)
(1.98774 1.98255e-08 -1.38388e-13)
(1.98774 -7.47472e-09 -3.01442e-13)
(1.98774 1.99606e-08 -4.61164e-13)
(1.98774 -7.31568e-09 -6.04867e-13)
(1.98774 1.9838e-08 -7.30804e-13)
(1.98774 -7.68449e-09 -7.78915e-13)
(1.98774 1.96094e-08 -8.39238e-13)
(1.98774 -7.84561e-09 -8.63678e-13)
(1.98774 1.92227e-08 -8.62203e-13)
(1.98774 -8.44149e-09 -8.37146e-13)
(1.98774 1.88223e-08 -7.92907e-13)
(1.98774 -8.73559e-09 -7.32918e-13)
(1.98774 1.83668e-08 -6.59355e-13)
(1.98774 -9.34765e-09 -5.73382e-13)
(1.98774 1.80271e-08 -4.8423e-13)
(1.98774 -9.51421e-09 -3.39529e-13)
(1.98774 1.77831e-08 -2.32603e-13)
(1.98774 -9.83669e-09 -1.21809e-13)
(1.98774 1.78283e-08 -1.91216e-14)
(1.98774 -9.52136e-09 6.99944e-14)
(1.98774 1.81807e-08 1.45705e-13)
(1.98774 -9.12105e-09 2.09179e-13)
(1.98774 1.90809e-08 2.62159e-13)
(1.98774 -7.79891e-09 3.07339e-13)
(1.98774 2.05851e-08 3.43332e-13)
(1.98774 -6.07035e-09 3.76287e-13)
(1.98774 2.29823e-08 4.02626e-13)
(1.98774 -3.03103e-09 4.14876e-13)
(1.98774 2.64341e-08 4.03514e-13)
(1.98774 9.57776e-10 3.59079e-13)
(1.98774 3.14281e-08 2.78803e-13)
(1.98774 7.0485e-09 1.69112e-13)
(1.98774 3.84453e-08 3.46542e-14)
(1.98774 1.52893e-08 -1.07548e-13)
(1.98774 4.84761e-08 -2.48404e-13)
(1.98774 2.74491e-08 -3.18362e-13)
(1.98774 6.27282e-08 -3.99941e-13)
(1.98774 4.44069e-08 -4.409e-13)
(1.98774 8.3033e-08 -4.47515e-13)
(1.98774 6.8736e-08 -4.22588e-13)
(1.98774 1.11282e-07 -3.69121e-13)
(1.98774 1.0179e-07 -2.94444e-13)
(1.98774 1.49515e-07 -2.06534e-13)
(1.98774 1.45994e-07 -1.18085e-13)
(1.98774 1.9924e-07 -4.63648e-14)
(1.98773 2.02015e-07 5.93478e-14)
(1.98773 2.61474e-07 1.08797e-13)
(1.98773 2.70677e-07 1.51836e-13)
(1.98773 3.35783e-07 1.82797e-13)
(1.98773 3.50213e-07 2.02201e-13)
(1.98773 4.19066e-07 2.13164e-13)
(1.98773 4.347e-07 2.16791e-13)
(1.98773 4.99445e-07 2.14671e-13)
(1.98773 5.04667e-07 2.09005e-13)
(1.98773 5.39217e-07 2.05125e-13)
(1.98772 4.9349e-07 1.97276e-13)
(1.98772 4.49719e-07 1.87217e-13)
(1.98772 4.07517e-07 1.76402e-13)
(1.97963 1.0577e-06 4.55173e-13)
(1.97963 9.97324e-07 4.1823e-13)
(1.97963 8.34855e-07 3.72224e-13)
(1.97963 5.87214e-07 3.68721e-13)
(1.97963 3.01728e-07 3.51096e-13)
(1.97963 5.2947e-08 3.17593e-13)
(1.97963 -1.82334e-07 3.40534e-13)
(1.97963 -3.62348e-07 3.11506e-13)
(1.97963 -5.24137e-07 2.89952e-13)
(1.97963 -6.32358e-07 2.74369e-13)
(1.97963 -7.2895e-07 2.72204e-13)
(1.97963 -7.80169e-07 2.12976e-13)
(1.97963 -8.28138e-07 2.07143e-13)
(1.97963 -8.38857e-07 1.96575e-13)
(1.97963 -8.54138e-07 1.8448e-13)
(1.97963 -8.38768e-07 1.72081e-13)
(1.97963 -8.33235e-07 1.60521e-13)
(1.97964 -8.0159e-07 1.49209e-13)
(1.97964 -7.83951e-07 1.38996e-13)
(1.97964 -7.43463e-07 1.29501e-13)
(1.97964 -7.19242e-07 1.20068e-13)
(1.97964 -6.74175e-07 1.12182e-13)
(1.97964 -6.47341e-07 1.04391e-13)
(1.97964 -6.01142e-07 9.66951e-14)
(1.97964 -5.73916e-07 9.05265e-14)
(1.97964 -5.28123e-07 8.51289e-14)
(1.97964 -5.02237e-07 8.06081e-14)
(1.97964 -4.58454e-07 7.70753e-14)
(1.97964 -4.34621e-07 7.44277e-14)
(1.97964 -3.93138e-07 7.29436e-14)
(1.97964 -3.72068e-07 7.38916e-14)
(1.97964 -3.33642e-07 7.7504e-14)
(1.97964 -3.15362e-07 8.52871e-14)
(1.97964 -2.79723e-07 9.86268e-14)
(1.97964 -2.6449e-07 1.19628e-13)
(1.97964 -2.32025e-07 1.51366e-13)
(1.97964 -2.19564e-07 1.96265e-13)
(1.97964 -1.89753e-07 2.59426e-13)
(1.97965 -1.80118e-07 3.43481e-13)
(1.97965 -1.53179e-07 4.4934e-13)
(1.97965 -1.45969e-07 5.76038e-13)
(1.97965 -1.21293e-07 7.12346e-13)
(1.97965 -1.16499e-07 8.41473e-13)
(1.97965 -9.42614e-08 9.36339e-13)
(1.97965 -9.14547e-08 9.71138e-13)
(1.97965 -7.1026e-08 9.30983e-13)
(1.97965 -7.01823e-08 8.20325e-13)
(1.97965 -5.17347e-08 6.60665e-13)
(1.97965 -5.24376e-08 4.79928e-13)
(1.97965 -3.53637e-08 3.05702e-13)
(1.97965 -3.76184e-08 1.58939e-13)
(1.97965 -2.21236e-08 5.16438e-14)
(1.97965 -2.55438e-08 -9.0191e-15)
(1.97965 -1.10486e-08 -1.80392e-14)
(1.97965 -1.56649e-08 2.3189e-14)
(1.97965 -2.39934e-09 1.14779e-13)
(1.97965 -7.85683e-09 2.51516e-13)
(1.97965 4.72108e-09 4.21592e-13)
(1.97965 -1.64692e-09 6.05522e-13)
(1.97965 9.97334e-09 7.77016e-13)
(1.97965 3.01576e-09 9.05304e-13)
(1.97965 1.41913e-08 9.68431e-13)
(1.97965 6.55029e-09 9.55068e-13)
(1.97965 1.6987e-08 8.59784e-13)
(1.97965 8.95521e-09 6.623e-13)
(1.97965 1.91351e-08 3.84135e-13)
(1.97965 1.05859e-08 1.91853e-14)
(1.97965 2.01835e-08 -4.17274e-13)
(1.97965 1.13852e-08 -8.88577e-13)
(1.97965 2.08675e-08 -1.34793e-12)
(1.97965 1.16829e-08 -1.75325e-12)
(1.97965 2.07161e-08 -2.08434e-12)
(1.97965 1.14045e-08 -2.2638e-12)
(1.97965 2.04454e-08 -2.40877e-12)
(1.97965 1.08585e-08 -2.46999e-12)
(1.97965 1.95646e-08 -2.45855e-12)
(1.97965 9.9628e-09 -2.38188e-12)
(1.97965 1.88007e-08 -2.25095e-12)
(1.97965 9.05192e-09 -2.07677e-12)
(1.97965 1.76997e-08 -1.86457e-12)
(1.97965 8.08334e-09 -1.61476e-12)
(1.97965 1.70263e-08 -1.33576e-12)
(1.97965 7.42932e-09 -9.68693e-13)
(1.97965 1.63683e-08 -6.42735e-13)
(1.97965 7.10341e-09 -3.2326e-13)
(1.97965 1.65653e-08 -3.1478e-14)
(1.97965 7.56842e-09 2.20738e-13)
(1.97965 1.73052e-08 4.32649e-13)
(1.97965 8.94025e-09 6.08783e-13)
(1.97965 1.95252e-08 7.56812e-13)
(1.97965 1.17805e-08 8.84368e-13)
(1.97965 2.30228e-08 9.81986e-13)
(1.97965 1.63407e-08 1.07697e-12)
(1.97965 2.89115e-08 1.15292e-12)
(1.97965 2.34157e-08 1.1886e-12)
(1.97965 3.72991e-08 1.15535e-12)
(1.97965 3.36508e-08 1.02531e-12)
(1.97965 4.97867e-08 7.8731e-13)
(1.97965 4.8458e-08 4.6756e-13)
(1.97965 6.72742e-08 7.49306e-14)
(1.97965 6.94774e-08 -3.34244e-13)
(1.97965 9.25871e-08 -7.15044e-13)
(1.97965 9.95966e-08 -9.61401e-13)
(1.97965 1.28342e-07 -1.16724e-12)
(1.97965 1.42352e-07 -1.27331e-12)
(1.97965 1.79337e-07 -1.2854e-12)
(1.97965 2.02589e-07 -1.20806e-12)
(1.97965 2.49997e-07 -1.04866e-12)
(1.97965 2.85371e-07 -8.27183e-13)
(1.97965 3.46235e-07 -5.71405e-13)
(1.97964 3.96229e-07 -3.13494e-13)
(1.97964 4.72721e-07 -8.61828e-14)
(1.97964 5.3978e-07 1.63966e-13)
(1.97964 6.33969e-07 3.20727e-13)
(1.97964 7.19078e-07 4.42228e-13)
(1.97964 8.30969e-07 5.27567e-13)
(1.97964 9.32449e-07 5.81466e-13)
(1.97964 1.05699e-06 6.0974e-13)
(1.97964 1.16396e-06 6.17309e-13)
(1.97964 1.2832e-06 6.09375e-13)
(1.97964 1.36247e-06 5.91475e-13)
(1.97964 1.41233e-06 5.8274e-13)
(1.97963 1.34229e-06 5.58906e-13)
(1.97963 1.23508e-06 5.2964e-13)
(1.97963 1.10231e-06 4.989e-13)
(1.96081 1.7817e-06 7.05254e-13)
(1.96081 1.5067e-06 6.84027e-13)
(1.96081 1.1617e-06 6.51668e-13)
(1.96081 7.19377e-07 6.21454e-13)
(1.96081 3.08879e-07 5.8825e-13)
(1.96081 -8.36489e-08 5.53736e-13)
(1.96081 -3.94308e-07 5.27601e-13)
(1.96081 -6.72349e-07 4.95677e-13)
(1.96081 -8.69057e-07 4.6406e-13)
(1.96081 -1.04165e-06 4.34114e-13)
(1.96081 -1.14503e-06 4.06638e-13)
(1.96082 -1.23733e-06 3.71699e-13)
(1.96082 -1.27323e-06 3.44943e-13)
(1.96082 -1.31011e-06 3.21439e-13)
(1.96082 -1.30106e-06 2.99562e-13)
(1.96082 -1.30165e-06 2.78779e-13)
(1.96082 -1.26378e-06 2.59397e-13)
(1.96082 -1.24209e-06 2.40985e-13)
(1.96082 -1.18731e-06 2.24543e-13)
(1.96082 -1.15277e-06 2.08893e-13)
(1.96082 -1.08865e-06 1.94426e-13)
(1.96082 -1.0479e-06 1.81004e-13)
(1.96082 -9.80104e-07 1.67974e-13)
(1.96082 -9.37295e-07 1.56495e-13)
(1.96082 -8.68986e-07 1.46228e-13)
(1.96082 -8.27102e-07 1.37765e-13)
(1.96083 -7.60876e-07 1.2999e-13)
(1.96083 -7.21527e-07 1.24261e-13)
(1.96083 -6.58394e-07 1.20358e-13)
(1.96083 -6.22769e-07 1.18934e-13)
(1.96083 -5.63835e-07 1.20621e-13)
(1.96083 -5.32316e-07 1.26928e-13)
(1.96083 -4.77598e-07 1.40216e-13)
(1.96083 -4.5056e-07 1.63055e-13)
(1.96083 -4.00494e-07 1.98485e-13)
(1.96083 -3.77767e-07 2.52084e-13)
(1.96083 -3.31894e-07 3.29603e-13)
(1.96083 -3.13461e-07 4.38582e-13)
(1.96083 -2.71905e-07 5.85412e-13)
(1.96083 -2.57353e-07 7.72898e-13)
(1.96083 -2.19491e-07 9.9847e-13)
(1.96083 -2.08682e-07 1.24446e-12)
(1.96083 -1.74538e-07 1.47669e-12)
(1.96083 -1.66981e-07 1.6419e-12)
(1.96083 -1.35858e-07 1.68741e-12)
(1.96083 -1.31364e-07 1.58537e-12)
(1.96083 -1.03255e-07 1.35419e-12)
(1.96083 -1.01337e-07 1.04409e-12)
(1.96083 -7.55798e-08 7.13592e-13)
(1.96083 -7.60882e-08 4.1042e-13)
(1.96083 -5.27308e-08 1.66897e-13)
(1.96083 -5.52242e-08 -2.37764e-16)
(1.96083 -3.36306e-08 -8.28089e-14)
(1.96083 -3.79897e-08 -7.81962e-14)
(1.96083 -1.82461e-08 1.38458e-14)
(1.96083 -2.40737e-08 1.9136e-13)
(1.96083 -5.61571e-09 4.45633e-13)
(1.96083 -1.28643e-08 7.58195e-13)
(1.96083 4.16454e-09 1.09232e-12)
(1.96083 -4.15312e-09 1.39549e-12)
(1.96083 1.19864e-08 1.60978e-12)
(1.96083 2.62306e-09 1.69591e-12)
(1.96083 1.7704e-08 1.64637e-12)
(1.96083 7.60052e-09 1.47093e-12)
(1.96083 2.21034e-08 1.08342e-12)
(1.96083 1.12237e-08 5.93978e-13)
(1.96083 2.49202e-08 -6.19288e-14)
(1.96083 1.35307e-08 -8.45681e-13)
(1.96083 2.68759e-08 -1.68039e-12)
(1.96083 1.49271e-08 -2.47159e-12)
(1.96083 2.76725e-08 -3.13697e-12)
(1.96083 1.54035e-08 -3.63055e-12)
(1.96083 2.79757e-08 -3.94502e-12)
(1.96083 1.52987e-08 -4.12264e-12)
(1.96083 2.74256e-08 -4.17968e-12)
(1.96083 1.45807e-08 -4.12256e-12)
(1.96083 2.67073e-08 -3.95883e-12)
(1.96083 1.36351e-08 -3.70975e-12)
(1.96083 2.55251e-08 -3.39887e-12)
(1.96083 1.24827e-08 -3.03087e-12)
(1.96083 2.45871e-08 -2.59364e-12)
(1.96083 1.15269e-08 -2.08075e-12)
(1.96083 2.36245e-08 -1.50426e-12)
(1.96083 1.08435e-08 -9.23388e-13)
(1.96083 2.34395e-08 -3.77991e-13)
(1.96083 1.09633e-08 1.02738e-13)
(1.96083 2.39037e-08 5.06174e-13)
(1.96083 1.20974e-08 8.35652e-13)
(1.96083 2.59504e-08 1.1047e-12)
(1.96083 1.49086e-08 1.33245e-12)
(1.96083 2.96083e-08 1.54278e-12)
(1.96083 1.98147e-08 1.66862e-12)
(1.96083 3.60876e-08 1.83834e-12)
(1.96083 2.78354e-08 1.97423e-12)
(1.96083 4.58538e-08 2.04034e-12)
(1.96083 3.99164e-08 1.9803e-12)
(1.96083 6.07295e-08 1.73495e-12)
(1.96083 5.77978e-08 1.27228e-12)
(1.96083 8.20832e-08 7.0037e-13)
(1.96083 8.35608e-08 -2.88814e-14)
(1.96083 1.13142e-07 -7.50931e-13)
(1.96083 1.20673e-07 -1.37143e-12)
(1.96083 1.5731e-07 -1.8226e-12)
(1.96083 1.73545e-07 -2.10778e-12)
(1.96083 2.20395e-07 -2.2347e-12)
(1.96083 2.48465e-07 -2.21199e-12)
(1.96083 3.08844e-07 -2.03907e-12)
(1.96083 3.5304e-07 -1.72516e-12)
(1.96083 4.31761e-07 -1.30681e-12)
(1.96083 4.96867e-07 -8.40972e-13)
(1.96083 5.98859e-07 -3.84664e-13)
(1.96083 6.90383e-07 2.23377e-14)
(1.96083 8.21185e-07 3.66405e-13)
(1.96083 9.43834e-07 6.26637e-13)
(1.96083 1.1073e-06 8.1299e-13)
(1.96083 1.26324e-06 9.35806e-13)
(1.96083 1.45799e-06 1.00706e-12)
(1.96082 1.64062e-06 1.03804e-12)
(1.96082 1.85206e-06 1.03809e-12)
(1.96082 2.03629e-06 1.01316e-12)
(1.96082 2.21484e-06 9.63366e-13)
(1.96082 2.31015e-06 9.73103e-13)
(1.96082 2.28885e-06 9.18877e-13)
(1.96082 2.15697e-06 8.65291e-13)
(1.96082 1.94647e-06 8.12807e-13)
(1.9318 2.50318e-06 9.87604e-13)
(1.9318 1.95088e-06 9.53061e-13)
(1.9318 1.34564e-06 9.08503e-13)
(1.9318 7.31069e-07 8.60281e-13)
(1.9318 1.74236e-07 8.10333e-13)
(1.9318 -3.11056e-07 7.60917e-13)
(1.9318 -7.07721e-07 7.1408e-13)
(1.9318 -1.0304e-06 6.68246e-13)
(1.9318 -1.27529e-06 6.23899e-13)
(1.9318 -1.46308e-06 5.81839e-13)
(1.9318 -1.59189e-06 5.42094e-13)
(1.9318 -1.68208e-06 5.03081e-13)
(1.9318 -1.73019e-06 4.67374e-13)
(1.9318 -1.75435e-06 4.34384e-13)
(1.9318 -1.74887e-06 4.03875e-13)
(1.93181 -1.73004e-06 3.75551e-13)
(1.93181 -1.69055e-06 3.49084e-13)
(1.93181 -1.64509e-06 3.2437e-13)
(1.93181 -1.58506e-06 3.01635e-13)
(1.93181 -1.52421e-06 2.80706e-13)
(1.93181 -1.45316e-06 2.61052e-13)
(1.93181 -1.38479e-06 2.43133e-13)
(1.93181 -1.30905e-06 2.26174e-13)
(1.93181 -1.23838e-06 2.10905e-13)
(1.93181 -1.16241e-06 1.97385e-13)
(1.93181 -1.09305e-06 1.85906e-13)
(1.93181 -1.01958e-06 1.75555e-13)
(1.93181 -9.53686e-07 1.67595e-13)
(1.93181 -8.84546e-07 1.62863e-13)
(1.93181 -8.23532e-07 1.61226e-13)
(1.93181 -7.59593e-07 1.64278e-13)
(1.93181 -7.0407e-07 1.73931e-13)
(1.93181 -6.4592e-07 1.93437e-13)
(1.93181 -5.96255e-07 2.26193e-13)
(1.93181 -5.43896e-07 2.77478e-13)
(1.93181 -4.9998e-07 3.55698e-13)
(1.93181 -4.53377e-07 4.69693e-13)
(1.93181 -4.15067e-07 6.32006e-13)
(1.93181 -3.73826e-07 8.54505e-13)
(1.93182 -3.40704e-07 1.1453e-12)
(1.93182 -3.04581e-07 1.50218e-12)
(1.93182 -2.76345e-07 1.89979e-12)
(1.93182 -2.44804e-07 2.27598e-12)
(1.93182 -2.2092e-07 2.53091e-12)
(1.93182 -1.93612e-07 2.55843e-12)
(1.93182 -1.7371e-07 2.31352e-12)
(1.93182 -1.50065e-07 1.85788e-12)
(1.93182 -1.3363e-07 1.30996e-12)
(1.93182 -1.13345e-07 7.7719e-13)
(1.93182 -1.00054e-07 3.29537e-13)
(1.93182 -8.26289e-08 5.30272e-16)
(1.93182 -7.20192e-08 -1.99404e-13)
(1.93182 -5.7182e-08 -2.70181e-13)
(1.93182 -4.89763e-08 -2.13382e-13)
(1.93182 -3.62858e-08 -3.07129e-14)
(1.93182 -3.00844e-08 2.77048e-13)
(1.93182 -1.93706e-08 7.01585e-13)
(1.93182 -1.49914e-08 1.21526e-12)
(1.93182 -5.87492e-09 1.75727e-12)
(1.93182 -2.96562e-09 2.23068e-12)
(1.93182 4.70087e-09 2.52613e-12)
(1.93182 6.29179e-09 2.58524e-12)
(1.93182 1.28488e-08 2.42966e-12)
(1.93182 1.34009e-08 2.10462e-12)
(1.93182 1.89115e-08 1.51989e-12)
(1.93182 1.85021e-08 7.41424e-13)
(1.93182 2.32348e-08 -3.15403e-13)
(1.93182 2.20999e-08 -1.57367e-12)
(1.93182 2.60827e-08 -2.87972e-12)
(1.93182 2.42771e-08 -4.05975e-12)
(1.93182 2.77385e-08 -4.97173e-12)
(1.93182 2.54511e-08 -5.56227e-12)
(1.93182 2.83802e-08 -5.88247e-12)
(1.93182 2.56107e-08 -6.02121e-12)
(1.93182 2.82101e-08 -6.01769e-12)
(1.93182 2.51604e-08 -5.85908e-12)
(1.93182 2.74434e-08 -5.54294e-12)
(1.93182 2.4149e-08 -5.1182e-12)
(1.93182 2.63621e-08 -4.6393e-12)
(1.93182 2.30299e-08 -4.10257e-12)
(1.93182 2.51851e-08 -3.45477e-12)
(1.93182 2.18666e-08 -2.6668e-12)
(1.93182 2.42327e-08 -1.78812e-12)
(1.93182 2.11906e-08 -9.17687e-13)
(1.93182 2.38491e-08 -1.36476e-13)
(1.93182 2.12246e-08 5.15456e-13)
(1.93182 2.4521e-08 1.03302e-12)
(1.93182 2.26537e-08 1.43525e-12)
(1.93182 2.67611e-08 1.75299e-12)
(1.93182 2.58918e-08 2.02109e-12)
(1.93182 3.12951e-08 2.2761e-12)
(1.93182 3.19418e-08 2.46161e-12)
(1.93182 3.9052e-08 2.70481e-12)
(1.93182 4.17318e-08 2.91852e-12)
(1.93182 5.13533e-08 3.03615e-12)
(1.93182 5.69748e-08 2.94809e-12)
(1.93182 6.99487e-08 2.53516e-12)
(1.93182 7.954e-08 1.74434e-12)
(1.93182 9.73153e-08 7.29524e-13)
(1.93182 1.12573e-07 -4.6389e-13)
(1.93182 1.36965e-07 -1.58163e-12)
(1.93182 1.601e-07 -2.46123e-12)
(1.93182 1.93904e-07 -3.02762e-12)
(1.93182 2.28175e-07 -3.31377e-12)
(1.93182 2.74978e-07 -3.38571e-12)
(1.93182 3.24636e-07 -3.26415e-12)
(1.93182 3.89563e-07 -2.92313e-12)
(1.93182 4.60468e-07 -2.35936e-12)
(1.93182 5.50004e-07 -1.64605e-12)
(1.93181 6.49476e-07 -8.98325e-13)
(1.93181 7.71771e-07 -2.12388e-13)
(1.93181 9.08318e-07 3.58727e-13)
(1.93181 1.07198e-06 7.9931e-13)
(1.93181 1.25388e-06 1.11395e-12)
(1.93181 1.46573e-06 1.32099e-12)
(1.93181 1.69696e-06 1.44259e-12)
(1.93181 1.95684e-06 1.49912e-12)
(1.93181 2.23167e-06 1.50787e-12)
(1.93181 2.52461e-06 1.48141e-12)
(1.93181 2.81379e-06 1.42898e-12)
(1.93181 3.08303e-06 1.35195e-12)
(1.93181 3.28216e-06 1.33364e-12)
(1.9318 3.34475e-06 1.25371e-12)
(1.9318 3.23028e-06 1.17665e-12)
(1.9318 2.93211e-06 1.10267e-12)
(1.8927 3.14467e-06 1.27759e-12)
(1.8927 2.28873e-06 1.21511e-12)
(1.8927 1.43214e-06 1.14683e-12)
(1.8927 6.5e-07 1.0777e-12)
(1.8927 -2.58269e-08 1.00922e-12)
(1.8927 -5.90623e-07 9.42972e-13)
(1.8927 -1.04393e-06 8.79766e-13)
(1.8927 -1.39963e-06 8.19995e-13)
(1.8927 -1.66701e-06 7.63448e-13)
(1.8927 -1.86351e-06 7.10459e-13)
(1.8927 -1.99783e-06 6.61261e-13)
(1.8927 -2.08476e-06 6.14523e-13)
(1.8927 -2.12969e-06 5.71181e-13)
(1.8927 -2.14427e-06 5.30332e-13)
(1.8927 -2.13101e-06 4.92626e-13)
(1.8927 -2.09901e-06 4.57726e-13)
(1.8927 -2.04878e-06 4.2544e-13)
(1.8927 -1.98787e-06 3.95688e-13)
(1.8927 -1.91546e-06 3.6779e-13)
(1.8927 -1.83792e-06 3.42416e-13)
(1.89271 -1.75346e-06 3.18675e-13)
(1.89271 -1.66779e-06 2.96481e-13)
(1.89271 -1.57852e-06 2.76265e-13)
(1.89271 -1.49066e-06 2.57653e-13)
(1.89271 -1.40136e-06 2.41479e-13)
(1.89271 -1.31529e-06 2.27084e-13)
(1.89271 -1.22929e-06 2.15104e-13)
(1.89271 -1.14759e-06 2.05712e-13)
(1.89271 -1.06677e-06 2.00018e-13)
(1.89271 -9.90953e-07 1.98553e-13)
(1.89271 -9.16556e-07 2.03402e-13)
(1.89271 -8.47446e-07 2.16965e-13)
(1.89271 -7.79915e-07 2.42857e-13)
(1.89271 -7.17805e-07 2.86407e-13)
(1.89271 -6.57354e-07 3.55144e-13)
(1.89271 -6.02224e-07 4.60295e-13)
(1.89271 -5.48572e-07 6.1619e-13)
(1.89271 -5.00123e-07 8.41826e-13)
(1.89271 -4.53023e-07 1.15846e-12)
(1.89271 -4.10867e-07 1.58547e-12)
(1.89271 -3.69788e-07 2.12836e-12)
(1.89271 -3.33428e-07 2.75428e-12)
(1.89271 -2.97953e-07 3.36151e-12)
(1.89271 -2.66872e-07 3.75427e-12)
(1.89271 -2.36353e-07 3.70038e-12)
(1.89271 -2.09982e-07 3.1276e-12)
(1.89271 -1.83962e-07 2.23601e-12)
(1.89271 -1.61805e-07 1.30692e-12)
(1.89271 -1.3969e-07 5.17912e-13)
(1.89271 -1.21238e-07 -6.30952e-14)
(1.89271 -1.02653e-07 -4.30965e-13)
(1.89271 -8.74681e-08 -6.03883e-13)
(1.89271 -7.18658e-08 -6.0201e-13)
(1.89271 -5.95008e-08 -4.35753e-13)
(1.89271 -4.65821e-08 -1.0536e-13)
(1.89271 -3.66792e-08 3.95747e-13)
(1.89271 -2.60105e-08 1.06728e-12)
(1.89271 -1.82223e-08 1.87866e-12)
(1.89271 -9.57589e-09 2.73509e-12)
(1.89271 -3.60681e-09 3.45087e-12)
(1.89271 3.41808e-09 3.79973e-12)
(1.89271 7.87235e-09 3.69901e-12)
(1.89271 1.34568e-08 3.2952e-12)
(1.89271 1.6607e-08 2.73892e-12)
(1.89271 2.10544e-08 1.96957e-12)
(1.89271 2.31151e-08 8.05129e-13)
(1.89271 2.65172e-08 -8.53622e-13)
(1.89271 2.76471e-08 -2.82534e-12)
(1.89271 3.02637e-08 -4.78842e-12)
(1.89271 3.06514e-08 -6.43292e-12)
(1.89271 3.25244e-08 -7.51563e-12)
(1.89271 3.22678e-08 -8.0023e-12)
(1.89271 3.36044e-08 -8.11692e-12)
(1.89271 3.28253e-08 -8.1005e-12)
(1.89271 3.3641e-08 -7.99176e-12)
(1.89271 3.24535e-08 -7.66882e-12)
(1.89271 3.29843e-08 -7.08197e-12)
(1.89271 3.1549e-08 -6.38178e-12)
(1.89271 3.18561e-08 -5.71812e-12)
(1.89271 3.02902e-08 -5.04391e-12)
(1.89271 3.06112e-08 -4.16581e-12)
(1.89271 2.90913e-08 -2.99002e-12)
(1.89271 2.95091e-08 -1.67041e-12)
(1.89271 2.82188e-08 -4.38592e-13)
(1.89271 2.90541e-08 5.73608e-13)
(1.89271 2.82786e-08 1.33908e-12)
(1.89271 2.97057e-08 1.89049e-12)
(1.89271 2.97209e-08 2.28398e-12)
(1.89271 3.21676e-08 2.57985e-12)
(1.89271 3.33781e-08 2.83272e-12)
(1.89271 3.71998e-08 3.08831e-12)
(1.89271 4.01141e-08 3.36966e-12)
(1.89271 4.60451e-08 3.7034e-12)
(1.89271 5.14085e-08 4.04625e-12)
(1.89271 6.01829e-08 4.2797e-12)
(1.89271 6.89581e-08 4.18616e-12)
(1.89271 8.18146e-08 3.50782e-12)
(1.89271 9.53603e-08 2.1599e-12)
(1.89271 1.13809e-07 3.69602e-13)
(1.89271 1.34021e-07 -1.5169e-12)
(1.89271 1.6044e-07 -3.14781e-12)
(1.89271 1.90052e-07 -4.24394e-12)
(1.89271 2.27546e-07 -4.74066e-12)
(1.89271 2.70353e-07 -4.83465e-12)
(1.89271 3.23524e-07 -4.73825e-12)
(1.89271 3.84887e-07 -4.46204e-12)
(1.89271 4.59927e-07 -3.86017e-12)
(1.89271 5.47199e-07 -2.87621e-12)
(1.89271 6.52732e-07 -1.69147e-12)
(1.89271 7.75552e-07 -5.58162e-13)
(1.89271 9.22091e-07 3.75766e-13)
(1.89271 1.09184e-06 1.06895e-12)
(1.89271 1.29124e-06 1.5414e-12)
(1.89271 1.51897e-06 1.83495e-12)
(1.89271 1.78027e-06 1.99436e-12)
(1.89271 2.07237e-06 2.05809e-12)
(1.89271 2.39816e-06 2.05539e-12)
(1.89271 2.75129e-06 2.00886e-12)
(1.89271 3.12855e-06 1.93433e-12)
(1.8927 3.51391e-06 1.84223e-12)
(1.8927 3.88366e-06 1.74208e-12)
(1.8927 4.18805e-06 1.64959e-12)
(1.8927 4.34598e-06 1.55057e-12)
(1.8927 4.25861e-06 1.45192e-12)
(1.8927 3.85158e-06 1.35684e-12)
(1.84354 3.64086e-06 1.55012e-12)
(1.84354 2.53064e-06 1.45142e-12)
(1.84354 1.46781e-06 1.35468e-12)
(1.84354 5.46931e-07 1.26216e-12)
(1.84354 -2.23361e-07 1.17457e-12)
(1.84354 -8.50778e-07 1.0919e-12)
(1.84354 -1.34403e-06 1.01464e-12)
(1.84354 -1.72219e-06 9.42388e-13)
(1.84354 -2.00093e-06 8.75383e-13)
(1.84354 -2.20027e-06 8.13315e-13)
(1.84354 -2.33278e-06 7.55612e-13)
(1.84354 -2.41377e-06 7.02441e-13)
(1.84354 -2.45116e-06 6.52529e-13)
(1.84354 -2.45606e-06 6.06455e-13)
(1.84354 -2.43269e-06 5.63384e-13)
(1.84354 -2.38916e-06 5.23149e-13)
(1.84354 -2.32752e-06 4.86305e-13)
(1.84354 -2.25422e-06 4.52099e-13)
(1.84354 -2.16974e-06 4.20574e-13)
(1.84355 -2.07929e-06 3.91458e-13)
(1.84355 -1.98253e-06 3.64361e-13)
(1.84355 -1.88398e-06 3.3897e-13)
(1.84355 -1.78255e-06 3.1608e-13)
(1.84355 -1.68206e-06 2.9527e-13)
(1.84355 -1.58106e-06 2.76853e-13)
(1.84355 -1.48302e-06 2.60894e-13)
(1.84355 -1.38601e-06 2.47176e-13)
(1.84355 -1.29305e-06 2.37198e-13)
(1.84355 -1.20207e-06 2.31049e-13)
(1.84355 -1.11596e-06 2.30313e-13)
(1.84355 -1.03234e-06 2.37142e-13)
(1.84355 -9.53838e-07 2.54775e-13)
(1.84355 -8.78056e-07 2.87439e-13)
(1.84355 -8.07593e-07 3.42105e-13)
(1.84355 -7.39847e-07 4.29079e-13)
(1.84355 -6.77228e-07 5.62968e-13)
(1.84355 -6.1719e-07 7.64744e-13)
(1.84355 -5.62203e-07 1.06322e-12)
(1.84355 -5.09575e-07 1.49554e-12)
(1.84355 -4.61639e-07 2.10284e-12)
(1.84355 -4.15808e-07 2.91466e-12)
(1.84355 -3.74481e-07 3.90971e-12)
(1.84355 -3.3496e-07 4.9356e-12)
(1.84355 -2.99514e-07 5.60455e-12)
(1.84355 -2.6557e-07 5.32984e-12)
(1.84355 -2.35495e-07 3.97747e-12)
(1.84355 -2.06618e-07 2.21757e-12)
(1.84355 -1.81215e-07 7.24405e-13)
(1.84355 -1.56733e-07 -3.08668e-13)
(1.84355 -1.35562e-07 -9.20174e-13)
(1.84355 -1.15042e-07 -1.20404e-12)
(1.84355 -9.74653e-08 -1.24e-12)
(1.84355 -8.02955e-08 -1.07667e-12)
(1.84355 -6.5951e-08 -7.3e-13)
(1.84355 -5.17925e-08 -1.87511e-13)
(1.84355 -4.01493e-08 5.80255e-13)
(1.84355 -2.85115e-08 1.60274e-12)
(1.84355 -1.93063e-08 2.86818e-12)
(1.84355 -9.9273e-09 4.24285e-12)
(1.84355 -2.69188e-09 5.36433e-12)
(1.84355 4.8746e-09 5.67259e-12)
(1.84355 1.03454e-08 5.04343e-12)
(1.84355 1.62905e-08 4.09785e-12)
(1.84355 2.03684e-08 3.31844e-12)
(1.84355 2.50342e-08 2.45912e-12)
(1.84355 2.78249e-08 8.36952e-13)
(1.84355 3.13168e-08 -1.83566e-12)
(1.84355 3.31357e-08 -4.9896e-12)
(1.84355 3.57461e-08 -7.90648e-12)
(1.84355 3.6656e-08 -1.01018e-11)
(1.84355 3.84282e-08 -1.11158e-11)
(1.84355 3.86715e-08 -1.09816e-11)
(1.84355 3.9829e-08 -1.04752e-11)
(1.84355 3.94112e-08 -1.02219e-11)
(1.84355 3.99814e-08 -1.01116e-11)
(1.84355 3.91617e-08 -9.58508e-12)
(1.84355 3.94006e-08 -8.45156e-12)
(1.84355 3.8219e-08 -7.27306e-12)
(1.84355 3.81795e-08 -6.50337e-12)
(1.84355 3.68989e-08 -5.89819e-12)
(1.84355 3.68448e-08 -4.79459e-12)
(1.84355 3.55247e-08 -2.93143e-12)
(1.84355 3.55496e-08 -8.66685e-13)
(1.84355 3.45321e-08 8.10544e-13)
(1.84355 3.49941e-08 1.96927e-12)
(1.84355 3.44461e-08 2.69505e-12)
(1.84355 3.55378e-08 3.12382e-12)
(1.84355 3.59052e-08 3.37868e-12)
(1.84355 3.81021e-08 3.55709e-12)
(1.84355 3.97023e-08 3.73609e-12)
(1.84355 4.34119e-08 3.97808e-12)
(1.84355 4.69635e-08 4.33313e-12)
(1.84355 5.30009e-08 4.82931e-12)
(1.84355 5.92006e-08 5.42892e-12)
(1.84355 6.83959e-08 5.95079e-12)
(1.84355 7.84499e-08 5.96501e-12)
(1.84355 9.21853e-08 4.83391e-12)
(1.84355 1.07498e-07 2.37919e-12)
(1.84355 1.27484e-07 -7.28487e-13)
(1.84355 1.50328e-07 -3.6976e-12)
(1.84355 1.79241e-07 -5.98913e-12)
(1.84355 2.12566e-07 -7.10212e-12)
(1.84355 2.53949e-07 -7.03587e-12)
(1.84355 3.02237e-07 -6.53398e-12)
(1.84355 3.61404e-07 -6.18627e-12)
(1.84355 4.30764e-07 -5.84126e-12)
(1.84355 5.15014e-07 -4.89682e-12)
(1.84355 6.14286e-07 -3.13175e-12)
(1.84355 7.33825e-07 -1.13053e-12)
(1.84355 8.74358e-07 5.00898e-13)
(1.84355 1.04185e-06 1.6172e-12)
(1.84355 1.23747e-06 2.29222e-12)
(1.84355 1.46688e-06 2.64935e-12)
(1.84355 1.73048e-06 2.79641e-12)
(1.84355 2.033e-06 2.81183e-12)
(1.84355 2.37328e-06 2.74836e-12)
(1.84355 2.7537e-06 2.63937e-12)
(1.84355 3.16988e-06 2.50615e-12)
(1.84355 3.61812e-06 2.36213e-12)
(1.84354 4.08287e-06 2.21524e-12)
(1.84354 4.53859e-06 2.07119e-12)
(1.84354 4.9308e-06 1.93442e-12)
(1.84354 5.1636e-06 1.80412e-12)
(1.84354 5.09274e-06 1.68084e-12)
(1.84354 4.58207e-06 1.56495e-12)
(1.78433 3.95335e-06 1.77397e-12)
(1.78433 2.67585e-06 1.63855e-12)
(1.78433 1.47664e-06 1.51423e-12)
(1.78433 4.62222e-07 1.40023e-12)
(1.78433 -3.72958e-07 1.29578e-12)
(1.78433 -1.04301e-06 1.19954e-12)
(1.78433 -1.5632e-06 1.11123e-12)
(1.78433 -1.95569e-06 1.02984e-12)
(1.78433 -2.24109e-06 9.55128e-13)
(1.78434 -2.44071e-06 8.86204e-13)
(1.78434 -2.57032e-06 8.22702e-13)
(1.78434 -2.64537e-06 7.64263e-13)
(1.78434 -2.67599e-06 7.09925e-13)
(1.78434 -2.67245e-06 6.59555e-13)
(1.78434 -2.64064e-06 6.12931e-13)
(1.78434 -2.5877e-06 5.6976e-13)
(1.78434 -2.51717e-06 5.29536e-13)
(1.78434 -2.43415e-06 4.92261e-13)
(1.78434 -2.34054e-06 4.58088e-13)
(1.78434 -2.24035e-06 4.2627e-13)
(1.78434 -2.13469e-06 3.96869e-13)
(1.78434 -2.02665e-06 3.69629e-13)
(1.78434 -1.91653e-06 3.44743e-13)
(1.78434 -1.80696e-06 3.22202e-13)
(1.78434 -1.69786e-06 3.02506e-13)
(1.78434 -1.59131e-06 2.85375e-13)
(1.78434 -1.48669e-06 2.71028e-13)
(1.78434 -1.38587e-06 2.60346e-13)
(1.78434 -1.28808e-06 2.5449e-13)
(1.78434 -1.19483e-06 2.55083e-13)
(1.78434 -1.10504e-06 2.64225e-13)
(1.78434 -1.02012e-06 2.86133e-13)
(1.78434 -9.38996e-07 3.25653e-13)
(1.78434 -8.62838e-07 3.91222e-13)
(1.78434 -7.90332e-07 4.95595e-13)
(1.78434 -7.22676e-07 6.57715e-13)
(1.78434 -6.58631e-07 9.06072e-13)
(1.78434 -5.99238e-07 1.28217e-12)
(1.78434 -5.43097e-07 1.84658e-12)
(1.78434 -4.91318e-07 2.67952e-12)
(1.78434 -4.42619e-07 3.87206e-12)
(1.78434 -3.97966e-07 5.47504e-12)
(1.78434 -3.55938e-07 7.34189e-12)
(1.78434 -3.17607e-07 8.74904e-12)
(1.78434 -2.81677e-07 7.9472e-12)
(1.78434 -2.49121e-07 4.57559e-12)
(1.78434 -2.18523e-07 1.05367e-12)
(1.78434 -1.90977e-07 -1.04043e-12)
(1.78434 -1.65213e-07 -2.02737e-12)
(1.78434 -1.42206e-07 -2.35617e-12)
(1.78434 -1.20571e-07 -2.31627e-12)
(1.78434 -1.01393e-07 -2.05594e-12)
(1.78434 -8.34523e-08 -1.63163e-12)
(1.78434 -6.77377e-08 -1.041e-12)
(1.78434 -5.29059e-08 -2.38032e-13)
(1.78434 -4.00798e-08 8.58782e-13)
(1.78434 -2.80453e-08 2.35168e-12)
(1.78434 -1.78234e-08 4.31425e-12)
(1.78434 -8.0823e-09 6.63468e-12)
(1.78434 4.48064e-11 8.63953e-12)
(1.78434 7.75052e-09 8.64503e-12)
(1.78434 1.39892e-08 6.35808e-12)
(1.78434 2.00693e-08 4.21418e-12)
(1.78434 2.48281e-08 3.59243e-12)
(1.78434 2.9423e-08 3.37261e-12)
(1.78434 3.28026e-08 1.25304e-12)
(1.78434 3.62589e-08 -3.54415e-12)
(1.78434 3.86125e-08 -8.85371e-12)
(1.78434 4.10158e-08 -1.3089e-11)
(1.78434 4.23883e-08 -1.59646e-11)
(1.78434 4.39945e-08 -1.63018e-11)
(1.78434 4.46459e-08 -1.41607e-11)
(1.78434 4.54791e-08 -1.22103e-11)
(1.78434 4.54083e-08 -1.20083e-11)
(1.78434 4.57283e-08 -1.26068e-11)
(1.78434 4.52259e-08 -1.18982e-11)
(1.78434 4.50715e-08 -9.31537e-12)
(1.78434 4.41624e-08 -7.1592e-12)
(1.78434 4.37935e-08 -6.76878e-12)
(1.78434 4.27647e-08 -7.04742e-12)
(1.78434 4.22419e-08 -5.76316e-12)
(1.78434 4.1153e-08 -2.2369e-12)
(1.78434 4.08072e-08 1.29145e-12)
(1.78434 4.0033e-08 3.34168e-12)
(1.78434 4.00209e-08 4.2904e-12)
(1.78434 3.97175e-08 4.6248e-12)
(1.78434 4.04707e-08 4.66932e-12)
(1.78434 4.11183e-08 4.61359e-12)
(1.78434 4.29202e-08 4.57115e-12)
(1.78434 4.48622e-08 4.62154e-12)
(1.78434 4.83785e-08 4.83547e-12)
(1.78434 5.2399e-08 5.28802e-12)
(1.78434 5.82653e-08 6.05185e-12)
(1.78434 6.5079e-08 7.14657e-12)
(1.78434 7.44068e-08 8.37673e-12)