/*--------------------------------*- C++ -*----------------------------------*\
| =========                 |                                                 |
| \\      /  F ield         | OpenFOAM: The Open Source CFD Toolbox           |
|  \\    /   O peration     | Version:                                        |
|   \\  /    A nd           | Website:  www.openfoam.com                      |
|    \\/     M anipulation  |                                                 |
\*---------------------------------------------------------------------------*/
FoamFile
{
    version     2.0;
    format      ascii;
    class       volVectorField;
    location    "191";
    object      U;
}
// * * * * * * * * * * * * * * * * * * * * * * * * * * * * * * * * * * * * * //

dimensions      [0 1 -1 0 0 0 0];


internalField   nonuniform List<vector> 
1136
(
(0.421311 -0.0194096 3.4696e-23)
(0.361305 0.390737 1.13528e-21)
(0.505199 0.653636 -2.51586e-21)
(0.536181 0.827704 -6.78485e-23)
(0.613989 0.746701 2.03888e-21)
(0.550586 0.917473 -9.9614e-22)
(0.529692 0.765961 7.65087e-22)
(0.35755 0.425741 -2.41241e-21)
(0.503822 0.051092 1.76042e-21)
(0.616549 -0.474794 4.70842e-22)
(0.593005 -0.486216 -1.89115e-21)
(0.673836 -0.73857 2.02694e-21)
(0.5821 -0.753884 -9.40958e-22)
(0.518497 -0.383814 1.04665e-21)
(0.60137 -0.318724 -8.00425e-22)
(0.76062 0.272789 -1.97368e-23)
(0.726469 0.502481 -2.29433e-22)
(0.728779 0.575417 3.69524e-22)
(0.747617 0.774812 4.51588e-22)
(0.847478 0.144719 -3.45293e-22)
(0.887062 -0.203782 -2.23066e-22)
(0.956619 -0.495361 -8.53916e-23)
(0.9672 -0.879602 -3.89778e-22)
(0.942875 -0.269269 1.41486e-23)
(0.983731 0.160393 -3.43009e-23)
(1.02228 0.427945 -1.05196e-23)
(1.03554 0.834774 -2.06824e-22)
(1.01966 0.0266833 3.20092e-22)
(1.09023 -0.639706 8.9375e-23)
(1.00037 -0.240209 -2.14251e-23)
(0.333885 -0.0301064 9.3616e-21)
(0.287141 0.333258 -1.73322e-20)
(0.45772 0.599047 4.89833e-21)
(0.523986 0.808086 -2.8778e-21)
(0.623175 0.761214 3.65751e-22)
(0.542253 0.943424 8.94447e-21)
(0.598746 0.796092 -1.14258e-20)
(0.468761 0.429619 -2.1159e-22)
(0.567578 0.0182104 1.07512e-20)
(0.703574 -0.497654 -4.27797e-21)
(0.649201 -0.528956 -7.58267e-22)
(0.754095 -0.733441 -9.13382e-22)
(0.591709 -0.760298 -1.56995e-21)
(0.551261 -0.418594 -3.78439e-21)
(0.613988 -0.378407 3.42457e-21)
(0.732704 0.234632 1.00723e-22)
(0.716339 0.503958 3.87814e-23)
(0.687145 0.588984 1.13405e-21)
(0.719749 0.768071 -3.36261e-21)
(0.862629 0.126148 1.23001e-21)
(0.899499 -0.224721 4.29417e-22)
(0.993523 -0.503356 1.26839e-22)
(1.00131 -0.867491 -2.93086e-22)
(0.944475 -0.271457 -1.70378e-22)
(0.977479 0.146365 1.63608e-21)
(1.00133 0.418985 -7.41792e-22)
(1.0011 0.838096 5.98727e-22)
(1.01365 0.0199525 -9.67795e-23)
(1.10061 -0.639606 1.2328e-22)
(1.00056 -0.237534 5.69781e-23)
(0.298248 -0.0389749 -1.183e-20)
(0.265529 0.275931 1.01925e-20)
(0.432316 0.514418 -2.51848e-21)
(0.554049 0.760269 1.8292e-21)
(0.652672 0.742954 1.02933e-20)
(0.575556 0.941331 4.60183e-21)
(0.687971 0.879342 -3.43672e-20)
(0.618919 0.482523 -1.26353e-21)
(0.656505 0.00281963 3.66058e-22)
(0.820182 -0.514868 1.57433e-20)
(0.716818 -0.539751 9.46277e-21)
(0.81005 -0.688427 -2.0573e-21)
(0.587398 -0.715711 -1.23966e-21)
(0.575317 -0.397834 -5.47277e-21)
(0.625861 -0.389486 1.47561e-21)
(0.686872 0.244994 8.57178e-21)
(0.715173 0.501858 -7.97934e-21)
(0.669316 0.569937 1.43906e-21)
(0.70874 0.734987 3.63224e-22)
(0.881674 0.111812 3.91331e-21)
(0.910712 -0.242552 -3.97923e-21)
(1.01983 -0.521073 1.84323e-21)
(1.02575 -0.866668 1.59117e-21)
(0.941193 -0.268284 1.80448e-21)
(0.974213 0.142002 -1.97499e-21)
(0.983595 0.412733 -4.45343e-22)
(0.969471 0.836112 -2.92329e-23)
(1.01308 0.011767 -9.43962e-22)
(1.10844 -0.634351 2.45075e-22)
(0.996916 -0.22991 -1.37722e-23)
(0.290184 -0.0675251 1.96397e-21)
(0.306295 0.225618 1.67547e-20)
(0.417462 0.408104 -3.46796e-21)
(0.569125 0.71497 -6.52778e-21)
(0.709138 0.748259 2.16423e-21)
(0.626569 0.934202 -2.80349e-21)
(0.748919 0.87107 2.6417e-20)
(0.772324 0.479034 -1.04537e-20)
(0.769328 -0.00123429 -4.00143e-21)
(0.922381 -0.519693 -1.99408e-20)
(0.812722 -0.570902 -2.24116e-21)
(0.903846 -0.661962 2.41654e-20)
(0.627727 -0.716434 -1.43609e-20)
(0.62707 -0.435877 1.69918e-21)
(0.662765 -0.435983 -6.14397e-22)
(0.676471 0.190714 -1.83857e-21)
(0.72031 0.496417 6.43215e-21)
(0.643034 0.587354 -1.67705e-21)
(0.691213 0.725589 -3.19876e-21)
(0.898938 0.101858 3.99422e-21)
(0.930245 -0.255751 -5.93628e-21)
(1.04996 -0.52765 8.04598e-21)
(1.05132 -0.846547 -7.52634e-21)
(0.944147 -0.27144 2.08491e-22)
(0.973745 0.126443 2.0527e-21)
(0.960494 0.411305 -2.41565e-22)
(0.933127 0.834848 1.58934e-21)
(1.01363 -0.00143152 5.87766e-22)
(1.1146 -0.631691 -4.11369e-22)
(0.992448 -0.224975 -1.57594e-22)
(0.295926 -0.110259 -7.4337e-21)
(0.383006 0.177012 7.88539e-21)
(0.431951 0.30576 -1.71531e-22)
(0.576676 0.602346 -1.37808e-20)
(0.783788 0.705528 6.63802e-21)
(0.702811 0.902446 1.9643e-20)
(0.836274 0.915887 4.47776e-21)
(0.94251 0.556774 -1.34159e-20)
(0.919758 0.0397695 -2.75363e-20)
(1.0284 -0.498404 4.06201e-20)
(0.902168 -0.571511 -3.09234e-20)
(0.972909 -0.591849 8.11497e-22)
(0.674372 -0.662464 -2.86426e-21)
(0.659817 -0.437186 8.47756e-21)
(0.705904 -0.439716 -5.68858e-21)
(0.645338 0.200611 -3.88965e-21)
(0.723191 0.507514 9.91021e-22)
(0.644735 0.564654 3.93468e-21)
(0.69746 0.681429 -1.39301e-22)
(0.919512 0.0837689 1.53071e-22)
(0.95261 -0.276438 5.08015e-21)
(1.06662 -0.545135 -5.27663e-21)
(1.06273 -0.839116 4.4062e-21)
(0.939125 -0.262966 3.81421e-21)
(0.96878 0.123039 -3.09079e-21)
(0.941685 0.412364 -8.92771e-22)
(0.905055 0.827815 -2.47358e-21)
(1.02013 -0.0162109 -1.09884e-21)
(1.11777 -0.622905 1.6487e-22)
(0.983962 -0.214687 2.5131e-22)
(0.343137 -0.138931 -3.72729e-20)
(0.415844 0.110579 8.95955e-21)
(0.485804 0.225382 2.14589e-20)
(0.59185 0.492678 -2.32936e-20)
(0.815005 0.663039 1.70505e-20)
(0.802596 0.857708 6.58724e-21)
(0.896163 0.880793 1.2681e-20)
(1.04241 0.541384 -2.18846e-20)
(1.05761 0.0755956 -1.7279e-20)
(1.12766 -0.46437 2.47407e-20)
(1.01003 -0.592036 7.85334e-21)
(1.05012 -0.557044 3.82864e-21)
(0.760947 -0.628047 -1.19458e-20)
(0.688519 -0.460179 -3.94092e-21)
(0.76739 -0.466995 2.70702e-21)
(0.646564 0.139358 -8.37325e-22)
(0.734396 0.495931 -5.36729e-21)
(0.629858 0.583221 9.34103e-21)
(0.690996 0.67632 2.49369e-21)
(0.940693 0.0846643 -1.22382e-20)
(0.988712 -0.281373 -3.02882e-21)
(1.08731 -0.548794 3.87426e-21)
(1.0752 -0.816171 -1.80461e-21)
(0.942207 -0.269648 3.2949e-21)
(0.961765 0.107418 -5.55721e-21)
(0.915501 0.415696 4.75401e-21)
(0.875734 0.819584 -3.59837e-22)
(1.02661 -0.0327661 1.74425e-21)
(1.11922 -0.615287 -6.67852e-22)
(0.974958 -0.206156 -2.6382e-22)
(0.434562 0.0426095 -4.00008e-21)
(0.558173 0.145281 8.28742e-21)
(0.603195 0.357412 -2.14206e-21)
(0.839422 0.561326 -2.194e-21)
(0.907852 0.805517 -1.24264e-20)
(0.967657 0.883976 2.42047e-20)
(1.16879 0.598247 3.25096e-20)
(1.22509 0.143436 -3.51634e-20)
(1.23454 -0.381332 -2.90642e-20)
(1.10512 -0.569173 2.25064e-20)
(1.10653 -0.491924 -6.63175e-21)
(0.860199 -0.565575 -8.51548e-22)
(0.722526 -0.468348 -1.92407e-21)
(0.833512 -0.476972 -1.63943e-23)
(0.649393 0.133442 4.31028e-21)
(0.749897 0.507109 -7.03314e-23)
(0.656917 0.559255 8.4284e-21)
(0.719734 0.625579 -1.0517e-20)
(0.973272 0.0603899 1.38699e-20)
(1.02732 -0.297595 -8.43078e-21)
(1.09723 -0.563715 3.15682e-21)
(1.079 -0.807587 -3.9824e-21)
(0.93121 -0.25636 1.50786e-22)
(0.941959 0.105047 2.87811e-21)
(0.890451 0.423372 -3.46278e-21)
(0.857992 0.806859 -1.40638e-21)
(1.03796 -0.0507151 6.70765e-22)
(1.1173 -0.602333 8.35565e-23)
(0.961413 -0.192584 5.52284e-22)
(0.460135 0.000772156 1.86066e-21)
(0.575578 0.0750597 1.20854e-21)
(0.639521 0.261067 -8.21669e-22)
(0.835339 0.459947 3.97296e-21)
(0.941043 0.701732 -7.58238e-21)
(1.02487 0.811941 -3.29208e-21)
(1.18831 0.585229 -4.51438e-20)
(1.27371 0.21143 2.58844e-20)
(1.32185 -0.294609 6.50106e-22)
(1.19528 -0.552007 2.50878e-20)
(1.15557 -0.460571 1.26167e-21)
(0.962951 -0.500029 -5.52955e-21)
(0.743234 -0.462419 2.13067e-21)
(0.88826 -0.489599 -4.77129e-21)
(0.669136 0.0785616 -3.52464e-21)
(0.763982 0.486522 1.93708e-21)
(0.669222 0.575096 3.47612e-21)
(0.726556 0.626767 2.42543e-21)
(1.00336 0.0735448 -5.0722e-21)
(1.07312 -0.289854 -1.07009e-20)
(1.11293 -0.552404 8.88577e-21)
(1.08885 -0.786158 1.29745e-21)
(0.930178 -0.262999 -2.18943e-22)
(0.918639 0.0917675 3.37944e-22)
(0.858431 0.423413 3.34006e-21)
(0.838497 0.787387 -1.55602e-21)
(1.04771 -0.0688597 -1.51501e-22)
(1.11436 -0.588931 -3.55226e-22)
(0.947778 -0.180317 -4.44728e-22)
(0.528547 -0.00131472 -3.66339e-21)
(0.581405 0.00173603 2.32068e-21)
(0.680572 0.137641 2.09347e-21)
(0.814783 0.335564 3.49944e-21)
(1.00157 0.62339 1.08354e-20)
(1.08413 0.793896 -1.03738e-20)
(1.24462 0.565655 2.96953e-20)
(1.41438 0.216342 4.73147e-21)
(1.43224 -0.225249 -3.95535e-20)
(1.27728 -0.508016 1.59833e-20)
(1.19406 -0.421246 -2.6274e-21)
(1.04944 -0.438715 -9.6456e-21)
(0.78989 -0.459134 2.14956e-21)
(0.944211 -0.52302 3.1062e-21)
(0.718055 0.0608001 -2.79546e-21)
(0.778956 0.489986 -1.27294e-21)
(0.70769 0.550644 1.1805e-21)
(0.781221 0.575281 7.42027e-21)
(1.05098 0.042772 -1.36958e-20)
(1.11754 -0.301052 7.85253e-21)
(1.12131 -0.551837 1.80281e-21)
(1.0902 -0.768405 7.88917e-22)
(0.91935 -0.248306 -6.16335e-21)
(0.889524 0.0927222 2.32956e-21)
(0.825961 0.432435 4.90744e-24)
(0.829326 0.769225 -1.3009e-21)
(1.06107 -0.0880567 6.2734e-22)
(1.10957 -0.570532 5.55273e-23)
(0.930354 -0.164148 -4.54712e-23)
(0.626687 0.00417454 -5.81528e-22)
(0.587546 -0.0143792 -1.17925e-21)
(0.650683 0.0495838 4.44142e-22)
(0.766012 0.205627 2.31937e-21)
(0.972783 0.455461 1.08019e-20)
(1.06954 0.710605 1.06262e-21)
(1.2353 0.615339 2.51837e-20)
(1.37639 0.338483 -9.45267e-21)
(1.44273 -0.075383 1.07263e-20)
(1.33212 -0.426456 -4.74211e-20)
(1.22398 -0.391731 2.06486e-20)
(1.09702 -0.363677 -1.90442e-20)
(0.827985 -0.412372 2.2643e-21)
(0.93985 -0.530688 2.1412e-21)
(0.755879 -0.00475095 3.47595e-21)
(0.789128 0.456579 6.63989e-22)
(0.745932 0.553949 3.8042e-21)
(0.800438 0.574312 -7.91824e-22)
(1.07362 0.0727609 -6.53721e-21)
(1.1658 -0.268939 2.51594e-21)
(1.13744 -0.523276 -1.89867e-21)
(1.09343 -0.741008 8.55216e-21)
(0.911575 -0.246163 -8.78245e-21)
(0.855846 0.0806281 6.63178e-21)
(0.791998 0.426283 -3.81029e-23)
(0.814924 0.740571 -2.39906e-21)
(1.07228 -0.106205 -1.04149e-22)
(1.10485 -0.553717 2.21755e-22)
(0.913101 -0.147466 2.09187e-22)
(0.60627 0.00151275 0)
(0.667122 -0.014013 0)
(0.793479 0.107433 0)
(0.97867 0.350634 0)
(1.11168 0.633688 0)
(1.25026 0.509417 0)
(1.42188 0.257691 0)
(1.54971 -0.0577981 0)
(1.3753 -0.34758 0)
(1.24524 -0.317118 0)
(1.14351 -0.289254 0)
(0.872801 -0.365703 0)
(0.944455 -0.500064 0)
(0.799138 -0.0224684 0)
(0.813673 0.446938 0)
(0.767106 0.535873 0)
(0.846624 0.525848 0)
(1.13365 0.018823 0)
(1.21123 -0.266255 0)
(1.15067 -0.513595 0)
(1.0822 -0.718742 0)
(0.907628 -0.233042 0)
(0.824372 0.0913559 0)
(0.76055 0.433468 0)
(0.808563 0.715857 0)
(1.09068 -0.131833 0)
(1.09583 -0.534241 0)
(0.895106 -0.131138 0)
(0.642303 0.0159835 0)
(0.681314 -0.0542693 0)
(0.762999 0.0639333 0)
(0.991531 0.259223 0)
(1.1116 0.545332 0)
(1.27266 0.43937 0)
(1.49231 0.240432 0)
(1.54853 -0.0321414 0)
(1.33147 -0.328296 0)
(1.21915 -0.295478 0)
(1.13341 -0.261647 0)
(0.873343 -0.348474 0)
(0.984443 -0.507187 0)
(0.842635 0.00161256 0)
(0.828132 0.447294 0)
(0.783302 0.50765 0)
(0.914441 0.474206 0)
(1.18526 -0.00514955 0)
(1.24419 -0.268797 0)
(1.15805 -0.504007 0)
(1.07209 -0.690465 0)
(0.890906 -0.192175 0)
(0.791571 0.107952 0)
(0.722508 0.444902 0)
(0.807946 0.684744 0)
(1.10506 -0.158123 0)
(1.08444 -0.513399 0)
(0.875464 -0.110776 0)
(0.751623 0.0434252 0)
(0.733059 -0.0841409 0)
(0.736453 -0.00104798 0)
(0.94986 0.169461 0)
(1.10806 0.511345 0)
(1.27227 0.401736 0)
(1.47352 0.181239 0)
(1.53528 0.000745567 0)
(1.32487 -0.257456 0)
(1.24282 -0.243421 0)
(1.18929 -0.181706 0)
(0.909668 -0.297321 0)
(0.980422 -0.496653 0)
(0.893823 0.00111831 0)
(0.852382 0.467916 0)
(0.821122 0.500082 0)
(0.997081 0.4201 0)
(1.23492 -0.0411983 0)
(1.26887 -0.26217 0)
(1.16354 -0.488502 0)
(1.0553 -0.652964 0)
(0.873085 -0.163283 0)
(0.762556 0.119915 0)
(0.681784 0.447112 0)
(0.818991 0.636476 0)
(1.12261 -0.181006 0)
(1.07138 -0.488042 0)
(0.852737 -0.0901133 0)
(0.871017 0.0769332 0)
(0.849514 -0.0681673 0)
(0.777721 -0.0169335 0)
(0.853431 0.0983195 0)
(1.06488 0.467913 0)
(1.2412 0.304889 0)
(1.41537 0.139865 0)
(1.4941 0.026709 0)
(1.28176 -0.225059 0)
(1.15115 -0.215286 0)
(1.12699 -0.161195 0)
(0.922351 -0.28917 0)
(0.973793 -0.508983 0)
(0.91569 0.0188965 0)
(0.86669 0.484837 0)
(0.872482 0.467404 0)
(1.06843 0.365067 0)
(1.26743 -0.0675827 0)
(1.27336 -0.249852 0)
(1.16208 -0.463795 0)
(1.03404 -0.614758 0)
(0.83404 -0.115745 0)
(0.71823 0.139988 0)
(0.645119 0.44315 0)
(0.844084 0.580747 0)
(1.13838 -0.207497 0)
(1.05269 -0.458318 0)
(0.827095 -0.0650723 0)
(0.94527 0.0799527 0)
(0.940593 -0.0475154 0)
(0.87212 -0.000494222 0)
(0.78822 0.0222959 0)
(1.06826 0.344052 0)
(1.24095 0.226685 0)
(1.32587 0.0859661 0)
(1.39603 0.0494983 0)
(1.23528 -0.151417 0)
(1.12507 -0.188139 0)
(1.1934 -0.113202 0)
(1.02665 -0.215433 0)
(0.94925 -0.493497 0)
(0.922708 0.0207121 0)
(0.882819 0.511624 0)
(0.916975 0.443629 0)
(1.13704 0.294422 0)
(1.29016 -0.0911042 0)
(1.27098 -0.235996 0)
(1.15285 -0.433734 0)
(1.00224 -0.564254 0)
(0.797249 -0.077109 0)
(0.675607 0.153064 0)
(0.624388 0.427346 0)
(0.880197 0.515981 0)
(1.15506 -0.224045 0)
(1.02853 -0.421864 0)
(0.798703 -0.0394971 0)
(0.961046 0.0587226 0)
(0.967799 -0.0396261 0)
(0.954435 0.0412513 0)
(0.83557 -0.0141124 0)
(1.06479 0.236207 0)
(1.18632 0.164781 0)
(1.20338 0.0830675 0)
(1.28939 0.0692131 0)
(1.2261 -0.117653 0)
(1.07947 -0.169568 0)
(1.12712 -0.115473 0)
(1.03685 -0.19426 0)
(0.903775 -0.474519 0)
(0.894437 0.038483 0)
(0.853566 0.503245 0)
(0.976349 0.378189 0)
(1.19667 0.241883 0)
(1.29666 -0.0955529 0)
(1.24897 -0.214081 0)
(1.13993 -0.410453 0)
(0.95968 -0.512243 0)
(0.73066 -0.0139579 0)
(0.625778 0.17091 0)
(0.618357 0.405072 0)
(0.918067 0.444094 0)
(1.16888 -0.239071 0)
(0.998126 -0.378439 0)
(0.768254 -0.00870822 0)
(0.980007 0.0544834 0)
(0.967113 -0.0437136 0)
(0.987871 0.0521969 0)
(0.907309 -0.0233071 0)
(1.00945 0.177534 0)
(1.13475 0.142506 0)
(1.10851 0.0562354 0)
(1.18817 0.0433703 0)
(1.20136 -0.0801971 0)
(1.0686 -0.143064 0)
(1.12559 -0.107694 0)
(1.12229 -0.126038 0)
(0.909378 -0.418191 0)
(0.816145 0.0481508 0)
(0.837481 0.496497 0)
(1.03946 0.331314 0)
(1.22531 0.1825 0)
(1.29155 -0.109437 0)
(1.21492 -0.177751 0)
(1.10901 -0.351209 0)
(0.915949 -0.450253 0)
(0.681829 0.0342879 0)
(0.609419 0.173948 0)
(0.630467 0.36062 0)
(0.960313 0.363849 0)
(1.18662 -0.242503 0)
(0.964227 -0.326103 0)
(0.736339 0.0200014 0)
(0.988631 0.0326133 0)
(0.975863 -0.0382115 0)
(0.992969 0.0599633 0)
(0.950778 -0.017858 0)
(0.979374 0.126718 0)
(1.09423 0.0987309 0)
(1.0871 0.0635884 0)
(1.15248 0.0339192 0)
(1.15374 -0.0729217 0)
(1.06157 -0.121784 0)
(1.04766 -0.125602 0)
(1.02899 -0.114475 0)
(0.871371 -0.346446 0)
(0.713396 0.0764146 0)
(0.849692 0.420415 0)
(1.0858 0.243702 0)
(1.24085 0.149588 0)
(1.27949 -0.0943878 0)
(1.16809 -0.152766 0)
(1.09309 -0.324092 0)
(0.850448 -0.37552 0)
(0.605872 0.096643 0)
(0.631042 0.17399 0)
(0.662803 0.314562 0)
(1.00577 0.286107 0)
(1.20162 -0.242956 0)
(0.923088 -0.264066 0)
(0.710247 0.056959 0)
(1.00176 0.0245334 0)
(0.977106 -0.0348604 0)
(0.987633 0.0493679 0)
(0.994464 -0.011655 0)
(0.971109 0.099304 0)
(1.08454 0.0716898 0)
(1.06487 0.0370293 0)
(1.11999 0.0111104 0)
(1.13333 -0.0474328 0)
(1.06804 -0.0838922 0)
(1.03667 -0.0989157 0)
(1.04218 -0.0656079 0)
(0.935257 -0.275729 0)
(0.688409 0.0541384 0)
(0.916993 0.321701 0)
(1.12546 0.186433 0)
(1.21515 0.112489 0)
(1.22218 -0.0989965 0)
(1.09971 -0.112281 0)
(1.10591 -0.257042 0)
(0.860387 -0.303134 0)
(0.600736 0.129082 0)
(0.708208 0.152563 0)
(0.690924 0.250385 0)
(1.04462 0.20015 0)
(1.213 -0.22514 0)
(0.871186 -0.199371 0)
(0.684148 0.0813429 0)
(1.00788 0.0047306 0)
(0.985382 -0.0229999 0)
(0.99619 0.0383442 0)
(1.0062 -0.00593596 0)
(0.983039 0.0748496 0)
(1.07971 0.037498 0)
(1.04969 0.0401818 0)
(1.10772 0.00344282 0)
(1.07956 -0.0460966 0)
(1.0599 -0.0710864 0)
(1.02218 -0.0986019 0)
(1.00189 -0.0619094 0)
(0.963194 -0.190861 0)
(0.735254 0.0578413 0)
(0.968002 0.20735 0)
(1.08223 0.128555 0)
(1.17715 0.107039 0)
(1.23112 -0.0595494 0)
(1.05027 -0.0854121 0)
(1.05829 -0.226349 0)
(0.787755 -0.217821 0)
(0.593863 0.154508 0)
(0.804856 0.142423 0)
(0.762664 0.208118 0)
(1.08946 0.12753 0)
(1.20657 -0.194972 0)
(0.810744 -0.100771 0)
(0.677649 0.120262 0)
(1.01446 -0.0030989 0)
(0.991165 -0.0182038 0)
(1.00114 0.0258874 0)
(1.02031 -0.00386394 0)
(0.992268 0.0536471 0)
(1.07614 0.0258303 0)
(1.03158 0.0245244 0)
(1.09667 -0.00660915 0)
(1.0581 -0.023257 0)
(1.05313 -0.0570309 0)
(1.02233 -0.0659671 0)
(0.979228 -0.03388 0)
(0.991773 -0.145365 0)
(0.786374 0.0481804 0)
(0.995929 0.147737 0)
(1.05785 0.105488 0)
(1.09873 0.0622252 0)
(1.16997 -0.0679343 0)
(1.03071 -0.0429227 0)
(1.1139 -0.165081 0)
(0.859742 -0.144395 0)
(0.684173 0.146644 0)
(0.933581 0.104182 0)
(0.850669 0.157084 0)
(1.06103 0.0614988 0)
(1.13834 -0.175993 0)
(0.791992 -0.0432909 0)
(0.715383 0.127439 0)
(1.02119 -0.0148118 0)
(0.996013 -0.00774099 0)
(1.01261 0.0107115 0)
(1.01916 0.000735648 0)
(1.0059 0.0363941 0)
(1.06076 0.00831319 0)
(1.03183 0.0280359 0)
(1.07625 -0.0150844 0)
(1.0373 -0.0125099 0)
(1.04884 -0.0491804 0)
(1.00631 -0.0524721 0)
(0.990226 -0.033537 0)
(0.998944 -0.0930569 0)
(0.846417 0.0510215 0)
(1.00457 0.0749803 0)
(1.02958 0.0891221 0)
(1.10064 0.0593413 0)
(1.11938 -0.0459166 0)
(0.997658 -0.0379489 0)
(1.05225 -0.144137 0)
(0.84613 -0.0756875 0)
(0.778204 0.115214 0)
(1.00256 0.0858335 0)
(0.937199 0.151815 0)
(1.10246 0.0353874 0)
(1.05817 -0.110903 0)
(0.741679 0.0463527 0)
(0.76129 0.143873 0)
(1.02437 -0.0176628 0)
(1.00291 -0.00428762 0)
(1.01798 0.00205999 0)
(1.01965 0.000863729 0)
(1.01324 0.0226939 0)
(1.05005 0.00419704 0)
(1.02296 0.0207751 0)
(1.06426 -0.0178688 0)
(1.02469 -0.000815484 0)
(1.04068 -0.0424977 0)
(1.0111 -0.0329521 0)
(0.986816 -0.0191439 0)
(1.00613 -0.0678001 0)
(0.899312 0.0414853 0)
(1.01486 0.0456036 0)
(1.01608 0.0678128 0)
(1.07011 0.0297599 0)
(1.10161 -0.0360622 0)
(0.998755 -0.00788046 0)
(1.05047 -0.100788 0)
(0.89107 -0.0331792 0)
(0.850639 0.0892052 0)
(1.03143 0.0507882 0)
(0.960405 0.126111 0)
(1.08956 0.0259506 0)
(1.0849 -0.0723842 0)
(0.830895 0.0747583 0)
(0.870646 0.13386 0)
(1.02527 -0.0225419 0)
(1.00826 0.00244278 0)
(1.02251 -0.00664667 0)
(1.01735 0.00367029 0)
(1.01898 0.0137915 0)
(1.03576 -0.00279152 0)
(1.02401 0.0220541 0)
(1.04744 -0.0220248 0)
(1.01974 0.00908749 0)
(1.03584 -0.0382423 0)
(1.00386 -0.0192268 0)
(1.00125 -0.0188742 0)
(1.00125 -0.044193 0)
(0.944119 0.0389769 0)
(1.01292 0.0102434 0)
(1.0132 0.0628947 0)
(1.0609 0.0184083 0)
(1.05911 -0.0226051 0)
(1.00301 0.00395536 0)
(1.0298 -0.0876939 0)
(0.912637 0.00349086 0)
(0.917698 0.0559696 0)
(1.0095 0.0365091 0)
(0.983084 0.125553 0)
(1.0737 0.00202171 0)
(1.01622 -0.037833 0)
(0.874674 0.118156 0)
(0.951979 0.13246 0)
(1.02462 -0.0206894 0)
(1.01122 0.0024068 0)
(1.02581 -0.00755235 0)
(1.01319 0.00222164 0)
(1.02507 0.00917817 0)
(1.02434 -0.00410501 0)
(1.02494 0.018041 0)
(1.03641 -0.0195055 0)
(1.01605 0.0103215 0)
(1.03519 -0.029819 0)
(1.00032 -0.0124531 0)
(1.01542 -0.0111953 0)
(0.993262 -0.0323592 0)
(0.981755 0.0306092 0)
(1.01096 0.000557294 0)
(1.00614 0.0481841 0)
(1.05504 0.0102521 0)
(1.03134 -0.0162544 0)
(1.01356 0.0150987 0)
(1.02291 -0.0601162 0)
(0.931768 0.0173258 0)
(0.972488 0.0479978 0)
(0.988019 0.0224409 0)
(0.997406 0.104519 0)
(1.07225 0.0183307 0)
(0.993179 -0.00895472 0)
(0.922843 0.116644 0)
(1.00992 0.117515 0)
(1.02345 -0.0188328 0)
(1.01351 0.00282463 0)
(1.02569 -0.008427 0)
(1.01306 0.00211402 0)
(1.02571 0.00576638 0)
(1.01963 -0.00495133 0)
(1.02456 0.0147664 0)
(1.03053 -0.0169959 0)
(1.01527 0.0106269 0)
(1.03426 -0.0235343 0)
(0.999595 -0.0062628 0)
(1.02453 -0.00977526 0)
(0.992746 -0.0212713 0)
(1.00105 0.0237901 0)
(1.01031 -0.0080899 0)
(1.00514 0.0398657 0)
(1.04659 0.00568203 0)
(1.01723 -0.00759659 0)
(1.01584 0.0191711 0)
(1.02098 -0.0436686 0)
(0.948131 0.024642 0)
(1.00273 0.034464 0)
(0.984999 0.019131 0)
(1.00544 0.0914608 0)
(1.05892 0.0156379 0)
(0.992019 0.00860475 0)
(0.961085 0.109513 0)
(1.04147 0.104059 0)
(1.02193 -0.0145443 0)
(1.01569 0.000975747 0)
(1.0248 -0.00670154 0)
(1.01358 0.000637032 0)
(1.0257 0.00338344 0)
(1.01767 -0.00401836 0)
(1.02443 0.0100686 0)
(1.02704 -0.0122004 0)
(1.01529 0.00756782 0)
(1.03284 -0.0165344 0)
(1.0013 -0.00370259 0)
(1.029 -0.00636822 0)
(0.993905 -0.0143186 0)
(1.01263 0.0169908 0)
(1.00974 -0.00712304 0)
(1.00525 0.0291863 0)
(1.03839 0.00510703 0)
(1.01065 -0.00302609 0)
(1.01631 0.0192733 0)
(1.02046 -0.0254045 0)
(0.963963 0.0243888 0)
(1.01832 0.0310456 0)
(0.985247 0.0184129 0)
(1.01118 0.0731503 0)
(1.049 0.0259627 0)
(0.998824 0.0239073 0)
(0.984925 0.0961907 0)
(1.05415 0.0903537 0)
(1.02116 -0.0113006 0)
(1.01799 0.000326307 0)
(1.0233 -0.00599245 0)
(1.01588 0.000151096 0)
(1.02417 0.00133202 0)
(1.01834 -0.00326622 0)
(1.02315 0.00664451 0)
(1.02538 -0.00912394 0)
(1.01578 0.00590989 0)
(1.03054 -0.0119195 0)
(1.00442 -0.00103124 0)
(1.02914 -0.00458003 0)
(0.998635 -0.00877165 0)
(1.01689 0.0129606 0)
(1.01026 -0.00658942 0)
(1.00803 0.0222566 0)
(1.02997 0.00459818 0)
(1.01102 0.000778122 0)
(1.015 0.018775 0)
(1.0208 -0.0129689 0)
(0.978472 0.0239534 0)
(1.02302 0.0263802 0)
(0.991386 0.0190089 0)
(1.01604 0.0613323 0)
(1.03864 0.0289333 0)
(1.00878 0.0298067 0)
(1.0027 0.0816527 0)
(1.05839 0.078043 0)
(1.02103 -0.00813171 0)
(1.01963 -0.000462712 0)
(1.02262 -0.00482397 0)
(1.01773 -0.000391363 0)
(1.02303 -2.68943e-05 0)
(1.01914 -0.00245799 0)
(1.02197 0.00389132 0)
(1.02433 -0.0061355 0)
(1.01583 0.00417875 0)
(1.02832 -0.00776103 0)
(1.00729 0.000272929 0)
(1.02779 -0.00240692 0)
(1.0032 -0.00490457 0)
(1.01862 0.00959007 0)
(1.01166 -0.00377969 0)
(1.01075 0.0160454 0)
(1.02423 0.00527401 0)
(1.01278 0.00335348 0)
(1.0139 0.016748 0)
(1.02115 -0.00304062 0)
(0.989819 0.0218446 0)
(1.02468 0.0244189 0)
(0.998719 0.0210928 0)
(1.01888 0.049793 0)
(1.03233 0.0310948 0)
(1.01882 0.0349404 0)
(1.01534 0.0696328 0)
(1.05861 0.0672796 0)
(1.02104 -0.00602325 0)
(1.02096 -0.00052523 0)
(1.02198 -0.00399874 0)
(1.01938 -0.000621066 0)
(1.02185 -0.000637301 0)
(1.02006 -0.00203408 0)
(1.02077 0.0025717 0)
(1.02345 -0.00433433 0)
(1.01615 0.00346475 0)
(1.02599 -0.00486789 0)
(1.01017 0.00122244 0)
(1.0257 -0.000578562 0)
(1.00754 -0.00243278 0)
(1.01925 0.00789471 0)
(1.01287 -0.00187391 0)
(1.01383 0.0121188 0)
(1.02017 0.00567286 0)
(1.0151 0.00491095 0)
(1.0139 0.0154383 0)
(1.0211 0.00316652 0)
(0.999251 0.0204892 0)
(1.0249 0.0230582 0)
(1.00507 0.0211497 0)
(1.0224 0.0418136 0)
(1.02932 0.0317761 0)
(1.02594 0.0356655 0)
(1.02415 0.0583978 0)
(1.05769 0.0576149 0)
(1.02112 -0.00420797 0)
(1.02155 -0.000583809 0)
(1.02152 -0.00304167 0)
(1.02038 -0.000725942 0)
(1.0209 -0.000740787 0)
(1.02066 -0.00151438 0)
(1.01977 0.0017212 0)
(1.02288 -0.00261844 0)
(1.01632 0.00277069 0)
(1.02424 -0.00241342 0)
(1.0125 0.00164058 0)
(1.02388 0.000842117 0)
(1.01104 -0.000594621 0)
(1.01944 0.0063852 0)
(1.01431 0.000155973 0)
(1.0162 0.00929758 0)
(1.01808 0.00602711 0)
(1.01729 0.00636408 0)
(1.01434 0.0138141 0)
(1.02154 0.00744394 0)
(1.00624 0.0190248 0)
(1.02494 0.0214014 0)
(1.01126 0.0214231 0)
(1.0255 0.0357508 0)
(1.02812 0.0302751 0)
(1.03134 0.0345912 0)
(1.03047 0.0495612 0)
(1.05648 0.0493919 0)
(1.02091 -0.00281411 0)
(1.0218 -0.000482594 0)
(1.02098 -0.0020968 0)
(1.02091 -0.000720949 0)
(1.02013 -0.000452362 0)
(1.02092 -0.00109652 0)
(1.01916 0.00145068 0)
(1.02221 -0.00137321 0)
(1.01674 0.00238572 0)
(1.02283 -0.000591936 0)
(1.01439 0.00180812 0)
(1.02262 0.001956 0)
(1.01353 0.00053617 0)
(1.01983 0.00552723 0)
(1.01536 0.00156161 0)
(1.01811 0.00745771 0)
(1.01735 0.00635624 0)
(1.01883 0.00697059 0)
(1.01554 0.0126215 0)
(1.02213 0.00978659 0)
(1.01145 0.0173831 0)
(1.02577 0.0201771 0)
(1.01606 0.0206689 0)
(1.02788 0.0303731 0)
(1.02866 0.0282442 0)
(1.0352 0.0322371 0)
(1.03456 0.0417633 0)
(1.05528 0.0420134 0)
(1.02054 -0.00166743 0)
(1.02171 -0.000299202 0)
(1.02038 -0.00129289 0)
(1.0211 -0.000496426 0)
(1.01947 -0.000165497 0)
(1.02098 -0.000525983 0)
(1.01873 0.0012573 0)
(1.0217 -0.000317046 0)
(1.01716 0.00212329 0)
(1.02184 0.000614467 0)
(1.01588 0.00204767 0)
(1.02174 0.00247216 0)
(1.0154 0.00151183 0)
(1.02018 0.00480408 0)
(1.01629 0.00254989 0)
(1.01962 0.00643292 0)
(1.01731 0.00628209 0)
(1.02027 0.0073952 0)
(1.01693 0.0115551 0)
(1.0229 0.0106585 0)
(1.01562 0.0160469 0)
(1.02659 0.0184778 0)
(1.0198 0.0191839 0)
(1.03019 0.0262139 0)
(1.02981 0.0257242 0)
(1.03772 0.0288714 0)
(1.03733 0.0351597 0)
(1.05425 0.0356635 0)
(1.02005 -0.000784696 0)
(1.02137 -0.000127865 0)
(1.01985 -0.000601634 0)
(1.02096 -0.000264775 0)
(1.01906 0.000155123 0)
(1.02079 -5.82596e-05 0)
(1.01853 0.00118495 0)
(1.02122 0.000445387 0)
(1.01753 0.00191043 0)
(1.02124 0.00141219 0)
(1.01685 0.0021243 0)
(1.02136 0.00272881 0)
(1.01664 0.00210643 0)
(1.02058 0.00420243 0)
(1.01721 0.00318975 0)
(1.02063 0.00558642 0)
(1.01794 0.0061065 0)
(1.0214 0.0073494 0)
(1.01833 0.0103715 0)
(1.02396 0.0107238 0)
(1.01865 0.0144077 0)
(1.02761 0.0165185 0)
(1.02295 0.0175217 0)
(1.03188 0.0223369 0)
(1.03109 0.0226485 0)
(1.0396 0.0252396 0)
(1.0392 0.0294456 0)
(1.05334 0.0299702 0)
(1.01948 -0.00018514 0)
(1.02093 0.000135992 0)
(1.01931 -0.000118585 0)
(1.02066 4.82051e-05 0)
(1.01871 0.000408042 0)
(1.02051 0.000335639 0)
(1.01842 0.00120465 0)
(1.02079 0.000898079 0)
(1.01786 0.00185875 0)
(1.02083 0.00177016 0)
(1.01756 0.00221362 0)
(1.02119 0.00275978 0)
(1.01752 0.00239326 0)
(1.02102 0.00380764 0)
(1.01796 0.00336825 0)
(1.02148 0.00500097 0)
(1.01873 0.00572735 0)
(1.02235 0.00689029 0)
(1.01976 0.00927433 0)
(1.02492 0.010028 0)
(1.02105 0.0126747 0)
(1.02871 0.0145307 0)
(1.02528 0.0153963 0)
(1.03326 0.018726 0)
(1.03244 0.0194771 0)
(1.04085 0.0214831 0)
(1.04042 0.0243258 0)
(1.05258 0.0248313 0)
(1.01897 0.000160429 0)
(1.0204 0.00028723 0)
(1.01885 0.000154954 0)
(1.02028 0.000260995 0)
(1.01844 0.000509022 0)
(1.02021 0.000576481 0)
(1.0183 0.00111999 0)
(1.02049 0.00110459 0)
(1.01805 0.00169863 0)
(1.02063 0.00181011 0)
(1.01803 0.00213495 0)
(1.02112 0.00252613 0)
(1.01822 0.00242498 0)
(1.02135 0.00330768 0)
(1.01869 0.00323608 0)
(1.02212 0.00437692 0)
(1.01954 0.00504757 0)
(1.02324 0.00616572 0)
(1.02094 0.00793054 0)
(1.02584 0.00880608 0)
(1.02294 0.0107953 0)
(1.02962 0.0122213 0)
(1.02715 0.0130043 0)
(1.03442 0.015349 0)
(1.03354 0.0160763 0)
(1.04162 0.0176175 0)
(1.04127 0.0196366 0)
(1.05195 0.0200644 0)
(1.01849 0.000381167 0)
(1.01987 0.000416877 0)
(1.01845 0.000355075 0)
(1.01986 0.000410275 0)
(1.01822 0.000602513 0)
(1.0199 0.000691992 0)
(1.0182 0.00106465 0)
(1.02021 0.00113984 0)
(1.01816 0.00152561 0)
(1.02052 0.00170158 0)
(1.01833 0.00192126 0)
(1.02114 0.00223244 0)
(1.01869 0.00221321 0)
(1.02164 0.00280041 0)
(1.01931 0.00288396 0)
(1.02258 0.00365846 0)
(1.02034 0.00426225 0)
(1.02393 0.00516694 0)
(1.02194 0.00647215 0)
(1.02664 0.00729387 0)
(1.02433 0.00870965 0)
(1.03043 0.00980987 0)
(1.02857 0.0104527 0)
(1.03526 0.0120174 0)
(1.03445 0.0126362 0)
(1.04212 0.0138016 0)
(1.0418 0.0152158 0)
(1.05143 0.0155449 0)
(1.01804 0.000389212 0)
(1.01937 0.000411478 0)
(1.01807 0.00036552 0)
(1.01947 0.000416658 0)
(1.018 0.000537732 0)
(1.01961 0.000630127 0)
(1.01807 0.000874361 0)
(1.01998 0.00095624 0)
(1.01821 0.00122362 0)
(1.02042 0.00136096 0)
(1.01851 0.00153819 0)
(1.02113 0.00174397 0)
(1.01902 0.00176912 0)
(1.02185 0.00216373 0)
(1.01976 0.00226 0)
(1.02292 0.00280513 0)
(1.02093 0.00324629 0)
(1.02445 0.00391772 0)
(1.0227 0.00484313 0)
(1.02722 0.00545719 0)
(1.02535 0.00644414 0)
(1.03103 0.00722502 0)
(1.02954 0.00767067 0)
(1.03586 0.00870333 0)
(1.03511 0.00916377 0)
(1.04236 0.00995453 0)
(1.0421 0.0109066 0)
(1.05098 0.0111483 0)
(1.01765 0.000275698 0)
(1.01892 0.000281928 0)
(1.01772 0.000257511 0)
(1.0191 0.000290181 0)
(1.01775 0.00035722 0)
(1.01932 0.000425243 0)
(1.01789 0.00056 0)
(1.01974 0.000628502 0)
(1.01813 0.000779789 0)
(1.02028 0.000875633 0)
(1.01853 0.000986935 0)
(1.02104 0.00110672 0)
(1.01917 0.00114348 0)
(1.02189 0.00136366 0)
(1.02001 0.00144507 0)
(1.02306 0.00176385 0)
(1.0213 0.00203425 0)
(1.02476 0.0024552 0)
(1.02314 0.0030002 0)
(1.02756 0.00339218 0)
(1.02595 0.00397867 0)
(1.03135 0.00444066 0)
(1.03013 0.00471696 0)
(1.03617 0.00530484 0)
(1.03547 0.00557672 0)
(1.04243 0.00604265 0)
(1.04219 0.00659991 0)
(1.05058 0.00674688 0)
(1.01745 0.000145017 0)
(1.0187 0.000143545 0)
(1.01754 0.000136347 0)
(1.01891 0.000145168 0)
(1.01764 0.000170972 0)
(1.01918 0.000193286 0)
(1.01781 0.000241757 0)
(1.01963 0.000264431 0)
(1.01812 0.000314852 0)
(1.02023 0.000346851 0)
(1.01857 0.000380607 0)
(1.02103 0.000423182 0)
(1.01926 0.000431228 0)
(1.02195 0.000503447 0)
(1.02017 0.000531281 0)
(1.02317 0.00063604 0)
(1.02151 0.000733444 0)
(1.02493 0.000872509 0)
(1.0234 0.00105897 0)
(1.02776 0.00119285 0)
(1.02628 0.00138386 0)
(1.03155 0.00153911 0)
(1.03044 0.00162668 0)
(1.03634 0.00181376 0)
(1.03569 0.0019065 0)
(1.04247 0.00206189 0)
(1.04224 0.00224749 0)
(1.05038 0.00229488 0)
)
;

boundaryField
{
    outlet
    {
        type            zeroGradient;
    }
    upperWall
    {
        type            symmetryPlane;
    }
    lowerWall
    {
        type            symmetryPlane;
    }
    inlet
    {
        type            fixedValue;
        value           nonuniform 0();
    }
    cylinder
    {
        type            fixedValue;
        value           nonuniform 0();
    }
    frontAndBack
    {
        type            empty;
    }
    procBoundary7to3
    {