/*--------------------------------*- C++ -*----------------------------------*\
| =========                 |                                                 |
| \\      /  F ield         | OpenFOAM: The Open Source CFD Toolbox           |
|  \\    /   O peration     | Version:                                        |
|   \\  /    A nd           | Website:  www.openfoam.com                      |
|    \\/     M anipulation  |                                                 |
\*---------------------------------------------------------------------------*/
FoamFile
{
    version     2.0;
    format      ascii;
    class       volScalarField;
    location    "183.5";
    object      p;
}
// * * * * * * * * * * * * * * * * * * * * * * * * * * * * * * * * * * * * * //

dimensions      [0 2 -2 0 0 0 0];


internalField   nonuniform List<scalar> 
1161
(
-0.567378
-0.512505
-0.460174
-0.410418
-0.363818
-0.320533
-0.281511
-0.244054
-0.205495
-0.167004
-0.441725
-0.395145
-0.351004
-0.310603
-0.273359
-0.239544
-0.207773
-0.179184
-0.348352
-0.309371
-0.273156
-0.23956
-0.20888
-0.180536
-0.247645
-0.218747
-0.191416
-1.18836
-1.22614
-1.2705
-1.30472
-1.31796
-1.31264
-1.28454
-1.21532
-1.1033
-0.977578
-0.866809
-0.78282
-0.723942
-0.688456
-0.672113
-0.683548
-0.713636
-1.18343
-1.22555
-1.26085
-1.27815
-1.27662
-1.24521
-1.16496
-1.04557
-0.917949
-0.808356
-0.721738
-0.660248
-0.619816
-0.593332
-0.585942
-0.592427
-1.11151
-1.14444
-1.17938
-1.20167
-1.20423
-1.16676
-1.07605
-0.956104
-0.836798
-0.736429
-0.652657
-0.586956
-0.539741
-0.504767
-0.477814
-0.459063
-1.02267
-1.04477
-1.07711
-1.1048
-1.1078
-1.06212
-0.970208
-0.860556
-0.755966
-0.665589
-0.589493
-0.525366
-0.473246
-0.431174
-0.393737
-0.359014
-0.9401
-0.954012
-0.984959
-1.01524
-1.01108
-0.95805
-0.872815
-0.777841
-0.68759
-0.604418
-0.533579
-0.473142
-0.419571
-0.371005
-0.32702
-0.286993
-0.896922
-0.928414
-0.945349
-0.92546
-0.867217
-0.788875
-0.707106
-0.629516
-0.556465
-0.490346
-0.431083
-0.378579
-0.330204
-0.282852
-0.23946
-0.900266
-0.891338
-0.854418
-0.795187
-0.724183
-0.650518
-0.578092
-0.513187
-0.454114
-0.397839
-0.34574
-0.298099
-0.255583
-0.212362
-0.849077
-0.797156
-0.734465
-0.667987
-0.601647
-0.536884
-0.476185
-0.419683
-0.368784
-0.321831
-0.275697
-0.234978
-0.194857
-0.754705
-0.69114
-0.626104
-0.561926
-0.502625
-0.446169
-0.391994
-0.342798
-0.297815
-0.258624
-0.222008
-0.184628
-0.65608
-0.595177
-0.536447
-0.479622
-0.425659
-0.376164
-0.329801
-0.285836
-0.245224
-0.209201
-0.17523
-0.780474
-0.915509
-0.996151
-0.975573
-0.836122
-0.66041
-0.511872
-0.412085
-0.354387
-0.333675
-0.345203
-0.39962
-0.509061
-0.670355
-0.84594
-0.943704
-0.871377
-0.711982
-0.525305
-0.392082
-0.623118
-0.718978
-0.784797
-0.78139
-0.676311
-0.550011
-0.443936
-0.372436
-0.332348
-0.323845
-0.347978
-0.414486
-0.543404
-0.731057
-0.926305
-1.04336
-0.972645
-0.792205
-0.576795
-0.411825
-0.452294
-0.490622
-0.540404
-0.553935
-0.491913
-0.422661
-0.356191
-0.309497
-0.285804
-0.28425
-0.316935
-0.391649
-0.531269
-0.733081
-0.933855
-1.06197
-1.01396
-0.830417
-0.600088
-0.414577
-0.326824
-0.329309
-0.335622
-0.344423
-0.319925
-0.291665
-0.257412
-0.228841
-0.218888
-0.222496
-0.255466
-0.32544
-0.452197
-0.651182
-0.849014
-0.987241
-0.973623
-0.814909
-0.590586
-0.399431
-0.2432
-0.222513
-0.202181
-0.197448
-0.189475
-0.177194
-0.163415
-0.148336
-0.145846
-0.151134
-0.175672
-0.233796
-0.338717
-0.507474
-0.691407
-0.836049
-0.853358
-0.734301
-0.544465
-0.367107
-0.191751
-0.156223
-0.127369
-0.108097
-0.102204
-0.0904581
-0.087191
-0.0810176
-0.0821671
-0.0900253
-0.107754
-0.148434
-0.225694
-0.357783
-0.508651
-0.633102
-0.694092
-0.618612
-0.479987
-0.3273
-0.167795
-0.129092
-0.0926362
-0.0592755
-0.0451421
-0.036272
-0.0331932
-0.030591
-0.0330024
-0.0410012
-0.0529165
-0.0810344
-0.140178
-0.22896
-0.332777
-0.431664
-0.496853
-0.472994
-0.38691
-0.271237
-0.18329
-0.154377
-0.118166
-0.0837317
-0.0473172
-0.018003
0.00254066
0.00917682
0.00842448
0.00225475
-0.00855802
-0.0184378
-0.037137
-0.075951
-0.135723
-0.206853
-0.272144
-0.325045
-0.339255
-0.296874
-0.221662
-0.154556
-0.150038
-0.117313
-0.0819399
-0.0477375
-0.0164074
0.0131238
0.0344911
0.0393796
0.0322823
0.0155081
0.00206037
-0.0141106
-0.045344
-0.0847058
-0.117503
-0.153997
-0.199617
-0.222251
-0.21153
-0.173282
-0.127739
-0.147984
-0.125765
-0.0964539
-0.0619522
-0.0303427
-0.00376843
0.0239494
0.0452792
0.0459409
0.0321337
0.0165501
0.00514893
-0.0179701
-0.0465476
-0.0757227
-0.094379
-0.0977289
-0.100016
-0.107679
-0.112255
-0.0936928
-0.125006
-0.114216
-0.087058
-0.0549549
-0.0246138
0.00056013
0.0254334
0.0492807
0.0527543
0.0422181
0.0244747
0.00915685
-0.00699412
-0.027182
-0.0482464
-0.055525
-0.0570528
-0.06975
-0.0936961
-0.0796141
-0.0622085
-0.0342875
-0.111582
-0.10311
-0.0793672
-0.0472658
-0.0177745
0.00252888
0.0194466
0.0322765
0.0437667
0.0398577
0.0264341
0.0105346
-0.00197227
-0.0158283
-0.0316508
-0.0387269
-0.038011
-0.0458371
-0.0586988
-0.0496513
-0.0369988
-0.01831
-0.100373
-0.0922666
-0.0725079
-0.0462773
-0.0198096
-0.000217545
0.0147226
0.028573
0.0379329
0.0363473
0.0270088
0.01377
0.00327309
-0.00565031
-0.0132937
-0.0173458
-0.0163455
-0.0219738
-0.0327999
-0.0275889
-0.0197006
-0.00580582
-0.0880815
-0.0817751
-0.0664546
-0.0449349
-0.0215119
-0.00255545
0.0108063
0.0219025
0.0304108
0.0311195
0.025981
0.0168896
0.00893672
0.00494422
0.00478343
0.00406813
0.000861201
-0.00512734
-0.0120051
-0.00796293
-0.00149658
0.00672428
-0.0768974
-0.0731833
-0.061571
-0.0437041
-0.0234419
-0.0060286
0.00621076
0.0156149
0.0231253
0.0258059
0.0238147
0.0191552
0.0144253
0.0128033
0.0143152
0.0143005
0.0110701
0.00827023
0.00110246
0.00453366
0.00494603
0.00868013
-0.0677543
-0.0656115
-0.0566267
-0.0417524
-0.0247724
-0.00943291
0.00200506
0.0102093
0.0167318
0.0205659
0.0210096
0.0195849
0.016932
0.0164507
0.0181692
0.0194634
0.0182166
0.0155632
0.010082
0.0126414
0.0184885
0.0190195
-0.0590756
-0.0580749
-0.0513217
-0.0395639
-0.0256468
-0.0123034
-0.00182899
0.00559523
0.0113207
0.0158601
0.0180054
0.018766
0.0181941
0.0181641
0.0201351
0.0216893
0.0208819
0.0209207
0.0177966
0.017946
0.0182461
0.0188611
-0.050729
-0.0509719
-0.0464293
-0.0372288
-0.0257002
-0.0143233
-0.00509893
0.00168132
0.00715422
0.0120387
0.0152723
0.0173038
0.0180123
0.0185276
0.0204423
0.0220078
0.0223969
0.0229002
0.0206339
0.0205735
0.0247634
0.0259387
-0.0434403
-0.0446078
-0.0415626
-0.0342045
-0.0247716
-0.0153278
-0.00736151
-0.00109825
0.00406549
0.00870925
0.0125315
0.0151752
0.0169246
0.0180682
0.0196237
0.0212804
0.0220886
0.0234321
0.0234889
0.0234678
0.0249855
0.0257173
-0.0367243
-0.0382629
-0.0364039
-0.0309253
-0.0233297
-0.0154332
-0.00852554
-0.00313424
0.00156608
0.00603323
0.0101496
0.0131862
0.0154343
0.0168498
0.0182113
0.0201127
0.0216433
0.0234289
0.0240127
0.0237613
0.025466
0.027508
-0.0303331
-0.0323059
-0.0315135
-0.0274943
-0.0213004
-0.0147123
-0.00889413
-0.00422982
7.85441e-05
0.0041914
0.00817577
0.0113399
0.0137194
0.0154142
0.0168945
0.0189195
0.0205856
0.0223854
0.0237716
0.0243178
0.0256987
0.0272646
-0.0247386
-0.0267999
-0.0265927
-0.0236227
-0.0186259
-0.013246
-0.00842775
-0.00452588
-0.000825117
0.00286321
0.00662688
0.00981271
0.012234
0.0140775
0.0156385
0.0174975
0.0194765
0.0214361
0.0231236
0.0237181
0.0246331
0.0265747
-0.0194473
-0.021669
-0.0218457
-0.0196185
-0.0157053
-0.011431
-0.0075394
-0.00428795
-0.00109977
0.0022402
0.00568463
0.00869611
0.0110423
0.0129042
0.0144968
0.0163281
0.0184001
0.0203425
0.0219869
0.0229395
0.0238421
0.0257279
-0.0148377
-0.0166869
-0.0170296
-0.0157173
-0.0128445
-0.00931041
-0.00594323
-0.0032108
-0.000553867
0.00226076
0.00525657
0.00800352
0.0102695
0.0120279
0.0136207
0.0153561
0.0173625
0.0192923
0.0208839
0.0220704
0.0229232
0.0247349
-0.0097223
-0.011841
-0.012889
-0.0120519
-0.00960625
-0.00661764
-0.00390454
-0.00176374
0.000320825
0.00266082
0.00528508
0.00781242
0.00988698
0.0114931
0.012963
0.0146061
0.0164875
0.0183896
0.0199207
0.0211543
0.0220334
0.0236597
-0.00630673
-0.00826695
-0.0088858
-0.00802831
-0.00610952
-0.00389144
-0.00188054
-0.000223358
0.00146708
0.00348574
0.00577859
0.00798444
0.00980537
0.0112437
0.0125957
0.0141178
0.015865
0.0176743
0.0191415
0.020298
0.0212303
0.0227258
-0.00271956
-0.00403249
-0.0046565
-0.00435968
-0.00313027
-0.00140949
0.000220007
0.00158585
0.00295809
0.0046243
0.00653926
0.00842375
0.0100326
0.0113184
0.0125089
0.0138623
0.0154742
0.017141
0.0184957
0.0195745
0.0205362
0.021875
0.00114993
-0.000419671
-0.00144855
-0.00136994
-0.000299702
0.00116096
0.00247627
0.00353273
0.00458782
0.00591108
0.00750182
0.00913598
0.0105467
0.0116118
0.0126275
0.0138232
0.0152945
0.0167812
0.0180352
0.0190295
0.0199478
0.0211895
0.00355607
0.00221448
0.00154112
0.00172818
0.00259358
0.00371299
0.00468017
0.00543364
0.0062312
0.00730435
0.00866128
0.0100375
0.0111961
0.0120742
0.0129561
0.0140039
0.0152953
0.0166272
0.01778
0.0186577
0.0194824
0.0206388
0.00612076
0.00515239
0.0045505
0.00457203
0.00515962
0.00598803
0.00672207
0.00729249
0.00791591
0.00877795
0.00989098
0.011016
0.0119795
0.0127128
0.0134413
0.014327
0.0154414
0.0166134
0.0176023
0.0183954
0.0191461
0.0202026
0.00858863
0.00765735
0.00704608
0.0070067
0.00747081
0.00812449
0.00868624
0.00909835
0.00956063
0.0102404
0.0111377
0.0120523
0.0128339
0.0134347
0.0140219
0.0147695
0.0157138
0.0167324
0.0175714
0.0182727
0.0189538
0.0199003
0.0105556
0.00979138
0.00930037
0.00925843
0.00960663
0.010097
0.0105055
0.0107906
0.0111188
0.0116317
0.0123386
0.0130944
0.0137412
0.0142246
0.0146823
0.0152976
0.0160936
0.0169572
0.0176663
0.0182636
0.0188592
0.0196771
0.0123146
0.0117277
0.0113297
0.0112707
0.0115128
0.0118633
0.0121428
0.0123272
0.0125543
0.0129561
0.0135313
0.0141461
0.0146425
0.0150052
0.0153617
0.0158737
0.0165352
0.0172465
0.0178401
0.0183385
0.0188598
0.0195557
0.0138819
0.0134199
0.0130861
0.0130104
0.0131686
0.0134138
0.0136088
0.0137405
0.0139094
0.0142112
0.0146372
0.0150943
0.0154745
0.0157705
0.0160631
0.0164696
0.0169982
0.0175762
0.0180721
0.0184865
0.0189311
0.0195189
0.0151484
0.0148037
0.0145539
0.0144956
0.0146096
0.0147877
0.0149212
0.014997
0.0150927
0.0152945
0.015608
0.015967
0.0162747
0.0165069
0.0167302
0.0170445
0.0174688
0.0179322
0.0183382
0.0186807
0.019058
0.019541
0.0161958
0.0159738
0.0158051
0.0157561
0.0158164
0.0159173
0.01599
0.0160315
0.0160966
0.0162445
0.0164752
0.0167377
0.0169639
0.0171412
0.0173198
0.017568
0.0178982
0.01826
0.0185897
0.0188786
0.0191927
0.0195851
0.0170772
0.0169302
0.0168098
0.0167636
0.0167893
0.016846
0.0168897
0.0169159
0.0169572
0.0170519
0.0172041
0.0173842
0.0175508
0.0176928
0.0178402
0.0180349
0.0182884
0.0185679
0.0188314
0.0190721
0.0193337
0.0196553
0.0176775
0.0175998
0.0175402
0.0175219
0.0175402
0.017571
0.0175904
0.0176
0.0176226
0.0176838
0.0177867
0.0179128
0.018036
0.0181487
0.0182695
0.0184234
0.0186179
0.0188337
0.019047
0.0192527
0.0194747
0.0197347
0.0180169
0.0179773
0.0179472
0.0179349
0.0179391
0.0179525
0.0179676
0.0179859
0.0180159
0.0180667
0.0181389
0.0182262
0.0183204
0.0184198
0.0185312
0.0186634
0.0188189
0.0189917
0.0191721
0.0193574
0.0195545
0.0197743
0.0182903
0.018272
0.0182576
0.0182496
0.0182475
0.0182503
0.0182567
0.018269
0.0182915
0.0183287
0.0183816
0.0184483
0.0185262
0.0186143
0.0187148
0.0188305
0.0189631
0.0191115
0.0192718
0.0194421
0.0196223
0.0198179
-0.16924
-0.162879
-0.150375
-0.145462
-0.131122
-0.14161
-0.137507
-0.125426
-0.120115
-0.114466
-0.121692
-0.119134
-0.111133
-0.106881
-0.103742
-0.105103
-0.102518
-0.0969343
-0.0917166
-0.0895526
-0.0857398
-0.0816781
-0.0771393
-0.0764131
-0.0719947
-0.0696346
-0.0666314
-0.0665738
-0.0608024
-0.0594591
-0.0571558
-0.0573113
-0.0507408
-0.049485
-0.0477617
-0.0483404
-0.0415235
-0.0405153
-0.0397134
-0.0407195
-0.033869
-0.0332092
-0.0329772
-0.034057
-0.0273074
-0.026695
-0.0265777
-0.0276677
-0.0212482
-0.0207374
-0.020868
-0.0221709
-0.0158924
-0.0154976
-0.0157571
-0.0170361
-0.011116
-0.0108863
-0.0113725
-0.0127183
-0.0072463
-0.00720507
-0.00741378
-0.00805126
-0.00328895
-0.00286183
-0.00297932
-0.00418694
0.000214024
0.00019248
-0.000446433
-0.00145253
0.00249052
0.00251861
0.00251017
0.00223233
0.00537028
0.00568485
0.00561041
0.00488144
0.00776996
0.00779095
0.00750345
0.00696355
0.00953068
0.00962291
0.00959357
0.00930629
0.0113936
0.0115326
0.0115043
0.0111957
0.0129791
0.0130488
0.0130084
0.0127836
0.0143034
0.0143639
0.0143669
0.0142291
0.0155029
0.0155405
0.0155317
0.0154157
0.0164601
0.0164542
0.0164342
0.0163615
0.0172364
0.0172282
0.0172202
0.0171809
0.0178198
0.0177981
0.0177764
0.0177404
0.0181618
0.0181226
0.0180891
0.0180556
0.018398
0.0183631
0.0183348
0.0183112
)
;

boundaryField
{
    outlet
    {
        type            fixedValue;
        value           nonuniform 0();
    }
    upperWall
    {
        type            symmetryPlane;
    }
    lowerWall
    {
        type            symmetryPlane;
    }
    inlet
    {
        type            zeroGradient;
    }
    cylinder
    {
        type            zeroGradient;
    }
    frontAndBack
    {
        type            empty;
    }
    procBoundary6to2
    {
        type            processor;
        value           nonuniform List<scalar> 
37
(
-1.19636
-1.23447
-1.2739
-1.30222
-1.31131
-1.30373
-1.27734
-1.2173
-1.11701
-1.00017
-0.889043
-0.803031
-0.743967
-0.715007
-0.711558
-0.733765
-0.777354
-0.860059
-1.00742
-1.09966
-1.08072
-0.932865
-0.735076
-0.558869
-0.434884
-0.359532
-0.325295
-0.322742
-0.359527
-0.442699
-0.570501
-0.713094
-0.787516
-0.731826
-0.60383
-0.458264
-0.363128
)
;
    }
    procBoundary6to5
    {
        type            processor;
        value           nonuniform List<scalar> 
63
(
-0.626175
-0.626175
-0.547032
-0.49238
-0.49238
-0.435706
-0.390272
-0.390272
-0.348485
-0.311878
-0.278367
-0.278367
-0.24719
-0.220643
-0.196711
-0.196711
-1.16486
-1.14973
-1.14973
-1.0885
-1.01781
-0.954454
-0.889799
-0.889799
-0.890289
-0.890289
-0.88513
-0.88513
-0.814454
-0.814454
-0.718606
-0.718606
-0.17186
-0.145864
-0.124733
-0.107277
-0.0888199
-0.0888199
-0.0746912
-0.0629772
-0.0528088
-0.0434606
-0.0353204
-0.028392
-0.022157
-0.0166154
-0.0117117
-0.00759423
-0.0038435
-0.000203482
0.00234256
0.00497311
0.00752673
0.00938642
0.0112185
0.0128837
0.0142608
0.0154822
0.0164852
0.0172691
0.0178552
0.018211
0.0184412
)
;
    }
    procBoundary6to7
    {
        type            processor;
        value           nonuniform List<scalar> 
42
(
-0.324738
-0.318233
-0.306115
-0.28407
-0.252212
-0.219986
-0.219986
-0.115617
-0.0937887
-0.0779653
-0.0587814
-0.0587814
-0.013706
0.000494699
0.00999956
0.0189719
0.0216865
0.0270731
0.0265783
0.0291653
0.0278968
0.0287977
0.0281792
0.027539
0.0268469
0.0258933
0.0250189
0.0241227
0.02326
0.0224925
0.0218206
0.0212563
0.0208885
0.0205521
0.020329
0.0201778
0.0200874
0.0200352
0.0200159
0.0200221
0.0200121
0.0200267
)
;
    }
}


// ************************************************************************* //
