/*--------------------------------*- C++ -*----------------------------------*\
| =========                 |                                                 |
| \\      /  F ield         | OpenFOAM: The Open Source CFD Toolbox           |
|  \\    /   O peration     | Version:                                        |
|   \\  /    A nd           | Website:  www.openfoam.com                      |
|    \\/     M anipulation  |                                                 |
\*---------------------------------------------------------------------------*/
FoamFile
{
    version     2.0;
    format      ascii;
    class       volVectorField;
    location    "197.3";
    object      U;
}
// * * * * * * * * * * * * * * * * * * * * * * * * * * * * * * * * * * * * * //

dimensions      [0 1 -1 0 0 0 0];


internalField   nonuniform List<vector> 
1147
(
(0.0830867 0.0637983 2.60447e-20)
(0.0749092 0.0657031 1.25103e-19)
(0.0525037 0.0484124 4.44834e-19)
(0.0356528 0.0251786 -6.12463e-19)
(0.0244239 0.011449 2.21769e-19)
(-0.0122218 0.0280341 9.75103e-20)
(-0.0125605 0.0799877 -7.0027e-20)
(0.0695239 0.0998008 4.07869e-19)
(0.239091 0.0238406 -7.54188e-20)
(0.464981 -0.0962432 -6.55793e-20)
(0.123109 0.0827208 1.51653e-19)
(0.0939498 0.110797 6.63769e-19)
(0.0668491 0.100819 -2.44991e-19)
(0.076351 0.0880893 -3.56138e-20)
(0.129 0.0998792 3.40745e-19)
(0.308061 0.101323 -5.66863e-19)
(0.734305 0.0163545 2.00976e-19)
(1.00195 -0.0791047 -1.91676e-19)
(1.10924 -0.135296 8.26843e-20)
(1.24882 -0.202794 4.25653e-21)
(0.145343 0.0621499 -5.31492e-20)
(0.109387 0.132195 -4.8861e-19)
(0.153801 0.155967 9.78103e-20)
(0.344814 0.138658 -6.34924e-20)
(0.707508 0.0758244 -1.37098e-19)
(1.02926 0.0119513 2.01718e-19)
(1.20633 -0.0261035 -1.33144e-19)
(1.33883 -0.104998 -1.16782e-19)
(1.39023 -0.173077 5.6775e-21)
(1.43086 -0.226599 -1.22721e-20)
(0.203496 0.0707725 6.53794e-20)
(0.23797 0.16362 2.05602e-19)
(0.492323 0.175422 -6.56643e-20)
(0.861786 0.114707 -6.08585e-21)
(1.15369 0.0522881 9.26561e-20)
(1.31771 0.00461422 1.82337e-19)
(1.38349 -0.0378644 2.93993e-19)
(1.4381 -0.102246 -1.02422e-19)
(1.4346 -0.152965 -1.15262e-19)
(1.43875 -0.198445 -2.12158e-20)
(0.337347 0.118743 5.84128e-19)
(0.521166 0.194913 -1.50657e-19)
(0.882988 0.171396 6.89507e-20)
(1.20108 0.0976607 2.28438e-20)
(1.35072 0.0506045 3.83652e-19)
(1.39473 0.0137153 -4.44754e-20)
(1.42977 -0.0397187 -1.36653e-19)
(1.43561 -0.0903781 2.69747e-19)
(1.41215 -0.132912 3.84923e-21)
(1.41372 -0.181028 4.78819e-20)
(0.559607 0.179885 -3.46164e-19)
(0.83177 0.211922 -1.58021e-19)
(1.17543 0.157987 1.413e-19)
(1.36516 0.0927098 -1.27976e-19)
(1.38527 0.0631178 -6.29915e-20)
(1.39689 0.0184224 3.74682e-19)
(1.42597 -0.0361754 -2.30895e-20)
(1.39463 -0.07731 -4.14646e-20)
(1.38727 -0.121662 -2.83654e-20)
(1.3797 -0.167193 2.01254e-20)
(0.795998 0.235722 2.01791e-20)
(1.09648 0.216465 1.94977e-19)
(1.35369 0.148363 -1.70345e-19)
(1.39619 0.101019 2.6182e-19)
(1.35219 0.0742007 -6.73734e-19)
(1.3935 0.0194315 -2.55458e-19)
(1.3932 -0.0286687 -4.95722e-20)
(1.35121 -0.0645963 3.13665e-20)
(1.37387 -0.115378 7.12929e-21)
(1.33425 -0.151504 -9.40453e-21)
(1.01133 0.275714 -6.02713e-20)
(1.29012 0.215236 5.36561e-19)
(1.41922 0.146981 -1.56248e-19)
(1.34371 0.111734 -2.56471e-20)
(1.32924 0.0798987 2.93666e-19)
(1.38674 0.0151674 1.41946e-19)
(1.33867 -0.0162262 -1.47498e-19)
(1.33127 -0.0593548 6.81864e-20)
(1.34854 -0.108511 -5.6898e-20)
(1.29336 -0.136299 1.74922e-20)
(1.19317 0.296041 4.98324e-19)
(1.39017 0.214648 4.17389e-19)
(1.38203 0.150923 -3.2107e-19)
(1.28388 0.126292 2.3495e-21)
(1.33206 0.0717264 1.83836e-19)
(1.35561 0.0176809 -7.85796e-20)
(1.29135 -0.00715503 5.66672e-20)
(1.32312 -0.058616 2.27359e-20)
(1.30893 -0.0967224 -8.34883e-20)
(1.26762 -0.125545 5.36946e-21)
(1.30073 0.303001 -3.80379e-19)
(1.38243 0.219425 -6.7868e-19)
(1.30155 0.167185 7.9382e-19)
(1.25357 0.127129 -1.54735e-19)
(1.33326 0.0666086 -1.96211e-19)
(1.30449 0.0228532 -4.23579e-20)
(1.2635 -0.00272054 1.34543e-19)
(1.31246 -0.0573482 -1.30046e-19)
(1.26208 -0.0836939 -9.525e-21)
(1.26056 -0.119744 -4.69422e-21)
(1.31259 0.235645 3.51945e-19)
(1.21993 0.171568 -3.26626e-19)
(1.25244 0.129142 1.12183e-19)
(1.30733 0.0622449 1.14501e-19)
(1.2503 0.0318583 -2.25867e-20)
(1.257 -0.0040083 4.65222e-20)
(1.28321 -0.0517756 3.4895e-20)
(1.23083 -0.0751597 5.11262e-20)
(1.25269 -0.11415 2.09053e-20)
(1.2068 0.237214 -7.53313e-22)
(1.17873 0.176941 1.47462e-19)
(1.24615 0.123301 3.41377e-20)
(1.2559 0.0640539 -2.09051e-19)
(1.2147 0.0377379 -1.80892e-20)
(1.25259 -0.00658706 -1.25536e-19)
(1.24192 -0.0451598 -1.18406e-20)
(1.21957 -0.0691252 -2.09735e-20)
(1.23068 -0.108879 -1.25837e-20)
(1.16011 0.167312 -1.56643e-19)
(1.22011 0.116852 7.8639e-20)
(1.19726 0.0694236 -2.26253e-19)
(1.20684 0.0357823 -6.25581e-20)
(1.2269 -0.00752781 3.06539e-20)
(1.21341 -0.0362764 -3.00857e-20)
(1.2077 -0.0696116 3.78027e-20)
(1.20469 -0.0965166 1.00455e-21)
(1.14338 0.142813 2.41076e-19)
(1.1721 0.117759 2.78328e-20)
(1.16741 0.0627821 1.28128e-19)
(1.18915 0.0319631 1.28053e-19)
(1.20209 -0.00510217 6.31103e-20)
(1.18743 -0.0353003 1.21638e-20)
(1.1969 -0.0640192 -3.55221e-20)
(1.17825 -0.0903868 7.1015e-21)
(1.14493 0.0974579 -5.56015e-20)
(1.13555 0.0592376 -5.77179e-20)
(1.17838 0.0241578 -9.28075e-20)
(1.16765 -0.00482274 7.04716e-22)
(1.17705 -0.0337027 -2.31451e-21)
(1.17539 -0.0630495 8.03502e-21)
(1.16581 -0.0823133 5.99589e-21)
(1.10641 0.0857628 6.49347e-20)
(1.12031 0.0462644 1.05162e-19)
(1.15798 0.0199579 -2.98949e-20)
(1.14246 -0.00919086 -9.2228e-21)
(1.16831 -0.0337209 7.58729e-20)
(1.15468 -0.0609603 -3.55286e-20)
(1.15707 -0.0807991 3.95181e-21)
(1.069 0.0629102 3.54296e-20)
(1.11747 0.0428128 -1.91606e-20)
(1.12848 0.00508318 2.82664e-20)
(1.13146 -0.00666801 4.23441e-20)
(1.15412 -0.0437524 1.94143e-20)
(1.13819 -0.0533537 2.25833e-20)
(1.14881 -0.083704 3.56772e-21)
(1.10387 0.022631 -7.88182e-20)
(1.10591 -0.000107659 -4.10336e-22)
(1.12712 -0.0164131 -8.37554e-20)
(1.13385 -0.0422258 1.11545e-20)
(1.12588 -0.0574117 -2.28076e-20)
(1.13821 -0.076909 -6.08979e-21)
(1.08209 0.0119767 -3.12704e-21)
(1.10376 0.00115792 7.08037e-20)
(1.10632 -0.0263723 -1.28636e-20)
(1.12569 -0.0349421 -2.2022e-21)
(1.10628 -0.0629777 -4.3519e-21)
(1.12634 -0.0709882 -3.53364e-21)
(1.0943 -0.000962409 4.80175e-20)
(1.06408 -0.00862783 -1.40661e-19)
(1.11295 -0.0337002 3.60906e-21)
(1.08992 -0.0447956 -1.33282e-20)
(1.11091 -0.0604966 1.08293e-20)
(1.09172 -0.0791347 -8.14677e-22)
(0.0417171 0.657253 -2.04155e-20)
(2.71104e-05 0.471415 -4.4264e-20)
(-0.0259483 0.300408 -6.33547e-21)
(-0.0808822 0.0767049 -2.25603e-20)
(-0.119293 -0.0965699 1.80843e-19)
(-0.139738 -0.231234 -6.4687e-20)
(-0.120335 -0.278186 3.17979e-20)
(-0.0676882 -0.223418 4.76384e-19)
(0.0136632 -0.0830509 4.07541e-19)
(0.0707478 0.025651 -7.7274e-19)
(-0.106532 0.845949 2.62291e-20)
(-0.163237 0.667455 -4.78403e-20)
(-0.211576 0.508228 -1.17824e-19)
(-0.23594 0.276429 4.60964e-20)
(-0.228917 0.0827205 -3.42925e-19)
(-0.183316 -0.103163 -1.43241e-19)
(-0.0867667 -0.227247 -1.27733e-19)
(0.00434882 -0.260151 7.79291e-20)
(0.0913544 -0.148087 -1.94811e-19)
(0.132023 -0.00673537 2.60633e-19)
(-0.186389 0.928741 1.94196e-20)
(-0.275 0.801414 3.1675e-20)
(-0.350856 0.660243 1.49534e-19)
(-0.362538 0.479071 -1.29873e-19)
(-0.312911 0.27894 4.7602e-19)
(-0.199459 0.079199 1.27707e-19)
(-0.037242 -0.100049 4.33393e-19)
(0.102591 -0.202389 2.43179e-20)
(0.181318 -0.165056 1.04862e-19)
(0.185915 -0.0506237 -3.33177e-20)
(-0.356833 0.944041 -1.34228e-20)
(-0.450991 0.835773 -9.51889e-20)
(-0.456944 0.675027 3.18188e-20)
(-0.373675 0.491621 -1.08555e-19)
(-0.200307 0.27427 -5.10473e-19)
(0.0096965 0.0586402 1.70471e-19)
(0.187034 -0.0947596 -3.37963e-19)
(0.263042 -0.126771 -9.97157e-19)
(0.246605 -0.0505042 -2.63364e-19)
(-0.20293 0.474631 8.06108e-19)
(0.0541281 0.230172 2.74302e-19)
(0.252656 0.0428278 -5.79567e-19)
(0.34031 -0.0321023 4.77608e-19)
(0.331332 0.00731805 4.63725e-19)
(0.111698 0.396847 -1.61801e-19)
(0.340829 0.192565 -1.67646e-19)
(0.445465 0.096976 -5.89925e-19)
(0.471788 0.0987131 -1.03438e-19)
(0.431119 0.328192 1.22828e-19)
(0.56965 0.228007 9.47928e-20)
(0.63849 0.191853 -2.15142e-20)
(0.673446 0.345381 2.74915e-19)
(0.796674 0.276038 1.6422e-19)
(0.952258 0.341429 -9.16713e-19)
(1.06201 -0.0668212 -3.43261e-22)
(1.07135 -0.0605095 2.91068e-21)
(1.08159 -0.046727 -3.16298e-21)
(1.07248 -0.0499618 1.1431e-21)
(1.05514 -0.0421047 9.23419e-22)
(1.04188 -0.0375616 -1.78613e-22)
(1.03552 -0.0320797 -7.57867e-22)
(1.03536 -0.029763 2.18317e-22)
(1.03777 -0.02956 3.41545e-22)
(1.04041 -0.0295554 -4.59664e-22)
(1.04162 -0.0291445 1.64525e-22)
(1.04114 -0.0275695 1.40269e-24)
(1.03901 -0.0254429 5.56657e-23)
(1.03531 -0.0226259 1.69409e-24)
(1.03113 -0.0200869 -3.23394e-23)
(1.0278 -0.0179279 4.99793e-23)
(1.02526 -0.0163248 -3.05224e-23)
(1.02356 -0.0149577 -2.43025e-23)
(1.02226 -0.0137074 -3.69472e-24)
(1.02111 -0.0123636 -7.77137e-24)
(1.01998 -0.0110039 -1.40855e-23)
(1.01888 -0.00962652 -6.68413e-23)
(1.01782 -0.00829909 1.39405e-23)
(1.01687 -0.00701771 -1.36138e-22)
(1.01601 -0.00575192 -3.83313e-23)
(1.01527 -0.00457236 8.73368e-23)
(1.01463 -0.0035463 -1.9919e-24)
(1.01412 -0.00226004 -8.71944e-24)
(1.01375 -0.00134486 7.63448e-23)
(1.01358 -0.000616874 -1.76128e-22)
(1.12032 -0.0508133 -2.05881e-20)
(1.08261 -0.0638899 6.10449e-21)
(1.04289 -0.0570606 1.49806e-21)
(1.03553 -0.0582053 4.60838e-22)
(1.04434 -0.0533653 -2.25946e-22)
(1.05067 -0.0529371 -3.61973e-22)
(1.05029 -0.0484579 -1.21189e-21)
(1.04656 -0.0432973 1.69725e-21)
(1.04337 -0.0369322 3.00616e-22)
(1.04081 -0.0318589 -1.34573e-21)
(1.03906 -0.0283001 8.12084e-23)
(1.03729 -0.0269158 1.89841e-23)
(1.03504 -0.0257068 6.7907e-23)
(1.03207 -0.0249423 6.87028e-23)
(1.02934 -0.0237882 1.5154e-22)
(1.02708 -0.022291 -1.69891e-22)
(1.02541 -0.020149 -5.56664e-23)
(1.02442 -0.0178886 3.14137e-22)
(1.02349 -0.015598 -4.98569e-22)
(1.02247 -0.0135305 -2.34414e-23)
(1.02126 -0.0116834 3.44294e-22)
(1.01999 -0.0100385 2.33743e-22)
(1.01874 -0.00854035 -2.73512e-23)
(1.01764 -0.00713828 2.57894e-22)
(1.01665 -0.00581176 -1.73913e-23)
(1.01583 -0.0045919 -1.1581e-22)
(1.01513 -0.00355405 1.03773e-22)
(1.01458 -0.00227659 1.35456e-23)
(1.01416 -0.00135469 -1.85528e-22)
(1.01395 -0.000617811 1.38106e-22)
(1.05264 -0.0438957 2.18394e-20)
(1.06248 -0.0451307 -3.15023e-22)
(1.08148 -0.0370524 -9.66317e-21)
(1.07799 -0.0401152 1.4319e-21)
(1.0607 -0.0358274 -3.63058e-21)
(1.04632 -0.033176 4.47317e-21)
(1.04007 -0.0315617 7.30969e-21)
(1.04013 -0.0317851 -4.2995e-21)
(1.04156 -0.0326605 5.42216e-22)
(1.04238 -0.0318266 1.13603e-21)
(1.04191 -0.030704 -1.05043e-21)
(1.04099 -0.0285143 1.3417e-22)
(1.0385 -0.0259329 -7.63714e-23)
(1.03481 -0.0229626 1.19049e-22)
(1.03136 -0.020434 2.22926e-23)
(1.02846 -0.0180325 8.75232e-24)
(1.02621 -0.0162137 -6.61372e-22)
(1.02464 -0.0146932 2.55951e-22)
(1.02328 -0.0132973 5.39261e-23)
(1.02208 -0.0118866 3.65665e-23)
(1.02091 -0.0105159 2.6884e-22)
(1.01974 -0.00918014 -2.58419e-23)
(1.01856 -0.00792928 -5.7529e-23)
(1.01752 -0.00673903 -7.07301e-22)
(1.01653 -0.00554798 6.52648e-22)
(1.01572 -0.00443182 -6.73661e-22)
(1.01504 -0.00345785 -7.40355e-23)
(1.0145 -0.00222362 -1.85824e-22)
(1.01409 -0.00132992 -5.02077e-23)
(1.01387 -0.00060809 2.68561e-22)
(1.11103 -0.0264179 3.66943e-20)
(1.06421 -0.0363926 -2.11368e-20)
(1.02418 -0.0388673 -7.15748e-22)
(1.02157 -0.048406 3.32903e-21)
(1.03526 -0.0509924 -5.49608e-21)
(1.04306 -0.0522305 5.2759e-21)
(1.04261 -0.0464404 1.8898e-22)
(1.03977 -0.0398874 -3.87526e-21)
(1.03883 -0.0325993 3.55568e-21)
(1.03757 -0.0278766 -1.4011e-22)
(1.03764 -0.0254863 -7.12225e-22)
(1.0375 -0.0252109 3.56584e-22)
(1.03542 -0.0245262 -2.65747e-22)
(1.03279 -0.0246139 1.88624e-22)
(1.03018 -0.0238539 -4.77555e-22)
(1.02746 -0.0222561 9.62036e-22)
(1.02565 -0.0199818 2.09178e-22)
(1.02471 -0.0176242 3.48777e-23)
(1.02379 -0.0152445 -1.67113e-21)
(1.02286 -0.0131736 1.27824e-21)
(1.02177 -0.0113296 -2.17287e-22)
(1.02057 -0.00969187 -2.52294e-22)
(1.01937 -0.00823916 -5.54363e-22)
(1.01827 -0.00689337 8.076e-22)
(1.01721 -0.00562655 3.0966e-22)
(1.01634 -0.00447045 -4.10257e-22)
(1.01558 -0.00348038 2.86463e-23)
(1.01497 -0.00224985 3.62356e-22)
(1.01451 -0.00134144 2.35183e-22)
(1.01425 -0.000608265 -9.19435e-23)
(1.04711 -0.0127352 3.91085e-20)
(1.06819 -0.0248276 4.14483e-20)
(1.08211 -0.0310826 -1.87928e-20)
(1.07247 -0.0378295 -4.60123e-21)
(1.05635 -0.0366983 -6.38489e-21)
(1.04774 -0.0364629 7.01269e-21)
(1.04577 -0.0389983 -5.41434e-21)
(1.04664 -0.0405704 4.20389e-22)
(1.04574 -0.039479 2.49296e-21)
(1.0425 -0.0357673 -9.18586e-22)
(1.04093 -0.0337528 5.3288e-22)
(1.03968 -0.030285 -8.79838e-23)
(1.03618 -0.0266653 1.79026e-23)
(1.03374 -0.023863 2.57113e-22)
(1.03149 -0.0213765 1.4455e-23)
(1.02878 -0.0186815 -2.55801e-22)
(1.02701 -0.0167272 -4.99093e-22)
(1.02551 -0.0149263 -4.63541e-23)
(1.02405 -0.0132526 5.49423e-22)
(1.0228 -0.0117277 8.03813e-22)
(1.02158 -0.0102888 -6.78401e-22)
(1.02032 -0.00893943 -4.06591e-22)
(1.01915 -0.00771739 3.85216e-22)
(1.01806 -0.00655747 -4.90225e-22)
(1.01702 -0.00540866 -4.43614e-22)
(1.01619 -0.00434036 5.31518e-22)
(1.01545 -0.00340114 -3.97798e-22)
(1.01486 -0.00220663 -2.20567e-22)
(1.01441 -0.00131929 8.26753e-23)
(1.01415 -0.000598529 -5.56814e-22)
(1.04187 -0.0261511 -1.53383e-21)
(1.04015 -0.0250793 6.93975e-24)
(1.03671 -0.0239979 1.04698e-21)
(1.03528 -0.0249598 -6.25015e-22)
(1.03168 -0.0239798 5.15489e-23)
(1.0283 -0.0221907 -8.87265e-22)
(1.02663 -0.0199589 1.22342e-21)
(1.02536 -0.0174125 -9.4318e-22)
(1.02432 -0.014961 2.09682e-22)
(1.02338 -0.0129292 -6.43241e-22)
(1.02222 -0.0110811 7.29884e-22)
(1.02096 -0.00946037 8.7467e-22)
(1.01982 -0.00804965 4.50763e-22)
(1.01866 -0.00672588 5.84346e-22)
(1.0176 -0.00550783 -1.21787e-21)
(1.01674 -0.00439758 8.61731e-23)
(1.01594 -0.00343534 2.15743e-22)
(1.01531 -0.00224349 8.12204e-22)
(1.01483 -0.00133562 -1.7071e-22)
(1.01455 -0.000599607 -1.61848e-22)
(0.982469 -0.144666 -4.9083e-21)
(0.99815 -0.134476 1.34566e-21)
(1.00863 -0.127037 1.16077e-20)
(1.02368 -0.123887 2.61712e-20)
(1.04047 -0.117781 -2.51521e-20)
(1.05646 -0.113269 1.15691e-20)
(1.06129 -0.110603 2.62771e-20)
(1.08767 -0.0995232 1.02521e-20)
(1.07645 -0.0993273 -1.36901e-20)
(1.10561 -0.0818858 7.67255e-22)
(0.977199 -0.153602 9.38244e-21)
(0.994784 -0.154035 -8.77739e-21)
(1.00737 -0.147649 4.69494e-21)
(1.02425 -0.143461 -2.32307e-20)
(1.04155 -0.136493 -7.0088e-21)
(1.06282 -0.12834 4.67927e-20)
(1.07076 -0.12275 -9.27285e-21)
(1.08689 -0.110096 -3.66523e-21)
(1.10408 -0.100591 -3.76883e-21)
(1.09741 -0.0884053 -3.22085e-22)
(0.970359 -0.15723 3.63954e-21)
(0.993562 -0.165941 3.12678e-21)
(1.00997 -0.160077 1.31865e-20)
(1.03003 -0.157136 -8.1334e-21)
(1.04874 -0.151543 -3.08765e-20)
(1.06701 -0.138907 -9.30188e-21)
(1.09236 -0.132493 -3.63623e-20)
(1.08716 -0.118393 -1.86785e-20)
(1.12577 -0.105227 -1.17154e-20)
(1.10674 -0.0919191 2.11869e-21)
(0.963333 -0.164606 4.93483e-21)
(0.990169 -0.174478 2.08315e-21)
(1.01252 -0.171588 -4.53266e-20)
(1.03294 -0.164846 3.00229e-21)
(1.06249 -0.163312 -9.51821e-21)
(1.06682 -0.150188 4.42786e-21)
(1.10915 -0.139605 4.03339e-20)
(1.09987 -0.126842 -1.38112e-21)
(1.13334 -0.114082 4.81635e-20)
(1.12618 -0.092756 4.38114e-21)
(0.959644 -0.178888 4.03565e-21)
(0.985533 -0.186106 9.05839e-21)
(1.01459 -0.185075 3.67619e-20)
(1.02943 -0.177274 3.06018e-20)
(1.0706 -0.171113 1.77317e-20)
(1.07697 -0.163909 2.77618e-20)
(1.10642 -0.148857 -7.85762e-21)
(1.12198 -0.134978 1.40193e-20)
(1.13442 -0.120742 -2.3985e-21)
(1.14519 -0.10164 -6.65115e-21)
(0.95937 -0.195892 -2.7997e-21)
(0.982243 -0.20228 -3.80914e-21)
(1.01868 -0.200458 -1.04552e-20)
(1.03288 -0.194673 -5.33321e-20)
(1.06466 -0.184364 1.62424e-20)
(1.09349 -0.175439 -1.85703e-20)
(1.10578 -0.161563 -6.89987e-21)
(1.13267 -0.146546 -1.98342e-20)
(1.14338 -0.125266 -3.34239e-21)
(1.15879 -0.111675 8.92751e-21)
(0.960523 -0.215917 -2.07915e-21)
(0.981394 -0.220172 -2.36839e-20)
(1.01674 -0.218862 1.8419e-20)
(1.04642 -0.212292 7.08722e-20)
(1.0642 -0.201789 3.96243e-20)
(1.09924 -0.191703 6.83294e-20)
(1.11796 -0.172405 4.06892e-22)
(1.13906 -0.160743 2.25846e-21)
(1.1551 -0.13441 -8.17735e-21)
(1.1722 -0.117422 8.36304e-21)
(0.956297 -0.235119 -1.05699e-22)
(0.987907 -0.241344 -1.96644e-21)
(1.01461 -0.237491 -1.95745e-20)
(1.05206 -0.233222 -7.44956e-21)
(1.07803 -0.216994 -7.24648e-20)
(1.10318 -0.210082 -3.33765e-20)
(1.13294 -0.186829 4.17717e-20)
(1.14844 -0.172605 -5.03872e-20)
(1.17453 -0.145856 4.23556e-20)
(1.18034 -0.125632 -9.8627e-21)
(0.946179 -0.258182 -4.06645e-21)
(0.987937 -0.26217 1.59914e-20)
(1.02254 -0.260062 -2.37903e-20)
(1.05365 -0.253704 -4.93804e-21)
(1.08943 -0.239002 -6.3047e-20)
(1.11448 -0.224575 1.5506e-20)
(1.14571 -0.205791 -7.22429e-20)
(1.16303 -0.184528 5.87205e-21)
(1.19272 -0.160194 -1.13168e-20)
(1.19454 -0.131805 -1.2751e-20)
(0.942221 -0.28374 7.83682e-21)
(0.98277 -0.287197 6.9143e-21)
(1.02572 -0.28243 -2.70219e-20)
(1.06372 -0.277522 -2.83715e-20)
(1.09539 -0.259879 1.2902e-19)
(1.13269 -0.246129 2.37719e-20)
(1.15394 -0.220339 1.87997e-20)
(1.18775 -0.202984 -9.43925e-21)
(1.20354 -0.169574 2.96767e-20)
(1.21834 -0.145733 1.17556e-20)
(0.938771 -0.313087 -1.82002e-20)
(0.985133 -0.315274 -3.54196e-20)
(1.02367 -0.309724 9.22229e-20)
(1.07418 -0.301322 -6.31244e-20)
(1.10088 -0.285162 3.17813e-20)
(1.15138 -0.266305 -7.32787e-20)
(1.1616 -0.239763 -1.44746e-20)
(1.21498 -0.219537 -6.06846e-21)
(1.20997 -0.181864 6.64731e-21)
(1.25392 -0.159723 -1.21866e-21)
(0.934509 -0.345779 2.48616e-20)
(0.987659 -0.346096 2.65698e-20)
(1.03083 -0.341164 -5.46748e-20)
(1.0794 -0.327555 1.14627e-20)
(1.11751 -0.312659 1.52535e-20)
(1.16203 -0.288282 -1.3133e-20)
(1.18322 -0.261503 1.17155e-20)
(1.23354 -0.236167 2.25097e-20)
(1.22801 -0.196225 -1.21989e-20)
(1.28788 -0.174297 -3.0987e-20)
(0.936854 -0.384234 1.32114e-20)
(0.984191 -0.380856 -1.29495e-20)
(1.04657 -0.377964 7.18291e-22)
(1.08191 -0.357906 2.01676e-20)
(1.14263 -0.345252 6.14677e-20)
(1.1691 -0.311898 3.56889e-20)
(1.2167 -0.28918 4.87113e-20)
(1.24386 -0.252096 -2.57472e-20)
(1.26453 -0.216573 -4.42183e-20)
(1.30725 -0.185646 3.49315e-20)
(0.936833 -0.423709 6.74378e-21)
(0.98487 -0.421265 2.05834e-20)
(1.05752 -0.41524 -2.82916e-20)
(1.09533 -0.394144 -1.40359e-20)
(1.16305 -0.377367 -1.96201e-19)
(1.18777 -0.340838 -8.0077e-20)
(1.24764 -0.315539 -1.51491e-19)
(1.26074 -0.270933 5.70799e-20)
(1.30516 -0.237825 1.67699e-20)
(1.32122 -0.194674 -2.36699e-20)
(0.927457 -0.467256 -9.97541e-21)
(0.993045 -0.469054 -1.87648e-21)
(1.05856 -0.455254 2.39136e-20)
(1.11776 -0.436749 -1.07804e-19)
(1.174 -0.4101 -1.77608e-20)
(1.21869 -0.37609 8.73378e-20)
(1.26817 -0.340885 1.35104e-19)
(1.29159 -0.296976 -1.33617e-19)
(1.33748 -0.256496 5.96893e-20)
(1.34285 -0.209225 -9.04596e-22)
(0.923428 -0.519609 -3.55206e-20)
(1.00444 -0.520437 8.85652e-20)
(1.06761 -0.502845 9.20814e-21)
(1.14367 -0.481372 -1.16715e-20)
(1.19257 -0.446967 2.80374e-19)
(1.25526 -0.411676 -1.65145e-19)
(1.29144 -0.36731 -1.13755e-20)
(1.33471 -0.323828 7.83636e-20)
(1.3645 -0.274204 9.68062e-20)
(1.3831 -0.228008 1.05111e-20)
(0.920798 -0.583752 5.51876e-20)
(1.00944 -0.582054 -7.20818e-20)
(1.0834 -0.562359 -1.06631e-19)
(1.16443 -0.535706 1.57919e-19)
(1.22217 -0.494586 -8.37056e-20)
(1.28734 -0.450321 1.45842e-19)
(1.32879 -0.397966 2.75252e-19)
(1.37324 -0.348907 -7.38705e-20)
(1.39914 -0.295896 -9.823e-20)
(1.42065 -0.248041 -2.79811e-20)
(0.921787 -0.649339 -1.82609e-19)
(1.01795 -0.649738 -6.42823e-20)
(1.10319 -0.625964 -5.23964e-21)
(1.18594 -0.600175 4.60525e-20)
(1.25642 -0.554819 -1.04891e-19)
(1.31857 -0.506345 1.38821e-19)
(1.36834 -0.445673 -1.85477e-19)
(1.40164 -0.383513 3.67941e-20)
(1.42815 -0.329345 -2.62406e-20)
(1.42995 -0.269061 -1.0548e-20)
(0.936739 -0.729829 1.35579e-19)
(1.03719 -0.714997 6.83163e-20)
(1.14563 -0.677388 1.51115e-20)
(1.22386 -0.633191 -5.31103e-20)
(1.30567 -0.568607 1.16593e-19)
(1.35345 -0.50902 -1.54641e-19)
(1.39396 -0.435047 -1.97795e-19)
(1.39844 -0.366686 -6.81406e-21)
(1.37993 -0.300969 8.0216e-21)
(1.33162 -0.2365 6.7284e-20)
(0.711295 -0.709577 8.91553e-20)
(0.787729 -0.687131 -3.5436e-19)
(0.876987 -0.652569 -3.45894e-20)
(0.922205 -0.59661 4.10206e-19)
(0.976672 -0.527757 -4.10943e-19)
(0.974404 -0.454682 1.64681e-19)
(0.972332 -0.372491 -1.10888e-19)
(0.91918 -0.303991 3.34568e-20)
(0.828904 -0.216882 7.1702e-20)
(0.721961 -0.162151 4.71553e-20)
(0.896688 -0.0954125 -7.0394e-20)
(0.913267 -0.111652 -5.48918e-20)
(0.931621 -0.121633 2.02009e-20)
(0.955126 -0.127433 2.51016e-21)
(0.880404 -0.0877841 -4.1053e-20)
(0.895912 -0.100096 -1.42832e-20)
(0.915234 -0.116509 1.50998e-20)
(0.934789 -0.127255 4.03508e-20)
(0.95688 -0.129922 9.90586e-21)
(0.846967 -0.0556034 -4.72071e-20)
(0.858406 -0.0738616 1.68862e-20)
(0.873662 -0.0952493 3.44836e-20)
(0.89065 -0.108385 1.0833e-19)
(0.911163 -0.125076 -1.60604e-20)
(0.932203 -0.139512 -5.6079e-20)
(0.951525 -0.139143 -7.65072e-21)
(0.81843 0.013185 -4.37592e-21)
(0.819513 -0.0126431 4.04478e-20)
(0.824696 -0.0354286 4.32273e-21)
(0.834654 -0.0615406 -4.89119e-21)
(0.84703 -0.0814342 9.0108e-21)
(0.86356 -0.105046 -4.36698e-20)
(0.881546 -0.119137 -1.05397e-19)
(0.902911 -0.136031 9.05749e-20)
(0.925657 -0.154028 3.80978e-20)
(0.945909 -0.155559 -2.66794e-20)
(0.80212 0.0144311 -3.60974e-21)
(0.803494 -0.0143741 9.69509e-21)
(0.809205 -0.0397838 -3.53305e-22)
(0.820036 -0.0682499 -1.19766e-20)
(0.833162 -0.0900137 5.9176e-20)
(0.850679 -0.116177 2.00867e-20)
(0.869882 -0.132396 5.9192e-21)
(0.891192 -0.147963 1.17886e-20)
(0.91718 -0.168898 2.36924e-20)
(0.941348 -0.174222 -8.67e-21)
(0.78401 0.0155797 7.02153e-21)
(0.785883 -0.0163624 2.85704e-20)
(0.79214 -0.0445608 5.34324e-21)
(0.803688 -0.075668 1.80795e-20)
(0.817796 -0.0991356 -9.13042e-20)
(0.83647 -0.127961 6.64789e-20)
(0.857584 -0.147266 -1.87167e-20)
(0.878529 -0.162198 -3.51317e-20)
(0.906062 -0.182465 -4.56396e-21)
(0.936579 -0.193806 -6.54667e-21)
(0.763127 0.0164813 -6.26358e-21)
(0.765584 -0.0188018 2.81724e-20)
(0.772545 -0.0498915 -5.23762e-21)
(0.784974 -0.0839681 -1.92248e-20)
(0.800279 -0.109314 -5.63921e-21)
(0.820281 -0.140185 -6.32185e-20)
(0.844547 -0.163655 8.66889e-20)
(0.865911 -0.179127 -3.67436e-20)
(0.893873 -0.197676 -6.71153e-21)
(0.927943 -0.211774 1.8771e-20)
(0.739985 0.017183 -4.99176e-22)
(0.742924 -0.0216922 -2.95195e-20)
(0.75065 -0.0558257 -1.02262e-19)
(0.764056 -0.0933502 8.93787e-21)
(0.780994 -0.121038 -4.0631e-20)
(0.80231 -0.153145 2.23906e-20)
(0.830956 -0.180451 -6.11936e-20)
(0.854734 -0.19901 5.67289e-20)
(0.882784 -0.215432 -9.08002e-21)
(0.91615 -0.231689 -1.74673e-20)
(0.713407 0.0176069 1.04617e-20)
(0.716749 -0.0251445 1.63401e-20)
(0.725508 -0.0626031 7.79065e-20)
(0.740297 -0.103866 6.359e-21)
(0.759203 -0.134953 -2.10225e-20)
(0.781238 -0.168129 6.58411e-21)
(0.814361 -0.198265 -5.40327e-20)
(0.842731 -0.220873 2.44506e-20)
(0.874184 -0.237024 -1.551e-20)
(0.907574 -0.25384 2.24449e-20)
(0.684119 0.0181275 -1.69267e-20)
(0.687943 -0.0291624 -3.66985e-20)
(0.697715 -0.0702058 -2.14891e-20)
(0.714063 -0.115369 5.03804e-20)
(0.735896 -0.150895 4.72584e-20)
(0.758529 -0.185649 2.94211e-20)
(0.795507 -0.217335 -3.93826e-20)
(0.829286 -0.244366 -2.60939e-21)
(0.864331 -0.261277 -1.1274e-20)
(0.901933 -0.279203 -4.73877e-21)
(0.650857 0.0184577 1.77917e-20)
(0.655081 -0.0338156 7.52276e-21)
(0.666206 -0.079208 2.96792e-20)
(0.684563 -0.128165 -8.08451e-20)
(0.7101 -0.168831 2.2903e-20)
(0.733777 -0.206704 -2.60889e-20)
(0.772958 -0.239387 -9.13467e-20)
(0.812848 -0.26972 -9.68767e-21)
(0.854214 -0.288742 -5.10669e-20)
(0.894557 -0.307322 -1.97655e-20)
(0.614195 0.0187729 -3.53103e-20)
(0.619238 -0.0392471 5.97774e-20)
(0.631564 -0.0895538 3.97199e-20)
(0.651724 -0.142448 -3.22632e-20)
(0.682084 -0.188494 3.4386e-20)
(0.708527 -0.230615 4.36771e-20)
(0.749981 -0.264982 9.38861e-20)
(0.793849 -0.298034 7.39593e-20)
(0.840983 -0.318624 1.11136e-20)
(0.890023 -0.338713 3.00834e-20)
(0.572332 0.0190143 2.30122e-20)
(0.57826 -0.0454415 2.04966e-20)
(0.592274 -0.102019 -4.18048e-20)
(0.614389 -0.159246 2.06315e-20)
(0.64956 -0.210409 -1.27295e-19)
(0.680284 -0.258373 -1.38199e-20)
(0.723555 -0.294904 -2.43042e-20)
(0.773637 -0.330703 3.73581e-20)
(0.824962 -0.353859 -1.0809e-20)
(0.879541 -0.372733 -1.84439e-20)
(0.526148 0.0186636 -4.14666e-21)
(0.533097 -0.0527361 -4.8117e-20)
(0.548677 -0.116092 -1.98319e-20)
(0.572516 -0.178829 9.59629e-20)
(0.612804 -0.234987 2.32266e-19)
(0.650401 -0.288735 -3.21869e-20)
(0.697562 -0.329848 -7.31046e-20)
(0.749332 -0.366581 -2.48081e-20)
(0.811907 -0.393932 -1.10234e-20)
(0.86432 -0.411666 8.49335e-21)
(0.471973 0.0180458 -1.5032e-20)
(0.480458 -0.0611217 6.50857e-20)
(0.498512 -0.13291 -2.69859e-20)
(0.524736 -0.202369 -3.62176e-20)
(0.569265 -0.264176 -2.44227e-19)
(0.613021 -0.324144 1.38876e-19)
(0.668516 -0.370193 7.75832e-20)
(0.724143 -0.410754 -5.57816e-20)
(0.793355 -0.438188 5.61437e-20)
(0.855927 -0.460575 -6.22023e-22)
(0.412297 0.0171402 1.09653e-20)
(0.421762 -0.0710857 2.7337e-20)
(0.442222 -0.151447 5.07118e-21)
(0.471137 -0.229534 -7.73501e-20)
(0.520984 -0.297092 1.41688e-19)
(0.573265 -0.364215 -2.04555e-19)
(0.63495 -0.41553 3.98351e-20)
(0.7006 -0.460984 4.6459e-20)
(0.773473 -0.48947 -5.72337e-20)
(0.850225 -0.514005 2.94393e-20)
(0.340969 0.0149148 1.46427e-20)
(0.351208 -0.0830721 7.65949e-21)
(0.376654 -0.174105 6.10938e-20)
(0.409701 -0.26222 -8.67586e-20)
(0.461662 -0.337597 1.65862e-19)
(0.521589 -0.410599 4.88145e-20)
(0.595137 -0.469834 5.40125e-20)
(0.667349 -0.519623 -7.4229e-22)
(0.751681 -0.552537 2.3742e-20)
(0.835932 -0.577083 3.7e-21)
(0.26063 0.0129567 -1.27054e-20)
(0.272855 -0.0972934 -4.26372e-20)
(0.303315 -0.199541 -1.50051e-19)
(0.342906 -0.299195 1.30116e-19)
(0.404142 -0.383666 -1.88045e-19)
(0.466874 -0.463305 -4.42762e-20)
(0.553529 -0.52717 -5.00032e-20)
(0.636606 -0.582896 -1.83242e-20)
(0.73123 -0.61735 -7.59886e-21)
(0.827189 -0.645358 4.47065e-20)
(0.159551 0.011132 1.84548e-20)
(0.171771 -0.116524 -5.56901e-21)
(0.21244 -0.234409 1.62169e-20)
(0.252466 -0.348012 5.41484e-20)
(0.326515 -0.449543 1.56941e-19)
(0.399087 -0.539162 -9.20034e-21)
(0.497735 -0.613496 1.49628e-20)
(0.596557 -0.670942 1.67441e-20)
(0.710366 -0.709784 1.18436e-20)
(0.818038 -0.730408 2.35084e-22)
(0.051334 -0.000314454 6.85232e-21)
(0.0622042 -0.115601 -3.73736e-20)
(0.0964286 -0.226117 4.02965e-20)
(0.132385 -0.332317 1.08254e-20)
(0.19157 -0.431363 -1.72992e-20)
(0.258155 -0.517487 -1.04591e-19)
(0.339005 -0.592421 8.06234e-20)
(0.424804 -0.646523 -9.59063e-21)
(0.521422 -0.68921 -2.95888e-20)
(0.610133 -0.704968 6.83281e-20)
(0.942819 -0.0948768 -2.53122e-21)
(0.909158 -0.110771 1.57693e-20)
(0.924184 -0.120162 -6.311e-20)
(0.944339 -0.125362 -1.94541e-20)
(0.963392 -0.0899429 0)
(0.97193 -0.0950114 0)
(0.974333 -0.0893982 0)
(0.97708 -0.0816178 0)
(0.982254 -0.0741729 0)
(0.989136 -0.0694216 0)
(0.996615 -0.0663372 0)
(1.00272 -0.0632725 0)
(1.00713 -0.0598621 0)
(1.00972 -0.0553728 0)
(1.01145 -0.0503061 0)
(1.01246 -0.0446818 0)
(1.01384 -0.0392902 0)
(1.01488 -0.0343079 0)
(1.01584 -0.0300516 0)
(1.01671 -0.0265974 0)
(1.01716 -0.0238992 0)
(1.01719 -0.0216541 0)
(1.0169 -0.0196728 0)
(1.01647 -0.0177395 0)
(1.01597 -0.0158036 0)
(1.01543 -0.0138547 0)
(1.01485 -0.0119556 0)
(1.01421 -0.0101173 0)
(1.01354 -0.00836404 0)
(1.01286 -0.00672102 0)
(1.01226 -0.00505193 0)
(1.01186 -0.00301618 0)
(1.01075 -0.00157931 0)
(1.01064 -0.000642876 0)
(0.965824 -0.129924 0)
(0.975614 -0.105328 0)
(0.981035 -0.0908994 0)
(0.984866 -0.0811322 0)
(0.987499 -0.0733428 0)
(0.990209 -0.0677422 0)
(0.993894 -0.0644765 0)
(0.998809 -0.062785 0)
(1.00379 -0.0609521 0)
(1.0077 -0.0579008 0)
(1.01036 -0.0533141 0)
(1.01294 -0.0475917 0)
(1.01489 -0.0415086 0)
(1.01685 -0.0355386 0)
(1.0185 -0.0306202 0)
(1.01951 -0.0267221 0)
(1.01974 -0.0238829 0)
(1.01937 -0.0216011 0)
(1.01875 -0.0196263 0)
(1.01802 -0.0176707 0)
(1.01728 -0.0157524 0)
(1.0165 -0.0138348 0)
(1.01571 -0.0119438 0)
(1.0149 -0.0101161 0)
(1.01409 -0.00835212 0)
(1.01329 -0.00670133 0)
(1.0126 -0.00505916 0)
(1.01218 -0.00298076 0)
(1.01127 -0.00153083 0)
(1.01117 -0.000644959 0)
(0.98822 -0.122951 3.55935e-21)
(0.990458 -0.110017 -2.83325e-21)
(0.990865 -0.0997315 1.88451e-21)
(0.991578 -0.0896176 -2.31925e-21)
(0.993564 -0.0804264 9.86638e-22)
(0.99668 -0.0732866 -7.35006e-23)
(1.00084 -0.0681726 -1.06192e-22)
(1.00557 -0.0639187 -1.07916e-23)
(1.01043 -0.0602233 2.36605e-22)
(1.01444 -0.0558068 -3.41727e-22)
(1.01763 -0.0507799 8.69709e-22)
(1.0194 -0.0450363 -8.75395e-22)
(1.02079 -0.0393084 1.05029e-21)
(1.02114 -0.0339037 4.3223e-22)
(1.02093 -0.0294033 -7.9577e-22)
(1.0205 -0.0259069 -1.35788e-21)
(1.01979 -0.023321 9.2663e-22)
(1.01908 -0.0211985 -7.87528e-22)
(1.01838 -0.0192832 8.78956e-22)
(1.01778 -0.0173537 -1.74592e-21)
(1.01716 -0.0154126 1.28093e-21)
(1.01649 -0.0134622 -6.05402e-22)
(1.01576 -0.0115829 1.23204e-21)
(1.01496 -0.00977509 -1.11911e-21)
(1.01413 -0.00805573 7.42631e-22)
(1.01328 -0.00646505 -7.79342e-23)
(1.01254 -0.00488946 -5.15534e-22)
(1.01214 -0.00284923 1.96379e-22)
(1.01151 -0.00145855 -2.67533e-23)
(1.01144 -0.000636991 3.01998e-22)
(1.00571 -0.104557 1.82595e-21)
(1.00465 -0.0934658 2.13841e-21)
(1.00315 -0.082959 -4.67314e-21)
(1.00376 -0.0748859 6.38945e-21)
(1.00418 -0.0689421 -5.94895e-22)
(1.00539 -0.0649822 -2.2092e-21)
(1.00839 -0.0621726 1.60876e-21)
(1.01296 -0.0604345 -3.66968e-22)
(1.017 -0.0581476 1.1457e-21)
(1.01976 -0.0545427 -7.64038e-22)
(1.02117 -0.0498486 -6.88093e-22)
(1.02258 -0.0441741 -2.16402e-23)
(1.02335 -0.0384035 2.34732e-22)
(1.02394 -0.0328956 2.66963e-22)
(1.02433 -0.0285114 -1.77988e-21)
(1.02412 -0.0251287 2.36088e-21)
(1.02326 -0.0226694 -1.6076e-21)
(1.02203 -0.0206068 -1.22404e-21)
(1.02078 -0.0187291 3.5049e-21)
(1.01963 -0.0168139 1.11158e-21)
(1.01858 -0.0149222 -3.27254e-21)
(1.01759 -0.0130579 -3.52212e-23)