/*--------------------------------*- C++ -*----------------------------------*\
| =========                 |                                                 |
| \\      /  F ield         | OpenFOAM: The Open Source CFD Toolbox           |
|  \\    /   O peration     | Version:                                        |
|   \\  /    A nd           | Website:  www.openfoam.com                      |
|    \\/     M anipulation  |                                                 |
\*---------------------------------------------------------------------------*/
FoamFile
{
    version     2.0;
    format      ascii;
    class       surfaceScalarField;
    location    "34.4";
    object      phi;
}
// * * * * * * * * * * * * * * * * * * * * * * * * * * * * * * * * * * * * * //

dimensions      [0 3 -1 0 0 0 0];
oriented        oriented;


internalField   nonuniform List<scalar> 
2227
(
0.043873
0.00294547
-0.0468483
0.0410125
0.00282951
0.00274056
0.0436208
0.00591725
-0.0465926
0.0407606
0.00568972
0.00551228
0.0430399
0.00885258
-0.0459753
0.0401997
0.00852993
0.0420042
0.0117551
-0.0449068
0.0113295
0.0407015
0.0145649
-0.0435112
-0.0415599
0.0539765
-0.000950189
0.0537955
0.00016685
0.0546323
-0.000857684
0.0545046
0.000104849
0.0551162
-0.000636858
0.0549638
0.00012679
0.0554237
-0.000486055
0.05528
0.000117571
0.0556082
-0.000354396
0.0554435
0.000138576
0.0556252
-0.000208477
0.055418
0.00018072
0.055478
-8.81755e-05
0.0552286
0.00022222
0.0551766
2.53921e-05
0.0548799
0.000268832
0.0547234
0.000127648
0.0543521
0.000341542
0.0540792
0.000242141
0.0536215
0.000426358
0.0532314
0.000357552
0.0526772
0.000521124
0.0521692
0.000473866
0.0515156
0.000618898
0.0508947
0.000585261
0.0501435
0.000715247
0.0494183
0.000688609
0.0485778
0.000803668
0.0477636
0.00077708
0.000877971
0.0539488
-0.001866
0.053753
0.000362622
0.0545689
-0.00167357
0.0544202
0.000253568
0.0550095
-0.00122619
0.0548408
0.000295515
0.0552909
-0.000936143
0.0551317
0.000276817
0.0554499
-0.000672617
0.0552692
0.000319257
0.0554419
-0.000381182
0.0552252
0.000397456
0.0552795
-0.000142507
0.055028
0.000473756
0.0549743
7.90989e-05
0.0546755
0.000567585
0.0545149
0.000288297
0.0541402
0.000716239
0.0538654
0.000516916
0.0534063
0.000885463
0.0530183
0.000745501
0.0524664
0.00107302
0.0519644
0.000975936
0.0513146
0.00126865
0.0506995
0.00120032
0.0499486
0.00146614
0.0492224
0.00141483
0.0483707
0.00165543
0.0475397
0.00160803
0.00182513
0.0538874
-0.0027204
0.0536577
0.000592338
0.0544198
-0.00243567
0.0542313
0.000442082
0.054765
-0.00175992
0.0545719
0.00048865
0.0549828
-0.0013471
0.054804
0.000455692
0.0550811
-0.000949744
0.0548816
0.000518716
0.0550181
-0.000517644
0.0547972
0.000618333
0.054818
-0.000163266
0.054567
0.000724691
0.054487
0.000159108
0.0541808
0.000873811
0.0539965
0.000472642
0.0536144
0.00109825
0.0533219
0.000809405
0.0528573
0.00135015
0.0524574
0.00114538
0.0519037
0.00162673
0.0513956
0.00148401
0.0507474
0.00191689
0.0501302
0.0018175
0.0493817
0.00221459
0.048653
0.00214358
0.0477967
0.00251171
0.0469504
0.00245433
0.00280026
0.0537955
-0.00348287
0.053509
0.000878777
0.0541893
-0.00311595
0.0539312
0.00070022
0.054395
-0.00222377
0.054149
0.00073463
0.0545183
-0.00171636
0.054279
0.00069501
0.0545212
-0.00119197
0.0542569
0.000782988
0.0543723
-0.000632986
0.0540957
0.000894919
0.0541088
-0.000176398
0.0538093
0.00102421
0.0537234
0.000245028
0.0533698
0.00122742
0.0531736
0.000668818
0.0527503
0.00152152
0.0524466
0.00111313
0.0519466
0.00185014
0.0515372
0.00155483
0.0509538
0.00221012
0.0504386
0.00199918
0.0497638
0.00259173
0.0491396
0.00244164
0.0483644
0.00298979
0.0476273
0.00288067
0.0467456
0.00339344
0.0458958
0.00330411
0.00378928
0.0536755
-0.00412533
0.0533083
0.00124596
0.0538688
-0.00367652
0.0535302
0.00103889
0.0538948
-0.00258839
0.0535974
0.00103201
0.0538784
-0.00199736
0.0535923
0.000981124
0.0537459
-0.00134558
0.0534463
0.00108265
0.0534869
-0.000673608
0.0531941
0.00118773
0.0531318
-0.000114098
0.0528107
0.00134529
0.0526639
0.000391785
0.0522829
0.00160849
0.0520359
0.000915813
0.0515863
0.00197113
0.0512438
0.00145554
0.0507215
0.00237243
0.0502846
0.00199174
0.0496847
0.00281008
0.0491514
0.00253244
0.0484668
0.00327633
0.0478313
0.00307721
0.0470521
0.00376891
0.0463049
0.00362795
0.0454153
0.00428301
0.0445391
0.00418037
0.00481711
0.0535234
-0.00461576
0.0530523
0.00171714
0.0534589
-0.00408312
0.0530232
0.00147453
0.0532758
-0.00284097
0.0528961
0.00141167
0.0530844
-0.00218563
0.0527032
0.00136227
0.0527846
-0.00142694
0.052389
0.00147828
0.0523843
-0.00066897
0.0520037
0.00156835
0.0519152
-2.5556e-05
0.0515049
0.00175554
0.0513311
0.000565567
0.0508635
0.00207614
0.0505888
0.0011905
0.0500635
0.00249644
0.0496933
0.00182568
0.0491057
0.00296009
0.048639
0.00245845
0.0479827
0.00346638
0.0474161
0.00309905
0.04668
0.00401238
0.0460083
0.00374893
0.0451801
0.00459709
0.0444014
0.00440668
0.043473
0.00521138
0.0425922
0.00506113
0.00584948
0.0533496
-0.00493234
0.0527406
0.00232607
0.0529672
-0.00430967
0.0524263
0.00201546
0.0525414
-0.00295611
0.0520724
0.00188068
0.0521211
-0.00223434
0.0516626
0.00182082
0.0516158
-0.00138017
0.0511772
0.00191685
0.0510495
-0.000541296
0.050629
0.00198885
0.0504395
0.000163996
0.049991
0.00220404
0.0497122
0.000844352
0.0492143
0.002574
0.0488534
0.00155142
0.0483053
0.00304453
0.0478693
0.00226172
0.0472623
0.0035671
0.046752
0.00296876
0.0460758
0.00414261
0.0454878
0.00368698
0.0447293
0.00477095
0.044055
0.00442314
0.0432005
0.00545164
0.0424249
0.00518223
0.0414573
0.00617898
0.0405557
0.00596281
0.0531452
-0.00504452
0.0523716
0.00309969
0.0524035
-0.00434164
0.0517441
0.00267492
0.0516936
-0.00290563
0.051118
0.0024563
0.0510095
-0.00212589
0.0504615
0.00236885
0.0502814
-0.00120008
0.0497475
0.00245073
0.0495177
-0.000311467
0.0489839
0.00252262
0.0487231
0.000424812
0.0481596
0.00276758
0.0478187
0.00118521
0.0472065
0.00318617
0.0467966
0.00196134
0.0461301
0.003711
0.0456556
0.00273624
0.0449266
0.00429611
0.0443814
0.003514
0.0435845
0.00493951
0.0429552
0.00431629
0.0420863
0.00563984
0.0413614
0.00514797
0.040424
0.00638905
0.0396034
0.00600287
0.0386034
0.00717897
0.00687487
0.0529375
-0.00494904
0.0519552
0.00408202
0.0518121
-0.00419852
0.051003
0.00348401
0.0507846
-0.00268723
0.0500522
0.00318868
0.049803
-0.00187671
0.0490968
0.00307512
0.0488211
-0.00092445
0.0481756
0.00309625
0.047839
2.51389e-05
0.0472181
0.00314353
0.0468417
0.000801164
0.0462013
0.00340797
0.0457594
0.00162719
0.0451085
0.00383702
0.0445961
0.0024738
0.0439238
0.00438321
0.0433426
0.00331752
0.0426368
0.00500191
0.0419855
0.00416527
0.0412282
0.00569678
0.0405008
0.00504372
0.0396689
0.00647177
0.0388645
0.00595234
0.0379323
0.00732127
0.0370526
0.00688253
0.0359776
0.00825402
0.052673
-0.00458903
0.0514892
0.00526581
0.0511093
-0.00381862
0.0502011
0.00439227
0.049741
-0.00222719
0.0489122
0.00401751
0.0484172
-0.00138168
0.0476772
0.00381509
0.0471706
-0.000417902
0.0464253
0.00384164
0.0459454
0.000505004
0.0452091
0.00387984
0.0446815
0.00132879
0.0439533
0.00413613
0.0433674
0.0022131
0.0426352
0.00456924
0.0419865
0.00312246
0.0412215
0.00514823
0.0405114
0.00402763
0.0396933
0.00582002
0.0389295
0.00492906
0.038033
0.00659329
0.0372166
0.00586009
0.0362266
0.0074618
0.0353736
0.00680526
0.0343045
0.0083904
0.0334464
0.0077406
0.009344
0.0481345
-0.00489497
0.0477105
0.0056898
0.0479425
-0.00405057
0.0477346
0.00460019
0.0477905
-0.00228312
0.0474869
0.00432108
0.0475444
-0.00143911
0.047275
0.0040844
0.047329
-0.000471849
0.0469245
0.00424611
0.0469862
0.000443299
0.0464709
0.00439517
0.0465784
0.0012213
0.0460176
0.00469689
0.0461334
0.0020973
0.0455193
0.00518336
0.0456325
0.00300929
0.0449642
0.00581654
0.0450739
0.00391786
0.0443765
0.0065175
0.0444939
0.00481166
0.043798
0.00728913
0.0439235
0.00573457
0.0432755
0.0081098
0.0434048
0.00667597
0.0428615
0.00893374
0.042968
0.00763408
0.00969869
0.0515093
-0.00525621
0.0509686
0.00623045
0.0513669
-0.00444889
0.0510326
0.0049345
0.0511041
-0.00235464
0.0507341
0.00469116
0.0508654
-0.00157047
0.0505513
0.00439855
0.0506338
-0.000554376
0.0501278
0.00475207
0.0502179
0.000353191
0.0496261
0.00498702
0.0497727
0.00107464
0.0491658
0.00530384
0.0492978
0.00196524
0.0486745
0.00580665
0.0487452
0.0029386
0.0481294
0.0064324
0.0481062
0.00394108
0.0475578
0.00706582
0.0474237
0.00494586
0.0470314
0.00768136
0.0468218
0.00594422
0.0466288
0.00830279
0.0463686
0.00693613
0.0464074
0.00889497
0.0461901
0.00785137
0.00926242
0.0551824
-0.00574079
0.0545883
0.00682459
0.0552289
-0.00508952
0.0547903
0.00537313
0.0548747
-0.00243911
0.0545582
0.00500772
0.0547166
-0.00172888
0.05456
0.00455513
0.0543845
-0.00037884
0.0541736
0.00496294
0.0538631
0.000663735
0.0537584
0.00509167
0.053412
0.00142102
0.05339
0.00532587
0.0529341
0.00242118
0.052967
0.00577372
0.0523882
0.0035174
0.0524638
0.00635682
0.0517875
0.00461733
0.0519171
0.00693622
0.0511952
0.00566782
0.0513934
0.00748317
0.0506735
0.00666412
0.0509749
0.00800138
0.0503262
0.00758481
0.0507566
0.00846461
0.0503087
0.00829919
0.00867385
0.0589546
-0.00620134
0.0585071
0.0072721
0.0590688
-0.00565126
0.0587213
0.00572058
0.058729
-0.00244677
0.0585215
0.00521521
0.0586544
-0.00186178
0.0586503
0.00455926
0.0581995
7.19255e-05
0.0582812
0.00488126
0.057622
0.00132292
0.0579185
0.00479514
0.0572208
0.00211874
0.0575739
0.00497278
0.0568024
0.00319266
0.0571641
0.00541202
0.0563105
0.004371
0.0566517
0.0060157
0.0557804
0.00548856
0.056096
0.00662067
0.0552937
0.00647013
0.0555678
0.00720902
0.0549259
0.00730608
0.0551598
0.00776744
0.0548078
0.00793682
0.0550923
0.00818004
0.0550624
0.00832918
0.00847313
0.0628683
-0.00651598
0.0625798
0.00756065
0.0627607
-0.00583219
0.0624189
0.00606241
0.0625016
-0.00252953
0.0622042
0.00551268
0.0624627
-0.00212034
0.0621056
0.00491637
0.0619472
0.000230347
0.0617325
0.00509596
0.0614456
0.00160985
0.0614163
0.00482436
0.0610445
0.00249061
0.0610235
0.00499373
0.0607036
0.00351259
0.0605712
0.00554441
0.0602768
0.00466543
0.0600474
0.0062451
0.05984
0.0056959
0.0595661
0.0068946
0.0595125
0.00652373
0.0592313
0.00749024
0.0593605
0.0071769
0.0591327
0.00799515
0.0594509
0.00761862
0.0592711
0.0083599
0.0597259
0.00787431
0.00854638
0.0671429
-0.00676377
0.0668773
0.00782625
0.0667927
-0.00574759
0.0662519
0.0066032
0.0666096
-0.00288728
0.0662192
0.00590305
0.0665153
-0.00241636
0.0657075
0.00572413
0.0659495
-1.1672e-05
0.0653985
0.00564694
0.0657046
0.00130377
0.0651194
0.00540956
0.0652957
0.00231436
0.0646769
0.0056125
0.0649065
0.00328294
0.0642131
0.00623787
0.064466
0.0044125
0.0637517
0.0069594
0.0640492
0.00539837
0.0634083
0.0075355
0.0637691
0.00616297
0.0632621
0.00799719
0.0636851
0.00675393
0.0633525
0.0083278
0.0638147
0.0071564
0.0636604
0.00851423
0.0641543
0.00738041
0.00850295
0.0717861
-0.00701214
0.0714536
0.0081588
0.0713765
-0.00567052
0.0706688
0.00731095
0.0712425
-0.00346101
0.0709112
0.00623438
0.0710859
-0.00259103
0.0700428
0.00676721
0.0705121
-0.000481041
0.0698921
0.00626697
0.0704581
0.000737807
0.069691
0.00617662
0.070021
0.00198436
0.0692118
0.00642169
0.0694573
0.00303748
0.0686958
0.00699939
0.0689746
0.00413366
0.0683334
0.00760062
0.0686352
0.00509653
0.0681403
0.00803041
0.0684175
0.00588581
0.0681202
0.00829446
0.0683921
0.00648211
0.068309
0.00841085
0.0685957
0.00686971
0.068702
0.0084079
0.0689943
0.00708811
0.00826144
0.0766844
-0.00719387
0.0763505
0.00849271
0.0763248
-0.00564477
0.0757052
0.00793051
0.0762687
-0.00402455
0.0760096
0.00649352
0.0759622
-0.00254364
0.0751227
0.00760669
0.0754991
-0.00085737
0.0750442
0.0067218
0.0754476
0.00033446
0.0748901
0.00673412
0.0750317
0.00184276
0.0744116
0.00704179
0.0743501
0.00309892
0.0738811
0.00746837
0.0738527
0.00416214
0.0736402
0.00781309
0.0736678
0.00506897
0.073616
0.00808213
0.0736774
0.00582441
0.0737397
0.00823215
0.073829
0.00639287
0.073985
0.00825486
0.0740973
0.00675737
0.0743483
0.00815692
0.0745261
0.00691028
0.00792934
0.0817578
-0.00713944
0.0818527
0.00839776
0.0814343
-0.0052264
0.0813603
0.00800455
0.0814934
-0.0041577
0.081442
0.00654495
0.08096
-0.00206168
0.0808595
0.0077072
0.0807238
-0.000721642
0.080656
0.00678957
0.0805187
0.000471829
0.0804369
0.00681593
0.0801562
0.00212345
0.0800081
0.00718981
0.0796129
0.00349417
0.0795696
0.00751168
0.0792981
0.00443362
0.0794149
0.00769632
0.0792619
0.00522192
0.0794851
0.00785893
0.07943
0.00587949
0.0796872
0.00797503
0.0797026
0.0063774
0.07997
0.00798749
0.0800547
0.00667267
0.0803649
0.00784668
0.0805291
0.00674613
0.00756623
0.0871882
-0.00683744
0.0876247
0.00796124
0.0869927
-0.00459443
0.0873486
0.00764868
0.087071
-0.00388009
0.08714
0.0064759
0.0863888
-0.00131048
0.0869124
0.00718365
0.0863838
-0.000193045
0.086569
0.00660438
0.0860389
0.00100195
0.0861848
0.00667001
0.0857362
0.00257199
0.085838
0.00708802
0.0854298
0.00390237
0.0855749
0.00736665
0.0852648
0.00474366
0.0854794
0.00748175
0.0852928
0.00540853
0.0855762
0.00757552
0.0855098
0.00594592
0.0858248
0.00765999
0.0858553
0.00634694
0.0861932
0.00764956
0.0863136
0.00655225
0.0866792
0.00748114
0.0868845
0.00654083
0.00716971
0.0930751
-0.00635032
0.0937273
0.00730905
0.0929925
-0.00385956
0.0935902
0.00705092
0.0930015
-0.0032914
0.0931779
0.00629955
0.0924268
-0.00055941
0.093116
0.00649449
0.0924589
0.000464061
0.0927494
0.00631389
0.0920807
0.00167062
0.0922773
0.00647335
0.0917978
0.00305148
0.0920292
0.00685664
0.0917022
0.00422941
0.091934
0.00713484
0.091669
0.00500861
0.0919017
0.00724911
0.09175
0.00556016
0.0920229
0.00730271
0.0919851
0.00598371
0.0923119
0.00733321
0.0923852
0.00627363
0.0927607
0.00727401
0.0929421
0.00637081
0.0933517
0.00707156
0.0936225
0.00627009
0.00673528
0.099431
-0.00572561
0.100198
0.00654184
0.0994281
-0.0030894
0.100133
0.00634589
0.0993259
-0.00248422
0.0996663
0.00595921
0.0989938
0.000113053
0.0996004
0.00588791
0.0989443
0.00112013
0.0992643
0.00599385
0.0986415
0.00229343
0.0988412
0.00627373
0.0984118
0.00348082
0.098655
0.00661348
0.0984171
0.00446729
0.0986668
0.00688513
0.0984899
0.00518553
0.0987284
0.00701063
0.0986522
0.00563635
0.0989229
0.00703197
0.0989443
0.00596232
0.0992702
0.00700734
0.0994117
0.00613211
0.0998
0.00688576
0.10005
0.00612068
0.100483
0.00663839
0.100812
0.00594138
0.00627663
0.106283
-0.00500847
0.1071
0.00572486
0.106335
-0.00232445
0.107053
0.00562805
0.106167
-0.00159882
0.106623
0.00550339
0.106047
0.000688867
0.106506
0.00542863
0.105923
0.00170369
0.106211
0.00570533
0.105713
0.00279165
0.105914
0.00607325
0.105573
0.00382138
0.105786
0.00640025
0.105609
0.00464476
0.105856
0.00663797
0.105776
0.00526585
0.106047
0.00673903
0.106046
0.00563816
0.106331
0.00674656
0.10643
0.00586322
0.106767
0.00667056
0.10698
0.00591875
0.10738
0.00648547
0.107686
0.00581565
0.108131
0.0061929
0.108494
0.00557813
0.00581047
0.113664
-0.00424669
0.114485
0.00490417
0.113758
-0.00159777
0.114424
0.0049626
0.113589
-0.000763771
0.114063
0.00502852
0.113581
0.00117089
0.11392
0.00509045
0.113443
0.00218067
0.113681
0.00546736
0.113303
0.00316899
0.113506
0.00587008
0.113259
0.0040693
0.113461
0.00619734
0.113342
0.00476394
0.113598
0.00638185
0.113598
0.00526633
0.113886
0.00645076
0.113965
0.00555951
0.114278
0.00643335
0.114455
0.00568655
0.114817
0.00630797
0.115089
0.00564687
0.115507
0.00606751
0.11585
0.00547284
0.116302
0.00574112
0.116682
0.00519811
0.00534956
0.12161
-0.00348912
0.122389
0.00412531
0.12174
-0.000949185
0.122312
0.00439048
0.121601
-5.22225e-05
0.12202
0.00460915
0.121628
0.00156248
0.121889
0.00482994
0.121522
0.00254787
0.121723
0.00526574
0.121445
0.00344696
0.121649
0.00566667
0.121488
0.00422971
0.121709
0.00597675
0.121659
0.00481409
0.121931
0.00610987
0.121994
0.00520279
0.122296
0.00614935
0.122448
0.00540745
0.122791
0.00609073
0.123031
0.00544651
0.123421
0.00591786
0.123734
0.00533346
0.124165
0.00563632
0.124532
0.00510605
0.124986
0.00528718
0.125376
0.00480794
0.00489955
0.130151
-0.00277971
0.130845
0.00343055
0.130323
-0.000426614
0.130777
0.00393651
0.130202
0.000522923
0.130546
0.0042649
0.13023
0.0018782
0.130453
0.00460738
0.13018
0.00282019
0.130371
0.00507528
0.130179
0.00363868
0.130389
0.0054571
0.130308
0.00431065
0.130559
0.00572572
0.130584
0.0047887
0.130868
0.00582592
0.130993
0.00507781
0.131314
0.00582833
0.131525
0.00519688
0.131894
0.00572183
0.132181
0.00515947
0.132592
0.00550698
0.132934
0.00499129
0.13337
0.00519968
0.133749
0.0047272
0.134199
0.00483745
0.134597
0.00440992
0.00445488
0.139313
-0.0021503
0.139898
0.00284484
0.139518
-4.5936e-05
0.139866
0.00358805
0.139409
0.00097974
0.13969
0.00398429
0.139437
0.00213154
0.139646
0.00439797
0.139454
0.00301246
0.139653
0.0048756
0.139542
0.00375066
0.139771
0.00522746
0.139764
0.00431776
0.140042
0.00544759
0.140133
0.0046978
0.140439
0.00551964
0.140619
0.00489826
0.140966
0.00548078
0.141225
0.00493879
0.141616
0.0053304
0.141937
0.00483866
0.14236
0.00508385
0.142721
0.00463023
0.143157
0.00476324
0.14354
0.00434414
0.14398
0.00439807
0.144374
0.00401572
0.0040191
0.14912
-0.00161625
0.149591
0.00237434
0.149303
0.000241787
0.14961
0.00328171
0.149258
0.00133112
0.149493
0.00374949
0.149298
0.00232618
0.149503
0.00419352
0.149385
0.00313012
0.149606
0.00465455
0.149569
0.00378781
0.149828
0.00496841
0.149889
0.00425692
0.150188
0.00514898
0.150338
0.00454701
0.150672
0.00518553
0.150903
0.00466775
0.151277
0.00510675
0.151574
0.00464203
0.151982
0.00492249
0.152327
0.00449368
0.152756
0.00465465
0.15313
0.00425638
0.153564
0.00432905
0.153949
0.00395948
0.154376
0.00397059
0.15476
0.00363151
0.00360334
0.159603
-0.00117801
0.159964
0.00201263
0.159743
0.000462939
0.160033
0.00299188
0.159787
0.00157704
0.159998
0.00353871
0.15986
0.002464
0.160068
0.00398562
0.160019
0.00317879
0.160264
0.00440959
0.160302
0.00375005
0.160587
0.00468325
0.160712
0.00413251
0.161034
0.00482674
0.16124
0.00434118
0.161601
0.00482462
0.161876
0.00439251
0.162271
0.00471192
0.162599
0.00431366
0.163019
0.00450308
0.163383
0.00412959
0.163814
0.0042231
0.164196
0.00387417
0.164625
0.00389996
0.165009
0.00357579
0.165425
0.00355498
0.1658
0.00325657
0.00320684
0.170797
-0.000827141
0.171076
0.00173364
0.170904
0.000635037
0.171179
0.00271667
0.171029
0.00172702
0.171242
0.00332572
0.171164
0.00254207
0.171384
0.00376569
0.171401
0.00316176
0.171669
0.00414157
0.171777
0.00364211
0.172085
0.00437549
0.172271
0.00394703
0.172619
0.00447864
0.172874
0.00408574
0.173257
0.00444157
0.173571
0.00407904
0.173982
0.00430104
0.174336
0.00395916
0.174763
0.0040764
0.175141
0.0037516
0.17557
0.00379346
0.175956
0.00348849
0.176377
0.00347921
0.176757
0.00319576
0.177159
0.00315231
0.177525
0.00289115
0.00282721
0.182751
-0.000552015
0.182974
0.00151058
0.182845
0.000764376
0.183103
0.00245866
0.183032
0.00179819
0.183262
0.00309588
0.183254
0.00254986
0.183493
0.00352671
0.183573
0.00308142
0.183867
0.00384809
0.184034
0.00347455
0.184369
0.00404097
0.184609
0.00370677
0.184982
0.00410556
0.185281
0.00378718
0.185683
0.00403973
0.186027
0.00373423
0.18645
0.00387858
0.186824
0.00358532
0.187253
0.00364709
0.187639
0.00336553
0.188064
0.00336889
0.188449
0.00310328
0.188859
0.00306888
0.189233
0.0028223
0.189621
0.00276412
0.189975
0.00253727
0.00246544
0.195519
-0.000342212
0.195705
0.00132424
0.195619
0.000850453
0.195862
0.00221646
0.195858
0.00180186
0.196107
0.00284688
0.196172
0.00248437
0.196441
0.00325846
0.196583
0.00293956
0.1969
0.00353086
0.197122
0.00325261
0.197482
0.00368037
0.19777
0.00341905
0.198166
0.00370952
0.198502
0.00345145
0.198919
0.00362235
0.199288
0.00336506
0.199718
0.00344905
0.200105
0.00319835
0.200533
0.00321857
0.200923
0.0029761
0.20134
0.00295217
0.20172
0.00272276
0.202117
0.00267183
0.20248
0.00245921
0.202852
0.0023927
0.203191
0.00219764
0.00212304
0.209157
-0.000186492
0.209323
0.00115844
0.209281
0.000892868
0.209514
0.00198308
0.209571
0.00174534
0.20984
0.0025774
0.209974
0.00235035
0.210276
0.00295701
0.210477
0.00273794
0.210821
0.00318729
0.211092
0.0029812
0.211477
0.00329539
0.211806
0.00309037
0.212221
0.00329399
0.212588
0.00308491
0.213017
0.00319316
0.213404
0.00297782
0.213837
0.00301665
0.214231
0.00280382
0.214655
0.00279471
0.215043
0.0025882
0.215449
0.00254666
0.21582
0.00235082
0.216202
0.00229053
0.216552
0.00210929
0.216905
0.00203979
0.217228
0.00187426
0.00180108
0.22373
-7.64339e-05
0.223885
0.00100356
0.223889
0.000889034
0.224122
0.00175007
0.224233
0.00163365
0.224524
0.00228641
0.22472
0.00215443
0.225054
0.00262368
0.225312
0.00247975
0.225684
0.00281503
0.226001
0.00266425
0.226408
0.0028882
0.226771
0.0027273
0.227202
0.00286307
0.227593
0.0026942
0.22803
0.00275601
0.22843
0.00257796
0.228861
0.00258524
0.229258
0.00240681
0.229674
0.00237864
0.230057
0.00220531
0.23045
0.00215429
0.230811
0.00198979
0.231175
0.00192638
0.23151
0.00177436
0.231843
0.00170638
0.232149
0.00156826
0.00149982
0.239303
-4.11308e-06
0.239454
0.000852152
0.239504
0.000839014
0.239746
0.00150852
0.239909
0.00147085
0.240224
0.00197133
0.240475
0.00190351
0.240838
0.00226059
0.241148
0.00216966
0.241549
0.00241396
0.241907
0.0023056
0.242335
0.00246034
0.242727
0.00233513
0.24317
0.00242024
0.24358
0.00228497
0.244021
0.00231418
0.244429
0.00216985
0.244857
0.00215739
0.245253
0.00201074
0.24566
0.00197232
0.246035
0.00182987
0.246413
0.00177621
0.246762
0.00164115
0.247108
0.00157981
0.247428
0.00145513
0.247742
0.00139228
0.24803
0.00127955
0.00121836
0.255946
3.78185e-05
0.2561
0.000698367
0.256195
0.000744355
0.256452
0.00125164
0.256663
0.00125951
0.257004
0.00163052
0.257302
0.00160544
0.257695
0.00186759
0.258052
0.00181309
0.25848
0.00198547
0.258876
0.0019095
0.259324
0.00201257
0.259741
0.00191772
0.260195
0.00196703
0.260618
0.00186126
0.261063
0.00186948
0.261477
0.00175609
0.2619
0.00173375
0.262294
0.0016172
0.26269
0.00157611
0.263057
0.00146272
0.263422
0.00141193
0.263758
0.00130467
0.264088
0.0012496
0.264393
0.00115066
0.264689
0.0010959
0.264962
0.00100682
0.000954855
0.273739
5.38842e-05
0.273898
0.000538816
0.274034
0.000608367
0.274312
0.00097423
0.274569
0.00100173
0.274934
0.00126558
0.275277
0.00126279
0.275699
0.00144537
0.276097
0.00141487
0.276552
0.00153073
0.276982
0.00147973
0.277449
0.0015451
0.27789
0.00147719
0.278354
0.00150344
0.27879
0.00142489
0.279237
0.00142192
0.279656
0.00133757
0.280076
0.00131336
0.280468
0.00122581
0.280856
0.00118812
0.281216
0.00110243
0.281569
0.00105878
0.281896
0.000978014
0.282213
0.00093247
0.282505
0.000858131
0.282788
0.000813831
0.283047
0.000747195
0.000706029
0.292759
4.93683e-05
0.292927
0.000370339
0.2931
0.000435223
0.293401
0.000673328
0.293699
0.000703801
0.294092
0.000872988
0.294476
0.000878887
0.294927
0.00099403
0.295363
0.00097881
0.295844
0.00104952
0.296306
0.00101834
0.296795
0.0010561
0.297259
0.00101274
0.297737
0.00102542
0.298188
0.000973658
0.298643
0.000967537
0.299068
0.000911807
0.29949
0.000892119
0.299882
0.000833557
0.300265
0.0008046
0.300622
0.000746225
0.300967
0.000712995
0.301288
0.00065745
0.301597
0.000623571
0.301882
0.000572724
0.302156
0.000540571
0.302407
0.000495374
0.000466265
0.313092
2.95504e-05
0.313271
0.000191218
0.313476
0.000230429
0.313801
0.000348546
0.314136
0.000368239
0.314558
0.000451404
0.314979
0.000457113
0.315461
0.00051232
0.315933
0.000506892
0.316441
0.000541152
0.316934
0.000525286
0.317449
0.000541687
0.317939
0.000522464
0.318437
0.000527688
0.31891
0.000501021
0.31938
0.000497242
0.319823
0.000468639
0.320257
0.000458586
0.320661
0.000429544
0.321051
0.000414112
0.321413
0.000384482
0.32176
0.000365708
0.322081
0.000336677
0.322387
0.000317072
0.32267
0.00028993
0.322939
0.000271465
0.323187
0.000247452
0.000231413
0.33483
0.335021
0.335251
0.3356
0.335968
0.336419
0.336877
0.337389
0.337896
0.338437
0.338962
0.339504
0.340026
0.340554
0.341055
0.341552
0.342021
0.34248
0.342909
0.343323
0.343708
0.344073
0.34441
0.344727
0.345017
0.345289
0.345536
)
;

boundaryField
{
    outlet
    {
        type            calculated;
        value           nonuniform 0();
    }
    upperWall
    {
        type            symmetryPlane;
        value           uniform 0;
    }
    lowerWall
    {
        type            symmetryPlane;
        value           nonuniform 0();
    }
    inlet
    {
        type            calculated;
        value           nonuniform List<scalar> 
40
(
-0.053033
-0.053033
-0.053033
-0.053033
-0.053033
-0.053033
-0.053033
-0.053033
-0.053033
-0.053033
-0.0478286
-0.051148
-0.0546978
-0.058494
-0.0625537
-0.0668951
-0.0715378
-0.0765027
-0.0818122
-0.0874902
-0.0935622
-0.100056
-0.107
-0.114426
-0.122367
-0.13086
-0.139942
-0.149655
-0.160041
-0.171148
-0.183026
-0.195729
-0.209313
-0.22384
-0.239375
-0.255988
-0.273755
-0.292754
-0.313072
-0.3348
)
;
    }
    cylinder
    {
        type            calculated;
        value           nonuniform 0();
    }
    frontAndBack
    {
        type            empty;
        value           nonuniform 0();
    }
    procBoundary4to0
    {
        type            processor;
        value           nonuniform List<scalar> 
33
(
2.97856e-05
3.09895e-05
3.21701e-05
6.66768e-06
1.41423e-05
2.09457e-05
2.27694e-05
2.52997e-05
2.56528e-05
2.61125e-05
2.61012e-05
2.62642e-05
2.60507e-05
2.67837e-05
2.65608e-05
2.81325e-05
2.7151e-05
2.66786e-05
2.78377e-05
2.88434e-05
2.97276e-05
3.0747e-05
3.13897e-05
3.24926e-05
3.31046e-05
3.41789e-05
3.47023e-05
3.55982e-05
3.59774e-05
3.65942e-05
3.67938e-05
3.71588e-05
3.73345e-05
)
;
    }
    procBoundary4to5
    {
        type            processor;
        value           nonuniform List<scalar> 
45
(
0.0382398
0.0379888
0.0374472
0.00826481
0.0392046
0.037974
0.014057
0.0388079
0.0173169
0.0394569
0.00694828
0.0376913
0.0350173
0.00783519
0.0323565
0.0426133
0.0466264
0.0508973
0.0552631
0.0596527
0.0641977
0.0692358
0.0748582
0.0808922
0.087281
0.0940569
0.101271
0.10896
0.117143
0.125826
0.135042
0.14481
0.155176
0.166196
0.177905
0.190336
0.203534
0.21755
0.23245
0.248312
0.265225
0.283296
0.302647
0.323422
0.345767
)
;
    }
}


// ************************************************************************* //
