/*--------------------------------*- C++ -*----------------------------------*\
| =========                 |                                                 |
| \\      /  F ield         | OpenFOAM: The Open Source CFD Toolbox           |
|  \\    /   O peration     | Version:                                        |
|   \\  /    A nd           | Website:  www.openfoam.com                      |
|    \\/     M anipulation  |                                                 |
\*---------------------------------------------------------------------------*/
FoamFile
{
    version     2.0;
    format      ascii;
    class       volScalarField;
    location    "178.4";
    object      p;
}
// * * * * * * * * * * * * * * * * * * * * * * * * * * * * * * * * * * * * * //

dimensions      [0 2 -2 0 0 0 0];


internalField   nonuniform List<scalar> 
1136
(
-0.513661
-0.608321
-0.605798
-0.501622
-0.375732
-0.315712
-0.298001
-0.358686
-0.43522
-0.452389
-0.372355
-0.323482
-0.260148
-0.233791
-0.244839
-0.236844
-0.241904
-0.237765
-0.217435
-0.180682
-0.19939
-0.219035
-0.208376
-0.162431
-0.162102
-0.181133
-0.155125
-0.103183
-0.0650605
-0.0188887
-0.402832
-0.486187
-0.479978
-0.410675
-0.326202
-0.296192
-0.311311
-0.397806
-0.503132
-0.536384
-0.422191
-0.349883
-0.267365
-0.223525
-0.225668
-0.203916
-0.220381
-0.225222
-0.213299
-0.185619
-0.205193
-0.217633
-0.206378
-0.167049
-0.165446
-0.18722
-0.15626
-0.0900678
-0.0588328
-0.019378
-0.297338
-0.370966
-0.35999
-0.323934
-0.274881
-0.263309
-0.321002
-0.432677
-0.557819
-0.605152
-0.467503
-0.366979
-0.269925
-0.212837
-0.207158
-0.171742
-0.198454
-0.210463
-0.205994
-0.190013
-0.210606
-0.216126
-0.202612
-0.170644
-0.168381
-0.193026
-0.157427
-0.0772665
-0.0536011
-0.0197646
-0.210576
-0.267503
-0.259793
-0.24007
-0.2192
-0.219468
-0.314296
-0.441977
-0.593067
-0.673161
-0.510548
-0.377282
-0.269155
-0.203767
-0.189755
-0.142087
-0.176981
-0.193277
-0.196038
-0.194291
-0.214993
-0.2147
-0.197616
-0.172561
-0.170943
-0.198384
-0.158855
-0.0651942
-0.0492698
-0.0200024
-0.144625
-0.18041
-0.185562
-0.159194
-0.163484
-0.16943
-0.282758
-0.427662
-0.599796
-0.700127
-0.540925
-0.379334
-0.260819
-0.194496
-0.173435
-0.116717
-0.155854
-0.174111
-0.183744
-0.198104
-0.218987
-0.213505
-0.192589
-0.173044
-0.172805
-0.202921
-0.160134
-0.0540904
-0.0455886
-0.0199931
-0.0939103
-0.112219
-0.126576
-0.0933629
-0.111888
-0.116975
-0.233376
-0.38483
-0.563654
-0.685211
-0.558294
-0.379474
-0.251237
-0.183843
-0.15815
-0.096219
-0.132252
-0.153183
-0.171326
-0.200964
-0.222824
-0.211706
-0.187811
-0.17207
-0.173941
-0.206283
-0.160935
-0.044296
-0.042301
-0.0197469
-0.0630885
-0.0813258
-0.0493161
-0.0674683
-0.073241
-0.171768
-0.323126
-0.501447
-0.636217
-0.542956
-0.369394
-0.239027
-0.173506
-0.145144
-0.0809648
-0.109086
-0.131309
-0.157328
-0.201586
-0.225724
-0.208299
-0.182295
-0.169756
-0.173928
-0.20774
-0.160755
-0.0358343
-0.0388984
-0.0191877
-0.029323
-0.0489127
-0.0242144
-0.0355522
-0.0350705
-0.116093
-0.25279
-0.408019
-0.553284
-0.496833
-0.35181
-0.22434
-0.160121
-0.134964
-0.069371
-0.0847038
-0.110876
-0.144547
-0.198837
-0.222399
-0.20187
-0.173459
-0.165794
-0.172552
-0.207002
-0.158568
-0.0287142
-0.0352334
-0.0182378
-0.00412341
-0.0267029
-0.0129193
-0.0164609
-0.00778384
-0.0702829
-0.180769
-0.322015
-0.470027
-0.450313
-0.331937
-0.213603
-0.14937
-0.127795
-0.0641744
-0.0631999
-0.0905033
-0.13018
-0.192702
-0.219092
-0.192908
-0.16128
-0.159124
-0.169502
-0.203171
-0.154547
-0.0233366
-0.0315721
-0.0168779
0.0141558
-0.00731381
-0.0031706
-0.00658247
0.00255935
-0.0314221
-0.118465
-0.236963
-0.368549
-0.364878
-0.292118
-0.196432
-0.13753
-0.108255
-0.0574427
-0.0437999
-0.0752131
-0.116256
-0.179677
-0.205851
-0.178567
-0.146342
-0.151154
-0.164337
-0.196822
-0.148396
-0.0188325
-0.0278491
-0.0152419
0.0074832
0.00278837
-0.000830974
0.0156273
-0.00145985
-0.0665844
-0.160784
-0.28597
-0.307647
-0.243442
-0.169786
-0.1205
-0.0918611
-0.0475
-0.0265996
-0.0575758
-0.101193
-0.164682
-0.193697
-0.161535
-0.131489
-0.142194
-0.15827
-0.185865
-0.14186
-0.0156993
-0.0242827
-0.0134972
0.0139812
0.00465481
0.00273273
0.0162219
0.0133383
-0.0301666
-0.1083
-0.225273
-0.246828
-0.196724
-0.145107
-0.103874
-0.081979
-0.0397322
-0.0219975
-0.0434701
-0.0867509
-0.151472
-0.179677
-0.142631
-0.115301
-0.130808
-0.150419
-0.171662
-0.134706
-0.0133449
-0.0204219
-0.011554
0.0188643
0.00601092
0.00500689
0.0168654
0.0161911
-0.0171226
-0.0705863
-0.164006
-0.182277
-0.151291
-0.122661
-0.0913051
-0.0714405
-0.0341589
-0.0204779
-0.0330472
-0.0744896
-0.137864
-0.160295
-0.121094
-0.0961816
-0.117115
-0.139536
-0.153995
-0.121306
-0.0111539
-0.0159172
-0.00936533
0.0199035
0.00207292
0.00455659
0.0152509
0.0185261
-0.00271597
-0.0317359
-0.107319
-0.126593
-0.109198
-0.0973014
-0.079272
-0.0625738
-0.0324011
-0.0220501
-0.0263795
-0.0616908
-0.119754
-0.13695
-0.0972488
-0.0746595
-0.101327
-0.124992
-0.131233
-0.0998563
-0.00962881
-0.0106468
-0.00692013
0.030285
0.0155869
0.0151751
0.0206658
0.0315307
0.0213157
-0.00199675
-0.0651596
-0.0831925
-0.0748567
-0.0791739
-0.0673899
-0.0469306
-0.0312382
-0.0247752
-0.0195038
-0.0436576
-0.0970916
-0.111066
-0.0736629
-0.0518939
-0.0820246
-0.105984
-0.103742
-0.0731544
-0.00837956
-0.00434643
-0.00415245
0.0322778
0.0175408
0.0172983
0.0298703
0.0404326
0.0356466
0.0124573
-0.0382114
-0.0544477
-0.0488809
-0.0585345
-0.0500281
-0.0276996
-0.0280561
-0.025216
-0.00920136
-0.0239943
-0.0714352
-0.0815587
-0.0493334
-0.0291649
-0.0592693
-0.0824761
-0.0730965
-0.0429153
-0.0054918
0.00334725
-0.00107257
0.0349447
0.0219035
0.0214884
0.034556
0.038621
0.0361635
0.0180949
-0.0189335
-0.0327287
-0.0294392
-0.0414987
-0.035432
-0.00841875
-0.0157408
-0.0175895
0.0048445
-0.0047509
-0.0445058
-0.0524843
-0.0252754
-0.00474162
-0.033898
-0.0509245
-0.0402692
-0.0109034
0.00202432
0.0124354
0.00223554
0.0344058
0.0252329
0.0246056
0.0346594
0.0359907
0.0344096
0.021051
-0.00589583
-0.0172172
-0.01698
-0.025106
-0.0144491
0.00990736
0.00640016
0.00528627
0.0239671
0.0131657
-0.0186803
-0.0242872
-0.006086
0.017684
-0.00708411
-0.0233255
-0.00920969
0.0186317
0.0111027
0.0221924
0.00567592
0.0335182
0.0279428
0.0268861
0.0330831
0.0339973
0.031345
0.0216085
0.00386107
-0.00954645
-0.0068654
-0.00862363
-0.00541889
0.018936
0.0315446
0.0376009
0.0413769
0.0276545
0.00467845
0.000286495
0.0110451
0.035518
0.015004
0.00251566
0.0171688
0.0419637
0.0214146
0.0326607
0.00835565
0.0324691
0.0293876
0.0276323
0.0312345
0.0315815
0.0291175
0.0220224
0.00996035
0.00129673
0.00185112
0.00368653
0.0101953
0.0296325
0.0459727
0.0552413
0.0513446
0.0373364
0.0207529
0.0185747
0.0258452
0.0528661
0.0316666
0.0219219
0.0352155
0.0556227
0.0319336
0.0430896
0.0129275
0.0308817
0.0293181
0.0278136
0.0296095
0.029551
0.0273624
0.0219862
0.0148007
0.00911507
0.00855691
0.0129513
0.0174784
0.0325261
0.0512547
0.0605344
0.0537843
0.0419725
0.0341685
0.0318937
0.0319362
0.0611325
0.0549867
0.0376542
0.0456944
0.0601055
0.036844
0.0456087
0.0148075
0.0291996
0.0286642
0.0272094
0.0281844
0.0277653
0.0264129
0.0223664
0.0176814
0.0149444
0.0144249
0.0194855
0.0241528
0.0352364
0.0503317
0.0600472
0.0546861
0.0438888
0.0364651
0.0392302
0.041516
0.0643447
0.0524179
0.0434475
0.0487549
0.0547712
0.0414587
0.0478991
0.0162949
0.0274569
0.0274467
0.0263956
0.0269486
0.0265408
0.0253488
0.022826
0.0198801
0.0192315
0.0188232
0.0232087
0.0276294
0.0355291
0.0479054
0.0556913
0.0529105
0.0444581
0.0410883
0.0436984
0.0427643
0.0617972
0.0550794
0.0466523
0.0497067
0.0501353
0.043544
0.0504916
0.01795
0.0258219
0.0261872
0.0254106
0.0258565
0.025586
0.0249326
0.0234625
0.021392
0.0218077
0.0221409
0.0256938
0.0300393
0.035687
0.0432722
0.0509242
0.0505603
0.0441867
0.0420865
0.0446312
0.0452238
0.0581521
0.053624
0.0468542
0.0477562
0.0452898
0.043364
0.0406873
0.0148536
0.0244427
0.0248793
0.0245434
0.0248918
0.0250188
0.0245666
0.0238968
0.0228042
0.0236478
0.0244695
0.0271596
0.030752
0.0352186
0.040803
0.0463465
0.0476396
0.04321
0.0428756
0.0448839
0.0444278
0.0534216
0.0509445
0.0459206
0.0461788
0.0406078
0.0398812
0.0374601
0.0136947
0.0232639
0.0237579
0.0237588
0.0241112
0.0244881
0.0244792
0.0242899
0.0238956
0.0247033
0.0259599
0.0280592
0.0309774
0.0348497
0.0386595
0.0429053
0.0449384
0.0419715
0.0421462
0.0438272
0.0438146
0.0493006
0.0480084
0.044389
0.0436703
0.0370239
0.0369618
0.033049
0.0120234
0.0222974
0.0227964
0.0230184
0.0234787
0.024085
0.024402
0.0244368
0.0245548
0.0254359
0.02673
0.0285588
0.0306115
0.034063
0.0370409
0.0398454
0.0422126
0.0404351
0.0410173
0.0426296
0.0422428
0.0455368
0.0447198
0.041972
0.0409692
0.0339221
0.032431
0.0285993
0.0105204
0.0214536
0.021991
0.0223636
0.0229885
0.0236424
0.0242353
0.0244407
0.0248902
0.0258063
0.0270166
0.0287056
0.0302313
0.0330881
0.0354535
0.0374261
0.0396572
0.0388351
0.0394347
0.0407292
0.0403545
0.0421089
0.0414946
0.0393543
0.0375587
0.0311604
0.0287389
0.0244324
0.00910134
0.0207305
0.0213491
0.0217942
0.022514
0.0232378
0.0239737
0.0243386
0.0248841
0.025911
0.0269613
0.0285163
0.0297219
0.0319277
0.0340211
0.0353048
0.0372165
0.0370889
0.0375328
0.0386136
0.0381883
0.0390405
0.03829
0.0361792
0.0342433
0.0287161
0.0249878
0.0203297
0.00771949
0.0201593
0.020815
0.0212997
0.0220823
0.0228538
0.0236292
0.024122
0.0247079
0.0257537
0.026713
0.0280601
0.0290783
0.030748
0.0325322
0.0334976
0.034944
0.0352468
0.0355831
0.0362786
0.0359209
0.0360804
0.0351089
0.0332129
0.0309906
0.0260361
0.0218303
0.0169314
0.00649567
0.0197212
0.0203749
0.0208987
0.0216705
0.0224838
0.0232304
0.0238164
0.0243854
0.0254084
0.026302
0.0273992
0.0283277
0.0295558
0.0310715
0.0318205
0.0328525
0.033361
0.0335357
0.0339319
0.0335548
0.0332686
0.0322097
0.0302281
0.0278105
0.0235432
0.0191551
0.0140955
0.00538578
0.0193991
0.0200198
0.0205572
0.021294
0.0221051
0.0228184
0.0234202
0.0239942
0.0249228
0.0257699
0.0266534
0.0274657
0.0284197
0.0296124
0.0302441
0.0309387
0.0314192
0.0315488
0.0316269
0.0312011
0.0306729
0.0294089
0.0274171
0.0250317
0.0211706
0.0168001
0.0118794
0.00448858
0.0191746
0.0197422
0.0202815
0.0209594
0.0217401
0.0224018
0.0229843
0.0235457
0.0243565
0.0251533
0.0258516
0.0265542
0.0272978
0.0282071
0.0287432
0.0291584
0.0295542
0.0295997
0.0294283
0.0289523
0.0281978
0.026848
0.0249238
0.0224908
0.018953
0.0148575
0.0101649
0.00375922
0.019021
0.0195393
0.020049
0.020667
0.0213778
0.0219913
0.0225281
0.0230601
0.0237634
0.0244678
0.0250484
0.0256158
0.0262091
0.0268889
0.0272944
0.0275387
0.027775
0.0277317
0.0274087
0.0268143
0.0259515
0.0245654
0.022627
0.0202454
0.0170363
0.0132003
0.00879264
0.0031895
0.0189341
0.0194002
0.0198663
0.0204162
0.0210416
0.0216032
0.0220845
0.0225773
0.023167
0.0237762
0.0242591
0.024704
0.0251786
0.0256568
0.0259509
0.0260585
0.0261333
0.0260144
0.0255573
0.0248772
0.0239437
0.0225075
0.0206267
0.0183362
0.0153486
0.0117951
0.00772238
0.00275623
0.0188817
0.0192967
0.0197167
0.0201983
0.0207386
0.021236
0.021668
0.0221039
0.0225998
0.0231095
0.0235093
0.0238595
0.0242141
0.0245463
0.0247307
0.024731
0.02468
0.0244593
0.0239242
0.0231735
0.022171
0.0207464
0.0189183
0.0166967
0.0139247
0.0106452
0.00687329
0.00241983
0.0188542
0.0192253
0.0195994
0.0200191
0.0204768
0.020912
0.0212952
0.0216771
0.0220915
0.0225043
0.0228376
0.0231059
0.0233636
0.023579
0.0236652
0.0235938
0.0234285
0.0231218
0.022537
0.0217217
0.020686
0.0192747
0.0174891
0.0153615
0.0127645
0.00970418
0.00620706
0.00216596
0.0188556
0.0191863
0.0195208
0.0198846
0.0202709
0.0206481
0.0209901
0.021326
0.0216687
0.0220026
0.0222772
0.0224865
0.0226657
0.0227865
0.0228011
0.0226719
0.0224242
0.0220481
0.0214258
0.0205741
0.0195091
0.0181147
0.0163818
0.0143256
0.0118611
0.00898674
0.00571359
0.00198136
0.0188422
0.0191462
0.0194541
0.0197769
0.0201116
0.0204453
0.0207585
0.0210579
0.0213494
0.0216251
0.0218581
0.022028
0.0221484
0.0222065
0.0221692
0.0220014
0.0216975
0.0212668
0.0206251
0.0197489
0.0186655
0.0172925
0.0155946
0.0135931
0.0112299
0.00848518
0.00537094
0.00185468
0.0188536
0.0191399
0.01943
0.0197288
0.0200339
0.0203425
0.0206372
0.020916
0.0211786
0.0214222
0.0216314
0.0217781
0.0218678
0.0218914
0.0218264
0.0216382
0.0213043
0.0208472
0.0201949
0.019307
0.0182158
0.0168529
0.0151767
0.0132069
0.0108953
0.00822107
0.00519432
0.00179081
)
;

boundaryField
{
    outlet
    {
        type            fixedValue;
        value           uniform 0;
    }
    upperWall
    {
        type            symmetryPlane;
    }
    lowerWall
    {
        type            symmetryPlane;
    }
    inlet
    {
        type            zeroGradient;
    }
    cylinder
    {
        type            zeroGradient;
    }
    frontAndBack
    {
        type            empty;
    }
    procBoundary7to3
    {
        type            processor;
        value           nonuniform List<scalar> 
30
(
-0.615828
-0.725915
-0.721659
-0.589911
-0.423191
-0.328428
-0.277734
-0.317808
-0.365923
-0.369382
-0.32038
-0.288603
-0.249372
-0.244117
-0.264253
-0.268912
-0.262752
-0.248633
-0.219421
-0.175436
-0.192869
-0.21955
-0.208921
-0.156666
-0.158562
-0.174631
-0.154415
-0.116928
-0.0721943
-0.0182977
)
;
    }
    procBoundary7to6
    {
        type            processor;
        value           nonuniform List<scalar> 
42
(
-0.402962
-0.334226
-0.265257
-0.2034
-0.148085
-0.10467
-0.0535525
-0.0535525
-0.0262081
-0.0122456
-0.00459578
0.0245272
0.0245272
0.0315673
0.0369881
0.0383013
0.0427356
0.0378015
0.0370886
0.0342128
0.0327555
0.0315379
0.0300692
0.028499
0.0269057
0.0253081
0.0239026
0.0225994
0.0214991
0.0205958
0.0198735
0.0193239
0.0189319
0.0186535
0.0184871
0.0184062
0.0183865
0.0184064
0.0184513
0.0185104
0.0185395
0.0185753
)
;
    }
}


// ************************************************************************* //
