/*--------------------------------*- C++ -*----------------------------------*\
| =========                 |                                                 |
| \\      /  F ield         | OpenFOAM: The Open Source CFD Toolbox           |
|  \\    /   O peration     | Version:                                        |
|   \\  /    A nd           | Website:  www.openfoam.com                      |
|    \\/     M anipulation  |                                                 |
\*---------------------------------------------------------------------------*/
FoamFile
{
    version     2.0;
    format      ascii;
    class       surfaceScalarField;
    location    "196.5";
    object      phi;
}
// * * * * * * * * * * * * * * * * * * * * * * * * * * * * * * * * * * * * * //

dimensions      [0 3 -1 0 0 0 0];
oriented        oriented;


internalField   nonuniform List<scalar> 
2201
(
-0.00145985
-0.00239084
0.00385069
-0.000363416
-0.00109644
-0.000322773
-4.06422e-05
-0.000634456
0.000311683
-0.000544855
-8.96012e-05
3.82835e-05
-0.000583139
0.000620411
-0.000582128
0.00151869
-0.000898282
0.000840984
0.00067771
0.0018272
-0.000986215
7.98795e-05
-0.00434534
0.00187462
0.000825483
-0.00184204
0.000648777
0.000136064
0.000147614
0.000812846
0.000250153
-0.00019214
0.000695439
-0.00102842
-0.000625023
0.000738334
-0.00514223
0.00361892
-0.0107857
0.00632123
0.00646605
-0.0154246
0.00331481
-0.0056647
-0.00199545
0.00319748
-0.00172471
0.00174687
0.00158667
0.000403872
0.00215584
-0.000344078
0.000555809
-0.00362467
0.00225217
-0.00998343
0.00709709
-0.0157755
0.00941101
-0.0186396
0.00918528
0.00902255
-0.0211961
0.00521786
-0.00652334
-0.00435922
0.00414982
-0.000656668
0.00170342
0.00403307
-0.000137272
0.00399654
-0.00434945
0.00476798
-0.0118098
0.00971256
-0.0175948
0.0128821
-0.0206796
0.0124958
-0.0225522
0.0110578
0.00985181
-0.0233814
0.00498956
-0.00646192
-0.00505098
0.00346261
0.000870278
0.00105644
0.00643925
-0.00362593
0.0086789
-0.011576
0.0127181
-0.018384
0.0165205
-0.0215907
0.0160889
-0.0230939
0.013999
-0.024192
0.0121559
0.0100156
-0.0243557
0.00269666
-0.00538721
-0.00377137
6.00146e-05
0.00350693
-0.00460789
0.0111071
-0.011761
0.015832
-0.0186984
0.0196555
-0.022237
0.0200591
-0.0235211
0.017373
-0.0245061
0.014984
-0.0249848
0.0126346
0.0101049
-0.0250741
-0.00303757
-0.00260135
0.000251713
-0.00777654
0.00824589
-0.0135702
0.0169008
-0.0196758
0.0219376
-0.0232875
0.0232672
-0.024252
0.0210237
-0.0249043
0.0180252
-0.0254987
0.0155784
-0.025677
0.0128128
0.0102379
-0.02581
-0.00949555
0.00240052
0.00449368
-0.0154264
0.0141767
-0.0210743
0.0225487
-0.0246248
0.0254881
-0.025499
0.0241414
-0.0256492
0.0211739
-0.0261176
0.0184936
-0.0263378
0.0157986
-0.026492
0.0129671
0.0103163
-0.0265704
-0.0157123
0.00870923
0.00940363
-0.0216728
0.0201372
-0.0255465
0.0264224
-0.0266457
0.0265873
-0.0265827
0.0240784
-0.026858
0.0214493
-0.0271103
0.0187459
-0.0272607
0.015949
-0.0273707
0.013077
0.0103316
-0.0273861
-0.0204751
-0.0254433
0.0251054
-0.0272837
0.0282629
-0.0272366
0.0265401
-0.0274442
0.024286
-0.0277893
0.0217943
-0.0279889
0.0189454
-0.0281564
0.0161166
-0.0282446
0.0131652
0.0102447
-0.0281577
-0.026933
0.0286466
-0.0274981
0.028828
-0.0276075
0.0266496
-0.0282451
0.0249236
-0.0284766
0.0220258
-0.0288293
0.0192982
-0.0289515
0.0162388
-0.0290762
0.0132898
0.0101319
-0.0289633
-0.0270525
-0.0273118
0.0290872
-0.0281584
0.0274961
-0.0288212
0.0255864
-0.02912
0.0223246
-0.0296205
0.0197987
-0.0297769
0.0163952
-0.0299299
0.0134429
0.0100926
-0.0298906
-0.0273441
0.0298066
-0.0288115
0.0289635
-0.02921
0.0259849
-0.0299936
0.0231083
-0.0303825
0.0201876
-0.0307327
0.0167454
-0.0308544
0.0135645
0.0100665
-0.0308282
-0.0277976
-0.0293171
0.030483
-0.0298766
0.0265443
-0.0308893
0.0241209
-0.0312311
0.0205294
-0.0316435
0.0171578
-0.0317428
0.0136638
0.0100192
-0.0316955
-0.0297919
0.0316274
-0.0307716
0.027524
-0.0316554
0.0250048
-0.0320876
0.0209617
-0.0324955
0.0175657
-0.0326127
0.0137809
0.00998985
-0.0325833
-0.0303243
0.0324054
-0.0317013
0.028901
-0.0324589
0.0257624
-0.0329766
0.0214794
-0.0334975
0.0180865
-0.0335954
0.0138789
0.0100631
-0.0336687
-0.0311163
-0.0326677
0.0304524
-0.0333439
0.0264386
-0.034127
0.0222625
-0.0345434
0.0185029
-0.0347952
0.0141307
0.0100697
-0.0348018
-0.0336334
0.031829
-0.0343895
0.0271947
-0.0352599
0.0231329
-0.0355575
0.0188005
-0.0358997
0.0144729
0.0100209
-0.0358508
-0.0347556
0.0330576
-0.0356268
0.0280659
-0.0363387
0.0238447
-0.036688
0.0191498
-0.0368812
0.0146661
0.0100441
-0.0369044
-0.0358992
-0.0367911
0.0289579
-0.0374343
0.0244879
-0.0378313
0.0195468
-0.0380296
0.0148645
0.0100335
-0.038019
-0.0152171
0.00223946
-0.0164893
0.00127219
-0.0168626
0.00037337
-0.0161962
-0.000666447
-0.0145759
-0.00162028
-0.0124899
-0.00208602
-0.0101482
-0.00234169
-0.00776217
-0.00238601
-0.00601785
-0.00174432
-0.00216716
-0.0197382
0.00318057
-0.0197855
0.0013195
-0.018815
-0.000597092
-0.0171725
-0.00230897
-0.0148715
-0.00392128
-0.0120382
-0.00491929
-0.00905462
-0.00532528
-0.00626709
-0.00517354
-0.00425346
-0.00375795
-0.004546
-0.0181578
-0.0178336
0.000995291
-0.0168083
-0.00162241
-0.0149993
-0.00411797
-0.0124609
-0.00645964
-0.00925971
-0.00812048
-0.00564211
-0.00894288
-0.00247553
-0.00834013
-0.00047761
-0.00575587
-0.00701906
-0.0167017
-0.0159651
-0.0145063
-0.012202
-0.0090626
-0.0112599
-0.00522562
-0.0127799
-0.00171856
-0.0118472
0.0015336
-0.00900803
-0.00984468
-0.00857894
-0.00513993
-0.0162189
-0.00184614
-0.015141
0.00227356
-0.0131277
-0.0126221
-0.00414451
-0.00118047
-0.018105
0.00247578
-0.016784
-0.0139177
-0.000938105
0.00089028
-0.0186124
-0.0127757
-0.00167258
-0.00995461
0.00912165
0.0506848
-0.049773
0.0084873
0.0537873
-0.0531529
0.00806611
0.0570729
-0.0566517
0.00761454
0.0608882
-0.0604366
0.00704878
0.0649453
-0.0643796
0.00638408
0.0692389
-0.0685742
0.00567223
0.0737368
-0.0730249
0.0049597
0.0784905
-0.077778
0.00432767
0.0834594
-0.0828274
0.00383791
0.0886562
-0.0881665
0.00345598
0.0942035
-0.0938216
0.0031514
0.100167
-0.0998627
0.00291336
0.10657
-0.106331
0.00269711
0.113461
-0.113245
0.00247359
0.120876
-0.120652
0.00225129
0.128841
-0.128619
0.00203753
0.137402
-0.137189
0.0018407
0.146588
-0.146391
0.00165912
0.156423
-0.156242
0.00148865
0.166946
-0.166776
0.00132633
0.17819
-0.178027
0.00117476
0.190208
-0.190057
0.00102523
0.203082
-0.202932
0.000878312
0.216872
-0.216725
0.000735852
0.231631
-0.231488
0.000590873
0.247452
-0.247307
0.000444046
0.264399
-0.264252
0.000298649
0.282563
-0.282418
0.000153916
0.302046
-0.301901
0.322938
-0.322784
0.0140911
0.0514582
0.0131392
0.0547392
0.012125
0.058087
0.0112774
0.0617357
0.0106251
0.0655977
0.0101735
0.0696905
0.00975465
0.0741556
0.00926886
0.0789763
0.00877336
0.0839549
0.00829184
0.0891377
0.00781674
0.0946786
0.00737947
0.100605
0.00699699
0.106952
0.00662322
0.113835
0.00624049
0.121259
0.00584904
0.129233
0.00544719
0.137804
0.00504972
0.146985
0.00466276
0.15681
0.00428316
0.167326
0.00390936
0.178563
0.00353873
0.190579
0.00315294
0.203468
0.00275821
0.217267
0.00235091
0.232038
0.00192134
0.247881
0.00147509
0.264845
0.00101012
0.283028
0.000519864
0.302536
0.323458
0.0187859
0.0522191
0.0181568
0.0553683
0.0175298
0.058714
0.0168181
0.0624474
0.0160707
0.066345
0.015268
0.0704932
0.0143804
0.0750432
0.0135384
0.0798183
0.0128569
0.0846365
0.0122725
0.0897221
0.0116869
0.0952642
0.011159
0.101132
0.0106776
0.107433
0.0101717
0.114341
0.00965219
0.121778
0.00912854
0.129756
0.00859731
0.138336
0.00806983
0.147513
0.00753777
0.157342
0.00699046
0.167873
0.00643025
0.179124
0.00585058
0.191159
0.00523566
0.204082
0.00460202
0.2179
0.00393546
0.232704
0.00323222
0.248585
0.00249197
0.265585
0.00171039
0.28381
0.000881539
0.303365
0.32434
0.023606
0.053101
0.0225524
0.0564218
0.0215582
0.0597083
0.0207537
0.0632519
0.0201405
0.0669583
0.0195996
0.0710341
0.0189132
0.0757295
0.018189
0.0805425
0.0175058
0.0853197
0.0167154
0.0905125
0.0159116
0.096068
0.0152426
0.101801
0.0146108
0.108065
0.0139753
0.114977
0.0133489
0.122405
0.0126808
0.130424
0.0119692
0.139047
0.0112415
0.14824
0.0104955
0.158088
0.00973325
0.168635
0.00896427
0.179893
0.0081589
0.191964
0.00731006
0.204931
0.00643554
0.218775
0.00550916
0.233631
0.00453196
0.249562
0.00349898
0.266618
0.00240209
0.284907
0.0012393
0.304527
0.325579
0.0283108
0.0276053
0.0265592
0.0254165
0.0244198
0.0233918
0.0223934
0.0216758
0.0210714
0.0202832
0.0195216
0.0968296
0.0188277
0.102495
0.0180549
0.108838
0.0172766
0.115755
0.0165125
0.123169
0.0157082
0.131229
0.0148943
0.139861
0.0140642
0.14907
0.0131884
0.158964
0.0122839
0.16954
0.0113506
0.180826
0.0103445
0.19297
0.00929652
0.205979
0.00819904
0.219872
0.00702852
0.234801
0.00579078
0.2508
0.00447567
0.267933
0.00307482
0.286307
0.00158737
0.306015
0.327166
0.0234942
0.0226096
0.0216921
0.0208629
0.0200058
0.0190667
0.0180931
0.0170636
0.0159833
0.0148878
0.013745
0.0125294
0.0112694
0.0099389
0.00852204
0.00702454
0.00543115
0.00373329
0.00192729
0.0286878
0.0308633
-0.0270357
-0.0325153
0.030447
0.0272963
-0.0290555
0.0320694
0.0235906
-0.025213
0.0337164
0.0196322
-0.0212792
0.0350493
0.0155669
-0.0168998
0.0361226
0.0111247
-0.0121979
0.0369341
0.00683055
-0.00764209
0.0375348
0.00206604
-0.00266668
0.037993
-0.00265086
0.00219262
-0.00731544
0.00728939
0.0278539
0.0287527
-0.0257433
0.0296548
0.0254954
0.0312647
0.0219806
0.0327895
0.0181075
0.0340572
0.0142991
0.0350972
0.0100847
0.0359327
0.00599505
0.0364866
0.00151215
0.0367964
-0.00296065
-0.00742347
0.0268339
0.0266628
-0.0247439
0.0287342
0.0235951
0.0303806
0.0203342
0.0318323
0.0166558
0.0330737
0.0130577
0.0340968
0.0090617
0.0349632
0.00512866
0.0354747
0.00100062
0.035786
-0.00327198
-0.00748829
0.0259412
0.0246532
-0.0239316
0.0278056
0.0217307
0.0294279
0.0187118
0.0308469
0.0152368
0.0320512
0.0118534
0.0330314
0.00808147
0.0338502
0.00430985
0.0344189
0.000431954
0.0347004
-0.00355351
-0.00758969
0.0251205
0.0227422
-0.0232095
0.0269078
0.0199434
0.0284751
0.0171445
0.0298384
0.0138736
0.0310121
0.0106796
0.0319581
0.00713548
0.0326849
0.00358312
0.0332699
-0.00015305
0.0335241
-0.00380777
-0.00773425
0.0244005
0.0208999
-0.0225582
0.0260957
0.0182482
0.0276098
0.0156304
0.0289157
0.0125676
0.0300408
0.00955458
0.0309552
0.00622104
0.0316538
0.00288449
0.032177
-0.000676244
0.0324808
-0.00411156
-0.00783673
0.0237197
0.0190999
-0.0219197
0.0253671
0.0166007
0.0268318
0.0141657
0.0281005
0.0112989
0.0291972
0.00845791
0.0300679
0.00535032
0.0307731
0.00217929
0.0312601
-0.00116321
0.0315972
-0.00444868
-0.00793506
0.0230485
0.0173464
-0.021295
0.0246542
0.0149951
0.0261035
0.0127164
0.0273222
0.0100802
0.028424
0.00735614
0.0292634
0.0045109
0.0299506
0.0014921
0.0304109
-0.00162353
0.0307336
-0.00477134
-0.00802972
0.0223992
0.0156501
-0.0207029
0.0239308
0.0134635
0.0253557
0.0112915
0.0265351
0.00890089
0.0275738
0.00631741
0.0284318
0.00365284
0.0290507
0.000873245
0.0295256
-0.00209849
0.0297765
-0.00502224
-0.00814377
0.0218286
0.0139864
-0.0201649
0.0232851
0.0120069
0.0246299
0.00994668
0.0257991
0.00773173
0.0267506
0.00536588
0.0275853
0.00281815
0.0281805
0.000278101
0.028617
-0.00253506
0.0288941
-0.0052993
-0.00821298
0.0213313
0.0123716
-0.0197165
0.0227702
0.010568
0.0240404
0.00867648
0.0251543
0.00661775
0.026085
0.00443521
0.0268246
0.00207859
0.0274549
-0.000352247
0.0278195
-0.00289963
0.028113
-0.00559285
-0.00825762
0.0208944
0.0108001
-0.0193229
0.0222846
0.00917788
0.0235579
0.00740323
0.0246074
0.00556817
0.0255166
0.00352602
0.0262017
0.00139352
0.0267631
-0.000913658
0.0271343
-0.00327084
0.0273229
-0.00578147
-0.00832076
0.0204715
0.00922986
-0.0189012
0.0218023
0.00784699
0.0230191
0.00618645
0.0240611
0.00452621
0.024903
0.00268415
0.0255853
0.000711153
0.0260594
-0.00138774
0.0264106
-0.00362207
0.0265396
-0.00591046
-0.00835149
0.0200744
0.00770087
-0.0185454
0.0214139
0.0065075
0.0225472
0.00505322
0.023551
0.00352241
0.0243488
0.00188629
0.0249718
8.81848e-05
0.0254316
-0.00184753
0.0256944
-0.00388485
0.0258242
-0.00604031
-0.00833731
0.0197856
0.0062568
-0.0183415
0.0211006
0.00519248
0.0222031
0.00395069
0.0231353
0.00259029
0.0238993
0.00112222
0.024468
-0.000480522
0.024884
-0.00226353
0.0250679
-0.00406876
0.025175
-0.00614733
-0.0082365
0.019603
0.0048642
-0.0182104
0.0208778
0.00391767
0.0219201
0.00290841
0.0228215
0.00168886
0.0235083
0.000435436
0.0240556
-0.00102785
0.0243837
-0.00259159
0.0245365
-0.00422156
0.0245325
-0.00614337
-0.00805969
0.0194991
0.00350387
-0.0181388
0.0207488
0.00266798
0.0217076
0.00194961
0.0225247
0.000871781
0.0231713
-0.000211131
0.0236169
-0.00147348
0.0238636
-0.00283831
0.023973
-0.00433091
0.0237857
-0.00595611
-0.00765542
0.019512
0.00212467
-0.0181328
0.0206996
0.00148039
0.0217285
0.000920744
0.0223852
0.000215116
0.0228687
-0.000694647
0.0230986
-0.00170343
0.0231455
-0.00288515
0.0229589
-0.00414436
0.0225179
-0.00551509
-0.00633358
0.0196083
0.000811215
-0.0182948
0.0206388
0.000449846
0.0215492
1.03677e-05
0.0220672
-0.000302881
0.0221497
-0.000777146
0.0217492
-0.00130292
0.0209324
-0.0020684
0.0196043
-0.00281627
0.0181979
-0.00410863
-0.00356031
0.0154626
-0.0146513
0.0159124
0.0159228
0.0156199
0.0148427
0.0135398
0.0114714
0.00865516
0.00454653
0.0190632
0.0411452
0.0216646
0.0387465
-0.0413479
0.0242673
0.0361305
-0.0387332
0.0327004
-0.0354688
0.015822
0.0402938
0.0184994
0.0384679
0.0210284
0.0362175
0.0235068
0.0336521
0.0304638
0.00992542
0.040342
0.0126479
0.0391541
0.0153089
0.0376328
0.0179302
0.0358466
0.0204312
0.0337164
0.0227183
0.0313651
0.0284382
0.00131972
0.0393806
0.00409989
0.0390488
0.00686669
0.0384812
0.00959347
0.0376152
0.0122523
0.0364953
0.0148245
0.0350606
0.0173521
0.0333189
0.0197653
0.0313032
0.0219556
0.0291748
0.0264622
0.00117791
0.0366327
0.00389865
0.0363281
0.0066008
0.035779
0.00926593
0.0349501
0.0118706
0.0338906
0.0143631
0.0325681
0.016792
0.03089
0.0191116
0.0289836
0.0212603
0.0270261
0.024513
0.00104407
0.0339427
0.00371026
0.0336619
0.00634757
0.0331417
0.00894492
0.0323528
0.0114935
0.031342
0.0139262
0.0301354
0.0162649
0.0285513
0.0185084
0.0267401
0.0206179
0.0249166
0.0225727
0.000915104
0.0313097
0.00352793
0.0310491
0.00610493
0.0305647
0.00863034
0.0298273
0.0111246
0.0288478
0.0135058
0.0277542
0.0157563
0.0263008
0.0179402
0.0245562
0.0200187
0.0228381
0.0206717
0.000788946
0.0287325
0.00334877
0.0284892
0.00587283
0.0280406
0.00833146
0.0273687
0.0107696
0.0264097
0.0131134
0.0254105
0.0152942
0.0241199
0.0174049
0.0224456
0.0194355
0.0208074
0.0188123
0.000665511
0.0262043
0.0031763
0.0259785
0.00565479
0.0255622
0.00805484
0.0249687
0.0104275
0.024037
0.0127449
0.0230931
0.014898
0.0219669
0.0169273
0.0204162
0.0188841
0.0188506
0.0169935
0.000541611
0.0237219
0.0030053
0.0235148
0.00544619
0.0231213
0.0078082
0.0226066
0.0101041
0.0217411
0.0123889
0.0208083
0.0145496
0.0198062
0.016533
0.0184327
0.0184081
0.0169755
0.0152367
0.000424394
0.021275
0.00284614
0.021093
0.0052521
0.0207153
0.00759162
0.0202671
0.00981531
0.0195174
0.0120378
0.0185858
0.0141917
0.0176523
0.0161818
0.0164426
0.0180213
0.0151361
0.0135415
0.000309391
0.0188603
0.00269436
0.0187081
0.00506739
0.0183423
0.00740577
0.0179287
0.00958772
0.0173354
0.0117247
0.0164489
0.0138263
0.0155506
0.0158127
0.0144563
0.0176448
0.013304
0.0118634
0.000201521
0.0164707
0.00255881
0.0163508
0.00489272
0.0160084
0.0072333
0.0155882
0.00942356
0.0151452
0.0115004
0.014372
0.0135108
0.0135402
0.0154483
0.0125188
0.017253
0.0114992
0.0102152
9.97597e-05
0.014092
0.00244502
0.0140055
0.00473513
0.0137182
0.00706037
0.0132629
0.00928253
0.012923
0.0113675
0.012287
0.0133305
0.0115772
0.0151985
0.0106509
0.0169631
0.00973463
0.00863285
-4.5737e-06
0.011731
0.00235426
0.0116467
0.00461349
0.011459
0.00689426
0.0109822
0.009126
0.0106913
0.0112419
0.0101711
0.0132054
0.00961372
0.0150483
0.00880788
0.0167926
0.00799034
0.00708394
-7.7905e-05
0.00935709
0.00229456
0.00927421
0.00455126
0.00920232
0.0067762
0.00875722
0.00897621
0.00849125
0.0111124
0.0080349
0.0130937
0.00763248
0.0149196
0.00698195
0.0166439
0.00626606
0.00551743
-0.000150856
0.00695205
0.00224367
0.00687968
0.00455692
0.00688907
0.00677047
0.00654367
0.00894075
0.00632098
0.0110499
0.00592574
0.0130377
0.00564466
0.0149015
0.00511817
0.016554
0.00461353
0.00393265
-0.000225646
0.00452873
0.00216801
0.00448602
0.00454729
0.00450979
0.00677643
0.00431452
0.00896274
0.00413467
0.0110864
0.0038021
0.0130144
0.00371662
0.0149457
0.00318694
0.0165773
0.00298192
0.00237709
-0.000281388
0.00205416
0.00216278
0.00204186
0.00462109
0.00205148
0.0069486
0.00198701
0.00918406
0.00189922
0.0113287
0.00165744
0.0133248
0.00172049
0.0151855
0.00132626
0.0168584
0.001309
0.000940717
-0.000282126
0.00175973
0.00381121
0.00579822
0.00769744
0.00935488
0.0110754
0.0124016
0.0137106
0.0364609
0.00521244
0.00488462
0.00587479
0.00686687
0.00520897
0.0452256
0.00521835
0.0491695
0.00499488
0.0529678
0.00471051
0.0568533
0.00438097
0.0610442
0.00399194
0.0655387
0.00359707
0.0703669
0.00326681
0.0756456
0.00300774
0.0814471
0.00278636
0.0877628
0.00257327
0.0945162
0.00234406
0.101629
0.00210534
0.10904
0.00186798
0.116739
0.0016495
0.124781
0.00146217
0.133302
0.00129796
0.142418
0.00115089
0.15222
0.00101357
0.162738
0.000883694
0.173996
0.00076325
0.186007
0.000651257
0.198821
0.000547541
0.212491
0.000451258
0.227081
0.000361802
0.242656
0.000279483
0.259304
0.000196833
0.277131
0.000100357
0.29626
5.39068e-05
0.316901
0.338851
0.00572619
0.0463663
0.00515499
0.0497407
0.00477534
0.0533475
0.00448121
0.0571474
0.00423068
0.0612947
0.00397038
0.065799
0.00366958
0.0706677
0.00334719
0.075968
0.00303583
0.0817585
0.00274743
0.0880512
0.00247334
0.0947903
0.00220704
0.101895
0.00194518
0.109302
0.0017006
0.116984
0.00149179
0.124989
0.00132147
0.133472
0.00118262
0.142557
0.00105787
0.152345
0.000937849
0.162858
0.000821327
0.174113
0.000708596
0.18612
0.000603773
0.198926
0.0005077
0.212587
0.000418516
0.22717
0.00033534
0.24274
0.000259376
0.25938
0.000181758
0.277208
9.22518e-05
0.29635
4.85268e-05
0.316945
0.338899
-0.0326661
0.0465171
-0.0329585
0.0500331
-0.0330028
0.0533917
-0.0330499
0.0571946
-0.0331096
0.0613544
-0.0331691
0.0658584
-0.0331706
0.0706692
-0.033065
0.0758623
-0.032838
0.0815316
-0.0324835
0.0876967
-0.0320058
0.0943126
-0.0314027
0.101292
-0.0306629
0.108562
-0.0297877
0.116109
-0.0287928
0.123994
-0.0277006
0.13238
-0.0265273
0.141384
-0.0252722
0.15109
-0.0239238
0.16151
-0.0224667
0.172656
-0.0208882
0.184541
-0.0191799
0.197218
-0.0173358
0.210743
-0.0153507
0.225185
-0.0132184
0.240607
-0.0109322
0.257093
-0.0084778
0.274754
-0.00587238
0.293745
-0.00302156
0.314094
0.335878
-0.0291379
0.0465996
-0.0291625
0.0500577
-0.0292262
0.0534555
-0.0293347
0.057303
-0.0294006
0.0614204
-0.0294207
0.0658785
-0.029402
0.0706506
-0.0293612
0.0758216
-0.0292794
0.0814498
-0.0291131
0.0875304
-0.0288238
0.0940233
-0.028384
0.100852
-0.0277949
0.107973
-0.0270665
0.11538
-0.0262083
0.123136
-0.0252394
0.131411
-0.0241734
0.140318
-0.023021
0.149938
-0.0217807
0.16027
-0.0204444
0.17132
-0.0190013
0.183098
-0.0174429
0.195659
-0.0157628
0.209063
-0.0139554
0.223378
-0.0120154
0.238667
-0.00993676
0.255015
-0.0077092
0.272526
-0.00533012
0.291365
-0.00275128
0.311515
0.333126
-0.0253797
0.0467662
-0.0252721
0.0499501
-0.0251046
0.053288
-0.0250773
0.0572758
-0.0251591
0.0615021
-0.0253186
0.0660381
-0.0254935
0.0708255
-0.0256293
0.0759574
-0.0256862
0.0815066
-0.0256202
0.0874644
-0.0254007
0.0938039
-0.0250199
0.100471
-0.024492
0.107445
-0.0238393
0.114727
-0.0230951
0.122392
-0.0222809
0.130597
-0.0213979
0.139435
-0.0204317
0.148971
-0.0193682
0.159206
-0.0182018
0.170153
-0.0169307
0.181827
-0.0155513
0.19428
-0.0140603
0.207572
-0.0124532
0.221771
-0.0107251
0.236939
-0.00887179
0.253161
-0.00688643
0.270541
-0.00475685
0.289236
-0.00246169
0.30922
0.330665
-0.0215268
0.0470137
-0.0217877
0.0502111
-0.0220558
0.0535561
-0.022291
0.0575109
-0.0224391
0.0616502
-0.0224968
0.0660957
-0.0224774
0.0708061
-0.0224224
0.0759023
-0.0223364
0.0814206
-0.0222054
0.0873334
-0.0220119
0.0936104
-0.0217214
0.100181
-0.0213251
0.107049
-0.0208248
0.114227
-0.0202286
0.121796
-0.0195475
0.129915
-0.0187853
0.138673
-0.0179398
0.148126
-0.0170025
0.158269
-0.015968
0.169119
-0.0148376
0.180697
-0.0136152
0.193058
-0.0123003
0.206257
-0.0108884
0.220359
-0.00937492
0.235426
-0.00775422
0.251541
-0.00601982
0.268806
-0.00415499
0.287371
-0.00215392
0.307219
0.328511
-0.0170421
0.047156
-0.0172224
0.0503914
-0.0174324
0.053766
-0.0176235
0.057702
-0.017871
0.0618977
-0.0181548
0.0663796
-0.0184356
0.0710869
-0.0186552
0.0761219
-0.0187664
0.0815317
-0.0187482
0.0873152
-0.0185869
0.0934491
-0.0183012
0.099895
-0.0179166
0.106664
-0.0174518
0.113762
-0.0169377
0.121282
-0.016381
0.129359
-0.0157745
0.138066
-0.015104
0.147455
-0.0143543
0.157519
-0.0135154
0.16828
-0.0125846
0.179766
-0.0115607
0.192034
-0.0104446
0.205141
-0.00924408
0.219158
-0.00795869
0.23414
-0.00658351
0.250166
-0.00511181
0.267335
-0.00352583
0.285785
-0.00182914
0.305522
0.326682
-0.0124997
0.0474578
-0.0129496
0.0508413
-0.0135703
0.0543867
-0.0141893
0.058321
-0.0146275
0.0623359
-0.0149067
0.0666589
-0.0150776
0.0712577
-0.015169
0.0762133
-0.0151859
0.0815486
-0.0151136
0.0872429
-0.0149573
0.0932928
-0.0147264
0.0996642
-0.0144386
0.106376
-0.0141057
0.113429
-0.0137269
0.120903
-0.0132998
0.128932
-0.0128218
0.137588
-0.0122828
0.146916
-0.0116758
0.156912
-0.0109986
0.167603
-0.0102475
0.179015
-0.00942081
0.191207
-0.00851739
0.204238
-0.00753775
0.218179
-0.00648824
0.233091
-0.00536798
0.249045
-0.00416897
0.266136
-0.00287402
0.28449
-0.00149093
0.304139
0.325191
-0.00800472
0.0478204
-0.00824485
0.0510814
-0.00847002
0.0546119
-0.00877147
0.0586225
-0.00921184
0.0627763
-0.00971539
0.0671624
-0.0101799
0.0717222
-0.0105726
0.076606
-0.0108654
0.0818415
-0.0110362
0.0874138
-0.0110611
0.0933176
-0.0109554
0.0995585
-0.0107522
0.106173
-0.0104881
0.113165
-0.0101979
0.120613
-0.00988888
0.128623
-0.00955657
0.137256
-0.00918776
0.146548
-0.0087713
0.156496
-0.00829661
0.167128
-0.00775846
0.178477
-0.007156
0.190605
-0.00648777
0.203569
-0.00575479
0.217446
-0.00496061
0.232297
-0.00410922
0.248194
-0.00319482
0.265221
-0.00220242
0.283498
-0.00114189
0.303078
0.324049
-0.00321587
0.0483696
-0.0038904
0.0517559
-0.00460364
0.0553251
-0.00523876
0.0592576
-0.00573903
0.0632766
-0.00614606
0.0675694
-0.00648534
0.0720615
-0.00675163
0.0768723
-0.00692818
0.082018
-0.00701825
0.0875038
-0.0070372
0.0933366
-0.00700268
0.099524
-0.00693016
0.1061
-0.00683509
0.11307
-0.006718
0.120496
-0.00657331
0.128478
-0.00639386
0.137077
-0.00617359
0.146327
-0.00591133
0.156233
-0.00560634
0.166823
-0.00525668
0.178127
-0.00485903
0.190207
-0.00441457
0.203125
-0.00392513
0.216956
-0.00339164
0.231763
-0.00281644
0.247619
-0.00219482
0.2646
-0.00151463
0.282817
-0.000784844
0.302349
0.323264
0.00144903
0.0491132
0.000975912
0.052229
0.000603438
0.0556976
0.000286872
0.0595741
-0.00017626
0.0637397
-0.000694336
0.0680875
-0.0012723
0.0726395
-0.00183606
0.0774361
-0.00233622
0.0825182
-0.0027221
0.0878897
-0.0029723
0.0935868
-0.00310759
0.0996592
-0.00316056
0.106153
-0.00316746
0.113077
-0.00315978
0.120488
-0.00314285
0.128461
-0.00311104
0.137045
-0.00305206
0.146268
-0.00296386
0.156145
-0.00284513
0.166704
-0.00269589
0.177978
-0.00251523
0.190026
-0.00230547
0.202915
-0.00206734
0.216718
-0.00179821
0.231494
-0.00150274
0.247323
-0.00117864
0.264276
-0.000816413
0.282455
-0.000422693
0.301955
0.322841
0.00662961
0.00570573
0.00475167
0.00388923
0.00324935
0.00276269
0.00237723
0.00203529
0.00172606
0.00144932
0.00121454
0.0010111
0.000832902
0.000664968
0.00050069
0.000343001
0.000198992
7.65681e-05
-1.9908e-05
-9.12373e-05
-0.000140671
-0.000171077
-0.000188159
-0.000194759
-0.000189012
-0.000172575
-0.000148677
-0.000111159
-5.69933e-05
)
;

boundaryField
{
    outlet
    {
        type            calculated;
        value           nonuniform 0();
    }
    upperWall
    {
        type            symmetryPlane;
        value           nonuniform 0();
    }
    lowerWall
    {
        type            symmetryPlane;
        value           uniform 0;
    }
    inlet
    {
        type            calculated;
        value           nonuniform 0();
    }
    cylinder
    {
        type            calculated;
        value           uniform 0;
    }
    frontAndBack
    {
        type            empty;
        value           nonuniform 0();
    }
    procBoundary1to0
    {
        type            processor;
        value           nonuniform List<scalar> 
45
(
-0.0164022
-0.0430362
-0.0438061
-0.0431288
-0.0130796
-0.0418766
-0.0421856
-0.041829
-0.00713866
-0.041248
-0.0371914
-0.042226
-0.00448197
-0.0397234
-0.00400655
-0.0452221
-0.0491789
-0.0527444
-0.0565689
-0.0607147
-0.0651496
-0.069972
-0.0753154
-0.0811881
-0.0875415
-0.0943031
-0.101399
-0.108801
-0.116502
-0.124562
-0.133114
-0.142254
-0.152073
-0.162601
-0.173867
-0.185887
-0.198709
-0.212388
-0.226985
-0.242567
-0.259221
-0.277048
-0.296164
-0.316855
-0.338797
)
;
    }
    procBoundary1to2
    {
        type            processor;
        value           nonuniform List<scalar> 
63
(
0.0154627
0.0137216
0.0233918
0.0247099
0.0309892
0.0266247
0.0261994
0.0314049
0.0286474
0.0295463
0.0300838
0.0334379
0.0322568
0.0335271
0.0349605
0.0339963
0.00353581
0.0168275
0.000869527
-0.00235907
-0.00557675
-0.00876395
0.0113343
-0.0140152
0.00704344
-0.0191178
0.0034784
-0.0206453
0.00145754
-0.0183973
0.00453728
-0.00508826
0.0537481
0.0571273
0.0607544
0.0643947
0.067955
0.0720621
0.076728
0.0812601
0.0859241
0.0913006
-0.0244307
0.0977661
0.10338
0.109755
0.116584
0.124026
0.132168
0.140835
0.1501
0.160044
0.170635
0.181969
0.194186
0.207239
0.221203
0.236218
0.252297
0.269526
0.288005
0.307821
0.329094
)
;
    }
    procBoundary1to5
    {
        type            processor;
        value           nonuniform List<scalar> 
20
(
0.0129776
0.018797
0.0178025
0.00148528
0.00156995
0.00164593
0.00171789
0.00178829
0.00186272
0.00194076
0.00202249
0.0021053
0.00218809
0.00227895
0.00236554
0.00245184
0.0025559
0.00264896
0.00275596
0.00233628
)
;
    }
}


// ************************************************************************* //
