/*--------------------------------*- C++ -*----------------------------------*\
| =========                 |                                                 |
| \\      /  F ield         | OpenFOAM: The Open Source CFD Toolbox           |
|  \\    /   O peration     | Version:                                        |
|   \\  /    A nd           | Website:  www.openfoam.com                      |
|    \\/     M anipulation  |                                                 |
\*---------------------------------------------------------------------------*/
FoamFile
{
    version     2.0;
    format      ascii;
    class       volVectorField;
    location    "47";
    object      U;
}
// * * * * * * * * * * * * * * * * * * * * * * * * * * * * * * * * * * * * * //

dimensions      [0 1 -1 0 0 0 0];


internalField   nonuniform List<vector> 
1153
(
(0.0222376 -0.0296879 7.84786e-20)
(0.015799 -0.051431 -1.15291e-19)
(-0.022106 -0.0487392 1.35211e-20)
(-0.0522364 -0.0445101 -1.52893e-20)
(-0.063108 -0.0529396 -1.56661e-19)
(-0.0479523 -0.0685832 9.47924e-20)
(0.00350498 -0.0861867 -3.39794e-21)
(0.0936493 -0.1037 2.57981e-20)
(0.217603 -0.11422 -1.57248e-19)
(0.349933 -0.104608 1.27653e-19)
(0.00989995 -0.0159535 -3.04018e-20)
(-0.00150538 -0.0310082 -1.65085e-19)
(-0.0330241 -0.0298553 1.24628e-19)
(-0.0489114 -0.024643 -5.05715e-20)
(-0.0314899 -0.0271665 4.336e-20)
(0.0343629 -0.0328565 4.95986e-20)
(0.153795 -0.035578 -5.58885e-20)
(0.308504 -0.0324113 -1.7095e-19)
(0.491112 -0.016178 -1.40911e-19)
(0.639478 0.0072057 2.30457e-19)
(0.753914 0.0308836 -1.20527e-19)
(0.883123 0.0695918 3.31635e-22)
(-0.00397117 -0.00480899 -1.10783e-19)
(-0.0177352 -0.0149659 6.08139e-20)
(-0.0339121 -0.0168327 -2.554e-20)
(-0.0209183 -0.0125847 1.68216e-20)
(0.0455098 -0.0104181 1.03919e-19)
(0.185938 -0.00149903 -1.54007e-19)
(0.377316 0.0184459 5.27845e-20)
(0.585151 0.0482928 5.17878e-20)
(0.770667 0.0833132 1.09219e-19)
(0.888073 0.107531 -2.68733e-19)
(1.00435 0.13767 1.10927e-19)
(1.01051 0.147998 -4.88575e-20)
(1.05286 0.167162 5.07006e-20)
(1.00782 0.172147 -7.61213e-20)
(-0.0137026 0.00332182 1.52429e-19)
(-0.0229988 -0.00218375 8.97428e-21)
(-0.015979 -0.00645406 1.65913e-20)
(0.0393398 -0.00501064 1.09485e-21)
(0.188508 0.0101709 -8.06644e-21)
(0.418887 0.0468605 3.80059e-20)
(0.656587 0.0926648 -1.746e-19)
(0.859807 0.13833 9.39082e-20)
(0.975904 0.163915 -1.23341e-21)
(1.06383 0.185416 5.16975e-20)
(1.05253 0.183083 -3.63075e-20)
(1.05429 0.185141 -1.05165e-20)
(1.0026 0.176187 -2.51253e-20)
(0.976547 0.17668 -8.45416e-21)
(0.946706 0.179314 1.73719e-20)
(0.924881 0.18323 -1.88122e-20)
(0.929683 0.198885 -9.91936e-21)
(-0.0182882 0.00675537 -5.52691e-20)
(-0.0221048 0.00468445 -6.28773e-21)
(0.0140219 -0.00435185 -3.65725e-20)
(0.156685 0.00734335 -2.35657e-20)
(0.430065 0.059819 -1.08999e-19)
(0.703566 0.122621 1.38616e-20)
(0.915003 0.17675 2.0457e-19)
(1.02112 0.202944 -9.05483e-20)
(1.07667 0.215331 -5.78779e-20)
(1.04992 0.204705 6.19022e-20)
(1.03257 0.196081 -3.43993e-20)
(0.993785 0.187187 1.31223e-19)
(0.978974 0.184073 -1.94056e-20)
(0.974314 0.193904 -3.87067e-20)
(0.969713 0.194902 1.72013e-20)
(0.983879 0.214986 -3.02917e-20)
(0.983962 0.218749 5.62081e-21)
(0.992175 0.234897 2.27453e-20)
(0.996153 0.24231 1.19583e-21)
(0.99299 0.251481 -1.57686e-20)
(-0.0222915 0.00628717 -2.49221e-20)
(-0.0195184 0.000897685 1.42927e-19)
(0.0846643 -0.00678741 -5.0978e-20)
(0.398492 0.059476 -4.94522e-20)
(0.719059 0.141435 1.11709e-20)
(0.938667 0.202382 -1.08525e-19)
(1.03347 0.227322 7.38485e-20)
(1.06449 0.232336 -4.22079e-20)
(1.03567 0.219233 2.38148e-20)
(1.02289 0.210365 1.24028e-20)
(1.00911 0.207387 6.35779e-21)
(1.01112 0.207384 6.80226e-20)
(1.01571 0.215628 -1.1964e-20)
(1.00785 0.214704 -3.72179e-20)
(1.00923 0.221227 2.61695e-20)
(0.997415 0.223521 8.19019e-21)
(0.986265 0.220413 -7.58221e-21)
(0.977759 0.227824 1.30889e-22)
(0.963186 0.22135 -1.99792e-20)
(0.967167 0.230462 4.07549e-20)
(-0.0262101 0.00604436 -2.70483e-20)
(0.00692006 -0.0150862 -5.03295e-20)
(0.29487 0.0354831 3.5499e-20)
(0.687629 0.146451 -7.86604e-20)
(0.930765 0.216713 3.72415e-20)
(1.02511 0.241736 5.09734e-20)
(1.04884 0.244309 -2.69777e-20)
(1.0325 0.235367 4.31631e-20)
(1.03351 0.231987 -1.64135e-20)
(1.03393 0.23301 -3.85612e-20)
(1.03566 0.231539 -1.36854e-20)
(1.02924 0.232108 3.58739e-20)
(1.00678 0.223287 -8.8088e-21)
(0.995934 0.221324 -1.72395e-20)
(0.983943 0.218829 -3.51675e-22)
(0.972964 0.216619 2.20679e-21)
(0.972702 0.218401 -1.05234e-20)
(0.966438 0.222191 2.13793e-20)
(0.98223 0.224536 3.28902e-21)
(0.99111 0.235897 -1.04888e-21)
(-0.0438259 -0.00656256 -5.89002e-20)
(0.0921035 -0.0242068 4.78142e-20)
(0.592862 0.133039 -4.06088e-21)
(0.889864 0.220532 5.9905e-20)
(1.00749 0.251692 -7.52198e-20)
(1.04303 0.258766 1.16532e-20)
(1.04351 0.256675 -8.78674e-21)
(1.04898 0.256337 -1.93226e-20)
(1.04441 0.254613 -6.04148e-21)
(1.0341 0.247499 3.67564e-20)
(1.01866 0.241734 -9.89458e-21)
(0.995465 0.230533 3.32676e-21)
(0.990646 0.228386 7.63152e-21)
(0.993231 0.229219 -3.14187e-21)
(0.993594 0.229423 1.38554e-22)
(0.996999 0.232665 -1.8743e-20)
(0.991203 0.230626 -4.23385e-21)
(1.00031 0.236298 -2.51887e-21)
(1.00249 0.232141 5.43394e-22)
(0.99035 0.235256 3.01729e-21)
(-0.0437486 -0.0362822 1.98058e-20)
(0.358217 0.0552922 -2.26414e-20)
(0.790032 0.203927 -1.74794e-21)
(0.975318 0.260305 2.48266e-20)
(1.041 0.278086 -1.11907e-21)
(1.05365 0.281144 7.92909e-21)
(1.05248 0.278547 -1.9457e-21)
(1.03684 0.271202 8.80545e-21)
(1.02195 0.261194 2.2196e-20)
(1.01308 0.256023 2.31394e-21)
(1.00314 0.248572 -1.35328e-20)
(1.00448 0.247432 5.19213e-21)
(1.00755 0.246548 -9.36694e-21)
(1.00457 0.243124 8.6621e-21)
(0.997023 0.239645 -4.97776e-21)
(0.979492 0.230763 7.8556e-21)
(0.980283 0.228963 3.30738e-21)
(0.978052 0.22594 -2.15985e-21)
(0.969885 0.218266 9.45875e-22)
(0.973473 0.226232 -1.91327e-21)
(0.00241197 -0.0504738 1.91366e-20)
(0.611132 0.170866 -1.61892e-21)
(0.913688 0.266895 3.66909e-21)
(1.02891 0.301082 1.32197e-20)
(1.05403 0.305535 -1.32162e-20)
(1.04735 0.29933 -5.43245e-21)
(1.02983 0.289219 2.48624e-21)
(1.0207 0.280886 2.20262e-21)
(1.02003 0.277662 -1.48054e-21)
(1.01448 0.270956 1.1454e-21)
(1.00782 0.265156 -5.03844e-21)
(0.996344 0.256623 2.94184e-21)
(0.987919 0.248689 -3.44464e-22)
(0.982189 0.243559 -1.52691e-21)
(0.969286 0.235076 1.76977e-21)
(0.975009 0.234475 -8.29587e-22)
(0.980462 0.233082 -6.03143e-22)
(0.984383 0.231799 1.12902e-21)
(0.992453 0.232282 5.9261e-22)
(0.981625 0.230746 1.06638e-22)
(0.0303321 -0.414786 2.61679e-21)
(0.00810435 -0.591973 -1.33647e-20)
(-0.0257591 -0.61237 -9.11704e-21)
(0.0504625 -0.395779 2.3108e-20)
(0.0252781 -0.548792 2.34179e-20)
(-0.0216855 -0.563346 -1.45763e-20)
(-0.0596388 -0.578417 6.71746e-21)
(0.0655486 -0.356763 -3.77983e-22)
(0.0410835 -0.491304 4.84119e-20)
(-0.0137326 -0.504469 -6.30499e-20)
(-0.0577115 -0.520059 3.70341e-20)
(0.0748391 -0.308018 1.35526e-21)
(0.0530073 -0.426115 -1.88607e-20)
(-0.00702974 -0.439241 3.86327e-20)
(-0.0547849 -0.455646 -1.56599e-20)
(0.0778064 -0.254161 -6.47269e-20)
(0.061245 -0.356626 1.0395e-19)
(0.00164093 -0.370287 -1.31924e-19)
(-0.0470585 -0.387856 3.01068e-20)
(0.0745245 -0.20152 1.28437e-20)
(0.0627443 -0.289105 3.89034e-20)
(0.00579808 -0.301373 -2.70106e-20)
(-0.0407143 -0.316776 1.13625e-19)
(-0.0825981 -0.33863 -1.70203e-19)
(0.066508 -0.152324 -9.76334e-20)
(0.0588567 -0.22543 2.73988e-20)
(0.00486575 -0.237497 -9.17949e-20)
(-0.0398914 -0.252829 -3.32722e-20)
(-0.0775298 -0.275571 -5.37536e-20)
(-0.111485 -0.298293 3.11814e-20)
(0.0563279 -0.109559 -2.35083e-20)
(0.0526951 -0.167202 -1.66148e-20)
(0.00325455 -0.174962 -4.03552e-21)
(-0.0397577 -0.18713 6.92341e-20)
(-0.0741476 -0.209965 1.13968e-19)
(-0.103564 -0.234453 3.56845e-20)
(-0.126624 -0.260099 -2.39389e-20)
(0.0445799 -0.0753731 -9.50512e-20)
(0.0418856 -0.119635 4.57878e-20)
(-0.00357786 -0.123065 -2.20609e-20)
(-0.0432241 -0.129973 2.24345e-19)
(-0.0727289 -0.150318 -1.08225e-19)
(-0.0953849 -0.175134 1.35785e-19)
(-0.108845 -0.203051 -1.78021e-20)
(-0.107456 -0.232884 -6.78996e-20)
(0.0332763 -0.0486922 1.83673e-19)
(0.0301397 -0.0805309 -6.14514e-20)
(-0.0119312 -0.0802171 1.02735e-20)
(-0.0486962 -0.0810809 6.86766e-20)
(-0.0722351 -0.0964025 -1.12258e-19)
(-0.0831556 -0.118888 2.64539e-20)
(-0.0759764 -0.145408 9.24937e-21)
(-0.0426554 -0.174477 -4.54657e-20)
(0.0206734 -0.199035 2.60302e-19)
(0.993 0.221387 4.00127e-23)
(0.965909 0.210924 3.82536e-21)
(0.994293 0.231717 -5.02584e-21)
(0.993935 0.236139 -1.01581e-20)
(0.966275 0.230132 -1.12942e-20)
(1.0002 0.229518 -3.82267e-22)
(0.98243 0.221599 -3.23406e-21)
(0.972026 0.224355 8.08239e-24)
(1.02452 0.256543 6.26511e-21)
(0.952858 0.228941 -1.5711e-20)
(0.969083 0.200448 4.24946e-22)
(1.0379 0.238983 3.47049e-21)
(0.955078 0.204356 2.87673e-21)
(1.03543 0.255899 3.42283e-22)
(0.998225 0.247293 7.02864e-21)
(0.964391 0.193082 -1.55579e-22)
(1.03738 0.236556 -1.803e-21)
(1.00395 0.222906 -1.9885e-22)
(0.993499 0.225685 -1.32577e-21)
(1.06383 0.276015 1.98018e-21)
(1.01797 0.211471 -1.54352e-22)
(0.988014 0.201478 1.95135e-23)
(1.06313 0.246966 1.74914e-21)
(0.968772 0.200219 2.83263e-21)
(1.07763 0.273327 4.01118e-21)
(0.996749 0.235067 -9.55654e-21)
(1.05394 0.223218 1.445e-23)
(0.968154 0.183227 7.89027e-23)
(1.0718 0.242782 -1.47122e-21)
(0.994773 0.207054 -2.94289e-21)
(1.05824 0.247007 -5.08772e-21)
(1.03778 0.251659 -3.74677e-21)
(1.04675 0.207148 1.62389e-22)
(0.989471 0.190097 4.49339e-22)
(1.05044 0.216155 -3.9159e-21)
(1.02515 0.219419 -3.01389e-22)
(1.04804 0.222631 5.24743e-21)
(1.05262 0.251144 1.07934e-20)
(1.03038 0.182521 -4.57855e-23)
(1.01155 0.197065 -8.20963e-22)
(1.03732 0.191922 2.69231e-21)
(1.03521 0.218007 4.00215e-21)
(1.05009 0.207254 3.54764e-22)
(1.05157 0.237636 -6.68266e-21)
(1.02825 0.167357 -1.3634e-22)
(1.02412 0.195254 -4.1794e-22)
(1.04092 0.179569 -3.54083e-22)
(1.03937 0.208766 -4.34692e-21)
(1.05578 0.196824 -4.02109e-21)
(1.05256 0.222651 9.1536e-21)
(1.03423 0.159314 2.57893e-22)
(1.0338 0.187049 1.05512e-21)
(1.04889 0.171476 -1.80342e-21)
(1.04758 0.196917 -2.12514e-22)
(1.06136 0.186222 2.71522e-21)
(1.06037 0.208544 1.58982e-21)
(1.04031 0.152194 -9.77569e-23)
(1.04285 0.175867 -1.79986e-23)
(1.05491 0.162462 1.84993e-21)
(1.05688 0.184152 2.08763e-21)
(1.06693 0.174317 -2.30153e-21)
(1.06975 0.194394 -5.46076e-21)
(1.04607 0.143892 3.89083e-23)
(1.05081 0.163722 8.47865e-23)
(1.06027 0.152211 -5.41055e-22)
(1.06453 0.170944 -3.35962e-21)
(1.07266 0.161766 3.04582e-22)
(1.07678 0.179315 -3.45728e-21)
(1.05151 0.134784 -2.28009e-22)
(1.0573 0.150975 -1.87995e-22)
(1.06497 0.141325 -5.95892e-22)
(1.06974 0.156748 1.23346e-21)
(1.07655 0.148639 2.45638e-22)
(1.08073 0.163125 7.67658e-21)
(1.05623 0.125374 2.70876e-22)
(1.06216 0.138075 3.76971e-22)
(1.06822 0.130324 1.32147e-21)
(1.073 0.142487 1.487e-21)
(1.07878 0.135875 8.67695e-22)
(1.08359 0.14763 -4.23873e-21)
(1.05987 0.115579 -1.56901e-22)
(1.06548 0.125337 2.93031e-22)
(1.07026 0.119229 -1.71862e-22)
(1.07511 0.128745 -1.46753e-21)
(1.08007 0.123481 -3.08289e-22)
(1.08526 0.132832 -1.2347e-22)
(1.06249 0.105532 1.17011e-22)
(1.06751 0.112946 -4.96499e-22)
(1.07137 0.108102 -1.16552e-22)
(1.07605 0.11545 2.25599e-21)
(1.08022 0.111167 -7.12655e-22)
(1.08524 0.11842 -2.07676e-21)
(1.06416 0.0954601 -5.12424e-23)
(1.0685 0.100994 -7.16096e-23)
(1.07166 0.0971399 -1.16191e-21)
(1.07597 0.102708 1.47131e-22)
(1.07956 0.0992311 -8.52097e-22)
(1.08428 0.104792 2.42639e-21)
(1.06498 0.0855428 -2.62408e-23)
(1.0687 0.0895935 4.23839e-22)
(1.07133 0.0865334 4.41231e-22)
(1.07522 0.0906926 -9.05935e-23)
(1.07836 0.0878856 2.18148e-23)
(1.0827 0.0920795 -1.3116e-21)
(1.06505 0.075974 -5.93664e-24)
(1.06823 0.0788602 -5.8792e-22)
(1.07046 0.0764178 1.04105e-22)
(1.07392 0.0794404 -2.09775e-21)
(1.07661 0.0771547 7.58512e-22)
(1.08046 0.0802203 3.3691e-22)
(1.06444 0.0668145 -5.80868e-24)
(1.06713 0.0687918 6.26135e-25)
(1.069 0.0668368 7.8487e-23)
(1.07203 0.0689591 1.46936e-21)
(1.07432 0.0670946 8.6401e-22)
(1.07766 0.0692648 -7.53072e-22)
(1.06318 0.0581277 -9.17413e-24)
(1.0655 0.0594239 3.11871e-22)
(1.06712 0.0578619 2.7153e-22)
(1.06974 0.0593005 -2.48402e-22)
(1.07168 0.0577816 -7.83103e-22)
(1.07453 0.059263 8.70592e-22)
(1.06144 0.0500195 -5.08098e-23)
(1.06347 0.0508223 1.79729e-22)
(1.06489 0.049563 -4.06114e-23)
(1.0671 0.0504798 -2.21731e-22)
(1.06872 0.0492339 -3.94553e-22)
(1.07112 0.0501935 8.5794e-22)
(1.05936 0.0424622 6.41174e-23)
(1.06111 0.0429115 -8.1042e-23)
(1.06235 0.0418898 -5.72392e-23)
(1.0642 0.0424277 -4.18947e-22)
(1.06559 0.0414131 3.10903e-22)
(1.0676 0.0419965 3.43082e-22)
(1.05708 0.0354429 -8.87991e-23)
(1.05856 0.0356549 1.73865e-22)
(1.05967 0.034835 -4.97027e-22)
(1.06121 0.0351164 5.97055e-22)
(1.06242 0.0343009 -3.78586e-22)
(1.06408 0.0346227 4.19417e-22)
(1.05472 0.0289417 -2.26115e-23)
(1.05597 0.0290071 -1.45185e-23)
(1.05698 0.0283622 4.23501e-22)
(1.05827 0.0284794 2.13106e-22)
(1.05934 0.027836 -2.93823e-22)
(1.06071 0.0279852 -9.29238e-22)
(1.05244 0.0229239 4.93521e-23)
(1.0535 0.0229095 -6.65294e-23)
(1.05443 0.0224164 -4.17174e-22)
(1.0555 0.0224403 -2.74136e-22)
(1.05647 0.0219471 3.44516e-22)
(1.0576 0.0219951 5.9649e-23)
(1.05036 0.0173313 -1.41789e-24)
(1.05127 0.0172814 5.85914e-23)
(1.05215 0.0169226 -4.09295e-23)
(1.05306 0.0169024 1.37567e-23)
(1.05395 0.016544 -2.60813e-22)
(1.05488 0.0165414 1.48915e-22)
(1.0486 0.0121162 -4.71338e-24)
(1.04942 0.0120605 7.10372e-24)
(1.05026 0.011818 -1.0629e-22)
(1.05105 0.0117858 3.65333e-22)
(1.05189 0.0115459 -1.33523e-22)
(1.05268 0.0115269 5.20678e-22)
(1.04728 0.00717194 3.92807e-23)
(1.04804 0.0071306 -9.80475e-23)
(1.04888 0.00699123 -3.05187e-23)
(1.0496 0.00696649 -7.93111e-24)
(1.05042 0.00683106 5.22161e-23)
(1.0511 0.0068158 -1.0134e-22)
(1.04655 0.00236286 -8.96185e-23)
(1.04728 0.00234781 6.95522e-23)
(1.04813 0.00230188 1.48817e-22)
(1.04881 0.00229292 -4.85366e-23)
(1.04962 0.00224982 -3.34212e-22)
(1.05026 0.0022446 -1.11472e-22)
(0.884754 0.185771 5.79324e-20)
(0.876599 0.190276 -7.33246e-20)
(0.852715 0.186493 -5.94591e-20)
(0.832408 0.187954 -4.43273e-20)
(0.827626 0.198763 -1.0822e-21)
(0.829251 0.214802 -2.87189e-20)
(0.830176 0.233078 3.34631e-20)
(0.816927 0.24761 1.00781e-19)
(0.80255 0.262889 -9.31617e-20)
(0.794559 0.280358 6.7352e-20)
(0.788063 0.300709 -1.8023e-19)
(0.778576 0.32311 7.67647e-20)
(0.768033 0.349071 -3.56628e-20)
(0.761106 0.37899 -9.39188e-21)
(0.75317 0.412853 -1.1994e-20)
(0.747491 0.451252 -2.41439e-20)
(0.740023 0.497695 1.02608e-20)
(0.737335 0.547866 -4.8487e-20)
(0.735199 0.601062 1.69259e-20)
(0.540857 0.537566 -6.22681e-21)
(0.877494 0.18001 -1.27522e-21)
(0.879104 0.196163 -6.92881e-20)
(0.881658 0.207874 6.37257e-20)
(0.868699 0.21357 3.12638e-20)
(0.855204 0.22009 4.83684e-20)
(0.851178 0.230488 -4.34737e-21)
(0.84518 0.241986 -7.3347e-20)
(0.835658 0.255336 -2.3608e-20)
(0.821409 0.269684 3.48416e-20)
(0.819519 0.289982 2.9218e-20)
(0.822203 0.31298 -5.10192e-20)
(0.818506 0.335407 2.96463e-20)
(0.809612 0.358835 -1.92303e-20)
(0.801827 0.385233 4.77015e-22)
(0.800113 0.418608 -1.62101e-20)
(0.802536 0.456054 2.24568e-20)
(0.802251 0.499709 -2.50467e-20)
(0.805463 0.547749 3.77964e-21)
(0.812215 0.589386 -1.74865e-20)
(0.594506 0.514385 7.11953e-20)
(0.886529 0.185217 2.79771e-20)
(0.886079 0.199025 1.32928e-20)
(0.878002 0.203834 1.98274e-20)
(0.873062 0.212259 -9.12231e-20)
(0.864351 0.222423 2.14988e-21)
(0.863076 0.236154 5.06647e-20)
(0.871845 0.253504 3.60225e-20)
(0.869204 0.267496 -2.6596e-20)
(0.858203 0.280953 -2.09132e-20)
(0.847113 0.295279 -9.58185e-21)
(0.845738 0.315055 4.92776e-20)
(0.847228 0.337627 -3.26429e-20)
(0.846247 0.361945 2.59703e-21)
(0.846872 0.388548 -8.37003e-21)
(0.84692 0.41775 5.70669e-21)
(0.852032 0.450932 -1.07286e-20)
(0.858181 0.491495 1.27473e-20)
(0.867688 0.537996 5.43088e-21)
(0.876245 0.563813 2.43119e-21)
(0.633108 0.474101 1.47337e-20)
(0.899842 0.192698 3.47006e-20)
(0.898524 0.208701 -3.3155e-20)
(0.910556 0.221702 -9.98446e-21)
(0.903163 0.22644 1.198e-20)
(0.892309 0.233562 2.67266e-20)
(0.88352 0.242921 -3.53306e-20)
(0.880402 0.254465 4.45121e-20)
(0.882777 0.269069 -5.55148e-21)
(0.875806 0.282278 2.10143e-21)
(0.875054 0.299714 -8.42037e-21)
(0.879285 0.319534 -1.07864e-20)
(0.882368 0.339898 8.36382e-23)
(0.881667 0.360712 -3.28499e-21)
(0.880611 0.382786 4.36866e-21)
(0.886367 0.410903 2.75993e-21)
(0.897504 0.441292 2.59708e-21)
(0.908158 0.475904 -2.2591e-20)
(0.920982 0.517379 -1.12194e-20)
(0.929435 0.531281 1.10301e-20)
(0.65093 0.424873 -1.20879e-19)
(0.907059 0.195813 -2.40891e-20)
(0.907168 0.208714 -5.2348e-21)
(0.904236 0.214221 -2.04019e-20)
(0.910237 0.224359 -5.17501e-22)
(0.902893 0.232913 9.52461e-21)
(0.899996 0.245201 9.12791e-21)
(0.908713 0.261343 7.46749e-21)
(0.911759 0.274737 6.85042e-21)
(0.908118 0.287289 -1.96929e-20)
(0.898793 0.29831 1.94964e-20)
(0.899443 0.314765 3.80023e-21)
(0.905921 0.334239 3.94686e-22)
(0.911374 0.354847 -4.87225e-21)
(0.918672 0.376915 1.84952e-20)
(0.924958 0.399833 8.9728e-21)
(0.936654 0.425386 -4.62551e-20)
(0.951191 0.455068 1.63092e-20)
(0.966935 0.490786 -2.06047e-20)
(0.96179 0.490253 1.86022e-20)
(0.644642 0.367131 1.21869e-19)
(0.923961 0.205129 5.36738e-21)
(0.923488 0.217027 2.01931e-20)
(0.938514 0.229077 -3.15776e-21)
(0.934845 0.23379 2.66625e-21)
(0.929362 0.241256 5.10671e-21)
(0.919824 0.24872 -3.73165e-21)
(0.916069 0.258068 5.44552e-21)
(0.922235 0.271397 -3.16105e-21)
(0.919558 0.282539 -2.69059e-21)
(0.922244 0.297363 -1.99842e-21)
(0.929131 0.313717 2.92713e-21)
(0.936377 0.330551 3.76657e-21)
(0.940699 0.347145 -6.479e-22)
(0.943352 0.363269 1.32637e-20)
(0.953304 0.384543 -1.27564e-20)
(0.969181 0.407295 3.52722e-20)
(0.985257 0.431413 -3.26303e-20)
(0.998441 0.457558 -3.88299e-20)
(0.975509 0.445202 4.31199e-20)
(0.613862 0.308227 -4.7054e-20)
(0.934973 0.208695 4.85915e-21)
(0.935825 0.217128 -2.27442e-21)
(0.932251 0.22031 -4.64919e-21)
(0.940299 0.230385 6.24466e-21)
(0.93361 0.237264 -1.4253e-21)
(0.931344 0.247122 -8.89045e-22)
(0.94191 0.261271 1.12329e-22)
(0.947879 0.272802 -2.2613e-21)
(0.949406 0.283986 5.56311e-21)
(0.943102 0.292137 -2.34713e-21)
(0.944879 0.304492 3.26559e-21)
(0.952924 0.319698 -1.74272e-21)
(0.960826 0.335128 -8.07458e-21)
(0.972771 0.352296 1.07018e-20)
(0.983569 0.368945 -6.61919e-21)
(0.997843 0.386442 3.80084e-21)
(1.01387 0.406514 -7.06609e-20)
(1.02153 0.42771 4.93699e-20)
(0.96091 0.398535 5.59797e-20)
(0.543588 0.239608 -1.23596e-20)
(0.945366 0.213145 9.14393e-22)
(0.946698 0.219758 -7.00957e-23)
(0.963383 0.232018 -3.03121e-22)
(0.961262 0.23736 1.04198e-21)
(0.95892 0.244641 -1.0588e-21)
(0.95326 0.250733 -1.28481e-22)
(0.949747 0.256742 -2.71693e-22)
(0.955607 0.266912 4.4607e-21)
(0.952416 0.274084 -3.61536e-22)
(0.957036 0.285798 5.54609e-22)
(0.968058 0.29964 2.67525e-21)
(0.978464 0.312864 -3.03451e-21)
(0.986362 0.32536 5.34091e-21)
(0.989943 0.335221 -1.23174e-20)
(1.00016 0.349466 3.183e-20)
(1.01704 0.365301 -1.98613e-20)
(1.03059 0.3822 4.4191e-20)
(1.02418 0.393397 -3.78409e-20)
(0.922719 0.351368 1.22571e-21)
(0.448966 0.180114 3.38621e-20)
(0.961789 0.219918 2.14402e-22)
(0.965669 0.224355 3.40937e-22)
(0.958659 0.225162 -6.1084e-22)
(0.963012 0.232687 -1.02359e-21)
(0.955675 0.236837 3.02441e-22)
(0.952817 0.242836 -1.23903e-21)
(0.966996 0.255157 1.53417e-21)
(0.974865 0.26425 -6.67874e-21)
(0.98034 0.273982 1.73694e-21)
(0.979477 0.280572 -6.16666e-21)
(0.982227 0.288948 -1.85162e-21)
(0.989408 0.29938 2.15072e-21)
(0.995318 0.308738 5.15669e-21)
(1.0087 0.321641 -3.88487e-21)
(1.02343 0.333844 -1.47208e-20)
(1.03676 0.345191 -2.55354e-20)
(1.04475 0.357499 1.99876e-20)
(1.01928 0.364441 7.53957e-21)
(0.850029 0.308452 -2.05266e-21)
(0.267204 0.100996 -1.90345e-20)
(0.961275 0.219607 -6.87776e-23)
(0.960786 0.219875 9.6226e-23)
(0.978208 0.231699 -9.85042e-23)
(0.977876 0.236578 -5.51764e-22)
(0.976871 0.241815 8.93442e-22)
(0.981299 0.248796 4.7273e-22)
(0.980912 0.25254 -1.52133e-21)
(0.984233 0.258756 1.74253e-21)
(0.977554 0.26106 2.64384e-21)
(0.980471 0.268195 -2.56592e-21)
(0.994912 0.279891 2.52779e-22)
(1.00738 0.289824 7.18182e-21)
(1.0192 0.300355 -3.1027e-21)
(1.02481 0.306323 5.99414e-21)
(1.03146 0.314017 2.53906e-22)
(1.04333 0.32342 -2.94254e-21)
(1.04097 0.332453 1.42474e-20)
(0.977719 0.322703 3.22297e-21)
(0.730318 0.24197 -1.9561e-20)
(0.102182 0.00156506 -1.3064e-20)
(0.746916 -0.0329206 4.86502e-21)
(0.729332 -0.0349274 3.97019e-21)
(0.710051 -0.0368799 -7.59617e-21)
(0.68856 -0.0386944 6.57001e-21)
(0.665053 -0.0404374 5.45972e-22)
(0.638947 -0.0421116 -1.07603e-20)
(0.610536 -0.043825 1.7349e-20)
(0.578929 -0.0455221 -1.79097e-20)
(0.544459 -0.0472739 3.53831e-20)
(0.505672 -0.0489301 -2.29172e-20)
(0.463088 -0.0505879 4.08214e-21)
(0.4142 -0.0520476 1.44847e-20)
(0.359983 -0.0536113 -1.07441e-20)
(0.295427 -0.0550249 -1.36914e-20)
(0.223691 -0.0563779 1.18735e-20)
(0.132498 -0.0548034 -1.73296e-20)
(0.0401141 -0.037995 5.34302e-21)
(0.746178 -0.00365003 -4.54494e-20)
(0.728854 -0.00303172 -1.0963e-20)
(0.70989 -0.00218549 -3.19828e-20)
(0.68865 -0.00107202 -3.07696e-20)
(0.665388 0.000346622 3.17487e-20)
(0.63946 0.00212376 -1.75729e-20)
(0.611281 0.00432783 -1.00891e-20)
(0.579902 0.00705698 4.44482e-20)
(0.545727 0.0104096 -6.14041e-20)
(0.507184 0.014518 1.62093e-20)
(0.464767 0.0194428 7.17845e-21)
(0.415882 0.0253581 -6.46571e-20)
(0.361609 0.0323386 -2.71027e-20)
(0.297294 0.0407341 -7.06336e-21)
(0.226594 0.0504689 4.09108e-20)
(0.137979 0.0629573 5.02789e-21)
(0.0468423 0.0603015 3.54954e-20)
(0.74918 0.019837 -5.59132e-21)
(0.732232 0.0224029 1.13811e-22)
(0.713648 0.0252384 -6.57356e-21)
(0.692878 0.0283952 5.77954e-21)
(0.670232 0.0318977 1.1381e-19)
(0.645178 0.0359486 -8.62738e-20)
(0.618078 0.0405549 2.40023e-20)
(0.588136 0.0460847 -3.29961e-20)
(0.555632 0.0525316 -4.22162e-20)
(0.519157 0.0605164 4.41497e-20)
(0.479278 0.0700695 2.01536e-20)
(0.433662 0.0820602 2.6098e-20)
(0.383449 0.0964705 -5.19155e-21)
(0.324051 0.114714 -6.05429e-20)
(0.258579 0.135274 1.49172e-19)
(0.172786 0.161836 -1.53769e-20)
(0.0725163 0.151325 -3.82209e-20)
(0.77049 0.0472789 5.80763e-20)
(0.755929 0.0514296 6.23507e-21)
(0.739434 0.0563679 1.4899e-20)
(0.721015 0.0618303 -2.22983e-20)
(0.700643 0.0680377 2.2299e-20)
(0.678362 0.0748644 -1.10516e-20)
(0.653842 0.0826336 -8.23389e-21)
(0.627284 0.0912042 -5.55159e-20)
(0.597913 0.100886 3.96544e-20)
(0.566395 0.111653 3.49666e-20)
(0.530848 0.123741 -2.14835e-20)
(0.492339 0.137536 -1.03575e-19)
(0.44888 0.153843 3.69999e-20)
(0.402327 0.173004 8.2606e-20)
(0.347709 0.196991 9.03727e-20)
(0.28948 0.225106 -1.33728e-19)
(0.211869 0.263107 -5.5316e-20)
(0.106176 0.242743 -7.49428e-21)
(0.778541 0.0665906 -2.07391e-20)
(0.764979 0.0713272 -1.14921e-20)
(0.749058 0.0768201 -7.36644e-20)
(0.731696 0.0829328 1.16279e-19)
(0.712468 0.0898653 7.62512e-21)
(0.692354 0.0979354 4.83419e-20)
(0.670145 0.107391 2.54386e-20)
(0.646501 0.118567 -5.67375e-20)
(0.619384 0.131572 2.40019e-20)
(0.590245 0.14697 7.35735e-20)
(0.557892 0.164983 2.18072e-20)
(0.521668 0.184928 -2.66744e-19)
(0.479945 0.208221 2.72926e-19)
(0.435769 0.234575 -1.58057e-19)
(0.385118 0.266617 -1.83226e-19)
(0.331907 0.302806 2.06989e-19)
(0.261879 0.353564 -1.74606e-19)
(0.150477 0.327609 2.39908e-20)
(0.799722 0.0912104 5.80125e-20)
(0.789162 0.0969871 -4.69429e-20)
(0.776269 0.104486 5.96766e-20)
(0.760601 0.112762 -2.6215e-20)
(0.74292 0.121404 -9.05135e-20)
(0.723379 0.130337 8.64862e-20)
(0.702925 0.139863 -2.92195e-20)
(0.682293 0.150694 -1.0327e-20)
(0.66198 0.163058 -4.15937e-20)
(0.640007 0.17712 3.42717e-20)
(0.613737 0.192661 -5.73735e-20)
(0.58508 0.212094 1.68616e-20)
(0.555097 0.235047 3.49403e-20)
(0.518367 0.261506 -1.68884e-19)
(0.477763 0.291964 2.4671e-19)
(0.43199 0.329488 -6.01438e-20)
(0.387041 0.3725 5.38101e-20)
(0.325876 0.433068 1.01108e-20)
(0.204342 0.400952 1.43839e-19)
(0.817489 0.102075 1.03036e-19)
(0.81083 0.104074 2.449e-20)
(0.802209 0.109307 -1.66701e-19)
(0.790097 0.116656 1.62226e-19)
(0.777233 0.12666 -9.16188e-21)
(0.763195 0.137917 -5.94955e-20)
(0.746683 0.149953 -7.88002e-20)
(0.726678 0.162127 9.37572e-20)
(0.70277 0.1751 7.74008e-20)
(0.680029 0.190546 5.30402e-20)
(0.661199 0.209418 1.3219e-19)
(0.642193 0.229752 -1.33725e-19)
(0.616093 0.251316 -6.80288e-20)
(0.589553 0.276955 2.17091e-19)
(0.561014 0.307796 -1.11172e-19)
(0.527839 0.341733 -6.08961e-20)
(0.487226 0.382811 -8.09455e-20)
(0.448953 0.429568 7.08022e-20)
(0.39954 0.49723 -1.58667e-20)
(0.268109 0.461241 -4.33951e-20)
(0.828056 0.130665 9.34496e-20)
(0.825405 0.134996 -2.58284e-20)
(0.814376 0.140013 2.50592e-20)
(0.800651 0.146542 -1.61337e-19)
(0.78338 0.153932 -2.08564e-20)
(0.770539 0.16465 6.76778e-20)
(0.761384 0.178004 1.10661e-19)
(0.75342 0.193052 -9.97092e-20)
(0.738219 0.207315 -4.16e-20)
(0.712187 0.220643 -3.24194e-22)
(0.685907 0.237724 1.71969e-20)
(0.668426 0.260477 -1.22851e-19)
(0.651883 0.2867 -5.62976e-20)
(0.629571 0.314154 4.68308e-20)
(0.604486 0.346752 9.95898e-20)
(0.579595 0.384373 -9.7088e-20)
(0.548372 0.428832 -1.11627e-20)
(0.51921 0.478067 2.91441e-20)
(0.481004 0.547749 -5.48444e-20)
(0.335315 0.505405 -2.01254e-20)
(0.840876 0.138451 -3.02061e-20)
(0.839735 0.143609 -8.56414e-20)
(0.83816 0.154874 1.14925e-19)
(0.827742 0.165753 -8.48793e-20)
(0.810869 0.175265 -5.8395e-20)
(0.785667 0.18236 1.4868e-20)
(0.765113 0.192567 1.72714e-20)
(0.756099 0.208012 1.47916e-20)
(0.757201 0.228652 2.83517e-20)
(0.751012 0.248259 1.37631e-19)
(0.728171 0.265422 -1.77611e-20)
(0.703253 0.285029 -1.76748e-20)
(0.684978 0.310964 2.44218e-20)
(0.671654 0.3421 4.18246e-20)
(0.654502 0.377111 -1.38554e-19)
(0.635145 0.415658 1.70315e-19)
(0.610976 0.461966 -6.97003e-20)
(0.591153 0.512671 6.84896e-20)
(0.566586 0.581331 5.56543e-20)
(0.407384 0.533924 -4.33097e-20)
(0.854735 0.166043 -4.7009e-21)
(0.842072 0.160395 -2.1865e-20)
(0.832965 0.165501 1.50515e-20)
(0.83448 0.180095 9.69959e-20)
(0.834793 0.196635 8.62852e-22)
(0.828452 0.211312 1.92227e-20)
(0.805228 0.220262 -6.44873e-20)
(0.779423 0.229245 5.58684e-20)
(0.765315 0.243572 -9.44882e-20)
(0.765176 0.264767 5.08291e-20)
(0.760761 0.287694 1.11655e-19)
(0.746125 0.310052 -1.26615e-19)
(0.728716 0.334751 1.68012e-19)
(0.713371 0.363264 -2.97102e-21)
(0.701612 0.398915 -6.10801e-20)
(0.691806 0.439353 1.26235e-19)
(0.676699 0.486244 -8.16992e-20)
(0.665214 0.536623 1.35878e-20)
(0.652365 0.59961 -2.90554e-20)
(0.475278 0.544327 1.8971e-20)
(0.831123 0.128945 -2.63236e-20)
(0.842291 0.140691 1.14844e-19)
(0.858449 0.130611 8.21748e-23)
(0.856402 0.170651 3.93484e-20)
(0.889042 0.129199 0)
(0.865937 0.160261 0)
(0.884248 0.13309 0)
(0.887528 0.151587 0)
(0.871676 0.127142 0)
(0.905169 0.152644 0)
(0.912891 0.130458 0)
(0.895658 0.144569 0)
(0.958674 0.135274 0)
(0.889916 0.13655 0)
(0.967761 0.129914 0)
(0.912725 0.138987 0)
(0.953666 0.119777 0)
(0.934292 0.143122 0)
(0.949344 0.113991 0)
(0.94332 0.142483 0)
(0.956926 0.111735 0)
(0.951065 0.137922 0)
(0.965599 0.110203 0)
(0.96152 0.13242 0)
(0.973318 0.108459 0)
(0.971815 0.126913 0)
(0.980945 0.106182 0)
(0.980572 0.121476 0)
(0.988484 0.103133 0)
(0.988392 0.115981 0)
(0.995764 0.0990636 0)
(0.995986 0.110014 0)
(1.00271 0.0941292 0)
(1.0033 0.103379 0)
(1.0093 0.0886284 0)
(1.01021 0.096323 0)
(1.01552 0.0827342 0)
(1.01664 0.089091 0)
(1.02121 0.0765001 0)
(1.02245 0.0817362 0)
(1.02617 0.069997 0)
(1.02752 0.0742742 0)
(1.03029 0.063323 0)
(1.03176 0.0667582 0)
(1.03348 0.0565958 0)
(1.03506 0.059285 0)
(1.03575 0.04994 0)
(1.03737 0.0519927 0)
(1.03721 0.0434305 0)
(1.0388 0.0449699 0)
(1.03801 0.0371 0)
(1.03949 0.0382305 0)
(1.03824 0.0309581 0)
(1.03958 0.0317642 0)
(1.03804 0.0250077 0)
(1.03922 0.0255642 0)
(1.03759 0.0192062 0)
(1.0386 0.0195765 0)
(1.03703 0.0135327 0)
(1.03793 0.0137546 0)
(1.03639 0.00802594 0)
(1.03729 0.00811164 0)
(1.03568 0.00265397 0)
(1.03664 0.0026643 0)
(0.891177 0.16626 -3.23516e-20)
(0.871698 0.153503 2.39765e-20)
(0.908596 0.168387 -5.64711e-20)
(0.900886 0.166788 1.48818e-21)
(0.925263 0.178929 1.13608e-20)
(0.930159 0.182859 -1.1009e-20)
(0.947576 0.191813 -7.04788e-21)
(0.949712 0.194666 -1.86061e-21)
(0.972624 0.206755 4.48917e-23)
(0.958509 0.200443 -1.13482e-23)
(0.881377 0.156558 2.65607e-20)
(0.878729 0.154699 1.72754e-20)
(0.925474 0.177232 2.86545e-20)
(0.895743 0.16664 -4.41784e-21)
(0.957657 0.198138 9.27217e-21)
(0.916936 0.179955 -1.54776e-20)
(0.982971 0.213195 4.31193e-21)
(0.935278 0.190125 -4.38757e-23)
(1.00049 0.225288 -4.91257e-23)
(0.951319 0.200052 1.74372e-22)
(0.873359 0.146128 -2.64384e-20)
(0.924606 0.163626 -3.17299e-20)
(0.914192 0.160922 1.42773e-20)
(0.944054 0.169813 -1.64295e-20)
(0.951949 0.179222 -5.58984e-21)
(0.95502 0.177204 6.85219e-21)
(0.976147 0.193225 3.54752e-22)
(0.974091 0.188739 1.37157e-21)
(0.983569 0.201063 -5.20191e-23)
(1.0044 0.210503 -1.71535e-22)
(0.913632 0.149405 4.04956e-20)
(0.939072 0.1625 4.24211e-20)
(0.920127 0.153984 -7.39697e-21)
(0.977294 0.178167 2.32402e-22)
(0.93157 0.164197 -2.56142e-21)
(0.995813 0.19365 2.22394e-21)
(0.943008 0.174519 -1.00794e-21)
(1.01616 0.20916 -4.51605e-23)
(0.951511 0.181967 -4.42292e-23)
(1.03574 0.226775 5.95508e-23)
(0.952969 0.152905 -2.69913e-20)
(0.912259 0.148395 -4.36605e-21)
(0.956526 0.15985 -1.75541e-20)
(0.951191 0.162766 -6.58628e-21)
(0.957636 0.165905 2.07217e-21)
(0.976729 0.179383 3.39758e-21)
(0.963027 0.173747 1.81388e-21)
(0.995323 0.192492 8.41974e-22)
(0.982235 0.186081 4.5428e-24)
(1.00088 0.20117 4.91871e-23)
(0.960219 0.145512 -7.11383e-21)
(0.906901 0.143126 -1.26778e-20)
(0.981191 0.160443 1.89762e-20)
(0.926373 0.148901 9.71124e-21)
(0.996948 0.17315 -2.80801e-21)
(0.941868 0.159056 -4.27793e-21)
(1.00715 0.18628 -1.77639e-21)
(0.954043 0.167963 -7.84025e-22)
(1.02739 0.202054 -8.43357e-24)
(0.960628 0.174322 -3.64492e-24)
(0.949603 0.134338 1.241e-20)
(0.924106 0.147736 8.93712e-21)
(0.974182 0.14886 -6.03739e-21)