/*--------------------------------*- C++ -*----------------------------------*\
| =========                 |                                                 |
| \\      /  F ield         | OpenFOAM: The Open Source CFD Toolbox           |
|  \\    /   O peration     | Version:                                        |
|   \\  /    A nd           | Website:  www.openfoam.com                      |
|    \\/     M anipulation  |                                                 |
\*---------------------------------------------------------------------------*/
FoamFile
{
    version     2.0;
    format      ascii;
    class       volScalarField;
    location    "0.5";
    object      p;
}
// * * * * * * * * * * * * * * * * * * * * * * * * * * * * * * * * * * * * * //

dimensions      [0 2 -2 0 0 0 0];


internalField   nonuniform List<scalar> 
400
(
1.5388
0.969573
0.760379
0.70158
0.66847
0.64311
0.623031
0.606069
0.590969
0.577116
0.564148
0.551825
0.539985
0.528523
0.517363
0.506456
0.495765
0.485265
0.474937
0.464769
1.31921
0.953724
0.7817
0.719792
0.681035
0.651627
0.629137
0.610677
0.594557
0.579979
0.566479
0.553753
0.541603
0.529897
0.518543
0.507479
0.496661
0.486056
0.475642
0.465401
1.1526
0.930243
0.79434
0.731835
0.690321
0.658645
0.634471
0.614827
0.59785
0.582638
0.568659
0.555566
0.543127
0.531192
0.519654
0.508441
0.4975
0.486795
0.476296
0.465985
1.04451
0.905708
0.798904
0.738756
0.696901
0.664424
0.63921
0.618668
0.600978
0.585202
0.570781
0.557336
0.544618
0.532456
0.520735
0.509372
0.498307
0.487499
0.476916
0.466533
0.96832
0.88061
0.797799
0.742737
0.702231
0.669869
0.644034
0.622746
0.604391
0.588051
0.573161
0.559333
0.5463
0.533881
0.521948
0.510411
0.499202
0.488274
0.477591
0.467125
0.912037
0.856167
0.792741
0.744175
0.706219
0.674785
0.648835
0.62705
0.608133
0.591255
0.575885
0.561642
0.548259
0.535545
0.523366
0.511622
0.500242
0.48917
0.478367
0.4678
0.870124
0.833766
0.785297
0.743381
0.708613
0.678746
0.653227
0.631294
0.612009
0.594694
0.578883
0.564231
0.550483
0.537451
0.524999
0.513022
0.501444
0.490206
0.479262
0.468577
0.838454
0.813996
0.776726
0.740936
0.709532
0.681593
0.656928
0.635192
0.615777
0.598175
0.582011
0.566996
0.552901
0.539552
0.526816
0.514592
0.502801
0.491378
0.480277
0.469458
0.81398
0.796887
0.767903
0.737457
0.709294
0.683396
0.659837
0.638562
0.619234
0.601508
0.585106
0.569801
0.555404
0.541762
0.528755
0.516285
0.504275
0.492661
0.481394
0.470432
0.794669
0.782251
0.759373
0.733438
0.708241
0.684332
0.661984
0.641336
0.622259
0.60455
0.588024
0.572515
0.557877
0.543984
0.530732
0.518032
0.505812
0.494011
0.482577
0.471469
0.779197
0.769825
0.751453
0.729243
0.70667
0.684609
0.663472
0.643531
0.62481
0.607224
0.590668
0.575035
0.560219
0.546125
0.532664
0.519761
0.50735
0.495374
0.483782
0.472534
0.766674
0.759343
0.744302
0.725123
0.70482
0.68442
0.664433
0.645214
0.626902
0.609505
0.592989
0.577297
0.562361
0.548113
0.534483
0.521409
0.508831
0.496699
0.484964
0.473585
0.756489
0.750559
0.737991
0.721249
0.702872
0.683932
0.664994
0.64647
0.628579
0.611407
0.594975
0.579271
0.564261
0.549901
0.536139
0.522925
0.510208
0.497941
0.48608
0.474585
0.748213
0.743264
0.732537
0.717733
0.700965
0.683278
0.665269
0.647384
0.629901
0.612962
0.596638
0.580953
0.565903
0.551464
0.537602
0.524277
0.511445
0.499066
0.487098
0.475504
0.741538
0.737287
0.727928
0.714648
0.699196
0.682563
0.665353
0.648034
0.630923
0.614209
0.598
0.582352
0.567285
0.552793
0.538856
0.525444
0.512521
0.500051
0.487995
0.476319
0.736244
0.732492
0.724144
0.712038
0.697637
0.681865
0.665321
0.648484
0.631698
0.615186
0.599088
0.583483
0.568413
0.553887
0.539895
0.526418
0.513424
0.500882
0.488756
0.477012
0.732171
0.728771
0.721156
0.70993
0.696341
0.681244
0.665232
0.648785
0.632268
0.615927
0.599926
0.584364
0.569298
0.55475
0.540721
0.527194
0.514147
0.50155
0.48937
0.477574
0.729205
0.726047
0.71894
0.708341
0.695342
0.680744
0.665129
0.648978
0.632666
0.616459
0.600535
0.58501
0.569951
0.55539
0.541335
0.527774
0.514689
0.502052
0.489833
0.477999
0.727268
0.724261
0.717474
0.707278
0.694664
0.680395
0.665043
0.649091
0.632918
0.616803
0.600933
0.585434
0.570381
0.555813
0.541741
0.52816
0.51505
0.502387
0.490142
0.478284
0.726311
0.723377
0.716745
0.706745
0.694321
0.680216
0.664996
0.649142
0.63304
0.616971
0.601129
0.585644
0.570595
0.556023
0.541944
0.528352
0.51523
0.502555
0.490297
0.478427
)
;

boundaryField
{
    fixedWalls
    {
        type            zeroGradient;
    }
    inlet
    {
        type            zeroGradient;
    }
    outlet
    {
        type            fixedValue;
        value           nonuniform 0();
    }
    frontAndBack
    {
        type            empty;
    }
    procBoundary0to1
    {
        type            processor;
        value           nonuniform List<scalar> 
20
(
0.45475
0.45532
0.455845
0.456333
0.456855
0.457445
0.458122
0.45889
0.45974
0.460651
0.461591
0.462526
0.463422
0.46425
0.464987
0.465618
0.466132
0.466521
0.466782
0.466913
)
;
    }
    procBoundary0to4
    {
        type            processor;
        value           nonuniform List<scalar> 
20
(
0.726311
0.723377
0.716745
0.706745
0.694321
0.680216
0.664996
0.649142
0.63304
0.616971
0.601129
0.585644
0.570595
0.556023
0.541944
0.528352
0.51523
0.502555
0.490297
0.478427
)
;
    }
}


// ************************************************************************* //
