/*--------------------------------*- C++ -*----------------------------------*\
| =========                 |                                                 |
| \\      /  F ield         | OpenFOAM: The Open Source CFD Toolbox           |
|  \\    /   O peration     | Version:                                        |
|   \\  /    A nd           | Website:  www.openfoam.com                      |
|    \\/     M anipulation  |                                                 |
\*---------------------------------------------------------------------------*/
FoamFile
{
    version     2.0;
    format      ascii;
    class       volVectorField;
    location    "180.9";
    object      U;
}
// * * * * * * * * * * * * * * * * * * * * * * * * * * * * * * * * * * * * * //

dimensions      [0 1 -1 0 0 0 0];


internalField   nonuniform List<vector> 
1150
(
(0.856125 -0.0149648 -5.14174e-21)
(0.843944 -0.0168919 1.19965e-20)
(0.831011 -0.0190077 -6.54691e-21)
(0.855975 0.00536179 -3.69904e-21)
(0.843748 0.00531622 3.46308e-21)
(0.830951 0.00536822 -3.42311e-20)
(0.858463 0.0249506 -6.18859e-21)
(0.846671 0.0265669 4.89101e-20)
(0.834353 0.0286106 -6.03456e-20)
(0.863478 0.0453609 2.33556e-21)
(0.852996 0.048481 1.42002e-20)
(0.870975 0.0645117 7.09769e-21)
(0.861839 0.0689103 1.29927e-19)
(0.881963 0.0842759 -3.5234e-20)
(0.999548 -0.00160766 -2.22942e-22)
(1.00536 -0.0051842 -6.53005e-23)
(1.00263 -0.00183961 4.18965e-23)
(1.00142 0.00622693 -1.7495e-22)
(0.999682 -0.000106197 4.7293e-23)
(1.00017 0.00287512 2.02278e-22)
(0.998118 0.0016532 -1.85448e-22)
(0.998513 -0.00505332 1.13078e-23)
(0.996868 -0.0033685 -1.08554e-22)
(0.995536 -0.00112261 1.70678e-22)
(0.993796 -0.00691372 -1.15336e-22)
(0.99263 -0.00126934 4.14593e-23)
(0.98932 -0.000985466 -3.9741e-22)
(0.986207 -0.000652014 3.22866e-22)
(0.983577 -0.000587079 -2.5554e-22)
(0.980326 0.000797245 5.57965e-22)
(0.976279 0.000188439 3.42838e-23)
(0.972029 -0.000246035 -1.15459e-21)
(0.967535 -0.00145113 1.22443e-21)
(0.962343 -0.00185005 -3.63128e-22)
(0.956255 -0.00337824 8.60463e-22)
(0.949881 -0.00405091 -2.16755e-21)
(0.942658 -0.00588516 2.89726e-22)
(0.935025 -0.0065836 1.34876e-21)
(0.92602 -0.00839279 3.65342e-22)
(0.916817 -0.00899638 -3.71536e-21)
(0.906182 -0.0108002 3.01751e-21)
(0.895339 -0.0112648 -1.70273e-22)
(0.882676 -0.0130202 6.08726e-22)
(0.869595 -0.0134077 3.04416e-21)
(0.998864 -0.00292277 9.60866e-22)
(1.00616 -0.00352521 -1.53889e-22)
(1.00417 -0.00324952 -5.97338e-22)
(0.999877 0.00826152 2.52806e-22)
(0.998985 -0.00162263 -4.49314e-22)
(0.999765 0.00482072 7.32068e-22)
(0.99689 0.000149552 -2.87723e-22)
(0.998899 -0.00340786 -5.77544e-22)
(0.997882 -0.00410419 4.77434e-22)
(0.995928 0.000317489 -8.62914e-22)
(0.994269 -0.00729925 4.03216e-22)
(0.993737 0.000946636 -2.86176e-22)
(0.989411 -0.0008827 4.55001e-22)
(0.985323 0.0016544 -2.72715e-22)
(0.983487 0.000173343 2.42632e-21)
(0.979247 0.00349709 -3.74451e-21)
(0.97542 0.00153491 3.34501e-21)
(0.970644 0.00311461 2.63568e-21)
(0.966598 0.000970019 -3.33395e-21)
(0.961396 0.0025222 3.3849e-21)
(0.955362 0.000312483 -5.38007e-21)
(0.94928 0.00175462 -1.84769e-21)
(0.941949 -0.000367792 -1.37804e-21)
(0.934725 0.00125031 -2.31323e-21)
(0.925516 -0.000401436 6.23914e-21)
(0.91678 0.00166686 1.20926e-21)
(0.905781 0.000456576 -3.33931e-21)
(0.895486 0.0030046 7.64445e-21)
(0.882426 0.00234383 4.26845e-22)
(0.869667 0.0053427 -8.85605e-21)
(0.998298 -0.00428457 -1.60713e-21)
(1.00692 -0.00205561 -2.96064e-22)
(1.00562 -0.00433686 -2.01669e-22)
(0.998009 0.0104733 -1.20103e-21)
(0.99841 -0.00334286 2.02901e-22)
(0.999177 0.00699455 -1.6823e-21)
(0.995851 -0.001726 1.4236e-21)
(0.999408 -0.00196659 1.66378e-21)
(0.998885 -0.00463307 -1.22625e-21)
(0.996301 0.00131108 -1.83996e-21)
(0.994811 -0.00738418 1.65231e-21)
(0.994661 0.00344978 -1.98508e-21)
(0.989315 -0.0010405 3.59634e-21)
(0.984303 0.00456601 -6.40917e-22)
(0.983321 0.000826234 -1.25256e-21)
(0.97796 0.00609199 2.29836e-21)
(0.974572 0.00266084 -8.00249e-21)
(0.969324 0.00629938 1.11126e-20)
(0.965831 0.00295191 -1.66182e-21)
(0.96043 0.0064545 -3.30241e-23)
(0.954744 0.00341895 -3.20771e-21)
(0.948769 0.00701621 1.86004e-22)
(0.941697 0.00453794 -6.9569e-21)
(0.934876 0.0084021 1.39843e-20)
(0.925682 0.00675892 1.70229e-21)
(0.91767 0.0115035 -1.03917e-20)
(0.906445 0.0107895 4.04646e-21)
(0.896869 0.0163853 8.86801e-24)
(0.883744 0.0168076 -8.38893e-21)
(0.871906 0.0233825 1.75976e-20)
(0.997892 -0.00554167 1.06777e-21)
(1.00766 -0.000926515 7.36577e-22)
(1.00694 -0.00494056 3.463e-22)
(0.995702 0.012582 3.05464e-21)
(0.997999 -0.00488374 4.07883e-22)
(0.998448 0.00891847 -9.24099e-22)
(0.995025 -0.00374749 2.89988e-23)
(1.00016 -0.000793509 -8.79745e-22)
(0.999912 -0.00508905 1.70847e-21)
(0.996584 0.00199203 -9.91393e-22)
(0.995612 -0.00723959 -1.97569e-21)
(0.995137 0.00620258 1.28102e-21)
(0.989029 -0.000875698 1.56589e-21)
(0.983135 0.00748233 -3.60035e-21)
(0.982807 0.00189117 7.71602e-21)
(0.976527 0.00883889 -1.0467e-20)
(0.9738 0.00400395 5.27888e-21)
(0.96799 0.00967538 -7.77101e-21)
(0.965363 0.00534356 4.03619e-21)
(0.959651 0.0106999 8.67563e-21)
(0.954583 0.00710555 -1.22233e-20)
(0.948747 0.0127918 1.56838e-20)
(0.941943 0.0102422 -1.73705e-20)
(0.935704 0.0165129 7.06819e-21)
(0.926587 0.0151432 9.05505e-21)
(0.919283 0.0224856 1.1698e-20)
(0.908254 0.0224917 -3.96666e-20)
(0.899356 0.0310335 7.98203e-21)
(0.886617 0.0325534 -1.97584e-21)
(0.87599 0.0425894 -6.10374e-21)
(0.997662 -0.00688965 4.62826e-22)
(1.00838 7.28996e-05 -4.49713e-22)
(1.00804 -0.00515123 6.74581e-22)
(0.993012 0.0148491 -1.13754e-21)
(0.997768 -0.00674444 1.0339e-21)
(0.997571 0.0111459 -6.92177e-22)
(0.994583 -0.00633961 9.32457e-23)
(1.00113 0.000564081 -3.16251e-21)
(1.00085 -0.00556735 2.55088e-21)
(0.996788 0.00252381 2.02456e-21)
(0.996644 -0.00655851 -3.48033e-21)
(0.995264 0.00899024 -8.57639e-22)
(0.988212 -0.000896502 4.2438e-21)
(0.981793 0.0110981 -2.77263e-21)
(0.982265 0.00206019 1.02819e-21)
(0.974904 0.0116873 -1.25171e-21)
(0.97337 0.00463878 1.06623e-21)
(0.966901 0.0126512 -4.09435e-22)
(0.965246 0.00694119 -1.03047e-21)
(0.959182 0.0142168 1.57777e-20)
(0.95499 0.00973918 -1.37859e-20)
(0.949249 0.0175337 -1.40358e-20)
(0.943107 0.0143802 -2.93694e-21)
(0.937106 0.0229801 3.91214e-20)
(0.928698 0.0215664 2.24743e-20)
(0.921894 0.0316161 -2.21139e-20)
(0.911216 0.0321676 1.52164e-20)
(0.903486 0.043954 -2.96541e-20)
(0.890787 0.0465338 1.66245e-20)
(0.881929 0.0605844 -1.15333e-19)
(0.997657 -0.00803017 -2.41926e-21)
(1.00902 0.000621119 9.53781e-22)
(1.00891 -0.0046294 -1.63511e-21)
(0.989873 0.0166554 1.51913e-21)
(0.997789 -0.00818897 -1.98828e-21)
(0.996763 0.0126263 9.39002e-22)
(0.994439 -0.00872957 6.19048e-22)
(1.00254 0.00144078 1.14207e-21)
(1.0016 -0.00575006 5.19355e-23)
(0.996841 0.00272279 -4.08823e-21)
(0.998016 -0.0053661 1.09751e-21)
(0.994399 0.0117091 1.29418e-21)
(0.98726 -0.000131517 7.63071e-21)
(0.980182 0.0142922 -7.54432e-21)
(0.981176 0.00307026 3.49141e-21)
(0.973278 0.0144569 5.1201e-21)
(0.973005 0.00614231 -5.07613e-21)
(0.966288 0.0158044 -1.17509e-20)
(0.965429 0.00949789 -5.49414e-21)
(0.958782 0.0181636 2.05793e-20)
(0.955795 0.0134112 8.42477e-21)
(0.950043 0.0231757 -4.66132e-21)
(0.944542 0.0198684 7.35284e-21)
(0.939368 0.0310421 6.45547e-21)
(0.93085 0.0296342 -2.709e-20)
(0.925582 0.0427648 -3.47876e-20)
(0.915418 0.0436598 1.67389e-20)
(0.908674 0.0586668 8.27897e-20)
(0.897923 0.0623209 -1.18826e-19)
(0.890073 0.0794727 1.34066e-19)
(0.997997 -0.0093544 1.21496e-21)
(1.00957 0.00124276 -1.26495e-21)
(1.0093 -0.00383601 -1.98359e-21)
(0.986497 0.0186577 1.26621e-21)
(0.9981 -0.0102036 8.34459e-22)
(0.996054 0.0145668 -1.93742e-21)
(0.994896 -0.0119738 1.77574e-21)
(1.00426 0.00315451 1.62508e-21)
(1.00237 -0.00645307 -2.12701e-22)
(0.996557 0.00323108 -1.34075e-21)
(0.99936 -0.00389119 5.20924e-21)
(0.993372 0.0144084 -3.71746e-21)
(0.985707 0.000187004 7.1189e-21)
(0.978234 0.0182943 -1.18067e-20)
(0.980707 0.0017617 1.42047e-20)
(0.97193 0.0178185 -5.96968e-21)
(0.972874 0.00508688 -1.18305e-20)
(0.966187 0.0191115 -7.12679e-21)
(0.966396 0.00954335 -4.87184e-21)
(0.959523 0.021328 -2.47867e-21)
(0.957263 0.0142821 3.65583e-20)
(0.9518 0.0269958 -3.96078e-20)
(0.947101 0.0220466 4.28122e-22)
(0.942451 0.0361845 2.61151e-20)
(0.935309 0.0343263 -2.32622e-20)
(0.929651 0.0496463 1.43757e-20)
(0.92144 0.0516636 5.62135e-20)
(0.915127 0.0696943 -9.78117e-20)
(0.90536 0.0743116 7.34261e-20)
(0.900347 0.0963078 2.39105e-20)
(0.998855 -0.0103654 3.62146e-23)
(1.00999 0.00136266 1.01395e-21)
(1.00905 -0.00206824 1.94858e-21)
(0.982586 0.0196348 1.32824e-21)
(0.999198 -0.0115404 -5.5215e-23)
(0.995149 0.0150832 -2.79142e-21)
(0.996357 -0.0142922 -1.62935e-21)
(1.00593 0.00397108 4.48768e-21)
(1.00318 -0.0060186 -5.68614e-21)
(0.99634 0.0033804 2.54974e-21)
(1.00035 -0.00131107 -7.61538e-22)
(0.990936 0.0165586 1.13234e-20)
(0.984749 0.0027148 -2.20117e-21)
(0.975599 0.0203338 -2.4266e-21)
(0.979995 0.00313408 -8.8278e-21)
(0.971219 0.0207727 -7.57488e-21)
(0.97284 0.00691639 2.71798e-20)
(0.966399 0.0216249 -9.89672e-21)
(0.966564 0.0135068 -9.28651e-21)
(0.961388 0.0244483 -2.82472e-21)
(0.95869 0.0203098 2.38314e-20)
(0.953842 0.0322598 -9.40362e-21)
(0.950043 0.029593 1.42168e-20)
(0.944792 0.0448734 9.68324e-21)
(0.940425 0.0441596 -7.57109e-20)
(0.934721 0.062809 1.29691e-20)
(0.928685 0.0640361 -1.16774e-20)
(0.924066 0.086663 1.12476e-22)
(0.916594 0.0903249 6.45761e-20)
(0.999835 -0.0117025 1.05351e-21)
(1.01076 0.00182465 -5.10108e-22)
(1.00784 -0.00012781 -1.06803e-21)
(0.978033 0.0208472 1.52524e-21)
(1.00125 -0.0135707 1.59586e-21)
(0.993375 0.0161654 -2.86466e-22)
(0.999323 -0.0176455 -1.86546e-21)
(1.00627 0.006162 2.55264e-21)
(1.004 -0.00698432 -1.20559e-21)
(0.99596 0.00455213 3.01465e-22)
(1.00107 0.000282026 1.12276e-21)
(0.98631 0.0185836 -6.25375e-21)
(0.983704 0.00318955 4.00065e-21)
(0.973544 0.0230053 1.8838e-21)
(0.979775 -0.000475487 -1.1015e-20)
(0.970195 0.0247861 1.42195e-20)
(0.974906 0.00241799 -1.3337e-20)
(0.964827 0.0265043 2.79288e-20)
(0.970525 0.00875798 -1.90921e-20)
(0.958269 0.0279144 1.40237e-20)
(0.966365 0.0174417 1.34421e-21)
(0.952334 0.0348226 -4.72626e-20)
(0.95759 0.028176 1.35768e-20)
(0.947535 0.0477211 6.40159e-21)
(0.946189 0.0443743 2.62672e-20)
(0.94115 0.0665714 -2.90363e-20)
(0.936237 0.0683196 -3.20291e-21)
(0.932348 0.0934072 4.01068e-20)
(0.927499 0.100027 2.87077e-20)
(1.00031 -0.0125801 -1.1083e-21)
(1.01272 0.00178478 3.26841e-22)
(1.00626 0.00330377 -1.5993e-21)
(0.974284 0.0200678 2.80132e-22)
(1.0033 -0.0146395 1.10063e-22)
(0.994461 0.0156163 1.93112e-22)
(0.998586 -0.0193445 -6.21876e-22)
(1.01196 0.00741952 8.55871e-22)
(0.999499 -0.00572142 -5.49683e-21)
(0.998862 0.00612091 7.56341e-21)
(1.00032 0.00530091 6.20696e-21)
(0.985498 0.0206029 -6.56222e-21)
(0.979306 0.00800416 -1.17995e-20)
(0.972685 0.0232383 2.20523e-20)
(0.982405 0.00265099 -2.69322e-20)
(0.970321 0.0273739 1.96793e-20)
(0.974623 0.00590664 -2.63481e-21)
(0.970149 0.0299626 -2.11406e-20)
(0.965212 0.015262 1.42671e-20)
(0.968742 0.0307938 1.52876e-20)
(0.957519 0.0281195 1.51141e-20)
(0.964272 0.0407182 -3.84169e-20)
(0.953227 0.0409572 -2.97446e-20)
(0.957377 0.058533 8.46494e-20)
(0.949322 0.0596526 -5.74956e-20)
(0.95023 0.0820437 -1.55499e-21)
(0.94488 0.0852048 -2.6172e-20)
(0.946208 0.113302 1.02999e-19)
(1.00521 -0.0141714 0)
(1.00868 0.00195853 0)
(1.00862 0.00684472 0)
(0.969286 0.0196436 0)
(1.00991 -0.0171507 0)
(0.9894 0.0159015 0)
(1.0037 -0.0233711 0)
(1.00828 0.00927801 0)
(1.0013 -0.00667965 0)
(0.997465 0.00579887 0)
(1.00423 0.0075565 0)
(0.978311 0.0216484 0)
(0.98445 0.00763876 0)
(0.971219 0.0201242 0)
(0.989735 -0.000833219 0)
(0.967 0.0298191 0)
(0.983048 -0.00281032 0)
(0.964484 0.0359355 0)
(0.975274 0.0019584 0)
(0.964242 0.0352677 0)
(0.970034 0.0174983 0)
(0.960401 0.0388488 0)
(0.967988 0.0321184 0)
(0.958171 0.0554418 0)
(0.963394 0.0491558 0)
(0.958376 0.0795279 0)
(0.961647 0.0771536 0)
(0.954656 0.105556 0)
(1.01222 -0.0148415 0)
(0.997554 0.00130337 0)
(1.01112 0.0107842 0)
(0.970359 0.0184001 0)
(1.01343 -0.0176006 0)
(0.982206 0.0153613 0)
(1.00966 -0.0242254 0)
(0.993194 0.00978948 0)
(1.00664 -0.00598252 0)
(0.990177 0.00586465 0)
(1.00381 0.0113936 0)
(0.96943 0.0231414 0)
(0.991343 0.0105977 0)
(0.973592 0.017831 0)
(0.988512 0.00425176 0)
(0.96693 0.0292209 0)
(0.985675 0.000990335 0)
(0.95768 0.0405811 0)
(0.983332 0.000572691 0)
(0.951558 0.0448107 0)
(0.982845 0.0139618 0)
(0.953032 0.0468466 0)
(0.976798 0.0316793 0)
(0.957954 0.0581825 0)
(0.970718 0.0540588 0)
(0.962222 0.0755165 0)
(0.971516 0.0852136 0)
(0.963378 0.0968433 0)
(1.01547 -0.0151923 0)
(0.985876 0.00100538 0)
(1.01062 0.0134407 0)
(0.981658 0.0169692 0)
(1.00925 -0.0169022 0)
(0.983204 0.0144257 0)
(1.00736 -0.0241377 0)
(0.981154 0.00978945 0)
(1.00693 -0.00543738 0)
(0.981106 0.00525826 0)
(0.998574 0.0171342 0)
(0.970312 0.021631 0)
(0.990495 0.0116355 0)
(0.979264 0.0159823 0)
(0.983182 0.00921463 0)
(0.973042 0.0254919 0)
(0.977499 0.00630318 0)
(0.965197 0.0367977 0)
(0.97565 0.00357296 0)
(0.95498 0.0420678 0)
(0.979041 0.0143763 0)
(0.95453 0.0456654 0)
(0.975898 0.0332292 0)
(0.959541 0.0558474 0)
(0.971624 0.0586934 0)
(0.962545 0.0696786 0)
(0.974697 0.0882981 0)
(0.967316 0.0918243 0)
(1.0136 -0.0144613 0)
(0.979034 0.000402851 0)
(1.00814 0.0139783 0)
(0.997663 0.0160797 0)
(1.0024 -0.0148481 0)
(0.99038 0.0126785 0)
(1.00116 -0.0214369 0)
(0.977178 0.00830739 0)
(1.00257 -0.00367313 0)
(0.975258 0.00409157 0)
(0.99601 0.0211347 0)
(0.980966 0.019048 0)
(0.986171 0.0141781 0)
(0.984902 0.0134684 0)
(0.982812 0.0140386 0)
(0.981525 0.0240709 0)
(0.974659 0.010313 0)
(0.976542 0.0357995 0)
(0.970368 0.00807636 0)
(0.965525 0.0398789 0)
(0.972741 0.017421 0)
(0.959131 0.0416102 0)
(0.974518 0.0383075 0)
(0.960648 0.0508188 0)
(0.973998 0.0634109 0)
(0.963576 0.065394 0)
(0.976711 0.0873458 0)
(0.970735 0.0875942 0)
(1.01107 -0.0130069 0)
(0.976089 -0.000394143 0)
(1.00492 0.0125575 0)
(1.01051 0.0154583 0)
(0.999217 -0.0119554 0)
(0.995644 0.0111606 0)
(0.99851 -0.017479 0)
(0.975598 0.00642012 0)
(0.998539 -0.00132469 0)
(0.973537 0.00204497 0)
(0.995864 0.0216155 0)
(0.993064 0.0181248 0)
(0.984842 0.0174446 0)
(0.988858 0.0100603 0)
(0.986229 0.0171037 0)
(0.988981 0.0245698 0)
(0.980142 0.0127178 0)
(0.98451 0.0367854 0)
(0.973044 0.0116943 0)
(0.971808 0.0397012 0)
(0.974855 0.0220529 0)
(0.960268 0.0383586 0)
(0.97448 0.0416611 0)
(0.961755 0.0467317 0)
(0.976845 0.0647621 0)
(0.96762 0.0634813 0)
(0.980277 0.0829904 0)
(0.976254 0.0840724 0)
(1.01035 -0.0109418 0)
(0.97484 -0.00121955 0)
(1.00189 0.0096087 0)
(1.01683 0.0146035 0)
(0.999558 -0.00793659 0)
(0.996922 0.00940926 0)
(0.99945 -0.0124634 0)
(0.973933 0.00476551 0)
(0.996919 0.000966893 0)
(0.973656 -7.37988e-05 0)
(0.994751 0.0190794 0)
(1.00072 0.018533 0)
(0.987572 0.0206596 0)
(0.990734 0.00850729 0)
(0.98946 0.0168817 0)
(0.992772 0.026278 0)
(0.986631 0.0139558 0)
(0.990127 0.0386933 0)
(0.978901 0.0167105 0)
(0.974698 0.039629 0)
(0.980459 0.0284825 0)
(0.962542 0.0360149 0)
(0.976191 0.0440607 0)
(0.964159 0.0442407 0)
(0.979115 0.062261 0)
(0.972548 0.0614221 0)
(0.984233 0.0770086 0)
(0.982842 0.080025 0)
(1.00965 -0.00871109 0)
(0.976295 -0.00176345 0)
(1.00063 0.00598464 0)
(1.01631 0.013332 0)
(1.00052 -0.00363686 0)
(0.996678 0.00788843 0)
(0.999957 -0.00749353 0)
(0.97517 0.00399667 0)
(0.996386 0.002342 0)
(0.976478 -0.00104764 0)
(0.992365 0.0145176 0)
(1.00189 0.0188903 0)
(0.993504 0.022954 0)
(0.99085 0.00976937 0)
(0.991403 0.0144558 0)
(0.993301 0.0272753 0)
(0.989418 0.0154776 0)
(0.99324 0.0397332 0)
(0.984949 0.0230009 0)
(0.977735 0.0388435 0)
(0.984806 0.0350003 0)
(0.970063 0.0356401 0)
(0.978622 0.0457399 0)
(0.970207 0.0429554 0)
(0.980696 0.057178 0)
(0.978903 0.0585305 0)
(0.987409 0.0692195 0)
(0.989742 0.0748641 0)
(1.00745 -0.00656531 0)
(0.980822 -0.00238461 0)
(1.00159 0.00273667 0)
(1.01183 0.0124622 0)
(0.999922 -0.00017581 0)
(0.996527 0.00741785 0)
(0.998693 -0.00370679 0)
(0.979698 0.003826 0)
(0.996725 0.00308905 0)
(0.982212 -0.000982737 0)
(0.990382 0.0100567 0)
(0.999297 0.0186217 0)
(1.00001 0.023201 0)
(0.991005 0.01376 0)
(0.991895 0.0122541 0)
(0.992431 0.0276493 0)
(0.9882 0.0174296 0)
(0.993574 0.0384635 0)
(0.989555 0.0289054 0)
(0.982631 0.038494 0)
(0.988183 0.0397297 0)
(0.979542 0.0366837 0)
(0.982889 0.0459948 0)
(0.979224 0.0427287 0)
(0.984478 0.0525881 0)
(0.986688 0.0550084 0)
(0.991482 0.0616485 0)
(0.996051 0.0685571 0)
(1.00435 -0.00473647 0)
(0.98685 -0.00332969 0)
(1.00387 0.000117139 0)
(1.00588 0.0127255 0)
(0.998343 0.00200702 0)
(0.996344 0.00781275 0)
(0.996761 -0.00122538 0)
(0.985664 0.00324211 0)
(0.997188 0.00365776 0)
(0.989521 -0.00014483 0)
(0.990786 0.00654674 0)
(0.995054 0.017705 0)
(1.00479 0.0220729 0)
(0.991688 0.0190818 0)
(0.992352 0.0118642 0)
(0.991302 0.0273652 0)
(0.986597 0.0193184 0)
(0.991565 0.0360913 0)
(0.991559 0.0328712 0)
(0.987747 0.037543 0)
(0.990936 0.0423412 0)
(0.988644 0.0378422 0)
(0.988576 0.0453776 0)
(0.989574 0.0432707 0)
(0.990103 0.048564 0)
(0.995569 0.0517601 0)
(0.996873 0.0546419 0)
(1.00289 0.0617591 0)
(1.00169 -0.00333542 0)
(0.993111 -0.00469314 0)
(1.00476 -0.00145928 0)
(0.999966 0.0140716 0)
(0.997509 0.00294012 0)
(0.995637 0.00863249 0)
(0.996245 0.000295712 0)
(0.991484 0.00182697 0)
(0.996936 0.00413159 0)
(0.996652 0.000636845 0)
(0.992501 0.0051727 0)
(0.99139 0.0170024 0)
(1.00601 0.0193576 0)
(0.992638 0.0239639 0)
(0.993334 0.0141372 0)
(0.990233 0.0270545 0)
(0.987432 0.0214013 0)
(0.989123 0.0336278 0)
(0.992336 0.0337689 0)
(0.991478 0.0363773 0)
(0.993543 0.041648 0)
(0.996197 0.0385554 0)
(0.994215 0.0435786 0)
(0.998935 0.0426919 0)
(0.996788 0.0455059 0)
(1.0041 0.0481135 0)
(1.00364 0.0494093 0)
(1.01001 0.0548044 0)
(0.999702 -0.00255022 0)
(0.99939 -0.00592649 0)
(1.00372 -0.00156526 0)
(0.993789 0.0154142 0)
(0.997987 0.00308627 0)
(0.994969 0.00933655 0)
(0.996996 0.00080723 0)
(0.997638 0.000318978 0)
(0.995663 0.00452723 0)
(1.0022 0.00165543 0)
(0.994407 0.005065 0)
(0.988775 0.0166607 0)
(1.00452 0.0174807 0)
(0.992071 0.0266978 0)
(0.994793 0.0174891 0)
(0.989391 0.0275921 0)
(0.990461 0.0226181 0)
(0.988839 0.0315336 0)
(0.993263 0.0328098 0)
(0.994809 0.0345974 0)
(0.995901 0.0389811 0)
(1.00208 0.0377002 0)
(0.999122 0.0406486 0)
(1.00676 0.0411272 0)
(1.00306 0.0422601 0)
(1.0117 0.0445896 0)
(1.00995 0.044807 0)
(1.01689 0.0485504 0)
(0.998909 -0.00249643 0)
(1.00374 -0.0069844 0)
(1.00097 0.000407187 0)
(0.989929 0.0162174 0)
(0.998915 0.00209405 0)
(0.994695 0.00991913 0)
(0.999102 0.000194801 0)
(1.00198 -0.000858416 0)
(0.994646 0.0050627 0)
(1.00497 0.00238169 0)
(0.995712 0.00687203 0)
(0.987686 0.0168521 0)
(1.00074 0.0165611 0)
(0.99201 0.0271076 0)
(0.995757 0.0204764 0)
(0.989522 0.0285558 0)
(0.994344 0.0230072 0)
(0.991035 0.0301445 0)
(0.995779 0.0299553 0)
(0.997931 0.0328763 0)
(0.998911 0.0344861 0)
(1.00624 0.0354437 0)
(1.00399 0.0367717 0)
(1.01199 0.0380536 0)
(1.00885 0.0390007 0)
(1.01677 0.0404263 0)
(1.01546 0.0411526 0)
(1.0218 0.0427611 0)
(0.9988 -0.00292451 0)
(1.00581 -0.00727329 0)
(0.998241 0.00327693 0)
(0.988607 0.0159284 0)
(0.999772 0.000830057 0)
(0.994951 0.0098913 0)
(1.00091 -0.000768001 0)
(1.00452 -0.00121034 0)
(0.994125 0.00559761 0)
(1.00529 0.00358241 0)
(0.996399 0.0089968 0)
(0.988363 0.017124 0)
(0.997384 0.0172136 0)
(0.991993 0.0258844 0)
(0.996793 0.0216534 0)
(0.990515 0.0290027 0)
(0.997576 0.0227641 0)
(0.994979 0.0287287 0)
(0.999247 0.0267104 0)
(1.00136 0.0306812 0)
(1.00222 0.030191 0)
(1.00911 0.0323856 0)
(1.00808 0.0325635 0)
(1.01523 0.0344054 0)
(1.01312 0.0352693 0)
(1.01974 0.0364324 0)
(1.01889 0.037484 0)
(1.02461 0.0379988 0)
(0.999361 -0.00356802 0)
(1.00492 -0.00746997 0)
(0.995947 0.00705601 0)
(0.991204 0.015178 0)
(1.00009 -0.000867965 0)
(0.995798 0.00961192 0)
(1.00222 -0.00221056 0)
(1.00408 -0.00110687 0)
(0.994275 0.00642219 0)
(1.00372 0.00460324 0)
(0.996604 0.0117875 0)
(0.990792 0.0171183 0)
(0.995093 0.0187018 0)
(0.993975 0.024291 0)
(0.997986 0.0212186 0)
(0.993269 0.0284203 0)
(0.999728 0.0216156 0)
(0.998989 0.0274176 0)
(1.0031 0.0230121 0)
(1.00437 0.0282845 0)
(1.00545 0.0259973 0)
(1.01032 0.0291493 0)
(1.01116 0.0283741 0)
(1.01632 0.0304415 0)
(1.01584 0.0314306 0)
(1.02037 0.0323454 0)
(1.02038 0.0340158 0)
(1.02493 0.0337531 0)
(1.00049 -0.00392837 0)
(1.00202 -0.00681722 0)
(0.993652 0.00910588 0)
(0.996556 0.0137719 0)
(1.00058 -0.00145882 0)
(0.997053 0.00887316 0)
(1.00334 -0.00256945 0)
(1.00148 -0.000346577 0)
(0.994657 0.00689261 0)
(1.00127 0.00597889 0)
(0.996219 0.0133596 0)
(0.994419 0.016726 0)
(0.994426 0.0196989 0)
(0.997591 0.0229338 0)
(0.999832 0.0199517 0)
(0.997607 0.026553 0)
(1.00183 0.0203623 0)
(1.00254 0.0257373 0)
(1.00663 0.0204477 0)
(1.00692 0.0255807 0)
(1.00838 0.0229244 0)
(1.01038 0.0262214 0)
(1.0129 0.0251175 0)
(1.01582 0.0269865 0)
(1.01703 0.0278577 0)
(1.01939 0.0287295 0)
(1.02024 0.0304841 0)
(1.02336 0.030192 0)
(1.00122 -0.00397804 0)
(0.999464 -0.0056703 0)
(0.992523 0.00972702 0)
(1.00106 0.0118467 0)
(1.00099 -0.00127331 0)
(0.998398 0.00809433 0)
(1.00361 -0.0021848 0)
(0.999256 0.000915562 0)
(0.995135 0.00706364 0)
(0.9995 0.0071116 0)
(0.996192 0.0141462 0)
(0.997702 0.0156975 0)
(0.995394 0.0196388 0)
(1.00095 0.021556 0)
(1.00204 0.0186107 0)
(1.00199 0.0240746 0)
(1.0039 0.0189699 0)
(1.00515 0.0238907 0)
(1.00893 0.0186479 0)
(1.009 0.0231859 0)
(1.01045 0.0204385 0)
(1.01058 0.0238339 0)
(1.01337 0.0225897 0)
(1.01512 0.0243165 0)
(1.01706 0.0247763 0)
(1.01833 0.0256086 0)
(1.01936 0.0271401 0)
(1.02149 0.0269415 0)
(1.00135 -0.00365958 0)
(0.997931 -0.00406479 0)
(0.992792 0.00863067 0)
(1.00376 0.00962235 0)
(1.00095 -0.000282702 0)
(0.999564 0.00730705 0)
(1.00312 -0.000848759 0)
(0.998049 0.0024477 0)
(0.995957 0.0069464 0)
(0.998767 0.00798558 0)
(0.996832 0.0137138 0)
(1.00028 0.0144857 0)
(0.997285 0.0182551 0)
(1.0034 0.0199384 0)
(1.00382 0.017503 0)
(1.00545 0.0214059 0)
(1.0056 0.0177875 0)
(1.00705 0.0218783 0)
(1.00991 0.0177444 0)
(1.01038 0.0211606 0)
(1.01166 0.0188443 0)
(1.01106 0.0217582 0)
(1.01333 0.0207569 0)
(1.01443 0.0222608 0)
(1.01666 0.0222867 0)
(1.01751 0.0230624 0)
(1.01863 0.0240048 0)
(1.02004 0.0240963 0)
(1.00091 -0.00316554 0)
(0.997694 -0.00267688 0)
(0.994187 0.00705077 0)
(1.00436 0.00771461 0)
(1.00052 0.000769937 0)
(1.00037 0.00676954 0)
(1.00221 0.000620013 0)
(0.998207 0.00373308 0)
(0.997096 0.00683259 0)
(0.999163 0.00827318 0)
(0.998122 0.0127888 0)
(1.00194 0.0133681 0)
(0.999456 0.0163332 0)
(1.0048 0.0181172 0)
(1.00485 0.0164546 0)
(1.00739 0.0191243 0)
(1.00685 0.0166574 0)
(1.00826 0.0199227 0)
(1.01003 0.0169578 0)
(1.01114 0.0194856 0)
(1.01214 0.0175435 0)
(1.01184 0.0198497 0)
(1.01329 0.0190456 0)
(1.01424 0.0203536 0)
(1.0162 0.0201152 0)
(1.01717 0.0207255 0)
(1.01824 0.0211632 0)
(1.01936 0.0213362 0)
(1.00039 -0.00257853 0)
(0.998095 -0.00155784 0)
(0.995682 0.00532249 0)
(1.00395 0.00620445 0)
(1.00016 0.00181477 0)
(1.00082 0.00633157 0)
(1.00153 0.00206578 0)
(0.999008 0.00468064 0)
(0.998318 0.0066389 0)
(1.00009 0.00825002 0)
(0.999539 0.0114929 0)
(1.00303 0.0123217 0)
(1.00128 0.014427 0)
(1.00557 0.0161681 0)
(1.00545 0.0153484 0)
(1.00824 0.0172154 0)
(1.00763 0.0156149 0)
(1.00905 0.0180194 0)
(1.01002 0.016151 0)
(1.01146 0.0179241 0)
(1.01232 0.0164225 0)
(1.01253 0.0180556 0)
(1.01345 0.0173709 0)
(1.01432 0.0184308 0)
(1.01585 0.018048 0)
(1.01698 0.0185234 0)
(1.01798 0.0185367 0)
(1.01904 0.0187267 0)
(0.999941 -0.00203566 0)
(0.998746 -0.000851148 0)
(0.997001 0.00399893 0)
(1.00309 0.00522305 0)
(0.999955 0.00255752 0)
(1.00109 0.00598697 0)
(1.00116 0.00309679 0)
(1.00003 0.00513846 0)
(0.999493 0.00636552 0)
(1.00118 0.00794205 0)
(1.00084 0.0102457 0)
(1.00374 0.0112726 0)
(1.00265 0.0128111 0)
(1.00598 0.0143788 0)
(1.00585 0.0141301 0)
(1.0084 0.0155585 0)
(1.00809 0.0144873 0)
(1.00952 0.016252 0)
(1.01004 0.0150101 0)
(1.01155 0.0163211 0)
(1.01231 0.015139 0)
(1.013 0.016242 0)
(1.01363 0.0156071 0)
(1.01454 0.0163882 0)
(1.01562 0.0159812 0)
(1.01683 0.0163146 0)
(1.01767 0.016118 0)
(1.01877 0.0162292 0)
(0.999688 -0.00158055 0)
(0.999306 -0.000342675 0)
(0.997891 0.00300795 0)
(1.00232 0.00450673 0)
(0.999966 0.00305646 0)
(1.00129 0.00566748 0)
(1.00115 0.00373306 0)
(1.0009 0.00527741 0)
(1.00049 0.00601249 0)
(1.00212 0.00745016 0)
(1.00178 0.00907044 0)
(1.00427 0.0102077 0)
(1.00361 0.0113787 0)
(1.00626 0.0127853 0)
(1.00622 0.0128019 0)
(1.00838 0.0140002 0)
(1.00841 0.013282 0)
(1.00975 0.0145338 0)
(1.01018 0.0136871 0)
(1.01157 0.0146352 0)
(1.01226 0.013738 0)
(1.01318 0.0144305 0)
(1.0137 0.0138563 0)
(1.01463 0.0143592 0)
(1.01536 0.0139716 0)
(1.01652 0.0141775 0)
(1.01716 0.0138957 0)
(1.01827 0.0139299 0)
(0.999558 -0.0012168 0)
(0.999696 -5.62628e-05 0)
(0.998548 0.00237392 0)
(1.00175 0.00401874 0)
(1.00002 0.00327704 0)
(1.00145 0.00530842 0)
(1.0013 0.00397632 0)
(1.00159 0.0051628 0)
(1.00131 0.00562572 0)
(1.00285 0.00680463 0)
(1.00251 0.00805746 0)
(1.00464 0.0091701 0)
(1.00428 0.0100661 0)
(1.00643 0.011356 0)
(1.00651 0.0114198 0)
(1.00831 0.0124924 0)
(1.00856 0.0119532 0)
(1.00986 0.0128845 0)
(1.01029 0.0122446 0)
(1.01153 0.0129038 0)
(1.01211 0.012222 0)
(1.01312 0.0126202 0)
(1.01358 0.0121293 0)
(1.01452 0.0123895 0)
(1.01501 0.0120536 0)
(1.01607 0.0121317 0)
(1.01651 0.0118639 0)
(1.01755 0.0118223 0)
(0.99953 -0.00092248 0)
(0.999927 0.000117813 0)
(0.998947 0.00192729 0)
(1.0014 0.00361083 0)
(1.00018 0.00332618 0)
(1.00157 0.00487584 0)
(1.00154 0.00398347 0)
(1.00208 0.00488673 0)
(1.00187 0.0051763 0)
(1.0034 0.0061436 0)
(1.00305 0.00710067 0)
(1.00487 0.00815043 0)
(1.00477 0.00882296 0)
(1.00653 0.00996165 0)
(1.00675 0.0100574 0)
(1.00824 0.0109574 0)
(1.00864 0.0105902 0)
(1.00985 0.0112509 0)
(1.01029 0.0107643 0)
(1.0114 0.0111879 0)
(1.01188 0.0106701 0)
(1.01289 0.0108788 0)
(1.01327 0.0104587 0)
(1.0142 0.0105633 0)
(1.01452 0.0102542 0)
(1.01547 0.0102614 0)
(1.01574 0.0100037 0)
(1.01668 0.00993917 0)
(0.999544 -0.000683303 0)
(1.00006 0.000202926 0)
(0.99923 0.00160702 0)
(1.00118 0.00325057 0)
(1.00034 0.0032215 0)
(1.00167 0.0044085 0)
(1.00174 0.0038072 0)
(1.00243 0.00444659 0)
(1.00229 0.00468724 0)
(1.00376 0.00545792 0)
(1.00348 0.00615942 0)
(1.00501 0.00714803 0)
(1.00508 0.00763439 0)
(1.00659 0.00861911 0)
(1.00688 0.00871458 0)
(1.00815 0.00944146 0)
(1.00859 0.00919689 0)
(1.00972 0.00964068 0)
(1.01016 0.00928084 0)
(1.01118 0.00951787 0)
(1.01157 0.00912917 0)
(1.01251 0.00920388 0)
(1.01284 0.00885915 0)
(1.01371 0.00886183 0)
(1.01394 0.00858869 0)
(1.01476 0.00854877 0)
(1.01494 0.00831348 0)
(1.01573 0.00824176 0)
(0.999578 -0.000500861 0)
(1.00016 0.000258016 0)
(0.999409 0.00136592 0)
(1.001 0.00285073 0)
(1.00054 0.00299955 0)
(1.00176 0.00390045 0)
(1.00187 0.00348017 0)
(1.0027 0.00394792 0)
(1.00258 0.0041364 0)
(1.00393 0.0047422 0)
(1.00379 0.00524933 0)
(1.00507 0.00611248 0)
(1.00526 0.00649485 0)
(1.00658 0.00728549 0)
(1.00692 0.00738012 0)
(1.00804 0.00794001 0)
(1.00847 0.00777865 0)
(1.00953 0.00807734 0)
(1.00994 0.00779606 0)
(1.01088 0.00792011 0)
(1.0112 0.00760979 0)
(1.01206 0.00761924 0)
(1.01233 0.00732871 0)
(1.01312 0.00728671 0)
(1.0133 0.00704245 0)
(1.01401 0.00698409 0)
(1.01412 0.00677361 0)
(1.01476 0.00670568 0)
(0.999617 -0.000352271 0)
(1.0002 0.000281611 0)
(0.999571 0.00117071 0)
(1.00091 0.00243969 0)
(1.00066 0.0026601 0)
(1.00181 0.00334108 0)
(1.00197 0.00307801 0)
(1.00287 0.00338987 0)
(1.00278 0.00352706 0)
(1.004 0.00401825 0)
(1.004 0.00437225 0)
(1.00509 0.0050802 0)
(1.00533 0.00538664 0)
(1.0065 0.00598946 0)
(1.00687 0.0060781 0)
(1.00788 0.00648021 0)
(1.00828 0.00637813 0)
(1.00926 0.00656189 0)
(1.00964 0.00634303 0)
(1.01051 0.00638925 0)
(1.01079 0.00614101 0)
(1.01156 0.00611492 0)
(1.0118 0.00587509 0)
(1.0125 0.00581824 0)
(1.01266 0.0056083 0)
(1.01326 0.00555056 0)
(1.01333 0.00536989 0)
(1.01386 0.00531586 0)
(0.999656 -0.000248738 0)
(1.00021 0.000312298 0)
(0.999682 0.00099892 0)
(1.00083 0.00202978 0)
(1.00075 0.00221338 0)
(1.00185 0.00274702 0)
(1.00201 0.00253766 0)
(1.00292 0.00275616 0)
(1.0029 0.00283627 0)
(1.00398 0.00323335 0)
(1.00408 0.00345763 0)
(1.00507 0.00401426 0)
(1.00531 0.00423239 0)
(1.00637 0.00469865 0)
(1.00674 0.00474351 0)
(1.00768 0.00503555 0)
(1.00803 0.0049374 0)
(1.00893 0.00505489 0)
(1.00928 0.00485823 0)
(1.01009 0.00486334 0)
(1.01036 0.00464288 0)
(1.01105 0.00460356 0)
(1.01126 0.00439665 0)
(1.01189 0.00434541 0)
(1.01204 0.00416714 0)
(1.01256 0.00412734 0)
(1.01262 0.00398156 0)
(1.01305 0.00395819 0)
(0.999686 -0.000138318 0)
(1.00019 0.000346683 0)
(0.999744 0.000883924 0)
(1.00076 0.0016681 0)
(1.00075 0.00182639 0)
(1.00178 0.00219173 0)
(1.00196 0.00203697 0)
(1.00289 0.00217872 0)
(1.00294 0.00221175 0)
(1.00389 0.00249537 0)
(1.00407 0.00263861 0)
(1.00498 0.0030269 0)
(1.00524 0.00318246 0)
(1.00619 0.00350688 0)
(1.00653 0.00353298 0)
(1.00741 0.00372319 0)
(1.00773 0.00364188 0)
(1.00853 0.00370328 0)
(1.00885 0.003535 0)
(1.00959 0.0034971 0)
(1.00985 0.00328762 0)
(1.0105 0.00319964 0)
(1.01072 0.00297998 0)
(1.0113 0.00286775 0)
(1.01148 0.00265424 0)
(1.01198 0.00254357 0)
(1.01207 0.00235549 0)
(1.01246 0.00226993 0)
(0.999717 -4.97647e-05 0)
(1.00019 0.000239703 0)
(0.999777 0.000626772 0)
(1.00067 0.00108779 0)
(1.00069 0.00122775 0)
(1.00165 0.00141247 0)
(1.00183 0.00135089 0)
(1.00273 0.00139342 0)
(1.00285 0.00142546 0)
(1.00373 0.00157021 0)
(1.00396 0.00167541 0)
(1.00483 0.00188235 0)
(1.00509 0.00199645 0)
(1.00596 0.00216845 0)
(1.00629 0.00220253 0)
(1.0071 0.00228882 0)
(1.00738 0.00225179 0)
(1.00809 0.00225886 0)
(1.00832 0.00216185 0)
(1.00894 0.00210367 0)
(1.00911 0.00197134 0)
(1.00961 0.00187777 0)
(1.00972 0.00173047 0)
(1.01015 0.00161784 0)
(1.01024 0.00146721 0)
(1.01065 0.0013538 0)
(1.01074 0.00121766 0)
(1.01115 0.00112533 0)
(0.999733 -1.77077e-05 0)