/*--------------------------------*- C++ -*----------------------------------*\
| =========                 |                                                 |
| \\      /  F ield         | OpenFOAM: The Open Source CFD Toolbox           |
|  \\    /   O peration     | Version:                                        |
|   \\  /    A nd           | Website:  www.openfoam.com                      |
|    \\/     M anipulation  |                                                 |
\*---------------------------------------------------------------------------*/
FoamFile
{
    version     2.0;
    format      ascii;
    class       surfaceScalarField;
    location    "140";
    object      phi;
}
// * * * * * * * * * * * * * * * * * * * * * * * * * * * * * * * * * * * * * //

dimensions      [0 3 -1 0 0 0 0];
oriented        oriented;


internalField   nonuniform List<scalar> 
2213
(
1.70263e-05
0.00256845
-0.00258547
0.000973665
0.00180694
-0.00276358
0.00732517
-0.0109495
0.00459803
0.0122733
-0.0222801
0.0173319
0.0154645
-0.0283124
0.0251212
0.017204
-0.0310713
0.0293319
0.0179172
-0.0321365
0.0314233
0.0180588
-0.0324685
0.0323269
0.018043
-0.0325581
0.032574
-0.0326021
-0.0005346
0.00310305
0.00301977
-0.00174743
0.00951571
-0.0174455
0.0132352
-0.0259996
0.0151895
-0.0302667
0.0160453
-0.0319271
0.0164007
-0.0324918
0.016676
-0.0327439
0.0170538
-0.0329359
0.017519
-0.0330673
0.0180413
-0.0331338
-0.0332774
-0.000894033
0.00399708
0.00503157
-0.00767303
0.00986006
-0.022274
0.0127755
-0.028915
0.0140998
-0.031591
0.0147214
-0.0325486
0.0151557
-0.0329261
0.0155315
-0.0331197
0.0158122
-0.0332166
0.0160193
-0.0332744
0.0163108
-0.0334253
0.0166042
-0.0335708
0.0170915
-0.0336994
-0.0338794
0.000783307
0.00321377
0.00743409
-0.0143238
0.0104828
-0.0253227
0.0122114
-0.0306436
0.0130712
-0.0324508
0.0134786
-0.0329561
0.0136686
-0.0331161
0.0137596
-0.0332107
0.0138717
-0.0333288
0.0141036
-0.0335063
0.0143912
-0.0337128
0.01472
-0.0338996
0.0152113
-0.0341907
0.0157129
-0.034381
0.0163354
-0.0345917
0.0171784
-0.0349805
-0.0353777
0.00204379
0.00116998
0.00728211
-0.0195621
0.0102493
-0.0282899
0.0113578
-0.0317522
0.0117346
-0.0328276
0.0118701
-0.0330916
0.0119866
-0.0332325
0.0121535
-0.0333777
0.0123832
-0.0335584
0.0126633
-0.0337864
0.0130093
-0.0340589
0.0135316
-0.0344219
0.0139823
-0.0346414
0.0145193
-0.0349181
0.0152991
-0.0353714
0.0160988
-0.0357802
0.016911
-0.0361899
0.0178979
-0.0366933
0.0188116
-0.0370904
-0.0374902
0.00345755
-0.00228757
0.00757795
-0.0236825
0.00968683
-0.0303988
0.0102612
-0.0323265
0.0102874
-0.0328538
0.0102922
-0.0330964
0.0103811
-0.0333214
0.0105342
-0.0335308
0.01071
-0.0337343
0.0108944
-0.0339707
0.0111489
-0.0343133
0.0113249
-0.0345979
0.0116731
-0.0349896
0.0121652
-0.0354101
0.0125675
-0.0357738
0.0130538
-0.0362664
0.0136822
-0.0368184
0.0142926
-0.0373036
0.0151376
-0.0379355
-0.0385665
0.016214
0.00505134
-0.00733891
0.00741901
-0.0260502
0.00831378
-0.0312936
0.0085491
-0.0325619
0.00857642
-0.0328811
0.00854686
-0.0330668
0.00850872
-0.0332833
0.0084695
-0.0334915
0.0084764
-0.0337412
0.00857141
-0.0340658
0.00866028
-0.0344022
0.00885951
-0.0347972
0.00901884
-0.0351489
0.00917477
-0.0355661
0.00960772
-0.0362067
0.0101558
-0.0368145
0.0106679
-0.0373305
0.0112564
-0.0378921
0.0118114
-0.0384905
-0.0391052
0.0123501
0.00478879
-0.0121277
0.00630796
-0.0275694
0.00668136
-0.031667
0.00681115
-0.0326917
0.00683304
-0.032903
0.00680865
-0.0330424
0.00678642
-0.033261
0.00678634
-0.0334915
0.00679778
-0.0337526
0.0068033
-0.0340713
0.00689559
-0.0344945
0.00699939
-0.034901
0.00719312
-0.0353426
0.0074571
-0.0358301
0.00757694
-0.0363266
0.00771234
-0.0369499
0.00800648
-0.0376247
0.00840013
-0.0382858
0.00887915
-0.0389695
-0.0396822
0.00945608
0.00333498
-0.0154627
0.00506429
-0.0292987
0.00534717
-0.0319498
0.00526731
-0.0326118
0.00515136
-0.032787
0.00504786
-0.0329389
0.00494558
-0.0331588
0.00483952
-0.0333854
0.00474498
-0.0336581
0.00466861
-0.0339949
0.00456691
-0.0343928
0.00446702
-0.0348011
0.00435709
-0.0352327
0.00432368
-0.0357966
0.00448688
-0.0364898
0.00463587
-0.0370988
0.00464402
-0.0376328
0.00466094
-0.0383027
0.00481639
-0.0391249
-0.0398998
0.00503403
0.00263638
-0.0180991
0.00370178
-0.0303641
0.00380816
-0.0320562
0.00372172
-0.0325253
0.0035861
-0.0326514
0.00338321
-0.0327361
0.0031302
-0.0329057
0.00284956
-0.0331048
0.00256523
-0.0333737
0.00230016
-0.0337298
0.00206142
-0.0341541
0.00185933
-0.034599
0.00169481
-0.0350682
0.00148985
-0.0355917
0.00121105
-0.036211
0.0010751
-0.0369629
0.00114967
-0.0377074
0.00126024
-0.0384133
0.00130171
-0.0391664
0.00148158
-0.0400797
0.00114681
0.0113435
0.00170815
0.0141498
0.0122414
0.00185387
0.00948964
0.00312246
0.0128812
0.00415085
0.011213
0.00717618
0.00242798
0.00706165
0.00427621
0.011033
0.00579014
0.00969906
0.00577071
0.00261465
0.00444701
0.00491249
0.00873511
0.00682778
0.00778377
0.0041196
0.00220555
0.00224145
0.00465456
0.0062861
0.00674457
0.00569377
0.00226393
0.00123048
0.00101097
0.0033149
0.00420168
0.00532039
0.00368829
0.00702308
0.000561243
-0.00412736
0.000173814
0.00083716
0.00145525
0.00292024
0.00293732
0.00220621
0.00430971
-0.000811153
0.00784261
-0.00766025
-0.0175637
-0.000598011
0.00143517
-9.21168e-05
0.00241435
0.000687033
0.00142706
0.00395385
-0.00407797
0.0107856
-0.014492
0.0166752
-0.0234533
-0.0286042
-0.000707895
0.00214307
-0.000728755
0.00243521
0.000857529
-0.00015922
0.00728426
-0.0105047
0.0137019
-0.0209096
0.0172632
-0.0270146
0.0188426
-0.0301837
-0.0317927
-0.000442409
-0.000770777
0.00366804
0.0104953
0.0147068
0.0170241
0.0182637
0.0187979
0.0521818
0.0012
-0.0519003
0.0524928
0.00472309
0.0524021
0.00954676
0.0522771
0.0124751
0.0165514
0.0545781
0.000974865
-0.054353
0.0546522
0.00464903
0.0547235
0.00947546
0.0544894
0.0127091
0.0169501
0.0574733
0.000901597
-0.0574
0.0573914
0.00473093
0.0573777
0.00948918
0.0572712
0.0128156
0.0175914
0.0604524
0.00097697
-0.0605277
0.0604296
0.00475371
0.0602498
0.00966896
0.0604244
0.012641
0.0181667
0.0638228
0.00127356
-0.0641194
0.0638682
0.00470832
0.0635722
0.00996499
0.0637566
0.0124566
0.0634533
0.01847
0.0201107
0.0677126
0.00163582
-0.0680749
0.0677335
0.00468741
0.0674239
0.0102746
0.0673638
0.0125167
0.0672952
0.0185386
0.0204437
0.0720342
0.00196078
-0.0723592
0.0719509
0.00477072
0.07177
0.0104556
0.0714966
0.0127901
0.0716018
0.0184334
0.0207744
0.0767803
0.00212453
-0.0769441
0.0765951
0.00495594
0.0766018
0.0104489
0.0762741
0.0131178
0.0764692
0.0182383
0.0210406
0.0818389
0.00212049
-0.0818349
0.0816465
0.00514837
0.0818081
0.0102873
0.081559
0.0133669
0.0817704
0.0180269
0.0212237
0.0871754
0.00200331
-0.0870582
0.0870571
0.00526665
0.0872861
0.0100583
0.0871949
0.0134581
0.0874286
0.0177932
0.0212169
0.0928031
0.0018397
-0.0926395
0.0927757
0.00529403
0.0930516
0.00978247
0.0931468
0.0133629
0.0934758
0.0174642
0.0209705
0.0988151
0.00166924
-0.0986446
0.0988767
0.00523236
0.0991866
0.00947261
0.0994618
0.0130876
0.0998908
0.0170352
0.0205161
0.105289
0.00151917
-0.105138
0.105393
0.00512749
0.10572
0.00914629
0.106075
0.0127327
0.106537
0.0165725
0.0199984
0.112257
0.00141797
-0.112156
0.112362
0.00502285
0.112657
0.00885133
0.113022
0.0123672
0.113507
0.0160874
0.0193553
0.119772
0.00136601
-0.11972
0.11989
0.00490434
0.120188
0.00855409
0.120614
0.0119411
0.121199
0.0155024
0.0186041
0.127856
0.00132991
-0.12782
0.128005
0.00475528
0.128326
0.00823226
0.128769
0.0114986
0.12934
0.0149315
0.017955
0.136482
0.00130733
-0.13646
0.13664
0.00459815
0.136959
0.00791234
0.137398
0.01106
0.138013
0.0143168
0.0171999
0.145705
0.00127929
-0.145677
0.145893
0.00440993
0.146265
0.00753998
0.146785
0.0105401
0.147512
0.01359
0.0163532
0.155588
0.00123298
-0.155542
0.155811
0.00418638
0.156226
0.00712551
0.156788
0.00997784
0.157543
0.0128354
0.0154898
0.16617
0.00117426
-0.166112
0.166416
0.00394083
0.166858
0.00668366
0.167468
0.00936744
0.168284
0.01202
0.0145215
0.177506
0.00110149
-0.177433
0.177783
0.00366334
0.178267
0.00620024
0.178942
0.00869156
0.179822
0.0111403
0.0134728
0.189624
0.001011
-0.189534
0.189934
0.00335392
0.190457
0.00567703
0.191191
0.00795791
0.192135
0.0101959
0.0123476
0.202556
0.000908038
-0.202453
0.20289
0.0030192
0.203457
0.00511085
0.204248
0.00716621
0.205259
0.00918504
0.0111347
0.216383
0.000794561
-0.216269
0.216743
0.00265891
0.217348
0.00450538
0.218191
0.00632376
0.21927
0.00810575
0.00983583
0.23119
0.000674324
-0.23107
0.23157
0.00227925
0.23221
0.00386501
0.233103
0.00543076
0.234248
0.00696092
0.00845043
0.247046
0.000548592
-0.246921
0.247453
0.00187288
0.248135
0.00318307
0.249089
0.0044767
0.250311
0.00573827
0.006968
0.264026
0.00041527
-0.263893
0.264457
0.00144167
0.265183
0.00245703
0.2662
0.0034599
0.267501
0.00443759
0.00539098
0.282222
0.000280651
-0.282087
0.282673
0.000990332
0.28344
0.00169016
0.28452
0.00237981
0.285905
0.00305267
0.00370911
0.301716
0.000145718
-0.301581
0.302196
0.000510329
0.303015
0.000871322
0.304167
0.00122779
0.305644
0.00157537
0.00191407
0.322602
-0.322457
0.323113
0.323984
0.325212
0.326787
0.033236
0.0307619
-0.0293736
-0.0346244
0.0313128
0.0301337
-0.0282104
0.0291951
0.0294153
-0.0272976
0.0270946
0.0287006
-0.0266002
0.025222
0.0279562
-0.0260836
0.0234571
0.027449
-0.0256841
0.0215501
0.0270615
-0.0251545
0.0196187
0.0265682
-0.0246368
0.0178136
0.026088
-0.0242829
0.0161276
0.0257336
-0.0240476
0.0144689
0.0254838
-0.0238251
0.0127913
0.0252831
-0.0236055
0.0111045
0.025125
-0.0234382
0.00941571
0.0250319
-0.0233431
0.00775142
0.0250233
-0.023359
0.00609366
0.025141
-0.0234832
0.00441534
0.0253364
-0.0236581
0.00273284
0.0256002
-0.0239177
0.00112625
0.0261522
-0.0245456
0.0214041
-0.0202778
0.0296125
0.0323501
-0.0312007
0.0281053
0.0316408
0.0264651
0.0310554
0.024616
0.0305497
0.022689
0.0298832
0.0209619
0.0291761
0.0193578
0.0286657
0.0177035
0.0282225
0.0160533
0.0277382
0.0144589
0.027328
0.0129045
0.0270382
0.0113598
0.0268278
0.00983565
0.0266491
0.00833228
0.0265352
0.00684513
0.0265105
0.00536587
0.0266203
0.00390663
0.0267957
0.0024703
0.0270365
0.00101864
0.0276039
0.0224227
0.0264991
0.034537
-0.028686
0.0246137
0.0335263
0.0231158
0.0325533
0.0217626
0.0319029
0.0202988
0.0313471
0.0187565
0.0307184
0.0172584
0.0301638
0.015768
0.029713
0.0142529
0.0292533
0.0127832
0.0287977
0.0113961
0.0284253
0.0100396
0.0281843
0.00868306
0.0280057
0.00733346
0.0278848
0.00599836
0.0278456
0.0046493
0.0279693
0.00324145
0.0282035
0.00184931
0.0284286
0.000562696
0.0288905
0.0229854
0.0236593
0.0358828
-0.0250051
0.0219722
0.0352133
0.0202933
0.0342323
0.018835
0.0333612
0.0174507
0.0327314
0.0161146
0.0320545
0.0148517
0.0314266
0.0136197
0.030945
0.0123778
0.0304952
0.0111117
0.0300638
0.00982681
0.0297102
0.00855548
0.0294556
0.00730172
0.0292594
0.0060715
0.029115
0.00489036
0.0290267
0.0037797
0.02908
0.00269643
0.0292868
0.00151985
0.0296052
0.000410885
0.0299995
0.0233963
0.0194943
0.0370122
-0.0206237
0.0185542
0.0361534
0.0172732
0.0355133
0.0160286
0.0346058
0.0148628
0.0338972
0.013634
0.0332834
0.0124171
0.0326435
0.011241
0.032121
0.0100862
0.0316501
0.00897837
0.0311716
0.00794955
0.030739
0.0069393
0.0304659
0.00592323
0.0302755
0.00489495
0.0301433
0.00386194
0.0300597
0.00284279
0.0300991
0.00189311
0.0302365
0.000902844
0.0305955
3.55994e-05
0.0308667
0.0234319
0.0159925
0.0383572
-0.0173374
0.0149566
0.0371893
0.0140327
0.0364371
0.0129114
0.0357271
0.0118763
0.0349323
0.0109319
0.0342278
0.0100319
0.0335435
0.0091488
0.0330041
0.00823418
0.0325647
0.00727866
0.0321271
0.00629951
0.0317181
0.00536177
0.0314036
0.00445058
0.0311867
0.00356005
0.0310339
0.00269336
0.0309264
0.00184845
0.030944
0.00111419
0.0309707
0.000407538
0.0313021
-0.000229927
0.0315042
0.023202
0.012359
0.0390827
-0.0130845
0.0114331
0.0381152
0.0106428
0.0372274
0.00990397
0.0364659
0.00910464
0.0357316
0.00823261
0.0350998
0.00733714
0.034439
0.00650372
0.0338375
0.00572441
0.033344
0.00496021
0.0328913
0.00424037
0.032438
0.00352856
0.0321154
0.00283488
0.0318803
0.00215617
0.0317126
0.00149387
0.0315887
0.000840453
0.0315974
0.000140629
0.0316706
-0.0002643
0.0317071
-0.000631123
0.031871
0.0225709
0.00827949
0.039641
-0.00883786
0.00769494
0.0386998
0.00707668
0.0378457
0.00639082
0.0371518
0.00575737
0.0363651
0.00525202
0.0356052
0.0047543
0.0349367
0.00420057
0.0343913
0.00361224
0.0339323
0.0030244
0.0334791
0.00241041
0.033052
0.00182305
0.0327028
0.00126051
0.0324429
0.00070654
0.0322665
0.00017564
0.0321196
-0.000321112
0.0320942
-0.000819342
0.0321688
-0.00115034
0.0320381
-0.000966235
0.0316869
0.0216046
0.00450333
0.0399253
-0.00478765
0.00409882
0.0391043
0.00379789
0.0381466
0.0035787
0.0373709
0.00320538
0.0367384
0.00270655
0.036104
0.00219896
0.0354443
0.00175217
0.0348381
0.00132666
0.0343578
0.000877162
0.0339286
0.000451399
0.0334777
2.37046e-05
0.0331305
-0.000411884
0.0328785
-0.000822064
0.0326767
-0.00119978
0.0324973
-0.00152047
0.0324149
-0.00173673
0.032385
-0.00192261
0.0322239
-0.00151065
0.0312749
0.020094
0.000333559
-0.000487882
0.000271441
4.79915e-06
-0.000331636
-0.000556128
-0.000663103
-0.000810515
-0.00104062
-0.00128179
-0.00150721
-0.00175931
-0.00200258
-0.00222887
-0.0024579
-0.00269663
-0.00293318
-0.00307348
-0.00290576
-0.00199491
0.0395036
0.00396413
0.0367499
0.00397148
0.0340529
0.00397462
0.0314118
0.00397587
0.0288252
0.00398377
0.0262894
0.00399837
0.0237972
0.00402413
0.0213435
0.00405751
0.0189208
0.00409718
0.0165236
0.00414539
0.0141414
0.00420369
0.0117763
0.00426237
0.00942264
0.00433459
0.00706198
0.00441461
0.00468744
0.00450423
0.00219775
0.00470202
0.00413623
0.0393566
0.00676975
0.0366151
0.00671291
0.0339318
0.00665793
0.0313054
0.00660233
0.0287339
0.00655522
0.0262106
0.00652172
0.023735
0.00649971
0.0212979
0.0064946
0.0188878
0.00650734
0.0165069
0.00652628
0.0141331
0.00657741
0.0117534
0.00664207
0.0093665
0.00672153
0.00695033
0.00683078
0.00450977
0.00694478
0.00201887
0.00719293
0.0061551
0.0389685
0.00955234
0.0362505
0.00943091
0.0335967
0.00931178
0.0309953
0.00920369
0.0284494
0.00910112
0.0259513
0.00901979
0.0234907
0.00896039
0.021077
0.00890823
0.0186928
0.00889152
0.0163293
0.00888979
0.0140036
0.00890316
0.0116697
0.00897591
0.00931373
0.00907755
0.00693778
0.00920673
0.00454075
0.00934182
0.00208108
0.00965259
0.00823618
0.04099
0.0125038
0.0382491
0.0122933
0.035579
0.012101
0.0329741
0.0119167
0.0304331
0.0117447
0.0279384
0.0115959
0.0255048
0.0114533
0.0231028
0.0113624
0.02072
0.011291
0.0183766
0.0112349
0.0160334
0.011233
0.013702
0.0112346
0.0114287
0.0112492
0.00915761
0.0113486
0.0068369
0.0115274
0.00449332
0.0116854
0.00208826
0.0120577
0.0103244
0.0400069
0.0152519
0.0373168
0.0149834
0.0346949
0.0147229
0.0321279
0.0144837
0.0296285
0.0142441
0.0271779
0.0140464
0.0247738
0.0138574
0.0224498
0.0136865
0.0201561
0.0135847
0.0178891
0.013502
0.0156681
0.0134539
0.0134062
0.0134965
0.0111077
0.0135478
0.00885118
0.0136051
0.00662875
0.0137499
0.00435744
0.0139567
0.00200281
0.0144123
0.0123272
0.0412933
0.0182552
0.0386605
0.0178847
0.0360894
0.0175544
0.0335903
0.0172221
0.0311496
0.0169244
0.0287509
0.0166427
0.0264087
0.0163886
0.0240604
0.0162057
0.0217299
0.016017
0.0194636
0.015851
0.0172054
0.0157601
0.0149872
0.0156721
0.0128551
0.0156286
0.0107349
0.0156681
0.00855841
0.0157815
0.00633829
0.01597
0.00408491
0.0162101
0.00179543
0.0167018
0.0141227
0.0422208
0.021357
0.0395684
0.0209076
0.0369607
0.0204924
0.0344329
0.0200823
0.0319858
0.0196691
0.0296319
0.0192783
0.0273335
0.0189411
0.0251261
0.018596
0.0230088
0.018323
0.0208733
0.0181525
0.018742
0.0179823
0.0166451
0.0178569
0.0145248
0.0177925
0.012364
0.0177894
0.0102164
0.0178156
0.00812112
0.0178768
0.00606159
0.0180295
0.00402408
0.0182476
0.00188682
0.018839
0.0160095
0.0402493
0.0237321
-0.0426244
0.0377765
0.0233804
0.0352987
0.0229701
0.0329313
0.0224498
0.0306261
0.0219743
0.0283877
0.0215167
0.0261573
0.0211715
0.0238697
0.0208836
0.0216582
0.0205346
0.0195737
0.0202369
0.0175256
0.0200304
0.015504
0.0198786
0.0135372
0.0197593
0.0116108
0.0197158
0.00966276
0.0197636
0.00767584
0.0198638
0.00565093
0.0200544
0.00357379
0.0203247
0.00150409
0.0209087
0.0175136
0.0375147
0.0262609
-0.0400434
0.0350036
0.0258914
0.0327226
0.0252511
0.0305862
0.0245862
0.0285026
0.024058
0.0264679
0.0235515
0.0245492
0.0230902
0.0226439
0.0227889
0.0206272
0.0225513
0.0185947
0.0222694
0.0166365
0.0219887
0.0147284
0.0217866
0.0128151
0.0216726
0.0109048
0.0216261
0.00899713
0.0216713
0.00709314
0.0217678
0.00522361
0.021924
0.00337774
0.0221706
0.00151911
0.0227674
0.0190327
0.0350055
-0.0381182
0.0326865
0.03064
0.028626
0.0266004
0.0244677
0.0224034
0.0205554
0.0188239
0.0170457
0.0152092
0.0133904
0.0116247
0.00990779
0.00822009
0.00650461
0.00477047
0.0030234
0.00124514
0.00713816
0.00766729
0.0386927
0.00635857
0.00824174
0.0478073
0.00543521
0.00701023
0.0490388
0.0513782
0.0052758
0.00617293
0.0522155
0.0552632
0.0049142
0.00543595
0.0560002
0.0594686
0.00442811
0.00488959
0.0600149
0.0640451
0.00396921
0.00440654
0.0645281
0.0689655
0.00357604
0.00394716
0.0694249
0.0740938
0.0032413
0.00350177
0.0745392
0.079328
0.00292178
0.00308621
0.0797436
0.08465
0.00261689
0.00271606
0.0850201
0.0901532
0.00234296
0.00240041
0.0904688
0.0959802
0.00210701
0.00214524
0.0962354
0.102283
0.00190953
0.00193234
0.102496
0.109182
0.00172938
0.00174878
0.109366
0.116733
0.00155989
0.00157982
0.116902
0.124927
0.00139749
0.00141226
0.125094
0.133671
0.00124326
0.00124752
0.133836
0.142941
0.00110108
0.00109113
0.143098
0.152737
0.000971568
0.000949868
0.152878
0.163148
0.000855115
0.000826769
0.163272
0.174243
0.000749001
0.000720257
0.174349
0.186093
0.000650798
0.000623027
0.186191
0.19876
0.000559084
0.000532974
0.19885
0.212334
0.000475064
0.000450184
0.212417
0.226875
0.000397091
0.000374585
0.22695
0.242428
0.000322662
0.000303372
0.242499
0.259055
0.000253155
0.00023811
0.259121
0.276878
0.000179057
0.000167776
0.276949
0.295987
8.96888e-05
8.40235e-05
0.29607
0.316639
4.87349e-05
4.46464e-05
0.316679
0.33856
0.338605
0.0488841
-0.0344696
0.0491951
-0.0315117
0.0499443
-0.0294352
0.0495864
-0.0246472
0.0502811
-0.0213184
0.0504916
-0.0175479
0.0505817
-0.0131746
0.0510573
-0.00931342
0.0513859
-0.00511621
-0.00100226
0.0523961
-0.0346503
0.0526388
-0.0317544
0.0527769
-0.0295733
0.0527526
-0.0246229
0.053432
-0.0219979
0.053158
-0.0172739
0.0535601
-0.0135767
0.0538753
-0.0096286
0.0540308
-0.00527169
-0.00132446
0.0560802
-0.0347303
0.0563596
-0.0320338
0.0561914
-0.0294051
0.0566152
-0.0250467
0.0568521
-0.0222347
0.0567722
-0.017194
0.0571693
-0.0139738
0.0571814
-0.0096407
0.0572679
-0.00535822
-0.00145654
0.0601793
-0.0348946
0.0603493
-0.0322038
0.0602684
-0.0293242
0.0606024
-0.0253807
0.0604909
-0.0221232
0.0605746
-0.0172777
0.0606268
-0.0140261
0.0604912
-0.00950507
0.0605159
-0.00538293
-0.0014684
0.0646559
-0.0350224
0.0647046
-0.0322525
0.0646415
-0.0292611
0.0646773
-0.0254165
0.0644935
-0.0219393
0.0645436
-0.0173278
0.064397
-0.0138795
0.0642648
-0.00937291
0.0641706
-0.00528874
-0.00141718
0.0694152
-0.0350127
0.069291
-0.0321283
0.0691237
-0.0290938
0.0689712
-0.025264
0.0687306
-0.0216987
0.0686863
-0.0172834
0.0684328
-0.0136261
0.0683363
-0.00927633
0.0681275
-0.00507996
-0.00136459
0.0743113
-0.0347847
0.0740243
-0.0318413
0.0737229
-0.0287924
0.0734689
-0.02501
0.0731353
-0.0213651
0.0730364
-0.0171846
0.0727044
-0.013294
0.0726742
-0.00924616
0.0723898
-0.0047955
-0.00133402
0.0793094
-0.0343505
0.0788987
-0.0314307
0.0784635
-0.0283572
0.0781491
-0.0246956
0.0777423
-0.0209583
0.0776022
-0.0170446
0.0772626
-0.0129544
0.0772434
-0.00922698
0.0769995
-0.00455162
-0.00127861
0.0844369
-0.0337673
0.0839084
-0.0309021
0.0833895
-0.0278383
0.0830151
-0.0243212
0.082589
-0.0205322
0.0824006
-0.0168561
0.082109
-0.0126628
0.0820518
-0.00916973
0.0819219
-0.00442172
-0.00119163
0.0897833
-0.0330817
0.0891627
-0.0302816
0.0886077
-0.0272832
0.0881689
-0.0238825
0.0877638
-0.0201271
0.087506
-0.0165983
0.0872831
-0.01244
0.0871687
-0.00905528
0.087151
-0.00440403
-0.00109885
0.0954916
-0.0323379
0.0948094
-0.0295994
0.0942389
-0.0267128
0.0937439
-0.0233874
0.0933582
-0.0197414
0.0930351
-0.0162752
0.0928547
-0.0122596
0.0926876
-0.00888816
0.0927203
-0.00443671
-0.00101803
0.101717
-0.0315595
0.100996
-0.0288784
0.100405
-0.0261212
0.099859
-0.0228418
0.0994699
-0.0193524
0.099084
-0.0158893
0.098906
-0.0120816
0.0986825
-0.00866462
0.098715
-0.00446924
-0.000947651
0.108553
-0.0307465
0.107797
-0.0281231
0.107161
-0.0254844
0.106571
-0.0222524
0.106144
-0.0189251
0.105707
-0.0154526
0.105488
-0.0118623
0.105214
-0.0083905
0.105213
-0.00446856
-0.000872877
0.11604
-0.0298837
0.115236
-0.0273196
0.114531
-0.0247789
0.113887
-0.0216083
0.113396
-0.0184342
0.112907
-0.0149638
0.112622
-0.0115775
0.112305
-0.00807305
0.112245
-0.00440933
-0.000783287
0.124153
-0.0289422
0.123277
-0.0264437
0.12247
-0.0239722
0.12176
-0.0208981
0.12118
-0.0178543
0.12065
-0.0144335
0.120284
-0.011212
0.119943
-0.00773166
0.119813
-0.00427945
-0.000689968
0.132792
-0.0278977
0.131821
-0.0254733
0.130903
-0.0230544
0.130114
-0.020109
0.129442
-0.0171817
0.128873
-0.0138645
0.128432
-0.0107717
0.128078
-0.00737775
0.127899
-0.00410012
-0.000610432
0.141937
-0.0267367
0.140865
-0.0244022
0.139841
-0.0220301
0.138969
-0.0192369
0.138208
-0.0164205
0.137603
-0.0132591
0.137103
-0.0102717
0.136743
-0.00701806
0.136527
-0.00388371
-0.000543776
0.151602
-0.0254604
0.150429
-0.0232288
0.149317
-0.020918
0.148362
-0.0182821
0.147529
-0.0155879
0.146882
-0.0126116
0.146345
-0.00973468
0.145974
-0.00664722
0.145737
-0.0036472
-0.000483298
0.161882
-0.0240708
0.160607
-0.0219537
0.159416
-0.0197272
0.158382
-0.017248
0.157484
-0.0146904
0.156786
-0.0119128
0.15622
-0.00916866
0.155833
-0.00626088
0.155592
-0.00340614
-0.000432703
0.172848
-0.0225695
0.171471
-0.0205763
0.170204
-0.018461
0.169097
-0.0161402
0.168142
-0.0137356
0.167389
-0.0111598
0.166797
-0.00857703
0.166395
-0.00585884
0.166156
-0.00316651
-0.000388732
0.184577
-0.0209559
0.183097
-0.0190968
0.181752
-0.0171154
0.180574
-0.0149621
0.179563
-0.0127247
0.178756
-0.0103531
0.17813
-0.00795064
0.177709
-0.00543844
0.177467
-0.00292459
-0.000354148
0.19712
-0.0192255
0.195535
-0.0175119
0.194102
-0.0156825
0.192849
-0.0137097
0.191777
-0.0116525
0.190915
-0.0094912
0.190249
-0.00728485
0.189803
-0.00499243
0.189558
-0.00267906
-0.000330027
0.21056
-0.0173682
0.208861
-0.0158135
0.20733
-0.0141513
0.205993
-0.0123725
0.20485
-0.0105093
0.203925
-0.00856649
0.203213
-0.00657261
0.202733
-0.0045125
0.202475
-0.0024213
-0.000307508
0.224956
-0.015374
0.223134
-0.0139916
0.221496
-0.012513
0.220064
-0.0109408
0.218845
-0.00928995
0.217852
-0.00757401
0.217088
-0.0058089
0.21657
-0.00399394
0.216295
-0.00214661
-0.000281441
0.240361
-0.0132354
0.238409
-0.01204
0.236659
-0.0107623
0.235127
-0.00940933
0.233826
-0.00798883
0.232766
-0.006514
0.231952
-0.0049947
0.231395
-0.00343751
0.231101
-0.00185205
-0.000250572
0.256829
-0.010944
0.254742
-0.00995284
0.252874
-0.00889427
0.251241
-0.00777602
0.249855
-0.00660303
0.248727
-0.0053858
0.247863
-0.00413123
0.247272
-0.00284608
0.246958
-0.00153782
-0.000213577
0.274489
-0.00848396
0.272253
-0.00771697
0.270256
-0.00689737
0.268511
-0.00603095
0.267031
-0.00512268
0.265824
-0.00417976
0.264901
-0.0032082
0.264268
-0.00221295
0.263931
-0.00120097
-0.00017501
0.293464
-0.00587761
0.291082
-0.00533509
0.288948
-0.0047632
0.287079
-0.00416166
0.285489
-0.00353305
0.284191
-0.00288136
0.283194
-0.00221104
0.282506
-0.00152537
0.282135
-0.000829629
-0.000127249
0.313824
-0.00302257
0.311241
-0.00275221
0.308941
-0.00246328
0.306935
-0.0021559
0.305234
-0.00183183
0.303846
-0.00149406
0.302781
-0.00114574
0.302045
-0.000789569
0.301644
-0.000428538
-6.41731e-05
0.335582
0.33283
0.330366
0.328211
0.326379
0.324885
0.323739
0.322949
0.322521
)
;

boundaryField
{
    outlet
    {
        type            calculated;
        value           nonuniform 0();
    }
    upperWall
    {
        type            symmetryPlane;
        value           uniform 0;
    }
    lowerWall
    {
        type            symmetryPlane;
        value           nonuniform 0();
    }
    inlet
    {
        type            calculated;
        value           nonuniform 0();
    }
    cylinder
    {
        type            calculated;
        value           uniform 0;
    }
    frontAndBack
    {
        type            empty;
        value           nonuniform 0();
    }
    procBoundary5to1
    {
        type            processor;
        value           nonuniform List<scalar> 
20
(
-0.0124903
-0.0147111
-0.0127576
-0.00115327
-0.00121776
-0.00127765
-0.00133481
-0.00139717
-0.00146257
-0.00153187
-0.0016038
-0.00167453
-0.00174818
-0.0018215
-0.00189726
-0.00198091
-0.00205395
-0.00212969
-0.00221234
-0.00193848
)
;
    }
    procBoundary5to4
    {
        type            processor;
        value           nonuniform List<scalar> 
45
(
-0.0423144
-0.0421622
-0.0417511
-0.00968578
-0.0438081
-0.042755
-0.0155516
-0.0439969
-0.0187189
-0.044859
-0.00648379
-0.0432787
-0.0405725
-0.00643529
-0.038616
-0.046884
-0.0512188
-0.0549016
-0.0589825
-0.0635862
-0.0685723
-0.0737591
-0.0790085
-0.0843451
-0.0898793
-0.0957443
-0.102085
-0.109002
-0.116564
-0.124764
-0.133517
-0.142799
-0.152608
-0.163032
-0.174137
-0.185995
-0.198668
-0.21225
-0.226797
-0.242354
-0.258986
-0.276804
-0.295897
-0.316598
-0.338511
)
;
    }
    procBoundary5to6
    {
        type            processor;
        value           nonuniform List<scalar> 
63
(
0.0181025
0.0325425
0.0326115
0.0325316
0.0187871
0.0332121
0.0331859
0.017785
0.0339692
0.0341375
0.0344451
0.0181109
0.0357064
0.0361767
0.0364062
0.0198955
0.00222433
-0.0081909
0.00516557
0.00719562
0.00847888
0.00860024
0.00281373
0.00833671
0.0114541
0.0139522
0.0257057
0.0195738
0.0310464
0.0195889
0.0325673
0.0188046
0.0519397
0.0540908
0.0566298
0.0598491
-0.0199999
0.0633426
0.0669622
0.0712711
0.076203
0.0815873
0.0874354
0.0937223
0.100345
0.107055
0.11415
0.12195
0.129989
0.138768
0.148359
0.158406
0.169252
0.180871
0.19326
0.206472
0.220569
0.235633
0.251794
0.269078
0.287587
0.307439
0.328701
)
;
    }
}


// ************************************************************************* //
