/*--------------------------------*- C++ -*----------------------------------*\
| =========                 |                                                 |
| \\      /  F ield         | OpenFOAM: The Open Source CFD Toolbox           |
|  \\    /   O peration     | Version:                                        |
|   \\  /    A nd           | Website:  www.openfoam.com                      |
|    \\/     M anipulation  |                                                 |
\*---------------------------------------------------------------------------*/
FoamFile
{
    version     2.0;
    format      ascii;
    class       volScalarField;
    location    "0.7";
    object      p;
}
// * * * * * * * * * * * * * * * * * * * * * * * * * * * * * * * * * * * * * //

dimensions      [0 2 -2 0 0 0 0];


internalField   nonuniform List<scalar> 
400
(
0.131055
0.124079
0.117138
0.11023
0.103355
0.0965112
0.0896972
0.0829126
0.0761551
0.0694255
0.0627198
0.0560414
0.0493814
0.0427518
0.0361288
0.0295496
0.0229473
0.0164316
0.00981157
0.00340978
0.131044
0.124068
0.117128
0.11022
0.103346
0.0965023
0.0896888
0.0829045
0.0761474
0.0694181
0.0627128
0.0560347
0.0493751
0.0427458
0.0361235
0.029544
0.0229433
0.0164261
0.00980983
0.00340291
0.131023
0.124048
0.117108
0.110202
0.103328
0.0964851
0.0896723
0.0828887
0.0761324
0.0694038
0.0626991
0.0560217
0.049363
0.042734
0.0361132
0.0295333
0.0229354
0.0164155
0.00980645
0.00338955
0.130992
0.124018
0.11708
0.110175
0.103302
0.0964603
0.0896486
0.0828661
0.0761108
0.0693832
0.0626796
0.056003
0.0493457
0.0427172
0.0360984
0.029518
0.0229242
0.0164004
0.00980164
0.00337048
0.130953
0.123981
0.117044
0.110141
0.103269
0.0964294
0.089619
0.0828378
0.0760839
0.0693574
0.0626552
0.0559797
0.049324
0.0426963
0.03608
0.0294991
0.0229102
0.0163817
0.00979566
0.0033468
0.130908
0.123939
0.117003
0.110102
0.103232
0.0963937
0.089585
0.0828053
0.0760528
0.0693278
0.0626272
0.055953
0.0492991
0.0426723
0.0360588
0.0294775
0.0228943
0.0163607
0.00978884
0.00331979
0.13086
0.123892
0.116959
0.110059
0.103192
0.096355
0.0895479
0.0827699
0.0760192
0.0692957
0.0625968
0.0559239
0.0492721
0.0426464
0.0360359
0.0294543
0.022877
0.0163383
0.00978152
0.00329092
0.130809
0.123844
0.116913
0.110015
0.10315
0.0963147
0.0895095
0.0827332
0.0759842
0.0692623
0.0625653
0.0558939
0.0492442
0.0426197
0.0360122
0.0294307
0.0228593
0.0163158
0.00977401
0.00326166
0.130759
0.123796
0.116867
0.109971
0.103107
0.0962745
0.0894711
0.0826965
0.0759493
0.0692291
0.0625338
0.055864
0.0492164
0.0425932
0.0359887
0.0294074
0.0228418
0.0162943
0.00976658
0.00323346
0.13071
0.123749
0.116822
0.109928
0.103067
0.0962354
0.0894338
0.0826609
0.0759154
0.0691967
0.0625032
0.0558349
0.0491894
0.0425676
0.0359659
0.0293853
0.0228248
0.0162744
0.00975938
0.00320761
0.130663
0.123704
0.11678
0.109888
0.103028
0.0961982
0.0893983
0.082627
0.0758831
0.069166
0.0624741
0.0558073
0.0491637
0.0425433
0.0359443
0.0293647
0.0228088
0.0162568
0.00975249
0.00318517
0.130619
0.123662
0.116739
0.109849
0.102991
0.0961632
0.0893649
0.0825951
0.0758528
0.0691371
0.0624467
0.0557814
0.0491395
0.0425205
0.0359239
0.0293456
0.0227936
0.0162414
0.00974582
0.00316691
0.130578
0.123623
0.116702
0.109813
0.102957
0.0961303
0.0893335
0.0825651
0.0758241
0.0691098
0.0624209
0.0557568
0.0491165
0.042499
0.0359044
0.0293278
0.022779
0.0162282
0.00973909
0.00315323
0.130538
0.123585
0.116666
0.109779
0.102924
0.0960988
0.0893034
0.0825363
0.0757967
0.0690836
0.062396
0.0557332
0.0490943
0.0424782
0.0358854
0.0293106
0.0227644
0.0162162
0.00973179
0.0031441
0.1305
0.123548
0.11663
0.109745
0.102891
0.0960677
0.0892736
0.0825078
0.0757694
0.0690575
0.0623712
0.0557096
0.049072
0.0424572
0.0358659
0.0292931
0.0227488
0.0162046
0.00972313
0.00313896
0.13046
0.12351
0.116594
0.10971
0.102858
0.0960358
0.089243
0.0824785
0.0757413
0.0690306
0.0623454
0.055685
0.0490486
0.042435
0.0358451
0.0292743
0.0227314
0.0161919
0.0097121
0.00313678
0.130419
0.12347
0.116556
0.109673
0.102823
0.0960019
0.0892104
0.0824472
0.0757113
0.0690018
0.0623178
0.0556585
0.0490233
0.0424109
0.0358221
0.0292531
0.0227113
0.0161767
0.00969746
0.00313615
0.130372
0.123426
0.116513
0.109632
0.102783
0.0959636
0.0891737
0.0824119
0.0756773
0.0689691
0.0622864
0.0556283
0.0489942
0.0423831
0.0357954
0.029228
0.0226867
0.0161569
0.00967679
0.00313449
0.130313
0.123369
0.116458
0.10958
0.102733
0.0959154
0.0891272
0.0823672
0.0756343
0.0689277
0.0622465
0.0555899
0.0489572
0.0423474
0.0357608
0.029195
0.0226541
0.0161279
0.00964484
0.0031251
0.130244
0.123302
0.116394
0.109518
0.102673
0.0958579
0.0890719
0.0823139
0.0755829
0.0688782
0.0621988
0.0555439
0.0489128
0.0423046
0.0357192
0.0291548
0.0226144
0.0160898
0.00960306
0.00310091
)
;

boundaryField
{
    fixedWalls
    {
        type            zeroGradient;
    }
    inlet
    {
        type            zeroGradient;
    }
    outlet
    {
        type            fixedValue;
        value           uniform 0;
    }
    frontAndBack
    {
        type            empty;
    }
    procBoundary7to3
    {
        type            processor;
        value           nonuniform List<scalar> 
20
(
0.131055
0.124079
0.117138
0.11023
0.103355
0.0965111
0.0896972
0.0829125
0.0761551
0.0694255
0.0627197
0.0560414
0.0493813
0.0427518
0.0361288
0.0295495
0.0229473
0.0164316
0.00981158
0.00340978
)
;
    }
    procBoundary7to6
    {
        type            processor;
        value           nonuniform List<scalar> 
20
(
0.138068
0.138056
0.138033
0.138001
0.137961
0.137914
0.137863
0.13781
0.137757
0.137706
0.137657
0.137611
0.137568
0.137527
0.137486
0.137445
0.137402
0.137353
0.137292
0.13722
)
;
    }
}


// ************************************************************************* //
