/*--------------------------------*- C++ -*----------------------------------*\
| =========                 |                                                 |
| \\      /  F ield         | OpenFOAM: The Open Source CFD Toolbox           |
|  \\    /   O peration     | Version:                                        |
|   \\  /    A nd           | Website:  www.openfoam.com                      |
|    \\/     M anipulation  |                                                 |
\*---------------------------------------------------------------------------*/
FoamFile
{
    version     2.0;
    format      ascii;
    class       surfaceScalarField;
    location    "0.7";
    object      phi;
}
// * * * * * * * * * * * * * * * * * * * * * * * * * * * * * * * * * * * * * //

dimensions      [0 3 -1 0 0 0 0];
oriented        oriented;


internalField   nonuniform List<scalar> 
760
(
3.61677e-05
-4.99983e-08
3.62158e-05
-4.80907e-08
3.62621e-05
-4.62586e-08
3.63066e-05
-4.44971e-08
3.63494e-05
-4.28066e-08
3.63906e-05
-4.11815e-08
3.64303e-05
-3.96248e-08
3.64684e-05
-3.8123e-08
3.65051e-05
-3.66928e-08
3.65404e-05
-3.5301e-08
3.65744e-05
-3.39987e-08
3.66072e-05
-3.26966e-08
3.66387e-05
-3.15412e-08
3.6669e-05
-3.02905e-08
3.66984e-05
-2.93307e-08
3.67265e-05
-2.80493e-08
3.67539e-05
-2.73928e-08
3.67799e-05
-2.59525e-08
3.68056e-05
-2.57278e-08
-2.40789e-08
3.6039e-05
-9.7729e-08
3.60849e-05
-9.39969e-08
3.61291e-05
-9.04145e-08
3.61716e-05
-8.69718e-08
3.62124e-05
-8.36691e-08
3.62518e-05
-8.04934e-08
3.62896e-05
-7.74511e-08
3.6326e-05
-7.45167e-08
3.6361e-05
-7.17219e-08
3.63947e-05
-6.90036e-08
3.64272e-05
-6.64596e-08
3.64584e-05
-6.39189e-08
3.64885e-05
-6.16595e-08
3.65174e-05
-5.92203e-08
3.65454e-05
-5.73425e-08
3.65722e-05
-5.48499e-08
3.65984e-05
-5.35608e-08
3.66232e-05
-5.07616e-08
3.66478e-05
-5.03174e-08
-4.71044e-08
3.5778e-05
-1.41038e-07
3.58196e-05
-1.35649e-07
3.58597e-05
-1.30476e-07
3.58982e-05
-1.25506e-07
3.59353e-05
-1.20738e-07
3.59709e-05
-1.16154e-07
3.60053e-05
-1.11762e-07
3.60383e-05
-1.07528e-07
3.607e-05
-1.03495e-07
3.61006e-05
-9.95757e-08
3.61301e-05
-9.59039e-08
3.61584e-05
-9.22431e-08
3.61857e-05
-8.89789e-08
3.6212e-05
-8.54711e-08
3.62374e-05
-8.27531e-08
3.62617e-05
-7.91785e-08
3.62854e-05
-7.73042e-08
3.6308e-05
-7.32933e-08
3.63303e-05
-7.26413e-08
-6.80242e-08
3.53774e-05
-1.78065e-07
3.5413e-05
-1.71254e-07
3.54472e-05
-1.64718e-07
3.54801e-05
-1.58439e-07
3.55118e-05
-1.52416e-07
3.55423e-05
-1.46626e-07
3.55716e-05
-1.41081e-07
3.55998e-05
-1.35737e-07
3.5627e-05
-1.30645e-07
3.56531e-05
-1.25701e-07
3.56782e-05
-1.21064e-07
3.57025e-05
-1.16452e-07
3.57258e-05
-1.12325e-07
3.57482e-05
-1.07917e-07
3.577e-05
-1.0447e-07
3.57908e-05
-9.99964e-08
3.58111e-05
-9.7604e-08
3.58304e-05
-9.25929e-08
3.58495e-05
-9.17479e-08
-8.59541e-08
3.48272e-05
-2.07332e-07
3.48553e-05
-1.99391e-07
3.48824e-05
-1.91773e-07
3.49084e-05
-1.84457e-07
3.49334e-05
-1.7744e-07
3.49575e-05
-1.70698e-07
3.49806e-05
-1.6424e-07
3.50029e-05
-1.5802e-07
3.50244e-05
-1.52091e-07
3.5045e-05
-1.46341e-07
3.50649e-05
-1.4094e-07
3.5084e-05
-1.35584e-07
3.51025e-05
-1.3077e-07
3.51202e-05
-1.25669e-07
3.51374e-05
-1.21633e-07
3.51539e-05
-1.16483e-07
3.51699e-05
-1.13657e-07
3.51852e-05
-1.07906e-07
3.52004e-05
-1.06887e-07
-1.00198e-07
3.41154e-05
-2.27827e-07
3.41351e-05
-2.1909e-07
3.41541e-05
-2.10711e-07
3.41723e-05
-2.02667e-07
3.41898e-05
-1.94954e-07
3.42066e-05
-1.87544e-07
3.42228e-05
-1.80447e-07
3.42384e-05
-1.73616e-07
3.42534e-05
-1.67102e-07
3.42679e-05
-1.60792e-07
3.42818e-05
-1.54855e-07
3.42952e-05
-1.48989e-07
3.43081e-05
-1.43688e-07
3.43206e-05
-1.38124e-07
3.43326e-05
-1.33659e-07
3.43442e-05
-1.2808e-07
3.43555e-05
-1.2492e-07
3.43663e-05
-1.18718e-07
3.43769e-05
-1.17548e-07
-1.10285e-07
3.32289e-05
-2.39055e-07
3.32397e-05
-2.29878e-07
3.32501e-05
-2.21079e-07
3.326e-05
-2.12636e-07
3.32696e-05
-2.04541e-07
3.32788e-05
-1.96767e-07
3.32877e-05
-1.89321e-07
3.32962e-05
-1.82158e-07
3.33045e-05
-1.75324e-07
3.33124e-05
-1.68714e-07
3.332e-05
-1.62483e-07
3.33274e-05
-1.56351e-07
3.33345e-05
-1.50778e-07
3.33413e-05
-1.44989e-07
3.33479e-05
-1.40269e-07
3.33544e-05
-1.34515e-07
3.33606e-05
-1.3113e-07
3.33667e-05
-1.2478e-07
3.33726e-05
-1.23486e-07
-1.15991e-07
3.21543e-05
-2.41048e-07
3.21562e-05
-2.31789e-07
3.2158e-05
-2.22912e-07
3.21598e-05
-2.14398e-07
3.21615e-05
-2.06236e-07
3.21631e-05
-1.984e-07
3.21647e-05
-1.90895e-07
3.21662e-05
-1.83679e-07
3.21677e-05
-1.76792e-07
3.21691e-05
-1.70139e-07
3.21705e-05
-1.63856e-07
3.21718e-05
-1.57699e-07
3.21731e-05
-1.52068e-07
3.21744e-05
-1.46286e-07
3.21756e-05
-1.41489e-07
3.21769e-05
-1.35805e-07
3.21781e-05
-1.32312e-07
3.21794e-05
-1.26108e-07
3.21807e-05
-1.24718e-07
-1.17342e-07
3.0879e-05
-2.34338e-07
3.08725e-05
-2.25335e-07
3.08663e-05
-2.16706e-07
3.08603e-05
-2.08431e-07
3.08546e-05
-2.00499e-07
3.08491e-05
-1.92887e-07
3.08438e-05
-1.85596e-07
3.08387e-05
-1.7859e-07
3.08338e-05
-1.71899e-07
3.08291e-05
-1.65445e-07
3.08246e-05
-1.59339e-07
3.08203e-05
-1.5338e-07
3.08161e-05
-1.47896e-07
3.08122e-05
-1.42334e-07
3.08083e-05
-1.37633e-07
3.08047e-05
-1.32239e-07
3.08012e-05
-1.28755e-07
3.0798e-05
-1.22966e-07
3.07948e-05
-1.21513e-07
-1.14595e-07
2.93919e-05
-2.19899e-07
2.9378e-05
-2.11454e-07
2.93647e-05
-2.03361e-07
2.93518e-05
-1.95602e-07
2.93395e-05
-1.88165e-07
2.93277e-05
-1.8103e-07
2.93163e-05
-1.74195e-07
2.93053e-05
-1.6763e-07
2.92948e-05
-1.61358e-07
2.92846e-05
-1.55317e-07
2.92749e-05
-1.49591e-07
2.92655e-05
-1.44025e-07
2.92565e-05
-1.38873e-07
2.92479e-05
-1.33713e-07
2.92395e-05
-1.29267e-07
2.92316e-05
-1.24346e-07
2.92238e-05
-1.20985e-07
2.92167e-05
-1.15838e-07
2.92096e-05
-1.14357e-07
-1.08212e-07
2.76841e-05
-1.99063e-07
2.76641e-05
-1.91425e-07
2.76448e-05
-1.84107e-07
2.76263e-05
-1.77092e-07
2.76085e-05
-1.70368e-07
2.75914e-05
-1.63919e-07
2.7575e-05
-1.57741e-07
2.75591e-05
-1.51809e-07
2.75439e-05
-1.46139e-07
2.75293e-05
-1.40684e-07
2.75152e-05
-1.35506e-07
2.75017e-05
-1.30493e-07
2.74886e-05
-1.25826e-07
2.74761e-05
-1.21212e-07
2.7464e-05
-1.17159e-07
2.74525e-05
-1.12845e-07
2.74412e-05
-1.09717e-07
2.74308e-05
-1.05379e-07
2.74203e-05
-1.03911e-07
-9.88187e-08
2.5749e-05
-1.73418e-07
2.57244e-05
-1.66776e-07
2.57007e-05
-1.60411e-07
2.56779e-05
-1.5431e-07
2.5656e-05
-1.48463e-07
2.56349e-05
-1.42855e-07
2.56147e-05
-1.37483e-07
2.55952e-05
-1.32326e-07
2.55764e-05
-1.27395e-07
2.55584e-05
-1.22657e-07
2.5541e-05
-1.18153e-07
2.55244e-05
-1.13808e-07
2.55083e-05
-1.09743e-07
2.54928e-05
-1.05773e-07
2.54779e-05
-1.02223e-07
2.54637e-05
-9.86002e-08
2.54497e-05
-9.58018e-08
2.54367e-05
-9.23702e-08
2.54238e-05
-9.09636e-08
-8.71518e-08
2.35825e-05
-1.44712e-07
2.35549e-05
-1.39181e-07
2.35284e-05
-1.33882e-07
2.35029e-05
-1.28803e-07
2.34784e-05
-1.23935e-07
2.34548e-05
-1.19266e-07
2.34321e-05
-1.14792e-07
2.34103e-05
-1.105e-07
2.33893e-05
-1.06394e-07
2.33691e-05
-1.02452e-07
2.33496e-05
-9.87013e-08
2.33309e-05
-9.50946e-08
2.33129e-05
-9.17061e-08
2.32955e-05
-8.8436e-08
2.32788e-05
-8.54635e-08
2.32627e-05
-8.25621e-08
2.32471e-05
-8.0171e-08
2.32324e-05
-7.76689e-08
2.32178e-05
-7.63806e-08
-7.40101e-08
2.11829e-05
-1.14746e-07
2.11541e-05
-1.10374e-07
2.11264e-05
-1.06184e-07
2.10998e-05
-1.02167e-07
2.10742e-05
-9.83172e-08
2.10495e-05
-9.46247e-08
2.10258e-05
-9.10865e-08
2.1003e-05
-8.7692e-08
2.09811e-05
-8.44448e-08
2.096e-05
-8.13292e-08
2.09396e-05
-7.83624e-08
2.092e-05
-7.55178e-08
2.09012e-05
-7.28366e-08
2.0883e-05
-7.02776e-08
2.08655e-05
-6.79184e-08
2.08486e-05
-6.57217e-08
2.08323e-05
-6.37894e-08
2.08167e-05
-6.21646e-08
2.08014e-05
-6.10549e-08
-6.01985e-08
1.85506e-05
-8.52978e-08
1.85223e-05
-8.20584e-08
1.8495e-05
-7.89538e-08
1.84688e-05
-7.59774e-08
1.84436e-05
-7.31242e-08
1.84194e-05
-7.03875e-08
1.83961e-05
-6.77649e-08
1.83736e-05
-6.52491e-08
1.8352e-05
-6.28421e-08
1.83312e-05
-6.05339e-08
1.83112e-05
-5.83349e-08
1.82919e-05
-5.62318e-08
1.82733e-05
-5.42449e-08
1.82554e-05
-5.2368e-08
1.82381e-05
-5.06171e-08
1.82215e-05
-4.90672e-08
1.82053e-05
-4.76119e-08
1.81899e-05
-4.6743e-08
1.81747e-05
-4.58651e-08
-4.64775e-08
1.56873e-05
-5.80511e-08
1.56611e-05
-5.5855e-08
1.56359e-05
-5.375e-08
1.56116e-05
-5.17314e-08
1.55883e-05
-4.9796e-08
1.55658e-05
-4.79395e-08
1.55442e-05
-4.61603e-08
1.55234e-05
-4.44535e-08
1.55034e-05
-4.28205e-08
1.54841e-05
-4.12551e-08
1.54656e-05
-3.97635e-08
1.54477e-05
-3.83401e-08
1.54304e-05
-3.69933e-08
1.54138e-05
-3.57337e-08
1.53977e-05
-3.45463e-08
1.53822e-05
-3.35532e-08
1.53672e-05
-3.25538e-08
1.53527e-05
-3.22629e-08
1.53385e-05
-3.16433e-08
-3.35213e-08
1.2596e-05
-3.45601e-08
1.25734e-05
-3.32583e-08
1.25516e-05
-3.20102e-08
1.25307e-05
-3.0813e-08
1.25106e-05
-2.9665e-08
1.24912e-05
-2.85636e-08
1.24725e-05
-2.75079e-08
1.24546e-05
-2.64952e-08
1.24373e-05
-2.55263e-08
1.24206e-05
-2.45978e-08
1.24046e-05
-2.37131e-08
1.23891e-05
-2.28705e-08
1.23742e-05
-2.20723e-08
1.23598e-05
-2.13337e-08
1.23459e-05
-2.06294e-08
1.23324e-05
-2.00801e-08
1.23193e-05
-1.94766e-08
1.23066e-05
-1.95469e-08
1.22941e-05
-1.9161e-08
-2.18969e-08
9.27996e-06
-1.62308e-08
9.26232e-06
-1.56222e-08
9.24535e-06
-1.50388e-08
9.22901e-06
-1.44789e-08
9.21329e-06
-1.39418e-08
9.19815e-06
-1.34265e-08
9.18358e-06
-1.29327e-08
9.16954e-06
-1.24587e-08
9.15602e-06
-1.20053e-08
9.14299e-06
-1.1571e-08
9.13044e-06
-1.11572e-08
9.11833e-06
-1.07638e-08
9.10665e-06
-1.03906e-08
9.09537e-06
-1.005e-08
9.08446e-06
-9.71878e-09
9.07386e-06
-9.48658e-09
9.06357e-06
-9.18744e-09
9.05342e-06
-9.39078e-09
9.04341e-06
-9.15231e-09
-1.206e-08
5.74258e-06
-4.32745e-09
5.73112e-06
-4.16615e-09
5.72009e-06
-4.01157e-09
5.70948e-06
-3.86317e-09
5.69926e-06
-3.72061e-09
5.68941e-06
-3.58378e-09
5.67993e-06
-3.45286e-09
5.6708e-06
-3.32702e-09
5.662e-06
-3.20654e-09
5.65352e-06
-3.09119e-09
5.64535e-06
-2.98146e-09
5.63746e-06
-2.87746e-09
5.62985e-06
-2.77828e-09
5.62249e-06
-2.69007e-09
5.61537e-06
-2.59998e-09
5.60843e-06
-2.54966e-09
5.6017e-06
-2.45386e-09
5.5949e-06
-2.58916e-09
5.5882e-06
-2.45194e-09
-4.33933e-09
1.98652e-06
1.98236e-06
1.97834e-06
1.97448e-06
1.97076e-06
1.96718e-06
1.96372e-06
1.9604e-06
1.95719e-06
1.9541e-06
1.95112e-06
1.94824e-06
1.94546e-06
1.94277e-06
1.94017e-06
1.93762e-06
1.93517e-06
1.93258e-06
1.93013e-06
)
;

boundaryField
{
    fixedWalls
    {
        type            calculated;
        value           uniform 0;
    }
    inlet
    {
        type            calculated;
        value           nonuniform 0();
    }
    outlet
    {
        type            calculated;
        value           nonuniform List<scalar> 
20
(
3.68297e-05
3.66708e-05
3.63512e-05
3.58674e-05
3.52146e-05
3.4387e-05
3.33783e-05
3.2182e-05
3.07921e-05
2.92032e-05
2.74109e-05
2.54121e-05
2.32047e-05
2.07876e-05
1.8161e-05
1.53255e-05
1.22825e-05
9.03357e-06
5.58048e-06
1.92579e-06
)
;
    }
    frontAndBack
    {
        type            empty;
        value           nonuniform 0();
    }
    procBoundary7to3
    {
        type            processor;
        value           nonuniform List<scalar> 
20
(
-1.09403e-11
-9.94769e-12
-1.36575e-11
-1.13782e-11
-1.15266e-11
-1.38411e-11
-1.54522e-11
-1.68098e-11
-1.82176e-11
-1.91371e-11
-2.03311e-11
-2.20288e-11
-2.32987e-11
-2.4492e-11
-2.57171e-11
-2.67275e-11
-2.90807e-11
-3.15183e-11
-3.21968e-11
-3.45887e-11
)
;
    }
    procBoundary7to6
    {
        type            processor;
        value           nonuniform List<scalar> 
20
(
-3.61177e-05
-3.59913e-05
-3.57347e-05
-3.53403e-05
-3.47979e-05
-3.40949e-05
-3.32177e-05
-3.21523e-05
-3.08857e-05
-2.94063e-05
-2.77049e-05
-2.57747e-05
-2.36112e-05
-2.12129e-05
-1.858e-05
-1.57145e-05
-1.26194e-05
-9.29829e-06
-5.75448e-06
-1.99085e-06
)
;
    }
}


// ************************************************************************* //
