/*--------------------------------*- C++ -*----------------------------------*\
| =========                 |                                                 |
| \\      /  F ield         | OpenFOAM: The Open Source CFD Toolbox           |
|  \\    /   O peration     | Version:                                        |
|   \\  /    A nd           | Website:  www.openfoam.com                      |
|    \\/     M anipulation  |                                                 |
\*---------------------------------------------------------------------------*/
FoamFile
{
    version     2.0;
    format      ascii;
    class       volVectorField;
    location    "0.7";
    object      U;
}
// * * * * * * * * * * * * * * * * * * * * * * * * * * * * * * * * * * * * * //

dimensions      [0 1 -1 0 0 0 0];


internalField   nonuniform List<vector> 
400
(
(1.44573 -0.00050573 0)
(1.44769 -0.000486459 0)
(1.44958 -0.000467889 0)
(1.45139 -0.000450093 0)
(1.45314 -0.000432991 0)
(1.45482 -0.000416528 0)
(1.45643 -0.000400764 0)
(1.45799 -0.000385555 0)
(1.45948 -0.000371071 0)
(1.46093 -0.000356978 0)
(1.46231 -0.000343792 0)
(1.46365 -0.000330596 0)
(1.46492 -0.000318897 0)
(1.46619 -0.00030622 0)
(1.46733 -0.000296503 0)
(1.46856 -0.000283512 0)
(1.46953 -0.000276849 0)
(1.47083 -0.00026224 0)
(1.47148 -0.000259943 0)
(1.47311 -0.000243247 0)
(1.44063 -0.00149452 0)
(1.4425 -0.00143746 0)
(1.4443 -0.0013827 0)
(1.44603 -0.00133006 0)
(1.4477 -0.00127956 0)
(1.4493 -0.00123099 0)
(1.45084 -0.00118447 0)
(1.45233 -0.00113959 0)
(1.45375 -0.00109685 0)
(1.45513 -0.00105526 0)
(1.45645 -0.00101635 0)
(1.45773 -0.000977458 0)
(1.45894 -0.00094292 0)
(1.46015 -0.000905559 0)
(1.46124 -0.000876868 0)
(1.46241 -0.000838639 0)
(1.46334 -0.000818968 0)
(1.46458 -0.000776041 0)
(1.4652 -0.000769223 0)
(1.46675 -0.000720064 0)
(1.43027 -0.00241518 0)
(1.43197 -0.00232294 0)
(1.4336 -0.0022344 0)
(1.43517 -0.00214932 0)
(1.43668 -0.00206769 0)
(1.43814 -0.0019892 0)
(1.43954 -0.00191401 0)
(1.44088 -0.0018415 0)
(1.44218 -0.00177243 0)
(1.44343 -0.00170528 0)
(1.44462 -0.00164241 0)
(1.44579 -0.00157965 0)
(1.44688 -0.00152379 0)
(1.44798 -0.00146358 0)
(1.44897 -0.00141712 0)
(1.45003 -0.00135567 0)
(1.45088 -0.00132369 0)
(1.452 -0.00125474 0)
(1.45257 -0.00124357 0)
(1.45398 -0.00116441 0)
(1.41437 -0.00322713 0)
(1.41582 -0.00310376 0)
(1.41722 -0.00298536 0)
(1.41856 -0.00287162 0)
(1.41985 -0.00276249 0)
(1.42109 -0.00265758 0)
(1.42229 -0.00255709 0)
(1.42344 -0.00246022 0)
(1.42454 -0.00236794 0)
(1.42561 -0.00227829 0)
(1.42663 -0.00219426 0)
(1.42763 -0.00211056 0)
(1.42857 -0.00203583 0)
(1.4295 -0.00195571 0)
(1.43035 -0.0018934 0)
(1.43126 -0.00181191 0)
(1.43198 -0.00176878 0)
(1.43294 -0.00167745 0)
(1.43343 -0.00166221 0)
(1.43464 -0.00155698 0)
(1.39251 -0.00389643 0)
(1.39366 -0.0037473 0)
(1.39476 -0.0036042 0)
(1.39583 -0.00346677 0)
(1.39685 -0.00333493 0)
(1.39783 -0.00320823 0)
(1.39877 -0.00308687 0)
(1.39968 -0.00296995 0)
(1.40055 -0.00285852 0)
(1.4014 -0.00275039 0)
(1.4022 -0.0026489 0)
(1.40299 -0.00254809 0)
(1.40373 -0.00245771 0)
(1.40447 -0.00236151 0)
(1.40514 -0.00228588 0)
(1.40586 -0.00218847 0)
(1.40643 -0.00213574 0)
(1.40719 -0.00202682 0)
(1.40758 -0.00200787 0)
(1.40854 -0.0018817 0)
(1.36422 -0.00439786 0)
(1.36502 -0.00422932 0)
(1.36579 -0.00406763 0)
(1.36653 -0.00391241 0)
(1.36725 -0.00376354 0)
(1.36794 -0.0036205 0)
(1.3686 -0.0034835 0)
(1.36923 -0.0033516 0)
(1.36984 -0.00322583 0)
(1.37043 -0.00310394 0)
(1.371 -0.00298934 0)
(1.37155 -0.00287591 0)
(1.37207 -0.00277369 0)
(1.37259 -0.00266584 0)
(1.37305 -0.00257995 0)
(1.37356 -0.0024714 0)
(1.37396 -0.00241094 0)
(1.3745 -0.00228999 0)
(1.37477 -0.00226777 0)
(1.37545 -0.00212678 0)
(1.32894 -0.00471621 0)
(1.32938 -0.00453525 0)
(1.3298 -0.0043617 0)
(1.33021 -0.00419516 0)
(1.3306 -0.00403545 0)
(1.33097 -0.00388206 0)
(1.33133 -0.00373515 0)
(1.33168 -0.00359378 0)
(1.33202 -0.00345893 0)
(1.33234 -0.00332841 0)
(1.33265 -0.00320548 0)
(1.33295 -0.00308426 0)
(1.33324 -0.00297441 0)
(1.33352 -0.00285967 0)
(1.33378 -0.00276691 0)
(1.33406 -0.00265232 0)
(1.33428 -0.00258624 0)
(1.33458 -0.00245929 0)
(1.33473 -0.00243431 0)
(1.33511 -0.00228521 0)
(1.28613 -0.00484689 0)
(1.28621 -0.00466075 0)
(1.28628 -0.00448228 0)
(1.28636 -0.00431107 0)
(1.28643 -0.00414693 0)
(1.28649 -0.00398932 0)
(1.28656 -0.00383838 0)
(1.28662 -0.00369321 0)
(1.28668 -0.00355467 0)
(1.28674 -0.00342076 0)
(1.28679 -0.00329442 0)
(1.28685 -0.00317033 0)
(1.2869 -0.00305721 0)
(1.28695 -0.00294036 0)
(1.287 -0.00284428 0)
(1.28706 -0.00272873 0)
(1.28709 -0.0026593 0)
(1.28716 -0.00253241 0)
(1.28718 -0.00250525 0)
(1.28728 -0.00235503 0)
(1.23529 -0.00479576 0)
(1.23503 -0.0046115 0)
(1.23477 -0.00443488 0)
(1.23453 -0.00426549 0)
(1.2343 -0.00410311 0)
(1.23407 -0.00394726 0)
(1.23386 -0.00379798 0)
(1.23365 -0.00365449 0)
(1.23345 -0.0035175 0)
(1.23326 -0.00338528 0)
(1.23307 -0.00326028 0)
(1.2329 -0.00313804 0)
(1.23272 -0.00302589 0)
(1.23256 -0.00291145 0)
(1.23241 -0.0028156 0)
(1.23226 -0.00270381 0)
(1.23212 -0.0026334 0)
(1.23197 -0.0025123 0)
(1.23187 -0.00248357 0)
(1.2317 -0.00233919 0)
(1.17596 -0.00457827 0)
(1.17539 -0.00440237 0)
(1.17485 -0.00423381 0)
(1.17433 -0.00407218 0)
(1.17382 -0.00391727 0)
(1.17334 -0.00376862 0)
(1.17287 -0.00362623 0)
(1.17243 -0.00348944 0)
(1.172 -0.00335878 0)
(1.17158 -0.00323284 0)
(1.17119 -0.00311357 0)
(1.1708 -0.00299742 0)
(1.17044 -0.00289019 0)
(1.17008 -0.00278215 0)
(1.16975 -0.0026899 0)
(1.16942 -0.00258595 0)
(1.16912 -0.00251691 0)
(1.16878 -0.00240661 0)
(1.16857 -0.00237699 0)
(1.16816 -0.00224507 0)
(1.10777 -0.00421793 0)
(1.10696 -0.00405599 0)
(1.10617 -0.00390082 0)
(1.10542 -0.00375207 0)
(1.10469 -0.0036095 0)
(1.10399 -0.00347273 0)
(1.10332 -0.00334172 0)
(1.10268 -0.0032159 0)
(1.10205 -0.00309567 0)
(1.10146 -0.00297994 0)
(1.10088 -0.00287016 0)
(1.10033 -0.00276367 0)
(1.0998 -0.00266479 0)
(1.09929 -0.00256643 0)
(1.0988 -0.0024808 0)
(1.09832 -0.0023879 0)
(1.09789 -0.00232249 0)
(1.0974 -0.00222698 0)
(1.09709 -0.00219724 0)
(1.09648 -0.00208377 0)
(1.03046 -0.0037445 0)
(1.02946 -0.00360093 0)
(1.02849 -0.00346338 0)
(1.02756 -0.00333152 0)
(1.02667 -0.00320515 0)
(1.02581 -0.00308394 0)
(1.02498 -0.00296782 0)
(1.02419 -0.00285636 0)
(1.02342 -0.0027498 0)
(1.02269 -0.00264734 0)
(1.02198 -0.00255001 0)
(1.0213 -0.00245596 0)
(1.02065 -0.00236815 0)
(1.02002 -0.00228192 0)
(1.01941 -0.00220542 0)
(1.01882 -0.00212576 0)
(1.01828 -0.00206605 0)
(1.01768 -0.00198804 0)
(1.01729 -0.00195906 0)
(1.01654 -0.00186917 0)
(0.943864 -0.00319186 0)
(0.942738 -0.00306973 0)
(0.941656 -0.00295271 0)
(0.940616 -0.00284055 0)
(0.939616 -0.00273305 0)
(0.938654 -0.00262995 0)
(0.937729 -0.00253117 0)
(0.936839 -0.00243638 0)
(0.935982 -0.00234573 0)
(0.935159 -0.00225866 0)
(0.934366 -0.00217584 0)
(0.933603 -0.00209609 0)
(0.932869 -0.00202129 0)
(0.932159 -0.00194873 0)
(0.931483 -0.00188322 0)
(0.930815 -0.00181793 0)
(0.93021 -0.00176572 0)
(0.929541 -0.00170642 0)
(0.929089 -0.00167923 0)
(0.928248 -0.00161691 0)
(0.847906 -0.00259599 0)
(0.846731 -0.00249693 0)
(0.845601 -0.002402 0)
(0.844515 -0.00231101 0)
(0.84347 -0.0022238 0)
(0.842465 -0.00214016 0)
(0.841499 -0.00206002 0)
(0.840569 -0.00198312 0)
(0.839674 -0.00190957 0)
(0.838813 -0.00183898 0)
(0.837984 -0.00177178 0)
(0.837186 -0.00170727 0)
(0.836418 -0.00164654 0)
(0.835676 -0.00158829 0)
(0.834967 -0.0015349 0)
(0.834268 -0.00148409 0)
(0.83363 -0.00144069 0)
(0.832934 -0.0013998 0)
(0.832448 -0.0013756 0)
(0.831572 -0.00134328 0)
(0.742601 -0.00199313 0)
(0.741446 -0.00191731 0)
(0.740335 -0.00184466 0)
(0.739267 -0.00177501 0)
(0.73824 -0.00170825 0)
(0.737252 -0.00164422 0)
(0.736301 -0.00158286 0)
(0.735386 -0.00152399 0)
(0.734506 -0.00146768 0)
(0.733658 -0.00141366 0)
(0.732842 -0.00136221 0)
(0.732056 -0.00131295 0)
(0.731299 -0.00126646 0)
(0.730568 -0.00122234 0)
(0.729868 -0.00118138 0)
(0.72918 -0.00114426 0)
(0.728545 -0.0011104 0)
(0.727863 -0.00108613 0)
(0.727369 -0.00106609 0)
(0.72651 -0.00106422 0)
(0.628026 -0.00141806 0)
(0.626957 -0.00136432 0)
(0.625929 -0.00131282 0)
(0.624941 -0.00126344 0)
(0.62399 -0.00121609 0)
(0.623074 -0.00117068 0)
(0.622194 -0.00112716 0)
(0.621346 -0.00108542 0)
(0.62053 -0.00104547 0)
(0.619744 -0.00100718 0)
(0.618988 -0.000970693 0)
(0.618259 -0.000935843 0)
(0.617557 -0.000902889 0)
(0.616878 -0.000871936 0)
(0.616227 -0.000842886 0)
(0.615589 -0.000817948 0)
(0.614994 -0.000793621 0)
(0.614364 -0.000782898 0)
(0.613889 -0.000767899 0)
(0.613092 -0.000794242 0)
(0.504299 -0.000902604 0)
(0.503378 -0.000868548 0)
(0.502491 -0.000835899 0)
(0.501638 -0.000804586 0)
(0.500818 -0.000774562 0)
(0.500028 -0.000745759 0)
(0.499268 -0.000718152 0)
(0.498536 -0.00069167 0)
(0.497831 -0.000666333 0)
(0.497152 -0.000642051 0)
(0.496498 -0.000618914 0)
(0.495868 -0.000596861 0)
(0.495261 -0.000575985 0)
(0.494674 -0.000556577 0)
(0.49411 -0.000538176 0)
(0.493558 -0.000523357 0)
(0.493039 -0.000507749 0)
(0.492495 -0.000506521 0)
(0.492068 -0.000496614 0)
(0.491371 -0.000545374 0)
(0.371558 -0.000476325 0)
(0.370839 -0.000458439 0)
(0.370147 -0.000441289 0)
(0.369481 -0.000424835 0)
(0.36884 -0.000409053 0)
(0.368223 -0.000393913 0)
(0.367629 -0.000379401 0)
(0.367057 -0.000365476 0)
(0.366506 -0.000352156 0)
(0.365976 -0.000339395 0)
(0.365464 -0.000327237 0)
(0.364971 -0.000315673 0)
(0.364496 -0.000304714 0)
(0.364036 -0.000294652 0)
(0.363594 -0.000284976 0)
(0.363161 -0.000277852 0)
(0.362751 -0.000269418 0)
(0.362325 -0.000273053 0)
(0.361976 -0.000267211 0)
(0.361412 -0.000327122 0)
(0.229937 -0.000173417 0)
(0.22947 -0.000166946 0)
(0.22902 -0.000160741 0)
(0.228587 -0.000154784 0)
(0.228171 -0.000149067 0)
(0.22777 -0.000143582 0)
(0.227383 -0.000138327 0)
(0.227011 -0.00013328 0)
(0.226653 -0.000128453 0)
(0.226307 -0.000123829 0)
(0.225975 -0.000119429 0)
(0.225653 -0.000115254 0)
(0.225344 -0.000111287 0)
(0.225044 -0.00010772 0)
(0.224755 -0.000104181 0)
(0.224473 -0.000101995 0)
(0.224204 -9.86205e-05 0)
(0.223925 -0.000102702 0)
(0.223687 -9.95982e-05 0)
(0.22329 -0.000151537 0)
(0.0795459 -2.88645e-05 0)
(0.0793761 -2.77987e-05 0)
(0.0792126 -2.67772e-05 0)
(0.0790552 -2.57955e-05 0)
(0.0789035 -2.48519e-05 0)
(0.0787575 -2.3946e-05 0)
(0.0786168 -2.30798e-05 0)
(0.0784813 -2.22462e-05 0)
(0.0783507 -2.14486e-05 0)
(0.0782248 -2.06851e-05 0)
(0.0781034 -1.99602e-05 0)
(0.0779862 -1.92755e-05 0)
(0.0778732 -1.86208e-05 0)
(0.0777638 -1.80576e-05 0)
(0.0776583 -1.74529e-05 0)
(0.077555 -1.7227e-05 0)
(0.0774564 -1.65191e-05 0)
(0.0773533 -1.81659e-05 0)
(0.0772626 -1.72852e-05 0)
(0.0770885 -3.8327e-05 0)
)
;

boundaryField
{
    fixedWalls
    {
        type            noSlip;
    }
    inlet
    {
        type            fixedValue;
        value           nonuniform 0();
    }
    outlet
    {
        type            zeroGradient;
    }
    frontAndBack
    {
        type            empty;
    }
    procBoundary7to3
    {
        type            processor;
        value           nonuniform List<vector> 
20
(
(1.44573 0.000506186 0)
(1.44769 0.000486881 0)
(1.44958 0.000468402 0)
(1.45139 0.000450583 0)
(1.45314 0.000433515 0)
(1.45482 0.000417114 0)
(1.45643 0.000401392 0)
(1.45799 0.000386231 0)
(1.45948 0.000371799 0)
(1.46093 0.000357745 0)
(1.46231 0.000344608 0)
(1.46365 0.000331475 0)
(1.46492 0.000319828 0)
(1.46619 0.000307197 0)
(1.46733 0.000297532 0)
(1.46856 0.000284596 0)
(1.46953 0.000278015 0)
(1.47083 0.000263493 0)
(1.47148 0.000261222 0)
(1.47311 0.000244622 0)
)
;
    }
    procBoundary7to6
    {
        type            processor;
        value           nonuniform List<vector> 
20
(
(1.44369 -0.000525833 0)
(1.43868 -0.00155386 0)
(1.4285 -0.00251119 0)
(1.41286 -0.0033556 0)
(1.39132 -0.0040518 0)
(1.36338 -0.00457351 0)
(1.32848 -0.00490486 0)
(1.28605 -0.00504102 0)
(1.23556 -0.00498801 0)
(1.17655 -0.00476183 0)
(1.10862 -0.00438697 0)
(1.03151 -0.00389438 0)
(0.945035 -0.00331937 0)
(0.849128 -0.00269942 0)
(0.743802 -0.00207227 0)
(0.629137 -0.00147414 0)
(0.505257 -0.000938145 0)
(0.372305 -0.000494987 0)
(0.230422 -0.000180169 0)
(0.0797223 -2.99765e-05 0)
)
;
    }
}


// ************************************************************************* //
