/*--------------------------------*- C++ -*----------------------------------*\
| =========                 |                                                 |
| \\      /  F ield         | OpenFOAM: The Open Source CFD Toolbox           |
|  \\    /   O peration     | Version:                                        |
|   \\  /    A nd           | Website:  www.openfoam.com                      |
|    \\/     M anipulation  |                                                 |
\*---------------------------------------------------------------------------*/
FoamFile
{
    version     2.0;
    format      ascii;
    class       volScalarField;
    location    "50";
    object      p;
}
// * * * * * * * * * * * * * * * * * * * * * * * * * * * * * * * * * * * * * //

dimensions      [0 2 -2 0 0 0 0];


internalField   nonuniform List<scalar> 
1150
(
0.160132
0.156309
0.150141
0.141495
0.130106
0.116167
0.169228
0.164716
0.157275
0.146894
0.1335
0.179004
0.173914
0.165387
0.0416146
0.0414736
0.0412934
0.0410794
0.0408356
0.0405698
0.0402887
0.0399973
0.0397037
0.0394216
0.0352996
0.0352181
0.0351562
0.0351081
0.0350724
0.0350394
0.035008
0.034971
0.0349173
0.0348394
0.037494
0.0373424
0.0371697
0.0369818
0.0367776
0.0365666
0.0363529
0.03615
0.0359664
0.0357906
0.0378357
0.0377103
0.0375959
0.0374765
0.0373704
0.0372625
0.0371678
0.0370675
0.0369782
0.0368815
0.039768
0.0396422
0.0394956
0.0393343
0.0391527
0.0389638
0.0387627
0.0385632
0.0383637
0.0381879
0.0398127
0.0396449
0.0394947
0.0393279
0.0391832
0.039029
0.0388971
0.0387585
0.0386228
0.0384946
0.0410724
0.0409342
0.0407743
0.0406161
0.0404357
0.0402577
0.0400603
0.0398744
0.0396661
0.0394804
0.0415887
0.0413989
0.0412191
0.0409974
0.040799
0.0405637
0.0403483
0.0401308
0.0398876
0.0397021
0.0429244
0.0427477
0.0425223
0.0423327
0.0421142
0.0419398
0.0417323
0.0415641
0.0413492
0.0411714
0.0440763
0.0438504
0.0436413
0.0433874
0.0431463
0.0428602
0.0425714
0.0422985
0.0419271
0.0417503
0.0457327
0.0454562
0.0451738
0.0449302
0.0446245
0.0444139
0.0440881
0.0438934
0.0436041
0.0434386
0.0473796
0.047108
0.0468154
0.0464955
0.046186
0.045873
0.0455207
0.0452353
0.0447723
0.0445167
0.0494945
0.0491658
0.0488445
0.0485049
0.0480977
0.0477798
0.0472895
0.0470041
0.0465202
0.0463006
0.0516994
0.0513431
0.0509411
0.0505215
0.0500614
0.0496043
0.0491177
0.048715
0.0481379
0.0478807
0.0543354
0.0539251
0.053493
0.0530062
0.0524799
0.0520064
0.0513297
0.0509404
0.0501099
0.0498148
0.0572063
0.0567167
0.0561607
0.0555773
0.054895
0.0542551
0.0534951
0.0528903
0.0520656
0.0516381
0.060496
0.0599485
0.0593142
0.0586306
0.0578556
0.0571625
0.0561973
0.0556432
0.0544009
0.0539593
0.0641217
0.0634616
0.0626939
0.0618738
0.0608978
0.0599994
0.0588344
0.0579299
0.0566105
0.0557798
0.0682474
0.0674991
0.0666114
0.0656639
0.064499
0.0634852
0.0620207
0.0610912
0.0592494
0.0584179
0.072757
0.0718865
0.070814
0.0696402
0.0682122
0.0668803
0.0651072
0.0637108
0.0616317
0.060152
0.0779112
0.076872
0.0756144
0.0742582
0.0725278
0.0710064
0.0687662
0.0671984
0.0643926
0.0627218
0.0834692
0.0822596
0.0807556
0.0790838
0.0769592
0.0749527
0.0722179
0.0699393
0.0666699
0.0640225
0.089643
0.0882848
0.0865352
0.0845839
0.0820243
0.079664
0.0762454
0.0735603
0.0693081
0.0661433
0.0963774
0.0947998
0.0927083
0.0903373
0.0871939
0.0841398
0.0799333
0.076175
0.071072
0.06637
0.10377
0.101982
0.0995627
0.0967916
0.0930177
0.0893497
0.0841562
0.0795606
0.073104
0.0673546
0.111743
0.109707
0.106861
0.103528
0.0989344
0.0942589
0.0878737
0.0816632
0.0737963
0.0657055
0.120368
0.11811
0.114856
0.110964
0.105502
0.0998269
0.0920502
0.084341
0.0745184
0.0644992
0.129582
0.127069
0.12332
0.118665
0.112114
0.104953
0.0954741
0.0853848
0.0733359
0.0599296
0.139509
0.136722
0.132472
0.126956
0.11925
0.110455
0.099087
0.0866231
0.0718212
0.150122
0.146953
0.141982
0.13519
0.125926
0.114781
0.10099
0.0391396
0.0388471
0.0385141
0.0380872
0.0376265
0.0372829
0.0369952
0.0365895
0.0359752
0.0350906
0.0341038
0.0331873
0.032395
0.0317252
0.031183
0.0307568
0.0304193
0.0301346
0.029865
0.0295835
0.0292799
0.0289477
0.0285843
0.028195
0.0277899
0.0273838
0.0269972
0.0266572
0.0263959
0.0262476
0.0347814
0.0347336
0.0346632
0.0345595
0.0344108
0.0342169
0.0340553
0.0339506
0.0339434
0.0341415
0.0344997
0.0348124
0.0349351
0.0348309
0.0344896
0.0339289
0.0332131
0.0324332
0.0316693
0.0309471
0.0302743
0.0296427
0.0290464
0.0284805
0.0279454
0.0274449
0.0269925
0.0266086
0.0263191
0.0261558
0.0356431
0.035527
0.0354122
0.035278
0.0351956
0.0352171
0.0352103
0.0351085
0.0349136
0.0346104
0.0343322
0.0340917
0.0339092
0.0337668
0.0336174
0.0333976
0.0330544
0.0325618
0.0319511
0.0312558
0.0305265
0.0298029
0.0291067
0.0284488
0.0278366
0.027278
0.0267866
0.0263783
0.0260754
0.0259055
0.0367612
0.0366499
0.0365363
0.0364293
0.0362604
0.0359398
0.0355482
0.0351733
0.0348382
0.0346164
0.0344667
0.0343434
0.0341458
0.0338588
0.0334992
0.0331027
0.0326767
0.0322006
0.031635
0.0309756
0.0302651
0.0295378
0.0288204
0.0281329
0.0274928
0.0269149
0.0264127
0.026001
0.0256989
0.0255307
0.0379841
0.0377505
0.0374451
0.0370729
0.0367997
0.0366815
0.0364739
0.0360769
0.0355037
0.0347986
0.0342021
0.033713
0.0333401
0.0330219
0.0327006
0.0323474
0.0319466
0.0314872
0.0309634
0.0303661
0.0297199
0.0290356
0.0283357
0.0276478
0.0270039
0.0264268
0.0259291
0.025526
0.025232
0.0250703
0.0383448
0.0381933
0.0380663
0.0379884
0.0378234
0.0373559
0.0366788
0.0360692
0.035581
0.0352336
0.0348968
0.0345343
0.0340521
0.033451
0.0327922
0.0321274
0.0314892
0.0308774
0.0302831
0.0296765
0.0290407
0.0283728
0.0276907
0.0270246
0.0264033
0.0258461
0.0253678
0.0249819
0.0247021
0.0245503
0.039221
0.0389069
0.0384852
0.0380061
0.0376373
0.0373818
0.0370889
0.0365553
0.0357855
0.0350308
0.0345032
0.0340715
0.0336461
0.0331593
0.0325759
0.0318822
0.0311459
0.0304069
0.0296942
0.0290086
0.0283288
0.0276488
0.0269746
0.0263323
0.0257418
0.0252152
0.0247642
0.0244
0.0241371
0.0239971
0.0394625
0.0392132
0.0390427
0.0389934
0.0389035
0.0384333
0.0376747
0.0369729
0.0364266
0.0359038
0.0353415
0.0347188
0.0340051
0.033216
0.0324094
0.0315938
0.0307668
0.0299337
0.0291125
0.0283258
0.0275797
0.0268759
0.026215
0.0256029
0.0250483
0.0245576
0.0241384
0.0237998
0.0235569
0.023431
0.0408669
0.040431
0.0398466
0.0392514
0.0387456
0.0383154
0.0378349
0.037148
0.0362213
0.0354883
0.0349409
0.0344235
0.0338013
0.0330611
0.0322224
0.0313164
0.0303752
0.0294219
0.0284945
0.0276244
0.0268204
0.0260911
0.0254378
0.024855
0.0243391
0.0238897
0.0235079
0.0231996
0.0229807
0.0228696
0.0413556
0.0409208
0.0406429
0.0405218
0.0402305
0.0394996
0.0386443
0.0378599
0.0371917
0.036442
0.0355739
0.0346142
0.0336398
0.0326928
0.031752
0.0307913
0.0298018
0.028799
0.0278187
0.0268979
0.0260552
0.0253057
0.0246564
0.0240985
0.02362
0.0232138
0.0228733
0.0225986
0.0224054
0.0223093
0.0431713
0.0425705
0.0418129
0.0411309
0.0404663
0.0397889
0.0388607
0.0377897
0.0368384
0.0361494
0.0353938
0.0345179
0.0335149
0.0324258
0.0313137
0.0302087
0.0291157
0.0280517
0.0270392
0.0260992
0.0252494
0.0245044
0.0238707
0.0233408
0.0229018
0.0225423
0.0222492
0.022013
0.0218488
0.0217662
0.0438754
0.0432601
0.0428133
0.042343
0.0415464
0.040495
0.0395812
0.038717
0.0377115
0.0365487
0.0353243
0.0341357
0.0329699
0.0317989
0.0306195
0.0294406
0.0282858
0.0271867
0.0261633
0.0252297
0.0244009
0.0236825
0.0230783
0.0225837
0.0221879
0.0218794
0.0216393
0.0214461
0.0213129
0.0212431
0.0458656
0.0450226
0.0440344
0.043233
0.0424345
0.0413384
0.0399036
0.0386221
0.037597
0.0365508
0.0353144
0.033963
0.0325492
0.0311522
0.0298086
0.0285236
0.0273157
0.0261952
0.025176
0.0242697
0.0234813
0.0228095
0.0222543
0.0218108
0.0214701
0.0212212
0.0210424
0.0208994
0.0207974
0.0207398
0.0470265
0.0461794
0.0453812
0.0442818
0.0429502
0.0416999
0.0405212
0.0391866
0.0376941
0.036139
0.0346613
0.033224
0.0317568
0.030279
0.0288384
0.0274743
0.0262239
0.0250995
0.0241094
0.0232512
0.0225187
0.0219075
0.0214148
0.0210337
0.0207561
0.0205718
0.020459
0.0203713
0.0203009
0.0202554
0.0489721
0.0476745
0.0465183
0.0454806
0.0441447
0.0423829
0.0406481
0.0391399
0.0376455
0.035964
0.0341906
0.0324265
0.0307361
0.0291412
0.0276409
0.0262517
0.0249995
0.0239028
0.0229629
0.0221691
0.0215096
0.0209762
0.020561
0.0202549
0.0200493
0.0199348
0.0198925
0.0198677
0.0198299
0.0197966
0.0505734
0.0493624
0.047847
0.0461294
0.0444298
0.0427519
0.0409256
0.0389915
0.0370796
0.0352215
0.0333559
0.0314703
0.0296299
0.0278983
0.0263086
0.0248886
0.0236587
0.0226181
0.0217503
0.0210374
0.0204665
0.020025
0.0197004
0.01948
0.0193531
0.0193117
0.0193417
0.019387
0.0193864
0.0193666
0.0524822
0.0506402
0.0491459
0.0475709
0.0454745
0.0430786
0.0408824
0.0387165
0.0364548
0.0341948
0.0320381
0.0300364
0.0281593
0.0264045
0.0248086
0.0234147
0.0222367
0.0212678
0.0204851
0.0198661
0.0193957
0.0190564
0.0188321
0.0187057
0.0186638
0.0186983
0.0188014
0.0189236
0.0189652
0.0189635
0.0542579
0.0523941
0.0501245
0.0477126
0.0453005
0.0428211
0.0403025
0.0378479
0.0354653
0.0330826
0.0307318
0.0285185
0.0265031
0.0247086
0.0231501
0.0218315
0.0207436
0.0198733
0.0191929
0.0186796
0.018318
0.0180872
0.0179681
0.0179397
0.0179848
0.0180946
0.0182678
0.0184688
0.0185625
0.0185852
0.0561605
0.0536214
0.051295
0.0487223
0.0458402
0.0427785
0.039703
0.0367117
0.0339096
0.0313219
0.028914
0.0266665
0.0246228
0.0228482
0.0213596
0.0201473
0.0191869
0.0184472
0.0178908
0.0174978
0.0172529
0.0171345
0.0171223
0.0171918
0.0173227
0.0175048
0.0177426
0.0180196
0.0181775
0.0182318
0.0577712
0.0549114
0.0516804
0.0483247
0.0449484
0.0416251
0.0384271
0.0353371
0.032334
0.0294856
0.0268922
0.024585
0.0225736
0.0208712
0.0194813
0.0183945
0.0175779
0.0169848
0.0165707
0.0163148
0.0161977
0.0161987
0.0162966
0.0164644
0.0166799
0.0169305
0.0172267
0.0175727
0.0178101
0.0179041
0.059296
0.0556614
0.0522003
0.0485609
0.0445994
0.0404939
0.0366166
0.0331017
0.0299516
0.0270966
0.0245092
0.0222392
0.0203233
0.0187575
0.0175309
0.0166137
0.0159625
0.0155251
0.0152611
0.0151481
0.0151642
0.0152885
0.0154973
0.0157624
0.0160601
0.0163749
0.0167227
0.0171265
0.0174567
0.0175985
0.0604371
0.0562787
0.0517192
0.0471172
0.0426904
0.0384907
0.0345146
0.0308227
0.0274993
0.0245486
0.0219623
0.0197585
0.0179591
0.0165569
0.015524
0.0148048
0.0143368
0.0140654
0.0139565
0.0139894
0.014143
0.0143945
0.014716
0.0150792
0.0154589
0.0158362
0.01623
0.0166794
0.0171089
0.0173096
0.0610681
0.0558722
0.0509532
0.045996
0.0409019
0.0359574
0.0315285
0.0277064
0.0244325
0.0215782
0.019132
0.0171149
0.0155202
0.0143305
0.013516
0.0130085
0.0127345
0.012638
0.0126869
0.0128656
0.013156
0.0135326
0.0139643
0.0144234
0.0148832
0.0153205
0.0157549
0.0162373
0.0167598
0.0170316
0.0609784
0.0551197
0.0490492
0.0431886
0.0377339
0.0327457
0.0282956
0.0244757
0.0212344
0.0184707
0.0161865
0.0143844
0.0130295
0.0120924
0.011522
0.0112318
0.0111529
0.0112322
0.0114417
0.0117708
0.0122006
0.012702
0.0132425
0.0137961
0.0143352
0.0148325
0.0153042
0.0158085
0.0164061
0.0167617
0.0601651
0.0530133
0.0463736
0.0400995
0.0341651
0.0288214
0.0243041
0.0206371
0.0176371
0.0151435
0.0131396
0.0116164
0.0105431
0.00988139
0.00955919
0.00948755
0.00960066
0.00985333
0.0102265
0.0107116
0.0112841
0.0119104
0.0125588
0.0132051
0.0138225
0.0143808
0.0148884
0.0154049
0.0160491
0.0164984
0.0579782
0.0500373
0.0422879
0.0354458
0.0295265
0.0243847
0.0200899
0.0166348
0.0138873
0.0117093
0.010051
0.00886187
0.00809474
0.00770635
0.00763052
0.00777255
0.0080676
0.00848874
0.00902842
0.00967502
0.0103948
0.0111497
0.0119089
0.0126493
0.0133466
0.0139696
0.0145151
0.0150372
0.0156947
0.0162386
0.0546879
0.0450684
0.0368896
0.0301514
0.0242621
0.0193055
0.0153678
0.0123401
0.0100134
0.00822702
0.00694298
0.00611665
0.0056826
0.00557795
0.00573585
0.00607447
0.00654219
0.00713199
0.00784342
0.00865665
0.0095279
0.0104164
0.0112909
0.0121287
0.0129097
0.0136028
0.0141906
0.0147168
0.0153561
0.0159775
0.0489363
0.0384985
0.0300574
0.0235738
0.018212
0.013822
0.0103969
0.00785884
0.00600971
0.00468204
0.00382494
0.00339676
0.00331224
0.0034858
0.00385635
0.00437426
0.00500967
0.00577194
0.0066618
0.00764627
0.00867374
0.00970227
0.0106989
0.0116408
0.0125118
0.0132825
0.0139205
0.0144539
0.0150503
0.0157105
)
;

boundaryField
{
    outlet
    {
        type            fixedValue;
        value           nonuniform 0();
    }
    upperWall
    {
        type            symmetryPlane;
    }
    lowerWall
    {
        type            symmetryPlane;
    }
    inlet
    {
        type            zeroGradient;
    }
    cylinder
    {
        type            zeroGradient;
    }
    frontAndBack
    {
        type            empty;
    }
    procBoundary0to1
    {
        type            processor;
        value           nonuniform List<scalar> 
45
(
0.0996864
0.117345
0.0996864
0.15362
0.117345
0.138677
0.18979
0.184235
0.15362
0.174865
0.0554614
0.0852851
0.0554614
0.0675202
0.0852851
0.0403654
0.0292038
0.0219179
0.0162579
0.0114687
0.00768484
0.00490097
0.00297838
0.00168482
0.000862324
0.000487932
0.000512
0.000827408
0.00131939
0.00192126
0.00261767
0.00343275
0.00438483
0.0054679
0.00663347
0.00782635
0.00900427
0.0101323
0.0111876
0.012157
0.0130138
0.0137129
0.0142595
0.0147968
0.0154346
)
;
    }
    procBoundary0to4
    {
        type            processor;
        value           nonuniform List<scalar> 
33
(
0.161829
0.170915
0.180598
0.0417148
0.0354002
0.0376221
0.0379559
0.0398804
0.0399702
0.041204
0.0417566
0.043114
0.0442708
0.0459711
0.0476179
0.0497793
0.0520016
0.0546826
0.0576039
0.0609579
0.0646168
0.0688085
0.0733393
0.0785794
0.0842028
0.0904576
0.0972732
0.10476
0.112849
0.121591
0.130965
0.141008
0.151728
)
;
    }
}


// ************************************************************************* //
