/*--------------------------------*- C++ -*----------------------------------*\
| =========                 |                                                 |
| \\      /  F ield         | OpenFOAM: The Open Source CFD Toolbox           |
|  \\    /   O peration     | Version:                                        |
|   \\  /    A nd           | Website:  www.openfoam.com                      |
|    \\/     M anipulation  |                                                 |
\*---------------------------------------------------------------------------*/
FoamFile
{
    version     2.0;
    format      ascii;
    class       volVectorField;
    location    "10";
    object      U;
}
// * * * * * * * * * * * * * * * * * * * * * * * * * * * * * * * * * * * * * //

dimensions      [0 1 -1 0 0 0 0];


internalField   nonuniform List<vector> 
1164
(
(0.813113 0.0103078 -2.4887e-23)
(0.936091 0.0296487 1.34831e-21)
(0.992896 0.0382217 -2.5187e-21)
(0.940166 0.0452339 1.22707e-21)
(0.848856 0.0475709 -3.46398e-21)
(0.814471 0.0571003 -2.46585e-20)
(0.84473 0.00788436 1.52676e-22)
(0.955262 0.0227554 -2.81276e-21)
(0.99991 0.0281928 2.14738e-21)
(0.942166 0.02998 4.58671e-21)
(0.856332 0.0316833 2.89768e-21)
(0.834591 0.0418773 5.79625e-21)
(0.876444 0.0582603 -4.151e-21)
(0.922091 0.0692317 2.40933e-21)
(0.93668 0.0717761 -1.43051e-20)
(0.931961 0.0914715 1.28993e-20)
(0.869904 0.00639033 -3.35161e-22)
(0.970873 0.0172111 8.03563e-22)
(1.00225 0.0223564 -5.09791e-22)
(0.939956 0.0212706 -9.46849e-22)
(0.864237 0.021803 -9.94496e-23)
(0.856908 0.0311527 1.18957e-20)
(0.896989 0.0453187 7.82281e-21)
(0.929966 0.0573702 2.8073e-21)
(0.94071 0.0554141 6.27204e-21)
(0.936048 0.071588 -1.04025e-20)
(0.889735 0.00565924 -1.56491e-23)
(0.984055 0.0126894 -4.68264e-22)
(1.00514 0.0178526 4.28562e-22)
(0.937711 0.0177808 -1.49367e-21)
(0.871988 0.018342 -4.54463e-21)
(0.877319 0.0262856 -1.13772e-20)
(0.917456 0.0361009 -3.72263e-21)
(0.937067 0.0485935 -2.85316e-21)
(0.941867 0.0449647 6.74708e-21)
(0.941445 0.0560485 5.81895e-21)
(0.906193 0.00544847 2.96257e-22)
(0.993794 0.00976143 6.70182e-23)
(1.01089 0.013419 1.52333e-21)
(0.939951 0.0160309 5.7907e-22)
(0.88044 0.0181921 1.645e-21)
(0.892963 0.0253226 5.67566e-21)
(0.934771 0.0302822 -2.45009e-21)
(0.945041 0.0415815 2.72554e-22)
(0.941448 0.0391245 -2.10063e-21)
(0.944753 0.045971 4.7031e-21)
(0.92123 0.0051549 -1.5355e-22)
(0.999456 0.00812935 9.02966e-22)
(1.01706 0.00899728 1.96852e-23)
(0.947653 0.0128909 -1.29866e-22)
(0.890994 0.017292 1.68137e-21)
(0.903874 0.0248554 4.10676e-24)
(0.94606 0.0263749 -2.37626e-21)
(0.953421 0.0345924 -3.41519e-21)
(0.942143 0.0341751 -3.55279e-22)
(0.945093 0.0393646 1.09986e-21)
(0.934774 0.00413849 4.59718e-23)
(1.00128 0.00655964 -1.02121e-21)
(1.01968 0.00434844 -2.48305e-21)
(0.95796 0.00707981 1.68243e-21)
(0.904932 0.0129133 -7.00525e-22)
(0.912864 0.0215544 2.24075e-22)
(0.950334 0.0222563 2.43962e-21)
(0.958682 0.0267256 -2.65609e-22)
(0.944852 0.0273993 -3.86392e-21)
(0.944724 0.0329838 -3.77416e-21)
(0.944791 0.00264074 -1.64724e-22)
(0.999117 0.00443286 4.07019e-23)
(1.01635 -0.000229702 2.06502e-22)
(0.966179 7.05087e-05 -7.24805e-22)
(0.92156 0.00580881 -1.01977e-21)
(0.923571 0.0149442 -1.37532e-21)
(0.951173 0.016517 1.29212e-21)
(0.960163 0.0189919 -2.55607e-21)
(0.949943 0.0196689 1.87018e-21)
(0.947633 0.0258472 1.30484e-21)
(0.950699 0.00158921 1.06584e-22)
(0.993942 0.00237487 5.42381e-22)
(1.00804 -0.00307723 5.77529e-23)
(0.97028 -0.00503914 -1.79812e-22)
(0.937518 -0.000751393 -1.12692e-21)
(0.936759 0.00811872 -6.8003e-22)
(0.953506 0.0104535 -1.82124e-21)
(0.961128 0.0130042 1.71501e-21)
(0.956698 0.0136786 -2.94318e-22)
(0.954156 0.0193168 -1.5506e-21)
(0.954068 0.00110859 3.08027e-23)
(0.987878 0.0015011 -1.90473e-22)
(0.998187 -0.00345405 6.3838e-22)
(0.971422 -0.00559654 -8.81966e-22)
(0.95008 -0.00333587 1.7897e-21)
(0.949795 0.00371703 9.9323e-22)
(0.959074 0.0063165 -1.31527e-21)
(0.964467 0.00931921 -2.72741e-23)
(0.963759 0.0102576 -2.16265e-21)
(0.961412 0.0146012 6.59123e-22)
(0.957028 0.000930069 -3.78679e-23)
(0.983146 0.00148041 -2.56697e-23)
(0.990469 -0.00221901 5.08417e-22)
(0.971957 -0.00338145 -2.67479e-22)
(0.959047 -0.00233631 -1.42734e-21)
(0.959911 0.00245397 5.02508e-22)
(0.965668 0.00415965 9.65846e-22)
(0.969075 0.00669734 1.55837e-21)
(0.96956 0.00771411 1.05102e-21)
(0.967447 0.010849 -3.30666e-21)
(0.960117 0.000730131 5.22863e-23)
(0.980409 0.00150886 -3.28951e-22)
(0.985963 -0.000997322 -1.20627e-22)
(0.973093 -0.00110645 1.57141e-21)
(0.964741 -0.000520324 8.22423e-24)
(0.965792 0.00216107 4.56316e-22)
(0.969823 0.00265824 -4.25355e-22)
(0.972413 0.00430481 2.60076e-22)
(0.974055 0.00490284 2.67309e-23)
(0.973256 0.00750807 1.79653e-21)
(0.962904 0.000553166 -6.03974e-23)
(0.979048 0.00137339 1.65465e-22)
(0.983756 -0.000284715 -8.5907e-23)
(0.974593 0.0001262 -9.95142e-22)
(0.967988 0.000491485 -2.86249e-22)
(0.967898 0.00191987 -9.00632e-22)
(0.970674 0.00145274 -9.8075e-23)
(0.973945 0.00244097 -4.23687e-22)
(0.978225 0.00297834 -9.02834e-22)
(0.97954 0.0051812 -2.16587e-21)
(0.965377 0.000465192 5.81195e-23)
(0.978425 0.00133068 -2.22577e-22)
(0.982667 0.000152483 -3.64042e-22)
(0.97591 0.000736186 1.32318e-22)
(0.96977 0.000918077 7.3281e-22)
(0.968055 0.00190465 -3.85248e-22)
(0.970295 0.001268 -2.42512e-22)
(0.975439 0.0022094 3.38498e-22)
(0.98287 0.00287895 2.53649e-22)
(0.985389 0.00462572 9.11768e-23)
(0.967996 0.000527421 -4.00066e-23)
(0.978384 0.00145125 1.97483e-22)
(0.982196 0.000705681 1.29377e-22)
(0.97713 0.00127681 -4.67561e-23)
(0.97142 0.00152828 -4.79562e-22)
(0.968666 0.00255121 2.73324e-22)
(0.971159 0.00255972 -5.35962e-23)
(0.978397 0.00348042 -6.04605e-22)
(0.98749 0.0042164 5.97459e-22)
(0.989575 0.00513465 -4.0178e-23)
(0.971245 0.000595716 -3.86979e-25)
(0.979129 0.00161128 3.34009e-24)
(0.982373 0.00121593 4.47835e-22)
(0.978721 0.00178949 -8.84095e-23)
(0.973844 0.00231376 -1.90505e-22)
(0.971023 0.00355092 -8.6747e-23)
(0.973735 0.00413675 4.99651e-22)
(0.981717 0.00505599 -4.53487e-22)
(0.990398 0.00566279 -5.29613e-22)
(0.991685 0.00567105 7.76772e-22)
(0.974818 0.000650033 -8.3899e-24)
(0.980426 0.00169031 1.45019e-24)
(0.983044 0.00167236 -3.76314e-22)
(0.980757 0.00227087 3.33321e-22)
(0.977189 0.00303207 1.65975e-22)
(0.975038 0.00435698 -3.00274e-22)
(0.977312 0.00550601 -4.21866e-23)
(0.984042 0.00625329 3.05046e-22)
(0.991021 0.00650594 -1.05097e-22)
(0.992543 0.00594343 2.34545e-22)
(0.97873 0.000596641 1.55771e-23)
(0.982441 0.00168228 3.63226e-23)
(0.984409 0.00187776 7.16901e-23)
(0.983325 0.00260911 -8.40996e-23)
(0.981192 0.00336165 2.08178e-22)
(0.979867 0.00475765 4.35041e-22)
(0.981092 0.00597456 3.38701e-22)
(0.985155 0.00667277 1.62366e-22)
(0.990063 0.00662556 9.89602e-23)
(0.992875 0.00598848 2.33746e-22)
(0.982492 0.000531744 1.54856e-23)
(0.984756 0.00160941 -1.1035e-22)
(0.986154 0.00198234 2.21664e-23)
(0.985909 0.00276734 -1.04326e-22)
(0.985044 0.00343398 1.26789e-23)
(0.984373 0.00472519 1.16643e-23)
(0.984605 0.00575941 -4.08146e-22)
(0.985815 0.00646731 3.2454e-23)
(0.988923 0.00647566 2.31851e-22)
(0.992982 0.00599919 -7.99625e-23)
(0.986222 0.000429732 -1.0416e-23)
(0.987467 0.0014411 3.90742e-23)
(0.988406 0.00183959 1.0062e-22)
(0.988531 0.00261315 1.0088e-22)
(0.98854 0.00315711 1.69464e-23)
(0.988196 0.00420752 -3.26058e-22)
(0.987878 0.00494559 3.24289e-22)
(0.986992 0.00564187 -1.4355e-22)
(0.98876 0.00591032 -3.62331e-22)
(0.993125 0.00563818 -1.80754e-22)
(0.989311 0.00041549 -4.93649e-24)
(0.989891 0.00111566 1.034e-23)
(0.990494 0.0016756 -9.09237e-23)
(0.990634 0.00217619 -1.27077e-22)
(0.991078 0.00279342 1.12468e-22)
(0.990825 0.00336562 -6.35499e-23)
(0.990381 0.00409782 -1.89051e-22)
(0.988534 0.0044759 -2.33257e-22)
(0.989384 0.00517945 1.81818e-22)
(0.993126 0.00490787 6.40623e-23)
(0.992017 0.000404973 -1.62352e-24)
(0.992195 0.000706635 2.57676e-24)
(0.992564 0.00138662 3.85455e-23)
(0.992553 0.00153608 1.65406e-22)
(0.993097 0.00224637 -1.07525e-22)
(0.992806 0.00230241 8.15568e-23)
(0.992466 0.00319005 6.66491e-23)
(0.990601 0.00319203 1.94956e-22)
(0.990937 0.00421417 4.19899e-23)
(0.993629 0.00380184 -4.79641e-23)
(0.99379 0.000522088 -7.3597e-24)
(0.99376 0.00026985 1.45709e-23)
(0.993978 0.00125755 1.06588e-23)
(0.993821 0.000898893 -1.44228e-22)
(0.994279 0.00190285 8.70716e-23)
(0.993942 0.00141921 -3.4758e-23)
(0.99373 0.00251272 -8.30939e-23)
(0.992304 0.0020307 2.89505e-23)
(0.992418 0.00344183 8.06124e-24)
(0.994131 0.00268574 1.88748e-22)
(0.995321 0.000600348 2.68564e-25)
(0.995202 -9.02729e-05 -1.82867e-24)
(0.995323 0.00108676 3.06825e-23)
(0.995077 0.000345469 7.71382e-24)
(0.995385 0.00153259 2.56878e-23)
(0.995039 0.000710583 8.44849e-23)
(0.994926 0.00195052 -5.67647e-23)
(0.993988 0.00114226 -3.89169e-25)
(0.994078 0.00267755 -1.11527e-22)
(0.995118 0.00176446 -1.71519e-22)
(0.99607 0.000762096 -3.33983e-25)
(0.995938 -0.000390321 2.23673e-23)
(0.995988 0.00110299 -2.82287e-23)
(0.995746 -4.41194e-05 3.10364e-23)
(0.995906 0.00141524 -4.87652e-23)
(0.995619 0.000265567 -7.87711e-23)
(0.995547 0.00171403 9.19733e-23)
(0.995038 0.000608263 9.60182e-24)
(0.995143 0.00223863 3.57087e-23)
(0.995819 0.00115087 1.0078e-22)
(0.996981 0.00080228 -8.37492e-27)
(0.996867 -0.000541185 -8.98087e-24)
(0.996871 0.001024 -5.16788e-24)
(0.99667 -0.000271396 -1.64195e-24)
(0.996724 0.00122981 -1.1197e-23)
(0.996508 3.32762e-06 3.69963e-23)
(0.996447 0.00143985 -4.50719e-24)
(0.996212 0.000300613 2.20485e-23)
(0.996335 0.00180901 -8.47994e-25)
(0.996846 0.000728004 -1.98702e-24)
(0.99728 0.000902816 -2.06334e-24)
(0.9972 -0.000672771 6.20497e-24)
(0.99716 0.00108359 3.18772e-25)
(0.997036 -0.000410047 1.74787e-23)
(0.997002 0.00123355 -2.75932e-23)
(0.996881 -0.000120294 -5.91377e-24)
(0.996797 0.0013723 -3.16046e-23)
(0.996737 0.000170546 -6.51073e-24)
(0.996856 0.0016177 -5.77977e-24)
(0.997298 0.000501282 -3.3644e-23)
(0.998037 0.000834039 3.64191e-24)
(0.997986 -0.000651542 -6.04867e-25)
(0.997928 0.000970819 -1.21539e-23)
(0.997867 -0.000433503 -4.0546e-25)
(0.997795 0.00107978 -8.72041e-24)
(0.997746 -0.000178755 2.681e-23)
(0.997658 0.00118061 3.66915e-24)
(0.997685 8.75569e-05 -6.04856e-24)
(0.9978 0.00134932 7.13589e-25)
(0.998209 0.000352843 5.0032e-24)
(0.998152 0.000866694 7.29061e-25)
(0.998126 -0.000687528 1.23192e-24)
(0.998046 0.000998614 1.96533e-24)
(0.998043 -0.000462884 -9.4894e-24)
(0.997932 0.00109586 7.01859e-24)
(0.997949 -0.000198927 -6.99655e-24)
(0.997836 0.00117153 1.00429e-23)
(0.997922 7.24413e-05 -4.98292e-24)
(0.998014 0.00127104 2.55672e-24)
(0.99841 0.000280334 -4.59111e-24)
(0.998922 0.000715077 -2.92729e-25)
(0.998913 -0.000569171 7.38673e-25)
(0.998835 0.000832547 -1.65175e-25)
(0.99887 -0.000391868 -1.5121e-24)
(0.998758 0.00092334 2.25033e-24)
(0.998816 -0.000182039 -2.18822e-24)
(0.998706 0.000991481 2.87592e-24)
(0.998818 4.28034e-05 -3.65164e-24)
(0.998895 0.0010714 -4.77857e-25)
(0.999277 0.000215884 2.07077e-24)
(0.946879 0.0719277 0)
(0.963844 0.110242 0)
(0.958131 0.0710503 0)
(0.972181 0.0983811 0)
(0.980392 0.077136 0)
(0.986438 0.0836926 0)
(0.992831 0.0762064 0)
(0.999383 0.0732268 0)
(1.00441 0.0673482 0)
(1.00888 0.0640906 0)
(1.01305 0.0580716 0)
(1.01633 0.0536966 0)
(1.01905 0.0483628 0)
(1.02125 0.0435592 0)
(1.02274 0.0386693 0)
(1.02383 0.0341213 0)
(1.02443 0.0297527 0)
(1.02467 0.0257085 0)
(1.02461 0.021971 0)
(1.0243 0.018574 0)
(1.02383 0.0154812 0)
(1.02324 0.0127121 0)
(1.02259 0.0102251 0)
(1.02195 0.00799373 0)
(1.02134 0.00598346 0)
(1.02081 0.00414286 0)
(1.02042 0.00244076 0)
(1.02018 0.000727166 0)
(0.932065 0.0695474 0)
(0.918408 0.083905 0)
(0.951512 0.06083 0)
(0.962078 0.0952869 0)
(0.955998 0.059793 0)
(0.970582 0.0871084 0)
(0.977281 0.0666183 0)
(0.982847 0.0755429 0)
(0.989264 0.0681039 0)
(0.99563 0.0665668 0)
(1.00011 0.062212 0)
(1.00499 0.0594988 0)
(1.00904 0.0543756 0)
(1.01244 0.0507951 0)
(1.0155 0.046047 0)
(1.01787 0.0418858 0)
(1.01975 0.0374867 0)
(1.0212 0.033334 0)
(1.02213 0.0293154 0)
(1.02276 0.025497 0)
(1.02299 0.0219604 0)
(1.02299 0.0186812 0)
(1.02278 0.0156665 0)
(1.0224 0.0129428 0)
(1.02194 0.0104665 0)
(1.02141 0.00822903 0)
(1.02088 0.00620058 0)
(1.02038 0.00433164 0)
(1.01994 0.00257135 0)
(1.01971 0.000879468 0)
(0.936433 0.0567342 0)
(0.921969 0.0703354 0)
(0.955335 0.0518648 0)
(0.962173 0.0811905 0)
(0.955515 0.0502238 0)
(0.969725 0.0768659 0)
(0.975356 0.0565675 0)
(0.979544 0.067823 0)
(0.986372 0.0597256 0)
(0.991626 0.0600708 0)
(0.996119 0.056577 0)
(1.00111 0.0544232 0)
(1.00503 0.0503829 0)
(1.00867 0.0474854 0)
(1.0119 0.0434351 0)
(1.01441 0.0399361 0)
(1.01666 0.0359903 0)
(1.01828 0.0323286 0)
(1.01956 0.0286474 0)
(1.02043 0.0251257 0)
(1.0209 0.0218176 0)
(1.02116 0.018683 0)
(1.02114 0.0157845 0)
(1.02096 0.0131262 0)
(1.02066 0.0106804 0)
(1.02029 0.0084504 0)
(1.01991 0.00640424 0)
(1.01955 0.00450046 0)
(1.01929 0.00267922 0)
(1.0191 0.00100924 0)
(0.943984 0.0465511 0)
(0.929061 0.0593151 0)
(0.958319 0.0451776 0)
(0.962354 0.0687794 0)
(0.957937 0.0420625 0)
(0.969752 0.0682876 0)
(0.974894 0.0473957 0)
(0.978137 0.0612451 0)
(0.984833 0.0518276 0)
(0.989044 0.0544364 0)
(0.993549 0.0509549 0)
(0.998166 0.0495273 0)
(1.00175 0.0463066 0)
(1.00551 0.0439521 0)
(1.00852 0.0406684 0)
(1.01127 0.0376868 0)
(1.01363 0.0342673 0)
(1.01542 0.0310942 0)
(1.01701 0.0277551 0)
(1.01806 0.0245734 0)
(1.01885 0.0214935 0)
(1.01935 0.0185325 0)
(1.01956 0.0157712 0)
(1.01962 0.0131843 0)
(1.01951 0.0107826 0)
(1.01931 0.00856323 0)
(1.01908 0.00651068 0)
(1.0188 0.00457549 0)
(1.01859 0.00273403 0)
(1.01839 0.000812436 0)
(0.950173 0.0389936 0)
(0.93841 0.0495236 0)
(0.960674 0.039494 0)
(0.960998 0.0577233 0)
(0.962121 0.0352829 0)
(0.969756 0.0597823 0)
(0.974785 0.0394964 0)
(0.977859 0.0545526 0)
(0.983707 0.0444211 0)
(0.987544 0.0489304 0)
(0.991984 0.0453447 0)
(0.996241 0.0449407 0)
(0.99969 0.0422801 0)
(1.00338 0.0405362 0)
(1.00617 0.037871 0)
(1.00912 0.0352803 0)
(1.01135 0.032425 0)
(1.01337 0.029649 0)
(1.01506 0.0266622 0)
(1.01629 0.0238302 0)
(1.01732 0.0209699 0)
(1.01798 0.0182363 0)
(1.0184 0.015624 0)
(1.01861 0.0131476 0)
(1.01864 0.0108272 0)
(1.01853 0.00865139 0)
(1.01837 0.00662624 0)
(1.01814 0.00469894 0)
(1.01792 0.00283592 0)
(1.01783 0.0008283 0)
(0.952787 0.0327999 0)
(0.947383 0.0403475 0)
(0.962816 0.0335643 0)
(0.958723 0.0478903 0)
(0.966413 0.0296789 0)
(0.969341 0.0511926 0)
(0.974412 0.033275 0)
(0.977285 0.047627 0)
(0.981939 0.0379473 0)
(0.985341 0.0432058 0)
(0.989416 0.0397493 0)
(0.993112 0.0401274 0)
(0.99662 0.0380459 0)
(0.999967 0.0369825 0)
(1.0029 0.0348735 0)
(1.00582 0.0327366 0)
(1.00801 0.0304762 0)
(1.01026 0.0280031 0)
(1.01194 0.0254651 0)
(1.0134 0.0229197 0)
(1.01457 0.0203336 0)
(1.01541 0.0178336 0)
(1.01604 0.01539 0)
(1.01645 0.0130448 0)
(1.01669 0.0108211 0)
(1.0168 0.00869554 0)
(1.01687 0.00668644 0)
(1.01691 0.00476388 0)
(1.01697 0.00286017 0)
(1.01707 0.0011644 0)
(0.954458 0.0269255 0)
(0.954951 0.0323271 0)
(0.966242 0.0271914 0)
(0.958447 0.0396922 0)
(0.970986 0.0247861 0)
(0.970552 0.043544 0)
(0.97554 0.0283913 0)
(0.978386 0.0415393 0)
(0.981996 0.0328306 0)
(0.98506 0.0383125 0)
(0.988527 0.0349893 0)
(0.991565 0.0357869 0)
(0.994828 0.034045 0)
(0.997607 0.0335324 0)
(1.00067 0.031714 0)
(1.00322 0.0302044 0)
(1.00558 0.0283257 0)
(1.0078 0.0262515 0)
(1.00955 0.0241055 0)
(1.01118 0.0218377 0)
(1.01245 0.0195341 0)
(1.01348 0.0172572 0)
(1.01429 0.0149749 0)
(1.01488 0.0127649 0)
(1.01531 0.0106296 0)
(1.0156 0.00855732 0)
(1.01581 0.0065718 0)
(1.01594 0.00465225 0)
(1.0161 0.00276578 0)
(1.01608 0.00108151 0)
(0.957797 0.0214009 0)
(0.960965 0.0258214 0)
(0.970666 0.0212491 0)
(0.960844 0.0327175 0)
(0.975041 0.0205521 0)
(0.973181 0.0364865 0)
(0.977518 0.0240263 0)
(0.980741 0.0357461 0)
(0.983359 0.0282554 0)
(0.986678 0.0337505 0)
(0.989494 0.0308428 0)
(0.992472 0.0319074 0)
(0.995222 0.0306091 0)
(0.997809 0.0302965 0)
(1.00063 0.0287927 0)
(1.00285 0.0277232 0)
(1.00527 0.0261365 0)
(1.00728 0.0244572 0)
(1.00912 0.022647 0)
(1.01077 0.0206483 0)
(1.01208 0.0186585 0)
(1.0132 0.0165743 0)
(1.01408 0.0144944 0)
(1.01473 0.0124312 0)
(1.0152 0.0104164 0)
(1.01548 0.0084342 0)
(1.01563 0.00652291 0)
(1.01562 0.00463486 0)
(1.01556 0.00279444 0)
(1.01541 0.000643724 0)
(0.962256 0.0169535 0)
(0.965546 0.0207894 0)
(0.974396 0.0167644 0)
(0.964419 0.0266891 0)
(0.977703 0.0173174 0)
(0.975246 0.0300593 0)
(0.978906 0.0203207 0)
(0.981941 0.0301925 0)
(0.983732 0.0239639 0)
(0.987075 0.0291653 0)
(0.989233 0.0266806 0)
(0.992286 0.0280765 0)
(0.994518 0.0272271 0)
(0.997238 0.0271383 0)
(0.99961 0.026029 0)
(1.00179 0.0253183 0)
(1.00406 0.0239503 0)
(1.0059 0.022698 0)
(1.00779 0.0210718 0)
(1.00934 0.0194446 0)
(1.0107 0.0176804 0)
(1.01188 0.0158301 0)
(1.01281 0.0139518 0)
(1.01353 0.0120625 0)
(1.01408 0.0101865 0)
(1.01444 0.0083217 0)
(1.01467 0.00649782 0)
(1.01479 0.0046812 0)
(1.01474 0.00285301 0)
(1.01487 0.000722686 0)
(0.966682 0.0132807 0)
(0.969395 0.0164573 0)
(0.977278 0.0132015 0)
(0.968683 0.0214219 0)
(0.97985 0.0144964 0)
(0.977043 0.0245773 0)
(0.980625 0.0171802 0)
(0.982612 0.0253082 0)
(0.984231 0.0203877 0)
(0.986857 0.0249806 0)
(0.988582 0.0229745 0)
(0.991208 0.0243903 0)
(0.993001 0.0240031 0)
(0.995623 0.0239422 0)
(0.99752 0.0234319 0)
(0.999796 0.0228212 0)
(1.00171 0.0219201 0)
(1.0036 0.0208532 0)
(1.00538 0.0195555 0)
(1.00689 0.018195 0)
(1.0083 0.01667 0)
(1.00953 0.0150174 0)
(1.01055 0.0133572 0)
(1.0114 0.0116115 0)
(1.01211 0.00986974 0)
(1.01265 0.00810311 0)
(1.01309 0.00634037 0)
(1.01345 0.00460405 0)
(1.01364 0.00276768 0)
(1.01395 0.00129926 0)
(0.971546 0.00985599 0)
(0.973105 0.0127722 0)
(0.980342 0.00991288 0)
(0.973747 0.0173526 0)
(0.982382 0.0114528 0)
(0.979941 0.020578 0)
(0.983483 0.0140221 0)
(0.984381 0.0216306 0)
(0.986371 0.0171883 0)
(0.987947 0.0217641 0)
(0.989796 0.0197727 0)
(0.991595 0.0214692 0)
(0.993353 0.0210617 0)
(0.995393 0.0212257 0)
(0.99713 0.020891 0)
(0.999152 0.0205165 0)
(1.00085 0.0198599 0)
(1.00268 0.0190304 0)
(1.0043 0.0179819 0)
(1.00575 0.0169016 0)
(1.00719 0.0155073 0)
(1.00838 0.014116 0)
(1.00944 0.0126072 0)
(1.01033 0.0110234 0)
(1.01108 0.00940261 0)
(1.01168 0.00774624 0)
(1.01214 0.00605969 0)
(1.01251 0.00439844 0)
(1.01282 0.00262697 0)
(1.01283 0.00136533 0)
(0.977068 0.00715669 0)
(0.976705 0.0100914 0)
(0.98378 0.00746368 0)
(0.978828 0.0145316 0)
(0.984629 0.00882199 0)
(0.983564 0.0177373 0)
(0.985892 0.011243 0)
(0.986712 0.0188175 0)
(0.988417 0.014378 0)
(0.989493 0.0190689 0)
(0.991273 0.0170408 0)
(0.992576 0.0189327 0)
(0.994305 0.0185823 0)
(0.995877 0.0188282 0)
(0.997543 0.0187097 0)
(0.999232 0.0184077 0)
(1.00078 0.0180442 0)
(1.0025 0.0172708 0)
(1.00389 0.0166089 0)
(1.00539 0.0155794 0)
(1.00671 0.0144648 0)
(1.00787 0.0132375 0)
(1.00891 0.0119241 0)
(1.00981 0.010476 0)
(1.01054 0.00900268 0)
(1.01113 0.00745994 0)
(1.01155 0.00587178 0)
(1.01188 0.00424609 0)
(1.01216 0.00259822 0)
(1.01201 0.000641174 0)
(0.982254 0.00597295 0)
(0.980346 0.00871519 0)
(0.987292 0.00662135 0)
(0.98319 0.0127469 0)
(0.986562 0.00755415 0)
(0.98703 0.0157341 0)
(0.987437 0.00951116 0)
(0.988904 0.01672 0)
(0.989628 0.0122016 0)
(0.990714 0.01691 0)
(0.992018 0.0146299 0)
(0.993089 0.0167939 0)
(0.99462 0.0162038 0)
(0.995831 0.0167723 0)
(0.997456 0.0165279 0)
(0.998721 0.0166002 0)
(1.00031 0.0161188 0)
(1.00169 0.0157174 0)
(1.00306 0.0150838 0)
(1.00443 0.014275 0)
(1.00569 0.0133063 0)
(1.00678 0.0123144 0)
(1.00783 0.0111077 0)
(1.00872 0.0098478 0)
(1.00947 0.00850118 0)
(1.01011 0.00709609 0)
(1.01056 0.00561157 0)
(1.01098 0.00405694 0)
(1.01113 0.00253008 0)
(1.01136 2.27514e-05 0)
(0.986077 0.00615216 0)
(0.98411 0.00815722 0)
(0.99036 0.00699418 0)
(0.986483 0.0113318 0)
(0.988448 0.00753262 0)
(0.989667 0.0138425 0)
(0.988667 0.00892184 0)
(0.990714 0.0147145 0)
(0.990434 0.0109965 0)
(0.991834 0.0148866 0)
(0.99239 0.0130192 0)
(0.993613 0.0147985 0)
(0.994558 0.0144513 0)
(0.995826 0.0148152 0)
(0.997004 0.0148718 0)
(0.998245 0.0148325 0)
(0.999594 0.0145807 0)
(1.00085 0.0142317 0)
(1.0021 0.0138054 0)
(1.00343 0.0130214 0)
(1.00451 0.0123593 0)
(1.00564 0.0114076 0)
(1.00664 0.0103916 0)
(1.00756 0.00924913 0)
(1.00832 0.00803887 0)
(1.00902 0.00674592 0)
(1.00951 0.00534468 0)
(1.01003 0.00392129 0)
(1.01 0.00239459 0)
(1.01073 0.00032106 0)
(0.988621 0.00668343 0)
(0.98767 0.0079619 0)
(0.992684 0.00740414 0)
(0.98888 0.0101398 0)
(0.990476 0.00765335 0)
(0.991421 0.012061 0)
(0.990317 0.00847507 0)
(0.992094 0.0128388 0)
(0.99169 0.00995072 0)
(0.992907 0.0130727 0)
(0.993287 0.0115139 0)
(0.994336 0.0130888 0)
(0.995073 0.0127067 0)
(0.996172 0.0131505 0)
(0.997137 0.0131495 0)
(0.998215 0.0132436 0)
(0.999453 0.0129119 0)
(1.00043 0.0128778 0)
(1.00173 0.012303 0)
(1.00277 0.0118721 0)
(1.00386 0.0112139 0)
(1.00488 0.0104572 0)
(1.00586 0.00951812 0)
(1.0067 0.00856551 0)
(1.00746 0.00744386 0)
(1.00814 0.00629973 0)
(1.00862 0.00498195 0)
(1.00913 0.00376442 0)
(1.00907 0.00218016 0)
(1.00986 0.0011792 0)
(0.990728 0.00707049 0)
(0.990414 0.00795271 0)
(0.993871 0.00746832 0)
(0.990449 0.00931568 0)
(0.99188 0.00759479 0)
(0.992302 0.0106271 0)
(0.991707 0.0080671 0)
(0.992847 0.0112591 0)
(0.992759 0.00917475 0)
(0.993583 0.0114937 0)
(0.99403 0.0104342 0)
(0.994864 0.0115625 0)
(0.995466 0.0114619 0)
(0.996524 0.0116236 0)
(0.997168 0.0119455 0)
(0.998377 0.0116993 0)
(0.999184 0.0117931 0)
(1.0003 0.0115295 0)
(1.0013 0.0112402 0)
(1.00234 0.010803 0)
(1.00327 0.0103455 0)
(1.00433 0.00957887 0)
(1.00517 0.00886427 0)
(1.00602 0.00797526 0)
(1.00674 0.00698078 0)
(1.00741 0.00594052 0)
(1.0079 0.00470848 0)
(1.00836 0.00364516 0)
(1.00852 0.00202823 0)
(1.00889 0.00172707 0)
(0.992955 0.00702077 0)
(0.992371 0.00777093 0)
(0.99433 0.00709146 0)
(0.9918 0.00861689 0)
(0.992713 0.0071553 0)
(0.993036 0.00948143 0)
(0.992802 0.00738208 0)
(0.993487 0.0100134 0)
(0.993742 0.00814681 0)
(0.994099 0.010244 0)
(0.994846 0.00908875 0)
(0.995168 0.0103497 0)
(0.996056 0.00991495 0)
(0.996614 0.0103973 0)
(0.99746 0.0103981 0)
(0.998282 0.0104064 0)
(0.999134 0.0103949 0)
(0.999987 0.0102999 0)
(1.001 0.00994323 0)
(1.00176 0.00977599 0)
(1.00281 0.00920157 0)
(1.00362 0.00869228 0)
(1.00448 0.00801663 0)
(1.00522 0.00728731 0)
(1.00595 0.00636632 0)
(1.00656 0.00546484 0)
(1.00709 0.00433836 0)
(1.00748 0.00337116 0)
(1.00793 0.00188105 0)
(1.00778 0.00152898 0)
(0.994822 0.0068481 0)
(0.993477 0.00731854 0)
(0.994194 0.00677051 0)
(0.992838 0.00782019 0)
(0.992884 0.00686212 0)
(0.993645 0.00840529 0)
(0.993222 0.00702715 0)
(0.994089 0.00886333 0)
(0.994145 0.00754079 0)
(0.994623 0.00912012 0)
(0.995193 0.00821474 0)
(0.995513 0.00926432 0)
(0.996286 0.00885931 0)
(0.996768 0.00930652 0)
(0.997477 0.00933072 0)
(0.998287 0.00925437 0)
(0.998855 0.00946384 0)
(0.999876 0.00913004 0)
(1.0005 0.00911529 0)
(1.00145 0.00877183 0)
(1.00223 0.00841087 0)
(1.0031 0.0079169 0)
(1.00379 0.00740817 0)
(1.0046 0.00668515 0)
(1.00525 0.00591124 0)
(1.00585 0.00507022 0)
(1.00641 0.0040588 0)
(1.00674 0.00309268 0)
(1.00736 0.00181667 0)
(1.00693 0.000912656 0)
(0.996036 0.00631663 0)
(0.994239 0.00633149 0)
(0.994161 0.00627893 0)
(0.993869 0.00657618 0)
(0.993143 0.00644259 0)
(0.994438 0.0070321 0)
(0.993615 0.00654606 0)
(0.994889 0.00748771 0)
(0.994527 0.00681452 0)
(0.995323 0.00785143 0)
(0.99559 0.00718323 0)
(0.995967 0.0081348 0)
(0.996697 0.00757452 0)
(0.996914 0.00829755 0)
(0.997832 0.00793799 0)
(0.99817 0.00827163 0)
(0.999025 0.0081491 0)
(0.999613 0.00808412 0)
(1.0004 0.00797373 0)
(1.00105 0.00776845 0)
(1.00192 0.00739071 0)
(1.0025 0.0071104 0)
(1.0033 0.00656186 0)
(1.00393 0.00599892 0)
(1.00458 0.00530659 0)
(1.0051 0.00456528 0)
(1.00564 0.00367967 0)
(1.00593 0.00272704 0)
(1.00652 0.00171551 0)
(1.00612 0.000341708 0)
(0.996174 0.00566039 0)
(0.994488 0.00510604 0)
(0.994073 0.00580141 0)
(0.994435 0.00515534 0)
(0.993353 0.00614513 0)
(0.99493 0.00550983 0)
(0.993811 0.00630944 0)
(0.995439 0.00600324 0)
(0.994617 0.00648135 0)
(0.995891 0.00649186 0)
(0.995598 0.00666919 0)
(0.996452 0.00693132 0)
(0.996656 0.00686827 0)
(0.99723 0.00725159 0)
(0.997753 0.00707378 0)
(0.998289 0.00735084 0)
(0.998864 0.0072499 0)
(0.999593 0.00718785 0)
(1.00006 0.00720516 0)
(1.00093 0.0069042 0)
(1.00142 0.0067533 0)
(1.00219 0.00641378 0)
(1.00279 0.00598111 0)
(1.00347 0.0054676 0)
(1.004 0.00489769 0)
(1.00455 0.00418383 0)
(1.00504 0.00341773 0)
(1.00533 0.00247436 0)
(1.00579 0.00164613 0)
(1.00562 9.40454e-05 0)
(0.996126 0.00476667 0)
(0.994908 0.00379446 0)
(0.994478 0.0050807 0)
(0.995076 0.00376266 0)
(0.994055 0.00555472 0)
(0.995542 0.0040118 0)
(0.99444 0.00578571 0)
(0.996043 0.00451674 0)
(0.995101 0.00589447 0)
(0.996475 0.00508833 0)
(0.995968 0.00594982 0)
(0.996932 0.00565781 0)
(0.996966 0.00598983 0)
(0.997516 0.00612544 0)
(0.998035 0.00604498 0)
(0.998312 0.0063745 0)
(0.999097 0.00613266 0)
(0.999365 0.00631486 0)
(1.00012 0.00617746 0)
(1.00056 0.00603463 0)
(1.00122 0.00589626 0)
(1.00173 0.00560911 0)
(1.00241 0.00522514 0)
(1.00285 0.00485154 0)
(1.00343 0.0043226 0)
(1.00387 0.00370277 0)
(1.00432 0.00305287 0)
(1.0046 0.00218243 0)
(1.00491 0.0014968 0)
(1.00496 8.72177e-05 0)
(0.995847 0.00396641 0)
(0.995133 0.00268139 0)
(0.994833 0.00442562 0)
(0.995395 0.00263094 0)
(0.99465 0.005027 0)
(0.995848 0.0027747 0)
(0.99493 0.00542015 0)
(0.996369 0.00325595 0)
(0.99542 0.00557101 0)
(0.996851 0.00386062 0)
(0.996099 0.00559547 0)
(0.997336 0.00450927 0)
(0.996934 0.00555058 0)
(0.997886 0.00510096 0)
(0.997884 0.00549419 0)
(0.998561 0.00551829 0)
(0.998884 0.00547171 0)
(0.999422 0.00564514 0)
(0.999863 0.00547861 0)
(1.00048 0.0054287 0)
(1.00086 0.00531058 0)
(1.00156 0.00502636 0)
(1.00196 0.00477168 0)
(1.00252 0.00441953 0)
(1.00298 0.00394517 0)
(1.00344 0.00339409 0)
(1.00382 0.0028193 0)
(1.00413 0.00201811 0)
(1.00433 0.00138437 0)
(1.00453 0.000204237 0)
(0.996162 0.00315405 0)
(0.995813 0.0018331 0)
(0.99565 0.00366834 0)
(0.996076 0.00178772 0)
(0.995622 0.00428805 0)
(0.99646 0.00184169 0)
(0.995829 0.00474392 0)
(0.996903 0.00223157 0)
(0.996186 0.0049248 0)
(0.997334 0.00278941 0)
(0.996711 0.00495786 0)
(0.99775 0.00343296 0)
(0.9974 0.00489383 0)
(0.998185 0.00405792 0)
(0.998218 0.00479384 0)
(0.998695 0.00454745 0)
(0.999105 0.00470648 0)
(0.999347 0.00478528 0)
(0.99999 0.00464296 0)
(1.0002 0.00468427 0)
(1.00081 0.00453735 0)
(1.00115 0.00432866 0)
(1.00163 0.00416213 0)
(1.00203 0.00381153 0)
(1.0025 0.00342839 0)
(1.00282 0.00297097 0)
(1.00317 0.00247054 0)
(1.00345 0.00177847 0)
(1.00359 0.00120977 0)
(1.00382 0.000287576 0)
(0.996397 0.00261174 0)
(0.99622 0.00128521 0)
(0.996163 0.00316053 0)
(0.996424 0.00123754 0)
(0.996207 0.00382176 0)
(0.996758 0.0012307 0)
(0.996341 0.00436842 0)
(0.997178 0.00152437 0)
(0.99657 0.00460899 0)
(0.997618 0.00202053 0)
(0.996926 0.00467637 0)
(0.99806 0.00263641 0)
(0.997439 0.00460954 0)
(0.998505 0.00328574 0)
(0.998108 0.00446623 0)
(0.99898 0.00385208 0)
(0.998899 0.00430582 0)
(0.999532 0.004208 0)
(0.999746 0.00416751 0)
(1.00021 0.00425899 0)
(1.00056 0.00404131 0)
(1.00102 0.00397773 0)
(1.00133 0.0037641 0)
(1.00184 0.00346571 0)
(1.00214 0.00314783 0)
(1.00251 0.00274333 0)
(1.00282 0.00226306 0)
(1.00309 0.0016641 0)
(1.00322 0.00110496 0)
(1.00344 0.000340402 0)
(0.997166 0.00210009 0)
(0.997068 0.000894659 0)
(0.997044 0.00259671 0)
(0.997198 0.000834244 0)
(0.9971 0.00319025 0)
(0.997449 0.000778314 0)
(0.997193 0.003734 0)
(0.997763 0.000951561 0)
(0.99735 0.00399897 0)
(0.998111 0.0013481 0)
(0.997604 0.00410682 0)
(0.998461 0.00187068 0)
(0.997991 0.00407671 0)
(0.998805 0.00244824 0)
(0.998513 0.00395267 0)
(0.99916 0.00298721 0)
(0.999148 0.00378411 0)
(0.999557 0.00338366 0)
(0.999841 0.00361351 0)
(1.00005 0.00353859 0)
(1.00052 0.00344174 0)
(1.00067 0.00338252 0)
(1.00112 0.00319948 0)
(1.00137 0.00294885 0)
(1.00168 0.00273505 0)
(1.00197 0.00233694 0)
(1.00222 0.00195276 0)
(1.00243 0.00144868 0)
(1.00254 0.000945924 0)
(1.00272 0.000324669 0)
(0.997495 0.00184686 0)
(0.997405 0.00068103 0)
(0.997413 0.00232337 0)
(0.997473 0.000613627 0)
(0.997471 0.00290973 0)
(0.997684 0.000523837 0)
(0.99753 0.0034832 0)
(0.997984 0.000607168 0)
(0.997613 0.00377783 0)
(0.998329 0.000936253 0)
(0.997764 0.00390539 0)
(0.998697 0.00140761 0)
(0.998027 0.00388554 0)
(0.999061 0.00196596 0)
(0.998429 0.00375526 0)
(0.999415 0.00252083 0)
(0.998966 0.00356431 0)
(0.999775 0.00296649 0)
(0.999607 0.00335502 0)
(1.00018 0.00319855 0)
(1.00029 0.00313883 0)
(1.00066 0.00314314 0)
(1.00093 0.00288589 0)
(1.00122 0.00278551 0)
(1.00148 0.00249876 0)
(1.00178 0.00217316 0)
(1.00199 0.00181527 0)
(1.0022 0.00136281 0)
(1.00232 0.000870738 0)
(1.00245 0.00031197 0)
(0.998343 0.00153627 0)
(0.998245 0.000497451 0)
(0.998221 0.00193564 0)
(0.998249 0.000415517 0)
(0.998248 0.00243939 0)
(0.998391 0.000296414 0)
(0.998285 0.0029683 0)
(0.998599 0.000292348 0)
(0.998337 0.0032889 0)
(0.998844 0.000515355 0)
(0.998426 0.00345557 0)
(0.999106 0.000866699 0)
(0.998595 0.00348866 0)
(0.999361 0.00131312 0)
(0.998869 0.00340465 0)
(0.999602 0.00179322 0)
(0.99925 0.00323489 0)
(0.99984 0.00222177 0)
(0.999713 0.00301556 0)
(1.0001 0.0025033 0)
(1.00021 0.00277058 0)
(1.00042 0.00255876 0)
(1.00068 0.00249167 0)
(1.00081 0.00234112 0)
(1.00108 0.00211924 0)
(1.00124 0.0018444 0)
(1.0014 0.00156358 0)
(1.00157 0.00115687 0)
(1.00165 0.000741437 0)
(1.00174 0.000268823 0)
(0.998525 0.00142529 0)
(0.998405 0.000400954 0)
(0.998397 0.00182111 0)
(0.998376 0.000319772 0)
(0.998419 0.00231468 0)
(0.998504 0.000193123 0)
(0.998435 0.00283401 0)
(0.99872 0.000129975 0)
(0.998439 0.00318624 0)
(0.998974 0.000330604 0)
(0.998477 0.00334909 0)
(0.999254 0.000661639 0)
(0.998581 0.00338373 0)
(0.99953 0.0010921 0)
(0.998788 0.00330174 0)
(0.999783 0.00156494 0)
(0.999113 0.00313054 0)
(1.00001 0.00200198 0)
(0.999544 0.00290238 0)
(1.00024 0.00231369 0)
(1.00004 0.00264292 0)